<event>
 4    1  0.2621617E-004  0.4482674E+03  0.7818608E-02  0.1028240E+00
          2   -1    0    0  501    0  0.00000000000E+00  0.00000000000E+00  0.39681442519E+04  0.39681442519E+04  0.25500000000E-02 0.  1.
         -2   -1    0    0    0  501 -0.00000000000E+00 -0.00000000000E+00 -0.12659802469E+02  0.12659802725E+02  0.25500000000E-02 0. -1.
    5000001    1    1    2    0    0 -0.14043183130E+03  0.10522632110E+03  0.14665780726E+04  0.14824890964E+04  0.12700000000E+03 0.  0.
   -5000001    1    1    2    0    0  0.14043183130E+03 -0.10522632110E+03  0.24889063769E+04  0.24983149583E+04  0.12700000000E+03 0.  0.
<mgrwt>
<rscale>  0 0.44826743E+03</rscale>
<asrwt>0</asrwt>
<pdfrwt beam="1">  1        2 0.56687763E+00 0.44826743E+03</pdfrwt>
<pdfrwt beam="2">  1       -2 0.18085436E-02 0.44826743E+03</pdfrwt>
<totfact> 0.65798179E+02</totfact>
</mgrwt>
</event>
<event>
 4    1  0.2621617E-004  0.5377928E+03  0.7818608E-02  0.1004360E+00
         -2   -1    0    0    0  501 -0.00000000000E+00  0.00000000000E+00  0.72358007012E+02  0.72358007057E+02  0.25500000000E-02 0. -1.
          2   -1    0    0  501    0  0.00000000000E+00 -0.00000000000E+00 -0.99927108438E+03  0.99927108438E+03  0.25500000000E-02 0.  1.
    5000001    1    1    2    0    0 -0.11845379471E+03  0.10575273146E+02 -0.87198788654E+03  0.88917659222E+03  0.12700000000E+03 0.  0.
   -5000001    1    1    2    0    0  0.11845379471E+03 -0.10575273146E+02 -0.54925190823E+02  0.18245249921E+03  0.12700000000E+03 0.  0.
<mgrwt>
<rscale>  0 0.53779276E+03</rscale>
<asrwt>0</asrwt>
<pdfrwt beam="1">  1        2 0.14275300E+00 0.53779276E+03</pdfrwt>
<pdfrwt beam="2">  1       -2 0.10336859E-01 0.53779276E+03</pdfrwt>
<totfact> 0.18346054E+03</totfact>
</mgrwt>
</event>
<event>
 4    1  0.2621617E-004  0.6757138E+03  0.7818608E-02  0.9759690E-01
         -2   -1    0    0    0  501 -0.00000000000E+00  0.00000000000E+00  0.13018633363E+03  0.13018633365E+03  0.25500000000E-02 0. -1.
          2   -1    0    0  501    0  0.00000000000E+00 -0.00000000000E+00 -0.87679934489E+03  0.87679934490E+03  0.25500000000E-02 0.  1.
    5000001    1    1    2    0    0  0.34801730297E+01  0.24936156643E+03 -0.65537431687E+03  0.71262739046E+03  0.12700000000E+03 0.  0.
   -5000001    1    1    2    0    0 -0.34801730297E+01 -0.24936156643E+03 -0.91238694393E+02  0.29435828809E+03  0.12700000000E+03 0.  0.
<mgrwt>
<rscale>  0 0.67571382E+03</rscale>
<asrwt>0</asrwt>
<pdfrwt beam="1">  1        2 0.12525705E+00 0.67571382E+03</pdfrwt>
<pdfrwt beam="2">  1       -2 0.18598048E-01 0.67571382E+03</pdfrwt>
<totfact> 0.81906250E+02</totfact>
</mgrwt>
</event>
<event>
 4    1  0.2621617E-004  0.3397686E+03  0.7818608E-02  0.1066895E+00
         -2   -1    0    0    0  501 -0.00000000000E+00  0.00000000000E+00  0.20284633298E+02  0.20284633458E+02  0.25500000000E-02 0. -1.
          2   -1    0    0  501    0  0.00000000000E+00 -0.00000000000E+00 -0.14227854613E+04  0.14227854613E+04  0.25500000000E-02 0.  1.
    5000001    1    1    2    0    0 -0.31583114793E+01 -0.98202876271E+02 -0.46561991249E+03  0.49252886489E+03  0.12700000000E+03 0.  0.
   -5000001    1    1    2    0    0  0.31583114793E+01  0.98202876271E+02 -0.93688091554E+03  0.95054122990E+03  0.12700000000E+03 0.  0.
<mgrwt>
<rscale>  0 0.33976864E+03</rscale>
<asrwt>0</asrwt>
<pdfrwt beam="1">  1        2 0.20325500E+00 0.33976864E+03</pdfrwt>
<pdfrwt beam="2">  1       -2 0.28978057E-02 0.33976864E+03</pdfrwt>
<totfact> 0.76505566E+03</totfact>
</mgrwt>
</event>
<event>
 4    1  0.2621617E-004  0.5072997E+03  0.7818608E-02  0.1011891E+00
         -2   -1    0    0    0  501 -0.00000000000E+00  0.00000000000E+00  0.95546534648E+02  0.95546534682E+02  0.25500000000E-02 0.  1.
          2   -1    0    0  501    0  0.00000000000E+00 -0.00000000000E+00 -0.67337069295E+03  0.67337069295E+03  0.25500000000E-02 0. -1.
    5000001    1    1    2    0    0 -0.18922277547E+03 -0.62233579008E+02 -0.42890753894E+03  0.48966208152E+03  0.12700000000E+03 0.  0.
   -5000001    1    1    2    0    0  0.18922277547E+03  0.62233579008E+02 -0.14891661936E+03  0.27925514612E+03  0.12700000000E+03 0.  0.
<mgrwt>
<rscale>  0 0.50729966E+03</rscale>
<asrwt>0</asrwt>
<pdfrwt beam="1">  1        2 0.96195811E-01 0.50729966E+03</pdfrwt>
<pdfrwt beam="2">  1       -2 0.13649505E-01 0.50729966E+03</pdfrwt>
<totfact> 0.19341716E+03</totfact>
</mgrwt>
</event>
<event>
 4    1  0.2621617E-004  0.2960669E+03  0.7818608E-02  0.1087223E+00
          2   -1    0    0  501    0  0.00000000000E+00  0.00000000000E+00  0.19393870491E+04  0.19393870491E+04  0.25500000000E-02 0.  1.
         -2   -1    0    0    0  501 -0.00000000000E+00 -0.00000000000E+00 -0.11299396801E+02  0.11299397088E+02  0.25500000000E-02 0. -1.
    5000001    1    1    2    0    0  0.34470461469E+02 -0.45080554056E+02  0.12976956037E+04  0.13051296292E+04  0.12700000000E+03 0.  0.
   -5000001    1    1    2    0    0 -0.34470461469E+02  0.45080554056E+02  0.63039204862E+03  0.64555681704E+03  0.12700000000E+03 0.  0.
<mgrwt>
<rscale>  0 0.29606691E+03</rscale>
<asrwt>0</asrwt>
<pdfrwt beam="1">  1        2 0.27705508E+00 0.29606691E+03</pdfrwt>
<pdfrwt beam="2">  1       -2 0.16142008E-02 0.29606691E+03</pdfrwt>
<totfact> 0.10032578E+04</totfact>
</mgrwt>
</event>
<event>
 4    1  0.2621617E-004  0.4745610E+03  0.7818608E-02  0.1020641E+00
         -2   -1    0    0    0  501 -0.00000000000E+00  0.00000000000E+00  0.23497444464E+02  0.23497444603E+02  0.25500000000E-02 0. -1.
          2   -1    0    0  501    0  0.00000000000E+00 -0.00000000000E+00 -0.23960915564E+04  0.23960915564E+04  0.25500000000E-02 0.  1.
    5000001    1    1    2    0    0  0.10331547448E+03 -0.16099412238E+03 -0.14913540689E+04  0.15089264905E+04  0.12700000000E+03 0.  0.
   -5000001    1    1    2    0    0 -0.10331547448E+03  0.16099412238E+03 -0.88124004302E+03  0.91066251055E+03  0.12700000000E+03 0.  0.
<mgrwt>
<rscale>  0 0.47456097E+03</rscale>
<asrwt>0</asrwt>
<pdfrwt beam="1">  1        2 0.34229864E+00 0.47456097E+03</pdfrwt>
<pdfrwt beam="2">  1       -2 0.33567793E-02 0.47456097E+03</pdfrwt>
<totfact> 0.19930335E+03</totfact>
</mgrwt>
</event>
<event>
 4    1  0.2621617E-004  0.3876107E+03  0.7818608E-02  0.1048156E+00
         -2   -1    0    0    0  501 -0.00000000000E+00  0.00000000000E+00  0.24128076657E+02  0.24128076792E+02  0.25500000000E-02 0. -1.
          2   -1    0    0  501    0  0.00000000000E+00 -0.00000000000E+00 -0.15567140505E+04  0.15567140505E+04  0.25500000000E-02 0.  1.
    5000001    1    1    2    0    0  0.88809186804E+02 -0.10957350312E+03 -0.60634312889E+03  0.63535377090E+03  0.12700000000E+03 0.  0.
   -5000001    1    1    2    0    0 -0.88809186804E+02  0.10957350312E+03 -0.92624284498E+03  0.94548835642E+03  0.12700000000E+03 0.  0.
<mgrwt>
<rscale>  0 0.38761071E+03</rscale>
<asrwt>0</asrwt>
<pdfrwt beam="1">  1        2 0.22238766E+00 0.38761071E+03</pdfrwt>
<pdfrwt beam="2">  1       -2 0.34468691E-02 0.38761071E+03</pdfrwt>
<totfact> 0.50397680E+03</totfact>
</mgrwt>
</event>
<event>
 4    1  0.2621617E-004  0.2871042E+03  0.7818608E-02  0.1091871E+00
          2   -1    0    0  501    0  0.00000000000E+00  0.00000000000E+00  0.43463566854E+03  0.43463566854E+03  0.25500000000E-02 0.  1.
         -2   -1    0    0    0  501 -0.00000000000E+00 -0.00000000000E+00 -0.47412584667E+02  0.47412584736E+02  0.25500000000E-02 0. -1.
    5000001    1    1    2    0    0  0.59226561944E+02 -0.14719454135E+02  0.23970777086E+03  0.27805262700E+03  0.12700000000E+03 0.  0.
   -5000001    1    1    2    0    0 -0.59226561944E+02  0.14719454135E+02  0.14751531301E+03  0.20399562628E+03  0.12700000000E+03 0.  0.
<mgrwt>
<rscale>  0 0.28710417E+03</rscale>
<asrwt>0</asrwt>
<pdfrwt beam="1">  1        2 0.62090811E-01 0.28710417E+03</pdfrwt>
<pdfrwt beam="2">  1       -2 0.67732262E-02 0.28710417E+03</pdfrwt>
<totfact> 0.96534184E+03</totfact>
</mgrwt>
</event>
<event>
 4    1  0.2621617E-004  0.4188499E+03  0.7818608E-02  0.1037441E+00
         -2   -1    0    0    0  501 -0.00000000000E+00  0.00000000000E+00  0.75283168224E+02  0.75283168267E+02  0.25500000000E-02 0. -1.
          2   -1    0    0  501    0  0.00000000000E+00 -0.00000000000E+00 -0.58258444987E+03  0.58258444987E+03  0.25500000000E-02 0.  1.
    5000001    1    1    2    0    0  0.95862287308E+02  0.12887441243E+03 -0.18462031163E+03  0.27570246965E+03  0.12700000000E+03 0.  0.
   -5000001    1    1    2    0    0 -0.95862287308E+02 -0.12887441243E+03 -0.32268097002E+03  0.38216514849E+03  0.12700000000E+03 0.  0.
<mgrwt>
<rscale>  0 0.41884987E+03</rscale>
<asrwt>0</asrwt>
<pdfrwt beam="1">  1        2 0.83226348E-01 0.41884987E+03</pdfrwt>
<pdfrwt beam="2">  1       -2 0.10754739E-01 0.41884987E+03</pdfrwt>
<totfact> 0.33840124E+03</totfact>
</mgrwt>
</event>
<event>
 4    1  0.2621617E-004  0.4064985E+03  0.7818608E-02  0.1041552E+00
          2   -1    0    0  501    0  0.00000000000E+00  0.00000000000E+00  0.14777558249E+04  0.14777558249E+04  0.25500000000E-02 0.  1.
         -2   -1    0    0    0  501 -0.00000000000E+00 -0.00000000000E+00 -0.27954723718E+02  0.27954723834E+02  0.25500000000E-02 0. -1.
    5000001    1    1    2    0    0  0.61369994232E+02  0.11996825039E+03  0.41449357124E+03  0.45397420400E+03  0.12700000000E+03 0.  0.
   -5000001    1    1    2    0    0 -0.61369994232E+02 -0.11996825039E+03  0.10353075299E+04  0.10517363447E+04  0.12700000000E+03 0.  0.
<mgrwt>
<rscale>  0 0.40649849E+03</rscale>
<asrwt>0</asrwt>
<pdfrwt beam="1">  1        2 0.21110789E+00 0.40649849E+03</pdfrwt>
<pdfrwt beam="2">  1       -2 0.39935336E-02 0.40649849E+03</pdfrwt>
<totfact> 0.44257374E+03</totfact>
</mgrwt>
</event>
<event>
 4    1  0.2621617E-004  0.2968440E+03  0.7818608E-02  0.1086829E+00
         -2   -1    0    0    0  501 -0.00000000000E+00  0.00000000000E+00  0.19966778240E+02  0.19966778402E+02  0.25500000000E-02 0. -1.
          2   -1    0    0  501    0  0.00000000000E+00 -0.00000000000E+00 -0.11032873564E+04  0.11032873564E+04  0.25500000000E-02 0.  1.
    5000001    1    1    2    0    0  0.54665655851E+02 -0.50460459243E+02 -0.61400298802E+03  0.63139786282E+03  0.12700000000E+03 0.  0.
   -5000001    1    1    2    0    0 -0.54665655851E+02  0.50460459243E+02 -0.46931759016E+03  0.49185627200E+03  0.12700000000E+03 0.  0.
<mgrwt>
<rscale>  0 0.29684403E+03</rscale>
<asrwt>0</asrwt>
<pdfrwt beam="1">  1        2 0.15761244E+00 0.29684403E+03</pdfrwt>
<pdfrwt beam="2">  1       -2 0.28523976E-02 0.29684403E+03</pdfrwt>
<totfact> 0.11593186E+04</totfact>
</mgrwt>
</event>
<event>
 4    1  0.2621617E-004  0.5831914E+03  0.7818608E-02  0.9940905E-01
         -2   -1    0    0    0  501 -0.00000000000E+00  0.00000000000E+00  0.14074240274E+03  0.14074240276E+03  0.25500000000E-02 0. -1.
          2   -1    0    0  501    0  0.00000000000E+00 -0.00000000000E+00 -0.60413957747E+03  0.60413957747E+03  0.25500000000E-02 0.  1.
    5000001    1    1    2    0    0  0.47975828800E+02 -0.23440497235E+03 -0.93828291717E+02  0.28667075110E+03  0.12700000000E+03 0.  0.
   -5000001    1    1    2    0    0 -0.47975828800E+02  0.23440497235E+03 -0.36956888301E+03  0.45821122913E+03  0.12700000000E+03 0.  0.
<mgrwt>
<rscale>  0 0.58319141E+03</rscale>
<asrwt>0</asrwt>
<pdfrwt beam="1">  1        2 0.86305653E-01 0.58319141E+03</pdfrwt>
<pdfrwt beam="2">  1       -2 0.20106058E-01 0.58319141E+03</pdfrwt>
<totfact> 0.11391981E+03</totfact>
</mgrwt>
</event>
<event>
 4    1  0.2621617E-004  0.5276023E+03  0.7818608E-02  0.1006815E+00
         -2   -1    0    0    0  501 -0.00000000000E+00  0.00000000000E+00  0.22348559023E+03  0.22348559025E+03  0.25500000000E-02 0. -1.
          2   -1    0    0  501    0  0.00000000000E+00 -0.00000000000E+00 -0.31138943343E+03  0.31138943344E+03  0.25500000000E-02 0.  1.
    5000001    1    1    2    0    0  0.14966216077E+03 -0.14335911590E+03  0.59986710663E+02  0.25035575474E+03  0.12700000000E+03 0.  0.
   -5000001    1    1    2    0    0 -0.14966216077E+03  0.14335911590E+03 -0.14789055386E+03  0.28451926894E+03  0.12700000000E+03 0.  0.
<mgrwt>
<rscale>  0 0.52760232E+03</rscale>
<asrwt>0</asrwt>
<pdfrwt beam="1">  1        2 0.44484205E-01 0.52760232E+03</pdfrwt>
<pdfrwt beam="2">  1       -2 0.31926513E-01 0.52760232E+03</pdfrwt>
<totfact> 0.10448001E+03</totfact>
</mgrwt>
</event>
<event>
 4    1  0.2621617E-004  0.1121706E+04  0.7818608E-02  0.9184290E-01
          2   -1    0    0  501    0  0.00000000000E+00  0.00000000000E+00  0.52780498069E+03  0.52780498069E+03  0.25500000000E-02 0.  1.
         -2   -1    0    0    0  501 -0.00000000000E+00 -0.00000000000E+00 -0.59597056122E+03  0.59597056122E+03  0.25500000000E-02 0. -1.
    5000001    1    1    2    0    0  0.34843720904E+03 -0.12096331035E+03  0.36963283137E+03  0.53739933115E+03  0.12700000000E+03 0.  0.
   -5000001    1    1    2    0    0 -0.34843720904E+03  0.12096331035E+03 -0.43779841190E+03  0.58637621077E+03  0.12700000000E+03 0.  0.
<mgrwt>
<rscale>  0 0.11217063E+04</rscale>
<asrwt>0</asrwt>
<pdfrwt beam="1">  1        2 0.75400712E-01 0.11217063E+04</pdfrwt>
<pdfrwt beam="2">  1       -2 0.85138651E-01 0.11217063E+04</pdfrwt>
<totfact> 0.75171404E+01</totfact>
</mgrwt>
</event>
<event>
 4    1  0.2621617E-004  0.5620337E+03  0.7818608E-02  0.9987464E-01
          2   -1    0    0  501    0  0.00000000000E+00  0.00000000000E+00  0.88740659388E+03  0.88740659388E+03  0.25500000000E-02 0.  1.
         -2   -1    0    0    0  501 -0.00000000000E+00 -0.00000000000E+00 -0.88990174478E+02  0.88990174514E+02  0.25500000000E-02 0. -1.
    5000001    1    1    2    0    0  0.26942345665E+02 -0.19090942970E+03  0.12087189475E+03  0.26059799554E+03  0.12700000000E+03 0.  0.
   -5000001    1    1    2    0    0 -0.26942345665E+02  0.19090942970E+03  0.67754452466E+03  0.71579877286E+03  0.12700000000E+03 0.  0.
<mgrwt>
<rscale>  0 0.56203369E+03</rscale>
<asrwt>0</asrwt>
<pdfrwt beam="1">  1        2 0.12677236E+00 0.56203369E+03</pdfrwt>
<pdfrwt beam="2">  1       -2 0.12712883E-01 0.56203369E+03</pdfrwt>
<totfact> 0.15365097E+03</totfact>
</mgrwt>
</event>
<event>
 4    1  0.2621617E-004  0.4905315E+03  0.7818608E-02  0.1016280E+00
         -2   -1    0    0    0  501 -0.00000000000E+00  0.00000000000E+00  0.56788205970E+02  0.56788206027E+02  0.25500000000E-02 0. -1.
          2   -1    0    0  501    0  0.00000000000E+00 -0.00000000000E+00 -0.10592919874E+04  0.10592919874E+04  0.25500000000E-02 0.  1.
    5000001    1    1    2    0    0 -0.17789192122E+03  0.70703808012E+02 -0.30576956767E+03  0.38245077150E+03  0.12700000000E+03 0.  0.
   -5000001    1    1    2    0    0  0.17789192122E+03 -0.70703808012E+02 -0.69673421372E+03  0.73362942190E+03  0.12700000000E+03 0.  0.
<mgrwt>
<rscale>  0 0.49053151E+03</rscale>
<asrwt>0</asrwt>
<pdfrwt beam="1">  1        2 0.15132742E+00 0.49053151E+03</pdfrwt>
<pdfrwt beam="2">  1       -2 0.81126015E-02 0.49053151E+03</pdfrwt>
<totfact> 0.24925348E+03</totfact>
</mgrwt>
</event>
<event>
 4    1  0.2621617E-004  0.5148098E+03  0.7818608E-02  0.1009984E+00
         -2   -1    0    0    0  501 -0.00000000000E+00  0.00000000000E+00  0.14539295431E+03  0.14539295434E+03  0.25500000000E-02 0. -1.
          2   -1    0    0  501    0  0.00000000000E+00 -0.00000000000E+00 -0.45571183006E+03  0.45571183007E+03  0.25500000000E-02 0.  1.
    5000001    1    1    2    0    0  0.16934474898E+03 -0.12229011933E+03 -0.24926574763E+03  0.34913454460E+03  0.12700000000E+03 0.  0.
   -5000001    1    1    2    0    0 -0.16934474898E+03  0.12229011933E+03 -0.61053128110E+02  0.25197023980E+03  0.12700000000E+03 0.  0.
<mgrwt>
<rscale>  0 0.51480983E+03</rscale>
<asrwt>0</asrwt>
<pdfrwt beam="1">  1        2 0.65101689E-01 0.51480983E+03</pdfrwt>
<pdfrwt beam="2">  1       -2 0.20770422E-01 0.51480983E+03</pdfrwt>
<totfact> 0.14868847E+03</totfact>
</mgrwt>
</event>
<event>
 4    1  0.2621617E-004  0.4120263E+03  0.7818608E-02  0.1039693E+00
         -2   -1    0    0    0  501 -0.00000000000E+00  0.00000000000E+00  0.27781478935E+02  0.27781479052E+02  0.25500000000E-02 0. -1.
          2   -1    0    0  501    0  0.00000000000E+00 -0.00000000000E+00 -0.15276874317E+04  0.15276874317E+04  0.25500000000E-02 0.  1.
    5000001    1    1    2    0    0 -0.79230168117E+02 -0.14060476407E+03 -0.81144271373E+03  0.83702771572E+03  0.12700000000E+03 0.  0.
   -5000001    1    1    2    0    0  0.79230168117E+02  0.14060476407E+03 -0.68846323902E+03  0.71844119502E+03  0.12700000000E+03 0.  0.
<mgrwt>
<rscale>  0 0.41202629E+03</rscale>
<asrwt>0</asrwt>
<pdfrwt beam="1">  1        2 0.21824101E+00 0.41202629E+03</pdfrwt>
<pdfrwt beam="2">  1       -2 0.39687837E-02 0.41202629E+03</pdfrwt>
<totfact> 0.42118380E+03</totfact>
</mgrwt>
</event>
<event>
 4    1  0.2621617E-004  0.5199939E+03  0.7818608E-02  0.1008688E+00
          2   -1    0    0  501    0  0.00000000000E+00  0.00000000000E+00  0.13588333864E+03  0.13588333866E+03  0.25500000000E-02 0.  1.
         -2   -1    0    0    0  501 -0.00000000000E+00 -0.00000000000E+00 -0.49747385736E+03  0.49747385736E+03  0.25500000000E-02 0. -1.
    5000001    1    1    2    0    0 -0.21956351793E+03  0.49815372542E+02 -0.21480583128E+03  0.33609560380E+03  0.12700000000E+03 0.  0.
   -5000001    1    1    2    0    0  0.21956351793E+03 -0.49815372542E+02 -0.14678468744E+03  0.29726159223E+03  0.12700000000E+03 0.  0.
<mgrwt>
<rscale>  0 0.51999388E+03</rscale>
<asrwt>0</asrwt>
<pdfrwt beam="1">  1        2 0.19411906E-01 0.51999388E+03</pdfrwt>
<pdfrwt beam="2">  1       -2 0.71067693E-01 0.51999388E+03</pdfrwt>
<totfact> 0.53360804E+02</totfact>
</mgrwt>
</event>
<event>
 4    1  0.2621617E-004  0.6004234E+03  0.7818608E-02  0.9904528E-01
         -2   -1    0    0    0  501 -0.00000000000E+00  0.00000000000E+00  0.37797291484E+02  0.37797291570E+02  0.25500000000E-02 0. -1.
          2   -1    0    0  501    0  0.00000000000E+00 -0.00000000000E+00 -0.23844847230E+04  0.23844847230E+04  0.25500000000E-02 0.  1.
    5000001    1    1    2    0    0 -0.23552954376E+03 -0.33558196463E+02 -0.17054686207E+04  0.17266593569E+04  0.12700000000E+03 0.  0.
   -5000001    1    1    2    0    0  0.23552954376E+03  0.33558196463E+02 -0.64121881076E+03  0.69562265763E+03  0.12700000000E+03 0.  0.
<mgrwt>
<rscale>  0 0.60042340E+03</rscale>
<asrwt>0</asrwt>
<pdfrwt beam="1">  1        2 0.34064058E+00 0.60042340E+03</pdfrwt>
<pdfrwt beam="2">  1       -2 0.53996146E-02 0.60042340E+03</pdfrwt>
<totfact> 0.96534142E+02</totfact>
</mgrwt>
</event>
<event>
 4    1  0.2621617E-004  0.3831519E+03  0.7818608E-02  0.1049775E+00
         -2   -1    0    0    0  501 -0.00000000000E+00  0.00000000000E+00  0.26081293560E+03  0.26081293561E+03  0.25500000000E-02 0. -1.
          2   -1    0    0  501    0  0.00000000000E+00 -0.00000000000E+00 -0.14071899843E+03  0.14071899845E+03  0.25500000000E-02 0.  1.
    5000001    1    1    2    0    0  0.44035085176E+02  0.13650111982E+03  0.60917883594E+02  0.20102644846E+03  0.12700000000E+03 0.  0.
   -5000001    1    1    2    0    0 -0.44035085176E+02 -0.13650111982E+03  0.59176053578E+02  0.20050548560E+03  0.12700000000E+03 0.  0.
<mgrwt>
<rscale>  0 0.38315185E+03</rscale>
<asrwt>0</asrwt>
<pdfrwt beam="1">  1        2 0.20102714E-01 0.38315185E+03</pdfrwt>
<pdfrwt beam="2">  1       -2 0.37258991E-01 0.38315185E+03</pdfrwt>
<totfact> 0.18973505E+03</totfact>
</mgrwt>
</event>
<event>
 4    1  0.2621617E-004  0.4901111E+03  0.7818608E-02  0.1016393E+00
          2   -1    0    0  501    0  0.00000000000E+00  0.00000000000E+00  0.25813360006E+04  0.25813360006E+04  0.25500000000E-02 0.  1.
         -2   -1    0    0    0  501 -0.00000000000E+00 -0.00000000000E+00 -0.23264006055E+02  0.23264006194E+02  0.25500000000E-02 0. -1.
    5000001    1    1    2    0    0  0.14313578297E+03 -0.14174353980E+03  0.97171778552E+03  0.10004716578E+04  0.12700000000E+03 0.  0.
   -5000001    1    1    2    0    0 -0.14313578297E+03  0.14174353980E+03  0.15863542090E+04  0.16041283490E+04  0.12700000000E+03 0.  0.
<mgrwt>
<rscale>  0 0.49011108E+03</rscale>
<asrwt>0</asrwt>
<pdfrwt beam="1">  1        2 0.36876213E+00 0.49011108E+03</pdfrwt>
<pdfrwt beam="2">  1       -2 0.33234308E-02 0.49011108E+03</pdfrwt>
<totfact> 0.16269135E+03</totfact>
</mgrwt>
</event>
<event>
 4    1  0.2621617E-004  0.3542666E+03  0.7818608E-02  0.1060877E+00
         -2   -1    0    0    0  501 -0.00000000000E+00  0.00000000000E+00  0.69772771710E+03  0.69772771711E+03  0.25500000000E-02 0. -1.
          2   -1    0    0  501    0  0.00000000000E+00 -0.00000000000E+00 -0.44969126145E+02  0.44969126218E+02  0.25500000000E-02 0.  1.
    5000001    1    1    2    0    0  0.43405688467E+01 -0.12339771287E+03  0.32883281870E+03  0.37350483094E+03  0.12700000000E+03 0.  0.
   -5000001    1    1    2    0    0 -0.43405688467E+01  0.12339771287E+03  0.32392577225E+03  0.36919201238E+03  0.12700000000E+03 0.  0.
<mgrwt>
<rscale>  0 0.35426660E+03</rscale>
<asrwt>0</asrwt>
<pdfrwt beam="1">  1        2 0.64241612E-02 0.35426660E+03</pdfrwt>
<pdfrwt beam="2">  1       -2 0.99675383E-01 0.35426660E+03</pdfrwt>
<totfact> 0.98249669E+02</totfact>
</mgrwt>
</event>
<event>
 4    1  0.2621617E-004  0.4109709E+03  0.7818608E-02  0.1040046E+00
         -2   -1    0    0    0  501 -0.00000000000E+00  0.00000000000E+00  0.11755933882E+03  0.11755933884E+03  0.25500000000E-02 0. -1.
          2   -1    0    0  501    0  0.00000000000E+00 -0.00000000000E+00 -0.35917409733E+03  0.35917409734E+03  0.25500000000E-02 0.  1.
    5000001    1    1    2    0    0 -0.36852501211E+02  0.14347630766E+03 -0.46063068857E+02  0.20048532120E+03  0.12700000000E+03 0.  0.
   -5000001    1    1    2    0    0  0.36852501211E+02 -0.14347630766E+03 -0.19555168966E+03  0.27624811498E+03  0.12700000000E+03 0.  0.
<mgrwt>
<rscale>  0 0.41097090E+03</rscale>
<asrwt>0</asrwt>
<pdfrwt beam="1">  1        2 0.51310585E-01 0.41097090E+03</pdfrwt>
<pdfrwt beam="2">  1       -2 0.16794191E-01 0.41097090E+03</pdfrwt>
<totfact> 0.27796127E+03</totfact>
</mgrwt>
</event>
<event>
 4    1  0.2621617E-004  0.2802824E+03  0.7818608E-02  0.1095535E+00
          2   -1    0    0  501    0  0.00000000000E+00  0.00000000000E+00  0.13573639113E+04  0.13573639113E+04  0.25500000000E-02 0.  1.
         -2   -1    0    0    0  501 -0.00000000000E+00 -0.00000000000E+00 -0.14468893358E+02  0.14468893583E+02  0.25500000000E-02 0. -1.
    5000001    1    1    2    0    0 -0.47524434263E+02 -0.32083558844E+02  0.59841864811E+03  0.61442803078E+03  0.12700000000E+03 0.  0.
   -5000001    1    1    2    0    0  0.47524434263E+02  0.32083558844E+02  0.74447636978E+03  0.75740477406E+03  0.12700000000E+03 0.  0.
<mgrwt>
<rscale>  0 0.28028239E+03</rscale>
<asrwt>0</asrwt>
<pdfrwt beam="1">  1        2 0.19390919E+00 0.28028239E+03</pdfrwt>
<pdfrwt beam="2">  1       -2 0.20669841E-02 0.28028239E+03</pdfrwt>
<totfact> 0.13597578E+04</totfact>
</mgrwt>
</event>
<event>
 4    1  0.2621617E-004  0.2963313E+03  0.7818608E-02  0.1087089E+00
         -2   -1    0    0    0  501 -0.00000000000E+00  0.00000000000E+00  0.11553409518E+02  0.11553409799E+02  0.25500000000E-02 0. -1.
          2   -1    0    0  501    0  0.00000000000E+00 -0.00000000000E+00 -0.19001368744E+04  0.19001368744E+04  0.25500000000E-02 0.  1.
    5000001    1    1    2    0    0 -0.55379125117E+02  0.52494904504E+02 -0.95218548030E+03  0.96364347732E+03  0.12700000000E+03 0.  0.
   -5000001    1    1    2    0    0  0.55379125117E+02 -0.52494904504E+02 -0.93639798459E+03  0.94804680689E+03  0.12700000000E+03 0.  0.
<mgrwt>
<rscale>  0 0.29633130E+03</rscale>
<asrwt>0</asrwt>
<pdfrwt beam="1">  1        2 0.27144792E+00 0.29633130E+03</pdfrwt>
<pdfrwt beam="2">  1       -2 0.16504883E-02 0.29633130E+03</pdfrwt>
<totfact> 0.10149564E+04</totfact>
</mgrwt>
</event>
<event>
 4    1  0.2621617E-004  0.4716987E+03  0.7818608E-02  0.1021442E+00
         -2   -1    0    0    0  501 -0.00000000000E+00  0.00000000000E+00  0.10551567740E+03  0.10551567744E+03  0.25500000000E-02 0. -1.
          2   -1    0    0  501    0  0.00000000000E+00 -0.00000000000E+00 -0.52717201311E+03  0.52717201312E+03  0.25500000000E-02 0.  1.
    5000001    1    1    2    0    0 -0.68211951431E+02  0.37331611404E+02 -0.45614019326E+03  0.47983267441E+03  0.12700000000E+03 0.  0.
   -5000001    1    1    2    0    0  0.68211951431E+02 -0.37331611404E+02  0.34483857551E+02  0.15285501614E+03  0.12700000000E+03 0.  0.
<mgrwt>
<rscale>  0 0.47169868E+03</rscale>
<asrwt>0</asrwt>
<pdfrwt beam="1">  1        2 0.75310286E-01 0.47169868E+03</pdfrwt>
<pdfrwt beam="2">  1       -2 0.15073669E-01 0.47169868E+03</pdfrwt>
<totfact> 0.21807011E+03</totfact>
</mgrwt>
</event>
<event>
 4    1  0.2621617E-004  0.4196525E+03  0.7818608E-02  0.1037179E+00
         -2   -1    0    0    0  501 -0.00000000000E+00  0.00000000000E+00  0.15262990761E+03  0.15262990763E+03  0.25500000000E-02 0. -1.
          2   -1    0    0  501    0  0.00000000000E+00 -0.00000000000E+00 -0.28845626729E+03  0.28845626730E+03  0.25500000000E-02 0.  1.
    5000001    1    1    2    0    0 -0.72873881637E+02  0.10616603038E+03  0.43897792166E+02  0.18611245199E+03  0.12700000000E+03 0.  0.
   -5000001    1    1    2    0    0  0.72873881637E+02 -0.10616603038E+03 -0.17972415185E+03  0.25497372294E+03  0.12700000000E+03 0.  0.
<mgrwt>
<rscale>  0 0.41965249E+03</rscale>
<asrwt>0</asrwt>
<pdfrwt beam="1">  1        2 0.41208038E-01 0.41965249E+03</pdfrwt>
<pdfrwt beam="2">  1       -2 0.21804273E-01 0.41965249E+03</pdfrwt>
<totfact> 0.22556564E+03</totfact>
</mgrwt>
</event>
<event>
 4    1  0.2621617E-004  0.6750084E+03  0.7818608E-02  0.9760952E-01
          2   -1    0    0  501    0  0.00000000000E+00  0.00000000000E+00  0.18272042117E+04  0.18272042117E+04  0.25500000000E-02 0.  1.
         -2   -1    0    0    0  501 -0.00000000000E+00 -0.00000000000E+00 -0.62340646250E+02  0.62340646302E+02  0.25500000000E-02 0. -1.
    5000001    1    1    2    0    0  0.37986746393E+02 -0.29841590350E+03  0.64350535034E+03  0.72161151618E+03  0.12700000000E+03 0.  0.
   -5000001    1    1    2    0    0 -0.37986746393E+02  0.29841590350E+03  0.11213582151E+04  0.11679333418E+04  0.12700000000E+03 0.  0.
<mgrwt>
<rscale>  0 0.67500842E+03</rscale>
<asrwt>0</asrwt>
<pdfrwt beam="1">  1        2 0.26102918E+00 0.67500842E+03</pdfrwt>
<pdfrwt beam="2">  1       -2 0.89058064E-02 0.67500842E+03</pdfrwt>
<totfact> 0.83224392E+02</totfact>
</mgrwt>
</event>
<event>
 4    1  0.2621617E-004  0.6034595E+03  0.7818608E-02  0.9898255E-01
          2   -1    0    0  501    0  0.00000000000E+00  0.00000000000E+00  0.31014852625E+03  0.31014852626E+03  0.25500000000E-02 0.  1.
         -2   -1    0    0    0  501 -0.00000000000E+00 -0.00000000000E+00 -0.29353952152E+03  0.29353952153E+03  0.25500000000E-02 0. -1.
    5000001    1    1    2    0    0 -0.23760554966E+03  0.13098827737E+03 -0.27730298325E+02  0.30085261421E+03  0.12700000000E+03 0.  0.
   -5000001    1    1    2    0    0  0.23760554966E+03 -0.13098827737E+03  0.44339303058E+02  0.30283543358E+03  0.12700000000E+03 0.  0.
<mgrwt>
<rscale>  0 0.60345953E+03</rscale>
<asrwt>0</asrwt>
<pdfrwt beam="1">  1        2 0.44306932E-01 0.60345953E+03</pdfrwt>
<pdfrwt beam="2">  1       -2 0.41934217E-01 0.60345953E+03</pdfrwt>
<totfact> 0.62326442E+02</totfact>
</mgrwt>
</event>
<event>
 4    1  0.2621617E-004  0.3478244E+03  0.7818608E-02  0.1063512E+00
         -2   -1    0    0    0  501 -0.00000000000E+00  0.00000000000E+00  0.12169436774E+03  0.12169436776E+03  0.25500000000E-02 0. -1.
          2   -1    0    0  501    0  0.00000000000E+00 -0.00000000000E+00 -0.24853611677E+03  0.24853611678E+03  0.25500000000E-02 0.  1.
    5000001    1    1    2    0    0  0.11213939722E+03 -0.37300594273E+02 -0.50390257378E+02  0.18065092521E+03  0.12700000000E+03 0.  0.
   -5000001    1    1    2    0    0 -0.11213939722E+03  0.37300594273E+02 -0.76451491651E+02  0.18957955933E+03  0.12700000000E+03 0.  0.
<mgrwt>
<rscale>  0 0.34782436E+03</rscale>
<asrwt>0</asrwt>
<pdfrwt beam="1">  1        2 0.35505159E-01 0.34782436E+03</pdfrwt>
<pdfrwt beam="2">  1       -2 0.17384910E-01 0.34782436E+03</pdfrwt>
<totfact> 0.39033955E+03</totfact>
</mgrwt>
</event>
<event>
 4    1  0.2621617E-004  0.3221824E+03  0.7818608E-02  0.1074649E+00
         -2   -1    0    0    0  501 -0.00000000000E+00  0.00000000000E+00  0.12023176340E+03  0.12023176342E+03  0.25500000000E-02 0. -1.
          2   -1    0    0  501    0  0.00000000000E+00 -0.00000000000E+00 -0.21583623528E+03  0.21583623530E+03  0.25500000000E-02 0.  1.
    5000001    1    1    2    0    0  0.61290833750E+02  0.76458678591E+02 -0.32370179594E+02  0.16364389497E+03  0.12700000000E+03 0.  0.
   -5000001    1    1    2    0    0 -0.61290833750E+02 -0.76458678591E+02 -0.63234292293E+02  0.17242410375E+03  0.12700000000E+03 0.  0.
<mgrwt>
<rscale>  0 0.32218238E+03</rscale>
<asrwt>0</asrwt>
<pdfrwt beam="1">  1        2 0.30833748E-01 0.32218238E+03</pdfrwt>
<pdfrwt beam="2">  1       -2 0.17175966E-01 0.32218238E+03</pdfrwt>
<totfact> 0.46408576E+03</totfact>
</mgrwt>
</event>
<event>
 4    1  0.2621617E-004  0.5519703E+03  0.7818608E-02  0.1001039E+00
          2   -1    0    0  501    0  0.00000000000E+00  0.00000000000E+00  0.54403045985E+03  0.54403045986E+03  0.25500000000E-02 0.  1.
         -2   -1    0    0    0  501 -0.00000000000E+00 -0.00000000000E+00 -0.14000649418E+03  0.14000649421E+03  0.25500000000E-02 0. -1.
    5000001    1    1    2    0    0  0.11489797098E+03 -0.17448930452E+03  0.43353571320E+02  0.24830745714E+03  0.12700000000E+03 0.  0.
   -5000001    1    1    2    0    0 -0.11489797098E+03  0.17448930452E+03  0.36067039435E+03  0.43572949692E+03  0.12700000000E+03 0.  0.
<mgrwt>
<rscale>  0 0.55197028E+03</rscale>
<asrwt>0</asrwt>
<pdfrwt beam="1">  1        2 0.77718638E-01 0.55197028E+03</pdfrwt>
<pdfrwt beam="2">  1       -2 0.20000927E-01 0.55197028E+03</pdfrwt>
<totfact> 0.12990090E+03</totfact>
</mgrwt>
</event>
<event>
 4    1  0.2621617E-004  0.5246770E+03  0.7818608E-02  0.1007531E+00
         -2   -1    0    0    0  501 -0.00000000000E+00  0.00000000000E+00  0.77030953173E+02  0.77030953215E+02  0.25500000000E-02 0. -1.
          2   -1    0    0  501    0  0.00000000000E+00 -0.00000000000E+00 -0.89342638447E+03  0.89342638447E+03  0.25500000000E-02 0.  1.
    5000001    1    1    2    0    0  0.12196531823E+03 -0.15708807181E+03 -0.62022259242E+03  0.66359420228E+03  0.12700000000E+03 0.  0.
   -5000001    1    1    2    0    0 -0.12196531823E+03  0.15708807181E+03 -0.19617283887E+03  0.30686313540E+03  0.12700000000E+03 0.  0.
<mgrwt>
<rscale>  0 0.52467699E+03</rscale>
<asrwt>0</asrwt>
<pdfrwt beam="1">  1        2 0.12763233E+00 0.52467699E+03</pdfrwt>
<pdfrwt beam="2">  1       -2 0.11004422E-01 0.52467699E+03</pdfrwt>
<totfact> 0.19301733E+03</totfact>
</mgrwt>
</event>
<event>
 4    1  0.2621617E-004  0.5781964E+03  0.7818608E-02  0.9951703E-01
          2   -1    0    0  501    0  0.00000000000E+00  0.00000000000E+00  0.18799797595E+04  0.18799797595E+04  0.25500000000E-02 0.  1.
         -2   -1    0    0    0  501 -0.00000000000E+00 -0.00000000000E+00 -0.44456745312E+02  0.44456745385E+02  0.25500000000E-02 0. -1.
    5000001    1    1    2    0    0 -0.15435683854E+02  0.23440121809E+03  0.12863910156E+04  0.13138162111E+04  0.12700000000E+03 0.  0.
   -5000001    1    1    2    0    0  0.15435683854E+02 -0.23440121809E+03  0.54913199853E+03  0.61062029379E+03  0.12700000000E+03 0.  0.
<mgrwt>
<rscale>  0 0.57819644E+03</rscale>
<asrwt>0</asrwt>
<pdfrwt beam="1">  1        2 0.26856854E+00 0.57819644E+03</pdfrwt>
<pdfrwt beam="2">  1       -2 0.63509636E-02 0.57819644E+03</pdfrwt>
<totfact> 0.13461941E+03</totfact>
</mgrwt>
</event>
<event>
 4    1  0.2621617E-004  0.2967290E+03  0.7818608E-02  0.1086887E+00
         -2   -1    0    0    0  501 -0.00000000000E+00  0.00000000000E+00  0.94357939199E+02  0.94357939234E+02  0.25500000000E-02 0. -1.
          2   -1    0    0  501    0  0.00000000000E+00 -0.00000000000E+00 -0.23328223747E+03  0.23328223749E+03  0.25500000000E-02 0.  1.
    5000001    1    1    2    0    0 -0.21412174359E+02 -0.73558639530E+02 -0.65378720095E+02  0.16208865383E+03  0.12700000000E+03 0.  0.
   -5000001    1    1    2    0    0  0.21412174359E+02  0.73558639530E+02 -0.73545578178E+02  0.16555152289E+03  0.12700000000E+03 0.  0.
<mgrwt>
<rscale>  0 0.29672904E+03</rscale>
<asrwt>0</asrwt>
<pdfrwt beam="1">  1        2 0.33326034E-01 0.29672904E+03</pdfrwt>
<pdfrwt beam="2">  1       -2 0.13479706E-01 0.29672904E+03</pdfrwt>
<totfact> 0.63550633E+03</totfact>
</mgrwt>
</event>
<event>
 4    1  0.2621617E-004  0.2998170E+03  0.7818608E-02  0.1085332E+00
         -2   -1    0    0    0  501 -0.00000000000E+00  0.00000000000E+00  0.38795246860E+02  0.38795246943E+02  0.25500000000E-02 0. -1.
          2   -1    0    0  501    0  0.00000000000E+00 -0.00000000000E+00 -0.57926060300E+03  0.57926060300E+03  0.25500000000E-02 0.  1.
    5000001    1    1    2    0    0  0.11085236736E+02 -0.71817326391E+02 -0.20302369398E+03  0.25025633091E+03  0.12700000000E+03 0.  0.
   -5000001    1    1    2    0    0 -0.11085236736E+02  0.71817326391E+02 -0.33744166216E+03  0.36779951904E+03  0.12700000000E+03 0.  0.
<mgrwt>
<rscale>  0 0.29981700E+03</rscale>
<asrwt>0</asrwt>
<pdfrwt beam="1">  1        2 0.82751510E-01 0.29981700E+03</pdfrwt>
<pdfrwt beam="2">  1       -2 0.55421785E-02 0.29981700E+03</pdfrwt>
<totfact> 0.95691819E+03</totfact>
</mgrwt>
</event>
<event>
 4    1  0.2621617E-004  0.3088468E+03  0.7818608E-02  0.1080900E+00
          2   -1    0    0  501    0  0.00000000000E+00  0.00000000000E+00  0.20654960476E+02  0.20654960634E+02  0.25500000000E-02 0.  1.
         -2   -1    0    0    0  501 -0.00000000000E+00 -0.00000000000E+00 -0.11545207602E+04  0.11545207602E+04  0.25500000000E-02 0. -1.
    5000001    1    1    2    0    0  0.68453881007E+02 -0.86582507463E+01 -0.77383363707E+03  0.78721559753E+03  0.12700000000E+03 0.  0.
   -5000001    1    1    2    0    0 -0.68453881007E+02  0.86582507463E+01 -0.36003216263E+03  0.38796012329E+03  0.12700000000E+03 0.  0.
<mgrwt>
<rscale>  0 0.30884676E+03</rscale>
<asrwt>0</asrwt>
<pdfrwt beam="1">  1        2 0.29507094E-02 0.30884676E+03</pdfrwt>
<pdfrwt beam="2">  1       -2 0.16493150E+00 0.30884676E+03</pdfrwt>
<totfact> 0.79430513E+02</totfact>
</mgrwt>
</event>
<event>
 4    1  0.2621617E-004  0.6504674E+03  0.7818608E-02  0.9805902E-01
         -2   -1    0    0    0  501 -0.00000000000E+00  0.00000000000E+00  0.91530496099E+02  0.91530496135E+02  0.25500000000E-02 0. -1.
          2   -1    0    0  501    0  0.00000000000E+00 -0.00000000000E+00 -0.11556472597E+04  0.11556472597E+04  0.25500000000E-02 0.  1.
    5000001    1    1    2    0    0 -0.11358443425E+03 -0.27603847239E+03 -0.48712080885E+03  0.58524725062E+03  0.12700000000E+03 0.  0.
   -5000001    1    1    2    0    0  0.11358443425E+03  0.27603847239E+03 -0.57699595477E+03  0.66193050523E+03  0.12700000000E+03 0.  0.
<mgrwt>
<rscale>  0 0.65046742E+03</rscale>
<asrwt>0</asrwt>
<pdfrwt beam="1">  1        2 0.16509246E+00 0.65046742E+03</pdfrwt>
<pdfrwt beam="2">  1       -2 0.13075786E-01 0.65046742E+03</pdfrwt>
<totfact> 0.10070084E+03</totfact>
</mgrwt>
</event>
<event>
 4    1  0.2621617E-004  0.3242970E+03  0.7818608E-02  0.1073689E+00
         -2   -1    0    0    0  501 -0.00000000000E+00  0.00000000000E+00  0.57161734573E+01  0.57161740261E+01  0.25500000000E-02 0. -1.
          2   -1    0    0  501    0  0.00000000000E+00 -0.00000000000E+00 -0.45996040835E+04  0.45996040835E+04  0.25500000000E-02 0.  1.
    5000001    1    1    2    0    0  0.94412942200E+02  0.28537181655E+02 -0.20007730366E+04  0.20072244315E+04  0.12700000000E+03 0.  0.
   -5000001    1    1    2    0    0 -0.94412942200E+02 -0.28537181655E+02 -0.25931148734E+04  0.25980958260E+04  0.12700000000E+03 0.  0.
<mgrwt>
<rscale>  0 0.32429700E+03</rscale>
<asrwt>0</asrwt>
<pdfrwt beam="1">  1        2 0.65708393E+00 0.32429700E+03</pdfrwt>
<pdfrwt beam="2">  1       -2 0.81659920E-03 0.32429700E+03</pdfrwt>
<totfact> 0.76509312E+02</totfact>
</mgrwt>
</event>
<event>
 4    1  0.2621617E-004  0.3186804E+03  0.7818608E-02  0.1076258E+00
         -2   -1    0    0    0  501 -0.00000000000E+00  0.00000000000E+00  0.29785210823E+03  0.29785210824E+03  0.25500000000E-02 0.  1.
          2   -1    0    0  501    0  0.00000000000E+00 -0.00000000000E+00 -0.85241272263E+02  0.85241272301E+02  0.25500000000E-02 0. -1.
    5000001    1    1    2    0    0  0.71009061963E+02 -0.61949736069E+02  0.12974640838E+03  0.20455607341E+03  0.12700000000E+03 0.  0.
   -5000001    1    1    2    0    0 -0.71009061963E+02  0.61949736069E+02  0.82864427584E+02  0.17853730713E+03  0.12700000000E+03 0.  0.
<mgrwt>
<rscale>  0 0.31868036E+03</rscale>
<asrwt>0</asrwt>
<pdfrwt beam="1">  1        2 0.12177324E-01 0.31868036E+03</pdfrwt>
<pdfrwt beam="2">  1       -2 0.42550302E-01 0.31868036E+03</pdfrwt>
<totfact> 0.26582906E+03</totfact>
</mgrwt>
</event>
<event>
 4    1  0.2621617E-004  0.5980984E+03  0.7818608E-02  0.9909359E-01
         -2   -1    0    0    0  501 -0.00000000000E+00  0.00000000000E+00  0.78300165661E+02  0.78300165703E+02  0.25500000000E-02 0. -1.
          2   -1    0    0  501    0  0.00000000000E+00 -0.00000000000E+00 -0.11421486173E+04  0.11421486173E+04  0.25500000000E-02 0.  1.
    5000001    1    1    2    0    0 -0.13372815652E+03  0.13465548084E+03 -0.13790225620E+03  0.26676084914E+03  0.12700000000E+03 0.  0.
   -5000001    1    1    2    0    0  0.13372815652E+03 -0.13465548084E+03 -0.92594619545E+03  0.95368793388E+03  0.12700000000E+03 0.  0.
<mgrwt>
<rscale>  0 0.59809841E+03</rscale>
<asrwt>0</asrwt>
<pdfrwt beam="1">  1        2 0.16316408E+00 0.59809841E+03</pdfrwt>
<pdfrwt beam="2">  1       -2 0.11185739E-01 0.59809841E+03</pdfrwt>
<totfact> 0.13279602E+03</totfact>
</mgrwt>
</event>
<event>
 4    1  0.2621617E-004  0.3565805E+03  0.7818608E-02  0.1059946E+00
          2   -1    0    0  501    0  0.00000000000E+00  0.00000000000E+00  0.59059058132E+03  0.59059058133E+03  0.25500000000E-02 0.  1.
         -2   -1    0    0    0  501 -0.00000000000E+00 -0.00000000000E+00 -0.53823108430E+02  0.53823108491E+02  0.25500000000E-02 0. -1.
    5000001    1    1    2    0    0  0.73154687575E+02 -0.75039425433E+02  0.14480618247E+03  0.21927232877E+03  0.12700000000E+03 0.  0.
   -5000001    1    1    2    0    0 -0.73154687575E+02  0.75039425433E+02  0.39196129042E+03  0.42514136104E+03  0.12700000000E+03 0.  0.
<mgrwt>
<rscale>  0 0.35658054E+03</rscale>
<asrwt>0</asrwt>
<pdfrwt beam="1">  1        2 0.84370077E-01 0.35658054E+03</pdfrwt>
<pdfrwt beam="2">  1       -2 0.76890161E-02 0.35658054E+03</pdfrwt>
<totfact> 0.56652922E+03</totfact>
</mgrwt>
</event>
<event>
 4    1  0.2621617E-004  0.3257630E+03  0.7818608E-02  0.1073027E+00
         -2   -1    0    0    0  501 -0.00000000000E+00  0.00000000000E+00  0.17765206902E+02  0.17765207085E+02  0.25500000000E-02 0. -1.
          2   -1    0    0  501    0  0.00000000000E+00 -0.00000000000E+00 -0.14933898593E+04  0.14933898593E+04  0.25500000000E-02 0.  1.
    5000001    1    1    2    0    0  0.11841964272E+02  0.10129718423E+03 -0.73859304321E+03  0.75633989391E+03  0.12700000000E+03 0.  0.
   -5000001    1    1    2    0    0 -0.11841964272E+02 -0.10129718423E+03 -0.73703160920E+03  0.75481517248E+03  0.12700000000E+03 0.  0.
<mgrwt>
<rscale>  0 0.32576298E+03</rscale>
<asrwt>0</asrwt>
<pdfrwt beam="1">  1        2 0.21334133E+00 0.32576298E+03</pdfrwt>
<pdfrwt beam="2">  1       -2 0.25378877E-02 0.32576298E+03</pdfrwt>
<totfact> 0.85724112E+03</totfact>
</mgrwt>
</event>
<event>
 4    1  0.2621617E-004  0.2866114E+03  0.7818608E-02  0.1092132E+00
          2   -1    0    0  501    0  0.00000000000E+00  0.00000000000E+00  0.18902101542E+04  0.18902101542E+04  0.25500000000E-02 0.  1.
         -2   -1    0    0    0  501 -0.00000000000E+00 -0.00000000000E+00 -0.10864674688E+02  0.10864674987E+02  0.25500000000E-02 0. -1.
    5000001    1    1    2    0    0 -0.37888614740E+02 -0.50196476883E+02  0.79861009156E+03  0.81108711724E+03  0.12700000000E+03 0.  0.
   -5000001    1    1    2    0    0  0.37888614740E+02  0.50196476883E+02  0.10807353880E+04  0.10899877120E+04  0.12700000000E+03 0.  0.
<mgrwt>
<rscale>  0 0.28661137E+03</rscale>
<asrwt>0</asrwt>
<pdfrwt beam="1">  1        2 0.27003008E+00 0.28661137E+03</pdfrwt>
<pdfrwt beam="2">  1       -2 0.15520961E-02 0.28661137E+03</pdfrwt>
<totfact> 0.11225734E+04</totfact>
</mgrwt>
</event>
<event>
 4    1  0.2621617E-004  0.4907159E+03  0.7818608E-02  0.1016231E+00
         -2   -1    0    0    0  501 -0.00000000000E+00  0.00000000000E+00  0.24532041522E+02  0.24532041654E+02  0.25500000000E-02 0. -1.
          2   -1    0    0  501    0  0.00000000000E+00 -0.00000000000E+00 -0.24539552951E+04  0.24539552951E+04  0.25500000000E-02 0.  1.
    5000001    1    1    2    0    0 -0.20671614114E+03  0.12364975091E+02 -0.10406928466E+04  0.10686697603E+04  0.12700000000E+03 0.  0.
   -5000001    1    1    2    0    0  0.20671614114E+03 -0.12364975091E+02 -0.13887304069E+04  0.14098175764E+04  0.12700000000E+03 0.  0.
<mgrwt>
<rscale>  0 0.49071594E+03</rscale>
<asrwt>0</asrwt>
<pdfrwt beam="1">  1        2 0.35056488E+00 0.49071594E+03</pdfrwt>
<pdfrwt beam="2">  1       -2 0.35045789E-02 0.49071594E+03</pdfrwt>
<totfact> 0.17432202E+03</totfact>
</mgrwt>
</event>
<event>
 4    1  0.2621617E-004  0.4645808E+03  0.7818608E-02  0.1023461E+00
          2   -1    0    0  501    0  0.00000000000E+00  0.00000000000E+00  0.20926683059E+04  0.20926683059E+04  0.25500000000E-02 0.  1.
         -2   -1    0    0    0  501 -0.00000000000E+00 -0.00000000000E+00 -0.25784706851E+02  0.25784706977E+02  0.25500000000E-02 0. -1.
    5000001    1    1    2    0    0  0.19107397119E+03 -0.33747544629E+02  0.97197922498E+03  0.99926011280E+03  0.12700000000E+03 0.  0.
   -5000001    1    1    2    0    0 -0.19107397119E+03  0.33747544629E+02  0.10949043740E+04  0.11191929000E+04  0.12700000000E+03 0.  0.
<mgrwt>
<rscale>  0 0.46458084E+03</rscale>
<asrwt>0</asrwt>
<pdfrwt beam="1">  1        2 0.29895264E+00 0.46458084E+03</pdfrwt>
<pdfrwt beam="2">  1       -2 0.36835292E-02 0.46458084E+03</pdfrwt>
<totfact> 0.24567428E+03</totfact>
</mgrwt>
</event>
<event>
 4    1  0.2621617E-004  0.6496481E+03  0.7818608E-02  0.9807440E-01
          2   -1    0    0  501    0  0.00000000000E+00  0.00000000000E+00  0.57812817049E+03  0.57812817050E+03  0.25500000000E-02 0.  1.
         -2   -1    0    0    0  501 -0.00000000000E+00 -0.00000000000E+00 -0.18250391932E+03  0.18250391933E+03  0.25500000000E-02 0. -1.
    5000001    1    1    2    0    0 -0.22502074118E+02 -0.26704135284E+03  0.35298329609E+03  0.46102454900E+03  0.12700000000E+03 0.  0.
   -5000001    1    1    2    0    0  0.22502074118E+02  0.26704135284E+03  0.42640955086E+02  0.29960754082E+03  0.12700000000E+03 0.  0.
<mgrwt>
<rscale>  0 0.64964808E+03</rscale>
<asrwt>0</asrwt>
<pdfrwt beam="1">  1        2 0.82589739E-01 0.64964808E+03</pdfrwt>
<pdfrwt beam="2">  1       -2 0.26071988E-01 0.64964808E+03</pdfrwt>
<totfact> 0.75564755E+02</totfact>
</mgrwt>
</event>
<event>
 4    1  0.2621617E-004  0.4217394E+03  0.7818608E-02  0.1036502E+00
         -2   -1    0    0    0  501 -0.00000000000E+00  0.00000000000E+00  0.27302895282E+03  0.27302895283E+03  0.25500000000E-02 0. -1.
          2   -1    0    0  501    0  0.00000000000E+00 -0.00000000000E+00 -0.16286194752E+03  0.16286194754E+03  0.25500000000E-02 0.  1.
    5000001    1    1    2    0    0 -0.16748675541E+03  0.14640538701E+02  0.63784316945E+02  0.22014449278E+03  0.12700000000E+03 0.  0.
   -5000001    1    1    2    0    0  0.16748675541E+03 -0.14640538701E+02  0.46382688351E+02  0.21574640760E+03  0.12700000000E+03 0.  0.
<mgrwt>
<rscale>  0 0.42173938E+03</rscale>
<asrwt>0</asrwt>
<pdfrwt beam="1">  1        2 0.23265993E-01 0.42173938E+03</pdfrwt>
<pdfrwt beam="2">  1       -2 0.39004136E-01 0.42173938E+03</pdfrwt>
<totfact> 0.14718137E+03</totfact>
</mgrwt>
</event>
<event>
 4    1  0.2621617E-004  0.4837476E+03  0.7818608E-02  0.1018110E+00
         -2   -1    0    0    0  501 -0.00000000000E+00  0.00000000000E+00  0.16606137630E+03  0.16606137632E+03  0.25500000000E-02 0. -1.
          2   -1    0    0  501    0  0.00000000000E+00 -0.00000000000E+00 -0.35229707123E+03  0.35229707124E+03  0.25500000000E-02 0.  1.
    5000001    1    1    2    0    0  0.19411085302E+03  0.57081867634E+01 -0.16628444349E+03  0.28546650032E+03  0.12700000000E+03 0.  0.
   -5000001    1    1    2    0    0 -0.19411085302E+03 -0.57081867634E+01 -0.19951251442E+02  0.23289194724E+03  0.12700000000E+03 0.  0.
<mgrwt>
<rscale>  0 0.48374761E+03</rscale>
<asrwt>0</asrwt>
<pdfrwt beam="1">  1        2 0.50328153E-01 0.48374761E+03</pdfrwt>
<pdfrwt beam="2">  1       -2 0.23723054E-01 0.48374761E+03</pdfrwt>
<totfact> 0.15643402E+03</totfact>
</mgrwt>
</event>
<event>
 4    1  0.2621617E-004  0.1011556E+04  0.7818608E-02  0.9295960E-01
          2   -1    0    0  501    0  0.00000000000E+00  0.00000000000E+00  0.23755415506E+04  0.23755415506E+04  0.25500000000E-02 0. -1.
         -2   -1    0    0    0  501 -0.00000000000E+00 -0.00000000000E+00 -0.10768551903E+03  0.10768551906E+03  0.25500000000E-02 0.  1.
    5000001    1    1    2    0    0  0.24417707251E+03 -0.36562835574E+03  0.60527271977E+03  0.75880867323E+03  0.12700000000E+03 0.  0.
   -5000001    1    1    2    0    0 -0.24417707251E+03  0.36562835574E+03  0.16625833118E+04  0.17244183964E+04  0.12700000000E+03 0.  0.
<mgrwt>
<rscale>  0 0.10115561E+04</rscale>
<asrwt>0</asrwt>
<pdfrwt beam="1">  1        2 0.33936307E+00 0.10115561E+04</pdfrwt>
<pdfrwt beam="2">  1       -2 0.15383646E-01 0.10115561E+04</pdfrwt>
<totfact> 0.17323504E+02</totfact>
</mgrwt>
</event>
<event>
 4    1  0.2621617E-004  0.4089176E+03  0.7818608E-02  0.1040735E+00
          2   -1    0    0  501    0  0.00000000000E+00  0.00000000000E+00  0.14396597344E+04  0.14396597344E+04  0.25500000000E-02 0.  1.
         -2   -1    0    0    0  501 -0.00000000000E+00 -0.00000000000E+00 -0.29036996942E+02  0.29036997054E+02  0.25500000000E-02 0. -1.
    5000001    1    1    2    0    0  0.11564085687E+01  0.13119436900E+03  0.10356882553E+04  0.10516617621E+04  0.12700000000E+03 0.  0.
   -5000001    1    1    2    0    0 -0.11564085687E+01 -0.13119436900E+03  0.37493448217E+03  0.41703496934E+03  0.12700000000E+03 0.  0.
<mgrwt>
<rscale>  0 0.40891757E+03</rscale>
<asrwt>0</asrwt>
<pdfrwt beam="1">  1        2 0.20566566E+00 0.40891757E+03</pdfrwt>
<pdfrwt beam="2">  1       -2 0.41481428E-02 0.40891757E+03</pdfrwt>
<totfact> 0.43710443E+03</totfact>
</mgrwt>
</event>
<event>
 4    1  0.2621617E-004  0.3622364E+03  0.7818608E-02  0.1057702E+00
          2   -1    0    0  501    0  0.00000000000E+00  0.00000000000E+00  0.35344558551E+03  0.35344558552E+03  0.25500000000E-02 0.  1.
         -2   -1    0    0    0  501 -0.00000000000E+00 -0.00000000000E+00 -0.92811483848E+02  0.92811483883E+02  0.25500000000E-02 0. -1.
    5000001    1    1    2    0    0 -0.49803888964E+02 -0.48300148014E+02  0.26448919836E+03  0.30149107400E+03  0.12700000000E+03 0.  0.
   -5000001    1    1    2    0    0  0.49803888964E+02  0.48300148014E+02 -0.38550966950E+01  0.14476599540E+03  0.12700000000E+03 0.  0.
<mgrwt>
<rscale>  0 0.36223644E+03</rscale>
<asrwt>0</asrwt>
<pdfrwt beam="1">  1        2 0.50492227E-01 0.36223644E+03</pdfrwt>
<pdfrwt beam="2">  1       -2 0.13258783E-01 0.36223644E+03</pdfrwt>
<totfact> 0.41829377E+03</totfact>
</mgrwt>
</event>
<event>
 4    1  0.2621617E-004  0.4906000E+03  0.7818608E-02  0.1016262E+00
          2   -1    0    0  501    0  0.00000000000E+00  0.00000000000E+00  0.65896396829E+02  0.65896396879E+02  0.25500000000E-02 0.  1.
         -2   -1    0    0    0  501 -0.00000000000E+00 -0.00000000000E+00 -0.91313163054E+03  0.91313163054E+03  0.25500000000E-02 0. -1.
    5000001    1    1    2    0    0  0.82874094909E+02 -0.17868794518E+03 -0.27908540577E+03  0.36443814437E+03  0.12700000000E+03 0.  0.
   -5000001    1    1    2    0    0 -0.82874094909E+02  0.17868794518E+03 -0.56814982794E+03  0.61458988305E+03  0.12700000000E+03 0.  0.
<mgrwt>
<rscale>  0 0.49059998E+03</rscale>
<asrwt>0</asrwt>
<pdfrwt beam="1">  1        2 0.94137715E-02 0.49059998E+03</pdfrwt>
<pdfrwt beam="2">  1       -2 0.13044737E+00 0.49059998E+03</pdfrwt>
<totfact> 0.31334268E+02</totfact>
</mgrwt>
</event>
<event>
 4    1  0.2621617E-004  0.3611990E+03  0.7818608E-02  0.1058110E+00
         -2   -1    0    0    0  501 -0.00000000000E+00  0.00000000000E+00  0.22778361181E+03  0.22778361182E+03  0.25500000000E-02 0. -1.
          2   -1    0    0  501    0  0.00000000000E+00 -0.00000000000E+00 -0.14318933580E+03  0.14318933582E+03  0.25500000000E-02 0.  1.
    5000001    1    1    2    0    0 -0.81067951188E+02 -0.92307782123E+02  0.80649871644E+02  0.19423218360E+03  0.12700000000E+03 0.  0.
   -5000001    1    1    2    0    0  0.81067951188E+02  0.92307782123E+02  0.39444043645E+01  0.17674076405E+03  0.12700000000E+03 0.  0.
<mgrwt>
<rscale>  0 0.36119903E+03</rscale>
<asrwt>0</asrwt>
<pdfrwt beam="1">  1        2 0.20455619E-01 0.36119903E+03</pdfrwt>
<pdfrwt beam="2">  1       -2 0.32540516E-01 0.36119903E+03</pdfrwt>
<totfact> 0.23947921E+03</totfact>
</mgrwt>
</event>
<event>
 4    1  0.2621617E-004  0.5544319E+03  0.7818608E-02  0.1000473E+00
         -2   -1    0    0    0  501 -0.00000000000E+00  0.00000000000E+00  0.16129363912E+03  0.16129363914E+03  0.25500000000E-02 0.  1.
          2   -1    0    0  501    0  0.00000000000E+00 -0.00000000000E+00 -0.47645208767E+03  0.47645208767E+03  0.25500000000E-02 0. -1.
    5000001    1    1    2    0    0  0.12725292907E+03  0.18138316161E+03 -0.28160855966E+03  0.38016514851E+03  0.12700000000E+03 0.  0.
   -5000001    1    1    2    0    0 -0.12725292907E+03 -0.18138316161E+03 -0.33549888889E+02  0.25758057830E+03  0.12700000000E+03 0.  0.
<mgrwt>
<rscale>  0 0.55443193E+03</rscale>
<asrwt>0</asrwt>
<pdfrwt beam="1">  1        2 0.68064583E-01 0.55443193E+03</pdfrwt>
<pdfrwt beam="2">  1       -2 0.23041949E-01 0.55443193E+03</pdfrwt>
<totfact> 0.11784516E+03</totfact>
</mgrwt>
</event>
<event>
 4    1  0.2621617E-004  0.5616511E+03  0.7818608E-02  0.9988326E-01
         -2   -1    0    0    0  501 -0.00000000000E+00  0.00000000000E+00  0.53134171275E+02  0.53134171337E+02  0.25500000000E-02 0. -1.
          2   -1    0    0  501    0  0.00000000000E+00 -0.00000000000E+00 -0.14842235149E+04  0.14842235149E+04  0.25500000000E-02 0.  1.
    5000001    1    1    2    0    0  0.20666618265E+03 -0.37443291397E+02 -0.34202739286E+03  0.42098057983E+03  0.12700000000E+03 0.  0.
   -5000001    1    1    2    0    0 -0.20666618265E+03  0.37443291397E+02 -0.10890619507E+04  0.11163771064E+04  0.12700000000E+03 0.  0.
<mgrwt>
<rscale>  0 0.56165109E+03</rscale>
<asrwt>0</asrwt>
<pdfrwt beam="1">  1        2 0.21203191E+00 0.56165109E+03</pdfrwt>
<pdfrwt beam="2">  1       -2 0.75905968E-02 0.56165109E+03</pdfrwt>
<totfact> 0.16177419E+03</totfact>
</mgrwt>
</event>
<event>
 4    1  0.2621617E-004  0.8920235E+03  0.7818608E-02  0.9435608E-01
          2   -1    0    0  501    0  0.00000000000E+00  0.00000000000E+00  0.25049521119E+04  0.25049521119E+04  0.25500000000E-02 0.  1.
         -2   -1    0    0    0  501 -0.00000000000E+00 -0.00000000000E+00 -0.79413287907E+02  0.79413287948E+02  0.25500000000E-02 0. -1.
    5000001    1    1    2    0    0  0.31601801672E+03 -0.24248762342E+03  0.76272546905E+03  0.86979697374E+03  0.12700000000E+03 0.  0.
   -5000001    1    1    2    0    0 -0.31601801672E+03  0.24248762342E+03  0.16628133550E+04  0.17145684261E+04  0.12700000000E+03 0.  0.
<mgrwt>
<rscale>  0 0.89202350E+03</rscale>
<asrwt>0</asrwt>
<pdfrwt beam="1">  1        2 0.35785031E+00 0.89202350E+03</pdfrwt>
<pdfrwt beam="2">  1       -2 0.11344755E-01 0.89202350E+03</pdfrwt>
<totfact> 0.24960025E+02</totfact>
</mgrwt>
</event>
<event>
 4    1  0.2621617E-004  0.2960225E+03  0.7818608E-02  0.1087246E+00
         -2   -1    0    0    0  501 -0.00000000000E+00  0.00000000000E+00  0.19024186953E+02  0.19024187124E+02  0.25500000000E-02 0. -1.
          2   -1    0    0  501    0  0.00000000000E+00 -0.00000000000E+00 -0.11515516437E+04  0.11515516437E+04  0.25500000000E-02 0.  1.
    5000001    1    1    2    0    0  0.35602241750E+02 -0.65814038295E+02 -0.51330992544E+03  0.53405532186E+03  0.12700000000E+03 0.  0.
   -5000001    1    1    2    0    0 -0.35602241750E+02  0.65814038295E+02 -0.61921753129E+03  0.63652050895E+03  0.12700000000E+03 0.  0.
<mgrwt>
<rscale>  0 0.29602253E+03</rscale>
<asrwt>0</asrwt>
<pdfrwt beam="1">  1        2 0.16450733E+00 0.29602253E+03</pdfrwt>
<pdfrwt beam="2">  1       -2 0.27177417E-02 0.29602253E+03</pdfrwt>
<totfact> 0.11706644E+04</totfact>
</mgrwt>
</event>
<event>
 4    1  0.2621617E-004  0.6608986E+03  0.7818608E-02  0.9786541E-01
          2   -1    0    0  501    0  0.00000000000E+00  0.00000000000E+00  0.18992397845E+04  0.18992397845E+04  0.25500000000E-02 0.  1.
         -2   -1    0    0    0  501 -0.00000000000E+00 -0.00000000000E+00 -0.57494979389E+02  0.57494979446E+02  0.25500000000E-02 0. -1.
    5000001    1    1    2    0    0 -0.24960918261E+03 -0.16242381445E+03  0.72489357938E+03  0.79390549877E+03  0.12700000000E+03 0.  0.
   -5000001    1    1    2    0    0  0.24960918261E+03  0.16242381445E+03  0.11168512257E+04  0.11628292651E+04  0.12700000000E+03 0.  0.
<mgrwt>
<rscale>  0 0.66089864E+03</rscale>
<asrwt>0</asrwt>
<pdfrwt beam="1">  1        2 0.27131998E+00 0.66089864E+03</pdfrwt>
<pdfrwt beam="2">  1       -2 0.82135681E-02 0.66089864E+03</pdfrwt>
<totfact> 0.87210920E+02</totfact>
</mgrwt>
</event>
<event>
 4    1  0.2621617E-004  0.3091390E+03  0.7818608E-02  0.1080759E+00
         -2   -1    0    0    0  501 -0.00000000000E+00  0.00000000000E+00  0.15220254680E+03  0.15220254682E+03  0.25500000000E-02 0.  1.
          2   -1    0    0  501    0  0.00000000000E+00 -0.00000000000E+00 -0.15697325009E+03  0.15697325011E+03  0.25500000000E-02 0. -1.
    5000001    1    1    2    0    0  0.86178682045E+02  0.12629743323E+02  0.10899783523E+02  0.15438290364E+03  0.12700000000E+03 0.  0.
   -5000001    1    1    2    0    0 -0.86178682045E+02 -0.12629743323E+02 -0.15670486813E+02  0.15479289329E+03  0.12700000000E+03 0.  0.
<mgrwt>
<rscale>  0 0.30913899E+03</rscale>
<asrwt>0</asrwt>
<pdfrwt beam="1">  1        2 0.22424750E-01 0.30913899E+03</pdfrwt>
<pdfrwt beam="2">  1       -2 0.21743221E-01 0.30913899E+03</pdfrwt>
<totfact> 0.44211448E+03</totfact>
</mgrwt>
</event>
<event>
 4    1  0.2621617E-004  0.4901835E+03  0.7818608E-02  0.1016373E+00
         -2   -1    0    0    0  501 -0.00000000000E+00  0.00000000000E+00  0.35393804711E+02  0.35393804803E+02  0.25500000000E-02 0. -1.
          2   -1    0    0  501    0  0.00000000000E+00 -0.00000000000E+00 -0.16971889662E+04  0.16971889662E+04  0.25500000000E-02 0.  1.
    5000001    1    1    2    0    0  0.87739119150E+02  0.19033404273E+03 -0.81685952475E+03  0.85282687811E+03  0.12700000000E+03 0.  0.
   -5000001    1    1    2    0    0 -0.87739119150E+02 -0.19033404273E+03 -0.84493563677E+03  0.87975589292E+03  0.12700000000E+03 0.  0.
<mgrwt>
<rscale>  0 0.49018354E+03</rscale>
<asrwt>0</asrwt>
<pdfrwt beam="1">  1        2 0.24245552E+00 0.49018354E+03</pdfrwt>
<pdfrwt beam="2">  1       -2 0.50562589E-02 0.49018354E+03</pdfrwt>
<totfact> 0.23808658E+03</totfact>
</mgrwt>
</event>
<event>
 4    1  0.2621617E-004  0.3249191E+03  0.7818608E-02  0.1073407E+00
         -2   -1    0    0    0  501 -0.00000000000E+00  0.00000000000E+00  0.12790040396E+02  0.12790040650E+02  0.25500000000E-02 0. -1.
          2   -1    0    0  501    0  0.00000000000E+00 -0.00000000000E+00 -0.20635664078E+04  0.20635664078E+04  0.25500000000E-02 0.  1.
    5000001    1    1    2    0    0  0.41765220035E+02 -0.36435734113E+02 -0.48344013350E+03  0.50290680946E+03  0.12700000000E+03 0.  0.
   -5000001    1    1    2    0    0 -0.41765220035E+02  0.36435734113E+02 -0.15673362339E+04  0.15734496390E+04  0.12700000000E+03 0.  0.
<mgrwt>
<rscale>  0 0.32491905E+03</rscale>
<asrwt>0</asrwt>
<pdfrwt beam="1">  1        2 0.29479499E+00 0.32491905E+03</pdfrwt>
<pdfrwt beam="2">  1       -2 0.18271500E-02 0.32491905E+03</pdfrwt>
<totfact> 0.72741061E+03</totfact>
</mgrwt>
</event>
<event>
 4    1  0.2621617E-004  0.3878689E+03  0.7818608E-02  0.1048063E+00
         -2   -1    0    0    0  501 -0.00000000000E+00  0.00000000000E+00  0.36074092556E+03  0.36074092557E+03  0.25500000000E-02 0. -1.
          2   -1    0    0  501    0  0.00000000000E+00 -0.00000000000E+00 -0.10425921214E+03  0.10425921217E+03  0.25500000000E-02 0.  1.
    5000001    1    1    2    0    0  0.14156983372E+03  0.35944004899E+02  0.14280467081E+03  0.24053308153E+03  0.12700000000E+03 0.  0.
   -5000001    1    1    2    0    0 -0.14156983372E+03 -0.35944004899E+02  0.11367704260E+03  0.22446705621E+03  0.12700000000E+03 0.  0.
<mgrwt>
<rscale>  0 0.38786887E+03</rscale>
<asrwt>0</asrwt>
<pdfrwt beam="1">  1        2 0.14894173E-01 0.38786887E+03</pdfrwt>
<pdfrwt beam="2">  1       -2 0.51534417E-01 0.38786887E+03</pdfrwt>
<totfact> 0.14311343E+03</totfact>
</mgrwt>
</event>
<event>
 4    1  0.2621617E-004  0.4547679E+03  0.7818608E-02  0.1026310E+00
         -2   -1    0    0    0  501 -0.00000000000E+00  0.00000000000E+00  0.19153980725E+03  0.19153980726E+03  0.25500000000E-02 0. -1.
          2   -1    0    0  501    0  0.00000000000E+00 -0.00000000000E+00 -0.26993581384E+03  0.26993581385E+03  0.25500000000E-02 0.  1.
    5000001    1    1    2    0    0 -0.18300214742E+03 -0.50284511100E+01 -0.85247776630E+02  0.23856079875E+03  0.12700000000E+03 0.  0.
   -5000001    1    1    2    0    0  0.18300214742E+03  0.50284511100E+01  0.68517700350E+01  0.22291482237E+03  0.12700000000E+03 0.  0.
<mgrwt>
<rscale>  0 0.45476787E+03</rscale>
<asrwt>0</asrwt>
<pdfrwt beam="1">  1        2 0.38562259E-01 0.45476787E+03</pdfrwt>
<pdfrwt beam="2">  1       -2 0.27362830E-01 0.45476787E+03</pdfrwt>
<totfact> 0.16213677E+03</totfact>
</mgrwt>
</event>
<event>
 4    1  0.2621617E-004  0.3141739E+03  0.7818608E-02  0.1078362E+00
         -2   -1    0    0    0  501 -0.00000000000E+00  0.00000000000E+00  0.10965223486E+03  0.10965223489E+03  0.25500000000E-02 0. -1.
          2   -1    0    0  501    0  0.00000000000E+00 -0.00000000000E+00 -0.22504156864E+03  0.22504156865E+03  0.25500000000E-02 0.  1.
    5000001    1    1    2    0    0  0.54470371352E+02  0.15742937677E+02  0.20098407462E+02  0.14052689218E+03  0.12700000000E+03 0.  0.
   -5000001    1    1    2    0    0 -0.54470371352E+02 -0.15742937677E+02 -0.13548774124E+03  0.19416691136E+03  0.12700000000E+03 0.  0.
<mgrwt>
<rscale>  0 0.31417391E+03</rscale>
<asrwt>0</asrwt>
<pdfrwt beam="1">  1        2 0.32148796E-01 0.31417391E+03</pdfrwt>
<pdfrwt beam="2">  1       -2 0.15664605E-01 0.31417391E+03</pdfrwt>
<totfact> 0.51680237E+03</totfact>
</mgrwt>
</event>
<event>
 4    1  0.2621617E-004  0.3634248E+03  0.7818608E-02  0.1057236E+00
         -2   -1    0    0    0  501 -0.00000000000E+00  0.00000000000E+00  0.44937394952E+03  0.44937394952E+03  0.25500000000E-02 0. -1.
          2   -1    0    0  501    0  0.00000000000E+00 -0.00000000000E+00 -0.73478672036E+02  0.73478672080E+02  0.25500000000E-02 0.  1.
    5000001    1    1    2    0    0 -0.21717843757E+00  0.24569962263E+02  0.37155109755E+03  0.39342464120E+03  0.12700000000E+03 0.  0.
   -5000001    1    1    2    0    0  0.21717843757E+00 -0.24569962263E+02  0.43441799285E+01  0.12942798040E+03  0.12700000000E+03 0.  0.
<mgrwt>
<rscale>  0 0.36342483E+03</rscale>
<asrwt>0</asrwt>
<pdfrwt beam="1">  1        2 0.10496953E-01 0.36342483E+03</pdfrwt>
<pdfrwt beam="2">  1       -2 0.64196280E-01 0.36342483E+03</pdfrwt>
<totfact> 0.13928895E+03</totfact>
</mgrwt>
</event>
<event>
 4    1  0.2621617E-004  0.4718191E+03  0.7818608E-02  0.1021408E+00
          2   -1    0    0  501    0  0.00000000000E+00  0.00000000000E+00  0.13309525336E+04  0.13309525336E+04  0.25500000000E-02 0.  1.
         -2   -1    0    0    0  501 -0.00000000000E+00 -0.00000000000E+00 -0.41814650478E+02  0.41814650556E+02  0.25500000000E-02 0. -1.
    5000001    1    1    2    0    0  0.18716181774E+03  0.17617760219E+02  0.83277652456E+03  0.86312552468E+03  0.12700000000E+03 0.  0.
   -5000001    1    1    2    0    0 -0.18716181774E+03 -0.17617760219E+02  0.45636135861E+03  0.50964165953E+03  0.12700000000E+03 0.  0.
<mgrwt>
<rscale>  0 0.47181910E+03</rscale>
<asrwt>0</asrwt>
<pdfrwt beam="1">  1        2 0.19013604E+00 0.47181910E+03</pdfrwt>
<pdfrwt beam="2">  1       -2 0.59735225E-02 0.47181910E+03</pdfrwt>
<totfact> 0.28444050E+03</totfact>
</mgrwt>
</event>
<event>
 4    1  0.2621617E-004  0.4048749E+03  0.7818608E-02  0.1042105E+00
         -2   -1    0    0    0  501 -0.00000000000E+00  0.00000000000E+00  0.47658396775E+02  0.47658396843E+02  0.25500000000E-02 0. -1.
          2   -1    0    0  501    0  0.00000000000E+00 -0.00000000000E+00 -0.85988862599E+03  0.85988862600E+03  0.25500000000E-02 0.  1.
    5000001    1    1    2    0    0 -0.13696420507E+03  0.73354655904E+02 -0.34631091386E+03  0.40025035674E+03  0.12700000000E+03 0.  0.
   -5000001    1    1    2    0    0  0.13696420507E+03 -0.73354655904E+02 -0.46591931536E+03  0.50729666610E+03  0.12700000000E+03 0.  0.
<mgrwt>
<rscale>  0 0.40487486E+03</rscale>
<asrwt>0</asrwt>
<pdfrwt beam="1">  1        2 0.12284122E+00 0.40487486E+03</pdfrwt>
<pdfrwt beam="2">  1       -2 0.68083429E-02 0.40487486E+03</pdfrwt>
<totfact> 0.43559113E+03</totfact>
</mgrwt>
</event>
<event>
 4    1  0.2621617E-004  0.3798133E+03  0.7818608E-02  0.1051003E+00
          2   -1    0    0  501    0  0.00000000000E+00  0.00000000000E+00  0.18825995922E+04  0.18825995922E+04  0.25500000000E-02 0.  1.
         -2   -1    0    0    0  501 -0.00000000000E+00 -0.00000000000E+00 -0.19156771401E+02  0.19156771571E+02  0.25500000000E-02 0. -1.
    5000001    1    1    2    0    0  0.10508236194E+03 -0.71059736553E+02  0.62129274716E+03  0.64670353844E+03  0.12700000000E+03 0.  0.
   -5000001    1    1    2    0    0 -0.10508236194E+03  0.71059736553E+02  0.12421500737E+04  0.12550528254E+04  0.12700000000E+03 0.  0.
<mgrwt>
<rscale>  0 0.37981327E+03</rscale>
<asrwt>0</asrwt>
<pdfrwt beam="1">  1        2 0.26894266E+00 0.37981327E+03</pdfrwt>
<pdfrwt beam="2">  1       -2 0.27366831E-02 0.37981327E+03</pdfrwt>
<totfact> 0.49001341E+03</totfact>
</mgrwt>
</event>
<event>
 4    1  0.2621617E-004  0.4688580E+03  0.7818608E-02  0.1022243E+00
         -2   -1    0    0    0  501 -0.00000000000E+00  0.00000000000E+00  0.26547679337E+02  0.26547679460E+02  0.25500000000E-02 0. -1.
          2   -1    0    0  501    0  0.00000000000E+00 -0.00000000000E+00 -0.20701230546E+04  0.20701230546E+04  0.25500000000E-02 0.  1.
    5000001    1    1    2    0    0 -0.52513361132E+02 -0.71443049942E+01 -0.18704918295E+04  0.18755472211E+04  0.12700000000E+03 0.  0.
   -5000001    1    1    2    0    0  0.52513361132E+02  0.71443049942E+01 -0.17308354578E+03  0.22112351302E+03  0.12700000000E+03 0.  0.
<mgrwt>
<rscale>  0 0.46885803E+03</rscale>
<asrwt>0</asrwt>
<pdfrwt beam="1">  1        2 0.29573176E+00 0.46885803E+03</pdfrwt>
<pdfrwt beam="2">  1       -2 0.37925269E-02 0.46885803E+03</pdfrwt>
<totfact> 0.24111490E+03</totfact>
</mgrwt>
</event>
<event>
 4    1  0.2621617E-004  0.4495148E+03  0.7818608E-02  0.1027867E+00
         -2   -1    0    0    0  501 -0.00000000000E+00  0.00000000000E+00  0.29015340341E+03  0.29015340342E+03  0.25500000000E-02 0. -1.
          2   -1    0    0  501    0  0.00000000000E+00 -0.00000000000E+00 -0.17410064097E+03  0.17410064099E+03  0.25500000000E-02 0.  1.
    5000001    1    1    2    0    0  0.14264041189E+03 -0.86573210785E+02  0.14158461493E+03  0.25301464605E+03  0.12700000000E+03 0.  0.
   -5000001    1    1    2    0    0 -0.14264041189E+03  0.86573210785E+02 -0.25531852494E+02  0.21123939837E+03  0.12700000000E+03 0.  0.
<mgrwt>
<rscale>  0 0.44951482E+03</rscale>
<asrwt>0</asrwt>
<pdfrwt beam="1">  1        2 0.24871520E-01 0.44951482E+03</pdfrwt>
<pdfrwt beam="2">  1       -2 0.41450486E-01 0.44951482E+03</pdfrwt>
<totfact> 0.12135918E+03</totfact>
</mgrwt>
</event>
<event>
 4    1  0.2621617E-004  0.4701381E+03  0.7818608E-02  0.1021881E+00
         -2   -1    0    0    0  501 -0.00000000000E+00  0.00000000000E+00  0.69006889843E+02  0.69006889890E+02  0.25500000000E-02 0.  1.
          2   -1    0    0  501    0  0.00000000000E+00 -0.00000000000E+00 -0.80075290570E+03  0.80075290570E+03  0.25500000000E-02 0. -1.
    5000001    1    1    2    0    0  0.17204811958E+03 -0.86738359804E+01 -0.54573990653E+03  0.58620545585E+03  0.12700000000E+03 0.  0.
   -5000001    1    1    2    0    0 -0.17204811958E+03  0.86738359804E+01 -0.18600610932E+03  0.28355433974E+03  0.12700000000E+03 0.  0.
<mgrwt>
<rscale>  0 0.47013814E+03</rscale>
<asrwt>0</asrwt>
<pdfrwt beam="1">  1        2 0.11439327E+00 0.47013814E+03</pdfrwt>
<pdfrwt beam="2">  1       -2 0.98581276E-02 0.47013814E+03</pdfrwt>
<totfact> 0.26577341E+03</totfact>
</mgrwt>
</event>
<event>
 4    1  0.2621617E-004  0.2886757E+03  0.7818608E-02  0.1091043E+00
         -2   -1    0    0    0  501 -0.00000000000E+00  0.00000000000E+00  0.10663248345E+02  0.10663248650E+02  0.25500000000E-02 0. -1.
          2   -1    0    0  501    0  0.00000000000E+00 -0.00000000000E+00 -0.19537592246E+04  0.19537592246E+04  0.25500000000E-02 0.  1.
    5000001    1    1    2    0    0 -0.12480843899E+02  0.49025035942E+02 -0.12867274794E+04  0.12939690228E+04  0.12700000000E+03 0.  0.
   -5000001    1    1    2    0    0  0.12480843899E+02 -0.49025035942E+02 -0.65636849680E+03  0.67045345044E+03  0.12700000000E+03 0.  0.
<mgrwt>
<rscale>  0 0.28867574E+03</rscale>
<asrwt>0</asrwt>
<pdfrwt beam="1">  1        2 0.27910823E+00 0.28867574E+03</pdfrwt>
<pdfrwt beam="2">  1       -2 0.15233225E-02 0.28867574E+03</pdfrwt>
<totfact> 0.10742880E+04</totfact>
</mgrwt>
</event>
<event>
 4    1  0.2621617E-004  0.3904223E+03  0.7818608E-02  0.1047147E+00
         -2   -1    0    0    0  501 -0.00000000000E+00  0.00000000000E+00  0.38047262963E+02  0.38047263048E+02  0.25500000000E-02 0. -1.
          2   -1    0    0  501    0  0.00000000000E+00 -0.00000000000E+00 -0.10015803360E+04  0.10015803361E+04  0.25500000000E-02 0.  1.
    5000001    1    1    2    0    0  0.13897590283E+03 -0.35978070046E+02 -0.38321786920E+03  0.42847830560E+03  0.12700000000E+03 0.  0.
   -5000001    1    1    2    0    0 -0.13897590283E+03  0.35978070046E+02 -0.58031520388E+03  0.61114929350E+03  0.12700000000E+03 0.  0.
<mgrwt>
<rscale>  0 0.39042229E+03</rscale>
<asrwt>0</asrwt>
<pdfrwt beam="1">  1        2 0.14308289E+00 0.39042229E+03</pdfrwt>
<pdfrwt beam="2">  1       -2 0.54353239E-02 0.39042229E+03</pdfrwt>
<totfact> 0.50368225E+03</totfact>
</mgrwt>
</event>
<event>
 4    1  0.2621617E-004  0.3992516E+03  0.7818608E-02  0.1044039E+00
         -2   -1    0    0    0  501 -0.00000000000E+00  0.00000000000E+00  0.42851082850E+02  0.42851082926E+02  0.25500000000E-02 0. -1.
          2   -1    0    0  501    0  0.00000000000E+00 -0.00000000000E+00 -0.92997540445E+03  0.92997540445E+03  0.25500000000E-02 0.  1.
    5000001    1    1    2    0    0 -0.13046255748E+03 -0.44411089738E+02 -0.27600754525E+03  0.33361952706E+03  0.12700000000E+03 0.  0.
   -5000001    1    1    2    0    0  0.13046255748E+03  0.44411089738E+02 -0.61111677634E+03  0.63920696032E+03  0.12700000000E+03 0.  0.
<mgrwt>
<rscale>  0 0.39925157E+03</rscale>
<asrwt>0</asrwt>
<pdfrwt beam="1">  1        2 0.13285362E+00 0.39925157E+03</pdfrwt>
<pdfrwt beam="2">  1       -2 0.61215838E-02 0.39925157E+03</pdfrwt>
<totfact> 0.46364578E+03</totfact>
</mgrwt>
</event>
<event>
 4    1  0.2621617E-004  0.7281733E+03  0.7818608E-02  0.9670229E-01
          2   -1    0    0  501    0  0.00000000000E+00  0.00000000000E+00  0.44731963523E+03  0.44731963523E+03  0.25500000000E-02 0.  1.
         -2   -1    0    0    0  501 -0.00000000000E+00 -0.00000000000E+00 -0.29634086880E+03  0.29634086881E+03  0.25500000000E-02 0. -1.
    5000001    1    1    2    0    0 -0.22384417601E+03 -0.23092635710E+03 -0.40939227923E+02  0.34819278844E+03  0.12700000000E+03 0.  0.
   -5000001    1    1    2    0    0  0.22384417601E+03  0.23092635710E+03  0.19191799435E+03  0.39546771561E+03  0.12700000000E+03 0.  0.
<mgrwt>
<rscale>  0 0.72817330E+03</rscale>
<asrwt>0</asrwt>
<pdfrwt beam="1">  1        2 0.63902806E-01 0.72817330E+03</pdfrwt>
<pdfrwt beam="2">  1       -2 0.42334409E-01 0.72817330E+03</pdfrwt>
<totfact> 0.40592451E+02</totfact>
</mgrwt>
</event>
<event>
 4    1  0.2621617E-004  0.3380614E+03  0.7818608E-02  0.1067625E+00
         -2   -1    0    0    0  501 -0.00000000000E+00  0.00000000000E+00  0.64712723107E+03  0.64712723107E+03  0.25500000000E-02 0. -1.
          2   -1    0    0  501    0  0.00000000000E+00 -0.00000000000E+00 -0.44151104100E+02  0.44151104174E+02  0.25500000000E-02 0.  1.
    5000001    1    1    2    0    0 -0.55039472163E+02  0.86409144092E+02  0.39170421977E+03  0.42433133218E+03  0.12700000000E+03 0.  0.
   -5000001    1    1    2    0    0  0.55039472163E+02 -0.86409144092E+02  0.21127190719E+03  0.26694700307E+03  0.12700000000E+03 0.  0.
<mgrwt>
<rscale>  0 0.33806143E+03</rscale>
<asrwt>0</asrwt>
<pdfrwt beam="1">  1        2 0.63073010E-02 0.33806143E+03</pdfrwt>
<pdfrwt beam="2">  1       -2 0.92446741E-01 0.33806143E+03</pdfrwt>
<totfact> 0.11965506E+03</totfact>
</mgrwt>
</event>
<event>
 4    1  0.2621617E-004  0.3755833E+03  0.7818608E-02  0.1052578E+00
         -2   -1    0    0    0  501 -0.00000000000E+00  0.00000000000E+00  0.15614996970E+03  0.15614996972E+03  0.25500000000E-02 0. -1.
          2   -1    0    0  501    0  0.00000000000E+00 -0.00000000000E+00 -0.22584508826E+03  0.22584508828E+03  0.25500000000E-02 0.  1.
    5000001    1    1    2    0    0  0.11372488619E+03 -0.57978208157E+02 -0.89066926099E+02  0.20088986954E+03  0.12700000000E+03 0.  0.
   -5000001    1    1    2    0    0 -0.11372488619E+03  0.57978208157E+02  0.19371807539E+02  0.18110518846E+03  0.12700000000E+03 0.  0.
<mgrwt>
<rscale>  0 0.37558330E+03</rscale>
<asrwt>0</asrwt>
<pdfrwt beam="1">  1        2 0.32263584E-01 0.37558330E+03</pdfrwt>
<pdfrwt beam="2">  1       -2 0.22307139E-01 0.37558330E+03</pdfrwt>
<totfact> 0.28297713E+03</totfact>
</mgrwt>
</event>
<event>
 4    1  0.2621617E-004  0.5870327E+03  0.7818608E-02  0.9932680E-01
         -2   -1    0    0    0  501 -0.00000000000E+00  0.00000000000E+00  0.22896576712E+03  0.22896576713E+03  0.25500000000E-02 0. -1.
          2   -1    0    0  501    0  0.00000000000E+00 -0.00000000000E+00 -0.37626518366E+03  0.37626518367E+03  0.25500000000E-02 0.  1.
    5000001    1    1    2    0    0 -0.95189126064E+02  0.15219487916E+03  0.12679595746E+03  0.25383156973E+03  0.12700000000E+03 0.  0.
   -5000001    1    1    2    0    0  0.95189126064E+02 -0.15219487916E+03 -0.27409537401E+03  0.35139938107E+03  0.12700000000E+03 0.  0.
<mgrwt>
<rscale>  0 0.58703270E+03</rscale>
<asrwt>0</asrwt>
<pdfrwt beam="1">  1        2 0.53752169E-01 0.58703270E+03</pdfrwt>
<pdfrwt beam="2">  1       -2 0.32709395E-01 0.58703270E+03</pdfrwt>
<totfact> 0.81021939E+02</totfact>
</mgrwt>
</event>
<event>
 4    1  0.2621617E-004  0.7216967E+03  0.7818608E-02  0.9680831E-01
          2   -1    0    0  501    0  0.00000000000E+00  0.00000000000E+00  0.27602381813E+03  0.27602381814E+03  0.25500000000E-02 0.  1.
         -2   -1    0    0    0  501 -0.00000000000E+00 -0.00000000000E+00 -0.47174014978E+03  0.47174014979E+03  0.25500000000E-02 0. -1.
    5000001    1    1    2    0    0  0.11383993565E+02  0.22447476778E+03  0.16336726277E+03  0.30551003130E+03  0.12700000000E+03 0.  0.
   -5000001    1    1    2    0    0 -0.11383993565E+02 -0.22447476778E+03 -0.35908359443E+03  0.44225393663E+03  0.12700000000E+03 0.  0.
<mgrwt>
<rscale>  0 0.72169666E+03</rscale>
<asrwt>0</asrwt>
<pdfrwt beam="1">  1        2 0.39431974E-01 0.72169666E+03</pdfrwt>
<pdfrwt beam="2">  1       -2 0.67391450E-01 0.72169666E+03</pdfrwt>
<totfact> 0.26661102E+02</totfact>
</mgrwt>
</event>
<event>
 4    1  0.2621617E-004  0.3476775E+03  0.7818608E-02  0.1063572E+00
         -2   -1    0    0    0  501 -0.00000000000E+00  0.00000000000E+00  0.40778962126E+02  0.40778962206E+02  0.25500000000E-02 0. -1.
          2   -1    0    0  501    0  0.00000000000E+00 -0.00000000000E+00 -0.74106624547E+03  0.74106624548E+03  0.25500000000E-02 0.  1.
    5000001    1    1    2    0    0  0.59739523257E+00  0.10847848997E+03 -0.24175937650E+03  0.29384440745E+03  0.12700000000E+03 0.  0.
   -5000001    1    1    2    0    0 -0.59739523257E+00 -0.10847848997E+03 -0.45852790685E+03  0.48800080023E+03  0.12700000000E+03 0.  0.
<mgrwt>
<rscale>  0 0.34767751E+03</rscale>
<asrwt>0</asrwt>
<pdfrwt beam="1">  1        2 0.10586660E+00 0.34767751E+03</pdfrwt>
<pdfrwt beam="2">  1       -2 0.58255665E-02 0.34767751E+03</pdfrwt>
<totfact> 0.66661405E+03</totfact>
</mgrwt>
</event>
<event>
 4    1  0.2621617E-004  0.4805937E+03  0.7818608E-02  0.1018972E+00
          2   -1    0    0  501    0  0.00000000000E+00  0.00000000000E+00  0.10894458427E+04  0.10894458427E+04  0.25500000000E-02 0.  1.
         -2   -1    0    0    0  501 -0.00000000000E+00 -0.00000000000E+00 -0.53001796273E+02  0.53001796334E+02  0.25500000000E-02 0. -1.
    5000001    1    1    2    0    0  0.18266403302E+03 -0.65247630222E+02  0.66838216733E+03  0.70745114589E+03  0.12700000000E+03 0.  0.
   -5000001    1    1    2    0    0 -0.18266403302E+03  0.65247630222E+02  0.36806187908E+03  0.43499649314E+03  0.12700000000E+03 0.  0.
<mgrwt>
<rscale>  0 0.48059374E+03</rscale>
<asrwt>0</asrwt>
<pdfrwt beam="1">  1        2 0.15563512E+00 0.48059374E+03</pdfrwt>
<pdfrwt beam="2">  1       -2 0.75716850E-02 0.48059374E+03</pdfrwt>
<totfact> 0.26699960E+03</totfact>
</mgrwt>
</event>
<event>
 4    1  0.2621617E-004  0.5812248E+03  0.7818608E-02  0.9945143E-01
         -2   -1    0    0    0  501 -0.00000000000E+00  0.00000000000E+00  0.11651244071E+04  0.11651244071E+04  0.25500000000E-02 0. -1.
          2   -1    0    0  501    0  0.00000000000E+00 -0.00000000000E+00 -0.72486301910E+02  0.72486301955E+02  0.25500000000E-02 0.  1.
    5000001    1    1    2    0    0  0.19474909220E+03 -0.14382213400E+03  0.33644866698E+03  0.43351899688E+03  0.12700000000E+03 0.  0.
   -5000001    1    1    2    0    0 -0.19474909220E+03  0.14382213400E+03  0.75618943816E+03  0.80409171213E+03  0.12700000000E+03 0.  0.
<mgrwt>
<rscale>  0 0.58122477E+03</rscale>
<asrwt>0</asrwt>
<pdfrwt beam="1">  1        2 0.10355186E-01 0.58122477E+03</pdfrwt>
<pdfrwt beam="2">  1       -2 0.16644634E+00 0.58122477E+03</pdfrwt>
<totfact> 0.14645980E+02</totfact>
</mgrwt>
</event>
<event>
 4    1  0.2621617E-004  0.4583599E+03  0.7818608E-02  0.1025258E+00
         -2   -1    0    0    0  501 -0.00000000000E+00  0.00000000000E+00  0.54982345331E+02  0.54982345390E+02  0.25500000000E-02 0. -1.
          2   -1    0    0  501    0  0.00000000000E+00 -0.00000000000E+00 -0.95527832056E+03  0.95527832056E+03  0.25500000000E-02 0.  1.
    5000001    1    1    2    0    0 -0.61767020910E+02  0.17982000102E+03 -0.48457994613E+03  0.53581444720E+03  0.12700000000E+03 0.  0.
   -5000001    1    1    2    0    0  0.61767020910E+02 -0.17982000102E+03 -0.41571602910E+03  0.47444621875E+03  0.12700000000E+03 0.  0.
<mgrwt>
<rscale>  0 0.45835987E+03</rscale>
<asrwt>0</asrwt>
<pdfrwt beam="1">  1        2 0.13646832E+00 0.45835987E+03</pdfrwt>
<pdfrwt beam="2">  1       -2 0.78546213E-02 0.45835987E+03</pdfrwt>
<totfact> 0.30299720E+03</totfact>
</mgrwt>
</event>
<event>
 4    1  0.2621617E-004  0.5085262E+03  0.7818608E-02  0.1011577E+00
          2   -1    0    0  501    0  0.00000000000E+00  0.00000000000E+00  0.94902782870E+03  0.94902782870E+03  0.25500000000E-02 0.  1.
         -2   -1    0    0    0  501 -0.00000000000E+00 -0.00000000000E+00 -0.68122056004E+02  0.68122056052E+02  0.25500000000E-02 0. -1.
    5000001    1    1    2    0    0  0.26276420089E+02  0.21848992982E+03  0.42122322671E+03  0.49192103675E+03  0.12700000000E+03 0.  0.
   -5000001    1    1    2    0    0 -0.26276420089E+02 -0.21848992982E+03  0.45968254599E+03  0.52522884800E+03  0.12700000000E+03 0.  0.
<mgrwt>
<rscale>  0 0.50852621E+03</rscale>
<asrwt>0</asrwt>
<pdfrwt beam="1">  1        2 0.13557540E+00 0.50852621E+03</pdfrwt>
<pdfrwt beam="2">  1       -2 0.97317225E-02 0.50852621E+03</pdfrwt>
<totfact> 0.21720166E+03</totfact>
</mgrwt>
</event>
<event>
 4    1  0.2621617E-004  0.3775136E+03  0.7818608E-02  0.1051857E+00
          2   -1    0    0  501    0  0.00000000000E+00  0.00000000000E+00  0.14154314551E+04  0.14154314551E+04  0.25500000000E-02 0.  1.
         -2   -1    0    0    0  501 -0.00000000000E+00 -0.00000000000E+00 -0.25171916924E+02  0.25171917053E+02  0.25500000000E-02 0. -1.
    5000001    1    1    2    0    0 -0.12117605101E+03  0.23709291685E+02  0.94403203041E+03  0.96050572112E+03  0.12700000000E+03 0.  0.
   -5000001    1    1    2    0    0  0.12117605101E+03 -0.23709291685E+02  0.44622750779E+03  0.48009765107E+03  0.12700000000E+03 0.  0.
<mgrwt>
<rscale>  0 0.37751357E+03</rscale>
<asrwt>0</asrwt>
<pdfrwt beam="1">  1        2 0.20220454E+00 0.37751357E+03</pdfrwt>
<pdfrwt beam="2">  1       -2 0.35959874E-02 0.37751357E+03</pdfrwt>
<totfact> 0.55858507E+03</totfact>
</mgrwt>
</event>
<event>
 4    1  0.2621617E-004  0.6343869E+03  0.7818608E-02  0.9836525E-01
         -2   -1    0    0    0  501 -0.00000000000E+00  0.00000000000E+00  0.22829571303E+03  0.22829571304E+03  0.25500000000E-02 0. -1.
          2   -1    0    0  501    0  0.00000000000E+00 -0.00000000000E+00 -0.44070772756E+03  0.44070772756E+03  0.25500000000E-02 0.  1.
    5000001    1    1    2    0    0 -0.28516149192E+03  0.15470752806E+02 -0.49159256301E+02  0.31638908506E+03  0.12700000000E+03 0.  0.
   -5000001    1    1    2    0    0  0.28516149192E+03 -0.15470752806E+02 -0.16325275822E+03  0.35261435554E+03  0.12700000000E+03 0.  0.
<mgrwt>
<rscale>  0 0.63438690E+03</rscale>
<asrwt>0</asrwt>
<pdfrwt beam="1">  1        2 0.62958247E-01 0.63438690E+03</pdfrwt>
<pdfrwt beam="2">  1       -2 0.32613673E-01 0.63438690E+03</pdfrwt>
<totfact> 0.68264607E+02</totfact>
</mgrwt>
</event>
<event>
 4    1  0.2621617E-004  0.4441212E+03  0.7818608E-02  0.1029490E+00
          2   -1    0    0  501    0  0.00000000000E+00  0.00000000000E+00  0.12779577234E+04  0.12779577234E+04  0.25500000000E-02 0.  1.
         -2   -1    0    0    0  501 -0.00000000000E+00 -0.00000000000E+00 -0.38585719620E+02  0.38585719705E+02  0.25500000000E-02 0. -1.
    5000001    1    1    2    0    0 -0.15127162666E+03 -0.77897436971E+02  0.81250287763E+03  0.83978630727E+03  0.12700000000E+03 0.  0.
   -5000001    1    1    2    0    0  0.15127162666E+03  0.77897436971E+02  0.42686912618E+03  0.47675713587E+03  0.12700000000E+03 0.  0.
<mgrwt>
<rscale>  0 0.44412124E+03</rscale>
<asrwt>0</asrwt>
<pdfrwt beam="1">  1        2 0.18256537E+00 0.44412124E+03</pdfrwt>
<pdfrwt beam="2">  1       -2 0.55122462E-02 0.44412124E+03</pdfrwt>
<totfact> 0.34408848E+03</totfact>
</mgrwt>
</event>
<event>
 4    1  0.2621617E-004  0.3182995E+03  0.7818608E-02  0.1076435E+00
          2   -1    0    0  501    0  0.00000000000E+00  0.00000000000E+00  0.15606828198E+03  0.15606828200E+03  0.25500000000E-02 0.  1.
         -2   -1    0    0    0  501 -0.00000000000E+00 -0.00000000000E+00 -0.16229204650E+03  0.16229204652E+03  0.25500000000E-02 0. -1.
    5000001    1    1    2    0    0  0.64316396131E+02  0.60586357762E+02  0.34209259907E+02  0.15845055702E+03  0.12700000000E+03 0.  0.
   -5000001    1    1    2    0    0 -0.64316396131E+02 -0.60586357762E+02 -0.40433024428E+02  0.15990977150E+03  0.12700000000E+03 0.  0.
<mgrwt>
<rscale>  0 0.31829949E+03</rscale>
<asrwt>0</asrwt>
<pdfrwt beam="1">  1        2 0.22295469E-01 0.31829949E+03</pdfrwt>
<pdfrwt beam="2">  1       -2 0.23184578E-01 0.31829949E+03</pdfrwt>
<totfact> 0.39826947E+03</totfact>
</mgrwt>
</event>
<event>
 4    1  0.2621617E-004  0.3275352E+03  0.7818608E-02  0.1072233E+00
         -2   -1    0    0    0  501 -0.00000000000E+00  0.00000000000E+00  0.10015096464E+04  0.10015096464E+04  0.25500000000E-02 0. -1.
          2   -1    0    0  501    0  0.00000000000E+00 -0.00000000000E+00 -0.26779406451E+02  0.26779406573E+02  0.25500000000E-02 0.  1.
    5000001    1    1    2    0    0 -0.46996544913E+02  0.87047613216E+02  0.39292627016E+03  0.42462455886E+03  0.12700000000E+03 0.  0.
   -5000001    1    1    2    0    0  0.46996544913E+02 -0.87047613216E+02  0.58180396976E+03  0.60366449409E+03  0.12700000000E+03 0.  0.
<mgrwt>
<rscale>  0 0.32753524E+03</rscale>
<asrwt>0</asrwt>
<pdfrwt beam="1">  1        2 0.38256301E-02 0.32753524E+03</pdfrwt>
<pdfrwt beam="2">  1       -2 0.14307278E+00 0.32753524E+03</pdfrwt>
<totfact> 0.81031781E+02</totfact>
</mgrwt>
</event>
<event>
 4    1  0.2621617E-004  0.3664053E+03  0.7818608E-02  0.1056076E+00
          2   -1    0    0  501    0  0.00000000000E+00  0.00000000000E+00  0.15927513937E+04  0.15927513937E+04  0.25500000000E-02 0.  1.
         -2   -1    0    0    0  501 -0.00000000000E+00 -0.00000000000E+00 -0.21072475589E+02  0.21072475743E+02  0.25500000000E-02 0. -1.
    5000001    1    1    2    0    0 -0.19983687649E+02  0.11970894363E+03  0.10148992058E+04  0.10299897946E+04  0.12700000000E+03 0.  0.
   -5000001    1    1    2    0    0  0.19983687649E+02 -0.11970894363E+03  0.55677971227E+03  0.58383407485E+03  0.12700000000E+03 0.  0.
<mgrwt>
<rscale>  0 0.36640532E+03</rscale>
<asrwt>0</asrwt>
<pdfrwt beam="1">  1        2 0.22753588E+00 0.36640532E+03</pdfrwt>
<pdfrwt beam="2">  1       -2 0.30103541E-02 0.36640532E+03</pdfrwt>
<totfact> 0.59234041E+03</totfact>
</mgrwt>
</event>
<event>
 4    1  0.2621617E-004  0.3597736E+03  0.7818608E-02  0.1058674E+00
          2   -1    0    0  501    0  0.00000000000E+00  0.00000000000E+00  0.19570038325E+04  0.19570038325E+04  0.25500000000E-02 0.  1.
         -2   -1    0    0    0  501 -0.00000000000E+00 -0.00000000000E+00 -0.16535105936E+02  0.16535106133E+02  0.25500000000E-02 0. -1.
    5000001    1    1    2    0    0  0.50802407769E+02  0.11633449821E+03  0.91123887385E+03  0.92876255595E+03  0.12700000000E+03 0.  0.
   -5000001    1    1    2    0    0 -0.50802407769E+02 -0.11633449821E+03  0.10292298527E+04  0.10447763827E+04  0.12700000000E+03 0.  0.
<mgrwt>
<rscale>  0 0.35977363E+03</rscale>
<asrwt>0</asrwt>
<pdfrwt beam="1">  1        2 0.27957190E+00 0.35977363E+03</pdfrwt>
<pdfrwt beam="2">  1       -2 0.23621586E-02 0.35977363E+03</pdfrwt>
<totfact> 0.56099103E+03</totfact>
</mgrwt>
</event>
<event>
 4    1  0.2621617E-004  0.6232516E+03  0.7818608E-02  0.9858307E-01
          2   -1    0    0  501    0  0.00000000000E+00  0.00000000000E+00  0.61685794256E+03  0.61685794256E+03  0.25500000000E-02 0.  1.
         -2   -1    0    0    0  501 -0.00000000000E+00 -0.00000000000E+00 -0.15742786527E+03  0.15742786529E+03  0.25500000000E-02 0. -1.
    5000001    1    1    2    0    0  0.22046654789E+03 -0.65567020603E+02  0.43788306001E+03  0.51066144085E+03  0.12700000000E+03 0.  0.
   -5000001    1    1    2    0    0 -0.22046654789E+03  0.65567020603E+02  0.21547017281E+02  0.26362436701E+03  0.12700000000E+03 0.  0.
<mgrwt>
<rscale>  0 0.62325157E+03</rscale>
<asrwt>0</asrwt>
<pdfrwt beam="1">  1        2 0.88122566E-01 0.62325157E+03</pdfrwt>
<pdfrwt beam="2">  1       -2 0.22489694E-01 0.62325157E+03</pdfrwt>
<totfact> 0.91250064E+02</totfact>
</mgrwt>
</event>
<event>
 4    1  0.2621617E-004  0.4198318E+03  0.7818608E-02  0.1037121E+00
          2   -1    0    0  501    0  0.00000000000E+00  0.00000000000E+00  0.12269699540E+04  0.12269699540E+04  0.25500000000E-02 0.  1.
         -2   -1    0    0    0  501 -0.00000000000E+00 -0.00000000000E+00 -0.35913417841E+02  0.35913417931E+02  0.25500000000E-02 0. -1.
    5000001    1    1    2    0    0 -0.10560538880E+03  0.11707390110E+03  0.42867151961E+03  0.47407496052E+03  0.12700000000E+03 0.  0.
   -5000001    1    1    2    0    0  0.10560538880E+03 -0.11707390110E+03  0.76238501651E+03  0.78880841138E+03  0.12700000000E+03 0.  0.
<mgrwt>
<rscale>  0 0.41983180E+03</rscale>
<asrwt>0</asrwt>
<pdfrwt beam="1">  1        2 0.17528145E+00 0.41983180E+03</pdfrwt>
<pdfrwt beam="2">  1       -2 0.51304874E-02 0.41983180E+03</pdfrwt>
<totfact> 0.40967966E+03</totfact>
</mgrwt>
</event>
<event>
 4    1  0.2621617E-004  0.4077360E+03  0.7818608E-02  0.1041133E+00
          2   -1    0    0  501    0  0.00000000000E+00  0.00000000000E+00  0.33330997432E+04  0.33330997432E+04  0.25500000000E-02 0.  1.
         -2   -1    0    0    0  501 -0.00000000000E+00 -0.00000000000E+00 -0.12469522339E+02  0.12469522600E+02  0.25500000000E-02 0. -1.
    5000001    1    1    2    0    0  0.13847000285E+03 -0.31340979850E+02  0.10642646791E+04  0.10811773703E+04  0.12700000000E+03 0.  0.
   -5000001    1    1    2    0    0 -0.13847000285E+03  0.31340979850E+02  0.22563655417E+04  0.22643918955E+04  0.12700000000E+03 0.  0.
<mgrwt>
<rscale>  0 0.40773600E+03</rscale>
<asrwt>0</asrwt>
<pdfrwt beam="1">  1        2 0.47615695E+00 0.40773600E+03</pdfrwt>
<pdfrwt beam="2">  1       -2 0.17813610E-02 0.40773600E+03</pdfrwt>
<totfact> 0.16473334E+03</totfact>
</mgrwt>
</event>
<event>
 4    1  0.2621617E-004  0.5037022E+03  0.7818608E-02  0.1012817E+00
          2   -1    0    0  501    0  0.00000000000E+00  0.00000000000E+00  0.10322646208E+04  0.10322646208E+04  0.25500000000E-02 0.  1.
         -2   -1    0    0    0  501 -0.00000000000E+00 -0.00000000000E+00 -0.61446428215E+02  0.61446428268E+02  0.25500000000E-02 0. -1.
    5000001    1    1    2    0    0  0.83595225928E+02  0.18350875349E+03  0.30852312641E+03  0.38984502554E+03  0.12700000000E+03 0.  0.
   -5000001    1    1    2    0    0 -0.83595225928E+02 -0.18350875349E+03  0.66229506614E+03  0.70386602350E+03  0.12700000000E+03 0.  0.
<mgrwt>
<rscale>  0 0.50370219E+03</rscale>
<asrwt>0</asrwt>
<pdfrwt beam="1">  1        2 0.14746639E+00 0.50370219E+03</pdfrwt>
<pdfrwt beam="2">  1       -2 0.87780603E-02 0.50370219E+03</pdfrwt>
<totfact> 0.22807518E+03</totfact>
</mgrwt>
</event>
<event>
 4    1  0.2621617E-004  0.2740248E+03  0.7818608E-02  0.1098998E+00
          2   -1    0    0  501    0  0.00000000000E+00  0.00000000000E+00  0.19100665964E+04  0.19100665964E+04  0.25500000000E-02 0. -1.
         -2   -1    0    0    0  501 -0.00000000000E+00 -0.00000000000E+00 -0.98281348468E+01  0.98281351776E+01  0.25500000000E-02 0.  1.
    5000001    1    1    2    0    0  0.13004869721E+02 -0.21019706410E+02  0.63425806744E+03  0.64732005284E+03  0.12700000000E+03 0.  0.
   -5000001    1    1    2    0    0 -0.13004869721E+02  0.21019706410E+02  0.12659803942E+04  0.12725746788E+04  0.12700000000E+03 0.  0.
<mgrwt>
<rscale>  0 0.27402476E+03</rscale>
<asrwt>0</asrwt>
<pdfrwt beam="1">  1        2 0.27286667E+00 0.27402476E+03</pdfrwt>
<pdfrwt beam="2">  1       -2 0.14040192E-02 0.27402476E+03</pdfrwt>
<totfact> 0.12701061E+04</totfact>
</mgrwt>
</event>
<event>
 4    1  0.2621617E-004  0.3347940E+03  0.7818608E-02  0.1069035E+00
          2   -1    0    0  501    0  0.00000000000E+00  0.00000000000E+00  0.12003690508E+04  0.12003690508E+04  0.25500000000E-02 0.  1.
         -2   -1    0    0    0  501 -0.00000000000E+00 -0.00000000000E+00 -0.23344282021E+02  0.23344282161E+02  0.25500000000E-02 0. -1.
    5000001    1    1    2    0    0  0.33361033020E+02  0.88964016874E+02  0.39286257492E+03  0.42367152087E+03  0.12700000000E+03 0.  0.
   -5000001    1    1    2    0    0 -0.33361033020E+02 -0.88964016874E+02  0.78416219384E+03  0.80004181208E+03  0.12700000000E+03 0.  0.
<mgrwt>
<rscale>  0 0.33479399E+03</rscale>
<asrwt>0</asrwt>
<pdfrwt beam="1">  1        2 0.17148130E+00 0.33479399E+03</pdfrwt>
<pdfrwt beam="2">  1       -2 0.33348972E-02 0.33479399E+03</pdfrwt>
<totfact> 0.81302553E+03</totfact>
</mgrwt>
</event>
<event>
 4    1  0.2621617E-004  0.4704031E+03  0.7818608E-02  0.1021807E+00
          2   -1    0    0  501    0  0.00000000000E+00  0.00000000000E+00  0.10179982946E+04  0.10179982946E+04  0.25500000000E-02 0.  1.
         -2   -1    0    0    0  501 -0.00000000000E+00 -0.00000000000E+00 -0.54341705112E+02  0.54341705172E+02  0.25500000000E-02 0. -1.
    5000001    1    1    2    0    0 -0.44798426145E+02  0.19273472981E+03  0.49572988192E+03  0.54866263850E+03  0.12700000000E+03 0.  0.
   -5000001    1    1    2    0    0  0.44798426145E+02 -0.19273472981E+03  0.46792670759E+03  0.52367736129E+03  0.12700000000E+03 0.  0.
<mgrwt>
<rscale>  0 0.47040307E+03</rscale>
<asrwt>0</asrwt>
<pdfrwt beam="1">  1        2 0.14542831E+00 0.47040307E+03</pdfrwt>
<pdfrwt beam="2">  1       -2 0.77631017E-02 0.47040307E+03</pdfrwt>
<totfact> 0.28275428E+03</totfact>
</mgrwt>
</event>
<event>
 4    1  0.2621617E-004  0.3733017E+03  0.7818608E-02  0.1053438E+00
          2   -1    0    0  501    0  0.00000000000E+00  0.00000000000E+00  0.13627094636E+04  0.13627094636E+04  0.25500000000E-02 0.  1.
         -2   -1    0    0    0  501 -0.00000000000E+00 -0.00000000000E+00 -0.25565635730E+02  0.25565635858E+02  0.25500000000E-02 0. -1.
    5000001    1    1    2    0    0 -0.18641988548E+01 -0.12669777167E+03  0.86014929738E+03  0.87865898639E+03  0.12700000000E+03 0.  0.
   -5000001    1    1    2    0    0  0.18641988548E+01  0.12669777167E+03  0.47699453053E+03  0.50961611311E+03  0.12700000000E+03 0.  0.
<mgrwt>
<rscale>  0 0.37330167E+03</rscale>
<asrwt>0</asrwt>
<pdfrwt beam="1">  1        2 0.19467284E+00 0.37330167E+03</pdfrwt>
<pdfrwt beam="2">  1       -2 0.36522326E-02 0.37330167E+03</pdfrwt>
<totfact> 0.58129851E+03</totfact>
</mgrwt>
</event>
<event>
 4    1  0.2621617E-004  0.6480430E+03  0.7818608E-02  0.9810458E-01
          2   -1    0    0  501    0  0.00000000000E+00  0.00000000000E+00  0.77977861098E+03  0.77977861098E+03  0.25500000000E-02 0.  1.
         -2   -1    0    0    0  501 -0.00000000000E+00 -0.00000000000E+00 -0.13464068689E+03  0.13464068691E+03  0.25500000000E-02 0. -1.
    5000001    1    1    2    0    0  0.27448413195E+03 -0.42910012535E+02  0.47505428169E+03  0.56479056155E+03  0.12700000000E+03 0.  0.
   -5000001    1    1    2    0    0 -0.27448413195E+03  0.42910012535E+02  0.17008364240E+03  0.34962873635E+03  0.12700000000E+03 0.  0.
<mgrwt>
<rscale>  0 0.64804299E+03</rscale>
<asrwt>0</asrwt>
<pdfrwt beam="1">  1        2 0.11139694E+00 0.64804299E+03</pdfrwt>
<pdfrwt beam="2">  1       -2 0.19234385E-01 0.64804299E+03</pdfrwt>
<totfact> 0.90034443E+02</totfact>
</mgrwt>
</event>
<event>
 4    1  0.2621617E-004  0.3893544E+03  0.7818608E-02  0.1047529E+00
         -2   -1    0    0    0  501 -0.00000000000E+00  0.00000000000E+00  0.33911195434E+02  0.33911195530E+02  0.25500000000E-02 0. -1.
          2   -1    0    0  501    0  0.00000000000E+00 -0.00000000000E+00 -0.11176017334E+04  0.11176017334E+04  0.25500000000E-02 0.  1.
    5000001    1    1    2    0    0  0.53314139208E+02  0.13734918569E+03 -0.51836817451E+03  0.55366213578E+03  0.12700000000E+03 0.  0.
   -5000001    1    1    2    0    0 -0.53314139208E+02 -0.13734918569E+03 -0.56532236342E+03  0.59785079312E+03  0.12700000000E+03 0.  0.
<mgrwt>
<rscale>  0 0.38935439E+03</rscale>
<asrwt>0</asrwt>
<pdfrwt beam="1">  1        2 0.15965737E+00 0.38935439E+03</pdfrwt>
<pdfrwt beam="2">  1       -2 0.48444572E-02 0.38935439E+03</pdfrwt>
<totfact> 0.51446897E+03</totfact>
</mgrwt>
</event>
<event>
 4    1  0.2621617E-004  0.4620236E+03  0.7818608E-02  0.1024196E+00
          2   -1    0    0  501    0  0.00000000000E+00  0.00000000000E+00  0.21543437878E+04  0.21543437878E+04  0.25500000000E-02 0.  1.
         -2   -1    0    0    0  501 -0.00000000000E+00 -0.00000000000E+00 -0.24771552669E+02  0.24771552801E+02  0.25500000000E-02 0. -1.
    5000001    1    1    2    0    0 -0.10415895424E+03  0.16751006886E+02  0.18268666754E+04  0.18343120055E+04  0.12700000000E+03 0.  0.
   -5000001    1    1    2    0    0  0.10415895424E+03 -0.16751006886E+02  0.30270555974E+03  0.34480333507E+03  0.12700000000E+03 0.  0.
<mgrwt>
<rscale>  0 0.46202355E+03</rscale>
<asrwt>0</asrwt>
<pdfrwt beam="1">  1        2 0.30776341E+00 0.46202355E+03</pdfrwt>
<pdfrwt beam="2">  1       -2 0.35387931E-02 0.46202355E+03</pdfrwt>
<totfact> 0.24330820E+03</totfact>
</mgrwt>
</event>
<event>
 4    1  0.2621617E-004  0.3229612E+03  0.7818608E-02  0.1074294E+00
          2   -1    0    0  501    0  0.00000000000E+00  0.00000000000E+00  0.17321666768E+02  0.17321666956E+02  0.25500000000E-02 0.  1.
         -2   -1    0    0    0  501 -0.00000000000E+00 -0.00000000000E+00 -0.15053967589E+04  0.15053967589E+04  0.25500000000E-02 0. -1.
    5000001    1    1    2    0    0 -0.72430145618E+02  0.54985310284E+02 -0.55093110297E+03  0.57264613032E+03  0.12700000000E+03 0.  0.
   -5000001    1    1    2    0    0  0.72430145618E+02 -0.54985310284E+02 -0.93714398912E+03  0.95007229550E+03  0.12700000000E+03 0.  0.
<mgrwt>
<rscale>  0 0.32296118E+03</rscale>
<asrwt>0</asrwt>
<pdfrwt beam="1">  1        2 0.24745248E-02 0.32296118E+03</pdfrwt>
<pdfrwt beam="2">  1       -2 0.21505660E+00 0.32296118E+03</pdfrwt>
<totfact> 0.47522549E+02</totfact>
</mgrwt>
</event>
<event>
 4    1  0.2621617E-004  0.3382851E+03  0.7818608E-02  0.1067529E+00
         -2   -1    0    0    0  501 -0.00000000000E+00  0.00000000000E+00  0.14714549917E+03  0.14714549919E+03  0.25500000000E-02 0. -1.
          2   -1    0    0  501    0  0.00000000000E+00 -0.00000000000E+00 -0.19442797383E+03  0.19442797385E+03  0.25500000000E-02 0.  1.
    5000001    1    1    2    0    0  0.76017230854E+02  0.50098263147E+02  0.41731812736E+02  0.16173744017E+03  0.12700000000E+03 0.  0.
   -5000001    1    1    2    0    0 -0.76017230854E+02 -0.50098263147E+02 -0.89014287403E+02  0.17983603287E+03  0.12700000000E+03 0.  0.
<mgrwt>
<rscale>  0 0.33828509E+03</rscale>
<asrwt>0</asrwt>
<pdfrwt beam="1">  1        2 0.27775425E-01 0.33828509E+03</pdfrwt>
<pdfrwt beam="2">  1       -2 0.21020786E-01 0.33828509E+03</pdfrwt>
<totfact> 0.36954038E+03</totfact>
</mgrwt>
</event>
<event>
 4    1  0.2621617E-004  0.3764780E+03  0.7818608E-02  0.1052243E+00
          2   -1    0    0  501    0  0.00000000000E+00  0.00000000000E+00  0.36878418297E+03  0.36878418298E+03  0.25500000000E-02 0.  1.
         -2   -1    0    0    0  501 -0.00000000000E+00 -0.00000000000E+00 -0.96083094096E+02  0.96083094130E+02  0.25500000000E-02 0. -1.
    5000001    1    1    2    0    0 -0.13682997026E+03 -0.72575269544E+01  0.16477228124E+03  0.24910643734E+03  0.12700000000E+03 0.  0.
   -5000001    1    1    2    0    0  0.13682997026E+03  0.72575269544E+01  0.10792880764E+03  0.21576083977E+03  0.12700000000E+03 0.  0.
<mgrwt>
<rscale>  0 0.37647802E+03</rscale>
<asrwt>0</asrwt>
<pdfrwt beam="1">  1        2 0.52683455E-01 0.37647802E+03</pdfrwt>
<pdfrwt beam="2">  1       -2 0.13726156E-01 0.37647802E+03</pdfrwt>
<totfact> 0.37756561E+03</totfact>
</mgrwt>
</event>
<event>
 4    1  0.2621617E-004  0.2956165E+03  0.7818608E-02  0.1087453E+00
         -2   -1    0    0    0  501 -0.00000000000E+00  0.00000000000E+00  0.23271141929E+02  0.23271142068E+02  0.25500000000E-02 0. -1.
          2   -1    0    0  501    0  0.00000000000E+00 -0.00000000000E+00 -0.93881401891E+03  0.93881401891E+03  0.25500000000E-02 0.  1.
    5000001    1    1    2    0    0  0.53416984862E+02 -0.53119082986E+02 -0.47917784160E+03  0.50141341739E+03  0.12700000000E+03 0.  0.
   -5000001    1    1    2    0    0 -0.53416984862E+02  0.53119082986E+02 -0.43636503538E+03  0.46067174360E+03  0.12700000000E+03 0.  0.
<mgrwt>
<rscale>  0 0.29561647E+03</rscale>
<asrwt>0</asrwt>
<pdfrwt beam="1">  1        2 0.13411626E+00 0.29561647E+03</pdfrwt>
<pdfrwt beam="2">  1       -2 0.33244494E-02 0.29561647E+03</pdfrwt>
<totfact> 0.11517340E+04</totfact>
</mgrwt>
</event>
<event>
 4    1  0.2621617E-004  0.8722198E+03  0.7818608E-02  0.9460990E-01
          2   -1    0    0  501    0  0.00000000000E+00  0.00000000000E+00  0.23132083611E+03  0.23132083612E+03  0.25500000000E-02 0.  1.
         -2   -1    0    0    0  501 -0.00000000000E+00 -0.00000000000E+00 -0.82219945600E+03  0.82219945600E+03  0.25500000000E-02 0. -1.
    5000001    1    1    2    0    0  0.27950400314E+03  0.29950987846E+03 -0.39080840751E+03  0.58024896937E+03  0.12700000000E+03 0.  0.
   -5000001    1    1    2    0    0 -0.27950400314E+03 -0.29950987846E+03 -0.20007021238E+03  0.47327132276E+03  0.12700000000E+03 0.  0.
<mgrwt>
<rscale>  0 0.87221985E+03</rscale>
<asrwt>0</asrwt>
<pdfrwt beam="1">  1        2 0.33045834E-01 0.87221985E+03</pdfrwt>
<pdfrwt beam="2">  1       -2 0.11745706E+00 0.87221985E+03</pdfrwt>
<totfact> 0.89732251E+01</totfact>
</mgrwt>
</event>
<event>
 4    1  0.2621617E-004  0.3702655E+03  0.7818608E-02  0.1054591E+00
         -2   -1    0    0    0  501 -0.00000000000E+00  0.00000000000E+00  0.16041114211E+03  0.16041114213E+03  0.25500000000E-02 0. -1.
          2   -1    0    0  501    0  0.00000000000E+00 -0.00000000000E+00 -0.21366434591E+03  0.21366434592E+03  0.25500000000E-02 0.  1.
    5000001    1    1    2    0    0  0.92109571715E+02  0.53877056078E+02  0.56427768386E+02  0.17521416443E+03  0.12700000000E+03 0.  0.
   -5000001    1    1    2    0    0 -0.92109571715E+02 -0.53877056078E+02 -0.10968097218E+03  0.19886132362E+03  0.12700000000E+03 0.  0.
<mgrwt>
<rscale>  0 0.37026554E+03</rscale>
<asrwt>0</asrwt>
<pdfrwt beam="1">  1        2 0.30523478E-01 0.37026554E+03</pdfrwt>
<pdfrwt beam="2">  1       -2 0.22915877E-01 0.37026554E+03</pdfrwt>
<totfact> 0.28691168E+03</totfact>
</mgrwt>
</event>
<event>
 4    1  0.2621617E-004  0.9647127E+03  0.7818608E-02  0.9348117E-01
         -2   -1    0    0    0  501 -0.00000000000E+00  0.00000000000E+00  0.86240040205E+02  0.86240040242E+02  0.25500000000E-02 0. -1.
          2   -1    0    0  501    0  0.00000000000E+00 -0.00000000000E+00 -0.26979073493E+04  0.26979073493E+04  0.25500000000E-02 0.  1.
    5000001    1    1    2    0    0 -0.25754577482E+03 -0.37967787529E+03 -0.10812912640E+04  0.11814418787E+04  0.12700000000E+03 0.  0.
   -5000001    1    1    2    0    0  0.25754577482E+03  0.37967787529E+03 -0.15303760451E+04  0.16027055109E+04  0.12700000000E+03 0.  0.
<mgrwt>
<rscale>  0 0.96471268E+03</rscale>
<asrwt>0</asrwt>
<pdfrwt beam="1">  1        2 0.38541528E+00 0.96471268E+03</pdfrwt>
<pdfrwt beam="2">  1       -2 0.12320007E-01 0.96471268E+03</pdfrwt>
<totfact> 0.17141738E+02</totfact>
</mgrwt>
</event>
<event>
 4    1  0.2621617E-004  0.3567912E+03  0.7818608E-02  0.1059862E+00
         -2   -1    0    0    0  501 -0.00000000000E+00  0.00000000000E+00  0.10663247292E+03  0.10663247295E+03  0.25500000000E-02 0. -1.
          2   -1    0    0  501    0  0.00000000000E+00 -0.00000000000E+00 -0.29845490051E+03  0.29845490052E+03  0.25500000000E-02 0.  1.
    5000001    1    1    2    0    0  0.85897517655E+02  0.22390776616E+02  0.44657225907E+01  0.15501184824E+03  0.12700000000E+03 0.  0.
   -5000001    1    1    2    0    0 -0.85897517655E+02 -0.22390776616E+02 -0.19628815018E+03  0.25007552523E+03  0.12700000000E+03 0.  0.
<mgrwt>
<rscale>  0 0.35679117E+03</rscale>
<asrwt>0</asrwt>
<pdfrwt beam="1">  1        2 0.42636414E-01 0.35679117E+03</pdfrwt>
<pdfrwt beam="2">  1       -2 0.15233211E-01 0.35679117E+03</pdfrwt>
<totfact> 0.39937337E+03</totfact>
</mgrwt>
</event>
<event>
 4    1  0.2621617E-004  0.4075803E+03  0.7818608E-02  0.1041186E+00
          2   -1    0    0  501    0  0.00000000000E+00  0.00000000000E+00  0.20030149731E+04  0.20030149731E+04  0.25500000000E-02 0.  1.
         -2   -1    0    0    0  501 -0.00000000000E+00 -0.00000000000E+00 -0.20733957968E+02  0.20733958124E+02  0.25500000000E-02 0. -1.
    5000001    1    1    2    0    0 -0.11737045035E+03  0.52598823275E+02  0.14584827485E+04  0.14696405637E+04  0.12700000000E+03 0.  0.
   -5000001    1    1    2    0    0  0.11737045035E+03 -0.52598823275E+02  0.52379826662E+03  0.55410836751E+03  0.12700000000E+03 0.  0.
<mgrwt>
<rscale>  0 0.40758032E+03</rscale>
<asrwt>0</asrwt>
<pdfrwt beam="1">  1        2 0.28614478E+00 0.40758032E+03</pdfrwt>
<pdfrwt beam="2">  1       -2 0.29619963E-02 0.40758032E+03</pdfrwt>
<totfact> 0.37922601E+03</totfact>
</mgrwt>
</event>
<event>
 4    1  0.2621617E-004  0.5434403E+03  0.7818608E-02  0.1003024E+00
          2   -1    0    0  501    0  0.00000000000E+00  0.00000000000E+00  0.10021765389E+03  0.10021765392E+03  0.25500000000E-02 0.  1.
         -2   -1    0    0    0  501 -0.00000000000E+00 -0.00000000000E+00 -0.73671478554E+03  0.73671478554E+03  0.25500000000E-02 0. -1.
    5000001    1    1    2    0    0  0.22571262377E+03  0.64435957474E+02 -0.23965029858E+03  0.35869129729E+03  0.12700000000E+03 0.  0.
   -5000001    1    1    2    0    0 -0.22571262377E+03 -0.64435957474E+02 -0.39684683307E+03  0.47824114217E+03  0.12700000000E+03 0.  0.
<mgrwt>
<rscale>  0 0.54344025E+03</rscale>
<asrwt>0</asrwt>
<pdfrwt beam="1">  1        2 0.14316808E-01 0.54344025E+03</pdfrwt>
<pdfrwt beam="2">  1       -2 0.10524497E+00 0.54344025E+03</pdfrwt>
<totfact> 0.31397500E+02</totfact>
</mgrwt>
</event>
<event>
 4    1  0.2621617E-004  0.4362460E+03  0.7818608E-02  0.1031905E+00
          2   -1    0    0  501    0  0.00000000000E+00  0.00000000000E+00  0.18012010379E+04  0.18012010379E+04  0.25500000000E-02 0.  1.
         -2   -1    0    0    0  501 -0.00000000000E+00 -0.00000000000E+00 -0.26414399449E+02  0.26414399572E+02  0.25500000000E-02 0. -1.
    5000001    1    1    2    0    0 -0.14276576763E+03  0.10460688216E+03  0.93404083317E+03  0.95910684610E+03  0.12700000000E+03 0.  0.
   -5000001    1    1    2    0    0  0.14276576763E+03 -0.10460688216E+03  0.84074580533E+03  0.86850859142E+03  0.12700000000E+03 0.  0.
<mgrwt>
<rscale>  0 0.43624600E+03</rscale>
<asrwt>0</asrwt>
<pdfrwt beam="1">  1        2 0.25731452E+00 0.43624600E+03</pdfrwt>
<pdfrwt beam="2">  1       -2 0.37734843E-02 0.43624600E+03</pdfrwt>
<totfact> 0.33099291E+03</totfact>
</mgrwt>
</event>
<event>
 4    1  0.2621617E-004  0.3265626E+03  0.7818608E-02  0.1072668E+00
          2   -1    0    0  501    0  0.00000000000E+00  0.00000000000E+00  0.12767783530E+04  0.12767783530E+04  0.25500000000E-02 0.  1.
         -2   -1    0    0    0  501 -0.00000000000E+00 -0.00000000000E+00 -0.20881291479E+02  0.20881291635E+02  0.25500000000E-02 0. -1.
    5000001    1    1    2    0    0 -0.72021510260E+02  0.42388181822E+02  0.39125761307E+03  0.41975632894E+03  0.12700000000E+03 0.  0.
   -5000001    1    1    2    0    0  0.72021510260E+02 -0.42388181822E+02  0.86463944846E+03  0.87790331571E+03  0.12700000000E+03 0.  0.
<mgrwt>
<rscale>  0 0.32656259E+03</rscale>
<asrwt>0</asrwt>
<pdfrwt beam="1">  1        2 0.18239693E+00 0.32656259E+03</pdfrwt>
<pdfrwt beam="2">  1       -2 0.29830413E-02 0.32656259E+03</pdfrwt>
<totfact> 0.87330011E+03</totfact>
</mgrwt>
</event>
<event>
 4    1  0.2621617E-004  0.3337169E+03  0.7818608E-02  0.1069504E+00
         -2   -1    0    0    0  501 -0.00000000000E+00  0.00000000000E+00  0.78395495072E+02  0.78395495114E+02  0.25500000000E-02 0. -1.
          2   -1    0    0  501    0  0.00000000000E+00 -0.00000000000E+00 -0.35514462498E+03  0.35514462499E+03  0.25500000000E-02 0.  1.
    5000001    1    1    2    0    0 -0.34641264595E+02  0.94496050811E+02 -0.19006634216E+03  0.24976736227E+03  0.12700000000E+03 0.  0.
   -5000001    1    1    2    0    0  0.34641264595E+02 -0.94496050811E+02 -0.86682787751E+02  0.18377275784E+03  0.12700000000E+03 0.  0.
<mgrwt>
<rscale>  0 0.33371688E+03</rscale>
<asrwt>0</asrwt>
<pdfrwt beam="1">  1        2 0.50734946E-01 0.33371688E+03</pdfrwt>
<pdfrwt beam="2">  1       -2 0.11199357E-01 0.33371688E+03</pdfrwt>
<totfact> 0.54648894E+03</totfact>
</mgrwt>
</event>
<event>
 4    1  0.2621617E-004  0.4910912E+03  0.7818608E-02  0.1016131E+00
         -2   -1    0    0    0  501 -0.00000000000E+00  0.00000000000E+00  0.12042301478E+03  0.12042301480E+03  0.25500000000E-02 0. -1.
          2   -1    0    0  501    0  0.00000000000E+00 -0.00000000000E+00 -0.50067379920E+03  0.50067379920E+03  0.25500000000E-02 0.  1.
    5000001    1    1    2    0    0  0.19204670174E+03 -0.69025822815E+02 -0.25357830180E+03  0.34939584287E+03  0.12700000000E+03 0.  0.
   -5000001    1    1    2    0    0 -0.19204670174E+03  0.69025822815E+02 -0.12667248262E+03  0.27170097114E+03  0.12700000000E+03 0.  0.
<mgrwt>
<rscale>  0 0.49109123E+03</rscale>
<asrwt>0</asrwt>
<pdfrwt beam="1">  1        2 0.71524827E-01 0.49109123E+03</pdfrwt>
<pdfrwt beam="2">  1       -2 0.17203288E-01 0.49109123E+03</pdfrwt>
<totfact> 0.18502702E+03</totfact>
</mgrwt>
</event>
<event>
 4    1  0.2621617E-004  0.3391392E+03  0.7818608E-02  0.1067163E+00
         -2   -1    0    0    0  501 -0.00000000000E+00  0.00000000000E+00  0.17950750942E+02  0.17950751123E+02  0.25500000000E-02 0.  1.
          2   -1    0    0  501    0  0.00000000000E+00 -0.00000000000E+00 -0.16018187740E+04  0.16018187740E+04  0.25500000000E-02 0. -1.
    5000001    1    1    2    0    0 -0.78914875127E+02 -0.78819682501E+02 -0.72701563885E+03  0.74640527798E+03  0.12700000000E+03 0.  0.
   -5000001    1    1    2    0    0  0.78914875127E+02  0.78819682501E+02 -0.85685238418E+03  0.87336424711E+03  0.12700000000E+03 0.  0.
<mgrwt>
<rscale>  0 0.33913920E+03</rscale>
<asrwt>0</asrwt>
<pdfrwt beam="1">  1        2 0.22883116E+00 0.33913920E+03</pdfrwt>
<pdfrwt beam="2">  1       -2 0.25643940E-02 0.33913920E+03</pdfrwt>
<totfact> 0.74442154E+03</totfact>
</mgrwt>
</event>
<event>
 4    1  0.2621617E-004  0.4914241E+03  0.7818608E-02  0.1016042E+00
          2   -1    0    0  501    0  0.00000000000E+00  0.00000000000E+00  0.60109478608E+02  0.60109478662E+02  0.25500000000E-02 0.  1.
         -2   -1    0    0    0  501 -0.00000000000E+00 -0.00000000000E+00 -0.10044077061E+04  0.10044077061E+04  0.25500000000E-02 0. -1.
    5000001    1    1    2    0    0  0.11029981987E+03  0.17885664182E+03 -0.49266223758E+03  0.55045511072E+03  0.12700000000E+03 0.  0.
   -5000001    1    1    2    0    0 -0.11029981987E+03 -0.17885664182E+03 -0.45163598996E+03  0.51406207409E+03  0.12700000000E+03 0.  0.
<mgrwt>
<rscale>  0 0.49142415E+03</rscale>
<asrwt>0</asrwt>
<pdfrwt beam="1">  1        2 0.85870690E-02 0.49142415E+03</pdfrwt>
<pdfrwt beam="2">  1       -2 0.14348680E+00 0.49142415E+03</pdfrwt>
<totfact> 0.27648178E+02</totfact>
</mgrwt>
</event>
<event>
 4    1  0.2621617E-004  0.3045308E+03  0.7818608E-02  0.1082997E+00
          2   -1    0    0  501    0  0.00000000000E+00  0.00000000000E+00  0.77961507350E+02  0.77961507392E+02  0.25500000000E-02 0.  1.
         -2   -1    0    0    0  501 -0.00000000000E+00 -0.00000000000E+00 -0.29738721585E+03  0.29738721586E+03  0.25500000000E-02 0. -1.
    5000001    1    1    2    0    0 -0.45858215192E+02  0.69840827301E+02 -0.99035935243E+02  0.18143272452E+03  0.12700000000E+03 0.  0.
   -5000001    1    1    2    0    0  0.45858215192E+02 -0.69840827301E+02 -0.12038977326E+03  0.19391599873E+03  0.12700000000E+03 0.  0.
<mgrwt>
<rscale>  0 0.30453082E+03</rscale>
<asrwt>0</asrwt>
<pdfrwt beam="1">  1        2 0.11137358E-01 0.30453082E+03</pdfrwt>
<pdfrwt beam="2">  1       -2 0.42483887E-01 0.30453082E+03</pdfrwt>
<totfact> 0.29712564E+03</totfact>
</mgrwt>
</event>
<event>
 4    1  0.2621617E-004  0.4294294E+03  0.7818608E-02  0.1034040E+00
         -2   -1    0    0    0  501 -0.00000000000E+00  0.00000000000E+00  0.14204224471E+03  0.14204224474E+03  0.25500000000E-02 0. -1.
          2   -1    0    0  501    0  0.00000000000E+00 -0.00000000000E+00 -0.32456823940E+03  0.32456823941E+03  0.25500000000E-02 0.  1.
    5000001    1    1    2    0    0 -0.15923381270E+03  0.65518250243E+02 -0.11086228016E+03  0.24097197634E+03  0.12700000000E+03 0.  0.
   -5000001    1    1    2    0    0  0.15923381270E+03 -0.65518250243E+02 -0.71663714530E+02  0.22563850780E+03  0.12700000000E+03 0.  0.
<mgrwt>
<rscale>  0 0.42942939E+03</rscale>
<asrwt>0</asrwt>
<pdfrwt beam="1">  1        2 0.46366891E-01 0.42942939E+03</pdfrwt>
<pdfrwt beam="2">  1       -2 0.20291749E-01 0.42942939E+03</pdfrwt>
<totfact> 0.22479090E+03</totfact>
</mgrwt>
</event>
<event>
 4    1  0.2621617E-004  0.4151221E+03  0.7818608E-02  0.1038666E+00
          2   -1    0    0  501    0  0.00000000000E+00  0.00000000000E+00  0.24550651454E+03  0.24550651455E+03  0.25500000000E-02 0.  1.
         -2   -1    0    0    0  501 -0.00000000000E+00 -0.00000000000E+00 -0.17548039419E+03  0.17548039421E+03  0.25500000000E-02 0. -1.
    5000001    1    1    2    0    0 -0.15360436511E+03  0.57857369688E+02  0.38346402974E+02  0.21104791596E+03  0.12700000000E+03 0.  0.
   -5000001    1    1    2    0    0  0.15360436511E+03 -0.57857369688E+02  0.31679717367E+02  0.20993899281E+03  0.12700000000E+03 0.  0.
<mgrwt>
<rscale>  0 0.41512205E+03</rscale>
<asrwt>0</asrwt>
<pdfrwt beam="1">  1        2 0.35072359E-01 0.41512205E+03</pdfrwt>
<pdfrwt beam="2">  1       -2 0.25068628E-01 0.41512205E+03</pdfrwt>
<totfact> 0.21041141E+03</totfact>
</mgrwt>
</event>
<event>
 4    1  0.2621617E-004  0.4057878E+03  0.7818608E-02  0.1041794E+00
          2   -1    0    0  501    0  0.00000000000E+00  0.00000000000E+00  0.11716479357E+04  0.11716479357E+04  0.25500000000E-02 0.  1.
         -2   -1    0    0    0  501 -0.00000000000E+00 -0.00000000000E+00 -0.35135064236E+02  0.35135064328E+02  0.25500000000E-02 0. -1.
    5000001    1    1    2    0    0 -0.65009303705E+02  0.92206869755E+02  0.89819625816E+03  0.91411915776E+03  0.12700000000E+03 0.  0.
   -5000001    1    1    2    0    0  0.65009303705E+02 -0.92206869755E+02  0.23831661328E+03  0.29266384226E+03  0.12700000000E+03 0.  0.
<mgrwt>
<rscale>  0 0.40578776E+03</rscale>
<asrwt>0</asrwt>
<pdfrwt beam="1">  1        2 0.16737827E+00 0.40578776E+03</pdfrwt>
<pdfrwt beam="2">  1       -2 0.50192949E-02 0.40578776E+03</pdfrwt>
<totfact> 0.45450259E+03</totfact>
</mgrwt>
</event>
<event>
 4    1  0.2621617E-004  0.3481035E+03  0.7818608E-02  0.1063396E+00
          2   -1    0    0  501    0  0.00000000000E+00  0.00000000000E+00  0.13606476000E+04  0.13606476000E+04  0.25500000000E-02 0.  1.
         -2   -1    0    0    0  501 -0.00000000000E+00 -0.00000000000E+00 -0.22264410656E+02  0.22264410802E+02  0.25500000000E-02 0. -1.
    5000001    1    1    2    0    0 -0.78464489731E+02  0.81219933314E+02  0.81845442907E+03  0.83591267856E+03  0.12700000000E+03 0.  0.
   -5000001    1    1    2    0    0  0.78464489731E+02 -0.81219933314E+02  0.51992876032E+03  0.54699933229E+03  0.12700000000E+03 0.  0.
<mgrwt>
<rscale>  0 0.34810353E+03</rscale>
<asrwt>0</asrwt>
<pdfrwt beam="1">  1        2 0.19437833E+00 0.34810353E+03</pdfrwt>
<pdfrwt beam="2">  1       -2 0.31806285E-02 0.34810353E+03</pdfrwt>
<totfact> 0.71707957E+03</totfact>
</mgrwt>
</event>
<event>
 4    1  0.2621617E-004  0.3808523E+03  0.7818608E-02  0.1050619E+00
          2   -1    0    0  501    0  0.00000000000E+00  0.00000000000E+00  0.96415218906E+02  0.96415218940E+02  0.25500000000E-02 0.  1.
         -2   -1    0    0    0  501 -0.00000000000E+00 -0.00000000000E+00 -0.37610367329E+03  0.37610367330E+03  0.25500000000E-02 0. -1.
    5000001    1    1    2    0    0 -0.11171472403E+03 -0.65414286751E+02 -0.21191004416E+03  0.27891589286E+03  0.12700000000E+03 0.  0.
   -5000001    1    1    2    0    0  0.11171472403E+03  0.65414286751E+02 -0.67778410227E+02  0.19360299938E+03  0.12700000000E+03 0.  0.
<mgrwt>
<rscale>  0 0.38085230E+03</rscale>
<asrwt>0</asrwt>
<pdfrwt beam="1">  1        2 0.13773603E-01 0.38085230E+03</pdfrwt>
<pdfrwt beam="2">  1       -2 0.53729095E-01 0.38085230E+03</pdfrwt>
<totfact> 0.14444730E+03</totfact>
</mgrwt>
</event>
<event>
 4    1  0.2621617E-004  0.2839256E+03  0.7818608E-02  0.1093564E+00
         -2   -1    0    0    0  501 -0.00000000000E+00  0.00000000000E+00  0.20291587503E+02  0.20291587663E+02  0.25500000000E-02 0. -1.
          2   -1    0    0  501    0  0.00000000000E+00 -0.00000000000E+00 -0.99319180795E+03  0.99319180795E+03  0.25500000000E-02 0.  1.
    5000001    1    1    2    0    0  0.60681621529E+02 -0.11853829441E+02 -0.43575938423E+03  0.45808079354E+03  0.12700000000E+03 0.  0.
   -5000001    1    1    2    0    0 -0.60681621529E+02  0.11853829441E+02 -0.53714083621E+03  0.55540260208E+03  0.12700000000E+03 0.  0.
<mgrwt>
<rscale>  0 0.28392561E+03</rscale>
<asrwt>0</asrwt>
<pdfrwt beam="1">  1        2 0.14188451E+00 0.28392561E+03</pdfrwt>
<pdfrwt beam="2">  1       -2 0.28987989E-02 0.28392561E+03</pdfrwt>
<totfact> 0.13085429E+04</totfact>
</mgrwt>
</event>
<event>
 4    1  0.2621617E-004  0.3048868E+03  0.7818608E-02  0.1082823E+00
          2   -1    0    0  501    0  0.00000000000E+00  0.00000000000E+00  0.11688181009E+03  0.11688181012E+03  0.25500000000E-02 0.  1.
         -2   -1    0    0    0  501 -0.00000000000E+00 -0.00000000000E+00 -0.19882470228E+03  0.19882470229E+03  0.25500000000E-02 0. -1.
    5000001    1    1    2    0    0 -0.83165198876E+02  0.13576512585E+02 -0.37827397716E+02  0.15703720583E+03  0.12700000000E+03 0.  0.
   -5000001    1    1    2    0    0  0.83165198876E+02 -0.13576512585E+02 -0.44115494467E+02  0.15866930658E+03  0.12700000000E+03 0.  0.
<mgrwt>
<rscale>  0 0.30488681E+03</rscale>
<asrwt>0</asrwt>
<pdfrwt beam="1">  1        2 0.16697401E-01 0.30488681E+03</pdfrwt>
<pdfrwt beam="2">  1       -2 0.28403529E-01 0.30488681E+03</pdfrwt>
<totfact> 0.38721437E+03</totfact>
</mgrwt>
</event>
<event>
 4    1  0.2621617E-004  0.3802750E+03  0.7818608E-02  0.1050832E+00
          2   -1    0    0  501    0  0.00000000000E+00  0.00000000000E+00  0.13833097908E+03  0.13833097911E+03  0.25500000000E-02 0.  1.
         -2   -1    0    0    0  501 -0.00000000000E+00 -0.00000000000E+00 -0.26134615835E+03  0.26134615836E+03  0.25500000000E-02 0. -1.
    5000001    1    1    2    0    0  0.10367959598E+03  0.96384242208E+01  0.39198200241E+02  0.16884269823E+03  0.12700000000E+03 0.  0.
   -5000001    1    1    2    0    0 -0.10367959598E+03 -0.96384242208E+01 -0.16221337951E+03  0.23083443923E+03  0.12700000000E+03 0.  0.
<mgrwt>
<rscale>  0 0.38027501E+03</rscale>
<asrwt>0</asrwt>
<pdfrwt beam="1">  1        2 0.19761568E-01 0.38027501E+03</pdfrwt>
<pdfrwt beam="2">  1       -2 0.37335165E-01 0.38027501E+03</pdfrwt>
<totfact> 0.19275806E+03</totfact>
</mgrwt>
</event>
<event>
 4    1  0.2621617E-004  0.4040949E+03  0.7818608E-02  0.1042371E+00
          2   -1    0    0  501    0  0.00000000000E+00  0.00000000000E+00  0.80016225058E+03  0.80016225059E+03  0.25500000000E-02 0.  1.
         -2   -1    0    0    0  501 -0.00000000000E+00 -0.00000000000E+00 -0.51018627557E+02  0.51018627620E+02  0.25500000000E-02 0. -1.
    5000001    1    1    2    0    0 -0.23234127257E+02 -0.11344450903E+03  0.59833231434E+03  0.62252713972E+03  0.12700000000E+03 0.  0.
   -5000001    1    1    2    0    0  0.23234127257E+02  0.11344450903E+03  0.15081130869E+03  0.22865373849E+03  0.12700000000E+03 0.  0.
<mgrwt>
<rscale>  0 0.40409494E+03</rscale>
<asrwt>0</asrwt>
<pdfrwt beam="1">  1        2 0.11430889E+00 0.40409494E+03</pdfrwt>
<pdfrwt beam="2">  1       -2 0.72883753E-02 0.40409494E+03</pdfrwt>
<totfact> 0.42916017E+03</totfact>
</mgrwt>
</event>
<event>
 4    1  0.2621617E-004  0.3805429E+03  0.7818608E-02  0.1050733E+00
         -2   -1    0    0    0  501 -0.00000000000E+00  0.00000000000E+00  0.14424696722E+03  0.14424696725E+03  0.25500000000E-02 0. -1.
          2   -1    0    0  501    0  0.00000000000E+00 -0.00000000000E+00 -0.25098088541E+03  0.25098088542E+03  0.25500000000E-02 0.  1.
    5000001    1    1    2    0    0  0.89125419662E+02 -0.76365827678E+02 -0.13579688407E+03  0.21987467747E+03  0.12700000000E+03 0.  0.
   -5000001    1    1    2    0    0 -0.89125419662E+02  0.76365827678E+02  0.29062965891E+02  0.17535317520E+03  0.12700000000E+03 0.  0.
<mgrwt>
<rscale>  0 0.38054294E+03</rscale>
<asrwt>0</asrwt>
<pdfrwt beam="1">  1        2 0.35854412E-01 0.38054294E+03</pdfrwt>
<pdfrwt beam="2">  1       -2 0.20606710E-01 0.38054294E+03</pdfrwt>
<totfact> 0.28932140E+03</totfact>
</mgrwt>
</event>
<event>
 4    1  0.2621617E-004  0.2739605E+03  0.7818608E-02  0.1099034E+00
          2   -1    0    0  501    0  0.00000000000E+00  0.00000000000E+00  0.29858829277E+04  0.29858829277E+04  0.25500000000E-02 0.  1.
         -2   -1    0    0    0  501 -0.00000000000E+00 -0.00000000000E+00 -0.62840990379E+01  0.62840995552E+01  0.25500000000E-02 0. -1.
    5000001    1    1    2    0    0  0.33618266986E+02 -0.35032071208E+02  0.16716254595E+04  0.16771458228E+04  0.12700000000E+03 0.  0.
   -5000001    1    1    2    0    0 -0.33618266986E+02  0.35032071208E+02  0.13079733691E+04  0.13150212045E+04  0.12700000000E+03 0.  0.
<mgrwt>
<rscale>  0 0.27396047E+03</rscale>
<asrwt>0</asrwt>
<pdfrwt beam="1">  1        2 0.42655454E+00 0.27396047E+03</pdfrwt>
<pdfrwt beam="2">  1       -2 0.89772882E-03 0.27396047E+03</pdfrwt>
<totfact> 0.70444854E+03</totfact>
</mgrwt>
</event>
<event>
 4    1  0.2621617E-004  0.3281538E+03  0.7818608E-02  0.1071957E+00
         -2   -1    0    0    0  501 -0.00000000000E+00  0.00000000000E+00  0.15893806682E+02  0.15893806887E+02  0.25500000000E-02 0.  1.
          2   -1    0    0  501    0  0.00000000000E+00 -0.00000000000E+00 -0.16938189015E+04  0.16938189015E+04  0.25500000000E-02 0. -1.
    5000001    1    1    2    0    0 -0.85506836170E+02  0.56708730944E+02 -0.75415935375E+03  0.77162985300E+03  0.12700000000E+03 0.  0.
   -5000001    1    1    2    0    0  0.85506836170E+02 -0.56708730944E+02 -0.92376574102E+03  0.93808285534E+03  0.12700000000E+03 0.  0.
<mgrwt>
<rscale>  0 0.32815381E+03</rscale>
<asrwt>0</asrwt>
<pdfrwt beam="1">  1        2 0.24197401E+00 0.32815381E+03</pdfrwt>
<pdfrwt beam="2">  1       -2 0.22705449E-02 0.32815381E+03</pdfrwt>
<totfact> 0.80219077E+03</totfact>
</mgrwt>
</event>
<event>
 4    1  0.2621617E-004  0.7245753E+03  0.7818608E-02  0.9676104E-01
         -2   -1    0    0    0  501 -0.00000000000E+00  0.00000000000E+00  0.30715269351E+03  0.30715269352E+03  0.25500000000E-02 0. -1.
          2   -1    0    0  501    0  0.00000000000E+00 -0.00000000000E+00 -0.42731948763E+03  0.42731948764E+03  0.25500000000E-02 0.  1.
    5000001    1    1    2    0    0 -0.27427896361E+03 -0.18243497895E+03  0.22340600318E+02  0.35375072275E+03  0.12700000000E+03 0.  0.
   -5000001    1    1    2    0    0  0.27427896361E+03  0.18243497895E+03 -0.14250739444E+03  0.38072145841E+03  0.12700000000E+03 0.  0.
<mgrwt>
<rscale>  0 0.72457527E+03</rscale>
<asrwt>0</asrwt>
<pdfrwt beam="1">  1        2 0.61045641E-01 0.72457527E+03</pdfrwt>
<pdfrwt beam="2">  1       -2 0.43878956E-01 0.72457527E+03</pdfrwt>
<totfact> 0.39821210E+02</totfact>
</mgrwt>
</event>
<event>
 4    1  0.2621617E-004  0.5193200E+03  0.7818608E-02  0.1008856E+00
          2   -1    0    0  501    0  0.00000000000E+00  0.00000000000E+00  0.90006106398E+03  0.90006106399E+03  0.25500000000E-02 0.  1.
         -2   -1    0    0    0  501 -0.00000000000E+00 -0.00000000000E+00 -0.74909725110E+02  0.74909725153E+02  0.25500000000E-02 0. -1.
    5000001    1    1    2    0    0 -0.18556700920E+03 -0.95484685460E+02  0.57776421486E+03  0.62729014661E+03  0.12700000000E+03 0.  0.
   -5000001    1    1    2    0    0  0.18556700920E+03  0.95484685460E+02  0.24738712401E+03  0.34768064253E+03  0.12700000000E+03 0.  0.
<mgrwt>
<rscale>  0 0.51932004E+03</rscale>
<asrwt>0</asrwt>
<pdfrwt beam="1">  1        2 0.12858014E+00 0.51932004E+03</pdfrwt>
<pdfrwt beam="2">  1       -2 0.10701390E-01 0.51932004E+03</pdfrwt>
<totfact> 0.20001554E+03</totfact>
</mgrwt>
</event>
<event>
 4    1  0.2621617E-004  0.4355717E+03  0.7818608E-02  0.1032114E+00
          2   -1    0    0  501    0  0.00000000000E+00  0.00000000000E+00  0.21543264843E+03  0.21543264845E+03  0.25500000000E-02 0.  1.
         -2   -1    0    0    0  501 -0.00000000000E+00 -0.00000000000E+00 -0.22016471008E+03  0.22016471010E+03  0.25500000000E-02 0. -1.
    5000001    1    1    2    0    0  0.64282579739E+02 -0.11521006128E+03  0.11552246914E+03  0.21651801115E+03  0.12700000000E+03 0.  0.
   -5000001    1    1    2    0    0 -0.64282579739E+02  0.11521006128E+03 -0.12025453079E+03  0.21907934739E+03  0.12700000000E+03 0.  0.
<mgrwt>
<rscale>  0 0.43557165E+03</rscale>
<asrwt>0</asrwt>
<pdfrwt beam="1">  1        2 0.30776093E-01 0.43557165E+03</pdfrwt>
<pdfrwt beam="2">  1       -2 0.31452101E-01 0.43557165E+03</pdfrwt>
<totfact> 0.16115608E+03</totfact>
</mgrwt>
</event>
<event>
 4    1  0.2621617E-004  0.6188157E+03  0.7818608E-02  0.9867120E-01
         -2   -1    0    0    0  501 -0.00000000000E+00  0.00000000000E+00  0.40701610167E+02  0.40701610247E+02  0.25500000000E-02 0. -1.
          2   -1    0    0  501    0  0.00000000000E+00 -0.00000000000E+00 -0.23520745040E+04  0.23520745040E+04  0.25500000000E-02 0.  1.
    5000001    1    1    2    0    0 -0.74949959224E+01 -0.20073543269E+03 -0.19217750355E+04  0.19364139991E+04  0.12700000000E+03 0.  0.
   -5000001    1    1    2    0    0  0.74949959224E+01  0.20073543269E+03 -0.38959785826E+03  0.45636211506E+03  0.12700000000E+03 0.  0.
<mgrwt>
<rscale>  0 0.61881571E+03</rscale>
<asrwt>0</asrwt>
<pdfrwt beam="1">  1        2 0.33601056E+00 0.61881571E+03</pdfrwt>
<pdfrwt beam="2">  1       -2 0.58145172E-02 0.61881571E+03</pdfrwt>
<totfact> 0.89214379E+02</totfact>
</mgrwt>
</event>
<event>
 4    1  0.2621617E-004  0.3476237E+03  0.7818608E-02  0.1063595E+00
          2   -1    0    0  501    0  0.00000000000E+00  0.00000000000E+00  0.96905462193E+02  0.96905462226E+02  0.25500000000E-02 0.  1.
         -2   -1    0    0    0  501 -0.00000000000E+00 -0.00000000000E+00 -0.31175281568E+03  0.31175281569E+03  0.25500000000E-02 0. -1.
    5000001    1    1    2    0    0  0.91497489425E+02 -0.33881253994E+02 -0.18682360179E+03  0.24607272935E+03  0.12700000000E+03 0.  0.
   -5000001    1    1    2    0    0 -0.91497489425E+02  0.33881253994E+02 -0.28023751695E+02  0.16258554857E+03  0.12700000000E+03 0.  0.
<mgrwt>
<rscale>  0 0.34762365E+03</rscale>
<asrwt>0</asrwt>
<pdfrwt beam="1">  1        2 0.13843638E-01 0.34762365E+03</pdfrwt>
<pdfrwt beam="2">  1       -2 0.44536116E-01 0.34762365E+03</pdfrwt>
<totfact> 0.20857789E+03</totfact>
</mgrwt>
</event>
<event>
 4    1  0.2621617E-004  0.4506770E+03  0.7818608E-02  0.1027520E+00
          2   -1    0    0  501    0  0.00000000000E+00  0.00000000000E+00  0.18859099534E+04  0.18859099534E+04  0.25500000000E-02 0.  1.
         -2   -1    0    0    0  501 -0.00000000000E+00 -0.00000000000E+00 -0.26924634331E+02  0.26924634452E+02  0.25500000000E-02 0. -1.
    5000001    1    1    2    0    0  0.16572204031E+03  0.21306907326E+02  0.12777022816E+04  0.12948242736E+04  0.12700000000E+03 0.  0.
   -5000001    1    1    2    0    0 -0.16572204031E+03 -0.21306907326E+02  0.58128303743E+03  0.61801031427E+03  0.12700000000E+03 0.  0.
<mgrwt>
<rscale>  0 0.45067698E+03</rscale>
<asrwt>0</asrwt>
<pdfrwt beam="1">  1        2 0.26941569E+00 0.45067698E+03</pdfrwt>
<pdfrwt beam="2">  1       -2 0.38463765E-02 0.45067698E+03</pdfrwt>
<totfact> 0.29161785E+03</totfact>
</mgrwt>
</event>
<event>
 4    1  0.2621617E-004  0.4107990E+03  0.7818608E-02  0.1040103E+00
          2   -1    0    0  501    0  0.00000000000E+00  0.00000000000E+00  0.48157374938E+03  0.48157374938E+03  0.25500000000E-02 0.  1.
         -2   -1    0    0    0  501 -0.00000000000E+00 -0.00000000000E+00 -0.87606415720E+02  0.87606415757E+02  0.25500000000E-02 0. -1.
    5000001    1    1    2    0    0  0.12847360956E+03  0.84175965985E+02  0.12813886709E+03  0.23693803169E+03  0.12700000000E+03 0.  0.
   -5000001    1    1    2    0    0 -0.12847360956E+03 -0.84175965985E+02  0.26582846657E+03  0.33224213345E+03  0.12700000000E+03 0.  0.
<mgrwt>
<rscale>  0 0.41079898E+03</rscale>
<asrwt>0</asrwt>
<pdfrwt beam="1">  1        2 0.68796251E-01 0.41079898E+03</pdfrwt>
<pdfrwt beam="2">  1       -2 0.12515202E-01 0.41079898E+03</pdfrwt>
<totfact> 0.32810502E+03</totfact>
</mgrwt>
</event>
<event>
 4    1  0.2621617E-004  0.3014249E+03  0.7818608E-02  0.1084530E+00
          2   -1    0    0  501    0  0.00000000000E+00  0.00000000000E+00  0.15144200623E+03  0.15144200625E+03  0.25500000000E-02 0.  1.
         -2   -1    0    0    0  501 -0.00000000000E+00 -0.00000000000E+00 -0.14998641975E+03  0.14998641977E+03  0.25500000000E-02 0. -1.
    5000001    1    1    2    0    0 -0.69729484837E+02 -0.15807260056E+02 -0.37654600474E+02  0.15052886588E+03  0.12700000000E+03 0.  0.
   -5000001    1    1    2    0    0  0.69729484837E+02  0.15807260056E+02  0.39110186956E+02  0.15089956014E+03  0.12700000000E+03 0.  0.
<mgrwt>
<rscale>  0 0.30142491E+03</rscale>
<asrwt>0</asrwt>
<pdfrwt beam="1">  1        2 0.21634572E-01 0.30142491E+03</pdfrwt>
<pdfrwt beam="2">  1       -2 0.21426631E-01 0.30142491E+03</pdfrwt>
<totfact> 0.47199014E+03</totfact>
</mgrwt>
</event>
<event>
 4    1  0.2621617E-004  0.3175564E+03  0.7818608E-02  0.1076779E+00
         -2   -1    0    0    0  501 -0.00000000000E+00  0.00000000000E+00  0.25768338079E+02  0.25768338205E+02  0.25500000000E-02 0. -1.
          2   -1    0    0  501    0  0.00000000000E+00 -0.00000000000E+00 -0.97835262805E+03  0.97835262806E+03  0.25500000000E-02 0.  1.
    5000001    1    1    2    0    0 -0.74408496462E+02  0.36810797811E+02 -0.32832219867E+03  0.36168511902E+03  0.12700000000E+03 0.  0.
   -5000001    1    1    2    0    0  0.74408496462E+02 -0.36810797811E+02 -0.62426209130E+03  0.64243584724E+03  0.12700000000E+03 0.  0.
<mgrwt>
<rscale>  0 0.31755643E+03</rscale>
<asrwt>0</asrwt>
<pdfrwt beam="1">  1        2 0.13976464E+00 0.31755643E+03</pdfrwt>
<pdfrwt beam="2">  1       -2 0.36811918E-02 0.31755643E+03</pdfrwt>
<totfact> 0.93729417E+03</totfact>
</mgrwt>
</event>
<event>
 4    1  0.2621617E-004  0.6910903E+03  0.7818608E-02  0.9732591E-01
          2   -1    0    0  501    0  0.00000000000E+00  0.00000000000E+00  0.22083857407E+04  0.22083857407E+04  0.25500000000E-02 0.  1.
         -2   -1    0    0    0  501 -0.00000000000E+00 -0.00000000000E+00 -0.54067303540E+02  0.54067303600E+02  0.25500000000E-02 0. -1.
    5000001    1    1    2    0    0 -0.21123886292E+03 -0.12869523606E+03  0.17487807788E+04  0.17707477328E+04  0.12700000000E+03 0.  0.
   -5000001    1    1    2    0    0  0.21123886292E+03  0.12869523606E+03  0.40553765838E+03  0.49170531150E+03  0.12700000000E+03 0.  0.
<mgrwt>
<rscale>  0 0.69109033E+03</rscale>
<asrwt>0</asrwt>
<pdfrwt beam="1">  1        2 0.31548362E+00 0.69109033E+03</pdfrwt>
<pdfrwt beam="2">  1       -2 0.77239019E-02 0.69109033E+03</pdfrwt>
<totfact> 0.67050592E+02</totfact>
</mgrwt>
</event>
<event>
 4    1  0.2621617E-004  0.2685297E+03  0.7818608E-02  0.1102124E+00
          2   -1    0    0  501    0  0.00000000000E+00  0.00000000000E+00  0.31528954592E+04  0.31528954592E+04  0.25500000000E-02 0.  1.
         -2   -1    0    0    0  501 -0.00000000000E+00 -0.00000000000E+00 -0.57176178511E+01  0.57176184198E+01  0.25500000000E-02 0. -1.
    5000001    1    1    2    0    0  0.35205275237E+02 -0.61853148843E+01  0.18665661896E+04  0.18712231320E+04  0.12700000000E+03 0.  0.
   -5000001    1    1    2    0    0 -0.35205275237E+02  0.61853148843E+01  0.12806116518E+04  0.12873899456E+04  0.12700000000E+03 0.  0.
<mgrwt>
<rscale>  0 0.26852972E+03</rscale>
<asrwt>0</asrwt>
<pdfrwt beam="1">  1        2 0.45041237E+00 0.26852972E+03</pdfrwt>
<pdfrwt beam="2">  1       -2 0.81680489E-03 0.26852972E+03</pdfrwt>
<totfact> 0.65750807E+03</totfact>
</mgrwt>
</event>
<event>
 4    1  0.2621617E-004  0.4737144E+03  0.7818608E-02  0.1020877E+00
          2   -1    0    0  501    0  0.00000000000E+00  0.00000000000E+00  0.12295681646E+04  0.12295681646E+04  0.25500000000E-02 0.  1.
         -2   -1    0    0    0  501 -0.00000000000E+00 -0.00000000000E+00 -0.45626861412E+02  0.45626861483E+02  0.25500000000E-02 0. -1.
    5000001    1    1    2    0    0  0.85618837707E+02  0.66952565085E+02  0.10436907715E+04  0.10569922695E+04  0.12700000000E+03 0.  0.
   -5000001    1    1    2    0    0 -0.85618837707E+02 -0.66952565085E+02  0.14025053178E+03  0.21820275664E+03  0.12700000000E+03 0.  0.
<mgrwt>
<rscale>  0 0.47371441E+03</rscale>
<asrwt>0</asrwt>
<pdfrwt beam="1">  1        2 0.17565256E+00 0.47371441E+03</pdfrwt>
<pdfrwt beam="2">  1       -2 0.65181242E-02 0.47371441E+03</pdfrwt>
<totfact> 0.28170941E+03</totfact>
</mgrwt>
</event>
<event>
 4    1  0.2621617E-004  0.3249613E+03  0.7818608E-02  0.1073388E+00
          2   -1    0    0  501    0  0.00000000000E+00  0.00000000000E+00  0.53539626950E+03  0.53539626951E+03  0.25500000000E-02 0.  1.
         -2   -1    0    0    0  501 -0.00000000000E+00 -0.00000000000E+00 -0.49309193481E+02  0.49309193547E+02  0.25500000000E-02 0. -1.
    5000001    1    1    2    0    0  0.33520357815E+02 -0.44077087722E+02  0.39576817187E+03  0.41931831574E+03  0.12700000000E+03 0.  0.
   -5000001    1    1    2    0    0 -0.33520357815E+02  0.44077087722E+02  0.90318904153E+02  0.16538714732E+03  0.12700000000E+03 0.  0.
<mgrwt>
<rscale>  0 0.32496128E+03</rscale>
<asrwt>0</asrwt>
<pdfrwt beam="1">  1        2 0.76485180E-01 0.32496128E+03</pdfrwt>
<pdfrwt beam="2">  1       -2 0.70441706E-02 0.32496128E+03</pdfrwt>
<totfact> 0.72444672E+03</totfact>
</mgrwt>
</event>
<event>
 4    1  0.2621617E-004  0.3538526E+03  0.7818608E-02  0.1061045E+00
         -2   -1    0    0    0  501 -0.00000000000E+00  0.00000000000E+00  0.69275011445E+02  0.69275011492E+02  0.25500000000E-02 0. -1.
          2   -1    0    0  501    0  0.00000000000E+00 -0.00000000000E+00 -0.45186446723E+03  0.45186446724E+03  0.25500000000E-02 0.  1.
    5000001    1    1    2    0    0  0.47931146525E+02  0.85437935241E+02 -0.30127815583E+03  0.34131299824E+03  0.12700000000E+03 0.  0.
   -5000001    1    1    2    0    0 -0.47931146525E+02 -0.85437935241E+02 -0.81311299956E+02  0.17982648049E+03  0.12700000000E+03 0.  0.
<mgrwt>
<rscale>  0 0.35385260E+03</rscale>
<asrwt>0</asrwt>
<pdfrwt beam="1">  1        2 0.64552065E-01 0.35385260E+03</pdfrwt>
<pdfrwt beam="2">  1       -2 0.98964304E-02 0.35385260E+03</pdfrwt>
<totfact> 0.51319998E+03</totfact>
</mgrwt>
</event>
<event>
 4    1  0.2621617E-004  0.5021789E+03  0.7818608E-02  0.1013212E+00
         -2   -1    0    0    0  501 -0.00000000000E+00  0.00000000000E+00  0.56110697442E+03  0.56110697443E+03  0.25500000000E-02 0. -1.
          2   -1    0    0  501    0  0.00000000000E+00 -0.00000000000E+00 -0.11235987964E+03  0.11235987966E+03  0.25500000000E-02 0.  1.
    5000001    1    1    2    0    0  0.21642893499E+03 -0.67846295648E+01  0.21710229141E+03  0.33188841503E+03  0.12700000000E+03 0.  0.
   -5000001    1    1    2    0    0 -0.21642893499E+03  0.67846295648E+01  0.23164480338E+03  0.34157843906E+03  0.12700000000E+03 0.  0.
<mgrwt>
<rscale>  0 0.50217890E+03</rscale>
<asrwt>0</asrwt>
<pdfrwt beam="1">  1        2 0.16051412E-01 0.50217890E+03</pdfrwt>
<pdfrwt beam="2">  1       -2 0.80158136E-01 0.50217890E+03</pdfrwt>
<totfact> 0.51266506E+02</totfact>
</mgrwt>
</event>
<event>
 4    1  0.2621617E-004  0.5523347E+03  0.7818608E-02  0.1000955E+00
          2   -1    0    0  501    0  0.00000000000E+00  0.00000000000E+00  0.22320050357E+04  0.22320050357E+04  0.25500000000E-02 0.  1.
         -2   -1    0    0    0  501 -0.00000000000E+00 -0.00000000000E+00 -0.34170356334E+02  0.34170356429E+02  0.25500000000E-02 0. -1.
    5000001    1    1    2    0    0  0.73496524347E+02  0.18901555050E+03  0.16646239685E+04  0.16817343946E+04  0.12700000000E+03 0.  0.
   -5000001    1    1    2    0    0 -0.73496524347E+02 -0.18901555050E+03  0.53321071079E+03  0.58444099747E+03  0.12700000000E+03 0.  0.
<mgrwt>
<rscale>  0 0.55233471E+03</rscale>
<asrwt>0</asrwt>
<pdfrwt beam="1">  1        2 0.31885790E+00 0.55233471E+03</pdfrwt>
<pdfrwt beam="2">  1       -2 0.48814789E-02 0.55233471E+03</pdfrwt>
<totfact> 0.13525119E+03</totfact>
</mgrwt>
</event>
<event>
 4    1  0.2621617E-004  0.5255491E+03  0.7818608E-02  0.1007317E+00
         -2   -1    0    0    0  501 -0.00000000000E+00  0.00000000000E+00  0.11916469294E+03  0.11916469296E+03  0.25500000000E-02 0. -1.
          2   -1    0    0  501    0  0.00000000000E+00 -0.00000000000E+00 -0.57945400667E+03  0.57945400667E+03  0.25500000000E-02 0.  1.
    5000001    1    1    2    0    0  0.55612450124E+02 -0.22317696137E+03 -0.23620114189E+03  0.35329970298E+03  0.12700000000E+03 0.  0.
   -5000001    1    1    2    0    0 -0.55612450124E+02  0.22317696137E+03 -0.22408817184E+03  0.34531899666E+03  0.12700000000E+03 0.  0.
<mgrwt>
<rscale>  0 0.52554908E+03</rscale>
<asrwt>0</asrwt>
<pdfrwt beam="1">  1        2 0.82779142E-01 0.52554908E+03</pdfrwt>
<pdfrwt beam="2">  1       -2 0.17023528E-01 0.52554908E+03</pdfrwt>
<totfact> 0.15934597E+03</totfact>
</mgrwt>
</event>
<event>
 4    1  0.2621617E-004  0.6394198E+03  0.7818608E-02  0.9826837E-01
         -2   -1    0    0    0  501 -0.00000000000E+00  0.00000000000E+00  0.28364437101E+03  0.28364437102E+03  0.25500000000E-02 0. -1.
          2   -1    0    0  501    0  0.00000000000E+00 -0.00000000000E+00 -0.36036120435E+03  0.36036120436E+03  0.25500000000E-02 0.  1.
    5000001    1    1    2    0    0 -0.22695190142E+02 -0.28998999723E+03  0.33791598652E+00  0.31739310694E+03  0.12700000000E+03 0.  0.
   -5000001    1    1    2    0    0  0.22695190142E+02  0.28998999723E+03 -0.77054749328E+02  0.32661246844E+03  0.12700000000E+03 0.  0.
<mgrwt>
<rscale>  0 0.63941982E+03</rscale>
<asrwt>0</asrwt>
<pdfrwt beam="1">  1        2 0.51480172E-01 0.63941982E+03</pdfrwt>
<pdfrwt beam="2">  1       -2 0.40520625E-01 0.63941982E+03</pdfrwt>
<totfact> 0.56420955E+02</totfact>
</mgrwt>
</event>
<event>
 4    1  0.2621617E-004  0.4549966E+03  0.7818608E-02  0.1026242E+00
          2   -1    0    0  501    0  0.00000000000E+00  0.00000000000E+00  0.61658813545E+03  0.61658813545E+03  0.25500000000E-02 0.  1.
         -2   -1    0    0    0  501 -0.00000000000E+00 -0.00000000000E+00 -0.83938492524E+02  0.83938492563E+02  0.25500000000E-02 0. -1.
    5000001    1    1    2    0    0 -0.13552785400E+02  0.18810635570E+03  0.25451880071E+03  0.34128653499E+03  0.12700000000E+03 0.  0.
   -5000001    1    1    2    0    0  0.13552785400E+02 -0.18810635570E+03  0.27813084221E+03  0.35924009303E+03  0.12700000000E+03 0.  0.
<mgrwt>
<rscale>  0 0.45499661E+03</rscale>
<asrwt>0</asrwt>
<pdfrwt beam="1">  1        2 0.88084019E-01 0.45499661E+03</pdfrwt>
<pdfrwt beam="2">  1       -2 0.11991213E-01 0.45499661E+03</pdfrwt>
<totfact> 0.26567501E+03</totfact>
</mgrwt>
</event>
<event>
 4    1  0.2621617E-004  0.5289438E+03  0.7818608E-02  0.1006489E+00
          2   -1    0    0  501    0  0.00000000000E+00  0.00000000000E+00  0.11973645727E+04  0.11973645727E+04  0.25500000000E-02 0.  1.
         -2   -1    0    0    0  501 -0.00000000000E+00 -0.00000000000E+00 -0.58416111979E+02  0.58416112034E+02  0.25500000000E-02 0. -1.
    5000001    1    1    2    0    0 -0.20355239218E+03 -0.36119312424E+02  0.81935849825E+03  0.85452649447E+03  0.12700000000E+03 0.  0.
   -5000001    1    1    2    0    0  0.20355239218E+03  0.36119312424E+02  0.31958996244E+03  0.40125419024E+03  0.12700000000E+03 0.  0.
<mgrwt>
<rscale>  0 0.52894379E+03</rscale>
<asrwt>0</asrwt>
<pdfrwt beam="1">  1        2 0.17105207E+00 0.52894379E+03</pdfrwt>
<pdfrwt beam="2">  1       -2 0.83451592E-02 0.52894379E+03</pdfrwt>
<totfact> 0.19859882E+03</totfact>
</mgrwt>
</event>
<event>
 4    1  0.2621617E-004  0.8584061E+03  0.7818608E-02  0.9479123E-01
         -2   -1    0    0    0  501 -0.00000000000E+00  0.00000000000E+00  0.60985369101E+03  0.60985369101E+03  0.25500000000E-02 0. -1.
          2   -1    0    0  501    0  0.00000000000E+00 -0.00000000000E+00 -0.30206470330E+03  0.30206470331E+03  0.25500000000E-02 0.  1.
    5000001    1    1    2    0    0 -0.14374840329E+03 -0.36153820910E+03  0.29123153733E+03  0.50231293873E+03  0.12700000000E+03 0.  0.
   -5000001    1    1    2    0    0  0.14374840329E+03  0.36153820910E+03  0.16557450378E+02  0.40960545559E+03  0.12700000000E+03 0.  0.
<mgrwt>
<rscale>  0 0.85840614E+03</rscale>
<asrwt>0</asrwt>
<pdfrwt beam="1">  1        2 0.43152100E-01 0.85840614E+03</pdfrwt>
<pdfrwt beam="2">  1       -2 0.87121957E-01 0.85840614E+03</pdfrwt>
<totfact> 0.13551284E+02</totfact>
</mgrwt>
</event>
<event>
 4    1  0.2621617E-004  0.4552330E+03  0.7818608E-02  0.1026173E+00
          2   -1    0    0  501    0  0.00000000000E+00  0.00000000000E+00  0.24860053259E+03  0.24860053260E+03  0.25500000000E-02 0.  1.
         -2   -1    0    0    0  501 -0.00000000000E+00 -0.00000000000E+00 -0.20840367523E+03  0.20840367524E+03  0.25500000000E-02 0. -1.
    5000001    1    1    2    0    0  0.15460659589E+03  0.76527994014E+02  0.97342797668E+02  0.23529631025E+03  0.12700000000E+03 0.  0.
   -5000001    1    1    2    0    0 -0.15460659589E+03 -0.76527994014E+02 -0.57145940306E+02  0.22170789759E+03  0.12700000000E+03 0.  0.
<mgrwt>
<rscale>  0 0.45523297E+03</rscale>
<asrwt>0</asrwt>
<pdfrwt beam="1">  1        2 0.35514362E-01 0.45523297E+03</pdfrwt>
<pdfrwt beam="2">  1       -2 0.29771954E-01 0.45523297E+03</pdfrwt>
<totfact> 0.15222083E+03</totfact>
</mgrwt>
</event>
<event>
 4    1  0.2621617E-004  0.7647825E+03  0.7818608E-02  0.9612440E-01
         -2   -1    0    0    0  501 -0.00000000000E+00  0.00000000000E+00  0.74758301317E+03  0.74758301318E+03  0.25500000000E-02 0. -1.
          2   -1    0    0  501    0  0.00000000000E+00 -0.00000000000E+00 -0.19559444201E+03  0.19559444202E+03  0.25500000000E-02 0.  1.
    5000001    1    1    2    0    0 -0.13263754616E+03 -0.31920896699E+03  0.40300832078E+03  0.54592287906E+03  0.12700000000E+03 0.  0.
   -5000001    1    1    2    0    0  0.13263754616E+03  0.31920896699E+03  0.14898025039E+03  0.39725457614E+03  0.12700000000E+03 0.  0.
<mgrwt>
<rscale>  0 0.76478254E+03</rscale>
<asrwt>0</asrwt>
<pdfrwt beam="1">  1        2 0.27942063E-01 0.76478254E+03</pdfrwt>
<pdfrwt beam="2">  1       -2 0.10679757E+00 0.76478254E+03</pdfrwt>
<totfact> 0.13729602E+02</totfact>
</mgrwt>
</event>
<event>
 4    1  0.2621617E-004  0.4187067E+03  0.7818608E-02  0.1037488E+00
          2   -1    0    0  501    0  0.00000000000E+00  0.00000000000E+00  0.25635763852E+03  0.25635763853E+03  0.25500000000E-02 0.  1.
         -2   -1    0    0    0  501 -0.00000000000E+00 -0.00000000000E+00 -0.17096750679E+03  0.17096750681E+03  0.25500000000E-02 0. -1.
    5000001    1    1    2    0    0  0.43732217076E+02  0.14477640357E+03  0.11360257699E+03  0.22783164692E+03  0.12700000000E+03 0.  0.
   -5000001    1    1    2    0    0 -0.43732217076E+02 -0.14477640357E+03 -0.28212445261E+02  0.19949349841E+03  0.12700000000E+03 0.  0.
<mgrwt>
<rscale>  0 0.41870671E+03</rscale>
<asrwt>0</asrwt>
<pdfrwt beam="1">  1        2 0.36622520E-01 0.41870671E+03</pdfrwt>
<pdfrwt beam="2">  1       -2 0.24423930E-01 0.41870671E+03</pdfrwt>
<totfact> 0.21017850E+03</totfact>
</mgrwt>
</event>
<event>
 4    1  0.2621617E-004  0.3513291E+03  0.7818608E-02  0.1062071E+00
         -2   -1    0    0    0  501 -0.00000000000E+00  0.00000000000E+00  0.42732840744E+02  0.42732840821E+02  0.25500000000E-02 0. -1.
          2   -1    0    0  501    0  0.00000000000E+00 -0.00000000000E+00 -0.72211511866E+03  0.72211511866E+03  0.25500000000E-02 0.  1.
    5000001    1    1    2    0    0  0.10908114382E+03  0.52556209455E+02 -0.32171537721E+03  0.36645686652E+03  0.12700000000E+03 0.  0.
   -5000001    1    1    2    0    0 -0.10908114382E+03 -0.52556209455E+02 -0.35766690071E+03  0.39839109296E+03  0.12700000000E+03 0.  0.
<mgrwt>
<rscale>  0 0.35132908E+03</rscale>
<asrwt>0</asrwt>
<pdfrwt beam="1">  1        2 0.10315930E+00 0.35132908E+03</pdfrwt>
<pdfrwt beam="2">  1       -2 0.61046920E-02 0.35132908E+03</pdfrwt>
<totfact> 0.64013278E+03</totfact>
</mgrwt>
</event>
<event>
 4    1  0.2621617E-004  0.7743701E+03  0.7818608E-02  0.9597875E-01
          2   -1    0    0  501    0  0.00000000000E+00  0.00000000000E+00  0.17975116164E+04  0.17975116164E+04  0.25500000000E-02 0.  1.
         -2   -1    0    0    0  501 -0.00000000000E+00 -0.00000000000E+00 -0.83399889908E+02  0.83399889947E+02  0.25500000000E-02 0. -1.
    5000001    1    1    2    0    0 -0.27791878554E+03  0.17299531426E+03  0.46077813786E+03  0.57932005182E+03  0.12700000000E+03 0.  0.
   -5000001    1    1    2    0    0  0.27791878554E+03 -0.17299531426E+03  0.12533335887E+04  0.13015914546E+04  0.12700000000E+03 0.  0.
<mgrwt>
<rscale>  0 0.77437012E+03</rscale>
<asrwt>0</asrwt>
<pdfrwt beam="1">  1        2 0.25678739E+00 0.77437012E+03</pdfrwt>
<pdfrwt beam="2">  1       -2 0.11914269E-01 0.77437012E+03</pdfrwt>
<totfact> 0.53302753E+02</totfact>
</mgrwt>
</event>
<event>
 4    1  0.2621617E-004  0.3803990E+03  0.7818608E-02  0.1050786E+00
          2   -1    0    0  501    0  0.00000000000E+00  0.00000000000E+00  0.29638472777E+03  0.29638472778E+03  0.25500000000E-02 0.  1.
         -2   -1    0    0    0  501 -0.00000000000E+00 -0.00000000000E+00 -0.12205708074E+03  0.12205708077E+03  0.25500000000E-02 0. -1.
    5000001    1    1    2    0    0 -0.23868657595E+02 -0.98230412033E+02 -0.21886424508E+02  0.16378932273E+03  0.12700000000E+03 0.  0.
   -5000001    1    1    2    0    0  0.23868657595E+02  0.98230412033E+02  0.19621407154E+03  0.25465248582E+03  0.12700000000E+03 0.  0.
<mgrwt>
<rscale>  0 0.38039903E+03</rscale>
<asrwt>0</asrwt>
<pdfrwt beam="1">  1        2 0.42340675E-01 0.38039903E+03</pdfrwt>
<pdfrwt beam="2">  1       -2 0.17436726E-01 0.38039903E+03</pdfrwt>
<totfact> 0.32115962E+03</totfact>
</mgrwt>
</event>
<event>
 4    1  0.2621617E-004  0.3664208E+03  0.7818608E-02  0.1056070E+00
         -2   -1    0    0    0  501 -0.00000000000E+00  0.00000000000E+00  0.46281020100E+02  0.46281020170E+02  0.25500000000E-02 0. -1.
          2   -1    0    0  501    0  0.00000000000E+00 -0.00000000000E+00 -0.72526592458E+03  0.72526592458E+03  0.25500000000E-02 0.  1.
    5000001    1    1    2    0    0 -0.45128991190E+02 -0.11599063174E+03 -0.43239336754E+03  0.46752911865E+03  0.12700000000E+03 0.  0.
   -5000001    1    1    2    0    0  0.45128991190E+02  0.11599063174E+03 -0.24659153694E+03  0.30401782610E+03  0.12700000000E+03 0.  0.
<mgrwt>
<rscale>  0 0.36642078E+03</rscale>
<asrwt>0</asrwt>
<pdfrwt beam="1">  1        2 0.10360941E+00 0.36642078E+03</pdfrwt>
<pdfrwt beam="2">  1       -2 0.66115748E-02 0.36642078E+03</pdfrwt>
<totfact> 0.56321253E+03</totfact>
</mgrwt>
</event>
<event>
 4    1  0.2621617E-004  0.4159024E+03  0.7818608E-02  0.1038408E+00
          2   -1    0    0  501    0  0.00000000000E+00  0.00000000000E+00  0.77055190422E+03  0.77055190422E+03  0.25500000000E-02 0.  1.
         -2   -1    0    0    0  501 -0.00000000000E+00 -0.00000000000E+00 -0.56120433992E+02  0.56120434050E+02  0.25500000000E-02 0. -1.
    5000001    1    1    2    0    0  0.12217271837E+03 -0.49068285431E+02  0.55379149966E+03  0.58322199448E+03  0.12700000000E+03 0.  0.
   -5000001    1    1    2    0    0 -0.12217271837E+03  0.49068285431E+02  0.16063997056E+03  0.24345034379E+03  0.12700000000E+03 0.  0.
<mgrwt>
<rscale>  0 0.41590243E+03</rscale>
<asrwt>0</asrwt>
<pdfrwt beam="1">  1        2 0.11007883E+00 0.41590243E+03</pdfrwt>
<pdfrwt beam="2">  1       -2 0.80172056E-02 0.41590243E+03</pdfrwt>
<totfact> 0.38736141E+03</totfact>
</mgrwt>
</event>
<event>
 4    1  0.2621617E-004  0.6617316E+03  0.7818608E-02  0.9785011E-01
          2   -1    0    0  501    0  0.00000000000E+00  0.00000000000E+00  0.41861831947E+03  0.41861831947E+03  0.25500000000E-02 0.  1.
         -2   -1    0    0    0  501 -0.00000000000E+00 -0.00000000000E+00 -0.26150832079E+03  0.26150832080E+03  0.25500000000E-02 0. -1.
    5000001    1    1    2    0    0  0.23217674291E+03 -0.19669508856E+03  0.10666816792E+03  0.34655749287E+03  0.12700000000E+03 0.  0.
   -5000001    1    1    2    0    0 -0.23217674291E+03  0.19669508856E+03  0.50441830756E+02  0.33356914741E+03  0.12700000000E+03 0.  0.
<mgrwt>
<rscale>  0 0.66173159E+03</rscale>
<asrwt>0</asrwt>
<pdfrwt beam="1">  1        2 0.59802617E-01 0.66173159E+03</pdfrwt>
<pdfrwt beam="2">  1       -2 0.37358331E-01 0.66173159E+03</pdfrwt>
<totfact> 0.55855065E+02</totfact>
</mgrwt>
</event>
<event>
 4    1  0.2621617E-004  0.3305211E+03  0.7818608E-02  0.1070907E+00
         -2   -1    0    0    0  501 -0.00000000000E+00  0.00000000000E+00  0.85828652092E+01  0.85828655880E+01  0.25500000000E-02 0. -1.
          2   -1    0    0  501    0  0.00000000000E+00 -0.00000000000E+00 -0.31820435988E+04  0.31820435988E+04  0.25500000000E-02 0.  1.
    5000001    1    1    2    0    0  0.81259180732E+02 -0.62348578925E+02 -0.13328549664E+04  0.13428036942E+04  0.12700000000E+03 0.  0.
   -5000001    1    1    2    0    0 -0.81259180732E+02  0.62348578925E+02 -0.18406057672E+04  0.18478227702E+04  0.12700000000E+03 0.  0.
<mgrwt>
<rscale>  0 0.33052112E+03</rscale>
<asrwt>0</asrwt>
<pdfrwt beam="1">  1        2 0.45457690E+00 0.33052112E+03</pdfrwt>
<pdfrwt beam="2">  1       -2 0.12261257E-02 0.33052112E+03</pdfrwt>
<totfact> 0.34954164E+03</totfact>
</mgrwt>
</event>
<event>
 4    1  0.2621617E-004  0.4299212E+03  0.7818608E-02  0.1033885E+00
         -2   -1    0    0    0  501 -0.00000000000E+00  0.00000000000E+00  0.71060331452E+02  0.71060331497E+02  0.25500000000E-02 0. -1.
          2   -1    0    0  501    0  0.00000000000E+00 -0.00000000000E+00 -0.65026505537E+03  0.65026505537E+03  0.25500000000E-02 0.  1.
    5000001    1    1    2    0    0  0.15580393611E+02  0.16208946346E+03 -0.18944818801E+03  0.28024160785E+03  0.12700000000E+03 0.  0.
   -5000001    1    1    2    0    0 -0.15580393611E+02 -0.16208946346E+03 -0.38975653590E+03  0.44108377901E+03  0.12700000000E+03 0.  0.
<mgrwt>
<rscale>  0 0.42992116E+03</rscale>
<asrwt>0</asrwt>
<pdfrwt beam="1">  1        2 0.92895004E-01 0.42992116E+03</pdfrwt>
<pdfrwt beam="2">  1       -2 0.10151476E-01 0.42992116E+03</pdfrwt>
<totfact> 0.32676440E+03</totfact>
</mgrwt>
</event>
<event>
 4    1  0.2621617E-004  0.2760984E+03  0.7818608E-02  0.1097839E+00
         -2   -1    0    0    0  501 -0.00000000000E+00  0.00000000000E+00  0.20844620196E+02  0.20844620352E+02  0.25500000000E-02 0. -1.
          2   -1    0    0  501    0  0.00000000000E+00 -0.00000000000E+00 -0.91426877961E+03  0.91426877961E+03  0.25500000000E-02 0.  1.
    5000001    1    1    2    0    0 -0.28914267832E+02  0.40120975853E+02 -0.52113557130E+03  0.53866224228E+03  0.12700000000E+03 0.  0.
   -5000001    1    1    2    0    0  0.28914267832E+02 -0.40120975853E+02 -0.37228858811E+03  0.39645115768E+03  0.12700000000E+03 0.  0.
<mgrwt>
<rscale>  0 0.27609843E+03</rscale>
<asrwt>0</asrwt>
<pdfrwt beam="1">  1        2 0.13060980E+00 0.27609843E+03</pdfrwt>
<pdfrwt beam="2">  1       -2 0.29778035E-02 0.27609843E+03</pdfrwt>
<totfact> 0.14021148E+04</totfact>
</mgrwt>
</event>
<event>
 4    1  0.2621617E-004  0.3789567E+03  0.7818608E-02  0.1051320E+00
          2   -1    0    0  501    0  0.00000000000E+00  0.00000000000E+00  0.31770241881E+03  0.31770241882E+03  0.25500000000E-02 0.  1.
         -2   -1    0    0    0  501 -0.00000000000E+00 -0.00000000000E+00 -0.11300527579E+03  0.11300527582E+03  0.25500000000E-02 0. -1.
    5000001    1    1    2    0    0 -0.12622063006E+03 -0.58204511600E+02  0.78141225724E+02  0.20384912014E+03  0.12700000000E+03 0.  0.
   -5000001    1    1    2    0    0  0.12622063006E+03  0.58204511600E+02  0.12655591729E+03  0.22685857450E+03  0.12700000000E+03 0.  0.
<mgrwt>
<rscale>  0 0.37895672E+03</rscale>
<asrwt>0</asrwt>
<pdfrwt beam="1">  1        2 0.45386061E-01 0.37895672E+03</pdfrwt>
<pdfrwt beam="2">  1       -2 0.16143610E-01 0.37895672E+03</pdfrwt>
<totfact> 0.33908376E+03</totfact>
</mgrwt>
</event>
<event>
 4    1  0.2621617E-004  0.6120728E+03  0.7818608E-02  0.9880671E-01
          2   -1    0    0  501    0  0.00000000000E+00  0.00000000000E+00  0.78362529415E+03  0.78362529415E+03  0.25500000000E-02 0.  1.
         -2   -1    0    0    0  501 -0.00000000000E+00 -0.00000000000E+00 -0.11951922700E+03  0.11951922703E+03  0.25500000000E-02 0. -1.
    5000001    1    1    2    0    0 -0.77329434743E+02  0.26024304421E+03  0.24081905190E+03  0.38448549946E+03  0.12700000000E+03 0.  0.
   -5000001    1    1    2    0    0  0.77329434743E+02 -0.26024304421E+03  0.42328701525E+03  0.51865902172E+03  0.12700000000E+03 0.  0.
<mgrwt>
<rscale>  0 0.61207284E+03</rscale>
<asrwt>0</asrwt>
<pdfrwt beam="1">  1        2 0.11194647E+00 0.61207284E+03</pdfrwt>
<pdfrwt beam="2">  1       -2 0.17074175E-01 0.61207284E+03</pdfrwt>
<totfact> 0.10992240E+03</totfact>
</mgrwt>
</event>
<event>
 4    1  0.2621617E-004  0.3613123E+03  0.7818608E-02  0.1058065E+00
          2   -1    0    0  501    0  0.00000000000E+00  0.00000000000E+00  0.10081848625E+04  0.10081848625E+04  0.25500000000E-02 0.  1.
         -2   -1    0    0    0  501 -0.00000000000E+00 -0.00000000000E+00 -0.32371690146E+02  0.32371690247E+02  0.25500000000E-02 0. -1.
    5000001    1    1    2    0    0  0.86632275011E+02  0.88846297219E+02  0.39200718869E+03  0.43034573495E+03  0.12700000000E+03 0.  0.
   -5000001    1    1    2    0    0 -0.86632275011E+02 -0.88846297219E+02  0.58380598370E+03  0.61021081783E+03  0.12700000000E+03 0.  0.
<mgrwt>
<rscale>  0 0.36131232E+03</rscale>
<asrwt>0</asrwt>
<pdfrwt beam="1">  1        2 0.14402640E+00 0.36131232E+03</pdfrwt>
<pdfrwt beam="2">  1       -2 0.46245274E-02 0.36131232E+03</pdfrwt>
<totfact> 0.63859192E+03</totfact>
</mgrwt>
</event>
<event>
 4    1  0.2621617E-004  0.2860549E+03  0.7818608E-02  0.1092427E+00
         -2   -1    0    0    0  501 -0.00000000000E+00  0.00000000000E+00  0.18702019916E+02  0.18702020090E+02  0.25500000000E-02 0. -1.
          2   -1    0    0  501    0  0.00000000000E+00 -0.00000000000E+00 -0.10938307943E+04  0.10938307943E+04  0.25500000000E-02 0.  1.
    5000001    1    1    2    0    0 -0.29447829833E+02  0.20877745205E+02 -0.32366420699E+03  0.34955768310E+03  0.12700000000E+03 0.  0.
   -5000001    1    1    2    0    0  0.29447829833E+02 -0.20877745205E+02 -0.75146456742E+03  0.76297513132E+03  0.12700000000E+03 0.  0.
<mgrwt>
<rscale>  0 0.28605486E+03</rscale>
<asrwt>0</asrwt>
<pdfrwt beam="1">  1        2 0.15626150E+00 0.28605486E+03</pdfrwt>
<pdfrwt beam="2">  1       -2 0.26717178E-02 0.28605486E+03</pdfrwt>
<totfact> 0.12920809E+04</totfact>
</mgrwt>
</event>
<event>
 4    1  0.2621617E-004  0.3208084E+03  0.7818608E-02  0.1075278E+00
          2   -1    0    0  501    0  0.00000000000E+00  0.00000000000E+00  0.15443673971E+04  0.15443673971E+04  0.25500000000E-02 0.  1.
         -2   -1    0    0    0  501 -0.00000000000E+00 -0.00000000000E+00 -0.16660224601E+02  0.16660224796E+02  0.25500000000E-02 0. -1.
    5000001    1    1    2    0    0  0.21756569969E+02 -0.91759617015E+02  0.63444098451E+03  0.65386354729E+03  0.12700000000E+03 0.  0.
   -5000001    1    1    2    0    0 -0.21756569969E+02  0.91759617015E+02  0.89326618800E+03  0.90716407462E+03  0.12700000000E+03 0.  0.
<mgrwt>
<rscale>  0 0.32080840E+03</rscale>
<asrwt>0</asrwt>
<pdfrwt beam="1">  1        2 0.22062387E+00 0.32080840E+03</pdfrwt>
<pdfrwt beam="2">  1       -2 0.23800326E-02 0.32080840E+03</pdfrwt>
<totfact> 0.88837025E+03</totfact>
</mgrwt>
</event>
<event>
 4    1  0.2621617E-004  0.3976866E+03  0.7818608E-02  0.1044584E+00
          2   -1    0    0  501    0  0.00000000000E+00  0.00000000000E+00  0.65398963869E+03  0.65398963869E+03  0.25500000000E-02 0.  1.
         -2   -1    0    0    0  501 -0.00000000000E+00 -0.00000000000E+00 -0.60457610178E+02  0.60457610232E+02  0.25500000000E-02 0. -1.
    5000001    1    1    2    0    0 -0.36157890449E+01 -0.64067635964E+02  0.47239374824E+02  0.14992763068E+03  0.12700000000E+03 0.  0.
   -5000001    1    1    2    0    0  0.36157890449E+01  0.64067635964E+02  0.54629265369E+03  0.56451961824E+03  0.12700000000E+03 0.  0.
<mgrwt>
<rscale>  0 0.39768656E+03</rscale>
<asrwt>0</asrwt>
<pdfrwt beam="1">  1        2 0.93427090E-01 0.39768656E+03</pdfrwt>
<pdfrwt beam="2">  1       -2 0.86368016E-02 0.39768656E+03</pdfrwt>
<totfact> 0.41971073E+03</totfact>
</mgrwt>
</event>
<event>
 4    1  0.2621617E-004  0.4897657E+03  0.7818608E-02  0.1016485E+00
          2   -1    0    0  501    0  0.00000000000E+00  0.00000000000E+00  0.21733960204E+04  0.21733960204E+04  0.25500000000E-02 0.  1.
         -2   -1    0    0    0  501 -0.00000000000E+00 -0.00000000000E+00 -0.27591664477E+02  0.27591664595E+02  0.25500000000E-02 0. -1.
    5000001    1    1    2    0    0 -0.12297873741E+03 -0.10224533383E+03  0.46562303072E+03  0.50844044379E+03  0.12700000000E+03 0.  0.
   -5000001    1    1    2    0    0  0.12297873741E+03  0.10224533383E+03  0.16801813252E+04  0.16925472412E+04  0.12700000000E+03 0.  0.
<mgrwt>
<rscale>  0 0.48976572E+03</rscale>
<asrwt>0</asrwt>
<pdfrwt beam="1">  1        2 0.31048508E+00 0.48976572E+03</pdfrwt>
<pdfrwt beam="2">  1       -2 0.39416672E-02 0.48976572E+03</pdfrwt>
<totfact> 0.20172104E+03</totfact>
</mgrwt>
</event>
<event>
 4    1  0.2621617E-004  0.3959177E+03  0.7818608E-02  0.1045202E+00
         -2   -1    0    0    0  501 -0.00000000000E+00  0.00000000000E+00  0.13872150707E+02  0.13872150941E+02  0.25500000000E-02 0. -1.
          2   -1    0    0  501    0  0.00000000000E+00 -0.00000000000E+00 -0.28249197456E+04  0.28249197456E+04  0.25500000000E-02 0.  1.
    5000001    1    1    2    0    0 -0.11827971931E+03 -0.90230696685E+02 -0.11872114273E+04  0.12032172056E+04  0.12700000000E+03 0.  0.
   -5000001    1    1    2    0    0  0.11827971931E+03  0.90230696685E+02 -0.16238361676E+04  0.16355746910E+04  0.12700000000E+03 0.  0.
<mgrwt>
<rscale>  0 0.39591773E+03</rscale>
<asrwt>0</asrwt>
<pdfrwt beam="1">  1        2 0.40355960E+00 0.39591773E+03</pdfrwt>
<pdfrwt beam="2">  1       -2 0.19817376E-02 0.39591773E+03</pdfrwt>
<totfact> 0.26616822E+03</totfact>
</mgrwt>
</event>
<event>
 4    1  0.2621617E-004  0.4351374E+03  0.7818608E-02  0.1032249E+00
          2   -1    0    0  501    0  0.00000000000E+00  0.00000000000E+00  0.82281607092E+03  0.82281607092E+03  0.25500000000E-02 0.  1.
         -2   -1    0    0    0  501 -0.00000000000E+00 -0.00000000000E+00 -0.57529431660E+02  0.57529431716E+02  0.25500000000E-02 0. -1.
    5000001    1    1    2    0    0  0.14500121660E+03 -0.65776806474E+02  0.53745281377E+03  0.57474904794E+03  0.12700000000E+03 0.  0.
   -5000001    1    1    2    0    0 -0.14500121660E+03  0.65776806474E+02  0.22783382549E+03  0.30559645469E+03  0.12700000000E+03 0.  0.
<mgrwt>
<rscale>  0 0.43513741E+03</rscale>
<asrwt>0</asrwt>
<pdfrwt beam="1">  1        2 0.11754516E+00 0.43513741E+03</pdfrwt>
<pdfrwt beam="2">  1       -2 0.82184900E-02 0.43513741E+03</pdfrwt>
<totfact> 0.34309361E+03</totfact>
</mgrwt>
</event>
<event>
 4    1  0.2621617E-004  0.6891441E+03  0.7818608E-02  0.9735979E-01
         -2   -1    0    0    0  501 -0.00000000000E+00  0.00000000000E+00  0.13150902493E+03  0.13150902495E+03  0.25500000000E-02 0. -1.
          2   -1    0    0  501    0  0.00000000000E+00 -0.00000000000E+00 -0.90282711159E+03  0.90282711160E+03  0.25500000000E-02 0.  1.
    5000001    1    1    2    0    0 -0.16289631940E+03 -0.24487011878E+03 -0.19519064933E+03  0.37513327703E+03  0.12700000000E+03 0.  0.
   -5000001    1    1    2    0    0  0.16289631940E+03  0.24487011878E+03 -0.57612743734E+03  0.65920285952E+03  0.12700000000E+03 0.  0.
<mgrwt>
<rscale>  0 0.68914414E+03</rscale>
<asrwt>0</asrwt>
<pdfrwt beam="1">  1        2 0.12897530E+00 0.68914414E+03</pdfrwt>
<pdfrwt beam="2">  1       -2 0.18787004E-01 0.68914414E+03</pdfrwt>
<totfact> 0.77368927E+02</totfact>
</mgrwt>
</event>
<event>
 4    1  0.2621617E-004  0.3932224E+03  0.7818608E-02  0.1046152E+00
          2   -1    0    0  501    0  0.00000000000E+00  0.00000000000E+00  0.18020543816E+04  0.18020543816E+04  0.25500000000E-02 0.  1.
         -2   -1    0    0    0  501 -0.00000000000E+00 -0.00000000000E+00 -0.21451051941E+02  0.21451052093E+02  0.25500000000E-02 0. -1.
    5000001    1    1    2    0    0  0.13285490529E+03 -0.36575576093E+02  0.61443793699E+03  0.64237930931E+03  0.12700000000E+03 0.  0.
   -5000001    1    1    2    0    0 -0.13285490529E+03  0.36575576093E+02  0.11661653926E+04  0.11811261244E+04  0.12700000000E+03 0.  0.
<mgrwt>
<rscale>  0 0.39322239E+03</rscale>
<asrwt>0</asrwt>
<pdfrwt beam="1">  1        2 0.25743646E+00 0.39322239E+03</pdfrwt>
<pdfrwt beam="2">  1       -2 0.30644346E-02 0.39322239E+03</pdfrwt>
<totfact> 0.45326322E+03</totfact>
</mgrwt>
</event>
<event>
 4    1  0.2621617E-004  0.2921871E+03  0.7818608E-02  0.1089213E+00
         -2   -1    0    0    0  501 -0.00000000000E+00  0.00000000000E+00  0.22320782551E+03  0.22320782553E+03  0.25500000000E-02 0. -1.
          2   -1    0    0  501    0  0.00000000000E+00 -0.00000000000E+00 -0.95620872406E+02  0.95620872440E+02  0.25500000000E-02 0.  1.
    5000001    1    1    2    0    0 -0.32882267194E+02 -0.50533567918E+02  0.10715935976E+03  0.17676824762E+03  0.12700000000E+03 0.  0.
   -5000001    1    1    2    0    0  0.32882267194E+02  0.50533567918E+02  0.20427593342E+02  0.14206045034E+03  0.12700000000E+03 0.  0.
<mgrwt>
<rscale>  0 0.29218711E+03</rscale>
<asrwt>0</asrwt>
<pdfrwt beam="1">  1        2 0.13660125E-01 0.29218711E+03</pdfrwt>
<pdfrwt beam="2">  1       -2 0.31886832E-01 0.29218711E+03</pdfrwt>
<totfact> 0.39762672E+03</totfact>
</mgrwt>
</event>
<event>
 4    1  0.2621617E-004  0.3762911E+03  0.7818608E-02  0.1052313E+00
         -2   -1    0    0    0  501 -0.00000000000E+00  0.00000000000E+00  0.34868180147E+02  0.34868180241E+02  0.25500000000E-02 0. -1.
          2   -1    0    0  501    0  0.00000000000E+00 -0.00000000000E+00 -0.10152163145E+04  0.10152163145E+04  0.25500000000E-02 0.  1.
    5000001    1    1    2    0    0 -0.11928908787E+03 -0.66564573767E+02 -0.55904164652E+03  0.58933631443E+03  0.12700000000E+03 0.  0.
   -5000001    1    1    2    0    0  0.11928908787E+03  0.66564573767E+02 -0.42130648780E+03  0.46074818028E+03  0.12700000000E+03 0.  0.
<mgrwt>
<rscale>  0 0.37629109E+03</rscale>
<asrwt>0</asrwt>
<pdfrwt beam="1">  1        2 0.14503088E+00 0.37629109E+03</pdfrwt>
<pdfrwt beam="2">  1       -2 0.49811692E-02 0.37629109E+03</pdfrwt>
<totfact> 0.56495833E+03</totfact>
</mgrwt>
</event>
<event>
 4    1  0.2621617E-004  0.2710857E+03  0.7818608E-02  0.1100660E+00
          2   -1    0    0  501    0  0.00000000000E+00  0.00000000000E+00  0.39352432235E+03  0.39352432236E+03  0.25500000000E-02 0.  1.
         -2   -1    0    0    0  501 -0.00000000000E+00 -0.00000000000E+00 -0.46685459357E+02  0.46685459426E+02  0.25500000000E-02 0. -1.
    5000001    1    1    2    0    0 -0.45824004591E+01 -0.35338598198E+02  0.12276465444E+03  0.18019427099E+03  0.12700000000E+03 0.  0.
   -5000001    1    1    2    0    0  0.45824004591E+01  0.35338598198E+02  0.22407420855E+03  0.26001551080E+03  0.12700000000E+03 0.  0.
<mgrwt>
<rscale>  0 0.27108570E+03</rscale>
<asrwt>0</asrwt>
<pdfrwt beam="1">  1        2 0.56217761E-01 0.27108570E+03</pdfrwt>
<pdfrwt beam="2">  1       -2 0.66693512E-02 0.27108570E+03</pdfrwt>
<totfact> 0.10985227E+04</totfact>
</mgrwt>
</event>
<event>
 4    1  0.2621617E-004  0.6655084E+03  0.7818608E-02  0.9778106E-01
         -2   -1    0    0    0  501 -0.00000000000E+00  0.00000000000E+00  0.91489750536E+02  0.91489750571E+02  0.25500000000E-02 0. -1.
          2   -1    0    0  501    0  0.00000000000E+00 -0.00000000000E+00 -0.12102488207E+04  0.12102488207E+04  0.25500000000E-02 0.  1.
    5000001    1    1    2    0    0  0.18481374902E+03 -0.22999090965E+03 -0.72927556056E+03  0.79688379553E+03  0.12700000000E+03 0.  0.
   -5000001    1    1    2    0    0 -0.18481374902E+03  0.22999090965E+03 -0.38948350964E+03  0.50485477578E+03  0.12700000000E+03 0.  0.
<mgrwt>
<rscale>  0 0.66550842E+03</rscale>
<asrwt>0</asrwt>
<pdfrwt beam="1">  1        2 0.17289268E+00 0.66550842E+03</pdfrwt>
<pdfrwt beam="2">  1       -2 0.13069965E-01 0.66550842E+03</pdfrwt>
<totfact> 0.93811748E+02</totfact>
</mgrwt>
</event>
<event>
 4    1  0.2621617E-004  0.8312675E+03  0.7818608E-02  0.9515830E-01
         -2   -1    0    0    0  501 -0.00000000000E+00  0.00000000000E+00  0.17359937997E+03  0.17359937999E+03  0.25500000000E-02 0. -1.
          2   -1    0    0  501    0  0.00000000000E+00 -0.00000000000E+00 -0.99511548985E+03  0.99511548986E+03  0.25500000000E-02 0.  1.
    5000001    1    1    2    0    0 -0.29255560962E+02 -0.34247278357E+03 -0.13496757073E+03  0.39049806719E+03  0.12700000000E+03 0.  0.
   -5000001    1    1    2    0    0  0.29255560962E+02  0.34247278357E+03 -0.68654853915E+03  0.77821680266E+03  0.12700000000E+03 0.  0.
<mgrwt>
<rscale>  0 0.83126754E+03</rscale>
<asrwt>0</asrwt>
<pdfrwt beam="1">  1        2 0.14215935E+00 0.83126754E+03</pdfrwt>
<pdfrwt beam="2">  1       -2 0.24799912E-01 0.83126754E+03</pdfrwt>
<totfact> 0.41203461E+02</totfact>
</mgrwt>
</event>
<event>
 4    1  0.2621617E-004  0.4684086E+03  0.7818608E-02  0.1022370E+00
         -2   -1    0    0    0  501 -0.00000000000E+00  0.00000000000E+00  0.86295321694E+02  0.86295321732E+02  0.25500000000E-02 0. -1.
          2   -1    0    0  501    0  0.00000000000E+00 -0.00000000000E+00 -0.63562712484E+03  0.63562712484E+03  0.25500000000E-02 0.  1.
    5000001    1    1    2    0    0 -0.13272220746E+03  0.13471812393E+03 -0.35849615186E+03  0.42475010084E+03  0.12700000000E+03 0.  0.
   -5000001    1    1    2    0    0  0.13272220746E+03 -0.13471812393E+03 -0.19083565128E+03  0.29717234573E+03  0.12700000000E+03 0.  0.
<mgrwt>
<rscale>  0 0.46840857E+03</rscale>
<asrwt>0</asrwt>
<pdfrwt beam="1">  1        2 0.90803872E-01 0.46840857E+03</pdfrwt>
<pdfrwt beam="2">  1       -2 0.12327904E-01 0.46840857E+03</pdfrwt>
<totfact> 0.24502601E+03</totfact>
</mgrwt>
</event>
<event>
 4    1  0.2621617E-004  0.4813447E+03  0.7818608E-02  0.1018766E+00
         -2   -1    0    0    0  501 -0.00000000000E+00  0.00000000000E+00  0.40371774182E+02  0.40371774263E+02  0.25500000000E-02 0. -1.
          2   -1    0    0  501    0  0.00000000000E+00 -0.00000000000E+00 -0.14347443642E+04  0.14347443642E+04  0.25500000000E-02 0.  1.
    5000001    1    1    2    0    0  0.57345169466E+02 -0.37354365704E+02 -0.12875472297E+04  0.12956043708E+04  0.12700000000E+03 0.  0.
   -5000001    1    1    2    0    0 -0.57345169466E+02  0.37354365704E+02 -0.10682536031E+03  0.17951176759E+03  0.12700000000E+03 0.  0.
<mgrwt>
<rscale>  0 0.48134468E+03</rscale>
<asrwt>0</asrwt>
<pdfrwt beam="1">  1        2 0.20496345E+00 0.48134468E+03</pdfrwt>
<pdfrwt beam="2">  1       -2 0.57673972E-02 0.48134468E+03</pdfrwt>
<totfact> 0.26473890E+03</totfact>
</mgrwt>
</event>
<event>
 4    1  0.2621617E-004  0.4302410E+03  0.7818608E-02  0.1033784E+00
         -2   -1    0    0    0  501 -0.00000000000E+00  0.00000000000E+00  0.66572001104E+03  0.66572001104E+03  0.25500000000E-02 0. -1.
          2   -1    0    0  501    0  0.00000000000E+00 -0.00000000000E+00 -0.69513943794E+02  0.69513943841E+02  0.25500000000E-02 0.  1.
    5000001    1    1    2    0    0 -0.52937759050E+01  0.77678404424E+02  0.56331609738E+03  0.58268000149E+03  0.12700000000E+03 0.  0.
   -5000001    1    1    2    0    0  0.52937759050E+01 -0.77678404424E+02  0.32889969867E+02  0.15255395339E+03  0.12700000000E+03 0.  0.
<mgrwt>
<rscale>  0 0.43024097E+03</rscale>
<asrwt>0</asrwt>
<pdfrwt beam="1">  1        2 0.99305632E-02 0.43024097E+03</pdfrwt>
<pdfrwt beam="2">  1       -2 0.95102860E-01 0.43024097E+03</pdfrwt>
<totfact> 0.62725685E+02</totfact>
</mgrwt>
</event>
<event>
 4    1  0.2621617E-004  0.2982569E+03  0.7818608E-02  0.1086115E+00
          2   -1    0    0  501    0  0.00000000000E+00  0.00000000000E+00  0.82098766644E+03  0.82098766644E+03  0.25500000000E-02 0.  1.
         -2   -1    0    0    0  501 -0.00000000000E+00 -0.00000000000E+00 -0.27088465278E+02  0.27088465398E+02  0.25500000000E-02 0. -1.
    5000001    1    1    2    0    0  0.60834363906E+02  0.42466068298E+02  0.46695310014E+03  0.48956959109E+03  0.12700000000E+03 0.  0.
   -5000001    1    1    2    0    0 -0.60834363906E+02 -0.42466068298E+02  0.32694610102E+03  0.35850654075E+03  0.12700000000E+03 0.  0.
<mgrwt>
<rscale>  0 0.29825691E+03</rscale>
<asrwt>0</asrwt>
<pdfrwt beam="1">  1        2 0.11728400E+00 0.29825691E+03</pdfrwt>
<pdfrwt beam="2">  1       -2 0.38697793E-02 0.29825691E+03</pdfrwt>
<totfact> 0.10900875E+04</totfact>
</mgrwt>
</event>
<event>
 4    1  0.2621617E-004  0.3423584E+03  0.7818608E-02  0.1065796E+00
         -2   -1    0    0    0  501 -0.00000000000E+00  0.00000000000E+00  0.58520812335E+02  0.58520812390E+02  0.25500000000E-02 0. -1.
          2   -1    0    0  501    0  0.00000000000E+00 -0.00000000000E+00 -0.50071629227E+03  0.50071629228E+03  0.25500000000E-02 0.  1.
    5000001    1    1    2    0    0  0.86697049466E+02 -0.59223896297E+02 -0.14536542373E+03  0.21973610239E+03  0.12700000000E+03 0.  0.
   -5000001    1    1    2    0    0 -0.86697049466E+02  0.59223896297E+02 -0.29683005621E+03  0.33950100227E+03  0.12700000000E+03 0.  0.
<mgrwt>
<rscale>  0 0.34235843E+03</rscale>
<asrwt>0</asrwt>
<pdfrwt beam="1">  1        2 0.71530896E-01 0.34235843E+03</pdfrwt>
<pdfrwt beam="2">  1       -2 0.83601164E-02 0.34235843E+03</pdfrwt>
<totfact> 0.59810412E+03</totfact>
</mgrwt>
</event>
<event>
 4    1  0.2621617E-004  0.4721088E+03  0.7818608E-02  0.1021327E+00
          2   -1    0    0  501    0  0.00000000000E+00  0.00000000000E+00  0.29677134343E+04  0.29677134343E+04  0.25500000000E-02 0.  1.
         -2   -1    0    0    0  501 -0.00000000000E+00 -0.00000000000E+00 -0.18775960923E+02  0.18775961096E+02  0.25500000000E-02 0. -1.
    5000001    1    1    2    0    0  0.18047394260E+03  0.83660996897E+02  0.14443525251E+04  0.14635071654E+04  0.12700000000E+03 0.  0.
   -5000001    1    1    2    0    0 -0.18047394260E+03 -0.83660996897E+02  0.15045849483E+04  0.15229822300E+04  0.12700000000E+03 0.  0.
<mgrwt>
<rscale>  0 0.47210877E+03</rscale>
<asrwt>0</asrwt>
<pdfrwt beam="1">  1        2 0.42395883E+00 0.47210877E+03</pdfrwt>
<pdfrwt beam="2">  1       -2 0.26822816E-02 0.47210877E+03</pdfrwt>
<totfact> 0.14127446E+03</totfact>
</mgrwt>
</event>
<event>
 4    1  0.2621617E-004  0.4941885E+03  0.7818608E-02  0.1015307E+00
          2   -1    0    0  501    0  0.00000000000E+00  0.00000000000E+00  0.15481283119E+03  0.15481283121E+03  0.25500000000E-02 0. -1.
         -2   -1    0    0    0  501 -0.00000000000E+00 -0.00000000000E+00 -0.39438316271E+03  0.39438316271E+03  0.25500000000E-02 0.  1.
    5000001    1    1    2    0    0  0.78489420206E+02  0.15715574166E+03 -0.25159620294E+03  0.33209662081E+03  0.12700000000E+03 0.  0.
   -5000001    1    1    2    0    0 -0.78489420206E+02 -0.15715574166E+03  0.12025871428E+02  0.21709937311E+03  0.12700000000E+03 0.  0.
<mgrwt>
<rscale>  0 0.49418852E+03</rscale>
<asrwt>0</asrwt>
<pdfrwt beam="1">  1        2 0.22116119E-01 0.49418852E+03</pdfrwt>
<pdfrwt beam="2">  1       -2 0.56340451E-01 0.49418852E+03</pdfrwt>
<totfact> 0.75052902E+02</totfact>
</mgrwt>
</event>
<event>
 4    1  0.2621617E-004  0.3038273E+03  0.7818608E-02  0.1083343E+00
          2   -1    0    0  501    0  0.00000000000E+00  0.00000000000E+00  0.17597421495E+04  0.17597421495E+04  0.25500000000E-02 0.  1.
         -2   -1    0    0    0  501 -0.00000000000E+00 -0.00000000000E+00 -0.13114282816E+02  0.13114283064E+02  0.25500000000E-02 0. -1.
    5000001    1    1    2    0    0 -0.15823864860E+02 -0.81167976859E+02  0.93454649355E+03  0.94675486995E+03  0.12700000000E+03 0.  0.
   -5000001    1    1    2    0    0  0.15823864860E+02  0.81167976859E+02  0.81208137312E+03  0.82610156261E+03  0.12700000000E+03 0.  0.
<mgrwt>
<rscale>  0 0.30382730E+03</rscale>
<asrwt>0</asrwt>
<pdfrwt beam="1">  1        2 0.25139196E+00 0.30382730E+03</pdfrwt>
<pdfrwt beam="2">  1       -2 0.18734673E-02 0.30382730E+03</pdfrwt>
<totfact> 0.98765309E+03</totfact>
</mgrwt>
</event>
<event>
 4    1  0.2621617E-004  0.5266940E+03  0.7818608E-02  0.1007037E+00
         -2   -1    0    0    0  501 -0.00000000000E+00  0.00000000000E+00  0.21793452578E+02  0.21793452728E+02  0.25500000000E-02 0. -1.
          2   -1    0    0  501    0  0.00000000000E+00 -0.00000000000E+00 -0.31822238857E+04  0.31822238857E+04  0.25500000000E-02 0.  1.
    5000001    1    1    2    0    0  0.20614260758E+03 -0.10301606113E+03 -0.15148202766E+04  0.15375033509E+04  0.12700000000E+03 0.  0.
   -5000001    1    1    2    0    0 -0.20614260758E+03  0.10301606113E+03 -0.16456101565E+04  0.16665139876E+04  0.12700000000E+03 0.  0.
<mgrwt>
<rscale>  0 0.52669401E+03</rscale>
<asrwt>0</asrwt>
<pdfrwt beam="1">  1        2 0.45460312E+00 0.52669401E+03</pdfrwt>
<pdfrwt beam="2">  1       -2 0.31133524E-02 0.52669401E+03</pdfrwt>
<totfact> 0.85616017E+02</totfact>
</mgrwt>
</event>
<event>
 4    1  0.2621617E-004  0.4135310E+03  0.7818608E-02  0.1039193E+00
          2   -1    0    0  501    0  0.00000000000E+00  0.00000000000E+00  0.51176953943E+03  0.51176953944E+03  0.25500000000E-02 0.  1.
         -2   -1    0    0    0  501 -0.00000000000E+00 -0.00000000000E+00 -0.83537532669E+02  0.83537532708E+02  0.25500000000E-02 0. -1.
    5000001    1    1    2    0    0 -0.15527217930E+03  0.49817202675E+02  0.22222901392E+03  0.30348960110E+03  0.12700000000E+03 0.  0.
   -5000001    1    1    2    0    0  0.15527217930E+03 -0.49817202675E+02  0.20600299284E+03  0.29181747105E+03  0.12700000000E+03 0.  0.
<mgrwt>
<rscale>  0 0.41353096E+03</rscale>
<asrwt>0</asrwt>
<pdfrwt beam="1">  1        2 0.73109932E-01 0.41353096E+03</pdfrwt>
<pdfrwt beam="2">  1       -2 0.11933934E-01 0.41353096E+03</pdfrwt>
<totfact> 0.33126140E+03</totfact>
</mgrwt>
</event>
<event>
 4    1  0.2621617E-004  0.4449007E+03  0.7818608E-02  0.1029254E+00
          2   -1    0    0  501    0  0.00000000000E+00  0.00000000000E+00  0.58424950983E+03  0.58424950983E+03  0.25500000000E-02 0.  1.
         -2   -1    0    0    0  501 -0.00000000000E+00 -0.00000000000E+00 -0.84696954362E+02  0.84696954401E+02  0.25500000000E-02 0. -1.
    5000001    1    1    2    0    0 -0.72827623775E+02 -0.15200400215E+03  0.35552098132E+03  0.41344074257E+03  0.12700000000E+03 0.  0.
   -5000001    1    1    2    0    0  0.72827623775E+02  0.15200400215E+03  0.14403157414E+03  0.25550572167E+03  0.12700000000E+03 0.  0.
<mgrwt>
<rscale>  0 0.44490068E+03</rscale>
<asrwt>0</asrwt>
<pdfrwt beam="1">  1        2 0.83464219E-01 0.44490068E+03</pdfrwt>
<pdfrwt beam="2">  1       -2 0.12099564E-01 0.44490068E+03</pdfrwt>
<totfact> 0.27868320E+03</totfact>
</mgrwt>
</event>
<event>
 4    1  0.2621617E-004  0.2959419E+03  0.7818608E-02  0.1087287E+00
         -2   -1    0    0    0  501 -0.00000000000E+00  0.00000000000E+00  0.94328638054E+01  0.94328641501E+01  0.25500000000E-02 0. -1.
          2   -1    0    0  501    0  0.00000000000E+00 -0.00000000000E+00 -0.23211826336E+04  0.23211826337E+04  0.25500000000E-02 0.  1.
    5000001    1    1    2    0    0  0.67122830689E+01 -0.73314346591E+02 -0.10093123474E+04  0.10199315971E+04  0.12700000000E+03 0.  0.
   -5000001    1    1    2    0    0 -0.67122830689E+01  0.73314346591E+02 -0.13024374224E+04  0.13106839007E+04  0.12700000000E+03 0.  0.
<mgrwt>
<rscale>  0 0.29594189E+03</rscale>
<asrwt>0</asrwt>
<pdfrwt beam="1">  1        2 0.33159715E+00 0.29594189E+03</pdfrwt>
<pdfrwt beam="2">  1       -2 0.13475535E-02 0.29594189E+03</pdfrwt>
<totfact> 0.84941443E+03</totfact>
</mgrwt>
</event>
<event>
 4    1  0.2621617E-004  0.5313713E+03  0.7818608E-02  0.1005900E+00
         -2   -1    0    0    0  501 -0.00000000000E+00  0.00000000000E+00  0.20470274961E+02  0.20470275120E+02  0.25500000000E-02 0. -1.
          2   -1    0    0  501    0  0.00000000000E+00 -0.00000000000E+00 -0.34483588316E+04  0.34483588316E+04  0.25500000000E-02 0.  1.
    5000001    1    1    2    0    0 -0.61977703551E+02 -0.20881321943E+03 -0.11671562089E+04  0.11940799020E+04  0.12700000000E+03 0.  0.
   -5000001    1    1    2    0    0  0.61977703551E+02  0.20881321943E+03 -0.22607323477E+04  0.22747492047E+04  0.12700000000E+03 0.  0.
<mgrwt>
<rscale>  0 0.53137126E+03</rscale>
<asrwt>0</asrwt>
<pdfrwt beam="1">  1        2 0.49262232E+00 0.53137126E+03</pdfrwt>
<pdfrwt beam="2">  1       -2 0.29243272E-02 0.53137126E+03</pdfrwt>
<totfact> 0.66309841E+02</totfact>
</mgrwt>
</event>
<event>
 4    1  0.2621617E-004  0.3782235E+03  0.7818608E-02  0.1051592E+00
          2   -1    0    0  501    0  0.00000000000E+00  0.00000000000E+00  0.46984163023E+03  0.46984163024E+03  0.25500000000E-02 0.  1.
         -2   -1    0    0    0  501 -0.00000000000E+00 -0.00000000000E+00 -0.76117687004E+02  0.76117687047E+02  0.25500000000E-02 0. -1.
    5000001    1    1    2    0    0  0.43643372108E+02  0.11520129359E+03  0.29324273494E+03  0.34248559615E+03  0.12700000000E+03 0.  0.
   -5000001    1    1    2    0    0 -0.43643372108E+02 -0.11520129359E+03  0.10048120829E+03  0.20347372114E+03  0.12700000000E+03 0.  0.
<mgrwt>
<rscale>  0 0.37822352E+03</rscale>
<asrwt>0</asrwt>
<pdfrwt beam="1">  1        2 0.67120234E-01 0.37822352E+03</pdfrwt>
<pdfrwt beam="2">  1       -2 0.10873955E-01 0.37822352E+03</pdfrwt>
<totfact> 0.42315777E+03</totfact>
</mgrwt>
</event>
<event>
 4    1  0.2621617E-004  0.5541511E+03  0.7818608E-02  0.1000538E+00
         -2   -1    0    0    0  501 -0.00000000000E+00  0.00000000000E+00  0.88511847070E+02  0.88511847107E+02  0.25500000000E-02 0. -1.
          2   -1    0    0  501    0  0.00000000000E+00 -0.00000000000E+00 -0.86735111566E+03  0.86735111567E+03  0.25500000000E-02 0.  1.
    5000001    1    1    2    0    0 -0.42751276433E+02  0.24070851721E+03 -0.33843718996E+03  0.43639087232E+03  0.12700000000E+03 0.  0.
   -5000001    1    1    2    0    0  0.42751276433E+02 -0.24070851721E+03 -0.44040207864E+03  0.51947209046E+03  0.12700000000E+03 0.  0.
<mgrwt>
<rscale>  0 0.55415106E+03</rscale>
<asrwt>0</asrwt>
<pdfrwt beam="1">  1        2 0.12390730E+00 0.55415106E+03</pdfrwt>
<pdfrwt beam="2">  1       -2 0.12644550E-01 0.55415106E+03</pdfrwt>
<totfact> 0.15978852E+03</totfact>
</mgrwt>
</event>
<event>
 4    1  0.2621617E-004  0.4402582E+03  0.7818608E-02  0.1030668E+00
          2   -1    0    0  501    0  0.00000000000E+00  0.00000000000E+00  0.60039226205E+03  0.60039226206E+03  0.25500000000E-02 0.  1.
         -2   -1    0    0    0  501 -0.00000000000E+00 -0.00000000000E+00 -0.80708587906E+02  0.80708587946E+02  0.25500000000E-02 0. -1.
    5000001    1    1    2    0    0  0.65335533534E+02  0.16440117400E+03  0.21015931687E+03  0.30264239032E+03  0.12700000000E+03 0.  0.
   -5000001    1    1    2    0    0 -0.65335533534E+02 -0.16440117400E+03  0.30952435728E+03  0.37845845968E+03  0.12700000000E+03 0.  0.
<mgrwt>
<rscale>  0 0.44025816E+03</rscale>
<asrwt>0</asrwt>
<pdfrwt beam="1">  1        2 0.85770322E-01 0.44025816E+03</pdfrwt>
<pdfrwt beam="2">  1       -2 0.11529798E-01 0.44025816E+03</pdfrwt>
<totfact> 0.29208919E+03</totfact>
</mgrwt>
</event>
<event>
 4    1  0.2621617E-004  0.5173905E+03  0.7818608E-02  0.1009337E+00
         -2   -1    0    0    0  501 -0.00000000000E+00  0.00000000000E+00  0.45090052724E+02  0.45090052796E+02  0.25500000000E-02 0. -1.
          2   -1    0    0  501    0  0.00000000000E+00 -0.00000000000E+00 -0.14842128384E+04  0.14842128384E+04  0.25500000000E-02 0.  1.
    5000001    1    1    2    0    0 -0.33797179657E+02  0.18852841351E+03 -0.36846729954E+03  0.43426070843E+03  0.12700000000E+03 0.  0.
   -5000001    1    1    2    0    0  0.33797179657E+02 -0.18852841351E+03 -0.10706554861E+04  0.10950421828E+04  0.12700000000E+03 0.  0.
<mgrwt>
<rscale>  0 0.51739051E+03</rscale>
<asrwt>0</asrwt>
<pdfrwt beam="1">  1        2 0.21203038E+00 0.51739051E+03</pdfrwt>
<pdfrwt beam="2">  1       -2 0.64414370E-02 0.51739051E+03</pdfrwt>
<totfact> 0.20980840E+03</totfact>
</mgrwt>
</event>
<event>
 4    1  0.2621617E-004  0.3508668E+03  0.7818608E-02  0.1062260E+00
          2   -1    0    0  501    0  0.00000000000E+00  0.00000000000E+00  0.76627756474E+03  0.76627756474E+03  0.25500000000E-02 0.  1.
         -2   -1    0    0    0  501 -0.00000000000E+00 -0.00000000000E+00 -0.40164134872E+02  0.40164134953E+02  0.25500000000E-02 0. -1.
    5000001    1    1    2    0    0 -0.49623097692E+02  0.10224517393E+03  0.45869304702E+03  0.48933101148E+03  0.12700000000E+03 0.  0.
   -5000001    1    1    2    0    0  0.49623097692E+02 -0.10224517393E+03  0.26742038285E+03  0.31711068822E+03  0.12700000000E+03 0.  0.
<mgrwt>
<rscale>  0 0.35086679E+03</rscale>
<asrwt>0</asrwt>
<pdfrwt beam="1">  1        2 0.10946823E+00 0.35086679E+03</pdfrwt>
<pdfrwt beam="2">  1       -2 0.57377333E-02 0.35086679E+03</pdfrwt>
<totfact> 0.65512874E+03</totfact>
</mgrwt>
</event>
<event>
 4    1  0.2621617E-004  0.3248692E+03  0.7818608E-02  0.1073430E+00
          2   -1    0    0  501    0  0.00000000000E+00  0.00000000000E+00  0.44388236454E+03  0.44388236454E+03  0.25500000000E-02 0.  1.
         -2   -1    0    0    0  501 -0.00000000000E+00 -0.00000000000E+00 -0.59441418139E+02  0.59441418194E+02  0.25500000000E-02 0. -1.
    5000001    1    1    2    0    0 -0.78351744699E+02  0.42300299673E+02  0.26696873998E+03  0.30875495036E+03  0.12700000000E+03 0.  0.
   -5000001    1    1    2    0    0  0.78351744699E+02 -0.42300299673E+02  0.11747220642E+03  0.19456883237E+03  0.12700000000E+03 0.  0.
<mgrwt>
<rscale>  0 0.32486919E+03</rscale>
<asrwt>0</asrwt>
<pdfrwt beam="1">  1        2 0.63411766E-01 0.32486919E+03</pdfrwt>
<pdfrwt beam="2">  1       -2 0.84916312E-02 0.32486919E+03</pdfrwt>
<totfact> 0.66569018E+03</totfact>
</mgrwt>
</event>
<event>
 4    1  0.2621617E-004  0.3165133E+03  0.7818608E-02  0.1077265E+00
         -2   -1    0    0    0  501 -0.00000000000E+00  0.00000000000E+00  0.36245375968E+03  0.36245375969E+03  0.25500000000E-02 0. -1.
          2   -1    0    0  501    0  0.00000000000E+00 -0.00000000000E+00 -0.69098937165E+02  0.69098937212E+02  0.25500000000E-02 0.  1.
    5000001    1    1    2    0    0  0.76794163501E+02  0.15300692050E+02  0.74727176280E+02  0.16686702970E+03  0.12700000000E+03 0.  0.
   -5000001    1    1    2    0    0 -0.76794163501E+02 -0.15300692050E+02  0.21862764623E+03  0.26468566720E+03  0.12700000000E+03 0.  0.
<mgrwt>
<rscale>  0 0.31651331E+03</rscale>
<asrwt>0</asrwt>
<pdfrwt beam="1">  1        2 0.98712768E-02 0.31651331E+03</pdfrwt>
<pdfrwt beam="2">  1       -2 0.51779108E-01 0.31651331E+03</pdfrwt>
<totfact> 0.23370836E+03</totfact>
</mgrwt>
</event>
<event>
 4    1  0.2621617E-004  0.4918744E+03  0.7818608E-02  0.1015922E+00
          2   -1    0    0  501    0  0.00000000000E+00  0.00000000000E+00  0.72038100170E+03  0.72038100170E+03  0.25500000000E-02 0.  1.
         -2   -1    0    0    0  501 -0.00000000000E+00 -0.00000000000E+00 -0.83962655957E+02  0.83962655996E+02  0.25500000000E-02 0. -1.
    5000001    1    1    2    0    0  0.16430519413E+03  0.20069937298E+02  0.10526622303E+03  0.23368563694E+03  0.12700000000E+03 0.  0.
   -5000001    1    1    2    0    0 -0.16430519413E+03 -0.20069937298E+02  0.53115212271E+03  0.57065802076E+03  0.12700000000E+03 0.  0.
<mgrwt>
<rscale>  0 0.49187438E+03</rscale>
<asrwt>0</asrwt>
<pdfrwt beam="1">  1        2 0.10291157E+00 0.49187438E+03</pdfrwt>
<pdfrwt beam="2">  1       -2 0.11994665E-01 0.49187438E+03</pdfrwt>
<totfact> 0.22052972E+03</totfact>
</mgrwt>
</event>
<event>
 4    1  0.2621617E-004  0.4422593E+03  0.7818608E-02  0.1030056E+00
         -2   -1    0    0    0  501 -0.00000000000E+00  0.00000000000E+00  0.54818220416E+03  0.54818220417E+03  0.25500000000E-02 0. -1.
          2   -1    0    0  501    0  0.00000000000E+00 -0.00000000000E+00 -0.89200869685E+02  0.89200869722E+02  0.25500000000E-02 0.  1.
    5000001    1    1    2    0    0  0.17981245167E+03 -0.10476752649E+02  0.25555400892E+03  0.33745982219E+03  0.12700000000E+03 0.  0.
   -5000001    1    1    2    0    0 -0.17981245167E+03  0.10476752649E+02  0.20342732556E+03  0.29992325169E+03  0.12700000000E+03 0.  0.
<mgrwt>
<rscale>  0 0.44225933E+03</rscale>
<asrwt>0</asrwt>
<pdfrwt beam="1">  1        2 0.12742981E-01 0.44225933E+03</pdfrwt>
<pdfrwt beam="2">  1       -2 0.78311743E-01 0.44225933E+03</pdfrwt>
<totfact> 0.71414319E+02</totfact>
</mgrwt>
</event>
<event>
 4    1  0.2621617E-004  0.8298628E+03  0.7818608E-02  0.9517770E-01
          2   -1    0    0  501    0  0.00000000000E+00  0.00000000000E+00  0.98259086718E+03  0.98259086718E+03  0.25500000000E-02 0.  1.
         -2   -1    0    0    0  501 -0.00000000000E+00 -0.00000000000E+00 -0.17521848175E+03  0.17521848177E+03  0.25500000000E-02 0. -1.
    5000001    1    1    2    0    0  0.33103384152E+03  0.13406822246E+03  0.16822935384E+03  0.41471412804E+03  0.12700000000E+03 0.  0.
   -5000001    1    1    2    0    0 -0.33103384152E+03 -0.13406822246E+03  0.63914303159E+03  0.74309522091E+03  0.12700000000E+03 0.  0.
<mgrwt>
<rscale>  0 0.82986283E+03</rscale>
<asrwt>0</asrwt>
<pdfrwt beam="1">  1        2 0.14037012E+00 0.82986283E+03</pdfrwt>
<pdfrwt beam="2">  1       -2 0.25031212E-01 0.82986283E+03</pdfrwt>
<totfact> 0.41251778E+02</totfact>
</mgrwt>
</event>
<event>
 4    1  0.2621617E-004  0.3121261E+03  0.7818608E-02  0.1079331E+00
         -2   -1    0    0    0  501 -0.00000000000E+00  0.00000000000E+00  0.21838158694E+02  0.21838158843E+02  0.25500000000E-02 0. -1.
          2   -1    0    0  501    0  0.00000000000E+00 -0.00000000000E+00 -0.11152803898E+04  0.11152803898E+04  0.25500000000E-02 0.  1.
    5000001    1    1    2    0    0  0.88631565580E+02 -0.14660043335E+02 -0.59225290773E+03  0.61234220661E+03  0.12700000000E+03 0.  0.
   -5000001    1    1    2    0    0 -0.88631565580E+02  0.14660043335E+02 -0.50118932336E+03  0.52477634202E+03  0.12700000000E+03 0.  0.
<mgrwt>
<rscale>  0 0.31212607E+03</rscale>
<asrwt>0</asrwt>
<pdfrwt beam="1">  1        2 0.15932573E+00 0.31212607E+03</pdfrwt>
<pdfrwt beam="2">  1       -2 0.31197377E-02 0.31212607E+03</pdfrwt>
<totfact> 0.99999704E+03</totfact>
</mgrwt>
</event>
<event>
 4    1  0.2621617E-004  0.2982160E+03  0.7818608E-02  0.1086136E+00
         -2   -1    0    0    0  501 -0.00000000000E+00  0.00000000000E+00  0.17554206501E+02  0.17554206686E+02  0.25500000000E-02 0. -1.
          2   -1    0    0  501    0  0.00000000000E+00 -0.00000000000E+00 -0.12665455584E+04  0.12665455584E+04  0.25500000000E-02 0.  1.
    5000001    1    1    2    0    0 -0.67768760705E+02  0.14632439424E+02 -0.77959847427E+03  0.79291203440E+03  0.12700000000E+03 0.  0.
   -5000001    1    1    2    0    0  0.67768760705E+02 -0.14632439424E+02 -0.46939287764E+03  0.49118773070E+03  0.12700000000E+03 0.  0.
<mgrwt>
<rscale>  0 0.29821605E+03</rscale>
<asrwt>0</asrwt>
<pdfrwt beam="1">  1        2 0.18093502E+00 0.29821605E+03</pdfrwt>
<pdfrwt beam="2">  1       -2 0.25077446E-02 0.29821605E+03</pdfrwt>
<totfact> 0.11426979E+04</totfact>
</mgrwt>
</event>
<event>
 4    1  0.2621617E-004  0.3207783E+03  0.7818608E-02  0.1075292E+00
          2   -1    0    0  501    0  0.00000000000E+00  0.00000000000E+00  0.16970664795E+04  0.16970664795E+04  0.25500000000E-02 0.  1.
         -2   -1    0    0    0  501 -0.00000000000E+00 -0.00000000000E+00 -0.15158322887E+02  0.15158323102E+02  0.25500000000E-02 0. -1.
    5000001    1    1    2    0    0  0.29374431561E+02 -0.52218598017E+02  0.12546202313E+04  0.12624541829E+04  0.12700000000E+03 0.  0.
   -5000001    1    1    2    0    0 -0.29374431561E+02  0.52218598017E+02  0.42728792540E+03  0.44977061977E+03  0.12700000000E+03 0.  0.
<mgrwt>
<rscale>  0 0.32077832E+03</rscale>
<asrwt>0</asrwt>
<pdfrwt beam="1">  1        2 0.24243818E+00 0.32077832E+03</pdfrwt>
<pdfrwt beam="2">  1       -2 0.21654738E-02 0.32077832E+03</pdfrwt>
<totfact> 0.85711439E+03</totfact>
</mgrwt>
</event>
<event>
 4    1  0.2621617E-004  0.3673360E+03  0.7818608E-02  0.1055716E+00
         -2   -1    0    0    0  501 -0.00000000000E+00  0.00000000000E+00  0.72137332886E+02  0.72137332931E+02  0.25500000000E-02 0. -1.
          2   -1    0    0  501    0  0.00000000000E+00 -0.00000000000E+00 -0.46763502247E+03  0.46763502248E+03  0.25500000000E-02 0.  1.
    5000001    1    1    2    0    0 -0.12652397308E+03 -0.58361897466E+00 -0.13904013108E+03  0.22686959785E+03  0.12700000000E+03 0.  0.
   -5000001    1    1    2    0    0  0.12652397308E+03  0.58361897466E+00 -0.25645755850E+03  0.31290275756E+03  0.12700000000E+03 0.  0.
<mgrwt>
<rscale>  0 0.36733605E+03</rscale>
<asrwt>0</asrwt>
<pdfrwt beam="1">  1        2 0.66805001E-01 0.36733605E+03</pdfrwt>
<pdfrwt beam="2">  1       -2 0.10305334E-01 0.36733605E+03</pdfrwt>
<totfact> 0.46348375E+03</totfact>
</mgrwt>
</event>
<event>
 4    1  0.2621617E-004  0.2695804E+03  0.7818608E-02  0.1101520E+00
          2   -1    0    0  501    0  0.00000000000E+00  0.00000000000E+00  0.25222564587E+04  0.25222564587E+04  0.25500000000E-02 0.  1.
         -2   -1    0    0    0  501 -0.00000000000E+00 -0.00000000000E+00 -0.72032292489E+01  0.72032297002E+01  0.25500000000E-02 0. -1.
    5000001    1    1    2    0    0  0.37041944773E+02 -0.69515095523E+01  0.10240884643E+04  0.10326212335E+04  0.12700000000E+03 0.  0.
   -5000001    1    1    2    0    0 -0.37041944773E+02  0.69515095523E+01  0.14909647652E+04  0.14968384550E+04  0.12700000000E+03 0.  0.
<mgrwt>
<rscale>  0 0.26958036E+03</rscale>
<asrwt>0</asrwt>
<pdfrwt beam="1">  1        2 0.36032314E+00 0.26958036E+03</pdfrwt>
<pdfrwt beam="2">  1       -2 0.10290305E-02 0.26958036E+03</pdfrwt>
<totfact> 0.99932074E+03</totfact>
</mgrwt>
</event>
<event>
 4    1  0.2621617E-004  0.4208525E+03  0.7818608E-02  0.1036789E+00
          2   -1    0    0  501    0  0.00000000000E+00  0.00000000000E+00  0.10130444837E+03  0.10130444840E+03  0.25500000000E-02 0.  1.
         -2   -1    0    0    0  501 -0.00000000000E+00 -0.00000000000E+00 -0.43709044239E+03  0.43709044240E+03  0.25500000000E-02 0. -1.
    5000001    1    1    2    0    0 -0.16765087358E+03 -0.63332175536E+01 -0.17021029147E+03  0.27064269504E+03  0.12700000000E+03 0.  0.
   -5000001    1    1    2    0    0  0.16765087358E+03  0.63332175536E+01 -0.16557570255E+03  0.26775219576E+03  0.12700000000E+03 0.  0.
<mgrwt>
<rscale>  0 0.42085250E+03</rscale>
<asrwt>0</asrwt>
<pdfrwt beam="1">  1        2 0.14472064E-01 0.42085250E+03</pdfrwt>
<pdfrwt beam="2">  1       -2 0.62441491E-01 0.42085250E+03</pdfrwt>
<totfact> 0.99768512E+02</totfact>
</mgrwt>
</event>
<event>
 4    1  0.2621617E-004  0.6449564E+03  0.7818608E-02  0.9816289E-01
         -2   -1    0    0    0  501 -0.00000000000E+00  0.00000000000E+00  0.11034753585E+03  0.11034753587E+03  0.25500000000E-02 0. -1.
          2   -1    0    0  501    0  0.00000000000E+00 -0.00000000000E+00 -0.94240622450E+03  0.94240622451E+03  0.25500000000E-02 0.  1.
    5000001    1    1    2    0    0 -0.22119325768E+03 -0.25483864050E+02 -0.73542124403E+03  0.77881274433E+03  0.12700000000E+03 0.  0.
   -5000001    1    1    2    0    0  0.22119325768E+03  0.25483864050E+02 -0.96637444629E+02  0.27394101605E+03  0.12700000000E+03 0.  0.
<mgrwt>
<rscale>  0 0.64495645E+03</rscale>
<asrwt>0</asrwt>
<pdfrwt beam="1">  1        2 0.13462946E+00 0.64495645E+03</pdfrwt>
<pdfrwt beam="2">  1       -2 0.15763934E-01 0.64495645E+03</pdfrwt>
<totfact> 0.98699671E+02</totfact>
</mgrwt>
</event>
<event>
 4    1  0.2621617E-004  0.5101581E+03  0.7818608E-02  0.1011161E+00
          2   -1    0    0  501    0  0.00000000000E+00  0.00000000000E+00  0.77775396464E+03  0.77775396464E+03  0.25500000000E-02 0.  1.
         -2   -1    0    0    0  501 -0.00000000000E+00 -0.00000000000E+00 -0.83657976664E+02  0.83657976703E+02  0.25500000000E-02 0. -1.
    5000001    1    1    2    0    0  0.43969075805E+02  0.18566408716E+03  0.53607087872E+03  0.58301408207E+03  0.12700000000E+03 0.  0.
   -5000001    1    1    2    0    0 -0.43969075805E+02 -0.18566408716E+03  0.15802510926E+03  0.27839785927E+03  0.12700000000E+03 0.  0.
<mgrwt>
<rscale>  0 0.51015811E+03</rscale>
<asrwt>0</asrwt>
<pdfrwt beam="1">  1        2 0.11110771E+00 0.51015811E+03</pdfrwt>
<pdfrwt beam="2">  1       -2 0.11951139E-01 0.51015811E+03</pdfrwt>
<totfact> 0.20173244E+03</totfact>
</mgrwt>
</event>
<event>
 4    1  0.2621617E-004  0.3409904E+03  0.7818608E-02  0.1066375E+00
         -2   -1    0    0    0  501 -0.00000000000E+00  0.00000000000E+00  0.14746522311E+02  0.14746522532E+02  0.25500000000E-02 0. -1.
          2   -1    0    0  501    0  0.00000000000E+00 -0.00000000000E+00 -0.19712179413E+04  0.19712179413E+04  0.25500000000E-02 0.  1.
    5000001    1    1    2    0    0  0.88454274636E+02  0.42310843008E+02 -0.13140823979E+04  0.13238413480E+04  0.12700000000E+03 0.  0.
   -5000001    1    1    2    0    0 -0.88454274636E+02 -0.42310843008E+02 -0.64238902104E+03  0.66212311581E+03  0.12700000000E+03 0.  0.
<mgrwt>
<rscale>  0 0.34099038E+03</rscale>
<asrwt>0</asrwt>
<pdfrwt beam="1">  1        2 0.28160240E+00 0.34099038E+03</pdfrwt>
<pdfrwt beam="2">  1       -2 0.21066473E-02 0.34099038E+03</pdfrwt>
<totfact> 0.65431935E+03</totfact>
</mgrwt>
</event>
<event>
 4    1  0.2621617E-004  0.8799818E+03  0.7818608E-02  0.9450957E-01
          2   -1    0    0  501    0  0.00000000000E+00  0.00000000000E+00  0.97074927447E+03  0.97074927447E+03  0.25500000000E-02 0.  1.
         -2   -1    0    0    0  501 -0.00000000000E+00 -0.00000000000E+00 -0.19942534358E+03  0.19942534360E+03  0.25500000000E-02 0. -1.
    5000001    1    1    2    0    0  0.20584353974E+03  0.97438518580E+02 -0.85604904778E+02  0.27445040987E+03  0.12700000000E+03 0.  0.
   -5000001    1    1    2    0    0 -0.20584353974E+03 -0.97438518580E+02  0.85692883566E+03  0.89572420820E+03  0.12700000000E+03 0.  0.
<mgrwt>
<rscale>  0 0.87998184E+03</rscale>
<asrwt>0</asrwt>
<pdfrwt beam="1">  1        2 0.13867847E+00 0.87998184E+03</pdfrwt>
<pdfrwt beam="2">  1       -2 0.28489335E-01 0.87998184E+03</pdfrwt>
<totfact> 0.33065820E+02</totfact>
</mgrwt>
</event>
<event>
 4    1  0.2621617E-004  0.3775092E+03  0.7818608E-02  0.1051858E+00
          2   -1    0    0  501    0  0.00000000000E+00  0.00000000000E+00  0.54736776757E+02  0.54736776816E+02  0.25500000000E-02 0.  1.
         -2   -1    0    0    0  501 -0.00000000000E+00 -0.00000000000E+00 -0.65090252091E+03  0.65090252092E+03  0.25500000000E-02 0. -1.
    5000001    1    1    2    0    0 -0.10684453812E+03  0.71753965208E+02 -0.19681929893E+03  0.26726620303E+03  0.12700000000E+03 0.  0.
   -5000001    1    1    2    0    0  0.10684453812E+03 -0.71753965208E+02 -0.39934644523E+03  0.43837309471E+03  0.12700000000E+03 0.  0.
<mgrwt>
<rscale>  0 0.37750924E+03</rscale>
<asrwt>0</asrwt>
<pdfrwt beam="1">  1        2 0.78195399E-02 0.37750924E+03</pdfrwt>
<pdfrwt beam="2">  1       -2 0.92986070E-01 0.37750924E+03</pdfrwt>
<totfact> 0.89484083E+02</totfact>
</mgrwt>
</event>
<event>
 4    1  0.2621617E-004  0.3966624E+03  0.7818608E-02  0.1044942E+00
         -2   -1    0    0    0  501 -0.00000000000E+00  0.00000000000E+00  0.11254119674E+03  0.11254119677E+03  0.25500000000E-02 0. -1.
          2   -1    0    0  501    0  0.00000000000E+00 -0.00000000000E+00 -0.34951881913E+03  0.34951881914E+03  0.25500000000E-02 0.  1.
    5000001    1    1    2    0    0 -0.61716167557E+01 -0.94000872954E+02 -0.25794280178E+03  0.30255204834E+03  0.12700000000E+03 0.  0.
   -5000001    1    1    2    0    0  0.61716167557E+01  0.94000872954E+02  0.20965179384E+02  0.15950796756E+03  0.12700000000E+03 0.  0.
<mgrwt>
<rscale>  0 0.39666241E+03</rscale>
<asrwt>0</asrwt>
<pdfrwt beam="1">  1        2 0.49931259E-01 0.39666241E+03</pdfrwt>
<pdfrwt beam="2">  1       -2 0.16077314E-01 0.39666241E+03</pdfrwt>
<totfact> 0.30800583E+03</totfact>
</mgrwt>
</event>
<event>
 4    1  0.2621617E-004  0.3446668E+03  0.7818608E-02  0.1064826E+00
          2   -1    0    0  501    0  0.00000000000E+00  0.00000000000E+00  0.41919002140E+03  0.41919002140E+03  0.25500000000E-02 0.  1.
         -2   -1    0    0    0  501 -0.00000000000E+00 -0.00000000000E+00 -0.70848052341E+02  0.70848052387E+02  0.25500000000E-02 0. -1.
    5000001    1    1    2    0    0 -0.28039493329E+02 -0.55744202237E+02  0.34314667514E+02  0.14560262936E+03  0.12700000000E+03 0.  0.
   -5000001    1    1    2    0    0  0.28039493329E+02  0.55744202237E+02  0.31402730154E+03  0.34443544443E+03  0.12700000000E+03 0.  0.
<mgrwt>
<rscale>  0 0.34466678E+03</rscale>
<asrwt>0</asrwt>
<pdfrwt beam="1">  1        2 0.59884288E-01 0.34466678E+03</pdfrwt>
<pdfrwt beam="2">  1       -2 0.10121150E-01 0.34466678E+03</pdfrwt>
<totfact> 0.53727050E+03</totfact>
</mgrwt>
</event>
<event>
 4    1  0.2621617E-004  0.3253029E+03  0.7818608E-02  0.1073234E+00
         -2   -1    0    0    0  501 -0.00000000000E+00  0.00000000000E+00  0.21011657599E+02  0.21011657754E+02  0.25500000000E-02 0. -1.
          2   -1    0    0  501    0  0.00000000000E+00 -0.00000000000E+00 -0.12590866155E+04  0.12590866155E+04  0.25500000000E-02 0.  1.
    5000001    1    1    2    0    0  0.55039250135E+02  0.84871027009E+02 -0.58086772099E+03  0.60313242291E+03  0.12700000000E+03 0.  0.
   -5000001    1    1    2    0    0 -0.55039250135E+02 -0.84871027009E+02 -0.65720723687E+03  0.67696585030E+03  0.12700000000E+03 0.  0.
<mgrwt>
<rscale>  0 0.32530292E+03</rscale>
<asrwt>0</asrwt>
<pdfrwt beam="1">  1        2 0.17986947E+00 0.32530292E+03</pdfrwt>
<pdfrwt beam="2">  1       -2 0.30016662E-02 0.32530292E+03</pdfrwt>
<totfact> 0.88420968E+03</totfact>
</mgrwt>
</event>
<event>
 4    1  0.2621617E-004  0.4075185E+03  0.7818608E-02  0.1041207E+00
          2   -1    0    0  501    0  0.00000000000E+00  0.00000000000E+00  0.70714601492E+03  0.70714601493E+03  0.25500000000E-02 0.  1.
         -2   -1    0    0    0  501 -0.00000000000E+00 -0.00000000000E+00 -0.58711814071E+02  0.58711814126E+02  0.25500000000E-02 0. -1.
    5000001    1    1    2    0    0 -0.14487608155E+03  0.24305161727E+02  0.44020339131E+03  0.48113183808E+03  0.12700000000E+03 0.  0.
   -5000001    1    1    2    0    0  0.14487608155E+03 -0.24305161727E+02  0.20823080954E+03  0.28472599097E+03  0.12700000000E+03 0.  0.
<mgrwt>
<rscale>  0 0.40751847E+03</rscale>
<asrwt>0</asrwt>
<pdfrwt beam="1">  1        2 0.10102085E+00 0.40751847E+03</pdfrwt>
<pdfrwt beam="2">  1       -2 0.83874029E-02 0.40751847E+03</pdfrwt>
<totfact> 0.40060151E+03</totfact>
</mgrwt>
</event>
<event>
 4    1  0.2621617E-004  0.7149961E+03  0.7818608E-02  0.9691925E-01
          2   -1    0    0  501    0  0.00000000000E+00  0.00000000000E+00  0.28765837689E+04  0.28765837689E+04  0.25500000000E-02 0.  1.
         -2   -1    0    0    0  501 -0.00000000000E+00 -0.00000000000E+00 -0.44429393686E+02  0.44429393759E+02  0.25500000000E-02 0. -1.
    5000001    1    1    2    0    0  0.12501945010E+02 -0.30387438584E+03  0.19818646792E+04  0.20090825139E+04  0.12700000000E+03 0.  0.
   -5000001    1    1    2    0    0 -0.12501945010E+02  0.30387438584E+03  0.85028969603E+03  0.91193064877E+03  0.12700000000E+03 0.  0.
<mgrwt>
<rscale>  0 0.71499615E+03</rscale>
<asrwt>0</asrwt>
<pdfrwt beam="1">  1        2 0.41094050E+00 0.71499615E+03</pdfrwt>
<pdfrwt beam="2">  1       -2 0.63470569E-02 0.71499615E+03</pdfrwt>
<totfact> 0.41107525E+02</totfact>
</mgrwt>
</event>
<event>
 4    1  0.2621617E-004  0.5271285E+03  0.7818608E-02  0.1006931E+00
         -2   -1    0    0    0  501 -0.00000000000E+00  0.00000000000E+00  0.47269168541E+02  0.47269168609E+02  0.25500000000E-02 0. -1.
          2   -1    0    0  501    0  0.00000000000E+00 -0.00000000000E+00 -0.14695859279E+04  0.14695859279E+04  0.25500000000E-02 0.  1.
    5000001    1    1    2    0    0 -0.72697397721E+02  0.20485099685E+03 -0.48662841559E+03  0.54789146499E+03  0.12700000000E+03 0.  0.
   -5000001    1    1    2    0    0  0.72697397721E+02 -0.20485099685E+03 -0.93568834374E+03  0.96896363150E+03  0.12700000000E+03 0.  0.
<mgrwt>
<rscale>  0 0.52712847E+03</rscale>
<asrwt>0</asrwt>
<pdfrwt beam="1">  1        2 0.20994082E+00 0.52712847E+03</pdfrwt>
<pdfrwt beam="2">  1       -2 0.67527393E-02 0.52712847E+03</pdfrwt>
<totfact> 0.19822678E+03</totfact>
</mgrwt>
</event>
<event>
 4    1  0.2621617E-004  0.3876042E+03  0.7818608E-02  0.1048158E+00
          2   -1    0    0  501    0  0.00000000000E+00  0.00000000000E+00  0.17188099326E+04  0.17188099326E+04  0.25500000000E-02 0.  1.
         -2   -1    0    0    0  501 -0.00000000000E+00 -0.00000000000E+00 -0.21851895304E+02  0.21851895452E+02  0.25500000000E-02 0. -1.
    5000001    1    1    2    0    0  0.58733215293E+02 -0.13099639150E+03  0.97712441193E+03  0.99574633394E+03  0.12700000000E+03 0.  0.
   -5000001    1    1    2    0    0 -0.58733215293E+02  0.13099639150E+03  0.71983362541E+03  0.74491549416E+03  0.12700000000E+03 0.  0.
<mgrwt>
<rscale>  0 0.38760420E+03</rscale>
<asrwt>0</asrwt>
<pdfrwt beam="1">  1        2 0.24554424E+00 0.38760420E+03</pdfrwt>
<pdfrwt beam="2">  1       -2 0.31216998E-02 0.38760420E+03</pdfrwt>
<totfact> 0.48496797E+03</totfact>
</mgrwt>
</event>
<event>
 4    1  0.2621617E-004  0.3291143E+03  0.7818608E-02  0.1071529E+00
         -2   -1    0    0    0  501 -0.00000000000E+00  0.00000000000E+00  0.46387518053E+03  0.46387518054E+03  0.25500000000E-02 0. -1.
          2   -1    0    0  501    0  0.00000000000E+00 -0.00000000000E+00 -0.58375744982E+02  0.58375745038E+02  0.25500000000E-02 0.  1.
    5000001    1    1    2    0    0 -0.94048505801E+02 -0.36210177086E+02  0.15804253694E+03  0.22641276874E+03  0.12700000000E+03 0.  0.
   -5000001    1    1    2    0    0  0.94048505801E+02  0.36210177086E+02  0.24745689861E+03  0.29583815683E+03  0.12700000000E+03 0.  0.
<mgrwt>
<rscale>  0 0.32911432E+03</rscale>
<asrwt>0</asrwt>
<pdfrwt beam="1">  1        2 0.83393920E-02 0.32911432E+03</pdfrwt>
<pdfrwt beam="2">  1       -2 0.66267884E-01 0.32911432E+03</pdfrwt>
<totfact> 0.17371440E+03</totfact>
</mgrwt>
</event>
<event>
 4    1  0.2621617E-004  0.3655833E+03  0.7818608E-02  0.1056395E+00
          2   -1    0    0  501    0  0.00000000000E+00  0.00000000000E+00  0.14598087422E+04  0.14598087422E+04  0.25500000000E-02 0.  1.
         -2   -1    0    0    0  501 -0.00000000000E+00 -0.00000000000E+00 -0.22888462899E+02  0.22888463041E+02  0.25500000000E-02 0. -1.
    5000001    1    1    2    0    0  0.10269099132E+03 -0.59322545340E+01  0.38640856029E+03  0.41954881338E+03  0.12700000000E+03 0.  0.
   -5000001    1    1    2    0    0 -0.10269099132E+03  0.59322545340E+01  0.10505117190E+04  0.10631483919E+04  0.12700000000E+03 0.  0.
<mgrwt>
<rscale>  0 0.36558325E+03</rscale>
<asrwt>0</asrwt>
<pdfrwt beam="1">  1        2 0.20854419E+00 0.36558325E+03</pdfrwt>
<pdfrwt beam="2">  1       -2 0.32697790E-02 0.36558325E+03</pdfrwt>
<totfact> 0.61136686E+03</totfact>
</mgrwt>
</event>
<event>
 4    1  0.2621617E-004  0.3739517E+03  0.7818608E-02  0.1053192E+00
         -2   -1    0    0    0  501 -0.00000000000E+00  0.00000000000E+00  0.58044859178E+02  0.58044859234E+02  0.25500000000E-02 0. -1.
          2   -1    0    0  501    0  0.00000000000E+00 -0.00000000000E+00 -0.60229229180E+03  0.60229229180E+03  0.25500000000E-02 0.  1.
    5000001    1    1    2    0    0 -0.36635430293E+02  0.13200779116E+03 -0.25813459955E+03  0.31863879733E+03  0.12700000000E+03 0.  0.
   -5000001    1    1    2    0    0  0.36635430293E+02 -0.13200779116E+03 -0.28611283307E+03  0.34169835371E+03  0.12700000000E+03 0.  0.
<mgrwt>
<rscale>  0 0.37395171E+03</rscale>
<asrwt>0</asrwt>
<pdfrwt beam="1">  1        2 0.86041752E-01 0.37395171E+03</pdfrwt>
<pdfrwt beam="2">  1       -2 0.82921231E-02 0.37395171E+03</pdfrwt>
<totfact> 0.49231769E+03</totfact>
</mgrwt>
</event>
<event>
 4    1  0.2621617E-004  0.4966675E+03  0.7818608E-02  0.1014652E+00
          2   -1    0    0  501    0  0.00000000000E+00  0.00000000000E+00  0.32625008189E+03  0.32625008190E+03  0.25500000000E-02 0.  1.
         -2   -1    0    0    0  501 -0.00000000000E+00 -0.00000000000E+00 -0.18902566798E+03  0.18902566800E+03  0.25500000000E-02 0. -1.
    5000001    1    1    2    0    0 -0.18469139483E+03  0.10491296945E+03  0.47274745913E+02  0.25195544067E+03  0.12700000000E+03 0.  0.
   -5000001    1    1    2    0    0  0.18469139483E+03 -0.10491296945E+03  0.89949667996E+02  0.26332030923E+03  0.12700000000E+03 0.  0.
<mgrwt>
<rscale>  0 0.49666745E+03</rscale>
<asrwt>0</asrwt>
<pdfrwt beam="1">  1        2 0.46607154E-01 0.49666745E+03</pdfrwt>
<pdfrwt beam="2">  1       -2 0.27003667E-01 0.49666745E+03</pdfrwt>
<totfact> 0.13497243E+03</totfact>
</mgrwt>
</event>
<event>
 4    1  0.2621617E-004  0.3698689E+03  0.7818608E-02  0.1054743E+00
         -2   -1    0    0    0  501 -0.00000000000E+00  0.00000000000E+00  0.23894966422E+02  0.23894966558E+02  0.25500000000E-02 0. -1.
          2   -1    0    0  501    0  0.00000000000E+00 -0.00000000000E+00 -0.14312955300E+04  0.14312955300E+04  0.25500000000E-02 0.  1.
    5000001    1    1    2    0    0 -0.11389878972E+03 -0.47156500260E+01 -0.42337781672E+03  0.45647885750E+03  0.12700000000E+03 0.  0.
   -5000001    1    1    2    0    0  0.11389878972E+03  0.47156500260E+01 -0.98402274686E+03  0.99871163906E+03  0.12700000000E+03 0.  0.
<mgrwt>
<rscale>  0 0.36986894E+03</rscale>
<asrwt>0</asrwt>
<pdfrwt beam="1">  1        2 0.20447074E+00 0.36986894E+03</pdfrwt>
<pdfrwt beam="2">  1       -2 0.34135675E-02 0.36986894E+03</pdfrwt>
<totfact> 0.59280647E+03</totfact>
</mgrwt>
</event>
<event>
 4    1  0.2621617E-004  0.6858211E+03  0.7818608E-02  0.9741792E-01
          2   -1    0    0  501    0  0.00000000000E+00  0.00000000000E+00  0.24663156352E+04  0.24663156352E+04  0.25500000000E-02 0.  1.
         -2   -1    0    0    0  501 -0.00000000000E+00 -0.00000000000E+00 -0.47677445868E+02  0.47677445936E+02  0.25500000000E-02 0. -1.
    5000001    1    1    2    0    0 -0.26532078159E+02 -0.20054631917E+03  0.21112216065E+04  0.21246902007E+04  0.12700000000E+03 0.  0.
   -5000001    1    1    2    0    0  0.26532078159E+02  0.20054631917E+03  0.30741658288E+03  0.38930288046E+03  0.12700000000E+03 0.  0.
<mgrwt>
<rscale>  0 0.68582106E+03</rscale>
<asrwt>0</asrwt>
<pdfrwt beam="1">  1        2 0.35233083E+00 0.68582106E+03</pdfrwt>
<pdfrwt beam="2">  1       -2 0.68110631E-02 0.68582106E+03</pdfrwt>
<totfact> 0.60516371E+02</totfact>
</mgrwt>
</event>
<event>
 4    1  0.2621617E-004  0.4112199E+03  0.7818608E-02  0.1039962E+00
         -2   -1    0    0    0  501 -0.00000000000E+00  0.00000000000E+00  0.57407292455E+03  0.57407292455E+03  0.25500000000E-02 0. -1.
          2   -1    0    0  501    0  0.00000000000E+00 -0.00000000000E+00 -0.73641239385E+02  0.73641239429E+02  0.25500000000E-02 0.  1.
    5000001    1    1    2    0    0 -0.12613028233E+03  0.51185781908E+02  0.11274244427E+03  0.21764349550E+03  0.12700000000E+03 0.  0.
   -5000001    1    1    2    0    0  0.12613028233E+03 -0.51185781908E+02  0.38768924089E+03  0.43007066849E+03  0.12700000000E+03 0.  0.
<mgrwt>
<rscale>  0 0.41121985E+03</rscale>
<asrwt>0</asrwt>
<pdfrwt beam="1">  1        2 0.10520177E-01 0.41121985E+03</pdfrwt>
<pdfrwt beam="2">  1       -2 0.82010415E-01 0.41121985E+03</pdfrwt>
<totfact> 0.81682381E+02</totfact>
</mgrwt>
</event>
<event>
 4    1  0.2621617E-004  0.3206820E+03  0.7818608E-02  0.1075336E+00
         -2   -1    0    0    0  501 -0.00000000000E+00  0.00000000000E+00  0.68396471916E+03  0.68396471917E+03  0.25500000000E-02 0. -1.
          2   -1    0    0  501    0  0.00000000000E+00 -0.00000000000E+00 -0.37588534151E+02  0.37588534237E+02  0.25500000000E-02 0.  1.
    5000001    1    1    2    0    0 -0.52815081947E+02  0.60831900181E+02  0.19810671864E+03  0.24872720987E+03  0.12700000000E+03 0.  0.
   -5000001    1    1    2    0    0  0.52815081947E+02 -0.60831900181E+02  0.44826946637E+03  0.47282604353E+03  0.12700000000E+03 0.  0.
<mgrwt>
<rscale>  0 0.32068197E+03</rscale>
<asrwt>0</asrwt>
<pdfrwt beam="1">  1        2 0.53697908E-02 0.32068197E+03</pdfrwt>
<pdfrwt beam="2">  1       -2 0.97709242E-01 0.32068197E+03</pdfrwt>
<totfact> 0.13002109E+03</totfact>
</mgrwt>
</event>
<event>
 4    1  0.2621617E-004  0.6160780E+03  0.7818608E-02  0.9872600E-01
         -2   -1    0    0    0  501 -0.00000000000E+00  0.00000000000E+00  0.37421376396E+03  0.37421376397E+03  0.25500000000E-02 0. -1.
          2   -1    0    0  501    0  0.00000000000E+00 -0.00000000000E+00 -0.25356637625E+03  0.25356637626E+03  0.25500000000E-02 0.  1.
    5000001    1    1    2    0    0  0.82694708319E+02 -0.24800201774E+03  0.16431912823E+03  0.33387601215E+03  0.12700000000E+03 0.  0.
   -5000001    1    1    2    0    0 -0.82694708319E+02  0.24800201774E+03 -0.43671740522E+02  0.29390412809E+03  0.12700000000E+03 0.  0.
<mgrwt>
<rscale>  0 0.61607801E+03</rscale>
<asrwt>0</asrwt>
<pdfrwt beam="1">  1        2 0.36223768E-01 0.61607801E+03</pdfrwt>
<pdfrwt beam="2">  1       -2 0.53459110E-01 0.61607801E+03</pdfrwt>
<totfact> 0.47852070E+02</totfact>
</mgrwt>
</event>
<event>
 4    1  0.2621617E-004  0.4271571E+03  0.7818608E-02  0.1034762E+00
          2   -1    0    0  501    0  0.00000000000E+00  0.00000000000E+00  0.62872267903E+03  0.62872267904E+03  0.25500000000E-02 0.  1.
         -2   -1    0    0    0  501 -0.00000000000E+00 -0.00000000000E+00 -0.72553127726E+02  0.72553127771E+02  0.25500000000E-02 0. -1.
    5000001    1    1    2    0    0 -0.12943842725E+03  0.56566774546E+02  0.11779383681E+03  0.22351396919E+03  0.12700000000E+03 0.  0.
   -5000001    1    1    2    0    0  0.12943842725E+03 -0.56566774546E+02  0.43837571450E+03  0.47776183762E+03  0.12700000000E+03 0.  0.
<mgrwt>
<rscale>  0 0.42715710E+03</rscale>
<asrwt>0</asrwt>
<pdfrwt beam="1">  1        2 0.89817526E-01 0.42715710E+03</pdfrwt>
<pdfrwt beam="2">  1       -2 0.10364732E-01 0.42715710E+03</pdfrwt>
<totfact> 0.32878593E+03</totfact>
</mgrwt>
</event>
<event>
 4    1  0.2621617E-004  0.3042150E+03  0.7818608E-02  0.1083152E+00
         -2   -1    0    0    0  501 -0.00000000000E+00  0.00000000000E+00  0.30836378528E+02  0.30836378634E+02  0.25500000000E-02 0. -1.
          2   -1    0    0  501    0  0.00000000000E+00 -0.00000000000E+00 -0.75030532713E+03  0.75030532713E+03  0.25500000000E-02 0.  1.
    5000001    1    1    2    0    0  0.36926948904E+02 -0.72667355600E+02 -0.40869366043E+03  0.43566460976E+03  0.12700000000E+03 0.  0.
   -5000001    1    1    2    0    0 -0.36926948904E+02  0.72667355600E+02 -0.31077528817E+03  0.34547709601E+03  0.12700000000E+03 0.  0.
<mgrwt>
<rscale>  0 0.30421505E+03</rscale>
<asrwt>0</asrwt>
<pdfrwt beam="1">  1        2 0.10718646E+00 0.30421505E+03</pdfrwt>
<pdfrwt beam="2">  1       -2 0.44051974E-02 0.30421505E+03</pdfrwt>
<totfact> 0.10024188E+04</totfact>
</mgrwt>
</event>
<event>
 4    1  0.2621617E-004  0.5313829E+03  0.7818608E-02  0.1005897E+00
          2   -1    0    0  501    0  0.00000000000E+00  0.00000000000E+00  0.14131825053E+04  0.14131825053E+04  0.25500000000E-02 0.  1.
         -2   -1    0    0    0  501 -0.00000000000E+00 -0.00000000000E+00 -0.49952457853E+02  0.49952457918E+02  0.25500000000E-02 0. -1.
    5000001    1    1    2    0    0 -0.14483614726E+03  0.14466707820E+03  0.37307076183E+03  0.44409105643E+03  0.12700000000E+03 0.  0.
   -5000001    1    1    2    0    0  0.14483614726E+03 -0.14466707820E+03  0.99015928563E+03  0.10190439068E+04  0.12700000000E+03 0.  0.
<mgrwt>
<rscale>  0 0.53138287E+03</rscale>
<asrwt>0</asrwt>
<pdfrwt beam="1">  1        2 0.20188324E+00 0.53138287E+03</pdfrwt>
<pdfrwt beam="2">  1       -2 0.71360646E-02 0.53138287E+03</pdfrwt>
<totfact> 0.19450116E+03</totfact>
</mgrwt>
</event>
<event>
 4    1  0.2621617E-004  0.3404251E+03  0.7818608E-02  0.1066615E+00
          2   -1    0    0  501    0  0.00000000000E+00  0.00000000000E+00  0.47221381880E+02  0.47221381949E+02  0.25500000000E-02 0.  1.
         -2   -1    0    0    0  501 -0.00000000000E+00 -0.00000000000E+00 -0.61354236377E+03  0.61354236377E+03  0.25500000000E-02 0. -1.
    5000001    1    1    2    0    0 -0.80925781951E+02  0.70872996805E+02 -0.35236874705E+03  0.38969821369E+03  0.12700000000E+03 0.  0.
   -5000001    1    1    2    0    0  0.80925781951E+02 -0.70872996805E+02 -0.21395223484E+03  0.27106553203E+03  0.12700000000E+03 0.  0.
<mgrwt>
<rscale>  0 0.34042514E+03</rscale>
<asrwt>0</asrwt>
<pdfrwt beam="1">  1        2 0.67459121E-02 0.34042514E+03</pdfrwt>
<pdfrwt beam="2">  1       -2 0.87648904E-01 0.34042514E+03</pdfrwt>
<totfact> 0.12374822E+03</totfact>
</mgrwt>
</event>
<event>
 4    1  0.2621617E-004  0.3401895E+03  0.7818608E-02  0.1066715E+00
          2   -1    0    0  501    0  0.00000000000E+00  0.00000000000E+00  0.91081233818E+03  0.91081233819E+03  0.25500000000E-02 0.  1.
         -2   -1    0    0    0  501 -0.00000000000E+00 -0.00000000000E+00 -0.31765298859E+02  0.31765298961E+02  0.25500000000E-02 0. -1.
    5000001    1    1    2    0    0  0.58823353497E+02  0.88199828560E+02  0.32995370896E+03  0.36910411367E+03  0.12700000000E+03 0.  0.
   -5000001    1    1    2    0    0 -0.58823353497E+02 -0.88199828560E+02  0.54909333037E+03  0.57347352348E+03  0.12700000000E+03 0.  0.
<mgrwt>
<rscale>  0 0.34018951E+03</rscale>
<asrwt>0</asrwt>
<pdfrwt beam="1">  1        2 0.13011605E+00 0.34018951E+03</pdfrwt>
<pdfrwt beam="2">  1       -2 0.45378996E-02 0.34018951E+03</pdfrwt>
<totfact> 0.75263186E+03</totfact>
</mgrwt>
</event>
<event>
 4    1  0.2621617E-004  0.6356178E+03  0.7818608E-02  0.9834147E-01
         -2   -1    0    0    0  501 -0.00000000000E+00  0.00000000000E+00  0.11026077165E+03  0.11026077168E+03  0.25500000000E-02 0. -1.
          2   -1    0    0  501    0  0.00000000000E+00 -0.00000000000E+00 -0.91603289919E+03  0.91603289919E+03  0.25500000000E-02 0.  1.
    5000001    1    1    2    0    0  0.22170293967E+03  0.97141929696E+02 -0.66466066144E+03  0.71867346050E+03  0.12700000000E+03 0.  0.
   -5000001    1    1    2    0    0 -0.22170293967E+03 -0.97141929696E+02 -0.14111146611E+03  0.30762021037E+03  0.12700000000E+03 0.  0.
<mgrwt>
<rscale>  0 0.63561779E+03</rscale>
<asrwt>0</asrwt>
<pdfrwt beam="1">  1        2 0.13086184E+00 0.63561779E+03</pdfrwt>
<pdfrwt beam="2">  1       -2 0.15751539E-01 0.63561779E+03</pdfrwt>
<totfact> 0.10274288E+03</totfact>
</mgrwt>
</event>
<event>
 4    1  0.2621617E-004  0.4706873E+03  0.7818608E-02  0.1021726E+00
          2   -1    0    0  501    0  0.00000000000E+00  0.00000000000E+00  0.35224547179E+03  0.35224547180E+03  0.25500000000E-02 0.  1.
         -2   -1    0    0    0  501 -0.00000000000E+00 -0.00000000000E+00 -0.15723874103E+03  0.15723874105E+03  0.25500000000E-02 0. -1.
    5000001    1    1    2    0    0 -0.10203571897E+03  0.80712121057E+02 -0.64252890296E+02  0.19282937624E+03  0.12700000000E+03 0.  0.
   -5000001    1    1    2    0    0  0.10203571897E+03 -0.80712121057E+02  0.25925962106E+03  0.31665483660E+03  0.12700000000E+03 0.  0.
<mgrwt>
<rscale>  0 0.47068730E+03</rscale>
<asrwt>0</asrwt>
<pdfrwt beam="1">  1        2 0.50320782E-01 0.47068730E+03</pdfrwt>
<pdfrwt beam="2">  1       -2 0.22462677E-01 0.47068730E+03</pdfrwt>
<totfact> 0.17226876E+03</totfact>
</mgrwt>
</event>
<event>
 4    1  0.2621617E-004  0.2840517E+03  0.7818608E-02  0.1093496E+00
         -2   -1    0    0    0  501 -0.00000000000E+00  0.00000000000E+00  0.18744263860E+02  0.18744264034E+02  0.25500000000E-02 0. -1.
          2   -1    0    0  501    0  0.00000000000E+00 -0.00000000000E+00 -0.10761338305E+04  0.10761338305E+04  0.25500000000E-02 0.  1.
    5000001    1    1    2    0    0 -0.47895595545E+01 -0.41861771629E+02 -0.34517067752E+03  0.37019879041E+03  0.12700000000E+03 0.  0.
   -5000001    1    1    2    0    0  0.47895595545E+01  0.41861771629E+02 -0.71221888913E+03  0.72467930413E+03  0.12700000000E+03 0.  0.
<mgrwt>
<rscale>  0 0.28405166E+03</rscale>
<asrwt>0</asrwt>
<pdfrwt beam="1">  1        2 0.15373337E+00 0.28405166E+03</pdfrwt>
<pdfrwt beam="2">  1       -2 0.26777527E-02 0.28405166E+03</pdfrwt>
<totfact> 0.13175994E+04</totfact>
</mgrwt>
</event>
<event>
 4    1  0.2621617E-004  0.7201880E+03  0.7818608E-02  0.9683318E-01
         -2   -1    0    0    0  501 -0.00000000000E+00  0.00000000000E+00  0.48787194679E+02  0.48787194746E+02  0.25500000000E-02 0. -1.
          2   -1    0    0  501    0  0.00000000000E+00 -0.00000000000E+00 -0.26578222073E+04  0.26578222073E+04  0.25500000000E-02 0.  1.
    5000001    1    1    2    0    0  0.29945283041E+02  0.32855894360E+03 -0.10471154782E+04  0.11051821226E+04  0.12700000000E+03 0.  0.
   -5000001    1    1    2    0    0 -0.29945283041E+02 -0.32855894360E+03 -0.15619195345E+04  0.16014272795E+04  0.12700000000E+03 0.  0.
<mgrwt>
<rscale>  0 0.72018800E+03</rscale>
<asrwt>0</asrwt>
<pdfrwt beam="1">  1        2 0.37968879E+00 0.72018800E+03</pdfrwt>
<pdfrwt beam="2">  1       -2 0.69696009E-02 0.72018800E+03</pdfrwt>
<totfact> 0.46291922E+02</totfact>
</mgrwt>
</event>
<event>
 4    1  0.2621617E-004  0.4508238E+03  0.7818608E-02  0.1027477E+00
         -2   -1    0    0    0  501 -0.00000000000E+00  0.00000000000E+00  0.33604130032E+02  0.33604130129E+02  0.25500000000E-02 0. -1.
          2   -1    0    0  501    0  0.00000000000E+00 -0.00000000000E+00 -0.15120319463E+04  0.15120319463E+04  0.25500000000E-02 0.  1.
    5000001    1    1    2    0    0  0.16225010894E+03  0.27494807340E+02 -0.44031779957E+03  0.48691870666E+03  0.12700000000E+03 0.  0.
   -5000001    1    1    2    0    0 -0.16225010894E+03 -0.27494807340E+02 -0.10381100167E+04  0.10587173698E+04  0.12700000000E+03 0.  0.
<mgrwt>
<rscale>  0 0.45082377E+03</rscale>
<asrwt>0</asrwt>
<pdfrwt beam="1">  1        2 0.21600452E+00 0.45082377E+03</pdfrwt>
<pdfrwt beam="2">  1       -2 0.48005910E-02 0.45082377E+03</pdfrwt>
<totfact> 0.32067431E+03</totfact>
</mgrwt>
</event>
<event>
 4    1  0.2621617E-004  0.3937954E+03  0.7818608E-02  0.1045950E+00
          2   -1    0    0  501    0  0.00000000000E+00  0.00000000000E+00  0.12989353779E+04  0.12989353779E+04  0.25500000000E-02 0.  1.
         -2   -1    0    0    0  501 -0.00000000000E+00 -0.00000000000E+00 -0.29846520318E+02  0.29846520427E+02  0.25500000000E-02 0. -1.
    5000001    1    1    2    0    0 -0.14940349490E+03  0.37648394308E+01  0.69338916981E+03  0.72059220029E+03  0.12700000000E+03 0.  0.
   -5000001    1    1    2    0    0  0.14940349490E+03 -0.37648394308E+01  0.57569968782E+03  0.60818969809E+03  0.12700000000E+03 0.  0.
<mgrwt>
<rscale>  0 0.39379538E+03</rscale>
<asrwt>0</asrwt>
<pdfrwt beam="1">  1        2 0.18556216E+00 0.39379538E+03</pdfrwt>
<pdfrwt beam="2">  1       -2 0.42637894E-02 0.39379538E+03</pdfrwt>
<totfact> 0.49702891E+03</totfact>
</mgrwt>
</event>
<event>
 4    1  0.2621617E-004  0.7507072E+03  0.7818608E-02  0.9634242E-01
          2   -1    0    0  501    0  0.00000000000E+00  0.00000000000E+00  0.40511103824E+04  0.40511103824E+04  0.25500000000E-02 0.  1.
         -2   -1    0    0    0  501 -0.00000000000E+00 -0.00000000000E+00 -0.34778197701E+02  0.34778197794E+02  0.25500000000E-02 0. -1.
    5000001    1    1    2    0    0  0.11892051986E+03 -0.32892263323E+03  0.17399151452E+04  0.17792599307E+04  0.12700000000E+03 0.  0.
   -5000001    1    1    2    0    0 -0.11892051986E+03  0.32892263323E+03  0.22764170396E+04  0.23066286495E+04  0.12700000000E+03 0.  0.
<mgrwt>
<rscale>  0 0.75070718E+03</rscale>
<asrwt>0</asrwt>
<pdfrwt beam="1">  1        2 0.57873011E+00 0.75070718E+03</pdfrwt>
<pdfrwt beam="2">  1       -2 0.49683135E-02 0.75070718E+03</pdfrwt>
<totfact> 0.11922459E+02</totfact>
</mgrwt>
</event>
<event>
 4    1  0.2621617E-004  0.3549964E+03  0.7818608E-02  0.1060583E+00
         -2   -1    0    0    0  501 -0.00000000000E+00  0.00000000000E+00  0.32563245782E+02  0.32563245882E+02  0.25500000000E-02 0. -1.
          2   -1    0    0  501    0  0.00000000000E+00 -0.00000000000E+00 -0.96752081584E+03  0.96752081584E+03  0.25500000000E-02 0.  1.
    5000001    1    1    2    0    0  0.81853349809E+02  0.87690665032E+02 -0.37897336061E+03  0.41730016974E+03  0.12700000000E+03 0.  0.
   -5000001    1    1    2    0    0 -0.81853349809E+02 -0.87690665032E+02 -0.55598420944E+03  0.58278389199E+03  0.12700000000E+03 0.  0.
<mgrwt>
<rscale>  0 0.35499644E+03</rscale>
<asrwt>0</asrwt>
<pdfrwt beam="1">  1        2 0.13821724E+00 0.35499644E+03</pdfrwt>
<pdfrwt beam="2">  1       -2 0.46518928E-02 0.35499644E+03</pdfrwt>
<totfact> 0.66926410E+03</totfact>
</mgrwt>
</event>
<event>
 4    1  0.2621617E-004  0.3239081E+03  0.7818608E-02  0.1073865E+00
         -2   -1    0    0    0  501 -0.00000000000E+00  0.00000000000E+00  0.12076998600E+02  0.12076998870E+02  0.25500000000E-02 0. -1.
          2   -1    0    0  501    0  0.00000000000E+00 -0.00000000000E+00 -0.21718243102E+04  0.21718243102E+04  0.25500000000E-02 0.  1.
    5000001    1    1    2    0    0  0.91830451853E+02 -0.19131643075E+02 -0.13230909757E+04  0.13324779855E+04  0.12700000000E+03 0.  0.
   -5000001    1    1    2    0    0 -0.91830451853E+02  0.19131643075E+02 -0.83665633590E+03  0.85142332365E+03  0.12700000000E+03 0.  0.
<mgrwt>
<rscale>  0 0.32390813E+03</rscale>
<asrwt>0</asrwt>
<pdfrwt beam="1">  1        2 0.31026037E+00 0.32390813E+03</pdfrwt>
<pdfrwt beam="2">  1       -2 0.17252869E-02 0.32390813E+03</pdfrwt>
<totfact> 0.70036125E+03</totfact>
</mgrwt>
</event>
<event>
 4    1  0.2621617E-004  0.7644583E+03  0.7818608E-02  0.9612937E-01
         -2   -1    0    0    0  501 -0.00000000000E+00  0.00000000000E+00  0.11971243273E+03  0.11971243276E+03  0.25500000000E-02 0. -1.
          2   -1    0    0  501    0  0.00000000000E+00 -0.00000000000E+00 -0.12204172951E+04  0.12204172951E+04  0.25500000000E-02 0.  1.
    5000001    1    1    2    0    0 -0.22610074793E+03 -0.23883793011E+03 -0.29148866338E+03  0.45744917308E+03  0.12700000000E+03 0.  0.
   -5000001    1    1    2    0    0  0.22610074793E+03  0.23883793011E+03 -0.80921619899E+03  0.88268055477E+03  0.12700000000E+03 0.  0.
<mgrwt>
<rscale>  0 0.76445830E+03</rscale>
<asrwt>0</asrwt>
<pdfrwt beam="1">  1        2 0.17434532E+00 0.76445830E+03</pdfrwt>
<pdfrwt beam="2">  1       -2 0.17101777E-01 0.76445830E+03</pdfrwt>
<totfact> 0.58571904E+02</totfact>
</mgrwt>
</event>
<event>
 4    1  0.2621617E-004  0.5285928E+03  0.7818608E-02  0.1006574E+00
          2   -1    0    0  501    0  0.00000000000E+00  0.00000000000E+00  0.71933811559E+03  0.71933811559E+03  0.25500000000E-02 0.  1.
         -2   -1    0    0    0  501 -0.00000000000E+00 -0.00000000000E+00 -0.97106761399E+02  0.97106761432E+02  0.25500000000E-02 0. -1.
    5000001    1    1    2    0    0 -0.18037821667E+03  0.13320961441E+03  0.40173944038E+03  0.47728888567E+03  0.12700000000E+03 0.  0.
   -5000001    1    1    2    0    0  0.18037821667E+03 -0.13320961441E+03  0.22049191380E+03  0.33915599136E+03  0.12700000000E+03 0.  0.
<mgrwt>
<rscale>  0 0.52859283E+03</rscale>
<asrwt>0</asrwt>
<pdfrwt beam="1">  1        2 0.10276259E+00 0.52859283E+03</pdfrwt>
<pdfrwt beam="2">  1       -2 0.13872395E-01 0.52859283E+03</pdfrwt>
<totfact> 0.17375617E+03</totfact>
</mgrwt>
</event>
<event>
 4    1  0.2621617E-004  0.1144415E+04  0.7818608E-02  0.9162951E-01
         -2   -1    0    0    0  501 -0.00000000000E+00  0.00000000000E+00  0.21477869312E+03  0.21477869313E+03  0.25500000000E-02 0. -1.
          2   -1    0    0  501    0  0.00000000000E+00 -0.00000000000E+00 -0.15244602661E+04  0.15244602661E+04  0.25500000000E-02 0.  1.
    5000001    1    1    2    0    0  0.32971675176E+03  0.31192764205E+03 -0.16172402011E+03  0.49829273419E+03  0.12700000000E+03 0.  0.
   -5000001    1    1    2    0    0 -0.32971675176E+03 -0.31192764205E+03 -0.11479575528E+04  0.12409462250E+04  0.12700000000E+03 0.  0.
<mgrwt>
<rscale>  0 0.11444153E+04</rscale>
<asrwt>0</asrwt>
<pdfrwt beam="1">  1        2 0.21778003E+00 0.11444153E+04</pdfrwt>
<pdfrwt beam="2">  1       -2 0.30682671E-01 0.11444153E+04</pdfrwt>
<totfact> 0.13792476E+02</totfact>
</mgrwt>
</event>
<event>
 4    1  0.2621617E-004  0.5418510E+03  0.7818608E-02  0.1003398E+00
         -2   -1    0    0    0  501 -0.00000000000E+00  0.00000000000E+00  0.93442260340E+02  0.93442260374E+02  0.25500000000E-02 0. -1.
          2   -1    0    0  501    0  0.00000000000E+00 -0.00000000000E+00 -0.78551858197E+03  0.78551858198E+03  0.25500000000E-02 0.  1.
    5000001    1    1    2    0    0  0.52892155437E+02  0.23133026345E+03 -0.29576839273E+03  0.39989900354E+03  0.12700000000E+03 0.  0.
   -5000001    1    1    2    0    0 -0.52892155437E+02 -0.23133026345E+03 -0.39630792890E+03  0.47906183881E+03  0.12700000000E+03 0.  0.
<mgrwt>
<rscale>  0 0.54185102E+03</rscale>
<asrwt>0</asrwt>
<pdfrwt beam="1">  1        2 0.11221694E+00 0.54185102E+03</pdfrwt>
<pdfrwt beam="2">  1       -2 0.13348895E-01 0.54185102E+03</pdfrwt>
<totfact> 0.16598423E+03</totfact>
</mgrwt>
</event>
<event>
 4    1  0.2621617E-004  0.7499629E+03  0.7818608E-02  0.9635408E-01
         -2   -1    0    0    0  501 -0.00000000000E+00  0.00000000000E+00  0.34498521985E+03  0.34498521986E+03  0.25500000000E-02 0. -1.
          2   -1    0    0  501    0  0.00000000000E+00 -0.00000000000E+00 -0.40758588042E+03  0.40758588043E+03  0.25500000000E-02 0.  1.
    5000001    1    1    2    0    0  0.23426555033E+03  0.26258100011E+03 -0.56942570762E+02  0.37841853292E+03  0.12700000000E+03 0.  0.
   -5000001    1    1    2    0    0 -0.23426555033E+03 -0.26258100011E+03 -0.56580898148E+01  0.37415256737E+03  0.12700000000E+03 0.  0.
<mgrwt>
<rscale>  0 0.74996294E+03</rscale>
<asrwt>0</asrwt>
<pdfrwt beam="1">  1        2 0.58226554E-01 0.74996294E+03</pdfrwt>
<pdfrwt beam="2">  1       -2 0.49283603E-01 0.74996294E+03</pdfrwt>
<totfact> 0.33243132E+02</totfact>
</mgrwt>
</event>
<event>
 4    1  0.2621617E-004  0.5527804E+03  0.7818608E-02  0.1000852E+00
         -2   -1    0    0    0  501 -0.00000000000E+00  0.00000000000E+00  0.11509308388E+04  0.11509308388E+04  0.25500000000E-02 0. -1.
          2   -1    0    0  501    0  0.00000000000E+00 -0.00000000000E+00 -0.66373707727E+02  0.66373707776E+02  0.25500000000E-02 0.  1.
    5000001    1    1    2    0    0  0.20369383437E+03 -0.13679081218E+03  0.52527166475E+03  0.59349997999E+03  0.12700000000E+03 0.  0.
   -5000001    1    1    2    0    0 -0.20369383437E+03  0.13679081218E+03  0.55928546635E+03  0.62380456661E+03  0.12700000000E+03 0.  0.
<mgrwt>
<rscale>  0 0.55278042E+03</rscale>
<asrwt>0</asrwt>
<pdfrwt beam="1">  1        2 0.94819590E-02 0.55278042E+03</pdfrwt>
<pdfrwt beam="2">  1       -2 0.16441868E+00 0.55278042E+03</pdfrwt>
<totfact> 0.16953168E+02</totfact>
</mgrwt>
</event>
<event>
 4    1  0.2621617E-004  0.4817978E+03  0.7818608E-02  0.1018642E+00
          2   -1    0    0  501    0  0.00000000000E+00  0.00000000000E+00  0.28783256166E+04  0.28783256166E+04  0.25500000000E-02 0.  1.
         -2   -1    0    0    0  501 -0.00000000000E+00 -0.00000000000E+00 -0.20161820129E+02  0.20161820290E+02  0.25500000000E-02 0. -1.
    5000001    1    1    2    0    0  0.12801380152E+03 -0.14607158904E+03  0.10401849597E+04  0.10657570984E+04  0.12700000000E+03 0.  0.
   -5000001    1    1    2    0    0 -0.12801380152E+03  0.14607158904E+03  0.18179788368E+04  0.18327303385E+04  0.12700000000E+03 0.  0.
<mgrwt>
<rscale>  0 0.48179781E+03</rscale>
<asrwt>0</asrwt>
<pdfrwt beam="1">  1        2 0.41118915E+00 0.48179781E+03</pdfrwt>
<pdfrwt beam="2">  1       -2 0.28802616E-02 0.48179781E+03</pdfrwt>
<totfact> 0.14151551E+03</totfact>
</mgrwt>
</event>
<event>
 4    1  0.2621617E-004  0.4045933E+03  0.7818608E-02  0.1042201E+00
         -2   -1    0    0    0  501 -0.00000000000E+00  0.00000000000E+00  0.15286179205E+02  0.15286179418E+02  0.25500000000E-02 0. -1.
          2   -1    0    0  501    0  0.00000000000E+00 -0.00000000000E+00 -0.26771857877E+04  0.26771857877E+04  0.25500000000E-02 0.  1.
    5000001    1    1    2    0    0 -0.15463746131E+02 -0.15640612927E+03 -0.13951043532E+04  0.14096620734E+04  0.12700000000E+03 0.  0.
   -5000001    1    1    2    0    0  0.15463746131E+02  0.15640612927E+03 -0.12667952553E+04  0.12828098937E+04  0.12700000000E+03 0.  0.
<mgrwt>
<rscale>  0 0.40459334E+03</rscale>
<asrwt>0</asrwt>
<pdfrwt beam="1">  1        2 0.38245481E+00 0.40459334E+03</pdfrwt>
<pdfrwt beam="2">  1       -2 0.21837416E-02 0.40459334E+03</pdfrwt>
<totfact> 0.27470376E+03</totfact>
</mgrwt>
</event>
<event>
 4    1  0.2621617E-004  0.4365341E+03  0.7818608E-02  0.1031816E+00
         -2   -1    0    0    0  501 -0.00000000000E+00  0.00000000000E+00  0.86731411041E+02  0.86731411078E+02  0.25500000000E-02 0. -1.
          2   -1    0    0  501    0  0.00000000000E+00 -0.00000000000E+00 -0.54928784074E+03  0.54928784075E+03  0.25500000000E-02 0.  1.
    5000001    1    1    2    0    0 -0.17564419732E+03  0.24298776872E+02 -0.21907133005E+03  0.30913194959E+03  0.12700000000E+03 0.  0.
   -5000001    1    1    2    0    0  0.17564419732E+03 -0.24298776872E+02 -0.24348509965E+03  0.32688730223E+03  0.12700000000E+03 0.  0.
<mgrwt>
<rscale>  0 0.43653412E+03</rscale>
<asrwt>0</asrwt>
<pdfrwt beam="1">  1        2 0.78469689E-01 0.43653412E+03</pdfrwt>
<pdfrwt beam="2">  1       -2 0.12390202E-01 0.43653412E+03</pdfrwt>
<totfact> 0.28771720E+03</totfact>
</mgrwt>
</event>
<event>
 4    1  0.2621617E-004  0.4515640E+03  0.7818608E-02  0.1027257E+00
         -2   -1    0    0    0  501 -0.00000000000E+00  0.00000000000E+00  0.12196679582E+03  0.12196679585E+03  0.25500000000E-02 0. -1.
          2   -1    0    0  501    0  0.00000000000E+00 -0.00000000000E+00 -0.41796226581E+03  0.41796226582E+03  0.25500000000E-02 0.  1.
    5000001    1    1    2    0    0  0.82896063770E+02 -0.10866458290E+03  0.40415598961E+01  0.18661479891E+03  0.12700000000E+03 0.  0.
   -5000001    1    1    2    0    0 -0.82896063770E+02  0.10866458290E+03 -0.30003702989E+03  0.35331426276E+03  0.12700000000E+03 0.  0.
<mgrwt>
<rscale>  0 0.45156403E+03</rscale>
<asrwt>0</asrwt>
<pdfrwt beam="1">  1        2 0.59708894E-01 0.45156403E+03</pdfrwt>
<pdfrwt beam="2">  1       -2 0.17423828E-01 0.45156403E+03</pdfrwt>
<totfact> 0.22134856E+03</totfact>
</mgrwt>
</event>
<event>
 4    1  0.2621617E-004  0.5717831E+03  0.7818608E-02  0.9965741E-01
          2   -1    0    0  501    0  0.00000000000E+00  0.00000000000E+00  0.78694687331E+03  0.78694687332E+03  0.25500000000E-02 0.  1.
         -2   -1    0    0    0  501 -0.00000000000E+00 -0.00000000000E+00 -0.10386212302E+03  0.10386212305E+03  0.25500000000E-02 0. -1.
    5000001    1    1    2    0    0 -0.13745073543E+03  0.13205043563E+03  0.60810630375E+03  0.64980943275E+03  0.12700000000E+03 0.  0.
   -5000001    1    1    2    0    0  0.13745073543E+03 -0.13205043563E+03  0.74978446543E+02  0.24099956362E+03  0.12700000000E+03 0.  0.
<mgrwt>
<rscale>  0 0.57178308E+03</rscale>
<asrwt>0</asrwt>
<pdfrwt beam="1">  1        2 0.11242099E+00 0.57178308E+03</pdfrwt>
<pdfrwt beam="2">  1       -2 0.14837446E-01 0.57178308E+03</pdfrwt>
<totfact> 0.13877072E+03</totfact>
</mgrwt>
</event>
<event>
 4    1  0.2621617E-004  0.3072348E+03  0.7818608E-02  0.1081679E+00
          2   -1    0    0  501    0  0.00000000000E+00  0.00000000000E+00  0.92325534344E+03  0.92325534345E+03  0.25500000000E-02 0.  1.
         -2   -1    0    0    0  501 -0.00000000000E+00 -0.00000000000E+00 -0.25559894494E+02  0.25559894621E+02  0.25500000000E-02 0. -1.
    5000001    1    1    2    0    0 -0.59379201494E+02 -0.52178810227E+02  0.34094511534E+03  0.37231853228E+03  0.12700000000E+03 0.  0.
   -5000001    1    1    2    0    0  0.59379201494E+02  0.52178810227E+02  0.55675033361E+03  0.57649670579E+03  0.12700000000E+03 0.  0.
<mgrwt>
<rscale>  0 0.30723482E+03</rscale>
<asrwt>0</asrwt>
<pdfrwt beam="1">  1        2 0.13189359E+00 0.30723482E+03</pdfrwt>
<pdfrwt beam="2">  1       -2 0.36514142E-02 0.30723482E+03</pdfrwt>
<totfact> 0.10241266E+04</totfact>
</mgrwt>
</event>
<event>
 4    1  0.2621617E-004  0.3494660E+03  0.7818608E-02  0.1062834E+00
         -2   -1    0    0    0  501 -0.00000000000E+00  0.00000000000E+00  0.99148847923E+03  0.99148847923E+03  0.25500000000E-02 0.  1.
          2   -1    0    0  501    0  0.00000000000E+00 -0.00000000000E+00 -0.30793726556E+02  0.30793726662E+02  0.25500000000E-02 0. -1.
    5000001    1    1    2    0    0 -0.16430728938E+02 -0.11886659442E+03  0.48573261016E+03  0.51620190303E+03  0.12700000000E+03 0.  0.
   -5000001    1    1    2    0    0  0.16430728938E+02  0.11886659442E+03  0.47496214251E+03  0.50608030286E+03  0.12700000000E+03 0.  0.
<mgrwt>
<rscale>  0 0.34946602E+03</rscale>
<asrwt>0</asrwt>
<pdfrwt beam="1">  1        2 0.43991043E-02 0.34946602E+03</pdfrwt>
<pdfrwt beam="2">  1       -2 0.14164120E+00 0.34946602E+03</pdfrwt>
<totfact> 0.68936121E+02</totfact>
</mgrwt>
</event>
<event>
 4    1  0.2621617E-004  0.4910986E+03  0.7818608E-02  0.1016129E+00
          2   -1    0    0  501    0  0.00000000000E+00  0.00000000000E+00  0.22150864646E+04  0.22150864646E+04  0.25500000000E-02 0.  1.
         -2   -1    0    0    0  501 -0.00000000000E+00 -0.00000000000E+00 -0.27219910443E+02  0.27219910562E+02  0.25500000000E-02 0. -1.
    5000001    1    1    2    0    0 -0.17534927863E+03 -0.19806520096E+02  0.57282464949E+03  0.61269629248E+03  0.12700000000E+03 0.  0.
   -5000001    1    1    2    0    0  0.17534927863E+03  0.19806520096E+02  0.16150419046E+04  0.16296100826E+04  0.12700000000E+03 0.  0.
<mgrwt>
<rscale>  0 0.49109859E+03</rscale>
<asrwt>0</asrwt>
<pdfrwt beam="1">  1        2 0.31644090E+00 0.49109859E+03</pdfrwt>
<pdfrwt beam="2">  1       -2 0.38885589E-02 0.49109859E+03</pdfrwt>
<totfact> 0.19627602E+03</totfact>
</mgrwt>
</event>
<event>
 4    1  0.2621617E-004  0.6292321E+03  0.7818608E-02  0.9846548E-01
         -2   -1    0    0    0  501 -0.00000000000E+00  0.00000000000E+00  0.15771688893E+03  0.15771688895E+03  0.25500000000E-02 0. -1.
          2   -1    0    0  501    0  0.00000000000E+00 -0.00000000000E+00 -0.62760087032E+03  0.62760087032E+03  0.25500000000E-02 0.  1.
    5000001    1    1    2    0    0  0.25286549613E+03 -0.23186755297E+02 -0.40412477532E+03  0.49388705064E+03  0.12700000000E+03 0.  0.
   -5000001    1    1    2    0    0 -0.25286549613E+03  0.23186755297E+02 -0.65759206064E+02  0.29143070864E+03  0.12700000000E+03 0.  0.
<mgrwt>
<rscale>  0 0.62923209E+03</rscale>
<asrwt>0</asrwt>
<pdfrwt beam="1">  1        2 0.89657266E-01 0.62923209E+03</pdfrwt>
<pdfrwt beam="2">  1       -2 0.22530984E-01 0.62923209E+03</pdfrwt>
<totfact> 0.89098087E+02</totfact>
</mgrwt>
</event>
<event>
 4    1  0.2621617E-004  0.3153366E+03  0.7818608E-02  0.1077816E+00
         -2   -1    0    0    0  501 -0.00000000000E+00  0.00000000000E+00  0.13364772625E+03  0.13364772628E+03  0.25500000000E-02 0. -1.
          2   -1    0    0  501    0  0.00000000000E+00 -0.00000000000E+00 -0.18600607905E+03  0.18600607907E+03  0.25500000000E-02 0.  1.
    5000001    1    1    2    0    0  0.67586428068E+02 -0.25421442149E+02  0.33929482060E+02  0.14998128127E+03  0.12700000000E+03 0.  0.
   -5000001    1    1    2    0    0 -0.67586428068E+02  0.25421442149E+02 -0.86287834859E+02  0.16967252407E+03  0.12700000000E+03 0.  0.
<mgrwt>
<rscale>  0 0.31533658E+03</rscale>
<asrwt>0</asrwt>
<pdfrwt beam="1">  1        2 0.26572297E-01 0.31533658E+03</pdfrwt>
<pdfrwt beam="2">  1       -2 0.19092532E-01 0.31533658E+03</pdfrwt>
<totfact> 0.45709710E+03</totfact>
</mgrwt>
</event>
<event>
 4    1  0.2621617E-004  0.3403760E+03  0.7818608E-02  0.1066636E+00
          2   -1    0    0  501    0  0.00000000000E+00  0.00000000000E+00  0.32017680905E+03  0.32017680906E+03  0.25500000000E-02 0.  1.
         -2   -1    0    0    0  501 -0.00000000000E+00 -0.00000000000E+00 -0.90462365333E+02  0.90462365369E+02  0.25500000000E-02 0. -1.
    5000001    1    1    2    0    0 -0.81352846810E+02 -0.61157665970E+02  0.54821135535E+02  0.17173497807E+03  0.12700000000E+03 0.  0.
   -5000001    1    1    2    0    0  0.81352846810E+02  0.61157665970E+02  0.17489330818E+03  0.23890419636E+03  0.12700000000E+03 0.  0.
<mgrwt>
<rscale>  0 0.34037598E+03</rscale>
<asrwt>0</asrwt>
<pdfrwt beam="1">  1        2 0.45739544E-01 0.34037598E+03</pdfrwt>
<pdfrwt beam="2">  1       -2 0.12923195E-01 0.34037598E+03</pdfrwt>
<totfact> 0.48491037E+03</totfact>
</mgrwt>
</event>
<event>
 4    1  0.2621617E-004  0.5686817E+03  0.7818608E-02  0.9972600E-01
         -2   -1    0    0    0  501 -0.00000000000E+00  0.00000000000E+00  0.10660111462E+03  0.10660111465E+03  0.25500000000E-02 0. -1.
          2   -1    0    0  501    0  0.00000000000E+00 -0.00000000000E+00 -0.75843221866E+03  0.75843221867E+03  0.25500000000E-02 0.  1.
    5000001    1    1    2    0    0 -0.13903207076E+03 -0.18405270136E+03 -0.48914676979E+03  0.55551676480E+03  0.12700000000E+03 0.  0.
   -5000001    1    1    2    0    0  0.13903207076E+03  0.18405270136E+03 -0.16268433425E+03  0.30951656852E+03  0.12700000000E+03 0.  0.
<mgrwt>
<rscale>  0 0.56868170E+03</rscale>
<asrwt>0</asrwt>
<pdfrwt beam="1">  1        2 0.10834746E+00 0.56868170E+03</pdfrwt>
<pdfrwt beam="2">  1       -2 0.15228731E-01 0.56868170E+03</pdfrwt>
<totfact> 0.13915317E+03</totfact>
</mgrwt>
</event>
<event>
 4    1  0.2621617E-004  0.3895386E+03  0.7818608E-02  0.1047463E+00
         -2   -1    0    0    0  501 -0.00000000000E+00  0.00000000000E+00  0.10303650769E+03  0.10303650772E+03  0.25500000000E-02 0. -1.
          2   -1    0    0  501    0  0.00000000000E+00 -0.00000000000E+00 -0.36817132233E+03  0.36817132234E+03  0.25500000000E-02 0.  1.
    5000001    1    1    2    0    0  0.12856563444E+03 -0.70656648051E+02 -0.15297452700E+03  0.24708640226E+03  0.12700000000E+03 0.  0.
   -5000001    1    1    2    0    0 -0.12856563444E+03  0.70656648051E+02 -0.11216028765E+03  0.22412142780E+03  0.12700000000E+03 0.  0.
<mgrwt>
<rscale>  0 0.38953864E+03</rscale>
<asrwt>0</asrwt>
<pdfrwt beam="1">  1        2 0.52595903E-01 0.38953864E+03</pdfrwt>
<pdfrwt beam="2">  1       -2 0.14719501E-01 0.38953864E+03</pdfrwt>
<totfact> 0.33714729E+03</totfact>
</mgrwt>
</event>
<event>
 4    1  0.2621617E-004  0.4620218E+03  0.7818608E-02  0.1024196E+00
         -2   -1    0    0    0  501 -0.00000000000E+00  0.00000000000E+00  0.29617192673E+03  0.29617192674E+03  0.25500000000E-02 0. -1.
          2   -1    0    0  501    0  0.00000000000E+00 -0.00000000000E+00 -0.18018601030E+03  0.18018601032E+03  0.25500000000E-02 0.  1.
    5000001    1    1    2    0    0 -0.33308050270E+02  0.18580217062E+03  0.99300635449E+02  0.24823676001E+03  0.12700000000E+03 0.  0.
   -5000001    1    1    2    0    0  0.33308050270E+02 -0.18580217062E+03  0.16685280984E+02  0.22812117705E+03  0.12700000000E+03 0.  0.
<mgrwt>
<rscale>  0 0.46202181E+03</rscale>
<asrwt>0</asrwt>
<pdfrwt beam="1">  1        2 0.25740859E-01 0.46202181E+03</pdfrwt>
<pdfrwt beam="2">  1       -2 0.42310275E-01 0.46202181E+03</pdfrwt>
<totfact> 0.11216557E+03</totfact>
</mgrwt>
</event>
<event>
 4    1  0.2621617E-004  0.5881298E+03  0.7818608E-02  0.9930344E-01
          2   -1    0    0  501    0  0.00000000000E+00  0.00000000000E+00  0.33591067876E+04  0.33591067876E+04  0.25500000000E-02 0.  1.
         -2   -1    0    0    0  501 -0.00000000000E+00 -0.00000000000E+00 -0.25743205765E+02  0.25743205891E+02  0.25500000000E-02 0. -1.
    5000001    1    1    2    0    0  0.21961303096E+03  0.25750470562E+02  0.82373103546E+03  0.86229623035E+03  0.12700000000E+03 0.  0.
   -5000001    1    1    2    0    0 -0.21961303096E+03 -0.25750470562E+02  0.25096325464E+04  0.25225537632E+04  0.12700000000E+03 0.  0.
<mgrwt>
<rscale>  0 0.58812984E+03</rscale>
<asrwt>0</asrwt>
<pdfrwt beam="1">  1        2 0.47987189E+00 0.58812984E+03</pdfrwt>
<pdfrwt beam="2">  1       -2 0.36776047E-02 0.58812984E+03</pdfrwt>
<totfact> 0.52368569E+02</totfact>
</mgrwt>
</event>
<event>
 4    1  0.2621617E-004  0.5974113E+03  0.7818608E-02  0.9910791E-01
          2   -1    0    0  501    0  0.00000000000E+00  0.00000000000E+00  0.44103035809E+03  0.44103035810E+03  0.25500000000E-02 0.  1.
         -2   -1    0    0    0  501 -0.00000000000E+00 -0.00000000000E+00 -0.20231050007E+03  0.20231050009E+03  0.25500000000E-02 0. -1.
    5000001    1    1    2    0    0  0.19850075799E+03  0.14511570195E+03 -0.16872085431E+01  0.27675433971E+03  0.12700000000E+03 0.  0.
   -5000001    1    1    2    0    0 -0.19850075799E+03 -0.14511570195E+03  0.24040706656E+03  0.36658651848E+03  0.12700000000E+03 0.  0.
<mgrwt>
<rscale>  0 0.59741132E+03</rscale>
<asrwt>0</asrwt>
<pdfrwt beam="1">  1        2 0.63004336E-01 0.59741132E+03</pdfrwt>
<pdfrwt beam="2">  1       -2 0.28901500E-01 0.59741132E+03</pdfrwt>
<totfact> 0.85398487E+02</totfact>
</mgrwt>
</event>
<event>
 4    1  0.2621617E-004  0.5300421E+03  0.7818608E-02  0.1006222E+00
         -2   -1    0    0    0  501 -0.00000000000E+00  0.00000000000E+00  0.94980850021E+02  0.94980850055E+02  0.25500000000E-02 0. -1.
          2   -1    0    0  501    0  0.00000000000E+00 -0.00000000000E+00 -0.73947711701E+03  0.73947711702E+03  0.25500000000E-02 0.  1.
    5000001    1    1    2    0    0 -0.13190128574E+03  0.16876648695E+03 -0.46504450374E+03  0.52751821463E+03  0.12700000000E+03 0.  0.
   -5000001    1    1    2    0    0  0.13190128574E+03 -0.16876648695E+03 -0.17945176325E+03  0.30693975245E+03  0.12700000000E+03 0.  0.
<mgrwt>
<rscale>  0 0.53004213E+03</rscale>
<asrwt>0</asrwt>
<pdfrwt beam="1">  1        2 0.10563958E+00 0.53004213E+03</pdfrwt>
<pdfrwt beam="2">  1       -2 0.13568693E-01 0.53004213E+03</pdfrwt>
<totfact> 0.17423643E+03</totfact>
</mgrwt>
</event>
<event>
 4    1  0.2621617E-004  0.3327095E+03  0.7818608E-02  0.1069944E+00
          2   -1    0    0  501    0  0.00000000000E+00  0.00000000000E+00  0.12017432888E+04  0.12017432888E+04  0.25500000000E-02 0. -1.
         -2   -1    0    0    0  501 -0.00000000000E+00 -0.00000000000E+00 -0.23028136580E+02  0.23028136721E+02  0.25500000000E-02 0.  1.
    5000001    1    1    2    0    0  0.94330950182E+02  0.32799722784E+02  0.73525396232E+03  0.75279581501E+03  0.12700000000E+03 0.  0.
   -5000001    1    1    2    0    0 -0.94330950182E+02 -0.32799722784E+02  0.44346118986E+03  0.47197561048E+03  0.12700000000E+03 0.  0.
<mgrwt>
<rscale>  0 0.33270954E+03</rscale>
<asrwt>0</asrwt>
<pdfrwt beam="1">  1        2 0.17167762E+00 0.33270954E+03</pdfrwt>
<pdfrwt beam="2">  1       -2 0.32897337E-02 0.33270954E+03</pdfrwt>
<totfact> 0.82830034E+03</totfact>
</mgrwt>
</event>
<event>
 4    1  0.2621617E-004  0.4106252E+03  0.7818608E-02  0.1040161E+00
          2   -1    0    0  501    0  0.00000000000E+00  0.00000000000E+00  0.43876189557E+03  0.43876189558E+03  0.25500000000E-02 0.  1.
         -2   -1    0    0    0  501 -0.00000000000E+00 -0.00000000000E+00 -0.96073213202E+02  0.96073213235E+02  0.25500000000E-02 0. -1.
    5000001    1    1    2    0    0 -0.12245420024E+03  0.98020970031E+02  0.12224335647E+03  0.23595673316E+03  0.12700000000E+03 0.  0.
   -5000001    1    1    2    0    0  0.12245420024E+03 -0.98020970031E+02  0.22044532590E+03  0.29887837566E+03  0.12700000000E+03 0.  0.
<mgrwt>
<rscale>  0 0.41062521E+03</rscale>
<asrwt>0</asrwt>
<pdfrwt beam="1">  1        2 0.62680271E-01 0.41062521E+03</pdfrwt>
<pdfrwt beam="2">  1       -2 0.13724745E-01 0.41062521E+03</pdfrwt>
<totfact> 0.31260933E+03</totfact>
</mgrwt>
</event>
<event>
 4    1  0.2621617E-004  0.4683086E+03  0.7818608E-02  0.1022399E+00
          2   -1    0    0  501    0  0.00000000000E+00  0.00000000000E+00  0.22171835436E+04  0.22171835436E+04  0.25500000000E-02 0.  1.
         -2   -1    0    0    0  501 -0.00000000000E+00 -0.00000000000E+00 -0.24728779280E+02  0.24728779411E+02  0.25500000000E-02 0. -1.
    5000001    1    1    2    0    0  0.32264152505E+02 -0.17233968155E+03  0.15232681777E+04  0.15385762518E+04  0.12700000000E+03 0.  0.
   -5000001    1    1    2    0    0 -0.32264152505E+02  0.17233968155E+03  0.66918658664E+03  0.70333607124E+03  0.12700000000E+03 0.  0.
<mgrwt>
<rscale>  0 0.46830863E+03</rscale>
<asrwt>0</asrwt>
<pdfrwt beam="1">  1        2 0.31674068E+00 0.46830863E+03</pdfrwt>
<pdfrwt beam="2">  1       -2 0.35326808E-02 0.46830863E+03</pdfrwt>
<totfact> 0.22688831E+03</totfact>
</mgrwt>
</event>
<event>
 4    1  0.2621617E-004  0.2898565E+03  0.7818608E-02  0.1090424E+00
         -2   -1    0    0    0  501 -0.00000000000E+00  0.00000000000E+00  0.45285177499E+02  0.45285177571E+02  0.25500000000E-02 0. -1.
          2   -1    0    0  501    0  0.00000000000E+00 -0.00000000000E+00 -0.46382065842E+03  0.46382065843E+03  0.25500000000E-02 0.  1.
    5000001    1    1    2    0    0 -0.49103339320E+02 -0.10948236756E+02 -0.29430754253E+03  0.32446406798E+03  0.12700000000E+03 0.  0.
   -5000001    1    1    2    0    0  0.49103339320E+02  0.10948236756E+02 -0.12422793840E+03  0.18464176802E+03  0.12700000000E+03 0.  0.
<mgrwt>
<rscale>  0 0.28985652E+03</rscale>
<asrwt>0</asrwt>
<pdfrwt beam="1">  1        2 0.66260092E-01 0.28985652E+03</pdfrwt>
<pdfrwt beam="2">  1       -2 0.64693113E-02 0.28985652E+03</pdfrwt>
<totfact> 0.96557656E+03</totfact>
</mgrwt>
</event>
<event>
 4    1  0.2621617E-004  0.4840840E+03  0.7818608E-02  0.1018019E+00
          2   -1    0    0  501    0  0.00000000000E+00  0.00000000000E+00  0.16716908649E+03  0.16716908651E+03  0.25500000000E-02 0.  1.
         -2   -1    0    0    0  501 -0.00000000000E+00 -0.00000000000E+00 -0.35044951786E+03  0.35044951787E+03  0.25500000000E-02 0. -1.
    5000001    1    1    2    0    0  0.11023154021E+03  0.96925763036E+02 -0.24625939858E+03  0.31355747063E+03  0.12700000000E+03 0.  0.
   -5000001    1    1    2    0    0 -0.11023154021E+03 -0.96925763036E+02  0.62978967207E+02  0.20406113375E+03  0.12700000000E+03 0.  0.
<mgrwt>
<rscale>  0 0.48408398E+03</rscale>
<asrwt>0</asrwt>
<pdfrwt beam="1">  1        2 0.23881298E-01 0.48408398E+03</pdfrwt>
<pdfrwt beam="2">  1       -2 0.50064217E-01 0.48408398E+03</pdfrwt>
<totfact> 0.87481908E+02</totfact>
</mgrwt>
</event>
<event>
 4    1  0.2621617E-004  0.3035342E+03  0.7818608E-02  0.1083487E+00
          2   -1    0    0  501    0  0.00000000000E+00  0.00000000000E+00  0.25457154558E+03  0.25457154559E+03  0.25500000000E-02 0.  1.
         -2   -1    0    0    0  501 -0.00000000000E+00 -0.00000000000E+00 -0.90478526906E+02  0.90478526942E+02  0.25500000000E-02 0. -1.
    5000001    1    1    2    0    0 -0.55056134377E+02 -0.48236280675E+02  0.12674853219E+03  0.19378366061E+03  0.12700000000E+03 0.  0.
   -5000001    1    1    2    0    0  0.55056134377E+02  0.48236280675E+02  0.37344486480E+02  0.15126641192E+03  0.12700000000E+03 0.  0.
<mgrwt>
<rscale>  0 0.30353424E+03</rscale>
<asrwt>0</asrwt>
<pdfrwt beam="1">  1        2 0.36367364E-01 0.30353424E+03</pdfrwt>
<pdfrwt beam="2">  1       -2 0.12925504E-01 0.30353424E+03</pdfrwt>
<totfact> 0.61933743E+03</totfact>
</mgrwt>
</event>
<event>
 4    1  0.2621617E-004  0.3243519E+03  0.7818608E-02  0.1073664E+00
         -2   -1    0    0    0  501 -0.00000000000E+00  0.00000000000E+00  0.20949972584E+03  0.20949972585E+03  0.25500000000E-02 0. -1.
          2   -1    0    0  501    0  0.00000000000E+00 -0.00000000000E+00 -0.12554214020E+03  0.12554214023E+03  0.25500000000E-02 0.  1.
    5000001    1    1    2    0    0  0.19559008075E+02  0.67165059080E+02  0.11702546432E+03  0.18632675401E+03  0.12700000000E+03 0.  0.
   -5000001    1    1    2    0    0 -0.19559008075E+02 -0.67165059080E+02 -0.33067878686E+02  0.14871511207E+03  0.12700000000E+03 0.  0.
<mgrwt>
<rscale>  0 0.32435193E+03</rscale>
<asrwt>0</asrwt>
<pdfrwt beam="1">  1        2 0.17934592E-01 0.32435193E+03</pdfrwt>
<pdfrwt beam="2">  1       -2 0.29928532E-01 0.32435193E+03</pdfrwt>
<totfact> 0.32447742E+03</totfact>
</mgrwt>
</event>
<event>
 4    1  0.2621617E-004  0.3990301E+03  0.7818608E-02  0.1044116E+00
          2   -1    0    0  501    0  0.00000000000E+00  0.00000000000E+00  0.17633573615E+04  0.17633573615E+04  0.25500000000E-02 0.  1.
         -2   -1    0    0    0  501 -0.00000000000E+00 -0.00000000000E+00 -0.22574132956E+02  0.22574133100E+02  0.25500000000E-02 0. -1.
    5000001    1    1    2    0    0  0.13121679013E+03  0.58800595876E+01  0.12291403153E+04  0.12426452977E+04  0.12700000000E+03 0.  0.
   -5000001    1    1    2    0    0 -0.13121679013E+03 -0.58800595876E+01  0.51164291325E+03  0.54328619695E+03  0.12700000000E+03 0.  0.
<mgrwt>
<rscale>  0 0.39903014E+03</rscale>
<asrwt>0</asrwt>
<pdfrwt beam="1">  1        2 0.25190819E+00 0.39903014E+03</pdfrwt>
<pdfrwt beam="2">  1       -2 0.32248762E-02 0.39903014E+03</pdfrwt>
<totfact> 0.43873828E+03</totfact>
</mgrwt>
</event>
<event>
 4    1  0.2621617E-004  0.4014420E+03  0.7818608E-02  0.1043282E+00
         -2   -1    0    0    0  501 -0.00000000000E+00  0.00000000000E+00  0.20167821660E+02  0.20167821821E+02  0.25500000000E-02 0. -1.
          2   -1    0    0  501    0  0.00000000000E+00 -0.00000000000E+00 -0.19976833361E+04  0.19976833361E+04  0.25500000000E-02 0.  1.
    5000001    1    1    2    0    0 -0.31503578830E+02 -0.15220428989E+03 -0.99448903068E+03  0.10145422877E+04  0.12700000000E+03 0.  0.
   -5000001    1    1    2    0    0  0.31503578830E+02  0.15220428989E+03 -0.98302648373E+03  0.10033088702E+04  0.12700000000E+03 0.  0.
<mgrwt>
<rscale>  0 0.40144201E+03</rscale>
<asrwt>0</asrwt>
<pdfrwt beam="1">  1        2 0.28538321E+00 0.40144201E+03</pdfrwt>
<pdfrwt beam="2">  1       -2 0.28811187E-02 0.40144201E+03</pdfrwt>
<totfact> 0.39780664E+03</totfact>
</mgrwt>
</event>
<event>
 4    1  0.2621617E-004  0.3721679E+03  0.7818608E-02  0.1053867E+00
          2   -1    0    0  501    0  0.00000000000E+00  0.00000000000E+00  0.49237215822E+03  0.49237215823E+03  0.25500000000E-02 0.  1.
         -2   -1    0    0    0  501 -0.00000000000E+00 -0.00000000000E+00 -0.70327360381E+02  0.70327360427E+02  0.25500000000E-02 0. -1.
    5000001    1    1    2    0    0  0.25250554220E+02  0.98213904086E+02  0.34805780152E+03  0.38413122061E+03  0.12700000000E+03 0.  0.
   -5000001    1    1    2    0    0 -0.25250554220E+02 -0.98213904086E+02  0.73986996319E+02  0.17856829805E+03  0.12700000000E+03 0.  0.
<mgrwt>
<rscale>  0 0.37216789E+03</rscale>
<asrwt>0</asrwt>
<pdfrwt beam="1">  1        2 0.70338880E-01 0.37216789E+03</pdfrwt>
<pdfrwt beam="2">  1       -2 0.10046766E-01 0.37216789E+03</pdfrwt>
<totfact> 0.45599471E+03</totfact>
</mgrwt>
</event>
<event>
 4    1  0.2621617E-004  0.6403191E+03  0.7818608E-02  0.9825116E-01
          2   -1    0    0  501    0  0.00000000000E+00  0.00000000000E+00  0.33180866897E+04  0.33180866897E+04  0.25500000000E-02 0.  1.
         -2   -1    0    0    0  501 -0.00000000000E+00 -0.00000000000E+00 -0.30891940670E+02  0.30891940775E+02  0.25500000000E-02 0. -1.
    5000001    1    1    2    0    0  0.10468026259E+03  0.19928595151E+03  0.26318131647E+04  0.26444739329E+04  0.12700000000E+03 0.  0.
   -5000001    1    1    2    0    0 -0.10468026259E+03 -0.19928595151E+03  0.65538158438E+03  0.70450469764E+03  0.12700000000E+03 0.  0.
<mgrwt>
<rscale>  0 0.64031910E+03</rscale>
<asrwt>0</asrwt>
<pdfrwt beam="1">  1        2 0.47401195E+00 0.64031910E+03</pdfrwt>
<pdfrwt beam="2">  1       -2 0.44131384E-02 0.64031910E+03</pdfrwt>
<totfact> 0.41540534E+02</totfact>
</mgrwt>
</event>
<event>
 4    1  0.2621617E-004  0.5361761E+03  0.7818608E-02  0.1004745E+00
         -2   -1    0    0    0  501 -0.00000000000E+00  0.00000000000E+00  0.86882628945E+02  0.86882628983E+02  0.25500000000E-02 0. -1.
          2   -1    0    0  501    0  0.00000000000E+00 -0.00000000000E+00 -0.82722186669E+03  0.82722186669E+03  0.25500000000E-02 0.  1.
    5000001    1    1    2    0    0 -0.13572161983E+03 -0.18150123477E+03 -0.25735029607E+03  0.36567913695E+03  0.12700000000E+03 0.  0.
   -5000001    1    1    2    0    0  0.13572161983E+03  0.18150123477E+03 -0.48298894168E+03  0.54842535873E+03  0.12700000000E+03 0.  0.
<mgrwt>
<rscale>  0 0.53617613E+03</rscale>
<asrwt>0</asrwt>
<pdfrwt beam="1">  1        2 0.11817455E+00 0.53617613E+03</pdfrwt>
<pdfrwt beam="2">  1       -2 0.12411805E-01 0.53617613E+03</pdfrwt>
<totfact> 0.17525709E+03</totfact>
</mgrwt>
</event>
<event>
 4    1  0.2621617E-004  0.3152961E+03  0.7818608E-02  0.1077835E+00
          2   -1    0    0  501    0  0.00000000000E+00  0.00000000000E+00  0.94649942084E+03  0.94649942084E+03  0.25500000000E-02 0.  1.
         -2   -1    0    0    0  501 -0.00000000000E+00 -0.00000000000E+00 -0.26257713087E+02  0.26257713211E+02  0.25500000000E-02 0. -1.
    5000001    1    1    2    0    0 -0.16214579413E+02 -0.86518107865E+02  0.36375460051E+03  0.39521475804E+03  0.12700000000E+03 0.  0.
   -5000001    1    1    2    0    0  0.16214579413E+02  0.86518107865E+02  0.55648710723E+03  0.57754237601E+03  0.12700000000E+03 0.  0.
<mgrwt>
<rscale>  0 0.31529612E+03</rscale>
<asrwt>0</asrwt>
<pdfrwt beam="1">  1        2 0.13521421E+00 0.31529612E+03</pdfrwt>
<pdfrwt beam="2">  1       -2 0.37511016E-02 0.31529612E+03</pdfrwt>
<totfact> 0.95232782E+03</totfact>
</mgrwt>
</event>
<event>
 4    1  0.2621617E-004  0.5426092E+03  0.7818608E-02  0.1003219E+00
         -2   -1    0    0    0  501 -0.00000000000E+00  0.00000000000E+00  0.30764064473E+02  0.30764064578E+02  0.25500000000E-02 0. -1.
          2   -1    0    0  501    0  0.00000000000E+00 -0.00000000000E+00 -0.23926025286E+04  0.23926025286E+04  0.25500000000E-02 0.  1.
    5000001    1    1    2    0    0 -0.19848329295E+03 -0.12140875052E+03 -0.92275196479E+03  0.96007077386E+03  0.12700000000E+03 0.  0.
   -5000001    1    1    2    0    0  0.19848329295E+03  0.12140875052E+03 -0.14390864993E+04  0.14632958193E+04  0.12700000000E+03 0.  0.
<mgrwt>
<rscale>  0 0.54260917E+03</rscale>
<asrwt>0</asrwt>
<pdfrwt beam="1">  1        2 0.34180024E+00 0.54260917E+03</pdfrwt>
<pdfrwt beam="2">  1       -2 0.43948679E-02 0.54260917E+03</pdfrwt>
<totfact> 0.13203085E+03</totfact>
</mgrwt>
</event>
<event>
 4    1  0.2621617E-004  0.2747837E+03  0.7818608E-02  0.1098573E+00
          2   -1    0    0  501    0  0.00000000000E+00  0.00000000000E+00  0.52023983953E+02  0.52023984015E+02  0.25500000000E-02 0.  1.
         -2   -1    0    0    0  501 -0.00000000000E+00 -0.00000000000E+00 -0.36284256615E+03  0.36284256616E+03  0.25500000000E-02 0. -1.
    5000001    1    1    2    0    0  0.20025219789E+02  0.37587447269E+02 -0.10927552453E+03  0.17286979459E+03  0.12700000000E+03 0.  0.
   -5000001    1    1    2    0    0 -0.20025219789E+02 -0.37587447269E+02 -0.20154305767E+03  0.24199675559E+03  0.12700000000E+03 0.  0.
<mgrwt>
<rscale>  0 0.27478367E+03</rscale>
<asrwt>0</asrwt>
<pdfrwt beam="1">  1        2 0.74319979E-02 0.27478367E+03</pdfrwt>
<pdfrwt beam="2">  1       -2 0.51834651E-01 0.27478367E+03</pdfrwt>
<totfact> 0.33262451E+03</totfact>
</mgrwt>
</event>
<event>
 4    1  0.2621617E-004  0.3301227E+03  0.7818608E-02  0.1071083E+00
          2   -1    0    0  501    0  0.00000000000E+00  0.00000000000E+00  0.14752638083E+04  0.14752638083E+04  0.25500000000E-02 0.  1.
         -2   -1    0    0    0  501 -0.00000000000E+00 -0.00000000000E+00 -0.18468053949E+02  0.18468054125E+02  0.25500000000E-02 0. -1.
    5000001    1    1    2    0    0  0.49345029813E+02  0.58590527518E+02  0.10562013802E+04  0.10665637053E+04  0.12700000000E+03 0.  0.
   -5000001    1    1    2    0    0 -0.49345029813E+02 -0.58590527518E+02  0.40059437418E+03  0.42716815718E+03  0.12700000000E+03 0.  0.
<mgrwt>
<rscale>  0 0.33012271E+03</rscale>
<asrwt>0</asrwt>
<pdfrwt beam="1">  1        2 0.21075192E+00 0.33012271E+03</pdfrwt>
<pdfrwt beam="2">  1       -2 0.26382941E-02 0.33012271E+03</pdfrwt>
<totfact> 0.82671325E+03</totfact>
</mgrwt>
</event>
<event>
 4    1  0.2621617E-004  0.4905691E+03  0.7818608E-02  0.1016270E+00
         -2   -1    0    0    0  501 -0.00000000000E+00  0.00000000000E+00  0.24485146057E+03  0.24485146058E+03  0.25500000000E-02 0. -1.
          2   -1    0    0  501    0  0.00000000000E+00 -0.00000000000E+00 -0.24571835757E+03  0.24571835758E+03  0.25500000000E-02 0.  1.
    5000001    1    1    2    0    0  0.55193190611E+02  0.19385110227E+03  0.57970072412E+02  0.24518170290E+03  0.12700000000E+03 0.  0.
   -5000001    1    1    2    0    0 -0.55193190611E+02 -0.19385110227E+03 -0.58836969413E+02  0.24538811526E+03  0.12700000000E+03 0.  0.
<mgrwt>
<rscale>  0 0.49056905E+03</rscale>
<asrwt>0</asrwt>
<pdfrwt beam="1">  1        2 0.35102622E-01 0.49056905E+03</pdfrwt>
<pdfrwt beam="2">  1       -2 0.34978780E-01 0.49056905E+03</pdfrwt>
<totfact> 0.11429073E+03</totfact>
</mgrwt>
</event>
<event>
 4    1  0.2621617E-004  0.3535478E+03  0.7818608E-02  0.1061168E+00
         -2   -1    0    0    0  501 -0.00000000000E+00  0.00000000000E+00  0.31608447951E+02  0.31608448054E+02  0.25500000000E-02 0. -1.
          2   -1    0    0  501    0  0.00000000000E+00 -0.00000000000E+00 -0.98862828538E+03  0.98862828539E+03  0.25500000000E-02 0.  1.
    5000001    1    1    2    0    0  0.82825569864E+02 -0.61644670614E+02 -0.28579571257E+03  0.32934530475E+03  0.12700000000E+03 0.  0.
   -5000001    1    1    2    0    0 -0.82825569864E+02  0.61644670614E+02 -0.67122412486E+03  0.69089142869E+03  0.12700000000E+03 0.  0.
<mgrwt>
<rscale>  0 0.35354777E+03</rscale>
<asrwt>0</asrwt>
<pdfrwt beam="1">  1        2 0.14123259E+00 0.35354777E+03</pdfrwt>
<pdfrwt beam="2">  1       -2 0.45154932E-02 0.35354777E+03</pdfrwt>
<totfact> 0.68001696E+03</totfact>
</mgrwt>
</event>
<event>
 4    1  0.2621617E-004  0.6278138E+03  0.7818608E-02  0.9849324E-01
         -2   -1    0    0    0  501 -0.00000000000E+00  0.00000000000E+00  0.45589976035E+02  0.45589976106E+02  0.25500000000E-02 0. -1.
          2   -1    0    0  501    0  0.00000000000E+00 -0.00000000000E+00 -0.21613864289E+04  0.21613864289E+04  0.25500000000E-02 0.  1.
    5000001    1    1    2    0    0  0.26837338642E+03  0.30222952347E+02 -0.14000047670E+04  0.14314608095E+04  0.12700000000E+03 0.  0.
   -5000001    1    1    2    0    0 -0.26837338642E+03 -0.30222952347E+02 -0.71579168585E+03  0.77551559553E+03  0.12700000000E+03 0.  0.
<mgrwt>
<rscale>  0 0.62781384E+03</rscale>
<asrwt>0</asrwt>
<pdfrwt beam="1">  1        2 0.30876943E+00 0.62781384E+03</pdfrwt>
<pdfrwt beam="2">  1       -2 0.65128551E-02 0.62781384E+03</pdfrwt>
<totfact> 0.93176750E+02</totfact>
</mgrwt>
</event>
<event>
 4    1  0.2621617E-004  0.3236735E+03  0.7818608E-02  0.1073971E+00
          2   -1    0    0  501    0  0.00000000000E+00  0.00000000000E+00  0.11516598856E+03  0.11516598859E+03  0.25500000000E-02 0.  1.
         -2   -1    0    0    0  501 -0.00000000000E+00 -0.00000000000E+00 -0.22742073685E+03  0.22742073686E+03  0.25500000000E-02 0. -1.
    5000001    1    1    2    0    0  0.23660218434E+02 -0.78341475853E+02 -0.11752507727E+03  0.19141143269E+03  0.12700000000E+03 0.  0.
   -5000001    1    1    2    0    0 -0.23660218434E+02  0.78341475853E+02  0.52703289854E+01  0.15117529277E+03  0.12700000000E+03 0.  0.
<mgrwt>
<rscale>  0 0.32367350E+03</rscale>
<asrwt>0</asrwt>
<pdfrwt beam="1">  1        2 0.16452284E-01 0.32367350E+03</pdfrwt>
<pdfrwt beam="2">  1       -2 0.32488676E-01 0.32367350E+03</pdfrwt>
<totfact> 0.30880389E+03</totfact>
</mgrwt>
</event>
<event>
 4    1  0.2621617E-004  0.4189047E+03  0.7818608E-02  0.1037423E+00
          2   -1    0    0  501    0  0.00000000000E+00  0.00000000000E+00  0.84828112953E+03  0.84828112953E+03  0.25500000000E-02 0.  1.
         -2   -1    0    0    0  501 -0.00000000000E+00 -0.00000000000E+00 -0.51716685968E+02  0.51716686031E+02  0.25500000000E-02 0. -1.
    5000001    1    1    2    0    0  0.58843093754E+02 -0.15351267158E+03  0.34092858719E+03  0.39923671121E+03  0.12700000000E+03 0.  0.
   -5000001    1    1    2    0    0 -0.58843093754E+02  0.15351267158E+03  0.45563585637E+03  0.50076110435E+03  0.12700000000E+03 0.  0.
<mgrwt>
<rscale>  0 0.41890471E+03</rscale>
<asrwt>0</asrwt>
<pdfrwt beam="1">  1        2 0.12118300E+00 0.41890471E+03</pdfrwt>
<pdfrwt beam="2">  1       -2 0.73880989E-02 0.41890471E+03</pdfrwt>
<totfact> 0.39018603E+03</totfact>
</mgrwt>
</event>
<event>
 4    1  0.2621617E-004  0.2839624E+03  0.7818608E-02  0.1093544E+00
          2   -1    0    0  501    0  0.00000000000E+00  0.00000000000E+00  0.29017613996E+03  0.29017613997E+03  0.25500000000E-02 0.  1.
         -2   -1    0    0    0  501 -0.00000000000E+00 -0.00000000000E+00 -0.69470449771E+02  0.69470449818E+02  0.25500000000E-02 0. -1.
    5000001    1    1    2    0    0  0.37820754392E+02  0.44613305474E+02  0.79099840946E+02  0.16064414501E+03  0.12700000000E+03 0.  0.
   -5000001    1    1    2    0    0 -0.37820754392E+02 -0.44613305474E+02  0.14160584924E+03  0.19900244478E+03  0.12700000000E+03 0.  0.
<mgrwt>
<rscale>  0 0.28396244E+03</rscale>
<asrwt>0</asrwt>
<pdfrwt beam="1">  1        2 0.41453734E-01 0.28396244E+03</pdfrwt>
<pdfrwt beam="2">  1       -2 0.99243500E-02 0.28396244E+03</pdfrwt>
<totfact> 0.82037278E+03</totfact>
</mgrwt>
</event>
<event>
 4    1  0.2621617E-004  0.3194571E+03  0.7818608E-02  0.1075899E+00
          2   -1    0    0  501    0  0.00000000000E+00  0.00000000000E+00  0.94308122712E+03  0.94308122713E+03  0.25500000000E-02 0.  1.
         -2   -1    0    0    0  501 -0.00000000000E+00 -0.00000000000E+00 -0.27053037748E+02  0.27053037868E+02  0.25500000000E-02 0. -1.
    5000001    1    1    2    0    0 -0.49495157588E+02 -0.75131118980E+02  0.34895217697E+03  0.38208778766E+03  0.12700000000E+03 0.  0.
   -5000001    1    1    2    0    0  0.49495157588E+02  0.75131118980E+02  0.56707601241E+03  0.58804647734E+03  0.12700000000E+03 0.  0.
<mgrwt>
<rscale>  0 0.31945712E+03</rscale>
<asrwt>0</asrwt>
<pdfrwt beam="1">  1        2 0.13472591E+00 0.31945712E+03</pdfrwt>
<pdfrwt beam="2">  1       -2 0.38647191E-02 0.31945712E+03</pdfrwt>
<totfact> 0.91518405E+03</totfact>
</mgrwt>
</event>
<event>
 4    1  0.2621617E-004  0.3981556E+03  0.7818608E-02  0.1044420E+00
         -2   -1    0    0    0  501 -0.00000000000E+00  0.00000000000E+00  0.94106506782E+01  0.94106510237E+01  0.25500000000E-02 0. -1.
          2   -1    0    0  501    0  0.00000000000E+00 -0.00000000000E+00 -0.42113944079E+04  0.42113944079E+04  0.25500000000E-02 0.  1.
    5000001    1    1    2    0    0  0.14294479509E+03  0.10728374729E+02 -0.15247623301E+04  0.15367424885E+04  0.12700000000E+03 0.  0.
   -5000001    1    1    2    0    0 -0.14294479509E+03 -0.10728374729E+02 -0.26772214271E+04  0.26840625705E+04  0.12700000000E+03 0.  0.
<mgrwt>
<rscale>  0 0.39815556E+03</rscale>
<asrwt>0</asrwt>
<pdfrwt beam="1">  1        2 0.60162657E+00 0.39815556E+03</pdfrwt>
<pdfrwt beam="2">  1       -2 0.13443814E-02 0.39815556E+03</pdfrwt>
<totfact> 0.70462463E+02</totfact>
</mgrwt>
</event>
<event>
 4    1  0.2621617E-004  0.5296214E+03  0.7818608E-02  0.1006324E+00
         -2   -1    0    0    0  501 -0.00000000000E+00  0.00000000000E+00  0.30736335075E+03  0.30736335077E+03  0.25500000000E-02 0. -1.
          2   -1    0    0  501    0  0.00000000000E+00 -0.00000000000E+00 -0.22814922017E+03  0.22814922018E+03  0.25500000000E-02 0.  1.
    5000001    1    1    2    0    0  0.10760389044E+03 -0.20550962309E+03  0.25932341810E+02  0.26573349200E+03  0.12700000000E+03 0.  0.
   -5000001    1    1    2    0    0 -0.10760389044E+03  0.20550962309E+03  0.53281788776E+02  0.26977907894E+03  0.12700000000E+03 0.  0.
<mgrwt>
<rscale>  0 0.52962141E+03</rscale>
<asrwt>0</asrwt>
<pdfrwt beam="1">  1        2 0.32592746E-01 0.52962141E+03</pdfrwt>
<pdfrwt beam="2">  1       -2 0.43909050E-01 0.52962141E+03</pdfrwt>
<totfact> 0.80047151E+02</totfact>
</mgrwt>
</event>
<event>
 4    1  0.2621617E-004  0.3489647E+03  0.7818608E-02  0.1063041E+00
         -2   -1    0    0    0  501 -0.00000000000E+00  0.00000000000E+00  0.85830301327E+02  0.85830301365E+02  0.25500000000E-02 0. -1.
          2   -1    0    0  501    0  0.00000000000E+00 -0.00000000000E+00 -0.35470103550E+03  0.35470103551E+03  0.25500000000E-02 0.  1.
    5000001    1    1    2    0    0  0.18024997801E+02 -0.10115884996E+03 -0.57056801193E+02  0.17303898993E+03  0.12700000000E+03 0.  0.
   -5000001    1    1    2    0    0 -0.18024997801E+02  0.10115884996E+03 -0.21181393298E+03  0.26749234695E+03  0.12700000000E+03 0.  0.
<mgrwt>
<rscale>  0 0.34896474E+03</rscale>
<asrwt>0</asrwt>
<pdfrwt beam="1">  1        2 0.50671576E-01 0.34896474E+03</pdfrwt>
<pdfrwt beam="2">  1       -2 0.12261472E-01 0.34896474E+03</pdfrwt>
<totfact> 0.47308917E+03</totfact>
</mgrwt>
</event>
<event>
 4    1  0.2621617E-004  0.3297599E+03  0.7818608E-02  0.1071243E+00
         -2   -1    0    0    0  501 -0.00000000000E+00  0.00000000000E+00  0.24166475776E+03  0.24166475778E+03  0.25500000000E-02 0. -1.
          2   -1    0    0  501    0  0.00000000000E+00 -0.00000000000E+00 -0.11249217862E+03  0.11249217865E+03  0.25500000000E-02 0.  1.
    5000001    1    1    2    0    0  0.27366085147E+02 -0.69919267238E+02 -0.14472294957E+02  0.14824322537E+03  0.12700000000E+03 0.  0.
   -5000001    1    1    2    0    0 -0.27366085147E+02  0.69919267238E+02  0.14364487409E+03  0.20591371106E+03  0.12700000000E+03 0.  0.
<mgrwt>
<rscale>  0 0.32975988E+03</rscale>
<asrwt>0</asrwt>
<pdfrwt beam="1">  1        2 0.16070311E-01 0.32975988E+03</pdfrwt>
<pdfrwt beam="2">  1       -2 0.34523537E-01 0.32975988E+03</pdfrwt>
<totfact> 0.28374584E+03</totfact>
</mgrwt>
</event>
<event>
 4    1  0.2621617E-004  0.3902120E+03  0.7818608E-02  0.1047223E+00
         -2   -1    0    0    0  501 -0.00000000000E+00  0.00000000000E+00  0.61121617084E+02  0.61121617138E+02  0.25500000000E-02 0. -1.
          2   -1    0    0  501    0  0.00000000000E+00 -0.00000000000E+00 -0.62279678155E+03  0.62279678155E+03  0.25500000000E-02 0.  1.
    5000001    1    1    2    0    0 -0.10995991091E+03 -0.37069776626E+02 -0.11951447929E+03  0.20947090754E+03  0.12700000000E+03 0.  0.
   -5000001    1    1    2    0    0  0.10995991091E+03  0.37069776626E+02 -0.44216068517E+03  0.47444749115E+03  0.12700000000E+03 0.  0.
<mgrwt>
<rscale>  0 0.39021198E+03</rscale>
<asrwt>0</asrwt>
<pdfrwt beam="1">  1        2 0.88970965E-01 0.39021198E+03</pdfrwt>
<pdfrwt beam="2">  1       -2 0.87316600E-02 0.39021198E+03</pdfrwt>
<totfact> 0.43673199E+03</totfact>
</mgrwt>
</event>
<event>
 4    1  0.2621617E-004  0.4352345E+03  0.7818608E-02  0.1032219E+00
          2   -1    0    0  501    0  0.00000000000E+00  0.00000000000E+00  0.69464971220E+03  0.69464971221E+03  0.25500000000E-02 0.  1.
         -2   -1    0    0    0  501 -0.00000000000E+00 -0.00000000000E+00 -0.68174319561E+02  0.68174319609E+02  0.25500000000E-02 0. -1.
    5000001    1    1    2    0    0  0.13199523076E+03 -0.39733711199E+02  0.50703903696E+03  0.54057293102E+03  0.12700000000E+03 0.  0.
   -5000001    1    1    2    0    0 -0.13199523076E+03  0.39733711199E+02  0.11943635569E+03  0.22225110080E+03  0.12700000000E+03 0.  0.
<mgrwt>
<rscale>  0 0.43523452E+03</rscale>
<asrwt>0</asrwt>
<pdfrwt beam="1">  1        2 0.99235672E-01 0.43523452E+03</pdfrwt>
<pdfrwt beam="2">  1       -2 0.97391886E-02 0.43523452E+03</pdfrwt>
<totfact> 0.32282024E+03</totfact>
</mgrwt>
</event>
<event>
 4    1  0.2621617E-004  0.4036565E+03  0.7818608E-02  0.1042521E+00
          2   -1    0    0  501    0  0.00000000000E+00  0.00000000000E+00  0.40016358450E+02  0.40016358531E+02  0.25500000000E-02 0.  1.
         -2   -1    0    0    0  501 -0.00000000000E+00 -0.00000000000E+00 -0.10179497339E+04  0.10179497339E+04  0.25500000000E-02 0. -1.
    5000001    1    1    2    0    0 -0.13080362037E+03 -0.82598499051E+02 -0.42094580668E+03  0.46610778937E+03  0.12700000000E+03 0.  0.
   -5000001    1    1    2    0    0  0.13080362037E+03  0.82598499051E+02 -0.55698756876E+03  0.59185830306E+03  0.12700000000E+03 0.  0.
<mgrwt>
<rscale>  0 0.40365649E+03</rscale>
<asrwt>0</asrwt>
<pdfrwt beam="1">  1        2 0.57166233E-02 0.40365649E+03</pdfrwt>
<pdfrwt beam="2">  1       -2 0.14542137E+00 0.40365649E+03</pdfrwt>
<totfact> 0.45458199E+02</totfact>
</mgrwt>
</event>
<event>
 4    1  0.2621617E-004  0.5570610E+03  0.7818608E-02  0.9998727E-01
         -2   -1    0    0    0  501 -0.00000000000E+00  0.00000000000E+00  0.49147796150E+02  0.49147796216E+02  0.25500000000E-02 0. -1.
          2   -1    0    0  501    0  0.00000000000E+00 -0.00000000000E+00 -0.15784886420E+04  0.15784886420E+04  0.25500000000E-02 0.  1.
    5000001    1    1    2    0    0 -0.66615855381E+02  0.23813609335E+03 -0.81559470178E+03  0.86166709855E+03  0.12700000000E+03 0.  0.
   -5000001    1    1    2    0    0  0.66615855381E+02 -0.23813609335E+03 -0.71374614410E+03  0.76596933970E+03  0.12700000000E+03 0.  0.
<mgrwt>
<rscale>  0 0.55706100E+03</rscale>
<asrwt>0</asrwt>
<pdfrwt beam="1">  1        2 0.22549835E+00 0.55706100E+03</pdfrwt>
<pdfrwt beam="2">  1       -2 0.70211147E-02 0.55706100E+03</pdfrwt>
<totfact> 0.16359674E+03</totfact>
</mgrwt>
</event>
<event>
 4    1  0.2621617E-004  0.3578996E+03  0.7818608E-02  0.1059419E+00
         -2   -1    0    0    0  501 -0.00000000000E+00  0.00000000000E+00  0.13056886966E+02  0.13056887215E+02  0.25500000000E-02 0. -1.
          2   -1    0    0  501    0  0.00000000000E+00 -0.00000000000E+00 -0.24525775143E+04  0.24525775143E+04  0.25500000000E-02 0.  1.
    5000001    1    1    2    0    0  0.55830437925E+02 -0.83931020437E+02 -0.69815463228E+03  0.71673589597E+03  0.12700000000E+03 0.  0.
   -5000001    1    1    2    0    0 -0.55830437925E+02  0.83931020437E+02 -0.17413659950E+04  0.17488985055E+04  0.12700000000E+03 0.  0.
<mgrwt>
<rscale>  0 0.35789958E+03</rscale>
<asrwt>0</asrwt>
<pdfrwt beam="1">  1        2 0.35036792E+00 0.35789958E+03</pdfrwt>
<pdfrwt beam="2">  1       -2 0.18652712E-02 0.35789958E+03</pdfrwt>
<totfact> 0.45259798E+03</totfact>
</mgrwt>
</event>
<event>
 4    1  0.2621617E-004  0.3959376E+03  0.7818608E-02  0.1045195E+00
         -2   -1    0    0    0  501 -0.00000000000E+00  0.00000000000E+00  0.26026509455E+03  0.26026509457E+03  0.25500000000E-02 0. -1.
          2   -1    0    0  501    0  0.00000000000E+00 -0.00000000000E+00 -0.15058353544E+03  0.15058353547E+03  0.25500000000E-02 0.  1.
    5000001    1    1    2    0    0 -0.97670850425E+02  0.91048463907E+02 -0.20224593613E+02  0.18538460559E+03  0.12700000000E+03 0.  0.
   -5000001    1    1    2    0    0  0.97670850425E+02 -0.91048463907E+02  0.12990615272E+03  0.22546402444E+03  0.12700000000E+03 0.  0.
<mgrwt>
<rscale>  0 0.39593756E+03</rscale>
<asrwt>0</asrwt>
<pdfrwt beam="1">  1        2 0.21511934E-01 0.39593756E+03</pdfrwt>
<pdfrwt beam="2">  1       -2 0.37180728E-01 0.39593756E+03</pdfrwt>
<totfact> 0.17627492E+03</totfact>
</mgrwt>
</event>
<event>
 4    1  0.2621617E-004  0.2853005E+03  0.7818608E-02  0.1092829E+00
         -2   -1    0    0    0  501 -0.00000000000E+00  0.00000000000E+00  0.14882728459E+02  0.14882728678E+02  0.25500000000E-02 0. -1.
          2   -1    0    0  501    0  0.00000000000E+00 -0.00000000000E+00 -0.13672959336E+04  0.13672959336E+04  0.25500000000E-02 0.  1.
    5000001    1    1    2    0    0 -0.32718118225E+02 -0.55852529731E+02 -0.70279213015E+03  0.71710233477E+03  0.12700000000E+03 0.  0.
   -5000001    1    1    2    0    0  0.32718118225E+02  0.55852529731E+02 -0.64962107501E+03  0.66507632752E+03  0.12700000000E+03 0.  0.
<mgrwt>
<rscale>  0 0.28530050E+03</rscale>
<asrwt>0</asrwt>
<pdfrwt beam="1">  1        2 0.19532791E+00 0.28530050E+03</pdfrwt>
<pdfrwt beam="2">  1       -2 0.21261049E-02 0.28530050E+03</pdfrwt>
<totfact> 0.12896581E+04</totfact>
</mgrwt>
</event>
<event>
 4    1  0.2621617E-004  0.3069416E+03  0.7818608E-02  0.1081821E+00
          2   -1    0    0  501    0  0.00000000000E+00  0.00000000000E+00  0.41449926709E+03  0.41449926709E+03  0.25500000000E-02 0.  1.
         -2   -1    0    0    0  501 -0.00000000000E+00 -0.00000000000E+00 -0.56823471831E+02  0.56823471888E+02  0.25500000000E-02 0. -1.
    5000001    1    1    2    0    0 -0.49112414295E+01  0.63316142418E+02  0.89416498140E+02  0.16780156234E+03  0.12700000000E+03 0.  0.
   -5000001    1    1    2    0    0  0.49112414295E+01 -0.63316142418E+02  0.26825929712E+03  0.30352117665E+03  0.12700000000E+03 0.  0.
<mgrwt>
<rscale>  0 0.30694161E+03</rscale>
<asrwt>0</asrwt>
<pdfrwt beam="1">  1        2 0.59214179E-01 0.30694161E+03</pdfrwt>
<pdfrwt beam="2">  1       -2 0.81176392E-02 0.30694161E+03</pdfrwt>
<totfact> 0.76859405E+03</totfact>
</mgrwt>
</event>
<event>
 4    1  0.2621617E-004  0.2913526E+03  0.7818608E-02  0.1089645E+00
          2   -1    0    0  501    0  0.00000000000E+00  0.00000000000E+00  0.20318552979E+04  0.20318552979E+04  0.25500000000E-02 0.  1.
         -2   -1    0    0    0  501 -0.00000000000E+00 -0.00000000000E+00 -0.10444437067E+02  0.10444437378E+02  0.25500000000E-02 0. -1.
    5000001    1    1    2    0    0  0.33757953964E+02  0.62381970498E+02  0.95574485272E+03  0.96675143299E+03  0.12700000000E+03 0.  0.
   -5000001    1    1    2    0    0 -0.33757953964E+02 -0.62381970498E+02  0.10656660081E+04  0.10755483023E+04  0.12700000000E+03 0.  0.
<mgrwt>
<rscale>  0 0.29135260E+03</rscale>
<asrwt>0</asrwt>
<pdfrwt beam="1">  1        2 0.29026519E+00 0.29135260E+03</pdfrwt>
<pdfrwt beam="2">  1       -2 0.14920617E-02 0.29135260E+03</pdfrwt>
<totfact> 0.10144334E+04</totfact>
</mgrwt>
</event>
<event>
 4    1  0.2621617E-004  0.3150065E+03  0.7818608E-02  0.1077971E+00
          2   -1    0    0  501    0  0.00000000000E+00  0.00000000000E+00  0.13009165189E+04  0.13009165189E+04  0.25500000000E-02 0. -1.
         -2   -1    0    0    0  501 -0.00000000000E+00 -0.00000000000E+00 -0.19069069021E+02  0.19069069192E+02  0.25500000000E-02 0.  1.
    5000001    1    1    2    0    0 -0.24004046370E+02  0.83010280458E+02  0.49508010300E+03  0.51836300918E+03  0.12700000000E+03 0.  0.
   -5000001    1    1    2    0    0  0.24004046370E+02 -0.83010280458E+02  0.78676734685E+03  0.80162257888E+03  0.12700000000E+03 0.  0.
<mgrwt>
<rscale>  0 0.31500646E+03</rscale>
<asrwt>0</asrwt>
<pdfrwt beam="1">  1        2 0.18584523E+00 0.31500646E+03</pdfrwt>
<pdfrwt beam="2">  1       -2 0.27241526E-02 0.31500646E+03</pdfrwt>
<totfact> 0.97011556E+03</totfact>
</mgrwt>
</event>
<event>
 4    1  0.2621617E-004  0.3832875E+03  0.7818608E-02  0.1049725E+00
          2   -1    0    0  501    0  0.00000000000E+00  0.00000000000E+00  0.34663294333E+03  0.34663294334E+03  0.25500000000E-02 0.  1.
         -2   -1    0    0    0  501 -0.00000000000E+00 -0.00000000000E+00 -0.10595452900E+03  0.10595452904E+03  0.25500000000E-02 0. -1.
    5000001    1    1    2    0    0 -0.11482817556E+03 -0.36797011091E+02  0.28427427999E+02  0.17741659615E+03  0.12700000000E+03 0.  0.
   -5000001    1    1    2    0    0  0.11482817556E+03  0.36797011091E+02  0.21225098633E+03  0.27517087623E+03  0.12700000000E+03 0.  0.
<mgrwt>
<rscale>  0 0.38328752E+03</rscale>
<asrwt>0</asrwt>
<pdfrwt beam="1">  1        2 0.49518992E-01 0.38328752E+03</pdfrwt>
<pdfrwt beam="2">  1       -2 0.15136361E-01 0.38328752E+03</pdfrwt>
<totfact> 0.34358372E+03</totfact>
</mgrwt>
</event>
<event>
 4    1  0.2621617E-004  0.3394040E+03  0.7818608E-02  0.1067050E+00
         -2   -1    0    0    0  501 -0.00000000000E+00  0.00000000000E+00  0.15602085879E+02  0.15602086088E+02  0.25500000000E-02 0. -1.
          2   -1    0    0  501    0  0.00000000000E+00 -0.00000000000E+00 -0.18458285676E+04  0.18458285676E+04  0.25500000000E-02 0.  1.
    5000001    1    1    2    0    0 -0.65408988337E+02 -0.59673900859E+02 -0.12962881959E+04  0.13055004393E+04  0.12700000000E+03 0.  0.
   -5000001    1    1    2    0    0  0.65408988337E+02  0.59673900859E+02 -0.53393828582E+03  0.55593021438E+03  0.12700000000E+03 0.  0.
<mgrwt>
<rscale>  0 0.33940404E+03</rscale>
<asrwt>0</asrwt>
<pdfrwt beam="1">  1        2 0.26368965E+00 0.33940404E+03</pdfrwt>
<pdfrwt beam="2">  1       -2 0.22288706E-02 0.33940404E+03</pdfrwt>
<totfact> 0.69367064E+03</totfact>
</mgrwt>
</event>
<event>
 4    1  0.2621617E-004  0.6280755E+03  0.7818608E-02  0.9848812E-01
          2   -1    0    0  501    0  0.00000000000E+00  0.00000000000E+00  0.23356356554E+04  0.23356356554E+04  0.25500000000E-02 0.  1.
         -2   -1    0    0    0  501 -0.00000000000E+00 -0.00000000000E+00 -0.42223920260E+02  0.42223920337E+02  0.25500000000E-02 0. -1.
    5000001    1    1    2    0    0  0.15508441227E+03 -0.51164542150E+02  0.25221492889E+03  0.32620600187E+03  0.12700000000E+03 0.  0.
   -5000001    1    1    2    0    0 -0.15508441227E+03  0.51164542150E+02  0.20411968063E+04  0.20516535739E+04  0.12700000000E+03 0.  0.
<mgrwt>
<rscale>  0 0.62807545E+03</rscale>
<asrwt>0</asrwt>
<pdfrwt beam="1">  1        2 0.33366224E+00 0.62807545E+03</pdfrwt>
<pdfrwt beam="2">  1       -2 0.60319885E-02 0.62807545E+03</pdfrwt>
<totfact> 0.85809913E+02</totfact>
</mgrwt>
</event>
<event>
 4    1  0.2621617E-004  0.4043514E+03  0.7818608E-02  0.1042283E+00
          2   -1    0    0  501    0  0.00000000000E+00  0.00000000000E+00  0.29649645479E+03  0.29649645480E+03  0.25500000000E-02 0.  1.
         -2   -1    0    0    0  501 -0.00000000000E+00 -0.00000000000E+00 -0.13786006279E+03  0.13786006281E+03  0.25500000000E-02 0. -1.
    5000001    1    1    2    0    0 -0.12093090053E+03 -0.10434613746E+02  0.18680777057E+03  0.25643577560E+03  0.12700000000E+03 0.  0.
   -5000001    1    1    2    0    0  0.12093090053E+03  0.10434613746E+02 -0.28171378561E+02  0.17792074201E+03  0.12700000000E+03 0.  0.
<mgrwt>
<rscale>  0 0.40435143E+03</rscale>
<asrwt>0</asrwt>
<pdfrwt beam="1">  1        2 0.42356636E-01 0.40435143E+03</pdfrwt>
<pdfrwt beam="2">  1       -2 0.19694295E-01 0.40435143E+03</pdfrwt>
<totfact> 0.26104223E+03</totfact>
</mgrwt>
</event>
<event>
 4    1  0.2621617E-004  0.3880952E+03  0.7818608E-02  0.1047982E+00
         -2   -1    0    0    0  501 -0.00000000000E+00  0.00000000000E+00  0.20660187414E+02  0.20660187571E+02  0.25500000000E-02 0. -1.
          2   -1    0    0  501    0  0.00000000000E+00 -0.00000000000E+00 -0.18225621836E+04  0.18225621836E+04  0.25500000000E-02 0.  1.
    5000001    1    1    2    0    0 -0.11561871956E+03  0.64662526080E+02 -0.60145403215E+03  0.62882818271E+03  0.12700000000E+03 0.  0.
   -5000001    1    1    2    0    0  0.11561871956E+03 -0.64662526080E+02 -0.12004479640E+04  0.12143941884E+04  0.12700000000E+03 0.  0.
<mgrwt>
<rscale>  0 0.38809523E+03</rscale>
<asrwt>0</asrwt>
<pdfrwt beam="1">  1        2 0.26036592E+00 0.38809523E+03</pdfrwt>
<pdfrwt beam="2">  1       -2 0.29514565E-02 0.38809523E+03</pdfrwt>
<totfact> 0.46850120E+03</totfact>
</mgrwt>
</event>
<event>
 4    1  0.2621617E-004  0.5656793E+03  0.7818608E-02  0.9979286E-01
          2   -1    0    0  501    0  0.00000000000E+00  0.00000000000E+00  0.13081433594E+04  0.13081433594E+04  0.25500000000E-02 0.  1.
         -2   -1    0    0    0  501 -0.00000000000E+00 -0.00000000000E+00 -0.61154051635E+02  0.61154051688E+02  0.25500000000E-02 0. -1.
    5000001    1    1    2    0    0 -0.15668386168E+03  0.16705258698E+03  0.36489681802E+03  0.44914929270E+03  0.12700000000E+03 0.  0.
   -5000001    1    1    2    0    0  0.15668386168E+03 -0.16705258698E+03  0.88209248975E+03  0.92014811841E+03  0.12700000000E+03 0.  0.
<mgrwt>
<rscale>  0 0.56567930E+03</rscale>
<asrwt>0</asrwt>
<pdfrwt beam="1">  1        2 0.18687761E+00 0.56567930E+03</pdfrwt>
<pdfrwt beam="2">  1       -2 0.87362936E-02 0.56567930E+03</pdfrwt>
<totfact> 0.16032573E+03</totfact>
</mgrwt>
</event>
<event>
 4    1  0.2621617E-004  0.6055961E+03  0.7818608E-02  0.9893863E-01
         -2   -1    0    0    0  501 -0.00000000000E+00  0.00000000000E+00  0.87756920126E+02  0.87756920163E+02  0.25500000000E-02 0. -1.
          2   -1    0    0  501    0  0.00000000000E+00 -0.00000000000E+00 -0.10447799705E+04  0.10447799705E+04  0.25500000000E-02 0.  1.
    5000001    1    1    2    0    0  0.18678140859E+03 -0.37886655554E+02 -0.84894136966E+03  0.87929127278E+03  0.12700000000E+03 0.  0.
   -5000001    1    1    2    0    0 -0.18678140859E+03  0.37886655554E+02 -0.10808168067E+03  0.25324561785E+03  0.12700000000E+03 0.  0.
<mgrwt>
<rscale>  0 0.60559614E+03</rscale>
<asrwt>0</asrwt>
<pdfrwt beam="1">  1        2 0.14925427E+00 0.60559614E+03</pdfrwt>
<pdfrwt beam="2">  1       -2 0.12536703E-01 0.60559614E+03</pdfrwt>
<totfact> 0.12546225E+03</totfact>
</mgrwt>
</event>
<event>
 4    1  0.2621617E-004  0.5762506E+03  0.7818608E-02  0.9955942E-01
         -2   -1    0    0    0  501 -0.00000000000E+00  0.00000000000E+00  0.71440979644E+02  0.71440979690E+02  0.25500000000E-02 0. -1.
          2   -1    0    0  501    0  0.00000000000E+00 -0.00000000000E+00 -0.11620247659E+04  0.11620247659E+04  0.25500000000E-02 0.  1.
    5000001    1    1    2    0    0 -0.10563432666E+03 -0.22620580566E+03 -0.68982748330E+03  0.74452577807E+03  0.12700000000E+03 0.  0.
   -5000001    1    1    2    0    0  0.10563432666E+03  0.22620580566E+03 -0.40075630294E+03  0.48893996751E+03  0.12700000000E+03 0.  0.
<mgrwt>
<rscale>  0 0.57625060E+03</rscale>
<asrwt>0</asrwt>
<pdfrwt beam="1">  1        2 0.16600353E+00 0.57625060E+03</pdfrwt>
<pdfrwt beam="2">  1       -2 0.10205855E-01 0.57625060E+03</pdfrwt>
<totfact> 0.15029214E+03</totfact>
</mgrwt>
</event>
<event>
 4    1  0.2621617E-004  0.4067351E+03  0.7818608E-02  0.1041472E+00
         -2   -1    0    0    0  501 -0.00000000000E+00  0.00000000000E+00  0.27294270785E+02  0.27294270904E+02  0.25500000000E-02 0. -1.
          2   -1    0    0  501    0  0.00000000000E+00 -0.00000000000E+00 -0.15152762996E+04  0.15152762996E+04  0.25500000000E-02 0.  1.
    5000001    1    1    2    0    0 -0.30472797765E+02  0.14120975154E+03 -0.99443195825E+03  0.10128636162E+04  0.12700000000E+03 0.  0.
   -5000001    1    1    2    0    0  0.30472797765E+02 -0.14120975154E+03 -0.49355007055E+03  0.52970695434E+03  0.12700000000E+03 0.  0.
<mgrwt>
<rscale>  0 0.40673511E+03</rscale>
<asrwt>0</asrwt>
<pdfrwt beam="1">  1        2 0.21646799E+00 0.40673511E+03</pdfrwt>
<pdfrwt beam="2">  1       -2 0.38991825E-02 0.40673511E+03</pdfrwt>
<totfact> 0.43903242E+03</totfact>
</mgrwt>
</event>
<event>
 4    1  0.2621617E-004  0.5875705E+03  0.7818608E-02  0.9931534E-01
          2   -1    0    0  501    0  0.00000000000E+00  0.00000000000E+00  0.13286419939E+04  0.13286419939E+04  0.25500000000E-02 0.  1.
         -2   -1    0    0    0  501 -0.00000000000E+00 -0.00000000000E+00 -0.64960905711E+02  0.64960905762E+02  0.25500000000E-02 0. -1.
    5000001    1    1    2    0    0  0.15118966211E+03 -0.12758715793E+03  0.10497361393E+04  0.10757377743E+04  0.12700000000E+03 0.  0.
   -5000001    1    1    2    0    0 -0.15118966211E+03  0.12758715793E+03  0.21394494887E+03  0.31786512539E+03  0.12700000000E+03 0.  0.
<mgrwt>
<rscale>  0 0.58757055E+03</rscale>
<asrwt>0</asrwt>
<pdfrwt beam="1">  1        2 0.18980600E+00 0.58757055E+03</pdfrwt>
<pdfrwt beam="2">  1       -2 0.92801294E-02 0.58757055E+03</pdfrwt>
<totfact> 0.14175659E+03</totfact>
</mgrwt>
</event>
<event>
 4    1  0.2621617E-004  0.3042336E+03  0.7818608E-02  0.1083143E+00
         -2   -1    0    0    0  501 -0.00000000000E+00  0.00000000000E+00  0.38338976859E+02  0.38338976944E+02  0.25500000000E-02 0. -1.
          2   -1    0    0  501    0  0.00000000000E+00 -0.00000000000E+00 -0.60355068028E+03  0.60355068028E+03  0.25500000000E-02 0.  1.
    5000001    1    1    2    0    0 -0.31556854709E+02 -0.59928349709E+02 -0.38646732042E+03  0.41239935976E+03  0.12700000000E+03 0.  0.
   -5000001    1    1    2    0    0  0.31556854709E+02  0.59928349709E+02 -0.17874438300E+03  0.22949029747E+03  0.12700000000E+03 0.  0.
<mgrwt>
<rscale>  0 0.30423357E+03</rscale>
<asrwt>0</asrwt>
<pdfrwt beam="1">  1        2 0.86221520E-01 0.30423357E+03</pdfrwt>
<pdfrwt beam="2">  1       -2 0.54769971E-02 0.30423357E+03</pdfrwt>
<totfact> 0.93021228E+03</totfact>
</mgrwt>
</event>
<event>
 4    1  0.2621617E-004  0.4582588E+03  0.7818608E-02  0.1025287E+00
          2   -1    0    0  501    0  0.00000000000E+00  0.00000000000E+00  0.27286587625E+04  0.27286587625E+04  0.25500000000E-02 0.  1.
         -2   -1    0    0    0  501 -0.00000000000E+00 -0.00000000000E+00 -0.19240326294E+02  0.19240326463E+02  0.25500000000E-02 0. -1.
    5000001    1    1    2    0    0 -0.17771061004E+03  0.44577066729E+02  0.10372338943E+04  0.10609200382E+04  0.12700000000E+03 0.  0.
   -5000001    1    1    2    0    0  0.17771061004E+03 -0.44577066729E+02  0.16721845419E+04  0.16869790508E+04  0.12700000000E+03 0.  0.
<mgrwt>
<rscale>  0 0.45825881E+03</rscale>
<asrwt>0</asrwt>
<pdfrwt beam="1">  1        2 0.38980828E+00 0.45825881E+03</pdfrwt>
<pdfrwt beam="2">  1       -2 0.27486189E-02 0.45825881E+03</pdfrwt>
<totfact> 0.18236043E+03</totfact>
</mgrwt>
</event>
<event>
 4    1  0.2621617E-004  0.3266271E+03  0.7818608E-02  0.1072639E+00
          2   -1    0    0  501    0  0.00000000000E+00  0.00000000000E+00  0.18461284851E+04  0.18461284851E+04  0.25500000000E-02 0.  1.
         -2   -1    0    0    0  501 -0.00000000000E+00 -0.00000000000E+00 -0.14447159824E+02  0.14447160049E+02  0.25500000000E-02 0. -1.
    5000001    1    1    2    0    0  0.42045713887E+02 -0.68428281035E+02  0.12802295837E+04  0.12890178659E+04  0.12700000000E+03 0.  0.
   -5000001    1    1    2    0    0 -0.42045713887E+02  0.68428281035E+02  0.55145174156E+03  0.57155777920E+03  0.12700000000E+03 0.  0.
<mgrwt>
<rscale>  0 0.32662709E+03</rscale>
<asrwt>0</asrwt>
<pdfrwt beam="1">  1        2 0.26373272E+00 0.32662709E+03</pdfrwt>
<pdfrwt beam="2">  1       -2 0.20638794E-02 0.32662709E+03</pdfrwt>
<totfact> 0.77693389E+03</totfact>
</mgrwt>
</event>
<event>
 4    1  0.2621617E-004  0.5490506E+03  0.7818608E-02  0.1001714E+00
          2   -1    0    0  501    0  0.00000000000E+00  0.00000000000E+00  0.11434530747E+04  0.11434530747E+04  0.25500000000E-02 0.  1.
         -2   -1    0    0    0  501 -0.00000000000E+00 -0.00000000000E+00 -0.65909250441E+02  0.65909250490E+02  0.25500000000E-02 0. -1.
    5000001    1    1    2    0    0 -0.19061951025E+03  0.13436633425E+03  0.38545427445E+03  0.46807489482E+03  0.12700000000E+03 0.  0.
   -5000001    1    1    2    0    0  0.19061951025E+03 -0.13436633425E+03  0.69208954979E+03  0.74128743035E+03  0.12700000000E+03 0.  0.
<mgrwt>
<rscale>  0 0.54905058E+03</rscale>
<asrwt>0</asrwt>
<pdfrwt beam="1">  1        2 0.16335043E+00 0.54905058E+03</pdfrwt>
<pdfrwt beam="2">  1       -2 0.94156080E-02 0.54905058E+03</pdfrwt>
<totfact> 0.17550257E+03</totfact>
</mgrwt>
</event>
<event>
 4    1  0.2621617E-004  0.4290829E+03  0.7818608E-02  0.1034150E+00
         -2   -1    0    0    0  501 -0.00000000000E+00  0.00000000000E+00  0.15919191578E+03  0.15919191580E+03  0.25500000000E-02 0. -1.
          2   -1    0    0  501    0  0.00000000000E+00 -0.00000000000E+00 -0.28913544400E+03  0.28913544401E+03  0.25500000000E-02 0.  1.
    5000001    1    1    2    0    0 -0.53452654182E+02 -0.14846312113E+03  0.89143044470E+01  0.20274848803E+03  0.12700000000E+03 0.  0.
   -5000001    1    1    2    0    0  0.53452654182E+02  0.14846312113E+03 -0.13885783267E+03  0.24557887179E+03  0.12700000000E+03 0.  0.
<mgrwt>
<rscale>  0 0.42908286E+03</rscale>
<asrwt>0</asrwt>
<pdfrwt beam="1">  1        2 0.41305063E-01 0.42908286E+03</pdfrwt>
<pdfrwt beam="2">  1       -2 0.22741702E-01 0.42908286E+03</pdfrwt>
<totfact> 0.20903603E+03</totfact>
</mgrwt>
</event>
<event>
 4    1  0.2621617E-004  0.3404711E+03  0.7818608E-02  0.1066595E+00
         -2   -1    0    0    0  501 -0.00000000000E+00  0.00000000000E+00  0.34123235064E+02  0.34123235159E+02  0.25500000000E-02 0. -1.
          2   -1    0    0  501    0  0.00000000000E+00 -0.00000000000E+00 -0.84927868585E+03  0.84927868585E+03  0.25500000000E-02 0.  1.
    5000001    1    1    2    0    0  0.10819721502E+03  0.33379076281E+02 -0.42186859810E+03  0.45488780390E+03  0.12700000000E+03 0.  0.
   -5000001    1    1    2    0    0 -0.10819721502E+03 -0.33379076281E+02 -0.39328685269E+03  0.42851411712E+03  0.12700000000E+03 0.  0.
<mgrwt>
<rscale>  0 0.34047106E+03</rscale>
<asrwt>0</asrwt>
<pdfrwt beam="1">  1        2 0.12132551E+00 0.34047106E+03</pdfrwt>
<pdfrwt beam="2">  1       -2 0.48747484E-02 0.34047106E+03</pdfrwt>
<totfact> 0.73884176E+03</totfact>
</mgrwt>
</event>
<event>
 4    1  0.2621617E-004  0.3361074E+03  0.7818608E-02  0.1068466E+00
          2   -1    0    0  501    0  0.00000000000E+00  0.00000000000E+00  0.28435969184E+03  0.28435969185E+03  0.25500000000E-02 0.  1.
         -2   -1    0    0    0  501 -0.00000000000E+00 -0.00000000000E+00 -0.99318050601E+02  0.99318050634E+02  0.25500000000E-02 0. -1.
    5000001    1    1    2    0    0  0.16731020690E+02 -0.37265093052E+02 -0.24141603745E+02  0.13557444909E+03  0.12700000000E+03 0.  0.
   -5000001    1    1    2    0    0 -0.16731020690E+02  0.37265093052E+02  0.20918324498E+03  0.24810329340E+03  0.12700000000E+03 0.  0.
<mgrwt>
<rscale>  0 0.33610742E+03</rscale>
<asrwt>0</asrwt>
<pdfrwt beam="1">  1        2 0.40622813E-01 0.33610742E+03</pdfrwt>
<pdfrwt beam="2">  1       -2 0.14188293E-01 0.33610742E+03</pdfrwt>
<totfact> 0.47282089E+03</totfact>
</mgrwt>
</event>
<event>
 4    1  0.2621617E-004  0.3771537E+03  0.7818608E-02  0.1051991E+00
         -2   -1    0    0    0  501 -0.00000000000E+00  0.00000000000E+00  0.18726054442E+03  0.18726054444E+03  0.25500000000E-02 0. -1.
          2   -1    0    0  501    0  0.00000000000E+00 -0.00000000000E+00 -0.18990240678E+03  0.18990240679E+03  0.25500000000E-02 0.  1.
    5000001    1    1    2    0    0 -0.85196748812E+02 -0.93976015383E+02 -0.59134550713E+02  0.18898643487E+03  0.12700000000E+03 0.  0.
   -5000001    1    1    2    0    0  0.85196748812E+02  0.93976015383E+02  0.56492688360E+02  0.18817651637E+03  0.12700000000E+03 0.  0.
<mgrwt>
<rscale>  0 0.37715370E+03</rscale>
<asrwt>0</asrwt>
<pdfrwt beam="1">  1        2 0.27128915E-01 0.37715370E+03</pdfrwt>
<pdfrwt beam="2">  1       -2 0.26751506E-01 0.37715370E+03</pdfrwt>
<totfact> 0.24864462E+03</totfact>
</mgrwt>
</event>
<event>
 4    1  0.2621617E-004  0.3200146E+03  0.7818608E-02  0.1075643E+00
          2   -1    0    0  501    0  0.00000000000E+00  0.00000000000E+00  0.87176214850E+03  0.87176214850E+03  0.25500000000E-02 0.  1.
         -2   -1    0    0    0  501 -0.00000000000E+00 -0.00000000000E+00 -0.29368495752E+02  0.29368495862E+02  0.25500000000E-02 0. -1.
    5000001    1    1    2    0    0 -0.81062138331E+02 -0.11655560302E+02  0.56930431438E+03  0.58901895108E+03  0.12700000000E+03 0.  0.
   -5000001    1    1    2    0    0  0.81062138331E+02  0.11655560302E+02  0.27308933836E+03  0.31211169328E+03  0.12700000000E+03 0.  0.
<mgrwt>
<rscale>  0 0.32001464E+03</rscale>
<asrwt>0</asrwt>
<pdfrwt beam="1">  1        2 0.12453743E+00 0.32001464E+03</pdfrwt>
<pdfrwt beam="2">  1       -2 0.41955001E-02 0.32001464E+03</pdfrwt>
<totfact> 0.89605131E+03</totfact>
</mgrwt>
</event>
<event>
 4    1  0.2621617E-004  0.4369066E+03  0.7818608E-02  0.1031700E+00
         -2   -1    0    0    0  501 -0.00000000000E+00  0.00000000000E+00  0.30306929977E+02  0.30306930084E+02  0.25500000000E-02 0. -1.
          2   -1    0    0  501    0  0.00000000000E+00 -0.00000000000E+00 -0.15746182810E+04  0.15746182810E+04  0.25500000000E-02 0.  1.
    5000001    1    1    2    0    0  0.14755120971E+03 -0.64325885767E+02 -0.10490923663E+04  0.10689401163E+04  0.12700000000E+03 0.  0.
   -5000001    1    1    2    0    0 -0.14755120971E+03  0.64325885767E+02 -0.49521898467E+03  0.53598509480E+03  0.12700000000E+03 0.  0.
<mgrwt>
<rscale>  0 0.43690661E+03</rscale>
<asrwt>0</asrwt>
<pdfrwt beam="1">  1        2 0.22494542E+00 0.43690661E+03</pdfrwt>
<pdfrwt beam="2">  1       -2 0.43295624E-02 0.43690661E+03</pdfrwt>
<totfact> 0.34902544E+03</totfact>
</mgrwt>
</event>
<event>
 4    1  0.2621617E-004  0.1444631E+04  0.7818608E-02  0.8922131E-01
          2   -1    0    0  501    0  0.00000000000E+00  0.00000000000E+00  0.33877816241E+04  0.33877816241E+04  0.25500000000E-02 0.  1.
         -2   -1    0    0    0  501 -0.00000000000E+00 -0.00000000000E+00 -0.15400621612E+03  0.15400621614E+03  0.25500000000E-02 0. -1.
    5000001    1    1    2    0    0  0.65099661972E+03  0.16889274285E+03  0.21828464743E+04  0.22876339497E+04  0.12700000000E+03 0.  0.
   -5000001    1    1    2    0    0 -0.65099661972E+03 -0.16889274285E+03  0.10509289336E+04  0.12541538905E+04  0.12700000000E+03 0.  0.
<mgrwt>
<rscale>  0 0.14446307E+04</rscale>
<asrwt>0</asrwt>
<pdfrwt beam="1">  1        2 0.48396877E+00 0.14446307E+04</pdfrwt>
<pdfrwt beam="2">  1       -2 0.22000889E-01 0.14446307E+04</pdfrwt>
<totfact> 0.24912867E+01</totfact>
</mgrwt>
</event>
<event>
 4    1  0.2621617E-004  0.6749671E+03  0.7818608E-02  0.9761026E-01
         -2   -1    0    0    0  501 -0.00000000000E+00  0.00000000000E+00  0.55703998371E+02  0.55703998430E+02  0.25500000000E-02 0. -1.
          2   -1    0    0  501    0  0.00000000000E+00 -0.00000000000E+00 -0.20446492429E+04  0.20446492429E+04  0.25500000000E-02 0.  1.
    5000001    1    1    2    0    0  0.58288524311E+02 -0.14418807926E+03 -0.18385550810E+04  0.18494868316E+04  0.12700000000E+03 0.  0.
   -5000001    1    1    2    0    0 -0.58288524311E+02  0.14418807926E+03 -0.15039016355E+03  0.25086640979E+03  0.12700000000E+03 0.  0.
<mgrwt>
<rscale>  0 0.67496708E+03</rscale>
<asrwt>0</asrwt>
<pdfrwt beam="1">  1        2 0.29209270E+00 0.67496708E+03</pdfrwt>
<pdfrwt beam="2">  1       -2 0.79577153E-02 0.67496708E+03</pdfrwt>
<totfact> 0.77423333E+02</totfact>
</mgrwt>
</event>
<event>
 4    1  0.2621617E-004  0.5489008E+03  0.7818608E-02  0.1001749E+00
          2   -1    0    0  501    0  0.00000000000E+00  0.00000000000E+00  0.91606885281E+02  0.91606885316E+02  0.25500000000E-02 0.  1.
         -2   -1    0    0    0  501 -0.00000000000E+00 -0.00000000000E+00 -0.82224190095E+03  0.82224190095E+03  0.25500000000E-02 0. -1.
    5000001    1    1    2    0    0 -0.19453020889E+03  0.59799095141E+02 -0.14334532700E+03  0.27945449849E+03  0.12700000000E+03 0.  0.
   -5000001    1    1    2    0    0  0.19453020889E+03 -0.59799095141E+02 -0.58728968867E+03  0.63439428778E+03  0.12700000000E+03 0.  0.
<mgrwt>
<rscale>  0 0.54890079E+03</rscale>
<asrwt>0</asrwt>
<pdfrwt beam="1">  1        2 0.13086698E-01 0.54890079E+03</pdfrwt>
<pdfrwt beam="2">  1       -2 0.11746312E+00 0.54890079E+03</pdfrwt>
<totfact> 0.26886494E+02</totfact>
</mgrwt>
</event>
<event>
 4    1  0.2621617E-004  0.3342027E+03  0.7818608E-02  0.1069292E+00
         -2   -1    0    0    0  501 -0.00000000000E+00  0.00000000000E+00  0.78267635711E+03  0.78267635712E+03  0.25500000000E-02 0. -1.
          2   -1    0    0  501    0  0.00000000000E+00 -0.00000000000E+00 -0.35676119415E+02  0.35676119506E+02  0.25500000000E-02 0.  1.
    5000001    1    1    2    0    0  0.41536334525E+02  0.90479524028E+02  0.26727056346E+03  0.31220884908E+03  0.12700000000E+03 0.  0.
   -5000001    1    1    2    0    0 -0.41536334525E+02 -0.90479524028E+02  0.47972967424E+03  0.50614362754E+03  0.12700000000E+03 0.  0.
<mgrwt>
<rscale>  0 0.33420266E+03</rscale>
<asrwt>0</asrwt>
<pdfrwt beam="1">  1        2 0.50965889E-02 0.33420266E+03</pdfrwt>
<pdfrwt beam="2">  1       -2 0.11181090E+00 0.33420266E+03</pdfrwt>
<totfact> 0.10148616E+03</totfact>
</mgrwt>
</event>
<event>
 4    1  0.2621617E-004  0.5401119E+03  0.7818608E-02  0.1003809E+00
         -2   -1    0    0    0  501 -0.00000000000E+00  0.00000000000E+00  0.42193833810E+02  0.42193833887E+02  0.25500000000E-02 0. -1.
          2   -1    0    0  501    0  0.00000000000E+00 -0.00000000000E+00 -0.17284565595E+04  0.17284565595E+04  0.25500000000E-02 0.  1.
    5000001    1    1    2    0    0  0.55318083955E+01  0.23518753122E+03 -0.96828498324E+03  0.10045141037E+04  0.12700000000E+03 0.  0.
   -5000001    1    1    2    0    0 -0.55318083955E+01 -0.23518753122E+03 -0.71797774249E+03  0.76613628974E+03  0.12700000000E+03 0.  0.
<mgrwt>
<rscale>  0 0.54011187E+03</rscale>
<asrwt>0</asrwt>
<pdfrwt beam="1">  1        2 0.24692232E+00 0.54011187E+03</pdfrwt>
<pdfrwt beam="2">  1       -2 0.60276916E-02 0.54011187E+03</pdfrwt>
<totfact> 0.17445396E+03</totfact>
</mgrwt>
</event>
<event>
 4    1  0.2621617E-004  0.3165002E+03  0.7818608E-02  0.1077271E+00
         -2   -1    0    0    0  501 -0.00000000000E+00  0.00000000000E+00  0.39951305884E+02  0.39951305965E+02  0.25500000000E-02 0. -1.
          2   -1    0    0  501    0  0.00000000000E+00 -0.00000000000E+00 -0.62684061358E+03  0.62684061359E+03  0.25500000000E-02 0.  1.
    5000001    1    1    2    0    0  0.87302314631E+00  0.89985139208E+02 -0.35362642950E+03  0.38636606876E+03  0.12700000000E+03 0.  0.
   -5000001    1    1    2    0    0 -0.87302314631E+00 -0.89985139208E+02 -0.23326287820E+03  0.28042585079E+03  0.12700000000E+03 0.  0.
<mgrwt>
<rscale>  0 0.31650024E+03</rscale>
<asrwt>0</asrwt>
<pdfrwt beam="1">  1        2 0.89548653E-01 0.31650024E+03</pdfrwt>
<pdfrwt beam="2">  1       -2 0.57073298E-02 0.31650024E+03</pdfrwt>
<totfact> 0.83706295E+03</totfact>
</mgrwt>
</event>
<event>
 4    1  0.2621617E-004  0.3847727E+03  0.7818608E-02  0.1049184E+00
         -2   -1    0    0    0  501 -0.00000000000E+00  0.00000000000E+00  0.54075138257E+02  0.54075138317E+02  0.25500000000E-02 0. -1.
          2   -1    0    0  501    0  0.00000000000E+00 -0.00000000000E+00 -0.68446446370E+03  0.68446446371E+03  0.25500000000E-02 0.  1.
    5000001    1    1    2    0    0 -0.48464440171E+02  0.13593451691E+03 -0.30076507208E+03  0.35695325105E+03  0.12700000000E+03 0.  0.
   -5000001    1    1    2    0    0  0.48464440171E+02 -0.13593451691E+03 -0.32962425336E+03  0.38158635098E+03  0.12700000000E+03 0.  0.
<mgrwt>
<rscale>  0 0.38477271E+03</rscale>
<asrwt>0</asrwt>
<pdfrwt beam="1">  1        2 0.97780633E-01 0.38477271E+03</pdfrwt>
<pdfrwt beam="2">  1       -2 0.77250202E-02 0.38477271E+03</pdfrwt>
<totfact> 0.47390099E+03</totfact>
</mgrwt>
</event>
<event>
 4    1  0.2621617E-004  0.4615137E+03  0.7818608E-02  0.1024343E+00
          2   -1    0    0  501    0  0.00000000000E+00  0.00000000000E+00  0.14822468740E+04  0.14822468740E+04  0.25500000000E-02 0.  1.
         -2   -1    0    0    0  501 -0.00000000000E+00 -0.00000000000E+00 -0.35924324608E+02  0.35924324698E+02  0.25500000000E-02 0. -1.
    5000001    1    1    2    0    0  0.13011159562E+03  0.17685653661E+01  0.25577266991E+03  0.31381652890E+03  0.12700000000E+03 0.  0.
   -5000001    1    1    2    0    0 -0.13011159562E+03 -0.17685653661E+01  0.11905498795E+04  0.12043546698E+04  0.12700000000E+03 0.  0.
<mgrwt>
<rscale>  0 0.46151367E+03</rscale>
<asrwt>0</asrwt>
<pdfrwt beam="1">  1        2 0.21174949E+00 0.46151367E+03</pdfrwt>
<pdfrwt beam="2">  1       -2 0.51320479E-02 0.46151367E+03</pdfrwt>
<totfact> 0.29972185E+03</totfact>
</mgrwt>
</event>
<event>
 4    1  0.2621617E-004  0.5491582E+03  0.7818608E-02  0.1001689E+00
         -2   -1    0    0    0  501 -0.00000000000E+00  0.00000000000E+00  0.10611216501E+04  0.10611216501E+04  0.25500000000E-02 0. -1.
          2   -1    0    0  501    0  0.00000000000E+00 -0.00000000000E+00 -0.71050927044E+02  0.71050927090E+02  0.25500000000E-02 0.  1.
    5000001    1    1    2    0    0 -0.14795888445E+03  0.39986483183E+02  0.88497598314E+03  0.90708447294E+03  0.12700000000E+03 0.  0.
   -5000001    1    1    2    0    0  0.14795888445E+03 -0.39986483183E+02  0.10509473995E+03  0.22508810428E+03  0.12700000000E+03 0.  0.
<mgrwt>
<rscale>  0 0.54915818E+03</rscale>
<asrwt>0</asrwt>
<pdfrwt beam="1">  1        2 0.10150133E-01 0.54915818E+03</pdfrwt>
<pdfrwt beam="2">  1       -2 0.15158880E+00 0.54915818E+03</pdfrwt>
<totfact> 0.19327791E+02</totfact>
</mgrwt>
</event>
<event>
 4    1  0.2621617E-004  0.3959882E+03  0.7818608E-02  0.1045178E+00
         -2   -1    0    0    0  501 -0.00000000000E+00  0.00000000000E+00  0.27520422980E+02  0.27520423098E+02  0.25500000000E-02 0. -1.
          2   -1    0    0  501    0  0.00000000000E+00 -0.00000000000E+00 -0.14244569217E+04  0.14244569217E+04  0.25500000000E-02 0.  1.
    5000001    1    1    2    0    0 -0.74790797260E+02  0.12636627542E+03 -0.84097858359E+03  0.86309679467E+03  0.12700000000E+03 0.  0.
   -5000001    1    1    2    0    0  0.74790797260E+02 -0.12636627542E+03 -0.55595791510E+03  0.58888055010E+03  0.12700000000E+03 0.  0.
<mgrwt>
<rscale>  0 0.39598817E+03</rscale>
<asrwt>0</asrwt>
<pdfrwt beam="1">  1        2 0.20349380E+00 0.39598817E+03</pdfrwt>
<pdfrwt beam="2">  1       -2 0.39314899E-02 0.39598817E+03</pdfrwt>
<totfact> 0.48289625E+03</totfact>
</mgrwt>
</event>
<event>
 4    1  0.2621617E-004  0.4822588E+03  0.7818608E-02  0.1018516E+00
         -2   -1    0    0    0  501 -0.00000000000E+00  0.00000000000E+00  0.15556226572E+03  0.15556226574E+03  0.25500000000E-02 0. -1.
          2   -1    0    0  501    0  0.00000000000E+00 -0.00000000000E+00 -0.37376272534E+03  0.37376272535E+03  0.25500000000E-02 0.  1.
    5000001    1    1    2    0    0  0.16094410396E+03  0.10136172553E+03 -0.19295804427E+03  0.29923069838E+03  0.12700000000E+03 0.  0.
   -5000001    1    1    2    0    0 -0.16094410396E+03 -0.10136172553E+03 -0.25242415349E+02  0.23009429271E+03  0.12700000000E+03 0.  0.
<mgrwt>
<rscale>  0 0.48225875E+03</rscale>
<asrwt>0</asrwt>
<pdfrwt beam="1">  1        2 0.53394675E-01 0.48225875E+03</pdfrwt>
<pdfrwt beam="2">  1       -2 0.22223181E-01 0.48225875E+03</pdfrwt>
<totfact> 0.16450078E+03</totfact>
</mgrwt>
</event>
<event>
 4    1  0.2621617E-004  0.5664331E+03  0.7818608E-02  0.9977603E-01
         -2   -1    0    0    0  501 -0.00000000000E+00  0.00000000000E+00  0.38706711234E+02  0.38706711318E+02  0.25500000000E-02 0. -1.
          2   -1    0    0  501    0  0.00000000000E+00 -0.00000000000E+00 -0.20722919561E+04  0.20722919561E+04  0.25500000000E-02 0.  1.
    5000001    1    1    2    0    0  0.21196399340E+03  0.11650476220E+02 -0.50283967925E+03  0.56039380004E+03  0.12700000000E+03 0.  0.
   -5000001    1    1    2    0    0 -0.21196399340E+03 -0.11650476220E+02 -0.15307455656E+04  0.15506048674E+04  0.12700000000E+03 0.  0.
<mgrwt>
<rscale>  0 0.56643307E+03</rscale>
<asrwt>0</asrwt>
<pdfrwt beam="1">  1        2 0.29604164E+00 0.56643307E+03</pdfrwt>
<pdfrwt beam="2">  1       -2 0.55295315E-02 0.56643307E+03</pdfrwt>
<totfact> 0.13395045E+03</totfact>
</mgrwt>
</event>
<event>
 4    1  0.2621617E-004  0.4293482E+03  0.7818608E-02  0.1034066E+00
          2   -1    0    0  501    0  0.00000000000E+00  0.00000000000E+00  0.13088896053E+04  0.13088896053E+04  0.25500000000E-02 0.  1.
         -2   -1    0    0    0  501 -0.00000000000E+00 -0.00000000000E+00 -0.35209216144E+02  0.35209216236E+02  0.25500000000E-02 0. -1.
    5000001    1    1    2    0    0  0.84586515685E+02 -0.10623537819E+03  0.97277591251E+03  0.99038518273E+03  0.12700000000E+03 0.  0.
   -5000001    1    1    2    0    0 -0.84586515685E+02  0.10623537819E+03  0.30090447667E+03  0.35371363883E+03  0.12700000000E+03 0.  0.
<mgrwt>
<rscale>  0 0.42934824E+03</rscale>
<asrwt>0</asrwt>
<pdfrwt beam="1">  1        2 0.18698426E+00 0.42934824E+03</pdfrwt>
<pdfrwt beam="2">  1       -2 0.50298871E-02 0.42934824E+03</pdfrwt>
<totfact> 0.38138799E+03</totfact>
</mgrwt>
</event>
<event>
 4    1  0.2621617E-004  0.3216600E+03  0.7818608E-02  0.1074888E+00
         -2   -1    0    0    0  501 -0.00000000000E+00  0.00000000000E+00  0.18522943731E+02  0.18522943907E+02  0.25500000000E-02 0. -1.
          2   -1    0    0  501    0  0.00000000000E+00 -0.00000000000E+00 -0.13964454806E+04  0.13964454806E+04  0.25500000000E-02 0.  1.
    5000001    1    1    2    0    0  0.27832117343E+01  0.91980162100E+02 -0.84567684677E+03  0.86009675366E+03  0.12700000000E+03 0.  0.
   -5000001    1    1    2    0    0 -0.27832117343E+01 -0.91980162100E+02 -0.53224569014E+03  0.55487167089E+03  0.12700000000E+03 0.  0.
<mgrwt>
<rscale>  0 0.32165995E+03</rscale>
<asrwt>0</asrwt>
<pdfrwt beam="1">  1        2 0.19949214E+00 0.32165995E+03</pdfrwt>
<pdfrwt beam="2">  1       -2 0.26461357E-02 0.32165995E+03</pdfrwt>
<totfact> 0.90319858E+03</totfact>
</mgrwt>
</event>
<event>
 4    1  0.2621617E-004  0.4307709E+03  0.7818608E-02  0.1033617E+00
          2   -1    0    0  501    0  0.00000000000E+00  0.00000000000E+00  0.12803733650E+04  0.12803733650E+04  0.25500000000E-02 0.  1.
         -2   -1    0    0    0  501 -0.00000000000E+00 -0.00000000000E+00 -0.36232308675E+02  0.36232308765E+02  0.25500000000E-02 0. -1.
    5000001    1    1    2    0    0  0.90388527123E+01 -0.17354845229E+03  0.59817646342E+03  0.63572387681E+03  0.12700000000E+03 0.  0.
   -5000001    1    1    2    0    0 -0.90388527123E+01  0.17354845229E+03  0.64596459293E+03  0.68088179698E+03  0.12700000000E+03 0.  0.
<mgrwt>
<rscale>  0 0.43077086E+03</rscale>
<asrwt>0</asrwt>
<pdfrwt beam="1">  1        2 0.18291054E+00 0.43077086E+03</pdfrwt>
<pdfrwt beam="2">  1       -2 0.51760424E-02 0.43077086E+03</pdfrwt>
<totfact> 0.37804491E+03</totfact>
</mgrwt>
</event>
<event>
 4    1  0.2621617E-004  0.2877150E+03  0.7818608E-02  0.1091548E+00
          2   -1    0    0  501    0  0.00000000000E+00  0.00000000000E+00  0.21472553597E+03  0.21472553598E+03  0.25500000000E-02 0.  1.
         -2   -1    0    0    0  501 -0.00000000000E+00 -0.00000000000E+00 -0.96378728049E+02  0.96378728083E+02  0.25500000000E-02 0. -1.
    5000001    1    1    2    0    0 -0.40208149887E+02 -0.44730203330E+02  0.92474563978E+02  0.16822018723E+03  0.12700000000E+03 0.  0.
   -5000001    1    1    2    0    0  0.40208149887E+02  0.44730203330E+02  0.25872243938E+02  0.14288407684E+03  0.12700000000E+03 0.  0.
<mgrwt>
<rscale>  0 0.28771496E+03</rscale>
<asrwt>0</asrwt>
<pdfrwt beam="1">  1        2 0.30675076E-01 0.28771496E+03</pdfrwt>
<pdfrwt beam="2">  1       -2 0.13768390E-01 0.28771496E+03</pdfrwt>
<totfact> 0.67138291E+03</totfact>
</mgrwt>
</event>
<event>
 4    1  0.2621617E-004  0.3608386E+03  0.7818608E-02  0.1058252E+00
          2   -1    0    0  501    0  0.00000000000E+00  0.00000000000E+00  0.62190134005E+03  0.62190134005E+03  0.25500000000E-02 0.  1.
         -2   -1    0    0    0  501 -0.00000000000E+00 -0.00000000000E+00 -0.52341308070E+02  0.52341308132E+02  0.25500000000E-02 0. -1.
    5000001    1    1    2    0    0 -0.11753803397E+03  0.51004121697E+02  0.28917001599E+03  0.34082973463E+03  0.12700000000E+03 0.  0.
   -5000001    1    1    2    0    0  0.11753803397E+03 -0.51004121697E+02  0.28039001599E+03  0.33341291356E+03  0.12700000000E+03 0.  0.
<mgrwt>
<rscale>  0 0.36083863E+03</rscale>
<asrwt>0</asrwt>
<pdfrwt beam="1">  1        2 0.88843042E-01 0.36083863E+03</pdfrwt>
<pdfrwt beam="2">  1       -2 0.74773303E-02 0.36083863E+03</pdfrwt>
<totfact> 0.55770087E+03</totfact>
</mgrwt>
</event>
<event>
 4    1  0.2621617E-004  0.6505268E+03  0.7818608E-02  0.9805791E-01
          2   -1    0    0  501    0  0.00000000000E+00  0.00000000000E+00  0.15000924832E+04  0.15000924832E+04  0.25500000000E-02 0.  1.
         -2   -1    0    0    0  501 -0.00000000000E+00 -0.00000000000E+00 -0.70526505487E+02  0.70526505533E+02  0.25500000000E-02 0. -1.
    5000001    1    1    2    0    0 -0.22862899632E+03 -0.16933523028E+03  0.94026130934E+03  0.99053822138E+03  0.12700000000E+03 0.  0.
   -5000001    1    1    2    0    0  0.22862899632E+03  0.16933523028E+03  0.48930466841E+03  0.58008076739E+03  0.12700000000E+03 0.  0.
<mgrwt>
<rscale>  0 0.65052680E+03</rscale>
<asrwt>0</asrwt>
<pdfrwt beam="1">  1        2 0.21429889E+00 0.65052680E+03</pdfrwt>
<pdfrwt beam="2">  1       -2 0.10075217E-01 0.65052680E+03</pdfrwt>
<totfact> 0.10043496E+03</totfact>
</mgrwt>
</event>
<event>
 4    1  0.2621617E-004  0.4394732E+03  0.7818608E-02  0.1030909E+00
         -2   -1    0    0    0  501 -0.00000000000E+00  0.00000000000E+00  0.83131638418E+02  0.83131638457E+02  0.25500000000E-02 0. -1.
          2   -1    0    0  501    0  0.00000000000E+00 -0.00000000000E+00 -0.58081573082E+03  0.58081573082E+03  0.25500000000E-02 0.  1.
    5000001    1    1    2    0    0  0.33129034577E+02  0.14575504639E+03 -0.99182526769E+02  0.21979135582E+03  0.12700000000E+03 0.  0.
   -5000001    1    1    2    0    0 -0.33129034577E+02 -0.14575504639E+03 -0.39850156563E+03  0.44415601346E+03  0.12700000000E+03 0.  0.
<mgrwt>
<rscale>  0 0.43947315E+03</rscale>
<asrwt>0</asrwt>
<pdfrwt beam="1">  1        2 0.82973674E-01 0.43947315E+03</pdfrwt>
<pdfrwt beam="2">  1       -2 0.11875949E-01 0.43947315E+03</pdfrwt>
<totfact> 0.28923619E+03</totfact>
</mgrwt>
</event>
<event>
 4    1  0.2621617E-004  0.4332167E+03  0.7818608E-02  0.1032849E+00
         -2   -1    0    0    0  501 -0.00000000000E+00  0.00000000000E+00  0.16661906757E+02  0.16661906952E+02  0.25500000000E-02 0. -1.
          2   -1    0    0  501    0  0.00000000000E+00 -0.00000000000E+00 -0.28159551515E+04  0.28159551515E+04  0.25500000000E-02 0.  1.
    5000001    1    1    2    0    0 -0.15502120616E+03 -0.82209046202E+02 -0.13961817510E+04  0.14128844197E+04  0.12700000000E+03 0.  0.
   -5000001    1    1    2    0    0  0.15502120616E+03  0.82209046202E+02 -0.14031114937E+04  0.14197326387E+04  0.12700000000E+03 0.  0.
<mgrwt>
<rscale>  0 0.43321672E+03</rscale>
<asrwt>0</asrwt>
<pdfrwt beam="1">  1        2 0.40227900E+00 0.43321672E+03</pdfrwt>
<pdfrwt beam="2">  1       -2 0.23802742E-02 0.43321672E+03</pdfrwt>
<totfact> 0.20414976E+03</totfact>
</mgrwt>
</event>
<event>
 4    1  0.2621617E-004  0.3386825E+03  0.7818608E-02  0.1067358E+00
         -2   -1    0    0    0  501 -0.00000000000E+00  0.00000000000E+00  0.11527673776E+02  0.11527674058E+02  0.25500000000E-02 0. -1.
          2   -1    0    0  501    0  0.00000000000E+00 -0.00000000000E+00 -0.24876188254E+04  0.24876188254E+04  0.25500000000E-02 0.  1.
    5000001    1    1    2    0    0  0.80211730577E+02  0.63817715519E+02 -0.15713975460E+04  0.15798499517E+04  0.12700000000E+03 0.  0.
   -5000001    1    1    2    0    0 -0.80211730577E+02 -0.63817715519E+02 -0.90469360571E+03  0.91929654777E+03  0.12700000000E+03 0.  0.
<mgrwt>
<rscale>  0 0.33868250E+03</rscale>
<asrwt>0</asrwt>
<pdfrwt beam="1">  1        2 0.35537377E+00 0.33868250E+03</pdfrwt>
<pdfrwt beam="2">  1       -2 0.16468122E-02 0.33868250E+03</pdfrwt>
<totfact> 0.52269163E+03</totfact>
</mgrwt>
</event>
<event>
 4    1  0.2621617E-004  0.3084014E+03  0.7818608E-02  0.1081115E+00
         -2   -1    0    0    0  501 -0.00000000000E+00  0.00000000000E+00  0.14955632855E+02  0.14955633073E+02  0.25500000000E-02 0. -1.
          2   -1    0    0  501    0  0.00000000000E+00 -0.00000000000E+00 -0.15898933287E+04  0.15898933287E+04  0.25500000000E-02 0.  1.
    5000001    1    1    2    0    0 -0.24480481289E+02 -0.22226961547E+02 -0.12087981447E+04  0.12159010183E+04  0.12700000000E+03 0.  0.
   -5000001    1    1    2    0    0  0.24480481289E+02  0.22226961547E+02 -0.36613955112E+03  0.38894794340E+03  0.12700000000E+03 0.  0.
<mgrwt>
<rscale>  0 0.30840143E+03</rscale>
<asrwt>0</asrwt>
<pdfrwt beam="1">  1        2 0.22712751E+00 0.30840143E+03</pdfrwt>
<pdfrwt beam="2">  1       -2 0.21365200E-02 0.30840143E+03</pdfrwt>
<totfact> 0.98819826E+03</totfact>
</mgrwt>
</event>
<event>
 4    1  0.2621617E-004  0.4502099E+03  0.7818608E-02  0.1027659E+00
          2   -1    0    0  501    0  0.00000000000E+00  0.00000000000E+00  0.13774686455E+04  0.13774686455E+04  0.25500000000E-02 0.  1.
         -2   -1    0    0    0  501 -0.00000000000E+00 -0.00000000000E+00 -0.36786483728E+02  0.36786483817E+02  0.25500000000E-02 0. -1.
    5000001    1    1    2    0    0 -0.16010471559E+03  0.88274362516E+02  0.56533694591E+03  0.60758599840E+03  0.12700000000E+03 0.  0.
   -5000001    1    1    2    0    0  0.16010471559E+03 -0.88274362516E+02  0.77534521589E+03  0.80666913095E+03  0.12700000000E+03 0.  0.
<mgrwt>
<rscale>  0 0.45020985E+03</rscale>
<asrwt>0</asrwt>
<pdfrwt beam="1">  1        2 0.19678121E+00 0.45020985E+03</pdfrwt>
<pdfrwt beam="2">  1       -2 0.52552126E-02 0.45020985E+03</pdfrwt>
<totfact> 0.32778507E+03</totfact>
</mgrwt>
</event>
<event>
 4    1  0.2621617E-004  0.5453861E+03  0.7818608E-02  0.1002568E+00
         -2   -1    0    0    0  501 -0.00000000000E+00  0.00000000000E+00  0.64018047808E+02  0.64018047859E+02  0.25500000000E-02 0. -1.
          2   -1    0    0  501    0  0.00000000000E+00 -0.00000000000E+00 -0.11615708985E+04  0.11615708985E+04  0.25500000000E-02 0.  1.
    5000001    1    1    2    0    0  0.12916303021E+03  0.18818520382E+03 -0.72480140831E+03  0.77043029587E+03  0.12700000000E+03 0.  0.
   -5000001    1    1    2    0    0 -0.12916303021E+03 -0.18818520382E+03 -0.37275144236E+03  0.45515865046E+03  0.12700000000E+03 0.  0.
<mgrwt>
<rscale>  0 0.54538611E+03</rscale>
<asrwt>0</asrwt>
<pdfrwt beam="1">  1        2 0.16593869E+00 0.54538611E+03</pdfrwt>
<pdfrwt beam="2">  1       -2 0.91454361E-02 0.54538611E+03</pdfrwt>
<totfact> 0.17961969E+03</totfact>
</mgrwt>
</event>
<event>
 4    1  0.2621617E-004  0.3388806E+03  0.7818608E-02  0.1067274E+00
         -2   -1    0    0    0  501 -0.00000000000E+00  0.00000000000E+00  0.40210100571E+02  0.40210100652E+02  0.25500000000E-02 0. -1.
          2   -1    0    0  501    0  0.00000000000E+00 -0.00000000000E+00 -0.71400007378E+03  0.71400007378E+03  0.25500000000E-02 0.  1.
    5000001    1    1    2    0    0 -0.11004906231E+02  0.81632539506E+02 -0.16745683881E+03  0.22573385287E+03  0.12700000000E+03 0.  0.
   -5000001    1    1    2    0    0  0.11004906231E+02 -0.81632539506E+02 -0.50633313440E+03  0.52847632157E+03  0.12700000000E+03 0.  0.
<mgrwt>
<rscale>  0 0.33888060E+03</rscale>
<asrwt>0</asrwt>
<pdfrwt beam="1">  1        2 0.10200000E+00 0.33888060E+03</pdfrwt>
<pdfrwt beam="2">  1       -2 0.57443005E-02 0.33888060E+03</pdfrwt>
<totfact> 0.71214570E+03</totfact>
</mgrwt>
</event>
<event>
 4    1  0.2621617E-004  0.4067066E+03  0.7818608E-02  0.1041482E+00
         -2   -1    0    0    0  501 -0.00000000000E+00  0.00000000000E+00  0.22166221078E+02  0.22166221224E+02  0.25500000000E-02 0. -1.
          2   -1    0    0  501    0  0.00000000000E+00 -0.00000000000E+00 -0.18655669211E+04  0.18655669211E+04  0.25500000000E-02 0.  1.
    5000001    1    1    2    0    0 -0.68244616497E+02 -0.55743399640E+02 -0.30840739078E+03  0.34497648177E+03  0.12700000000E+03 0.  0.
   -5000001    1    1    2    0    0  0.68244616497E+02  0.55743399640E+02 -0.15349933093E+04  0.15427566606E+04  0.12700000000E+03 0.  0.
<mgrwt>
<rscale>  0 0.40670662E+03</rscale>
<asrwt>0</asrwt>
<pdfrwt beam="1">  1        2 0.26650946E+00 0.40670662E+03</pdfrwt>
<pdfrwt beam="2">  1       -2 0.31666042E-02 0.40670662E+03</pdfrwt>
<totfact> 0.40114395E+03</totfact>
</mgrwt>
</event>
<event>
 4    1  0.2621617E-004  0.7753949E+03  0.7818608E-02  0.9596331E-01
         -2   -1    0    0    0  501 -0.00000000000E+00  0.00000000000E+00  0.37200104012E+02  0.37200104100E+02  0.25500000000E-02 0. -1.
          2   -1    0    0  501    0  0.00000000000E+00 -0.00000000000E+00 -0.40405611769E+04  0.40405611769E+04  0.25500000000E-02 0.  1.
    5000001    1    1    2    0    0 -0.32391386120E+03  0.98389632663E+02 -0.27375497677E+04  0.27613236753E+04  0.12700000000E+03 0.  0.
   -5000001    1    1    2    0    0  0.32391386120E+03 -0.98389632663E+02 -0.12658113052E+04  0.13164376057E+04  0.12700000000E+03 0.  0.
<mgrwt>
<rscale>  0 0.77539486E+03</rscale>
<asrwt>0</asrwt>
<pdfrwt beam="1">  1        2 0.57722275E+00 0.77539486E+03</pdfrwt>
<pdfrwt beam="2">  1       -2 0.53143032E-02 0.77539486E+03</pdfrwt>
<totfact> 0.10875760E+02</totfact>
</mgrwt>
</event>
<event>
 4    1  0.2621617E-004  0.7177119E+03  0.7818608E-02  0.9687413E-01
          2   -1    0    0  501    0  0.00000000000E+00  0.00000000000E+00  0.73363166171E+03  0.73363166171E+03  0.25500000000E-02 0.  1.
         -2   -1    0    0    0  501 -0.00000000000E+00 -0.00000000000E+00 -0.17553437969E+03  0.17553437971E+03  0.25500000000E-02 0. -1.
    5000001    1    1    2    0    0 -0.17862084261E+03 -0.11990786196E+03  0.60538355549E+03  0.65490575661E+03  0.12700000000E+03 0.  0.
   -5000001    1    1    2    0    0  0.17862084261E+03  0.11990786196E+03 -0.47286273474E+02  0.25426028481E+03  0.12700000000E+03 0.  0.
<mgrwt>
<rscale>  0 0.71771186E+03</rscale>
<asrwt>0</asrwt>
<pdfrwt beam="1">  1        2 0.10480452E+00 0.71771186E+03</pdfrwt>
<pdfrwt beam="2">  1       -2 0.25076340E-01 0.71771186E+03</pdfrwt>
<totfact> 0.60720617E+02</totfact>
</mgrwt>
</event>
<event>
 4    1  0.2621617E-004  0.2704781E+03  0.7818608E-02  0.1101006E+00
          2   -1    0    0  501    0  0.00000000000E+00  0.00000000000E+00  0.14195232757E+04  0.14195232758E+04  0.25500000000E-02 0.  1.
         -2   -1    0    0    0  501 -0.00000000000E+00 -0.00000000000E+00 -0.12884326558E+02  0.12884326810E+02  0.25500000000E-02 0. -1.
    5000001    1    1    2    0    0  0.45212162744E+02  0.59471700399E+01  0.75100938814E+03  0.76303578525E+03  0.12700000000E+03 0.  0.
   -5000001    1    1    2    0    0 -0.45212162744E+02 -0.59471700399E+01  0.65562956105E+03  0.66937181731E+03  0.12700000000E+03 0.  0.
<mgrwt>
<rscale>  0 0.27047811E+03</rscale>
<asrwt>0</asrwt>
<pdfrwt beam="1">  1        2 0.20278899E+00 0.27047811E+03</pdfrwt>
<pdfrwt beam="2">  1       -2 0.18406185E-02 0.27047811E+03</pdfrwt>
<totfact> 0.14961896E+04</totfact>
</mgrwt>
</event>
<event>
 4    1  0.2621617E-004  0.4674668E+03  0.7818608E-02  0.1022638E+00
          2   -1    0    0  501    0  0.00000000000E+00  0.00000000000E+00  0.15321976175E+04  0.15321976175E+04  0.25500000000E-02 0.  1.
         -2   -1    0    0    0  501 -0.00000000000E+00 -0.00000000000E+00 -0.35655518936E+02  0.35655519027E+02  0.25500000000E-02 0. -1.
    5000001    1    1    2    0    0 -0.34892077089E+02 -0.17948700428E+03  0.50947514571E+03  0.55599187570E+03  0.12700000000E+03 0.  0.
   -5000001    1    1    2    0    0  0.34892077089E+02  0.17948700428E+03  0.98706695282E+03  0.10118612608E+04  0.12700000000E+03 0.  0.
<mgrwt>
<rscale>  0 0.46746680E+03</rscale>
<asrwt>0</asrwt>
<pdfrwt beam="1">  1        2 0.21888537E+00 0.46746680E+03</pdfrwt>
<pdfrwt beam="2">  1       -2 0.50936457E-02 0.46746680E+03</pdfrwt>
<totfact> 0.28573660E+03</totfact>
</mgrwt>
</event>
<event>
 4    1  0.2621617E-004  0.4888107E+03  0.7818608E-02  0.1016741E+00
         -2   -1    0    0    0  501 -0.00000000000E+00  0.00000000000E+00  0.14574717335E+02  0.14574717558E+02  0.25500000000E-02 0.  1.
          2   -1    0    0  501    0  0.00000000000E+00 -0.00000000000E+00 -0.40984647724E+04  0.40984647724E+04  0.25500000000E-02 0. -1.
    5000001    1    1    2    0    0 -0.10085151257E+03  0.34943619846E+02 -0.53173622161E+03  0.55701390784E+03  0.12700000000E+03 0.  0.
   -5000001    1    1    2    0    0  0.10085151257E+03 -0.34943619846E+02 -0.35521538335E+04  0.35560255822E+04  0.12700000000E+03 0.  0.
<mgrwt>
<rscale>  0 0.48881066E+03</rscale>
<asrwt>0</asrwt>
<pdfrwt beam="1">  1        2 0.58549423E+00 0.48881066E+03</pdfrwt>
<pdfrwt beam="2">  1       -2 0.20821051E-02 0.48881066E+03</pdfrwt>
<totfact> 0.43349527E+02</totfact>
</mgrwt>
</event>
<event>
 4    1  0.2621617E-004  0.3901516E+03  0.7818608E-02  0.1047244E+00
          2   -1    0    0  501    0  0.00000000000E+00  0.00000000000E+00  0.11113369053E+04  0.11113369053E+04  0.25500000000E-02 0.  1.
         -2   -1    0    0    0  501 -0.00000000000E+00 -0.00000000000E+00 -0.34242148977E+02  0.34242149072E+02  0.25500000000E-02 0. -1.
    5000001    1    1    2    0    0 -0.87003607741E+02  0.90167671622E+02  0.77022641341E+03  0.79061846973E+03  0.12700000000E+03 0.  0.
   -5000001    1    1    2    0    0  0.87003607741E+02 -0.90167671622E+02  0.30686834288E+03  0.35496058461E+03  0.12700000000E+03 0.  0.
<mgrwt>
<rscale>  0 0.39015158E+03</rscale>
<asrwt>0</asrwt>
<pdfrwt beam="1">  1        2 0.15876240E+00 0.39015158E+03</pdfrwt>
<pdfrwt beam="2">  1       -2 0.48917361E-02 0.39015158E+03</pdfrwt>
<totfact> 0.51105515E+03</totfact>
</mgrwt>
</event>
<event>
 4    1  0.2621617E-004  0.2925732E+03  0.7818608E-02  0.1089013E+00
         -2   -1    0    0    0  501 -0.00000000000E+00  0.00000000000E+00  0.91614544744E+02  0.91614544779E+02  0.25500000000E-02 0. -1.
          2   -1    0    0  501    0  0.00000000000E+00 -0.00000000000E+00 -0.23358491285E+03  0.23358491287E+03  0.25500000000E-02 0.  1.
    5000001    1    1    2    0    0  0.44622787464E+02  0.37743884270E+02 -0.11885756192E+03  0.18349908443E+03  0.12700000000E+03 0.  0.
   -5000001    1    1    2    0    0 -0.44622787464E+02 -0.37743884270E+02 -0.23112806195E+02  0.14170037322E+03  0.12700000000E+03 0.  0.
<mgrwt>
<rscale>  0 0.29257324E+03</rscale>
<asrwt>0</asrwt>
<pdfrwt beam="1">  1        2 0.33369273E-01 0.29257324E+03</pdfrwt>
<pdfrwt beam="2">  1       -2 0.13087792E-01 0.29257324E+03</pdfrwt>
<totfact> 0.66562681E+03</totfact>
</mgrwt>
</event>
<event>
 4    1  0.2621617E-004  0.3018227E+03  0.7818608E-02  0.1084333E+00
         -2   -1    0    0    0  501 -0.00000000000E+00  0.00000000000E+00  0.13274730409E+02  0.13274730654E+02  0.25500000000E-02 0. -1.
          2   -1    0    0  501    0  0.00000000000E+00 -0.00000000000E+00 -0.17156075621E+04  0.17156075621E+04  0.25500000000E-02 0.  1.
    5000001    1    1    2    0    0 -0.53409083573E+02  0.28930062757E+02 -0.11625870602E+04  0.11710794812E+04  0.12700000000E+03 0.  0.
   -5000001    1    1    2    0    0  0.53409083573E+02 -0.28930062757E+02 -0.53974577151E+03  0.55780281157E+03  0.12700000000E+03 0.  0.
<mgrwt>
<rscale>  0 0.30182265E+03</rscale>
<asrwt>0</asrwt>
<pdfrwt beam="1">  1        2 0.24508665E+00 0.30182265E+03</pdfrwt>
<pdfrwt beam="2">  1       -2 0.18963912E-02 0.30182265E+03</pdfrwt>
<totfact> 0.10199095E+04</totfact>
</mgrwt>
</event>
<event>
 4    1  0.2621617E-004  0.5389157E+03  0.7818608E-02  0.1004093E+00
         -2   -1    0    0    0  501 -0.00000000000E+00  0.00000000000E+00  0.16007010281E+03  0.16007010283E+03  0.25500000000E-02 0. -1.
          2   -1    0    0  501    0  0.00000000000E+00 -0.00000000000E+00 -0.45359826293E+03  0.45359826294E+03  0.25500000000E-02 0.  1.
    5000001    1    1    2    0    0  0.60781885485E+02  0.22314091134E+03 -0.20905280724E+03  0.33662795506E+03  0.12700000000E+03 0.  0.
   -5000001    1    1    2    0    0 -0.60781885485E+02 -0.22314091134E+03 -0.84475352885E+02  0.27704041070E+03  0.12700000000E+03 0.  0.
<mgrwt>
<rscale>  0 0.53891565E+03</rscale>
<asrwt>0</asrwt>
<pdfrwt beam="1">  1        2 0.64799752E-01 0.53891565E+03</pdfrwt>
<pdfrwt beam="2">  1       -2 0.22867158E-01 0.53891565E+03</pdfrwt>
<totfact> 0.12623321E+03</totfact>
</mgrwt>
</event>
<event>
 4    1  0.2621617E-004  0.5161010E+03  0.7818608E-02  0.1009660E+00
         -2   -1    0    0    0  501 -0.00000000000E+00  0.00000000000E+00  0.59293657788E+02  0.59293657843E+02  0.25500000000E-02 0. -1.
          2   -1    0    0  501    0  0.00000000000E+00 -0.00000000000E+00 -0.11230551975E+04  0.11230551975E+04  0.25500000000E-02 0.  1.
    5000001    1    1    2    0    0 -0.19837514101E+03 -0.89697290169E+02 -0.65866544216E+03  0.70524284125E+03  0.12700000000E+03 0.  0.
   -5000001    1    1    2    0    0  0.19837514101E+03  0.89697290169E+02 -0.40509609754E+03  0.47710601409E+03  0.12700000000E+03 0.  0.
<mgrwt>
<rscale>  0 0.51610096E+03</rscale>
<asrwt>0</asrwt>
<pdfrwt beam="1">  1        2 0.16043644E+00 0.51610096E+03</pdfrwt>
<pdfrwt beam="2">  1       -2 0.84705232E-02 0.51610096E+03</pdfrwt>
<totfact> 0.21366898E+03</totfact>
</mgrwt>
</event>
<event>
 4    1  0.2621617E-004  0.5843431E+03  0.7818608E-02  0.9938432E-01
         -2   -1    0    0    0  501 -0.00000000000E+00  0.00000000000E+00  0.83975445880E+02  0.83975445918E+02  0.25500000000E-02 0. -1.
          2   -1    0    0  501    0  0.00000000000E+00 -0.00000000000E+00 -0.10165377554E+04  0.10165377554E+04  0.25500000000E-02 0.  1.
    5000001    1    1    2    0    0 -0.16572058962E+03  0.13300153126E+03 -0.17401532657E+03  0.30259387803E+03  0.12700000000E+03 0.  0.
   -5000001    1    1    2    0    0  0.16572058962E+03 -0.13300153126E+03 -0.75854698290E+03  0.79791932324E+03  0.12700000000E+03 0.  0.
<mgrwt>
<rscale>  0 0.58434309E+03</rscale>
<asrwt>0</asrwt>
<pdfrwt beam="1">  1        2 0.14521967E+00 0.58434309E+03</pdfrwt>
<pdfrwt beam="2">  1       -2 0.11996493E-01 0.58434309E+03</pdfrwt>
<totfact> 0.14034475E+03</totfact>
</mgrwt>
</event>
<event>
 4    1  0.2621617E-004  0.3326975E+03  0.7818608E-02  0.1069950E+00
         -2   -1    0    0    0  501 -0.00000000000E+00  0.00000000000E+00  0.21556994004E+02  0.21556994155E+02  0.25500000000E-02 0. -1.
          2   -1    0    0  501    0  0.00000000000E+00 -0.00000000000E+00 -0.12836625807E+04  0.12836625807E+04  0.25500000000E-02 0.  1.
    5000001    1    1    2    0    0 -0.59418730974E+02  0.73300568771E+02 -0.42950300674E+03  0.45771758953E+03  0.12700000000E+03 0.  0.
   -5000001    1    1    2    0    0  0.59418730974E+02 -0.73300568771E+02 -0.83260258000E+03  0.84750198536E+03  0.12700000000E+03 0.  0.
<mgrwt>
<rscale>  0 0.33269750E+03</rscale>
<asrwt>0</asrwt>
<pdfrwt beam="1">  1        2 0.18338032E+00 0.33269750E+03</pdfrwt>
<pdfrwt beam="2">  1       -2 0.30795714E-02 0.33269750E+03</pdfrwt>
<totfact> 0.82595056E+03</totfact>
</mgrwt>
</event>
<event>
 4    1  0.2621617E-004  0.7072281E+03  0.7818608E-02  0.9704950E-01
          2   -1    0    0  501    0  0.00000000000E+00  0.00000000000E+00  0.12910162475E+04  0.12910162475E+04  0.25500000000E-02 0.  1.
         -2   -1    0    0    0  501 -0.00000000000E+00 -0.00000000000E+00 -0.96856171515E+02  0.96856171548E+02  0.25500000000E-02 0. -1.
    5000001    1    1    2    0    0  0.35299854081E+02 -0.32688079005E+03  0.65316383571E+03  0.74219210914E+03  0.12700000000E+03 0.  0.
   -5000001    1    1    2    0    0 -0.35299854081E+02  0.32688079005E+03  0.54099624027E+03  0.64568030989E+03  0.12700000000E+03 0.  0.
<mgrwt>
<rscale>  0 0.70722809E+03</rscale>
<asrwt>0</asrwt>
<pdfrwt beam="1">  1        2 0.18443088E+00 0.70722809E+03</pdfrwt>
<pdfrwt beam="2">  1       -2 0.13836597E-01 0.70722809E+03</pdfrwt>
<totfact> 0.76824233E+02</totfact>
</mgrwt>
</event>
<event>
 4    1  0.2621617E-004  0.8649880E+03  0.7818608E-02  0.9470438E-01
          2   -1    0    0  501    0  0.00000000000E+00  0.00000000000E+00  0.78440838488E+02  0.78440838529E+02  0.25500000000E-02 0.  1.
         -2   -1    0    0    0  501 -0.00000000000E+00 -0.00000000000E+00 -0.23846131510E+04  0.23846131510E+04  0.25500000000E-02 0. -1.
    5000001    1    1    2    0    0 -0.21889531575E+03  0.34499937340E+03 -0.97339265185E+03  0.10632788823E+04  0.12700000000E+03 0.  0.
   -5000001    1    1    2    0    0  0.21889531575E+03 -0.34499937340E+03 -0.13327796606E+04  0.13997751072E+04  0.12700000000E+03 0.  0.
<mgrwt>
<rscale>  0 0.86498799E+03</rscale>
<asrwt>0</asrwt>
<pdfrwt beam="1">  1        2 0.11205836E-01 0.86498799E+03</pdfrwt>
<pdfrwt beam="2">  1       -2 0.34065898E+00 0.86498799E+03</pdfrwt>
<totfact> 0.10649047E+01</totfact>
</mgrwt>
</event>
<event>
 4    1  0.2621617E-004  0.7633610E+03  0.7818608E-02  0.9614619E-01
         -2   -1    0    0    0  501 -0.00000000000E+00  0.00000000000E+00  0.69215654543E+03  0.69215654543E+03  0.25500000000E-02 0. -1.
          2   -1    0    0  501    0  0.00000000000E+00 -0.00000000000E+00 -0.21047263368E+03  0.21047263370E+03  0.25500000000E-02 0.  1.
    5000001    1    1    2    0    0  0.32369918294E+03  0.12316842869E+03  0.12499058762E+03  0.38949103950E+03  0.12700000000E+03 0.  0.
   -5000001    1    1    2    0    0 -0.32369918294E+03 -0.12316842869E+03  0.35669332413E+03  0.51313813962E+03  0.12700000000E+03 0.  0.
<mgrwt>
<rscale>  0 0.76336102E+03</rscale>
<asrwt>0</asrwt>
<pdfrwt beam="1">  1        2 0.30067519E-01 0.76336102E+03</pdfrwt>
<pdfrwt beam="2">  1       -2 0.98879506E-01 0.76336102E+03</pdfrwt>
<totfact> 0.15185188E+02</totfact>
</mgrwt>
</event>
<event>
 4    1  0.2621617E-004  0.2687882E+03  0.7818608E-02  0.1101975E+00
          2   -1    0    0  501    0  0.00000000000E+00  0.00000000000E+00  0.28369024869E+04  0.28369024869E+04  0.25500000000E-02 0.  1.
         -2   -1    0    0    0  501 -0.00000000000E+00 -0.00000000000E+00 -0.63667214064E+01  0.63667219171E+01  0.25500000000E-02 0. -1.
    5000001    1    1    2    0    0 -0.73286736930E+01  0.40443986287E+02  0.12502552059E+04  0.12573609288E+04  0.12700000000E+03 0.  0.
   -5000001    1    1    2    0    0  0.73286736930E+01 -0.40443986287E+02  0.15802805597E+04  0.15859082801E+04  0.12700000000E+03 0.  0.
<mgrwt>
<rscale>  0 0.26878816E+03</rscale>
<asrwt>0</asrwt>
<pdfrwt beam="1">  1        2 0.40527155E+00 0.26878816E+03</pdfrwt>
<pdfrwt beam="2">  1       -2 0.90953220E-03 0.26878816E+03</pdfrwt>
<totfact> 0.82720413E+03</totfact>
</mgrwt>
</event>
<event>
 4    1  0.2621617E-004  0.9387327E+03  0.7818608E-02  0.9378418E-01
         -2   -1    0    0    0  501 -0.00000000000E+00  0.00000000000E+00  0.10975555163E+03  0.10975555166E+03  0.25500000000E-02 0.  1.
          2   -1    0    0  501    0  0.00000000000E+00 -0.00000000000E+00 -0.20072313176E+04  0.20072313176E+04  0.25500000000E-02 0. -1.
    5000001    1    1    2    0    0  0.28731523151E+02 -0.41929139525E+03 -0.57445700157E+03  0.72302186772E+03  0.12700000000E+03 0.  0.
   -5000001    1    1    2    0    0 -0.28731523151E+02  0.41929139525E+03 -0.13230187644E+04  0.13939650015E+04  0.12700000000E+03 0.  0.
<mgrwt>
<rscale>  0 0.93873272E+03</rscale>
<asrwt>0</asrwt>
<pdfrwt beam="1">  1        2 0.28674731E+00 0.93873272E+03</pdfrwt>
<pdfrwt beam="2">  1       -2 0.15679366E-01 0.93873272E+03</pdfrwt>
<totfact> 0.26022045E+02</totfact>
</mgrwt>
</event>
<event>
 4    1  0.2621617E-004  0.3545554E+03  0.7818608E-02  0.1060761E+00
         -2   -1    0    0    0  501 -0.00000000000E+00  0.00000000000E+00  0.49965221432E+02  0.49965221497E+02  0.25500000000E-02 0. -1.
          2   -1    0    0  501    0  0.00000000000E+00 -0.00000000000E+00 -0.62898513797E+03  0.62898513797E+03  0.25500000000E-02 0.  1.
    5000001    1    1    2    0    0  0.11806782235E+03  0.11993588677E+02 -0.22277442517E+03  0.28256203099E+03  0.12700000000E+03 0.  0.
   -5000001    1    1    2    0    0 -0.11806782235E+03 -0.11993588677E+02 -0.35624549136E+03  0.39638832849E+03  0.12700000000E+03 0.  0.
<mgrwt>
<rscale>  0 0.35455539E+03</rscale>
<asrwt>0</asrwt>
<pdfrwt beam="1">  1        2 0.89855015E-01 0.35455539E+03</pdfrwt>
<pdfrwt beam="2">  1       -2 0.71378892E-02 0.35455539E+03</pdfrwt>
<totfact> 0.59162286E+03</totfact>
</mgrwt>
</event>
<event>
 4    1  0.2621617E-004  0.4918912E+03  0.7818608E-02  0.1015917E+00
          2   -1    0    0  501    0  0.00000000000E+00  0.00000000000E+00  0.54212287385E+03  0.54212287386E+03  0.25500000000E-02 0.  1.
         -2   -1    0    0    0  501 -0.00000000000E+00 -0.00000000000E+00 -0.11157847415E+03  0.11157847418E+03  0.25500000000E-02 0. -1.
    5000001    1    1    2    0    0  0.19107846725E+03 -0.62946485778E+02  0.29812700724E+03  0.38142096581E+03  0.12700000000E+03 0.  0.
   -5000001    1    1    2    0    0 -0.19107846725E+03  0.62946485778E+02  0.13241739247E+03  0.27228038223E+03  0.12700000000E+03 0.  0.
<mgrwt>
<rscale>  0 0.49189122E+03</rscale>
<asrwt>0</asrwt>
<pdfrwt beam="1">  1        2 0.77446124E-01 0.49189122E+03</pdfrwt>
<pdfrwt beam="2">  1       -2 0.15939782E-01 0.49189122E+03</pdfrwt>
<totfact> 0.19233650E+03</totfact>
</mgrwt>
</event>
<event>
 4    1  0.2621617E-004  0.3840498E+03  0.7818608E-02  0.1049447E+00
         -2   -1    0    0    0  501 -0.00000000000E+00  0.00000000000E+00  0.22743169289E+03  0.22743169290E+03  0.25500000000E-02 0. -1.
          2   -1    0    0  501    0  0.00000000000E+00 -0.00000000000E+00 -0.16213027437E+03  0.16213027439E+03  0.25500000000E-02 0.  1.
    5000001    1    1    2    0    0 -0.11839368454E+03 -0.75479866170E+02  0.65209504950E+02  0.20023874319E+03  0.12700000000E+03 0.  0.
   -5000001    1    1    2    0    0  0.11839368454E+03  0.75479866170E+02  0.91913565477E-01  0.18932322410E+03  0.12700000000E+03 0.  0.
<mgrwt>
<rscale>  0 0.38404980E+03</rscale>
<asrwt>0</asrwt>
<pdfrwt beam="1">  1        2 0.23161468E-01 0.38404980E+03</pdfrwt>
<pdfrwt beam="2">  1       -2 0.32490241E-01 0.38404980E+03</pdfrwt>
<totfact> 0.20854959E+03</totfact>
</mgrwt>
</event>
<event>
 4    1  0.2621617E-004  0.5915999E+03  0.7818608E-02  0.9922988E-01
         -2   -1    0    0    0  501 -0.00000000000E+00  0.00000000000E+00  0.88306528451E+03  0.88306528452E+03  0.25500000000E-02 0. -1.
          2   -1    0    0  501    0  0.00000000000E+00 -0.00000000000E+00 -0.99083976398E+02  0.99083976431E+02  0.25500000000E-02 0.  1.
    5000001    1    1    2    0    0 -0.14615092498E+03  0.11619091229E+03  0.74782324706E+02  0.23786932770E+03  0.12700000000E+03 0.  0.
   -5000001    1    1    2    0    0  0.14615092498E+03 -0.11619091229E+03  0.70919898341E+03  0.74427993325E+03  0.12700000000E+03 0.  0.
<mgrwt>
<rscale>  0 0.59159993E+03</rscale>
<asrwt>0</asrwt>
<pdfrwt beam="1">  1        2 0.14154853E-01 0.59159993E+03</pdfrwt>
<pdfrwt beam="2">  1       -2 0.12615219E+00 0.59159993E+03</pdfrwt>
<totfact> 0.20445851E+02</totfact>
</mgrwt>
</event>
<event>
 4    1  0.2621617E-004  0.3555118E+03  0.7818608E-02  0.1060375E+00
          2   -1    0    0  501    0  0.00000000000E+00  0.00000000000E+00  0.72237016355E+03  0.72237016356E+03  0.25500000000E-02 0. -1.
         -2   -1    0    0    0  501 -0.00000000000E+00 -0.00000000000E+00 -0.43740960414E+02  0.43740960488E+02  0.25500000000E-02 0.  1.
    5000001    1    1    2    0    0 -0.11908550831E+03 -0.14485188055E+02  0.41003467503E+03  0.44570013876E+03  0.12700000000E+03 0.  0.
   -5000001    1    1    2    0    0  0.11908550831E+03  0.14485188055E+02  0.26859452811E+03  0.32041098529E+03  0.12700000000E+03 0.  0.
<mgrwt>
<rscale>  0 0.35551183E+03</rscale>
<asrwt>0</asrwt>
<pdfrwt beam="1">  1        2 0.10319573E+00 0.35551183E+03</pdfrwt>
<pdfrwt beam="2">  1       -2 0.62487094E-02 0.35551183E+03</pdfrwt>
<totfact> 0.61735365E+03</totfact>
</mgrwt>
</event>
<event>
 4    1  0.2621617E-004  0.2809846E+03  0.7818608E-02  0.1095152E+00
          2   -1    0    0  501    0  0.00000000000E+00  0.00000000000E+00  0.21764427810E+03  0.21764427811E+03  0.25500000000E-02 0. -1.
         -2   -1    0    0    0  501 -0.00000000000E+00 -0.00000000000E+00 -0.90689650593E+02  0.90689650628E+02  0.25500000000E-02 0.  1.
    5000001    1    1    2    0    0  0.35231428880E+02  0.22000912529E+02  0.15850113642E+02  0.13455675321E+03  0.12700000000E+03 0.  0.
   -5000001    1    1    2    0    0 -0.35231428880E+02 -0.22000912529E+02  0.11110451386E+03  0.17377717552E+03  0.12700000000E+03 0.  0.
<mgrwt>
<rscale>  0 0.28098458E+03</rscale>
<asrwt>0</asrwt>
<pdfrwt beam="1">  1        2 0.31092039E-01 0.28098458E+03</pdfrwt>
<pdfrwt beam="2">  1       -2 0.12955665E-01 0.28098458E+03</pdfrwt>
<totfact> 0.73001383E+03</totfact>
</mgrwt>
</event>
<event>
 4    1  0.2621617E-004  0.4851879E+03  0.7818608E-02  0.1017719E+00
          2   -1    0    0  501    0  0.00000000000E+00  0.00000000000E+00  0.10749622059E+04  0.10749622059E+04  0.25500000000E-02 0.  1.
         -2   -1    0    0    0  501 -0.00000000000E+00 -0.00000000000E+00 -0.54747806239E+02  0.54747806298E+02  0.25500000000E-02 0. -1.
    5000001    1    1    2    0    0 -0.12133281834E+03  0.15332682268E+03  0.35405152444E+03  0.42392481564E+03  0.12700000000E+03 0.  0.
   -5000001    1    1    2    0    0  0.12133281834E+03 -0.15332682268E+03  0.66616287518E+03  0.70578519652E+03  0.12700000000E+03 0.  0.
<mgrwt>
<rscale>  0 0.48518789E+03</rscale>
<asrwt>0</asrwt>
<pdfrwt beam="1">  1        2 0.15356602E+00 0.48518789E+03</pdfrwt>
<pdfrwt beam="2">  1       -2 0.78211157E-02 0.48518789E+03</pdfrwt>
<totfact> 0.25862306E+03</totfact>
</mgrwt>
</event>
<event>
 4    1  0.2621617E-004  0.6545149E+03  0.7818608E-02  0.9798344E-01
          2   -1    0    0  501    0  0.00000000000E+00  0.00000000000E+00  0.43596325372E+04  0.43596325372E+04  0.25500000000E-02 0.  1.
         -2   -1    0    0    0  501 -0.00000000000E+00 -0.00000000000E+00 -0.24565706636E+02  0.24565706768E+02  0.25500000000E-02 0. -1.
    5000001    1    1    2    0    0  0.13651266291E+03  0.24915831155E+03  0.14892774646E+04  0.15214440305E+04  0.12700000000E+03 0.  0.
   -5000001    1    1    2    0    0 -0.13651266291E+03 -0.24915831155E+03  0.28457893660E+04  0.28627542135E+04  0.12700000000E+03 0.  0.
<mgrwt>
<rscale>  0 0.65451495E+03</rscale>
<asrwt>0</asrwt>
<pdfrwt beam="1">  1        2 0.62280517E+00 0.65451495E+03</pdfrwt>
<pdfrwt beam="2">  1       -2 0.35093837E-02 0.65451495E+03</pdfrwt>
<totfact> 0.12496147E+02</totfact>
</mgrwt>
</event>
<event>
 4    1  0.2621617E-004  0.5164848E+03  0.7818608E-02  0.1009564E+00
         -2   -1    0    0    0  501 -0.00000000000E+00  0.00000000000E+00  0.32931152789E+03  0.32931152790E+03  0.25500000000E-02 0. -1.
          2   -1    0    0  501    0  0.00000000000E+00 -0.00000000000E+00 -0.20251076602E+03  0.20251076604E+03  0.25500000000E-02 0.  1.
    5000001    1    1    2    0    0  0.10405995846E+02  0.16993461993E+03 -0.87842541194E+02  0.22985075994E+03  0.12700000000E+03 0.  0.
   -5000001    1    1    2    0    0 -0.10405995846E+02 -0.16993461993E+03  0.21464330306E+03  0.30197153401E+03  0.12700000000E+03 0.  0.
<mgrwt>
<rscale>  0 0.51648477E+03</rscale>
<asrwt>0</asrwt>
<pdfrwt beam="1">  1        2 0.28930110E-01 0.51648477E+03</pdfrwt>
<pdfrwt beam="2">  1       -2 0.47044503E-01 0.51648477E+03</pdfrwt>
<totfact> 0.79768701E+02</totfact>
</mgrwt>
</event>
<event>
 4    1  0.2621617E-004  0.3562404E+03  0.7818608E-02  0.1060082E+00
          2   -1    0    0  501    0  0.00000000000E+00  0.00000000000E+00  0.41428191157E+03  0.41428191158E+03  0.25500000000E-02 0.  1.
         -2   -1    0    0    0  501 -0.00000000000E+00 -0.00000000000E+00 -0.76582665194E+02  0.76582665236E+02  0.25500000000E-02 0. -1.
    5000001    1    1    2    0    0 -0.52976586372E+02  0.82534244053E+02  0.62301203009E+02  0.17213035770E+03  0.12700000000E+03 0.  0.
   -5000001    1    1    2    0    0  0.52976586372E+02 -0.82534244053E+02  0.27539804337E+03  0.31873421912E+03  0.12700000000E+03 0.  0.
<mgrwt>
<rscale>  0 0.35624044E+03</rscale>
<asrwt>0</asrwt>
<pdfrwt beam="1">  1        2 0.59183130E-01 0.35624044E+03</pdfrwt>
<pdfrwt beam="2">  1       -2 0.10940381E-01 0.35624044E+03</pdfrwt>
<totfact> 0.48068058E+03</totfact>
</mgrwt>
</event>
<event>
 4    1  0.2621617E-004  0.4337415E+03  0.7818608E-02  0.1032685E+00
         -2   -1    0    0    0  501 -0.00000000000E+00  0.00000000000E+00  0.43090229160E+02  0.43090229236E+02  0.25500000000E-02 0. -1.
          2   -1    0    0  501    0  0.00000000000E+00 -0.00000000000E+00 -0.10914985666E+04  0.10914985666E+04  0.25500000000E-02 0.  1.
    5000001    1    1    2    0    0  0.31228826979E+02  0.13879582496E+03 -0.79433600883E+03  0.81690771546E+03  0.12700000000E+03 0.  0.
   -5000001    1    1    2    0    0 -0.31228826979E+02 -0.13879582496E+03 -0.25407232858E+03  0.31768108035E+03  0.12700000000E+03 0.  0.
<mgrwt>
<rscale>  0 0.43374151E+03</rscale>
<asrwt>0</asrwt>
<pdfrwt beam="1">  1        2 0.15592835E+00 0.43374151E+03</pdfrwt>
<pdfrwt beam="2">  1       -2 0.61557477E-02 0.43374151E+03</pdfrwt>
<totfact> 0.36824633E+03</totfact>
</mgrwt>
</event>
<event>
 4    1  0.2621617E-004  0.8772248E+03  0.7818608E-02  0.9454508E-01
         -2   -1    0    0    0  501 -0.00000000000E+00  0.00000000000E+00  0.25411028981E+03  0.25411028983E+03  0.25500000000E-02 0. -1.
          2   -1    0    0  501    0  0.00000000000E+00 -0.00000000000E+00 -0.75707612634E+03  0.75707612635E+03  0.25500000000E-02 0.  1.
    5000001    1    1    2    0    0 -0.26611457145E+03  0.30844066259E+03 -0.13449995116E+03  0.44740568206E+03  0.12700000000E+03 0.  0.
   -5000001    1    1    2    0    0  0.26611457145E+03 -0.30844066259E+03 -0.36846588537E+03  0.56378073411E+03  0.12700000000E+03 0.  0.
<mgrwt>
<rscale>  0 0.87722479E+03</rscale>
<asrwt>0</asrwt>
<pdfrwt beam="1">  1        2 0.10815373E+00 0.87722479E+03</pdfrwt>
<pdfrwt beam="2">  1       -2 0.36301470E-01 0.87722479E+03</pdfrwt>
<totfact> 0.29180321E+02</totfact>
</mgrwt>
</event>
<event>
 4    1  0.2621617E-004  0.6282239E+03  0.7818608E-02  0.9848521E-01
         -2   -1    0    0    0  501 -0.00000000000E+00  0.00000000000E+00  0.84719864788E+02  0.84719864826E+02  0.25500000000E-02 0. -1.
          2   -1    0    0  501    0  0.00000000000E+00 -0.00000000000E+00 -0.11646183398E+04  0.11646183398E+04  0.25500000000E-02 0.  1.
    5000001    1    1    2    0    0  0.75703817040E+02 -0.25653980636E+03 -0.33143538041E+03  0.44443464261E+03  0.12700000000E+03 0.  0.
   -5000001    1    1    2    0    0 -0.75703817040E+02  0.25653980636E+03 -0.74846309456E+03  0.80490356197E+03  0.12700000000E+03 0.  0.
<mgrwt>
<rscale>  0 0.62822387E+03</rscale>
<asrwt>0</asrwt>
<pdfrwt beam="1">  1        2 0.16637404E+00 0.62822387E+03</pdfrwt>
<pdfrwt beam="2">  1       -2 0.12102839E-01 0.62822387E+03</pdfrwt>
<totfact> 0.11319113E+03</totfact>
</mgrwt>
</event>
<event>
 4    1  0.2621617E-004  0.3235707E+03  0.7818608E-02  0.1074018E+00
          2   -1    0    0  501    0  0.00000000000E+00  0.00000000000E+00  0.11216698975E+04  0.11216698975E+04  0.25500000000E-02 0.  1.
         -2   -1    0    0    0  501 -0.00000000000E+00 -0.00000000000E+00 -0.23335290068E+02  0.23335290208E+02  0.25500000000E-02 0. -1.
    5000001    1    1    2    0    0  0.46773477109E+02 -0.88078178104E+02  0.58454835572E+03  0.60644150897E+03  0.12700000000E+03 0.  0.
   -5000001    1    1    2    0    0 -0.46773477109E+02  0.88078178104E+02  0.51378625174E+03  0.53856367878E+03  0.12700000000E+03 0.  0.
<mgrwt>
<rscale>  0 0.32357066E+03</rscale>
<asrwt>0</asrwt>
<pdfrwt beam="1">  1        2 0.16023859E+00 0.32357066E+03</pdfrwt>
<pdfrwt beam="2">  1       -2 0.33336122E-02 0.32357066E+03</pdfrwt>
<totfact> 0.89879501E+03</totfact>
</mgrwt>
</event>
<event>
 4    1  0.2621617E-004  0.2965251E+03  0.7818608E-02  0.1086991E+00
         -2   -1    0    0    0  501 -0.00000000000E+00  0.00000000000E+00  0.92367135849E+01  0.92367139369E+01  0.25500000000E-02 0. -1.
          2   -1    0    0  501    0  0.00000000000E+00 -0.00000000000E+00 -0.23798270455E+04  0.23798270455E+04  0.25500000000E-02 0.  1.
    5000001    1    1    2    0    0  0.70986372632E+02  0.20161198030E+02 -0.10227055891E+04  0.10331995262E+04  0.12700000000E+03 0.  0.
   -5000001    1    1    2    0    0 -0.70986372632E+02 -0.20161198030E+02 -0.13478847428E+04  0.13558642332E+04  0.12700000000E+03 0.  0.
<mgrwt>
<rscale>  0 0.29652508E+03</rscale>
<asrwt>0</asrwt>
<pdfrwt beam="1">  1        2 0.33997490E+00 0.29652508E+03</pdfrwt>
<pdfrwt beam="2">  1       -2 0.13195321E-02 0.29652508E+03</pdfrwt>
<totfact> 0.81931967E+03</totfact>
</mgrwt>
</event>
<event>
 4    1  0.2621617E-004  0.4049302E+03  0.7818608E-02  0.1042086E+00
          2   -1    0    0  501    0  0.00000000000E+00  0.00000000000E+00  0.46173626054E+04  0.46173626054E+04  0.25500000000E-02 0. -1.
         -2   -1    0    0    0  501 -0.00000000000E+00 -0.00000000000E+00 -0.88778199364E+01  0.88778203026E+01  0.25500000000E-02 0.  1.
    5000001    1    1    2    0    0 -0.12308186549E+03  0.76305589169E+02  0.30169352979E+04  0.30230777827E+04  0.12700000000E+03 0.  0.
   -5000001    1    1    2    0    0  0.12308186549E+03 -0.76305589169E+02  0.15915494876E+04  0.16031626430E+04  0.12700000000E+03 0.  0.
<mgrwt>
<rscale>  0 0.40493019E+03</rscale>
<asrwt>0</asrwt>
<pdfrwt beam="1">  1        2 0.65962277E+00 0.40493019E+03</pdfrwt>
<pdfrwt beam="2">  1       -2 0.12682609E-02 0.40493019E+03</pdfrwt>
<totfact> 0.38176849E+02</totfact>
</mgrwt>
</event>
<event>
 4    1  0.2621617E-004  0.3011564E+03  0.7818608E-02  0.1084664E+00
         -2   -1    0    0    0  501 -0.00000000000E+00  0.00000000000E+00  0.59604151203E+02  0.59604151258E+02  0.25500000000E-02 0. -1.
          2   -1    0    0  501    0  0.00000000000E+00 -0.00000000000E+00 -0.38040635975E+03  0.38040635976E+03  0.25500000000E-02 0.  1.
    5000001    1    1    2    0    0 -0.80429668415E+02  0.54912104495E+01 -0.17027962566E+03  0.22720747318E+03  0.12700000000E+03 0.  0.
   -5000001    1    1    2    0    0  0.80429668415E+02 -0.54912104495E+01 -0.15052258289E+03  0.21280303784E+03  0.12700000000E+03 0.  0.
<mgrwt>
<rscale>  0 0.30115643E+03</rscale>
<asrwt>0</asrwt>
<pdfrwt beam="1">  1        2 0.54343764E-01 0.30115643E+03</pdfrwt>
<pdfrwt beam="2">  1       -2 0.85148789E-02 0.30115643E+03</pdfrwt>
<totfact> 0.78214991E+03</totfact>
</mgrwt>
</event>
<event>
 4    1  0.2621617E-004  0.5091363E+03  0.7818608E-02  0.1011421E+00
          2   -1    0    0  501    0  0.00000000000E+00  0.00000000000E+00  0.27120355458E+03  0.27120355459E+03  0.25500000000E-02 0.  1.
         -2   -1    0    0    0  501 -0.00000000000E+00 -0.00000000000E+00 -0.23895316004E+03  0.23895316005E+03  0.25500000000E-02 0. -1.
    5000001    1    1    2    0    0 -0.39698413940E+02  0.19165693726E+03 -0.85900287084E+02  0.24862864877E+03  0.12700000000E+03 0.  0.
   -5000001    1    1    2    0    0  0.39698413940E+02 -0.19165693726E+03  0.11815068163E+03  0.26152806587E+03  0.12700000000E+03 0.  0.
<mgrwt>
<rscale>  0 0.50913631E+03</rscale>
<asrwt>0</asrwt>
<pdfrwt beam="1">  1        2 0.38743365E-01 0.50913631E+03</pdfrwt>
<pdfrwt beam="2">  1       -2 0.34136166E-01 0.50913631E+03</pdfrwt>
<totfact> 0.10731517E+03</totfact>
</mgrwt>
</event>
<event>
 4    1  0.2621617E-004  0.3494460E+03  0.7818608E-02  0.1062843E+00
         -2   -1    0    0    0  501 -0.00000000000E+00  0.00000000000E+00  0.87717838617E+01  0.87717842323E+01  0.25500000000E-02 0. -1.
          2   -1    0    0  501    0  0.00000000000E+00 -0.00000000000E+00 -0.34802649326E+04  0.34802649326E+04  0.25500000000E-02 0.  1.
    5000001    1    1    2    0    0  0.52364203813E+02 -0.10780578717E+03 -0.17948449353E+04  0.18033195611E+04  0.12700000000E+03 0.  0.
   -5000001    1    1    2    0    0 -0.52364203813E+02  0.10780578717E+03 -0.16766482135E+04  0.16857171558E+04  0.12700000000E+03 0.  0.
<mgrwt>
<rscale>  0 0.34944603E+03</rscale>
<asrwt>0</asrwt>
<pdfrwt beam="1">  1        2 0.49717982E+00 0.34944603E+03</pdfrwt>
<pdfrwt beam="2">  1       -2 0.12531142E-02 0.34944603E+03</pdfrwt>
<totfact> 0.22929306E+03</totfact>
</mgrwt>
</event>
<event>
 4    1  0.2621617E-004  0.6673767E+03  0.7818608E-02  0.9774708E-01
          2   -1    0    0  501    0  0.00000000000E+00  0.00000000000E+00  0.58427175755E+03  0.58427175756E+03  0.25500000000E-02 0.  1.
         -2   -1    0    0    0  501 -0.00000000000E+00 -0.00000000000E+00 -0.19057556843E+03  0.19057556845E+03  0.25500000000E-02 0. -1.
    5000001    1    1    2    0    0  0.23639514455E+03 -0.47868186999E+02  0.42031296805E+03  0.50096508741E+03  0.12700000000E+03 0.  0.
   -5000001    1    1    2    0    0 -0.23639514455E+03  0.47868186999E+02 -0.26616778930E+02  0.27388223859E+03  0.12700000000E+03 0.  0.
<mgrwt>
<rscale>  0 0.66737672E+03</rscale>
<asrwt>0</asrwt>
<pdfrwt beam="1">  1        2 0.83467393E-01 0.66737672E+03</pdfrwt>
<pdfrwt beam="2">  1       -2 0.27225082E-01 0.66737672E+03</pdfrwt>
<totfact> 0.68968740E+02</totfact>
</mgrwt>
</event>
<event>
 4    1  0.2621617E-004  0.3134109E+03  0.7818608E-02  0.1078722E+00
         -2   -1    0    0    0  501 -0.00000000000E+00  0.00000000000E+00  0.76539208434E+01  0.76539212682E+01  0.25500000000E-02 0. -1.
          2   -1    0    0  501    0  0.00000000000E+00 -0.00000000000E+00 -0.32083685673E+04  0.32083685673E+04  0.25500000000E-02 0.  1.
    5000001    1    1    2    0    0 -0.92328012391E+01 -0.45842519725E+02 -0.24109930529E+04  0.24147884549E+04  0.12700000000E+03 0.  0.
   -5000001    1    1    2    0    0  0.92328012391E+01  0.45842519725E+02 -0.78972159364E+03  0.80123403366E+03  0.12700000000E+03 0.  0.
<mgrwt>
<rscale>  0 0.31341091E+03</rscale>
<asrwt>0</asrwt>
<pdfrwt beam="1">  1        2 0.45833750E+00 0.31341091E+03</pdfrwt>
<pdfrwt beam="2">  1       -2 0.10934193E-02 0.31341091E+03</pdfrwt>
<totfact> 0.40026669E+03</totfact>
</mgrwt>
</event>
<event>
 4    1  0.2621617E-004  0.3631569E+03  0.7818608E-02  0.1057341E+00
         -2   -1    0    0    0  501 -0.00000000000E+00  0.00000000000E+00  0.52573907883E+02  0.52573907945E+02  0.25500000000E-02 0. -1.
          2   -1    0    0  501    0  0.00000000000E+00 -0.00000000000E+00 -0.62713112629E+03  0.62713112629E+03  0.25500000000E-02 0.  1.
    5000001    1    1    2    0    0 -0.65802047872E+02  0.81299815938E+02 -0.43106965347E+03  0.46139962691E+03  0.12700000000E+03 0.  0.
   -5000001    1    1    2    0    0  0.65802047872E+02 -0.81299815938E+02 -0.14348756494E+03  0.21830540733E+03  0.12700000000E+03 0.  0.
<mgrwt>
<rscale>  0 0.36315690E+03</rscale>
<asrwt>0</asrwt>
<pdfrwt beam="1">  1        2 0.89590156E-01 0.36315690E+03</pdfrwt>
<pdfrwt beam="2">  1       -2 0.75105587E-02 0.36315690E+03</pdfrwt>
<totfact> 0.54854304E+03</totfact>
</mgrwt>
</event>
<event>
 4    1  0.2621617E-004  0.2784732E+03  0.7818608E-02  0.1096526E+00
          2   -1    0    0  501    0  0.00000000000E+00  0.00000000000E+00  0.11401205030E+03  0.11401205033E+03  0.25500000000E-02 0.  1.
         -2   -1    0    0    0  501 -0.00000000000E+00 -0.00000000000E+00 -0.17004198144E+03  0.17004198146E+03  0.25500000000E-02 0. -1.
    5000001    1    1    2    0    0 -0.24182710296E+02 -0.26956279215E+02  0.16987104530E+02  0.13315031426E+03  0.12700000000E+03 0.  0.
   -5000001    1    1    2    0    0  0.24182710296E+02  0.26956279215E+02 -0.73017035675E+02  0.15090371753E+03  0.12700000000E+03 0.  0.
<mgrwt>
<rscale>  0 0.27847323E+03</rscale>
<asrwt>0</asrwt>
<pdfrwt beam="1">  1        2 0.16287436E-01 0.27847323E+03</pdfrwt>
<pdfrwt beam="2">  1       -2 0.24291712E-01 0.27847323E+03</pdfrwt>
<totfact> 0.52514097E+03</totfact>
</mgrwt>
</event>
<event>
 4    1  0.2621617E-004  0.4477844E+03  0.7818608E-02  0.1028385E+00
          2   -1    0    0  501    0  0.00000000000E+00  0.00000000000E+00  0.11681221628E+04  0.11681221628E+04  0.25500000000E-02 0.  1.
         -2   -1    0    0    0  501 -0.00000000000E+00 -0.00000000000E+00 -0.42913083500E+02  0.42913083576E+02  0.25500000000E-02 0. -1.
    5000001    1    1    2    0    0  0.11041837790E+03 -0.14672985692E+03  0.51760439833E+03  0.56370664557E+03  0.12700000000E+03 0.  0.
   -5000001    1    1    2    0    0 -0.11041837790E+03  0.14672985692E+03  0.60760468098E+03  0.64732860082E+03  0.12700000000E+03 0.  0.
<mgrwt>
<rscale>  0 0.44778443E+03</rscale>
<asrwt>0</asrwt>
<pdfrwt beam="1">  1        2 0.16687457E+00 0.44778443E+03</pdfrwt>
<pdfrwt beam="2">  1       -2 0.61304414E-02 0.44778443E+03</pdfrwt>
<totfact> 0.33531588E+03</totfact>
</mgrwt>
</event>
<event>
 4    1  0.2621617E-004  0.5637186E+03  0.7818608E-02  0.9983676E-01
         -2   -1    0    0    0  501 -0.00000000000E+00  0.00000000000E+00  0.40896547020E+02  0.40896547099E+02  0.25500000000E-02 0. -1.
          2   -1    0    0  501    0  0.00000000000E+00 -0.00000000000E+00 -0.19425766165E+04  0.19425766165E+04  0.25500000000E-02 0.  1.
    5000001    1    1    2    0    0  0.67583873050E+02  0.24075929882E+03 -0.10493001608E+04  0.10861364773E+04  0.12700000000E+03 0.  0.
   -5000001    1    1    2    0    0 -0.67583873050E+02 -0.24075929882E+03 -0.85237990868E+03  0.89733668631E+03  0.12700000000E+03 0.  0.
<mgrwt>
<rscale>  0 0.56371864E+03</rscale>
<asrwt>0</asrwt>
<pdfrwt beam="1">  1        2 0.27751089E+00 0.56371864E+03</pdfrwt>
<pdfrwt beam="2">  1       -2 0.58423651E-02 0.56371864E+03</pdfrwt>
<totfact> 0.14280564E+03</totfact>
</mgrwt>
</event>
<event>
 4    1  0.2621617E-004  0.3837032E+03  0.7818608E-02  0.1049573E+00
          2   -1    0    0  501    0  0.00000000000E+00  0.00000000000E+00  0.15867329144E+04  0.15867329144E+04  0.25500000000E-02 0.  1.
         -2   -1    0    0    0  501 -0.00000000000E+00 -0.00000000000E+00 -0.23196738739E+02  0.23196738879E+02  0.25500000000E-02 0. -1.
    5000001    1    1    2    0    0  0.14176852458E+03 -0.21237146424E+02  0.73416912705E+03  0.75873752910E+03  0.12700000000E+03 0.  0.
   -5000001    1    1    2    0    0 -0.14176852458E+03  0.21237146424E+02  0.82936704864E+03  0.85119212421E+03  0.12700000000E+03 0.  0.
<mgrwt>
<rscale>  0 0.38370316E+03</rscale>
<asrwt>0</asrwt>
<pdfrwt beam="1">  1        2 0.22667613E+00 0.38370316E+03</pdfrwt>
<pdfrwt beam="2">  1       -2 0.33138198E-02 0.38370316E+03</pdfrwt>
<totfact> 0.51638443E+03</totfact>
</mgrwt>
</event>
<event>
 4    1  0.2621617E-004  0.3645998E+03  0.7818608E-02  0.1056777E+00
         -2   -1    0    0    0  501 -0.00000000000E+00  0.00000000000E+00  0.53596417442E+02  0.53596417502E+02  0.25500000000E-02 0. -1.
          2   -1    0    0  501    0  0.00000000000E+00 -0.00000000000E+00 -0.62006477511E+03  0.62006477512E+03  0.25500000000E-02 0.  1.
    5000001    1    1    2    0    0 -0.78777286664E+02 -0.43997719815E+02 -0.45815515632E+03  0.48391818266E+03  0.12700000000E+03 0.  0.
   -5000001    1    1    2    0    0  0.78777286664E+02  0.43997719815E+02 -0.10831320135E+03  0.18974300996E+03  0.12700000000E+03 0.  0.
<mgrwt>
<rscale>  0 0.36459978E+03</rscale>
<asrwt>0</asrwt>
<pdfrwt beam="1">  1        2 0.88580678E-01 0.36459978E+03</pdfrwt>
<pdfrwt beam="2">  1       -2 0.76566314E-02 0.36459978E+03</pdfrwt>
<totfact> 0.53933967E+03</totfact>
</mgrwt>
</event>
<event>
 4    1  0.2621617E-004  0.3141348E+03  0.7818608E-02  0.1078381E+00
         -2   -1    0    0    0  501 -0.00000000000E+00  0.00000000000E+00  0.15331196650E+02  0.15331196862E+02  0.25500000000E-02 0. -1.
          2   -1    0    0  501    0  0.00000000000E+00 -0.00000000000E+00 -0.16091485567E+04  0.16091485567E+04  0.25500000000E-02 0.  1.
    5000001    1    1    2    0    0  0.50185356851E+01 -0.73076717321E+02 -0.50548591838E+03  0.52631778042E+03  0.12700000000E+03 0.  0.
   -5000001    1    1    2    0    0 -0.50185356851E+01  0.73076717321E+02 -0.10883314417E+04  0.10981619732E+04  0.12700000000E+03 0.  0.
<mgrwt>
<rscale>  0 0.31413483E+03</rscale>
<asrwt>0</asrwt>
<pdfrwt beam="1">  1        2 0.22987826E+00 0.31413483E+03</pdfrwt>
<pdfrwt beam="2">  1       -2 0.21901720E-02 0.31413483E+03</pdfrwt>
<totfact> 0.93198536E+03</totfact>
</mgrwt>
</event>
<event>
 4    1  0.2621617E-004  0.4232089E+03  0.7818608E-02  0.1036027E+00
          2   -1    0    0  501    0  0.00000000000E+00  0.00000000000E+00  0.34043100849E+04  0.34043100849E+04  0.25500000000E-02 0.  1.
         -2   -1    0    0    0  501 -0.00000000000E+00 -0.00000000000E+00 -0.13152866052E+02  0.13152866299E+02  0.25500000000E-02 0. -1.
    5000001    1    1    2    0    0 -0.13983525353E+03 -0.94909674162E+02  0.17703293721E+04  0.17829068484E+04  0.12700000000E+03 0.  0.
   -5000001    1    1    2    0    0  0.13983525353E+03  0.94909674162E+02  0.16208278467E+04  0.16345561028E+04  0.12700000000E+03 0.  0.
<mgrwt>
<rscale>  0 0.42320886E+03</rscale>
<asrwt>0</asrwt>
<pdfrwt beam="1">  1        2 0.48633001E+00 0.42320886E+03</pdfrwt>
<pdfrwt beam="2">  1       -2 0.18789809E-02 0.42320886E+03</pdfrwt>
<totfact> 0.13831875E+03</totfact>
</mgrwt>
</event>
<event>
 4    1  0.2621617E-004  0.4884917E+03  0.7818608E-02  0.1016827E+00
         -2   -1    0    0    0  501 -0.00000000000E+00  0.00000000000E+00  0.16782936073E+02  0.16782936267E+02  0.25500000000E-02 0. -1.
          2   -1    0    0  501    0  0.00000000000E+00 -0.00000000000E+00 -0.35545654554E+04  0.35545654554E+04  0.25500000000E-02 0.  1.
    5000001    1    1    2    0    0  0.63976964914E+02  0.19010467612E+03 -0.21885055979E+04  0.22013447235E+04  0.12700000000E+03 0.  0.
   -5000001    1    1    2    0    0 -0.63976964914E+02 -0.19010467612E+03 -0.13492769214E+04  0.13700036681E+04  0.12700000000E+03 0.  0.
<mgrwt>
<rscale>  0 0.48849174E+03</rscale>
<asrwt>0</asrwt>
<pdfrwt beam="1">  1        2 0.50779458E+00 0.48849174E+03</pdfrwt>
<pdfrwt beam="2">  1       -2 0.23975646E-02 0.48849174E+03</pdfrwt>
<totfact> 0.77824274E+02</totfact>
</mgrwt>
</event>
<event>
 4    1  0.2621617E-004  0.3438299E+03  0.7818608E-02  0.1065176E+00
          2   -1    0    0  501    0  0.00000000000E+00  0.00000000000E+00  0.13851783014E+04  0.13851783014E+04  0.25500000000E-02 0.  1.
         -2   -1    0    0    0  501 -0.00000000000E+00 -0.00000000000E+00 -0.21336424864E+02  0.21336425016E+02  0.25500000000E-02 0. -1.
    5000001    1    1    2    0    0  0.96760307405E+02  0.49429285573E+02  0.51727527826E+03  0.54360695807E+03  0.12700000000E+03 0.  0.
   -5000001    1    1    2    0    0 -0.96760307405E+02 -0.49429285573E+02  0.84656659827E+03  0.86290776835E+03  0.12700000000E+03 0.  0.
<mgrwt>
<rscale>  0 0.34382992E+03</rscale>
<asrwt>0</asrwt>
<pdfrwt beam="1">  1        2 0.19788260E+00 0.34382992E+03</pdfrwt>
<pdfrwt beam="2">  1       -2 0.30480609E-02 0.34382992E+03</pdfrwt>
<totfact> 0.74200628E+03</totfact>
</mgrwt>
</event>
<event>
 4    1  0.2621617E-004  0.5209418E+03  0.7818608E-02  0.1008453E+00
         -2   -1    0    0    0  501 -0.00000000000E+00  0.00000000000E+00  0.29084830926E+03  0.29084830927E+03  0.25500000000E-02 0. -1.
          2   -1    0    0  501    0  0.00000000000E+00 -0.00000000000E+00 -0.23326619883E+03  0.23326619884E+03  0.25500000000E-02 0.  1.
    5000001    1    1    2    0    0 -0.16734283942E+01  0.21513748174E+03  0.10292253230E+03  0.27020174698E+03  0.12700000000E+03 0.  0.
   -5000001    1    1    2    0    0  0.16734283942E+01 -0.21513748174E+03 -0.45340421874E+02  0.25391276114E+03  0.12700000000E+03 0.  0.
<mgrwt>
<rscale>  0 0.52094176E+03</rscale>
<asrwt>0</asrwt>
<pdfrwt beam="1">  1        2 0.33323743E-01 0.52094176E+03</pdfrwt>
<pdfrwt beam="2">  1       -2 0.41549759E-01 0.52094176E+03</pdfrwt>
<totfact> 0.87028341E+02</totfact>
</mgrwt>
</event>
<event>
 4    1  0.2621617E-004  0.1162457E+04  0.7818608E-02  0.9146367E-01
         -2   -1    0    0    0  501 -0.00000000000E+00  0.00000000000E+00  0.24301774698E+03  0.24301774699E+03  0.25500000000E-02 0. -1.
          2   -1    0    0  501    0  0.00000000000E+00 -0.00000000000E+00 -0.13901324448E+04  0.13901324448E+04  0.25500000000E-02 0.  1.
    5000001    1    1    2    0    0 -0.56558346196E+03 -0.12087843346E+02 -0.51619484592E+03  0.77628402493E+03  0.12700000000E+03 0.  0.
   -5000001    1    1    2    0    0  0.56558346196E+03  0.12087843346E+02 -0.63091985191E+03  0.85686616687E+03  0.12700000000E+03 0.  0.
<mgrwt>
<rscale>  0 0.11624575E+04</rscale>
<asrwt>0</asrwt>
<pdfrwt beam="1">  1        2 0.19859035E+00 0.11624575E+04</pdfrwt>
<pdfrwt beam="2">  1       -2 0.34716822E-01 0.11624575E+04</pdfrwt>
<totfact> 0.12875720E+02</totfact>
</mgrwt>
</event>
<event>
 4    1  0.2621617E-004  0.3119086E+03  0.7818608E-02  0.1079435E+00
          2   -1    0    0  501    0  0.00000000000E+00  0.00000000000E+00  0.26935692401E+04  0.26935692401E+04  0.25500000000E-02 0.  1.
         -2   -1    0    0    0  501 -0.00000000000E+00 -0.00000000000E+00 -0.90295619810E+01  0.90295623411E+01  0.25500000000E-02 0. -1.
    5000001    1    1    2    0    0 -0.78920965314E+02 -0.41748748205E+02  0.14711599227E+04  0.14793282242E+04  0.12700000000E+03 0.  0.
   -5000001    1    1    2    0    0  0.78920965314E+02  0.41748748205E+02  0.12133797554E+04  0.12232705782E+04  0.12700000000E+03 0.  0.
<mgrwt>
<rscale>  0 0.31190865E+03</rscale>
<asrwt>0</asrwt>
<pdfrwt beam="1">  1        2 0.38479611E+00 0.31190865E+03</pdfrwt>
<pdfrwt beam="2">  1       -2 0.12899358E-02 0.31190865E+03</pdfrwt>
<totfact> 0.58887774E+03</totfact>
</mgrwt>
</event>
<event>
 4    1  0.2621617E-004  0.3760128E+03  0.7818608E-02  0.1052417E+00
         -2   -1    0    0    0  501 -0.00000000000E+00  0.00000000000E+00  0.10108642820E+02  0.10108643141E+02  0.25500000000E-02 0. -1.
          2   -1    0    0  501    0  0.00000000000E+00 -0.00000000000E+00 -0.34966525225E+04  0.34966525225E+04  0.25500000000E-02 0.  1.
    5000001    1    1    2    0    0 -0.76156402455E+02  0.92546040276E+02 -0.10935886072E+04  0.11074428243E+04  0.12700000000E+03 0.  0.
   -5000001    1    1    2    0    0  0.76156402455E+02 -0.92546040276E+02 -0.23929552724E+04  0.23993183413E+04  0.12700000000E+03 0.  0.
<mgrwt>
<rscale>  0 0.37601283E+03</rscale>
<asrwt>0</asrwt>
<pdfrwt beam="1">  1        2 0.49952101E+00 0.37601283E+03</pdfrwt>
<pdfrwt beam="2">  1       -2 0.14440941E-02 0.37601283E+03</pdfrwt>
<totfact> 0.18152274E+03</totfact>
</mgrwt>
</event>
<event>
 4    1  0.2621617E-004  0.2820435E+03  0.7818608E-02  0.1094578E+00
          2   -1    0    0  501    0  0.00000000000E+00  0.00000000000E+00  0.95594300010E+03  0.95594300010E+03  0.25500000000E-02 0. -1.
         -2   -1    0    0    0  501 -0.00000000000E+00 -0.00000000000E+00 -0.20803685317E+02  0.20803685473E+02  0.25500000000E-02 0.  1.
    5000001    1    1    2    0    0 -0.60440737336E+02  0.85465934193E+01  0.48716314130E+03  0.50713218516E+03  0.12700000000E+03 0.  0.
   -5000001    1    1    2    0    0  0.60440737336E+02 -0.85465934193E+01  0.44797617348E+03  0.46961450041E+03  0.12700000000E+03 0.  0.
<mgrwt>
<rscale>  0 0.28204352E+03</rscale>
<asrwt>0</asrwt>
<pdfrwt beam="1">  1        2 0.13656335E+00 0.28204352E+03</pdfrwt>
<pdfrwt beam="2">  1       -2 0.29719538E-02 0.28204352E+03</pdfrwt>
<totfact> 0.13270539E+04</totfact>
</mgrwt>
</event>
<event>
 4    1  0.2621617E-004  0.3324912E+03  0.7818608E-02  0.1070040E+00
         -2   -1    0    0    0  501 -0.00000000000E+00  0.00000000000E+00  0.13776234116E+04  0.13776234116E+04  0.25500000000E-02 0. -1.
          2   -1    0    0  501    0  0.00000000000E+00 -0.00000000000E+00 -0.20061798757E+02  0.20061798919E+02  0.25500000000E-02 0.  1.
    5000001    1    1    2    0    0 -0.63723415975E+02 -0.62199049371E+02  0.93027193305E+03  0.94311413143E+03  0.12700000000E+03 0.  0.
   -5000001    1    1    2    0    0  0.63723415975E+02  0.62199049371E+02  0.42728967979E+03  0.45457107909E+03  0.12700000000E+03 0.  0.
<mgrwt>
<rscale>  0 0.33249123E+03</rscale>
<asrwt>0</asrwt>
<pdfrwt beam="1">  1        2 0.28659706E-02 0.33249123E+03</pdfrwt>
<pdfrwt beam="2">  1       -2 0.19680339E+00 0.33249123E+03</pdfrwt>
<totfact> 0.50567080E+02</totfact>
</mgrwt>
</event>
<event>
 4    1  0.2621617E-004  0.4619879E+03  0.7818608E-02  0.1024206E+00
         -2   -1    0    0    0  501 -0.00000000000E+00  0.00000000000E+00  0.20182795050E+02  0.20182795211E+02  0.25500000000E-02 0. -1.
          2   -1    0    0  501    0  0.00000000000E+00 -0.00000000000E+00 -0.26437469894E+04  0.26437469894E+04  0.25500000000E-02 0.  1.
    5000001    1    1    2    0    0 -0.12782902375E+03  0.14451880558E+03 -0.13013718727E+04  0.13217124103E+04  0.12700000000E+03 0.  0.
   -5000001    1    1    2    0    0  0.12782902375E+03 -0.14451880558E+03 -0.13221923216E+04  0.13422173743E+04  0.12700000000E+03 0.  0.
<mgrwt>
<rscale>  0 0.46198790E+03</rscale>
<asrwt>0</asrwt>
<pdfrwt beam="1">  1        2 0.37767792E+00 0.46198790E+03</pdfrwt>
<pdfrwt beam="2">  1       -2 0.28832581E-02 0.46198790E+03</pdfrwt>
<totfact> 0.18771291E+03</totfact>
</mgrwt>
</event>
<event>
 4    1  0.2621617E-004  0.5134389E+03  0.7818608E-02  0.1010329E+00
          2   -1    0    0  501    0  0.00000000000E+00  0.00000000000E+00  0.15138122490E+04  0.15138122490E+04  0.25500000000E-02 0.  1.
         -2   -1    0    0    0  501 -0.00000000000E+00 -0.00000000000E+00 -0.43535703655E+02  0.43535703730E+02  0.25500000000E-02 0. -1.
    5000001    1    1    2    0    0 -0.21869990311E+03 -0.33594922175E+02  0.64840787807E+03  0.69679268277E+03  0.12700000000E+03 0.  0.
   -5000001    1    1    2    0    0  0.21869990311E+03  0.33594922175E+02  0.82186866732E+03  0.86055527001E+03  0.12700000000E+03 0.  0.
<mgrwt>
<rscale>  0 0.51343892E+03</rscale>
<asrwt>0</asrwt>
<pdfrwt beam="1">  1        2 0.21625890E+00 0.51343892E+03</pdfrwt>
<pdfrwt beam="2">  1       -2 0.62193859E-02 0.51343892E+03</pdfrwt>
<totfact> 0.21397790E+03</totfact>
</mgrwt>
</event>
<event>
 4    1  0.2621617E-004  0.6540450E+03  0.7818608E-02  0.9799219E-01
         -2   -1    0    0    0  501 -0.00000000000E+00  0.00000000000E+00  0.66668986435E+02  0.66668986483E+02  0.25500000000E-02 0. -1.
          2   -1    0    0  501    0  0.00000000000E+00 -0.00000000000E+00 -0.16040997011E+04  0.16040997011E+04  0.25500000000E-02 0.  1.
    5000001    1    1    2    0    0  0.14383782944E+03 -0.21072583144E+03 -0.35903584802E+03  0.45839986625E+03  0.12700000000E+03 0.  0.
   -5000001    1    1    2    0    0 -0.14383782944E+03  0.21072583144E+03 -0.11783948666E+04  0.12123688213E+04  0.12700000000E+03 0.  0.
<mgrwt>
<rscale>  0 0.65404496E+03</rscale>
<asrwt>0</asrwt>
<pdfrwt beam="1">  1        2 0.22915707E+00 0.65404496E+03</pdfrwt>
<pdfrwt beam="2">  1       -2 0.95241420E-02 0.65404496E+03</pdfrwt>
<totfact> 0.97153900E+02</totfact>
</mgrwt>
</event>
<event>
 4    1  0.2621617E-004  0.4605117E+03  0.7818608E-02  0.1024633E+00
         -2   -1    0    0    0  501 -0.00000000000E+00  0.00000000000E+00  0.16066826026E+02  0.16066826229E+02  0.25500000000E-02 0. -1.
          2   -1    0    0  501    0  0.00000000000E+00 -0.00000000000E+00 -0.32998272595E+04  0.32998272595E+04  0.25500000000E-02 0.  1.
    5000001    1    1    2    0    0  0.18690284185E+03  0.44083922001E+02 -0.16162336909E+04  0.16325490523E+04  0.12700000000E+03 0.  0.
   -5000001    1    1    2    0    0 -0.18690284185E+03 -0.44083922001E+02 -0.16675267426E+04  0.16833450335E+04  0.12700000000E+03 0.  0.
<mgrwt>
<rscale>  0 0.46051168E+03</rscale>
<asrwt>0</asrwt>
<pdfrwt beam="1">  1        2 0.47140346E+00 0.46051168E+03</pdfrwt>
<pdfrwt beam="2">  1       -2 0.22952630E-02 0.46051168E+03</pdfrwt>
<totfact> 0.11724249E+03</totfact>
</mgrwt>
</event>
<event>
 4    1  0.2621617E-004  0.5940789E+03  0.7818608E-02  0.9917767E-01
         -2   -1    0    0    0  501 -0.00000000000E+00  0.00000000000E+00  0.56366237331E+02  0.56366237389E+02  0.25500000000E-02 0.  1.
          2   -1    0    0  501    0  0.00000000000E+00 -0.00000000000E+00 -0.15653419503E+04  0.15653419503E+04  0.25500000000E-02 0. -1.
    5000001    1    1    2    0    0  0.96852174261E+02 -0.24577021698E+03 -0.62300133120E+03  0.68850780816E+03  0.12700000000E+03 0.  0.
   -5000001    1    1    2    0    0 -0.96852174261E+02  0.24577021698E+03 -0.88597438172E+03  0.93320037948E+03  0.12700000000E+03 0.  0.
<mgrwt>
<rscale>  0 0.59407890E+03</rscale>
<asrwt>0</asrwt>
<pdfrwt beam="1">  1        2 0.22362025E+00 0.59407890E+03</pdfrwt>
<pdfrwt beam="2">  1       -2 0.80523206E-02 0.59407890E+03</pdfrwt>
<totfact> 0.13353162E+03</totfact>
</mgrwt>
</event>
<event>
 4    1  0.2621617E-004  0.3128549E+03  0.7818608E-02  0.1078985E+00
          2   -1    0    0  501    0  0.00000000000E+00  0.00000000000E+00  0.21678381911E+03  0.21678381913E+03  0.25500000000E-02 0.  1.
         -2   -1    0    0    0  501 -0.00000000000E+00 -0.00000000000E+00 -0.11287536665E+03  0.11287536668E+03  0.25500000000E-02 0. -1.
    5000001    1    1    2    0    0  0.65991495861E+02 -0.52449045997E+02  0.14927462815E+02  0.15315877088E+03  0.12700000000E+03 0.  0.
   -5000001    1    1    2    0    0 -0.65991495861E+02  0.52449045997E+02  0.88980989643E+02  0.17650041493E+03  0.12700000000E+03 0.  0.
<mgrwt>
<rscale>  0 0.31285494E+03</rscale>
<asrwt>0</asrwt>
<pdfrwt beam="1">  1        2 0.30969117E-01 0.31285494E+03</pdfrwt>
<pdfrwt beam="2">  1       -2 0.16125052E-01 0.31285494E+03</pdfrwt>
<totfact> 0.51298782E+03</totfact>
</mgrwt>
</event>
<event>
 4    1  0.2621617E-004  0.4034650E+03  0.7818608E-02  0.1042586E+00
          2   -1    0    0  501    0  0.00000000000E+00  0.00000000000E+00  0.31235601263E+04  0.31235601263E+04  0.25500000000E-02 0.  1.
         -2   -1    0    0    0  501 -0.00000000000E+00 -0.00000000000E+00 -0.13028725970E+02  0.13028726219E+02  0.25500000000E-02 0. -1.
    5000001    1    1    2    0    0 -0.12191674145E+03 -0.94639622007E+02  0.17676942886E+04  0.17789582479E+04  0.12700000000E+03 0.  0.
   -5000001    1    1    2    0    0  0.12191674145E+03  0.94639622007E+02  0.13428371117E+04  0.13576306046E+04  0.12700000000E+03 0.  0.
<mgrwt>
<rscale>  0 0.40346504E+03</rscale>
<asrwt>0</asrwt>
<pdfrwt beam="1">  1        2 0.44622271E+00 0.40346504E+03</pdfrwt>
<pdfrwt beam="2">  1       -2 0.18612473E-02 0.40346504E+03</pdfrwt>
<totfact> 0.20208006E+03</totfact>
</mgrwt>
</event>
<event>
 4    1  0.2621617E-004  0.5021044E+03  0.7818608E-02  0.1013231E+00
          2   -1    0    0  501    0  0.00000000000E+00  0.00000000000E+00  0.99075142299E+03  0.99075142300E+03  0.25500000000E-02 0.  1.
         -2   -1    0    0    0  501 -0.00000000000E+00 -0.00000000000E+00 -0.63615569814E+02  0.63615569866E+02  0.25500000000E-02 0. -1.
    5000001    1    1    2    0    0 -0.18589895306E+03  0.11032606654E+03  0.49078201235E+03  0.55111364105E+03  0.12700000000E+03 0.  0.
   -5000001    1    1    2    0    0  0.18589895306E+03 -0.11032606654E+03  0.43635384083E+03  0.50325335181E+03  0.12700000000E+03 0.  0.
<mgrwt>
<rscale>  0 0.50210444E+03</rscale>
<asrwt>0</asrwt>
<pdfrwt beam="1">  1        2 0.14153593E+00 0.50210444E+03</pdfrwt>
<pdfrwt beam="2">  1       -2 0.90879380E-02 0.50210444E+03</pdfrwt>
<totfact> 0.22853804E+03</totfact>
</mgrwt>
</event>
<event>
 4    1  0.2621617E-004  0.3490855E+03  0.7818608E-02  0.1062991E+00
         -2   -1    0    0    0  501 -0.00000000000E+00  0.00000000000E+00  0.26880483558E+02  0.26880483679E+02  0.25500000000E-02 0. -1.
          2   -1    0    0  501    0  0.00000000000E+00 -0.00000000000E+00 -0.11333563062E+04  0.11333563062E+04  0.25500000000E-02 0.  1.
    5000001    1    1    2    0    0 -0.50645947524E+02  0.59508866435E+02 -0.85475420341E+03  0.86766356696E+03  0.12700000000E+03 0.  0.
   -5000001    1    1    2    0    0  0.50645947524E+02 -0.59508866435E+02 -0.25172161928E+03  0.29257322297E+03  0.12700000000E+03 0.  0.
<mgrwt>
<rscale>  0 0.34908547E+03</rscale>
<asrwt>0</asrwt>
<pdfrwt beam="1">  1        2 0.16190801E+00 0.34908547E+03</pdfrwt>
<pdfrwt beam="2">  1       -2 0.38400698E-02 0.34908547E+03</pdfrwt>
<totfact> 0.71661744E+03</totfact>
</mgrwt>
</event>
<event>
 4    1  0.2621617E-004  0.3314079E+03  0.7818608E-02  0.1070516E+00
          2   -1    0    0  501    0  0.00000000000E+00  0.00000000000E+00  0.85169446916E+03  0.85169446917E+03  0.25500000000E-02 0.  1.
         -2   -1    0    0    0  501 -0.00000000000E+00 -0.00000000000E+00 -0.32239018211E+02  0.32239018312E+02  0.25500000000E-02 0. -1.
    5000001    1    1    2    0    0  0.15857732328E+02 -0.10403068955E+03  0.36714072553E+03  0.40248622882E+03  0.12700000000E+03 0.  0.
   -5000001    1    1    2    0    0 -0.15857732328E+02  0.10403068955E+03  0.45231472542E+03  0.48144725866E+03  0.12700000000E+03 0.  0.
<mgrwt>
<rscale>  0 0.33140787E+03</rscale>
<asrwt>0</asrwt>
<pdfrwt beam="1">  1        2 0.12167063E+00 0.33140787E+03</pdfrwt>
<pdfrwt beam="2">  1       -2 0.46055744E-02 0.33140787E+03</pdfrwt>
<totfact> 0.80216857E+03</totfact>
</mgrwt>
</event>
<event>
 4    1  0.2621617E-004  0.4460843E+03  0.7818608E-02  0.1028896E+00
         -2   -1    0    0    0  501 -0.00000000000E+00  0.00000000000E+00  0.14318871827E+03  0.14318871829E+03  0.25500000000E-02 0. -1.
          2   -1    0    0  501    0  0.00000000000E+00 -0.00000000000E+00 -0.34742824548E+03  0.34742824549E+03  0.25500000000E-02 0.  1.
    5000001    1    1    2    0    0  0.17501749204E+03  0.34990271686E+01 -0.42126683267E+02  0.22033389016E+03  0.12700000000E+03 0.  0.
   -5000001    1    1    2    0    0 -0.17501749204E+03 -0.34990271686E+01 -0.16211284394E+03  0.27028307362E+03  0.12700000000E+03 0.  0.
<mgrwt>
<rscale>  0 0.44608432E+03</rscale>
<asrwt>0</asrwt>
<pdfrwt beam="1">  1        2 0.49632606E-01 0.44608432E+03</pdfrwt>
<pdfrwt beam="2">  1       -2 0.20455531E-01 0.44608432E+03</pdfrwt>
<totfact> 0.20586649E+03</totfact>
</mgrwt>
</event>
<event>
 4    1  0.2621617E-004  0.3199991E+03  0.7818608E-02  0.1075650E+00
         -2   -1    0    0    0  501 -0.00000000000E+00  0.00000000000E+00  0.74866042281E+01  0.74866046624E+01  0.25500000000E-02 0. -1.
          2   -1    0    0  501    0  0.00000000000E+00 -0.00000000000E+00 -0.34194218910E+04  0.34194218910E+04  0.25500000000E-02 0.  1.
    5000001    1    1    2    0    0 -0.37942571068E+02  0.80463797751E+02 -0.21285095750E+04  0.21341499648E+04  0.12700000000E+03 0.  0.
   -5000001    1    1    2    0    0  0.37942571068E+02 -0.80463797751E+02 -0.12834257118E+04  0.12927585309E+04  0.12700000000E+03 0.  0.
<mgrwt>
<rscale>  0 0.31999912E+03</rscale>
<asrwt>0</asrwt>
<pdfrwt beam="1">  1        2 0.48848784E+00 0.31999912E+03</pdfrwt>
<pdfrwt beam="2">  1       -2 0.10695171E-02 0.31999912E+03</pdfrwt>
<totfact> 0.31447022E+03</totfact>
</mgrwt>
</event>
<event>
 4    1  0.2621617E-004  0.3631874E+03  0.7818608E-02  0.1057329E+00
         -2   -1    0    0    0  501 -0.00000000000E+00  0.00000000000E+00  0.29913381041E+02  0.29913381149E+02  0.25500000000E-02 0. -1.
          2   -1    0    0  501    0  0.00000000000E+00 -0.00000000000E+00 -0.11023922774E+04  0.11023922774E+04  0.25500000000E-02 0.  1.
    5000001    1    1    2    0    0  0.96448687477E+02 -0.86339671957E+02 -0.56588079648E+03  0.59422804048E+03  0.12700000000E+03 0.  0.
   -5000001    1    1    2    0    0 -0.96448687477E+02  0.86339671957E+02 -0.50659809992E+03  0.53807761811E+03  0.12700000000E+03 0.  0.
<mgrwt>
<rscale>  0 0.36318745E+03</rscale>
<asrwt>0</asrwt>
<pdfrwt beam="1">  1        2 0.15748459E+00 0.36318745E+03</pdfrwt>
<pdfrwt beam="2">  1       -2 0.42733409E-02 0.36318745E+03</pdfrwt>
<totfact> 0.63491280E+03</totfact>
</mgrwt>
</event>
<event>
 4    1  0.2621617E-004  0.4034358E+03  0.7818608E-02  0.1042596E+00
         -2   -1    0    0    0  501 -0.00000000000E+00  0.00000000000E+00  0.35215740684E+02  0.35215740776E+02  0.25500000000E-02 0. -1.
          2   -1    0    0  501    0  0.00000000000E+00 -0.00000000000E+00 -0.11554525983E+04  0.11554525983E+04  0.25500000000E-02 0.  1.
    5000001    1    1    2    0    0 -0.12925966112E+03  0.64082178419E+02 -0.37947126729E+03  0.42537281094E+03  0.12700000000E+03 0.  0.
   -5000001    1    1    2    0    0  0.12925966112E+03 -0.64082178419E+02 -0.74076559030E+03  0.76529552812E+03  0.12700000000E+03 0.  0.
<mgrwt>
<rscale>  0 0.40343584E+03</rscale>
<asrwt>0</asrwt>
<pdfrwt beam="1">  1        2 0.16506463E+00 0.40343584E+03</pdfrwt>
<pdfrwt beam="2">  1       -2 0.50308209E-02 0.40343584E+03</pdfrwt>
<totfact> 0.46241523E+03</totfact>
</mgrwt>
</event>
<event>
 4    1  0.2621617E-004  0.4665250E+03  0.7818608E-02  0.1022906E+00
         -2   -1    0    0    0  501 -0.00000000000E+00  0.00000000000E+00  0.28686073491E+03  0.28686073492E+03  0.25500000000E-02 0. -1.
          2   -1    0    0  501    0  0.00000000000E+00 -0.00000000000E+00 -0.18967874229E+03  0.18967874231E+03  0.25500000000E-02 0.  1.
    5000001    1    1    2    0    0  0.95061633687E+02  0.11604864071E+03  0.17689944092E+03  0.26443602895E+03  0.12700000000E+03 0.  0.
   -5000001    1    1    2    0    0 -0.95061633687E+02 -0.11604864071E+03 -0.79717448302E+02  0.21210344828E+03  0.12700000000E+03 0.  0.
<mgrwt>
<rscale>  0 0.46652496E+03</rscale>
<asrwt>0</asrwt>
<pdfrwt beam="1">  1        2 0.27096963E-01 0.46652496E+03</pdfrwt>
<pdfrwt beam="2">  1       -2 0.40980105E-01 0.46652496E+03</pdfrwt>
<totfact> 0.11263915E+03</totfact>
</mgrwt>
</event>
<event>
 4    1  0.2621617E-004  0.3306710E+03  0.7818608E-02  0.1070840E+00
         -2   -1    0    0    0  501 -0.00000000000E+00  0.00000000000E+00  0.12266806447E+03  0.12266806450E+03  0.25500000000E-02 0. -1.
          2   -1    0    0  501    0  0.00000000000E+00 -0.00000000000E+00 -0.22284384415E+03  0.22284384416E+03  0.25500000000E-02 0.  1.
    5000001    1    1    2    0    0  0.80146300398E+02  0.54503756372E+02 -0.94574980261E+02  0.18565429114E+03  0.12700000000E+03 0.  0.
   -5000001    1    1    2    0    0 -0.80146300398E+02 -0.54503756372E+02 -0.56007994129E+01  0.15985761752E+03  0.12700000000E+03 0.  0.
<mgrwt>
<rscale>  0 0.33067097E+03</rscale>
<asrwt>0</asrwt>
<pdfrwt beam="1">  1        2 0.31834835E-01 0.33067097E+03</pdfrwt>
<pdfrwt beam="2">  1       -2 0.17524009E-01 0.33067097E+03</pdfrwt>
<totfact> 0.43348039E+03</totfact>
</mgrwt>
</event>
<event>
 4    1  0.2621617E-004  0.3189888E+03  0.7818608E-02  0.1076116E+00
          2   -1    0    0  501    0  0.00000000000E+00  0.00000000000E+00  0.74419697094E+03  0.74419697095E+03  0.25500000000E-02 0.  1.
         -2   -1    0    0    0  501 -0.00000000000E+00 -0.00000000000E+00 -0.34182438452E+02  0.34182438547E+02  0.25500000000E-02 0. -1.
    5000001    1    1    2    0    0  0.79827062422E+02  0.46298149587E+02  0.28626662232E+03  0.32648653511E+03  0.12700000000E+03 0.  0.
   -5000001    1    1    2    0    0 -0.79827062422E+02 -0.46298149587E+02  0.42374791017E+03  0.45189287439E+03  0.12700000000E+03 0.  0.
<mgrwt>
<rscale>  0 0.31898882E+03</rscale>
<asrwt>0</asrwt>
<pdfrwt beam="1">  1        2 0.10631385E+00 0.31898882E+03</pdfrwt>
<pdfrwt beam="2">  1       -2 0.48832055E-02 0.31898882E+03</pdfrwt>
<totfact> 0.86706377E+03</totfact>
</mgrwt>
</event>
<event>
 4    1  0.2621617E-004  0.3494067E+03  0.7818608E-02  0.1062859E+00
         -2   -1    0    0    0  501 -0.00000000000E+00  0.00000000000E+00  0.33666982669E+03  0.33666982670E+03  0.25500000000E-02 0. -1.
          2   -1    0    0  501    0  0.00000000000E+00 -0.00000000000E+00 -0.90656349714E+02  0.90656349749E+02  0.25500000000E-02 0.  1.
    5000001    1    1    2    0    0  0.86465982796E+02 -0.75882626735E+02  0.16461980736E+03  0.23761990698E+03  0.12700000000E+03 0.  0.
   -5000001    1    1    2    0    0 -0.86465982796E+02  0.75882626735E+02  0.81393669624E+02  0.18970626947E+03  0.12700000000E+03 0.  0.
<mgrwt>
<rscale>  0 0.34940668E+03</rscale>
<asrwt>0</asrwt>
<pdfrwt beam="1">  1        2 0.12950907E-01 0.34940668E+03</pdfrwt>
<pdfrwt beam="2">  1       -2 0.48095689E-01 0.34940668E+03</pdfrwt>
<totfact> 0.19427296E+03</totfact>
</mgrwt>
</event>
<event>
 4    1  0.2621617E-004  0.2952414E+03  0.7818608E-02  0.1087644E+00
          2   -1    0    0  501    0  0.00000000000E+00  0.00000000000E+00  0.72046364717E+03  0.72046364718E+03  0.25500000000E-02 0.  1.
         -2   -1    0    0    0  501 -0.00000000000E+00 -0.00000000000E+00 -0.30247015575E+02  0.30247015683E+02  0.25500000000E-02 0. -1.
    5000001    1    1    2    0    0  0.55063405374E+02  0.47335367622E+02  0.29487728821E+03  0.32917203822E+03  0.12700000000E+03 0.  0.
   -5000001    1    1    2    0    0 -0.55063405374E+02 -0.47335367622E+02  0.39533934338E+03  0.42153862464E+03  0.12700000000E+03 0.  0.
<mgrwt>
<rscale>  0 0.29524143E+03</rscale>
<asrwt>0</asrwt>
<pdfrwt beam="1">  1        2 0.10292339E+00 0.29524143E+03</pdfrwt>
<pdfrwt beam="2">  1       -2 0.43210019E-02 0.29524143E+03</pdfrwt>
<totfact> 0.10828961E+04</totfact>
</mgrwt>
</event>
<event>
 4    1  0.2621617E-004  0.1233673E+04  0.7818608E-02  0.9083883E-01
          2   -1    0    0  501    0  0.00000000000E+00  0.00000000000E+00  0.15956358169E+04  0.15956358169E+04  0.25500000000E-02 0.  1.
         -2   -1    0    0    0  501 -0.00000000000E+00 -0.00000000000E+00 -0.23845478173E+03  0.23845478174E+03  0.25500000000E-02 0. -1.
    5000001    1    1    2    0    0  0.60282330253E+03 -0.21647857654E+02  0.64556632733E+03  0.89260822694E+03  0.12700000000E+03 0.  0.
   -5000001    1    1    2    0    0 -0.60282330253E+03  0.21647857654E+02  0.71161470784E+03  0.94148237171E+03  0.12700000000E+03 0.  0.
<mgrwt>
<rscale>  0 0.12336726E+04</rscale>
<asrwt>0</asrwt>
<pdfrwt beam="1">  1        2 0.22794798E+00 0.12336726E+04</pdfrwt>
<pdfrwt beam="2">  1       -2 0.34064968E-01 0.12336726E+04</pdfrwt>
<totfact> 0.10327098E+02</totfact>
</mgrwt>
</event>
<event>
 4    1  0.2621617E-004  0.3315426E+03  0.7818608E-02  0.1070456E+00
         -2   -1    0    0    0  501 -0.00000000000E+00  0.00000000000E+00  0.73100898107E+02  0.73100898152E+02  0.25500000000E-02 0. -1.
          2   -1    0    0  501    0  0.00000000000E+00 -0.00000000000E+00 -0.37592050649E+03  0.37592050650E+03  0.25500000000E-02 0.  1.
    5000001    1    1    2    0    0 -0.12344594149E+01 -0.10577487597E+03 -0.16860930154E+03  0.23611002699E+03  0.12700000000E+03 0.  0.
   -5000001    1    1    2    0    0  0.12344594149E+01  0.10577487597E+03 -0.13421030685E+03  0.21291137767E+03  0.12700000000E+03 0.  0.
<mgrwt>
<rscale>  0 0.33154262E+03</rscale>
<asrwt>0</asrwt>
<pdfrwt beam="1">  1        2 0.53702928E-01 0.33154262E+03</pdfrwt>
<pdfrwt beam="2">  1       -2 0.10442986E-01 0.33154262E+03</pdfrwt>
<totfact> 0.57479944E+03</totfact>
</mgrwt>
</event>
<event>
 4    1  0.2621617E-004  0.2934236E+03  0.7818608E-02  0.1088575E+00
          2   -1    0    0  501    0  0.00000000000E+00  0.00000000000E+00  0.44679839937E+03  0.44679839938E+03  0.25500000000E-02 0.  1.
         -2   -1    0    0    0  501 -0.00000000000E+00 -0.00000000000E+00 -0.48174641703E+02  0.48174641770E+02  0.25500000000E-02 0. -1.
    5000001    1    1    2    0    0 -0.53180404037E+02  0.10293889213E+02  0.11562393659E+03  0.18008890649E+03  0.12700000000E+03 0.  0.
   -5000001    1    1    2    0    0  0.53180404037E+02 -0.10293889213E+02  0.28299982108E+03  0.31488413466E+03  0.12700000000E+03 0.  0.
<mgrwt>
<rscale>  0 0.29342360E+03</rscale>
<asrwt>0</asrwt>
<pdfrwt beam="1">  1        2 0.63828343E-01 0.29342360E+03</pdfrwt>
<pdfrwt beam="2">  1       -2 0.68820916E-02 0.29342360E+03</pdfrwt>
<totfact> 0.91460500E+03</totfact>
</mgrwt>
</event>
<event>
 4    1  0.2621617E-004  0.4640539E+03  0.7818608E-02  0.1023612E+00
          2   -1    0    0  501    0  0.00000000000E+00  0.00000000000E+00  0.64997830105E+03  0.64997830106E+03  0.25500000000E-02 0.  1.
         -2   -1    0    0    0  501 -0.00000000000E+00 -0.00000000000E+00 -0.82828154661E+02  0.82828154700E+02  0.25500000000E-02 0. -1.
    5000001    1    1    2    0    0 -0.14997443568E+03  0.11008867790E+03  0.37143627491E+03  0.43440275630E+03  0.12700000000E+03 0.  0.
   -5000001    1    1    2    0    0  0.14997443568E+03 -0.11008867790E+03  0.19571387148E+03  0.29840369945E+03  0.12700000000E+03 0.  0.
<mgrwt>
<rscale>  0 0.46405389E+03</rscale>
<asrwt>0</asrwt>
<pdfrwt beam="1">  1        2 0.92854041E-01 0.46405389E+03</pdfrwt>
<pdfrwt beam="2">  1       -2 0.11832594E-01 0.46405389E+03</pdfrwt>
<totfact> 0.25518404E+03</totfact>
</mgrwt>
</event>
<event>
 4    1  0.2621617E-004  0.4052815E+03  0.7818608E-02  0.1041966E+00
          2   -1    0    0  501    0  0.00000000000E+00  0.00000000000E+00  0.80810736070E+03  0.80810736070E+03  0.25500000000E-02 0.  1.
         -2   -1    0    0    0  501 -0.00000000000E+00 -0.00000000000E+00 -0.50814136611E+02  0.50814136675E+02  0.25500000000E-02 0. -1.
    5000001    1    1    2    0    0 -0.59615393537E+02  0.14454206079E+03  0.42545795665E+03  0.47073333785E+03  0.12700000000E+03 0.  0.
   -5000001    1    1    2    0    0  0.59615393537E+02 -0.14454206079E+03  0.33183526743E+03  0.38818815953E+03  0.12700000000E+03 0.  0.
<mgrwt>
<rscale>  0 0.40528152E+03</rscale>
<asrwt>0</asrwt>
<pdfrwt beam="1">  1        2 0.11544389E+00 0.40528152E+03</pdfrwt>
<pdfrwt beam="2">  1       -2 0.72591633E-02 0.40528152E+03</pdfrwt>
<totfact> 0.42654545E+03</totfact>
</mgrwt>
</event>
<event>
 4    1  0.2621617E-004  0.7009540E+03  0.7818608E-02  0.9715602E-01
          2   -1    0    0  501    0  0.00000000000E+00  0.00000000000E+00  0.74285649736E+03  0.74285649736E+03  0.25500000000E-02 0.  1.
         -2   -1    0    0    0  501 -0.00000000000E+00 -0.00000000000E+00 -0.16535375560E+03  0.16535375562E+03  0.25500000000E-02 0. -1.
    5000001    1    1    2    0    0 -0.28102944166E+03 -0.86694927385E+01  0.50420973634E+03  0.59110842102E+03  0.12700000000E+03 0.  0.
   -5000001    1    1    2    0    0  0.28102944166E+03  0.86694927385E+01  0.73293005428E+02  0.31710183196E+03  0.12700000000E+03 0.  0.
<mgrwt>
<rscale>  0 0.70095395E+03</rscale>
<asrwt>0</asrwt>
<pdfrwt beam="1">  1        2 0.10612236E+00 0.70095395E+03</pdfrwt>
<pdfrwt beam="2">  1       -2 0.23621964E-01 0.70095395E+03</pdfrwt>
<totfact> 0.66574120E+02</totfact>
</mgrwt>
</event>
<event>
 4    1  0.2621617E-004  0.3689237E+03  0.7818608E-02  0.1055105E+00
          2   -1    0    0  501    0  0.00000000000E+00  0.00000000000E+00  0.79099588730E+03  0.79099588731E+03  0.25500000000E-02 0.  1.
         -2   -1    0    0    0  501 -0.00000000000E+00 -0.00000000000E+00 -0.43016889197E+02  0.43016889273E+02  0.25500000000E-02 0. -1.
    5000001    1    1    2    0    0 -0.57983071335E+02 -0.44656242759E+02  0.62715328877E+03  0.64405470590E+03  0.12700000000E+03 0.  0.
   -5000001    1    1    2    0    0  0.57983071335E+02  0.44656242759E+02  0.12082570933E+03  0.18995807067E+03  0.12700000000E+03 0.  0.
<mgrwt>
<rscale>  0 0.36892375E+03</rscale>
<asrwt>0</asrwt>
<pdfrwt beam="1">  1        2 0.11299940E+00 0.36892375E+03</pdfrwt>
<pdfrwt beam="2">  1       -2 0.61452704E-02 0.36892375E+03</pdfrwt>
<totfact> 0.56711310E+03</totfact>
</mgrwt>
</event>
<event>
 4    1  0.2621617E-004  0.3104063E+03  0.7818608E-02  0.1080151E+00
          2   -1    0    0  501    0  0.00000000000E+00  0.00000000000E+00  0.19803794469E+04  0.19803794469E+04  0.25500000000E-02 0.  1.
         -2   -1    0    0    0  501 -0.00000000000E+00 -0.00000000000E+00 -0.12163338137E+02  0.12163338404E+02  0.25500000000E-02 0. -1.
    5000001    1    1    2    0    0  0.50999803552E+02 -0.36642367401E+02  0.13908701723E+04  0.13980674087E+04  0.12700000000E+03 0.  0.
   -5000001    1    1    2    0    0 -0.50999803552E+02  0.36642367401E+02  0.57734593651E+03  0.59447537666E+03  0.12700000000E+03 0.  0.
<mgrwt>
<rscale>  0 0.31040635E+03</rscale>
<asrwt>0</asrwt>
<pdfrwt beam="1">  1        2 0.28291137E+00 0.31040635E+03</pdfrwt>
<pdfrwt beam="2">  1       -2 0.17376196E-02 0.31040635E+03</pdfrwt>
<totfact> 0.86014277E+03</totfact>
</mgrwt>
</event>
<event>
 4    1  0.2621617E-004  0.3085492E+03  0.7818608E-02  0.1081043E+00
         -2   -1    0    0    0  501 -0.00000000000E+00  0.00000000000E+00  0.26021402263E+02  0.26021402388E+02  0.25500000000E-02 0. -1.
          2   -1    0    0  501    0  0.00000000000E+00 -0.00000000000E+00 -0.91465675212E+03  0.91465675213E+03  0.25500000000E-02 0.  1.
    5000001    1    1    2    0    0  0.54042807828E+02 -0.68776616068E+02 -0.45822306646E+03  0.48347515616E+03  0.12700000000E+03 0.  0.
   -5000001    1    1    2    0    0 -0.54042807828E+02  0.68776616068E+02 -0.43041228340E+03  0.45720299835E+03  0.12700000000E+03 0.  0.
<mgrwt>
<rscale>  0 0.30854919E+03</rscale>
<asrwt>0</asrwt>
<pdfrwt beam="1">  1        2 0.13066523E+00 0.30854919E+03</pdfrwt>
<pdfrwt beam="2">  1       -2 0.37173438E-02 0.30854919E+03</pdfrwt>
<totfact> 0.10093936E+04</totfact>
</mgrwt>
</event>
<event>
 4    1  0.2621617E-004  0.4312490E+03  0.7818608E-02  0.1033466E+00
         -2   -1    0    0    0  501 -0.00000000000E+00  0.00000000000E+00  0.28388015071E+02  0.28388015186E+02  0.25500000000E-02 0. -1.
          2   -1    0    0  501    0  0.00000000000E+00 -0.00000000000E+00 -0.16378012905E+04  0.16378012905E+04  0.25500000000E-02 0.  1.
    5000001    1    1    2    0    0  0.65589954030E+02  0.16099667127E+03 -0.85090215446E+03  0.87771603990E+03  0.12700000000E+03 0.  0.
   -5000001    1    1    2    0    0 -0.65589954030E+02 -0.16099667127E+03 -0.75851112096E+03  0.78847326579E+03  0.12700000000E+03 0.  0.
<mgrwt>
<rscale>  0 0.43124901E+03</rscale>
<asrwt>0</asrwt>
<pdfrwt beam="1">  1        2 0.23397155E+00 0.43124901E+03</pdfrwt>
<pdfrwt beam="2">  1       -2 0.40554318E-02 0.43124901E+03</pdfrwt>
<totfact> 0.35826143E+03</totfact>
</mgrwt>
</event>
<event>
 4    1  0.2621617E-004  0.7511226E+03  0.7818608E-02  0.9633591E-01
         -2   -1    0    0    0  501 -0.00000000000E+00  0.00000000000E+00  0.11861277220E+03  0.11861277222E+03  0.25500000000E-02 0. -1.
          2   -1    0    0  501    0  0.00000000000E+00 -0.00000000000E+00 -0.11891324708E+04  0.11891324708E+04  0.25500000000E-02 0.  1.
    5000001    1    1    2    0    0 -0.32117712856E+03 -0.26450103680E+02 -0.28257928845E+03  0.44702842209E+03  0.12700000000E+03 0.  0.
   -5000001    1    1    2    0    0  0.32117712856E+03  0.26450103680E+02 -0.78794041018E+03  0.86071682096E+03  0.12700000000E+03 0.  0.
<mgrwt>
<rscale>  0 0.75112262E+03</rscale>
<asrwt>0</asrwt>
<pdfrwt beam="1">  1        2 0.16987606E+00 0.75112262E+03</pdfrwt>
<pdfrwt beam="2">  1       -2 0.16944682E-01 0.75112262E+03</pdfrwt>
<totfact> 0.62008213E+02</totfact>
</mgrwt>
</event>
<event>
 4    1  0.2621617E-004  0.5829977E+03  0.7818608E-02  0.9941322E-01
         -2   -1    0    0    0  501 -0.00000000000E+00  0.00000000000E+00  0.58364567582E+03  0.58364567582E+03  0.25500000000E-02 0. -1.
          2   -1    0    0  501    0  0.00000000000E+00 -0.00000000000E+00 -0.14558762966E+03  0.14558762969E+03  0.25500000000E-02 0.  1.
    5000001    1    1    2    0    0 -0.13484981892E+03 -0.22011323734E+03  0.27780862711E+03  0.39992617345E+03  0.12700000000E+03 0.  0.
   -5000001    1    1    2    0    0  0.13484981892E+03  0.22011323734E+03  0.16024941904E+03  0.32930713205E+03  0.12700000000E+03 0.  0.
<mgrwt>
<rscale>  0 0.58299774E+03</rscale>
<asrwt>0</asrwt>
<pdfrwt beam="1">  1        2 0.20798233E-01 0.58299774E+03</pdfrwt>
<pdfrwt beam="2">  1       -2 0.83377952E-01 0.58299774E+03</pdfrwt>
<totfact> 0.34519198E+02</totfact>
</mgrwt>
</event>
<event>
 4    1  0.2621617E-004  0.5176606E+03  0.7818608E-02  0.1009269E+00
         -2   -1    0    0    0  501 -0.00000000000E+00  0.00000000000E+00  0.66167722250E+02  0.66167722299E+02  0.25500000000E-02 0. -1.
          2   -1    0    0  501    0  0.00000000000E+00 -0.00000000000E+00 -0.10124742304E+04  0.10124742304E+04  0.25500000000E-02 0.  1.
    5000001    1    1    2    0    0 -0.11832694404E+03  0.18669415722E+03 -0.37977856095E+03  0.45740215280E+03  0.12700000000E+03 0.  0.
   -5000001    1    1    2    0    0  0.11832694404E+03 -0.18669415722E+03 -0.56652794721E+03  0.62123979991E+03  0.12700000000E+03 0.  0.
<mgrwt>
<rscale>  0 0.51766056E+03</rscale>
<asrwt>0</asrwt>
<pdfrwt beam="1">  1        2 0.14463917E+00 0.51766056E+03</pdfrwt>
<pdfrwt beam="2">  1       -2 0.94525324E-02 0.51766056E+03</pdfrwt>
<totfact> 0.20813859E+03</totfact>
</mgrwt>
</event>
<event>
 4    1  0.2621617E-004  0.4417287E+03  0.7818608E-02  0.1030218E+00
         -2   -1    0    0    0  501 -0.00000000000E+00  0.00000000000E+00  0.10766668258E+03  0.10766668262E+03  0.25500000000E-02 0. -1.
          2   -1    0    0  501    0  0.00000000000E+00 -0.00000000000E+00 -0.45307480229E+03  0.45307480230E+03  0.25500000000E-02 0.  1.
    5000001    1    1    2    0    0 -0.16284237385E+02  0.17237525281E+03 -0.23834274875E+03  0.32080316403E+03  0.12700000000E+03 0.  0.
   -5000001    1    1    2    0    0  0.16284237385E+02 -0.17237525281E+03 -0.10706537096E+03  0.23993832088E+03  0.12700000000E+03 0.  0.
<mgrwt>
<rscale>  0 0.44172870E+03</rscale>
<asrwt>0</asrwt>
<pdfrwt beam="1">  1        2 0.64724971E-01 0.44172870E+03</pdfrwt>
<pdfrwt beam="2">  1       -2 0.15380955E-01 0.44172870E+03</pdfrwt>
<totfact> 0.24980231E+03</totfact>
</mgrwt>
</event>
<event>
 4    1  0.2621617E-004  0.5699090E+03  0.7818608E-02  0.9969880E-01
          2   -1    0    0  501    0  0.00000000000E+00  0.00000000000E+00  0.26901638362E+04  0.26901638362E+04  0.25500000000E-02 0.  1.
         -2   -1    0    0    0  501 -0.00000000000E+00 -0.00000000000E+00 -0.30183685216E+02  0.30183685324E+02  0.25500000000E-02 0. -1.
    5000001    1    1    2    0    0  0.24217925212E+03 -0.74332676577E+02  0.11872754078E+04  0.12206260815E+04  0.12700000000E+03 0.  0.
   -5000001    1    1    2    0    0 -0.24217925212E+03  0.74332676577E+02  0.14727047432E+04  0.14997214400E+04  0.12700000000E+03 0.  0.
<mgrwt>
<rscale>  0 0.56990897E+03</rscale>
<asrwt>0</asrwt>
<pdfrwt beam="1">  1        2 0.38430886E+00 0.56990897E+03</pdfrwt>
<pdfrwt beam="2">  1       -2 0.43119579E-02 0.56990897E+03</pdfrwt>
<totfact> 0.95408583E+02</totfact>
</mgrwt>
</event>
<event>
 4    1  0.2621617E-004  0.4564582E+03  0.7818608E-02  0.1025813E+00
         -2   -1    0    0    0  501 -0.00000000000E+00  0.00000000000E+00  0.14976813480E+03  0.14976813482E+03  0.25500000000E-02 0. -1.
          2   -1    0    0  501    0  0.00000000000E+00 -0.00000000000E+00 -0.34779447572E+03  0.34779447573E+03  0.25500000000E-02 0.  1.
    5000001    1    1    2    0    0  0.18859923248E+03 -0.15350895249E+02 -0.85476801389E+02  0.24339392773E+03  0.12700000000E+03 0.  0.
   -5000001    1    1    2    0    0 -0.18859923248E+03  0.15350895249E+02 -0.11254953954E+03  0.25416868282E+03  0.12700000000E+03 0.  0.
<mgrwt>
<rscale>  0 0.45645823E+03</rscale>
<asrwt>0</asrwt>
<pdfrwt beam="1">  1        2 0.49684925E-01 0.45645823E+03</pdfrwt>
<pdfrwt beam="2">  1       -2 0.21395448E-01 0.45645823E+03</pdfrwt>
<totfact> 0.19020059E+03</totfact>
</mgrwt>
</event>
<event>
 4    1  0.2621617E-004  0.5002665E+03  0.7818608E-02  0.1013709E+00
         -2   -1    0    0    0  501 -0.00000000000E+00  0.00000000000E+00  0.28062076478E+03  0.28062076479E+03  0.25500000000E-02 0. -1.
          2   -1    0    0  501    0  0.00000000000E+00 -0.00000000000E+00 -0.22295801895E+03  0.22295801897E+03  0.25500000000E-02 0.  1.
    5000001    1    1    2    0    0  0.21320974519E+03 -0.18019663302E+02  0.54584863149E+02  0.25473831866E+03  0.12700000000E+03 0.  0.
   -5000001    1    1    2    0    0 -0.21320974519E+03  0.18019663302E+02  0.30778826729E+01  0.24884046510E+03  0.12700000000E+03 0.  0.
<mgrwt>
<rscale>  0 0.50026653E+03</rscale>
<asrwt>0</asrwt>
<pdfrwt beam="1">  1        2 0.31851146E-01 0.50026653E+03</pdfrwt>
<pdfrwt beam="2">  1       -2 0.40088681E-01 0.50026653E+03</pdfrwt>
<totfact> 0.98108946E+02</totfact>
</mgrwt>
</event>
<event>
 4    1  0.2621617E-004  0.3091725E+03  0.7818608E-02  0.1080743E+00
          2   -1    0    0  501    0  0.00000000000E+00  0.00000000000E+00  0.56414985041E+03  0.56414985042E+03  0.25500000000E-02 0.  1.
         -2   -1    0    0    0  501 -0.00000000000E+00 -0.00000000000E+00 -0.42359152224E+02  0.42359152301E+02  0.25500000000E-02 0. -1.
    5000001    1    1    2    0    0 -0.67806341453E+02  0.34448526219E+02  0.17352714229E+03  0.22809004803E+03  0.12700000000E+03 0.  0.
   -5000001    1    1    2    0    0  0.67806341453E+02 -0.34448526219E+02  0.34826355590E+03  0.37841895469E+03  0.12700000000E+03 0.  0.
<mgrwt>
<rscale>  0 0.30917250E+03</rscale>
<asrwt>0</asrwt>
<pdfrwt beam="1">  1        2 0.80592841E-01 0.30917250E+03</pdfrwt>
<pdfrwt beam="2">  1       -2 0.60513071E-02 0.30917250E+03</pdfrwt>
<totfact> 0.86253600E+03</totfact>
</mgrwt>
</event>
<event>
 4    1  0.2621617E-004  0.7044692E+03  0.7818608E-02  0.9709620E-01
          2   -1    0    0  501    0  0.00000000000E+00  0.00000000000E+00  0.95468677936E+03  0.95468677936E+03  0.25500000000E-02 0.  1.
         -2   -1    0    0    0  501 -0.00000000000E+00 -0.00000000000E+00 -0.12995801330E+03  0.12995801332E+03  0.25500000000E-02 0. -1.
    5000001    1    1    2    0    0 -0.16144017523E+03  0.27866024361E+03  0.51245116274E+03  0.61842514158E+03  0.12700000000E+03 0.  0.
   -5000001    1    1    2    0    0  0.16144017523E+03 -0.27866024361E+03  0.31227760332E+03  0.46621965111E+03  0.12700000000E+03 0.  0.
<mgrwt>
<rscale>  0 0.70446915E+03</rscale>
<asrwt>0</asrwt>
<pdfrwt beam="1">  1        2 0.13638382E+00 0.70446915E+03</pdfrwt>
<pdfrwt beam="2">  1       -2 0.18565431E-01 0.70446915E+03</pdfrwt>
<totfact> 0.73151950E+02</totfact>
</mgrwt>
</event>
<event>
 4    1  0.2621617E-004  0.3150487E+03  0.7818608E-02  0.1077951E+00
          2   -1    0    0  501    0  0.00000000000E+00  0.00000000000E+00  0.48226675585E+02  0.48226675652E+02  0.25500000000E-02 0.  1.
         -2   -1    0    0    0  501 -0.00000000000E+00 -0.00000000000E+00 -0.51452700197E+03  0.51452700198E+03  0.25500000000E-02 0. -1.
    5000001    1    1    2    0    0 -0.81607865029E+02 -0.41365210956E+02 -0.20149772576E+03  0.25514948128E+03  0.12700000000E+03 0.  0.
   -5000001    1    1    2    0    0  0.81607865029E+02  0.41365210956E+02 -0.26480260063E+03  0.30760419635E+03  0.12700000000E+03 0.  0.
<mgrwt>
<rscale>  0 0.31504874E+03</rscale>
<asrwt>0</asrwt>
<pdfrwt beam="1">  1        2 0.68895254E-02 0.31504874E+03</pdfrwt>
<pdfrwt beam="2">  1       -2 0.73503854E-01 0.31504874E+03</pdfrwt>
<totfact> 0.17753037E+03</totfact>
</mgrwt>
</event>
<event>
 4    1  0.2621617E-004  0.4014912E+03  0.7818608E-02  0.1043265E+00
          2   -1    0    0  501    0  0.00000000000E+00  0.00000000000E+00  0.64945305273E+02  0.64945305323E+02  0.25500000000E-02 0.  1.
         -2   -1    0    0    0  501 -0.00000000000E+00 -0.00000000000E+00 -0.62050364786E+03  0.62050364786E+03  0.25500000000E-02 0. -1.
    5000001    1    1    2    0    0  0.64995409187E+02 -0.85817794646E+02 -0.46927155463E+03  0.49792960253E+03  0.12700000000E+03 0.  0.
   -5000001    1    1    2    0    0 -0.64995409187E+02  0.85817794646E+02 -0.86286787953E+02  0.18751935065E+03  0.12700000000E+03 0.  0.
<mgrwt>
<rscale>  0 0.40149121E+03</rscale>
<asrwt>0</asrwt>
<pdfrwt beam="1">  1        2 0.92779011E-02 0.40149121E+03</pdfrwt>
<pdfrwt beam="2">  1       -2 0.88643375E-01 0.40149121E+03</pdfrwt>
<totfact> 0.80283904E+02</totfact>
</mgrwt>
</event>
<event>
 4    1  0.2621617E-004  0.3396885E+03  0.7818608E-02  0.1066929E+00
          2   -1    0    0  501    0  0.00000000000E+00  0.00000000000E+00  0.25899310588E+04  0.25899310588E+04  0.25500000000E-02 0.  1.
         -2   -1    0    0    0  501 -0.00000000000E+00 -0.00000000000E+00 -0.11138162242E+02  0.11138162534E+02  0.25500000000E-02 0. -1.
    5000001    1    1    2    0    0 -0.69490003662E+02 -0.50202189204E+02  0.72832804418E+03  0.74427136204E+03  0.12700000000E+03 0.  0.
   -5000001    1    1    2    0    0  0.69490003662E+02  0.50202189204E+02  0.18504648524E+04  0.18567978593E+04  0.12700000000E+03 0.  0.
<mgrwt>
<rscale>  0 0.33968852E+03</rscale>
<asrwt>0</asrwt>
<pdfrwt beam="1">  1        2 0.36999064E+00 0.33968852E+03</pdfrwt>
<pdfrwt beam="2">  1       -2 0.15911640E-02 0.33968852E+03</pdfrwt>
<totfact> 0.48818256E+03</totfact>
</mgrwt>
</event>
<event>
 4    1  0.2621617E-004  0.3821291E+03  0.7818608E-02  0.1050150E+00
         -2   -1    0    0    0  501 -0.00000000000E+00  0.00000000000E+00  0.26539187704E+03  0.26539187705E+03  0.25500000000E-02 0. -1.
          2   -1    0    0  501    0  0.00000000000E+00 -0.00000000000E+00 -0.13755381460E+03  0.13755381463E+03  0.25500000000E-02 0.  1.
    5000001    1    1    2    0    0  0.49940356067E+02 -0.50101596142E+02 -0.66820829301E+02  0.15999447593E+03  0.12700000000E+03 0.  0.
   -5000001    1    1    2    0    0 -0.49940356067E+02  0.50101596142E+02  0.19465889174E+03  0.24295121575E+03  0.12700000000E+03 0.  0.
<mgrwt>
<rscale>  0 0.38212911E+03</rscale>
<asrwt>0</asrwt>
<pdfrwt beam="1">  1        2 0.19650545E-01 0.38212911E+03</pdfrwt>
<pdfrwt beam="2">  1       -2 0.37913125E-01 0.38212911E+03</pdfrwt>
<totfact> 0.18844770E+03</totfact>
</mgrwt>
</event>
<event>
 4    1  0.2621617E-004  0.3643451E+03  0.7818608E-02  0.1056877E+00
         -2   -1    0    0    0  501 -0.00000000000E+00  0.00000000000E+00  0.30669025580E+02  0.30669025686E+02  0.25500000000E-02 0. -1.
          2   -1    0    0  501    0  0.00000000000E+00 -0.00000000000E+00 -0.10820960940E+04  0.10820960940E+04  0.25500000000E-02 0.  1.
    5000001    1    1    2    0    0 -0.31586541315E+02  0.12437156221E+03 -0.60001406966E+03  0.62658748700E+03  0.12700000000E+03 0.  0.
   -5000001    1    1    2    0    0  0.31586541315E+02 -0.12437156221E+03 -0.45141299880E+03  0.48617763273E+03  0.12700000000E+03 0.  0.
<mgrwt>
<rscale>  0 0.36434507E+03</rscale>
<asrwt>0</asrwt>
<pdfrwt beam="1">  1        2 0.15458513E+00 0.36434507E+03</pdfrwt>
<pdfrwt beam="2">  1       -2 0.43812901E-02 0.36434507E+03</pdfrwt>
<totfact> 0.62786091E+03</totfact>
</mgrwt>
</event>
<event>
 4    1  0.2621617E-004  0.4050898E+03  0.7818608E-02  0.1042031E+00
         -2   -1    0    0    0  501 -0.00000000000E+00  0.00000000000E+00  0.66376808974E+03  0.66376808974E+03  0.25500000000E-02 0. -1.
          2   -1    0    0  501    0  0.00000000000E+00 -0.00000000000E+00 -0.61805366637E+02  0.61805366690E+02  0.25500000000E-02 0.  1.
    5000001    1    1    2    0    0 -0.10723931106E+03  0.10374116518E+03  0.39288862802E+03  0.43903641446E+03  0.12700000000E+03 0.  0.
   -5000001    1    1    2    0    0  0.10723931106E+03 -0.10374116518E+03  0.20907409508E+03  0.28653704197E+03  0.12700000000E+03 0.  0.
<mgrwt>
<rscale>  0 0.40508977E+03</rscale>
<asrwt>0</asrwt>
<pdfrwt beam="1">  1        2 0.88293380E-02 0.40508977E+03</pdfrwt>
<pdfrwt beam="2">  1       -2 0.94824014E-01 0.40508977E+03</pdfrwt>
<totfact> 0.73272556E+02</totfact>
</mgrwt>
</event>
<event>
 4    1  0.2621617E-004  0.1363804E+04  0.7818608E-02  0.8980444E-01
          2   -1    0    0  501    0  0.00000000000E+00  0.00000000000E+00  0.14768783078E+04  0.14768783078E+04  0.25500000000E-02 0.  1.
         -2   -1    0    0    0  501 -0.00000000000E+00 -0.00000000000E+00 -0.31484666532E+03  0.31484666533E+03  0.25500000000E-02 0. -1.
    5000001    1    1    2    0    0 -0.62282737375E+03 -0.14831703521E+03  0.84029607406E+03  0.10640199117E+04  0.12700000000E+03 0.  0.
   -5000001    1    1    2    0    0  0.62282737375E+03  0.14831703521E+03  0.32173556840E+03  0.72770506140E+03  0.12700000000E+03 0.  0.
<mgrwt>
<rscale>  0 0.13638038E+04</rscale>
<asrwt>0</asrwt>
<pdfrwt beam="1">  1        2 0.21098262E+00 0.13638038E+04</pdfrwt>
<pdfrwt beam="2">  1       -2 0.44978095E-01 0.13638038E+04</pdfrwt>
<totfact> 0.68829787E+01</totfact>
</mgrwt>
</event>
<event>
 4    1  0.2621617E-004  0.3206765E+03  0.7818608E-02  0.1075338E+00
         -2   -1    0    0    0  501 -0.00000000000E+00  0.00000000000E+00  0.79853726263E+03  0.79853726263E+03  0.25500000000E-02 0. -1.
          2   -1    0    0  501    0  0.00000000000E+00 -0.00000000000E+00 -0.32194311485E+02  0.32194311586E+02  0.25500000000E-02 0.  1.
    5000001    1    1    2    0    0  0.54551520179E+02  0.79919236561E+02  0.42128041691E+03  0.45052096777E+03  0.12700000000E+03 0.  0.
   -5000001    1    1    2    0    0 -0.54551520179E+02 -0.79919236561E+02  0.34506253423E+03  0.38021060644E+03  0.12700000000E+03 0.  0.
<mgrwt>
<rscale>  0 0.32067652E+03</rscale>
<asrwt>0</asrwt>
<pdfrwt beam="1">  1        2 0.45991871E-02 0.32067652E+03</pdfrwt>
<pdfrwt beam="2">  1       -2 0.11407676E+00 0.32067652E+03</pdfrwt>
<totfact> 0.11082282E+03</totfact>
</mgrwt>
</event>
<event>
 4    1  0.2621617E-004  0.3205305E+03  0.7818608E-02  0.1075405E+00
         -2   -1    0    0    0  501 -0.00000000000E+00  0.00000000000E+00  0.15472637801E+03  0.15472637803E+03  0.25500000000E-02 0. -1.
          2   -1    0    0  501    0  0.00000000000E+00 -0.00000000000E+00 -0.16600244848E+03  0.16600244850E+03  0.25500000000E-02 0.  1.
    5000001    1    1    2    0    0  0.53069648519E+02  0.81778611386E+02 -0.12841705778E+02  0.16061767736E+03  0.12700000000E+03 0.  0.
   -5000001    1    1    2    0    0 -0.53069648519E+02 -0.81778611386E+02  0.15656353054E+01  0.16011114917E+03  0.12700000000E+03 0.  0.
<mgrwt>
<rscale>  0 0.32053055E+03</rscale>
<asrwt>0</asrwt>
<pdfrwt beam="1">  1        2 0.23714636E-01 0.32053055E+03</pdfrwt>
<pdfrwt beam="2">  1       -2 0.22103768E-01 0.32053055E+03</pdfrwt>
<totfact> 0.40373930E+03</totfact>
</mgrwt>
</event>
<event>
 4    1  0.2621617E-004  0.2994419E+03  0.7818608E-02  0.1085520E+00
          2   -1    0    0  501    0  0.00000000000E+00  0.00000000000E+00  0.10532658067E+04  0.10532658067E+04  0.25500000000E-02 0.  1.
         -2   -1    0    0    0  501 -0.00000000000E+00 -0.00000000000E+00 -0.21282727976E+02  0.21282728128E+02  0.25500000000E-02 0. -1.
    5000001    1    1    2    0    0 -0.63066657226E+02  0.39565590044E+02  0.61390776521E+03  0.63131179568E+03  0.12700000000E+03 0.  0.
   -5000001    1    1    2    0    0  0.63066657226E+02 -0.39565590044E+02  0.41807531348E+03  0.44323673912E+03  0.12700000000E+03 0.  0.
<mgrwt>
<rscale>  0 0.29944195E+03</rscale>
<asrwt>0</asrwt>
<pdfrwt beam="1">  1        2 0.15046656E+00 0.29944195E+03</pdfrwt>
<pdfrwt beam="2">  1       -2 0.30403894E-02 0.29944195E+03</pdfrwt>
<totfact> 0.11259983E+04</totfact>
</mgrwt>
</event>
<event>
 4    1  0.2621617E-004  0.3999829E+03  0.7818608E-02  0.1043786E+00
          2   -1    0    0  501    0  0.00000000000E+00  0.00000000000E+00  0.74226070559E+02  0.74226070603E+02  0.25500000000E-02 0.  1.
         -2   -1    0    0    0  501 -0.00000000000E+00 -0.00000000000E+00 -0.53884815772E+03  0.53884815772E+03  0.25500000000E-02 0. -1.
    5000001    1    1    2    0    0  0.12266600380E+03 -0.89345557471E+02 -0.18794050071E+03  0.27291062445E+03  0.12700000000E+03 0.  0.
   -5000001    1    1    2    0    0 -0.12266600380E+03  0.89345557471E+02 -0.27668158645E+03  0.34016360388E+03  0.12700000000E+03 0.  0.
<mgrwt>
<rscale>  0 0.39998291E+03</rscale>
<asrwt>0</asrwt>
<pdfrwt beam="1">  1        2 0.10603725E-01 0.39998291E+03</pdfrwt>
<pdfrwt beam="2">  1       -2 0.76978306E-01 0.39998291E+03</pdfrwt>
<totfact> 0.93063484E+02</totfact>
</mgrwt>
</event>
<event>
 4    1  0.2621617E-004  0.3698050E+03  0.7818608E-02  0.1054768E+00
         -2   -1    0    0    0  501 -0.00000000000E+00  0.00000000000E+00  0.47416177589E+02  0.47416177657E+02  0.25500000000E-02 0. -1.
          2   -1    0    0  501    0  0.00000000000E+00 -0.00000000000E+00 -0.72103936294E+03  0.72103936295E+03  0.25500000000E-02 0.  1.
    5000001    1    1    2    0    0 -0.77094061907E+02 -0.10907998749E+03 -0.36749239601E+03  0.41112236521E+03  0.12700000000E+03 0.  0.
   -5000001    1    1    2    0    0  0.77094061907E+02  0.10907998749E+03 -0.30613078934E+03  0.35733317539E+03  0.12700000000E+03 0.  0.
<mgrwt>
<rscale>  0 0.36980498E+03</rscale>
<asrwt>0</asrwt>
<pdfrwt beam="1">  1        2 0.10300562E+00 0.36980498E+03</pdfrwt>
<pdfrwt beam="2">  1       -2 0.67737401E-02 0.36980498E+03</pdfrwt>
<totfact> 0.54632903E+03</totfact>
</mgrwt>
</event>
<event>
 4    1  0.2621617E-004  0.3827574E+03  0.7818608E-02  0.1049919E+00
          2   -1    0    0  501    0  0.00000000000E+00  0.00000000000E+00  0.93904783222E+03  0.93904783222E+03  0.25500000000E-02 0. -1.
         -2   -1    0    0    0  501 -0.00000000000E+00 -0.00000000000E+00 -0.39003132603E+02  0.39003132686E+02  0.25500000000E-02 0.  1.
    5000001    1    1    2    0    0 -0.10327124948E+03 -0.87024682841E+02  0.32858458133E+03  0.37727320801E+03  0.12700000000E+03 0.  0.
   -5000001    1    1    2    0    0  0.10327124948E+03  0.87024682841E+02  0.57146011829E+03  0.60077775690E+03  0.12700000000E+03 0.  0.
<mgrwt>
<rscale>  0 0.38275740E+03</rscale>
<asrwt>0</asrwt>
<pdfrwt beam="1">  1        2 0.13414971E+00 0.38275740E+03</pdfrwt>
<pdfrwt beam="2">  1       -2 0.55718751E-02 0.38275740E+03</pdfrwt>
<totfact> 0.52901828E+03</totfact>
</mgrwt>
</event>
<event>
 4    1  0.2621617E-004  0.3385411E+03  0.7818608E-02  0.1067419E+00
          2   -1    0    0  501    0  0.00000000000E+00  0.00000000000E+00  0.84350316788E+02  0.84350316827E+02  0.25500000000E-02 0.  1.
         -2   -1    0    0    0  501 -0.00000000000E+00 -0.00000000000E+00 -0.33968486693E+03  0.33968486694E+03  0.25500000000E-02 0. -1.
    5000001    1    1    2    0    0  0.47251730919E+02  0.77832943787E+02 -0.20915759115E+03  0.26108732476E+03  0.12700000000E+03 0.  0.
   -5000001    1    1    2    0    0 -0.47251730919E+02 -0.77832943787E+02 -0.46176958990E+02  0.16294785901E+03  0.12700000000E+03 0.  0.
<mgrwt>
<rscale>  0 0.33854114E+03</rscale>
<asrwt>0</asrwt>
<pdfrwt beam="1">  1        2 0.12050045E-01 0.33854114E+03</pdfrwt>
<pdfrwt beam="2">  1       -2 0.48526409E-01 0.33854114E+03</pdfrwt>
<totfact> 0.20827987E+03</totfact>
</mgrwt>
</event>
<event>
 4    1  0.2621617E-004  0.4341397E+03  0.7818608E-02  0.1032560E+00
          2   -1    0    0  501    0  0.00000000000E+00  0.00000000000E+00  0.11450680625E+03  0.11450680628E+03  0.25500000000E-02 0.  1.
         -2   -1    0    0    0  501 -0.00000000000E+00 -0.00000000000E+00 -0.41149789164E+03  0.41149789164E+03  0.25500000000E-02 0. -1.
    5000001    1    1    2    0    0 -0.80466277193E+01  0.17584313539E+03 -0.15113696952E+03  0.26449374291E+03  0.12700000000E+03 0.  0.
   -5000001    1    1    2    0    0  0.80466277193E+01 -0.17584313539E+03 -0.14585411586E+03  0.26151095502E+03  0.12700000000E+03 0.  0.
<mgrwt>
<rscale>  0 0.43413965E+03</rscale>
<asrwt>0</asrwt>
<pdfrwt beam="1">  1        2 0.16358115E-01 0.43413965E+03</pdfrwt>
<pdfrwt beam="2">  1       -2 0.58785412E-01 0.43413965E+03</pdfrwt>
<totfact> 0.97773347E+02</totfact>
</mgrwt>
</event>
<event>
 4    1  0.2621617E-004  0.2710748E+03  0.7818608E-02  0.1100666E+00
          2   -1    0    0  501    0  0.00000000000E+00  0.00000000000E+00  0.12635850012E+03  0.12635850014E+03  0.25500000000E-02 0.  1.
         -2   -1    0    0    0  501 -0.00000000000E+00 -0.00000000000E+00 -0.14538305495E+03  0.14538305498E+03  0.25500000000E-02 0. -1.
    5000001    1    1    2    0    0 -0.31239965937E+02 -0.25715873267E+02 -0.34152059754E+02  0.13759580224E+03  0.12700000000E+03 0.  0.
   -5000001    1    1    2    0    0  0.31239965937E+02  0.25715873267E+02  0.15127504918E+02  0.13414575288E+03  0.12700000000E+03 0.  0.
<mgrwt>
<rscale>  0 0.27107479E+03</rscale>
<asrwt>0</asrwt>
<pdfrwt beam="1">  1        2 0.18051214E-01 0.27107479E+03</pdfrwt>
<pdfrwt beam="2">  1       -2 0.20769008E-01 0.27107479E+03</pdfrwt>
<totfact> 0.61088288E+03</totfact>
</mgrwt>
</event>
<event>
 4    1  0.2621617E-004  0.4381808E+03  0.7818608E-02  0.1031306E+00
         -2   -1    0    0    0  501 -0.00000000000E+00  0.00000000000E+00  0.14011363505E+03  0.14011363507E+03  0.25500000000E-02 0. -1.
          2   -1    0    0  501    0  0.00000000000E+00 -0.00000000000E+00 -0.34258345132E+03  0.34258345133E+03  0.25500000000E-02 0.  1.
    5000001    1    1    2    0    0  0.51815026955E+02 -0.17032088957E+03 -0.86553919917E+02  0.23519052595E+03  0.12700000000E+03 0.  0.
   -5000001    1    1    2    0    0 -0.51815026955E+02  0.17032088957E+03 -0.11591589635E+03  0.24750656046E+03  0.12700000000E+03 0.  0.
<mgrwt>
<rscale>  0 0.43818084E+03</rscale>
<asrwt>0</asrwt>
<pdfrwt beam="1">  1        2 0.48940493E-01 0.43818084E+03</pdfrwt>
<pdfrwt beam="2">  1       -2 0.20016234E-01 0.43818084E+03</pdfrwt>
<totfact> 0.21702697E+03</totfact>
</mgrwt>
</event>
<event>
 4    1  0.2621617E-004  0.3807865E+03  0.7818608E-02  0.1050643E+00
         -2   -1    0    0    0  501 -0.00000000000E+00  0.00000000000E+00  0.18193858142E+02  0.18193858320E+02  0.25500000000E-02 0. -1.
          2   -1    0    0  501    0  0.00000000000E+00 -0.00000000000E+00 -0.19924084635E+04  0.19924084635E+04  0.25500000000E-02 0.  1.
    5000001    1    1    2    0    0  0.64497831461E+01 -0.11691455369E+03 -0.56436755524E+03  0.59021212286E+03  0.12700000000E+03 0.  0.
   -5000001    1    1    2    0    0 -0.64497831461E+01  0.11691455369E+03 -0.14098470502E+04  0.14203901990E+04  0.12700000000E+03 0.  0.
<mgrwt>
<rscale>  0 0.38078654E+03</rscale>
<asrwt>0</asrwt>
<pdfrwt beam="1">  1        2 0.28462964E+00 0.38078654E+03</pdfrwt>
<pdfrwt beam="2">  1       -2 0.25991239E-02 0.38078654E+03</pdfrwt>
<totfact> 0.46717579E+03</totfact>
</mgrwt>
</event>
<event>
 4    1  0.2621617E-004  0.6107908E+03  0.7818608E-02  0.9883268E-01
         -2   -1    0    0    0  501 -0.00000000000E+00  0.00000000000E+00  0.25592650647E+02  0.25592650774E+02  0.25500000000E-02 0. -1.
          2   -1    0    0  501    0  0.00000000000E+00 -0.00000000000E+00 -0.36442634505E+04  0.36442634505E+04  0.25500000000E-02 0.  1.
    5000001    1    1    2    0    0  0.15820252938E+03  0.21291935828E+03 -0.23038743880E+04  0.23225694585E+04  0.12700000000E+03 0.  0.
   -5000001    1    1    2    0    0 -0.15820252938E+03 -0.21291935828E+03 -0.13147964118E+04  0.13472866428E+04  0.12700000000E+03 0.  0.
<mgrwt>
<rscale>  0 0.61079084E+03</rscale>
<asrwt>0</asrwt>
<pdfrwt beam="1">  1        2 0.52060874E+00 0.61079084E+03</pdfrwt>
<pdfrwt beam="2">  1       -2 0.36560953E-02 0.61079084E+03</pdfrwt>
<totfact> 0.35672724E+02</totfact>
</mgrwt>
</event>
<event>
 4    1  0.2621617E-004  0.3065199E+03  0.7818608E-02  0.1082026E+00
         -2   -1    0    0    0  501 -0.00000000000E+00  0.00000000000E+00  0.29828033614E+02  0.29828033723E+02  0.25500000000E-02 0.  1.
          2   -1    0    0  501    0  0.00000000000E+00 -0.00000000000E+00 -0.78746780924E+03  0.78746780924E+03  0.25500000000E-02 0. -1.
    5000001    1    1    2    0    0 -0.64547858873E+02  0.55316477612E+02 -0.40960204683E+03  0.43718322880E+03  0.12700000000E+03 0.  0.
   -5000001    1    1    2    0    0  0.64547858873E+02 -0.55316477612E+02 -0.34803772880E+03  0.38011261417E+03  0.12700000000E+03 0.  0.
<mgrwt>
<rscale>  0 0.30651993E+03</rscale>
<asrwt>0</asrwt>
<pdfrwt beam="1">  1        2 0.11249539E+00 0.30651993E+03</pdfrwt>
<pdfrwt beam="2">  1       -2 0.42611482E-02 0.30651993E+03</pdfrwt>
<totfact> 0.99371306E+03</totfact>
</mgrwt>
</event>
<event>
 4    1  0.2621617E-004  0.5295679E+03  0.7818608E-02  0.1006337E+00
         -2   -1    0    0    0  501 -0.00000000000E+00  0.00000000000E+00  0.31563331981E+02  0.31563332084E+02  0.25500000000E-02 0. -1.
          2   -1    0    0  501    0  0.00000000000E+00 -0.00000000000E+00 -0.22212658357E+04  0.22212658357E+04  0.25500000000E-02 0.  1.
    5000001    1    1    2    0    0 -0.22304654287E+03  0.48432672377E+02 -0.91010095680E+03  0.94684118816E+03  0.12700000000E+03 0.  0.
   -5000001    1    1    2    0    0  0.22304654287E+03 -0.48432672377E+02 -0.12796015469E+04  0.13059879796E+04  0.12700000000E+03 0.  0.
<mgrwt>
<rscale>  0 0.52956794E+03</rscale>
<asrwt>0</asrwt>
<pdfrwt beam="1">  1        2 0.31732359E+00 0.52956794E+03</pdfrwt>
<pdfrwt beam="2">  1       -2 0.45090488E-02 0.52956794E+03</pdfrwt>
<totfact> 0.15498822E+03</totfact>
</mgrwt>
</event>
<event>
 4    1  0.2621617E-004  0.4097520E+03  0.7818608E-02  0.1040454E+00
         -2   -1    0    0    0  501 -0.00000000000E+00  0.00000000000E+00  0.15951744047E+02  0.15951744251E+02  0.25500000000E-02 0. -1.
          2   -1    0    0  501    0  0.00000000000E+00 -0.00000000000E+00 -0.26313215287E+04  0.26313215287E+04  0.25500000000E-02 0.  1.
    5000001    1    1    2    0    0 -0.12649577182E+03 -0.63717703137E+02 -0.17990377026E+04  0.18090679317E+04  0.12700000000E+03 0.  0.
   -5000001    1    1    2    0    0  0.12649577182E+03  0.63717703137E+02 -0.81633208203E+03  0.83820534127E+03  0.12700000000E+03 0.  0.
<mgrwt>
<rscale>  0 0.40975196E+03</rscale>
<asrwt>0</asrwt>
<pdfrwt beam="1">  1        2 0.37590280E+00 0.40975196E+03</pdfrwt>
<pdfrwt beam="2">  1       -2 0.22788223E-02 0.40975196E+03</pdfrwt>
<totfact> 0.27206576E+03</totfact>
</mgrwt>
</event>
<event>
 4    1  0.2621617E-004  0.2940405E+03  0.7818608E-02  0.1088258E+00
          2   -1    0    0  501    0  0.00000000000E+00  0.00000000000E+00  0.43725831867E+03  0.43725831868E+03  0.25500000000E-02 0.  1.
         -2   -1    0    0    0  501 -0.00000000000E+00 -0.00000000000E+00 -0.49432914057E+02  0.49432914123E+02  0.25500000000E-02 0. -1.
    5000001    1    1    2    0    0  0.32446697072E+02 -0.50889189425E+02  0.12284657182E+03  0.18671576784E+03  0.12700000000E+03 0.  0.
   -5000001    1    1    2    0    0 -0.32446697072E+02  0.50889189425E+02  0.26497883280E+03  0.29997546497E+03  0.12700000000E+03 0.  0.
<mgrwt>
<rscale>  0 0.29404049E+03</rscale>
<asrwt>0</asrwt>
<pdfrwt beam="1">  1        2 0.62465478E-01 0.29404049E+03</pdfrwt>
<pdfrwt beam="2">  1       -2 0.70618445E-02 0.29404049E+03</pdfrwt>
<totfact> 0.89978813E+03</totfact>
</mgrwt>
</event>
<event>
 4    1  0.2621617E-004  0.8124248E+03  0.7818608E-02  0.9542205E-01
         -2   -1    0    0    0  501 -0.00000000000E+00  0.00000000000E+00  0.81455842216E+02  0.81455842256E+02  0.25500000000E-02 0. -1.
          2   -1    0    0  501    0  0.00000000000E+00 -0.00000000000E+00 -0.20257418104E+04  0.20257418104E+04  0.25500000000E-02 0.  1.
    5000001    1    1    2    0    0 -0.35823536243E+03  0.32303724249E+02 -0.13343670282E+04  0.13878186018E+04  0.12700000000E+03 0.  0.
   -5000001    1    1    2    0    0  0.35823536243E+03 -0.32303724249E+02 -0.60991893998E+03  0.71937905087E+03  0.12700000000E+03 0.  0.
<mgrwt>
<rscale>  0 0.81242478E+03</rscale>
<asrwt>0</asrwt>
<pdfrwt beam="1">  1        2 0.28939166E+00 0.81242478E+03</pdfrwt>
<pdfrwt beam="2">  1       -2 0.11636550E-01 0.81242478E+03</pdfrwt>
<totfact> 0.42341250E+02</totfact>
</mgrwt>
</event>
<event>
 4    1  0.2621617E-004  0.7456704E+03  0.7818608E-02  0.9642167E-01
          2   -1    0    0  501    0  0.00000000000E+00  0.00000000000E+00  0.23446194879E+04  0.23446194879E+04  0.25500000000E-02 0.  1.
         -2   -1    0    0    0  501 -0.00000000000E+00 -0.00000000000E+00 -0.59287268765E+02  0.59287268820E+02  0.25500000000E-02 0. -1.
    5000001    1    1    2    0    0 -0.33518099260E+03 -0.97349978050E+02  0.10380150612E+04  0.11024643229E+04  0.12700000000E+03 0.  0.
   -5000001    1    1    2    0    0  0.33518099260E+03  0.97349978050E+02  0.12473171580E+04  0.13014424339E+04  0.12700000000E+03 0.  0.
<mgrwt>
<rscale>  0 0.74567040E+03</rscale>
<asrwt>0</asrwt>
<pdfrwt beam="1">  1        2 0.33494562E+00 0.74567040E+03</pdfrwt>
<pdfrwt beam="2">  1       -2 0.84696105E-02 0.74567040E+03</pdfrwt>
<totfact> 0.49133496E+02</totfact>
</mgrwt>
</event>
<event>
 4    1  0.2621617E-004  0.5627916E+03  0.7818608E-02  0.9985758E-01
          2   -1    0    0  501    0  0.00000000000E+00  0.00000000000E+00  0.10457686344E+04  0.10457686344E+04  0.25500000000E-02 0.  1.
         -2   -1    0    0    0  501 -0.00000000000E+00 -0.00000000000E+00 -0.75718096370E+02  0.75718096413E+02  0.25500000000E-02 0. -1.
    5000001    1    1    2    0    0  0.22329741304E+03  0.49634935856E+02  0.69143546737E+03  0.73928165611E+03  0.12700000000E+03 0.  0.
   -5000001    1    1    2    0    0 -0.22329741304E+03 -0.49634935856E+02  0.27861507065E+03  0.38220507469E+03  0.12700000000E+03 0.  0.
<mgrwt>
<rscale>  0 0.56279165E+03</rscale>
<asrwt>0</asrwt>
<pdfrwt beam="1">  1        2 0.14939552E+00 0.56279165E+03</pdfrwt>
<pdfrwt beam="2">  1       -2 0.10816871E-01 0.56279165E+03</pdfrwt>
<totfact> 0.15974719E+03</totfact>
</mgrwt>
</event>
<event>
 4    1  0.2621617E-004  0.5694788E+03  0.7818608E-02  0.9970833E-01
         -2   -1    0    0    0  501 -0.00000000000E+00  0.00000000000E+00  0.97087876783E+02  0.97087876817E+02  0.25500000000E-02 0. -1.
          2   -1    0    0  501    0  0.00000000000E+00 -0.00000000000E+00 -0.83508393952E+03  0.83508393952E+03  0.25500000000E-02 0.  1.
    5000001    1    1    2    0    0  0.46167335447E+01 -0.24640865911E+03 -0.47519377258E+03  0.55016057930E+03  0.12700000000E+03 0.  0.
   -5000001    1    1    2    0    0 -0.46167335447E+01  0.24640865911E+03 -0.26280229016E+03  0.38201123704E+03  0.12700000000E+03 0.  0.
<mgrwt>
<rscale>  0 0.56947880E+03</rscale>
<asrwt>0</asrwt>
<pdfrwt beam="1">  1        2 0.11929770E+00 0.56947880E+03</pdfrwt>
<pdfrwt beam="2">  1       -2 0.13869697E-01 0.56947880E+03</pdfrwt>
<totfact> 0.14397791E+03</totfact>
</mgrwt>
</event>
<event>
 4    1  0.2621617E-004  0.2740915E+03  0.7818608E-02  0.1098961E+00
          2   -1    0    0  501    0  0.00000000000E+00  0.00000000000E+00  0.15140657818E+04  0.15140657818E+04  0.25500000000E-02 0.  1.
         -2   -1    0    0    0  501 -0.00000000000E+00 -0.00000000000E+00 -0.12404702091E+02  0.12404702353E+02  0.25500000000E-02 0. -1.
    5000001    1    1    2    0    0  0.23184265196E+01 -0.18816687165E+02  0.10175186445E+04  0.10255889209E+04  0.12700000000E+03 0.  0.
   -5000001    1    1    2    0    0 -0.23184265196E+01  0.18816687165E+02  0.48414243528E+03  0.50088156330E+03  0.12700000000E+03 0.  0.
<mgrwt>
<rscale>  0 0.27409148E+03</rscale>
<asrwt>0</asrwt>
<pdfrwt beam="1">  1        2 0.21629531E+00 0.27409148E+03</pdfrwt>
<pdfrwt beam="2">  1       -2 0.17720987E-02 0.27409148E+03</pdfrwt>
<totfact> 0.14168823E+04</totfact>
</mgrwt>
</event>
<event>
 4    1  0.2621617E-004  0.5312656E+03  0.7818608E-02  0.1005926E+00
          2   -1    0    0  501    0  0.00000000000E+00  0.00000000000E+00  0.50203546588E+03  0.50203546588E+03  0.25500000000E-02 0.  1.
         -2   -1    0    0    0  501 -0.00000000000E+00 -0.00000000000E+00 -0.14054942817E+03  0.14054942819E+03  0.25500000000E-02 0. -1.
    5000001    1    1    2    0    0 -0.67663164375E+02 -0.21001804850E+03  0.27242802196E+03  0.37286983206E+03  0.12700000000E+03 0.  0.
   -5000001    1    1    2    0    0  0.67663164375E+02  0.21001804850E+03  0.89058015745E+02  0.26971506201E+03  0.12700000000E+03 0.  0.
<mgrwt>
<rscale>  0 0.53126565E+03</rscale>
<asrwt>0</asrwt>
<pdfrwt beam="1">  1        2 0.71719351E-01 0.53126565E+03</pdfrwt>
<pdfrwt beam="2">  1       -2 0.20078490E-01 0.53126565E+03</pdfrwt>
<totfact> 0.14143668E+03</totfact>
</mgrwt>
</event>
<event>
 4    1  0.2621617E-004  0.7571133E+03  0.7818608E-02  0.9624256E-01
         -2   -1    0    0    0  501 -0.00000000000E+00  0.00000000000E+00  0.96694751949E+02  0.96694751982E+02  0.25500000000E-02 0. -1.
          2   -1    0    0  501    0  0.00000000000E+00 -0.00000000000E+00 -0.14820363769E+04  0.14820363769E+04  0.25500000000E-02 0.  1.
    5000001    1    1    2    0    0 -0.34364823770E+03 -0.69899497523E+02 -0.55759747508E+03  0.67083827801E+03  0.12700000000E+03 0.  0.
   -5000001    1    1    2    0    0  0.34364823770E+03  0.69899497523E+02 -0.82774414991E+03  0.90789285091E+03  0.12700000000E+03 0.  0.
<mgrwt>
<rscale>  0 0.75711331E+03</rscale>
<asrwt>0</asrwt>
<pdfrwt beam="1">  1        2 0.21171947E+00 0.75711331E+03</pdfrwt>
<pdfrwt beam="2">  1       -2 0.13813537E-01 0.75711331E+03</pdfrwt>
<totfact> 0.60703651E+02</totfact>
</mgrwt>
</event>
<event>
 4    1  0.2621617E-004  0.4477638E+03  0.7818608E-02  0.1028391E+00
         -2   -1    0    0    0  501 -0.00000000000E+00  0.00000000000E+00  0.42280355021E+03  0.42280355022E+03  0.25500000000E-02 0. -1.
          2   -1    0    0  501    0  0.00000000000E+00 -0.00000000000E+00 -0.11854938131E+03  0.11854938134E+03  0.25500000000E-02 0.  1.
    5000001    1    1    2    0    0  0.11227553809E+03 -0.14478550830E+03  0.17706502688E+03  0.28469222612E+03  0.12700000000E+03 0.  0.
   -5000001    1    1    2    0    0 -0.11227553809E+03  0.14478550830E+03  0.12718914202E+03  0.25666070544E+03  0.12700000000E+03 0.  0.
<mgrwt>
<rscale>  0 0.44776377E+03</rscale>
<asrwt>0</asrwt>
<pdfrwt beam="1">  1        2 0.16935626E-01 0.44776377E+03</pdfrwt>
<pdfrwt beam="2">  1       -2 0.60400508E-01 0.44776377E+03</pdfrwt>
<totfact> 0.88678325E+02</totfact>
</mgrwt>
</event>
<event>
 4    1  0.2621617E-004  0.4825597E+03  0.7818608E-02  0.1018434E+00
          2   -1    0    0  501    0  0.00000000000E+00  0.00000000000E+00  0.11111914439E+04  0.11111914439E+04  0.25500000000E-02 0.  1.
         -2   -1    0    0    0  501 -0.00000000000E+00 -0.00000000000E+00 -0.52390584184E+02  0.52390584246E+02  0.25500000000E-02 0. -1.
    5000001    1    1    2    0    0 -0.12473994599E+03  0.15785410722E+02  0.13852361253E+03  0.22611285799E+03  0.12700000000E+03 0.  0.
   -5000001    1    1    2    0    0  0.12473994599E+03 -0.15785410722E+02  0.92027724716E+03  0.93746917014E+03  0.12700000000E+03 0.  0.
<mgrwt>
<rscale>  0 0.48255971E+03</rscale>
<asrwt>0</asrwt>
<pdfrwt beam="1">  1        2 0.15874162E+00 0.48255971E+03</pdfrwt>
<pdfrwt beam="2">  1       -2 0.74843699E-02 0.48255971E+03</pdfrwt>
<totfact> 0.26419371E+03</totfact>
</mgrwt>
</event>
<event>
 4    1  0.2621617E-004  0.3817194E+03  0.7818608E-02  0.1050300E+00
         -2   -1    0    0    0  501 -0.00000000000E+00  0.00000000000E+00  0.11140100690E+03  0.11140100693E+03  0.25500000000E-02 0. -1.
          2   -1    0    0  501    0  0.00000000000E+00 -0.00000000000E+00 -0.32699375019E+03  0.32699375020E+03  0.25500000000E-02 0.  1.
    5000001    1    1    2    0    0  0.12460020079E+03  0.53970033917E+02 -0.58259217037E+02  0.19483611310E+03  0.12700000000E+03 0.  0.
   -5000001    1    1    2    0    0 -0.12460020079E+03 -0.53970033917E+02 -0.15733352626E+03  0.24355864403E+03  0.12700000000E+03 0.  0.
<mgrwt>
<rscale>  0 0.38171944E+03</rscale>
<asrwt>0</asrwt>
<pdfrwt beam="1">  1        2 0.46713392E-01 0.38171944E+03</pdfrwt>
<pdfrwt beam="2">  1       -2 0.15914430E-01 0.38171944E+03</pdfrwt>
<totfact> 0.33664449E+03</totfact>
</mgrwt>
</event>
<event>
 4    1  0.2621617E-004  0.4320659E+03  0.7818608E-02  0.1033209E+00
          2   -1    0    0  501    0  0.00000000000E+00  0.00000000000E+00  0.74018128166E+03  0.74018128166E+03  0.25500000000E-02 0.  1.
         -2   -1    0    0    0  501 -0.00000000000E+00 -0.00000000000E+00 -0.63052448491E+02  0.63052448543E+02  0.25500000000E-02 0. -1.
    5000001    1    1    2    0    0 -0.14748076559E+03  0.88477046521E+02  0.39623938440E+03  0.45023706392E+03  0.12700000000E+03 0.  0.
   -5000001    1    1    2    0    0  0.14748076559E+03 -0.88477046521E+02  0.28088944877E+03  0.35299666628E+03  0.12700000000E+03 0.  0.
<mgrwt>
<rscale>  0 0.43206593E+03</rscale>
<asrwt>0</asrwt>
<pdfrwt beam="1">  1        2 0.10574018E+00 0.43206593E+03</pdfrwt>
<pdfrwt beam="2">  1       -2 0.90074928E-02 0.43206593E+03</pdfrwt>
<totfact> 0.33854888E+03</totfact>
</mgrwt>
</event>
<event>
 4    1  0.2621617E-004  0.3358841E+03  0.7818608E-02  0.1068563E+00
          2   -1    0    0  501    0  0.00000000000E+00  0.00000000000E+00  0.27087970023E+04  0.27087970023E+04  0.25500000000E-02 0.  1.
         -2   -1    0    0    0  501 -0.00000000000E+00 -0.00000000000E+00 -0.10412201162E+02  0.10412201475E+02  0.25500000000E-02 0. -1.
    5000001    1    1    2    0    0 -0.51846821519E+02  0.46966046104E+02  0.66312805088E+03  0.67879430924E+03  0.12700000000E+03 0.  0.
   -5000001    1    1    2    0    0  0.51846821519E+02 -0.46966046104E+02  0.20352567503E+04  0.20404148945E+04  0.12700000000E+03 0.  0.
<mgrwt>
<rscale>  0 0.33588415E+03</rscale>
<asrwt>0</asrwt>
<pdfrwt beam="1">  1        2 0.38697082E+00 0.33588415E+03</pdfrwt>
<pdfrwt beam="2">  1       -2 0.14874580E-02 0.33588415E+03</pdfrwt>
<totfact> 0.46888905E+03</totfact>
</mgrwt>
</event>
<event>
 4    1  0.2621617E-004  0.3704669E+03  0.7818608E-02  0.1054515E+00
         -2   -1    0    0    0  501 -0.00000000000E+00  0.00000000000E+00  0.33487126019E+02  0.33487126116E+02  0.25500000000E-02 0. -1.
          2   -1    0    0  501    0  0.00000000000E+00 -0.00000000000E+00 -0.10246155573E+04  0.10246155573E+04  0.25500000000E-02 0.  1.
    5000001    1    1    2    0    0 -0.16668166599E+02  0.12673092112E+03 -0.61820764548E+03  0.64393186525E+03  0.12700000000E+03 0.  0.
   -5000001    1    1    2    0    0  0.16668166599E+02 -0.12673092112E+03 -0.37292078581E+03  0.41417081818E+03  0.12700000000E+03 0.  0.
<mgrwt>
<rscale>  0 0.37046690E+03</rscale>
<asrwt>0</asrwt>
<pdfrwt beam="1">  1        2 0.14637363E+00 0.37046690E+03</pdfrwt>
<pdfrwt beam="2">  1       -2 0.47838758E-02 0.37046690E+03</pdfrwt>
<totfact> 0.59321086E+03</totfact>
</mgrwt>
</event>
<event>
 4    1  0.2621617E-004  0.4542761E+03  0.7818608E-02  0.1026454E+00
         -2   -1    0    0    0  501 -0.00000000000E+00  0.00000000000E+00  0.80048098912E+02  0.80048098953E+02  0.25500000000E-02 0. -1.
          2   -1    0    0  501    0  0.00000000000E+00 -0.00000000000E+00 -0.64450869155E+03  0.64450869155E+03  0.25500000000E-02 0.  1.
    5000001    1    1    2    0    0  0.63974070228E+02 -0.16602866239E+03 -0.38060901556E+03  0.43891960667E+03  0.12700000000E+03 0.  0.
   -5000001    1    1    2    0    0 -0.63974070228E+02  0.16602866239E+03 -0.18385157707E+03  0.28563718383E+03  0.12700000000E+03 0.  0.
<mgrwt>
<rscale>  0 0.45427611E+03</rscale>
<asrwt>0</asrwt>
<pdfrwt beam="1">  1        2 0.92072668E-01 0.45427611E+03</pdfrwt>
<pdfrwt beam="2">  1       -2 0.11435443E-01 0.45427611E+03</pdfrwt>
<totfact> 0.27246877E+03</totfact>
</mgrwt>
</event>
<event>
 4    1  0.2621617E-004  0.2990379E+03  0.7818608E-02  0.1085723E+00
         -2   -1    0    0    0  501 -0.00000000000E+00  0.00000000000E+00  0.35613536330E+02  0.35613536421E+02  0.25500000000E-02 0. -1.
          2   -1    0    0  501    0  0.00000000000E+00 -0.00000000000E+00 -0.62773632277E+03  0.62773632277E+03  0.25500000000E-02 0.  1.
    5000001    1    1    2    0    0  0.76970030962E+01  0.58371882919E+02 -0.41260854712E+03  0.43570785364E+03  0.12700000000E+03 0.  0.
   -5000001    1    1    2    0    0 -0.76970030962E+01 -0.58371882919E+02 -0.17951423932E+03  0.22764200555E+03  0.12700000000E+03 0.  0.
<mgrwt>
<rscale>  0 0.29903786E+03</rscale>
<asrwt>0</asrwt>
<pdfrwt beam="1">  1        2 0.89676611E-01 0.29903786E+03</pdfrwt>
<pdfrwt beam="2">  1       -2 0.50876484E-02 0.29903786E+03</pdfrwt>
<totfact> 0.99442284E+03</totfact>
</mgrwt>
</event>
<event>
 4    1  0.2621617E-004  0.8901755E+03  0.7818608E-02  0.9437947E-01
          2   -1    0    0  501    0  0.00000000000E+00  0.00000000000E+00  0.18152116332E+04  0.18152116332E+04  0.25500000000E-02 0.  1.
         -2   -1    0    0    0  501 -0.00000000000E+00 -0.00000000000E+00 -0.10913498478E+03  0.10913498480E+03  0.25500000000E-02 0. -1.
    5000001    1    1    2    0    0 -0.38455191242E+03 -0.17930944134E+03  0.75777246082E+03  0.87771302341E+03  0.12700000000E+03 0.  0.
   -5000001    1    1    2    0    0  0.38455191242E+03  0.17930944134E+03  0.94830418765E+03  0.10466335946E+04  0.12700000000E+03 0.  0.
<mgrwt>
<rscale>  0 0.89017547E+03</rscale>
<asrwt>0</asrwt>
<pdfrwt beam="1">  1        2 0.25931592E+00 0.89017547E+03</pdfrwt>
<pdfrwt beam="2">  1       -2 0.15590713E-01 0.89017547E+03</pdfrwt>
<totfact> 0.33022062E+02</totfact>
</mgrwt>
</event>
<event>
 4    1  0.2621617E-004  0.3600188E+03  0.7818608E-02  0.1058576E+00
          2   -1    0    0  501    0  0.00000000000E+00  0.00000000000E+00  0.29286474556E+03  0.29286474557E+03  0.25500000000E-02 0.  1.
         -2   -1    0    0    0  501 -0.00000000000E+00 -0.00000000000E+00 -0.11064280395E+03  0.11064280398E+03  0.25500000000E-02 0. -1.
    5000001    1    1    2    0    0 -0.33282533011E+02 -0.87377914029E+02 -0.61580348107E+01  0.15782759029E+03  0.12700000000E+03 0.  0.
   -5000001    1    1    2    0    0  0.33282533011E+02  0.87377914029E+02  0.18837997643E+03  0.24567995926E+03  0.12700000000E+03 0.  0.
<mgrwt>
<rscale>  0 0.36001876E+03</rscale>
<asrwt>0</asrwt>
<pdfrwt beam="1">  1        2 0.41837821E-01 0.36001876E+03</pdfrwt>
<pdfrwt beam="2">  1       -2 0.15806115E-01 0.36001876E+03</pdfrwt>
<totfact> 0.38337536E+03</totfact>
</mgrwt>
</event>
<event>
 4    1  0.2621617E-004  0.4647554E+03  0.7818608E-02  0.1023411E+00
         -2   -1    0    0    0  501 -0.00000000000E+00  0.00000000000E+00  0.43433077106E+03  0.43433077107E+03  0.25500000000E-02 0. -1.
          2   -1    0    0  501    0  0.00000000000E+00 -0.00000000000E+00 -0.12432779487E+03  0.12432779490E+03  0.25500000000E-02 0.  1.
    5000001    1    1    2    0    0  0.16444749555E+03 -0.74845372103E+02  0.68107598111E+02  0.23111134425E+03  0.12700000000E+03 0.  0.
   -5000001    1    1    2    0    0 -0.16444749555E+03  0.74845372103E+02  0.24189537808E+03  0.32754722172E+03  0.12700000000E+03 0.  0.
<mgrwt>
<rscale>  0 0.46475536E+03</rscale>
<asrwt>0</asrwt>
<pdfrwt beam="1">  1        2 0.17761113E-01 0.46475536E+03</pdfrwt>
<pdfrwt beam="2">  1       -2 0.62047253E-01 0.46475536E+03</pdfrwt>
<totfact> 0.79227704E+02</totfact>
</mgrwt>
</event>
<event>
 4    1  0.2621617E-004  0.3168081E+03  0.7818608E-02  0.1077128E+00
         -2   -1    0    0    0  501 -0.00000000000E+00  0.00000000000E+00  0.29214120304E+03  0.29214120305E+03  0.25500000000E-02 0. -1.
          2   -1    0    0  501    0  0.00000000000E+00 -0.00000000000E+00 -0.85889451195E+02  0.85889451233E+02  0.25500000000E-02 0.  1.
    5000001    1    1    2    0    0 -0.58322684240E+02 -0.70894491361E+02  0.13073308544E+03  0.20407769116E+03  0.12700000000E+03 0.  0.
   -5000001    1    1    2    0    0  0.58322684240E+02  0.70894491361E+02  0.75518666405E+02  0.17395296312E+03  0.12700000000E+03 0.  0.
<mgrwt>
<rscale>  0 0.31680813E+03</rscale>
<asrwt>0</asrwt>
<pdfrwt beam="1">  1        2 0.12269921E-01 0.31680813E+03</pdfrwt>
<pdfrwt beam="2">  1       -2 0.41734458E-01 0.31680813E+03</pdfrwt>
<totfact> 0.27339661E+03</totfact>
</mgrwt>
</event>
<event>
 4    1  0.2621617E-004  0.3618207E+03  0.7818608E-02  0.1057865E+00
          2   -1    0    0  501    0  0.00000000000E+00  0.00000000000E+00  0.17215772447E+03  0.17215772449E+03  0.25500000000E-02 0.  1.
         -2   -1    0    0    0  501 -0.00000000000E+00 -0.00000000000E+00 -0.19010800743E+03  0.19010800745E+03  0.25500000000E-02 0. -1.
    5000001    1    1    2    0    0  0.12864645598E+03  0.61238721962E+01 -0.12465044831E+02  0.18130579083E+03  0.12700000000E+03 0.  0.
   -5000001    1    1    2    0    0 -0.12864645598E+03 -0.61238721962E+01 -0.54852381328E+01  0.18095994110E+03  0.12700000000E+03 0.  0.
<mgrwt>
<rscale>  0 0.36182074E+03</rscale>
<asrwt>0</asrwt>
<pdfrwt beam="1">  1        2 0.24593961E-01 0.36182074E+03</pdfrwt>
<pdfrwt beam="2">  1       -2 0.27158287E-01 0.36182074E+03</pdfrwt>
<totfact> 0.26999944E+03</totfact>
</mgrwt>
</event>
<event>
 4    1  0.2621617E-004  0.5416954E+03  0.7818608E-02  0.1003435E+00
         -2   -1    0    0    0  501 -0.00000000000E+00  0.00000000000E+00  0.16601015860E+03  0.16601015862E+03  0.25500000000E-02 0. -1.
          2   -1    0    0  501    0  0.00000000000E+00 -0.00000000000E+00 -0.44189150014E+03  0.44189150014E+03  0.25500000000E-02 0.  1.
    5000001    1    1    2    0    0 -0.13048715250E+03  0.11261735147E+03 -0.32410724475E+03  0.38843798851E+03  0.12700000000E+03 0.  0.
   -5000001    1    1    2    0    0  0.13048715250E+03 -0.11261735147E+03  0.48225903214E+02  0.21946367025E+03  0.12700000000E+03 0.  0.
<mgrwt>
<rscale>  0 0.54169541E+03</rscale>
<asrwt>0</asrwt>
<pdfrwt beam="1">  1        2 0.63127357E-01 0.54169541E+03</pdfrwt>
<pdfrwt beam="2">  1       -2 0.23715737E-01 0.54169541E+03</pdfrwt>
<totfact> 0.12184415E+03</totfact>
</mgrwt>
</event>
<event>
 4    1  0.2621617E-004  0.3951411E+03  0.7818608E-02  0.1045475E+00
          2   -1    0    0  501    0  0.00000000000E+00  0.00000000000E+00  0.81684993083E+03  0.81684993084E+03  0.25500000000E-02 0.  1.
         -2   -1    0    0    0  501 -0.00000000000E+00 -0.00000000000E+00 -0.47786167916E+02  0.47786167984E+02  0.25500000000E-02 0. -1.
    5000001    1    1    2    0    0  0.11684699009E+03  0.47948248025E+02  0.56699005336E+03  0.59460825271E+03  0.12700000000E+03 0.  0.
   -5000001    1    1    2    0    0 -0.11684699009E+03 -0.47948248025E+02  0.20207370956E+03  0.27002784611E+03  0.12700000000E+03 0.  0.
<mgrwt>
<rscale>  0 0.39514113E+03</rscale>
<asrwt>0</asrwt>
<pdfrwt beam="1">  1        2 0.11669285E+00 0.39514113E+03</pdfrwt>
<pdfrwt beam="2">  1       -2 0.68265950E-02 0.39514113E+03</pdfrwt>
<totfact> 0.46306136E+03</totfact>
</mgrwt>
</event>
<event>
 4    1  0.2621617E-004  0.4627847E+03  0.7818608E-02  0.1023977E+00
         -2   -1    0    0    0  501 -0.00000000000E+00  0.00000000000E+00  0.46064087612E+03  0.46064087613E+03  0.25500000000E-02 0. -1.
          2   -1    0    0  501    0  0.00000000000E+00 -0.00000000000E+00 -0.11623462768E+03  0.11623462771E+03  0.25500000000E-02 0.  1.
    5000001    1    1    2    0    0  0.76619993929E+02 -0.42666040748E+02 -0.42701165045E+02  0.16013558005E+03  0.12700000000E+03 0.  0.
   -5000001    1    1    2    0    0 -0.76619993929E+02  0.42666040748E+02  0.38710741349E+03  0.41673992379E+03  0.12700000000E+03 0.  0.
<mgrwt>
<rscale>  0 0.46278470E+03</rscale>
<asrwt>0</asrwt>
<pdfrwt beam="1">  1        2 0.16604947E-01 0.46278470E+03</pdfrwt>
<pdfrwt beam="2">  1       -2 0.65805840E-01 0.46278470E+03</pdfrwt>
<totfact> 0.75741638E+02</totfact>
</mgrwt>
</event>
<event>
 4    1  0.2621617E-004  0.3550618E+03  0.7818608E-02  0.1060556E+00
         -2   -1    0    0    0  501 -0.00000000000E+00  0.00000000000E+00  0.21990674220E+03  0.21990674222E+03  0.25500000000E-02 0. -1.
          2   -1    0    0  501    0  0.00000000000E+00 -0.00000000000E+00 -0.14332085593E+03  0.14332085595E+03  0.25500000000E-02 0.  1.
    5000001    1    1    2    0    0  0.84879495938E+02 -0.33276140714E+02 -0.47762990432E+02  0.16346906015E+03  0.12700000000E+03 0.  0.
   -5000001    1    1    2    0    0 -0.84879495938E+02  0.33276140714E+02  0.12434887671E+03  0.19975853801E+03  0.12700000000E+03 0.  0.
<mgrwt>
<rscale>  0 0.35506181E+03</rscale>
<asrwt>0</asrwt>
<pdfrwt beam="1">  1        2 0.20474408E-01 0.35506181E+03</pdfrwt>
<pdfrwt beam="2">  1       -2 0.31415249E-01 0.35506181E+03</pdfrwt>
<totfact> 0.25520409E+03</totfact>
</mgrwt>
</event>
<event>
 4    1  0.2621617E-004  0.4590049E+03  0.7818608E-02  0.1025070E+00
          2   -1    0    0  501    0  0.00000000000E+00  0.00000000000E+00  0.12370610998E+04  0.12370610998E+04  0.25500000000E-02 0. -1.
         -2   -1    0    0    0  501 -0.00000000000E+00 -0.00000000000E+00 -0.42577828111E+02  0.42577828187E+02  0.25500000000E-02 0.  1.
    5000001    1    1    2    0    0  0.50594929673E+02  0.17806465349E+03  0.73022864706E+03  0.76395663799E+03  0.12700000000E+03 0.  0.
   -5000001    1    1    2    0    0 -0.50594929673E+02 -0.17806465349E+03  0.46425462459E+03  0.51568228997E+03  0.12700000000E+03 0.  0.
<mgrwt>
<rscale>  0 0.45900490E+03</rscale>
<asrwt>0</asrwt>
<pdfrwt beam="1">  1        2 0.17672303E+00 0.45900490E+03</pdfrwt>
<pdfrwt beam="2">  1       -2 0.60825464E-02 0.45900490E+03</pdfrwt>
<totfact> 0.31087238E+03</totfact>
</mgrwt>
</event>
<event>
 4    1  0.2621617E-004  0.3743152E+03  0.7818608E-02  0.1053055E+00
          2   -1    0    0  501    0  0.00000000000E+00  0.00000000000E+00  0.11991827134E+04  0.11991827134E+04  0.25500000000E-02 0.  1.
         -2   -1    0    0    0  501 -0.00000000000E+00 -0.00000000000E+00 -0.29209864414E+02  0.29209864525E+02  0.25500000000E-02 0. -1.
    5000001    1    1    2    0    0 -0.11954704009E+03  0.23697524953E+02  0.37624571690E+03  0.41538284385E+03  0.12700000000E+03 0.  0.
   -5000001    1    1    2    0    0  0.11954704009E+03 -0.23697524953E+02  0.79372713204E+03  0.81300973402E+03  0.12700000000E+03 0.  0.
<mgrwt>
<rscale>  0 0.37431519E+03</rscale>
<asrwt>0</asrwt>
<pdfrwt beam="1">  1        2 0.17131186E+00 0.37431519E+03</pdfrwt>
<pdfrwt beam="2">  1       -2 0.41728366E-02 0.37431519E+03</pdfrwt>
<totfact> 0.58140408E+03</totfact>
</mgrwt>
</event>
<event>
 4    1  0.2621617E-004  0.3681779E+03  0.7818608E-02  0.1055392E+00
          2   -1    0    0  501    0  0.00000000000E+00  0.00000000000E+00  0.32600159811E+02  0.32600159911E+02  0.25500000000E-02 0.  1.
         -2   -1    0    0    0  501 -0.00000000000E+00 -0.00000000000E+00 -0.10395270992E+04  0.10395270992E+04  0.25500000000E-02 0. -1.
    5000001    1    1    2    0    0  0.39592967509E+02  0.11597465958E+03 -0.65594746599E+03  0.67927446800E+03  0.12700000000E+03 0.  0.
   -5000001    1    1    2    0    0 -0.39592967509E+02 -0.11597465958E+03 -0.35097947344E+03  0.39285279115E+03  0.12700000000E+03 0.  0.
<mgrwt>
<rscale>  0 0.36817794E+03</rscale>
<asrwt>0</asrwt>
<pdfrwt beam="1">  1        2 0.46571663E-02 0.36817794E+03</pdfrwt>
<pdfrwt beam="2">  1       -2 0.14850385E+00 0.36817794E+03</pdfrwt>
<totfact> 0.56556431E+02</totfact>
</mgrwt>
</event>
<event>
 4    1  0.2621617E-004  0.3199022E+03  0.7818608E-02  0.1075694E+00
         -2   -1    0    0    0  501 -0.00000000000E+00  0.00000000000E+00  0.33608812355E+03  0.33608812356E+03  0.25500000000E-02 0. -1.
          2   -1    0    0  501    0  0.00000000000E+00 -0.00000000000E+00 -0.76123935206E+02  0.76123935249E+02  0.25500000000E-02 0.  1.
    5000001    1    1    2    0    0  0.87248496640E+02  0.10003772626E+02  0.76186207858E+02  0.17217930741E+03  0.12700000000E+03 0.  0.
   -5000001    1    1    2    0    0 -0.87248496640E+02 -0.10003772626E+02  0.18377798049E+03  0.24003275140E+03  0.12700000000E+03 0.  0.
<mgrwt>
<rscale>  0 0.31990218E+03</rscale>
<asrwt>0</asrwt>
<pdfrwt beam="1">  1        2 0.10874848E-01 0.31990218E+03</pdfrwt>
<pdfrwt beam="2">  1       -2 0.48012589E-01 0.31990218E+03</pdfrwt>
<totfact> 0.24105525E+03</totfact>
</mgrwt>
</event>
<event>
 4    1  0.2621617E-004  0.4114020E+03  0.7818608E-02  0.1039902E+00
          2   -1    0    0  501    0  0.00000000000E+00  0.00000000000E+00  0.18808565299E+04  0.18808565299E+04  0.25500000000E-02 0.  1.
         -2   -1    0    0    0  501 -0.00000000000E+00 -0.00000000000E+00 -0.22496610430E+02  0.22496610574E+02  0.25500000000E-02 0. -1.
    5000001    1    1    2    0    0  0.91819764812E+02 -0.81245444536E+02  0.44060255758E+03  0.47464861235E+03  0.12700000000E+03 0.  0.
   -5000001    1    1    2    0    0 -0.91819764812E+02  0.81245444536E+02  0.14177573619E+04  0.14287045281E+04  0.12700000000E+03 0.  0.
<mgrwt>
<rscale>  0 0.41140198E+03</rscale>
<asrwt>0</asrwt>
<pdfrwt beam="1">  1        2 0.26869380E+00 0.41140198E+03</pdfrwt>
<pdfrwt beam="2">  1       -2 0.32138014E-02 0.41140198E+03</pdfrwt>
<totfact> 0.38546924E+03</totfact>
</mgrwt>
</event>
<event>
 4    1  0.2621617E-004  0.3039951E+03  0.7818608E-02  0.1083260E+00
          2   -1    0    0  501    0  0.00000000000E+00  0.00000000000E+00  0.24431765073E+03  0.24431765075E+03  0.25500000000E-02 0.  1.
         -2   -1    0    0    0  501 -0.00000000000E+00 -0.00000000000E+00 -0.94562335309E+02  0.94562335343E+02  0.25500000000E-02 0. -1.
    5000001    1    1    2    0    0 -0.54067912200E+02 -0.45978890422E+02  0.25817672111E+02  0.14775977019E+03  0.12700000000E+03 0.  0.
   -5000001    1    1    2    0    0  0.54067912200E+02  0.45978890422E+02  0.12393764331E+03  0.19112021590E+03  0.12700000000E+03 0.  0.
<mgrwt>
<rscale>  0 0.30399505E+03</rscale>
<asrwt>0</asrwt>
<pdfrwt beam="1">  1        2 0.34902521E-01 0.30399505E+03</pdfrwt>
<pdfrwt beam="2">  1       -2 0.13508905E-01 0.30399505E+03</pdfrwt>
<totfact> 0.60262125E+03</totfact>
</mgrwt>
</event>
<event>
 4    1  0.2621617E-004  0.4624098E+03  0.7818608E-02  0.1024085E+00
         -2   -1    0    0    0  501 -0.00000000000E+00  0.00000000000E+00  0.75715032669E+02  0.75715032712E+02  0.25500000000E-02 0. -1.
          2   -1    0    0  501    0  0.00000000000E+00 -0.00000000000E+00 -0.70601183760E+03  0.70601183761E+03  0.25500000000E-02 0.  1.
    5000001    1    1    2    0    0  0.13983122403E+03  0.11816057677E+03 -0.41952553645E+03  0.47502144041E+03  0.12700000000E+03 0.  0.
   -5000001    1    1    2    0    0 -0.13983122403E+03 -0.11816057677E+03 -0.21077126849E+03  0.30670542991E+03  0.12700000000E+03 0.  0.
<mgrwt>
<rscale>  0 0.46240982E+03</rscale>
<asrwt>0</asrwt>
<pdfrwt beam="1">  1        2 0.10085883E+00 0.46240982E+03</pdfrwt>
<pdfrwt beam="2">  1       -2 0.10816434E-01 0.46240982E+03</pdfrwt>
<totfact> 0.26740845E+03</totfact>
</mgrwt>
</event>
<event>
 4    1  0.2621617E-004  0.4587648E+03  0.7818608E-02  0.1025140E+00
          2   -1    0    0  501    0  0.00000000000E+00  0.00000000000E+00  0.17018819311E+03  0.17018819313E+03  0.25500000000E-02 0.  1.
         -2   -1    0    0    0  501 -0.00000000000E+00 -0.00000000000E+00 -0.30916530717E+03  0.30916530718E+03  0.25500000000E-02 0. -1.
    5000001    1    1    2    0    0 -0.10897047761E+03 -0.10043410782E+03 -0.19542009328E+03  0.27618759542E+03  0.12700000000E+03 0.  0.
   -5000001    1    1    2    0    0  0.10897047761E+03  0.10043410782E+03  0.56442979223E+02  0.20316590489E+03  0.12700000000E+03 0.  0.
<mgrwt>
<rscale>  0 0.45876480E+03</rscale>
<asrwt>0</asrwt>
<pdfrwt beam="1">  1        2 0.24312599E-01 0.45876480E+03</pdfrwt>
<pdfrwt beam="2">  1       -2 0.44166472E-01 0.45876480E+03</pdfrwt>
<totfact> 0.11001471E+03</totfact>
</mgrwt>
</event>
<event>
 4    1  0.2621617E-004  0.4698665E+03  0.7818608E-02  0.1021958E+00
          2   -1    0    0  501    0  0.00000000000E+00  0.00000000000E+00  0.50781713286E+03  0.50781713286E+03  0.25500000000E-02 0.  1.
         -2   -1    0    0    0  501 -0.00000000000E+00 -0.00000000000E+00 -0.10868799943E+03  0.10868799946E+03  0.25500000000E-02 0. -1.
    5000001    1    1    2    0    0  0.16244767606E+03  0.11254091389E+03  0.20369784554E+03  0.31092847575E+03  0.12700000000E+03 0.  0.
   -5000001    1    1    2    0    0 -0.16244767606E+03 -0.11254091389E+03  0.19543128789E+03  0.30557665657E+03  0.12700000000E+03 0.  0.
<mgrwt>
<rscale>  0 0.46986648E+03</rscale>
<asrwt>0</asrwt>
<pdfrwt beam="1">  1        2 0.72545307E-01 0.46986648E+03</pdfrwt>
<pdfrwt beam="2">  1       -2 0.15526857E-01 0.46986648E+03</pdfrwt>
<totfact> 0.21648768E+03</totfact>
</mgrwt>
</event>
<event>
 4    1  0.2621617E-004  0.2795847E+03  0.7818608E-02  0.1095916E+00
         -2   -1    0    0    0  501 -0.00000000000E+00  0.00000000000E+00  0.96158389019E+01  0.96158392400E+01  0.25500000000E-02 0. -1.
          2   -1    0    0  501    0  0.00000000000E+00 -0.00000000000E+00 -0.20322613497E+04  0.20322613497E+04  0.25500000000E-02 0.  1.
    5000001    1    1    2    0    0  0.97738728770E+01 -0.55900564400E+02 -0.90999520203E+03  0.92056540746E+03  0.12700000000E+03 0.  0.
   -5000001    1    1    2    0    0 -0.97738728770E+01  0.55900564400E+02 -0.11126503088E+04  0.11213117815E+04  0.12700000000E+03 0.  0.
<mgrwt>
<rscale>  0 0.27958468E+03</rscale>
<asrwt>0</asrwt>
<pdfrwt beam="1">  1        2 0.29032278E+00 0.27958468E+03</pdfrwt>
<pdfrwt beam="2">  1       -2 0.13736926E-02 0.27958468E+03</pdfrwt>
<totfact> 0.11435718E+04</totfact>
</mgrwt>
</event>
<event>
 4    1  0.2621617E-004  0.3675230E+03  0.7818608E-02  0.1055644E+00
         -2   -1    0    0    0  501 -0.00000000000E+00  0.00000000000E+00  0.55639848475E+02  0.55639848533E+02  0.25500000000E-02 0. -1.
          2   -1    0    0  501    0  0.00000000000E+00 -0.00000000000E+00 -0.60690826495E+03  0.60690826495E+03  0.25500000000E-02 0.  1.
    5000001    1    1    2    0    0  0.52694587218E+02 -0.87511986316E+02 -0.42864649760E+03  0.45858683711E+03  0.12700000000E+03 0.  0.
   -5000001    1    1    2    0    0 -0.52694587218E+02  0.87511986316E+02 -0.12262191888E+03  0.20396127637E+03  0.12700000000E+03 0.  0.
<mgrwt>
<rscale>  0 0.36752297E+03</rscale>
<asrwt>0</asrwt>
<pdfrwt beam="1">  1        2 0.86701177E-01 0.36752297E+03</pdfrwt>
<pdfrwt beam="2">  1       -2 0.79485501E-02 0.36752297E+03</pdfrwt>
<totfact> 0.52145060E+03</totfact>
</mgrwt>
</event>
<event>
 4    1  0.2621617E-004  0.6067436E+03  0.7818608E-02  0.9891513E-01
         -2   -1    0    0    0  501 -0.00000000000E+00  0.00000000000E+00  0.57927209049E+02  0.57927209105E+02  0.25500000000E-02 0. -1.
          2   -1    0    0  501    0  0.00000000000E+00 -0.00000000000E+00 -0.15887946302E+04  0.15887946302E+04  0.25500000000E-02 0.  1.
    5000001    1    1    2    0    0 -0.26323350911E+03 -0.72557243164E+02 -0.66575054408E+03  0.73069092015E+03  0.12700000000E+03 0.  0.
   -5000001    1    1    2    0    0  0.26323350911E+03  0.72557243164E+02 -0.86511687708E+03  0.91603091916E+03  0.12700000000E+03 0.  0.
<mgrwt>
<rscale>  0 0.60674357E+03</rscale>
<asrwt>0</asrwt>
<pdfrwt beam="1">  1        2 0.22697063E+00 0.60674357E+03</pdfrwt>
<pdfrwt beam="2">  1       -2 0.82753166E-02 0.60674357E+03</pdfrwt>
<totfact> 0.12426436E+03</totfact>
</mgrwt>
</event>
<event>
 4    1  0.2621617E-004  0.3520793E+03  0.7818608E-02  0.1061765E+00
          2   -1    0    0  501    0  0.00000000000E+00  0.00000000000E+00  0.18072221530E+03  0.18072221532E+03  0.25500000000E-02 0. -1.
         -2   -1    0    0    0  501 -0.00000000000E+00 -0.00000000000E+00 -0.17147845953E+03  0.17147845955E+03  0.25500000000E-02 0.  1.
    5000001    1    1    2    0    0  0.91684141759E+02  0.79101468275E+02  0.18695946256E+02  0.17646972131E+03  0.12700000000E+03 0.  0.
   -5000001    1    1    2    0    0 -0.91684141759E+02 -0.79101468275E+02 -0.94521904887E+01  0.17573095356E+03  0.12700000000E+03 0.  0.
<mgrwt>
<rscale>  0 0.35207935E+03</rscale>
<asrwt>0</asrwt>
<pdfrwt beam="1">  1        2 0.25817459E-01 0.35207935E+03</pdfrwt>
<pdfrwt beam="2">  1       -2 0.24496923E-01 0.35207935E+03</pdfrwt>
<totfact> 0.30708910E+03</totfact>
</mgrwt>
</event>
<event>
 4    1  0.2621617E-004  0.5129767E+03  0.7818608E-02  0.1010446E+00
         -2   -1    0    0    0  501 -0.00000000000E+00  0.00000000000E+00  0.45553398810E+02  0.45553398881E+02  0.25500000000E-02 0. -1.
          2   -1    0    0  501    0  0.00000000000E+00 -0.00000000000E+00 -0.14441575456E+04  0.14441575456E+04  0.25500000000E-02 0.  1.
    5000001    1    1    2    0    0  0.19077615284E+03 -0.10894345328E+03 -0.59091174879E+03  0.64309401441E+03  0.12700000000E+03 0.  0.
   -5000001    1    1    2    0    0 -0.19077615284E+03  0.10894345328E+03 -0.80769239798E+03  0.84661693006E+03  0.12700000000E+03 0.  0.
<mgrwt>
<rscale>  0 0.51297674E+03</rscale>
<asrwt>0</asrwt>
<pdfrwt beam="1">  1        2 0.20630819E+00 0.51297674E+03</pdfrwt>
<pdfrwt beam="2">  1       -2 0.65076293E-02 0.51297674E+03</pdfrwt>
<totfact> 0.21666792E+03</totfact>
</mgrwt>
</event>
<event>
 4    1  0.2621617E-004  0.4342660E+03  0.7818608E-02  0.1032521E+00
          2   -1    0    0  501    0  0.00000000000E+00  0.00000000000E+00  0.35983279358E+03  0.35983279359E+03  0.25500000000E-02 0.  1.
         -2   -1    0    0    0  501 -0.00000000000E+00 -0.00000000000E+00 -0.13102399180E+03  0.13102399182E+03  0.25500000000E-02 0. -1.
    5000001    1    1    2    0    0  0.14033494751E+03  0.65518700748E+02  0.20918329252E+03  0.28960878355E+03  0.12700000000E+03 0.  0.
   -5000001    1    1    2    0    0 -0.14033494751E+03 -0.65518700748E+02  0.19625509260E+02  0.20124800186E+03  0.12700000000E+03 0.  0.
<mgrwt>
<rscale>  0 0.43426595E+03</rscale>
<asrwt>0</asrwt>
<pdfrwt beam="1">  1        2 0.51404685E-01 0.43426595E+03</pdfrwt>
<pdfrwt beam="2">  1       -2 0.18717713E-01 0.43426595E+03</pdfrwt>
<totfact> 0.23082808E+03</totfact>
</mgrwt>
</event>
<event>
 4    1  0.2621617E-004  0.4211037E+03  0.7818608E-02  0.1036708E+00
         -2   -1    0    0    0  501 -0.00000000000E+00  0.00000000000E+00  0.30420506336E+02  0.30420506443E+02  0.25500000000E-02 0.  1.
          2   -1    0    0  501    0  0.00000000000E+00 -0.00000000000E+00 -0.14573088415E+04  0.14573088415E+04  0.25500000000E-02 0. -1.
    5000001    1    1    2    0    0  0.12851489246E+03  0.49667544101E+02 -0.37420698557E+03  0.41850066973E+03  0.12700000000E+03 0.  0.
   -5000001    1    1    2    0    0 -0.12851489246E+03 -0.49667544101E+02 -0.10526813496E+04  0.10692286782E+04  0.12700000000E+03 0.  0.
<mgrwt>
<rscale>  0 0.42110366E+03</rscale>
<asrwt>0</asrwt>
<pdfrwt beam="1">  1        2 0.20818693E+00 0.42110366E+03</pdfrwt>
<pdfrwt beam="2">  1       -2 0.43457875E-02 0.42110366E+03</pdfrwt>
<totfact> 0.39867320E+03</totfact>
</mgrwt>
</event>
<event>
 4    1  0.2621617E-004  0.3732294E+03  0.7818608E-02  0.1053465E+00
         -2   -1    0    0    0  501 -0.00000000000E+00  0.00000000000E+00  0.68742482344E+02  0.68742482392E+02  0.25500000000E-02 0. -1.
          2   -1    0    0  501    0  0.00000000000E+00 -0.00000000000E+00 -0.50660163047E+03  0.50660163048E+03  0.25500000000E-02 0.  1.
    5000001    1    1    2    0    0 -0.69167853694E+02 -0.94416304558E+02 -0.10995508514E+03  0.20473825070E+03  0.12700000000E+03 0.  0.
   -5000001    1    1    2    0    0  0.69167853694E+02  0.94416304558E+02 -0.32790406299E+03  0.37060586217E+03  0.12700000000E+03 0.  0.
<mgrwt>
<rscale>  0 0.37322944E+03</rscale>
<asrwt>0</asrwt>
<pdfrwt beam="1">  1        2 0.72371659E-01 0.37322944E+03</pdfrwt>
<pdfrwt beam="2">  1       -2 0.98203549E-02 0.37322944E+03</pdfrwt>
<totfact> 0.45813494E+03</totfact>
</mgrwt>
</event>
<event>
 4    1  0.2621617E-004  0.4900833E+03  0.7818608E-02  0.1016400E+00
         -2   -1    0    0    0  501 -0.00000000000E+00  0.00000000000E+00  0.37799190484E+02  0.37799190570E+02  0.25500000000E-02 0. -1.
          2   -1    0    0  501    0  0.00000000000E+00 -0.00000000000E+00 -0.15885368331E+04  0.15885368331E+04  0.25500000000E-02 0.  1.
    5000001    1    1    2    0    0 -0.12707478861E+03 -0.15955924036E+03 -0.61589985422E+03  0.66111177838E+03  0.12700000000E+03 0.  0.
   -5000001    1    1    2    0    0  0.12707478861E+03  0.15955924036E+03 -0.93483778837E+03  0.96522424526E+03  0.12700000000E+03 0.  0.
<mgrwt>
<rscale>  0 0.49008328E+03</rscale>
<asrwt>0</asrwt>
<pdfrwt beam="1">  1        2 0.22693379E+00 0.49008328E+03</pdfrwt>
<pdfrwt beam="2">  1       -2 0.53998854E-02 0.49008328E+03</pdfrwt>
<totfact> 0.24418206E+03</totfact>
</mgrwt>
</event>
<event>
 4    1  0.2621617E-004  0.6389771E+03  0.7818608E-02  0.9827686E-01
          2   -1    0    0  501    0  0.00000000000E+00  0.00000000000E+00  0.30616035320E+03  0.30616035321E+03  0.25500000000E-02 0.  1.
         -2   -1    0    0    0  501 -0.00000000000E+00 -0.00000000000E+00 -0.33339694327E+03  0.33339694327E+03  0.25500000000E-02 0. -1.
    5000001    1    1    2    0    0 -0.24788815530E+03  0.52606894123E+02  0.13391943182E+03  0.31349551363E+03  0.12700000000E+03 0.  0.
   -5000001    1    1    2    0    0  0.24788815530E+03 -0.52606894123E+02 -0.16115602189E+03  0.32606178285E+03  0.12700000000E+03 0.  0.
<mgrwt>
<rscale>  0 0.63897708E+03</rscale>
<asrwt>0</asrwt>
<pdfrwt beam="1">  1        2 0.43737193E-01 0.63897708E+03</pdfrwt>
<pdfrwt beam="2">  1       -2 0.47628135E-01 0.63897708E+03</pdfrwt>
<totfact> 0.49082766E+02</totfact>
</mgrwt>
</event>
<event>
 4    1  0.2621617E-004  0.7550788E+03  0.7818608E-02  0.9627416E-01
         -2   -1    0    0    0  501 -0.00000000000E+00  0.00000000000E+00  0.49966143908E+02  0.49966143974E+02  0.25500000000E-02 0. -1.
          2   -1    0    0  501    0  0.00000000000E+00 -0.00000000000E+00 -0.28526517951E+04  0.28526517951E+04  0.25500000000E-02 0.  1.
    5000001    1    1    2    0    0 -0.33640630887E+03 -0.11158929852E+03 -0.15090904540E+04  0.15553470270E+04  0.12700000000E+03 0.  0.
   -5000001    1    1    2    0    0  0.33640630887E+03  0.11158929852E+03 -0.12935951972E+04  0.13472709120E+04  0.12700000000E+03 0.  0.
<mgrwt>
<rscale>  0 0.75507883E+03</rscale>
<asrwt>0</asrwt>
<pdfrwt beam="1">  1        2 0.40752158E+00 0.75507883E+03</pdfrwt>
<pdfrwt beam="2">  1       -2 0.71380223E-02 0.75507883E+03</pdfrwt>
<totfact> 0.35032077E+02</totfact>
</mgrwt>
</event>
<event>
 4    1  0.2621617E-004  0.3082341E+03  0.7818608E-02  0.1081195E+00
         -2   -1    0    0    0  501 -0.00000000000E+00  0.00000000000E+00  0.16136181722E+02  0.16136181924E+02  0.25500000000E-02 0. -1.
          2   -1    0    0  501    0  0.00000000000E+00 -0.00000000000E+00 -0.14719758967E+04  0.14719758967E+04  0.25500000000E-02 0.  1.
    5000001    1    1    2    0    0 -0.54035190536E+02 -0.68028741396E+02 -0.76983038821E+03  0.78505766545E+03  0.12700000000E+03 0.  0.
   -5000001    1    1    2    0    0  0.54035190536E+02  0.68028741396E+02 -0.68600932678E+03  0.70305441319E+03  0.12700000000E+03 0.  0.
<mgrwt>
<rscale>  0 0.30823414E+03</rscale>
<asrwt>0</asrwt>
<pdfrwt beam="1">  1        2 0.21028219E+00 0.30823414E+03</pdfrwt>
<pdfrwt beam="2">  1       -2 0.23051698E-02 0.30823414E+03</pdfrwt>
<totfact> 0.10129104E+04</totfact>
</mgrwt>
</event>
<event>
 4    1  0.2621617E-004  0.3270470E+03  0.7818608E-02  0.1072451E+00
          2   -1    0    0  501    0  0.00000000000E+00  0.00000000000E+00  0.68948136961E+03  0.68948136961E+03  0.25500000000E-02 0.  1.
         -2   -1    0    0    0  501 -0.00000000000E+00 -0.00000000000E+00 -0.38782679569E+02  0.38782679653E+02  0.25500000000E-02 0. -1.
    5000001    1    1    2    0    0 -0.10284661007E+03  0.11105889202E+01  0.33800024911E+03  0.37543551644E+03  0.12700000000E+03 0.  0.
   -5000001    1    1    2    0    0  0.10284661007E+03 -0.11105889202E+01  0.31269844093E+03  0.35282853282E+03  0.12700000000E+03 0.  0.
<mgrwt>
<rscale>  0 0.32704700E+03</rscale>
<asrwt>0</asrwt>
<pdfrwt beam="1">  1        2 0.98497331E-01 0.32704700E+03</pdfrwt>
<pdfrwt beam="2">  1       -2 0.55403832E-02 0.32704700E+03</pdfrwt>
<totfact> 0.78417823E+03</totfact>
</mgrwt>
</event>
<event>
 4    1  0.2621617E-004  0.9220475E+03  0.7818608E-02  0.9398433E-01
          2   -1    0    0  501    0  0.00000000000E+00  0.00000000000E+00  0.63219169222E+03  0.63219169222E+03  0.25500000000E-02 0.  1.
         -2   -1    0    0    0  501 -0.00000000000E+00 -0.00000000000E+00 -0.33620009360E+03  0.33620009360E+03  0.25500000000E-02 0. -1.
    5000001    1    1    2    0    0  0.32316546185E+03  0.16668318442E+03 -0.11810574965E+03  0.40286122649E+03  0.12700000000E+03 0.  0.
   -5000001    1    1    2    0    0 -0.32316546185E+03 -0.16668318442E+03  0.41409734827E+03  0.56553055934E+03  0.12700000000E+03 0.  0.
<mgrwt>
<rscale>  0 0.92204752E+03</rscale>
<asrwt>0</asrwt>
<pdfrwt beam="1">  1        2 0.90313098E-01 0.92204752E+03</pdfrwt>
<pdfrwt beam="2">  1       -2 0.48028585E-01 0.92204752E+03</pdfrwt>
<totfact> 0.20968034E+02</totfact>
</mgrwt>
</event>
<event>
 4    1  0.2621617E-004  0.3212422E+03  0.7818608E-02  0.1075079E+00
         -2   -1    0    0    0  501 -0.00000000000E+00  0.00000000000E+00  0.25792030855E+02  0.25792030981E+02  0.25500000000E-02 0. -1.
          2   -1    0    0  501    0  0.00000000000E+00 -0.00000000000E+00 -0.10002756930E+04  0.10002756930E+04  0.25500000000E-02 0.  1.
    5000001    1    1    2    0    0 -0.96630199962E+02  0.91751059010E+01 -0.43688457323E+03  0.46520824201E+03  0.12700000000E+03 0.  0.
   -5000001    1    1    2    0    0  0.96630199962E+02 -0.91751059010E+01 -0.53759908894E+03  0.56085948199E+03  0.12700000000E+03 0.  0.
<mgrwt>
<rscale>  0 0.32124222E+03</rscale>
<asrwt>0</asrwt>
<pdfrwt beam="1">  1        2 0.14289650E+00 0.32124222E+03</pdfrwt>
<pdfrwt beam="2">  1       -2 0.36845765E-02 0.32124222E+03</pdfrwt>
<totfact> 0.90848345E+03</totfact>
</mgrwt>
</event>
<event>
 4    1  0.2621617E-004  0.5204125E+03  0.7818608E-02  0.1008584E+00
          2   -1    0    0  501    0  0.00000000000E+00  0.00000000000E+00  0.13230957914E+04  0.13230957914E+04  0.25500000000E-02 0.  1.
         -2   -1    0    0    0  501 -0.00000000000E+00 -0.00000000000E+00 -0.51173377220E+02  0.51173377284E+02  0.25500000000E-02 0. -1.
    5000001    1    1    2    0    0 -0.12876299352E+03  0.76275594504E+02  0.10870580455E+04  0.11046366231E+04  0.12700000000E+03 0.  0.
   -5000001    1    1    2    0    0  0.12876299352E+03 -0.76275594504E+02  0.18486436861E+03  0.26963254551E+03  0.12700000000E+03 0.  0.
<mgrwt>
<rscale>  0 0.52041245E+03</rscale>
<asrwt>0</asrwt>
<pdfrwt beam="1">  1        2 0.18901369E+00 0.52041245E+03</pdfrwt>
<pdfrwt beam="2">  1       -2 0.73104824E-02 0.52041245E+03</pdfrwt>
<totfact> 0.20912842E+03</totfact>
</mgrwt>
</event>
<event>
 4    1  0.2621617E-004  0.6255140E+03  0.7818608E-02  0.9853842E-01
         -2   -1    0    0    0  501 -0.00000000000E+00  0.00000000000E+00  0.64465400257E+02  0.64465400308E+02  0.25500000000E-02 0. -1.
          2   -1    0    0  501    0  0.00000000000E+00 -0.00000000000E+00 -0.15173556708E+04  0.15173556708E+04  0.25500000000E-02 0.  1.
    5000001    1    1    2    0    0  0.23585417013E+02  0.27678755786E+03 -0.55642328026E+03  0.63474679274E+03  0.12700000000E+03 0.  0.
   -5000001    1    1    2    0    0 -0.23585417013E+02 -0.27678755786E+03 -0.89646699028E+03  0.94707427836E+03  0.12700000000E+03 0.  0.
<mgrwt>
<rscale>  0 0.62551400E+03</rscale>
<asrwt>0</asrwt>
<pdfrwt beam="1">  1        2 0.21676507E+00 0.62551400E+03</pdfrwt>
<pdfrwt beam="2">  1       -2 0.92093438E-02 0.62551400E+03</pdfrwt>
<totfact> 0.11388617E+03</totfact>
</mgrwt>
</event>
<event>
 4    1  0.2621617E-004  0.4069745E+03  0.7818608E-02  0.1041391E+00
          2   -1    0    0  501    0  0.00000000000E+00  0.00000000000E+00  0.20120189794E+04  0.20120189794E+04  0.25500000000E-02 0.  1.
         -2   -1    0    0    0  501 -0.00000000000E+00 -0.00000000000E+00 -0.20579859999E+02  0.20579860157E+02  0.25500000000E-02 0. -1.
    5000001    1    1    2    0    0 -0.74496304056E+02  0.10116714262E+03  0.14823501623E+04  0.14930758499E+04  0.12700000000E+03 0.  0.
   -5000001    1    1    2    0    0  0.74496304056E+02 -0.10116714262E+03  0.50908895715E+03  0.53952298965E+03  0.12700000000E+03 0.  0.
<mgrwt>
<rscale>  0 0.40697454E+03</rscale>
<asrwt>0</asrwt>
<pdfrwt beam="1">  1        2 0.28743146E+00 0.40697454E+03</pdfrwt>
<pdfrwt beam="2">  1       -2 0.29399782E-02 0.40697454E+03</pdfrwt>
<totfact> 0.37959579E+03</totfact>
</mgrwt>
</event>
<event>
 4    1  0.2621617E-004  0.7823895E+03  0.7818608E-02  0.9585863E-01
          2   -1    0    0  501    0  0.00000000000E+00  0.00000000000E+00  0.56722266355E+03  0.56722266356E+03  0.25500000000E-02 0.  1.
         -2   -1    0    0    0  501 -0.00000000000E+00 -0.00000000000E+00 -0.26979409242E+03  0.26979409244E+03  0.25500000000E-02 0. -1.
    5000001    1    1    2    0    0  0.30646708334E+03  0.16958569728E+03  0.27630112167E+03  0.46384554728E+03  0.12700000000E+03 0.  0.
   -5000001    1    1    2    0    0 -0.30646708334E+03 -0.16958569728E+03  0.21127449459E+02  0.37317120872E+03  0.12700000000E+03 0.  0.
<mgrwt>
<rscale>  0 0.78238948E+03</rscale>
<asrwt>0</asrwt>
<pdfrwt beam="1">  1        2 0.81031809E-01 0.78238948E+03</pdfrwt>
<pdfrwt beam="2">  1       -2 0.38542013E-01 0.78238948E+03</pdfrwt>
<totfact> 0.37058728E+02</totfact>
</mgrwt>
</event>
<event>
 4    1  0.2621617E-004  0.3551461E+03  0.7818608E-02  0.1060522E+00
          2   -1    0    0  501    0  0.00000000000E+00  0.00000000000E+00  0.66184020782E+03  0.66184020783E+03  0.25500000000E-02 0.  1.
         -2   -1    0    0    0  501 -0.00000000000E+00 -0.00000000000E+00 -0.47643209515E+02  0.47643209583E+02  0.25500000000E-02 0. -1.
    5000001    1    1    2    0    0  0.12334363191E+03 -0.13735769631E+02  0.30896057906E+03  0.35635370394E+03  0.12700000000E+03 0.  0.
   -5000001    1    1    2    0    0 -0.12334363191E+03  0.13735769631E+02  0.30523641925E+03  0.35312971347E+03  0.12700000000E+03 0.  0.
<mgrwt>
<rscale>  0 0.35514612E+03</rscale>
<asrwt>0</asrwt>
<pdfrwt beam="1">  1        2 0.94548606E-01 0.35514612E+03</pdfrwt>
<pdfrwt beam="2">  1       -2 0.68061725E-02 0.35514612E+03</pdfrwt>
<totfact> 0.60025003E+03</totfact>
</mgrwt>
</event>
<event>
 4    1  0.2621617E-004  0.3236455E+03  0.7818608E-02  0.1073984E+00
          2   -1    0    0  501    0  0.00000000000E+00  0.00000000000E+00  0.28180281757E+02  0.28180281873E+02  0.25500000000E-02 0.  1.
         -2   -1    0    0    0  501 -0.00000000000E+00 -0.00000000000E+00 -0.92925269790E+03  0.92925269790E+03  0.25500000000E-02 0. -1.
    5000001    1    1    2    0    0  0.35146895728E+01  0.10003612855E+03 -0.46877773249E+03  0.49588420275E+03  0.12700000000E+03 0.  0.
   -5000001    1    1    2    0    0 -0.35146895728E+01 -0.10003612855E+03 -0.43229468365E+03  0.46154877702E+03  0.12700000000E+03 0.  0.
<mgrwt>
<rscale>  0 0.32364550E+03</rscale>
<asrwt>0</asrwt>
<pdfrwt beam="1">  1        2 0.40257551E-02 0.32364550E+03</pdfrwt>
<pdfrwt beam="2">  1       -2 0.13275037E+00 0.32364550E+03</pdfrwt>
<totfact> 0.91400945E+02</totfact>
</mgrwt>
</event>
<event>
 4    1  0.2621617E-004  0.5515294E+03  0.7818608E-02  0.1001141E+00
         -2   -1    0    0    0  501 -0.00000000000E+00  0.00000000000E+00  0.20404238816E+03  0.20404238817E+03  0.25500000000E-02 0. -1.
          2   -1    0    0  501    0  0.00000000000E+00 -0.00000000000E+00 -0.37269789990E+03  0.37269789991E+03  0.25500000000E-02 0.  1.
    5000001    1    1    2    0    0  0.15590384798E+03 -0.18484060808E+03 -0.44575481782E+02  0.27674543138E+03  0.12700000000E+03 0.  0.
   -5000001    1    1    2    0    0 -0.15590384798E+03  0.18484060808E+03 -0.12408002996E+03  0.29999485670E+03  0.12700000000E+03 0.  0.
<mgrwt>
<rscale>  0 0.55152940E+03</rscale>
<asrwt>0</asrwt>
<pdfrwt beam="1">  1        2 0.53242557E-01 0.55152940E+03</pdfrwt>
<pdfrwt beam="2">  1       -2 0.29148913E-01 0.55152940E+03</pdfrwt>
<totfact> 0.10141240E+03</totfact>
</mgrwt>
</event>
<event>
 4    1  0.2621617E-004  0.3286942E+03  0.7818608E-02  0.1071716E+00
          2   -1    0    0  501    0  0.00000000000E+00  0.00000000000E+00  0.35204009148E+03  0.35204009149E+03  0.25500000000E-02 0.  1.
         -2   -1    0    0    0  501 -0.00000000000E+00 -0.00000000000E+00 -0.76724140232E+02  0.76724140275E+02  0.25500000000E-02 0. -1.
    5000001    1    1    2    0    0  0.41357899744E+02 -0.78053580443E+02  0.21002994351E+03  0.26085324315E+03  0.12700000000E+03 0.  0.
   -5000001    1    1    2    0    0 -0.41357899744E+02  0.78053580443E+02  0.65286007740E+02  0.16791098862E+03  0.12700000000E+03 0.  0.
<mgrwt>
<rscale>  0 0.32869422E+03</rscale>
<asrwt>0</asrwt>
<pdfrwt beam="1">  1        2 0.50291442E-01 0.32869422E+03</pdfrwt>
<pdfrwt beam="2">  1       -2 0.10960591E-01 0.32869422E+03</pdfrwt>
<totfact> 0.57094168E+03</totfact>
</mgrwt>
</event>
<event>
 4    1  0.2621617E-004  0.4781411E+03  0.7818608E-02  0.1019647E+00
          2   -1    0    0  501    0  0.00000000000E+00  0.00000000000E+00  0.10721695356E+04  0.10721695356E+04  0.25500000000E-02 0.  1.
         -2   -1    0    0    0  501 -0.00000000000E+00 -0.00000000000E+00 -0.53307543115E+02  0.53307543176E+02  0.25500000000E-02 0. -1.
    5000001    1    1    2    0    0 -0.44496307778E+02  0.97134088604E+02  0.91447802737E+03  0.92941595377E+03  0.12700000000E+03 0.  0.
   -5000001    1    1    2    0    0  0.44496307778E+02 -0.97134088604E+02  0.10438396515E+03  0.19606112505E+03  0.12700000000E+03 0.  0.
<mgrwt>
<rscale>  0 0.47814108E+03</rscale>
<asrwt>0</asrwt>
<pdfrwt beam="1">  1        2 0.15316708E+00 0.47814108E+03</pdfrwt>
<pdfrwt beam="2">  1       -2 0.76153631E-02 0.47814108E+03</pdfrwt>
<totfact> 0.27077530E+03</totfact>
</mgrwt>
</event>
<event>
 4    1  0.2621617E-004  0.3578055E+03  0.7818608E-02  0.1059456E+00
         -2   -1    0    0    0  501 -0.00000000000E+00  0.00000000000E+00  0.79441498589E+02  0.79441498629E+02  0.25500000000E-02 0. -1.
          2   -1    0    0  501    0  0.00000000000E+00 -0.00000000000E+00 -0.40289006605E+03  0.40289006605E+03  0.25500000000E-02 0.  1.
    5000001    1    1    2    0    0 -0.85247907858E+02  0.85090997980E+02 -0.11183803982E+03  0.20771237537E+03  0.12700000000E+03 0.  0.
   -5000001    1    1    2    0    0  0.85247907858E+02 -0.85090997980E+02 -0.21161052764E+03  0.27461918931E+03  0.12700000000E+03 0.  0.
<mgrwt>
<rscale>  0 0.35780548E+03</rscale>
<asrwt>0</asrwt>
<pdfrwt beam="1">  1        2 0.57555723E-01 0.35780548E+03</pdfrwt>
<pdfrwt beam="2">  1       -2 0.11348786E-01 0.35780548E+03</pdfrwt>
<totfact> 0.46712875E+03</totfact>
</mgrwt>
</event>
<event>
 4    1  0.2621617E-004  0.3797787E+03  0.7818608E-02  0.1051016E+00
          2   -1    0    0  501    0  0.00000000000E+00  0.00000000000E+00  0.38232857545E+03  0.38232857546E+03  0.25500000000E-02 0.  1.
         -2   -1    0    0    0  501 -0.00000000000E+00 -0.00000000000E+00 -0.94311474499E+02  0.94311474534E+02  0.25500000000E-02 0. -1.
    5000001    1    1    2    0    0 -0.11385597092E+03 -0.41928318864E+02  0.23457915653E+03  0.29304871049E+03  0.12700000000E+03 0.  0.
   -5000001    1    1    2    0    0  0.11385597092E+03  0.41928318864E+02  0.53437944415E+02  0.18359133950E+03  0.12700000000E+03 0.  0.
<mgrwt>
<rscale>  0 0.37977873E+03</rscale>
<asrwt>0</asrwt>
<pdfrwt beam="1">  1        2 0.54618367E-01 0.37977873E+03</pdfrwt>
<pdfrwt beam="2">  1       -2 0.13473068E-01 0.37977873E+03</pdfrwt>
<totfact> 0.37436289E+03</totfact>
</mgrwt>
</event>
<event>
 4    1  0.2621617E-004  0.6365907E+03  0.7818608E-02  0.9832271E-01
         -2   -1    0    0    0  501 -0.00000000000E+00  0.00000000000E+00  0.24433455971E+03  0.24433455972E+03  0.25500000000E-02 0. -1.
          2   -1    0    0  501    0  0.00000000000E+00 -0.00000000000E+00 -0.41464433672E+03  0.41464433673E+03  0.25500000000E-02 0.  1.
    5000001    1    1    2    0    0  0.11101237915E+03  0.22363405225E+03 -0.24162299218E+03  0.36992784161E+03  0.12700000000E+03 0.  0.
   -5000001    1    1    2    0    0 -0.11101237915E+03 -0.22363405225E+03  0.71313215162E+02  0.28905105485E+03  0.12700000000E+03 0.  0.
<mgrwt>
<rscale>  0 0.63659074E+03</rscale>
<asrwt>0</asrwt>
<pdfrwt beam="1">  1        2 0.59234905E-01 0.63659074E+03</pdfrwt>
<pdfrwt beam="2">  1       -2 0.34904937E-01 0.63659074E+03</pdfrwt>
<totfact> 0.64298836E+02</totfact>
</mgrwt>
</event>
<event>
 4    1  0.2621617E-004  0.6455270E+03  0.7818608E-02  0.9815209E-01
          2   -1    0    0  501    0  0.00000000000E+00  0.00000000000E+00  0.11396189039E+04  0.11396189039E+04  0.25500000000E-02 0.  1.
         -2   -1    0    0    0  501 -0.00000000000E+00 -0.00000000000E+00 -0.91413254153E+02  0.91413254188E+02  0.25500000000E-02 0. -1.
    5000001    1    1    2    0    0 -0.23124998775E+03 -0.18475563097E+03  0.56392585984E+03  0.64942480350E+03  0.12700000000E+03 0.  0.
   -5000001    1    1    2    0    0  0.23124998775E+03  0.18475563097E+03  0.48427978994E+03  0.58160735462E+03  0.12700000000E+03 0.  0.
<mgrwt>
<rscale>  0 0.64552699E+03</rscale>
<asrwt>0</asrwt>
<pdfrwt beam="1">  1        2 0.16280269E+00 0.64552699E+03</pdfrwt>
<pdfrwt beam="2">  1       -2 0.13059037E-01 0.64552699E+03</pdfrwt>
<totfact> 0.10308630E+03</totfact>
</mgrwt>
</event>
<event>
 4    1  0.2621617E-004  0.4411629E+03  0.7818608E-02  0.1030391E+00
         -2   -1    0    0    0  501 -0.00000000000E+00  0.00000000000E+00  0.99023625324E+02  0.99023625357E+02  0.25500000000E-02 0. -1.
          2   -1    0    0  501    0  0.00000000000E+00 -0.00000000000E+00 -0.49135924309E+03  0.49135924310E+03  0.25500000000E-02 0.  1.
    5000001    1    1    2    0    0 -0.10585313661E+03  0.13859537543E+03 -0.13464344991E+03  0.25430576718E+03  0.12700000000E+03 0.  0.
   -5000001    1    1    2    0    0  0.10585313661E+03 -0.13859537543E+03 -0.25769216786E+03  0.33607710127E+03  0.12700000000E+03 0.  0.
<mgrwt>
<rscale>  0 0.44116289E+03</rscale>
<asrwt>0</asrwt>
<pdfrwt beam="1">  1        2 0.70194176E-01 0.44116289E+03</pdfrwt>
<pdfrwt beam="2">  1       -2 0.14146232E-01 0.44116289E+03</pdfrwt>
<totfact> 0.26234217E+03</totfact>
</mgrwt>
</event>
<event>
 4    1  0.2621617E-004  0.6202826E+03  0.7818608E-02  0.9864197E-01
         -2   -1    0    0    0  501 -0.00000000000E+00  0.00000000000E+00  0.44114751726E+02  0.44114751800E+02  0.25500000000E-02 0. -1.
          2   -1    0    0  501    0  0.00000000000E+00 -0.00000000000E+00 -0.21803957064E+04  0.21803957064E+04  0.25500000000E-02 0.  1.
    5000001    1    1    2    0    0 -0.34075080008E+02  0.43021165972E+01 -0.20753633152E+04  0.20795291557E+04  0.12700000000E+03 0.  0.
   -5000001    1    1    2    0    0  0.34075080008E+02 -0.43021165972E+01 -0.60917639510E+02  0.14498130255E+03  0.12700000000E+03 0.  0.
<mgrwt>
<rscale>  0 0.62028257E+03</rscale>
<asrwt>0</asrwt>
<pdfrwt beam="1">  1        2 0.31148503E+00 0.62028257E+03</pdfrwt>
<pdfrwt beam="2">  1       -2 0.63021088E-02 0.62028257E+03</pdfrwt>
<totfact> 0.96029995E+02</totfact>
</mgrwt>
</event>
<event>
 4    1  0.2621617E-004  0.3461617E+03  0.7818608E-02  0.1064202E+00
          2   -1    0    0  501    0  0.00000000000E+00  0.00000000000E+00  0.72514521349E+03  0.72514521350E+03  0.25500000000E-02 0.  1.
         -2   -1    0    0    0  501 -0.00000000000E+00 -0.00000000000E+00 -0.41311710405E+02  0.41311710483E+02  0.25500000000E-02 0. -1.
    5000001    1    1    2    0    0 -0.11177143906E+03  0.31469637165E+02  0.30080272030E+03  0.34654648922E+03  0.12700000000E+03 0.  0.
   -5000001    1    1    2    0    0  0.11177143906E+03 -0.31469637165E+02  0.38303078279E+03  0.41991043476E+03  0.12700000000E+03 0.  0.
<mgrwt>
<rscale>  0 0.34616175E+03</rscale>
<asrwt>0</asrwt>
<pdfrwt beam="1">  1        2 0.10359218E+00 0.34616175E+03</pdfrwt>
<pdfrwt beam="2">  1       -2 0.59016727E-02 0.34616175E+03</pdfrwt>
<totfact> 0.67080278E+03</totfact>
</mgrwt>
</event>
<event>
 4    1  0.2621617E-004  0.3206211E+03  0.7818608E-02  0.1075364E+00
          2   -1    0    0  501    0  0.00000000000E+00  0.00000000000E+00  0.45002513613E+03  0.45002513613E+03  0.25500000000E-02 0.  1.
         -2   -1    0    0    0  501 -0.00000000000E+00 -0.00000000000E+00 -0.57106764842E+02  0.57106764899E+02  0.25500000000E-02 0. -1.
    5000001    1    1    2    0    0 -0.47111181530E+02  0.55485425723E+01  0.61130105429E+02  0.14871496071E+03  0.12700000000E+03 0.  0.
   -5000001    1    1    2    0    0  0.47111181530E+02 -0.55485425723E+01  0.33178826586E+03  0.35841694032E+03  0.12700000000E+03 0.  0.
<mgrwt>
<rscale>  0 0.32062114E+03</rscale>
<asrwt>0</asrwt>
<pdfrwt beam="1">  1        2 0.64289306E-01 0.32062114E+03</pdfrwt>
<pdfrwt beam="2">  1       -2 0.81581092E-02 0.32062114E+03</pdfrwt>
<totfact> 0.69809643E+03</totfact>
</mgrwt>
</event>
<event>
 4    1  0.2621617E-004  0.8075262E+03  0.7818608E-02  0.9549187E-01
         -2   -1    0    0    0  501 -0.00000000000E+00  0.00000000000E+00  0.36643773459E+03  0.36643773460E+03  0.25500000000E-02 0. -1.
          2   -1    0    0  501    0  0.00000000000E+00 -0.00000000000E+00 -0.44489037753E+03  0.44489037754E+03  0.25500000000E-02 0.  1.
    5000001    1    1    2    0    0 -0.36813128848E+03 -0.98682450929E+02 -0.79873570385E+02  0.40959450548E+03  0.12700000000E+03 0.  0.
   -5000001    1    1    2    0    0  0.36813128848E+03  0.98682450929E+02  0.14209274441E+01  0.40173360665E+03  0.12700000000E+03 0.  0.
<mgrwt>
<rscale>  0 0.80752615E+03</rscale>
<asrwt>0</asrwt>
<pdfrwt beam="1">  1        2 0.63555768E-01 0.80752615E+03</pdfrwt>
<pdfrwt beam="2">  1       -2 0.52348248E-01 0.80752615E+03</pdfrwt>
<totfact> 0.26585710E+02</totfact>
</mgrwt>
</event>
<event>
 4    1  0.2621617E-004  0.5237955E+03  0.7818608E-02  0.1007748E+00
         -2   -1    0    0    0  501 -0.00000000000E+00  0.00000000000E+00  0.30103916163E+02  0.30103916271E+02  0.25500000000E-02 0. -1.
          2   -1    0    0  501    0  0.00000000000E+00 -0.00000000000E+00 -0.22784550429E+04  0.22784550429E+04  0.25500000000E-02 0.  1.
    5000001    1    1    2    0    0  0.78988670755E+02 -0.17385786512E+03 -0.56675854616E+03  0.61140004663E+03  0.12700000000E+03 0.  0.
   -5000001    1    1    2    0    0 -0.78988670755E+02  0.17385786512E+03 -0.16815925806E+04  0.16971589125E+04  0.12700000000E+03 0.  0.
<mgrwt>
<rscale>  0 0.52379546E+03</rscale>
<asrwt>0</asrwt>
<pdfrwt beam="1">  1        2 0.32549347E+00 0.52379546E+03</pdfrwt>
<pdfrwt beam="2">  1       -2 0.43005609E-02 0.52379546E+03</pdfrwt>
<totfact> 0.15606998E+03</totfact>
</mgrwt>
</event>
<event>
 4    1  0.2621617E-004  0.4622117E+03  0.7818608E-02  0.1024142E+00
          2   -1    0    0  501    0  0.00000000000E+00  0.00000000000E+00  0.27931605811E+03  0.27931605812E+03  0.25500000000E-02 0.  1.
         -2   -1    0    0    0  501 -0.00000000000E+00 -0.00000000000E+00 -0.19121676449E+03  0.19121676451E+03  0.25500000000E-02 0. -1.
    5000001    1    1    2    0    0  0.11773771416E+03 -0.15285562543E+03  0.51523572996E+02  0.23666577728E+03  0.12700000000E+03 0.  0.
   -5000001    1    1    2    0    0 -0.11773771416E+03  0.15285562543E+03  0.36575720621E+02  0.23386704535E+03  0.12700000000E+03 0.  0.
<mgrwt>
<rscale>  0 0.46221170E+03</rscale>
<asrwt>0</asrwt>
<pdfrwt beam="1">  1        2 0.39902294E-01 0.46221170E+03</pdfrwt>
<pdfrwt beam="2">  1       -2 0.27316681E-01 0.46221170E+03</pdfrwt>
<totfact> 0.15666516E+03</totfact>
</mgrwt>
</event>
<event>
 4    1  0.2621617E-004  0.4120169E+03  0.7818608E-02  0.1039696E+00
         -2   -1    0    0    0  501 -0.00000000000E+00  0.00000000000E+00  0.28669614574E+02  0.28669614688E+02  0.25500000000E-02 0. -1.
          2   -1    0    0  501    0  0.00000000000E+00 -0.00000000000E+00 -0.14802951139E+04  0.14802951139E+04  0.25500000000E-02 0.  1.
    5000001    1    1    2    0    0 -0.14125747006E+03 -0.61895032023E+02 -0.90987530063E+03  0.93155071281E+03  0.12700000000E+03 0.  0.
   -5000001    1    1    2    0    0  0.14125747006E+03  0.61895032023E+02 -0.54175019873E+03  0.57741401582E+03  0.12700000000E+03 0.  0.
<mgrwt>
<rscale>  0 0.41201694E+03</rscale>
<asrwt>0</asrwt>
<pdfrwt beam="1">  1        2 0.21147068E+00 0.41201694E+03</pdfrwt>
<pdfrwt beam="2">  1       -2 0.40956602E-02 0.41201694E+03</pdfrwt>
<totfact> 0.42462068E+03</totfact>
</mgrwt>
</event>
<event>
 4    1  0.2621617E-004  0.5757922E+03  0.7818608E-02  0.9956943E-01
          2   -1    0    0  501    0  0.00000000000E+00  0.00000000000E+00  0.21478919954E+03  0.21478919955E+03  0.25500000000E-02 0.  1.
         -2   -1    0    0    0  501 -0.00000000000E+00 -0.00000000000E+00 -0.38588607403E+03  0.38588607404E+03  0.25500000000E-02 0. -1.
    5000001    1    1    2    0    0 -0.25335220077E+01 -0.25291412819E+03 -0.30512660383E+02  0.28466119760E+03  0.12700000000E+03 0.  0.
   -5000001    1    1    2    0    0  0.25335220077E+01  0.25291412819E+03 -0.14058421411E+03  0.31601407600E+03  0.12700000000E+03 0.  0.
<mgrwt>
<rscale>  0 0.57579219E+03</rscale>
<asrwt>0</asrwt>
<pdfrwt beam="1">  1        2 0.30684171E-01 0.57579219E+03</pdfrwt>
<pdfrwt beam="2">  1       -2 0.55126582E-01 0.57579219E+03</pdfrwt>
<totfact> 0.54092040E+02</totfact>
</mgrwt>
</event>
<event>
 4    1  0.2621617E-004  0.2753331E+03  0.7818608E-02  0.1098266E+00
          2   -1    0    0  501    0  0.00000000000E+00  0.00000000000E+00  0.14208816133E+04  0.14208816133E+04  0.25500000000E-02 0.  1.
         -2   -1    0    0    0  501 -0.00000000000E+00 -0.00000000000E+00 -0.13338253982E+02  0.13338254226E+02  0.25500000000E-02 0. -1.
    5000001    1    1    2    0    0  0.51319372908E+02 -0.99871444014E+01  0.65444815984E+03  0.66870383206E+03  0.12700000000E+03 0.  0.
   -5000001    1    1    2    0    0 -0.51319372908E+02  0.99871444014E+01  0.75309519948E+03  0.76551603548E+03  0.12700000000E+03 0.  0.
<mgrwt>
<rscale>  0 0.27533311E+03</rscale>
<asrwt>0</asrwt>
<pdfrwt beam="1">  1        2 0.20298297E+00 0.27533311E+03</pdfrwt>
<pdfrwt beam="2">  1       -2 0.19054660E-02 0.27533311E+03</pdfrwt>
<totfact> 0.14205298E+04</totfact>
</mgrwt>
</event>
<event>
 4    1  0.2621617E-004  0.2755337E+03  0.7818608E-02  0.1098154E+00
          2   -1    0    0  501    0  0.00000000000E+00  0.00000000000E+00  0.80286714127E+02  0.80286714167E+02  0.25500000000E-02 0.  1.
         -2   -1    0    0    0  501 -0.00000000000E+00 -0.00000000000E+00 -0.23639914690E+03  0.23639914692E+03  0.25500000000E-02 0. -1.
    5000001    1    1    2    0    0  0.11245636546E+02  0.48560117458E+02 -0.56062928654E+02  0.14750119090E+03  0.12700000000E+03 0.  0.
   -5000001    1    1    2    0    0 -0.11245636546E+02 -0.48560117458E+02 -0.10004950412E+03  0.16918467018E+03  0.12700000000E+03 0.  0.
<mgrwt>
<rscale>  0 0.27553374E+03</rscale>
<asrwt>0</asrwt>
<pdfrwt beam="1">  1        2 0.11469531E-01 0.27553374E+03</pdfrwt>
<pdfrwt beam="2">  1       -2 0.33771306E-01 0.27553374E+03</pdfrwt>
<totfact> 0.44123782E+03</totfact>
</mgrwt>
</event>
<event>
 4    1  0.2621617E-004  0.3498057E+03  0.7818608E-02  0.1062695E+00
         -2   -1    0    0    0  501 -0.00000000000E+00  0.00000000000E+00  0.70736146979E+02  0.70736147025E+02  0.25500000000E-02 0. -1.
          2   -1    0    0  501    0  0.00000000000E+00 -0.00000000000E+00 -0.43246649812E+03  0.43246649812E+03  0.25500000000E-02 0.  1.
    5000001    1    1    2    0    0  0.14506508087E+02 -0.31105694809E+02 -0.34666367445E+03  0.37078660468E+03  0.12700000000E+03 0.  0.
   -5000001    1    1    2    0    0 -0.14506508087E+02  0.31105694809E+02 -0.15066676684E+02  0.13241604047E+03  0.12700000000E+03 0.  0.
<mgrwt>
<rscale>  0 0.34980574E+03</rscale>
<asrwt>0</asrwt>
<pdfrwt beam="1">  1        2 0.61780927E-01 0.34980574E+03</pdfrwt>
<pdfrwt beam="2">  1       -2 0.10105164E-01 0.34980574E+03</pdfrwt>
<totfact> 0.52074050E+03</totfact>
</mgrwt>
</event>
<event>
 4    1  0.2621617E-004  0.4327207E+03  0.7818608E-02  0.1033004E+00
          2   -1    0    0  501    0  0.00000000000E+00  0.00000000000E+00  0.34920320410E+03  0.34920320411E+03  0.25500000000E-02 0.  1.
         -2   -1    0    0    0  501 -0.00000000000E+00 -0.00000000000E+00 -0.13405318686E+03  0.13405318688E+03  0.25500000000E-02 0. -1.
    5000001    1    1    2    0    0 -0.64430118602E+02 -0.15377625168E+03  0.47595945731E+02  0.21492498648E+03  0.12700000000E+03 0.  0.
   -5000001    1    1    2    0    0  0.64430118602E+02  0.15377625168E+03  0.16755407151E+03  0.26833140451E+03  0.12700000000E+03 0.  0.
<mgrwt>
<rscale>  0 0.43272071E+03</rscale>
<asrwt>0</asrwt>
<pdfrwt beam="1">  1        2 0.49886171E-01 0.43272071E+03</pdfrwt>
<pdfrwt beam="2">  1       -2 0.19150456E-01 0.43272071E+03</pdfrwt>
<totfact> 0.22933953E+03</totfact>
</mgrwt>
</event>
<event>
 4    1  0.2621617E-004  0.3863022E+03  0.7818608E-02  0.1048629E+00
          2   -1    0    0  501    0  0.00000000000E+00  0.00000000000E+00  0.68573464659E+03  0.68573464659E+03  0.25500000000E-02 0.  1.
         -2   -1    0    0    0  501 -0.00000000000E+00 -0.00000000000E+00 -0.54404946281E+02  0.54404946341E+02  0.25500000000E-02 0. -1.
    5000001    1    1    2    0    0  0.12704798733E+03 -0.44193749454E+02  0.42206667655E+03  0.46082920701E+03  0.12700000000E+03 0.  0.
   -5000001    1    1    2    0    0 -0.12704798733E+03  0.44193749454E+02  0.20926302375E+03  0.27931038592E+03  0.12700000000E+03 0.  0.
<mgrwt>
<rscale>  0 0.38630225E+03</rscale>
<asrwt>0</asrwt>
<pdfrwt beam="1">  1        2 0.97962093E-01 0.38630225E+03</pdfrwt>
<pdfrwt beam="2">  1       -2 0.77721352E-02 0.38630225E+03</pdfrwt>
<totfact> 0.46838557E+03</totfact>
</mgrwt>
</event>
<event>
 4    1  0.2621617E-004  0.3232500E+03  0.7818608E-02  0.1074163E+00
          2   -1    0    0  501    0  0.00000000000E+00  0.00000000000E+00  0.52558413442E+03  0.52558413442E+03  0.25500000000E-02 0.  1.
         -2   -1    0    0    0  501 -0.00000000000E+00 -0.00000000000E+00 -0.49702115303E+02  0.49702115368E+02  0.25500000000E-02 0. -1.
    5000001    1    1    2    0    0  0.59205609277E+02 -0.40268095709E+02  0.36209710930E+03  0.39034618003E+03  0.12700000000E+03 0.  0.
   -5000001    1    1    2    0    0 -0.59205609277E+02  0.40268095709E+02  0.11378490982E+03  0.18494006976E+03  0.12700000000E+03 0.  0.
<mgrwt>
<rscale>  0 0.32325002E+03</rscale>
<asrwt>0</asrwt>
<pdfrwt beam="1">  1        2 0.75083450E-01 0.32325002E+03</pdfrwt>
<pdfrwt beam="2">  1       -2 0.71003020E-02 0.32325002E+03</pdfrwt>
<totfact> 0.73045261E+03</totfact>
</mgrwt>
</event>
<event>
 4    1  0.2621617E-004  0.2904573E+03  0.7818608E-02  0.1090111E+00
          2   -1    0    0  501    0  0.00000000000E+00  0.00000000000E+00  0.28578763983E+04  0.28578763983E+04  0.25500000000E-02 0.  1.
         -2   -1    0    0    0  501 -0.00000000000E+00 -0.00000000000E+00 -0.73800835395E+01  0.73800839801E+01  0.25500000000E-02 0. -1.
    5000001    1    1    2    0    0  0.35714092778E+02 -0.59553486456E+02  0.13084227614E+04  0.13164046630E+04  0.12700000000E+03 0.  0.
   -5000001    1    1    2    0    0 -0.35714092778E+02  0.59553486456E+02  0.15420735534E+04  0.15488518193E+04  0.12700000000E+03 0.  0.
<mgrwt>
<rscale>  0 0.29045734E+03</rscale>
<asrwt>0</asrwt>
<pdfrwt beam="1">  1        2 0.40826888E+00 0.29045734E+03</pdfrwt>
<pdfrwt beam="2">  1       -2 0.10542956E-02 0.29045734E+03</pdfrwt>
<totfact> 0.65070866E+03</totfact>
</mgrwt>
</event>
<event>
 4    1  0.2621617E-004  0.3162317E+03  0.7818608E-02  0.1077397E+00
         -2   -1    0    0    0  501 -0.00000000000E+00  0.00000000000E+00  0.83640116683E+02  0.83640116722E+02  0.25500000000E-02 0. -1.
          2   -1    0    0  501    0  0.00000000000E+00 -0.00000000000E+00 -0.29890707587E+03  0.29890707588E+03  0.25500000000E-02 0.  1.
    5000001    1    1    2    0    0 -0.12261228703E+02  0.76852353522E+02 -0.43450648886E+02  0.15515663331E+03  0.12700000000E+03 0.  0.
   -5000001    1    1    2    0    0  0.12261228703E+02 -0.76852353522E+02 -0.17181631030E+03  0.22739055930E+03  0.12700000000E+03 0.  0.
<mgrwt>
<rscale>  0 0.31623170E+03</rscale>
<asrwt>0</asrwt>
<pdfrwt beam="1">  1        2 0.42701010E-01 0.31623170E+03</pdfrwt>
<pdfrwt beam="2">  1       -2 0.11948588E-01 0.31623170E+03</pdfrwt>
<totfact> 0.59212947E+03</totfact>
</mgrwt>
</event>
<event>
 4    1  0.2621617E-004  0.9052828E+03  0.7818608E-02  0.9419002E-01
         -2   -1    0    0    0  501 -0.00000000000E+00  0.00000000000E+00  0.68448101311E+02  0.68448101359E+02  0.25500000000E-02 0. -1.
          2   -1    0    0  501    0  0.00000000000E+00 -0.00000000000E+00 -0.29932788040E+04  0.29932788040E+04  0.25500000000E-02 0.  1.
    5000001    1    1    2    0    0 -0.27758962645E+03 -0.14037620857E+02 -0.25917531811E+04  0.26097062301E+04  0.12700000000E+03 0.  0.
   -5000001    1    1    2    0    0  0.27758962645E+03  0.14037620857E+02 -0.33307752162E+03  0.45202067532E+03  0.12700000000E+03 0.  0.
<mgrwt>
<rscale>  0 0.90528283E+03</rscale>
<asrwt>0</asrwt>
<pdfrwt beam="1">  1        2 0.42761118E+00 0.90528283E+03</pdfrwt>
<pdfrwt beam="2">  1       -2 0.97783021E-02 0.90528283E+03</pdfrwt>
<totfact> 0.17463829E+02</totfact>
</mgrwt>
</event>
<event>
 4    1  0.2621617E-004  0.2723031E+03  0.7818608E-02  0.1099969E+00
         -2   -1    0    0    0  501 -0.00000000000E+00  0.00000000000E+00  0.33742739473E+02  0.33742739570E+02  0.25500000000E-02 0. -1.
          2   -1    0    0  501    0  0.00000000000E+00 -0.00000000000E+00 -0.54936968850E+03  0.54936968850E+03  0.25500000000E-02 0.  1.
    5000001    1    1    2    0    0 -0.41262471415E+02 -0.25868716740E+02 -0.24488385381E+03  0.28012297997E+03  0.12700000000E+03 0.  0.
   -5000001    1    1    2    0    0  0.41262471415E+02  0.25868716740E+02 -0.27074309522E+03  0.30298944810E+03  0.12700000000E+03 0.  0.
<mgrwt>
<rscale>  0 0.27230305E+03</rscale>
<asrwt>0</asrwt>
<pdfrwt beam="1">  1        2 0.78481379E-01 0.27230305E+03</pdfrwt>
<pdfrwt beam="2">  1       -2 0.48203917E-02 0.27230305E+03</pdfrwt>
<totfact> 0.12518544E+04</totfact>
</mgrwt>
</event>
<event>
 4    1  0.2621617E-004  0.4148353E+03  0.7818608E-02  0.1038760E+00
         -2   -1    0    0    0  501 -0.00000000000E+00  0.00000000000E+00  0.36577861078E+02  0.36577861167E+02  0.25500000000E-02 0. -1.
          2   -1    0    0  501    0  0.00000000000E+00 -0.00000000000E+00 -0.11761781602E+04  0.11761781602E+04  0.25500000000E-02 0.  1.
    5000001    1    1    2    0    0 -0.14745080580E+03  0.57223626752E+01 -0.77895751102E+03  0.80291860704E+03  0.12700000000E+03 0.  0.
   -5000001    1    1    2    0    0  0.14745080580E+03 -0.57223626752E+01 -0.36064278806E+03  0.40983741429E+03  0.12700000000E+03 0.  0.
<mgrwt>
<rscale>  0 0.41483530E+03</rscale>
<asrwt>0</asrwt>
<pdfrwt beam="1">  1        2 0.16802543E+00 0.41483530E+03</pdfrwt>
<pdfrwt beam="2">  1       -2 0.52254094E-02 0.41483530E+03</pdfrwt>
<totfact> 0.42481659E+03</totfact>
</mgrwt>
</event>
<event>
 4    1  0.2621617E-004  0.3819101E+03  0.7818608E-02  0.1050230E+00
         -2   -1    0    0    0  501 -0.00000000000E+00  0.00000000000E+00  0.77156325915E+02  0.77156325957E+02  0.25500000000E-02 0. -1.
          2   -1    0    0  501    0  0.00000000000E+00 -0.00000000000E+00 -0.47259685378E+03  0.47259685379E+03  0.25500000000E-02 0.  1.
    5000001    1    1    2    0    0  0.89122436333E+02  0.10433111266E+02 -0.38183068961E+02  0.16012059588E+03  0.12700000000E+03 0.  0.
   -5000001    1    1    2    0    0 -0.89122436333E+02 -0.10433111266E+02 -0.35725745891E+03  0.38963258387E+03  0.12700000000E+03 0.  0.
<mgrwt>
<rscale>  0 0.38191013E+03</rscale>
<asrwt>0</asrwt>
<pdfrwt beam="1">  1        2 0.67513835E-01 0.38191013E+03</pdfrwt>
<pdfrwt beam="2">  1       -2 0.11022333E-01 0.38191013E+03</pdfrwt>
<totfact> 0.41140000E+03</totfact>
</mgrwt>
</event>
<event>
 4    1  0.2621617E-004  0.5075379E+03  0.7818608E-02  0.1011830E+00
         -2   -1    0    0    0  501 -0.00000000000E+00  0.00000000000E+00  0.86537068067E+02  0.86537068105E+02  0.25500000000E-02 0. -1.
          2   -1    0    0  501    0  0.00000000000E+00 -0.00000000000E+00 -0.74417461571E+03  0.74417461572E+03  0.25500000000E-02 0.  1.
    5000001    1    1    2    0    0  0.18648515581E+03  0.73491094068E+02 -0.47605364776E+03  0.53191515282E+03  0.12700000000E+03 0.  0.
   -5000001    1    1    2    0    0 -0.18648515581E+03 -0.73491094068E+02 -0.18158389988E+03  0.29879653101E+03  0.12700000000E+03 0.  0.
<mgrwt>
<rscale>  0 0.50753794E+03</rscale>
<asrwt>0</asrwt>
<pdfrwt beam="1">  1        2 0.10631066E+00 0.50753794E+03</pdfrwt>
<pdfrwt beam="2">  1       -2 0.12362439E-01 0.50753794E+03</pdfrwt>
<totfact> 0.20163834E+03</totfact>
</mgrwt>
</event>
<event>
 4    1  0.2621617E-004  0.3599577E+03  0.7818608E-02  0.1058601E+00
         -2   -1    0    0    0  501 -0.00000000000E+00  0.00000000000E+00  0.66495310074E+02  0.66495310123E+02  0.25500000000E-02 0. -1.
          2   -1    0    0  501    0  0.00000000000E+00 -0.00000000000E+00 -0.48713803879E+03  0.48713803880E+03  0.25500000000E-02 0.  1.
    5000001    1    1    2    0    0  0.59586593839E+02  0.79916107267E+02 -0.87988302975E+02  0.18386975778E+03  0.12700000000E+03 0.  0.
   -5000001    1    1    2    0    0 -0.59586593839E+02 -0.79916107267E+02 -0.33265442574E+03  0.36976359114E+03  0.12700000000E+03 0.  0.
<mgrwt>
<rscale>  0 0.35995775E+03</rscale>
<asrwt>0</asrwt>
<pdfrwt beam="1">  1        2 0.69591146E-01 0.35995775E+03</pdfrwt>
<pdfrwt beam="2">  1       -2 0.94993303E-02 0.35995775E+03</pdfrwt>
<totfact> 0.50430509E+03</totfact>
</mgrwt>
</event>
<event>
 4    1  0.2621617E-004  0.4960174E+03  0.7818608E-02  0.1014824E+00
         -2   -1    0    0    0  501 -0.00000000000E+00  0.00000000000E+00  0.16635952760E+02  0.16635952955E+02  0.25500000000E-02 0. -1.
          2   -1    0    0  501    0  0.00000000000E+00 -0.00000000000E+00 -0.36973127404E+04  0.36973127404E+04  0.25500000000E-02 0.  1.
    5000001    1    1    2    0    0 -0.16272524362E+03  0.23327039925E+02 -0.82590385222E+03  0.85162775249E+03  0.12700000000E+03 0.  0.
   -5000001    1    1    2    0    0  0.16272524362E+03 -0.23327039925E+02 -0.28547729354E+04  0.28623209409E+04  0.12700000000E+03 0.  0.
<mgrwt>
<rscale>  0 0.49601742E+03</rscale>
<asrwt>0</asrwt>
<pdfrwt beam="1">  1        2 0.52818701E+00 0.49601742E+03</pdfrwt>
<pdfrwt beam="2">  1       -2 0.23765671E-02 0.49601742E+03</pdfrwt>
<totfact> 0.64546636E+02</totfact>
</mgrwt>
</event>
<event>
 4    1  0.2621617E-004  0.3179058E+03  0.7818608E-02  0.1076617E+00
         -2   -1    0    0    0  501 -0.00000000000E+00  0.00000000000E+00  0.99157724268E+02  0.99157724301E+02  0.25500000000E-02 0. -1.
          2   -1    0    0  501    0  0.00000000000E+00 -0.00000000000E+00 -0.25480635761E+03  0.25480635762E+03  0.25500000000E-02 0.  1.
    5000001    1    1    2    0    0 -0.80277027029E+02  0.33687715102E+02 -0.33879220617E+02  0.15765806293E+03  0.12700000000E+03 0.  0.
   -5000001    1    1    2    0    0  0.80277027029E+02 -0.33687715102E+02 -0.12176941272E+03  0.19630601899E+03  0.12700000000E+03 0.  0.
<mgrwt>
<rscale>  0 0.31790576E+03</rscale>
<asrwt>0</asrwt>
<pdfrwt beam="1">  1        2 0.36400908E-01 0.31790576E+03</pdfrwt>
<pdfrwt beam="2">  1       -2 0.14165389E-01 0.31790576E+03</pdfrwt>
<totfact> 0.53324570E+03</totfact>
</mgrwt>
</event>
<event>
 4    1  0.2621617E-004  0.3162378E+03  0.7818608E-02  0.1077394E+00
         -2   -1    0    0    0  501 -0.00000000000E+00  0.00000000000E+00  0.23509488141E+02  0.23509488279E+02  0.25500000000E-02 0. -1.
          2   -1    0    0  501    0  0.00000000000E+00 -0.00000000000E+00 -0.10634680676E+04  0.10634680676E+04  0.25500000000E-02 0.  1.
    5000001    1    1    2    0    0 -0.78885316366E+02 -0.68211998410E+01 -0.34460825153E+03  0.37570369831E+03  0.12700000000E+03 0.  0.
   -5000001    1    1    2    0    0  0.78885316366E+02  0.68211998410E+01 -0.69535032789E+03  0.71127385753E+03  0.12700000000E+03 0.  0.
<mgrwt>
<rscale>  0 0.31623782E+03</rscale>
<asrwt>0</asrwt>
<pdfrwt beam="1">  1        2 0.15192398E+00 0.31623782E+03</pdfrwt>
<pdfrwt beam="2">  1       -2 0.33584990E-02 0.31623782E+03</pdfrwt>
<totfact> 0.95867053E+03</totfact>
</mgrwt>
</event>
<event>
 4    1  0.2621617E-004  0.5601102E+03  0.7818608E-02  0.9991805E-01
          2   -1    0    0  501    0  0.00000000000E+00  0.00000000000E+00  0.13815817750E+04  0.13815817750E+04  0.25500000000E-02 0.  1.
         -2   -1    0    0    0  501 -0.00000000000E+00 -0.00000000000E+00 -0.56768887181E+02  0.56768887238E+02  0.25500000000E-02 0. -1.
    5000001    1    1    2    0    0 -0.85090434998E+02 -0.17388760883E+02  0.12633303470E+04  0.12726646521E+04  0.12700000000E+03 0.  0.
   -5000001    1    1    2    0    0  0.85090434998E+02  0.17388760883E+02  0.61482540880E+02  0.16568601017E+03  0.12700000000E+03 0.  0.
<mgrwt>
<rscale>  0 0.56011020E+03</rscale>
<asrwt>0</asrwt>
<pdfrwt beam="1">  1        2 0.19736884E+00 0.56011020E+03</pdfrwt>
<pdfrwt beam="2">  1       -2 0.81098403E-02 0.56011020E+03</pdfrwt>
<totfact> 0.16492197E+03</totfact>
</mgrwt>
</event>
<event>
 4    1  0.2621617E-004  0.2675426E+03  0.7818608E-02  0.1102694E+00
          2   -1    0    0  501    0  0.00000000000E+00  0.00000000000E+00  0.21859425799E+04  0.21859425799E+04  0.25500000000E-02 0.  1.
         -2   -1    0    0    0  501 -0.00000000000E+00 -0.00000000000E+00 -0.81862879371E+01  0.81862883342E+01  0.25500000000E-02 0. -1.
    5000001    1    1    2    0    0 -0.11689035854E+01 -0.37379743286E+02  0.12460184622E+04  0.12530321702E+04  0.12700000000E+03 0.  0.
   -5000001    1    1    2    0    0  0.11689035854E+01  0.37379743286E+02  0.93173782975E+03  0.94109669797E+03  0.12700000000E+03 0.  0.
<mgrwt>
<rscale>  0 0.26754256E+03</rscale>
<asrwt>0</asrwt>
<pdfrwt beam="1">  1        2 0.31227723E+00 0.26754256E+03</pdfrwt>
<pdfrwt beam="2">  1       -2 0.11694708E-02 0.26754256E+03</pdfrwt>
<totfact> 0.12157710E+04</totfact>
</mgrwt>
</event>
<event>
 4    1  0.2621617E-004  0.3073263E+03  0.7818608E-02  0.1081635E+00
          2   -1    0    0  501    0  0.00000000000E+00  0.00000000000E+00  0.17222866176E+03  0.17222866178E+03  0.25500000000E-02 0.  1.
         -2   -1    0    0    0  501 -0.00000000000E+00 -0.00000000000E+00 -0.13709887638E+03  0.13709887641E+03  0.25500000000E-02 0. -1.
    5000001    1    1    2    0    0 -0.34816064799E+02 -0.77444002637E+02  0.34214197461E+02  0.15655460140E+03  0.12700000000E+03 0.  0.
   -5000001    1    1    2    0    0  0.34816064799E+02  0.77444002637E+02  0.91558791798E+00  0.15277293678E+03  0.12700000000E+03 0.  0.
<mgrwt>
<rscale>  0 0.30732625E+03</rscale>
<asrwt>0</asrwt>
<pdfrwt beam="1">  1        2 0.24604095E-01 0.30732625E+03</pdfrwt>
<pdfrwt beam="2">  1       -2 0.19585554E-01 0.30732625E+03</pdfrwt>
<totfact> 0.47661024E+03</totfact>
</mgrwt>
</event>
<event>
 4    1  0.2621617E-004  0.9534599E+03  0.7818608E-02  0.9361116E-01
          2   -1    0    0  501    0  0.00000000000E+00  0.00000000000E+00  0.32086564609E+04  0.32086564609E+04  0.25500000000E-02 0.  1.
         -2   -1    0    0    0  501 -0.00000000000E+00 -0.00000000000E+00 -0.70830719900E+02  0.70830719946E+02  0.25500000000E-02 0. -1.
    5000001    1    1    2    0    0 -0.40305972014E+03  0.20380952558E+03  0.18596931711E+04  0.19179632821E+04  0.12700000000E+03 0.  0.
   -5000001    1    1    2    0    0  0.40305972014E+03 -0.20380952558E+03  0.12781325699E+04  0.13615238988E+04  0.12700000000E+03 0.  0.
<mgrwt>
<rscale>  0 0.95345990E+03</rscale>
<asrwt>0</asrwt>
<pdfrwt beam="1">  1        2 0.45837936E+00 0.95345990E+03</pdfrwt>
<pdfrwt beam="2">  1       -2 0.10118677E-01 0.95345990E+03</pdfrwt>
<totfact> 0.12455949E+02</totfact>
</mgrwt>
</event>
<event>
 4    1  0.2621617E-004  0.4268456E+03  0.7818608E-02  0.1034861E+00
         -2   -1    0    0    0  501 -0.00000000000E+00  0.00000000000E+00  0.22891924818E+03  0.22891924820E+03  0.25500000000E-02 0. -1.
          2   -1    0    0  501    0  0.00000000000E+00 -0.00000000000E+00 -0.19897537811E+03  0.19897537813E+03  0.25500000000E-02 0.  1.
    5000001    1    1    2    0    0  0.10951736109E+03  0.12224176503E+03 -0.34982172419E+02  0.21045154759E+03  0.12700000000E+03 0.  0.
   -5000001    1    1    2    0    0 -0.10951736109E+03 -0.12224176503E+03  0.64926042488E+02  0.21744307874E+03  0.12700000000E+03 0.  0.
<mgrwt>
<rscale>  0 0.42684561E+03</rscale>
<asrwt>0</asrwt>
<pdfrwt beam="1">  1        2 0.28425054E-01 0.42684561E+03</pdfrwt>
<pdfrwt beam="2">  1       -2 0.32702750E-01 0.42684561E+03</pdfrwt>
<totfact> 0.16376667E+03</totfact>
</mgrwt>
</event>
<event>
 4    1  0.2621617E-004  0.3860991E+03  0.7818608E-02  0.1048702E+00
         -2   -1    0    0    0  501 -0.00000000000E+00  0.00000000000E+00  0.77827696706E+02  0.77827696747E+02  0.25500000000E-02 0. -1.
          2   -1    0    0  501    0  0.00000000000E+00 -0.00000000000E+00 -0.47885425177E+03  0.47885425178E+03  0.25500000000E-02 0.  1.
    5000001    1    1    2    0    0 -0.14430509649E+03  0.17522580177E+02 -0.20462226156E+03  0.28130103380E+03  0.12700000000E+03 0.  0.
   -5000001    1    1    2    0    0  0.14430509649E+03 -0.17522580177E+02 -0.19640429350E+03  0.27538091472E+03  0.12700000000E+03 0.  0.
<mgrwt>
<rscale>  0 0.38609907E+03</rscale>
<asrwt>0</asrwt>
<pdfrwt beam="1">  1        2 0.68407748E-01 0.38609907E+03</pdfrwt>
<pdfrwt beam="2">  1       -2 0.11118243E-01 0.38609907E+03</pdfrwt>
<totfact> 0.39987206E+03</totfact>
</mgrwt>
</event>
<event>
 4    1  0.2621617E-004  0.1002861E+04  0.7818608E-02  0.9305412E-01
         -2   -1    0    0    0  501 -0.00000000000E+00  0.00000000000E+00  0.10310466192E+03  0.10310466195E+03  0.25500000000E-02 0. -1.
          2   -1    0    0  501    0  0.00000000000E+00 -0.00000000000E+00 -0.24386157475E+04  0.24386157476E+04  0.25500000000E-02 0.  1.
    5000001    1    1    2    0    0  0.20632806093E+03  0.43895252441E+03 -0.11492930521E+04  0.12538955726E+04  0.12700000000E+03 0.  0.
   -5000001    1    1    2    0    0 -0.20632806093E+03 -0.43895252441E+03 -0.11862180335E+04  0.12878248369E+04  0.12700000000E+03 0.  0.
<mgrwt>
<rscale>  0 0.10028612E+04</rscale>
<asrwt>0</asrwt>
<pdfrwt beam="1">  1        2 0.34837364E+00 0.10028612E+04</pdfrwt>
<pdfrwt beam="2">  1       -2 0.14729239E-01 0.10028612E+04</pdfrwt>
<totfact> 0.17312507E+02</totfact>
</mgrwt>
</event>
<event>
 4    1  0.2621617E-004  0.3530278E+03  0.7818608E-02  0.1061379E+00
         -2   -1    0    0    0  501 -0.00000000000E+00  0.00000000000E+00  0.23166097000E+02  0.23166097141E+02  0.25500000000E-02 0. -1.
          2   -1    0    0  501    0  0.00000000000E+00 -0.00000000000E+00 -0.13449461709E+04  0.13449461709E+04  0.25500000000E-02 0.  1.
    5000001    1    1    2    0    0  0.81901667069E+02  0.47324425999E+02 -0.96308591941E+03  0.97601791609E+03  0.12700000000E+03 0.  0.
   -5000001    1    1    2    0    0 -0.81901667069E+02 -0.47324425999E+02 -0.35869415445E+03  0.39209435191E+03  0.12700000000E+03 0.  0.
<mgrwt>
<rscale>  0 0.35302778E+03</rscale>
<asrwt>0</asrwt>
<pdfrwt beam="1">  1        2 0.19213512E+00 0.35302778E+03</pdfrwt>
<pdfrwt beam="2">  1       -2 0.33094433E-02 0.35302778E+03</pdfrwt>
<totfact> 0.68863747E+03</totfact>
</mgrwt>
</event>
<event>
 4    1  0.2621617E-004  0.2591772E+03  0.7818608E-02  0.1107639E+00
         -2   -1    0    0    0  501 -0.00000000000E+00  0.00000000000E+00  0.15814764398E+02  0.15814764604E+02  0.25500000000E-02 0. -1.
          2   -1    0    0  501    0  0.00000000000E+00 -0.00000000000E+00 -0.10618686385E+04  0.10618686385E+04  0.25500000000E-02 0.  1.
    5000001    1    1    2    0    0  0.70335897009E+01  0.21978297878E+02 -0.57074286785E+03  0.58515719098E+03  0.12700000000E+03 0.  0.
   -5000001    1    1    2    0    0 -0.70335897009E+01 -0.21978297878E+02 -0.47531100625E+03  0.49252621212E+03  0.12700000000E+03 0.  0.
<mgrwt>
<rscale>  0 0.25917718E+03</rscale>
<asrwt>0</asrwt>
<pdfrwt beam="1">  1        2 0.15169547E+00 0.25917718E+03</pdfrwt>
<pdfrwt beam="2">  1       -2 0.22592528E-02 0.25917718E+03</pdfrwt>
<totfact> 0.17200435E+04</totfact>
</mgrwt>
</event>
<event>
 4    1  0.2621617E-004  0.4492726E+03  0.7818608E-02  0.1027939E+00
          2   -1    0    0  501    0  0.00000000000E+00  0.00000000000E+00  0.27811095789E+03  0.27811095790E+03  0.25500000000E-02 0.  1.
         -2   -1    0    0    0  501 -0.00000000000E+00 -0.00000000000E+00 -0.18144365929E+03  0.18144365930E+03  0.25500000000E-02 0. -1.
    5000001    1    1    2    0    0  0.75491297932E+02 -0.95766312389E+02 -0.94366621792E+02  0.19976031127E+03  0.12700000000E+03 0.  0.
   -5000001    1    1    2    0    0 -0.75491297932E+02  0.95766312389E+02  0.19103392040E+03  0.25979430593E+03  0.12700000000E+03 0.  0.
<mgrwt>
<rscale>  0 0.44927261E+03</rscale>
<asrwt>0</asrwt>
<pdfrwt beam="1">  1        2 0.39730137E-01 0.44927261E+03</pdfrwt>
<pdfrwt beam="2">  1       -2 0.25920523E-01 0.44927261E+03</pdfrwt>
<totfact> 0.17297448E+03</totfact>
</mgrwt>
</event>
<event>
 4    1  0.2621617E-004  0.5696934E+03  0.7818608E-02  0.9970357E-01
         -2   -1    0    0    0  501 -0.00000000000E+00  0.00000000000E+00  0.62850119946E+02  0.62850119998E+02  0.25500000000E-02 0. -1.
          2   -1    0    0  501    0  0.00000000000E+00 -0.00000000000E+00 -0.12909704184E+04  0.12909704184E+04  0.25500000000E-02 0.  1.
    5000001    1    1    2    0    0 -0.23601122605E+03 -0.93632747910E+02 -0.55882450166E+03  0.62680317003E+03  0.12700000000E+03 0.  0.
   -5000001    1    1    2    0    0  0.23601122605E+03  0.93632747910E+02 -0.66929579679E+03  0.72701736836E+03  0.12700000000E+03 0.  0.
<mgrwt>
<rscale>  0 0.56969341E+03</rscale>
<asrwt>0</asrwt>
<pdfrwt beam="1">  1        2 0.18442433E+00 0.56969341E+03</pdfrwt>
<pdfrwt beam="2">  1       -2 0.89785893E-02 0.56969341E+03</pdfrwt>
<totfact> 0.15675841E+03</totfact>
</mgrwt>
</event>
<event>
 4    1  0.2621617E-004  0.4808931E+03  0.7818608E-02  0.1018890E+00
          2   -1    0    0  501    0  0.00000000000E+00  0.00000000000E+00  0.12039054543E+03  0.12039054546E+03  0.25500000000E-02 0.  1.
         -2   -1    0    0    0  501 -0.00000000000E+00 -0.00000000000E+00 -0.48022495095E+03  0.48022495096E+03  0.25500000000E-02 0. -1.
    5000001    1    1    2    0    0  0.88078041796E+02  0.67582004921E+02  0.34090558747E+02  0.17209368098E+03  0.12700000000E+03 0.  0.
   -5000001    1    1    2    0    0 -0.88078041796E+02 -0.67582004921E+02 -0.39392496427E+03  0.42852181544E+03  0.12700000000E+03 0.  0.
<mgrwt>
<rscale>  0 0.48089310E+03</rscale>
<asrwt>0</asrwt>
<pdfrwt beam="1">  1        2 0.17198650E-01 0.48089310E+03</pdfrwt>
<pdfrwt beam="2">  1       -2 0.68603564E-01 0.48089310E+03</pdfrwt>
<totfact> 0.66443302E+02</totfact>
</mgrwt>
</event>
<event>
 4    1  0.2621617E-004  0.6049357E+03  0.7818608E-02  0.9895219E-01
          2   -1    0    0  501    0  0.00000000000E+00  0.00000000000E+00  0.17595035354E+04  0.17595035354E+04  0.25500000000E-02 0.  1.
         -2   -1    0    0    0  501 -0.00000000000E+00 -0.00000000000E+00 -0.51995804977E+02  0.51995805040E+02  0.25500000000E-02 0. -1.
    5000001    1    1    2    0    0 -0.23639171182E+03  0.12020547507E+03  0.64142897919E+03  0.70561358617E+03  0.12700000000E+03 0.  0.
   -5000001    1    1    2    0    0  0.23639171182E+03 -0.12020547507E+03  0.10660787512E+04  0.11058857543E+04  0.12700000000E+03 0.  0.
<mgrwt>
<rscale>  0 0.60493571E+03</rscale>
<asrwt>0</asrwt>
<pdfrwt beam="1">  1        2 0.25135762E+00 0.60493571E+03</pdfrwt>
<pdfrwt beam="2">  1       -2 0.74279728E-02 0.60493571E+03</pdfrwt>
<totfact> 0.12077387E+03</totfact>
</mgrwt>
</event>
<event>
 4    1  0.2621617E-004  0.4974426E+03  0.7818608E-02  0.1014449E+00
          2   -1    0    0  501    0  0.00000000000E+00  0.00000000000E+00  0.27001721472E+04  0.27001721472E+04  0.25500000000E-02 0.  1.
         -2   -1    0    0    0  501 -0.00000000000E+00 -0.00000000000E+00 -0.22910492498E+02  0.22910492640E+02  0.25500000000E-02 0. -1.
    5000001    1    1    2    0    0 -0.21045232695E+03 -0.26745195843E+02  0.14863102151E+04  0.15067357243E+04  0.12700000000E+03 0.  0.
   -5000001    1    1    2    0    0  0.21045232695E+03  0.26745195843E+02  0.11909514396E+04  0.12163469155E+04  0.12700000000E+03 0.  0.
<mgrwt>
<rscale>  0 0.49744256E+03</rscale>
<asrwt>0</asrwt>
<pdfrwt beam="1">  1        2 0.38573876E+00 0.49744256E+03</pdfrwt>
<pdfrwt beam="2">  1       -2 0.32729285E-02 0.49744256E+03</pdfrwt>
<totfact> 0.14448450E+03</totfact>
</mgrwt>
</event>
<event>
 4    1  0.2621617E-004  0.4400381E+03  0.7818608E-02  0.1030735E+00
         -2   -1    0    0    0  501 -0.00000000000E+00  0.00000000000E+00  0.56400776276E+02  0.56400776333E+02  0.25500000000E-02 0. -1.
          2   -1    0    0  501    0  0.00000000000E+00 -0.00000000000E+00 -0.85829298363E+03  0.85829298364E+03  0.25500000000E-02 0.  1.
    5000001    1    1    2    0    0  0.90936163857E+02 -0.15356034357E+03 -0.44401147425E+03  0.49510135758E+03  0.12700000000E+03 0.  0.
   -5000001    1    1    2    0    0 -0.90936163857E+02  0.15356034357E+03 -0.35788073311E+03  0.41959240239E+03  0.12700000000E+03 0.  0.
<mgrwt>
<rscale>  0 0.44003814E+03</rscale>
<asrwt>0</asrwt>
<pdfrwt beam="1">  1        2 0.12261328E+00 0.44003814E+03</pdfrwt>
<pdfrwt beam="2">  1       -2 0.80572543E-02 0.44003814E+03</pdfrwt>
<totfact> 0.33535973E+03</totfact>
</mgrwt>
</event>
<event>
 4    1  0.2621617E-004  0.6657222E+03  0.7818608E-02  0.9777717E-01
          2   -1    0    0  501    0  0.00000000000E+00  0.00000000000E+00  0.16647246512E+04  0.16647246512E+04  0.25500000000E-02 0.  1.
         -2   -1    0    0    0  501 -0.00000000000E+00 -0.00000000000E+00 -0.66555453972E+02  0.66555454021E+02  0.25500000000E-02 0. -1.
    5000001    1    1    2    0    0 -0.67075942780E+01  0.24590370638E+03  0.12796962979E+04  0.13092995225E+04  0.12700000000E+03 0.  0.
   -5000001    1    1    2    0    0  0.67075942780E+01 -0.24590370638E+03  0.31847289933E+03  0.42198058277E+03  0.12700000000E+03 0.  0.
<mgrwt>
<rscale>  0 0.66572218E+03</rscale>
<asrwt>0</asrwt>
<pdfrwt beam="1">  1        2 0.23781779E+00 0.66572218E+03</pdfrwt>
<pdfrwt beam="2">  1       -2 0.95079225E-02 0.66572218E+03</pdfrwt>
<totfact> 0.90632467E+02</totfact>
</mgrwt>
</event>
<event>
 4    1  0.2621617E-004  0.3568888E+03  0.7818608E-02  0.1059823E+00
          2   -1    0    0  501    0  0.00000000000E+00  0.00000000000E+00  0.20545400399E+04  0.20545400399E+04  0.25500000000E-02 0.  1.
         -2   -1    0    0    0  501 -0.00000000000E+00 -0.00000000000E+00 -0.15498559831E+02  0.15498560041E+02  0.25500000000E-02 0. -1.
    5000001    1    1    2    0    0  0.10799433709E+03  0.37486736440E+02  0.72119585760E+03  0.74116158648E+03  0.12700000000E+03 0.  0.
   -5000001    1    1    2    0    0 -0.10799433709E+03 -0.37486736440E+02  0.13178456225E+04  0.13288770135E+04  0.12700000000E+03 0.  0.
<mgrwt>
<rscale>  0 0.35688885E+03</rscale>
<asrwt>0</asrwt>
<pdfrwt beam="1">  1        2 0.29350560E+00 0.35688885E+03</pdfrwt>
<pdfrwt beam="2">  1       -2 0.22140809E-02 0.35688885E+03</pdfrwt>
<totfact> 0.55303015E+03</totfact>
</mgrwt>
</event>
<event>
 4    1  0.2621617E-004  0.3417485E+03  0.7818608E-02  0.1066054E+00
         -2   -1    0    0    0  501 -0.00000000000E+00  0.00000000000E+00  0.14033292027E+02  0.14033292259E+02  0.25500000000E-02 0. -1.
          2   -1    0    0  501    0  0.00000000000E+00 -0.00000000000E+00 -0.20806243141E+04  0.20806243141E+04  0.25500000000E-02 0.  1.
    5000001    1    1    2    0    0  0.11383289445E+03  0.94769919511E+01 -0.10050294193E+04  0.10194414524E+04  0.12700000000E+03 0.  0.
   -5000001    1    1    2    0    0 -0.11383289445E+03 -0.94769919511E+01 -0.10615616028E+04  0.10752161540E+04  0.12700000000E+03 0.  0.
<mgrwt>
<rscale>  0 0.34174850E+03</rscale>
<asrwt>0</asrwt>
<pdfrwt beam="1">  1        2 0.29723185E+00 0.34174850E+03</pdfrwt>
<pdfrwt beam="2">  1       -2 0.20047573E-02 0.34174850E+03</pdfrwt>
<totfact> 0.62216422E+03</totfact>
</mgrwt>
</event>
<event>
 4    1  0.2621617E-004  0.5229312E+03  0.7818608E-02  0.1007961E+00
         -2   -1    0    0    0  501 -0.00000000000E+00  0.00000000000E+00  0.61046484740E+02  0.61046484793E+02  0.25500000000E-02 0. -1.
          2   -1    0    0  501    0  0.00000000000E+00 -0.00000000000E+00 -0.11198720621E+04  0.11198720621E+04  0.25500000000E-02 0.  1.
    5000001    1    1    2    0    0 -0.12667703108E+03  0.16412683887E+03 -0.31221294776E+03  0.39571531962E+03  0.12700000000E+03 0.  0.
   -5000001    1    1    2    0    0  0.12667703108E+03 -0.16412683887E+03 -0.74661262963E+03  0.78520322730E+03  0.12700000000E+03 0.  0.
<mgrwt>
<rscale>  0 0.52293117E+03</rscale>
<asrwt>0</asrwt>
<pdfrwt beam="1">  1        2 0.15998171E+00 0.52293117E+03</pdfrwt>
<pdfrwt beam="2">  1       -2 0.87209271E-02 0.52293117E+03</pdfrwt>
<totfact> 0.20480228E+03</totfact>
</mgrwt>
</event>
<event>
 4    1  0.2621617E-004  0.3072195E+03  0.7818608E-02  0.1081686E+00
         -2   -1    0    0    0  501 -0.00000000000E+00  0.00000000000E+00  0.17234616535E+02  0.17234616724E+02  0.25500000000E-02 0. -1.
          2   -1    0    0  501    0  0.00000000000E+00 -0.00000000000E+00 -0.13691023280E+04  0.13691023280E+04  0.25500000000E-02 0.  1.
    5000001    1    1    2    0    0 -0.85397133671E+02  0.25835500938E+01 -0.61751296680E+03  0.63620013308E+03  0.12700000000E+03 0.  0.
   -5000001    1    1    2    0    0  0.85397133671E+02 -0.25835500938E+01 -0.73435474471E+03  0.75013681169E+03  0.12700000000E+03 0.  0.
<mgrwt>
<rscale>  0 0.30721949E+03</rscale>
<asrwt>0</asrwt>
<pdfrwt beam="1">  1        2 0.19558598E+00 0.30721949E+03</pdfrwt>
<pdfrwt beam="2">  1       -2 0.24620889E-02 0.30721949E+03</pdfrwt>
<totfact> 0.10377498E+04</totfact>
</mgrwt>
</event>
<event>
 4    1  0.2621617E-004  0.6023812E+03  0.7818608E-02  0.9900478E-01
          2   -1    0    0  501    0  0.00000000000E+00  0.00000000000E+00  0.20364156321E+04  0.20364156321E+04  0.25500000000E-02 0.  1.
         -2   -1    0    0    0  501 -0.00000000000E+00 -0.00000000000E+00 -0.44546792002E+02  0.44546792075E+02  0.25500000000E-02 0. -1.
    5000001    1    1    2    0    0  0.27086934238E+03  0.23593330533E+02  0.10846795050E+04  0.11254267966E+04  0.12700000000E+03 0.  0.
   -5000001    1    1    2    0    0 -0.27086934238E+03 -0.23593330533E+02  0.90718933501E+03  0.95553562751E+03  0.12700000000E+03 0.  0.
<mgrwt>
<rscale>  0 0.60238122E+03</rscale>
<asrwt>0</asrwt>
<pdfrwt beam="1">  1        2 0.29091659E+00 0.60238122E+03</pdfrwt>
<pdfrwt beam="2">  1       -2 0.63638260E-02 0.60238122E+03</pdfrwt>
<totfact> 0.11184693E+03</totfact>
</mgrwt>
</event>
<event>
 4    1  0.2621617E-004  0.2957929E+03  0.7818608E-02  0.1087363E+00
         -2   -1    0    0    0  501 -0.00000000000E+00  0.00000000000E+00  0.10323262091E+04  0.10323262091E+04  0.25500000000E-02 0. -1.
          2   -1    0    0  501    0  0.00000000000E+00 -0.00000000000E+00 -0.21188425117E+02  0.21188425271E+02  0.25500000000E-02 0.  1.
    5000001    1    1    2    0    0  0.42813927668E+02  0.61936511626E+02  0.53645546487E+03  0.55640150042E+03  0.12700000000E+03 0.  0.
   -5000001    1    1    2    0    0 -0.42813927668E+02 -0.61936511626E+02  0.47468231908E+03  0.49711313392E+03  0.12700000000E+03 0.  0.
<mgrwt>
<rscale>  0 0.29579295E+03</rscale>
<asrwt>0</asrwt>
<pdfrwt beam="1">  1        2 0.30269165E-02 0.29579295E+03</pdfrwt>
<pdfrwt beam="2">  1       -2 0.14747524E+00 0.29579295E+03</pdfrwt>
<totfact> 0.10284232E+03</totfact>
</mgrwt>
</event>
<event>
 4    1  0.2621617E-004  0.3580011E+03  0.7818608E-02  0.1059378E+00
         -2   -1    0    0    0  501 -0.00000000000E+00  0.00000000000E+00  0.12855125219E+02  0.12855125472E+02  0.25500000000E-02 0. -1.
          2   -1    0    0  501    0  0.00000000000E+00 -0.00000000000E+00 -0.24924840633E+04  0.24924840633E+04  0.25500000000E-02 0.  1.
    5000001    1    1    2    0    0  0.69794113807E+02  0.69276561104E+02 -0.68692942770E+03  0.70545836084E+03  0.12700000000E+03 0.  0.
   -5000001    1    1    2    0    0 -0.69794113807E+02 -0.69276561104E+02 -0.17926995104E+04  0.17998808280E+04  0.12700000000E+03 0.  0.
<mgrwt>
<rscale>  0 0.35800109E+03</rscale>
<asrwt>0</asrwt>
<pdfrwt beam="1">  1        2 0.35606884E+00 0.35800109E+03</pdfrwt>
<pdfrwt beam="2">  1       -2 0.18364481E-02 0.35800109E+03</pdfrwt>
<totfact> 0.44223737E+03</totfact>
</mgrwt>
</event>
<event>
 4    1  0.2621617E-004  0.4122174E+03  0.7818608E-02  0.1039629E+00
         -2   -1    0    0    0  501 -0.00000000000E+00  0.00000000000E+00  0.95903492790E+02  0.95903492824E+02  0.25500000000E-02 0. -1.
          2   -1    0    0  501    0  0.00000000000E+00 -0.00000000000E+00 -0.44295349065E+03  0.44295349065E+03  0.25500000000E-02 0.  1.
    5000001    1    1    2    0    0 -0.11116757652E+03 -0.10980990499E+03 -0.11601729081E+03  0.23239074222E+03  0.12700000000E+03 0.  0.
   -5000001    1    1    2    0    0  0.11116757652E+03  0.10980990499E+03 -0.23103270705E+03  0.30646624126E+03  0.12700000000E+03 0.  0.
<mgrwt>
<rscale>  0 0.41221735E+03</rscale>
<asrwt>0</asrwt>
<pdfrwt beam="1">  1        2 0.63279069E-01 0.41221735E+03</pdfrwt>
<pdfrwt beam="2">  1       -2 0.13700499E-01 0.41221735E+03</pdfrwt>
<totfact> 0.31026256E+03</totfact>
</mgrwt>
</event>
<event>
 4    1  0.2621617E-004  0.3536232E+03  0.7818608E-02  0.1061138E+00
          2   -1    0    0  501    0  0.00000000000E+00  0.00000000000E+00  0.12052098197E+03  0.12052098200E+03  0.25500000000E-02 0.  1.
         -2   -1    0    0    0  501 -0.00000000000E+00 -0.00000000000E+00 -0.25939337331E+03  0.25939337332E+03  0.25500000000E-02 0. -1.
    5000001    1    1    2    0    0  0.10636301174E+03 -0.50717912559E+02 -0.10738892705E+03  0.20383026903E+03  0.12700000000E+03 0.  0.
   -5000001    1    1    2    0    0 -0.10636301174E+03  0.50717912559E+02 -0.31483464282E+02  0.17608408629E+03  0.12700000000E+03 0.  0.
<mgrwt>
<rscale>  0 0.35362321E+03</rscale>
<asrwt>0</asrwt>
<pdfrwt beam="1">  1        2 0.17217283E-01 0.35362321E+03</pdfrwt>
<pdfrwt beam="2">  1       -2 0.37056196E-01 0.35362321E+03</pdfrwt>
<totfact> 0.22933724E+03</totfact>
</mgrwt>
</event>
<event>
 4    1  0.2621617E-004  0.3128372E+03  0.7818608E-02  0.1078994E+00
          2   -1    0    0  501    0  0.00000000000E+00  0.00000000000E+00  0.25212588028E+04  0.25212588028E+04  0.25500000000E-02 0. -1.
         -2   -1    0    0    0  501 -0.00000000000E+00 -0.00000000000E+00 -0.97041941196E+01  0.97041944546E+01  0.25500000000E-02 0.  1.
    5000001    1    1    2    0    0  0.31794460638E+02  0.69621127870E+02  0.85289765421E+03  0.86569128315E+03  0.12700000000E+03 0.  0.
   -5000001    1    1    2    0    0 -0.31794460638E+02 -0.69621127870E+02  0.16586569545E+04  0.16652717141E+04  0.12700000000E+03 0.  0.
<mgrwt>
<rscale>  0 0.31283724E+03</rscale>
<asrwt>0</asrwt>
<pdfrwt beam="1">  1        2 0.36018003E+00 0.31283724E+03</pdfrwt>
<pdfrwt beam="2">  1       -2 0.13863127E-02 0.31283724E+03</pdfrwt>
<totfact> 0.64788312E+03</totfact>
</mgrwt>
</event>
<event>
 4    1  0.2621617E-004  0.2876092E+03  0.7818608E-02  0.1091604E+00
         -2   -1    0    0    0  501 -0.00000000000E+00  0.00000000000E+00  0.54931166571E+03  0.54931166572E+03  0.25500000000E-02 0. -1.
          2   -1    0    0  501    0  0.00000000000E+00 -0.00000000000E+00 -0.37646676162E+02  0.37646676248E+02  0.25500000000E-02 0.  1.
    5000001    1    1    2    0    0  0.60274603209E+02  0.21801526806E+02  0.29875884050E+03  0.33089904675E+03  0.12700000000E+03 0.  0.
   -5000001    1    1    2    0    0 -0.60274603209E+02 -0.21801526806E+02  0.21290614905E+03  0.25605929521E+03  0.12700000000E+03 0.  0.
<mgrwt>
<rscale>  0 0.28760917E+03</rscale>
<asrwt>0</asrwt>
<pdfrwt beam="1">  1        2 0.53780965E-02 0.28760917E+03</pdfrwt>
<pdfrwt beam="2">  1       -2 0.78473096E-01 0.28760917E+03</pdfrwt>
<totfact> 0.21216526E+03</totfact>
</mgrwt>
</event>
<event>
 4    1  0.2621617E-004  0.4747203E+03  0.7818608E-02  0.1020596E+00
          2   -1    0    0  501    0  0.00000000000E+00  0.00000000000E+00  0.36607195567E+04  0.36607195567E+04  0.25500000000E-02 0.  1.
         -2   -1    0    0    0  501 -0.00000000000E+00 -0.00000000000E+00 -0.15390374201E+02  0.15390374412E+02  0.25500000000E-02 0. -1.
    5000001    1    1    2    0    0 -0.12944356170E+02 -0.19500937968E+03  0.21702393972E+04  0.21827194633E+04  0.12700000000E+03 0.  0.
   -5000001    1    1    2    0    0  0.12944356170E+02  0.19500937968E+03  0.14750897854E+04  0.14933904678E+04  0.12700000000E+03 0.  0.
<mgrwt>
<rscale>  0 0.47472031E+03</rscale>
<asrwt>0</asrwt>
<pdfrwt beam="1">  1        2 0.52296038E+00 0.47472031E+03</pdfrwt>
<pdfrwt beam="2">  1       -2 0.21986230E-02 0.47472031E+03</pdfrwt>
<totfact> 0.76607753E+02</totfact>
</mgrwt>
</event>
<event>
 4    1  0.2621617E-004  0.3905137E+03  0.7818608E-02  0.1047115E+00
         -2   -1    0    0    0  501 -0.00000000000E+00  0.00000000000E+00  0.81165428196E+03  0.81165428197E+03  0.25500000000E-02 0. -1.
          2   -1    0    0  501    0  0.00000000000E+00 -0.00000000000E+00 -0.46972260989E+02  0.46972261058E+02  0.25500000000E-02 0.  1.
    5000001    1    1    2    0    0 -0.11385926151E+03 -0.91441613594E+02  0.43928449819E+03  0.48002642686E+03  0.12700000000E+03 0.  0.
   -5000001    1    1    2    0    0  0.11385926151E+03  0.91441613594E+02  0.32539752278E+03  0.37860011617E+03  0.12700000000E+03 0.  0.
<mgrwt>
<rscale>  0 0.39051370E+03</rscale>
<asrwt>0</asrwt>
<pdfrwt beam="1">  1        2 0.67103239E-02 0.39051370E+03</pdfrwt>
<pdfrwt beam="2">  1       -2 0.11595060E+00 0.39051370E+03</pdfrwt>
<totfact> 0.64844711E+02</totfact>
</mgrwt>
</event>
<event>
 4    1  0.2621617E-004  0.3288777E+03  0.7818608E-02  0.1071635E+00
          2   -1    0    0  501    0  0.00000000000E+00  0.00000000000E+00  0.90218424352E+03  0.90218424353E+03  0.25500000000E-02 0.  1.
         -2   -1    0    0    0  501 -0.00000000000E+00 -0.00000000000E+00 -0.29971854033E+02  0.29971854141E+02  0.25500000000E-02 0. -1.
    5000001    1    1    2    0    0 -0.45204496328E+02 -0.71948818365E+02  0.60830475517E+03  0.62720312030E+03  0.12700000000E+03 0.  0.
   -5000001    1    1    2    0    0  0.45204496328E+02  0.71948818365E+02  0.26390763432E+03  0.30495297736E+03  0.12700000000E+03 0.  0.
<mgrwt>
<rscale>  0 0.32887769E+03</rscale>
<asrwt>0</asrwt>
<pdfrwt beam="1">  1        2 0.12888347E+00 0.32887769E+03</pdfrwt>
<pdfrwt beam="2">  1       -2 0.42816933E-02 0.32887769E+03</pdfrwt>
<totfact> 0.83168829E+03</totfact>
</mgrwt>
</event>
<event>
 4    1  0.2621617E-004  0.3138413E+03  0.7818608E-02  0.1078519E+00
          2   -1    0    0  501    0  0.00000000000E+00  0.00000000000E+00  0.13366197885E+04  0.13366197885E+04  0.25500000000E-02 0.  1.
         -2   -1    0    0    0  501 -0.00000000000E+00 -0.00000000000E+00 -0.18422663267E+02  0.18422663444E+02  0.25500000000E-02 0. -1.
    5000001    1    1    2    0    0  0.49054709661E+02  0.77718263166E+02  0.62899788868E+03  0.64823902763E+03  0.12700000000E+03 0.  0.
   -5000001    1    1    2    0    0 -0.49054709661E+02 -0.77718263166E+02  0.68919923652E+03  0.70680342429E+03  0.12700000000E+03 0.  0.
<mgrwt>
<rscale>  0 0.31384134E+03</rscale>
<asrwt>0</asrwt>
<pdfrwt beam="1">  1        2 0.19094567E+00 0.31384134E+03</pdfrwt>
<pdfrwt beam="2">  1       -2 0.26318092E-02 0.31384134E+03</pdfrwt>
<totfact> 0.97782075E+03</totfact>
</mgrwt>
</event>
<event>
 4    1  0.2621617E-004  0.7947208E+03  0.7818608E-02  0.9567690E-01
          2   -1    0    0  501    0  0.00000000000E+00  0.00000000000E+00  0.25006033550E+04  0.25006033550E+04  0.25500000000E-02 0.  1.
         -2   -1    0    0    0  501 -0.00000000000E+00 -0.00000000000E+00 -0.63142874897E+02  0.63142874948E+02  0.25500000000E-02 0. -1.
    5000001    1    1    2    0    0  0.22592098984E+02 -0.32069683148E+03  0.18509664375E+04  0.18829664398E+04  0.12700000000E+03 0.  0.
   -5000001    1    1    2    0    0 -0.22592098984E+02  0.32069683148E+03  0.58649404256E+03  0.68077979011E+03  0.12700000000E+03 0.  0.
<mgrwt>
<rscale>  0 0.79472079E+03</rscale>
<asrwt>0</asrwt>
<pdfrwt beam="1">  1        2 0.35722897E+00 0.79472079E+03</pdfrwt>
<pdfrwt beam="2">  1       -2 0.90204127E-02 0.79472079E+03</pdfrwt>
<totfact> 0.36766910E+02</totfact>
</mgrwt>
</event>
<event>
 4    1  0.2621617E-004  0.2757373E+03  0.7818608E-02  0.1098040E+00
          2   -1    0    0  501    0  0.00000000000E+00  0.00000000000E+00  0.60695571039E+03  0.60695571039E+03  0.25500000000E-02 0.  1.
         -2   -1    0    0    0  501 -0.00000000000E+00 -0.00000000000E+00 -0.31316565971E+02  0.31316566075E+02  0.25500000000E-02 0. -1.
    5000001    1    1    2    0    0  0.14364813118E+02  0.47068447117E+02  0.23833612237E+03  0.27450845852E+03  0.12700000000E+03 0.  0.
   -5000001    1    1    2    0    0 -0.14364813118E+02 -0.47068447117E+02  0.33730302204E+03  0.36376381795E+03  0.12700000000E+03 0.  0.
<mgrwt>
<rscale>  0 0.27573733E+03</rscale>
<asrwt>0</asrwt>
<pdfrwt beam="1">  1        2 0.86707945E-01 0.27573733E+03</pdfrwt>
<pdfrwt beam="2">  1       -2 0.44737958E-02 0.27573733E+03</pdfrwt>
<totfact> 0.12525701E+04</totfact>
</mgrwt>
</event>
<event>
 4    1  0.2621617E-004  0.4492538E+03  0.7818608E-02  0.1027945E+00
          2   -1    0    0  501    0  0.00000000000E+00  0.00000000000E+00  0.10249009089E+03  0.10249009092E+03  0.25500000000E-02 0.  1.
         -2   -1    0    0    0  501 -0.00000000000E+00 -0.00000000000E+00 -0.49231337410E+03  0.49231337411E+03  0.25500000000E-02 0. -1.
    5000001    1    1    2    0    0 -0.17961138713E+03 -0.45367176598E+02 -0.19905876135E+03  0.30011967874E+03  0.12700000000E+03 0.  0.
   -5000001    1    1    2    0    0  0.17961138713E+03  0.45367176598E+02 -0.19076452186E+03  0.29468378629E+03  0.12700000000E+03 0.  0.
<mgrwt>
<rscale>  0 0.44925379E+03</rscale>
<asrwt>0</asrwt>
<pdfrwt beam="1">  1        2 0.14641442E-01 0.44925379E+03</pdfrwt>
<pdfrwt beam="2">  1       -2 0.70330481E-01 0.44925379E+03</pdfrwt>
<totfact> 0.76330968E+02</totfact>
</mgrwt>
</event>
<event>
 4    1  0.2621617E-004  0.3799271E+03  0.7818608E-02  0.1050961E+00
         -2   -1    0    0    0  501 -0.00000000000E+00  0.00000000000E+00  0.97992375040E+02  0.97992375073E+02  0.25500000000E-02 0. -1.
          2   -1    0    0  501    0  0.00000000000E+00 -0.00000000000E+00 -0.36825463892E+03  0.36825463893E+03  0.25500000000E-02 0.  1.
    5000001    1    1    2    0    0  0.11519795960E+03 -0.16396144010E+02 -0.23344323408E+03  0.29011057715E+03  0.12700000000E+03 0.  0.
   -5000001    1    1    2    0    0 -0.11519795960E+03  0.16396144010E+02 -0.36819029800E+02  0.17613643686E+03  0.12700000000E+03 0.  0.
<mgrwt>
<rscale>  0 0.37992708E+03</rscale>
<asrwt>0</asrwt>
<pdfrwt beam="1">  1        2 0.52607805E-01 0.37992708E+03</pdfrwt>
<pdfrwt beam="2">  1       -2 0.13998911E-01 0.37992708E+03</pdfrwt>
<totfact> 0.36613631E+03</totfact>
</mgrwt>
</event>
<event>
 4    1  0.2621617E-004  0.5218891E+03  0.7818608E-02  0.1008218E+00
         -2   -1    0    0    0  501 -0.00000000000E+00  0.00000000000E+00  0.26333694726E+03  0.26333694727E+03  0.25500000000E-02 0. -1.
          2   -1    0    0  501    0  0.00000000000E+00 -0.00000000000E+00 -0.25857387973E+03  0.25857387974E+03  0.25500000000E-02 0.  1.
    5000001    1    1    2    0    0 -0.15593361046E+03 -0.81571846572E+01  0.16846441359E+03  0.26247112066E+03  0.12700000000E+03 0.  0.
   -5000001    1    1    2    0    0  0.15593361046E+03  0.81571846572E+01 -0.16370134607E+03  0.25943970636E+03  0.12700000000E+03 0.  0.
<mgrwt>
<rscale>  0 0.52188909E+03</rscale>
<asrwt>0</asrwt>
<pdfrwt beam="1">  1        2 0.36939126E-01 0.52188909E+03</pdfrwt>
<pdfrwt beam="2">  1       -2 0.37619564E-01 0.52188909E+03</pdfrwt>
<totfact> 0.94069243E+02</totfact>
</mgrwt>
</event>
<event>
 4    1  0.2621617E-004  0.3930609E+03  0.7818608E-02  0.1046209E+00
         -2   -1    0    0    0  501 -0.00000000000E+00  0.00000000000E+00  0.26146194158E+02  0.26146194283E+02  0.25500000000E-02 0.  1.
          2   -1    0    0  501    0  0.00000000000E+00 -0.00000000000E+00 -0.14772402820E+04  0.14772402820E+04  0.25500000000E-02 0. -1.
    5000001    1    1    2    0    0  0.63896023024E+02 -0.11524924677E+03 -0.45159495122E+03  0.48727003869E+03  0.12700000000E+03 0.  0.
   -5000001    1    1    2    0    0 -0.63896023024E+02  0.11524924677E+03 -0.99949913666E+03  0.10161164376E+04  0.12700000000E+03 0.  0.
<mgrwt>
<rscale>  0 0.39306087E+03</rscale>
<asrwt>0</asrwt>
<pdfrwt beam="1">  1        2 0.21103427E+00 0.39306087E+03</pdfrwt>
<pdfrwt beam="2">  1       -2 0.37351715E-02 0.39306087E+03</pdfrwt>
<totfact> 0.49010409E+03</totfact>
</mgrwt>
</event>
<event>
 4    1  0.2621617E-004  0.3887823E+03  0.7818608E-02  0.1047735E+00
          2   -1    0    0  501    0  0.00000000000E+00  0.00000000000E+00  0.14406359920E+04  0.14406359920E+04  0.25500000000E-02 0.  1.
         -2   -1    0    0    0  501 -0.00000000000E+00 -0.00000000000E+00 -0.26230023363E+02  0.26230023487E+02  0.25500000000E-02 0. -1.
    5000001    1    1    2    0    0  0.76299203837E+02  0.10457907292E+03  0.44307948000E+03  0.47875544550E+03  0.12700000000E+03 0.  0.
   -5000001    1    1    2    0    0 -0.76299203837E+02 -0.10457907292E+03  0.97132648868E+03  0.98811057003E+03  0.12700000000E+03 0.  0.
<mgrwt>
<rscale>  0 0.38878228E+03</rscale>
<asrwt>0</asrwt>
<pdfrwt beam="1">  1        2 0.20580510E+00 0.38878228E+03</pdfrwt>
<pdfrwt beam="2">  1       -2 0.37471470E-02 0.38878228E+03</pdfrwt>
<totfact> 0.50938882E+03</totfact>
</mgrwt>
</event>
<event>
 4    1  0.2621617E-004  0.3335418E+03  0.7818608E-02  0.1069580E+00
         -2   -1    0    0    0  501 -0.00000000000E+00  0.00000000000E+00  0.77176492011E+02  0.77176492053E+02  0.25500000000E-02 0. -1.
          2   -1    0    0  501    0  0.00000000000E+00 -0.00000000000E+00 -0.36037571358E+03  0.36037571359E+03  0.25500000000E-02 0.  1.
    5000001    1    1    2    0    0 -0.23198994024E+02 -0.10189253146E+03 -0.10535748939E+03  0.19531892346E+03  0.12700000000E+03 0.  0.
   -5000001    1    1    2    0    0  0.23198994024E+02  0.10189253146E+03 -0.17784173218E+03  0.24223328218E+03  0.12700000000E+03 0.  0.
<mgrwt>
<rscale>  0 0.33354180E+03</rscale>
<asrwt>0</asrwt>
<pdfrwt beam="1">  1        2 0.51482244E-01 0.33354180E+03</pdfrwt>
<pdfrwt beam="2">  1       -2 0.11025213E-01 0.33354180E+03</pdfrwt>
<totfact> 0.55163813E+03</totfact>
</mgrwt>
</event>
<event>
 4    1  0.2621617E-004  0.4216820E+03  0.7818608E-02  0.1036520E+00
          2   -1    0    0  501    0  0.00000000000E+00  0.00000000000E+00  0.21818382896E+03  0.21818382897E+03  0.25500000000E-02 0. -1.
         -2   -1    0    0    0  501 -0.00000000000E+00 -0.00000000000E+00 -0.20374526071E+03  0.20374526072E+03  0.25500000000E-02 0.  1.
    5000001    1    1    2    0    0 -0.10822110578E+03 -0.78427149451E+02 -0.95126021945E+02  0.20746225092E+03  0.12700000000E+03 0.  0.
   -5000001    1    1    2    0    0  0.10822110578E+03  0.78427149451E+02  0.10956459019E+03  0.21446683877E+03  0.12700000000E+03 0.  0.
<mgrwt>
<rscale>  0 0.42168197E+03</rscale>
<asrwt>0</asrwt>
<pdfrwt beam="1">  1        2 0.31169118E-01 0.42168197E+03</pdfrwt>
<pdfrwt beam="2">  1       -2 0.29106466E-01 0.42168197E+03</pdfrwt>
<totfact> 0.18315545E+03</totfact>
</mgrwt>
</event>
<event>
 4    1  0.2621617E-004  0.7522893E+03  0.7818608E-02  0.9631766E-01
          2   -1    0    0  501    0  0.00000000000E+00  0.00000000000E+00  0.20277585916E+04  0.20277585916E+04  0.25500000000E-02 0.  1.
         -2   -1    0    0    0  501 -0.00000000000E+00 -0.00000000000E+00 -0.69773993229E+02  0.69773993276E+02  0.25500000000E-02 0. -1.
    5000001    1    1    2    0    0  0.68664142396E+02  0.34205174832E+03  0.11472492391E+04  0.12058291669E+04  0.12700000000E+03 0.  0.
   -5000001    1    1    2    0    0 -0.68664142396E+02 -0.34205174832E+03  0.81073535927E+03  0.89170341805E+03  0.12700000000E+03 0.  0.
<mgrwt>
<rscale>  0 0.75228934E+03</rscale>
<asrwt>0</asrwt>
<pdfrwt beam="1">  1        2 0.28967978E+00 0.75228934E+03</pdfrwt>
<pdfrwt beam="2">  1       -2 0.99677139E-02 0.75228934E+03</pdfrwt>
<totfact> 0.54654921E+02</totfact>
</mgrwt>
</event>
<event>
 4    1  0.2621617E-004  0.4677463E+03  0.7818608E-02  0.1022558E+00
         -2   -1    0    0    0  501 -0.00000000000E+00  0.00000000000E+00  0.99020775460E+02  0.99020775493E+02  0.25500000000E-02 0. -1.
          2   -1    0    0  501    0  0.00000000000E+00 -0.00000000000E+00 -0.55237556660E+03  0.55237556660E+03  0.25500000000E-02 0.  1.
    5000001    1    1    2    0    0 -0.79666704003E+01 -0.19622326239E+03 -0.22777432560E+03  0.32646160562E+03  0.12700000000E+03 0.  0.
   -5000001    1    1    2    0    0  0.79666704003E+01  0.19622326239E+03 -0.22558046554E+03  0.32493473648E+03  0.12700000000E+03 0.  0.
<mgrwt>
<rscale>  0 0.46774633E+03</rscale>
<asrwt>0</asrwt>
<pdfrwt beam="1">  1        2 0.78910794E-01 0.46774633E+03</pdfrwt>
<pdfrwt beam="2">  1       -2 0.14145825E-01 0.46774633E+03</pdfrwt>
<totfact> 0.22985326E+03</totfact>
</mgrwt>
</event>
<event>
 4    1  0.2621617E-004  0.6606075E+03  0.7818608E-02  0.9787076E-01
         -2   -1    0    0    0  501 -0.00000000000E+00  0.00000000000E+00  0.17750668648E+03  0.17750668650E+03  0.25500000000E-02 0.  1.
          2   -1    0    0  501    0  0.00000000000E+00 -0.00000000000E+00 -0.61462795789E+03  0.61462795790E+03  0.25500000000E-02 0. -1.
    5000001    1    1    2    0    0  0.27382285067E+03 -0.73640523974E+02 -0.84123944667E+02  0.32188152850E+03  0.12700000000E+03 0.  0.
   -5000001    1    1    2    0    0 -0.27382285067E+03  0.73640523974E+02 -0.35299732675E+03  0.47025311590E+03  0.12700000000E+03 0.  0.
<mgrwt>
<rscale>  0 0.66060752E+03</rscale>
<asrwt>0</asrwt>
<pdfrwt beam="1">  1        2 0.87803993E-01 0.66060752E+03</pdfrwt>
<pdfrwt beam="2">  1       -2 0.25358098E-01 0.66060752E+03</pdfrwt>
<totfact> 0.73903886E+02</totfact>
</mgrwt>
</event>
<event>
 4    1  0.2621617E-004  0.3349170E+03  0.7818608E-02  0.1068982E+00
          2   -1    0    0  501    0  0.00000000000E+00  0.00000000000E+00  0.79202318546E+02  0.79202318587E+02  0.25500000000E-02 0.  1.
         -2   -1    0    0    0  501 -0.00000000000E+00 -0.00000000000E+00 -0.35405962828E+03  0.35405962829E+03  0.25500000000E-02 0. -1.
    5000001    1    1    2    0    0 -0.19670559147E+01 -0.10800282016E+03 -0.11718556713E+03  0.20378894871E+03  0.12700000000E+03 0.  0.
   -5000001    1    1    2    0    0  0.19670559147E+01  0.10800282016E+03 -0.15767174260E+03  0.22947299817E+03  0.12700000000E+03 0.  0.
<mgrwt>
<rscale>  0 0.33491697E+03</rscale>
<asrwt>0</asrwt>
<pdfrwt beam="1">  1        2 0.11314617E-01 0.33491697E+03</pdfrwt>
<pdfrwt beam="2">  1       -2 0.50579946E-01 0.33491697E+03</pdfrwt>
<totfact> 0.20708618E+03</totfact>
</mgrwt>
</event>
<event>
 4    1  0.2621617E-004  0.3104208E+03  0.7818608E-02  0.1080144E+00
         -2   -1    0    0    0  501 -0.00000000000E+00  0.00000000000E+00  0.23345476028E+03  0.23345476029E+03  0.25500000000E-02 0. -1.
          2   -1    0    0  501    0  0.00000000000E+00 -0.00000000000E+00 -0.10319028357E+03  0.10319028360E+03  0.25500000000E-02 0.  1.
    5000001    1    1    2    0    0  0.49484209498E+01 -0.64268410680E+02 -0.17753957723E+01  0.14243267712E+03  0.12700000000E+03 0.  0.
   -5000001    1    1    2    0    0 -0.49484209498E+01  0.64268410680E+02  0.13203987248E+03  0.19421236677E+03  0.12700000000E+03 0.  0.
<mgrwt>
<rscale>  0 0.31042077E+03</rscale>
<asrwt>0</asrwt>
<pdfrwt beam="1">  1        2 0.14741469E-01 0.31042077E+03</pdfrwt>
<pdfrwt beam="2">  1       -2 0.33350680E-01 0.31042077E+03</pdfrwt>
<totfact> 0.33471441E+03</totfact>
</mgrwt>
</event>
<event>
 4    1  0.2621617E-004  0.4391174E+03  0.7818608E-02  0.1031018E+00
          2   -1    0    0  501    0  0.00000000000E+00  0.00000000000E+00  0.22970493917E+04  0.22970493917E+04  0.25500000000E-02 0. -1.
         -2   -1    0    0    0  501 -0.00000000000E+00 -0.00000000000E+00 -0.20986064177E+02  0.20986064332E+02  0.25500000000E-02 0.  1.
    5000001    1    1    2    0    0 -0.19595385067E+02  0.10256926875E+03  0.19061469862E+04  0.19132249651E+04  0.12700000000E+03 0.  0.
   -5000001    1    1    2    0    0  0.19595385067E+02 -0.10256926875E+03  0.36991634133E+03  0.40481049096E+03  0.12700000000E+03 0.  0.
<mgrwt>
<rscale>  0 0.43911742E+03</rscale>
<asrwt>0</asrwt>
<pdfrwt beam="1">  1        2 0.32814982E+00 0.43911742E+03</pdfrwt>
<pdfrwt beam="2">  1       -2 0.29980101E-02 0.43911742E+03</pdfrwt>
<totfact> 0.26569128E+03</totfact>
</mgrwt>
</event>
<event>
 4    1  0.2621617E-004  0.3879253E+03  0.7818608E-02  0.1048043E+00
          2   -1    0    0  501    0  0.00000000000E+00  0.00000000000E+00  0.59147360037E+03  0.59147360038E+03  0.25500000000E-02 0.  1.
         -2   -1    0    0    0  501 -0.00000000000E+00 -0.00000000000E+00 -0.63606405207E+02  0.63606405258E+02  0.25500000000E-02 0. -1.
    5000001    1    1    2    0    0 -0.53188613872E+02 -0.13568341888E+03  0.29081966368E+03  0.34920494783E+03  0.12700000000E+03 0.  0.
   -5000001    1    1    2    0    0  0.53188613872E+02  0.13568341888E+03  0.23704753149E+03  0.30587505781E+03  0.12700000000E+03 0.  0.
<mgrwt>
<rscale>  0 0.38792530E+03</rscale>
<asrwt>0</asrwt>
<pdfrwt beam="1">  1        2 0.84496226E-01 0.38792530E+03</pdfrwt>
<pdfrwt beam="2">  1       -2 0.90866296E-02 0.38792530E+03</pdfrwt>
<totfact> 0.43518907E+03</totfact>
</mgrwt>
</event>
<event>
 4    1  0.2621617E-004  0.4401250E+03  0.7818608E-02  0.1030708E+00
         -2   -1    0    0    0  501 -0.00000000000E+00  0.00000000000E+00  0.85938964195E+02  0.85938964233E+02  0.25500000000E-02 0. -1.
          2   -1    0    0  501    0  0.00000000000E+00 -0.00000000000E+00 -0.56351040891E+03  0.56351040891E+03  0.25500000000E-02 0.  1.
    5000001    1    1    2    0    0 -0.16098551614E+02 -0.13581281245E+03 -0.66739007569E+02  0.19821043999E+03  0.12700000000E+03 0.  0.
   -5000001    1    1    2    0    0  0.16098551614E+02  0.13581281245E+03 -0.41083243714E+03  0.45123893316E+03  0.12700000000E+03 0.  0.
<mgrwt>
<rscale>  0 0.44012499E+03</rscale>
<asrwt>0</asrwt>
<pdfrwt beam="1">  1        2 0.80501485E-01 0.44012499E+03</pdfrwt>
<pdfrwt beam="2">  1       -2 0.12276995E-01 0.44012499E+03</pdfrwt>
<totfact> 0.28366999E+03</totfact>
</mgrwt>
</event>
<event>
 4    1  0.2621617E-004  0.4465680E+03  0.7818608E-02  0.1028750E+00
          2   -1    0    0  501    0  0.00000000000E+00  0.00000000000E+00  0.50815395054E+04  0.50815395054E+04  0.25500000000E-02 0.  1.
         -2   -1    0    0    0  501 -0.00000000000E+00 -0.00000000000E+00 -0.98111511520E+01  0.98111514834E+01  0.25500000000E-02 0. -1.
    5000001    1    1    2    0    0 -0.15126962606E+03  0.71031923062E+02  0.16676809101E+04  0.16808380801E+04  0.12700000000E+03 0.  0.
   -5000001    1    1    2    0    0  0.15126962606E+03 -0.71031923062E+02  0.34040474442E+04  0.34105125767E+04  0.12700000000E+03 0.  0.
<mgrwt>
<rscale>  0 0.44656804E+03</rscale>
<asrwt>0</asrwt>
<pdfrwt beam="1">  1        2 0.72593379E+00 0.44656804E+03</pdfrwt>
<pdfrwt beam="2">  1       -2 0.14015939E-02 0.44656804E+03</pdfrwt>
<totfact> 0.12779182E+02</totfact>
</mgrwt>
</event>
<event>
 4    1  0.2621617E-004  0.2922345E+03  0.7818608E-02  0.1089188E+00
         -2   -1    0    0    0  501 -0.00000000000E+00  0.00000000000E+00  0.35386662531E+02  0.35386662623E+02  0.25500000000E-02 0. -1.
          2   -1    0    0  501    0  0.00000000000E+00 -0.00000000000E+00 -0.60334173040E+03  0.60334173040E+03  0.25500000000E-02 0.  1.
    5000001    1    1    2    0    0 -0.42715525913E+02  0.27949650109E+02 -0.39575597471E+03  0.41875719769E+03  0.12700000000E+03 0.  0.
   -5000001    1    1    2    0    0  0.42715525913E+02 -0.27949650109E+02 -0.17219909316E+03  0.21997119534E+03  0.12700000000E+03 0.  0.
<mgrwt>
<rscale>  0 0.29223450E+03</rscale>
<asrwt>0</asrwt>
<pdfrwt beam="1">  1        2 0.86191670E-01 0.29223450E+03</pdfrwt>
<pdfrwt beam="2">  1       -2 0.50552379E-02 0.29223450E+03</pdfrwt>
<totfact> 0.10501693E+04</totfact>
</mgrwt>
</event>
<event>
 4    1  0.2621617E-004  0.4799695E+03  0.7818608E-02  0.1019144E+00
         -2   -1    0    0    0  501 -0.00000000000E+00  0.00000000000E+00  0.94268122053E+02  0.94268122087E+02  0.25500000000E-02 0. -1.
          2   -1    0    0  501    0  0.00000000000E+00 -0.00000000000E+00 -0.61094538918E+03  0.61094538919E+03  0.25500000000E-02 0.  1.
    5000001    1    1    2    0    0 -0.15682249077E+03 -0.10845923506E+03 -0.15333873447E+03  0.27567819422E+03  0.12700000000E+03 0.  0.
   -5000001    1    1    2    0    0  0.15682249077E+03  0.10845923506E+03 -0.36333853266E+03  0.42953531705E+03  0.12700000000E+03 0.  0.
<mgrwt>
<rscale>  0 0.47996948E+03</rscale>
<asrwt>0</asrwt>
<pdfrwt beam="1">  1        2 0.87277911E-01 0.47996948E+03</pdfrwt>
<pdfrwt beam="2">  1       -2 0.13466875E-01 0.47996948E+03</pdfrwt>
<totfact> 0.22195318E+03</totfact>
</mgrwt>
</event>
<event>
 4    1  0.2621617E-004  0.3704416E+03  0.7818608E-02  0.1054524E+00
         -2   -1    0    0    0  501 -0.00000000000E+00  0.00000000000E+00  0.11331204104E+03  0.11331204107E+03  0.25500000000E-02 0. -1.
          2   -1    0    0  501    0  0.00000000000E+00 -0.00000000000E+00 -0.30276346079E+03  0.30276346080E+03  0.25500000000E-02 0.  1.
    5000001    1    1    2    0    0  0.13325970724E+03  0.22752082266E+01 -0.11759077851E+03  0.21844888953E+03  0.12700000000E+03 0.  0.
   -5000001    1    1    2    0    0 -0.13325970724E+03 -0.22752082266E+01 -0.71860641232E+02  0.19762661234E+03  0.12700000000E+03 0.  0.
<mgrwt>
<rscale>  0 0.37044161E+03</rscale>
<asrwt>0</asrwt>
<pdfrwt beam="1">  1        2 0.43251923E-01 0.37044161E+03</pdfrwt>
<pdfrwt beam="2">  1       -2 0.16187435E-01 0.37044161E+03</pdfrwt>
<totfact> 0.35552001E+03</totfact>
</mgrwt>
</event>
<event>
 4    1  0.2621617E-004  0.4207256E+03  0.7818608E-02  0.1036830E+00
         -2   -1    0    0    0  501 -0.00000000000E+00  0.00000000000E+00  0.13124889088E+03  0.13124889090E+03  0.25500000000E-02 0. -1.
          2   -1    0    0  501    0  0.00000000000E+00 -0.00000000000E+00 -0.33716478248E+03  0.33716478249E+03  0.25500000000E-02 0.  1.
    5000001    1    1    2    0    0  0.93582335761E+02  0.52148888277E+02  0.40686908252E+02  0.17106017835E+03  0.12700000000E+03 0.  0.
   -5000001    1    1    2    0    0 -0.93582335761E+02 -0.52148888277E+02 -0.24660279985E+03  0.29735349504E+03  0.12700000000E+03 0.  0.
<mgrwt>
<rscale>  0 0.42072558E+03</rscale>
<asrwt>0</asrwt>
<pdfrwt beam="1">  1        2 0.48166397E-01 0.42072558E+03</pdfrwt>
<pdfrwt beam="2">  1       -2 0.18749842E-01 0.42072558E+03</pdfrwt>
<totfact> 0.24702605E+03</totfact>
</mgrwt>
</event>
<event>
 4    1  0.2621617E-004  0.7699980E+03  0.7818608E-02  0.9604489E-01
          2   -1    0    0  501    0  0.00000000000E+00  0.00000000000E+00  0.19701524456E+04  0.19701524456E+04  0.25500000000E-02 0.  1.
         -2   -1    0    0    0  501 -0.00000000000E+00 -0.00000000000E+00 -0.75234903177E+02  0.75234903220E+02  0.25500000000E-02 0. -1.
    5000001    1    1    2    0    0  0.27955724568E+02 -0.31577392908E+03  0.14196665809E+04  0.14601633121E+04  0.12700000000E+03 0.  0.
   -5000001    1    1    2    0    0 -0.27955724568E+02  0.31577392908E+03  0.47525096149E+03  0.58522403677E+03  0.12700000000E+03 0.  0.
<mgrwt>
<rscale>  0 0.76999800E+03</rscale>
<asrwt>0</asrwt>
<pdfrwt beam="1">  1        2 0.28145032E+00 0.76999800E+03</pdfrwt>
<pdfrwt beam="2">  1       -2 0.10747844E-01 0.76999800E+03</pdfrwt>
<totfact> 0.51625072E+02</totfact>
</mgrwt>
</event>
<event>
 4    1  0.2621617E-004  0.4028978E+03  0.7818608E-02  0.1042781E+00
         -2   -1    0    0    0  501 -0.00000000000E+00  0.00000000000E+00  0.25501992583E+02  0.25501992711E+02  0.25500000000E-02 0. -1.
          2   -1    0    0  501    0  0.00000000000E+00 -0.00000000000E+00 -0.15913131077E+04  0.15913131077E+04  0.25500000000E-02 0.  1.
    5000001    1    1    2    0    0 -0.73611487862E+02 -0.13636398704E+03 -0.69883731287E+03  0.72699131904E+03  0.12700000000E+03 0.  0.
   -5000001    1    1    2    0    0  0.73611487862E+02  0.13636398704E+03 -0.86697380227E+03  0.88982378139E+03  0.12700000000E+03 0.  0.
<mgrwt>
<rscale>  0 0.40289778E+03</rscale>
<asrwt>0</asrwt>
<pdfrwt beam="1">  1        2 0.22733038E+00 0.40289778E+03</pdfrwt>
<pdfrwt beam="2">  1       -2 0.36431428E-02 0.40289778E+03</pdfrwt>
<totfact> 0.44516376E+03</totfact>
</mgrwt>
</event>
<event>
 4    1  0.2621617E-004  0.4886898E+03  0.7818608E-02  0.1016774E+00
          2   -1    0    0  501    0  0.00000000000E+00  0.00000000000E+00  0.47930460314E+03  0.47930460315E+03  0.25500000000E-02 0.  1.
         -2   -1    0    0    0  501 -0.00000000000E+00 -0.00000000000E+00 -0.12456467491E+03  0.12456467493E+03  0.25500000000E-02 0. -1.
    5000001    1    1    2    0    0  0.17202297589E+03 -0.11455706828E+03  0.14112827854E+03  0.28064464565E+03  0.12700000000E+03 0.  0.
   -5000001    1    1    2    0    0 -0.17202297589E+03  0.11455706828E+03  0.21361164970E+03  0.32322463244E+03  0.12700000000E+03 0.  0.
<mgrwt>
<rscale>  0 0.48868977E+03</rscale>
<asrwt>0</asrwt>
<pdfrwt beam="1">  1        2 0.68472084E-01 0.48868977E+03</pdfrwt>
<pdfrwt beam="2">  1       -2 0.17794954E-01 0.48868977E+03</pdfrwt>
<totfact> 0.18345831E+03</totfact>
</mgrwt>
</event>
<event>
 4    1  0.2621617E-004  0.3165376E+03  0.7818608E-02  0.1077254E+00
         -2   -1    0    0    0  501 -0.00000000000E+00  0.00000000000E+00  0.10054197782E+03  0.10054197785E+03  0.25500000000E-02 0. -1.
          2   -1    0    0  501    0  0.00000000000E+00 -0.00000000000E+00 -0.24913989321E+03  0.24913989322E+03  0.25500000000E-02 0.  1.
    5000001    1    1    2    0    0  0.67036295944E+02 -0.63181035948E+02 -0.51276729188E+02  0.16505759974E+03  0.12700000000E+03 0.  0.
   -5000001    1    1    2    0    0 -0.67036295944E+02  0.63181035948E+02 -0.97321186203E+02  0.18462427132E+03  0.12700000000E+03 0.  0.
<mgrwt>
<rscale>  0 0.31653763E+03</rscale>
<asrwt>0</asrwt>
<pdfrwt beam="1">  1        2 0.35591413E-01 0.31653763E+03</pdfrwt>
<pdfrwt beam="2">  1       -2 0.14363140E-01 0.31653763E+03</pdfrwt>
<totfact> 0.53404738E+03</totfact>
</mgrwt>
</event>
<event>
 4    1  0.2621617E-004  0.5670847E+03  0.7818608E-02  0.9976151E-01
         -2   -1    0    0    0  501 -0.00000000000E+00  0.00000000000E+00  0.15514562596E+03  0.15514562598E+03  0.25500000000E-02 0.  1.
          2   -1    0    0  501    0  0.00000000000E+00 -0.00000000000E+00 -0.51819870308E+03  0.51819870309E+03  0.25500000000E-02 0. -1.
    5000001    1    1    2    0    0  0.60881402815E+00  0.23492180670E+03 -0.29466221822E+03  0.39767253962E+03  0.12700000000E+03 0.  0.
   -5000001    1    1    2    0    0 -0.60881402815E+00 -0.23492180670E+03 -0.68390858895E+02  0.27567178945E+03  0.12700000000E+03 0.  0.
<mgrwt>
<rscale>  0 0.56708469E+03</rscale>
<asrwt>0</asrwt>
<pdfrwt beam="1">  1        2 0.74028385E-01 0.56708469E+03</pdfrwt>
<pdfrwt beam="2">  1       -2 0.22163661E-01 0.56708469E+03</pdfrwt>
<totfact> 0.11474285E+03</totfact>
</mgrwt>
</event>
<event>
 4    1  0.2621617E-004  0.3058801E+03  0.7818608E-02  0.1082338E+00
          2   -1    0    0  501    0  0.00000000000E+00  0.00000000000E+00  0.93256505183E+03  0.93256505183E+03  0.25500000000E-02 0.  1.
         -2   -1    0    0    0  501 -0.00000000000E+00 -0.00000000000E+00 -0.25082072740E+02  0.25082072869E+02  0.25500000000E-02 0. -1.
    5000001    1    1    2    0    0 -0.12598874126E+02 -0.83635124970E+02  0.42119046893E+03  0.44797765221E+03  0.12700000000E+03 0.  0.
   -5000001    1    1    2    0    0  0.12598874126E+02  0.83635124970E+02  0.48629251015E+03  0.50966947249E+03  0.12700000000E+03 0.  0.
<mgrwt>
<rscale>  0 0.30588014E+03</rscale>
<asrwt>0</asrwt>
<pdfrwt beam="1">  1        2 0.13322357E+00 0.30588014E+03</pdfrwt>
<pdfrwt beam="2">  1       -2 0.35831534E-02 0.30588014E+03</pdfrwt>
<totfact> 0.10395928E+04</totfact>
</mgrwt>
</event>
<event>
 4    1  0.2621617E-004  0.4568833E+03  0.7818608E-02  0.1025689E+00
         -2   -1    0    0    0  501 -0.00000000000E+00  0.00000000000E+00  0.36029329010E+02  0.36029329100E+02  0.25500000000E-02 0. -1.
          2   -1    0    0  501    0  0.00000000000E+00 -0.00000000000E+00 -0.14484196856E+04  0.14484196856E+04  0.25500000000E-02 0.  1.
    5000001    1    1    2    0    0  0.17434819491E+03  0.71178645686E+02 -0.62708187015E+03  0.66695154587E+03  0.12700000000E+03 0.  0.
   -5000001    1    1    2    0    0 -0.17434819491E+03 -0.71178645686E+02 -0.78530848646E+03  0.81749746885E+03  0.12700000000E+03 0.  0.
<mgrwt>
<rscale>  0 0.45688331E+03</rscale>
<asrwt>0</asrwt>
<pdfrwt beam="1">  1        2 0.20691706E+00 0.45688331E+03</pdfrwt>
<pdfrwt beam="2">  1       -2 0.51470479E-02 0.45688331E+03</pdfrwt>
<totfact> 0.31069748E+03</totfact>
</mgrwt>
</event>
<event>
 4    1  0.2621617E-004  0.5418732E+03  0.7818608E-02  0.1003393E+00
         -2   -1    0    0    0  501 -0.00000000000E+00  0.00000000000E+00  0.12244222983E+03  0.12244222986E+03  0.25500000000E-02 0. -1.
          2   -1    0    0  501    0  0.00000000000E+00 -0.00000000000E+00 -0.59952055666E+03  0.59952055666E+03  0.25500000000E-02 0.  1.
    5000001    1    1    2    0    0 -0.12596288206E+03 -0.19875257385E+03 -0.29674304205E+03  0.39944294495E+03  0.12700000000E+03 0.  0.
   -5000001    1    1    2    0    0  0.12596288206E+03  0.19875257385E+03 -0.18033528477E+03  0.32251984157E+03  0.12700000000E+03 0.  0.
<mgrwt>
<rscale>  0 0.54187317E+03</rscale>
<asrwt>0</asrwt>
<pdfrwt beam="1">  1        2 0.85645792E-01 0.54187317E+03</pdfrwt>
<pdfrwt beam="2">  1       -2 0.17491748E-01 0.54187317E+03</pdfrwt>
<totfact> 0.14621051E+03</totfact>
</mgrwt>
</event>
<event>
 4    1  0.2621617E-004  0.3449892E+03  0.7818608E-02  0.1064691E+00
         -2   -1    0    0    0  501 -0.00000000000E+00  0.00000000000E+00  0.95908484579E+02  0.95908484613E+02  0.25500000000E-02 0. -1.
          2   -1    0    0  501    0  0.00000000000E+00 -0.00000000000E+00 -0.31023726445E+03  0.31023726446E+03  0.25500000000E-02 0.  1.
    5000001    1    1    2    0    0  0.10307174037E+02  0.11029179786E+03 -0.15049799449E+03  0.22594062241E+03  0.12700000000E+03 0.  0.
   -5000001    1    1    2    0    0 -0.10307174037E+02 -0.11029179786E+03 -0.63830785380E+02  0.18020512666E+03  0.12700000000E+03 0.  0.
<mgrwt>
<rscale>  0 0.34498919E+03</rscale>
<asrwt>0</asrwt>
<pdfrwt beam="1">  1        2 0.44319609E-01 0.34498919E+03</pdfrwt>
<pdfrwt beam="2">  1       -2 0.13701212E-01 0.34498919E+03</pdfrwt>
<totfact> 0.45603281E+03</totfact>
</mgrwt>
</event>
<event>
 4    1  0.2621617E-004  0.8433468E+03  0.7818608E-02  0.9499310E-01
          2   -1    0    0  501    0  0.00000000000E+00  0.00000000000E+00  0.67553979440E+03  0.67553979441E+03  0.25500000000E-02 0.  1.
         -2   -1    0    0    0  501 -0.00000000000E+00 -0.00000000000E+00 -0.26320944276E+03  0.26320944277E+03  0.25500000000E-02 0. -1.
    5000001    1    1    2    0    0  0.34826550673E+03  0.18132437438E+03  0.10968836231E+03  0.42699874561E+03  0.12700000000E+03 0.  0.
   -5000001    1    1    2    0    0 -0.34826550673E+03 -0.18132437438E+03  0.30264198933E+03  0.51175049157E+03  0.12700000000E+03 0.  0.
<mgrwt>
<rscale>  0 0.84334679E+03</rscale>
<asrwt>0</asrwt>
<pdfrwt beam="1">  1        2 0.96505684E-01 0.84334679E+03</pdfrwt>
<pdfrwt beam="2">  1       -2 0.37601349E-01 0.84334679E+03</pdfrwt>
<totfact> 0.31469902E+02</totfact>
</mgrwt>
</event>
<event>
 4    1  0.2621617E-004  0.3763630E+03  0.7818608E-02  0.1052286E+00
         -2   -1    0    0    0  501 -0.00000000000E+00  0.00000000000E+00  0.12080673265E+03  0.12080673268E+03  0.25500000000E-02 0. -1.
          2   -1    0    0  501    0  0.00000000000E+00 -0.00000000000E+00 -0.29313165581E+03  0.29313165582E+03  0.25500000000E-02 0.  1.
    5000001    1    1    2    0    0 -0.39905188800E+02 -0.12852947399E+03 -0.12379923482E+03  0.22263759862E+03  0.12700000000E+03 0.  0.
   -5000001    1    1    2    0    0  0.39905188800E+02  0.12852947399E+03 -0.48525688338E+02  0.19130078987E+03  0.12700000000E+03 0.  0.
<mgrwt>
<rscale>  0 0.37636300E+03</rscale>
<asrwt>0</asrwt>
<pdfrwt beam="1">  1        2 0.41875951E-01 0.37636300E+03</pdfrwt>
<pdfrwt beam="2">  1       -2 0.17258105E-01 0.37636300E+03</pdfrwt>
<totfact> 0.33068319E+03</totfact>
</mgrwt>
</event>
<event>
 4    1  0.2621617E-004  0.5286400E+03  0.7818608E-02  0.1006562E+00
          2   -1    0    0  501    0  0.00000000000E+00  0.00000000000E+00  0.91697373041E+02  0.91697373076E+02  0.25500000000E-02 0.  1.
         -2   -1    0    0    0  501 -0.00000000000E+00 -0.00000000000E+00 -0.76190908343E+03  0.76190908343E+03  0.25500000000E-02 0. -1.
    5000001    1    1    2    0    0  0.14690024211E+03 -0.36508925761E+02 -0.61859634761E+03  0.64938665221E+03  0.12700000000E+03 0.  0.
   -5000001    1    1    2    0    0 -0.14690024211E+03  0.36508925761E+02 -0.51615362774E+02  0.20421980430E+03  0.12700000000E+03 0.  0.
<mgrwt>
<rscale>  0 0.52864000E+03</rscale>
<asrwt>0</asrwt>
<pdfrwt beam="1">  1        2 0.13099625E-01 0.52864000E+03</pdfrwt>
<pdfrwt beam="2">  1       -2 0.10884415E+00 0.52864000E+03</pdfrwt>
<totfact> 0.32300665E+02</totfact>
</mgrwt>
</event>
<event>
 4    1  0.2621617E-004  0.3106521E+03  0.7818608E-02  0.1080034E+00
          2   -1    0    0  501    0  0.00000000000E+00  0.00000000000E+00  0.12323980060E+03  0.12323980063E+03  0.25500000000E-02 0.  1.
         -2   -1    0    0    0  501 -0.00000000000E+00 -0.00000000000E+00 -0.19576621336E+03  0.19576621337E+03  0.25500000000E-02 0. -1.
    5000001    1    1    2    0    0  0.48880189677E+02  0.68645785758E+02 -0.66995790078E+02  0.16649009800E+03  0.12700000000E+03 0.  0.
   -5000001    1    1    2    0    0 -0.48880189677E+02 -0.68645785758E+02 -0.55306226734E+01  0.15251591600E+03  0.12700000000E+03 0.  0.
<mgrwt>
<rscale>  0 0.31065215E+03</rscale>
<asrwt>0</asrwt>
<pdfrwt beam="1">  1        2 0.17605686E-01 0.31065215E+03</pdfrwt>
<pdfrwt beam="2">  1       -2 0.27966602E-01 0.31065215E+03</pdfrwt>
<totfact> 0.37444811E+03</totfact>
</mgrwt>
</event>
<event>
 4    1  0.2621617E-004  0.1073050E+04  0.7818608E-02  0.9231865E-01
          2   -1    0    0  501    0  0.00000000000E+00  0.00000000000E+00  0.57333548096E+03  0.57333548096E+03  0.25500000000E-02 0.  1.
         -2   -1    0    0    0  501 -0.00000000000E+00 -0.00000000000E+00 -0.50207768011E+03  0.50207768012E+03  0.25500000000E-02 0. -1.
    5000001    1    1    2    0    0  0.43335194559E+03 -0.20512426319E+03 -0.16941907767E+03  0.52411992518E+03  0.12700000000E+03 0.  0.
   -5000001    1    1    2    0    0 -0.43335194559E+03  0.20512426319E+03  0.24067687851E+03  0.55129323590E+03  0.12700000000E+03 0.  0.
<mgrwt>
<rscale>  0 0.10730498E+04</rscale>
<asrwt>0</asrwt>
<pdfrwt beam="1">  1        2 0.81905069E-01 0.10730498E+04</pdfrwt>
<pdfrwt beam="2">  1       -2 0.71725383E-01 0.10730498E+04</pdfrwt>
<totfact> 0.10045292E+02</totfact>
</mgrwt>
</event>
<event>
 4    1  0.2621617E-004  0.6185735E+03  0.7818608E-02  0.9867604E-01
          2   -1    0    0  501    0  0.00000000000E+00  0.00000000000E+00  0.21590555696E+03  0.21590555698E+03  0.25500000000E-02 0.  1.
         -2   -1    0    0    0  501 -0.00000000000E+00 -0.00000000000E+00 -0.44305614191E+03  0.44305614191E+03  0.25500000000E-02 0. -1.
    5000001    1    1    2    0    0 -0.24082417717E+03 -0.13218394372E+03 -0.18145711578E+03  0.35288038222E+03  0.12700000000E+03 0.  0.
   -5000001    1    1    2    0    0  0.24082417717E+03  0.13218394372E+03 -0.45693469166E+02  0.30608131667E+03  0.12700000000E+03 0.  0.
<mgrwt>
<rscale>  0 0.61857347E+03</rscale>
<asrwt>0</asrwt>
<pdfrwt beam="1">  1        2 0.30843651E-01 0.61857347E+03</pdfrwt>
<pdfrwt beam="2">  1       -2 0.63293734E-01 0.61857347E+03</pdfrwt>
<totfact> 0.40229350E+02</totfact>
</mgrwt>
</event>
<event>
 4    1  0.2621617E-004  0.3403911E+03  0.7818608E-02  0.1066629E+00
         -2   -1    0    0    0  501 -0.00000000000E+00  0.00000000000E+00  0.12002759881E+02  0.12002760152E+02  0.25500000000E-02 0. -1.
          2   -1    0    0  501    0  0.00000000000E+00 -0.00000000000E+00 -0.24133224238E+04  0.24133224238E+04  0.25500000000E-02 0.  1.
    5000001    1    1    2    0    0 -0.55351492386E+02  0.97798733094E+02 -0.13037033487E+04  0.13146861988E+04  0.12700000000E+03 0.  0.
   -5000001    1    1    2    0    0  0.55351492386E+02 -0.97798733094E+02 -0.10976163151E+04  0.11106389851E+04  0.12700000000E+03 0.  0.
<mgrwt>
<rscale>  0 0.34039113E+03</rscale>
<asrwt>0</asrwt>
<pdfrwt beam="1">  1        2 0.34476004E+00 0.34039113E+03</pdfrwt>
<pdfrwt beam="2">  1       -2 0.17146815E-02 0.34039113E+03</pdfrwt>
<totfact> 0.53651585E+03</totfact>
</mgrwt>
</event>
<event>
 4    1  0.2621617E-004  0.5085236E+03  0.7818608E-02  0.1011578E+00
          2   -1    0    0  501    0  0.00000000000E+00  0.00000000000E+00  0.16231713910E+04  0.16231713910E+04  0.25500000000E-02 0.  1.
         -2   -1    0    0    0  501 -0.00000000000E+00 -0.00000000000E+00 -0.39828854741E+02  0.39828854823E+02  0.25500000000E-02 0. -1.
    5000001    1    1    2    0    0 -0.21548905385E+03 -0.32300922673E+02  0.89719332001E+03  0.93196766865E+03  0.12700000000E+03 0.  0.
   -5000001    1    1    2    0    0  0.21548905385E+03  0.32300922673E+02  0.68614921623E+03  0.73103257715E+03  0.12700000000E+03 0.  0.
<mgrwt>
<rscale>  0 0.50852358E+03</rscale>
<asrwt>0</asrwt>
<pdfrwt beam="1">  1        2 0.23188164E+00 0.50852358E+03</pdfrwt>
<pdfrwt beam="2">  1       -2 0.56898362E-02 0.50852358E+03</pdfrwt>
<totfact> 0.21606451E+03</totfact>
</mgrwt>
</event>
<event>
 4    1  0.2621617E-004  0.3426008E+03  0.7818608E-02  0.1065694E+00
          2   -1    0    0  501    0  0.00000000000E+00  0.00000000000E+00  0.39921745330E+02  0.39921745411E+02  0.25500000000E-02 0.  1.
         -2   -1    0    0    0  501 -0.00000000000E+00 -0.00000000000E+00 -0.73503346787E+03  0.73503346788E+03  0.25500000000E-02 0. -1.
    5000001    1    1    2    0    0  0.10500911997E+03  0.37938307433E+02 -0.28566737413E+03  0.33196547876E+03  0.12700000000E+03 0.  0.
   -5000001    1    1    2    0    0 -0.10500911997E+03 -0.37938307433E+02 -0.40944434841E+03  0.44298973453E+03  0.12700000000E+03 0.  0.
<mgrwt>
<rscale>  0 0.34260075E+03</rscale>
<asrwt>0</asrwt>
<pdfrwt beam="1">  1        2 0.57031069E-02 0.34260075E+03</pdfrwt>
<pdfrwt beam="2">  1       -2 0.10500477E+00 0.34260075E+03</pdfrwt>
<totfact> 0.10157931E+03</totfact>
</mgrwt>
</event>
<event>
 4    1  0.2621617E-004  0.4307486E+03  0.7818608E-02  0.1033624E+00
          2   -1    0    0  501    0  0.00000000000E+00  0.00000000000E+00  0.23058707661E+04  0.23058707661E+04  0.25500000000E-02 0.  1.
         -2   -1    0    0    0  501 -0.00000000000E+00 -0.00000000000E+00 -0.20116516701E+02  0.20116516863E+02  0.25500000000E-02 0. -1.
    5000001    1    1    2    0    0 -0.15774039338E+02  0.10831758810E+03  0.18728704776E+04  0.18803601639E+04  0.12700000000E+03 0.  0.
   -5000001    1    1    2    0    0  0.15774039338E+02 -0.10831758810E+03  0.41288377179E+03  0.44562711903E+03  0.12700000000E+03 0.  0.
<mgrwt>
<rscale>  0 0.43074859E+03</rscale>
<asrwt>0</asrwt>
<pdfrwt beam="1">  1        2 0.32941018E+00 0.43074859E+03</pdfrwt>
<pdfrwt beam="2">  1       -2 0.28737875E-02 0.43074859E+03</pdfrwt>
<totfact> 0.28042856E+03</totfact>
</mgrwt>
</event>
<event>
 4    1  0.2621617E-004  0.3504018E+03  0.7818608E-02  0.1062450E+00
         -2   -1    0    0    0  501 -0.00000000000E+00  0.00000000000E+00  0.22692707912E+02  0.22692708055E+02  0.25500000000E-02 0. -1.
          2   -1    0    0  501    0  0.00000000000E+00 -0.00000000000E+00 -0.13526530567E+04  0.13526530567E+04  0.25500000000E-02 0.  1.
    5000001    1    1    2    0    0 -0.19394864302E+00  0.11129035183E+03 -0.48168478773E+03  0.51042611097E+03  0.12700000000E+03 0.  0.
   -5000001    1    1    2    0    0  0.19394864302E+00 -0.11129035183E+03 -0.84827556109E+03  0.86491965382E+03  0.12700000000E+03 0.  0.
<mgrwt>
<rscale>  0 0.35040183E+03</rscale>
<asrwt>0</asrwt>
<pdfrwt beam="1">  1        2 0.19323610E+00 0.35040183E+03</pdfrwt>
<pdfrwt beam="2">  1       -2 0.32418163E-02 0.35040183E+03</pdfrwt>
<totfact> 0.70367654E+03</totfact>
</mgrwt>
</event>
<event>
 4    1  0.2621617E-004  0.3057756E+03  0.7818608E-02  0.1082389E+00
          2   -1    0    0  501    0  0.00000000000E+00  0.00000000000E+00  0.91282894878E+03  0.91282894879E+03  0.25500000000E-02 0.  1.
         -2   -1    0    0    0  501 -0.00000000000E+00 -0.00000000000E+00 -0.25606853669E+02  0.25606853796E+02  0.25500000000E-02 0. -1.
    5000001    1    1    2    0    0  0.74749100636E+01 -0.41904700091E+02  0.66984279656E+03  0.68310339647E+03  0.12700000000E+03 0.  0.
   -5000001    1    1    2    0    0 -0.74749100636E+01  0.41904700091E+02  0.21737929855E+03  0.25533240611E+03  0.12700000000E+03 0.  0.
<mgrwt>
<rscale>  0 0.30577559E+03</rscale>
<asrwt>0</asrwt>
<pdfrwt beam="1">  1        2 0.13040411E+00 0.30577559E+03</pdfrwt>
<pdfrwt beam="2">  1       -2 0.36581227E-02 0.30577559E+03</pdfrwt>
<totfact> 0.10364951E+04</totfact>
</mgrwt>
</event>
<event>
 4    1  0.2621617E-004  0.9950936E+03  0.7818608E-02  0.9313943E-01
         -2   -1    0    0    0  501 -0.00000000000E+00  0.00000000000E+00  0.17242711192E+03  0.17242711194E+03  0.25500000000E-02 0. -1.
          2   -1    0    0  501    0  0.00000000000E+00 -0.00000000000E+00 -0.14356953311E+04  0.14356953311E+04  0.25500000000E-02 0.  1.
    5000001    1    1    2    0    0  0.37567171872E+03  0.19349875193E+03 -0.26010814990E+03  0.51220724018E+03  0.12700000000E+03 0.  0.
   -5000001    1    1    2    0    0 -0.37567171872E+03 -0.19349875193E+03 -0.10031600692E+04  0.10959152028E+04  0.12700000000E+03 0.  0.
<mgrwt>
<rscale>  0 0.99509356E+03</rscale>
<asrwt>0</asrwt>
<pdfrwt beam="1">  1        2 0.20509933E+00 0.99509356E+03</pdfrwt>
<pdfrwt beam="2">  1       -2 0.24632445E-01 0.99509356E+03</pdfrwt>
<totfact> 0.23228088E+02</totfact>
</mgrwt>
</event>
<event>
 4    1  0.2621617E-004  0.3598040E+03  0.7818608E-02  0.1058662E+00
         -2   -1    0    0    0  501 -0.00000000000E+00  0.00000000000E+00  0.17498571506E+03  0.17498571508E+03  0.25500000000E-02 0. -1.
          2   -1    0    0  501    0  0.00000000000E+00 -0.00000000000E+00 -0.18495636630E+03  0.18495636631E+03  0.25500000000E-02 0.  1.
    5000001    1    1    2    0    0  0.67376008315E+02  0.10569793854E+03  0.17917595762E+02  0.17933661351E+03  0.12700000000E+03 0.  0.
   -5000001    1    1    2    0    0 -0.67376008315E+02 -0.10569793854E+03 -0.27888246996E+02  0.18060546788E+03  0.12700000000E+03 0.  0.
<mgrwt>
<rscale>  0 0.35980396E+03</rscale>
<asrwt>0</asrwt>
<pdfrwt beam="1">  1        2 0.26422338E-01 0.35980396E+03</pdfrwt>
<pdfrwt beam="2">  1       -2 0.24997959E-01 0.35980396E+03</pdfrwt>
<totfact> 0.28879811E+03</totfact>
</mgrwt>
</event>
<event>
 4    1  0.2621617E-004  0.4552844E+03  0.7818608E-02  0.1026158E+00
          2   -1    0    0  501    0  0.00000000000E+00  0.00000000000E+00  0.20321037495E+03  0.20321037497E+03  0.25500000000E-02 0.  1.
         -2   -1    0    0    0  501 -0.00000000000E+00 -0.00000000000E+00 -0.25501142297E+03  0.25501142298E+03  0.25500000000E-02 0. -1.
    5000001    1    1    2    0    0 -0.55930984802E+02 -0.13350366904E+03  0.96293099588E+02  0.21529715683E+03  0.12700000000E+03 0.  0.
   -5000001    1    1    2    0    0  0.55930984802E+02  0.13350366904E+03 -0.14809414760E+03  0.24292464112E+03  0.12700000000E+03 0.  0.
<mgrwt>
<rscale>  0 0.45528438E+03</rscale>
<asrwt>0</asrwt>
<pdfrwt beam="1">  1        2 0.29030054E-01 0.45528438E+03</pdfrwt>
<pdfrwt beam="2">  1       -2 0.36430203E-01 0.45528438E+03</pdfrwt>
<totfact> 0.13065698E+03</totfact>
</mgrwt>
</event>
<event>
 4    1  0.2621617E-004  0.4582676E+03  0.7818608E-02  0.1025285E+00
         -2   -1    0    0    0  501 -0.00000000000E+00  0.00000000000E+00  0.35336089937E+03  0.35336089938E+03  0.25500000000E-02 0. -1.
          2   -1    0    0  501    0  0.00000000000E+00 -0.00000000000E+00 -0.14857980348E+03  0.14857980350E+03  0.25500000000E-02 0.  1.
    5000001    1    1    2    0    0  0.18870958022E+03 -0.27527769482E+02  0.10014338408E+03  0.25005355653E+03  0.12700000000E+03 0.  0.
   -5000001    1    1    2    0    0 -0.18870958022E+03  0.27527769482E+02  0.10463771182E+03  0.25188714635E+03  0.12700000000E+03 0.  0.
<mgrwt>
<rscale>  0 0.45826758E+03</rscale>
<asrwt>0</asrwt>
<pdfrwt beam="1">  1        2 0.21225686E-01 0.45826758E+03</pdfrwt>
<pdfrwt beam="2">  1       -2 0.50480128E-01 0.45826758E+03</pdfrwt>
<totfact> 0.98489585E+02</totfact>
</mgrwt>
</event>
<event>
 4    1  0.2621617E-004  0.3569833E+03  0.7818608E-02  0.1059785E+00
         -2   -1    0    0    0  501 -0.00000000000E+00  0.00000000000E+00  0.11174997404E+02  0.11174997695E+02  0.25500000000E-02 0. -1.
          2   -1    0    0  501    0  0.00000000000E+00 -0.00000000000E+00 -0.28509423796E+04  0.28509423796E+04  0.25500000000E-02 0.  1.
    5000001    1    1    2    0    0 -0.89905628581E+02  0.20864202852E+02 -0.73901169589E+03  0.75550355636E+03  0.12700000000E+03 0.  0.
   -5000001    1    1    2    0    0  0.89905628581E+02 -0.20864202852E+02 -0.21007556863E+04  0.21066138209E+04  0.12700000000E+03 0.  0.
<mgrwt>
<rscale>  0 0.35698333E+03</rscale>
<asrwt>0</asrwt>
<pdfrwt beam="1">  1        2 0.40727702E+00 0.35698333E+03</pdfrwt>
<pdfrwt beam="2">  1       -2 0.15964300E-02 0.35698333E+03</pdfrwt>
<totfact> 0.35618595E+03</totfact>
</mgrwt>
</event>
<event>
 4    1  0.2621617E-004  0.2738154E+03  0.7818608E-02  0.1099116E+00
         -2   -1    0    0    0  501 -0.00000000000E+00  0.00000000000E+00  0.22240212463E+02  0.22240212609E+02  0.25500000000E-02 0. -1.
          2   -1    0    0  501    0  0.00000000000E+00 -0.00000000000E+00 -0.84278478180E+03  0.84278478181E+03  0.25500000000E-02 0.  1.
    5000001    1    1    2    0    0  0.11968699971E+02 -0.39501254886E+02 -0.50563028898E+03  0.52296710036E+03  0.12700000000E+03 0.  0.
   -5000001    1    1    2    0    0 -0.11968699971E+02  0.39501254886E+02 -0.31491428036E+03  0.34205789406E+03  0.12700000000E+03 0.  0.
<mgrwt>
<rscale>  0 0.27381536E+03</rscale>
<asrwt>0</asrwt>
<pdfrwt beam="1">  1        2 0.12039781E+00 0.27381536E+03</pdfrwt>
<pdfrwt beam="2">  1       -2 0.31771737E-02 0.27381536E+03</pdfrwt>
<totfact> 0.14127893E+04</totfact>
</mgrwt>
</event>
<event>
 4    1  0.2621617E-004  0.9179831E+03  0.7818608E-02  0.9403377E-01
         -2   -1    0    0    0  501 -0.00000000000E+00  0.00000000000E+00  0.57302978054E+02  0.57302978111E+02  0.25500000000E-02 0. -1.
          2   -1    0    0  501    0  0.00000000000E+00 -0.00000000000E+00 -0.36764794871E+04  0.36764794871E+04  0.25500000000E-02 0.  1.
    5000001    1    1    2    0    0 -0.43310430268E+03 -0.55889178438E+01 -0.14709037569E+04  0.15386024291E+04  0.12700000000E+03 0.  0.
   -5000001    1    1    2    0    0  0.43310430268E+03  0.55889178438E+01 -0.21482727522E+04  0.21951800361E+04  0.12700000000E+03 0.  0.
<mgrwt>
<rscale>  0 0.91798306E+03</rscale>
<asrwt>0</asrwt>
<pdfrwt beam="1">  1        2 0.52521121E+00 0.91798306E+03</pdfrwt>
<pdfrwt beam="2">  1       -2 0.81861421E-02 0.91798306E+03</pdfrwt>
<totfact> 0.92887209E+01</totfact>
</mgrwt>
</event>
<event>
 4    1  0.2621617E-004  0.3594595E+03  0.7818608E-02  0.1058798E+00
          2   -1    0    0  501    0  0.00000000000E+00  0.00000000000E+00  0.92376439020E+03  0.92376439021E+03  0.25500000000E-02 0.  1.
         -2   -1    0    0    0  501 -0.00000000000E+00 -0.00000000000E+00 -0.34968642649E+02  0.34968642742E+02  0.25500000000E-02 0. -1.
    5000001    1    1    2    0    0  0.60768087684E+02 -0.10710035580E+03  0.52918394235E+03  0.55796764380E+03  0.12700000000E+03 0.  0.
   -5000001    1    1    2    0    0 -0.60768087684E+02  0.10710035580E+03  0.35961180521E+03  0.40076538915E+03  0.12700000000E+03 0.  0.
<mgrwt>
<rscale>  0 0.35945952E+03</rscale>
<asrwt>0</asrwt>
<pdfrwt beam="1">  1        2 0.13196634E+00 0.35945952E+03</pdfrwt>
<pdfrwt beam="2">  1       -2 0.49955203E-02 0.35945952E+03</pdfrwt>
<totfact> 0.63873673E+03</totfact>
</mgrwt>
</event>
<event>
 4    1  0.2621617E-004  0.2835662E+03  0.7818608E-02  0.1093757E+00
         -2   -1    0    0    0  501 -0.00000000000E+00  0.00000000000E+00  0.37223718995E+02  0.37223719083E+02  0.25500000000E-02 0. -1.
          2   -1    0    0  501    0  0.00000000000E+00 -0.00000000000E+00 -0.54004406792E+03  0.54004406792E+03  0.25500000000E-02 0.  1.
    5000001    1    1    2    0    0 -0.56545107870E+02 -0.85365775680E+01 -0.19742551182E+03  0.24161137204E+03  0.12700000000E+03 0.  0.
   -5000001    1    1    2    0    0  0.56545107870E+02  0.85365775680E+01 -0.30539483710E+03  0.33565641497E+03  0.12700000000E+03 0.  0.
<mgrwt>
<rscale>  0 0.28356621E+03</rscale>
<asrwt>0</asrwt>
<pdfrwt beam="1">  1        2 0.77149148E-01 0.28356621E+03</pdfrwt>
<pdfrwt beam="2">  1       -2 0.53176745E-02 0.28356621E+03</pdfrwt>
<totfact> 0.11010045E+04</totfact>
</mgrwt>
</event>
<event>
 4    1  0.2621617E-004  0.2970154E+03  0.7818608E-02  0.1086742E+00
         -2   -1    0    0    0  501 -0.00000000000E+00  0.00000000000E+00  0.11106877430E+03  0.11106877433E+03  0.25500000000E-02 0. -1.
          2   -1    0    0  501    0  0.00000000000E+00 -0.00000000000E+00 -0.19856654068E+03  0.19856654070E+03  0.25500000000E-02 0.  1.
    5000001    1    1    2    0    0  0.65681320916E+02 -0.48611565504E+01 -0.22076201974E+01  0.14307879070E+03  0.12700000000E+03 0.  0.
   -5000001    1    1    2    0    0 -0.65681320916E+02  0.48611565504E+01 -0.85290146186E+02  0.16655652433E+03  0.12700000000E+03 0.  0.
<mgrwt>
<rscale>  0 0.29701544E+03</rscale>
<asrwt>0</asrwt>
<pdfrwt beam="1">  1        2 0.28366649E-01 0.29701544E+03</pdfrwt>
<pdfrwt beam="2">  1       -2 0.15866968E-01 0.29701544E+03</pdfrwt>
<totfact> 0.57953951E+03</totfact>
</mgrwt>
</event>
<event>
 4    1  0.2621617E-004  0.7336822E+03  0.7818608E-02  0.9661304E-01
          2   -1    0    0  501    0  0.00000000000E+00  0.00000000000E+00  0.15261669018E+04  0.15261669018E+04  0.25500000000E-02 0.  1.
         -2   -1    0    0    0  501 -0.00000000000E+00 -0.00000000000E+00 -0.88176716049E+02  0.88176716086E+02  0.25500000000E-02 0. -1.
    5000001    1    1    2    0    0  0.27816007018E+03 -0.19744619789E+03  0.81947483592E+03  0.89667498706E+03  0.12700000000E+03 0.  0.
   -5000001    1    1    2    0    0 -0.27816007018E+03  0.19744619789E+03  0.61851534984E+03  0.71766863084E+03  0.12700000000E+03 0.  0.
<mgrwt>
<rscale>  0 0.73368218E+03</rscale>
<asrwt>0</asrwt>
<pdfrwt beam="1">  1        2 0.21802383E+00 0.73368218E+03</pdfrwt>
<pdfrwt beam="2">  1       -2 0.12596675E-01 0.73368218E+03</pdfrwt>
<totfact> 0.67199182E+02</totfact>
</mgrwt>
</event>
<event>
 4    1  0.2621617E-004  0.3149899E+03  0.7818608E-02  0.1077978E+00
         -2   -1    0    0    0  501 -0.00000000000E+00  0.00000000000E+00  0.60909517152E+01  0.60909522490E+01  0.25500000000E-02 0. -1.
          2   -1    0    0  501    0  0.00000000000E+00 -0.00000000000E+00 -0.40723787471E+04  0.40723787471E+04  0.25500000000E-02 0.  1.
    5000001    1    1    2    0    0  0.33097255060E+01 -0.75439067338E+02 -0.13270768288E+04  0.13352767192E+04  0.12700000000E+03 0.  0.
   -5000001    1    1    2    0    0 -0.33097255060E+01  0.75439067338E+02 -0.27392109665E+04  0.27431929801E+04  0.12700000000E+03 0.  0.
<mgrwt>
<rscale>  0 0.31498993E+03</rscale>
<asrwt>0</asrwt>
<pdfrwt beam="1">  1        2 0.58176665E+00 0.31498993E+03</pdfrwt>
<pdfrwt beam="2">  1       -2 0.87013860E-03 0.31498993E+03</pdfrwt>
<totfact> 0.16823897E+03</totfact>
</mgrwt>
</event>
<event>
 4    1  0.2621617E-004  0.3544612E+03  0.7818608E-02  0.1060799E+00
          2   -1    0    0  501    0  0.00000000000E+00  0.00000000000E+00  0.21415624259E+04  0.21415624259E+04  0.25500000000E-02 0.  1.
         -2   -1    0    0    0  501 -0.00000000000E+00 -0.00000000000E+00 -0.14667181421E+02  0.14667181643E+02  0.25500000000E-02 0. -1.
    5000001    1    1    2    0    0  0.74427065742E+02  0.81618072964E+02  0.14010901455E+04  0.14111638791E+04  0.12700000000E+03 0.  0.
   -5000001    1    1    2    0    0 -0.74427065742E+02 -0.81618072964E+02  0.72580509895E+03  0.74506572838E+03  0.12700000000E+03 0.  0.
<mgrwt>
<rscale>  0 0.35446120E+03</rscale>
<asrwt>0</asrwt>
<pdfrwt beam="1">  1        2 0.30593731E+00 0.35446120E+03</pdfrwt>
<pdfrwt beam="2">  1       -2 0.20953129E-02 0.35446120E+03</pdfrwt>
<totfact> 0.54379151E+03</totfact>
</mgrwt>
</event>
<event>
 4    1  0.2621617E-004  0.5003778E+03  0.7818608E-02  0.1013680E+00
          2   -1    0    0  501    0  0.00000000000E+00  0.00000000000E+00  0.61804338994E+03  0.61804338994E+03  0.25500000000E-02 0.  1.
         -2   -1    0    0    0  501 -0.00000000000E+00 -0.00000000000E+00 -0.10127845071E+03  0.10127845074E+03  0.25500000000E-02 0. -1.
    5000001    1    1    2    0    0  0.17359911157E+03  0.59781475626E+02  0.96027537571E+02  0.24302420525E+03  0.12700000000E+03 0.  0.
   -5000001    1    1    2    0    0 -0.17359911157E+03 -0.59781475626E+02  0.42073740166E+03  0.47629763543E+03  0.12700000000E+03 0.  0.
<mgrwt>
<rscale>  0 0.50037777E+03</rscale>
<asrwt>0</asrwt>
<pdfrwt beam="1">  1        2 0.88291909E-01 0.50037777E+03</pdfrwt>
<pdfrwt beam="2">  1       -2 0.14468351E-01 0.50037777E+03</pdfrwt>
<totfact> 0.19437488E+03</totfact>
</mgrwt>
</event>
<event>
 4    1  0.2621617E-004  0.3879420E+03  0.7818608E-02  0.1048037E+00
          2   -1    0    0  501    0  0.00000000000E+00  0.00000000000E+00  0.22635397744E+02  0.22635397888E+02  0.25500000000E-02 0.  1.
         -2   -1    0    0    0  501 -0.00000000000E+00 -0.00000000000E+00 -0.16622082894E+04  0.16622082894E+04  0.25500000000E-02 0. -1.
    5000001    1    1    2    0    0 -0.11083562099E+03 -0.20574693581E+02 -0.12269184205E+04  0.12386144127E+04  0.12700000000E+03 0.  0.
   -5000001    1    1    2    0    0  0.11083562099E+03  0.20574693581E+02 -0.41265447116E+03  0.44622927455E+03  0.12700000000E+03 0.  0.
<mgrwt>
<rscale>  0 0.38794198E+03</rscale>
<asrwt>0</asrwt>
<pdfrwt beam="1">  1        2 0.32336293E-02 0.38794198E+03</pdfrwt>
<pdfrwt beam="2">  1       -2 0.23745825E+00 0.38794198E+03</pdfrwt>
<totfact> 0.24018929E+02</totfact>
</mgrwt>
</event>
<event>
 4    1  0.2621617E-004  0.5298734E+03  0.7818608E-02  0.1006263E+00
         -2   -1    0    0    0  501 -0.00000000000E+00  0.00000000000E+00  0.30496576821E+03  0.30496576822E+03  0.25500000000E-02 0. -1.
          2   -1    0    0  501    0  0.00000000000E+00 -0.00000000000E+00 -0.23016173763E+03  0.23016173764E+03  0.25500000000E-02 0.  1.
    5000001    1    1    2    0    0  0.10637117191E+03 -0.10526585256E+03  0.21711801580E+03  0.29268576787E+03  0.12700000000E+03 0.  0.
   -5000001    1    1    2    0    0 -0.10637117191E+03  0.10526585256E+03 -0.14231398522E+03  0.24244173799E+03  0.12700000000E+03 0.  0.
<mgrwt>
<rscale>  0 0.52987339E+03</rscale>
<asrwt>0</asrwt>
<pdfrwt beam="1">  1        2 0.32880248E-01 0.52987339E+03</pdfrwt>
<pdfrwt beam="2">  1       -2 0.43566538E-01 0.52987339E+03</pdfrwt>
<totfact> 0.80500171E+02</totfact>
</mgrwt>
</event>
<event>
 4    1  0.2621617E-004  0.3049450E+03  0.7818608E-02  0.1082794E+00
          2   -1    0    0  501    0  0.00000000000E+00  0.00000000000E+00  0.26914621644E+04  0.26914621644E+04  0.25500000000E-02 0.  1.
         -2   -1    0    0    0  501 -0.00000000000E+00 -0.00000000000E+00 -0.86376318548E+01  0.86376322312E+01  0.25500000000E-02 0. -1.
    5000001    1    1    2    0    0 -0.34299364628E+02  0.77045437352E+02  0.13638367791E+04  0.13723309389E+04  0.12700000000E+03 0.  0.
   -5000001    1    1    2    0    0  0.34299364628E+02 -0.77045437352E+02  0.13189877535E+04  0.13277688578E+04  0.12700000000E+03 0.  0.
<mgrwt>
<rscale>  0 0.30494498E+03</rscale>
<asrwt>0</asrwt>
<pdfrwt beam="1">  1        2 0.38449466E+00 0.30494498E+03</pdfrwt>
<pdfrwt beam="2">  1       -2 0.12339472E-02 0.30494498E+03</pdfrwt>
<totfact> 0.63002984E+03</totfact>
</mgrwt>
</event>
<event>
 4    1  0.2621617E-004  0.4676496E+03  0.7818608E-02  0.1022586E+00
         -2   -1    0    0    0  501 -0.00000000000E+00  0.00000000000E+00  0.66082733162E+02  0.66082733211E+02  0.25500000000E-02 0. -1.
          2   -1    0    0  501    0  0.00000000000E+00 -0.00000000000E+00 -0.82735723063E+03  0.82735723063E+03  0.25500000000E-02 0.  1.
    5000001    1    1    2    0    0  0.17514044525E+03  0.95617673193E+01 -0.54914449172E+03  0.59030015733E+03  0.12700000000E+03 0.  0.
   -5000001    1    1    2    0    0 -0.17514044525E+03 -0.95617673193E+01 -0.21213000575E+03  0.30313980651E+03  0.12700000000E+03 0.  0.
<mgrwt>
<rscale>  0 0.46764956E+03</rscale>
<asrwt>0</asrwt>
<pdfrwt beam="1">  1        2 0.11819388E+00 0.46764956E+03</pdfrwt>
<pdfrwt beam="2">  1       -2 0.94403910E-02 0.46764956E+03</pdfrwt>
<totfact> 0.27329764E+03</totfact>
</mgrwt>
</event>
<event>
 4    1  0.2621617E-004  0.6373498E+03  0.7818608E-02  0.9830810E-01
         -2   -1    0    0    0  501 -0.00000000000E+00  0.00000000000E+00  0.29856441475E+03  0.29856441476E+03  0.25500000000E-02 0. -1.
          2   -1    0    0  501    0  0.00000000000E+00 -0.00000000000E+00 -0.34013995583E+03  0.34013995584E+03  0.25500000000E-02 0.  1.
    5000001    1    1    2    0    0 -0.16637474018E+03 -0.19337551089E+03 -0.16374454028E+03  0.32865775033E+03  0.12700000000E+03 0.  0.
   -5000001    1    1    2    0    0  0.16637474018E+03  0.19337551089E+03  0.12216899919E+03  0.31004662028E+03  0.12700000000E+03 0.  0.
<mgrwt>
<rscale>  0 0.63734978E+03</rscale>
<asrwt>0</asrwt>
<pdfrwt beam="1">  1        2 0.48591422E-01 0.63734978E+03</pdfrwt>
<pdfrwt beam="2">  1       -2 0.42652059E-01 0.63734978E+03</pdfrwt>
<totfact> 0.54407029E+02</totfact>
</mgrwt>
</event>
<event>
 4    1  0.2621617E-004  0.2705795E+03  0.7818608E-02  0.1100948E+00
         -2   -1    0    0    0  501 -0.00000000000E+00  0.00000000000E+00  0.51293660276E+01  0.51293666614E+01  0.25500000000E-02 0. -1.
          2   -1    0    0  501    0  0.00000000000E+00 -0.00000000000E+00 -0.35683383597E+04  0.35683383597E+04  0.25500000000E-02 0.  1.
    5000001    1    1    2    0    0 -0.44954610244E+02  0.12353668239E+02 -0.17699063665E+04  0.17750693159E+04  0.12700000000E+03 0.  0.
   -5000001    1    1    2    0    0  0.44954610244E+02 -0.12353668239E+02 -0.17933026272E+04  0.17983984105E+04  0.12700000000E+03 0.  0.
<mgrwt>
<rscale>  0 0.27057949E+03</rscale>
<asrwt>0</asrwt>
<pdfrwt beam="1">  1        2 0.50976103E+00 0.27057949E+03</pdfrwt>
<pdfrwt beam="2">  1       -2 0.73276891E-03 0.27057949E+03</pdfrwt>
<totfact> 0.44845930E+03</totfact>
</mgrwt>
</event>
<event>
 4    1  0.2621617E-004  0.6454293E+03  0.7818608E-02  0.9815394E-01
          2   -1    0    0  501    0  0.00000000000E+00  0.00000000000E+00  0.37683902350E+03  0.37683902351E+03  0.25500000000E-02 0.  1.
         -2   -1    0    0    0  501 -0.00000000000E+00 -0.00000000000E+00 -0.27636398633E+03  0.27636398634E+03  0.25500000000E-02 0. -1.
    5000001    1    1    2    0    0 -0.18546432813E+03 -0.23127614503E+03  0.38695665739E+02  0.32482614860E+03  0.12700000000E+03 0.  0.
   -5000001    1    1    2    0    0  0.18546432813E+03  0.23127614503E+03  0.61779371431E+02  0.32837686125E+03  0.12700000000E+03 0.  0.
<mgrwt>
<rscale>  0 0.64542927E+03</rscale>
<asrwt>0</asrwt>
<pdfrwt beam="1">  1        2 0.53834147E-01 0.64542927E+03</pdfrwt>
<pdfrwt beam="2">  1       -2 0.39480569E-01 0.64542927E+03</pdfrwt>
<totfact> 0.56466232E+02</totfact>
</mgrwt>
</event>
<event>
 4    1  0.2621617E-004  0.4973491E+03  0.7818608E-02  0.1014473E+00
          2   -1    0    0  501    0  0.00000000000E+00  0.00000000000E+00  0.11341852775E+04  0.11341852775E+04  0.25500000000E-02 0.  1.
         -2   -1    0    0    0  501 -0.00000000000E+00 -0.00000000000E+00 -0.54522865808E+02  0.54522865867E+02  0.25500000000E-02 0. -1.
    5000001    1    1    2    0    0 -0.65476646130E+02 -0.18279705413E+03  0.32594733438E+03  0.40009076342E+03  0.12700000000E+03 0.  0.
   -5000001    1    1    2    0    0  0.65476646130E+02  0.18279705413E+03  0.75371507729E+03  0.78861737992E+03  0.12700000000E+03 0.  0.
<mgrwt>
<rscale>  0 0.49734910E+03</rscale>
<asrwt>0</asrwt>
<pdfrwt beam="1">  1        2 0.16202645E+00 0.49734910E+03</pdfrwt>
<pdfrwt beam="2">  1       -2 0.77889817E-02 0.49734910E+03</pdfrwt>
<totfact> 0.24062988E+03</totfact>
</mgrwt>
</event>
<event>
 4    1  0.2621617E-004  0.4678848E+03  0.7818608E-02  0.1022519E+00
          2   -1    0    0  501    0  0.00000000000E+00  0.00000000000E+00  0.23116622018E+04  0.23116622018E+04  0.25500000000E-02 0.  1.
         -2   -1    0    0    0  501 -0.00000000000E+00 -0.00000000000E+00 -0.23675187275E+02  0.23675187413E+02  0.25500000000E-02 0. -1.
    5000001    1    1    2    0    0 -0.12427023823E+03 -0.12971795333E+03  0.15411112796E+04  0.15567346644E+04  0.12700000000E+03 0.  0.
   -5000001    1    1    2    0    0  0.12427023823E+03  0.12971795333E+03  0.74687573496E+03  0.77860272475E+03  0.12700000000E+03 0.  0.
<mgrwt>
<rscale>  0 0.46788475E+03</rscale>
<asrwt>0</asrwt>
<pdfrwt beam="1">  1        2 0.33023753E+00 0.46788475E+03</pdfrwt>
<pdfrwt beam="2">  1       -2 0.33821689E-02 0.46788475E+03</pdfrwt>
<totfact> 0.21737902E+03</totfact>
</mgrwt>
</event>
<event>
 4    1  0.2621617E-004  0.3213894E+03  0.7818608E-02  0.1075012E+00
          2   -1    0    0  501    0  0.00000000000E+00  0.00000000000E+00  0.98030678759E+03  0.98030678759E+03  0.25500000000E-02 0.  1.
         -2   -1    0    0    0  501 -0.00000000000E+00 -0.00000000000E+00 -0.26341542144E+02  0.26341542268E+02  0.25500000000E-02 0. -1.
    5000001    1    1    2    0    0  0.54934706006E+02 -0.77463097298E+02  0.55838541962E+03  0.58046673480E+03  0.12700000000E+03 0.  0.
   -5000001    1    1    2    0    0 -0.54934706006E+02  0.77463097298E+02  0.39557982583E+03  0.42618159506E+03  0.12700000000E+03 0.  0.
<mgrwt>
<rscale>  0 0.32138944E+03</rscale>
<asrwt>0</asrwt>
<pdfrwt beam="1">  1        2 0.14004381E+00 0.32138944E+03</pdfrwt>
<pdfrwt beam="2">  1       -2 0.37630779E-02 0.32138944E+03</pdfrwt>
<totfact> 0.90459584E+03</totfact>
</mgrwt>
</event>
<event>
 4    1  0.2621617E-004  0.4484091E+03  0.7818608E-02  0.1028198E+00
         -2   -1    0    0    0  501 -0.00000000000E+00  0.00000000000E+00  0.38298438357E+02  0.38298438442E+02  0.25500000000E-02 0. -1.
          2   -1    0    0  501    0  0.00000000000E+00 -0.00000000000E+00 -0.13125255123E+04  0.13125255124E+04  0.25500000000E-02 0.  1.
    5000001    1    1    2    0    0  0.34113323879E+02 -0.13961961395E+03 -0.28733706907E+03  0.34546916900E+03  0.12700000000E+03 0.  0.
   -5000001    1    1    2    0    0 -0.34113323879E+02  0.13961961395E+03 -0.98689000492E+03  0.10053547818E+04  0.12700000000E+03 0.  0.
<mgrwt>
<rscale>  0 0.44840909E+03</rscale>
<asrwt>0</asrwt>
<pdfrwt beam="1">  1        2 0.18750362E+00 0.44840909E+03</pdfrwt>
<pdfrwt beam="2">  1       -2 0.54712063E-02 0.44840909E+03</pdfrwt>
<totfact> 0.33349171E+03</totfact>
</mgrwt>
</event>
<event>
 4    1  0.2621617E-004  0.5667234E+03  0.7818608E-02  0.9976956E-01
         -2   -1    0    0    0  501 -0.00000000000E+00  0.00000000000E+00  0.14490381502E+03  0.14490381505E+03  0.25500000000E-02 0. -1.
          2   -1    0    0  501    0  0.00000000000E+00 -0.00000000000E+00 -0.55411821715E+03  0.55411821716E+03  0.25500000000E-02 0.  1.
    5000001    1    1    2    0    0 -0.16966329593E+03  0.14616740049E+03 -0.35062488666E+03  0.43499121151E+03  0.12700000000E+03 0.  0.
   -5000001    1    1    2    0    0  0.16966329593E+03 -0.14616740049E+03 -0.58589515469E+02  0.26403082069E+03  0.12700000000E+03 0.  0.
<mgrwt>
<rscale>  0 0.56672337E+03</rscale>
<asrwt>0</asrwt>
<pdfrwt beam="1">  1        2 0.79159744E-01 0.56672337E+03</pdfrwt>
<pdfrwt beam="2">  1       -2 0.20700545E-01 0.56672337E+03</pdfrwt>
<totfact> 0.11977046E+03</totfact>
</mgrwt>
</event>
<event>
 4    1  0.2621617E-004  0.5831922E+03  0.7818608E-02  0.9940904E-01
         -2   -1    0    0    0  501 -0.00000000000E+00  0.00000000000E+00  0.79156500295E+02  0.79156500336E+02  0.25500000000E-02 0. -1.
          2   -1    0    0  501    0  0.00000000000E+00 -0.00000000000E+00 -0.10741793780E+04  0.10741793780E+04  0.25500000000E-02 0.  1.
    5000001    1    1    2    0    0 -0.68581406109E+02  0.25262127503E+03 -0.53597930550E+03  0.60985550238E+03  0.12700000000E+03 0.  0.
   -5000001    1    1    2    0    0  0.68581406109E+02 -0.25262127503E+03 -0.45904357218E+03  0.54348037593E+03  0.12700000000E+03 0.  0.
<mgrwt>
<rscale>  0 0.58319218E+03</rscale>
<asrwt>0</asrwt>
<pdfrwt beam="1">  1        2 0.15345419E+00 0.58319218E+03</pdfrwt>
<pdfrwt beam="2">  1       -2 0.11308072E-01 0.58319218E+03</pdfrwt>
<totfact> 0.14288725E+03</totfact>
</mgrwt>
</event>
<event>
 4    1  0.2621617E-004  0.1029028E+04  0.7818608E-02  0.9277268E-01
         -2   -1    0    0    0  501 -0.00000000000E+00  0.00000000000E+00  0.21298343078E+03  0.21298343080E+03  0.25500000000E-02 0. -1.
          2   -1    0    0  501    0  0.00000000000E+00 -0.00000000000E+00 -0.12429361164E+04  0.12429361164E+04  0.25500000000E-02 0.  1.
    5000001    1    1    2    0    0 -0.89634567527E+02 -0.44585101827E+03 -0.80416783576E+03  0.93254082713E+03  0.12700000000E+03 0.  0.
   -5000001    1    1    2    0    0  0.89634567527E+02  0.44585101827E+03 -0.22578484983E+03  0.52337872005E+03  0.12700000000E+03 0.  0.
<mgrwt>
<rscale>  0 0.10290283E+04</rscale>
<asrwt>0</asrwt>
<pdfrwt beam="1">  1        2 0.17756230E+00 0.10290283E+04</pdfrwt>
<pdfrwt beam="2">  1       -2 0.30426205E-01 0.10290283E+04</pdfrwt>
<totfact> 0.20065377E+02</totfact>
</mgrwt>
</event>
<event>
 4    1  0.2621617E-004  0.3125292E+03  0.7818608E-02  0.1079140E+00
          2   -1    0    0  501    0  0.00000000000E+00  0.00000000000E+00  0.16238532518E+04  0.16238532518E+04  0.25500000000E-02 0.  1.
         -2   -1    0    0    0  501 -0.00000000000E+00 -0.00000000000E+00 -0.15037457983E+02  0.15037458199E+02  0.25500000000E-02 0. -1.
    5000001    1    1    2    0    0  0.69303401715E+02 -0.39409515464E+02  0.10349963343E+04  0.10458023157E+04  0.12700000000E+03 0.  0.
   -5000001    1    1    2    0    0 -0.69303401715E+02  0.39409515464E+02  0.57381945955E+03  0.59308839439E+03  0.12700000000E+03 0.  0.
<mgrwt>
<rscale>  0 0.31252920E+03</rscale>
<asrwt>0</asrwt>
<pdfrwt beam="1">  1        2 0.23197904E+00 0.31252920E+03</pdfrwt>
<pdfrwt beam="2">  1       -2 0.21482083E-02 0.31252920E+03</pdfrwt>
<totfact> 0.94287882E+03</totfact>
</mgrwt>
</event>
<event>
 4    1  0.2621617E-004  0.5350844E+03  0.7818608E-02  0.1005006E+00
         -2   -1    0    0    0  501 -0.00000000000E+00  0.00000000000E+00  0.11743194909E+03  0.11743194912E+03  0.25500000000E-02 0. -1.
          2   -1    0    0  501    0  0.00000000000E+00 -0.00000000000E+00 -0.60953454666E+03  0.60953454666E+03  0.25500000000E-02 0.  1.
    5000001    1    1    2    0    0 -0.97851388286E+02 -0.90170081297E+02  0.17896318040E+02  0.18481021603E+03  0.12700000000E+03 0.  0.
   -5000001    1    1    2    0    0  0.97851388286E+02  0.90170081297E+02 -0.50999891561E+03  0.54215627975E+03  0.12700000000E+03 0.  0.
<mgrwt>
<rscale>  0 0.53508440E+03</rscale>
<asrwt>0</asrwt>
<pdfrwt beam="1">  1        2 0.87076362E-01 0.53508440E+03</pdfrwt>
<pdfrwt beam="2">  1       -2 0.16775993E-01 0.53508440E+03</pdfrwt>
<totfact> 0.15397939E+03</totfact>
</mgrwt>
</event>
<event>
 4    1  0.2621617E-004  0.3323780E+03  0.7818608E-02  0.1070090E+00
         -2   -1    0    0    0  501 -0.00000000000E+00  0.00000000000E+00  0.44232973260E+02  0.44232973333E+02  0.25500000000E-02 0. -1.
          2   -1    0    0  501    0  0.00000000000E+00 -0.00000000000E+00 -0.62439350295E+03  0.62439350295E+03  0.25500000000E-02 0.  1.
    5000001    1    1    2    0    0 -0.39282933922E+02  0.92737433935E+02 -0.21626631127E+03  0.27026560629E+03  0.12700000000E+03 0.  0.
   -5000001    1    1    2    0    0  0.39282933922E+02 -0.92737433935E+02 -0.36389421842E+03  0.39836087000E+03  0.12700000000E+03 0.  0.
<mgrwt>
<rscale>  0 0.33237798E+03</rscale>
<asrwt>0</asrwt>
<pdfrwt beam="1">  1        2 0.89199067E-01 0.33237798E+03</pdfrwt>
<pdfrwt beam="2">  1       -2 0.63189966E-02 0.33237798E+03</pdfrwt>
<totfact> 0.71985466E+03</totfact>
</mgrwt>
</event>
<event>
 4    1  0.2621617E-004  0.4218387E+03  0.7818608E-02  0.1036470E+00
         -2   -1    0    0    0  501 -0.00000000000E+00  0.00000000000E+00  0.71826280478E+03  0.71826280479E+03  0.25500000000E-02 0. -1.
          2   -1    0    0  501    0  0.00000000000E+00 -0.00000000000E+00 -0.61936909922E+02  0.61936909975E+02  0.25500000000E-02 0.  1.
    5000001    1    1    2    0    0  0.19076775531E+02  0.16730843607E+03  0.33074070447E+03  0.39226833894E+03  0.12700000000E+03 0.  0.
   -5000001    1    1    2    0    0 -0.19076775531E+02 -0.16730843607E+03  0.32558519039E+03  0.38793137582E+03  0.12700000000E+03 0.  0.
<mgrwt>
<rscale>  0 0.42183873E+03</rscale>
<asrwt>0</asrwt>
<pdfrwt beam="1">  1        2 0.88481302E-02 0.42183873E+03</pdfrwt>
<pdfrwt beam="2">  1       -2 0.10260897E+00 0.42183873E+03</pdfrwt>
<totfact> 0.60792766E+02</totfact>
</mgrwt>
</event>
<event>
 4    1  0.2621617E-004  0.3393242E+03  0.7818608E-02  0.1067084E+00
          2   -1    0    0  501    0  0.00000000000E+00  0.00000000000E+00  0.14948540118E+04  0.14948540118E+04  0.25500000000E-02 0.  1.
         -2   -1    0    0    0  501 -0.00000000000E+00 -0.00000000000E+00 -0.19256216868E+02  0.19256217037E+02  0.25500000000E-02 0. -1.
    5000001    1    1    2    0    0  0.42119074227E+02 -0.96740440471E+02  0.91196531197E+03  0.92679148651E+03  0.12700000000E+03 0.  0.
   -5000001    1    1    2    0    0 -0.42119074227E+02  0.96740440471E+02  0.56363248292E+03  0.58731874229E+03  0.12700000000E+03 0.  0.
<mgrwt>
<rscale>  0 0.33932423E+03</rscale>
<asrwt>0</asrwt>
<pdfrwt beam="1">  1        2 0.21355062E+00 0.33932423E+03</pdfrwt>
<pdfrwt beam="2">  1       -2 0.27508875E-02 0.33932423E+03</pdfrwt>
<totfact> 0.75939079E+03</totfact>
</mgrwt>
</event>
<event>
 4    1  0.2621617E-004  0.3275190E+03  0.7818608E-02  0.1072240E+00
         -2   -1    0    0    0  501 -0.00000000000E+00  0.00000000000E+00  0.30967352796E+02  0.30967352901E+02  0.25500000000E-02 0. -1.
          2   -1    0    0  501    0  0.00000000000E+00 -0.00000000000E+00 -0.86598227109E+03  0.86598227109E+03  0.25500000000E-02 0.  1.
    5000001    1    1    2    0    0 -0.97928596344E+01 -0.91985847471E+02 -0.54392613803E+03  0.56616423401E+03  0.12700000000E+03 0.  0.
   -5000001    1    1    2    0    0  0.97928596344E+01  0.91985847471E+02 -0.29108878026E+03  0.33078538998E+03  0.12700000000E+03 0.  0.
<mgrwt>
<rscale>  0 0.32751903E+03</rscale>
<asrwt>0</asrwt>
<pdfrwt beam="1">  1        2 0.12371174E+00 0.32751903E+03</pdfrwt>
<pdfrwt beam="2">  1       -2 0.44239081E-02 0.32751903E+03</pdfrwt>
<totfact> 0.83451072E+03</totfact>
</mgrwt>
</event>
<event>
 4    1  0.2621617E-004  0.6477550E+03  0.7818608E-02  0.9811001E-01
         -2   -1    0    0    0  501 -0.00000000000E+00  0.00000000000E+00  0.80396204103E+02  0.80396204143E+02  0.25500000000E-02 0. -1.
          2   -1    0    0  501    0  0.00000000000E+00 -0.00000000000E+00 -0.13047462279E+04  0.13047462279E+04  0.25500000000E-02 0.  1.
    5000001    1    1    2    0    0 -0.12051261037E+03  0.14190989048E+03 -0.11477464049E+03  0.25291090205E+03  0.12700000000E+03 0.  0.
   -5000001    1    1    2    0    0  0.12051261037E+03 -0.14190989048E+03 -0.11095753834E+04  0.11322315300E+04  0.12700000000E+03 0.  0.
<mgrwt>
<rscale>  0 0.64775503E+03</rscale>
<asrwt>0</asrwt>
<pdfrwt beam="1">  1        2 0.18639231E+00 0.64775503E+03</pdfrwt>
<pdfrwt beam="2">  1       -2 0.11485173E-01 0.64775503E+03</pdfrwt>
<totfact> 0.10306155E+03</totfact>
</mgrwt>
</event>
<event>
 4    1  0.2621617E-004  0.3594305E+03  0.7818608E-02  0.1058810E+00
          2   -1    0    0  501    0  0.00000000000E+00  0.00000000000E+00  0.74468282399E+03  0.74468282399E+03  0.25500000000E-02 0. -1.
         -2   -1    0    0    0  501 -0.00000000000E+00 -0.00000000000E+00 -0.43370898700E+02  0.43370898775E+02  0.25500000000E-02 0.  1.
    5000001    1    1    2    0    0 -0.11054201046E+03  0.61480198174E+02  0.37917646596E+03  0.41940808669E+03  0.12700000000E+03 0.  0.
   -5000001    1    1    2    0    0  0.11054201046E+03 -0.61480198174E+02  0.32213545932E+03  0.36864563607E+03  0.12700000000E+03 0.  0.
<mgrwt>
<rscale>  0 0.35943046E+03</rscale>
<asrwt>0</asrwt>
<pdfrwt beam="1">  1        2 0.10638325E+00 0.35943046E+03</pdfrwt>
<pdfrwt beam="2">  1       -2 0.61958431E-02 0.35943046E+03</pdfrwt>
<totfact> 0.60295440E+03</totfact>
</mgrwt>
</event>
<event>
 4    1  0.2621617E-004  0.3343191E+03  0.7818608E-02  0.1069242E+00
         -2   -1    0    0    0  501 -0.00000000000E+00  0.00000000000E+00  0.74694996336E+02  0.74694996379E+02  0.25500000000E-02 0. -1.
          2   -1    0    0  501    0  0.00000000000E+00 -0.00000000000E+00 -0.37408548227E+03  0.37408548228E+03  0.25500000000E-02 0.  1.
    5000001    1    1    2    0    0 -0.69670542571E+02  0.71197529722E+02 -0.91333081369E+02  0.18545566719E+03  0.12700000000E+03 0.  0.
   -5000001    1    1    2    0    0  0.69670542571E+02 -0.71197529722E+02 -0.20805740457E+03  0.26332481147E+03  0.12700000000E+03 0.  0.
<mgrwt>
<rscale>  0 0.33431909E+03</rscale>
<asrwt>0</asrwt>
<pdfrwt beam="1">  1        2 0.53440782E-01 0.33431909E+03</pdfrwt>
<pdfrwt beam="2">  1       -2 0.10670714E-01 0.33431909E+03</pdfrwt>
<totfact> 0.55834617E+03</totfact>
</mgrwt>
</event>
<event>
 4    1  0.2621617E-004  0.4857706E+03  0.7818608E-02  0.1017561E+00
         -2   -1    0    0    0  501 -0.00000000000E+00  0.00000000000E+00  0.33875352610E+03  0.33875352611E+03  0.25500000000E-02 0. -1.
          2   -1    0    0  501    0  0.00000000000E+00 -0.00000000000E+00 -0.17414806989E+03  0.17414806990E+03  0.25500000000E-02 0.  1.
    5000001    1    1    2    0    0  0.19909393738E+03 -0.40676505025E+02  0.40449188128E+02  0.24301874575E+03  0.12700000000E+03 0.  0.
   -5000001    1    1    2    0    0 -0.19909393738E+03  0.40676505025E+02  0.12415626809E+03  0.26988285027E+03  0.12700000000E+03 0.  0.
<mgrwt>
<rscale>  0 0.48577062E+03</rscale>
<asrwt>0</asrwt>
<pdfrwt beam="1">  1        2 0.24878296E-01 0.48577062E+03</pdfrwt>
<pdfrwt beam="2">  1       -2 0.48393361E-01 0.48577062E+03</pdfrwt>
<totfact> 0.89398777E+02</totfact>
</mgrwt>
</event>
<event>
 4    1  0.2621617E-004  0.3986020E+03  0.7818608E-02  0.1044265E+00
          2   -1    0    0  501    0  0.00000000000E+00  0.00000000000E+00  0.43731837915E+03  0.43731837916E+03  0.25500000000E-02 0.  1.
         -2   -1    0    0    0  501 -0.00000000000E+00 -0.00000000000E+00 -0.90828326583E+02  0.90828326619E+02  0.25500000000E-02 0. -1.
    5000001    1    1    2    0    0 -0.12033922328E+03 -0.54615787518E+02  0.27696350531E+03  0.33211774445E+03  0.12700000000E+03 0.  0.
   -5000001    1    1    2    0    0  0.12033922328E+03  0.54615787518E+02  0.69526547260E+02  0.19602896133E+03  0.12700000000E+03 0.  0.
<mgrwt>
<rscale>  0 0.39860204E+03</rscale>
<asrwt>0</asrwt>
<pdfrwt beam="1">  1        2 0.62474055E-01 0.39860204E+03</pdfrwt>
<pdfrwt beam="2">  1       -2 0.12975475E-01 0.39860204E+03</pdfrwt>
<totfact> 0.34398397E+03</totfact>
</mgrwt>
</event>
<event>
 4    1  0.2621617E-004  0.2736593E+03  0.7818608E-02  0.1099203E+00
          2   -1    0    0  501    0  0.00000000000E+00  0.00000000000E+00  0.32931405463E+02  0.32931405562E+02  0.25500000000E-02 0.  1.
         -2   -1    0    0    0  501 -0.00000000000E+00 -0.00000000000E+00 -0.56852576498E+03  0.56852576499E+03  0.25500000000E-02 0. -1.
    5000001    1    1    2    0    0 -0.31302010240E+02 -0.40005026335E+02 -0.25983188431E+03  0.29363553273E+03  0.12700000000E+03 0.  0.
   -5000001    1    1    2    0    0  0.31302010240E+02  0.40005026335E+02 -0.27576247521E+03  0.30782163782E+03  0.12700000000E+03 0.  0.
<mgrwt>
<rscale>  0 0.27365930E+03</rscale>
<asrwt>0</asrwt>
<pdfrwt beam="1">  1        2 0.47044869E-02 0.27365930E+03</pdfrwt>
<pdfrwt beam="2">  1       -2 0.81217960E-01 0.27365930E+03</pdfrwt>
<totfact> 0.23438470E+03</totfact>
</mgrwt>
</event>
<event>
 4    1  0.2621617E-004  0.4271495E+03  0.7818608E-02  0.1034764E+00
          2   -1    0    0  501    0  0.00000000000E+00  0.00000000000E+00  0.33102432243E+04  0.33102432243E+04  0.25500000000E-02 0.  1.
         -2   -1    0    0    0  501 -0.00000000000E+00 -0.00000000000E+00 -0.13779705576E+02  0.13779705812E+02  0.25500000000E-02 0. -1.
    5000001    1    1    2    0    0 -0.71815813312E+02 -0.86795166383E+02  0.26567055099E+04  0.26621239788E+04  0.12700000000E+03 0.  0.
   -5000001    1    1    2    0    0  0.71815813312E+02  0.86795166383E+02  0.63975800879E+03  0.66189895132E+03  0.12700000000E+03 0.  0.
<mgrwt>
<rscale>  0 0.42714952E+03</rscale>
<asrwt>0</asrwt>
<pdfrwt beam="1">  1        2 0.47289205E+00 0.42714952E+03</pdfrwt>
<pdfrwt beam="2">  1       -2 0.19685287E-02 0.42714952E+03</pdfrwt>
<totfact> 0.14600326E+03</totfact>
</mgrwt>
</event>
<event>
 4    1  0.2621617E-004  0.3499230E+03  0.7818608E-02  0.1062647E+00
          2   -1    0    0  501    0  0.00000000000E+00  0.00000000000E+00  0.10851084598E+02  0.10851084898E+02  0.25500000000E-02 0.  1.
         -2   -1    0    0    0  501 -0.00000000000E+00 -0.00000000000E+00 -0.28210566293E+04  0.28210566293E+04  0.25500000000E-02 0. -1.
    5000001    1    1    2    0    0  0.60196686709E+02 -0.37885882229E+02 -0.21907249569E+04  0.21955554691E+04  0.12700000000E+03 0.  0.
   -5000001    1    1    2    0    0 -0.60196686709E+02  0.37885882229E+02 -0.61948058779E+03  0.63635224507E+03  0.12700000000E+03 0.  0.
<mgrwt>
<rscale>  0 0.34992299E+03</rscale>
<asrwt>0</asrwt>
<pdfrwt beam="1">  1        2 0.15501568E-02 0.34992299E+03</pdfrwt>
<pdfrwt beam="2">  1       -2 0.40300762E+00 0.34992299E+03</pdfrwt>
<totfact> 0.66750305E+01</totfact>
</mgrwt>
</event>
<event>
 4    1  0.2621617E-004  0.3914558E+03  0.7818608E-02  0.1046779E+00
          2   -1    0    0  501    0  0.00000000000E+00  0.00000000000E+00  0.25020758155E+04  0.25020758155E+04  0.25500000000E-02 0.  1.
         -2   -1    0    0    0  501 -0.00000000000E+00 -0.00000000000E+00 -0.15311049707E+02  0.15311049920E+02  0.25500000000E-02 0. -1.
    5000001    1    1    2    0    0  0.12216662910E+03  0.82444187943E+02  0.13811100631E+04  0.13947457603E+04  0.12700000000E+03 0.  0.
   -5000001    1    1    2    0    0 -0.12216662910E+03 -0.82444187943E+02  0.11056547026E+04  0.11226411051E+04  0.12700000000E+03 0.  0.
<mgrwt>
<rscale>  0 0.39145578E+03</rscale>
<asrwt>0</asrwt>
<pdfrwt beam="1">  1        2 0.35743909E+00 0.39145578E+03</pdfrwt>
<pdfrwt beam="2">  1       -2 0.21872948E-02 0.39145578E+03</pdfrwt>
<totfact> 0.33688384E+03</totfact>
</mgrwt>
</event>
<event>
 4    1  0.2621617E-004  0.3438562E+03  0.7818608E-02  0.1065165E+00
          2   -1    0    0  501    0  0.00000000000E+00  0.00000000000E+00  0.10252916436E+04  0.10252916436E+04  0.25500000000E-02 0.  1.
         -2   -1    0    0    0  501 -0.00000000000E+00 -0.00000000000E+00 -0.28830111239E+02  0.28830111352E+02  0.25500000000E-02 0. -1.
    5000001    1    1    2    0    0 -0.20379399969E+02  0.52119326311E+02  0.80933182631E+03  0.82114477968E+03  0.12700000000E+03 0.  0.
   -5000001    1    1    2    0    0  0.20379399969E+02 -0.52119326311E+02  0.18712970602E+03  0.23297697524E+03  0.12700000000E+03 0.  0.
<mgrwt>
<rscale>  0 0.34385620E+03</rscale>
<asrwt>0</asrwt>
<pdfrwt beam="1">  1        2 0.14647024E+00 0.34385620E+03</pdfrwt>
<pdfrwt beam="2">  1       -2 0.41185872E-02 0.34385620E+03</pdfrwt>
<totfact> 0.74335238E+03</totfact>
</mgrwt>
</event>
<event>
 4    1  0.2621617E-004  0.4775224E+03  0.7818608E-02  0.1019818E+00
          2   -1    0    0  501    0  0.00000000000E+00  0.00000000000E+00  0.15919077463E+04  0.15919077463E+04  0.25500000000E-02 0.  1.
         -2   -1    0    0    0  501 -0.00000000000E+00 -0.00000000000E+00 -0.35810440060E+02  0.35810440151E+02  0.25500000000E-02 0. -1.
    5000001    1    1    2    0    0  0.54577759571E+02  0.18839988050E+03  0.61089602745E+03  0.65406131454E+03  0.12700000000E+03 0.  0.
   -5000001    1    1    2    0    0 -0.54577759571E+02 -0.18839988050E+03  0.94520127883E+03  0.97365687196E+03  0.12700000000E+03 0.  0.
<mgrwt>
<rscale>  0 0.47752243E+03</rscale>
<asrwt>0</asrwt>
<pdfrwt beam="1">  1        2 0.22741543E+00 0.47752243E+03</pdfrwt>
<pdfrwt beam="2">  1       -2 0.51157762E-02 0.47752243E+03</pdfrwt>
<totfact> 0.26449832E+03</totfact>
</mgrwt>
</event>
<event>
 4    1  0.2621617E-004  0.4882780E+03  0.7818608E-02  0.1016885E+00
          2   -1    0    0  501    0  0.00000000000E+00  0.00000000000E+00  0.82535626633E+03  0.82535626633E+03  0.25500000000E-02 0.  1.
         -2   -1    0    0    0  501 -0.00000000000E+00 -0.00000000000E+00 -0.72215904328E+02  0.72215904373E+02  0.25500000000E-02 0. -1.
    5000001    1    1    2    0    0 -0.74594399835E+02  0.17518777447E+03  0.22037635542E+03  0.31772601222E+03  0.12700000000E+03 0.  0.
   -5000001    1    1    2    0    0  0.74594399835E+02 -0.17518777447E+03  0.53276400657E+03  0.57984615849E+03  0.12700000000E+03 0.  0.
<mgrwt>
<rscale>  0 0.48827799E+03</rscale>
<asrwt>0</asrwt>
<pdfrwt beam="1">  1        2 0.11790804E+00 0.48827799E+03</pdfrwt>
<pdfrwt beam="2">  1       -2 0.10316558E-01 0.48827799E+03</pdfrwt>
<totfact> 0.23767754E+03</totfact>
</mgrwt>
</event>
<event>
 4    1  0.2621617E-004  0.4013400E+03  0.7818608E-02  0.1043317E+00
         -2   -1    0    0    0  501 -0.00000000000E+00  0.00000000000E+00  0.29383051788E+03  0.29383051789E+03  0.25500000000E-02 0. -1.
          2   -1    0    0  501    0  0.00000000000E+00 -0.00000000000E+00 -0.13704652349E+03  0.13704652351E+03  0.25500000000E-02 0.  1.
    5000001    1    1    2    0    0  0.13468807108E+03 -0.58834466959E+02  0.13246842262E+03  0.23511540567E+03  0.12700000000E+03 0.  0.
   -5000001    1    1    2    0    0 -0.13468807108E+03  0.58834466959E+02  0.24315571776E+02  0.19576163573E+03  0.12700000000E+03 0.  0.
<mgrwt>
<rscale>  0 0.40134001E+03</rscale>
<asrwt>0</asrwt>
<pdfrwt beam="1">  1        2 0.19578075E-01 0.40134001E+03</pdfrwt>
<pdfrwt beam="2">  1       -2 0.41975788E-01 0.40134001E+03</pdfrwt>
<totfact> 0.15570504E+03</totfact>
</mgrwt>
</event>
<event>
 4    1  0.2621617E-004  0.4245247E+03  0.7818608E-02  0.1035604E+00
          2   -1    0    0  501    0  0.00000000000E+00  0.00000000000E+00  0.18752026052E+04  0.18752026052E+04  0.25500000000E-02 0. -1.
         -2   -1    0    0    0  501 -0.00000000000E+00 -0.00000000000E+00 -0.24026894686E+02  0.24026894821E+02  0.25500000000E-02 0.  1.
    5000001    1    1    2    0    0  0.19068897602E+02 -0.15426737389E+03  0.61679175471E+03  0.64863172462E+03  0.12700000000E+03 0.  0.
   -5000001    1    1    2    0    0 -0.19068897602E+02  0.15426737389E+03  0.12343839558E+04  0.12505977754E+04  0.12700000000E+03 0.  0.
<mgrwt>
<rscale>  0 0.42452465E+03</rscale>
<asrwt>0</asrwt>
<pdfrwt beam="1">  1        2 0.26788619E+00 0.42452465E+03</pdfrwt>
<pdfrwt beam="2">  1       -2 0.34324123E-02 0.42452465E+03</pdfrwt>
<totfact> 0.35115129E+03</totfact>
</mgrwt>
</event>
<event>
 4    1  0.2621617E-004  0.5878074E+03  0.7818608E-02  0.9931030E-01
         -2   -1    0    0    0  501 -0.00000000000E+00  0.00000000000E+00  0.33035695960E+03  0.33035695961E+03  0.25500000000E-02 0. -1.
          2   -1    0    0  501    0  0.00000000000E+00 -0.00000000000E+00 -0.26147285722E+03  0.26147285723E+03  0.25500000000E-02 0.  1.
    5000001    1    1    2    0    0 -0.15759702755E+03 -0.20481082018E+03 -0.24834276094E+02  0.28901563353E+03  0.12700000000E+03 0.  0.
   -5000001    1    1    2    0    0  0.15759702755E+03  0.20481082018E+03  0.93718378475E+02  0.30281418332E+03  0.12700000000E+03 0.  0.
<mgrwt>
<rscale>  0 0.58780738E+03</rscale>
<asrwt>0</asrwt>
<pdfrwt beam="1">  1        2 0.37353265E-01 0.58780738E+03</pdfrwt>
<pdfrwt beam="2">  1       -2 0.47193851E-01 0.58780738E+03</pdfrwt>
<totfact> 0.59580355E+02</totfact>
</mgrwt>
</event>
<event>
 4    1  0.2621617E-004  0.4586794E+03  0.7818608E-02  0.1025165E+00
         -2   -1    0    0    0  501 -0.00000000000E+00  0.00000000000E+00  0.29417549648E+02  0.29417549758E+02  0.25500000000E-02 0. -1.
          2   -1    0    0  501    0  0.00000000000E+00 -0.00000000000E+00 -0.17879358818E+04  0.17879358818E+04  0.25500000000E-02 0.  1.
    5000001    1    1    2    0    0  0.10092077309E+03  0.14102009787E+03 -0.11961321138E+04  0.12152912014E+04  0.12700000000E+03 0.  0.
   -5000001    1    1    2    0    0 -0.10092077309E+03 -0.14102009787E+03 -0.56238621840E+03  0.60206223025E+03  0.12700000000E+03 0.  0.
<mgrwt>
<rscale>  0 0.45867938E+03</rscale>
<asrwt>0</asrwt>
<pdfrwt beam="1">  1        2 0.25541934E+00 0.45867938E+03</pdfrwt>
<pdfrwt beam="2">  1       -2 0.42025082E-02 0.45867938E+03</pdfrwt>
<totfact> 0.28505693E+03</totfact>
</mgrwt>
</event>
<event>
 4    1  0.2621617E-004  0.2974471E+03  0.7818608E-02  0.1086524E+00
          2   -1    0    0  501    0  0.00000000000E+00  0.00000000000E+00  0.75374266207E+03  0.75374266208E+03  0.25500000000E-02 0.  1.
         -2   -1    0    0    0  501 -0.00000000000E+00 -0.00000000000E+00 -0.29345162090E+02  0.29345162201E+02  0.25500000000E-02 0. -1.
    5000001    1    1    2    0    0  0.66700974729E+02 -0.17449341964E+02  0.26963408610E+03  0.30591672062E+03  0.12700000000E+03 0.  0.
   -5000001    1    1    2    0    0 -0.66700974729E+02  0.17449341964E+02  0.45476341388E+03  0.47717110366E+03  0.12700000000E+03 0.  0.
<mgrwt>
<rscale>  0 0.29744714E+03</rscale>
<asrwt>0</asrwt>
<pdfrwt beam="1">  1        2 0.10767754E+00 0.29744714E+03</pdfrwt>
<pdfrwt beam="2">  1       -2 0.41921655E-02 0.29744714E+03</pdfrwt>
<totfact> 0.10736516E+04</totfact>
</mgrwt>
</event>
<event>
 4    1  0.2621617E-004  0.3305162E+03  0.7818608E-02  0.1070909E+00
          2   -1    0    0  501    0  0.00000000000E+00  0.00000000000E+00  0.38130864959E+04  0.38130864959E+04  0.25500000000E-02 0.  1.
         -2   -1    0    0    0  501 -0.00000000000E+00 -0.00000000000E+00 -0.71622409209E+01  0.71622413748E+01  0.25500000000E-02 0. -1.
    5000001    1    1    2    0    0 -0.10501903474E+03  0.12301465760E+02  0.19140563390E+04  0.19211769811E+04  0.12700000000E+03 0.  0.
   -5000001    1    1    2    0    0  0.10501903474E+03 -0.12301465760E+02  0.18918679160E+04  0.18990717562E+04  0.12700000000E+03 0.  0.
<mgrwt>
<rscale>  0 0.33051623E+03</rscale>
<asrwt>0</asrwt>
<pdfrwt beam="1">  1        2 0.54472656E+00 0.33051623E+03</pdfrwt>
<pdfrwt beam="2">  1       -2 0.10231775E-02 0.33051623E+03</pdfrwt>
<totfact> 0.19486335E+03</totfact>
</mgrwt>
</event>
<event>
 4    1  0.2621617E-004  0.3934592E+03  0.7818608E-02  0.1046068E+00
         -2   -1    0    0    0  501 -0.00000000000E+00  0.00000000000E+00  0.13344627742E+03  0.13344627745E+03  0.25500000000E-02 0. -1.
          2   -1    0    0  501    0  0.00000000000E+00 -0.00000000000E+00 -0.29002338724E+03  0.29002338726E+03  0.25500000000E-02 0.  1.
    5000001    1    1    2    0    0 -0.11884638512E+03  0.89685635207E+02 -0.56613870046E+02  0.20372065850E+03  0.12700000000E+03 0.  0.
   -5000001    1    1    2    0    0  0.11884638512E+03 -0.89685635207E+02 -0.99963239775E+02  0.21974900620E+03  0.12700000000E+03 0.  0.
<mgrwt>
<rscale>  0 0.39345923E+03</rscale>
<asrwt>0</asrwt>
<pdfrwt beam="1">  1        2 0.41431912E-01 0.39345923E+03</pdfrwt>
<pdfrwt beam="2">  1       -2 0.19063754E-01 0.39345923E+03</pdfrwt>
<totfact> 0.28264758E+03</totfact>
</mgrwt>
</event>
<event>
 4    1  0.2621617E-004  0.4180652E+03  0.7818608E-02  0.1037698E+00
         -2   -1    0    0    0  501 -0.00000000000E+00  0.00000000000E+00  0.45273005647E+02  0.45273005719E+02  0.25500000000E-02 0. -1.
          2   -1    0    0  501    0  0.00000000000E+00 -0.00000000000E+00 -0.96513650565E+03  0.96513650565E+03  0.25500000000E-02 0.  1.
    5000001    1    1    2    0    0  0.39333669264E+02  0.14777360635E+03 -0.61621666778E+03  0.64748448469E+03  0.12700000000E+03 0.  0.
   -5000001    1    1    2    0    0 -0.39333669264E+02 -0.14777360635E+03 -0.30364683222E+03  0.36292502668E+03  0.12700000000E+03 0.  0.
<mgrwt>
<rscale>  0 0.41806521E+03</rscale>
<asrwt>0</asrwt>
<pdfrwt beam="1">  1        2 0.13787663E+00 0.41806521E+03</pdfrwt>
<pdfrwt beam="2">  1       -2 0.64675729E-02 0.41806521E+03</pdfrwt>
<totfact> 0.40510357E+03</totfact>
</mgrwt>
</event>
<event>
 4    1  0.2621617E-004  0.3286294E+03  0.7818608E-02  0.1071745E+00
          2   -1    0    0  501    0  0.00000000000E+00  0.00000000000E+00  0.10951147926E+04  0.10951147926E+04  0.25500000000E-02 0.  1.
         -2   -1    0    0    0  501 -0.00000000000E+00 -0.00000000000E+00 -0.24654323088E+02  0.24654323220E+02  0.25500000000E-02 0. -1.
    5000001    1    1    2    0    0  0.96895949518E+02 -0.35635009214E+02  0.48566057362E+03  0.51249767968E+03  0.12700000000E+03 0.  0.
   -5000001    1    1    2    0    0 -0.96895949518E+02  0.35635009214E+02  0.58479989594E+03  0.60727143619E+03  0.12700000000E+03 0.  0.
<mgrwt>
<rscale>  0 0.32862936E+03</rscale>
<asrwt>0</asrwt>
<pdfrwt beam="1">  1        2 0.15644499E+00 0.32862936E+03</pdfrwt>
<pdfrwt beam="2">  1       -2 0.35220457E-02 0.32862936E+03</pdfrwt>
<totfact> 0.85696380E+03</totfact>
</mgrwt>
</event>
<event>
 4    1  0.2621617E-004  0.3402550E+03  0.7818608E-02  0.1066687E+00
         -2   -1    0    0    0  501 -0.00000000000E+00  0.00000000000E+00  0.21529649207E+02  0.21529649358E+02  0.25500000000E-02 0. -1.
          2   -1    0    0  501    0  0.00000000000E+00 -0.00000000000E+00 -0.13443489362E+04  0.13443489362E+04  0.25500000000E-02 0.  1.
    5000001    1    1    2    0    0  0.75553252715E+02  0.78674597684E+02 -0.78292864345E+03  0.80062740838E+03  0.12700000000E+03 0.  0.
   -5000001    1    1    2    0    0 -0.75553252715E+02 -0.78674597684E+02 -0.53989064351E+03  0.56525117715E+03  0.12700000000E+03 0.  0.
<mgrwt>
<rscale>  0 0.34025497E+03</rscale>
<asrwt>0</asrwt>
<pdfrwt beam="1">  1        2 0.19204979E+00 0.34025497E+03</pdfrwt>
<pdfrwt beam="2">  1       -2 0.30756650E-02 0.34025497E+03</pdfrwt>
<totfact> 0.76883147E+03</totfact>
</mgrwt>
</event>
<event>
 4    1  0.2621617E-004  0.4287039E+03  0.7818608E-02  0.1034270E+00
          2   -1    0    0  501    0  0.00000000000E+00  0.00000000000E+00  0.10472019399E+04  0.10472019399E+04  0.25500000000E-02 0.  1.
         -2   -1    0    0    0  501 -0.00000000000E+00 -0.00000000000E+00 -0.43875738091E+02  0.43875738165E+02  0.25500000000E-02 0. -1.
    5000001    1    1    2    0    0  0.47778324143E+02 -0.16326001747E+03  0.57721141346E+03  0.61501107095E+03  0.12700000000E+03 0.  0.
   -5000001    1    1    2    0    0 -0.47778324143E+02  0.16326001747E+03  0.42611478833E+03  0.47606660710E+03  0.12700000000E+03 0.  0.
<mgrwt>
<rscale>  0 0.42870390E+03</rscale>
<asrwt>0</asrwt>
<pdfrwt beam="1">  1        2 0.14960029E+00 0.42870390E+03</pdfrwt>
<pdfrwt beam="2">  1       -2 0.62679622E-02 0.42870390E+03</pdfrwt>
<totfact> 0.37990318E+03</totfact>
</mgrwt>
</event>
<event>
 4    1  0.2621617E-004  0.4326131E+03  0.7818608E-02  0.1033038E+00
          2   -1    0    0  501    0  0.00000000000E+00  0.00000000000E+00  0.22891933423E+04  0.22891933423E+04  0.25500000000E-02 0.  1.
         -2   -1    0    0    0  501 -0.00000000000E+00 -0.00000000000E+00 -0.20438872149E+02  0.20438872308E+02  0.25500000000E-02 0. -1.
    5000001    1    1    2    0    0  0.56733267144E+02  0.13927354340E+03  0.16131972826E+04  0.16251616093E+04  0.12700000000E+03 0.  0.
   -5000001    1    1    2    0    0 -0.56733267144E+02 -0.13927354340E+03  0.65555718748E+03  0.68447060532E+03  0.12700000000E+03 0.  0.
<mgrwt>
<rscale>  0 0.43261313E+03</rscale>
<asrwt>0</asrwt>
<pdfrwt beam="1">  1        2 0.32702744E+00 0.43261313E+03</pdfrwt>
<pdfrwt beam="2">  1       -2 0.29198405E-02 0.43261313E+03</pdfrwt>
<totfact> 0.27908184E+03</totfact>
</mgrwt>
</event>
<event>
 4    1  0.2621617E-004  0.5313079E+03  0.7818608E-02  0.1005915E+00
         -2   -1    0    0    0  501 -0.00000000000E+00  0.00000000000E+00  0.45962602278E+03  0.45962602278E+03  0.25500000000E-02 0.  1.
          2   -1    0    0  501    0  0.00000000000E+00 -0.00000000000E+00 -0.15354228043E+03  0.15354228045E+03  0.25500000000E-02 0. -1.
    5000001    1    1    2    0    0  0.90727285269E+02 -0.21076661297E+03  0.20185552025E+03  0.33095113913E+03  0.12700000000E+03 0.  0.
   -5000001    1    1    2    0    0 -0.90727285269E+02  0.21076661297E+03  0.10422822210E+03  0.28221716410E+03  0.12700000000E+03 0.  0.
<mgrwt>
<rscale>  0 0.53130792E+03</rscale>
<asrwt>0</asrwt>
<pdfrwt beam="1">  1        2 0.21934612E-01 0.53130792E+03</pdfrwt>
<pdfrwt beam="2">  1       -2 0.65660860E-01 0.53130792E+03</pdfrwt>
<totfact> 0.54900797E+02</totfact>
</mgrwt>
</event>
<event>
 4    1  0.2621617E-004  0.4281317E+03  0.7818608E-02  0.1034452E+00
         -2   -1    0    0    0  501 -0.00000000000E+00  0.00000000000E+00  0.27547775505E+02  0.27547775623E+02  0.25500000000E-02 0. -1.
          2   -1    0    0  501    0  0.00000000000E+00 -0.00000000000E+00 -0.16634439235E+04  0.16634439235E+04  0.25500000000E-02 0.  1.
    5000001    1    1    2    0    0  0.17135506437E+03  0.15006843413E+01 -0.74615802424E+03  0.77604484876E+03  0.12700000000E+03 0.  0.
   -5000001    1    1    2    0    0 -0.17135506437E+03 -0.15006843413E+01 -0.88973812374E+03  0.91494685035E+03  0.12700000000E+03 0.  0.
<mgrwt>
<rscale>  0 0.42813166E+03</rscale>
<asrwt>0</asrwt>
<pdfrwt beam="1">  1        2 0.23763478E+00 0.42813166E+03</pdfrwt>
<pdfrwt beam="2">  1       -2 0.39353976E-02 0.42813166E+03</pdfrwt>
<totfact> 0.36404179E+03</totfact>
</mgrwt>
</event>
<event>
 4    1  0.2621617E-004  0.4656931E+03  0.7818608E-02  0.1023143E+00
         -2   -1    0    0    0  501 -0.00000000000E+00  0.00000000000E+00  0.23231035959E+03  0.23231035961E+03  0.25500000000E-02 0. -1.
          2   -1    0    0  501    0  0.00000000000E+00 -0.00000000000E+00 -0.23338401899E+03  0.23338401900E+03  0.25500000000E-02 0.  1.
    5000001    1    1    2    0    0 -0.17836105803E+03  0.53527507635E+01  0.78502651734E+02  0.23266496361E+03  0.12700000000E+03 0.  0.
   -5000001    1    1    2    0    0  0.17836105803E+03 -0.53527507635E+01 -0.79576311128E+02  0.23302941500E+03  0.12700000000E+03 0.  0.
<mgrwt>
<rscale>  0 0.46569314E+03</rscale>
<asrwt>0</asrwt>
<pdfrwt beam="1">  1        2 0.33340574E-01 0.46569314E+03</pdfrwt>
<pdfrwt beam="2">  1       -2 0.33187194E-01 0.46569314E+03</pdfrwt>
<totfact> 0.13351963E+03</totfact>
</mgrwt>
</event>
<event>
 4    1  0.2621617E-004  0.2910175E+03  0.7818608E-02  0.1089819E+00
          2   -1    0    0  501    0  0.00000000000E+00  0.00000000000E+00  0.18773356200E+03  0.18773356202E+03  0.25500000000E-02 0.  1.
         -2   -1    0    0    0  501 -0.00000000000E+00 -0.00000000000E+00 -0.11278107669E+03  0.11278107672E+03  0.25500000000E-02 0. -1.
    5000001    1    1    2    0    0  0.39226826782E+01 -0.57448577278E+02 -0.54503898288E+01  0.13955082665E+03  0.12700000000E+03 0.  0.
   -5000001    1    1    2    0    0 -0.39226826782E+01  0.57448577278E+02  0.80402875140E+02  0.16096381209E+03  0.12700000000E+03 0.  0.
<mgrwt>
<rscale>  0 0.29101748E+03</rscale>
<asrwt>0</asrwt>
<pdfrwt beam="1">  1        2 0.26819080E-01 0.29101748E+03</pdfrwt>
<pdfrwt beam="2">  1       -2 0.16111582E-01 0.29101748E+03</pdfrwt>
<totfact> 0.60077203E+03</totfact>
</mgrwt>
</event>
<event>
 4    1  0.2621617E-004  0.3171092E+03  0.7818608E-02  0.1076987E+00
          2   -1    0    0  501    0  0.00000000000E+00  0.00000000000E+00  0.22729571387E+03  0.22729571389E+03  0.25500000000E-02 0. -1.
         -2   -1    0    0    0  501 -0.00000000000E+00 -0.00000000000E+00 -0.11060289514E+03  0.11060289517E+03  0.25500000000E-02 0.  1.
    5000001    1    1    2    0    0  0.39431838672E+02  0.76003361918E+02  0.14682103182E+02  0.15386989659E+03  0.12700000000E+03 0.  0.
   -5000001    1    1    2    0    0 -0.39431838672E+02 -0.76003361918E+02  0.10201071555E+03  0.18402871246E+03  0.12700000000E+03 0.  0.
<mgrwt>
<rscale>  0 0.31710922E+03</rscale>
<asrwt>0</asrwt>
<pdfrwt beam="1">  1        2 0.32470816E-01 0.31710922E+03</pdfrwt>
<pdfrwt beam="2">  1       -2 0.15800414E-01 0.31710922E+03</pdfrwt>
<totfact> 0.50403084E+03</totfact>
</mgrwt>
</event>
<event>
 4    1  0.2621617E-004  0.3800263E+03  0.7818608E-02  0.1050924E+00
          2   -1    0    0  501    0  0.00000000000E+00  0.00000000000E+00  0.84163415100E+02  0.84163415139E+02  0.25500000000E-02 0.  1.
         -2   -1    0    0    0  501 -0.00000000000E+00 -0.00000000000E+00 -0.42898690887E+03  0.42898690887E+03  0.25500000000E-02 0. -1.
    5000001    1    1    2    0    0 -0.42122631028E+02  0.93795065916E+02 -0.30335744007E+03  0.34456721678E+03  0.12700000000E+03 0.  0.
   -5000001    1    1    2    0    0  0.42122631028E+02 -0.93795065916E+02 -0.41466053698E+02  0.16858310723E+03  0.12700000000E+03 0.  0.
<mgrwt>
<rscale>  0 0.38002633E+03</rscale>
<asrwt>0</asrwt>
<pdfrwt beam="1">  1        2 0.12023345E-01 0.38002633E+03</pdfrwt>
<pdfrwt beam="2">  1       -2 0.61283843E-01 0.38002633E+03</pdfrwt>
<totfact> 0.12990386E+03</totfact>
</mgrwt>
</event>
<event>
 4    1  0.2621617E-004  0.4416748E+03  0.7818608E-02  0.1030234E+00
          2   -1    0    0  501    0  0.00000000000E+00  0.00000000000E+00  0.19241533666E+04  0.19241533666E+04  0.25500000000E-02 0.  1.
         -2   -1    0    0    0  501 -0.00000000000E+00 -0.00000000000E+00 -0.25345779261E+02  0.25345779389E+02  0.25500000000E-02 0. -1.
    5000001    1    1    2    0    0  0.63059551338E+02 -0.18420656557E+02  0.20655524639E+03  0.25121683346E+03  0.12700000000E+03 0.  0.
   -5000001    1    1    2    0    0 -0.63059551338E+02  0.18420656557E+02  0.16922523410E+04  0.16982823126E+04  0.12700000000E+03 0.  0.
<mgrwt>
<rscale>  0 0.44167484E+03</rscale>
<asrwt>0</asrwt>
<pdfrwt beam="1">  1        2 0.27487903E+00 0.44167484E+03</pdfrwt>
<pdfrwt beam="2">  1       -2 0.36208259E-02 0.44167484E+03</pdfrwt>
<totfact> 0.30606090E+03</totfact>
</mgrwt>
</event>
<event>
 4    1  0.2621617E-004  0.6471298E+03  0.7818608E-02  0.9812180E-01
          2   -1    0    0  501    0  0.00000000000E+00  0.00000000000E+00  0.18100739209E+03  0.18100739211E+03  0.25500000000E-02 0.  1.
         -2   -1    0    0    0  501 -0.00000000000E+00 -0.00000000000E+00 -0.57839757154E+03  0.57839757155E+03  0.25500000000E-02 0. -1.
    5000001    1    1    2    0    0 -0.25192485405E+03 -0.10256499307E+03 -0.57000341418E+02  0.30555482129E+03  0.12700000000E+03 0.  0.
   -5000001    1    1    2    0    0  0.25192485405E+03  0.10256499307E+03 -0.34038983803E+03  0.45385014237E+03  0.12700000000E+03 0.  0.
<mgrwt>
<rscale>  0 0.64712977E+03</rscale>
<asrwt>0</asrwt>
<pdfrwt beam="1">  1        2 0.25858199E-01 0.64712977E+03</pdfrwt>
<pdfrwt beam="2">  1       -2 0.82628224E-01 0.64712977E+03</pdfrwt>
<totfact> 0.27365123E+02</totfact>
</mgrwt>
</event>
<event>
 4    1  0.2621617E-004  0.3993171E+03  0.7818608E-02  0.1044016E+00
          2   -1    0    0  501    0  0.00000000000E+00  0.00000000000E+00  0.18955116943E+04  0.18955116943E+04  0.25500000000E-02 0.  1.
         -2   -1    0    0    0  501 -0.00000000000E+00 -0.00000000000E+00 -0.21030492943E+02  0.21030493097E+02  0.25500000000E-02 0. -1.
    5000001    1    1    2    0    0 -0.30810587981E+02 -0.15092661080E+03  0.94939329963E+03  0.97015708603E+03  0.12700000000E+03 0.  0.
   -5000001    1    1    2    0    0  0.30810587981E+02  0.15092661080E+03  0.92508790169E+03  0.94638510134E+03  0.12700000000E+03 0.  0.
<mgrwt>
<rscale>  0 0.39931714E+03</rscale>
<asrwt>0</asrwt>
<pdfrwt beam="1">  1        2 0.27078723E+00 0.39931714E+03</pdfrwt>
<pdfrwt beam="2">  1       -2 0.30043578E-02 0.39931714E+03</pdfrwt>
<totfact> 0.41966764E+03</totfact>
</mgrwt>
</event>
<event>
 4    1  0.2621617E-004  0.3691393E+03  0.7818608E-02  0.1055023E+00
         -2   -1    0    0    0  501 -0.00000000000E+00  0.00000000000E+00  0.57202372180E+02  0.57202372236E+02  0.25500000000E-02 0. -1.
          2   -1    0    0  501    0  0.00000000000E+00 -0.00000000000E+00 -0.59553388695E+03  0.59553388696E+03  0.25500000000E-02 0.  1.
    5000001    1    1    2    0    0 -0.40738922075E+02 -0.11049337416E+03 -0.38195428843E+03  0.41938827351E+03  0.12700000000E+03 0.  0.
   -5000001    1    1    2    0    0  0.40738922075E+02  0.11049337416E+03 -0.15637722634E+03  0.23334798569E+03  0.12700000000E+03 0.  0.
<mgrwt>
<rscale>  0 0.36913927E+03</rscale>
<asrwt>0</asrwt>
<pdfrwt beam="1">  1        2 0.85076266E-01 0.36913927E+03</pdfrwt>
<pdfrwt beam="2">  1       -2 0.81717678E-02 0.36913927E+03</pdfrwt>
<totfact> 0.51027499E+03</totfact>
</mgrwt>
</event>
<event>
 4    1  0.2621617E-004  0.3205343E+03  0.7818608E-02  0.1075404E+00
          2   -1    0    0  501    0  0.00000000000E+00  0.00000000000E+00  0.28437627534E+03  0.28437627535E+03  0.25500000000E-02 0.  1.
         -2   -1    0    0    0  501 -0.00000000000E+00 -0.00000000000E+00 -0.90322414281E+02  0.90322414317E+02  0.25500000000E-02 0. -1.
    5000001    1    1    2    0    0 -0.65279441051E+02 -0.72376900077E+02  0.10583167381E+03  0.19190926051E+03  0.12700000000E+03 0.  0.
   -5000001    1    1    2    0    0  0.65279441051E+02  0.72376900077E+02  0.88222187251E+02  0.18278942916E+03  0.12700000000E+03 0.  0.
<mgrwt>
<rscale>  0 0.32053425E+03</rscale>
<asrwt>0</asrwt>
<pdfrwt beam="1">  1        2 0.40625182E-01 0.32053425E+03</pdfrwt>
<pdfrwt beam="2">  1       -2 0.12903202E-01 0.32053425E+03</pdfrwt>
<totfact> 0.55174907E+03</totfact>
</mgrwt>
</event>
<event>
 4    1  0.2621617E-004  0.3131042E+03  0.7818608E-02  0.1078867E+00
          2   -1    0    0  501    0  0.00000000000E+00  0.00000000000E+00  0.16626540805E+03  0.16626540807E+03  0.25500000000E-02 0.  1.
         -2   -1    0    0    0  501 -0.00000000000E+00 -0.00000000000E+00 -0.14740623257E+03  0.14740623260E+03  0.25500000000E-02 0. -1.
    5000001    1    1    2    0    0  0.83096035479E+02  0.80040325281E+01 -0.28195659314E+02  0.15457364217E+03  0.12700000000E+03 0.  0.
   -5000001    1    1    2    0    0 -0.83096035479E+02 -0.80040325281E+01  0.47054834794E+02  0.15909799850E+03  0.12700000000E+03 0.  0.
<mgrwt>
<rscale>  0 0.31310418E+03</rscale>
<asrwt>0</asrwt>
<pdfrwt beam="1">  1        2 0.23752201E-01 0.31310418E+03</pdfrwt>
<pdfrwt beam="2">  1       -2 0.21058033E-01 0.31310418E+03</pdfrwt>
<totfact> 0.43804609E+03</totfact>
</mgrwt>
</event>
<event>
 4    1  0.2621617E-004  0.3673504E+03  0.7818608E-02  0.1055711E+00
          2   -1    0    0  501    0  0.00000000000E+00  0.00000000000E+00  0.11523896741E+04  0.11523896741E+04  0.25500000000E-02 0. -1.
         -2   -1    0    0    0  501 -0.00000000000E+00 -0.00000000000E+00 -0.29275324861E+02  0.29275324972E+02  0.25500000000E-02 0.  1.
    5000001    1    1    2    0    0  0.11321364924E+02 -0.10538936431E+03  0.30477288980E+03  0.34677169113E+03  0.12700000000E+03 0.  0.
   -5000001    1    1    2    0    0 -0.11321364924E+02  0.10538936431E+03  0.81834145942E+03  0.83489330792E+03  0.12700000000E+03 0.  0.
<mgrwt>
<rscale>  0 0.36735042E+03</rscale>
<asrwt>0</asrwt>
<pdfrwt beam="1">  1        2 0.16462708E+00 0.36735042E+03</pdfrwt>
<pdfrwt beam="2">  1       -2 0.41821898E-02 0.36735042E+03</pdfrwt>
<totfact> 0.61492765E+03</totfact>
</mgrwt>
</event>
<event>
 4    1  0.2621617E-004  0.6816673E+03  0.7818608E-02  0.9749107E-01
          2   -1    0    0  501    0  0.00000000000E+00  0.00000000000E+00  0.11019270781E+04  0.11019270781E+04  0.25500000000E-02 0.  1.
         -2   -1    0    0    0  501 -0.00000000000E+00 -0.00000000000E+00 -0.10542221044E+03  0.10542221047E+03  0.25500000000E-02 0. -1.
    5000001    1    1    2    0    0  0.14989527985E+03  0.26084781793E+03  0.67114274276E+03  0.74637240048E+03  0.12700000000E+03 0.  0.
   -5000001    1    1    2    0    0 -0.14989527985E+03 -0.26084781793E+03  0.32536212491E+03  0.46097688810E+03  0.12700000000E+03 0.  0.
<mgrwt>
<rscale>  0 0.68166733E+03</rscale>
<asrwt>0</asrwt>
<pdfrwt beam="1">  1        2 0.15741814E+00 0.68166733E+03</pdfrwt>
<pdfrwt beam="2">  1       -2 0.15060317E-01 0.68166733E+03</pdfrwt>
<totfact> 0.85269096E+02</totfact>
</mgrwt>
</event>
<event>
 4    1  0.2621617E-004  0.7650464E+03  0.7818608E-02  0.9612036E-01
         -2   -1    0    0    0  501 -0.00000000000E+00  0.00000000000E+00  0.41263797310E+03  0.41263797311E+03  0.25500000000E-02 0. -1.
          2   -1    0    0  501    0  0.00000000000E+00 -0.00000000000E+00 -0.35460624107E+03  0.35460624108E+03  0.25500000000E-02 0.  1.
    5000001    1    1    2    0    0 -0.24971201762E+03 -0.86592793917E+02  0.27536477547E+03  0.40225509726E+03  0.12700000000E+03 0.  0.
   -5000001    1    1    2    0    0  0.24971201762E+03  0.86592793917E+02 -0.21733304344E+03  0.36498911693E+03  0.12700000000E+03 0.  0.
<mgrwt>
<rscale>  0 0.76504641E+03</rscale>
<asrwt>0</asrwt>
<pdfrwt beam="1">  1        2 0.50658034E-01 0.76504641E+03</pdfrwt>
<pdfrwt beam="2">  1       -2 0.58948282E-01 0.76504641E+03</pdfrwt>
<totfact> 0.26817062E+02</totfact>
</mgrwt>
</event>
<event>
 4    1  0.2621617E-004  0.3329147E+03  0.7818608E-02  0.1069854E+00
          2   -1    0    0  501    0  0.00000000000E+00  0.00000000000E+00  0.13413336283E+04  0.13413336283E+04  0.25500000000E-02 0.  1.
         -2   -1    0    0    0  501 -0.00000000000E+00 -0.00000000000E+00 -0.20657084160E+02  0.20657084318E+02  0.25500000000E-02 0. -1.
    5000001    1    1    2    0    0  0.92881120242E+02  0.29021042872E+01  0.88230570797E+03  0.89622970662E+03  0.12700000000E+03 0.  0.
   -5000001    1    1    2    0    0 -0.92881120242E+02 -0.29021042872E+01  0.43837083614E+03  0.46576100597E+03  0.12700000000E+03 0.  0.
<mgrwt>
<rscale>  0 0.33291465E+03</rscale>
<asrwt>0</asrwt>
<pdfrwt beam="1">  1        2 0.19161915E+00 0.33291465E+03</pdfrwt>
<pdfrwt beam="2">  1       -2 0.29510112E-02 0.33291465E+03</pdfrwt>
<totfact> 0.82063690E+03</totfact>
</mgrwt>
</event>
<event>
 4    1  0.2621617E-004  0.3181618E+03  0.7818608E-02  0.1076498E+00
         -2   -1    0    0    0  501 -0.00000000000E+00  0.00000000000E+00  0.15544323807E+02  0.15544324017E+02  0.25500000000E-02 0. -1.
          2   -1    0    0  501    0  0.00000000000E+00 -0.00000000000E+00 -0.16280372776E+04  0.16280372776E+04  0.25500000000E-02 0.  1.
    5000001    1    1    2    0    0  0.85693798214E+02 -0.39916340147E+02 -0.72605107380E+03  0.74311230849E+03  0.12700000000E+03 0.  0.
   -5000001    1    1    2    0    0 -0.85693798214E+02  0.39916340147E+02 -0.88644188000E+03  0.90046929313E+03  0.12700000000E+03 0.  0.
<mgrwt>
<rscale>  0 0.31816184E+03</rscale>
<asrwt>0</asrwt>
<pdfrwt beam="1">  1        2 0.23257665E+00 0.31816184E+03</pdfrwt>
<pdfrwt beam="2">  1       -2 0.22206187E-02 0.31816184E+03</pdfrwt>
<totfact> 0.89367123E+03</totfact>
</mgrwt>
</event>
<event>
 4    1  0.2621617E-004  0.5761316E+03  0.7818608E-02  0.9956201E-01
         -2   -1    0    0    0  501 -0.00000000000E+00  0.00000000000E+00  0.13437278405E+03  0.13437278407E+03  0.25500000000E-02 0. -1.
          2   -1    0    0  501    0  0.00000000000E+00 -0.00000000000E+00 -0.61754995545E+03  0.61754995546E+03  0.25500000000E-02 0.  1.
    5000001    1    1    2    0    0  0.72092737816E+02 -0.22154970571E+03 -0.95255972784E+02  0.28192966374E+03  0.12700000000E+03 0.  0.
   -5000001    1    1    2    0    0 -0.72092737816E+02  0.22154970571E+03 -0.38792119862E+03  0.46999307579E+03  0.12700000000E+03 0.  0.
<mgrwt>
<rscale>  0 0.57613161E+03</rscale>
<asrwt>0</asrwt>
<pdfrwt beam="1">  1        2 0.88221420E-01 0.57613161E+03</pdfrwt>
<pdfrwt beam="2">  1       -2 0.19196112E-01 0.57613161E+03</pdfrwt>
<totfact> 0.12031088E+03</totfact>
</mgrwt>
</event>
<event>
 4    1  0.2621617E-004  0.3152339E+03  0.7818608E-02  0.1077864E+00
         -2   -1    0    0    0  501 -0.00000000000E+00  0.00000000000E+00  0.20781343934E+02  0.20781344091E+02  0.25500000000E-02 0. -1.
          2   -1    0    0  501    0  0.00000000000E+00 -0.00000000000E+00 -0.11954523207E+04  0.11954523207E+04  0.25500000000E-02 0.  1.
    5000001    1    1    2    0    0  0.34567238325E+02 -0.80910806675E+02 -0.46700848042E+03  0.49190179242E+03  0.12700000000E+03 0.  0.
   -5000001    1    1    2    0    0 -0.34567238325E+02  0.80910806675E+02 -0.70766249638E+03  0.72433187241E+03  0.12700000000E+03 0.  0.
<mgrwt>
<rscale>  0 0.31523392E+03</rscale>
<asrwt>0</asrwt>
<pdfrwt beam="1">  1        2 0.17077886E+00 0.31523392E+03</pdfrwt>
<pdfrwt beam="2">  1       -2 0.29687642E-02 0.31523392E+03</pdfrwt>
<totfact> 0.97241487E+03</totfact>
</mgrwt>
</event>
<event>
 4    1  0.2621617E-004  0.3316224E+03  0.7818608E-02  0.1070421E+00
         -2   -1    0    0    0  501 -0.00000000000E+00  0.00000000000E+00  0.25569524843E+02  0.25569524970E+02  0.25500000000E-02 0. -1.
          2   -1    0    0  501    0  0.00000000000E+00 -0.00000000000E+00 -0.10752389056E+04  0.10752389056E+04  0.25500000000E-02 0.  1.
    5000001    1    1    2    0    0  0.23590462511E+02  0.84413386784E+02 -0.32340536585E+03  0.35833247194E+03  0.12700000000E+03 0.  0.
   -5000001    1    1    2    0    0 -0.23590462511E+02 -0.84413386784E+02 -0.72626401488E+03  0.74247595860E+03  0.12700000000E+03 0.  0.
<mgrwt>
<rscale>  0 0.33162236E+03</rscale>
<asrwt>0</asrwt>
<pdfrwt beam="1">  1        2 0.15360553E+00 0.33162236E+03</pdfrwt>
<pdfrwt beam="2">  1       -2 0.36527899E-02 0.33162236E+03</pdfrwt>
<totfact> 0.83287778E+03</totfact>
</mgrwt>
</event>
<event>
 4    1  0.2621617E-004  0.6534531E+03  0.7818608E-02  0.9800321E-01
         -2   -1    0    0    0  501 -0.00000000000E+00  0.00000000000E+00  0.11495113195E+03  0.11495113198E+03  0.25500000000E-02 0. -1.
          2   -1    0    0  501    0  0.00000000000E+00 -0.00000000000E+00 -0.92865757350E+03  0.92865757351E+03  0.25500000000E-02 0.  1.
    5000001    1    1    2    0    0 -0.27567364707E+03  0.12092461755E+03 -0.40938670930E+03  0.52377972524E+03  0.12700000000E+03 0.  0.
   -5000001    1    1    2    0    0  0.27567364707E+03 -0.12092461755E+03 -0.40431973225E+03  0.51982898025E+03  0.12700000000E+03 0.  0.
<mgrwt>
<rscale>  0 0.65345310E+03</rscale>
<asrwt>0</asrwt>
<pdfrwt beam="1">  1        2 0.13266536E+00 0.65345310E+03</pdfrwt>
<pdfrwt beam="2">  1       -2 0.16421591E-01 0.65345310E+03</pdfrwt>
<totfact> 0.93922806E+02</totfact>
</mgrwt>
</event>
<event>
 4    1  0.2621617E-004  0.3278305E+03  0.7818608E-02  0.1072101E+00
         -2   -1    0    0    0  501 -0.00000000000E+00  0.00000000000E+00  0.25761740323E+03  0.25761740324E+03  0.25500000000E-02 0. -1.
          2   -1    0    0  501    0  0.00000000000E+00 -0.00000000000E+00 -0.10429502446E+03  0.10429502449E+03  0.25500000000E-02 0.  1.
    5000001    1    1    2    0    0  0.31105486743E+02 -0.94677266206E+02  0.45283076606E+02  0.16766303429E+03  0.12700000000E+03 0.  0.
   -5000001    1    1    2    0    0 -0.31105486743E+02  0.94677266206E+02  0.10803930216E+03  0.19424939344E+03  0.12700000000E+03 0.  0.
<mgrwt>
<rscale>  0 0.32783053E+03</rscale>
<asrwt>0</asrwt>
<pdfrwt beam="1">  1        2 0.14899289E-01 0.32783053E+03</pdfrwt>
<pdfrwt beam="2">  1       -2 0.36802486E-01 0.32783053E+03</pdfrwt>
<totfact> 0.27526933E+03</totfact>
</mgrwt>
</event>
<event>
 4    1  0.2621617E-004  0.5149585E+03  0.7818608E-02  0.1009947E+00
         -2   -1    0    0    0  501 -0.00000000000E+00  0.00000000000E+00  0.56948710712E+02  0.56948710769E+02  0.25500000000E-02 0. -1.
          2   -1    0    0  501    0  0.00000000000E+00 -0.00000000000E+00 -0.11641274727E+04  0.11641274727E+04  0.25500000000E-02 0.  1.
    5000001    1    1    2    0    0 -0.13806826137E+03 -0.38447129629E+01 -0.97168291354E+03  0.98963342258E+03  0.12700000000E+03 0.  0.
   -5000001    1    1    2    0    0  0.13806826137E+03  0.38447129629E+01 -0.13549584841E+03  0.23144276085E+03  0.12700000000E+03 0.  0.
<mgrwt>
<rscale>  0 0.51495848E+03</rscale>
<asrwt>0</asrwt>
<pdfrwt beam="1">  1        2 0.16630391E+00 0.51495848E+03</pdfrwt>
<pdfrwt beam="2">  1       -2 0.81355308E-02 0.51495848E+03</pdfrwt>
<totfact> 0.21592331E+03</totfact>
</mgrwt>
</event>
<event>
 4    1  0.2621617E-004  0.7162372E+03  0.7818608E-02  0.9689860E-01
         -2   -1    0    0    0  501 -0.00000000000E+00  0.00000000000E+00  0.66706274598E+02  0.66706274647E+02  0.25500000000E-02 0. -1.
          2   -1    0    0  501    0  0.00000000000E+00 -0.00000000000E+00 -0.19225918016E+04  0.19225918016E+04  0.25500000000E-02 0.  1.
    5000001    1    1    2    0    0  0.25779183409E+03  0.21041056877E+03 -0.10315188827E+04  0.10912788107E+04  0.12700000000E+03 0.  0.
   -5000001    1    1    2    0    0 -0.25779183409E+03 -0.21041056877E+03 -0.82436664425E+03  0.89801926556E+03  0.12700000000E+03 0.  0.
<mgrwt>
<rscale>  0 0.71623721E+03</rscale>
<asrwt>0</asrwt>
<pdfrwt beam="1">  1        2 0.27465594E+00 0.71623721E+03</pdfrwt>
<pdfrwt beam="2">  1       -2 0.95294690E-02 0.71623721E+03</pdfrwt>
<totfact> 0.66601455E+02</totfact>
</mgrwt>
</event>
<event>
 4    1  0.2621617E-004  0.7770891E+03  0.7818608E-02  0.9593785E-01
          2   -1    0    0  501    0  0.00000000000E+00  0.00000000000E+00  0.23095994618E+03  0.23095994619E+03  0.25500000000E-02 0.  1.
         -2   -1    0    0    0  501 -0.00000000000E+00 -0.00000000000E+00 -0.65364947890E+03  0.65364947891E+03  0.25500000000E-02 0. -1.
    5000001    1    1    2    0    0 -0.34770697831E+03  0.54765433990E+02 -0.33040280499E+03  0.49919375904E+03  0.12700000000E+03 0.  0.
   -5000001    1    1    2    0    0  0.34770697831E+03 -0.54765433990E+02 -0.92286727740E+02  0.38541566606E+03  0.12700000000E+03 0.  0.
<mgrwt>
<rscale>  0 0.77708905E+03</rscale>
<asrwt>0</asrwt>
<pdfrwt beam="1">  1        2 0.32994278E-01 0.77708905E+03</pdfrwt>
<pdfrwt beam="2">  1       -2 0.93378497E-01 0.77708905E+03</pdfrwt>
<totfact> 0.15630682E+02</totfact>
</mgrwt>
</event>
<event>
 4    1  0.2621617E-004  0.3796803E+03  0.7818608E-02  0.1051052E+00
          2   -1    0    0  501    0  0.00000000000E+00  0.00000000000E+00  0.89595500969E+03  0.89595500969E+03  0.25500000000E-02 0.  1.
         -2   -1    0    0    0  501 -0.00000000000E+00 -0.00000000000E+00 -0.40224435236E+02  0.40224435317E+02  0.25500000000E-02 0. -1.
    5000001    1    1    2    0    0  0.23600639850E+02 -0.10600770609E+03  0.20573746520E+03  0.26505004912E+03  0.12700000000E+03 0.  0.
   -5000001    1    1    2    0    0 -0.23600639850E+02  0.10600770609E+03  0.64999310925E+03  0.67112939589E+03  0.12700000000E+03 0.  0.
<mgrwt>
<rscale>  0 0.37968031E+03</rscale>
<asrwt>0</asrwt>
<pdfrwt beam="1">  1        2 0.12799355E+00 0.37968031E+03</pdfrwt>
<pdfrwt beam="2">  1       -2 0.57463488E-02 0.37968031E+03</pdfrwt>
<totfact> 0.53675813E+03</totfact>
</mgrwt>
</event>
<event>
 4    1  0.2621617E-004  0.2814245E+03  0.7818608E-02  0.1094913E+00
          2   -1    0    0  501    0  0.00000000000E+00  0.00000000000E+00  0.33869628701E+04  0.33869628701E+04  0.25500000000E-02 0.  1.
         -2   -1    0    0    0  501 -0.00000000000E+00 -0.00000000000E+00 -0.58459284665E+01  0.58459290227E+01  0.25500000000E-02 0. -1.
    5000001    1    1    2    0    0  0.50138200599E+02  0.24672570142E+02  0.14082436015E+04  0.14150624072E+04  0.12700000000E+03 0.  0.
   -5000001    1    1    2    0    0 -0.50138200599E+02 -0.24672570142E+02  0.19728733401E+04  0.19777463920E+04  0.12700000000E+03 0.  0.
<mgrwt>
<rscale>  0 0.28142454E+03</rscale>
<asrwt>0</asrwt>
<pdfrwt beam="1">  1        2 0.48385224E+00 0.28142454E+03</pdfrwt>
<pdfrwt beam="2">  1       -2 0.83513198E-03 0.28142454E+03</pdfrwt>
<totfact> 0.47181653E+03</totfact>
</mgrwt>
</event>
<event>
 4    1  0.2621617E-004  0.3026713E+03  0.7818608E-02  0.1083913E+00
          2   -1    0    0  501    0  0.00000000000E+00  0.00000000000E+00  0.12372225192E+04  0.12372225192E+04  0.25500000000E-02 0.  1.
         -2   -1    0    0    0  501 -0.00000000000E+00 -0.00000000000E+00 -0.18511207777E+02  0.18511207953E+02  0.25500000000E-02 0. -1.
    5000001    1    1    2    0    0  0.61817264702E+00  0.82297687834E+02  0.60753927922E+03  0.62610403876E+03  0.12700000000E+03 0.  0.
   -5000001    1    1    2    0    0 -0.61817264702E+00 -0.82297687834E+02  0.61117203224E+03  0.62962968843E+03  0.12700000000E+03 0.  0.
<mgrwt>
<rscale>  0 0.30267133E+03</rscale>
<asrwt>0</asrwt>
<pdfrwt beam="1">  1        2 0.17674611E+00 0.30267133E+03</pdfrwt>
<pdfrwt beam="2">  1       -2 0.26444577E-02 0.30267133E+03</pdfrwt>
<totfact> 0.10954360E+04</totfact>
</mgrwt>
</event>
<event>
 4    1  0.2621617E-004  0.4460043E+03  0.7818608E-02  0.1028920E+00
          2   -1    0    0  501    0  0.00000000000E+00  0.00000000000E+00  0.14541918683E+03  0.14541918685E+03  0.25500000000E-02 0.  1.
         -2   -1    0    0    0  501 -0.00000000000E+00 -0.00000000000E+00 -0.34197653912E+03  0.34197653913E+03  0.25500000000E-02 0. -1.
    5000001    1    1    2    0    0  0.84800857494E+02  0.15212744808E+03 -0.35816434692E+02  0.21850803849E+03  0.12700000000E+03 0.  0.
   -5000001    1    1    2    0    0 -0.84800857494E+02 -0.15212744808E+03 -0.16074091760E+03  0.26888768749E+03  0.12700000000E+03 0.  0.
<mgrwt>
<rscale>  0 0.44600426E+03</rscale>
<asrwt>0</asrwt>
<pdfrwt beam="1">  1        2 0.20774170E-01 0.44600426E+03</pdfrwt>
<pdfrwt beam="2">  1       -2 0.48853791E-01 0.44600426E+03</pdfrwt>
<totfact> 0.10783352E+03</totfact>
</mgrwt>
</event>
<event>
 4    1  0.2621617E-004  0.2726047E+03  0.7818608E-02  0.1099798E+00
         -2   -1    0    0    0  501 -0.00000000000E+00  0.00000000000E+00  0.26201332911E+03  0.26201332912E+03  0.25500000000E-02 0. -1.
          2   -1    0    0  501    0  0.00000000000E+00 -0.00000000000E+00 -0.70906034803E+02  0.70906034848E+02  0.25500000000E-02 0.  1.
    5000001    1    1    2    0    0  0.38423640172E+02  0.31110262733E+02  0.98312077322E+02  0.16804311684E+03  0.12700000000E+03 0.  0.
   -5000001    1    1    2    0    0 -0.38423640172E+02 -0.31110262733E+02  0.92795216987E+02  0.16487624713E+03  0.12700000000E+03 0.  0.
<mgrwt>
<rscale>  0 0.27260467E+03</rscale>
<asrwt>0</asrwt>
<pdfrwt beam="1">  1        2 0.10129433E-01 0.27260467E+03</pdfrwt>
<pdfrwt beam="2">  1       -2 0.37430476E-01 0.27260467E+03</pdfrwt>
<totfact> 0.42410554E+03</totfact>
</mgrwt>
</event>
<event>
 4    1  0.2621617E-004  0.5014984E+03  0.7818608E-02  0.1013389E+00
         -2   -1    0    0    0  501 -0.00000000000E+00  0.00000000000E+00  0.22838084866E+02  0.22838085008E+02  0.25500000000E-02 0. -1.
          2   -1    0    0  501    0  0.00000000000E+00 -0.00000000000E+00 -0.27530839210E+04  0.27530839210E+04  0.25500000000E-02 0.  1.
    5000001    1    1    2    0    0 -0.15755209486E+03  0.14798553587E+03 -0.13921171584E+04  0.14145110689E+04  0.12700000000E+03 0.  0.
   -5000001    1    1    2    0    0  0.15755209486E+03 -0.14798553587E+03 -0.13381286777E+04  0.13614109371E+04  0.12700000000E+03 0.  0.
<mgrwt>
<rscale>  0 0.50149841E+03</rscale>
<asrwt>0</asrwt>
<pdfrwt beam="1">  1        2 0.39329749E+00 0.50149841E+03</pdfrwt>
<pdfrwt beam="2">  1       -2 0.32625853E-02 0.50149841E+03</pdfrwt>
<totfact> 0.13619632E+03</totfact>
</mgrwt>
</event>
<event>
 4    1  0.2621617E-004  0.3992369E+03  0.7818608E-02  0.1044044E+00
          2   -1    0    0  501    0  0.00000000000E+00  0.00000000000E+00  0.12425198160E+03  0.12425198162E+03  0.25500000000E-02 0.  1.
         -2   -1    0    0    0  501 -0.00000000000E+00 -0.00000000000E+00 -0.32069933562E+03  0.32069933563E+03  0.25500000000E-02 0. -1.
    5000001    1    1    2    0    0  0.37396188270E+02  0.85776381416E+02  0.38103797507E+02  0.16228666578E+03  0.12700000000E+03 0.  0.
   -5000001    1    1    2    0    0 -0.37396188270E+02 -0.85776381416E+02 -0.23455115153E+03  0.28266465147E+03  0.12700000000E+03 0.  0.
<mgrwt>
<rscale>  0 0.39923691E+03</rscale>
<asrwt>0</asrwt>
<pdfrwt beam="1">  1        2 0.17750283E-01 0.39923691E+03</pdfrwt>
<pdfrwt beam="2">  1       -2 0.45814191E-01 0.39923691E+03</pdfrwt>
<totfact> 0.14707305E+03</totfact>
</mgrwt>
</event>
<event>
 4    1  0.2621617E-004  0.4395365E+03  0.7818608E-02  0.1030889E+00
          2   -1    0    0  501    0  0.00000000000E+00  0.00000000000E+00  0.16411958076E+04  0.16411958076E+04  0.25500000000E-02 0.  1.
         -2   -1    0    0    0  501 -0.00000000000E+00 -0.00000000000E+00 -0.29428595789E+02  0.29428595899E+02  0.25500000000E-02 0. -1.
    5000001    1    1    2    0    0 -0.15325332470E+03 -0.85386658617E+02  0.66409380719E+03  0.69851775049E+03  0.12700000000E+03 0.  0.
   -5000001    1    1    2    0    0  0.15325332470E+03  0.85386658617E+02  0.94767340462E+03  0.97210665301E+03  0.12700000000E+03 0.  0.
<mgrwt>
<rscale>  0 0.43953652E+03</rscale>
<asrwt>0</asrwt>
<pdfrwt beam="1">  1        2 0.23445658E+00 0.43953652E+03</pdfrwt>
<pdfrwt beam="2">  1       -2 0.42040845E-02 0.43953652E+03</pdfrwt>
<totfact> 0.33774612E+03</totfact>
</mgrwt>
</event>
<event>
 4    1  0.2621617E-004  0.7426460E+03  0.7818608E-02  0.9646959E-01
         -2   -1    0    0    0  501 -0.00000000000E+00  0.00000000000E+00  0.11456897682E+03  0.11456897685E+03  0.25500000000E-02 0. -1.
          2   -1    0    0  501    0  0.00000000000E+00 -0.00000000000E+00 -0.12034738770E+04  0.12034738771E+04  0.25500000000E-02 0.  1.
    5000001    1    1    2    0    0 -0.72863729054E+02 -0.34002222628E+03 -0.59550770428E+03  0.70120087224E+03  0.12700000000E+03 0.  0.
   -5000001    1    1    2    0    0  0.72863729054E+02  0.34002222628E+03 -0.49339719594E+03  0.61684198166E+03  0.12700000000E+03 0.  0.
<mgrwt>
<rscale>  0 0.74264600E+03</rscale>
<asrwt>0</asrwt>
<pdfrwt beam="1">  1        2 0.17192483E+00 0.74264600E+03</pdfrwt>
<pdfrwt beam="2">  1       -2 0.16366997E-01 0.74264600E+03</pdfrwt>
<totfact> 0.64602327E+02</totfact>
</mgrwt>
</event>
<event>
 4    1  0.2621617E-004  0.4066455E+03  0.7818608E-02  0.1041503E+00
         -2   -1    0    0    0  501 -0.00000000000E+00  0.00000000000E+00  0.87186789957E+02  0.87186789994E+02  0.25500000000E-02 0. -1.
          2   -1    0    0  501    0  0.00000000000E+00 -0.00000000000E+00 -0.47415603728E+03  0.47415603729E+03  0.25500000000E-02 0.  1.
    5000001    1    1    2    0    0 -0.40463029691E+02  0.15276637676E+03 -0.21470546608E+03  0.29530028751E+03  0.12700000000E+03 0.  0.
   -5000001    1    1    2    0    0  0.40463029691E+02 -0.15276637676E+03 -0.17226378125E+03  0.26604253978E+03  0.12700000000E+03 0.  0.
<mgrwt>
<rscale>  0 0.40664551E+03</rscale>
<asrwt>0</asrwt>
<pdfrwt beam="1">  1        2 0.67736575E-01 0.40664551E+03</pdfrwt>
<pdfrwt beam="2">  1       -2 0.12455256E-01 0.40664551E+03</pdfrwt>
<totfact> 0.33641613E+03</totfact>
</mgrwt>
</event>
<event>
 4    1  0.2621617E-004  0.3537614E+03  0.7818608E-02  0.1061082E+00
          2   -1    0    0  501    0  0.00000000000E+00  0.00000000000E+00  0.24085565512E+04  0.24085565512E+04  0.25500000000E-02 0.  1.
         -2   -1    0    0    0  501 -0.00000000000E+00 -0.00000000000E+00 -0.12989847038E+02  0.12989847289E+02  0.25500000000E-02 0. -1.
    5000001    1    1    2    0    0  0.39526199350E+02  0.10040261743E+03  0.79196550011E+03  0.80930918653E+03  0.12700000000E+03 0.  0.
   -5000001    1    1    2    0    0 -0.39526199350E+02 -0.10040261743E+03  0.16036012041E+04  0.16122372120E+04  0.12700000000E+03 0.  0.
<mgrwt>
<rscale>  0 0.35376140E+03</rscale>
<asrwt>0</asrwt>
<pdfrwt beam="1">  1        2 0.34407962E+00 0.35376140E+03</pdfrwt>
<pdfrwt beam="2">  1       -2 0.18556918E-02 0.35376140E+03</pdfrwt>
<totfact> 0.47987177E+03</totfact>
</mgrwt>
</event>
<event>
 4    1  0.2621617E-004  0.7129058E+03  0.7818608E-02  0.9695413E-01
         -2   -1    0    0    0  501 -0.00000000000E+00  0.00000000000E+00  0.13823944127E+03  0.13823944130E+03  0.25500000000E-02 0. -1.
          2   -1    0    0  501    0  0.00000000000E+00 -0.00000000000E+00 -0.91912015301E+03  0.91912015301E+03  0.25500000000E-02 0.  1.
    5000001    1    1    2    0    0  0.17067432196E+03 -0.26758745120E+03 -0.54021021266E+03  0.63928776156E+03  0.12700000000E+03 0.  0.
   -5000001    1    1    2    0    0 -0.17067432196E+03  0.26758745120E+03 -0.24067049907E+03  0.41807183275E+03  0.12700000000E+03 0.  0.
<mgrwt>
<rscale>  0 0.71290576E+03</rscale>
<asrwt>0</asrwt>
<pdfrwt beam="1">  1        2 0.13130288E+00 0.71290576E+03</pdfrwt>
<pdfrwt beam="2">  1       -2 0.19748492E-01 0.71290576E+03</pdfrwt>
<totfact> 0.69193927E+02</totfact>
</mgrwt>
</event>
<event>
 4    1  0.2621617E-004  0.3974627E+03  0.7818608E-02  0.1044662E+00
          2   -1    0    0  501    0  0.00000000000E+00  0.00000000000E+00  0.26939386228E+04  0.26939386228E+04  0.25500000000E-02 0.  1.
         -2   -1    0    0    0  501 -0.00000000000E+00 -0.00000000000E+00 -0.14660374035E+02  0.14660374256E+02  0.25500000000E-02 0. -1.
    5000001    1    1    2    0    0 -0.10969714757E+03  0.93378355463E+02  0.16879353637E+04  0.16988254100E+04  0.12700000000E+03 0.  0.
   -5000001    1    1    2    0    0  0.10969714757E+03 -0.93378355463E+02  0.99134288507E+03  0.10097735871E+04  0.12700000000E+03 0.  0.
<mgrwt>
<rscale>  0 0.39746269E+03</rscale>
<asrwt>0</asrwt>
<pdfrwt beam="1">  1        2 0.38484811E+00 0.39746269E+03</pdfrwt>
<pdfrwt beam="2">  1       -2 0.20943406E-02 0.39746269E+03</pdfrwt>
<totfact> 0.28673302E+03</totfact>
</mgrwt>
</event>
<event>
 4    1  0.2621617E-004  0.5165419E+03  0.7818608E-02  0.1009549E+00
         -2   -1    0    0    0  501 -0.00000000000E+00  0.00000000000E+00  0.34517946756E+02  0.34517946850E+02  0.25500000000E-02 0. -1.
          2   -1    0    0  501    0  0.00000000000E+00 -0.00000000000E+00 -0.19324410007E+04  0.19324410007E+04  0.25500000000E-02 0.  1.
    5000001    1    1    2    0    0 -0.10123033929E+03 -0.19580285694E+03 -0.77915337490E+03  0.81963121097E+03  0.12700000000E+03 0.  0.
   -5000001    1    1    2    0    0  0.10123033929E+03  0.19580285694E+03 -0.11187696790E+04  0.11473277365E+04  0.12700000000E+03 0.  0.
<mgrwt>
<rscale>  0 0.51654195E+03</rscale>
<asrwt>0</asrwt>
<pdfrwt beam="1">  1        2 0.27606293E+00 0.51654195E+03</pdfrwt>
<pdfrwt beam="2">  1       -2 0.49311365E-02 0.51654195E+03</pdfrwt>
<totfact> 0.18841460E+03</totfact>
</mgrwt>
</event>
<event>
 4    1  0.2621617E-004  0.3446398E+03  0.7818608E-02  0.1064837E+00
         -2   -1    0    0    0  501 -0.00000000000E+00  0.00000000000E+00  0.15971412541E+02  0.15971412745E+02  0.25500000000E-02 0. -1.
          2   -1    0    0  501    0  0.00000000000E+00 -0.00000000000E+00 -0.18592057128E+04  0.18592057128E+04  0.25500000000E-02 0.  1.
    5000001    1    1    2    0    0 -0.31732565483E+02  0.10849539791E+03 -0.10742493697E+04  0.10876207590E+04  0.12700000000E+03 0.  0.
   -5000001    1    1    2    0    0  0.31732565483E+02 -0.10849539791E+03 -0.76898493060E+03  0.78755636660E+03  0.12700000000E+03 0.  0.
<mgrwt>
<rscale>  0 0.34463976E+03</rscale>
<asrwt>0</asrwt>
<pdfrwt beam="1">  1        2 0.26560068E+00 0.34463976E+03</pdfrwt>
<pdfrwt beam="2">  1       -2 0.22816316E-02 0.34463976E+03</pdfrwt>
<totfact> 0.65994318E+03</totfact>
</mgrwt>
</event>
<event>
 4    1  0.2621617E-004  0.7465477E+03  0.7818608E-02  0.9640782E-01
         -2   -1    0    0    0  501 -0.00000000000E+00  0.00000000000E+00  0.15403214260E+03  0.15403214262E+03  0.25500000000E-02 0. -1.
          2   -1    0    0  501    0  0.00000000000E+00 -0.00000000000E+00 -0.90457333916E+03  0.90457333917E+03  0.25500000000E-02 0.  1.
    5000001    1    1    2    0    0 -0.33226948983E+02 -0.34450470653E+03 -0.45815815066E+03  0.58806922549E+03  0.12700000000E+03 0.  0.
   -5000001    1    1    2    0    0  0.33226948983E+02  0.34450470653E+03 -0.29238304590E+03  0.47053625630E+03  0.12700000000E+03 0.  0.
<mgrwt>
<rscale>  0 0.74654771E+03</rscale>
<asrwt>0</asrwt>
<pdfrwt beam="1">  1        2 0.12922476E+00 0.74654771E+03</pdfrwt>
<pdfrwt beam="2">  1       -2 0.22004592E-01 0.74654771E+03</pdfrwt>
<totfact> 0.58397694E+02</totfact>
</mgrwt>
</event>
<event>
 4    1  0.2621617E-004  0.1047809E+04  0.7818608E-02  0.9257609E-01
          2   -1    0    0  501    0  0.00000000000E+00  0.00000000000E+00  0.16223358894E+04  0.16223358894E+04  0.25500000000E-02 0.  1.
         -2   -1    0    0    0  501 -0.00000000000E+00 -0.00000000000E+00 -0.16918561164E+03  0.16918561166E+03  0.25500000000E-02 0. -1.
    5000001    1    1    2    0    0  0.36862192692E+03 -0.28355385053E+03  0.10772339672E+04  0.11801893624E+04  0.12700000000E+03 0.  0.
   -5000001    1    1    2    0    0 -0.36862192692E+03  0.28355385053E+03  0.37591631058E+03  0.61133213863E+03  0.12700000000E+03 0.  0.
<mgrwt>
<rscale>  0 0.10478089E+04</rscale>
<asrwt>0</asrwt>
<pdfrwt beam="1">  1        2 0.23176227E+00 0.10478089E+04</pdfrwt>
<pdfrwt beam="2">  1       -2 0.24169373E-01 0.10478089E+04</pdfrwt>
<totfact> 0.19096988E+02</totfact>
</mgrwt>
</event>
<event>
 4    1  0.2621617E-004  0.4423940E+03  0.7818608E-02  0.1030015E+00
          2   -1    0    0  501    0  0.00000000000E+00  0.00000000000E+00  0.22012567485E+04  0.22012567485E+04  0.25500000000E-02 0.  1.
         -2   -1    0    0    0  501 -0.00000000000E+00 -0.00000000000E+00 -0.22227351778E+02  0.22227351925E+02  0.25500000000E-02 0. -1.
    5000001    1    1    2    0    0  0.13373681206E+03 -0.11501833527E+03  0.12957873986E+04  0.13138906860E+04  0.12700000000E+03 0.  0.
   -5000001    1    1    2    0    0 -0.13373681206E+03  0.11501833527E+03  0.88324199811E+03  0.90959341443E+03  0.12700000000E+03 0.  0.
<mgrwt>
<rscale>  0 0.44239398E+03</rscale>
<asrwt>0</asrwt>
<pdfrwt beam="1">  1        2 0.31446517E+00 0.44239398E+03</pdfrwt>
<pdfrwt beam="2">  1       -2 0.31753368E-02 0.44239398E+03</pdfrwt>
<totfact> 0.27193317E+03</totfact>
</mgrwt>
</event>
<event>
 4    1  0.2621617E-004  0.3288895E+03  0.7818608E-02  0.1071629E+00
          2   -1    0    0  501    0  0.00000000000E+00  0.00000000000E+00  0.59082797019E+03  0.59082797020E+03  0.25500000000E-02 0.  1.
         -2   -1    0    0    0  501 -0.00000000000E+00 -0.00000000000E+00 -0.45769800630E+02  0.45769800701E+02  0.25500000000E-02 0. -1.
    5000001    1    1    2    0    0 -0.60558017732E+02  0.67203627229E+02  0.37365322343E+03  0.40488187463E+03  0.12700000000E+03 0.  0.
   -5000001    1    1    2    0    0  0.60558017732E+02 -0.67203627229E+02  0.17140494613E+03  0.23171589627E+03  0.12700000000E+03 0.  0.
<mgrwt>
<rscale>  0 0.32888952E+03</rscale>
<asrwt>0</asrwt>
<pdfrwt beam="1">  1        2 0.84403997E-01 0.32888952E+03</pdfrwt>
<pdfrwt beam="2">  1       -2 0.65385429E-02 0.32888952E+03</pdfrwt>
<totfact> 0.72747929E+03</totfact>
</mgrwt>
</event>
<event>
 4    1  0.2621617E-004  0.5315734E+03  0.7818608E-02  0.1005851E+00
          2   -1    0    0  501    0  0.00000000000E+00  0.00000000000E+00  0.39622180004E+03  0.39622180005E+03  0.25500000000E-02 0.  1.
         -2   -1    0    0    0  501 -0.00000000000E+00 -0.00000000000E+00 -0.17829047590E+03  0.17829047592E+03  0.25500000000E-02 0. -1.
    5000001    1    1    2    0    0  0.14360760355E+03  0.12040784930E+03  0.25947089862E+03  0.34434770393E+03  0.12700000000E+03 0.  0.
   -5000001    1    1    2    0    0 -0.14360760355E+03 -0.12040784930E+03 -0.41539574489E+02  0.23016457204E+03  0.12700000000E+03 0.  0.
<mgrwt>
<rscale>  0 0.53157341E+03</rscale>
<asrwt>0</asrwt>
<pdfrwt beam="1">  1        2 0.56603114E-01 0.53157341E+03</pdfrwt>
<pdfrwt beam="2">  1       -2 0.25470068E-01 0.53157341E+03</pdfrwt>
<totfact> 0.12108097E+03</totfact>
</mgrwt>
</event>
<event>
 4    1  0.2621617E-004  0.4944356E+03  0.7818608E-02  0.1015242E+00
         -2   -1    0    0    0  501 -0.00000000000E+00  0.00000000000E+00  0.40207999090E+02  0.40207999171E+02  0.25500000000E-02 0. -1.
          2   -1    0    0  501    0  0.00000000000E+00 -0.00000000000E+00 -0.15200122110E+04  0.15200122110E+04  0.25500000000E-02 0.  1.
    5000001    1    1    2    0    0  0.33262197726E+02  0.20597024210E+03 -0.61943023232E+03  0.66584752544E+03  0.12700000000E+03 0.  0.
   -5000001    1    1    2    0    0 -0.33262197726E+02 -0.20597024210E+03 -0.86037397957E+03  0.89437268471E+03  0.12700000000E+03 0.  0.
<mgrwt>
<rscale>  0 0.49443564E+03</rscale>
<asrwt>0</asrwt>
<pdfrwt beam="1">  1        2 0.21714457E+00 0.49443564E+03</pdfrwt>
<pdfrwt beam="2">  1       -2 0.57440008E-02 0.49443564E+03</pdfrwt>
<totfact> 0.24054305E+03</totfact>
</mgrwt>
</event>
<event>
 4    1  0.2621617E-004  0.5285280E+03  0.7818608E-02  0.1006590E+00
         -2   -1    0    0    0  501 -0.00000000000E+00  0.00000000000E+00  0.62222706236E+02  0.62222706288E+02  0.25500000000E-02 0. -1.
          2   -1    0    0  501    0  0.00000000000E+00 -0.00000000000E+00 -0.11223467298E+04  0.11223467298E+04  0.25500000000E-02 0.  1.
    5000001    1    1    2    0    0  0.92069736601E+02 -0.20874196013E+03 -0.43884490522E+03  0.51065046083E+03  0.12700000000E+03 0.  0.
   -5000001    1    1    2    0    0 -0.92069736601E+02  0.20874196013E+03 -0.62127911833E+03  0.67391897524E+03  0.12700000000E+03 0.  0.
<mgrwt>
<rscale>  0 0.52852796E+03</rscale>
<asrwt>0</asrwt>
<pdfrwt beam="1">  1        2 0.16033523E+00 0.52852796E+03</pdfrwt>
<pdfrwt beam="2">  1       -2 0.88889587E-02 0.52852796E+03</pdfrwt>
<totfact> 0.19798208E+03</totfact>
</mgrwt>
</event>
<event>
 4    1  0.2621617E-004  0.3581578E+03  0.7818608E-02  0.1059316E+00
          2   -1    0    0  501    0  0.00000000000E+00  0.00000000000E+00  0.10992483581E+04  0.10992483581E+04  0.25500000000E-02 0.  1.
         -2   -1    0    0    0  501 -0.00000000000E+00 -0.00000000000E+00 -0.29173801216E+02  0.29173801327E+02  0.25500000000E-02 0. -1.
    5000001    1    1    2    0    0 -0.12501994341E+03 -0.17055137627E+02  0.54891048721E+03  0.57736694307E+03  0.12700000000E+03 0.  0.
   -5000001    1    1    2    0    0  0.12501994341E+03  0.17055137627E+02  0.52116406967E+03  0.55105521637E+03  0.12700000000E+03 0.  0.
<mgrwt>
<rscale>  0 0.35815780E+03</rscale>
<asrwt>0</asrwt>
<pdfrwt beam="1">  1        2 0.15703545E+00 0.35815780E+03</pdfrwt>
<pdfrwt beam="2">  1       -2 0.41676867E-02 0.35815780E+03</pdfrwt>
<totfact> 0.66209398E+03</totfact>
</mgrwt>
</event>
<event>
 4    1  0.2621617E-004  0.6035358E+03  0.7818608E-02  0.9898098E-01
          2   -1    0    0  501    0  0.00000000000E+00  0.00000000000E+00  0.14469979004E+04  0.14469979004E+04  0.25500000000E-02 0.  1.
         -2   -1    0    0    0  501 -0.00000000000E+00 -0.00000000000E+00 -0.62932955329E+02  0.62932955380E+02  0.25500000000E-02 0. -1.
    5000001    1    1    2    0    0  0.25276230915E+03  0.12245381124E+02  0.43088249736E+03  0.51558458163E+03  0.12700000000E+03 0.  0.
   -5000001    1    1    2    0    0 -0.25276230915E+03 -0.12245381124E+02  0.95318244771E+03  0.99434627414E+03  0.12700000000E+03 0.  0.
<mgrwt>
<rscale>  0 0.60353576E+03</rscale>
<asrwt>0</asrwt>
<pdfrwt beam="1">  1        2 0.20671396E+00 0.60353576E+03</pdfrwt>
<pdfrwt beam="2">  1       -2 0.89904235E-02 0.60353576E+03</pdfrwt>
<totfact> 0.12896353E+03</totfact>
</mgrwt>
</event>
<event>
 4    1  0.2621617E-004  0.9535800E+03  0.7818608E-02  0.9360976E-01
         -2   -1    0    0    0  501 -0.00000000000E+00  0.00000000000E+00  0.32721295749E+03  0.32721295750E+03  0.25500000000E-02 0. -1.
          2   -1    0    0  501    0  0.00000000000E+00 -0.00000000000E+00 -0.69474232155E+03  0.69474232156E+03  0.25500000000E-02 0.  1.
    5000001    1    1    2    0    0  0.32069286461E+02 -0.42751756539E+03 -0.63661959592E+01  0.44717919932E+03  0.12700000000E+03 0.  0.
   -5000001    1    1    2    0    0 -0.32069286461E+02  0.42751756539E+03 -0.36116316810E+03  0.57477607974E+03  0.12700000000E+03 0.  0.
<mgrwt>
<rscale>  0 0.95357997E+03</rscale>
<asrwt>0</asrwt>
<pdfrwt beam="1">  1        2 0.99248903E-01 0.95357997E+03</pdfrwt>
<pdfrwt beam="2">  1       -2 0.46744708E-01 0.95357997E+03</pdfrwt>
<totfact> 0.19710118E+02</totfact>
</mgrwt>
</event>
<event>
 4    1  0.2621617E-004  0.3156221E+03  0.7818608E-02  0.1077682E+00
          2   -1    0    0  501    0  0.00000000000E+00  0.00000000000E+00  0.29218641000E+02  0.29218641111E+02  0.25500000000E-02 0.  1.
         -2   -1    0    0    0  501 -0.00000000000E+00 -0.00000000000E+00 -0.85234406094E+03  0.85234406094E+03  0.25500000000E-02 0. -1.
    5000001    1    1    2    0    0  0.69654308829E+02  0.62592885559E+02 -0.41825630554E+03  0.44703123961E+03  0.12700000000E+03 0.  0.
   -5000001    1    1    2    0    0 -0.69654308829E+02 -0.62592885559E+02 -0.40486911439E+03  0.43453146244E+03  0.12700000000E+03 0.  0.
<mgrwt>
<rscale>  0 0.31562215E+03</rscale>
<asrwt>0</asrwt>
<pdfrwt beam="1">  1        2 0.41740921E-02 0.31562215E+03</pdfrwt>
<pdfrwt beam="2">  1       -2 0.12176342E+00 0.31562215E+03</pdfrwt>
<totfact> 0.10773808E+03</totfact>
</mgrwt>
</event>
<event>
 4    1  0.2621617E-004  0.2826392E+03  0.7818608E-02  0.1094256E+00
         -2   -1    0    0    0  501 -0.00000000000E+00  0.00000000000E+00  0.12544223901E+02  0.12544224160E+02  0.25500000000E-02 0. -1.
          2   -1    0    0  501    0  0.00000000000E+00 -0.00000000000E+00 -0.15920654994E+04  0.15920654994E+04  0.25500000000E-02 0.  1.
    5000001    1    1    2    0    0  0.80676766007E+01 -0.48503605780E+02 -0.10040369916E+04  0.10132309547E+04  0.12700000000E+03 0.  0.
   -5000001    1    1    2    0    0 -0.80676766007E+01  0.48503605780E+02 -0.57548428396E+03  0.59137876886E+03  0.12700000000E+03 0.  0.
<mgrwt>
<rscale>  0 0.28263918E+03</rscale>
<asrwt>0</asrwt>
<pdfrwt beam="1">  1        2 0.22743780E+00 0.28263918E+03</pdfrwt>
<pdfrwt beam="2">  1       -2 0.17920330E-02 0.28263918E+03</pdfrwt>
<totfact> 0.12748442E+04</totfact>
</mgrwt>
</event>
<event>
 4    1  0.2621617E-004  0.3040932E+03  0.7818608E-02  0.1083212E+00
          2   -1    0    0  501    0  0.00000000000E+00  0.00000000000E+00  0.12036941758E+03  0.12036941760E+03  0.25500000000E-02 0.  1.
         -2   -1    0    0    0  501 -0.00000000000E+00 -0.00000000000E+00 -0.19206008879E+03  0.19206008881E+03  0.25500000000E-02 0. -1.
    5000001    1    1    2    0    0 -0.32320562084E+02 -0.69366243230E+02 -0.12645550968E+01  0.14827978127E+03  0.12700000000E+03 0.  0.
   -5000001    1    1    2    0    0  0.32320562084E+02  0.69366243230E+02 -0.70426116114E+02  0.16414972514E+03  0.12700000000E+03 0.  0.
<mgrwt>
<rscale>  0 0.30409315E+03</rscale>
<asrwt>0</asrwt>
<pdfrwt beam="1">  1        2 0.17195631E-01 0.30409315E+03</pdfrwt>
<pdfrwt beam="2">  1       -2 0.27437155E-01 0.30409315E+03</pdfrwt>
<totfact> 0.39811169E+03</totfact>
</mgrwt>
</event>
<event>
 4    1  0.2621617E-004  0.3107971E+03  0.7818608E-02  0.1079964E+00
          2   -1    0    0  501    0  0.00000000000E+00  0.00000000000E+00  0.69025609402E+03  0.69025609402E+03  0.25500000000E-02 0.  1.
         -2   -1    0    0    0  501 -0.00000000000E+00 -0.00000000000E+00 -0.34985137232E+02  0.34985137325E+02  0.25500000000E-02 0. -1.
    5000001    1    1    2    0    0  0.40292085938E+02  0.79904484430E+02  0.31971350528E+03  0.35546294361E+03  0.12700000000E+03 0.  0.
   -5000001    1    1    2    0    0 -0.40292085938E+02 -0.79904484430E+02  0.33555745150E+03  0.36977828773E+03  0.12700000000E+03 0.  0.
<mgrwt>
<rscale>  0 0.31079707E+03</rscale>
<asrwt>0</asrwt>
<pdfrwt beam="1">  1        2 0.98608011E-01 0.31079707E+03</pdfrwt>
<pdfrwt beam="2">  1       -2 0.49978769E-02 0.31079707E+03</pdfrwt>
<totfact> 0.91537074E+03</totfact>
</mgrwt>
</event>
<event>
 4    1  0.2621617E-004  0.3721593E+03  0.7818608E-02  0.1053870E+00
          2   -1    0    0  501    0  0.00000000000E+00  0.00000000000E+00  0.16664359617E+04  0.16664359617E+04  0.25500000000E-02 0.  1.
         -2   -1    0    0    0  501 -0.00000000000E+00 -0.00000000000E+00 -0.20778254462E+02  0.20778254618E+02  0.25500000000E-02 0. -1.
    5000001    1    1    2    0    0  0.10383462645E+02  0.13164443470E+03  0.67532664248E+03  0.69973791345E+03  0.12700000000E+03 0.  0.
   -5000001    1    1    2    0    0 -0.10383462645E+02 -0.13164443470E+03  0.97033106473E+03  0.98747630283E+03  0.12700000000E+03 0.  0.
<mgrwt>
<rscale>  0 0.37215927E+03</rscale>
<asrwt>0</asrwt>
<pdfrwt beam="1">  1        2 0.23806225E+00 0.37215927E+03</pdfrwt>
<pdfrwt beam="2">  1       -2 0.29683225E-02 0.37215927E+03</pdfrwt>
<totfact> 0.55557832E+03</totfact>
</mgrwt>
</event>
<event>
 4    1  0.2621617E-004  0.4102612E+03  0.7818608E-02  0.1040283E+00
          2   -1    0    0  501    0  0.00000000000E+00  0.00000000000E+00  0.11893355251E+04  0.11893355251E+04  0.25500000000E-02 0.  1.
         -2   -1    0    0    0  501 -0.00000000000E+00 -0.00000000000E+00 -0.35379883936E+02  0.35379884028E+02  0.25500000000E-02 0. -1.
    5000001    1    1    2    0    0  0.15777983446E+03 -0.28760138171E+02  0.62204669017E+03  0.65482265268E+03  0.12700000000E+03 0.  0.
   -5000001    1    1    2    0    0 -0.15777983446E+03  0.28760138171E+02  0.53190895098E+03  0.56989275644E+03  0.12700000000E+03 0.  0.
<mgrwt>
<rscale>  0 0.41026115E+03</rscale>
<asrwt>0</asrwt>
<pdfrwt beam="1">  1        2 0.16990507E+00 0.41026115E+03</pdfrwt>
<pdfrwt beam="2">  1       -2 0.50542692E-02 0.41026115E+03</pdfrwt>
<totfact> 0.43965702E+03</totfact>
</mgrwt>
</event>
<event>
 4    1  0.2621617E-004  0.7784548E+03  0.7818608E-02  0.9591737E-01
          2   -1    0    0  501    0  0.00000000000E+00  0.00000000000E+00  0.88436757005E+03  0.88436757006E+03  0.25500000000E-02 0.  1.
         -2   -1    0    0    0  501 -0.00000000000E+00 -0.00000000000E+00 -0.17130657226E+03  0.17130657228E+03  0.25500000000E-02 0. -1.
    5000001    1    1    2    0    0  0.26248280380E+03  0.13308761419E+03  0.65598154440E+03  0.73010295297E+03  0.12700000000E+03 0.  0.
   -5000001    1    1    2    0    0 -0.26248280380E+03 -0.13308761419E+03  0.57079453392E+02  0.32557118936E+03  0.12700000000E+03 0.  0.
<mgrwt>
<rscale>  0 0.77845482E+03</rscale>
<asrwt>0</asrwt>
<pdfrwt beam="1">  1        2 0.12633823E+00 0.77845482E+03</pdfrwt>
<pdfrwt beam="2">  1       -2 0.24472367E-01 0.77845482E+03</pdfrwt>
<totfact> 0.49742646E+02</totfact>
</mgrwt>
</event>
<event>
 4    1  0.2621617E-004  0.4565672E+03  0.7818608E-02  0.1025782E+00
          2   -1    0    0  501    0  0.00000000000E+00  0.00000000000E+00  0.11338877449E+03  0.11338877452E+03  0.25500000000E-02 0.  1.
         -2   -1    0    0    0  501 -0.00000000000E+00 -0.00000000000E+00 -0.45959929328E+03  0.45959929329E+03  0.25500000000E-02 0. -1.
    5000001    1    1    2    0    0  0.80798662802E+02  0.12283357049E+03 -0.32353627345E+03  0.37738737417E+03  0.12700000000E+03 0.  0.
   -5000001    1    1    2    0    0 -0.80798662802E+02 -0.12283357049E+03 -0.22674245338E+02  0.19560069364E+03  0.12700000000E+03 0.  0.
<mgrwt>
<rscale>  0 0.45656719E+03</rscale>
<asrwt>0</asrwt>
<pdfrwt beam="1">  1        2 0.16198397E-01 0.45656719E+03</pdfrwt>
<pdfrwt beam="2">  1       -2 0.65657041E-01 0.45656719E+03</pdfrwt>
<totfact> 0.78386227E+02</totfact>
</mgrwt>
</event>
<event>
 4    1  0.2621617E-004  0.4423752E+03  0.7818608E-02  0.1030021E+00
          2   -1    0    0  501    0  0.00000000000E+00  0.00000000000E+00  0.10534905603E+04  0.10534905603E+04  0.25500000000E-02 0.  1.
         -2   -1    0    0    0  501 -0.00000000000E+00 -0.00000000000E+00 -0.46439863404E+02  0.46439863474E+02  0.25500000000E-02 0. -1.
    5000001    1    1    2    0    0 -0.20804555781E+01 -0.14268136281E+03  0.78076568939E+03  0.80379497468E+03  0.12700000000E+03 0.  0.
   -5000001    1    1    2    0    0  0.20804555781E+01  0.14268136281E+03  0.22628500749E+03  0.29613544908E+03  0.12700000000E+03 0.  0.
<mgrwt>
<rscale>  0 0.44237522E+03</rscale>
<asrwt>0</asrwt>
<pdfrwt beam="1">  1        2 0.15049865E+00 0.44237522E+03</pdfrwt>
<pdfrwt beam="2">  1       -2 0.66342665E-02 0.44237522E+03</pdfrwt>
<totfact> 0.34480919E+03</totfact>
</mgrwt>
</event>
<event>
 4    1  0.2621617E-004  0.1021371E+04  0.7818608E-02  0.9285411E-01
          2   -1    0    0  501    0  0.00000000000E+00  0.00000000000E+00  0.31625092219E+03  0.31625092221E+03  0.25500000000E-02 0.  1.
         -2   -1    0    0    0  501 -0.00000000000E+00 -0.00000000000E+00 -0.82466087150E+03  0.82466087150E+03  0.25500000000E-02 0. -1.
    5000001    1    1    2    0    0 -0.15283588646E+03  0.24027829992E+03  0.19757951106E+03  0.36913294731E+03  0.12700000000E+03 0.  0.
   -5000001    1    1    2    0    0  0.15283588646E+03 -0.24027829992E+03 -0.70598946036E+03  0.77177884640E+03  0.12700000000E+03 0.  0.
<mgrwt>
<rscale>  0 0.10213712E+04</rscale>
<asrwt>0</asrwt>
<pdfrwt beam="1">  1        2 0.45178703E-01 0.10213712E+04</pdfrwt>
<pdfrwt beam="2">  1       -2 0.11780870E+00 0.10213712E+04</pdfrwt>
<totfact> 0.62342889E+01</totfact>
</mgrwt>
</event>
<event>
 4    1  0.2621617E-004  0.8779510E+03  0.7818608E-02  0.9453571E-01
         -2   -1    0    0    0  501 -0.00000000000E+00  0.00000000000E+00  0.84106432806E+02  0.84106432845E+02  0.25500000000E-02 0. -1.
          2   -1    0    0  501    0  0.00000000000E+00 -0.00000000000E+00 -0.22911386004E+04  0.22911386004E+04  0.25500000000E-02 0.  1.
    5000001    1    1    2    0    0 -0.21722035822E+03 -0.24051969709E+03 -0.37991247772E+03  0.51526391242E+03  0.12700000000E+03 0.  0.
   -5000001    1    1    2    0    0  0.21722035822E+03  0.24051969709E+03 -0.18271196899E+04  0.18599811208E+04  0.12700000000E+03 0.  0.
<mgrwt>
<rscale>  0 0.87795101E+03</rscale>
<asrwt>0</asrwt>
<pdfrwt beam="1">  1        2 0.32730548E+00 0.87795101E+03</pdfrwt>
<pdfrwt beam="2">  1       -2 0.12015206E-01 0.87795101E+03</pdfrwt>
<totfact> 0.29287539E+02</totfact>
</mgrwt>
</event>
<event>
 4    1  0.2621617E-004  0.4655040E+03  0.7818608E-02  0.1023197E+00
          2   -1    0    0  501    0  0.00000000000E+00  0.00000000000E+00  0.16350652683E+04  0.16350652683E+04  0.25500000000E-02 0.  1.
         -2   -1    0    0    0  501 -0.00000000000E+00 -0.00000000000E+00 -0.33132318102E+02  0.33132318200E+02  0.25500000000E-02 0. -1.
    5000001    1    1    2    0    0 -0.97724569856E+02 -0.14820334292E+03  0.51137443550E+03  0.55601001401E+03  0.12700000000E+03 0.  0.
   -5000001    1    1    2    0    0  0.97724569856E+02  0.14820334292E+03  0.10905585147E+04  0.11121875725E+04  0.12700000000E+03 0.  0.
<mgrwt>
<rscale>  0 0.46550404E+03</rscale>
<asrwt>0</asrwt>
<pdfrwt beam="1">  1        2 0.23358075E+00 0.46550404E+03</pdfrwt>
<pdfrwt beam="2">  1       -2 0.47331884E-02 0.46550404E+03</pdfrwt>
<totfact> 0.28353641E+03</totfact>
</mgrwt>
</event>
<event>
 4    1  0.2621617E-004  0.3530030E+03  0.7818608E-02  0.1061389E+00
         -2   -1    0    0    0  501 -0.00000000000E+00  0.00000000000E+00  0.20777285146E+02  0.20777285302E+02  0.25500000000E-02 0. -1.
          2   -1    0    0  501    0  0.00000000000E+00 -0.00000000000E+00 -0.14993675616E+04  0.14993675616E+04  0.25500000000E-02 0.  1.
    5000001    1    1    2    0    0 -0.64186398295E+02  0.10435142846E+03 -0.72279954199E+03  0.74402774965E+03  0.12700000000E+03 0.  0.
   -5000001    1    1    2    0    0  0.64186398295E+02 -0.10435142846E+03 -0.75579073444E+03  0.77611709723E+03  0.12700000000E+03 0.  0.
<mgrwt>
<rscale>  0 0.35300305E+03</rscale>
<asrwt>0</asrwt>
<pdfrwt beam="1">  1        2 0.21419530E+00 0.35300305E+03</pdfrwt>
<pdfrwt beam="2">  1       -2 0.29681846E-02 0.35300305E+03</pdfrwt>
<totfact> 0.67450993E+03</totfact>
</mgrwt>
</event>
<event>
 4    1  0.2621617E-004  0.3365658E+03  0.7818608E-02  0.1068268E+00
         -2   -1    0    0    0  501 -0.00000000000E+00  0.00000000000E+00  0.13864454716E+02  0.13864454950E+02  0.25500000000E-02 0.  1.
          2   -1    0    0  501    0  0.00000000000E+00 -0.00000000000E+00 -0.20425715730E+04  0.20425715730E+04  0.25500000000E-02 0. -1.
    5000001    1    1    2    0    0 -0.87553470459E+02 -0.83322810572E-01 -0.60336320892E+03  0.62276944290E+03  0.12700000000E+03 0.  0.
   -5000001    1    1    2    0    0  0.87553470459E+02  0.83322810572E-01 -0.14253439094E+04  0.14336665851E+04  0.12700000000E+03 0.  0.
<mgrwt>
<rscale>  0 0.33656584E+03</rscale>
<asrwt>0</asrwt>
<pdfrwt beam="1">  1        2 0.29179575E+00 0.33656584E+03</pdfrwt>
<pdfrwt beam="2">  1       -2 0.19806377E-02 0.33656584E+03</pdfrwt>
<totfact> 0.66127560E+03</totfact>
</mgrwt>
</event>
<event>
 4    1  0.2621617E-004  0.3228838E+03  0.7818608E-02  0.1074330E+00
         -2   -1    0    0    0  501 -0.00000000000E+00  0.00000000000E+00  0.29251698546E+02  0.29251698657E+02  0.25500000000E-02 0. -1.
          2   -1    0    0  501    0  0.00000000000E+00 -0.00000000000E+00 -0.89100769662E+03  0.89100769662E+03  0.25500000000E-02 0.  1.
    5000001    1    1    2    0    0  0.50112982260E+02  0.22445797826E+02 -0.19379682290E+03  0.23812041785E+03  0.12700000000E+03 0.  0.
   -5000001    1    1    2    0    0 -0.50112982260E+02 -0.22445797826E+02 -0.66795917517E+03  0.68213897743E+03  0.12700000000E+03 0.  0.
<mgrwt>
<rscale>  0 0.32288381E+03</rscale>
<asrwt>0</asrwt>
<pdfrwt beam="1">  1        2 0.12728680E+00 0.32288381E+03</pdfrwt>
<pdfrwt beam="2">  1       -2 0.41788147E-02 0.32288381E+03</pdfrwt>
<totfact> 0.87659289E+03</totfact>
</mgrwt>
</event>
<event>
 4    1  0.2621617E-004  0.3656017E+03  0.7818608E-02  0.1056388E+00
         -2   -1    0    0    0  501 -0.00000000000E+00  0.00000000000E+00  0.45975297572E+02  0.45975297643E+02  0.25500000000E-02 0. -1.
          2   -1    0    0  501    0  0.00000000000E+00 -0.00000000000E+00 -0.72682830403E+03  0.72682830403E+03  0.25500000000E-02 0.  1.
    5000001    1    1    2    0    0  0.13062486685E+03 -0.76733952290E+00 -0.37204176621E+03  0.41425538071E+03  0.12700000000E+03 0.  0.
   -5000001    1    1    2    0    0 -0.13062486685E+03  0.76733952290E+00 -0.30881124025E+03  0.35854822096E+03  0.12700000000E+03 0.  0.
<mgrwt>
<rscale>  0 0.36560168E+03</rscale>
<asrwt>0</asrwt>
<pdfrwt beam="1">  1        2 0.10383261E+00 0.36560168E+03</pdfrwt>
<pdfrwt beam="2">  1       -2 0.65679001E-02 0.36560168E+03</pdfrwt>
<totfact> 0.56753492E+03</totfact>
</mgrwt>
</event>
<event>
 4    1  0.2621617E-004  0.6234974E+03  0.7818608E-02  0.9857821E-01
         -2   -1    0    0    0  501 -0.00000000000E+00  0.00000000000E+00  0.97002623342E+02  0.97002623375E+02  0.25500000000E-02 0. -1.
          2   -1    0    0  501    0  0.00000000000E+00 -0.00000000000E+00 -0.10019034747E+04  0.10019034747E+04  0.25500000000E-02 0.  1.
    5000001    1    1    2    0    0  0.24532197325E+03 -0.13096231363E+03 -0.34489153225E+03  0.46088302981E+03  0.12700000000E+03 0.  0.
   -5000001    1    1    2    0    0 -0.24532197325E+03  0.13096231363E+03 -0.56000931912E+03  0.63802306828E+03  0.12700000000E+03 0.  0.
<mgrwt>
<rscale>  0 0.62349744E+03</rscale>
<asrwt>0</asrwt>
<pdfrwt beam="1">  1        2 0.14312906E+00 0.62349744E+03</pdfrwt>
<pdfrwt beam="2">  1       -2 0.13857518E-01 0.62349744E+03</pdfrwt>
<totfact> 0.11268608E+03</totfact>
</mgrwt>
</event>
<event>
 4    1  0.2621617E-004  0.4466850E+03  0.7818608E-02  0.1028715E+00
          2   -1    0    0  501    0  0.00000000000E+00  0.00000000000E+00  0.15936436734E+04  0.15936436734E+04  0.25500000000E-02 0.  1.
         -2   -1    0    0    0  501 -0.00000000000E+00 -0.00000000000E+00 -0.31300513729E+02  0.31300513833E+02  0.25500000000E-02 0. -1.
    5000001    1    1    2    0    0  0.11022315147E+03  0.14676219015E+03  0.75193722684E+03  0.78436399502E+03  0.12700000000E+03 0.  0.
   -5000001    1    1    2    0    0 -0.11022315147E+03 -0.14676219015E+03  0.81040593286E+03  0.84058019224E+03  0.12700000000E+03 0.  0.
<mgrwt>
<rscale>  0 0.44668497E+03</rscale>
<asrwt>0</asrwt>
<pdfrwt beam="1">  1        2 0.22766350E+00 0.44668497E+03</pdfrwt>
<pdfrwt beam="2">  1       -2 0.44714997E-02 0.44668497E+03</pdfrwt>
<totfact> 0.32485111E+03</totfact>
</mgrwt>
</event>
<event>
 4    1  0.2621617E-004  0.2864106E+03  0.7818608E-02  0.1092238E+00
         -2   -1    0    0    0  501 -0.00000000000E+00  0.00000000000E+00  0.38980964979E+02  0.38980965063E+02  0.25500000000E-02 0. -1.
          2   -1    0    0  501    0  0.00000000000E+00 -0.00000000000E+00 -0.52609662790E+03  0.52609662791E+03  0.25500000000E-02 0.  1.
    5000001    1    1    2    0    0 -0.20760461585E+02  0.59767002109E+02 -0.20531780192E+03  0.24957462029E+03  0.12700000000E+03 0.  0.
   -5000001    1    1    2    0    0  0.20760461585E+02 -0.59767002109E+02 -0.28179786100E+03  0.31550297268E+03  0.12700000000E+03 0.  0.
<mgrwt>
<rscale>  0 0.28641057E+03</rscale>
<asrwt>0</asrwt>
<pdfrwt beam="1">  1        2 0.75156657E-01 0.28641057E+03</pdfrwt>
<pdfrwt beam="2">  1       -2 0.55687096E-02 0.28641057E+03</pdfrwt>
<totfact> 0.10569841E+04</totfact>
</mgrwt>
</event>
<event>
 4    1  0.2621617E-004  0.3445511E+03  0.7818608E-02  0.1064874E+00
          2   -1    0    0  501    0  0.00000000000E+00  0.00000000000E+00  0.19703392788E+03  0.19703392790E+03  0.25500000000E-02 0.  1.
         -2   -1    0    0    0  501 -0.00000000000E+00 -0.00000000000E+00 -0.15062819167E+03  0.15062819169E+03  0.25500000000E-02 0. -1.
    5000001    1    1    2    0    0 -0.46081403966E+02  0.97457072830E+02 -0.21108192463E+02  0.16791644537E+03  0.12700000000E+03 0.  0.
   -5000001    1    1    2    0    0  0.46081403966E+02 -0.97457072830E+02  0.67513928679E+02  0.17974567422E+03  0.12700000000E+03 0.  0.
<mgrwt>
<rscale>  0 0.34455109E+03</rscale>
<asrwt>0</asrwt>
<pdfrwt beam="1">  1        2 0.28147704E-01 0.34455109E+03</pdfrwt>
<pdfrwt beam="2">  1       -2 0.21518313E-01 0.34455109E+03</pdfrwt>
<totfact> 0.34979367E+03</totfact>
</mgrwt>
</event>
<event>
 4    1  0.2621617E-004  0.4388162E+03  0.7818608E-02  0.1031111E+00
         -2   -1    0    0    0  501 -0.00000000000E+00  0.00000000000E+00  0.44825433634E+02  0.44825433706E+02  0.25500000000E-02 0. -1.
          2   -1    0    0  501    0  0.00000000000E+00 -0.00000000000E+00 -0.10739419790E+04  0.10739419790E+04  0.25500000000E-02 0.  1.
    5000001    1    1    2    0    0  0.82416525611E+02  0.15775624044E+03 -0.56097059622E+03  0.60207684303E+03  0.12700000000E+03 0.  0.
   -5000001    1    1    2    0    0 -0.82416525611E+02 -0.15775624044E+03 -0.46814594916E+03  0.51669056969E+03  0.12700000000E+03 0.  0.
<mgrwt>
<rscale>  0 0.43881620E+03</rscale>
<asrwt>0</asrwt>
<pdfrwt beam="1">  1        2 0.15342027E+00 0.43881620E+03</pdfrwt>
<pdfrwt beam="2">  1       -2 0.64036340E-02 0.43881620E+03</pdfrwt>
<totfact> 0.35450010E+03</totfact>
</mgrwt>
</event>
<event>
 4    1  0.2621617E-004  0.2981588E+03  0.7818608E-02  0.1086165E+00
          2   -1    0    0  501    0  0.00000000000E+00  0.00000000000E+00  0.29465898976E+03  0.29465898977E+03  0.25500000000E-02 0.  1.
         -2   -1    0    0    0  501 -0.00000000000E+00 -0.00000000000E+00 -0.75425060052E+02  0.75425060095E+02  0.25500000000E-02 0. -1.
    5000001    1    1    2    0    0  0.21669901004E+02  0.66894501840E+02  0.67502572511E+02  0.16009389833E+03  0.12700000000E+03 0.  0.
   -5000001    1    1    2    0    0 -0.21669901004E+02 -0.66894501840E+02  0.15173135720E+03  0.20999015154E+03  0.12700000000E+03 0.  0.
<mgrwt>
<rscale>  0 0.29815883E+03</rscale>
<asrwt>0</asrwt>
<pdfrwt beam="1">  1        2 0.42094142E-01 0.29815883E+03</pdfrwt>
<pdfrwt beam="2">  1       -2 0.10775008E-01 0.29815883E+03</pdfrwt>
<totfact> 0.70893196E+03</totfact>
</mgrwt>
</event>
<event>
 4    1  0.2621617E-004  0.4822318E+03  0.7818608E-02  0.1018524E+00
          2   -1    0    0  501    0  0.00000000000E+00  0.00000000000E+00  0.16942496880E+04  0.16942496880E+04  0.25500000000E-02 0.  1.
         -2   -1    0    0    0  501 -0.00000000000E+00 -0.00000000000E+00 -0.34314229607E+02  0.34314229702E+02  0.25500000000E-02 0. -1.
    5000001    1    1    2    0    0 -0.17784554135E+03 -0.92886529067E+02  0.67997718351E+03  0.72024642585E+03  0.12700000000E+03 0.  0.
   -5000001    1    1    2    0    0  0.17784554135E+03  0.92886529067E+02  0.97995827490E+03  0.10083174919E+04  0.12700000000E+03 0.  0.
<mgrwt>
<rscale>  0 0.48223178E+03</rscale>
<asrwt>0</asrwt>
<pdfrwt beam="1">  1        2 0.24203577E+00 0.48223178E+03</pdfrwt>
<pdfrwt beam="2">  1       -2 0.49020309E-02 0.48223178E+03</pdfrwt>
<totfact> 0.25065212E+03</totfact>
</mgrwt>
</event>
<event>
 4    1  0.2621617E-004  0.4443370E+03  0.7818608E-02  0.1029424E+00
          2   -1    0    0  501    0  0.00000000000E+00  0.00000000000E+00  0.18889454812E+04  0.18889454812E+04  0.25500000000E-02 0.  1.
         -2   -1    0    0    0  501 -0.00000000000E+00 -0.00000000000E+00 -0.26130374746E+02  0.26130374870E+02  0.25500000000E-02 0. -1.
    5000001    1    1    2    0    0 -0.16992105860E+03  0.18333638577E+02  0.65812179758E+03  0.69170990228E+03  0.12700000000E+03 0.  0.
   -5000001    1    1    2    0    0  0.16992105860E+03 -0.18333638577E+02  0.12046933089E+04  0.12233659538E+04  0.12700000000E+03 0.  0.
<mgrwt>
<rscale>  0 0.44433705E+03</rscale>
<asrwt>0</asrwt>
<pdfrwt beam="1">  1        2 0.26984939E+00 0.44433705E+03</pdfrwt>
<pdfrwt beam="2">  1       -2 0.37329101E-02 0.44433705E+03</pdfrwt>
<totfact> 0.30420410E+03</totfact>
</mgrwt>
</event>
<event>
 4    1  0.2621617E-004  0.3571720E+03  0.7818608E-02  0.1059709E+00
         -2   -1    0    0    0  501 -0.00000000000E+00  0.00000000000E+00  0.22722381347E+02  0.22722381490E+02  0.25500000000E-02 0. -1.
          2   -1    0    0  501    0  0.00000000000E+00 -0.00000000000E+00 -0.14035919555E+04  0.14035919555E+04  0.25500000000E-02 0.  1.
    5000001    1    1    2    0    0 -0.56282590023E+02 -0.94027529833E+02 -0.93514128059E+03  0.95006690341E+03  0.12700000000E+03 0.  0.
   -5000001    1    1    2    0    0  0.56282590023E+02  0.94027529833E+02 -0.44572829361E+03  0.47624743362E+03  0.12700000000E+03 0.  0.
<mgrwt>
<rscale>  0 0.35717196E+03</rscale>
<asrwt>0</asrwt>
<pdfrwt beam="1">  1        2 0.20051308E+00 0.35717196E+03</pdfrwt>
<pdfrwt beam="2">  1       -2 0.32460554E-02 0.35717196E+03</pdfrwt>
<totfact> 0.66072369E+03</totfact>
</mgrwt>
</event>
<event>
 4    1  0.2621617E-004  0.3867353E+03  0.7818608E-02  0.1048472E+00
         -2   -1    0    0    0  501 -0.00000000000E+00  0.00000000000E+00  0.15561667220E+02  0.15561667429E+02  0.25500000000E-02 0. -1.
          2   -1    0    0  501    0  0.00000000000E+00 -0.00000000000E+00 -0.24027656506E+04  0.24027656506E+04  0.25500000000E-02 0.  1.
    5000001    1    1    2    0    0 -0.82503195024E+02  0.64519162705E+02 -0.55920282959E+03  0.58292907302E+03  0.12700000000E+03 0.  0.
   -5000001    1    1    2    0    0  0.82503195024E+02 -0.64519162705E+02 -0.18280011538E+04  0.18353982450E+04  0.12700000000E+03 0.  0.
<mgrwt>
<rscale>  0 0.38673526E+03</rscale>
<asrwt>0</asrwt>
<pdfrwt beam="1">  1        2 0.34325200E+00 0.38673526E+03</pdfrwt>
<pdfrwt beam="2">  1       -2 0.22230969E-02 0.38673526E+03</pdfrwt>
<totfact> 0.36903769E+03</totfact>
</mgrwt>
</event>
<event>
 4    1  0.2621617E-004  0.3516955E+03  0.7818608E-02  0.1061921E+00
          2   -1    0    0  501    0  0.00000000000E+00  0.00000000000E+00  0.13413520232E+04  0.13413520232E+04  0.25500000000E-02 0.  1.
         -2   -1    0    0    0  501 -0.00000000000E+00 -0.00000000000E+00 -0.23053182231E+02  0.23053182372E+02  0.25500000000E-02 0. -1.
    5000001    1    1    2    0    0 -0.46280124096E+02  0.10309789231E+03  0.83361544803E+03  0.85077302524E+03  0.12700000000E+03 0.  0.
   -5000001    1    1    2    0    0  0.46280124096E+02 -0.10309789231E+03  0.48468339298E+03  0.51363218037E+03  0.12700000000E+03 0.  0.
<mgrwt>
<rscale>  0 0.35169551E+03</rscale>
<asrwt>0</asrwt>
<pdfrwt beam="1">  1        2 0.19162169E+00 0.35169551E+03</pdfrwt>
<pdfrwt beam="2">  1       -2 0.32933122E-02 0.35169551E+03</pdfrwt>
<totfact> 0.69670834E+03</totfact>
</mgrwt>
</event>
<event>
 4    1  0.2621617E-004  0.3034580E+03  0.7818608E-02  0.1083525E+00
         -2   -1    0    0    0  501 -0.00000000000E+00  0.00000000000E+00  0.72380876475E+01  0.72380880967E+01  0.25500000000E-02 0. -1.
          2   -1    0    0  501    0  0.00000000000E+00 -0.00000000000E+00 -0.31806309500E+04  0.31806309500E+04  0.25500000000E-02 0.  1.
    5000001    1    1    2    0    0 -0.11356525180E+02  0.65747573768E+02 -0.21057155136E+04  0.21105967257E+04  0.12700000000E+03 0.  0.
   -5000001    1    1    2    0    0  0.11356525180E+02 -0.65747573768E+02 -0.10676773487E+04  0.10772723124E+04  0.12700000000E+03 0.  0.
<mgrwt>
<rscale>  0 0.30345798E+03</rscale>
<asrwt>0</asrwt>
<pdfrwt beam="1">  1        2 0.45437496E+00 0.30345798E+03</pdfrwt>
<pdfrwt beam="2">  1       -2 0.10340146E-02 0.30345798E+03</pdfrwt>
<totfact> 0.45005681E+03</totfact>
</mgrwt>
</event>
<event>
 4    1  0.2621617E-004  0.5886074E+03  0.7818608E-02  0.9929328E-01
         -2   -1    0    0    0  501 -0.00000000000E+00  0.00000000000E+00  0.54806383989E+02  0.54806384048E+02  0.25500000000E-02 0. -1.
          2   -1    0    0  501    0  0.00000000000E+00 -0.00000000000E+00 -0.15803753722E+04  0.15803753722E+04  0.25500000000E-02 0.  1.
    5000001    1    1    2    0    0 -0.23349624245E+03  0.30445809072E+02 -0.11034581177E+04  0.11354277873E+04  0.12700000000E+03 0.  0.
   -5000001    1    1    2    0    0  0.23349624245E+03 -0.30445809072E+02 -0.42211087048E+03  0.49975396897E+03  0.12700000000E+03 0.  0.
<mgrwt>
<rscale>  0 0.58860737E+03</rscale>
<asrwt>0</asrwt>
<pdfrwt beam="1">  1        2 0.22576788E+00 0.58860737E+03</pdfrwt>
<pdfrwt beam="2">  1       -2 0.78294844E-02 0.58860737E+03</pdfrwt>
<totfact> 0.13719382E+03</totfact>
</mgrwt>
</event>
<event>
 4    1  0.2621617E-004  0.5788862E+03  0.7818608E-02  0.9950205E-01
         -2   -1    0    0    0  501 -0.00000000000E+00  0.00000000000E+00  0.10049809757E+04  0.10049809757E+04  0.25500000000E-02 0. -1.
          2   -1    0    0  501    0  0.00000000000E+00 -0.00000000000E+00 -0.83362090662E+02  0.83362090701E+02  0.25500000000E-02 0.  1.
    5000001    1    1    2    0    0 -0.12056516982E+03  0.19983243394E+03  0.24497554580E+03  0.36140141099E+03  0.12700000000E+03 0.  0.
   -5000001    1    1    2    0    0  0.12056516982E+03 -0.19983243394E+03  0.67664333920E+03  0.72694165537E+03  0.12700000000E+03 0.  0.
<mgrwt>
<rscale>  0 0.57888622E+03</rscale>
<asrwt>0</asrwt>
<pdfrwt beam="1">  1        2 0.11908870E-01 0.57888622E+03</pdfrwt>
<pdfrwt beam="2">  1       -2 0.14356871E+00 0.57888622E+03</pdfrwt>
<totfact> 0.18213331E+02</totfact>
</mgrwt>
</event>
<event>
 4    1  0.2621617E-004  0.4825359E+03  0.7818608E-02  0.1018441E+00
         -2   -1    0    0    0  501 -0.00000000000E+00  0.00000000000E+00  0.51659988424E+03  0.51659988424E+03  0.25500000000E-02 0. -1.
          2   -1    0    0  501    0  0.00000000000E+00 -0.00000000000E+00 -0.11267953087E+03  0.11267953090E+03  0.25500000000E-02 0.  1.
    5000001    1    1    2    0    0  0.62323717880E+02  0.19425621285E+03  0.17394426947E+03  0.29665692462E+03  0.12700000000E+03 0.  0.
   -5000001    1    1    2    0    0 -0.62323717880E+02 -0.19425621285E+03  0.22997608389E+03  0.33262249053E+03  0.12700000000E+03 0.  0.
<mgrwt>
<rscale>  0 0.48253594E+03</rscale>
<asrwt>0</asrwt>
<pdfrwt beam="1">  1        2 0.16097075E-01 0.48253594E+03</pdfrwt>
<pdfrwt beam="2">  1       -2 0.73799985E-01 0.48253594E+03</pdfrwt>
<totfact> 0.61344312E+02</totfact>
</mgrwt>
</event>
<event>
 4    1  0.2621617E-004  0.4811358E+03  0.7818608E-02  0.1018823E+00
         -2   -1    0    0    0  501 -0.00000000000E+00  0.00000000000E+00  0.75234629440E+02  0.75234629483E+02  0.25500000000E-02 0. -1.
          2   -1    0    0  501    0  0.00000000000E+00 -0.00000000000E+00 -0.76923233775E+03  0.76923233775E+03  0.25500000000E-02 0.  1.
    5000001    1    1    2    0    0  0.11379960124E+02 -0.12825121772E+03 -0.68564782008E+02  0.19341149829E+03  0.12700000000E+03 0.  0.
   -5000001    1    1    2    0    0 -0.11379960124E+02  0.12825121772E+03 -0.62543292630E+03  0.65105546894E+03  0.12700000000E+03 0.  0.
<mgrwt>
<rscale>  0 0.48113578E+03</rscale>
<asrwt>0</asrwt>
<pdfrwt beam="1">  1        2 0.10989033E+00 0.48113578E+03</pdfrwt>
<pdfrwt beam="2">  1       -2 0.10747805E-01 0.48113578E+03</pdfrwt>
<totfact> 0.24314834E+03</totfact>
</mgrwt>
</event>
<event>
 4    1  0.2621617E-004  0.5751795E+03  0.7818608E-02  0.9958282E-01
         -2   -1    0    0    0  501 -0.00000000000E+00  0.00000000000E+00  0.45583665453E+02  0.45583665524E+02  0.25500000000E-02 0. -1.
          2   -1    0    0  501    0  0.00000000000E+00 -0.00000000000E+00 -0.18144191820E+04  0.18144191820E+04  0.25500000000E-02 0.  1.
    5000001    1    1    2    0    0  0.17643944085E+02  0.17719437860E+03 -0.28056033471E+03  0.35574184176E+03  0.12700000000E+03 0.  0.
   -5000001    1    1    2    0    0 -0.17643944085E+02 -0.17719437860E+03 -0.14882751818E+04  0.15042610057E+04  0.12700000000E+03 0.  0.
<mgrwt>
<rscale>  0 0.57517954E+03</rscale>
<asrwt>0</asrwt>
<pdfrwt beam="1">  1        2 0.25920270E+00 0.57517954E+03</pdfrwt>
<pdfrwt beam="2">  1       -2 0.65119533E-02 0.57517954E+03</pdfrwt>
<totfact> 0.13966266E+03</totfact>
</mgrwt>
</event>
<event>
 4    1  0.2621617E-004  0.6093208E+03  0.7818608E-02  0.9886255E-01
          2   -1    0    0  501    0  0.00000000000E+00  0.00000000000E+00  0.17861726147E+03  0.17861726149E+03  0.25500000000E-02 0.  1.
         -2   -1    0    0    0  501 -0.00000000000E+00 -0.00000000000E+00 -0.51964726392E+03  0.51964726393E+03  0.25500000000E-02 0. -1.
    5000001    1    1    2    0    0  0.14750539537E+03 -0.26788982543E+01  0.98053354934E+02  0.21796439749E+03  0.12700000000E+03 0.  0.
   -5000001    1    1    2    0    0 -0.14750539537E+03  0.26788982543E+01 -0.43908335738E+03  0.48030012793E+03  0.12700000000E+03 0.  0.
<mgrwt>
<rscale>  0 0.60932084E+03</rscale>
<asrwt>0</asrwt>
<pdfrwt beam="1">  1        2 0.25516752E-01 0.60932084E+03</pdfrwt>
<pdfrwt beam="2">  1       -2 0.74235322E-01 0.60932084E+03</pdfrwt>
<totfact> 0.35311346E+02</totfact>
</mgrwt>
</event>
<event>
 4    1  0.2621617E-004  0.3682568E+03  0.7818608E-02  0.1055362E+00
          2   -1    0    0  501    0  0.00000000000E+00  0.00000000000E+00  0.13199654420E+03  0.13199654422E+03  0.25500000000E-02 0.  1.
         -2   -1    0    0    0  501 -0.00000000000E+00 -0.00000000000E+00 -0.25684962071E+03  0.25684962072E+03  0.25500000000E-02 0. -1.
    5000001    1    1    2    0    0 -0.47685773830E+02 -0.12423563800E+03 -0.53858975440E+02  0.19167215763E+03  0.12700000000E+03 0.  0.
   -5000001    1    1    2    0    0  0.47685773830E+02  0.12423563800E+03 -0.70994101074E+02  0.19717400732E+03  0.12700000000E+03 0.  0.
<mgrwt>
<rscale>  0 0.36825677E+03</rscale>
<asrwt>0</asrwt>
<pdfrwt beam="1">  1        2 0.18856649E-01 0.36825677E+03</pdfrwt>
<pdfrwt beam="2">  1       -2 0.36692803E-01 0.36825677E+03</pdfrwt>
<totfact> 0.21023165E+03</totfact>
</mgrwt>
</event>
<event>
 4    1  0.2621617E-004  0.5963306E+03  0.7818608E-02  0.9913048E-01
          2   -1    0    0  501    0  0.00000000000E+00  0.00000000000E+00  0.64911623620E+03  0.64911623621E+03  0.25500000000E-02 0.  1.
         -2   -1    0    0    0  501 -0.00000000000E+00 -0.00000000000E+00 -0.13695934442E+03  0.13695934445E+03  0.25500000000E-02 0. -1.
    5000001    1    1    2    0    0  0.20286007531E+03 -0.17410667902E+03  0.30375582531E+03  0.42410134077E+03  0.12700000000E+03 0.  0.
   -5000001    1    1    2    0    0 -0.20286007531E+03  0.17410667902E+03  0.20840106648E+03  0.36197423989E+03  0.12700000000E+03 0.  0.
<mgrwt>
<rscale>  0 0.59633056E+03</rscale>
<asrwt>0</asrwt>
<pdfrwt beam="1">  1        2 0.92730890E-01 0.59633056E+03</pdfrwt>
<pdfrwt beam="2">  1       -2 0.19565621E-01 0.59633056E+03</pdfrwt>
<totfact> 0.10966855E+03</totfact>
</mgrwt>
</event>
<event>
 4    1  0.2621617E-004  0.3036140E+03  0.7818608E-02  0.1083448E+00
          2   -1    0    0  501    0  0.00000000000E+00  0.00000000000E+00  0.16087015594E+04  0.16087015594E+04  0.25500000000E-02 0.  1.
         -2   -1    0    0    0  501 -0.00000000000E+00 -0.00000000000E+00 -0.14325445906E+02  0.14325446133E+02  0.25500000000E-02 0. -1.
    5000001    1    1    2    0    0 -0.59444652107E+02 -0.48840772675E+02  0.62837252402E+03  0.64567802865E+03  0.12700000000E+03 0.  0.
   -5000001    1    1    2    0    0  0.59444652107E+02  0.48840772675E+02  0.96600358948E+03  0.97734897689E+03  0.12700000000E+03 0.  0.
<mgrwt>
<rscale>  0 0.30361401E+03</rscale>
<asrwt>0</asrwt>
<pdfrwt beam="1">  1        2 0.22981427E+00 0.30361401E+03</pdfrwt>
<pdfrwt beam="2">  1       -2 0.20464944E-02 0.30361401E+03</pdfrwt>
<totfact> 0.10302218E+04</totfact>
</mgrwt>
</event>
<event>
 4    1  0.2621617E-004  0.8542956E+03  0.7818608E-02  0.9484590E-01
          2   -1    0    0  501    0  0.00000000000E+00  0.00000000000E+00  0.24181115316E+04  0.24181115316E+04  0.25500000000E-02 0.  1.
         -2   -1    0    0    0  501 -0.00000000000E+00 -0.00000000000E+00 -0.75453614127E+02  0.75453614170E+02  0.25500000000E-02 0. -1.
    5000001    1    1    2    0    0 -0.24567790400E+03 -0.34668222843E+02  0.21160949317E+04  0.21343725725E+04  0.12700000000E+03 0.  0.
   -5000001    1    1    2    0    0  0.24567790400E+03  0.34668222843E+02  0.22656298578E+03  0.35919257330E+03  0.12700000000E+03 0.  0.
<mgrwt>
<rscale>  0 0.85429563E+03</rscale>
<asrwt>0</asrwt>
<pdfrwt beam="1">  1        2 0.34544441E+00 0.85429563E+03</pdfrwt>
<pdfrwt beam="2">  1       -2 0.10779091E-01 0.85429563E+03</pdfrwt>
<totfact> 0.30201162E+02</totfact>
</mgrwt>
</event>
<event>
 4    1  0.2621617E-004  0.7312942E+03  0.7818608E-02  0.9665163E-01
          2   -1    0    0  501    0  0.00000000000E+00  0.00000000000E+00  0.38776019217E+03  0.38776019218E+03  0.25500000000E-02 0.  1.
         -2   -1    0    0    0  501 -0.00000000000E+00 -0.00000000000E+00 -0.34479503431E+03  0.34479503432E+03  0.25500000000E-02 0. -1.
    5000001    1    1    2    0    0  0.10451729496E+03 -0.32522373585E+03  0.51104595985E+02  0.36801497665E+03  0.12700000000E+03 0.  0.
   -5000001    1    1    2    0    0 -0.10451729496E+03  0.32522373585E+03 -0.81394381298E+01  0.36454024985E+03  0.12700000000E+03 0.  0.
<mgrwt>
<rscale>  0 0.73129416E+03</rscale>
<asrwt>0</asrwt>
<pdfrwt beam="1">  1        2 0.55394313E-01 0.73129416E+03</pdfrwt>
<pdfrwt beam="2">  1       -2 0.49256433E-01 0.73129416E+03</pdfrwt>
<totfact> 0.35208060E+02</totfact>
</mgrwt>
</event>
<event>
 4    1  0.2621617E-004  0.4296969E+03  0.7818608E-02  0.1033956E+00
          2   -1    0    0  501    0  0.00000000000E+00  0.00000000000E+00  0.21867750590E+03  0.21867750592E+03  0.25500000000E-02 0.  1.
         -2   -1    0    0    0  501 -0.00000000000E+00 -0.00000000000E+00 -0.21108645702E+03  0.21108645704E+03  0.25500000000E-02 0. -1.
    5000001    1    1    2    0    0  0.14037322834E+03 -0.95326071544E+02  0.39002676210E+02  0.21550385589E+03  0.12700000000E+03 0.  0.
   -5000001    1    1    2    0    0 -0.14037322834E+03  0.95326071544E+02 -0.31411627327E+02  0.21426010707E+03  0.12700000000E+03 0.  0.
<mgrwt>
<rscale>  0 0.42969692E+03</rscale>
<asrwt>0</asrwt>
<pdfrwt beam="1">  1        2 0.31239644E-01 0.42969692E+03</pdfrwt>
<pdfrwt beam="2">  1       -2 0.30155208E-01 0.42969692E+03</pdfrwt>
<totfact> 0.17126794E+03</totfact>
</mgrwt>
</event>
<event>
 4    1  0.2621617E-004  0.4329226E+03  0.7818608E-02  0.1032941E+00
         -2   -1    0    0    0  501 -0.00000000000E+00  0.00000000000E+00  0.22636385162E+03  0.22636385164E+03  0.25500000000E-02 0. -1.
          2   -1    0    0  501    0  0.00000000000E+00 -0.00000000000E+00 -0.20699193040E+03  0.20699193042E+03  0.25500000000E-02 0.  1.
    5000001    1    1    2    0    0  0.10370857526E+03  0.10652938283E+02 -0.13137181942E+03  0.21037230953E+03  0.12700000000E+03 0.  0.
   -5000001    1    1    2    0    0 -0.10370857526E+03 -0.10652938283E+02  0.15074374064E+03  0.22298347253E+03  0.12700000000E+03 0.  0.
<mgrwt>
<rscale>  0 0.43292258E+03</rscale>
<asrwt>0</asrwt>
<pdfrwt beam="1">  1        2 0.29570276E-01 0.43292258E+03</pdfrwt>
<pdfrwt beam="2">  1       -2 0.32337693E-01 0.43292258E+03</pdfrwt>
<totfact> 0.16002753E+03</totfact>
</mgrwt>
</event>
<event>
 4    1  0.2621617E-004  0.5458613E+03  0.7818608E-02  0.1002456E+00
         -2   -1    0    0    0  501 -0.00000000000E+00  0.00000000000E+00  0.26762542323E+03  0.26762542324E+03  0.25500000000E-02 0. -1.
          2   -1    0    0  501    0  0.00000000000E+00 -0.00000000000E+00 -0.27834099529E+03  0.27834099531E+03  0.25500000000E-02 0.  1.
    5000001    1    1    2    0    0 -0.11539632642E+03 -0.21161362379E+03 -0.21654750693E+02  0.27330306649E+03  0.12700000000E+03 0.  0.
   -5000001    1    1    2    0    0  0.11539632642E+03  0.21161362379E+03  0.10939178625E+02  0.27266335206E+03  0.12700000000E+03 0.  0.
<mgrwt>
<rscale>  0 0.54586125E+03</rscale>
<asrwt>0</asrwt>
<pdfrwt beam="1">  1        2 0.39762999E-01 0.54586125E+03</pdfrwt>
<pdfrwt beam="2">  1       -2 0.38232203E-01 0.54586125E+03</pdfrwt>
<totfact> 0.84064765E+02</totfact>
</mgrwt>
</event>
<event>
 4    1  0.2621617E-004  0.1393828E+04  0.7818608E-02  0.8958298E-01
          2   -1    0    0  501    0  0.00000000000E+00  0.00000000000E+00  0.19381691244E+04  0.19381691244E+04  0.25500000000E-02 0.  1.
         -2   -1    0    0    0  501 -0.00000000000E+00 -0.00000000000E+00 -0.25059172698E+03  0.25059172699E+03  0.25500000000E-02 0. -1.
    5000001    1    1    2    0    0 -0.66503617911E+03  0.65274988294E+02  0.10820756686E+04  0.12781043370E+04  0.12700000000E+03 0.  0.
   -5000001    1    1    2    0    0  0.66503617911E+03 -0.65274988294E+02  0.60550172876E+03  0.91065651437E+03  0.12700000000E+03 0.  0.
<mgrwt>
<rscale>  0 0.13938280E+04</rscale>
<asrwt>0</asrwt>
<pdfrwt beam="1">  1        2 0.27688131E+00 0.13938280E+04</pdfrwt>
<pdfrwt beam="2">  1       -2 0.35798817E-01 0.13938280E+04</pdfrwt>
<totfact> 0.61731078E+01</totfact>
</mgrwt>
</event>
<event>
 4    1  0.2621617E-004  0.6973278E+03  0.7818608E-02  0.9721813E-01
         -2   -1    0    0    0  501 -0.00000000000E+00  0.00000000000E+00  0.22232026184E+03  0.22232026185E+03  0.25500000000E-02 0. -1.
          2   -1    0    0  501    0  0.00000000000E+00 -0.00000000000E+00 -0.54680801581E+03  0.54680801581E+03  0.25500000000E-02 0.  1.
    5000001    1    1    2    0    0 -0.13089167809E+03  0.16727534609E+03 -0.43314217251E+03  0.49885349995E+03  0.12700000000E+03 0.  0.
   -5000001    1    1    2    0    0  0.13089167809E+03 -0.16727534609E+03  0.10865441854E+03  0.27027477772E+03  0.12700000000E+03 0.  0.
<mgrwt>
<rscale>  0 0.69732776E+03</rscale>
<asrwt>0</asrwt>
<pdfrwt beam="1">  1        2 0.78115430E-01 0.69732776E+03</pdfrwt>
<pdfrwt beam="2">  1       -2 0.31760038E-01 0.69732776E+03</pdfrwt>
<totfact> 0.56030950E+02</totfact>
</mgrwt>
</event>
<event>
 4    1  0.2621617E-004  0.4227196E+03  0.7818608E-02  0.1036185E+00
          2   -1    0    0  501    0  0.00000000000E+00  0.00000000000E+00  0.13132419525E+03  0.13132419528E+03  0.25500000000E-02 0.  1.
         -2   -1    0    0    0  501 -0.00000000000E+00 -0.00000000000E+00 -0.34017307729E+03  0.34017307730E+03  0.25500000000E-02 0. -1.
    5000001    1    1    2    0    0 -0.12049152376E+03  0.87235476863E+02 -0.19376518065E+03  0.27532195872E+03  0.12700000000E+03 0.  0.
   -5000001    1    1    2    0    0  0.12049152376E+03 -0.87235476863E+02 -0.15083701385E+02  0.19617531386E+03  0.12700000000E+03 0.  0.
<mgrwt>
<rscale>  0 0.42271956E+03</rscale>
<asrwt>0</asrwt>
<pdfrwt beam="1">  1        2 0.18760599E-01 0.42271956E+03</pdfrwt>
<pdfrwt beam="2">  1       -2 0.48596154E-01 0.42271956E+03</pdfrwt>
<totfact> 0.12265480E+03</totfact>
</mgrwt>
</event>
<event>
 4    1  0.2621617E-004  0.2991435E+03  0.7818608E-02  0.1085670E+00
          2   -1    0    0  501    0  0.00000000000E+00  0.00000000000E+00  0.61360962151E+03  0.61360962151E+03  0.25500000000E-02 0.  1.
         -2   -1    0    0    0  501 -0.00000000000E+00 -0.00000000000E+00 -0.36459179647E+02  0.36459179736E+02  0.25500000000E-02 0. -1.
    5000001    1    1    2    0    0  0.71471746550E+02  0.27753156097E+02  0.33004986774E+03  0.36185682724E+03  0.12700000000E+03 0.  0.
   -5000001    1    1    2    0    0 -0.71471746550E+02 -0.27753156097E+02  0.24710057412E+03  0.28821197400E+03  0.12700000000E+03 0.  0.
<mgrwt>
<rscale>  0 0.29914347E+03</rscale>
<asrwt>0</asrwt>
<pdfrwt beam="1">  1        2 0.87658507E-01 0.29914347E+03</pdfrwt>
<pdfrwt beam="2">  1       -2 0.52084549E-02 0.29914347E+03</pdfrwt>
<totfact> 0.98501406E+03</totfact>
</mgrwt>
</event>
<event>
 4    1  0.2621617E-004  0.5073046E+03  0.7818608E-02  0.1011890E+00
          2   -1    0    0  501    0  0.00000000000E+00  0.00000000000E+00  0.86101283256E+03  0.86101283256E+03  0.25500000000E-02 0.  1.
         -2   -1    0    0    0  501 -0.00000000000E+00 -0.00000000000E+00 -0.74725352208E+02  0.74725352252E+02  0.25500000000E-02 0. -1.
    5000001    1    1    2    0    0  0.17646158700E+03  0.12781931138E+03  0.44311718090E+03  0.50986106348E+03  0.12700000000E+03 0.  0.
   -5000001    1    1    2    0    0 -0.17646158700E+03 -0.12781931138E+03  0.34317029945E+03  0.42587712133E+03  0.12700000000E+03 0.  0.
<mgrwt>
<rscale>  0 0.50730459E+03</rscale>
<asrwt>0</asrwt>
<pdfrwt beam="1">  1        2 0.12300184E+00 0.50730459E+03</pdfrwt>
<pdfrwt beam="2">  1       -2 0.10675050E-01 0.50730459E+03</pdfrwt>
<totfact> 0.21291360E+03</totfact>
</mgrwt>
</event>
<event>
 4    1  0.2621617E-004  0.3559765E+03  0.7818608E-02  0.1060188E+00
         -2   -1    0    0    0  501 -0.00000000000E+00  0.00000000000E+00  0.25296428911E+03  0.25296428912E+03  0.25500000000E-02 0. -1.
          2   -1    0    0  501    0  0.00000000000E+00 -0.00000000000E+00 -0.12523437523E+03  0.12523437525E+03  0.25500000000E-02 0.  1.
    5000001    1    1    2    0    0 -0.49709264136E+02 -0.94128505056E+02  0.13287880179E+03  0.21240753840E+03  0.12700000000E+03 0.  0.
   -5000001    1    1    2    0    0  0.49709264136E+02  0.94128505056E+02 -0.51488879079E+01  0.16579112597E+03  0.12700000000E+03 0.  0.
<mgrwt>
<rscale>  0 0.35597654E+03</rscale>
<asrwt>0</asrwt>
<pdfrwt beam="1">  1        2 0.17890625E-01 0.35597654E+03</pdfrwt>
<pdfrwt beam="2">  1       -2 0.36137755E-01 0.35597654E+03</pdfrwt>
<totfact> 0.22992647E+03</totfact>
</mgrwt>
</event>
<event>
 4    1  0.2621617E-004  0.7031888E+03  0.7818608E-02  0.9711794E-01
          2   -1    0    0  501    0  0.00000000000E+00  0.00000000000E+00  0.77547155795E+03  0.77547155795E+03  0.25500000000E-02 0.  1.
         -2   -1    0    0    0  501 -0.00000000000E+00 -0.00000000000E+00 -0.15941090797E+03  0.15941090799E+03  0.25500000000E-02 0. -1.
    5000001    1    1    2    0    0  0.11962819796E+03 -0.97193637402E+02  0.69273821921E+03  0.72095266783E+03  0.12700000000E+03 0.  0.
   -5000001    1    1    2    0    0 -0.11962819796E+03  0.97193637402E+02 -0.76677569232E+02  0.21392979811E+03  0.12700000000E+03 0.  0.
<mgrwt>
<rscale>  0 0.70318881E+03</rscale>
<asrwt>0</asrwt>
<pdfrwt beam="1">  1        2 0.11078165E+00 0.70318881E+03</pdfrwt>
<pdfrwt beam="2">  1       -2 0.22772987E-01 0.70318881E+03</pdfrwt>
<totfact> 0.67307331E+02</totfact>
</mgrwt>
</event>
<event>
 4    1  0.2621617E-004  0.3121755E+03  0.7818608E-02  0.1079308E+00
         -2   -1    0    0    0  501 -0.00000000000E+00  0.00000000000E+00  0.99286398958E+01  0.99286402233E+01  0.25500000000E-02 0. -1.
          2   -1    0    0  501    0  0.00000000000E+00 -0.00000000000E+00 -0.24538488919E+04  0.24538488919E+04  0.25500000000E-02 0.  1.
    5000001    1    1    2    0    0 -0.90601547956E+02  0.39611125301E+01 -0.11969383413E+04  0.12070686491E+04  0.12700000000E+03 0.  0.
   -5000001    1    1    2    0    0  0.90601547956E+02 -0.39611125301E+01 -0.12469819107E+04  0.12567088829E+04  0.12700000000E+03 0.  0.
<mgrwt>
<rscale>  0 0.31217548E+03</rscale>
<asrwt>0</asrwt>
<pdfrwt beam="1">  1        2 0.35054946E+00 0.31217548E+03</pdfrwt>
<pdfrwt beam="2">  1       -2 0.14183787E-02 0.31217548E+03</pdfrwt>
<totfact> 0.67718969E+03</totfact>
</mgrwt>
</event>
<event>
 4    1  0.2621617E-004  0.3637831E+03  0.7818608E-02  0.1057096E+00
          2   -1    0    0  501    0  0.00000000000E+00  0.00000000000E+00  0.15100040176E+02  0.15100040391E+02  0.25500000000E-02 0.  1.
         -2   -1    0    0    0  501 -0.00000000000E+00 -0.00000000000E+00 -0.21910235128E+04  0.21910235128E+04  0.25500000000E-02 0. -1.
    5000001    1    1    2    0    0 -0.85716924994E+02 -0.95349144986E+02 -0.12258106654E+04  0.12390236632E+04  0.12700000000E+03 0.  0.
   -5000001    1    1    2    0    0  0.85716924994E+02  0.95349144986E+02 -0.95011280727E+03  0.96709988999E+03  0.12700000000E+03 0.  0.
<mgrwt>
<rscale>  0 0.36378314E+03</rscale>
<asrwt>0</asrwt>
<pdfrwt beam="1">  1        2 0.21571500E-02 0.36378314E+03</pdfrwt>
<pdfrwt beam="2">  1       -2 0.31300316E+00 0.36378314E+03</pdfrwt>
<totfact> 0.15049509E+02</totfact>
</mgrwt>
</event>
<event>
 4    1  0.2621617E-004  0.4331588E+03  0.7818608E-02  0.1032867E+00
          2   -1    0    0  501    0  0.00000000000E+00  0.00000000000E+00  0.38039094707E+04  0.38039094707E+04  0.25500000000E-02 0.  1.
         -2   -1    0    0    0  501 -0.00000000000E+00 -0.00000000000E+00 -0.12331164044E+02  0.12331164308E+02  0.25500000000E-02 0. -1.
    5000001    1    1    2    0    0  0.78426153911E+02  0.92970954053E+02  0.78194908402E+03  0.80147840265E+03  0.12700000000E+03 0.  0.
   -5000001    1    1    2    0    0 -0.78426153911E+02 -0.92970954053E+02  0.30096292226E+04  0.30147622323E+04  0.12700000000E+03 0.  0.
<mgrwt>
<rscale>  0 0.43315878E+03</rscale>
<asrwt>0</asrwt>
<pdfrwt beam="1">  1        2 0.54341612E+00 0.43315878E+03</pdfrwt>
<pdfrwt beam="2">  1       -2 0.17615933E-02 0.43315878E+03</pdfrwt>
<totfact> 0.87426627E+02</totfact>
</mgrwt>
</event>
<event>
 4    1  0.2621617E-004  0.4169262E+03  0.7818608E-02  0.1038071E+00
         -2   -1    0    0    0  501 -0.00000000000E+00  0.00000000000E+00  0.24502861508E+03  0.24502861509E+03  0.25500000000E-02 0. -1.
          2   -1    0    0  501    0  0.00000000000E+00 -0.00000000000E+00 -0.17735421311E+03  0.17735421313E+03  0.25500000000E-02 0.  1.
    5000001    1    1    2    0    0  0.70653564936E+01 -0.12598677187E+03  0.14203038711E+03  0.22852618408E+03  0.12700000000E+03 0.  0.
   -5000001    1    1    2    0    0 -0.70653564936E+01  0.12598677187E+03 -0.74355985147E+02  0.19385664414E+03  0.12700000000E+03 0.  0.
<mgrwt>
<rscale>  0 0.41692617E+03</rscale>
<asrwt>0</asrwt>
<pdfrwt beam="1">  1        2 0.25336316E-01 0.41692617E+03</pdfrwt>
<pdfrwt beam="2">  1       -2 0.35004088E-01 0.41692617E+03</pdfrwt>
<totfact> 0.16407287E+03</totfact>
</mgrwt>
</event>
<event>
 4    1  0.2621617E-004  0.3062956E+03  0.7818608E-02  0.1082135E+00
         -2   -1    0    0    0  501 -0.00000000000E+00  0.00000000000E+00  0.65069282572E+02  0.65069282622E+02  0.25500000000E-02 0. -1.
          2   -1    0    0  501    0  0.00000000000E+00 -0.00000000000E+00 -0.36045034530E+03  0.36045034531E+03  0.25500000000E-02 0.  1.
    5000001    1    1    2    0    0  0.79246455054E+02  0.21511684385E+02 -0.11416127516E+03  0.18948495970E+03  0.12700000000E+03 0.  0.
   -5000001    1    1    2    0    0 -0.79246455054E+02 -0.21511684385E+02 -0.18121978756E+03  0.23603466823E+03  0.12700000000E+03 0.  0.
<mgrwt>
<rscale>  0 0.30629558E+03</rscale>
<asrwt>0</asrwt>
<pdfrwt beam="1">  1        2 0.51492905E-01 0.30629558E+03</pdfrwt>
<pdfrwt beam="2">  1       -2 0.92956120E-02 0.30629558E+03</pdfrwt>
<totfact> 0.72232864E+03</totfact>
</mgrwt>
</event>
<event>
 4    1  0.2621617E-004  0.4534981E+03  0.7818608E-02  0.1026684E+00
         -2   -1    0    0    0  501 -0.00000000000E+00  0.00000000000E+00  0.21980159768E+03  0.21980159770E+03  0.25500000000E-02 0.  1.
          2   -1    0    0  501    0  0.00000000000E+00 -0.00000000000E+00 -0.23391610873E+03  0.23391610874E+03  0.25500000000E-02 0. -1.
    5000001    1    1    2    0    0  0.17448759370E+03  0.45200501843E+02 -0.59970753138E+02  0.22850491670E+03  0.12700000000E+03 0.  0.
   -5000001    1    1    2    0    0 -0.17448759370E+03 -0.45200501843E+02  0.45856242093E+02  0.22521278974E+03  0.12700000000E+03 0.  0.
<mgrwt>
<rscale>  0 0.45349811E+03</rscale>
<asrwt>0</asrwt>
<pdfrwt beam="1">  1        2 0.33416587E-01 0.45349811E+03</pdfrwt>
<pdfrwt beam="2">  1       -2 0.31400228E-01 0.45349811E+03</pdfrwt>
<totfact> 0.14759424E+03</totfact>
</mgrwt>
</event>
<event>
 4    1  0.2621617E-004  0.5061671E+03  0.7818608E-02  0.1012182E+00
         -2   -1    0    0    0  501 -0.00000000000E+00  0.00000000000E+00  0.38339282737E+03  0.38339282737E+03  0.25500000000E-02 0. -1.
          2   -1    0    0  501    0  0.00000000000E+00 -0.00000000000E+00 -0.16706439080E+03  0.16706439082E+03  0.25500000000E-02 0.  1.
    5000001    1    1    2    0    0 -0.16448764506E+03 -0.14441490791E+03  0.10465070805E+03  0.27384780755E+03  0.12700000000E+03 0.  0.
   -5000001    1    1    2    0    0  0.16448764506E+03  0.14441490791E+03  0.11167772852E+03  0.27660941064E+03  0.12700000000E+03 0.  0.
<mgrwt>
<rscale>  0 0.50616712E+03</rscale>
<asrwt>0</asrwt>
<pdfrwt beam="1">  1        2 0.23866342E-01 0.50616712E+03</pdfrwt>
<pdfrwt beam="2">  1       -2 0.54770404E-01 0.50616712E+03</pdfrwt>
<totfact> 0.72895847E+02</totfact>
</mgrwt>
</event>
<event>
 4    1  0.2621617E-004  0.3480029E+03  0.7818608E-02  0.1063438E+00
         -2   -1    0    0    0  501 -0.00000000000E+00  0.00000000000E+00  0.73586303072E+02  0.73586303116E+02  0.25500000000E-02 0. -1.
          2   -1    0    0  501    0  0.00000000000E+00 -0.00000000000E+00 -0.41144206429E+03  0.41144206430E+03  0.25500000000E-02 0.  1.
    5000001    1    1    2    0    0  0.70693245013E+02  0.47213472649E+02 -0.28487611408E+03  0.32328013744E+03  0.12700000000E+03 0.  0.
   -5000001    1    1    2    0    0 -0.70693245013E+02 -0.47213472649E+02 -0.52979647144E+02  0.16174822998E+03  0.12700000000E+03 0.  0.
<mgrwt>
<rscale>  0 0.34800288E+03</rscale>
<asrwt>0</asrwt>
<pdfrwt beam="1">  1        2 0.58777437E-01 0.34800288E+03</pdfrwt>
<pdfrwt beam="2">  1       -2 0.10512329E-01 0.34800288E+03</pdfrwt>
<totfact> 0.51612892E+03</totfact>
</mgrwt>
</event>
<event>
 4    1  0.2621617E-004  0.5336202E+03  0.7818608E-02  0.1005358E+00
         -2   -1    0    0    0  501 -0.00000000000E+00  0.00000000000E+00  0.46787015991E+02  0.46787016060E+02  0.25500000000E-02 0.  1.
          2   -1    0    0  501    0  0.00000000000E+00 -0.00000000000E+00 -0.15215254326E+04  0.15215254326E+04  0.25500000000E-02 0. -1.
    5000001    1    1    2    0    0  0.20729266590E+03  0.77886442446E+02 -0.50929622436E+03  0.56969131238E+03  0.12700000000E+03 0.  0.
   -5000001    1    1    2    0    0 -0.20729266590E+03 -0.77886442446E+02 -0.96544219224E+03  0.99862113628E+03  0.12700000000E+03 0.  0.
<mgrwt>
<rscale>  0 0.53362022E+03</rscale>
<asrwt>0</asrwt>
<pdfrwt beam="1">  1        2 0.21736075E+00 0.53362022E+03</pdfrwt>
<pdfrwt beam="2">  1       -2 0.66838603E-02 0.53362022E+03</pdfrwt>
<totfact> 0.18928586E+03</totfact>
</mgrwt>
</event>
<event>
 4    1  0.2621617E-004  0.3694077E+03  0.7818608E-02  0.1054920E+00
          2   -1    0    0  501    0  0.00000000000E+00  0.00000000000E+00  0.14848139372E+04  0.14848139372E+04  0.25500000000E-02 0.  1.
         -2   -1    0    0    0  501 -0.00000000000E+00 -0.00000000000E+00 -0.22976288696E+02  0.22976288838E+02  0.25500000000E-02 0. -1.
    5000001    1    1    2    0    0  0.77173065554E+02  0.31211055400E+02  0.30173062962E+03  0.33778718874E+03  0.12700000000E+03 0.  0.
   -5000001    1    1    2    0    0 -0.77173065554E+02 -0.31211055400E+02  0.11601070188E+04  0.11700030373E+04  0.12700000000E+03 0.  0.
<mgrwt>
<rscale>  0 0.36940771E+03</rscale>
<asrwt>0</asrwt>
<pdfrwt beam="1">  1        2 0.21211637E+00 0.36940771E+03</pdfrwt>
<pdfrwt beam="2">  1       -2 0.32823256E-02 0.36940771E+03</pdfrwt>
<totfact> 0.59019662E+03</totfact>
</mgrwt>
</event>
<event>
 4    1  0.2621617E-004  0.4188270E+03  0.7818608E-02  0.1037449E+00
          2   -1    0    0  501    0  0.00000000000E+00  0.00000000000E+00  0.18685669739E+04  0.18685669739E+04  0.25500000000E-02 0.  1.
         -2   -1    0    0    0  501 -0.00000000000E+00 -0.00000000000E+00 -0.23469327053E+02  0.23469327191E+02  0.25500000000E-02 0. -1.
    5000001    1    1    2    0    0  0.15047022827E+03  0.71265793164E+02  0.93255548683E+03  0.95577656326E+03  0.12700000000E+03 0.  0.
   -5000001    1    1    2    0    0 -0.15047022827E+03 -0.71265793164E+02  0.91254216004E+03  0.93625973785E+03  0.12700000000E+03 0.  0.
<mgrwt>
<rscale>  0 0.41882698E+03</rscale>
<asrwt>0</asrwt>
<pdfrwt beam="1">  1        2 0.26693818E+00 0.41882698E+03</pdfrwt>
<pdfrwt beam="2">  1       -2 0.33527605E-02 0.41882698E+03</pdfrwt>
<totfact> 0.36666163E+03</totfact>
</mgrwt>
</event>
<event>
 4    1  0.2621617E-004  0.7148974E+03  0.7818608E-02  0.9692089E-01
         -2   -1    0    0    0  501 -0.00000000000E+00  0.00000000000E+00  0.85219648289E+02  0.85219648327E+02  0.25500000000E-02 0. -1.
          2   -1    0    0  501    0  0.00000000000E+00 -0.00000000000E+00 -0.14992970940E+04  0.14992970940E+04  0.25500000000E-02 0.  1.
    5000001    1    1    2    0    0 -0.14942545891E+03 -0.16808148740E+03 -0.15934741833E+03  0.30347974216E+03  0.12700000000E+03 0.  0.
   -5000001    1    1    2    0    0  0.14942545891E+03  0.16808148740E+03 -0.12547300274E+04  0.12810370002E+04  0.12700000000E+03 0.  0.
<mgrwt>
<rscale>  0 0.71489739E+03</rscale>
<asrwt>0</asrwt>
<pdfrwt beam="1">  1        2 0.21418528E+00 0.71489739E+03</pdfrwt>
<pdfrwt beam="2">  1       -2 0.12174236E-01 0.71489739E+03</pdfrwt>
<totfact> 0.73513557E+02</totfact>
</mgrwt>
</event>
<event>
 4    1  0.2621617E-004  0.4085679E+03  0.7818608E-02  0.1040853E+00
         -2   -1    0    0    0  501 -0.00000000000E+00  0.00000000000E+00  0.45628728613E+02  0.45628728684E+02  0.25500000000E-02 0. -1.
          2   -1    0    0  501    0  0.00000000000E+00 -0.00000000000E+00 -0.91459773518E+03  0.91459773518E+03  0.25500000000E-02 0.  1.
    5000001    1    1    2    0    0  0.31556335066E+01 -0.15860284474E+03 -0.38529167892E+03  0.43559556727E+03  0.12700000000E+03 0.  0.
   -5000001    1    1    2    0    0 -0.31556335066E+01  0.15860284474E+03 -0.48367732765E+03  0.52463089660E+03  0.12700000000E+03 0.  0.
<mgrwt>
<rscale>  0 0.40856790E+03</rscale>
<asrwt>0</asrwt>
<pdfrwt beam="1">  1        2 0.13065681E+00 0.40856790E+03</pdfrwt>
<pdfrwt beam="2">  1       -2 0.65183904E-02 0.40856790E+03</pdfrwt>
<totfact> 0.43007147E+03</totfact>
</mgrwt>
</event>
<event>
 4    1  0.2621617E-004  0.4047338E+03  0.7818608E-02  0.1042153E+00
          2   -1    0    0  501    0  0.00000000000E+00  0.00000000000E+00  0.21954936593E+03  0.21954936595E+03  0.25500000000E-02 0.  1.
         -2   -1    0    0    0  501 -0.00000000000E+00 -0.00000000000E+00 -0.18652918752E+03  0.18652918754E+03  0.25500000000E-02 0. -1.
    5000001    1    1    2    0    0 -0.12775112799E+03 -0.32886515736E+02 -0.69924217780E+02  0.19601089218E+03  0.12700000000E+03 0.  0.
   -5000001    1    1    2    0    0  0.12775112799E+03  0.32886515736E+02  0.10294439619E+03  0.21006766131E+03  0.12700000000E+03 0.  0.
<mgrwt>
<rscale>  0 0.40473381E+03</rscale>
<asrwt>0</asrwt>
<pdfrwt beam="1">  1        2 0.31364195E-01 0.40473381E+03</pdfrwt>
<pdfrwt beam="2">  1       -2 0.26647027E-01 0.40473381E+03</pdfrwt>
<totfact> 0.21332222E+03</totfact>
</mgrwt>
</event>
<event>
 4    1  0.2621617E-004  0.3427570E+03  0.7818608E-02  0.1065628E+00
         -2   -1    0    0    0  501 -0.00000000000E+00  0.00000000000E+00  0.22470208830E+02  0.22470208975E+02  0.25500000000E-02 0. -1.
          2   -1    0    0  501    0  0.00000000000E+00 -0.00000000000E+00 -0.13070899877E+04  0.13070899877E+04  0.25500000000E-02 0.  1.
    5000001    1    1    2    0    0  0.55654847047E+02  0.52228825292E+02 -0.97636226246E+03  0.98754117876E+03  0.12700000000E+03 0.  0.
   -5000001    1    1    2    0    0 -0.55654847047E+02 -0.52228825292E+02 -0.30825751637E+03  0.34201901788E+03  0.12700000000E+03 0.  0.
<mgrwt>
<rscale>  0 0.34275697E+03</rscale>
<asrwt>0</asrwt>
<pdfrwt beam="1">  1        2 0.18672709E+00 0.34275697E+03</pdfrwt>
<pdfrwt beam="2">  1       -2 0.32100307E-02 0.34275697E+03</pdfrwt>
<totfact> 0.75458092E+03</totfact>
</mgrwt>
</event>
<event>
 4    1  0.2621617E-004  0.3558633E+03  0.7818608E-02  0.1060234E+00
         -2   -1    0    0    0  501 -0.00000000000E+00  0.00000000000E+00  0.13032919792E+02  0.13032920042E+02  0.25500000000E-02 0. -1.
          2   -1    0    0  501    0  0.00000000000E+00 -0.00000000000E+00 -0.24292080768E+04  0.24292080768E+04  0.25500000000E-02 0.  1.
    5000001    1    1    2    0    0 -0.12421498377E+03 -0.15061538274E+01 -0.11397879109E+04  0.11535497876E+04  0.12700000000E+03 0.  0.
   -5000001    1    1    2    0    0  0.12421498377E+03  0.15061538274E+01 -0.12763872461E+04  0.12886912092E+04  0.12700000000E+03 0.  0.
<mgrwt>
<rscale>  0 0.35586331E+03</rscale>
<asrwt>0</asrwt>
<pdfrwt beam="1">  1        2 0.34702944E+00 0.35586331E+03</pdfrwt>
<pdfrwt beam="2">  1       -2 0.18618473E-02 0.35586331E+03</pdfrwt>
<totfact> 0.46627077E+03</totfact>
</mgrwt>
</event>
<event>
 4    1  0.2621617E-004  0.5027332E+03  0.7818608E-02  0.1013068E+00
          2   -1    0    0  501    0  0.00000000000E+00  0.00000000000E+00  0.10639665875E+04  0.10639665875E+04  0.25500000000E-02 0.  1.
         -2   -1    0    0    0  501 -0.00000000000E+00 -0.00000000000E+00 -0.59386418065E+02  0.59386418119E+02  0.25500000000E-02 0. -1.
    5000001    1    1    2    0    0  0.65787027673E+01 -0.15393211733E+03  0.16107959426E+03  0.25654241708E+03  0.12700000000E+03 0.  0.
   -5000001    1    1    2    0    0 -0.65787027673E+01  0.15393211733E+03  0.84350057516E+03  0.86681058852E+03  0.12700000000E+03 0.  0.
<mgrwt>
<rscale>  0 0.50273319E+03</rscale>
<asrwt>0</asrwt>
<pdfrwt beam="1">  1        2 0.15199522E+00 0.50273319E+03</pdfrwt>
<pdfrwt beam="2">  1       -2 0.84837743E-02 0.50273319E+03</pdfrwt>
<totfact> 0.23065766E+03</totfact>
</mgrwt>
</event>
<event>
 4    1  0.2621617E-004  0.6212492E+03  0.7818608E-02  0.9862276E-01
         -2   -1    0    0    0  501 -0.00000000000E+00  0.00000000000E+00  0.71622764156E+02  0.71622764201E+02  0.25500000000E-02 0.  1.
          2   -1    0    0  501    0  0.00000000000E+00 -0.00000000000E+00 -0.13471644823E+04  0.13471644823E+04  0.25500000000E-02 0. -1.
    5000001    1    1    2    0    0  0.27249109249E+03  0.48293566006E+02 -0.77808736384E+03  0.83554330215E+03  0.12700000000E+03 0.  0.
   -5000001    1    1    2    0    0 -0.27249109249E+03 -0.48293566006E+02 -0.49745435426E+03  0.58324394431E+03  0.12700000000E+03 0.  0.
<mgrwt>
<rscale>  0 0.62124921E+03</rscale>
<asrwt>0</asrwt>
<pdfrwt beam="1">  1        2 0.19245205E+00 0.62124921E+03</pdfrwt>
<pdfrwt beam="2">  1       -2 0.10231824E-01 0.62124921E+03</pdfrwt>
<totfact> 0.11817087E+03</totfact>
</mgrwt>
</event>
<event>
 4    1  0.2621617E-004  0.5454723E+03  0.7818608E-02  0.1002547E+00
          2   -1    0    0  501    0  0.00000000000E+00  0.00000000000E+00  0.62994458575E+03  0.62994458575E+03  0.25500000000E-02 0.  1.
         -2   -1    0    0    0  501 -0.00000000000E+00 -0.00000000000E+00 -0.11808183472E+03  0.11808183475E+03  0.25500000000E-02 0. -1.
    5000001    1    1    2    0    0 -0.14840870351E+03  0.18008851318E+03  0.17140764148E+03  0.31617494432E+03  0.12700000000E+03 0.  0.
   -5000001    1    1    2    0    0  0.14840870351E+03 -0.18008851318E+03  0.34045510956E+03  0.43185147618E+03  0.12700000000E+03 0.  0.
<mgrwt>
<rscale>  0 0.54547232E+03</rscale>
<asrwt>0</asrwt>
<pdfrwt beam="1">  1        2 0.89992083E-01 0.54547232E+03</pdfrwt>
<pdfrwt beam="2">  1       -2 0.16868834E-01 0.54547232E+03</pdfrwt>
<totfact> 0.14671734E+03</totfact>
</mgrwt>
</event>
<event>
 4    1  0.2621617E-004  0.4404526E+03  0.7818608E-02  0.1030608E+00
         -2   -1    0    0    0  501 -0.00000000000E+00  0.00000000000E+00  0.37305896258E+02  0.37305896345E+02  0.25500000000E-02 0. -1.
          2   -1    0    0  501    0  0.00000000000E+00 -0.00000000000E+00 -0.13000526386E+04  0.13000526386E+04  0.25500000000E-02 0.  1.
    5000001    1    1    2    0    0 -0.10800240824E+03  0.23499154801E+02 -0.20032284133E+03  0.26167722718E+03  0.12700000000E+03 0.  0.
   -5000001    1    1    2    0    0  0.10800240824E+03 -0.23499154801E+02 -0.10624239010E+04  0.10756813078E+04  0.12700000000E+03 0.  0.
<mgrwt>
<rscale>  0 0.44045263E+03</rscale>
<asrwt>0</asrwt>
<pdfrwt beam="1">  1        2 0.18572178E+00 0.44045263E+03</pdfrwt>
<pdfrwt beam="2">  1       -2 0.53294146E-02 0.44045263E+03</pdfrwt>
<totfact> 0.35269622E+03</totfact>
</mgrwt>
</event>
<event>
 4    1  0.2621617E-004  0.3868775E+03  0.7818608E-02  0.1048421E+00
          2   -1    0    0  501    0  0.00000000000E+00  0.00000000000E+00  0.15874170811E+02  0.15874171016E+02  0.25500000000E-02 0.  1.
         -2   -1    0    0    0  501 -0.00000000000E+00 -0.00000000000E+00 -0.23571966944E+04  0.23571966944E+04  0.25500000000E-02 0. -1.
    5000001    1    1    2    0    0 -0.12406285339E+03  0.72984132739E+02 -0.10240534143E+04  0.10418889914E+04  0.12700000000E+03 0.  0.
   -5000001    1    1    2    0    0  0.12406285339E+03 -0.72984132739E+02 -0.13172691094E+04  0.13311818740E+04  0.12700000000E+03 0.  0.
<mgrwt>
<rscale>  0 0.38687746E+03</rscale>
<asrwt>0</asrwt>
<pdfrwt beam="1">  1        2 0.22677402E-02 0.38687746E+03</pdfrwt>
<pdfrwt beam="2">  1       -2 0.33674216E+00 0.38687746E+03</pdfrwt>
<totfact> 0.10100362E+02</totfact>
</mgrwt>
</event>
<event>
 4    1  0.2621617E-004  0.3048258E+03  0.7818608E-02  0.1082853E+00
         -2   -1    0    0    0  501 -0.00000000000E+00  0.00000000000E+00  0.27861924808E+02  0.27861924925E+02  0.25500000000E-02 0. -1.
          2   -1    0    0  501    0  0.00000000000E+00 -0.00000000000E+00 -0.83374301209E+03  0.83374301209E+03  0.25500000000E-02 0.  1.
    5000001    1    1    2    0    0 -0.76427499580E+02  0.30576049480E+02 -0.45386768378E+03  0.47843592243E+03  0.12700000000E+03 0.  0.
   -5000001    1    1    2    0    0  0.76427499580E+02 -0.30576049480E+02 -0.35201340350E+03  0.38316901458E+03  0.12700000000E+03 0.  0.
<mgrwt>
<rscale>  0 0.30482575E+03</rscale>
<asrwt>0</asrwt>
<pdfrwt beam="1">  1        2 0.11910613E+00 0.30482575E+03</pdfrwt>
<pdfrwt beam="2">  1       -2 0.39802755E-02 0.30482575E+03</pdfrwt>
<totfact> 0.10254781E+04</totfact>
</mgrwt>
</event>
<event>
 4    1  0.2621617E-004  0.4664681E+03  0.7818608E-02  0.1022922E+00
         -2   -1    0    0    0  501 -0.00000000000E+00  0.00000000000E+00  0.16313302921E+02  0.16313303120E+02  0.25500000000E-02 0. -1.
          2   -1    0    0  501    0  0.00000000000E+00 -0.00000000000E+00 -0.33345873349E+04  0.33345873349E+04  0.25500000000E-02 0.  1.
    5000001    1    1    2    0    0  0.19540643621E+03  0.17621435957E+01 -0.15939471999E+04  0.16108952345E+04  0.12700000000E+03 0.  0.
   -5000001    1    1    2    0    0 -0.19540643621E+03 -0.17621435957E+01 -0.17243268320E+04  0.17400054035E+04  0.12700000000E+03 0.  0.
<mgrwt>
<rscale>  0 0.46646815E+03</rscale>
<asrwt>0</asrwt>
<pdfrwt beam="1">  1        2 0.47636918E+00 0.46646815E+03</pdfrwt>
<pdfrwt beam="2">  1       -2 0.23304740E-02 0.46646815E+03</pdfrwt>
<totfact> 0.10942522E+03</totfact>
</mgrwt>
</event>
<event>
 4    1  0.2621617E-004  0.9431150E+03  0.7818608E-02  0.9373234E-01
          2   -1    0    0  501    0  0.00000000000E+00  0.00000000000E+00  0.16112123676E+04  0.16112123676E+04  0.25500000000E-02 0.  1.
         -2   -1    0    0    0  501 -0.00000000000E+00 -0.00000000000E+00 -0.13801189879E+03  0.13801189881E+03  0.25500000000E-02 0. -1.
    5000001    1    1    2    0    0  0.29227433819E+03  0.33375719441E+03  0.55659268408E+03  0.72300938414E+03  0.12700000000E+03 0.  0.
   -5000001    1    1    2    0    0 -0.29227433819E+03 -0.33375719441E+03  0.91660778475E+03  0.10262148823E+04  0.12700000000E+03 0.  0.
<mgrwt>
<rscale>  0 0.94311501E+03</rscale>
<asrwt>0</asrwt>
<pdfrwt beam="1">  1        2 0.23017321E+00 0.94311501E+03</pdfrwt>
<pdfrwt beam="2">  1       -2 0.19715985E-01 0.94311501E+03</pdfrwt>
<totfact> 0.27964523E+02</totfact>
</mgrwt>
</event>
<event>
 4    1  0.2621617E-004  0.4397796E+03  0.7818608E-02  0.1030814E+00
          2   -1    0    0  501    0  0.00000000000E+00  0.00000000000E+00  0.14838643549E+04  0.14838643549E+04  0.25500000000E-02 0.  1.
         -2   -1    0    0    0  501 -0.00000000000E+00 -0.00000000000E+00 -0.32584870669E+02  0.32584870769E+02  0.25500000000E-02 0. -1.
    5000001    1    1    2    0    0 -0.93103393751E+02 -0.14059507695E+03  0.51343346012E+03  0.55513794282E+03  0.12700000000E+03 0.  0.
   -5000001    1    1    2    0    0  0.93103393751E+02  0.14059507695E+03  0.93784602409E+03  0.96131128283E+03  0.12700000000E+03 0.  0.
<mgrwt>
<rscale>  0 0.43977962E+03</rscale>
<asrwt>0</asrwt>
<pdfrwt beam="1">  1        2 0.21198066E+00 0.43977962E+03</pdfrwt>
<pdfrwt beam="2">  1       -2 0.46549808E-02 0.43977962E+03</pdfrwt>
<totfact> 0.34766832E+03</totfact>
</mgrwt>
</event>
<event>
 4    1  0.2621617E-004  0.3955649E+03  0.7818608E-02  0.1045326E+00
         -2   -1    0    0    0  501 -0.00000000000E+00  0.00000000000E+00  0.39281809188E+02  0.39281809270E+02  0.25500000000E-02 0. -1.
          2   -1    0    0  501    0  0.00000000000E+00 -0.00000000000E+00 -0.99582739021E+03  0.99582739021E+03  0.25500000000E-02 0.  1.
    5000001    1    1    2    0    0  0.23497203933E+02  0.13636931481E+03 -0.31611234781E+03  0.36770195138E+03  0.12700000000E+03 0.  0.
   -5000001    1    1    2    0    0 -0.23497203933E+02 -0.13636931481E+03 -0.64043323322E+03  0.66740724810E+03  0.12700000000E+03 0.  0.
<mgrwt>
<rscale>  0 0.39556492E+03</rscale>
<asrwt>0</asrwt>
<pdfrwt beam="1">  1        2 0.14226104E+00 0.39556492E+03</pdfrwt>
<pdfrwt beam="2">  1       -2 0.56116876E-02 0.39556492E+03</pdfrwt>
<totfact> 0.48338894E+03</totfact>
</mgrwt>
</event>
<event>
 4    1  0.2621617E-004  0.3497877E+03  0.7818608E-02  0.1062702E+00
         -2   -1    0    0    0  501 -0.00000000000E+00  0.00000000000E+00  0.63554067366E+02  0.63554067417E+02  0.25500000000E-02 0. -1.
          2   -1    0    0  501    0  0.00000000000E+00 -0.00000000000E+00 -0.48128875534E+03  0.48128875535E+03  0.25500000000E-02 0.  1.
    5000001    1    1    2    0    0 -0.63853344188E+02 -0.10147884035E+03 -0.19462083404E+03  0.26149851557E+03  0.12700000000E+03 0.  0.
   -5000001    1    1    2    0    0  0.63853344188E+02  0.10147884035E+03 -0.22311385394E+03  0.28334430720E+03  0.12700000000E+03 0.  0.
<mgrwt>
<rscale>  0 0.34978770E+03</rscale>
<asrwt>0</asrwt>
<pdfrwt beam="1">  1        2 0.68755535E-01 0.34978770E+03</pdfrwt>
<pdfrwt beam="2">  1       -2 0.90791527E-02 0.34978770E+03</pdfrwt>
<totfact> 0.54887505E+03</totfact>
</mgrwt>
</event>
<event>
 4    1  0.2621617E-004  0.4458948E+03  0.7818608E-02  0.1028953E+00
          2   -1    0    0  501    0  0.00000000000E+00  0.00000000000E+00  0.30351584901E+03  0.30351584902E+03  0.25500000000E-02 0.  1.
         -2   -1    0    0    0  501 -0.00000000000E+00 -0.00000000000E+00 -0.16376589706E+03  0.16376589708E+03  0.25500000000E-02 0. -1.
    5000001    1    1    2    0    0 -0.58063998620E+02 -0.16284337818E+03  0.13350936704E+03  0.25267201040E+03  0.12700000000E+03 0.  0.
   -5000001    1    1    2    0    0  0.58063998620E+02  0.16284337818E+03  0.62405849111E+01  0.21460973569E+03  0.12700000000E+03 0.  0.
<mgrwt>
<rscale>  0 0.44589481E+03</rscale>
<asrwt>0</asrwt>
<pdfrwt beam="1">  1        2 0.43359407E-01 0.44589481E+03</pdfrwt>
<pdfrwt beam="2">  1       -2 0.23395128E-01 0.44589481E+03</pdfrwt>
<totfact> 0.18865174E+03</totfact>
</mgrwt>
</event>
<event>
 4    1  0.2621617E-004  0.3882747E+03  0.7818608E-02  0.1047917E+00
          2   -1    0    0  501    0  0.00000000000E+00  0.00000000000E+00  0.12538863782E+04  0.12538863782E+04  0.25500000000E-02 0.  1.
         -2   -1    0    0    0  501 -0.00000000000E+00 -0.00000000000E+00 -0.30057995836E+02  0.30057995944E+02  0.25500000000E-02 0. -1.
    5000001    1    1    2    0    0 -0.37456887409E+02  0.38796968632E+02  0.10635317753E+04  0.10724444322E+04  0.12700000000E+03 0.  0.
   -5000001    1    1    2    0    0  0.37456887409E+02 -0.38796968632E+02  0.16029660710E+03  0.21149994193E+03  0.12700000000E+03 0.  0.
<mgrwt>
<rscale>  0 0.38827470E+03</rscale>
<asrwt>0</asrwt>
<pdfrwt beam="1">  1        2 0.17912670E+00 0.38827470E+03</pdfrwt>
<pdfrwt beam="2">  1       -2 0.42939977E-02 0.38827470E+03</pdfrwt>
<totfact> 0.51987222E+03</totfact>
</mgrwt>
</event>
<event>
 4    1  0.2621617E-004  0.3021719E+03  0.7818608E-02  0.1084160E+00
         -2   -1    0    0    0  501 -0.00000000000E+00  0.00000000000E+00  0.17561693461E+02  0.17561693646E+02  0.25500000000E-02 0. -1.
          2   -1    0    0  501    0  0.00000000000E+00 -0.00000000000E+00 -0.12998160472E+04  0.12998160472E+04  0.25500000000E-02 0.  1.
    5000001    1    1    2    0    0  0.79103793428E+02 -0.78235559759E+01 -0.72604090443E+03  0.74133866288E+03  0.12700000000E+03 0.  0.
   -5000001    1    1    2    0    0 -0.79103793428E+02  0.78235559759E+01 -0.55621344926E+03  0.57603907793E+03  0.12700000000E+03 0.  0.
<mgrwt>
<rscale>  0 0.30217195E+03</rscale>
<asrwt>0</asrwt>
<pdfrwt beam="1">  1        2 0.18568795E+00 0.30217195E+03</pdfrwt>
<pdfrwt beam="2">  1       -2 0.25088142E-02 0.30217195E+03</pdfrwt>
<totfact> 0.10968241E+04</totfact>
</mgrwt>
</event>
<event>
 4    1  0.2621617E-004  0.2881271E+03  0.7818608E-02  0.1091331E+00
         -2   -1    0    0    0  501 -0.00000000000E+00  0.00000000000E+00  0.10917493438E+03  0.10917493441E+03  0.25500000000E-02 0. -1.
          2   -1    0    0  501    0  0.00000000000E+00 -0.00000000000E+00 -0.19010141508E+03  0.19010141509E+03  0.25500000000E-02 0.  1.
    5000001    1    1    2    0    0  0.64012552736E+02  0.11510878476E+02 -0.19814289744E+02  0.14405454977E+03  0.12700000000E+03 0.  0.
   -5000001    1    1    2    0    0 -0.64012552736E+02 -0.11510878476E+02 -0.61112190951E+02  0.15522179974E+03  0.12700000000E+03 0.  0.
<mgrwt>
<rscale>  0 0.28812712E+03</rscale>
<asrwt>0</asrwt>
<pdfrwt beam="1">  1        2 0.27157345E-01 0.28812712E+03</pdfrwt>
<pdfrwt beam="2">  1       -2 0.15596419E-01 0.28812712E+03</pdfrwt>
<totfact> 0.62517243E+03</totfact>
</mgrwt>
</event>
<event>
 4    1  0.2621617E-004  0.5231412E+03  0.7818608E-02  0.1007909E+00
          2   -1    0    0  501    0  0.00000000000E+00  0.00000000000E+00  0.28307928229E+04  0.28307928229E+04  0.25500000000E-02 0.  1.
         -2   -1    0    0    0  501 -0.00000000000E+00 -0.00000000000E+00 -0.24169618017E+02  0.24169618151E+02  0.25500000000E-02 0. -1.
    5000001    1    1    2    0    0 -0.22397931385E+03 -0.30535503807E+02  0.12149713842E+04  0.12423299137E+04  0.12700000000E+03 0.  0.
   -5000001    1    1    2    0    0  0.22397931385E+03  0.30535503807E+02  0.15916518207E+04  0.16126325274E+04  0.12700000000E+03 0.  0.
<mgrwt>
<rscale>  0 0.52314121E+03</rscale>
<asrwt>0</asrwt>
<pdfrwt beam="1">  1        2 0.40439896E+00 0.52314121E+03</pdfrwt>
<pdfrwt beam="2">  1       -2 0.34528027E-02 0.52314121E+03</pdfrwt>
<totfact> 0.11352522E+03</totfact>
</mgrwt>
</event>
<event>
 4    1  0.2621617E-004  0.4985194E+03  0.7818608E-02  0.1014166E+00
         -2   -1    0    0    0  501 -0.00000000000E+00  0.00000000000E+00  0.26664318812E+02  0.26664318934E+02  0.25500000000E-02 0. -1.
          2   -1    0    0  501    0  0.00000000000E+00 -0.00000000000E+00 -0.23300953805E+04  0.23300953805E+04  0.25500000000E-02 0.  1.
    5000001    1    1    2    0    0 -0.68720283121E+02 -0.18826548541E+03 -0.79059267351E+03  0.82542846190E+03  0.12700000000E+03 0.  0.
   -5000001    1    1    2    0    0  0.68720283121E+02  0.18826548541E+03 -0.15128383882E+04  0.15313312376E+04  0.12700000000E+03 0.  0.
<mgrwt>
<rscale>  0 0.49851943E+03</rscale>
<asrwt>0</asrwt>
<pdfrwt beam="1">  1        2 0.33287064E+00 0.49851943E+03</pdfrwt>
<pdfrwt beam="2">  1       -2 0.38091899E-02 0.49851943E+03</pdfrwt>
<totfact> 0.17726595E+03</totfact>
</mgrwt>
</event>
<event>
 4    1  0.2621617E-004  0.3340203E+03  0.7818608E-02  0.1069372E+00
          2   -1    0    0  501    0  0.00000000000E+00  0.00000000000E+00  0.11078431274E+04  0.11078431274E+04  0.25500000000E-02 0.  1.
         -2   -1    0    0    0  501 -0.00000000000E+00 -0.00000000000E+00 -0.25177199083E+02  0.25177199212E+02  0.25500000000E-02 0. -1.
    5000001    1    1    2    0    0 -0.62627025642E+02  0.72444838521E+02  0.36860401774E+03  0.40145774480E+03  0.12700000000E+03 0.  0.
   -5000001    1    1    2    0    0  0.62627025642E+02 -0.72444838521E+02  0.71406191057E+03  0.73156258180E+03  0.12700000000E+03 0.  0.
<mgrwt>
<rscale>  0 0.33402028E+03</rscale>
<asrwt>0</asrwt>
<pdfrwt beam="1">  1        2 0.15826330E+00 0.33402028E+03</pdfrwt>
<pdfrwt beam="2">  1       -2 0.35967429E-02 0.33402028E+03</pdfrwt>
<totfact> 0.81692883E+03</totfact>
</mgrwt>
</event>
<event>
 4    1  0.2621617E-004  0.3088024E+03  0.7818608E-02  0.1080921E+00
         -2   -1    0    0    0  501 -0.00000000000E+00  0.00000000000E+00  0.12378627988E+02  0.12378628251E+02  0.25500000000E-02 0. -1.
          2   -1    0    0  501    0  0.00000000000E+00 -0.00000000000E+00 -0.19258784329E+04  0.19258784329E+04  0.25500000000E-02 0.  1.
    5000001    1    1    2    0    0  0.60525979086E+02  0.15949828197E+02 -0.57018824604E+03  0.58750440602E+03  0.12700000000E+03 0.  0.
   -5000001    1    1    2    0    0 -0.60525979086E+02 -0.15949828197E+02 -0.13433115589E+04  0.13507526552E+04  0.12700000000E+03 0.  0.
<mgrwt>
<rscale>  0 0.30880242E+03</rscale>
<asrwt>0</asrwt>
<pdfrwt beam="1">  1        2 0.27512530E+00 0.30880242E+03</pdfrwt>
<pdfrwt beam="2">  1       -2 0.17683767E-02 0.30880242E+03</pdfrwt>
<totfact> 0.89130769E+03</totfact>
</mgrwt>
</event>
<event>
 4    1  0.2621617E-004  0.4004360E+03  0.7818608E-02  0.1043629E+00
         -2   -1    0    0    0  501 -0.00000000000E+00  0.00000000000E+00  0.35682764246E+02  0.35682764337E+02  0.25500000000E-02 0. -1.
          2   -1    0    0  501    0  0.00000000000E+00 -0.00000000000E+00 -0.11234342596E+04  0.11234342596E+04  0.25500000000E-02 0.  1.
    5000001    1    1    2    0    0  0.21606730114E+02  0.15283842321E+03 -0.57710809064E+03  0.61074477703E+03  0.12700000000E+03 0.  0.
   -5000001    1    1    2    0    0 -0.21606730114E+02 -0.15283842321E+03 -0.51064340472E+03  0.54837224691E+03  0.12700000000E+03 0.  0.
<mgrwt>
<rscale>  0 0.40043596E+03</rscale>
<asrwt>0</asrwt>
<pdfrwt beam="1">  1        2 0.16049059E+00 0.40043596E+03</pdfrwt>
<pdfrwt beam="2">  1       -2 0.50975384E-02 0.40043596E+03</pdfrwt>
<totfact> 0.47234027E+03</totfact>
</mgrwt>
</event>
<event>
 4    1  0.2621617E-004  0.7619940E+03  0.7818608E-02  0.9616719E-01
          2   -1    0    0  501    0  0.00000000000E+00  0.00000000000E+00  0.26427682050E+03  0.26427682051E+03  0.25500000000E-02 0.  1.
         -2   -1    0    0    0  501 -0.00000000000E+00 -0.00000000000E+00 -0.54926767232E+03  0.54926767233E+03  0.25500000000E-02 0. -1.
    5000001    1    1    2    0    0 -0.17468332963E+03 -0.31241176376E+03 -0.17477911873E+03  0.41808147068E+03  0.12700000000E+03 0.  0.
   -5000001    1    1    2    0    0  0.17468332963E+03  0.31241176376E+03 -0.11021173309E+03  0.39546302216E+03  0.12700000000E+03 0.  0.
<mgrwt>
<rscale>  0 0.76199400E+03</rscale>
<asrwt>0</asrwt>
<pdfrwt beam="1">  1        2 0.37753832E-01 0.76199400E+03</pdfrwt>
<pdfrwt beam="2">  1       -2 0.78466810E-01 0.76199400E+03</pdfrwt>
<totfact> 0.20000425E+02</totfact>
</mgrwt>
</event>
<event>
 4    1  0.2621617E-004  0.9320938E+03  0.7818608E-02  0.9386329E-01
         -2   -1    0    0    0  501 -0.00000000000E+00  0.00000000000E+00  0.79008272712E+03  0.79008272713E+03  0.25500000000E-02 0. -1.
          2   -1    0    0  501    0  0.00000000000E+00 -0.00000000000E+00 -0.27490758401E+03  0.27490758402E+03  0.25500000000E-02 0.  1.
    5000001    1    1    2    0    0 -0.18778228648E+03 -0.35529067700E+03  0.30283142031E+02  0.42253960876E+03  0.12700000000E+03 0.  0.
   -5000001    1    1    2    0    0  0.18778228648E+03  0.35529067700E+03  0.48489200108E+03  0.64245070239E+03  0.12700000000E+03 0.  0.
<mgrwt>
<rscale>  0 0.93209384E+03</rscale>
<asrwt>0</asrwt>
<pdfrwt beam="1">  1        2 0.39272512E-01 0.93209384E+03</pdfrwt>
<pdfrwt beam="2">  1       -2 0.11286896E+00 0.93209384E+03</pdfrwt>
<totfact> 0.81292811E+01</totfact>
</mgrwt>
</event>
<event>
 4    1  0.2621617E-004  0.2856385E+03  0.7818608E-02  0.1092649E+00
          2   -1    0    0  501    0  0.00000000000E+00  0.00000000000E+00  0.29508320919E+03  0.29508320920E+03  0.25500000000E-02 0.  1.
         -2   -1    0    0    0  501 -0.00000000000E+00 -0.00000000000E+00 -0.69124038567E+02  0.69124038614E+02  0.25500000000E-02 0. -1.
    5000001    1    1    2    0    0 -0.29840293863E+02  0.58048767604E+02  0.10931933484E+03  0.17983275432E+03  0.12700000000E+03 0.  0.
   -5000001    1    1    2    0    0  0.29840293863E+02 -0.58048767604E+02  0.11663983578E+03  0.18437449349E+03  0.12700000000E+03 0.  0.
<mgrwt>
<rscale>  0 0.28563853E+03</rscale>
<asrwt>0</asrwt>
<pdfrwt beam="1">  1        2 0.42154744E-01 0.28563853E+03</pdfrwt>
<pdfrwt beam="2">  1       -2 0.98748627E-02 0.28563853E+03</pdfrwt>
<totfact> 0.81228982E+03</totfact>
</mgrwt>
</event>
<event>
 4    1  0.2621617E-004  0.7902288E+03  0.7818608E-02  0.9574269E-01
         -2   -1    0    0    0  501 -0.00000000000E+00  0.00000000000E+00  0.88315688314E+02  0.88315688351E+02  0.25500000000E-02 0. -1.
          2   -1    0    0  501    0  0.00000000000E+00 -0.00000000000E+00 -0.17676972474E+04  0.17676972474E+04  0.25500000000E-02 0.  1.
    5000001    1    1    2    0    0  0.35751108379E+03 -0.10813763670E+03 -0.78831504350E+03  0.88152001186E+03  0.12700000000E+03 0.  0.
   -5000001    1    1    2    0    0 -0.35751108379E+03  0.10813763670E+03 -0.89106651555E+03  0.97449292385E+03  0.12700000000E+03 0.  0.
<mgrwt>
<rscale>  0 0.79022883E+03</rscale>
<asrwt>0</asrwt>
<pdfrwt beam="1">  1        2 0.25252816E+00 0.79022883E+03</pdfrwt>
<pdfrwt beam="2">  1       -2 0.12616528E-01 0.79022883E+03</pdfrwt>
<totfact> 0.50156579E+02</totfact>
</mgrwt>
</event>
<event>
 4    1  0.2621617E-004  0.6943752E+03  0.7818608E-02  0.9726900E-01
         -2   -1    0    0    0  501 -0.00000000000E+00  0.00000000000E+00  0.80812523736E+02  0.80812523777E+02  0.25500000000E-02 0. -1.
          2   -1    0    0  501    0  0.00000000000E+00 -0.00000000000E+00 -0.14915910928E+04  0.14915910928E+04  0.25500000000E-02 0.  1.
    5000001    1    1    2    0    0 -0.13839557742E+03  0.29127473995E+03 -0.75157208566E+03  0.82763754744E+03  0.12700000000E+03 0.  0.
   -5000001    1    1    2    0    0  0.13839557742E+03 -0.29127473995E+03 -0.65920648341E+03  0.74476606915E+03  0.12700000000E+03 0.  0.
<mgrwt>
<rscale>  0 0.69437523E+03</rscale>
<asrwt>0</asrwt>
<pdfrwt beam="1">  1        2 0.21308442E+00 0.69437523E+03</pdfrwt>
<pdfrwt beam="2">  1       -2 0.11544647E-01 0.69437523E+03</pdfrwt>
<totfact> 0.81069677E+02</totfact>
</mgrwt>
</event>
<event>
 4    1  0.2621617E-004  0.4402058E+03  0.7818608E-02  0.1030684E+00
         -2   -1    0    0    0  501 -0.00000000000E+00  0.00000000000E+00  0.12525764298E+03  0.12525764300E+03  0.25500000000E-02 0. -1.
          2   -1    0    0  501    0  0.00000000000E+00 -0.00000000000E+00 -0.38676510877E+03  0.38676510878E+03  0.25500000000E-02 0.  1.
    5000001    1    1    2    0    0 -0.35271526759E+02 -0.16585472133E+03 -0.61310850550E+02  0.22054452971E+03  0.12700000000E+03 0.  0.
   -5000001    1    1    2    0    0  0.35271526759E+02  0.16585472133E+03 -0.20019661525E+03  0.29147822208E+03  0.12700000000E+03 0.  0.
<mgrwt>
<rscale>  0 0.44020580E+03</rscale>
<asrwt>0</asrwt>
<pdfrwt beam="1">  1        2 0.55252158E-01 0.44020580E+03</pdfrwt>
<pdfrwt beam="2">  1       -2 0.17893949E-01 0.44020580E+03</pdfrwt>
<totfact> 0.23034588E+03</totfact>
</mgrwt>
</event>
<event>
 4    1  0.2621617E-004  0.7058422E+03  0.7818608E-02  0.9707293E-01
         -2   -1    0    0    0  501 -0.00000000000E+00  0.00000000000E+00  0.24189857383E+03  0.24189857384E+03  0.25500000000E-02 0. -1.
          2   -1    0    0  501    0  0.00000000000E+00 -0.00000000000E+00 -0.51489890422E+03  0.51489890423E+03  0.25500000000E-02 0.  1.
    5000001    1    1    2    0    0  0.18238391772E+03  0.17475794646E+03 -0.36298399589E+03  0.46009848355E+03  0.12700000000E+03 0.  0.
   -5000001    1    1    2    0    0 -0.18238391772E+03 -0.17475794646E+03  0.89983665500E+02  0.29669899452E+03  0.12700000000E+03 0.  0.
<mgrwt>
<rscale>  0 0.70584222E+03</rscale>
<asrwt>0</asrwt>
<pdfrwt beam="1">  1        2 0.73556987E-01 0.70584222E+03</pdfrwt>
<pdfrwt beam="2">  1       -2 0.34556939E-01 0.70584222E+03</pdfrwt>
<totfact> 0.51223022E+02</totfact>
</mgrwt>
</event>
<event>
 4    1  0.2621617E-004  0.4135628E+03  0.7818608E-02  0.1039182E+00
          2   -1    0    0  501    0  0.00000000000E+00  0.00000000000E+00  0.58213598948E+02  0.58213599004E+02  0.25500000000E-02 0.  1.
         -2   -1    0    0    0  501 -0.00000000000E+00 -0.00000000000E+00 -0.73451144633E+03  0.73451144633E+03  0.25500000000E-02 0. -1.
    5000001    1    1    2    0    0  0.13623206585E+03  0.73208278580E+02 -0.43795109352E+03  0.48150678929E+03  0.12700000000E+03 0.  0.
   -5000001    1    1    2    0    0 -0.13623206585E+03 -0.73208278580E+02 -0.23834675386E+03  0.31121825604E+03  0.12700000000E+03 0.  0.
<mgrwt>
<rscale>  0 0.41356284E+03</rscale>
<asrwt>0</asrwt>
<pdfrwt beam="1">  1        2 0.83162288E-02 0.41356284E+03</pdfrwt>
<pdfrwt beam="2">  1       -2 0.10493020E+00 0.41356284E+03</pdfrwt>
<totfact> 0.62408676E+02</totfact>
</mgrwt>
</event>
<event>
 4    1  0.2621617E-004  0.3399791E+03  0.7818608E-02  0.1066805E+00
          2   -1    0    0  501    0  0.00000000000E+00  0.00000000000E+00  0.21450494747E+04  0.21450494747E+04  0.25500000000E-02 0.  1.
         -2   -1    0    0    0  501 -0.00000000000E+00 -0.00000000000E+00 -0.13471223609E+02  0.13471223851E+02  0.25500000000E-02 0. -1.
    5000001    1    1    2    0    0  0.10531963630E+03 -0.87619098810E+01  0.81195335315E+03  0.82859293054E+03  0.12700000000E+03 0.  0.
   -5000001    1    1    2    0    0 -0.10531963630E+03  0.87619098810E+01  0.13196248979E+04  0.13299277680E+04  0.12700000000E+03 0.  0.
<mgrwt>
<rscale>  0 0.33997907E+03</rscale>
<asrwt>0</asrwt>
<pdfrwt beam="1">  1        2 0.30643543E+00 0.33997907E+03</pdfrwt>
<pdfrwt beam="2">  1       -2 0.19244619E-02 0.33997907E+03</pdfrwt>
<totfact> 0.61442286E+03</totfact>
</mgrwt>
</event>
<event>
 4    1  0.2621617E-004  0.3420807E+03  0.7818608E-02  0.1065913E+00
          2   -1    0    0  501    0  0.00000000000E+00  0.00000000000E+00  0.15820161886E+04  0.15820161886E+04  0.25500000000E-02 0.  1.
         -2   -1    0    0    0  501 -0.00000000000E+00 -0.00000000000E+00 -0.18492102683E+02  0.18492102858E+02  0.25500000000E-02 0. -1.
    5000001    1    1    2    0    0 -0.47151985976E+02 -0.10396600929E+03  0.82701908998E+03  0.84446540252E+03  0.12700000000E+03 0.  0.
   -5000001    1    1    2    0    0  0.47151985976E+02  0.10396600929E+03  0.73650499595E+03  0.75604288895E+03  0.12700000000E+03 0.  0.
<mgrwt>
<rscale>  0 0.34208073E+03</rscale>
<asrwt>0</asrwt>
<pdfrwt beam="1">  1        2 0.22600233E+00 0.34208073E+03</pdfrwt>
<pdfrwt beam="2">  1       -2 0.26417288E-02 0.34208073E+03</pdfrwt>
<totfact> 0.72876373E+03</totfact>
</mgrwt>
</event>
<event>
 4    1  0.2621617E-004  0.5460617E+03  0.7818608E-02  0.1002410E+00
         -2   -1    0    0    0  501 -0.00000000000E+00  0.00000000000E+00  0.19010290628E+03  0.19010290630E+03  0.25500000000E-02 0. -1.
          2   -1    0    0  501    0  0.00000000000E+00 -0.00000000000E+00 -0.39213423060E+03  0.39213423061E+03  0.25500000000E-02 0.  1.
    5000001    1    1    2    0    0 -0.22818274723E+03 -0.43104586305E+02 -0.17247403909E+03  0.31591401624E+03  0.12700000000E+03 0.  0.
   -5000001    1    1    2    0    0  0.22818274723E+03  0.43104586305E+02 -0.29557285231E+02  0.26632312067E+03  0.12700000000E+03 0.  0.
<mgrwt>
<rscale>  0 0.54606174E+03</rscale>
<asrwt>0</asrwt>
<pdfrwt beam="1">  1        2 0.56019176E-01 0.54606174E+03</pdfrwt>
<pdfrwt beam="2">  1       -2 0.27157558E-01 0.54606174E+03</pdfrwt>
<totfact> 0.10908488E+03</totfact>
</mgrwt>
</event>
<event>
 4    1  0.2621617E-004  0.4305701E+03  0.7818608E-02  0.1033680E+00
          2   -1    0    0  501    0  0.00000000000E+00  0.00000000000E+00  0.40739876041E+03  0.40739876042E+03  0.25500000000E-02 0.  1.
         -2   -1    0    0    0  501 -0.00000000000E+00 -0.00000000000E+00 -0.11376483087E+03  0.11376483090E+03  0.25500000000E-02 0. -1.
    5000001    1    1    2    0    0  0.15309747026E+03  0.59150439317E+02  0.77484593995E+02  0.22151855944E+03  0.12700000000E+03 0.  0.
   -5000001    1    1    2    0    0 -0.15309747026E+03 -0.59150439317E+02  0.21614933555E+03  0.29964503188E+03  0.12700000000E+03 0.  0.
<mgrwt>
<rscale>  0 0.43057009E+03</rscale>
<asrwt>0</asrwt>
<pdfrwt beam="1">  1        2 0.58199824E-01 0.43057009E+03</pdfrwt>
<pdfrwt beam="2">  1       -2 0.16252119E-01 0.43057009E+03</pdfrwt>
<totfact> 0.25602617E+03</totfact>
</mgrwt>
</event>
<event>
 4    1  0.2621617E-004  0.3378200E+03  0.7818608E-02  0.1067728E+00
          2   -1    0    0  501    0  0.00000000000E+00  0.00000000000E+00  0.60343787561E+03  0.60343787561E+03  0.25500000000E-02 0. -1.
         -2   -1    0    0    0  501 -0.00000000000E+00 -0.00000000000E+00 -0.47280065220E+02  0.47280065289E+02  0.25500000000E-02 0.  1.
    5000001    1    1    2    0    0  0.10937473626E+03 -0.64931146065E+01  0.23971899160E+03  0.29257338977E+03  0.12700000000E+03 0.  0.
   -5000001    1    1    2    0    0 -0.10937473626E+03  0.64931146065E+01  0.31643881879E+03  0.35814455113E+03  0.12700000000E+03 0.  0.
<mgrwt>
<rscale>  0 0.33781996E+03</rscale>
<asrwt>0</asrwt>
<pdfrwt beam="1">  1        2 0.86205411E-01 0.33781996E+03</pdfrwt>
<pdfrwt beam="2">  1       -2 0.67542950E-02 0.33781996E+03</pdfrwt>
<totfact> 0.67568941E+03</totfact>
</mgrwt>
</event>
<event>
 4    1  0.2621617E-004  0.4174377E+03  0.7818608E-02  0.1037903E+00
          2   -1    0    0  501    0  0.00000000000E+00  0.00000000000E+00  0.32607237198E+03  0.32607237199E+03  0.25500000000E-02 0.  1.
         -2   -1    0    0    0  501 -0.00000000000E+00 -0.00000000000E+00 -0.13360090560E+03  0.13360090563E+03  0.25500000000E-02 0. -1.
    5000001    1    1    2    0    0 -0.27545051932E+02  0.15277794417E+03  0.15982563636E+03  0.25646259795E+03  0.12700000000E+03 0.  0.
   -5000001    1    1    2    0    0  0.27545051932E+02 -0.15277794417E+03  0.32645830018E+02  0.20321067966E+03  0.12700000000E+03 0.  0.
<mgrwt>
<rscale>  0 0.41743773E+03</rscale>
<asrwt>0</asrwt>
<pdfrwt beam="1">  1        2 0.46581767E-01 0.41743773E+03</pdfrwt>
<pdfrwt beam="2">  1       -2 0.19085844E-01 0.41743773E+03</pdfrwt>
<totfact> 0.24849805E+03</totfact>
</mgrwt>
</event>
<event>
 4    1  0.2621617E-004  0.2733062E+03  0.7818608E-02  0.1099402E+00
         -2   -1    0    0    0  501 -0.00000000000E+00  0.00000000000E+00  0.86435482227E+01  0.86435485988E+01  0.25500000000E-02 0. -1.
          2   -1    0    0  501    0  0.00000000000E+00 -0.00000000000E+00 -0.21604631565E+04  0.21604631565E+04  0.25500000000E-02 0.  1.
    5000001    1    1    2    0    0  0.24190596550E+02 -0.42081433509E+02 -0.96679000075E+03  0.97630319960E+03  0.12700000000E+03 0.  0.
   -5000001    1    1    2    0    0 -0.24190596550E+02  0.42081433509E+02 -0.11850296076E+04  0.11928035055E+04  0.12700000000E+03 0.  0.
<mgrwt>
<rscale>  0 0.27330619E+03</rscale>
<asrwt>0</asrwt>
<pdfrwt beam="1">  1        2 0.30863725E+00 0.27330619E+03</pdfrwt>
<pdfrwt beam="2">  1       -2 0.12347940E-02 0.27330619E+03</pdfrwt>
<totfact> 0.11563166E+04</totfact>
</mgrwt>
</event>
<event>
 4    1  0.2621617E-004  0.4947566E+03  0.7818608E-02  0.1015157E+00
         -2   -1    0    0    0  501 -0.00000000000E+00  0.00000000000E+00  0.87187920111E+02  0.87187920148E+02  0.25500000000E-02 0. -1.
          2   -1    0    0  501    0  0.00000000000E+00 -0.00000000000E+00 -0.70188654007E+03  0.70188654007E+03  0.25500000000E-02 0.  1.
    5000001    1    1    2    0    0  0.52449975612E+02  0.18931904386E+03 -0.43567798205E+03  0.49450682943E+03  0.12700000000E+03 0.  0.
   -5000001    1    1    2    0    0 -0.52449975612E+02 -0.18931904386E+03 -0.17902063791E+03  0.29456763079E+03  0.12700000000E+03 0.  0.
<mgrwt>
<rscale>  0 0.49475662E+03</rscale>
<asrwt>0</asrwt>
<pdfrwt beam="1">  1        2 0.10026950E+00 0.49475662E+03</pdfrwt>
<pdfrwt beam="2">  1       -2 0.12455418E-01 0.49475662E+03</pdfrwt>
<totfact> 0.21399026E+03</totfact>
</mgrwt>
</event>
<event>
 4    1  0.2621617E-004  0.8298340E+03  0.7818608E-02  0.9517810E-01
          2   -1    0    0  501    0  0.00000000000E+00  0.00000000000E+00  0.88390248473E+02  0.88390248509E+02  0.25500000000E-02 0.  1.
         -2   -1    0    0    0  501 -0.00000000000E+00 -0.00000000000E+00 -0.19476824665E+04  0.19476824665E+04  0.25500000000E-02 0. -1.
    5000001    1    1    2    0    0  0.16612673721E+03 -0.33132473447E+03 -0.12647472973E+04  0.13240426347E+04  0.12700000000E+03 0.  0.
   -5000001    1    1    2    0    0 -0.16612673721E+03  0.33132473447E+03 -0.59454492067E+03  0.71203008025E+03  0.12700000000E+03 0.  0.
<mgrwt>
<rscale>  0 0.82983405E+03</rscale>
<asrwt>0</asrwt>
<pdfrwt beam="1">  1        2 0.12627180E-01 0.82983405E+03</pdfrwt>
<pdfrwt beam="2">  1       -2 0.27824033E+00 0.82983405E+03</pdfrwt>
<totfact> 0.21995622E+01</totfact>
</mgrwt>
</event>
<event>
 4    1  0.2621617E-004  0.5881999E+03  0.7818608E-02  0.9930195E-01
          2   -1    0    0  501    0  0.00000000000E+00  0.00000000000E+00  0.14800234825E+04  0.14800234825E+04  0.25500000000E-02 0.  1.
         -2   -1    0    0    0  501 -0.00000000000E+00 -0.00000000000E+00 -0.58441483245E+02  0.58441483301E+02  0.25500000000E-02 0. -1.
    5000001    1    1    2    0    0  0.12577275095E+03  0.18080558114E+03  0.32411139791E+03  0.41193038405E+03  0.12700000000E+03 0.  0.
   -5000001    1    1    2    0    0 -0.12577275095E+03 -0.18080558114E+03  0.10974706014E+04  0.11265345818E+04  0.12700000000E+03 0.  0.
<mgrwt>
<rscale>  0 0.58819986E+03</rscale>
<asrwt>0</asrwt>
<pdfrwt beam="1">  1        2 0.21143193E+00 0.58819986E+03</pdfrwt>
<pdfrwt beam="2">  1       -2 0.83487832E-02 0.58819986E+03</pdfrwt>
<totfact> 0.13960816E+03</totfact>
</mgrwt>
</event>
<event>
 4    1  0.2621617E-004  0.6303699E+03  0.7818608E-02  0.9844327E-01
          2   -1    0    0  501    0  0.00000000000E+00  0.00000000000E+00  0.22991908751E+04  0.22991908751E+04  0.25500000000E-02 0.  1.
         -2   -1    0    0    0  501 -0.00000000000E+00 -0.00000000000E+00 -0.43207183074E+02  0.43207183149E+02  0.25500000000E-02 0. -1.
    5000001    1    1    2    0    0 -0.17374276761E+03  0.15011096384E+03  0.17768701121E+04  0.17961392613E+04  0.12700000000E+03 0.  0.
   -5000001    1    1    2    0    0  0.17374276761E+03 -0.15011096384E+03  0.47911357995E+03  0.54625879696E+03  0.12700000000E+03 0.  0.
<mgrwt>
<rscale>  0 0.63036993E+03</rscale>
<asrwt>0</asrwt>
<pdfrwt beam="1">  1        2 0.32845588E+00 0.63036993E+03</pdfrwt>
<pdfrwt beam="2">  1       -2 0.61724540E-02 0.63036993E+03</pdfrwt>
<totfact> 0.86352425E+02</totfact>
</mgrwt>
</event>
<event>
 4    1  0.2621617E-004  0.4631240E+03  0.7818608E-02  0.1023879E+00
         -2   -1    0    0    0  501 -0.00000000000E+00  0.00000000000E+00  0.11556053510E+04  0.11556053510E+04  0.25500000000E-02 0. -1.
          2   -1    0    0  501    0  0.00000000000E+00 -0.00000000000E+00 -0.46400751836E+02  0.46400751906E+02  0.25500000000E-02 0.  1.
    5000001    1    1    2    0    0 -0.14573926196E+03  0.84017694832E+02  0.30575138242E+03  0.37136479824E+03  0.12700000000E+03 0.  0.
   -5000001    1    1    2    0    0  0.14573926196E+03 -0.84017694832E+02  0.80345321678E+03  0.83064130470E+03  0.12700000000E+03 0.  0.
<mgrwt>
<rscale>  0 0.46312399E+03</rscale>
<asrwt>0</asrwt>
<pdfrwt beam="1">  1        2 0.66286784E-02 0.46312399E+03</pdfrwt>
<pdfrwt beam="2">  1       -2 0.16508649E+00 0.46312399E+03</pdfrwt>
<totfact> 0.26724498E+02</totfact>
</mgrwt>
</event>
<event>
 4    1  0.2621617E-004  0.4659331E+03  0.7818608E-02  0.1023074E+00
          2   -1    0    0  501    0  0.00000000000E+00  0.00000000000E+00  0.11608411869E+03  0.11608411872E+03  0.25500000000E-02 0.  1.
         -2   -1    0    0    0  501 -0.00000000000E+00 -0.00000000000E+00 -0.46753513724E+03  0.46753513724E+03  0.25500000000E-02 0. -1.
    5000001    1    1    2    0    0  0.17831408568E+03  0.62762347653E+02 -0.11424200113E+03  0.25478473317E+03  0.12700000000E+03 0.  0.
   -5000001    1    1    2    0    0 -0.17831408568E+03 -0.62762347653E+02 -0.23720901742E+03  0.32883452279E+03  0.12700000000E+03 0.  0.
<mgrwt>
<rscale>  0 0.46593306E+03</rscale>
<asrwt>0</asrwt>
<pdfrwt beam="1">  1        2 0.16583446E-01 0.46593306E+03</pdfrwt>
<pdfrwt beam="2">  1       -2 0.66790733E-01 0.46593306E+03</pdfrwt>
<totfact> 0.73487956E+02</totfact>
</mgrwt>
</event>
<event>
 4    1  0.2621617E-004  0.3438871E+03  0.7818608E-02  0.1065152E+00
          2   -1    0    0  501    0  0.00000000000E+00  0.00000000000E+00  0.84827644246E+02  0.84827644285E+02  0.25500000000E-02 0.  1.
         -2   -1    0    0    0  501 -0.00000000000E+00 -0.00000000000E+00 -0.34852535804E+03  0.34852535805E+03  0.25500000000E-02 0. -1.
    5000001    1    1    2    0    0  0.62770622353E+02 -0.97422167296E+02 -0.12921895809E+03  0.21507619310E+03  0.12700000000E+03 0.  0.
   -5000001    1    1    2    0    0 -0.62770622353E+02  0.97422167296E+02 -0.13447875571E+03  0.21827680923E+03  0.12700000000E+03 0.  0.
<mgrwt>
<rscale>  0 0.34388710E+03</rscale>
<asrwt>0</asrwt>
<pdfrwt beam="1">  1        2 0.12118235E-01 0.34388710E+03</pdfrwt>
<pdfrwt beam="2">  1       -2 0.49789336E-01 0.34388710E+03</pdfrwt>
<totfact> 0.19655823E+03</totfact>
</mgrwt>
</event>
<event>
 4    1  0.2621617E-004  0.3139030E+03  0.7818608E-02  0.1078490E+00
          2   -1    0    0  501    0  0.00000000000E+00  0.00000000000E+00  0.25447931712E+03  0.25447931713E+03  0.25500000000E-02 0.  1.
         -2   -1    0    0    0  501 -0.00000000000E+00 -0.00000000000E+00 -0.96800706818E+02  0.96800706852E+02  0.25500000000E-02 0. -1.
    5000001    1    1    2    0    0  0.27912239456E+02  0.80549632620E+02  0.39473398305E+02  0.15796988827E+03  0.12700000000E+03 0.  0.
   -5000001    1    1    2    0    0 -0.27912239456E+02 -0.80549632620E+02  0.11820521200E+03  0.19331013572E+03  0.12700000000E+03 0.  0.
<mgrwt>
<rscale>  0 0.31390303E+03</rscale>
<asrwt>0</asrwt>
<pdfrwt beam="1">  1        2 0.36354188E-01 0.31390303E+03</pdfrwt>
<pdfrwt beam="2">  1       -2 0.13828672E-01 0.31390303E+03</pdfrwt>
<totfact> 0.55533536E+03</totfact>
</mgrwt>
</event>
<event>
 4    1  0.2621617E-004  0.4959627E+03  0.7818608E-02  0.1014838E+00
          2   -1    0    0  501    0  0.00000000000E+00  0.00000000000E+00  0.13597838491E+04  0.13597838491E+04  0.25500000000E-02 0.  1.
         -2   -1    0    0    0  501 -0.00000000000E+00 -0.00000000000E+00 -0.45223911846E+02  0.45223911918E+02  0.25500000000E-02 0. -1.
    5000001    1    1    2    0    0  0.21096149768E+03 -0.13845670896E+02  0.73056858541E+03  0.77107451916E+03  0.12700000000E+03 0.  0.
   -5000001    1    1    2    0    0 -0.21096149768E+03  0.13845670896E+02  0.58399135182E+03  0.63393324184E+03  0.12700000000E+03 0.  0.
<mgrwt>
<rscale>  0 0.49596268E+03</rscale>
<asrwt>0</asrwt>
<pdfrwt beam="1">  1        2 0.19425485E+00 0.49596268E+03</pdfrwt>
<pdfrwt beam="2">  1       -2 0.64605584E-02 0.49596268E+03</pdfrwt>
<totfact> 0.24286748E+03</totfact>
</mgrwt>
</event>
<event>
 4    1  0.2621617E-004  0.5083507E+03  0.7818608E-02  0.1011622E+00
         -2   -1    0    0    0  501 -0.00000000000E+00  0.00000000000E+00  0.71287715355E+02  0.71287715401E+02  0.25500000000E-02 0. -1.
          2   -1    0    0  501    0  0.00000000000E+00 -0.00000000000E+00 -0.90625879703E+03  0.90625879703E+03  0.25500000000E-02 0.  1.
    5000001    1    1    2    0    0 -0.20006583995E+03 -0.51279800738E+02 -0.56418937510E+03  0.61408029544E+03  0.12700000000E+03 0.  0.
   -5000001    1    1    2    0    0  0.20006583995E+03  0.51279800738E+02 -0.27078170658E+03  0.36346621699E+03  0.12700000000E+03 0.  0.
<mgrwt>
<rscale>  0 0.50835074E+03</rscale>
<asrwt>0</asrwt>
<pdfrwt beam="1">  1        2 0.12946554E+00 0.50835074E+03</pdfrwt>
<pdfrwt beam="2">  1       -2 0.10183960E-01 0.50835074E+03</pdfrwt>
<totfact> 0.21478052E+03</totfact>
</mgrwt>
</event>
<event>
 4    1  0.2621617E-004  0.2993011E+03  0.7818608E-02  0.1085591E+00
          2   -1    0    0  501    0  0.00000000000E+00  0.00000000000E+00  0.44027815057E+03  0.44027815058E+03  0.25500000000E-02 0.  1.
         -2   -1    0    0    0  501 -0.00000000000E+00 -0.00000000000E+00 -0.50866208878E+02  0.50866208942E+02  0.25500000000E-02 0. -1.
    5000001    1    1    2    0    0 -0.43256062071E+02 -0.64331631693E+02  0.22099403203E+03  0.26641510456E+03  0.12700000000E+03 0.  0.
   -5000001    1    1    2    0    0  0.43256062071E+02  0.64331631693E+02  0.16841790966E+03  0.22472925497E+03  0.12700000000E+03 0.  0.
<mgrwt>
<rscale>  0 0.29930106E+03</rscale>
<asrwt>0</asrwt>
<pdfrwt beam="1">  1        2 0.62896879E-01 0.29930106E+03</pdfrwt>
<pdfrwt beam="2">  1       -2 0.72666013E-02 0.29930106E+03</pdfrwt>
<totfact> 0.85480884E+03</totfact>
</mgrwt>
</event>
<event>
 4    1  0.2621617E-004  0.4086496E+03  0.7818608E-02  0.1040825E+00
         -2   -1    0    0    0  501 -0.00000000000E+00  0.00000000000E+00  0.51934383693E+02  0.51934383756E+02  0.25500000000E-02 0. -1.
          2   -1    0    0  501    0  0.00000000000E+00 -0.00000000000E+00 -0.80387245762E+03  0.80387245762E+03  0.25500000000E-02 0.  1.
    5000001    1    1    2    0    0  0.86401220692E+02  0.12221072381E+03 -0.49478763415E+03  0.53230107539E+03  0.12700000000E+03 0.  0.
   -5000001    1    1    2    0    0 -0.86401220692E+02 -0.12221072381E+03 -0.25715043977E+03  0.32350576599E+03  0.12700000000E+03 0.  0.
<mgrwt>
<rscale>  0 0.40864958E+03</rscale>
<asrwt>0</asrwt>
<pdfrwt beam="1">  1        2 0.11483891E+00 0.40864958E+03</pdfrwt>
<pdfrwt beam="2">  1       -2 0.74191982E-02 0.40864958E+03</pdfrwt>
<totfact> 0.41498501E+03</totfact>
</mgrwt>
</event>
<event>
 4    1  0.2621617E-004  0.3536560E+03  0.7818608E-02  0.1061124E+00
          2   -1    0    0  501    0  0.00000000000E+00  0.00000000000E+00  0.21703182553E+03  0.21703182554E+03  0.25500000000E-02 0.  1.
         -2   -1    0    0    0  501 -0.00000000000E+00 -0.00000000000E+00 -0.14407166604E+03  0.14407166606E+03  0.25500000000E-02 0. -1.
    5000001    1    1    2    0    0  0.11860840786E+03 -0.32550116928E+02  0.32991678631E+02  0.17984692209E+03  0.12700000000E+03 0.  0.
   -5000001    1    1    2    0    0 -0.11860840786E+03  0.32550116928E+02  0.39968480861E+02  0.18125656951E+03  0.12700000000E+03 0.  0.
<mgrwt>
<rscale>  0 0.35365597E+03</rscale>
<asrwt>0</asrwt>
<pdfrwt beam="1">  1        2 0.31004547E-01 0.35365597E+03</pdfrwt>
<pdfrwt beam="2">  1       -2 0.20581667E-01 0.35365597E+03</pdfrwt>
<totfact> 0.33966042E+03</totfact>
</mgrwt>
</event>
<event>
 4    1  0.2621617E-004  0.3234957E+03  0.7818608E-02  0.1074052E+00
         -2   -1    0    0    0  501 -0.00000000000E+00  0.00000000000E+00  0.20361355549E+02  0.20361355708E+02  0.25500000000E-02 0.  1.
          2   -1    0    0  501    0  0.00000000000E+00 -0.00000000000E+00 -0.12849030910E+04  0.12849030910E+04  0.25500000000E-02 0. -1.
    5000001    1    1    2    0    0 -0.82426240972E+02  0.15061939786E+02 -0.41081466198E+03  0.43808519003E+03  0.12700000000E+03 0.  0.
   -5000001    1    1    2    0    0  0.82426240972E+02 -0.15061939786E+02 -0.85372707351E+03  0.86717925671E+03  0.12700000000E+03 0.  0.
<mgrwt>
<rscale>  0 0.32349571E+03</rscale>
<asrwt>0</asrwt>
<pdfrwt beam="1">  1        2 0.18355753E+00 0.32349571E+03</pdfrwt>
<pdfrwt beam="2">  1       -2 0.29087659E-02 0.32349571E+03</pdfrwt>
<totfact> 0.89765864E+03</totfact>
</mgrwt>
</event>
<event>
 4    1  0.2621617E-004  0.3989940E+03  0.7818608E-02  0.1044129E+00
         -2   -1    0    0    0  501 -0.00000000000E+00  0.00000000000E+00  0.90537796302E+02  0.90537796338E+02  0.25500000000E-02 0. -1.
          2   -1    0    0  501    0  0.00000000000E+00 -0.00000000000E+00 -0.43958488232E+03  0.43958488233E+03  0.25500000000E-02 0.  1.
    5000001    1    1    2    0    0 -0.15194525035E+03 -0.79821351152E+01 -0.14425563400E+03  0.24513213075E+03  0.12700000000E+03 0.  0.
   -5000001    1    1    2    0    0  0.15194525035E+03  0.79821351152E+01 -0.20479145202E+03  0.28499054792E+03  0.12700000000E+03 0.  0.
<mgrwt>
<rscale>  0 0.39899397E+03</rscale>
<asrwt>0</asrwt>
<pdfrwt beam="1">  1        2 0.62797839E-01 0.39899397E+03</pdfrwt>
<pdfrwt beam="2">  1       -2 0.12933971E-01 0.39899397E+03</pdfrwt>
<totfact> 0.34383726E+03</totfact>
</mgrwt>
</event>
<event>
 4    1  0.2621617E-004  0.5996420E+03  0.7818608E-02  0.9906149E-01
          2   -1    0    0  501    0  0.00000000000E+00  0.00000000000E+00  0.21681819131E+04  0.21681819131E+04  0.25500000000E-02 0.  1.
         -2   -1    0    0    0  501 -0.00000000000E+00 -0.00000000000E+00 -0.41459918237E+02  0.41459918316E+02  0.25500000000E-02 0. -1.
    5000001    1    1    2    0    0  0.24381718084E+03 -0.10771234259E+03  0.12553626681E+04  0.12896174607E+04  0.12700000000E+03 0.  0.
   -5000001    1    1    2    0    0 -0.24381718084E+03  0.10771234259E+03  0.87135932674E+03  0.92002437072E+03  0.12700000000E+03 0.  0.
<mgrwt>
<rscale>  0 0.59964204E+03</rscale>
<asrwt>0</asrwt>
<pdfrwt beam="1">  1        2 0.30974028E+00 0.59964204E+03</pdfrwt>
<pdfrwt beam="2">  1       -2 0.59228454E-02 0.59964204E+03</pdfrwt>
<totfact> 0.10749155E+03</totfact>
</mgrwt>
</event>
<event>
 4    1  0.2621617E-004  0.1406377E+04  0.7818608E-02  0.8949216E-01
         -2   -1    0    0    0  501 -0.00000000000E+00  0.00000000000E+00  0.25259188192E+03  0.25259188193E+03  0.25500000000E-02 0. -1.
          2   -1    0    0  501    0  0.00000000000E+00 -0.00000000000E+00 -0.19575994029E+04  0.19575994029E+04  0.25500000000E-02 0.  1.
    5000001    1    1    2    0    0 -0.68099926898E+03 -0.11432391014E+03 -0.79133922723E+03  0.10579114960E+04  0.12700000000E+03 0.  0.
   -5000001    1    1    2    0    0  0.68099926898E+03  0.11432391014E+03 -0.91366829372E+03  0.11522797888E+04  0.12700000000E+03 0.  0.
<mgrwt>
<rscale>  0 0.14063765E+04</rscale>
<asrwt>0</asrwt>
<pdfrwt beam="1">  1        2 0.27965705E+00 0.14063765E+04</pdfrwt>
<pdfrwt beam="2">  1       -2 0.36084556E-01 0.14063765E+04</pdfrwt>
<totfact> 0.59358804E+01</totfact>
</mgrwt>
</event>
<event>
 4    1  0.2621617E-004  0.3666322E+03  0.7818608E-02  0.1055988E+00
         -2   -1    0    0    0  501 -0.00000000000E+00  0.00000000000E+00  0.24552131951E+02  0.24552132083E+02  0.25500000000E-02 0. -1.
          2   -1    0    0  501    0  0.00000000000E+00 -0.00000000000E+00 -0.13687118817E+04  0.13687118817E+04  0.25500000000E-02 0.  1.
    5000001    1    1    2    0    0  0.92652462152E+01 -0.11844230613E+03 -0.89240344973E+03  0.90919048706E+03  0.12700000000E+03 0.  0.
   -5000001    1    1    2    0    0 -0.92652462152E+01  0.11844230613E+03 -0.45175630000E+03  0.48407352670E+03  0.12700000000E+03 0.  0.
<mgrwt>
<rscale>  0 0.36663221E+03</rscale>
<asrwt>0</asrwt>
<pdfrwt beam="1">  1        2 0.19553022E+00 0.36663221E+03</pdfrwt>
<pdfrwt beam="2">  1       -2 0.35074483E-02 0.36663221E+03</pdfrwt>
<totfact> 0.61333464E+03</totfact>
</mgrwt>
</event>
<event>
 4    1  0.2621617E-004  0.4557658E+03  0.7818608E-02  0.1026016E+00
          2   -1    0    0  501    0  0.00000000000E+00  0.00000000000E+00  0.12885539451E+04  0.12885539451E+04  0.25500000000E-02 0.  1.
         -2   -1    0    0    0  501 -0.00000000000E+00 -0.00000000000E+00 -0.40301469835E+02  0.40301469916E+02  0.25500000000E-02 0. -1.
    5000001    1    1    2    0    0  0.16553686298E+03  0.38636723964E+02  0.86643039456E+03  0.89203468434E+03  0.12700000000E+03 0.  0.
   -5000001    1    1    2    0    0 -0.16553686298E+03 -0.38636723964E+02  0.38182208073E+03  0.43682073071E+03  0.12700000000E+03 0.  0.
<mgrwt>
<rscale>  0 0.45576581E+03</rscale>
<asrwt>0</asrwt>
<pdfrwt beam="1">  1        2 0.18407912E+00 0.45576581E+03</pdfrwt>
<pdfrwt beam="2">  1       -2 0.57573534E-02 0.45576581E+03</pdfrwt>
<totfact> 0.31744666E+03</totfact>
</mgrwt>
</event>
<event>
 4    1  0.2621617E-004  0.3369867E+03  0.7818608E-02  0.1068087E+00
          2   -1    0    0  501    0  0.00000000000E+00  0.00000000000E+00  0.21113059223E+04  0.21113059223E+04  0.25500000000E-02 0.  1.
         -2   -1    0    0    0  501 -0.00000000000E+00 -0.00000000000E+00 -0.13446659871E+02  0.13446660112E+02  0.25500000000E-02 0. -1.
    5000001    1    1    2    0    0 -0.79829244336E+02  0.11846944933E+02  0.15269564219E+04  0.15343526233E+04  0.12700000000E+03 0.  0.
   -5000001    1    1    2    0    0  0.79829244336E+02 -0.11846944933E+02  0.57090284055E+03  0.59039995910E+03  0.12700000000E+03 0.  0.
<mgrwt>
<rscale>  0 0.33698672E+03</rscale>
<asrwt>0</asrwt>
<pdfrwt beam="1">  1        2 0.30161505E+00 0.33698672E+03</pdfrwt>
<pdfrwt beam="2">  1       -2 0.19209519E-02 0.33698672E+03</pdfrwt>
<totfact> 0.64009942E+03</totfact>
</mgrwt>
</event>
<event>
 4    1  0.2621617E-004  0.2850006E+03  0.7818608E-02  0.1092989E+00
          2   -1    0    0  501    0  0.00000000000E+00  0.00000000000E+00  0.54881589273E+03  0.54881589274E+03  0.25500000000E-02 0.  1.
         -2   -1    0    0    0  501 -0.00000000000E+00 -0.00000000000E+00 -0.37000261978E+02  0.37000262066E+02  0.25500000000E-02 0. -1.
    5000001    1    1    2    0    0 -0.16754605162E+01  0.62994952674E+02  0.28542116141E+03  0.31869328611E+03  0.12700000000E+03 0.  0.
   -5000001    1    1    2    0    0  0.16754605162E+01 -0.62994952674E+02  0.22639446935E+03  0.26712286870E+03  0.12700000000E+03 0.  0.
<mgrwt>
<rscale>  0 0.28500057E+03</rscale>
<asrwt>0</asrwt>
<pdfrwt beam="1">  1        2 0.78402269E-01 0.28500057E+03</pdfrwt>
<pdfrwt beam="2">  1       -2 0.52857518E-02 0.28500057E+03</pdfrwt>
<totfact> 0.10914630E+04</totfact>
</mgrwt>
</event>
<event>
 4    1  0.2621617E-004  0.5636843E+03  0.7818608E-02  0.9983753E-01
         -2   -1    0    0    0  501 -0.00000000000E+00  0.00000000000E+00  0.91777555518E+02  0.91777555553E+02  0.25500000000E-02 0. -1.
          2   -1    0    0  501    0  0.00000000000E+00 -0.00000000000E+00 -0.86551656982E+03  0.86551656982E+03  0.25500000000E-02 0.  1.
    5000001    1    1    2    0    0 -0.60318584151E+02  0.24426953106E+03 -0.38728430916E+03  0.47898232903E+03  0.12700000000E+03 0.  0.
   -5000001    1    1    2    0    0  0.60318584151E+02 -0.24426953106E+03 -0.38645470515E+03  0.47831179635E+03  0.12700000000E+03 0.  0.
<mgrwt>
<rscale>  0 0.56368429E+03</rscale>
<asrwt>0</asrwt>
<pdfrwt beam="1">  1        2 0.12364522E+00 0.56368429E+03</pdfrwt>
<pdfrwt beam="2">  1       -2 0.13111080E-01 0.56368429E+03</pdfrwt>
<totfact> 0.15089428E+03</totfact>
</mgrwt>
</event>
<event>
 4    1  0.2621617E-004  0.4814592E+03  0.7818608E-02  0.1018735E+00
         -2   -1    0    0    0  501 -0.00000000000E+00  0.00000000000E+00  0.16285037371E+03  0.16285037373E+03  0.25500000000E-02 0. -1.
          2   -1    0    0  501    0  0.00000000000E+00 -0.00000000000E+00 -0.35585268290E+03  0.35585268291E+03  0.25500000000E-02 0.  1.
    5000001    1    1    2    0    0  0.67757924466E+02 -0.18556247031E+03 -0.15348072651E+03  0.28055284729E+03  0.12700000000E+03 0.  0.
   -5000001    1    1    2    0    0 -0.67757924466E+02  0.18556247031E+03 -0.39521582693E+02  0.23815020935E+03  0.12700000000E+03 0.  0.
<mgrwt>
<rscale>  0 0.48145921E+03</rscale>
<asrwt>0</asrwt>
<pdfrwt beam="1">  1        2 0.50836097E-01 0.48145921E+03</pdfrwt>
<pdfrwt beam="2">  1       -2 0.23264339E-01 0.48145921E+03</pdfrwt>
<totfact> 0.16015833E+03</totfact>
</mgrwt>
</event>
<event>
 4    1  0.2621617E-004  0.4601569E+03  0.7818608E-02  0.1024736E+00
          2   -1    0    0  501    0  0.00000000000E+00  0.00000000000E+00  0.23360134090E+03  0.23360134091E+03  0.25500000000E-02 0.  1.
         -2   -1    0    0    0  501 -0.00000000000E+00 -0.00000000000E+00 -0.22660872864E+03  0.22660872866E+03  0.25500000000E-02 0. -1.
    5000001    1    1    2    0    0 -0.15770186235E+02 -0.18992195705E+03  0.25590808561E+02  0.23044074732E+03  0.12700000000E+03 0.  0.
   -5000001    1    1    2    0    0  0.15770186235E+02  0.18992195705E+03 -0.18598196305E+02  0.22976932225E+03  0.12700000000E+03 0.  0.
<mgrwt>
<rscale>  0 0.46015694E+03</rscale>
<asrwt>0</asrwt>
<pdfrwt beam="1">  1        2 0.33371620E-01 0.46015694E+03</pdfrwt>
<pdfrwt beam="2">  1       -2 0.32372676E-01 0.46015694E+03</pdfrwt>
<totfact> 0.13969661E+03</totfact>
</mgrwt>
</event>
<event>
 4    1  0.2621617E-004  0.3870634E+03  0.7818608E-02  0.1048354E+00
          2   -1    0    0  501    0  0.00000000000E+00  0.00000000000E+00  0.21288603812E+04  0.21288603812E+04  0.25500000000E-02 0.  1.
         -2   -1    0    0    0  501 -0.00000000000E+00 -0.00000000000E+00 -0.17593691020E+02  0.17593691205E+02  0.25500000000E-02 0. -1.
    5000001    1    1    2    0    0  0.80798476538E+02 -0.11743801624E+03  0.12314724894E+04  0.12461836035E+04  0.12700000000E+03 0.  0.
   -5000001    1    1    2    0    0 -0.80798476538E+02  0.11743801624E+03  0.87979420076E+03  0.90027046889E+03  0.12700000000E+03 0.  0.
<mgrwt>
<rscale>  0 0.38706336E+03</rscale>
<asrwt>0</asrwt>
<pdfrwt beam="1">  1        2 0.30412294E+00 0.38706336E+03</pdfrwt>
<pdfrwt beam="2">  1       -2 0.25133842E-02 0.38706336E+03</pdfrwt>
<totfact> 0.42053532E+03</totfact>
</mgrwt>
</event>
<event>
 4    1  0.2621617E-004  0.5113245E+03  0.7818608E-02  0.1010865E+00
         -2   -1    0    0    0  501 -0.00000000000E+00  0.00000000000E+00  0.68111707172E+02  0.68111707219E+02  0.25500000000E-02 0. -1.
          2   -1    0    0  501    0  0.00000000000E+00 -0.00000000000E+00 -0.95964678986E+03  0.95964678986E+03  0.25500000000E-02 0.  1.
    5000001    1    1    2    0    0  0.20723358972E+03  0.13734092891E+02 -0.60275035726E+03  0.65005490475E+03  0.12700000000E+03 0.  0.
   -5000001    1    1    2    0    0 -0.20723358972E+03 -0.13734092891E+02 -0.28878472543E+03  0.37770359233E+03  0.12700000000E+03 0.  0.
<mgrwt>
<rscale>  0 0.51132448E+03</rscale>
<asrwt>0</asrwt>
<pdfrwt beam="1">  1        2 0.13709239E+00 0.51132448E+03</pdfrwt>
<pdfrwt beam="2">  1       -2 0.97302445E-02 0.51132448E+03</pdfrwt>
<totfact> 0.21397921E+03</totfact>
</mgrwt>
</event>
<event>
 4    1  0.2621617E-004  0.3969885E+03  0.7818608E-02  0.1044827E+00
          2   -1    0    0  501    0  0.00000000000E+00  0.00000000000E+00  0.35994475516E+02  0.35994475606E+02  0.25500000000E-02 0.  1.
         -2   -1    0    0    0  501 -0.00000000000E+00 -0.00000000000E+00 -0.10946115195E+04  0.10946115195E+04  0.25500000000E-02 0. -1.
    5000001    1    1    2    0    0  0.44551401367E+02  0.14584971382E+03 -0.53996505837E+03  0.57528100146E+03  0.12700000000E+03 0.  0.
   -5000001    1    1    2    0    0 -0.44551401367E+02 -0.14584971382E+03 -0.51865198560E+03  0.55532499363E+03  0.12700000000E+03 0.  0.
<mgrwt>
<rscale>  0 0.39698850E+03</rscale>
<asrwt>0</asrwt>
<pdfrwt beam="1">  1        2 0.51420686E-02 0.39698850E+03</pdfrwt>
<pdfrwt beam="2">  1       -2 0.15637305E+00 0.39698850E+03</pdfrwt>
<totfact> 0.43289051E+02</totfact>
</mgrwt>
</event>
<event>
 4    1  0.2621617E-004  0.3318488E+03  0.7818608E-02  0.1070322E+00
          2   -1    0    0  501    0  0.00000000000E+00  0.00000000000E+00  0.53708536049E+03  0.53708536049E+03  0.25500000000E-02 0.  1.
         -2   -1    0    0    0  501 -0.00000000000E+00 -0.00000000000E+00 -0.51259824451E+02  0.51259824515E+02  0.25500000000E-02 0. -1.
    5000001    1    1    2    0    0  0.76941654539E+02  0.62764738934E+02  0.31254341792E+03  0.35167004242E+03  0.12700000000E+03 0.  0.
   -5000001    1    1    2    0    0 -0.76941654539E+02 -0.62764738934E+02  0.17328211812E+03  0.23667514258E+03  0.12700000000E+03 0.  0.
<mgrwt>
<rscale>  0 0.33184877E+03</rscale>
<asrwt>0</asrwt>
<pdfrwt beam="1">  1        2 0.76726478E-01 0.33184877E+03</pdfrwt>
<pdfrwt beam="2">  1       -2 0.73228322E-02 0.33184877E+03</pdfrwt>
<totfact> 0.67996745E+03</totfact>
</mgrwt>
</event>
<event>
 4    1  0.2621617E-004  0.2824616E+03  0.7818608E-02  0.1094352E+00
         -2   -1    0    0    0  501 -0.00000000000E+00  0.00000000000E+00  0.14949692770E+03  0.14949692772E+03  0.25500000000E-02 0. -1.
          2   -1    0    0  501    0  0.00000000000E+00 -0.00000000000E+00 -0.13342176939E+03  0.13342176941E+03  0.25500000000E-02 0.  1.
    5000001    1    1    2    0    0  0.20957214717E+02 -0.57993450073E+02  0.11877778104E+02  0.14167754484E+03  0.12700000000E+03 0.  0.
   -5000001    1    1    2    0    0 -0.20957214717E+02  0.57993450073E+02  0.41973802109E+01  0.14124115229E+03  0.12700000000E+03 0.  0.
<mgrwt>
<rscale>  0 0.28246164E+03</rscale>
<asrwt>0</asrwt>
<pdfrwt beam="1">  1        2 0.19060253E-01 0.28246164E+03</pdfrwt>
<pdfrwt beam="2">  1       -2 0.21356704E-01 0.28246164E+03</pdfrwt>
<totfact> 0.54759905E+03</totfact>
</mgrwt>
</event>
<event>
 4    1  0.2621617E-004  0.5457744E+03  0.7818608E-02  0.1002477E+00
          2   -1    0    0  501    0  0.00000000000E+00  0.00000000000E+00  0.98269546862E+03  0.98269546862E+03  0.25500000000E-02 0.  1.
         -2   -1    0    0    0  501 -0.00000000000E+00 -0.00000000000E+00 -0.75778740838E+02  0.75778740881E+02  0.25500000000E-02 0. -1.
    5000001    1    1    2    0    0  0.58158347107E+02 -0.23121388748E+03  0.52847500427E+03  0.59351249797E+03  0.12700000000E+03 0.  0.
   -5000001    1    1    2    0    0 -0.58158347107E+02  0.23121388748E+03  0.37844172351E+03  0.46496171154E+03  0.12700000000E+03 0.  0.
<mgrwt>
<rscale>  0 0.54577440E+03</rscale>
<asrwt>0</asrwt>
<pdfrwt beam="1">  1        2 0.14038507E+00 0.54577440E+03</pdfrwt>
<pdfrwt beam="2">  1       -2 0.10825534E-01 0.54577440E+03</pdfrwt>
<totfact> 0.17419070E+03</totfact>
</mgrwt>
</event>
<event>
 4    1  0.2621617E-004  0.4006887E+03  0.7818608E-02  0.1043541E+00
         -2   -1    0    0    0  501 -0.00000000000E+00  0.00000000000E+00  0.12588939569E+03  0.12588939571E+03  0.25500000000E-02 0. -1.
          2   -1    0    0  501    0  0.00000000000E+00 -0.00000000000E+00 -0.31883433809E+03  0.31883433810E+03  0.25500000000E-02 0.  1.
    5000001    1    1    2    0    0  0.80487179386E+02 -0.93510248518E+02  0.75653827758E+01  0.17722468124E+03  0.12700000000E+03 0.  0.
   -5000001    1    1    2    0    0 -0.80487179386E+02  0.93510248518E+02 -0.20051032518E+03  0.26749905257E+03  0.12700000000E+03 0.  0.
<mgrwt>
<rscale>  0 0.40068872E+03</rscale>
<asrwt>0</asrwt>
<pdfrwt beam="1">  1        2 0.45547762E-01 0.40068872E+03</pdfrwt>
<pdfrwt beam="2">  1       -2 0.17984199E-01 0.40068872E+03</pdfrwt>
<totfact> 0.28172231E+03</totfact>
</mgrwt>
</event>
<event>
 4    1  0.2621617E-004  0.4616029E+03  0.7818608E-02  0.1024317E+00
          2   -1    0    0  501    0  0.00000000000E+00  0.00000000000E+00  0.20072180465E+04  0.20072180465E+04  0.25500000000E-02 0.  1.
         -2   -1    0    0    0  501 -0.00000000000E+00 -0.00000000000E+00 -0.26538872055E+02  0.26538872177E+02  0.25500000000E-02 0. -1.
    5000001    1    1    2    0    0 -0.91662170813E+02 -0.12395945678E+03  0.48085005985E+03  0.52068577909E+03  0.12700000000E+03 0.  0.
   -5000001    1    1    2    0    0  0.91662170813E+02  0.12395945678E+03  0.14998291146E+04  0.15130711396E+04  0.12700000000E+03 0.  0.
<mgrwt>
<rscale>  0 0.46160287E+03</rscale>
<asrwt>0</asrwt>
<pdfrwt beam="1">  1        2 0.28674549E+00 0.46160287E+03</pdfrwt>
<pdfrwt beam="2">  1       -2 0.37912667E-02 0.46160287E+03</pdfrwt>
<totfact> 0.25933570E+03</totfact>
</mgrwt>
</event>
<event>
 4    1  0.2621617E-004  0.3718200E+03  0.7818608E-02  0.1053999E+00
          2   -1    0    0  501    0  0.00000000000E+00  0.00000000000E+00  0.88205061845E+03  0.88205061845E+03  0.25500000000E-02 0.  1.
         -2   -1    0    0    0  501 -0.00000000000E+00 -0.00000000000E+00 -0.39184291463E+02  0.39184291546E+02  0.25500000000E-02 0. -1.
    5000001    1    1    2    0    0  0.44154003307E+01 -0.13432794664E+03  0.46909374771E+03  0.50422359837E+03  0.12700000000E+03 0.  0.
   -5000001    1    1    2    0    0 -0.44154003307E+01  0.13432794664E+03  0.37377257927E+03  0.41701131163E+03  0.12700000000E+03 0.  0.
<mgrwt>
<rscale>  0 0.37182000E+03</rscale>
<asrwt>0</asrwt>
<pdfrwt beam="1">  1        2 0.12600722E+00 0.37182000E+03</pdfrwt>
<pdfrwt beam="2">  1       -2 0.55977565E-02 0.37182000E+03</pdfrwt>
<totfact> 0.57021766E+03</totfact>
</mgrwt>
</event>
<event>
 4    1  0.2621617E-004  0.3589109E+03  0.7818608E-02  0.1059016E+00
         -2   -1    0    0    0  501 -0.00000000000E+00  0.00000000000E+00  0.22385700732E+02  0.22385700878E+02  0.25500000000E-02 0. -1.
          2   -1    0    0  501    0  0.00000000000E+00 -0.00000000000E+00 -0.14386087273E+04  0.14386087273E+04  0.25500000000E-02 0.  1.
    5000001    1    1    2    0    0  0.91107051378E+02 -0.23046905129E+02 -0.10545605819E+04  0.10663295342E+04  0.12700000000E+03 0.  0.
   -5000001    1    1    2    0    0 -0.91107051378E+02  0.23046905129E+02 -0.36166244472E+03  0.39466489402E+03  0.12700000000E+03 0.  0.
<mgrwt>
<rscale>  0 0.35891093E+03</rscale>
<asrwt>0</asrwt>
<pdfrwt beam="1">  1        2 0.20551547E+00 0.35891093E+03</pdfrwt>
<pdfrwt beam="2">  1       -2 0.31979582E-02 0.35891093E+03</pdfrwt>
<totfact> 0.64811685E+03</totfact>
</mgrwt>
</event>
<event>
 4    1  0.2621617E-004  0.6453137E+03  0.7818608E-02  0.9815613E-01
          2   -1    0    0  501    0  0.00000000000E+00  0.00000000000E+00  0.13478202948E+03  0.13478202950E+03  0.25500000000E-02 0.  1.
         -2   -1    0    0    0  501 -0.00000000000E+00 -0.00000000000E+00 -0.77241334389E+03  0.77241334390E+03  0.25500000000E-02 0. -1.
    5000001    1    1    2    0    0  0.25356451968E+03  0.10412529019E+03 -0.15950821029E+03  0.34162685908E+03  0.12700000000E+03 0.  0.
   -5000001    1    1    2    0    0 -0.25356451968E+03 -0.10412529019E+03 -0.47812310412E+03  0.56556851432E+03  0.12700000000E+03 0.  0.
<mgrwt>
<rscale>  0 0.64531369E+03</rscale>
<asrwt>0</asrwt>
<pdfrwt beam="1">  1        2 0.19254576E-01 0.64531369E+03</pdfrwt>
<pdfrwt beam="2">  1       -2 0.11034476E+00 0.64531369E+03</pdfrwt>
<totfact> 0.19604974E+02</totfact>
</mgrwt>
</event>
<event>
 4    1  0.2621617E-004  0.3716985E+03  0.7818608E-02  0.1054045E+00
         -2   -1    0    0    0  501 -0.00000000000E+00  0.00000000000E+00  0.11650135647E+02  0.11650135926E+02  0.25500000000E-02 0. -1.
          2   -1    0    0  501    0  0.00000000000E+00 -0.00000000000E+00 -0.29647668209E+04  0.29647668209E+04  0.25500000000E-02 0.  1.
    5000001    1    1    2    0    0  0.48857227154E+02  0.12643366554E+03 -0.15262027035E+04  0.15374642085E+04  0.12700000000E+03 0.  0.
   -5000001    1    1    2    0    0 -0.48857227154E+02 -0.12643366554E+03 -0.14269139818E+04  0.14389527483E+04  0.12700000000E+03 0.  0.
<mgrwt>
<rscale>  0 0.37169846E+03</rscale>
<asrwt>0</asrwt>
<pdfrwt beam="1">  1        2 0.42353764E+00 0.37169846E+03</pdfrwt>
<pdfrwt beam="2">  1       -2 0.16643070E-02 0.37169846E+03</pdfrwt>
<totfact> 0.29135336E+03</totfact>
</mgrwt>
</event>
<event>
 4    1  0.2621617E-004  0.3211575E+03  0.7818608E-02  0.1075118E+00
         -2   -1    0    0    0  501 -0.00000000000E+00  0.00000000000E+00  0.16368286113E+03  0.16368286115E+03  0.25500000000E-02 0. -1.
          2   -1    0    0  501    0  0.00000000000E+00 -0.00000000000E+00 -0.15753353797E+03  0.15753353799E+03  0.25500000000E-02 0.  1.
    5000001    1    1    2    0    0 -0.73396145541E+02 -0.63635035477E+02 -0.11764779389E+02  0.16032411532E+03  0.12700000000E+03 0.  0.
   -5000001    1    1    2    0    0  0.73396145541E+02  0.63635035477E+02  0.17914102555E+02  0.16089228381E+03  0.12700000000E+03 0.  0.
<mgrwt>
<rscale>  0 0.32115753E+03</rscale>
<asrwt>0</asrwt>
<pdfrwt beam="1">  1        2 0.22504791E-01 0.32115753E+03</pdfrwt>
<pdfrwt beam="2">  1       -2 0.23383266E-01 0.32115753E+03</pdfrwt>
<totfact> 0.38831402E+03</totfact>
</mgrwt>
</event>
<event>
 4    1  0.2621617E-004  0.4101761E+03  0.7818608E-02  0.1040312E+00
         -2   -1    0    0    0  501 -0.00000000000E+00  0.00000000000E+00  0.48009217445E+02  0.48009217513E+02  0.25500000000E-02 0. -1.
          2   -1    0    0  501    0  0.00000000000E+00 -0.00000000000E+00 -0.87610485212E+03  0.87610485213E+03  0.25500000000E-02 0.  1.
    5000001    1    1    2    0    0  0.13971596325E+03 -0.58565022033E+02 -0.29102464396E+03  0.35181636628E+03  0.12700000000E+03 0.  0.
   -5000001    1    1    2    0    0 -0.13971596325E+03  0.58565022033E+02 -0.53707099072E+03  0.57229770335E+03  0.12700000000E+03 0.  0.
<mgrwt>
<rscale>  0 0.41017610E+03</rscale>
<asrwt>0</asrwt>
<pdfrwt beam="1">  1        2 0.12515783E+00 0.41017610E+03</pdfrwt>
<pdfrwt beam="2">  1       -2 0.68584602E-02 0.41017610E+03</pdfrwt>
<totfact> 0.42038199E+03</totfact>
</mgrwt>
</event>
<event>
 4    1  0.2621617E-004  0.4451782E+03  0.7818608E-02  0.1029170E+00
          2   -1    0    0  501    0  0.00000000000E+00  0.00000000000E+00  0.39833287547E+03  0.39833287548E+03  0.25500000000E-02 0.  1.
         -2   -1    0    0    0  501 -0.00000000000E+00 -0.00000000000E+00 -0.12438317240E+03  0.12438317242E+03  0.25500000000E-02 0. -1.
    5000001    1    1    2    0    0  0.85444655789E+02  0.16157303551E+03  0.14073801935E+03  0.26333025861E+03  0.12700000000E+03 0.  0.
   -5000001    1    1    2    0    0 -0.85444655789E+02 -0.16157303551E+03  0.13321168372E+03  0.25938578929E+03  0.12700000000E+03 0.  0.
<mgrwt>
<rscale>  0 0.44517820E+03</rscale>
<asrwt>0</asrwt>
<pdfrwt beam="1">  1        2 0.56904696E-01 0.44517820E+03</pdfrwt>
<pdfrwt beam="2">  1       -2 0.17769025E-01 0.44517820E+03</pdfrwt>
<totfact> 0.22570192E+03</totfact>
</mgrwt>
</event>
<event>
 4    1  0.2621617E-004  0.9858883E+03  0.7818608E-02  0.9324159E-01
          2   -1    0    0  501    0  0.00000000000E+00  0.00000000000E+00  0.12793303741E+04  0.12793303741E+04  0.25500000000E-02 0.  1.
         -2   -1    0    0    0  501 -0.00000000000E+00 -0.00000000000E+00 -0.18993837837E+03  0.18993837839E+03  0.25500000000E-02 0. -1.
    5000001    1    1    2    0    0 -0.22755363997E+03 -0.40590300630E+03  0.69614317611E+03  0.84692516271E+03  0.12700000000E+03 0.  0.
   -5000001    1    1    2    0    0  0.22755363997E+03  0.40590300630E+03  0.39324881958E+03  0.62234358974E+03  0.12700000000E+03 0.  0.
<mgrwt>
<rscale>  0 0.98588830E+03</rscale>
<asrwt>0</asrwt>
<pdfrwt beam="1">  1        2 0.18276149E+00 0.98588830E+03</pdfrwt>
<pdfrwt beam="2">  1       -2 0.27134052E-01 0.98588830E+03</pdfrwt>
<totfact> 0.23717934E+02</totfact>
</mgrwt>
</event>
<event>
 4    1  0.2621617E-004  0.1339572E+04  0.7818608E-02  0.8998760E-01
          2   -1    0    0  501    0  0.00000000000E+00  0.00000000000E+00  0.19638904947E+04  0.19638904947E+04  0.25500000000E-02 0.  1.
         -2   -1    0    0    0  501 -0.00000000000E+00 -0.00000000000E+00 -0.22843092575E+03  0.22843092576E+03  0.25500000000E-02 0. -1.
    5000001    1    1    2    0    0  0.55669833819E+03  0.34421380616E+03  0.76308899401E+03  0.10133262046E+04  0.12700000000E+03 0.  0.
   -5000001    1    1    2    0    0 -0.55669833819E+03 -0.34421380616E+03  0.97237057493E+03  0.11789952159E+04  0.12700000000E+03 0.  0.
<mgrwt>
<rscale>  0 0.13395721E+04</rscale>
<asrwt>0</asrwt>
<pdfrwt beam="1">  1        2 0.28055582E+00 0.13395721E+04</pdfrwt>
<pdfrwt beam="2">  1       -2 0.32632985E-01 0.13395721E+04</pdfrwt>
<totfact> 0.71707943E+01</totfact>
</mgrwt>
</event>
<event>
 4    1  0.2621617E-004  0.3823410E+03  0.7818608E-02  0.1050072E+00
         -2   -1    0    0    0  501 -0.00000000000E+00  0.00000000000E+00  0.86053627369E+03  0.86053627369E+03  0.25500000000E-02 0. -1.
          2   -1    0    0  501    0  0.00000000000E+00 -0.00000000000E+00 -0.42469062476E+02  0.42469062552E+02  0.25500000000E-02 0.  1.
    5000001    1    1    2    0    0  0.57423939551E+02 -0.10062042272E+03  0.60656638127E+03  0.63045519523E+03  0.12700000000E+03 0.  0.
   -5000001    1    1    2    0    0 -0.57423939551E+02  0.10062042272E+03  0.21150082994E+03  0.27255014101E+03  0.12700000000E+03 0.  0.
<mgrwt>
<rscale>  0 0.38234105E+03</rscale>
<asrwt>0</asrwt>
<pdfrwt beam="1">  1        2 0.60670091E-02 0.38234105E+03</pdfrwt>
<pdfrwt beam="2">  1       -2 0.12293375E+00 0.38234105E+03</pdfrwt>
<totfact> 0.64147116E+02</totfact>
</mgrwt>
</event>
<event>
 4    1  0.2621617E-004  0.4701849E+03  0.7818608E-02  0.1021868E+00
         -2   -1    0    0    0  501 -0.00000000000E+00  0.00000000000E+00  0.26184776712E+02  0.26184776836E+02  0.25500000000E-02 0. -1.
          2   -1    0    0  501    0  0.00000000000E+00 -0.00000000000E+00 -0.21107094480E+04  0.21107094480E+04  0.25500000000E-02 0.  1.
    5000001    1    1    2    0    0 -0.30287400671E+02 -0.16999632681E+03 -0.14810970849E+04  0.14965271974E+04  0.12700000000E+03 0.  0.
   -5000001    1    1    2    0    0  0.30287400671E+02  0.16999632681E+03 -0.60342758640E+03  0.64036702742E+03  0.12700000000E+03 0.  0.
<mgrwt>
<rscale>  0 0.47018488E+03</rscale>
<asrwt>0</asrwt>
<pdfrwt beam="1">  1        2 0.30152981E+00 0.47018488E+03</pdfrwt>
<pdfrwt beam="2">  1       -2 0.37406837E-02 0.47018488E+03</pdfrwt>
<totfact> 0.23501397E+03</totfact>
</mgrwt>
</event>
<event>
 4    1  0.2621617E-004  0.6181493E+03  0.7818608E-02  0.9868451E-01
          2   -1    0    0  501    0  0.00000000000E+00  0.00000000000E+00  0.10020444999E+04  0.10020444999E+04  0.25500000000E-02 0.  1.
         -2   -1    0    0    0  501 -0.00000000000E+00 -0.00000000000E+00 -0.95332239195E+02  0.95332239229E+02  0.25500000000E-02 0. -1.
    5000001    1    1    2    0    0  0.25479420116E+03  0.11957261573E+03  0.47720355653E+03  0.56839240824E+03  0.12700000000E+03 0.  0.
   -5000001    1    1    2    0    0 -0.25479420116E+03 -0.11957261573E+03  0.42950870420E+03  0.52898433092E+03  0.12700000000E+03 0.  0.
<mgrwt>
<rscale>  0 0.61814932E+03</rscale>
<asrwt>0</asrwt>
<pdfrwt beam="1">  1        2 0.14314922E+00 0.61814932E+03</pdfrwt>
<pdfrwt beam="2">  1       -2 0.13618890E-01 0.61814932E+03</pdfrwt>
<totfact> 0.11599363E+03</totfact>
</mgrwt>
</event>
<event>
 4    1  0.2621617E-004  0.5222475E+03  0.7818608E-02  0.1008130E+00
         -2   -1    0    0    0  501 -0.00000000000E+00  0.00000000000E+00  0.16947715445E+02  0.16947715637E+02  0.25500000000E-02 0.  1.
          2   -1    0    0  501    0  0.00000000000E+00 -0.00000000000E+00 -0.40232923173E+04  0.40232923173E+04  0.25500000000E-02 0. -1.
    5000001    1    1    2    0    0  0.25659602585E+02 -0.20100222354E+03 -0.28144213054E+04  0.28245630800E+04  0.12700000000E+03 0.  0.
   -5000001    1    1    2    0    0 -0.25659602585E+02  0.20100222354E+03 -0.11919232964E+04  0.12156769528E+04  0.12700000000E+03 0.  0.
<mgrwt>
<rscale>  0 0.52224750E+03</rscale>
<asrwt>0</asrwt>
<pdfrwt beam="1">  1        2 0.57475543E+00 0.52224750E+03</pdfrwt>
<pdfrwt beam="2">  1       -2 0.24211048E-02 0.52224750E+03</pdfrwt>
<totfact> 0.38648027E+02</totfact>
</mgrwt>
</event>
<event>
 4    1  0.2621617E-004  0.7078974E+03  0.7818608E-02  0.9703821E-01
          2   -1    0    0  501    0  0.00000000000E+00  0.00000000000E+00  0.19539906580E+04  0.19539906580E+04  0.25500000000E-02 0.  1.
         -2   -1    0    0    0  501 -0.00000000000E+00 -0.00000000000E+00 -0.64114781442E+02  0.64114781493E+02  0.25500000000E-02 0. -1.
    5000001    1    1    2    0    0  0.21564238138E+03 -0.23927911009E+03  0.11543257217E+04  0.12051360923E+04  0.12700000000E+03 0.  0.
   -5000001    1    1    2    0    0 -0.21564238138E+03  0.23927911009E+03  0.73555015480E+03  0.81296934715E+03  0.12700000000E+03 0.  0.
<mgrwt>
<rscale>  0 0.70789741E+03</rscale>
<asrwt>0</asrwt>
<pdfrwt beam="1">  1        2 0.27914149E+00 0.70789741E+03</pdfrwt>
<pdfrwt beam="2">  1       -2 0.91592554E-02 0.70789741E+03</pdfrwt>
<totfact> 0.68497127E+02</totfact>
</mgrwt>
</event>
<event>
 4    1  0.2621617E-004  0.3093668E+03  0.7818608E-02  0.1080650E+00
          2   -1    0    0  501    0  0.00000000000E+00  0.00000000000E+00  0.24872621578E+04  0.24872621578E+04  0.25500000000E-02 0.  1.
         -2   -1    0    0    0  501 -0.00000000000E+00 -0.00000000000E+00 -0.96197971578E+01  0.96197974958E+01  0.25500000000E-02 0. -1.
    5000001    1    1    2    0    0  0.46967575586E+02 -0.39985038721E+02  0.17488384467E+04  0.17545283323E+04  0.12700000000E+03 0.  0.
   -5000001    1    1    2    0    0 -0.46967575586E+02  0.39985038721E+02  0.72880391401E+03  0.74235362298E+03  0.12700000000E+03 0.  0.
<mgrwt>
<rscale>  0 0.30936682E+03</rscale>
<asrwt>0</asrwt>
<pdfrwt beam="1">  1        2 0.35532366E+00 0.30936682E+03</pdfrwt>
<pdfrwt beam="2">  1       -2 0.13742549E-02 0.30936682E+03</pdfrwt>
<totfact> 0.68252926E+03</totfact>
</mgrwt>
</event>
<event>
 4    1  0.2621617E-004  0.4635061E+03  0.7818608E-02  0.1023769E+00
          2   -1    0    0  501    0  0.00000000000E+00  0.00000000000E+00  0.11534049669E+04  0.11534049669E+04  0.25500000000E-02 0.  1.
         -2   -1    0    0    0  501 -0.00000000000E+00 -0.00000000000E+00 -0.46566023523E+02  0.46566023593E+02  0.25500000000E-02 0. -1.
    5000001    1    1    2    0    0 -0.18685645888E+03  0.25976090520E+02  0.43791885932E+03  0.49344910664E+03  0.12700000000E+03 0.  0.
   -5000001    1    1    2    0    0  0.18685645888E+03 -0.25976090520E+02  0.66892008411E+03  0.70652188390E+03  0.12700000000E+03 0.  0.
<mgrwt>
<rscale>  0 0.46350613E+03</rscale>
<asrwt>0</asrwt>
<pdfrwt beam="1">  1        2 0.16477211E+00 0.46350613E+03</pdfrwt>
<pdfrwt beam="2">  1       -2 0.66522902E-02 0.46350613E+03</pdfrwt>
<totfact> 0.30085876E+03</totfact>
</mgrwt>
</event>
<event>
 4    1  0.2621617E-004  0.3152059E+03  0.7818608E-02  0.1077877E+00
         -2   -1    0    0    0  501 -0.00000000000E+00  0.00000000000E+00  0.93160534293E+01  0.93160537783E+01  0.25500000000E-02 0. -1.
          2   -1    0    0  501    0  0.00000000000E+00 -0.00000000000E+00 -0.26662245574E+04  0.26662245574E+04  0.25500000000E-02 0.  1.
    5000001    1    1    2    0    0  0.55016528265E+02  0.75372486977E+02 -0.13168755939E+04  0.13262722797E+04  0.12700000000E+03 0.  0.
   -5000001    1    1    2    0    0 -0.55016528265E+02 -0.75372486977E+02 -0.13400329101E+04  0.13492683315E+04  0.12700000000E+03 0.  0.
<mgrwt>
<rscale>  0 0.31520591E+03</rscale>
<asrwt>0</asrwt>
<pdfrwt beam="1">  1        2 0.38088874E+00 0.31520591E+03</pdfrwt>
<pdfrwt beam="2">  1       -2 0.13308665E-02 0.31520591E+03</pdfrwt>
<totfact> 0.58088404E+03</totfact>
</mgrwt>
</event>
<event>
 4    1  0.2621617E-004  0.3441512E+03  0.7818608E-02  0.1065042E+00
          2   -1    0    0  501    0  0.00000000000E+00  0.00000000000E+00  0.98530041941E+03  0.98530041941E+03  0.25500000000E-02 0.  1.
         -2   -1    0    0    0  501 -0.00000000000E+00 -0.00000000000E+00 -0.30051767513E+02  0.30051767621E+02  0.25500000000E-02 0. -1.
    5000001    1    1    2    0    0 -0.19901252742E+02  0.93462948386E+02  0.28304627172E+03  0.32461604168E+03  0.12700000000E+03 0.  0.
   -5000001    1    1    2    0    0  0.19901252742E+02 -0.93462948386E+02  0.67220238017E+03  0.69073614535E+03  0.12700000000E+03 0.  0.
<mgrwt>
<rscale>  0 0.34415124E+03</rscale>
<asrwt>0</asrwt>
<pdfrwt beam="1">  1        2 0.14075718E+00 0.34415124E+03</pdfrwt>
<pdfrwt beam="2">  1       -2 0.42931104E-02 0.34415124E+03</pdfrwt>
<totfact> 0.73727533E+03</totfact>
</mgrwt>
</event>
<event>
 4    1  0.2621617E-004  0.3471859E+03  0.7818608E-02  0.1063776E+00
          2   -1    0    0  501    0  0.00000000000E+00  0.00000000000E+00  0.13876151665E+04  0.13876151665E+04  0.25500000000E-02 0.  1.
         -2   -1    0    0    0  501 -0.00000000000E+00 -0.00000000000E+00 -0.21716764081E+02  0.21716764231E+02  0.25500000000E-02 0. -1.
    5000001    1    1    2    0    0 -0.61516071573E+02 -0.99320842109E+02  0.75961031402E+03  0.77896449592E+03  0.12700000000E+03 0.  0.
   -5000001    1    1    2    0    0  0.61516071573E+02  0.99320842109E+02  0.60628808842E+03  0.63036743483E+03  0.12700000000E+03 0.  0.
<mgrwt>
<rscale>  0 0.34718589E+03</rscale>
<asrwt>0</asrwt>
<pdfrwt beam="1">  1        2 0.19823073E+00 0.34718589E+03</pdfrwt>
<pdfrwt beam="2">  1       -2 0.31023951E-02 0.34718589E+03</pdfrwt>
<totfact> 0.72059939E+03</totfact>
</mgrwt>
</event>
<event>
 4    1  0.2621617E-004  0.6136455E+03  0.7818608E-02  0.9877494E-01
          2   -1    0    0  501    0  0.00000000000E+00  0.00000000000E+00  0.19777990863E+04  0.19777990863E+04  0.25500000000E-02 0.  1.
         -2   -1    0    0    0  501 -0.00000000000E+00 -0.00000000000E+00 -0.47598461708E+02  0.47598461776E+02  0.25500000000E-02 0. -1.
    5000001    1    1    2    0    0  0.16340042233E+02 -0.18330503888E+03  0.16585675119E+04  0.16735719064E+04  0.12700000000E+03 0.  0.
   -5000001    1    1    2    0    0 -0.16340042233E+02  0.18330503888E+03  0.27163311274E+03  0.35182564175E+03  0.12700000000E+03 0.  0.
<mgrwt>
<rscale>  0 0.61364548E+03</rscale>
<asrwt>0</asrwt>
<pdfrwt beam="1">  1        2 0.28254272E+00 0.61364548E+03</pdfrwt>
<pdfrwt beam="2">  1       -2 0.67997805E-02 0.61364548E+03</pdfrwt>
<totfact> 0.10776635E+03</totfact>
</mgrwt>
</event>
<event>
 4    1  0.2621617E-004  0.2814549E+03  0.7818608E-02  0.1094897E+00
          2   -1    0    0  501    0  0.00000000000E+00  0.00000000000E+00  0.95080650143E+01  0.95080653563E+01  0.25500000000E-02 0.  1.
         -2   -1    0    0    0  501 -0.00000000000E+00 -0.00000000000E+00 -0.20828855373E+04  0.20828855373E+04  0.25500000000E-02 0. -1.
    5000001    1    1    2    0    0 -0.56061254027E+02  0.19925561836E+02 -0.11231684808E+04  0.11318905992E+04  0.12700000000E+03 0.  0.
   -5000001    1    1    2    0    0  0.56061254027E+02 -0.19925561836E+02 -0.95020899150E+03  0.96050300351E+03  0.12700000000E+03 0.  0.
<mgrwt>
<rscale>  0 0.28145487E+03</rscale>
<asrwt>0</asrwt>
<pdfrwt beam="1">  1        2 0.13582964E-02 0.28145487E+03</pdfrwt>
<pdfrwt beam="2">  1       -2 0.29755478E+00 0.28145487E+03</pdfrwt>
<totfact> 0.35534454E+02</totfact>
</mgrwt>
</event>
<event>
 4    1  0.2621617E-004  0.3719563E+03  0.7818608E-02  0.1053947E+00
         -2   -1    0    0    0  501 -0.00000000000E+00  0.00000000000E+00  0.15350483976E+02  0.15350484188E+02  0.25500000000E-02 0. -1.
          2   -1    0    0  501    0  0.00000000000E+00 -0.00000000000E+00 -0.22532105701E+04  0.22532105701E+04  0.25500000000E-02 0.  1.
    5000001    1    1    2    0    0 -0.12223314846E+03 -0.56983437795E+02 -0.10185615289E+04  0.10352703236E+04  0.12700000000E+03 0.  0.
   -5000001    1    1    2    0    0  0.12223314846E+03  0.56983437795E+02 -0.12192985572E+04  0.12332907307E+04  0.12700000000E+03 0.  0.
<mgrwt>
<rscale>  0 0.37195630E+03</rscale>
<asrwt>0</asrwt>
<pdfrwt beam="1">  1        2 0.32188701E+00 0.37195630E+03</pdfrwt>
<pdfrwt beam="2">  1       -2 0.21929277E-02 0.37195630E+03</pdfrwt>
<totfact> 0.44740099E+03</totfact>
</mgrwt>
</event>
<event>
 4    1  0.2621617E-004  0.4248188E+03  0.7818608E-02  0.1035509E+00
         -2   -1    0    0    0  501 -0.00000000000E+00  0.00000000000E+00  0.19349616512E+02  0.19349616680E+02  0.25500000000E-02 0. -1.
          2   -1    0    0  501    0  0.00000000000E+00 -0.00000000000E+00 -0.23317132045E+04  0.23317132045E+04  0.25500000000E-02 0.  1.
    5000001    1    1    2    0    0 -0.14015338737E+03  0.80845963416E+02 -0.86282807106E+03  0.88700638217E+03  0.12700000000E+03 0.  0.
   -5000001    1    1    2    0    0  0.14015338737E+03 -0.80845963416E+02 -0.14495355170E+04  0.14640564391E+04  0.12700000000E+03 0.  0.
<mgrwt>
<rscale>  0 0.42481882E+03</rscale>
<asrwt>0</asrwt>
<pdfrwt beam="1">  1        2 0.33310171E+00 0.42481882E+03</pdfrwt>
<pdfrwt beam="2">  1       -2 0.27642324E-02 0.42481882E+03</pdfrwt>
<totfact> 0.28866271E+03</totfact>
</mgrwt>
</event>
<event>
 4    1  0.2621617E-004  0.4519977E+03  0.7818608E-02  0.1027128E+00
          2   -1    0    0  501    0  0.00000000000E+00  0.00000000000E+00  0.57446514693E+03  0.57446514693E+03  0.25500000000E-02 0.  1.
         -2   -1    0    0    0  501 -0.00000000000E+00 -0.00000000000E+00 -0.88909624646E+02  0.88909624682E+02  0.25500000000E-02 0. -1.
    5000001    1    1    2    0    0  0.34522374026E+02  0.16101145347E+03  0.11290934198E+03  0.23663051781E+03  0.12700000000E+03 0.  0.
   -5000001    1    1    2    0    0 -0.34522374026E+02 -0.16101145347E+03  0.37264618030E+03  0.42674425380E+03  0.12700000000E+03 0.  0.
<mgrwt>
<rscale>  0 0.45199770E+03</rscale>
<asrwt>0</asrwt>
<pdfrwt beam="1">  1        2 0.82066448E-01 0.45199770E+03</pdfrwt>
<pdfrwt beam="2">  1       -2 0.12701375E-01 0.45199770E+03</pdfrwt>
<totfact> 0.26247545E+03</totfact>
</mgrwt>
</event>
<event>
 4    1  0.2621617E-004  0.5872611E+03  0.7818608E-02  0.9932193E-01
         -2   -1    0    0    0  501 -0.00000000000E+00  0.00000000000E+00  0.89019362106E+02  0.89019362143E+02  0.25500000000E-02 0. -1.
          2   -1    0    0  501    0  0.00000000000E+00 -0.00000000000E+00 -0.96854091952E+03  0.96854091952E+03  0.25500000000E-02 0.  1.
    5000001    1    1    2    0    0 -0.21463592316E+03  0.62625220188E+02 -0.18445218939E+03  0.31645237854E+03  0.12700000000E+03 0.  0.
   -5000001    1    1    2    0    0  0.21463592316E+03 -0.62625220188E+02 -0.69506936802E+03  0.74110790313E+03  0.12700000000E+03 0.  0.
<mgrwt>
<rscale>  0 0.58726108E+03</rscale>
<asrwt>0</asrwt>
<pdfrwt beam="1">  1        2 0.13836298E+00 0.58726108E+03</pdfrwt>
<pdfrwt beam="2">  1       -2 0.12717052E-01 0.58726108E+03</pdfrwt>
<totfact> 0.13637223E+03</totfact>
</mgrwt>
</event>
<event>
 4    1  0.2621617E-004  0.3290858E+03  0.7818608E-02  0.1071542E+00
         -2   -1    0    0    0  501 -0.00000000000E+00  0.00000000000E+00  0.17638644507E+02  0.17638644691E+02  0.25500000000E-02 0. -1.
          2   -1    0    0  501    0  0.00000000000E+00 -0.00000000000E+00 -0.15349455497E+04  0.15349455497E+04  0.25500000000E-02 0.  1.
    5000001    1    1    2    0    0 -0.55532326463E+02 -0.86902122786E+02 -0.67564830469E+03  0.69517296399E+03  0.12700000000E+03 0.  0.
   -5000001    1    1    2    0    0  0.55532326463E+02  0.86902122786E+02 -0.84165860049E+03  0.85741123039E+03  0.12700000000E+03 0.  0.
<mgrwt>
<rscale>  0 0.32908576E+03</rscale>
<asrwt>0</asrwt>
<pdfrwt beam="1">  1        2 0.21927785E+00 0.32908576E+03</pdfrwt>
<pdfrwt beam="2">  1       -2 0.25198073E-02 0.32908576E+03</pdfrwt>
<totfact> 0.82546632E+03</totfact>
</mgrwt>
</event>
<event>
 4    1  0.2621617E-004  0.5825184E+03  0.7818608E-02  0.9942353E-01
          2   -1    0    0  501    0  0.00000000000E+00  0.00000000000E+00  0.25906909992E+03  0.25906909993E+03  0.25500000000E-02 0.  1.
         -2   -1    0    0    0  501 -0.00000000000E+00 -0.00000000000E+00 -0.32744906098E+03  0.32744906099E+03  0.25500000000E-02 0. -1.
    5000001    1    1    2    0    0 -0.20028773467E+03 -0.64256830336E+02 -0.19165696327E+03  0.31161756765E+03  0.12700000000E+03 0.  0.
   -5000001    1    1    2    0    0  0.20028773467E+03  0.64256830336E+02  0.12327700221E+03  0.27490059326E+03  0.12700000000E+03 0.  0.
<mgrwt>
<rscale>  0 0.58251844E+03</rscale>
<asrwt>0</asrwt>
<pdfrwt beam="1">  1        2 0.37009871E-01 0.58251844E+03</pdfrwt>
<pdfrwt beam="2">  1       -2 0.46778437E-01 0.58251844E+03</pdfrwt>
<totfact> 0.61271816E+02</totfact>
</mgrwt>
</event>
<event>
 4    1  0.2621617E-004  0.3015351E+03  0.7818608E-02  0.1084476E+00
         -2   -1    0    0    0  501 -0.00000000000E+00  0.00000000000E+00  0.10459579333E+03  0.10459579336E+03  0.25500000000E-02 0. -1.
          2   -1    0    0  501    0  0.00000000000E+00 -0.00000000000E+00 -0.21732089650E+03  0.21732089652E+03  0.25500000000E-02 0.  1.
    5000001    1    1    2    0    0  0.48610888613E+02  0.61030916643E+02 -0.32157128375E+02  0.15248236679E+03  0.12700000000E+03 0.  0.
   -5000001    1    1    2    0    0 -0.48610888613E+02 -0.61030916643E+02 -0.80567974796E+02  0.16943432309E+03  0.12700000000E+03 0.  0.
<mgrwt>
<rscale>  0 0.30153508E+03</rscale>
<asrwt>0</asrwt>
<pdfrwt beam="1">  1        2 0.31045842E-01 0.30153508E+03</pdfrwt>
<pdfrwt beam="2">  1       -2 0.14942256E-01 0.30153508E+03</pdfrwt>
<totfact> 0.57999417E+03</totfact>
</mgrwt>
</event>
<event>
 4    1  0.2621617E-004  0.8059533E+03  0.7818608E-02  0.9551440E-01
         -2   -1    0    0    0  501 -0.00000000000E+00  0.00000000000E+00  0.28056899917E+03  0.28056899919E+03  0.25500000000E-02 0. -1.
          2   -1    0    0  501    0  0.00000000000E+00 -0.00000000000E+00 -0.57878879936E+03  0.57878879937E+03  0.25500000000E-02 0.  1.
    5000001    1    1    2    0    0  0.11841885447E+03 -0.35859381541E+03 -0.84703368876E+02  0.40732813583E+03  0.12700000000E+03 0.  0.
   -5000001    1    1    2    0    0 -0.11841885447E+03  0.35859381541E+03 -0.21351643131E+03  0.45202966272E+03  0.12700000000E+03 0.  0.
<mgrwt>
<rscale>  0 0.80595333E+03</rscale>
<asrwt>0</asrwt>
<pdfrwt beam="1">  1        2 0.82684114E-01 0.80595333E+03</pdfrwt>
<pdfrwt beam="2">  1       -2 0.40081286E-01 0.80595333E+03</pdfrwt>
<totfact> 0.33511117E+02</totfact>
</mgrwt>
</event>
<event>
 4    1  0.2621617E-004  0.3312095E+03  0.7818608E-02  0.1070603E+00
         -2   -1    0    0    0  501 -0.00000000000E+00  0.00000000000E+00  0.91219878326E+02  0.91219878362E+02  0.25500000000E-02 0. -1.
          2   -1    0    0  501    0  0.00000000000E+00 -0.00000000000E+00 -0.30064654060E+03  0.30064654061E+03  0.25500000000E-02 0.  1.
    5000001    1    1    2    0    0 -0.35574040746E+02 -0.88849157225E+02 -0.50029135962E+02  0.16670812686E+03  0.12700000000E+03 0.  0.
   -5000001    1    1    2    0    0  0.35574040746E+02  0.88849157225E+02 -0.15939752631E+03  0.22515829212E+03  0.12700000000E+03 0.  0.
<mgrwt>
<rscale>  0 0.33120955E+03</rscale>
<asrwt>0</asrwt>
<pdfrwt beam="1">  1        2 0.42949506E-01 0.33120955E+03</pdfrwt>
<pdfrwt beam="2">  1       -2 0.13031411E-01 0.33120955E+03</pdfrwt>
<totfact> 0.51167890E+03</totfact>
</mgrwt>
</event>
<event>
 4    1  0.2621617E-004  0.3326069E+03  0.7818608E-02  0.1069989E+00
          2   -1    0    0  501    0  0.00000000000E+00  0.00000000000E+00  0.34177211583E+04  0.34177211583E+04  0.25500000000E-02 0.  1.
         -2   -1    0    0    0  501 -0.00000000000E+00 -0.00000000000E+00 -0.80921873689E+01  0.80921877706E+01  0.25500000000E-02 0. -1.
    5000001    1    1    2    0    0 -0.86828728018E+02 -0.63124980077E+02  0.16846058096E+04  0.16927934679E+04  0.12700000000E+03 0.  0.
   -5000001    1    1    2    0    0  0.86828728018E+02  0.63124980077E+02  0.17250231613E+04  0.17330198782E+04  0.12700000000E+03 0.  0.
<mgrwt>
<rscale>  0 0.33260692E+03</rscale>
<asrwt>0</asrwt>
<pdfrwt beam="1">  1        2 0.48824578E+00 0.33260692E+03</pdfrwt>
<pdfrwt beam="2">  1       -2 0.11560270E-02 0.33260692E+03</pdfrwt>
<totfact> 0.28093559E+03</totfact>
</mgrwt>
</event>
<event>
 4    1  0.2621617E-004  0.3807327E+03  0.7818608E-02  0.1050663E+00
          2   -1    0    0  501    0  0.00000000000E+00  0.00000000000E+00  0.11004934265E+04  0.11004934265E+04  0.25500000000E-02 0.  1.
         -2   -1    0    0    0  501 -0.00000000000E+00 -0.00000000000E+00 -0.32930083311E+02  0.32930083410E+02  0.25500000000E-02 0. -1.
    5000001    1    1    2    0    0  0.13935558072E+02 -0.13951080450E+03  0.47042947216E+03  0.50704078005E+03  0.12700000000E+03 0.  0.
   -5000001    1    1    2    0    0 -0.13935558072E+02  0.13951080450E+03  0.59713387107E+03  0.62638272991E+03  0.12700000000E+03 0.  0.
<mgrwt>
<rscale>  0 0.38073266E+03</rscale>
<asrwt>0</asrwt>
<pdfrwt beam="1">  1        2 0.15721333E+00 0.38073266E+03</pdfrwt>
<pdfrwt beam="2">  1       -2 0.47042982E-02 0.38073266E+03</pdfrwt>
<totfact> 0.55015789E+03</totfact>
</mgrwt>
</event>
<event>
 4    1  0.2621617E-004  0.7840934E+03  0.7818608E-02  0.9583331E-01
          2   -1    0    0  501    0  0.00000000000E+00  0.00000000000E+00  0.13348009716E+03  0.13348009718E+03  0.25500000000E-02 0.  1.
         -2   -1    0    0    0  501 -0.00000000000E+00 -0.00000000000E+00 -0.11514871725E+04  0.11514871725E+04  0.25500000000E-02 0. -1.
    5000001    1    1    2    0    0  0.34710494574E+02  0.35767768823E+03 -0.35850666357E+03  0.52325345189E+03  0.12700000000E+03 0.  0.
   -5000001    1    1    2    0    0 -0.34710494574E+02 -0.35767768823E+03 -0.65950041181E+03  0.76171381783E+03  0.12700000000E+03 0.  0.
<mgrwt>
<rscale>  0 0.78409341E+03</rscale>
<asrwt>0</asrwt>
<pdfrwt beam="1">  1        2 0.19068586E-01 0.78409341E+03</pdfrwt>
<pdfrwt beam="2">  1       -2 0.16449816E+00 0.78409341E+03</pdfrwt>
<totfact> 0.70944727E+01</totfact>
</mgrwt>
</event>
<event>
 4    1  0.2621617E-004  0.5437271E+03  0.7818608E-02  0.1002956E+00
         -2   -1    0    0    0  501 -0.00000000000E+00  0.00000000000E+00  0.34025923033E+02  0.34025923128E+02  0.25500000000E-02 0. -1.
          2   -1    0    0  501    0  0.00000000000E+00 -0.00000000000E+00 -0.21721610941E+04  0.21721610941E+04  0.25500000000E-02 0.  1.
    5000001    1    1    2    0    0 -0.48855119743E+02  0.23535660131E+03 -0.10735745513E+04  0.11074614530E+04  0.12700000000E+03 0.  0.
   -5000001    1    1    2    0    0  0.48855119743E+02 -0.23535660131E+03 -0.10645606197E+04  0.10987255642E+04  0.12700000000E+03 0.  0.
<mgrwt>
<rscale>  0 0.54372709E+03</rscale>
<asrwt>0</asrwt>
<pdfrwt beam="1">  1        2 0.31030864E+00 0.54372709E+03</pdfrwt>
<pdfrwt beam="2">  1       -2 0.48608475E-02 0.54372709E+03</pdfrwt>
<totfact> 0.14596875E+03</totfact>
</mgrwt>
</event>
