<event>
 4    1  0.3281630E-004  0.3893610E+03  0.7818608E-02  0.1047527E+00
          1   -1    0    0  501    0  0.00000000000E+00  0.00000000000E+00  0.10915756618E+04  0.10915756618E+04  0.50400000000E-02 0.  1.
         -1   -1    0    0    0  501 -0.00000000000E+00 -0.00000000000E+00 -0.34720912559E+02  0.34720912925E+02  0.50400000000E-02 0. -1.
    5000001    1    1    2    0    0 -0.53216715403E+02  0.15406263575E+03  0.31577730223E+03  0.36360915712E+03  0.77000000000E+02 0.  0.
   -5000001    1    1    2    0    0  0.53216715403E+02 -0.15406263575E+03  0.74107744704E+03  0.76268741766E+03  0.77000000000E+02 0.  0.
<mgrwt>
<rscale>  0 0.38936103E+03</rscale>
<asrwt>0</asrwt>
<pdfrwt beam="1">  1        1 0.15593934E+00 0.38936103E+03</pdfrwt>
<pdfrwt beam="2">  1       -1 0.49601316E-02 0.38936103E+03</pdfrwt>
<totfact> 0.27909523E+03</totfact>
</mgrwt>
</event>
<event>
 4    1  0.3281630E-004  0.3200245E+03  0.7818608E-02  0.1075638E+00
          1   -1    0    0  501    0  0.00000000000E+00  0.00000000000E+00  0.42392706248E+03  0.42392706251E+03  0.50400000000E-02 0.  1.
         -1   -1    0    0    0  501 -0.00000000000E+00 -0.00000000000E+00 -0.60396978575E+02  0.60396978785E+02  0.50400000000E-02 0. -1.
    5000001    1    1    2    0    0 -0.54694849185E+01 -0.13423107753E+03  0.24280986081E+03  0.28798181531E+03  0.77000000000E+02 0.  0.
   -5000001    1    1    2    0    0  0.54694849185E+01  0.13423107753E+03  0.12072022309E+03  0.19634222598E+03  0.77000000000E+02 0.  0.
<mgrwt>
<rscale>  0 0.32002446E+03</rscale>
<asrwt>0</asrwt>
<pdfrwt beam="1">  1        1 0.60561009E-01 0.32002446E+03</pdfrwt>
<pdfrwt beam="2">  1       -1 0.86281398E-02 0.32002446E+03</pdfrwt>
<totfact> 0.47428352E+03</totfact>
</mgrwt>
</event>
<event>
 4    1  0.3281630E-004  0.3457741E+03  0.7818608E-02  0.1064363E+00
         -1   -1    0    0    0  501 -0.00000000000E+00  0.00000000000E+00  0.11031314564E+02  0.11031315715E+02  0.50400000000E-02 0.  1.
          1   -1    0    0  501    0  0.00000000000E+00 -0.00000000000E+00 -0.27095530179E+04  0.27095530179E+04  0.50400000000E-02 0. -1.
    5000001    1    1    2    0    0  0.15467439616E+03  0.43490690747E+01 -0.13825029916E+04  0.13932647290E+04  0.77000000000E+02 0.  0.
   -5000001    1    1    2    0    0 -0.15467439616E+03 -0.43490690747E+01 -0.13160187117E+04  0.13273196046E+04  0.77000000000E+02 0.  0.
<mgrwt>
<rscale>  0 0.34577411E+03</rscale>
<asrwt>0</asrwt>
<pdfrwt beam="1">  1        1 0.38707858E+00 0.34577411E+03</pdfrwt>
<pdfrwt beam="2">  1       -1 0.15759039E-02 0.34577411E+03</pdfrwt>
<totfact> 0.14944333E+03</totfact>
</mgrwt>
</event>
<event>
 4    1  0.3281630E-004  0.1813421E+03  0.7818608E-02  0.1166510E+00
         -1   -1    0    0    0  501 -0.00000000000E+00  0.00000000000E+00  0.48430493771E+02  0.48430494033E+02  0.50400000000E-02 0. -1.
          1   -1    0    0  501    0  0.00000000000E+00 -0.00000000000E+00 -0.16975343351E+03  0.16975343358E+03  0.50400000000E-02 0.  1.
    5000001    1    1    2    0    0  0.47600507452E+02  0.34977152792E+01 -0.65195381764E+02  0.11161308223E+03  0.77000000000E+02 0.  0.
   -5000001    1    1    2    0    0 -0.47600507452E+02 -0.34977152792E+01 -0.56127557972E+02  0.10657084538E+03  0.77000000000E+02 0.  0.
<mgrwt>
<rscale>  0 0.18134214E+03</rscale>
<asrwt>0</asrwt>
<pdfrwt beam="1">  1        1 0.24250490E-01 0.18134214E+03</pdfrwt>
<pdfrwt beam="2">  1       -1 0.69186421E-02 0.18134214E+03</pdfrwt>
<totfact> 0.20410332E+04</totfact>
</mgrwt>
</event>
<event>
 4    1  0.3281630E-004  0.4230205E+03  0.7818608E-02  0.1036088E+00
          1   -1    0    0  501    0  0.00000000000E+00  0.00000000000E+00  0.35329127418E+03  0.35329127422E+03  0.50400000000E-02 0.  1.
         -1   -1    0    0    0  501 -0.00000000000E+00 -0.00000000000E+00 -0.12662807006E+03  0.12662807016E+03  0.50400000000E-02 0. -1.
    5000001    1    1    2    0    0  0.15329515145E+03  0.44275961145E+02 -0.17741057648E+02  0.17805479302E+03  0.77000000000E+02 0.  0.
   -5000001    1    1    2    0    0 -0.15329515145E+03 -0.44275961145E+02  0.24440426177E+03  0.30186455135E+03  0.77000000000E+02 0.  0.
<mgrwt>
<rscale>  0 0.42302053E+03</rscale>
<asrwt>0</asrwt>
<pdfrwt beam="1">  1        1 0.50470183E-01 0.42302053E+03</pdfrwt>
<pdfrwt beam="2">  1       -1 0.18089724E-01 0.42302053E+03</pdfrwt>
<totfact> 0.18683578E+03</totfact>
</mgrwt>
</event>
<event>
 4    1  0.3281630E-004  0.3183451E+03  0.7818608E-02  0.1076413E+00
          1   -1    0    0  501    0  0.00000000000E+00  0.00000000000E+00  0.11747390445E+04  0.11747390445E+04  0.50400000000E-02 0. -1.
         -1   -1    0    0    0  501 -0.00000000000E+00 -0.00000000000E+00 -0.21567256866E+02  0.21567257455E+02  0.50400000000E-02 0.  1.
    5000001    1    1    2    0    0 -0.11483942650E+03  0.36833423212E+02  0.31455266834E+03  0.34556790376E+03  0.77000000000E+02 0.  0.
   -5000001    1    1    2    0    0  0.11483942650E+03 -0.36833423212E+02  0.83861911931E+03  0.85073839823E+03  0.77000000000E+02 0.  0.
<mgrwt>
<rscale>  0 0.31834509E+03</rscale>
<asrwt>0</asrwt>
<pdfrwt beam="1">  1        1 0.16781987E+00 0.31834509E+03</pdfrwt>
<pdfrwt beam="2">  1       -1 0.30810365E-02 0.31834509E+03</pdfrwt>
<totfact> 0.49829761E+03</totfact>
</mgrwt>
</event>
<event>
 4    1  0.3281630E-004  0.2037930E+03  0.7818608E-02  0.1146578E+00
         -1   -1    0    0    0  501 -0.00000000000E+00  0.00000000000E+00  0.56382552133E+02  0.56382552358E+02  0.50400000000E-02 0. -1.
          1   -1    0    0  501    0  0.00000000000E+00 -0.00000000000E+00 -0.18415096440E+03  0.18415096446E+03  0.50400000000E-02 0.  1.
    5000001    1    1    2    0    0  0.63164587296E+02  0.18948151659E+02 -0.51783922644E+02  0.11383923833E+03  0.77000000000E+02 0.  0.
   -5000001    1    1    2    0    0 -0.63164587296E+02 -0.18948151659E+02 -0.75984489619E+02  0.12669427849E+03  0.77000000000E+02 0.  0.
<mgrwt>
<rscale>  0 0.20379305E+03</rscale>
<asrwt>0</asrwt>
<pdfrwt beam="1">  1        1 0.26307280E-01 0.20379305E+03</pdfrwt>
<pdfrwt beam="2">  1       -1 0.80546504E-02 0.20379305E+03</pdfrwt>
<totfact> 0.14761683E+04</totfact>
</mgrwt>
</event>
<event>
 4    1  0.3281630E-004  0.2928638E+03  0.7818608E-02  0.1088863E+00
          1   -1    0    0  501    0  0.00000000000E+00  0.00000000000E+00  0.89961167351E+03  0.89961167352E+03  0.50400000000E-02 0.  1.
         -1   -1    0    0    0  501 -0.00000000000E+00 -0.00000000000E+00 -0.23835070252E+02  0.23835070785E+02  0.50400000000E-02 0. -1.
    5000001    1    1    2    0    0  0.98771121331E+02  0.24904076383E+02  0.66389229240E+03  0.67606059146E+03  0.77000000000E+02 0.  0.
   -5000001    1    1    2    0    0 -0.98771121331E+02 -0.24904076383E+02  0.21188431086E+03  0.24738615284E+03  0.77000000000E+02 0.  0.
<mgrwt>
<rscale>  0 0.29286384E+03</rscale>
<asrwt>0</asrwt>
<pdfrwt beam="1">  1        1 0.12851595E+00 0.29286384E+03</pdfrwt>
<pdfrwt beam="2">  1       -1 0.34050102E-02 0.29286384E+03</pdfrwt>
<totfact> 0.67352665E+03</totfact>
</mgrwt>
</event>
<event>
 4    1  0.3281630E-004  0.3989127E+03  0.7818608E-02  0.1044157E+00
         -1   -1    0    0    0  501 -0.00000000000E+00  0.00000000000E+00  0.48330823373E+02  0.48330823636E+02  0.50400000000E-02 0. -1.
          1   -1    0    0  501    0  0.00000000000E+00 -0.00000000000E+00 -0.82313592565E+03  0.82313592566E+03  0.50400000000E-02 0.  1.
    5000001    1    1    2    0    0 -0.54167950657E+02  0.10358358744E+03 -0.69781726547E+03  0.71171740350E+03  0.77000000000E+02 0.  0.
   -5000001    1    1    2    0    0  0.54167950657E+02 -0.10358358744E+03 -0.76987836810E+02  0.15974934580E+03  0.77000000000E+02 0.  0.
<mgrwt>
<rscale>  0 0.39891271E+03</rscale>
<asrwt>0</asrwt>
<pdfrwt beam="1">  1        1 0.11759084E+00 0.39891271E+03</pdfrwt>
<pdfrwt beam="2">  1       -1 0.69044038E-02 0.39891271E+03</pdfrwt>
<totfact> 0.26777797E+03</totfact>
</mgrwt>
</event>
<event>
 4    1  0.3281630E-004  0.1842830E+03  0.7818608E-02  0.1163721E+00
          1   -1    0    0  501    0  0.00000000000E+00  0.00000000000E+00  0.24466713662E+04  0.24466713662E+04  0.50400000000E-02 0.  1.
         -1   -1    0    0    0  501 -0.00000000000E+00 -0.00000000000E+00 -0.34700401370E+01  0.34700437972E+01  0.50400000000E-02 0. -1.
    5000001    1    1    2    0    0  0.46627811620E+02  0.19665824260E+02  0.12163683553E+04  0.12198532179E+04  0.77000000000E+02 0.  0.
   -5000001    1    1    2    0    0 -0.46627811620E+02 -0.19665824260E+02  0.12268329707E+04  0.12302881920E+04  0.77000000000E+02 0.  0.
<mgrwt>
<rscale>  0 0.18428296E+03</rscale>
<asrwt>0</asrwt>
<pdfrwt beam="1">  1        1 0.34952523E+00 0.18428296E+03</pdfrwt>
<pdfrwt beam="2">  1       -1 0.49571922E-03 0.18428296E+03</pdfrwt>
<totfact> 0.11480081E+04</totfact>
</mgrwt>
</event>
<event>
 4    1  0.3281630E-004  0.5479994E+03  0.7818608E-02  0.1001958E+00
          1   -1    0    0  501    0  0.00000000000E+00  0.00000000000E+00  0.13000235442E+04  0.13000235442E+04  0.50400000000E-02 0.  1.
         -1   -1    0    0    0  501 -0.00000000000E+00 -0.00000000000E+00 -0.57749596168E+02  0.57749596388E+02  0.50400000000E-02 0. -1.
    5000001    1    1    2    0    0 -0.21696803541E+03  0.14719526412E+03  0.57125836167E+03  0.63325089021E+03  0.77000000000E+02 0.  0.
   -5000001    1    1    2    0    0  0.21696803541E+03 -0.14719526412E+03  0.67101558636E+03  0.72452225039E+03  0.77000000000E+02 0.  0.
<mgrwt>
<rscale>  0 0.54799940E+03</rscale>
<asrwt>0</asrwt>
<pdfrwt beam="1">  1        1 0.18571768E+00 0.54799940E+03</pdfrwt>
<pdfrwt beam="2">  1       -1 0.82499410E-02 0.54799940E+03</pdfrwt>
<totfact> 0.91896131E+02</totfact>
</mgrwt>
</event>
<event>
 4    1  0.3281630E-004  0.2758359E+03  0.7818608E-02  0.1097985E+00
          1   -1    0    0  501    0  0.00000000000E+00  0.00000000000E+00  0.14686740015E+03  0.14686740024E+03  0.50400000000E-02 0.  1.
         -1   -1    0    0    0  501 -0.00000000000E+00 -0.00000000000E+00 -0.12951388247E+03  0.12951388257E+03  0.50400000000E-02 0. -1.
    5000001    1    1    2    0    0 -0.77151297252E+02 -0.70858498417E+02  0.54801645651E+02  0.14108674577E+03  0.77000000000E+02 0.  0.
   -5000001    1    1    2    0    0  0.77151297252E+02  0.70858498417E+02 -0.37448127971E+02  0.13529453704E+03  0.77000000000E+02 0.  0.
<mgrwt>
<rscale>  0 0.27583595E+03</rscale>
<asrwt>0</asrwt>
<pdfrwt beam="1">  1        1 0.20981057E-01 0.27583595E+03</pdfrwt>
<pdfrwt beam="2">  1       -1 0.18501983E-01 0.27583595E+03</pdfrwt>
<totfact> 0.54553052E+03</totfact>
</mgrwt>
</event>
<event>
 4    1  0.3281630E-004  0.1930722E+03  0.7818608E-02  0.1155719E+00
         -1   -1    0    0    0  501 -0.00000000000E+00  0.00000000000E+00  0.78843966444E+02  0.78843966605E+02  0.50400000000E-02 0. -1.
          1   -1    0    0  501    0  0.00000000000E+00 -0.00000000000E+00 -0.11819828327E+03  0.11819828338E+03  0.50400000000E-02 0.  1.
    5000001    1    1    2    0    0  0.15620481364E+02 -0.56089497180E+02 -0.20122449766E+02  0.98610060930E+02  0.77000000000E+02 0.  0.
   -5000001    1    1    2    0    0 -0.15620481364E+02  0.56089497180E+02 -0.19231867065E+02  0.98432189058E+02  0.77000000000E+02 0.  0.
<mgrwt>
<rscale>  0 0.19307223E+03</rscale>
<asrwt>0</asrwt>
<pdfrwt beam="1">  1        1 0.16885469E-01 0.19307223E+03</pdfrwt>
<pdfrwt beam="2">  1       -1 0.11263424E-01 0.19307223E+03</pdfrwt>
<totfact> 0.15496216E+04</totfact>
</mgrwt>
</event>
<event>
 4    1  0.3281630E-004  0.1733000E+03  0.7818608E-02  0.1174450E+00
          1   -1    0    0  501    0  0.00000000000E+00  0.00000000000E+00  0.16015513932E+03  0.16015513940E+03  0.50400000000E-02 0. -1.
         -1   -1    0    0    0  501 -0.00000000000E+00 -0.00000000000E+00 -0.46880931896E+02  0.46880932167E+02  0.50400000000E-02 0.  1.
    5000001    1    1    2    0    0  0.31175697942E+02  0.34084428635E+01  0.85794865846E+02  0.11947091960E+03  0.77000000000E+02 0.  0.
   -5000001    1    1    2    0    0 -0.31175697942E+02 -0.34084428635E+01  0.27479341578E+02  0.87565151964E+02  0.77000000000E+02 0.  0.
<mgrwt>
<rscale>  0 0.17330000E+03</rscale>
<asrwt>0</asrwt>
<pdfrwt beam="1">  1        1 0.22879305E-01 0.17330000E+03</pdfrwt>
<pdfrwt beam="2">  1       -1 0.66972761E-02 0.17330000E+03</pdfrwt>
<totfact> 0.22983251E+04</totfact>
</mgrwt>
</event>
<event>
 4    1  0.3281630E-004  0.1874984E+03  0.7818608E-02  0.1160737E+00
         -1   -1    0    0    0  501 -0.00000000000E+00  0.00000000000E+00  0.41057110801E+03  0.41057110804E+03  0.50400000000E-02 0. -1.
          1   -1    0    0  501    0  0.00000000000E+00 -0.00000000000E+00 -0.21406546934E+02  0.21406547527E+02  0.50400000000E-02 0.  1.
    5000001    1    1    2    0    0 -0.29141312511E+02  0.29867044386E+02  0.27163918441E+03  0.28540865954E+03  0.77000000000E+02 0.  0.
   -5000001    1    1    2    0    0  0.29141312511E+02 -0.29867044386E+02  0.11752537666E+03  0.14656899602E+03  0.77000000000E+02 0.  0.
<mgrwt>
<rscale>  0 0.18749837E+03</rscale>
<asrwt>0</asrwt>
<pdfrwt beam="1">  1        1 0.30580785E-02 0.18749837E+03</pdfrwt>
<pdfrwt beam="2">  1       -1 0.58653008E-01 0.18749837E+03</pdfrwt>
<totfact> 0.97550030E+03</totfact>
</mgrwt>
</event>
<event>
 4    1  0.3281630E-004  0.3124328E+03  0.7818608E-02  0.1079186E+00
         -1   -1    0    0    0  501 -0.00000000000E+00  0.00000000000E+00  0.11355589810E+03  0.11355589822E+03  0.50400000000E-02 0.  1.
          1   -1    0    0  501    0  0.00000000000E+00 -0.00000000000E+00 -0.21490356993E+03  0.21490356999E+03  0.50400000000E-02 0. -1.
    5000001    1    1    2    0    0 -0.10130574054E+03 -0.21748856667E+02 -0.14315625694E+03  0.19276560828E+03  0.77000000000E+02 0.  0.
   -5000001    1    1    2    0    0  0.10130574054E+03  0.21748856667E+02  0.41808585115E+02  0.13569385993E+03  0.77000000000E+02 0.  0.
<mgrwt>
<rscale>  0 0.31243283E+03</rscale>
<asrwt>0</asrwt>
<pdfrwt beam="1">  1        1 0.30700510E-01 0.31243283E+03</pdfrwt>
<pdfrwt beam="2">  1       -1 0.16222271E-01 0.31243283E+03</pdfrwt>
<totfact> 0.41643784E+03</totfact>
</mgrwt>
</event>
<event>
 4    1  0.3281630E-004  0.2807678E+03  0.7818608E-02  0.1095270E+00
          1   -1    0    0  501    0  0.00000000000E+00  0.00000000000E+00  0.31018574463E+02  0.31018574873E+02  0.50400000000E-02 0.  1.
         -1   -1    0    0    0  501 -0.00000000000E+00 -0.00000000000E+00 -0.63534972214E+03  0.63534972216E+03  0.50400000000E-02 0. -1.
    5000001    1    1    2    0    0  0.10800233425E+02 -0.97302058871E+02 -0.14845735028E+03  0.19378575942E+03  0.77000000000E+02 0.  0.
   -5000001    1    1    2    0    0 -0.10800233425E+02  0.97302058871E+02 -0.45587379739E+03  0.47258253761E+03  0.77000000000E+02 0.  0.
<mgrwt>
<rscale>  0 0.28076782E+03</rscale>
<asrwt>0</asrwt>
<pdfrwt beam="1">  1        1 0.44312253E-02 0.28076782E+03</pdfrwt>
<pdfrwt beam="2">  1       -1 0.90764238E-01 0.28076782E+03</pdfrwt>
<totfact> 0.24562241E+03</totfact>
</mgrwt>
</event>
<event>
 4    1  0.3281630E-004  0.2293673E+03  0.7818608E-02  0.1127086E+00
         -1   -1    0    0    0  501 -0.00000000000E+00  0.00000000000E+00  0.28629672921E+03  0.28629672925E+03  0.50400000000E-02 0. -1.
          1   -1    0    0  501    0  0.00000000000E+00 -0.00000000000E+00 -0.45939549425E+02  0.45939549701E+02  0.50400000000E-02 0.  1.
    5000001    1    1    2    0    0  0.59308659623E+02 -0.57229866221E+02  0.90122227090E+02  0.14437378747E+03  0.77000000000E+02 0.  0.
   -5000001    1    1    2    0    0 -0.59308659623E+02  0.57229866221E+02  0.15023495269E+03  0.18786249148E+03  0.77000000000E+02 0.  0.
<mgrwt>
<rscale>  0 0.22936733E+03</rscale>
<asrwt>0</asrwt>
<pdfrwt beam="1">  1        1 0.65627928E-02 0.22936733E+03</pdfrwt>
<pdfrwt beam="2">  1       -1 0.40899532E-01 0.22936733E+03</pdfrwt>
<totfact> 0.66595033E+03</totfact>
</mgrwt>
</event>
<event>
 4    1  0.3281630E-004  0.1818552E+03  0.7818608E-02  0.1166020E+00
         -1   -1    0    0    0  501 -0.00000000000E+00  0.00000000000E+00  0.56233241659E+02  0.56233241885E+02  0.50400000000E-02 0.  1.
          1   -1    0    0  501    0  0.00000000000E+00 -0.00000000000E+00 -0.14702745879E+03  0.14702745888E+03  0.50400000000E-02 0. -1.
    5000001    1    1    2    0    0  0.48187990883E+02  0.13650676694E+01 -0.49709307714E+02  0.10355656014E+03  0.77000000000E+02 0.  0.
   -5000001    1    1    2    0    0 -0.48187990883E+02 -0.13650676694E+01 -0.41084909420E+02  0.99704140622E+02  0.77000000000E+02 0.  0.
<mgrwt>
<rscale>  0 0.18185522E+03</rscale>
<asrwt>0</asrwt>
<pdfrwt beam="1">  1        1 0.21003923E-01 0.18185522E+03</pdfrwt>
<pdfrwt beam="2">  1       -1 0.80333203E-02 0.18185522E+03</pdfrwt>
<totfact> 0.19549912E+04</totfact>
</mgrwt>
</event>
<event>
 4    1  0.3281630E-004  0.2931114E+03  0.7818608E-02  0.1088736E+00
          1   -1    0    0  501    0  0.00000000000E+00  0.00000000000E+00  0.53259749911E+03  0.53259749913E+03  0.50400000000E-02 0.  1.
         -1   -1    0    0    0  501 -0.00000000000E+00 -0.00000000000E+00 -0.40327952494E+02  0.40327952808E+02  0.50400000000E-02 0. -1.
    5000001    1    1    2    0    0 -0.76853583902E+02 -0.75435583340E+02  0.36902151943E+03  0.39204959176E+03  0.77000000000E+02 0.  0.
   -5000001    1    1    2    0    0  0.76853583902E+02  0.75435583340E+02  0.12324802718E+03  0.18087586018E+03  0.77000000000E+02 0.  0.
<mgrwt>
<rscale>  0 0.29311136E+03</rscale>
<asrwt>0</asrwt>
<pdfrwt beam="1">  1        1 0.76085360E-01 0.29311136E+03</pdfrwt>
<pdfrwt beam="2">  1       -1 0.57611359E-02 0.29311136E+03</pdfrwt>
<totfact> 0.64978684E+03</totfact>
</mgrwt>
</event>
<event>
 4    1  0.3281630E-004  0.1905907E+03  0.7818608E-02  0.1157930E+00
          1   -1    0    0  501    0  0.00000000000E+00  0.00000000000E+00  0.13111395805E+04  0.13111395805E+04  0.50400000000E-02 0. -1.
         -1   -1    0    0    0  501 -0.00000000000E+00 -0.00000000000E+00 -0.69261875665E+01  0.69261894002E+01  0.50400000000E-02 0.  1.
    5000001    1    1    2    0    0 -0.19629053366E+02 -0.50163824481E+02  0.54265275522E+03  0.55072926359E+03  0.77000000000E+02 0.  0.
   -5000001    1    1    2    0    0  0.19629053366E+02  0.50163824481E+02  0.76156063775E+03  0.76733650636E+03  0.77000000000E+02 0.  0.
<mgrwt>
<rscale>  0 0.19059066E+03</rscale>
<asrwt>0</asrwt>
<pdfrwt beam="1">  1        1 0.18730550E+00 0.19059066E+03</pdfrwt>
<pdfrwt beam="2">  1       -1 0.98945631E-03 0.19059066E+03</pdfrwt>
<totfact> 0.20837521E+04</totfact>
</mgrwt>
</event>
<event>
 4    1  0.3281630E-004  0.1719799E+03  0.7818608E-02  0.1175799E+00
         -1   -1    0    0    0  501 -0.00000000000E+00  0.00000000000E+00  0.14647154403E+02  0.14647155270E+02  0.50400000000E-02 0. -1.
          1   -1    0    0  501    0  0.00000000000E+00 -0.00000000000E+00 -0.50482634514E+03  0.50482634516E+03  0.50400000000E-02 0.  1.
    5000001    1    1    2    0    0 -0.31406782876E+02 -0.21871503135E+02 -0.24726982755E+03  0.26179403407E+03  0.77000000000E+02 0.  0.
   -5000001    1    1    2    0    0  0.31406782876E+02  0.21871503135E+02 -0.24290936319E+03  0.25767946636E+03  0.77000000000E+02 0.  0.
<mgrwt>
<rscale>  0 0.17197988E+03</rscale>
<asrwt>0</asrwt>
<pdfrwt beam="1">  1        1 0.72118038E-01 0.17197988E+03</pdfrwt>
<pdfrwt beam="2">  1       -1 0.20924510E-02 0.17197988E+03</pdfrwt>
<totfact> 0.30165790E+04</totfact>
</mgrwt>
</event>
<event>
 4    1  0.3281630E-004  0.1830912E+03  0.7818608E-02  0.1164844E+00
          1   -1    0    0  501    0  0.00000000000E+00  0.00000000000E+00  0.53870058113E+03  0.53870058115E+03  0.50400000000E-02 0. -1.
         -1   -1    0    0    0  501 -0.00000000000E+00 -0.00000000000E+00 -0.15557063222E+02  0.15557064038E+02  0.50400000000E-02 0.  1.
    5000001    1    1    2    0    0  0.47065096885E+02 -0.14180547565E+02  0.24356349257E+03  0.26013147865E+03  0.77000000000E+02 0.  0.
   -5000001    1    1    2    0    0 -0.47065096885E+02  0.14180547565E+02  0.27958002533E+03  0.29412616653E+03  0.77000000000E+02 0.  0.
<mgrwt>
<rscale>  0 0.18309123E+03</rscale>
<asrwt>0</asrwt>
<pdfrwt beam="1">  1        1 0.76957226E-01 0.18309123E+03</pdfrwt>
<pdfrwt beam="2">  1       -1 0.22224377E-02 0.18309123E+03</pdfrwt>
<totfact> 0.25524386E+04</totfact>
</mgrwt>
</event>
<event>
 4    1  0.3281630E-004  0.2233503E+03  0.7818608E-02  0.1131410E+00
          1   -1    0    0  501    0  0.00000000000E+00  0.00000000000E+00  0.12139251494E+04  0.12139251494E+04  0.50400000000E-02 0. -1.
         -1   -1    0    0    0  501 -0.00000000000E+00 -0.00000000000E+00 -0.10273565209E+02  0.10273566445E+02  0.50400000000E-02 0.  1.
    5000001    1    1    2    0    0 -0.74184167292E+02 -0.29302053846E+02  0.52819991882E+03  0.53970923215E+03  0.77000000000E+02 0.  0.
   -5000001    1    1    2    0    0  0.74184167292E+02  0.29302053846E+02  0.67545166533E+03  0.68448948365E+03  0.77000000000E+02 0.  0.
<mgrwt>
<rscale>  0 0.22335031E+03</rscale>
<asrwt>0</asrwt>
<pdfrwt beam="1">  1        1 0.17341786E+00 0.22335031E+03</pdfrwt>
<pdfrwt beam="2">  1       -1 0.14676524E-02 0.22335031E+03</pdfrwt>
<totfact> 0.13760721E+04</totfact>
</mgrwt>
</event>
<event>
 4    1  0.3281630E-004  0.2491721E+03  0.7818608E-02  0.1113829E+00
         -1   -1    0    0    0  501 -0.00000000000E+00  0.00000000000E+00  0.42888426307E+02  0.42888426603E+02  0.50400000000E-02 0. -1.
          1   -1    0    0  501    0  0.00000000000E+00 -0.00000000000E+00 -0.36190856741E+03  0.36190856744E+03  0.50400000000E-02 0.  1.
    5000001    1    1    2    0    0  0.29331227060E+02 -0.90391374401E+02 -0.19801498089E+03  0.23274418167E+03  0.77000000000E+02 0.  0.
   -5000001    1    1    2    0    0 -0.29331227060E+02  0.90391374401E+02 -0.12100516021E+03  0.17205281237E+03  0.77000000000E+02 0.  0.
<mgrwt>
<rscale>  0 0.24917214E+03</rscale>
<asrwt>0</asrwt>
<pdfrwt beam="1">  1        1 0.51701222E-01 0.24917214E+03</pdfrwt>
<pdfrwt beam="2">  1       -1 0.61269182E-02 0.24917214E+03</pdfrwt>
<totfact> 0.96835570E+03</totfact>
</mgrwt>
</event>
<event>
 4    1  0.3281630E-004  0.2258299E+03  0.7818608E-02  0.1129610E+00
         -1   -1    0    0    0  501 -0.00000000000E+00  0.00000000000E+00  0.62807220075E+02  0.62807220278E+02  0.50400000000E-02 0.  1.
          1   -1    0    0  501    0  0.00000000000E+00 -0.00000000000E+00 -0.20299869672E+03  0.20299869678E+03  0.50400000000E-02 0. -1.
    5000001    1    1    2    0    0 -0.61746431051E+02 -0.39360262634E+02 -0.11505309183E+03  0.15661438619E+03  0.77000000000E+02 0.  0.
   -5000001    1    1    2    0    0  0.61746431051E+02  0.39360262634E+02 -0.25138384810E+02  0.10919153087E+03  0.77000000000E+02 0.  0.
<mgrwt>
<rscale>  0 0.22582988E+03</rscale>
<asrwt>0</asrwt>
<pdfrwt beam="1">  1        1 0.28999814E-01 0.22582988E+03</pdfrwt>
<pdfrwt beam="2">  1       -1 0.89724601E-02 0.22582988E+03</pdfrwt>
<totfact> 0.11146957E+04</totfact>
</mgrwt>
</event>
<event>
 4    1  0.3281630E-004  0.3176263E+03  0.7818608E-02  0.1076747E+00
          1   -1    0    0  501    0  0.00000000000E+00  0.00000000000E+00  0.11931581059E+03  0.11931581070E+03  0.50400000000E-02 0. -1.
         -1   -1    0    0    0  501 -0.00000000000E+00 -0.00000000000E+00 -0.21138543018E+03  0.21138543024E+03  0.50400000000E-02 0.  1.
    5000001    1    1    2    0    0 -0.10213626770E+03  0.43201608878E+02 -0.13311019431E+03  0.18959303790E+03  0.77000000000E+02 0.  0.
   -5000001    1    1    2    0    0  0.10213626770E+03 -0.43201608878E+02  0.41040574729E+02  0.14110820304E+03  0.77000000000E+02 0.  0.
<mgrwt>
<rscale>  0 0.31762635E+03</rscale>
<asrwt>0</asrwt>
<pdfrwt beam="1">  1        1 0.17045116E-01 0.31762635E+03</pdfrwt>
<pdfrwt beam="2">  1       -1 0.30197919E-01 0.31762635E+03</pdfrwt>
<totfact> 0.31821853E+03</totfact>
</mgrwt>
</event>
<event>
 4    1  0.3281630E-004  0.3473712E+03  0.7818608E-02  0.1063699E+00
          1   -1    0    0  501    0  0.00000000000E+00  0.00000000000E+00  0.20067743082E+03  0.20067743088E+03  0.50400000000E-02 0.  1.
         -1   -1    0    0    0  501 -0.00000000000E+00 -0.00000000000E+00 -0.15032425038E+03  0.15032425047E+03  0.50400000000E-02 0. -1.
    5000001    1    1    2    0    0  0.11637479514E+03  0.97447984665E+02  0.60157501511E+02  0.18051905065E+03  0.77000000000E+02 0.  0.
   -5000001    1    1    2    0    0 -0.11637479514E+03 -0.97447984665E+02 -0.98043210751E+01  0.17048263070E+03  0.77000000000E+02 0.  0.
<mgrwt>
<rscale>  0 0.34737118E+03</rscale>
<asrwt>0</asrwt>
<pdfrwt beam="1">  1        1 0.28668204E-01 0.34737118E+03</pdfrwt>
<pdfrwt beam="2">  1       -1 0.21474893E-01 0.34737118E+03</pdfrwt>
<totfact> 0.28880096E+03</totfact>
</mgrwt>
</event>
<event>
 4    1  0.3281630E-004  0.1739714E+03  0.7818608E-02  0.1173769E+00
         -1   -1    0    0    0  501 -0.00000000000E+00  0.00000000000E+00  0.13211306387E+02  0.13211307349E+02  0.50400000000E-02 0. -1.
          1   -1    0    0  501    0  0.00000000000E+00 -0.00000000000E+00 -0.57272968894E+03  0.57272968896E+03  0.50400000000E-02 0.  1.
    5000001    1    1    2    0    0 -0.18297205922E+02  0.36037281476E+02 -0.28652406102E+03  0.29943031067E+03  0.77000000000E+02 0.  0.
   -5000001    1    1    2    0    0  0.18297205922E+02 -0.36037281476E+02 -0.27299432153E+03  0.28651068564E+03  0.77000000000E+02 0.  0.
<mgrwt>
<rscale>  0 0.17397135E+03</rscale>
<asrwt>0</asrwt>
<pdfrwt beam="1">  1        1 0.81818511E-01 0.17397135E+03</pdfrwt>
<pdfrwt beam="2">  1       -1 0.18873299E-02 0.17397135E+03</pdfrwt>
<totfact> 0.29710330E+04</totfact>
</mgrwt>
</event>
<event>
 4    1  0.3281630E-004  0.1815539E+03  0.7818608E-02  0.1166308E+00
          1   -1    0    0  501    0  0.00000000000E+00  0.00000000000E+00  0.65698190785E+02  0.65698190978E+02  0.50400000000E-02 0.  1.
         -1   -1    0    0    0  501 -0.00000000000E+00 -0.00000000000E+00 -0.12542890061E+03  0.12542890071E+03  0.50400000000E-02 0. -1.
    5000001    1    1    2    0    0  0.44113165801E+02  0.18411920828E+02 -0.24447975931E+02  0.93870515886E+02  0.77000000000E+02 0.  0.
   -5000001    1    1    2    0    0 -0.44113165801E+02 -0.18411920828E+02 -0.35282733892E+02  0.97256575801E+02  0.77000000000E+02 0.  0.
<mgrwt>
<rscale>  0 0.18155387E+03</rscale>
<asrwt>0</asrwt>
<pdfrwt beam="1">  1        1 0.93854559E-02 0.18155387E+03</pdfrwt>
<pdfrwt beam="2">  1       -1 0.17918414E-01 0.18155387E+03</pdfrwt>
<totfact> 0.16114106E+04</totfact>
</mgrwt>
</event>
<event>
 4    1  0.3281630E-004  0.1800667E+03  0.7818608E-02  0.1167738E+00
         -1   -1    0    0    0  501 -0.00000000000E+00  0.00000000000E+00  0.40654044209E+02  0.40654044522E+02  0.50400000000E-02 0.  1.
          1   -1    0    0  501    0  0.00000000000E+00 -0.00000000000E+00 -0.19938995544E+03  0.19938995550E+03  0.50400000000E-02 0. -1.
    5000001    1    1    2    0    0  0.52026834461E+01  0.45887268687E+02 -0.70495309577E+02  0.11415471087E+03  0.77000000000E+02 0.  0.
   -5000001    1    1    2    0    0 -0.52026834461E+01 -0.45887268687E+02 -0.88240601652E+02  0.12588928915E+03  0.77000000000E+02 0.  0.
<mgrwt>
<rscale>  0 0.18006674E+03</rscale>
<asrwt>0</asrwt>
<pdfrwt beam="1">  1        1 0.28484279E-01 0.18006674E+03</pdfrwt>
<pdfrwt beam="2">  1       -1 0.58077207E-02 0.18006674E+03</pdfrwt>
<totfact> 0.21660625E+04</totfact>
</mgrwt>
</event>
<event>
 4    1  0.3281630E-004  0.1690945E+03  0.7818608E-02  0.1178795E+00
         -1   -1    0    0    0  501 -0.00000000000E+00  0.00000000000E+00  0.57471778609E+02  0.57471778830E+02  0.50400000000E-02 0. -1.
          1   -1    0    0  501    0  0.00000000000E+00 -0.00000000000E+00 -0.12437816129E+03  0.12437816139E+03  0.50400000000E-02 0.  1.
    5000001    1    1    2    0    0 -0.31851170963E+02  0.14307106676E+02 -0.33228156823E+02  0.90842175222E+02  0.77000000000E+02 0.  0.
   -5000001    1    1    2    0    0  0.31851170963E+02 -0.14307106676E+02 -0.33678225854E+02  0.91007764997E+02  0.77000000000E+02 0.  0.
<mgrwt>
<rscale>  0 0.16909446E+03</rscale>
<asrwt>0</asrwt>
<pdfrwt beam="1">  1        1 0.17768309E-01 0.16909446E+03</pdfrwt>
<pdfrwt beam="2">  1       -1 0.82102542E-02 0.16909446E+03</pdfrwt>
<totfact> 0.23285828E+04</totfact>
</mgrwt>
</event>
<event>
 4    1  0.3281630E-004  0.2229108E+03  0.7818608E-02  0.1131731E+00
          1   -1    0    0  501    0  0.00000000000E+00  0.00000000000E+00  0.33061863741E+03  0.33061863745E+03  0.50400000000E-02 0.  1.
         -1   -1    0    0    0  501 -0.00000000000E+00 -0.00000000000E+00 -0.37572899913E+02  0.37572900251E+02  0.50400000000E-02 0. -1.
    5000001    1    1    2    0    0 -0.93327864867E+01  0.80037600082E+02  0.14722890300E+03  0.18465770552E+03  0.77000000000E+02 0.  0.
   -5000001    1    1    2    0    0  0.93327864867E+01 -0.80037600082E+02  0.14581683450E+03  0.18353383218E+03  0.77000000000E+02 0.  0.
<mgrwt>
<rscale>  0 0.22291075E+03</rscale>
<asrwt>0</asrwt>
<pdfrwt beam="1">  1        1 0.47231234E-01 0.22291075E+03</pdfrwt>
<pdfrwt beam="2">  1       -1 0.53675572E-02 0.22291075E+03</pdfrwt>
<totfact> 0.13156191E+04</totfact>
</mgrwt>
</event>
<event>
 4    1  0.3281630E-004  0.4615829E+03  0.7818608E-02  0.1024323E+00
          1   -1    0    0  501    0  0.00000000000E+00  0.00000000000E+00  0.11851481033E+03  0.11851481044E+03  0.50400000000E-02 0.  1.
         -1   -1    0    0    0  501 -0.00000000000E+00 -0.00000000000E+00 -0.44943492074E+03  0.44943492077E+03  0.50400000000E-02 0. -1.
    5000001    1    1    2    0    0 -0.38995011705E+02 -0.21323326294E+03 -0.18836933638E+03  0.29732312768E+03  0.77000000000E+02 0.  0.
   -5000001    1    1    2    0    0  0.38995011705E+02  0.21323326294E+03 -0.14255077403E+03  0.27062660353E+03  0.77000000000E+02 0.  0.
<mgrwt>
<rscale>  0 0.46158290E+03</rscale>
<asrwt>0</asrwt>
<pdfrwt beam="1">  1        1 0.16930687E-01 0.46158290E+03</pdfrwt>
<pdfrwt beam="2">  1       -1 0.64204988E-01 0.46158290E+03</pdfrwt>
<totfact> 0.81122536E+02</totfact>
</mgrwt>
</event>
<event>
 4    1  0.3281630E-004  0.6293263E+03  0.7818608E-02  0.9846364E-01
          1   -1    0    0  501    0  0.00000000000E+00  0.00000000000E+00  0.18920079398E+03  0.18920079405E+03  0.50400000000E-02 0.  1.
         -1   -1    0    0    0  501 -0.00000000000E+00 -0.00000000000E+00 -0.52332174895E+03  0.52332174898E+03  0.50400000000E-02 0. -1.
    5000001    1    1    2    0    0 -0.35748096908E+02  0.29543418587E+03 -0.90902900260E+02  0.32054893836E+03  0.77000000000E+02 0.  0.
   -5000001    1    1    2    0    0  0.35748096908E+02 -0.29543418587E+03 -0.24321805472E+03  0.39197360466E+03  0.77000000000E+02 0.  0.
<mgrwt>
<rscale>  0 0.62932628E+03</rscale>
<asrwt>0</asrwt>
<pdfrwt beam="1">  1        1 0.27028685E-01 0.62932628E+03</pdfrwt>
<pdfrwt beam="2">  1       -1 0.74760249E-01 0.62932628E+03</pdfrwt>
<totfact> 0.32152788E+02</totfact>
</mgrwt>
</event>
<event>
 4    1  0.3281630E-004  0.2885752E+03  0.7818608E-02  0.1091095E+00
         -1   -1    0    0    0  501 -0.00000000000E+00  0.00000000000E+00  0.13997304312E+03  0.13997304321E+03  0.50400000000E-02 0. -1.
          1   -1    0    0  501    0  0.00000000000E+00 -0.00000000000E+00 -0.14873515524E+03  0.14873515532E+03  0.50400000000E-02 0.  1.
    5000001    1    1    2    0    0  0.10723001560E+03 -0.54627223296E+02  0.15814939655E+02  0.14374116351E+03  0.77000000000E+02 0.  0.
   -5000001    1    1    2    0    0 -0.10723001560E+03  0.54627223296E+02 -0.24577051769E+02  0.14496703503E+03  0.77000000000E+02 0.  0.
<mgrwt>
<rscale>  0 0.28857521E+03</rscale>
<asrwt>0</asrwt>
<pdfrwt beam="1">  1        1 0.21247879E-01 0.28857521E+03</pdfrwt>
<pdfrwt beam="2">  1       -1 0.19996149E-01 0.28857521E+03</pdfrwt>
<totfact> 0.47395206E+03</totfact>
</mgrwt>
</event>
<event>
 4    1  0.3281630E-004  0.1857170E+03  0.7818608E-02  0.1162382E+00
          1   -1    0    0  501    0  0.00000000000E+00  0.00000000000E+00  0.32007102826E+04  0.32007102826E+04  0.50400000000E-02 0.  1.
         -1   -1    0    0    0  501 -0.00000000000E+00 -0.00000000000E+00 -0.26939925967E+01  0.26939973112E+01  0.50400000000E-02 0. -1.
    5000001    1    1    2    0    0  0.39660738007E+02 -0.33405913960E+02  0.15613434450E+04  0.15641007904E+04  0.77000000000E+02 0.  0.
   -5000001    1    1    2    0    0 -0.39660738007E+02  0.33405913960E+02  0.16366728450E+04  0.16393034895E+04  0.77000000000E+02 0.  0.
<mgrwt>
<rscale>  0 0.18571696E+03</rscale>
<asrwt>0</asrwt>
<pdfrwt beam="1">  1        1 0.45724714E+00 0.18571696E+03</pdfrwt>
<pdfrwt beam="2">  1       -1 0.38485405E-03 0.18571696E+03</pdfrwt>
<totfact> 0.56182203E+03</totfact>
</mgrwt>
</event>
<event>
 4    1  0.3281630E-004  0.3742614E+03  0.7818608E-02  0.1053075E+00
         -1   -1    0    0    0  501 -0.00000000000E+00  0.00000000000E+00  0.40056672281E+02  0.40056672598E+02  0.50400000000E-02 0. -1.
          1   -1    0    0  501    0  0.00000000000E+00 -0.00000000000E+00 -0.87420884835E+03  0.87420884836E+03  0.50400000000E-02 0.  1.
    5000001    1    1    2    0    0  0.12806330243E+03 -0.13335938262E+02 -0.14383842528E+03  0.20783779557E+03  0.77000000000E+02 0.  0.
   -5000001    1    1    2    0    0 -0.12806330243E+03  0.13335938262E+02 -0.69031375079E+03  0.70642772539E+03  0.77000000000E+02 0.  0.
<mgrwt>
<rscale>  0 0.37426139E+03</rscale>
<asrwt>0</asrwt>
<pdfrwt beam="1">  1        1 0.12488697E+00 0.37426139E+03</pdfrwt>
<pdfrwt beam="2">  1       -1 0.57223823E-02 0.37426139E+03</pdfrwt>
<totfact> 0.32468863E+03</totfact>
</mgrwt>
</event>
<event>
 4    1  0.3281630E-004  0.3112028E+03  0.7818608E-02  0.1079771E+00
          1   -1    0    0  501    0  0.00000000000E+00  0.00000000000E+00  0.56808535130E+02  0.56808535353E+02  0.50400000000E-02 0.  1.
         -1   -1    0    0    0  501 -0.00000000000E+00 -0.00000000000E+00 -0.42619988508E+03  0.42619988510E+03  0.50400000000E-02 0. -1.
    5000001    1    1    2    0    0 -0.97227243894E+02  0.92729957120E+02 -0.16111599534E+03  0.22347112981E+03  0.77000000000E+02 0.  0.
   -5000001    1    1    2    0    0  0.97227243894E+02 -0.92729957120E+02 -0.20827535460E+03  0.25953729065E+03  0.77000000000E+02 0.  0.
<mgrwt>
<rscale>  0 0.31120277E+03</rscale>
<asrwt>0</asrwt>
<pdfrwt beam="1">  1        1 0.81155053E-02 0.31120277E+03</pdfrwt>
<pdfrwt beam="2">  1       -1 0.60885696E-01 0.31120277E+03</pdfrwt>
<totfact> 0.24116590E+03</totfact>
</mgrwt>
</event>
<event>
 4    1  0.3281630E-004  0.2921977E+03  0.7818608E-02  0.1089207E+00
         -1   -1    0    0    0  501 -0.00000000000E+00  0.00000000000E+00  0.12273014242E+03  0.12273014252E+03  0.50400000000E-02 0. -1.
          1   -1    0    0  501    0  0.00000000000E+00 -0.00000000000E+00 -0.17391713809E+03  0.17391713816E+03  0.50400000000E-02 0.  1.
    5000001    1    1    2    0    0  0.10882919994E+03 -0.21537125295E+02 -0.82194005155E+02  0.15809015469E+03  0.77000000000E+02 0.  0.
   -5000001    1    1    2    0    0 -0.10882919994E+03  0.21537125295E+02  0.31007009488E+02  0.13855712599E+03  0.77000000000E+02 0.  0.
<mgrwt>
<rscale>  0 0.29219771E+03</rscale>
<asrwt>0</asrwt>
<pdfrwt beam="1">  1        1 0.24845305E-01 0.29219771E+03</pdfrwt>
<pdfrwt beam="2">  1       -1 0.17532878E-01 0.29219771E+03</pdfrwt>
<totfact> 0.48005929E+03</totfact>
</mgrwt>
</event>
<event>
 4    1  0.3281630E-004  0.3285498E+03  0.7818608E-02  0.1071780E+00
          1   -1    0    0  501    0  0.00000000000E+00  0.00000000000E+00  0.77875734560E+03  0.77875734561E+03  0.50400000000E-02 0.  1.
         -1   -1    0    0    0  501 -0.00000000000E+00 -0.00000000000E+00 -0.34652947689E+02  0.34652948055E+02  0.50400000000E-02 0. -1.
    5000001    1    1    2    0    0  0.86927316763E+02 -0.11316243970E+03  0.30677746308E+03  0.34699208638E+03  0.77000000000E+02 0.  0.
   -5000001    1    1    2    0    0 -0.86927316763E+02  0.11316243970E+03  0.43732693483E+03  0.46641820729E+03  0.77000000000E+02 0.  0.
<mgrwt>
<rscale>  0 0.32854977E+03</rscale>
<asrwt>0</asrwt>
<pdfrwt beam="1">  1        1 0.11125104E+00 0.32854977E+03</pdfrwt>
<pdfrwt beam="2">  1       -1 0.49504216E-02 0.32854977E+03</pdfrwt>
<totfact> 0.48135137E+03</totfact>
</mgrwt>
</event>
<event>
 4    1  0.3281630E-004  0.2051375E+03  0.7818608E-02  0.1145475E+00
          1   -1    0    0  501    0  0.00000000000E+00  0.00000000000E+00  0.11779101058E+03  0.11779101069E+03  0.50400000000E-02 0.  1.
         -1   -1    0    0    0  501 -0.00000000000E+00 -0.00000000000E+00 -0.89313677109E+02  0.89313677251E+02  0.50400000000E-02 0. -1.
    5000001    1    1    2    0    0 -0.40180827732E+02 -0.54533205085E+02  0.12496155566E+02  0.10331274499E+03  0.77000000000E+02 0.  0.
   -5000001    1    1    2    0    0  0.40180827732E+02  0.54533205085E+02  0.15981177909E+02  0.10379194295E+03  0.77000000000E+02 0.  0.
<mgrwt>
<rscale>  0 0.20513750E+03</rscale>
<asrwt>0</asrwt>
<pdfrwt beam="1">  1        1 0.16827287E-01 0.20513750E+03</pdfrwt>
<pdfrwt beam="2">  1       -1 0.12759097E-01 0.20513750E+03</pdfrwt>
<totfact> 0.12879231E+04</totfact>
</mgrwt>
</event>
<event>
 4    1  0.3281630E-004  0.2201774E+03  0.7818608E-02  0.1133751E+00
         -1   -1    0    0    0  501 -0.00000000000E+00  0.00000000000E+00  0.56317862079E+03  0.56317862081E+03  0.50400000000E-02 0.  1.
          1   -1    0    0  501    0  0.00000000000E+00 -0.00000000000E+00 -0.21519861884E+02  0.21519862474E+02  0.50400000000E-02 0. -1.
    5000001    1    1    2    0    0  0.52883197196E+02 -0.19749380141E+02  0.12528391193E+03  0.15751739317E+03  0.77000000000E+02 0.  0.
   -5000001    1    1    2    0    0 -0.52883197196E+02  0.19749380141E+02  0.41637484697E+03  0.42718109012E+03  0.77000000000E+02 0.  0.
<mgrwt>
<rscale>  0 0.22017744E+03</rscale>
<asrwt>0</asrwt>
<pdfrwt beam="1">  1        1 0.30742662E-02 0.22017744E+03</pdfrwt>
<pdfrwt beam="2">  1       -1 0.80454084E-01 0.22017744E+03</pdfrwt>
<totfact> 0.52295730E+03</totfact>
</mgrwt>
</event>
<event>
 4    1  0.3281630E-004  0.2590431E+03  0.7818608E-02  0.1107719E+00
         -1   -1    0    0    0  501 -0.00000000000E+00  0.00000000000E+00  0.20702811577E+02  0.20702812191E+02  0.50400000000E-02 0. -1.
          1   -1    0    0  501    0  0.00000000000E+00 -0.00000000000E+00 -0.81031685061E+03  0.81031685062E+03  0.50400000000E-02 0.  1.
    5000001    1    1    2    0    0 -0.80499206473E+02 -0.47651727454E+02 -0.24793544955E+03  0.27595614962E+03  0.77000000000E+02 0.  0.
   -5000001    1    1    2    0    0  0.80499206473E+02  0.47651727454E+02 -0.54167858948E+03  0.55506351319E+03  0.77000000000E+02 0.  0.
<mgrwt>
<rscale>  0 0.25904314E+03</rscale>
<asrwt>0</asrwt>
<pdfrwt beam="1">  1        1 0.11575953E+00 0.25904314E+03</pdfrwt>
<pdfrwt beam="2">  1       -1 0.29575451E-02 0.25904314E+03</pdfrwt>
<totfact> 0.97013644E+03</totfact>
</mgrwt>
</event>
<event>
 4    1  0.3281630E-004  0.2116765E+03  0.7818608E-02  0.1140245E+00
         -1   -1    0    0    0  501 -0.00000000000E+00  0.00000000000E+00  0.13143460336E+02  0.13143461303E+02  0.50400000000E-02 0. -1.
          1   -1    0    0  501    0  0.00000000000E+00 -0.00000000000E+00 -0.85226658408E+03  0.85226658410E+03  0.50400000000E-02 0.  1.
    5000001    1    1    2    0    0  0.41732025083E+02 -0.59361360715E+02 -0.43068266177E+03  0.44348831801E+03  0.77000000000E+02 0.  0.
   -5000001    1    1    2    0    0 -0.41732025083E+02  0.59361360715E+02 -0.40844046198E+03  0.42192172739E+03  0.77000000000E+02 0.  0.
<mgrwt>
<rscale>  0 0.21167647E+03</rscale>
<asrwt>0</asrwt>
<pdfrwt beam="1">  1        1 0.12175233E+00 0.21167647E+03</pdfrwt>
<pdfrwt beam="2">  1       -1 0.18776378E-02 0.21167647E+03</pdfrwt>
<totfact> 0.17306290E+04</totfact>
</mgrwt>
</event>
<event>
 4    1  0.3281630E-004  0.1627203E+03  0.7818608E-02  0.1185659E+00
         -1   -1    0    0    0  501 -0.00000000000E+00  0.00000000000E+00  0.80097721461E+01  0.80097737318E+01  0.50400000000E-02 0. -1.
          1   -1    0    0  501    0  0.00000000000E+00 -0.00000000000E+00 -0.82642451432E+03  0.82642451434E+03  0.50400000000E-02 0.  1.
    5000001    1    1    2    0    0 -0.24659440661E+01 -0.25192042636E+02 -0.37303646836E+03  0.38174065361E+03  0.77000000000E+02 0.  0.
   -5000001    1    1    2    0    0  0.24659440661E+01  0.25192042636E+02 -0.44537827382E+03  0.45269363446E+03  0.77000000000E+02 0.  0.
<mgrwt>
<rscale>  0 0.16272028E+03</rscale>
<asrwt>0</asrwt>
<pdfrwt beam="1">  1        1 0.11806059E+00 0.16272028E+03</pdfrwt>
<pdfrwt beam="2">  1       -1 0.11442538E-02 0.16272028E+03</pdfrwt>
<totfact> 0.36341174E+04</totfact>
</mgrwt>
</event>
<event>
 4    1  0.3281630E-004  0.1628284E+03  0.7818608E-02  0.1185540E+00
          1   -1    0    0  501    0  0.00000000000E+00  0.00000000000E+00  0.57072796027E+03  0.57072796029E+03  0.50400000000E-02 0. -1.
         -1   -1    0    0    0  501 -0.00000000000E+00 -0.00000000000E+00 -0.11613716746E+02  0.11613717839E+02  0.50400000000E-02 0.  1.
    5000001    1    1    2    0    0 -0.10310818319E+02  0.22495812846E+02  0.31289624146E+03  0.32318018580E+03  0.77000000000E+02 0.  0.
   -5000001    1    1    2    0    0  0.10310818319E+02 -0.22495812846E+02  0.24621800206E+03  0.25916149233E+03  0.77000000000E+02 0.  0.
<mgrwt>
<rscale>  0 0.16282842E+03</rscale>
<asrwt>0</asrwt>
<pdfrwt beam="1">  1        1 0.81532581E-01 0.16282842E+03</pdfrwt>
<pdfrwt beam="2">  1       -1 0.16591022E-02 0.16282842E+03</pdfrwt>
<totfact> 0.35748117E+04</totfact>
</mgrwt>
</event>
<event>
 4    1  0.3281630E-004  0.2383834E+03  0.7818608E-02  0.1120874E+00
          1   -1    0    0  501    0  0.00000000000E+00  0.00000000000E+00  0.19035769273E+02  0.19035769940E+02  0.50400000000E-02 0. -1.
         -1   -1    0    0    0  501 -0.00000000000E+00 -0.00000000000E+00 -0.74631369708E+03  0.74631369710E+03  0.50400000000E-02 0.  1.
    5000001    1    1    2    0    0 -0.79161495898E+02  0.27703446754E+02 -0.47686070865E+03  0.49026437648E+03  0.77000000000E+02 0.  0.
   -5000001    1    1    2    0    0  0.79161495898E+02 -0.27703446754E+02 -0.25041721916E+03  0.27508509056E+03  0.77000000000E+02 0.  0.
<mgrwt>
<rscale>  0 0.23838335E+03</rscale>
<asrwt>0</asrwt>
<pdfrwt beam="1">  1        1 0.27193961E-02 0.23838335E+03</pdfrwt>
<pdfrwt beam="2">  1       -1 0.10661622E+00 0.23838335E+03</pdfrwt>
<totfact> 0.33868927E+03</totfact>
</mgrwt>
</event>
<event>
 4    1  0.3281630E-004  0.8555829E+03  0.7818608E-02  0.9482874E-01
          1   -1    0    0  501    0  0.00000000000E+00  0.00000000000E+00  0.17665287186E+04  0.17665287186E+04  0.50400000000E-02 0.  1.
         -1   -1    0    0    0  501 -0.00000000000E+00 -0.00000000000E+00 -0.10359611365E+03  0.10359611377E+03  0.50400000000E-02 0. -1.
    5000001    1    1    2    0    0 -0.62902399506E+02 -0.34373805489E+03  0.13439115592E+04  0.13907335622E+04  0.77000000000E+02 0.  0.
   -5000001    1    1    2    0    0  0.62902399506E+02  0.34373805489E+03  0.31902104577E+03  0.47939127014E+03  0.77000000000E+02 0.  0.
<mgrwt>
<rscale>  0 0.85558287E+03</rscale>
<asrwt>0</asrwt>
<pdfrwt beam="1">  1        1 0.25236126E+00 0.85558287E+03</pdfrwt>
<pdfrwt beam="2">  1       -1 0.14799444E-01 0.85558287E+03</pdfrwt>
<totfact> 0.17843262E+02</totfact>
</mgrwt>
</event>
<event>
 4    1  0.3281630E-004  0.2348720E+03  0.7818608E-02  0.1123257E+00
         -1   -1    0    0    0  501 -0.00000000000E+00  0.00000000000E+00  0.32505295672E+02  0.32505296063E+02  0.50400000000E-02 0. -1.
          1   -1    0    0  501    0  0.00000000000E+00 -0.00000000000E+00 -0.42427591249E+03  0.42427591252E+03  0.50400000000E-02 0.  1.
    5000001    1    1    2    0    0 -0.71999651804E+02 -0.28134625915E+02 -0.28036050651E+03  0.30084301662E+03  0.77000000000E+02 0.  0.
   -5000001    1    1    2    0    0  0.71999651804E+02  0.28134625915E+02 -0.11141011031E+03  0.15593819197E+03  0.77000000000E+02 0.  0.
<mgrwt>
<rscale>  0 0.23487200E+03</rscale>
<asrwt>0</asrwt>
<pdfrwt beam="1">  1        1 0.60610841E-01 0.23487200E+03</pdfrwt>
<pdfrwt beam="2">  1       -1 0.46436140E-02 0.23487200E+03</pdfrwt>
<totfact> 0.11955533E+04</totfact>
</mgrwt>
</event>
<event>
 4    1  0.3281630E-004  0.2060783E+03  0.7818608E-02  0.1144710E+00
          1   -1    0    0  501    0  0.00000000000E+00  0.00000000000E+00  0.15395161207E+04  0.15395161207E+04  0.50400000000E-02 0.  1.
         -1   -1    0    0    0  501 -0.00000000000E+00 -0.00000000000E+00 -0.68963642028E+01  0.68963660445E+01  0.50400000000E-02 0. -1.
    5000001    1    1    2    0    0  0.13789609542E+01  0.60889153682E+02  0.10010634962E+04  0.10058660517E+04  0.77000000000E+02 0.  0.
   -5000001    1    1    2    0    0 -0.13789609542E+01 -0.60889153682E+02  0.53155626024E+03  0.54054643498E+03  0.77000000000E+02 0.  0.
<mgrwt>
<rscale>  0 0.20607829E+03</rscale>
<asrwt>0</asrwt>
<pdfrwt beam="1">  1        1 0.21993097E+00 0.20607829E+03</pdfrwt>
<pdfrwt beam="2">  1       -1 0.98519461E-03 0.20607829E+03</pdfrwt>
<totfact> 0.15144047E+04</totfact>
</mgrwt>
</event>
<event>
 4    1  0.3281630E-004  0.2018686E+03  0.7818608E-02  0.1148172E+00
          1   -1    0    0  501    0  0.00000000000E+00  0.00000000000E+00  0.41316518551E+03  0.41316518554E+03  0.50400000000E-02 0.  1.
         -1   -1    0    0    0  501 -0.00000000000E+00 -0.00000000000E+00 -0.24657769021E+02  0.24657769536E+02  0.50400000000E-02 0. -1.
    5000001    1    1    2    0    0  0.19689427226E+02 -0.62217453023E+02  0.19378438258E+03  0.21849501581E+03  0.77000000000E+02 0.  0.
   -5000001    1    1    2    0    0 -0.19689427226E+02  0.62217453023E+02  0.19472303391E+03  0.21932793926E+03  0.77000000000E+02 0.  0.
<mgrwt>
<rscale>  0 0.20186859E+03</rscale>
<asrwt>0</asrwt>
<pdfrwt beam="1">  1        1 0.59023588E-01 0.20186859E+03</pdfrwt>
<pdfrwt beam="2">  1       -1 0.35225390E-02 0.20186859E+03</pdfrwt>
<totfact> 0.18447767E+04</totfact>
</mgrwt>
</event>
<event>
 4    1  0.3281630E-004  0.1822677E+03  0.7818608E-02  0.1165626E+00
         -1   -1    0    0    0  501 -0.00000000000E+00  0.00000000000E+00  0.93929305147E+02  0.93929305282E+02  0.50400000000E-02 0.  1.
          1   -1    0    0  501    0  0.00000000000E+00 -0.00000000000E+00 -0.88421554270E+02  0.88421554413E+02  0.50400000000E-02 0. -1.
    5000001    1    1    2    0    0 -0.10006861057E+02 -0.44430386705E+02 -0.14637345717E+02  0.90650142971E+02  0.77000000000E+02 0.  0.
   -5000001    1    1    2    0    0  0.10006861057E+02  0.44430386705E+02  0.20145096595E+02  0.91700716725E+02  0.77000000000E+02 0.  0.
<mgrwt>
<rscale>  0 0.18226766E+03</rscale>
<asrwt>0</asrwt>
<pdfrwt beam="1">  1        1 0.12631651E-01 0.18226766E+03</pdfrwt>
<pdfrwt beam="2">  1       -1 0.13418472E-01 0.18226766E+03</pdfrwt>
<totfact> 0.17160772E+04</totfact>
</mgrwt>
</event>
<event>
 4    1  0.3281630E-004  0.2302589E+03  0.7818608E-02  0.1126458E+00
         -1   -1    0    0    0  501 -0.00000000000E+00  0.00000000000E+00  0.27252248603E+03  0.27252248607E+03  0.50400000000E-02 0.  1.
          1   -1    0    0  501    0  0.00000000000E+00 -0.00000000000E+00 -0.48637434912E+02  0.48637435173E+02  0.50400000000E-02 0. -1.
    5000001    1    1    2    0    0 -0.73845410943E+02  0.24040541811E+02  0.16212936117E+03  0.19556590225E+03  0.77000000000E+02 0.  0.
   -5000001    1    1    2    0    0  0.73845410943E+02 -0.24040541811E+02  0.61755689942E+02  0.12559401900E+03  0.77000000000E+02 0.  0.
<mgrwt>
<rscale>  0 0.23025894E+03</rscale>
<asrwt>0</asrwt>
<pdfrwt beam="1">  1        1 0.69482049E-02 0.23025894E+03</pdfrwt>
<pdfrwt beam="2">  1       -1 0.38931785E-01 0.23025894E+03</pdfrwt>
<totfact> 0.67231793E+03</totfact>
</mgrwt>
</event>
<event>
 4    1  0.3281630E-004  0.2835293E+03  0.7818608E-02  0.1093777E+00
         -1   -1    0    0    0  501 -0.00000000000E+00  0.00000000000E+00  0.12749731502E+03  0.12749731512E+03  0.50400000000E-02 0.  1.
          1   -1    0    0  501    0  0.00000000000E+00 -0.00000000000E+00 -0.15762850650E+03  0.15762850658E+03  0.50400000000E-02 0. -1.
    5000001    1    1    2    0    0  0.87048314743E+02 -0.50886718692E+02 -0.78677970131E+02  0.14928526459E+03  0.77000000000E+02 0.  0.
   -5000001    1    1    2    0    0 -0.87048314743E+02  0.50886718692E+02  0.48546778652E+02  0.13584055711E+03  0.77000000000E+02 0.  0.
<mgrwt>
<rscale>  0 0.28352927E+03</rscale>
<asrwt>0</asrwt>
<pdfrwt beam="1">  1        1 0.22518358E-01 0.28352927E+03</pdfrwt>
<pdfrwt beam="2">  1       -1 0.18213902E-01 0.28352927E+03</pdfrwt>
<totfact> 0.51147418E+03</totfact>
</mgrwt>
</event>
<event>
 4    1  0.3281630E-004  0.1885818E+03  0.7818608E-02  0.1159747E+00
         -1   -1    0    0    0  501 -0.00000000000E+00  0.00000000000E+00  0.29587889697E+01  0.29587932622E+01  0.50400000000E-02 0. -1.
          1   -1    0    0  501    0  0.00000000000E+00 -0.00000000000E+00 -0.30048667737E+04  0.30048667737E+04  0.50400000000E-02 0.  1.
    5000001    1    1    2    0    0 -0.14106227547E+02 -0.52481051222E+02 -0.14543799154E+04  0.14574303361E+04  0.77000000000E+02 0.  0.
   -5000001    1    1    2    0    0  0.14106227547E+02  0.52481051222E+02 -0.15475280694E+04  0.15503952308E+04  0.77000000000E+02 0.  0.
<mgrwt>
<rscale>  0 0.18858179E+03</rscale>
<asrwt>0</asrwt>
<pdfrwt beam="1">  1        1 0.42926473E+00 0.18858179E+03</pdfrwt>
<pdfrwt beam="2">  1       -1 0.42268637E-03 0.18858179E+03</pdfrwt>
<totfact> 0.65485880E+03</totfact>
</mgrwt>
</event>
<event>
 4    1  0.3281630E-004  0.5578494E+03  0.7818608E-02  0.9996933E-01
         -1   -1    0    0    0  501 -0.00000000000E+00  0.00000000000E+00  0.43409330456E+02  0.43409330749E+02  0.50400000000E-02 0. -1.
          1   -1    0    0  501    0  0.00000000000E+00 -0.00000000000E+00 -0.17922178211E+04  0.17922178211E+04  0.50400000000E-02 0.  1.
    5000001    1    1    2    0    0 -0.13864856172E+03  0.21338513985E+03 -0.11519305470E+04  0.11822138667E+04  0.77000000000E+02 0.  0.
   -5000001    1    1    2    0    0  0.13864856172E+03 -0.21338513985E+03 -0.59687794369E+03  0.65341328517E+03  0.77000000000E+02 0.  0.
<mgrwt>
<rscale>  0 0.55784936E+03</rscale>
<asrwt>0</asrwt>
<pdfrwt beam="1">  1        1 0.25603107E+00 0.55784936E+03</pdfrwt>
<pdfrwt beam="2">  1       -1 0.62013341E-02 0.55784936E+03</pdfrwt>
<totfact> 0.69355436E+02</totfact>
</mgrwt>
</event>
<event>
 4    1  0.3281630E-004  0.3294721E+03  0.7818608E-02  0.1071371E+00
         -1   -1    0    0    0  501 -0.00000000000E+00  0.00000000000E+00  0.61895193196E+02  0.61895193402E+02  0.50400000000E-02 0. -1.
          1   -1    0    0  501    0  0.00000000000E+00 -0.00000000000E+00 -0.43845036514E+03  0.43845036517E+03  0.50400000000E-02 0.  1.
    5000001    1    1    2    0    0  0.33968898513E+01 -0.12906448765E+03 -0.85955538678E+02  0.17316620762E+03  0.77000000000E+02 0.  0.
   -5000001    1    1    2    0    0 -0.33968898513E+01  0.12906448765E+03 -0.29059963326E+03  0.32717935095E+03  0.77000000000E+02 0.  0.
<mgrwt>
<rscale>  0 0.32947212E+03</rscale>
<asrwt>0</asrwt>
<pdfrwt beam="1">  1        1 0.62635765E-01 0.32947212E+03</pdfrwt>
<pdfrwt beam="2">  1       -1 0.88421707E-02 0.32947212E+03</pdfrwt>
<totfact> 0.43759763E+03</totfact>
</mgrwt>
</event>
<event>
 4    1  0.3281630E-004  0.2471444E+03  0.7818608E-02  0.1115123E+00
         -1   -1    0    0    0  501 -0.00000000000E+00  0.00000000000E+00  0.64120358173E+03  0.64120358175E+03  0.50400000000E-02 0. -1.
          1   -1    0    0  501    0  0.00000000000E+00 -0.00000000000E+00 -0.23814726383E+02  0.23814726917E+02  0.50400000000E-02 0.  1.
    5000001    1    1    2    0    0 -0.28816290237E+02  0.90375498255E+02  0.25886149389E+03  0.28624531837E+03  0.77000000000E+02 0.  0.
   -5000001    1    1    2    0    0  0.28816290237E+02 -0.90375498255E+02  0.35852736146E+03  0.37877299030E+03  0.77000000000E+02 0.  0.
<mgrwt>
<rscale>  0 0.24714440E+03</rscale>
<asrwt>0</asrwt>
<pdfrwt beam="1">  1        1 0.34021041E-02 0.24714440E+03</pdfrwt>
<pdfrwt beam="2">  1       -1 0.91600504E-01 0.24714440E+03</pdfrwt>
<totfact> 0.34683286E+03</totfact>
</mgrwt>
</event>
<event>
 4    1  0.3281630E-004  0.1868830E+03  0.7818608E-02  0.1161303E+00
         -1   -1    0    0    0  501 -0.00000000000E+00  0.00000000000E+00  0.79101376950E+01  0.79101393006E+01  0.50400000000E-02 0. -1.
          1   -1    0    0  501    0  0.00000000000E+00 -0.00000000000E+00 -0.11038134465E+04  0.11038134465E+04  0.50400000000E-02 0.  1.
    5000001    1    1    2    0    0 -0.19487747077E+02 -0.43919831695E+02 -0.68011517186E+03  0.68614456997E+03  0.77000000000E+02 0.  0.
   -5000001    1    1    2    0    0  0.19487747077E+02  0.43919831695E+02 -0.41578813692E+03  0.42557901582E+03  0.77000000000E+02 0.  0.
<mgrwt>
<rscale>  0 0.18688304E+03</rscale>
<asrwt>0</asrwt>
<pdfrwt beam="1">  1        1 0.15768754E+00 0.18688304E+03</pdfrwt>
<pdfrwt beam="2">  1       -1 0.11300205E-02 0.18688304E+03</pdfrwt>
<totfact> 0.23543006E+04</totfact>
</mgrwt>
</event>
<event>
 4    1  0.3281630E-004  0.2359743E+03  0.7818608E-02  0.1122504E+00
          1   -1    0    0  501    0  0.00000000000E+00  0.00000000000E+00  0.18091563103E+03  0.18091563110E+03  0.50400000000E-02 0.  1.
         -1   -1    0    0    0  501 -0.00000000000E+00 -0.00000000000E+00 -0.76947258922E+02  0.76947259087E+02  0.50400000000E-02 0. -1.
    5000001    1    1    2    0    0  0.80696936045E+02  0.16289055039E+01  0.93985270505E+02  0.14586596550E+03  0.77000000000E+02 0.  0.
   -5000001    1    1    2    0    0 -0.80696936045E+02 -0.16289055039E+01  0.99831015988E+01  0.11199692468E+03  0.77000000000E+02 0.  0.
<mgrwt>
<rscale>  0 0.23597425E+03</rscale>
<asrwt>0</asrwt>
<pdfrwt beam="1">  1        1 0.25845090E-01 0.23597425E+03</pdfrwt>
<pdfrwt beam="2">  1       -1 0.10992466E-01 0.23597425E+03</pdfrwt>
<totfact> 0.94526038E+03</totfact>
</mgrwt>
</event>
<event>
 4    1  0.3281630E-004  0.2363333E+03  0.7818608E-02  0.1122260E+00
          1   -1    0    0  501    0  0.00000000000E+00  0.00000000000E+00  0.30026595452E+03  0.30026595456E+03  0.50400000000E-02 0.  1.
         -1   -1    0    0    0  501 -0.00000000000E+00 -0.00000000000E+00 -0.46503291718E+02  0.46503291991E+02  0.50400000000E-02 0. -1.
    5000001    1    1    2    0    0 -0.56820416728E+02  0.68513525411E+02  0.14238832166E+03  0.18473250138E+03  0.77000000000E+02 0.  0.
   -5000001    1    1    2    0    0  0.56820416728E+02 -0.68513525411E+02  0.11137434114E+03  0.16203674517E+03  0.77000000000E+02 0.  0.
<mgrwt>
<rscale>  0 0.23633328E+03</rscale>
<asrwt>0</asrwt>
<pdfrwt beam="1">  1        1 0.42895135E-01 0.23633328E+03</pdfrwt>
<pdfrwt beam="2">  1       -1 0.66433276E-02 0.23633328E+03</pdfrwt>
<totfact> 0.10806805E+04</totfact>
</mgrwt>
</event>
<event>
 4    1  0.3281630E-004  0.1779855E+03  0.7818608E-02  0.1169767E+00
          1   -1    0    0  501    0  0.00000000000E+00  0.00000000000E+00  0.20022744937E+02  0.20022745571E+02  0.50400000000E-02 0. -1.
         -1   -1    0    0    0  501 -0.00000000000E+00 -0.00000000000E+00 -0.39553559465E+03  0.39553559468E+03  0.50400000000E-02 0.  1.
    5000001    1    1    2    0    0  0.91239559745E+01 -0.43140098688E+02 -0.17185349032E+03  0.19340872995E+03  0.77000000000E+02 0.  0.
   -5000001    1    1    2    0    0 -0.91239559745E+01  0.43140098688E+02 -0.20365935940E+03  0.22214961030E+03  0.77000000000E+02 0.  0.
<mgrwt>
<rscale>  0 0.17798549E+03</rscale>
<asrwt>0</asrwt>
<pdfrwt beam="1">  1        1 0.28603924E-02 0.17798549E+03</pdfrwt>
<pdfrwt beam="2">  1       -1 0.56505081E-01 0.17798549E+03</pdfrwt>
<totfact> 0.11445111E+04</totfact>
</mgrwt>
</event>
<event>
 4    1  0.3281630E-004  0.2045075E+03  0.7818608E-02  0.1145991E+00
         -1   -1    0    0    0  501 -0.00000000000E+00  0.00000000000E+00  0.73329694127E+02  0.73329694300E+02  0.50400000000E-02 0.  1.
          1   -1    0    0  501    0  0.00000000000E+00 -0.00000000000E+00 -0.14258663449E+03  0.14258663458E+03  0.50400000000E-02 0. -1.
    5000001    1    1    2    0    0  0.66049580925E+02 -0.32139598395E+01 -0.47728635426E+02  0.11216015031E+03  0.77000000000E+02 0.  0.
   -5000001    1    1    2    0    0 -0.66049580925E+02  0.32139598395E+01 -0.21528304941E+02  0.10375617857E+03  0.77000000000E+02 0.  0.
<mgrwt>
<rscale>  0 0.20450755E+03</rscale>
<asrwt>0</asrwt>
<pdfrwt beam="1">  1        1 0.20369519E-01 0.20450755E+03</pdfrwt>
<pdfrwt beam="2">  1       -1 0.10475671E-01 0.20450755E+03</pdfrwt>
<totfact> 0.13669491E+04</totfact>
</mgrwt>
</event>
<event>
 4    1  0.3281630E-004  0.2571549E+03  0.7818608E-02  0.1108865E+00
          1   -1    0    0  501    0  0.00000000000E+00  0.00000000000E+00  0.20035259604E+04  0.20035259604E+04  0.50400000000E-02 0. -1.
         -1   -1    0    0    0  501 -0.00000000000E+00 -0.00000000000E+00 -0.82515350484E+01  0.82515365876E+01  0.50400000000E-02 0.  1.
    5000001    1    1    2    0    0 -0.95459718220E+02  0.27666307816E+02  0.78696409161E+03  0.79694382731E+03  0.77000000000E+02 0.  0.
   -5000001    1    1    2    0    0  0.95459718220E+02 -0.27666307816E+02  0.12083103337E+04  0.12148336697E+04  0.77000000000E+02 0.  0.
<mgrwt>
<rscale>  0 0.25715494E+03</rscale>
<asrwt>0</asrwt>
<pdfrwt beam="1">  1        1 0.28621880E+00 0.25715494E+03</pdfrwt>
<pdfrwt beam="2">  1       -1 0.11787875E-02 0.25715494E+03</pdfrwt>
<totfact> 0.61558637E+03</totfact>
</mgrwt>
</event>
<event>
 4    1  0.3281630E-004  0.8648165E+03  0.7818608E-02  0.9470664E-01
         -1   -1    0    0    0  501 -0.00000000000E+00  0.00000000000E+00  0.22722263358E+03  0.22722263363E+03  0.50400000000E-02 0.  1.
          1   -1    0    0  501    0  0.00000000000E+00 -0.00000000000E+00 -0.82287964573E+03  0.82287964575E+03  0.50400000000E-02 0. -1.
    5000001    1    1    2    0    0  0.22663029159E+03 -0.35721270712E+03 -0.35328223656E+03  0.55650655509E+03  0.77000000000E+02 0.  0.
   -5000001    1    1    2    0    0 -0.22663029159E+03  0.35721270712E+03 -0.24237477559E+03  0.49359572429E+03  0.77000000000E+02 0.  0.
<mgrwt>
<rscale>  0 0.86481647E+03</rscale>
<asrwt>0</asrwt>
<pdfrwt beam="1">  1        1 0.11755423E+00 0.86481647E+03</pdfrwt>
<pdfrwt beam="2">  1       -1 0.32460377E-01 0.86481647E+03</pdfrwt>
<totfact> 0.21256205E+02</totfact>
</mgrwt>
</event>
<event>
 4    1  0.3281630E-004  0.1644429E+03  0.7818608E-02  0.1183770E+00
          1   -1    0    0  501    0  0.00000000000E+00  0.00000000000E+00  0.39750559603E+03  0.39750559606E+03  0.50400000000E-02 0. -1.
         -1   -1    0    0    0  501 -0.00000000000E+00 -0.00000000000E+00 -0.17006978825E+02  0.17006979571E+02  0.50400000000E-02 0.  1.
    5000001    1    1    2    0    0  0.27119063449E+02 -0.50103303018E+01  0.21146258898E+03  0.22672885469E+03  0.77000000000E+02 0.  0.
   -5000001    1    1    2    0    0 -0.27119063449E+02  0.50103303018E+01  0.16903602822E+03  0.18778372094E+03  0.77000000000E+02 0.  0.
<mgrwt>
<rscale>  0 0.16444293E+03</rscale>
<asrwt>0</asrwt>
<pdfrwt beam="1">  1        1 0.56786516E-01 0.16444293E+03</pdfrwt>
<pdfrwt beam="2">  1       -1 0.24295684E-02 0.16444293E+03</pdfrwt>
<totfact> 0.32800825E+04</totfact>
</mgrwt>
</event>
<event>
 4    1  0.3281630E-004  0.3313350E+03  0.7818608E-02  0.1070548E+00
         -1   -1    0    0    0  501 -0.00000000000E+00  0.00000000000E+00  0.72489346360E+02  0.72489346535E+02  0.50400000000E-02 0. -1.
          1   -1    0    0  501    0  0.00000000000E+00 -0.00000000000E+00 -0.37861733480E+03  0.37861733483E+03  0.50400000000E-02 0.  1.
    5000001    1    1    2    0    0  0.44146653435E+02  0.65216181223E+02 -0.32155060875E+03  0.33989096971E+03  0.77000000000E+02 0.  0.
   -5000001    1    1    2    0    0 -0.44146653435E+02 -0.65216181223E+02  0.15422620308E+02  0.11121571166E+03  0.77000000000E+02 0.  0.
<mgrwt>
<rscale>  0 0.33133502E+03</rscale>
<asrwt>0</asrwt>
<pdfrwt beam="1">  1        1 0.54088190E-01 0.33133502E+03</pdfrwt>
<pdfrwt beam="2">  1       -1 0.10355621E-01 0.33133502E+03</pdfrwt>
<totfact> 0.41367684E+03</totfact>
</mgrwt>
</event>
<event>
 4    1  0.3281630E-004  0.4714681E+03  0.7818608E-02  0.1021507E+00
          1   -1    0    0  501    0  0.00000000000E+00  0.00000000000E+00  0.19381352145E+04  0.19381352145E+04  0.50400000000E-02 0.  1.
         -1   -1    0    0    0  501 -0.00000000000E+00 -0.00000000000E+00 -0.28672175208E+02  0.28672175651E+02  0.50400000000E-02 0. -1.
    5000001    1    1    2    0    0 -0.16171133312E+03  0.15236556768E+03  0.88546033710E+03  0.91615218717E+03  0.77000000000E+02 0.  0.
   -5000001    1    1    2    0    0  0.16171133312E+03 -0.15236556768E+03  0.10240027021E+04  0.10506552029E+04  0.77000000000E+02 0.  0.
<mgrwt>
<rscale>  0 0.47146814E+03</rscale>
<asrwt>0</asrwt>
<pdfrwt beam="1">  1        1 0.27687647E+00 0.47146814E+03</pdfrwt>
<pdfrwt beam="2">  1       -1 0.40960248E-02 0.47146814E+03</pdfrwt>
<totfact> 0.10663125E+03</totfact>
</mgrwt>
</event>
<event>
 4    1  0.3281630E-004  0.9574241E+03  0.7818608E-02  0.9356515E-01
          1   -1    0    0  501    0  0.00000000000E+00  0.00000000000E+00  0.32387713015E+03  0.32387713019E+03  0.50400000000E-02 0. -1.
         -1   -1    0    0    0  501 -0.00000000000E+00 -0.00000000000E+00 -0.70756843065E+03  0.70756843067E+03  0.50400000000E-02 0.  1.
    5000001    1    1    2    0    0 -0.28339365351E+03  0.26574175255E+03  0.97840605101E+02  0.40796130443E+03  0.77000000000E+02 0.  0.
   -5000001    1    1    2    0    0  0.28339365351E+03 -0.26574175255E+03 -0.48153190561E+03  0.62348425643E+03  0.77000000000E+02 0.  0.
<mgrwt>
<rscale>  0 0.95742411E+03</rscale>
<asrwt>0</asrwt>
<pdfrwt beam="1">  1        1 0.46268162E-01 0.95742411E+03</pdfrwt>
<pdfrwt beam="2">  1       -1 0.10108120E+00 0.95742411E+03</pdfrwt>
<totfact> 0.81693014E+01</totfact>
</mgrwt>
</event>
<event>
 4    1  0.3281630E-004  0.2265236E+03  0.7818608E-02  0.1129111E+00
          1   -1    0    0  501    0  0.00000000000E+00  0.00000000000E+00  0.22983109827E+03  0.22983109833E+03  0.50400000000E-02 0.  1.
         -1   -1    0    0    0  501 -0.00000000000E+00 -0.00000000000E+00 -0.55815924977E+02  0.55815925205E+02  0.50400000000E-02 0. -1.
    5000001    1    1    2    0    0  0.56490744320E+02  0.56539684071E+02  0.11552119316E+03  0.16019390169E+03  0.77000000000E+02 0.  0.
   -5000001    1    1    2    0    0 -0.56490744320E+02 -0.56539684071E+02  0.58493980135E+02  0.12545312185E+03  0.77000000000E+02 0.  0.
<mgrwt>
<rscale>  0 0.22652360E+03</rscale>
<asrwt>0</asrwt>
<pdfrwt beam="1">  1        1 0.32833015E-01 0.22652360E+03</pdfrwt>
<pdfrwt beam="2">  1       -1 0.79737034E-02 0.22652360E+03</pdfrwt>
<totfact> 0.11422380E+04</totfact>
</mgrwt>
</event>
<event>
 4    1  0.3281630E-004  0.4744888E+03  0.7818608E-02  0.1020661E+00
         -1   -1    0    0    0  501 -0.00000000000E+00  0.00000000000E+00  0.49798382120E+03  0.49798382123E+03  0.50400000000E-02 0. -1.
          1   -1    0    0  501    0  0.00000000000E+00 -0.00000000000E+00 -0.11302559027E+03  0.11302559039E+03  0.50400000000E-02 0.  1.
    5000001    1    1    2    0    0  0.55718778437E+02  0.18340508605E+03  0.34272870476E+03  0.40016743111E+03  0.77000000000E+02 0.  0.
   -5000001    1    1    2    0    0 -0.55718778437E+02 -0.18340508605E+03  0.42229526174E+02  0.21084198050E+03  0.77000000000E+02 0.  0.
<mgrwt>
<rscale>  0 0.47448884E+03</rscale>
<asrwt>0</asrwt>
<pdfrwt beam="1">  1        1 0.16146513E-01 0.47448884E+03</pdfrwt>
<pdfrwt beam="2">  1       -1 0.71140545E-01 0.47448884E+03</pdfrwt>
<totfact> 0.70301204E+02</totfact>
</mgrwt>
</event>
<event>
 4    1  0.3281630E-004  0.1857146E+03  0.7818608E-02  0.1162384E+00
         -1   -1    0    0    0  501 -0.00000000000E+00  0.00000000000E+00  0.27649755143E+02  0.27649755602E+02  0.50400000000E-02 0.  1.
          1   -1    0    0  501    0  0.00000000000E+00 -0.00000000000E+00 -0.31184644757E+03  0.31184644761E+03  0.50400000000E-02 0. -1.
    5000001    1    1    2    0    0 -0.82516706825E+01 -0.51207390585E+02 -0.14536390806E+03  0.17248174595E+03  0.77000000000E+02 0.  0.
   -5000001    1    1    2    0    0  0.82516706825E+01  0.51207390585E+02 -0.13883278437E+03  0.16701445726E+03  0.77000000000E+02 0.  0.
<mgrwt>
<rscale>  0 0.18571460E+03</rscale>
<asrwt>0</asrwt>
<pdfrwt beam="1">  1        1 0.44549490E-01 0.18571460E+03</pdfrwt>
<pdfrwt beam="2">  1       -1 0.39499652E-02 0.18571460E+03</pdfrwt>
<totfact> 0.22040566E+04</totfact>
</mgrwt>
</event>
<event>
 4    1  0.3281630E-004  0.3433775E+03  0.7818608E-02  0.1065366E+00
          1   -1    0    0  501    0  0.00000000000E+00  0.00000000000E+00  0.81399718439E+02  0.81399718595E+02  0.50400000000E-02 0. -1.
         -1   -1    0    0    0  501 -0.00000000000E+00 -0.00000000000E+00 -0.36212695127E+03  0.36212695130E+03  0.50400000000E-02 0.  1.
    5000001    1    1    2    0    0 -0.49067651392E+02  0.12998538407E+03 -0.22451197661E+03  0.27502447550E+03  0.77000000000E+02 0.  0.
   -5000001    1    1    2    0    0  0.49067651392E+02 -0.12998538407E+03 -0.56215256220E+02  0.16850219440E+03  0.77000000000E+02 0.  0.
<mgrwt>
<rscale>  0 0.34337753E+03</rscale>
<asrwt>0</asrwt>
<pdfrwt beam="1">  1        1 0.11628531E-01 0.34337753E+03</pdfrwt>
<pdfrwt beam="2">  1       -1 0.51732421E-01 0.34337753E+03</pdfrwt>
<totfact> 0.20248932E+03</totfact>
</mgrwt>
</event>
<event>
 4    1  0.3281630E-004  0.2244966E+03  0.7818608E-02  0.1130574E+00
          1   -1    0    0  501    0  0.00000000000E+00  0.00000000000E+00  0.10711183833E+04  0.10711183834E+04  0.50400000000E-02 0.  1.
         -1   -1    0    0    0  501 -0.00000000000E+00 -0.00000000000E+00 -0.11763111943E+02  0.11763113023E+02  0.50400000000E-02 0. -1.
    5000001    1    1    2    0    0 -0.65010846685E+02  0.27346551737E+01  0.29156590219E+03  0.30850212940E+03  0.77000000000E+02 0.  0.
   -5000001    1    1    2    0    0  0.65010846685E+02 -0.27346551737E+01  0.76778936921E+03  0.77437936698E+03  0.77000000000E+02 0.  0.
<mgrwt>
<rscale>  0 0.22449665E+03</rscale>
<asrwt>0</asrwt>
<pdfrwt beam="1">  1        1 0.15301697E+00 0.22449665E+03</pdfrwt>
<pdfrwt beam="2">  1       -1 0.16804440E-02 0.22449665E+03</pdfrwt>
<totfact> 0.14121003E+04</totfact>
</mgrwt>
</event>
<event>
 4    1  0.3281630E-004  0.1690646E+03  0.7818608E-02  0.1178827E+00
          1   -1    0    0  501    0  0.00000000000E+00  0.00000000000E+00  0.11662861524E+03  0.11662861535E+03  0.50400000000E-02 0.  1.
         -1   -1    0    0    0  501 -0.00000000000E+00 -0.00000000000E+00 -0.61268894204E+02  0.61268894412E+02  0.50400000000E-02 0. -1.
    5000001    1    1    2    0    0 -0.19717000334E+01 -0.33280041787E+02  0.16884332545E+02  0.85589306971E+02  0.77000000000E+02 0.  0.
   -5000001    1    1    2    0    0  0.19717000334E+01  0.33280041787E+02  0.38475388487E+02  0.92308202786E+02  0.77000000000E+02 0.  0.
<mgrwt>
<rscale>  0 0.16906456E+03</rscale>
<asrwt>0</asrwt>
<pdfrwt beam="1">  1        1 0.16661231E-01 0.16906456E+03</pdfrwt>
<pdfrwt beam="2">  1       -1 0.87526993E-02 0.16906456E+03</pdfrwt>
<totfact> 0.22956194E+04</totfact>
</mgrwt>
</event>
<event>
 4    1  0.3281630E-004  0.2154839E+03  0.7818608E-02  0.1137295E+00
         -1   -1    0    0    0  501 -0.00000000000E+00  0.00000000000E+00  0.38215852872E+02  0.38215853205E+02  0.50400000000E-02 0. -1.
          1   -1    0    0  501    0  0.00000000000E+00 -0.00000000000E+00 -0.30375681060E+03  0.30375681064E+03  0.50400000000E-02 0.  1.
    5000001    1    1    2    0    0  0.55462458910E+02  0.14708676851E+02 -0.21030468846E+03  0.23119146072E+03  0.77000000000E+02 0.  0.
   -5000001    1    1    2    0    0 -0.55462458910E+02 -0.14708676851E+02 -0.55236269270E+02  0.11078120313E+03  0.77000000000E+02 0.  0.
<mgrwt>
<rscale>  0 0.21548388E+03</rscale>
<asrwt>0</asrwt>
<pdfrwt beam="1">  1        1 0.43393829E-01 0.21548388E+03</pdfrwt>
<pdfrwt beam="2">  1       -1 0.54594078E-02 0.21548388E+03</pdfrwt>
<totfact> 0.14230592E+04</totfact>
</mgrwt>
</event>
<event>
 4    1  0.3281630E-004  0.2217992E+03  0.7818608E-02  0.1132549E+00
         -1   -1    0    0    0  501 -0.00000000000E+00  0.00000000000E+00  0.20880961081E+03  0.20880961087E+03  0.50400000000E-02 0.  1.
          1   -1    0    0  501    0  0.00000000000E+00 -0.00000000000E+00 -0.58899231307E+02  0.58899231523E+02  0.50400000000E-02 0. -1.
    5000001    1    1    2    0    0 -0.65000400421E+02 -0.42522530470E+02  0.52814031839E+02  0.12145591633E+03  0.77000000000E+02 0.  0.
   -5000001    1    1    2    0    0  0.65000400421E+02  0.42522530470E+02  0.97096347664E+02  0.14625292606E+03  0.77000000000E+02 0.  0.
<mgrwt>
<rscale>  0 0.22179924E+03</rscale>
<asrwt>0</asrwt>
<pdfrwt beam="1">  1        1 0.84141759E-02 0.22179924E+03</pdfrwt>
<pdfrwt beam="2">  1       -1 0.29829945E-01 0.22179924E+03</pdfrwt>
<totfact> 0.81930615E+03</totfact>
</mgrwt>
</event>
<event>
 4    1  0.3281630E-004  0.6597425E+03  0.7818608E-02  0.9788668E-01
         -1   -1    0    0    0  501 -0.00000000000E+00  0.00000000000E+00  0.33443890418E+02  0.33443890798E+02  0.50400000000E-02 0. -1.
          1   -1    0    0  501    0  0.00000000000E+00 -0.00000000000E+00 -0.32536594518E+04  0.32536594519E+04  0.50400000000E-02 0.  1.
    5000001    1    1    2    0    0 -0.16672803625E+03 -0.21499438989E+03 -0.76360918673E+03  0.81427809489E+03  0.77000000000E+02 0.  0.
   -5000001    1    1    2    0    0  0.16672803625E+03  0.21499438989E+03 -0.24566063747E+04  0.24728252478E+04  0.77000000000E+02 0.  0.
<mgrwt>
<rscale>  0 0.65974247E+03</rscale>
<asrwt>0</asrwt>
<pdfrwt beam="1">  1        1 0.46480829E+00 0.65974247E+03</pdfrwt>
<pdfrwt beam="2">  1       -1 0.47777007E-02 0.65974247E+03</pdfrwt>
<totfact> 0.12284922E+02</totfact>
</mgrwt>
</event>
<event>
 4    1  0.3281630E-004  0.2006212E+03  0.7818608E-02  0.1149216E+00
         -1   -1    0    0    0  501 -0.00000000000E+00  0.00000000000E+00  0.18485346059E+02  0.18485346746E+02  0.50400000000E-02 0.  1.
          1   -1    0    0  501    0  0.00000000000E+00 -0.00000000000E+00 -0.54433485379E+03  0.54433485381E+03  0.50400000000E-02 0. -1.
    5000001    1    1    2    0    0 -0.59191171727E+02  0.10185444920E+02 -0.19859139289E+03  0.22130268735E+03  0.77000000000E+02 0.  0.
   -5000001    1    1    2    0    0  0.59191171727E+02 -0.10185444920E+02 -0.32725811484E+03  0.34151751321E+03  0.77000000000E+02 0.  0.
<mgrwt>
<rscale>  0 0.20062122E+03</rscale>
<asrwt>0</asrwt>
<pdfrwt beam="1">  1        1 0.77762112E-01 0.20062122E+03</pdfrwt>
<pdfrwt beam="2">  1       -1 0.26407641E-02 0.20062122E+03</pdfrwt>
<totfact> 0.19713849E+04</totfact>
</mgrwt>
</event>
<event>
 4    1  0.3281630E-004  0.2997141E+03  0.7818608E-02  0.1085384E+00
          1   -1    0    0  501    0  0.00000000000E+00  0.00000000000E+00  0.91646366033E+03  0.91646366034E+03  0.50400000000E-02 0.  1.
         -1   -1    0    0    0  501 -0.00000000000E+00 -0.00000000000E+00 -0.24504112168E+02  0.24504112686E+02  0.50400000000E-02 0. -1.
    5000001    1    1    2    0    0 -0.35307814641E+02  0.11367611008E+03  0.59847374451E+03  0.61503554584E+03  0.77000000000E+02 0.  0.
   -5000001    1    1    2    0    0  0.35307814641E+02 -0.11367611008E+03  0.29348580365E+03  0.32593222719E+03  0.77000000000E+02 0.  0.
<mgrwt>
<rscale>  0 0.29971405E+03</rscale>
<asrwt>0</asrwt>
<pdfrwt beam="1">  1        1 0.13092338E+00 0.29971405E+03</pdfrwt>
<pdfrwt beam="2">  1       -1 0.35005876E-02 0.29971405E+03</pdfrwt>
<totfact> 0.62805979E+03</totfact>
</mgrwt>
</event>
<event>
 4    1  0.3281630E-004  0.3314474E+03  0.7818608E-02  0.1070498E+00
          1   -1    0    0  501    0  0.00000000000E+00  0.00000000000E+00  0.33657388930E+02  0.33657389308E+02  0.50400000000E-02 0.  1.
         -1   -1    0    0    0  501 -0.00000000000E+00 -0.00000000000E+00 -0.81599732247E+03  0.81599732249E+03  0.50400000000E-02 0. -1.
    5000001    1    1    2    0    0  0.15403622960E+02  0.13669860358E+03 -0.52217194869E+03  0.54545056954E+03  0.77000000000E+02 0.  0.
   -5000001    1    1    2    0    0 -0.15403622960E+02 -0.13669860358E+03 -0.26016798486E+03  0.30420414225E+03  0.77000000000E+02 0.  0.
<mgrwt>
<rscale>  0 0.33144737E+03</rscale>
<asrwt>0</asrwt>
<pdfrwt beam="1">  1        1 0.48081989E-02 0.33144737E+03</pdfrwt>
<pdfrwt beam="2">  1       -1 0.11657103E+00 0.33144737E+03</pdfrwt>
<totfact> 0.12495947E+03</totfact>
</mgrwt>
</event>
<event>
 4    1  0.3281630E-004  0.3508597E+03  0.7818608E-02  0.1062263E+00
          1   -1    0    0  501    0  0.00000000000E+00  0.00000000000E+00  0.18840875448E+04  0.18840875448E+04  0.50400000000E-02 0.  1.
         -1   -1    0    0    0  501 -0.00000000000E+00 -0.00000000000E+00 -0.16334505413E+02  0.16334506190E+02  0.50400000000E-02 0. -1.
    5000001    1    1    2    0    0 -0.56013278815E+02 -0.10553941749E+03  0.37699091148E+03  0.40289850259E+03  0.77000000000E+02 0.  0.
   -5000001    1    1    2    0    0  0.56013278815E+02  0.10553941749E+03  0.14907621279E+04  0.14975235484E+04  0.77000000000E+02 0.  0.
<mgrwt>
<rscale>  0 0.35085974E+03</rscale>
<asrwt>0</asrwt>
<pdfrwt beam="1">  1        1 0.26915554E+00 0.35085974E+03</pdfrwt>
<pdfrwt beam="2">  1       -1 0.23334993E-02 0.35085974E+03</pdfrwt>
<totfact> 0.26804439E+03</totfact>
</mgrwt>
</event>
<event>
 4    1  0.3281630E-004  0.2442765E+03  0.7818608E-02  0.1116976E+00
          1   -1    0    0  501    0  0.00000000000E+00  0.00000000000E+00  0.21231183010E+03  0.21231183016E+03  0.50400000000E-02 0.  1.
         -1   -1    0    0    0  501 -0.00000000000E+00 -0.00000000000E+00 -0.70263405514E+02  0.70263405695E+02  0.50400000000E-02 0. -1.
    5000001    1    1    2    0    0 -0.43410030823E+02 -0.49690921004E+02  0.14978019367E+03  0.18087765152E+03  0.77000000000E+02 0.  0.
   -5000001    1    1    2    0    0  0.43410030823E+02  0.49690921004E+02 -0.77317690762E+01  0.10169758433E+03  0.77000000000E+02 0.  0.
<mgrwt>
<rscale>  0 0.24427650E+03</rscale>
<asrwt>0</asrwt>
<pdfrwt beam="1">  1        1 0.30330262E-01 0.24427650E+03</pdfrwt>
<pdfrwt beam="2">  1       -1 0.10037629E-01 0.24427650E+03</pdfrwt>
<totfact> 0.89039224E+03</totfact>
</mgrwt>
</event>
<event>
 4    1  0.3281630E-004  0.3144956E+03  0.7818608E-02  0.1078211E+00
         -1   -1    0    0    0  501 -0.00000000000E+00  0.00000000000E+00  0.90250592000E+02  0.90250592141E+02  0.50400000000E-02 0. -1.
          1   -1    0    0  501    0  0.00000000000E+00 -0.00000000000E+00 -0.27398018117E+03  0.27398018121E+03  0.50400000000E-02 0.  1.
    5000001    1    1    2    0    0  0.10173541749E+03 -0.91298541181E+02 -0.10414082132E+03  0.18830780509E+03  0.77000000000E+02 0.  0.
   -5000001    1    1    2    0    0 -0.10173541749E+03  0.91298541181E+02 -0.79588767846E+02  0.17592296826E+03  0.77000000000E+02 0.  0.
<mgrwt>
<rscale>  0 0.31449562E+03</rscale>
<asrwt>0</asrwt>
<pdfrwt beam="1">  1        1 0.39140025E-01 0.31449562E+03</pdfrwt>
<pdfrwt beam="2">  1       -1 0.12892942E-01 0.31449562E+03</pdfrwt>
<totfact> 0.44145639E+03</totfact>
</mgrwt>
</event>
<event>
 4    1  0.3281630E-004  0.2953672E+03  0.7818608E-02  0.1087580E+00
         -1   -1    0    0    0  501 -0.00000000000E+00  0.00000000000E+00  0.32064866859E+02  0.32064867255E+02  0.50400000000E-02 0. -1.
          1   -1    0    0  501    0  0.00000000000E+00 -0.00000000000E+00 -0.68019742971E+03  0.68019742973E+03  0.50400000000E-02 0.  1.
    5000001    1    1    2    0    0  0.11602236215E+03  0.12678324843E+02 -0.20943977793E+03  0.25182523507E+03  0.77000000000E+02 0.  0.
   -5000001    1    1    2    0    0 -0.11602236215E+03 -0.12678324843E+02 -0.43869278492E+03  0.46043706191E+03  0.77000000000E+02 0.  0.
<mgrwt>
<rscale>  0 0.29536716E+03</rscale>
<asrwt>0</asrwt>
<pdfrwt beam="1">  1        1 0.97171052E-01 0.29536716E+03</pdfrwt>
<pdfrwt beam="2">  1       -1 0.45806957E-02 0.29536716E+03</pdfrwt>
<totfact> 0.65636894E+03</totfact>
</mgrwt>
</event>
<event>
 4    1  0.3281630E-004  0.3820298E+03  0.7818608E-02  0.1050186E+00
         -1   -1    0    0    0  501 -0.00000000000E+00  0.00000000000E+00  0.49041350394E+03  0.49041350397E+03  0.50400000000E-02 0. -1.
          1   -1    0    0  501    0  0.00000000000E+00 -0.00000000000E+00 -0.74399839851E+02  0.74399840022E+02  0.50400000000E-02 0.  1.
    5000001    1    1    2    0    0  0.12022506473E+03 -0.90917911623E+02  0.77119384790E+02  0.18600143105E+03  0.77000000000E+02 0.  0.
   -5000001    1    1    2    0    0 -0.12022506473E+03  0.90917911623E+02  0.33889427930E+03  0.37881191294E+03  0.77000000000E+02 0.  0.
<mgrwt>
<rscale>  0 0.38202977E+03</rscale>
<asrwt>0</asrwt>
<pdfrwt beam="1">  1        1 0.10628549E-01 0.38202977E+03</pdfrwt>
<pdfrwt beam="2">  1       -1 0.70059071E-01 0.38202977E+03</pdfrwt>
<totfact> 0.12703255E+03</totfact>
</mgrwt>
</event>
<event>
 4    1  0.3281630E-004  0.2246664E+03  0.7818608E-02  0.1130451E+00
          1   -1    0    0  501    0  0.00000000000E+00  0.00000000000E+00  0.24661241207E+03  0.24661241212E+03  0.50400000000E-02 0.  1.
         -1   -1    0    0    0  501 -0.00000000000E+00 -0.00000000000E+00 -0.51168341305E+02  0.51168341553E+02  0.50400000000E-02 0. -1.
    5000001    1    1    2    0    0 -0.60625690759E+02  0.39065352006E+02  0.14885312633E+03  0.18244952542E+03  0.77000000000E+02 0.  0.
   -5000001    1    1    2    0    0  0.60625690759E+02 -0.39065352006E+02  0.46590944431E+02  0.11533122825E+03  0.77000000000E+02 0.  0.
<mgrwt>
<rscale>  0 0.22466640E+03</rscale>
<asrwt>0</asrwt>
<pdfrwt beam="1">  1        1 0.35230344E-01 0.22466640E+03</pdfrwt>
<pdfrwt beam="2">  1       -1 0.73097631E-02 0.22466640E+03</pdfrwt>
<totfact> 0.11927802E+04</totfact>
</mgrwt>
</event>
<event>
 4    1  0.3281630E-004  0.1759725E+03  0.7818608E-02  0.1171759E+00
         -1   -1    0    0    0  501 -0.00000000000E+00  0.00000000000E+00  0.79327634415E+02  0.79327634575E+02  0.50400000000E-02 0. -1.
          1   -1    0    0  501    0  0.00000000000E+00 -0.00000000000E+00 -0.97589902236E+02  0.97589902366E+02  0.50400000000E-02 0.  1.
    5000001    1    1    2    0    0  0.40497982905E+02 -0.60729222863E+01 -0.20838808018E+02  0.89667290157E+02  0.77000000000E+02 0.  0.
   -5000001    1    1    2    0    0 -0.40497982905E+02  0.60729222863E+01  0.25765401967E+01  0.87250246784E+02  0.77000000000E+02 0.  0.
<mgrwt>
<rscale>  0 0.17597245E+03</rscale>
<asrwt>0</asrwt>
<pdfrwt beam="1">  1        1 0.13941415E-01 0.17597245E+03</pdfrwt>
<pdfrwt beam="2">  1       -1 0.11332519E-01 0.17597245E+03</pdfrwt>
<totfact> 0.19545819E+04</totfact>
</mgrwt>
</event>
<event>
 4    1  0.3281630E-004  0.2492876E+03  0.7818608E-02  0.1113756E+00
         -1   -1    0    0    0  501 -0.00000000000E+00  0.00000000000E+00  0.33572197462E+02  0.33572197841E+02  0.50400000000E-02 0. -1.
          1   -1    0    0  501    0  0.00000000000E+00 -0.00000000000E+00 -0.46276631028E+03  0.46276631031E+03  0.50400000000E-02 0.  1.
    5000001    1    1    2    0    0 -0.23847155275E+02  0.41328083604E+02 -0.38506416976E+03  0.39557567183E+03  0.77000000000E+02 0.  0.
   -5000001    1    1    2    0    0  0.23847155275E+02 -0.41328083604E+02 -0.44129943059E+02  0.10076283632E+03  0.77000000000E+02 0.  0.
<mgrwt>
<rscale>  0 0.24928764E+03</rscale>
<asrwt>0</asrwt>
<pdfrwt beam="1">  1        1 0.66109469E-01 0.24928764E+03</pdfrwt>
<pdfrwt beam="2">  1       -1 0.47960285E-02 0.24928764E+03</pdfrwt>
<totfact> 0.10221177E+04</totfact>
</mgrwt>
</event>
<event>
 4    1  0.3281630E-004  0.3439871E+03  0.7818608E-02  0.1065110E+00
         -1   -1    0    0    0  501 -0.00000000000E+00  0.00000000000E+00  0.35182517476E+03  0.35182517480E+03  0.50400000000E-02 0. -1.
          1   -1    0    0  501    0  0.00000000000E+00 -0.00000000000E+00 -0.84080905763E+02  0.84080905914E+02  0.50400000000E-02 0.  1.
    5000001    1    1    2    0    0 -0.14284027204E+03 -0.15750795919E+02  0.20329603317E+03  0.26059491167E+03  0.77000000000E+02 0.  0.
   -5000001    1    1    2    0    0  0.14284027204E+03  0.15750795919E+02  0.64448235829E+02  0.17531116904E+03  0.77000000000E+02 0.  0.
<mgrwt>
<rscale>  0 0.34398709E+03</rscale>
<asrwt>0</asrwt>
<pdfrwt beam="1">  1        1 0.12011558E-01 0.34398709E+03</pdfrwt>
<pdfrwt beam="2">  1       -1 0.50260741E-01 0.34398709E+03</pdfrwt>
<totfact> 0.20461911E+03</totfact>
</mgrwt>
</event>
<event>
 4    1  0.3281630E-004  0.1831854E+03  0.7818608E-02  0.1164755E+00
          1   -1    0    0  501    0  0.00000000000E+00  0.00000000000E+00  0.63204377045E+03  0.63204377048E+03  0.50400000000E-02 0.  1.
         -1   -1    0    0    0  501 -0.00000000000E+00 -0.00000000000E+00 -0.13273167779E+02  0.13273168736E+02  0.50400000000E-02 0. -1.
    5000001    1    1    2    0    0 -0.33876022695E+02  0.25734936599E+02  0.21954809303E+03  0.23651688529E+03  0.77000000000E+02 0.  0.
   -5000001    1    1    2    0    0  0.33876022695E+02 -0.25734936599E+02  0.39922250965E+03  0.40880005392E+03  0.77000000000E+02 0.  0.
<mgrwt>
<rscale>  0 0.18318541E+03</rscale>
<asrwt>0</asrwt>
<pdfrwt beam="1">  1        1 0.90291949E-01 0.18318541E+03</pdfrwt>
<pdfrwt beam="2">  1       -1 0.18961673E-02 0.18318541E+03</pdfrwt>
<totfact> 0.25950610E+04</totfact>
</mgrwt>
</event>
<event>
 4    1  0.3281630E-004  0.1756696E+03  0.7818608E-02  0.1172061E+00
         -1   -1    0    0    0  501 -0.00000000000E+00  0.00000000000E+00  0.64907259563E+01  0.64907279131E+01  0.50400000000E-02 0.  1.
          1   -1    0    0  501    0  0.00000000000E+00 -0.00000000000E+00 -0.11886115343E+04  0.11886115343E+04  0.50400000000E-02 0. -1.
    5000001    1    1    2    0    0 -0.28034613969E+02 -0.30986383811E+02 -0.54811045557E+03  0.55506771395E+03  0.77000000000E+02 0.  0.
   -5000001    1    1    2    0    0  0.28034613969E+02  0.30986383811E+02 -0.63401035273E+03  0.64003454823E+03  0.77000000000E+02 0.  0.
<mgrwt>
<rscale>  0 0.17566961E+03</rscale>
<asrwt>0</asrwt>
<pdfrwt beam="1">  1        1 0.16980151E+00 0.17566961E+03</pdfrwt>
<pdfrwt beam="2">  1       -1 0.92724747E-03 0.17566961E+03</pdfrwt>
<totfact> 0.27320606E+04</totfact>
</mgrwt>
</event>
<event>
 4    1  0.3281630E-004  0.2516034E+03  0.7818608E-02  0.1112296E+00
         -1   -1    0    0    0  501 -0.00000000000E+00  0.00000000000E+00  0.53518028064E+03  0.53518028067E+03  0.50400000000E-02 0.  1.
          1   -1    0    0  501    0  0.00000000000E+00 -0.00000000000E+00 -0.29571462913E+02  0.29571463343E+02  0.50400000000E-02 0. -1.
    5000001    1    1    2    0    0 -0.19930943096E+01 -0.86145243822E+02  0.14120211188E+03  0.18246098722E+03  0.77000000000E+02 0.  0.
   -5000001    1    1    2    0    0  0.19930943096E+01  0.86145243822E+02  0.36440670585E+03  0.38229075679E+03  0.77000000000E+02 0.  0.
<mgrwt>
<rscale>  0 0.25160337E+03</rscale>
<asrwt>0</asrwt>
<pdfrwt beam="1">  1        1 0.42244945E-02 0.25160337E+03</pdfrwt>
<pdfrwt beam="2">  1       -1 0.76454330E-01 0.25160337E+03</pdfrwt>
<totfact> 0.37498940E+03</totfact>
</mgrwt>
</event>
<event>
 4    1  0.3281630E-004  0.1821987E+03  0.7818608E-02  0.1165692E+00
          1   -1    0    0  501    0  0.00000000000E+00  0.00000000000E+00  0.57950223789E+03  0.57950223791E+03  0.50400000000E-02 0. -1.
         -1   -1    0    0    0  501 -0.00000000000E+00 -0.00000000000E+00 -0.14321070696E+02  0.14321071583E+02  0.50400000000E-02 0.  1.
    5000001    1    1    2    0    0 -0.30451452490E+02 -0.35437968284E+02  0.23802729189E+03  0.25449780400E+03  0.77000000000E+02 0.  0.
   -5000001    1    1    2    0    0  0.30451452490E+02  0.35437968284E+02  0.32715387530E+03  0.33932550550E+03  0.77000000000E+02 0.  0.
<mgrwt>
<rscale>  0 0.18219871E+03</rscale>
<asrwt>0</asrwt>
<pdfrwt beam="1">  1        1 0.82786020E-01 0.18219871E+03</pdfrwt>
<pdfrwt beam="2">  1       -1 0.20458677E-02 0.18219871E+03</pdfrwt>
<totfact> 0.26121251E+04</totfact>
</mgrwt>
</event>
<event>
 4    1  0.3281630E-004  0.3361981E+03  0.7818608E-02  0.1068427E+00
         -1   -1    0    0    0  501 -0.00000000000E+00  0.00000000000E+00  0.39106183375E+02  0.39106183699E+02  0.50400000000E-02 0. -1.
          1   -1    0    0  501    0  0.00000000000E+00 -0.00000000000E+00 -0.72257841377E+03  0.72257841379E+03  0.50400000000E-02 0.  1.
    5000001    1    1    2    0    0 -0.98126510863E+02 -0.91161054967E+02 -0.19164002167E+03  0.24615858299E+03  0.77000000000E+02 0.  0.
   -5000001    1    1    2    0    0  0.98126510863E+02  0.91161054967E+02 -0.49183220873E+03  0.51552601449E+03  0.77000000000E+02 0.  0.
<mgrwt>
<rscale>  0 0.33619806E+03</rscale>
<asrwt>0</asrwt>
<pdfrwt beam="1">  1        1 0.10322548E+00 0.33619806E+03</pdfrwt>
<pdfrwt beam="2">  1       -1 0.55865981E-02 0.33619806E+03</pdfrwt>
<totfact> 0.44788100E+03</totfact>
</mgrwt>
</event>
<event>
 4    1  0.3281630E-004  0.2825732E+03  0.7818608E-02  0.1094292E+00
          1   -1    0    0  501    0  0.00000000000E+00  0.00000000000E+00  0.48596690667E+02  0.48596690928E+02  0.50400000000E-02 0.  1.
         -1   -1    0    0    0  501 -0.00000000000E+00 -0.00000000000E+00 -0.41076676243E+03  0.41076676246E+03  0.50400000000E-02 0. -1.
    5000001    1    1    2    0    0  0.98051479825E+02 -0.66143846670E+02 -0.19184431981E+03  0.23816453177E+03  0.77000000000E+02 0.  0.
   -5000001    1    1    2    0    0 -0.98051479825E+02  0.66143846670E+02 -0.17032575195E+03  0.22119892162E+03  0.77000000000E+02 0.  0.
<mgrwt>
<rscale>  0 0.28257321E+03</rscale>
<asrwt>0</asrwt>
<pdfrwt beam="1">  1        1 0.69423846E-02 0.28257321E+03</pdfrwt>
<pdfrwt beam="2">  1       -1 0.58680964E-01 0.28257321E+03</pdfrwt>
<totfact> 0.31979672E+03</totfact>
</mgrwt>
</event>
<event>
 4    1  0.3281630E-004  0.1995641E+03  0.7818608E-02  0.1150107E+00
         -1   -1    0    0    0  501 -0.00000000000E+00  0.00000000000E+00  0.16015009712E+03  0.16015009720E+03  0.50400000000E-02 0. -1.
          1   -1    0    0  501    0  0.00000000000E+00 -0.00000000000E+00 -0.62169545026E+02  0.62169545231E+02  0.50400000000E-02 0.  1.
    5000001    1    1    2    0    0 -0.11998882075E+02 -0.55158119005E+02  0.81298330195E+02  0.12539860348E+03  0.77000000000E+02 0.  0.
   -5000001    1    1    2    0    0  0.11998882075E+02  0.55158119005E+02  0.16682221900E+02  0.96921038948E+02  0.77000000000E+02 0.  0.
<mgrwt>
<rscale>  0 0.19956411E+03</rscale>
<asrwt>0</asrwt>
<pdfrwt beam="1">  1        1 0.88813637E-02 0.19956411E+03</pdfrwt>
<pdfrwt beam="2">  1       -1 0.22878585E-01 0.19956411E+03</pdfrwt>
<totfact> 0.11770119E+04</totfact>
</mgrwt>
</event>
<event>
 4    1  0.3281630E-004  0.2310945E+03  0.7818608E-02  0.1125872E+00
          1   -1    0    0  501    0  0.00000000000E+00  0.00000000000E+00  0.16559243955E+03  0.16559243963E+03  0.50400000000E-02 0.  1.
         -1   -1    0    0    0  501 -0.00000000000E+00 -0.00000000000E+00 -0.80626691808E+02  0.80626691966E+02  0.50400000000E-02 0. -1.
    5000001    1    1    2    0    0  0.35588054338E+02 -0.76337860324E+02  0.61784601365E+02  0.12977024118E+03  0.77000000000E+02 0.  0.
   -5000001    1    1    2    0    0 -0.35588054338E+02  0.76337860324E+02  0.23181146376E+02  0.11644889041E+03  0.77000000000E+02 0.  0.
<mgrwt>
<rscale>  0 0.23109453E+03</rscale>
<asrwt>0</asrwt>
<pdfrwt beam="1">  1        1 0.23656063E-01 0.23109453E+03</pdfrwt>
<pdfrwt beam="2">  1       -1 0.11518099E-01 0.23109453E+03</pdfrwt>
<totfact> 0.98263601E+03</totfact>
</mgrwt>
</event>
<event>
 4    1  0.3281630E-004  0.7002862E+03  0.7818608E-02  0.9716743E-01
         -1   -1    0    0    0  501 -0.00000000000E+00  0.00000000000E+00  0.70578622749E+03  0.70578622751E+03  0.50400000000E-02 0. -1.
          1   -1    0    0  501    0  0.00000000000E+00 -0.00000000000E+00 -0.17370727241E+03  0.17370727248E+03  0.50400000000E-02 0.  1.
    5000001    1    1    2    0    0  0.20861402145E+03 -0.26149199428E+03  0.35280909135E+03  0.49224092471E+03  0.77000000000E+02 0.  0.
   -5000001    1    1    2    0    0 -0.20861402145E+03  0.26149199428E+03  0.17926986373E+03  0.38725257528E+03  0.77000000000E+02 0.  0.
<mgrwt>
<rscale>  0 0.70028623E+03</rscale>
<asrwt>0</asrwt>
<pdfrwt beam="1">  1        1 0.24815324E-01 0.70028623E+03</pdfrwt>
<pdfrwt beam="2">  1       -1 0.10082660E+00 0.70028623E+03</pdfrwt>
<totfact> 0.18713852E+02</totfact>
</mgrwt>
</event>
<event>
 4    1  0.3281630E-004  0.2371061E+03  0.7818608E-02  0.1121736E+00
          1   -1    0    0  501    0  0.00000000000E+00  0.00000000000E+00  0.24773358986E+04  0.24773358986E+04  0.50400000000E-02 0. -1.
         -1   -1    0    0    0  501 -0.00000000000E+00 -0.00000000000E+00 -0.56733609881E+01  0.56733632268E+01  0.50400000000E-02 0.  1.
    5000001    1    1    2    0    0 -0.53132351860E+01 -0.79444269200E+02  0.16784204955E+04  0.16820713368E+04  0.77000000000E+02 0.  0.
   -5000001    1    1    2    0    0  0.53132351860E+01  0.79444269200E+02  0.79324204208E+03  0.80093792500E+03  0.77000000000E+02 0.  0.
<mgrwt>
<rscale>  0 0.23710608E+03</rscale>
<asrwt>0</asrwt>
<pdfrwt beam="1">  1        1 0.35390494E+00 0.23710608E+03</pdfrwt>
<pdfrwt beam="2">  1       -1 0.81048072E-03 0.23710608E+03</pdfrwt>
<totfact> 0.54712394E+03</totfact>
</mgrwt>
</event>
<event>
 4    1  0.3281630E-004  0.3349861E+03  0.7818608E-02  0.1068952E+00
          1   -1    0    0  501    0  0.00000000000E+00  0.00000000000E+00  0.33546658329E+04  0.33546658329E+04  0.50400000000E-02 0.  1.
         -1   -1    0    0    0  501 -0.00000000000E+00 -0.00000000000E+00 -0.83626553177E+01  0.83626568365E+01  0.50400000000E-02 0. -1.
    5000001    1    1    2    0    0  0.13781829321E+03  0.31699866809E+02  0.12102367849E+04  0.12209016500E+04  0.77000000000E+02 0.  0.
   -5000001    1    1    2    0    0 -0.13781829321E+03 -0.31699866809E+02  0.21360663927E+04  0.21421268398E+04  0.77000000000E+02 0.  0.
<mgrwt>
<rscale>  0 0.33498607E+03</rscale>
<asrwt>0</asrwt>
<pdfrwt beam="1">  1        1 0.47923703E+00 0.33498607E+03</pdfrwt>
<pdfrwt beam="2">  1       -1 0.11946675E-02 0.33498607E+03</pdfrwt>
<totfact> 0.86582844E+02</totfact>
</mgrwt>
</event>
<event>
 4    1  0.3281630E-004  0.2376721E+03  0.7818608E-02  0.1121353E+00
          1   -1    0    0  501    0  0.00000000000E+00  0.00000000000E+00  0.70868381993E+03  0.70868381994E+03  0.50400000000E-02 0.  1.
         -1   -1    0    0    0  501 -0.00000000000E+00 -0.00000000000E+00 -0.19927093118E+02  0.19927093755E+02  0.50400000000E-02 0. -1.
    5000001    1    1    2    0    0  0.51373657584E+02  0.13133396214E+02  0.11949370590E+03  0.15172173391E+03  0.77000000000E+02 0.  0.
   -5000001    1    1    2    0    0 -0.51373657584E+02 -0.13133396214E+02  0.56926302090E+03  0.57688917979E+03  0.77000000000E+02 0.  0.
<mgrwt>
<rscale>  0 0.23767212E+03</rscale>
<asrwt>0</asrwt>
<pdfrwt beam="1">  1        1 0.10124052E+00 0.23767212E+03</pdfrwt>
<pdfrwt beam="2">  1       -1 0.28467284E-02 0.23767212E+03</pdfrwt>
<totfact> 0.12432858E+04</totfact>
</mgrwt>
</event>
<event>
 4    1  0.3281630E-004  0.2614000E+03  0.7818608E-02  0.1106305E+00
          1   -1    0    0  501    0  0.00000000000E+00  0.00000000000E+00  0.43839283041E+02  0.43839283331E+02  0.50400000000E-02 0.  1.
         -1   -1    0    0    0  501 -0.00000000000E+00 -0.00000000000E+00 -0.38966172206E+03  0.38966172209E+03  0.50400000000E-02 0. -1.
    5000001    1    1    2    0    0 -0.46906603936E+02  0.52918672470E+02 -0.30299512632E+03  0.32052404272E+03  0.77000000000E+02 0.  0.
   -5000001    1    1    2    0    0  0.46906603936E+02 -0.52918672470E+02 -0.42827312701E+02  0.11297696270E+03  0.77000000000E+02 0.  0.
<mgrwt>
<rscale>  0 0.26140000E+03</rscale>
<asrwt>0</asrwt>
<pdfrwt beam="1">  1        1 0.62627550E-02 0.26140000E+03</pdfrwt>
<pdfrwt beam="2">  1       -1 0.55665958E-01 0.26140000E+03</pdfrwt>
<totfact> 0.40619232E+03</totfact>
</mgrwt>
</event>
<event>
 4    1  0.3281630E-004  0.1648778E+03  0.7818608E-02  0.1183297E+00
          1   -1    0    0  501    0  0.00000000000E+00  0.00000000000E+00  0.69365149229E+03  0.69365149231E+03  0.50400000000E-02 0. -1.
         -1   -1    0    0    0  501 -0.00000000000E+00 -0.00000000000E+00 -0.97976728476E+01  0.97976741439E+01  0.50400000000E-02 0.  1.
    5000001    1    1    2    0    0 -0.71144681211E+01  0.28412644543E+02  0.32893208817E+03  0.33909174666E+03  0.77000000000E+02 0.  0.
   -5000001    1    1    2    0    0  0.71144681211E+01 -0.28412644543E+02  0.35492173128E+03  0.36435741979E+03  0.77000000000E+02 0.  0.
<mgrwt>
<rscale>  0 0.16487778E+03</rscale>
<asrwt>0</asrwt>
<pdfrwt beam="1">  1        1 0.99093036E-01 0.16487778E+03</pdfrwt>
<pdfrwt beam="2">  1       -1 0.13996681E-02 0.16487778E+03</pdfrwt>
<totfact> 0.35065278E+04</totfact>
</mgrwt>
</event>
<event>
 4    1  0.3281630E-004  0.3555741E+03  0.7818608E-02  0.1060350E+00
         -1   -1    0    0    0  501 -0.00000000000E+00  0.00000000000E+00  0.12811985098E+03  0.12811985108E+03  0.50400000000E-02 0.  1.
          1   -1    0    0  501    0  0.00000000000E+00 -0.00000000000E+00 -0.24670828980E+03  0.24670828986E+03  0.50400000000E-02 0. -1.
    5000001    1    1    2    0    0 -0.69008966437E+02  0.13128992857E+03  0.46531767211E+01  0.16718234012E+03  0.77000000000E+02 0.  0.
   -5000001    1    1    2    0    0  0.69008966437E+02 -0.13128992857E+03 -0.12324161555E+03  0.20764580082E+03  0.77000000000E+02 0.  0.
<mgrwt>
<rscale>  0 0.35557407E+03</rscale>
<asrwt>0</asrwt>
<pdfrwt beam="1">  1        1 0.35244041E-01 0.35557407E+03</pdfrwt>
<pdfrwt beam="2">  1       -1 0.18302836E-01 0.35557407E+03</pdfrwt>
<totfact> 0.28868415E+03</totfact>
</mgrwt>
</event>
<event>
 4    1  0.3281630E-004  0.3085256E+03  0.7818608E-02  0.1081055E+00
          1   -1    0    0  501    0  0.00000000000E+00  0.00000000000E+00  0.32968873486E+02  0.32968873871E+02  0.50400000000E-02 0. -1.
         -1   -1    0    0    0  501 -0.00000000000E+00 -0.00000000000E+00 -0.72180228997E+03  0.72180228999E+03  0.50400000000E-02 0.  1.
    5000001    1    1    2    0    0 -0.95570025453E+02 -0.49390876659E+02 -0.15031952599E+03  0.20024497086E+03  0.77000000000E+02 0.  0.
   -5000001    1    1    2    0    0  0.95570025453E+02  0.49390876659E+02 -0.53851389050E+03  0.55452619300E+03  0.77000000000E+02 0.  0.
<mgrwt>
<rscale>  0 0.30852558E+03</rscale>
<asrwt>0</asrwt>
<pdfrwt beam="1">  1        1 0.47098395E-02 0.30852558E+03</pdfrwt>
<pdfrwt beam="2">  1       -1 0.10311460E+00 0.30852558E+03</pdfrwt>
<totfact> 0.17058024E+03</totfact>
</mgrwt>
</event>
<event>
 4    1  0.3281630E-004  0.2025587E+03  0.7818608E-02  0.1147598E+00
         -1   -1    0    0    0  501 -0.00000000000E+00  0.00000000000E+00  0.70070047274E+02  0.70070047455E+02  0.50400000000E-02 0. -1.
          1   -1    0    0  501    0  0.00000000000E+00 -0.00000000000E+00 -0.14638939150E+03  0.14638939159E+03  0.50400000000E-02 0.  1.
    5000001    1    1    2    0    0 -0.57430155560E+02  0.19413770934E+02 -0.10843917089E+02  0.98598721124E+02  0.77000000000E+02 0.  0.
   -5000001    1    1    2    0    0  0.57430155560E+02 -0.19413770934E+02 -0.65475427139E+02  0.11786071792E+03  0.77000000000E+02 0.  0.
<mgrwt>
<rscale>  0 0.20255875E+03</rscale>
<asrwt>0</asrwt>
<pdfrwt beam="1">  1        1 0.20912770E-01 0.20255875E+03</pdfrwt>
<pdfrwt beam="2">  1       -1 0.10010007E-01 0.20255875E+03</pdfrwt>
<totfact> 0.14166043E+04</totfact>
</mgrwt>
</event>
<event>
 4    1  0.3281630E-004  0.2018583E+03  0.7818608E-02  0.1148181E+00
         -1   -1    0    0    0  501 -0.00000000000E+00  0.00000000000E+00  0.11003291882E+03  0.11003291893E+03  0.50400000000E-02 0. -1.
          1   -1    0    0  501    0  0.00000000000E+00 -0.00000000000E+00 -0.92578606151E+02  0.92578606288E+02  0.50400000000E-02 0.  1.
    5000001    1    1    2    0    0 -0.93300222704E+01  0.51360826789E+02 -0.30568773643E+02  0.97920548232E+02  0.77000000000E+02 0.  0.
   -5000001    1    1    2    0    0  0.93300222704E+01 -0.51360826789E+02  0.48023086308E+02  0.10469097699E+03  0.77000000000E+02 0.  0.
<mgrwt>
<rscale>  0 0.20185831E+03</rscale>
<asrwt>0</asrwt>
<pdfrwt beam="1">  1        1 0.13225515E-01 0.20185831E+03</pdfrwt>
<pdfrwt beam="2">  1       -1 0.15718988E-01 0.20185831E+03</pdfrwt>
<totfact> 0.12691555E+04</totfact>
</mgrwt>
</event>
<event>
 4    1  0.3281630E-004  0.2997444E+03  0.7818608E-02  0.1085368E+00
          1   -1    0    0  501    0  0.00000000000E+00  0.00000000000E+00  0.11532977669E+03  0.11532977680E+03  0.50400000000E-02 0. -1.
         -1   -1    0    0    0  501 -0.00000000000E+00 -0.00000000000E+00 -0.19476047234E+03  0.19476047240E+03  0.50400000000E-02 0.  1.
    5000001    1    1    2    0    0 -0.94093269455E+02 -0.53761795792E+02 -0.11130507064E+03  0.17338308105E+03  0.77000000000E+02 0.  0.
   -5000001    1    1    2    0    0  0.94093269455E+02  0.53761795792E+02  0.31874374998E+02  0.13670716816E+03  0.77000000000E+02 0.  0.
<mgrwt>
<rscale>  0 0.29974444E+03</rscale>
<asrwt>0</asrwt>
<pdfrwt beam="1">  1        1 0.16475682E-01 0.29974444E+03</pdfrwt>
<pdfrwt beam="2">  1       -1 0.27822924E-01 0.29974444E+03</pdfrwt>
<totfact> 0.38178881E+03</totfact>
</mgrwt>
</event>
<event>
 4    1  0.3281630E-004  0.3398662E+03  0.7818608E-02  0.1066853E+00
          1   -1    0    0  501    0  0.00000000000E+00  0.00000000000E+00  0.55535981747E+03  0.55535981750E+03  0.50400000000E-02 0.  1.
         -1   -1    0    0    0  501 -0.00000000000E+00 -0.00000000000E+00 -0.51997390164E+02  0.51997390408E+02  0.50400000000E-02 0. -1.
    5000001    1    1    2    0    0 -0.13536600193E+03 -0.58550866267E+02  0.18987666459E+03  0.25245654315E+03  0.77000000000E+02 0.  0.
   -5000001    1    1    2    0    0  0.13536600193E+03  0.58550866267E+02  0.31348576272E+03  0.35490066476E+03  0.77000000000E+02 0.  0.
<mgrwt>
<rscale>  0 0.33986622E+03</rscale>
<asrwt>0</asrwt>
<pdfrwt beam="1">  1        1 0.79337118E-01 0.33986622E+03</pdfrwt>
<pdfrwt beam="2">  1       -1 0.74281985E-02 0.33986622E+03</pdfrwt>
<totfact> 0.41913265E+03</totfact>
</mgrwt>
</event>
<event>
 4    1  0.3281630E-004  0.1862745E+03  0.7818608E-02  0.1161865E+00
          1   -1    0    0  501    0  0.00000000000E+00  0.00000000000E+00  0.28083993320E+02  0.28083993772E+02  0.50400000000E-02 0.  1.
         -1   -1    0    0    0  501 -0.00000000000E+00 -0.00000000000E+00 -0.30887863003E+03  0.30887863007E+03  0.50400000000E-02 0. -1.
    5000001    1    1    2    0    0  0.45645696608E+02  0.24092360839E+02 -0.12405911716E+03  0.15486651032E+03  0.77000000000E+02 0.  0.
   -5000001    1    1    2    0    0 -0.45645696608E+02 -0.24092360839E+02 -0.15673551955E+03  0.18209611352E+03  0.77000000000E+02 0.  0.
<mgrwt>
<rscale>  0 0.18627448E+03</rscale>
<asrwt>0</asrwt>
<pdfrwt beam="1">  1        1 0.40119993E-02 0.18627448E+03</pdfrwt>
<pdfrwt beam="2">  1       -1 0.44125517E-01 0.18627448E+03</pdfrwt>
<totfact> 0.11301200E+04</totfact>
</mgrwt>
</event>
<event>
 4    1  0.3281630E-004  0.1891120E+03  0.7818608E-02  0.1159265E+00
          1   -1    0    0  501    0  0.00000000000E+00  0.00000000000E+00  0.12259262065E+04  0.12259262066E+04  0.50400000000E-02 0.  1.
         -1   -1    0    0    0  501 -0.00000000000E+00 -0.00000000000E+00 -0.72931300926E+01  0.72931318341E+01  0.50400000000E-02 0. -1.
    5000001    1    1    2    0    0 -0.35830682794E+02 -0.33185568016E+02  0.77256840521E+03  0.77793062703E+03  0.77000000000E+02 0.  0.
   -5000001    1    1    2    0    0  0.35830682794E+02  0.33185568016E+02  0.44606467125E+03  0.45528871136E+03  0.77000000000E+02 0.  0.
<mgrwt>
<rscale>  0 0.18911203E+03</rscale>
<asrwt>0</asrwt>
<pdfrwt beam="1">  1        1 0.17513208E+00 0.18911203E+03</pdfrwt>
<pdfrwt beam="2">  1       -1 0.10418773E-02 0.18911203E+03</pdfrwt>
<totfact> 0.21954872E+04</totfact>
</mgrwt>
</event>
<event>
 4    1  0.3281630E-004  0.1872348E+03  0.7818608E-02  0.1160979E+00
         -1   -1    0    0    0  501 -0.00000000000E+00  0.00000000000E+00  0.45133480522E+03  0.45133480525E+03  0.50400000000E-02 0. -1.
          1   -1    0    0  501    0  0.00000000000E+00 -0.00000000000E+00 -0.19418442358E+02  0.19418443012E+02  0.50400000000E-02 0.  1.
    5000001    1    1    2    0    0 -0.49230753007E+02 -0.15832902493E+02  0.24784754788E+03  0.26463513529E+03  0.77000000000E+02 0.  0.
   -5000001    1    1    2    0    0  0.49230753007E+02  0.15832902493E+02  0.18406881498E+03  0.20611811297E+03  0.77000000000E+02 0.  0.
<mgrwt>
<rscale>  0 0.18723482E+03</rscale>
<asrwt>0</asrwt>
<pdfrwt beam="1">  1        1 0.27740633E-02 0.18723482E+03</pdfrwt>
<pdfrwt beam="2">  1       -1 0.64476398E-01 0.18723482E+03</pdfrwt>
<totfact> 0.93154103E+03</totfact>
</mgrwt>
</event>
<event>
 4    1  0.3281630E-004  0.2786481E+03  0.7818608E-02  0.1096430E+00
          1   -1    0    0  501    0  0.00000000000E+00  0.00000000000E+00  0.40331880987E+03  0.40331880990E+03  0.50400000000E-02 0.  1.
         -1   -1    0    0    0  501 -0.00000000000E+00 -0.00000000000E+00 -0.48128644833E+02  0.48128645097E+02  0.50400000000E-02 0. -1.
    5000001    1    1    2    0    0  0.18330997735E+02  0.11238942255E+03  0.21435394030E+03  0.25464488901E+03  0.77000000000E+02 0.  0.
   -5000001    1    1    2    0    0 -0.18330997735E+02 -0.11238942255E+03  0.14083622474E+03  0.19680256599E+03  0.77000000000E+02 0.  0.
<mgrwt>
<rscale>  0 0.27864808E+03</rscale>
<asrwt>0</asrwt>
<pdfrwt beam="1">  1        1 0.57616973E-01 0.27864808E+03</pdfrwt>
<pdfrwt beam="2">  1       -1 0.68755207E-02 0.27864808E+03</pdfrwt>
<totfact> 0.71229540E+03</totfact>
</mgrwt>
</event>
<event>
 4    1  0.3281630E-004  0.2940215E+03  0.7818608E-02  0.1088268E+00
          1   -1    0    0  501    0  0.00000000000E+00  0.00000000000E+00  0.17333365862E+02  0.17333366594E+02  0.50400000000E-02 0. -1.
         -1   -1    0    0    0  501 -0.00000000000E+00 -0.00000000000E+00 -0.12468533139E+04  0.12468533139E+04  0.50400000000E-02 0.  1.
    5000001    1    1    2    0    0  0.50714683756E+02  0.45562997119E+02 -0.16308901665E+03  0.19280817723E+03  0.77000000000E+02 0.  0.
   -5000001    1    1    2    0    0 -0.50714683756E+02 -0.45562997119E+02 -0.10664309314E+04  0.10713785033E+04  0.77000000000E+02 0.  0.
<mgrwt>
<rscale>  0 0.29402153E+03</rscale>
<asrwt>0</asrwt>
<pdfrwt beam="1">  1        1 0.24761960E-02 0.29402153E+03</pdfrwt>
<pdfrwt beam="2">  1       -1 0.17812185E+00 0.29402153E+03</pdfrwt>
<totfact> 0.10549929E+03</totfact>
</mgrwt>
</event>
<event>
 4    1  0.3281630E-004  0.2805609E+03  0.7818608E-02  0.1095383E+00
         -1   -1    0    0    0  501 -0.00000000000E+00  0.00000000000E+00  0.94991227805E+01  0.94991241176E+01  0.50400000000E-02 0.  1.
          1   -1    0    0  501    0  0.00000000000E+00 -0.00000000000E+00 -0.20716224884E+04  0.20716224884E+04  0.50400000000E-02 0. -1.
    5000001    1    1    2    0    0  0.54752015986E+02  0.99362911300E+02 -0.12509600123E+04  0.12584517169E+04  0.77000000000E+02 0.  0.
   -5000001    1    1    2    0    0 -0.54752015986E+02 -0.99362911300E+02 -0.81116335335E+03  0.82266989565E+03  0.77000000000E+02 0.  0.
<mgrwt>
<rscale>  0 0.28056085E+03</rscale>
<asrwt>0</asrwt>
<pdfrwt beam="1">  1        1 0.29594578E+00 0.28056085E+03</pdfrwt>
<pdfrwt beam="2">  1       -1 0.13570190E-02 0.28056085E+03</pdfrwt>
<totfact> 0.45687699E+03</totfact>
</mgrwt>
</event>
<event>
 4    1  0.3281630E-004  0.1721252E+03  0.7818608E-02  0.1175650E+00
         -1   -1    0    0    0  501 -0.00000000000E+00  0.00000000000E+00  0.60955455973E+02  0.60955456182E+02  0.50400000000E-02 0.  1.
          1   -1    0    0  501    0  0.00000000000E+00 -0.00000000000E+00 -0.12151118061E+03  0.12151118072E+03  0.50400000000E-02 0. -1.
    5000001    1    1    2    0    0  0.33266893419E+02 -0.15384404241E+02 -0.17988082091E+02  0.87154673936E+02  0.77000000000E+02 0.  0.
   -5000001    1    1    2    0    0 -0.33266893419E+02  0.15384404241E+02 -0.42567642549E+02  0.95311962962E+02  0.77000000000E+02 0.  0.
<mgrwt>
<rscale>  0 0.17212518E+03</rscale>
<asrwt>0</asrwt>
<pdfrwt beam="1">  1        1 0.17358740E-01 0.17212518E+03</pdfrwt>
<pdfrwt beam="2">  1       -1 0.87079223E-02 0.17212518E+03</pdfrwt>
<totfact> 0.21978751E+04</totfact>
</mgrwt>
</event>
<event>
 4    1  0.3281630E-004  0.2099331E+03  0.7818608E-02  0.1141619E+00
          1   -1    0    0  501    0  0.00000000000E+00  0.00000000000E+00  0.24088820808E+04  0.24088820808E+04  0.50400000000E-02 0.  1.
         -1   -1    0    0    0  501 -0.00000000000E+00 -0.00000000000E+00 -0.45738966362E+01  0.45738994130E+01  0.50400000000E-02 0. -1.
    5000001    1    1    2    0    0  0.14663467824E+02 -0.64928479439E+02  0.90719901250E+03  0.91289088779E+03  0.77000000000E+02 0.  0.
   -5000001    1    1    2    0    0 -0.14663467824E+02  0.64928479439E+02  0.14971091716E+04  0.15005650924E+04  0.77000000000E+02 0.  0.
<mgrwt>
<rscale>  0 0.20993314E+03</rscale>
<asrwt>0</asrwt>
<pdfrwt beam="1">  1        1 0.34412696E+00 0.20993314E+03</pdfrwt>
<pdfrwt beam="2">  1       -1 0.65341220E-03 0.20993314E+03</pdfrwt>
<totfact> 0.81850529E+03</totfact>
</mgrwt>
</event>
<event>
 4    1  0.3281630E-004  0.1737260E+03  0.7818608E-02  0.1174017E+00
          1   -1    0    0  501    0  0.00000000000E+00  0.00000000000E+00  0.27129552854E+03  0.27129552859E+03  0.50400000000E-02 0.  1.
         -1   -1    0    0    0  501 -0.00000000000E+00 -0.00000000000E+00 -0.27811681793E+02  0.27811682250E+02  0.50400000000E-02 0. -1.
    5000001    1    1    2    0    0 -0.24489156425E+02 -0.31882065165E+02  0.12176120581E+03  0.14956930200E+03  0.77000000000E+02 0.  0.
   -5000001    1    1    2    0    0  0.24489156425E+02  0.31882065165E+02  0.12172264094E+03  0.14953790884E+03  0.77000000000E+02 0.  0.
<mgrwt>
<rscale>  0 0.17372605E+03</rscale>
<asrwt>0</asrwt>
<pdfrwt beam="1">  1        1 0.38756504E-01 0.17372605E+03</pdfrwt>
<pdfrwt beam="2">  1       -1 0.39730974E-02 0.17372605E+03</pdfrwt>
<totfact> 0.25837909E+04</totfact>
</mgrwt>
</event>
<event>
 4    1  0.3281630E-004  0.2079774E+03  0.7818608E-02  0.1143178E+00
         -1   -1    0    0    0  501 -0.00000000000E+00  0.00000000000E+00  0.73764910178E+01  0.73764927396E+01  0.50400000000E-02 0. -1.
          1   -1    0    0  501    0  0.00000000000E+00 -0.00000000000E+00 -0.14659611118E+04  0.14659611118E+04  0.50400000000E-02 0.  1.
    5000001    1    1    2    0    0  0.49958556199E+02  0.35727667600E+02 -0.96555889068E+03  0.97056957244E+03  0.77000000000E+02 0.  0.
   -5000001    1    1    2    0    0 -0.49958556199E+02 -0.35727667600E+02 -0.49302573007E+03  0.50276803208E+03  0.77000000000E+02 0.  0.
<mgrwt>
<rscale>  0 0.20797741E+03</rscale>
<asrwt>0</asrwt>
<pdfrwt beam="1">  1        1 0.20942283E+00 0.20797741E+03</pdfrwt>
<pdfrwt beam="2">  1       -1 0.10537855E-02 0.20797741E+03</pdfrwt>
<totfact> 0.15272323E+04</totfact>
</mgrwt>
</event>
<event>
 4    1  0.3281630E-004  0.1866588E+03  0.7818608E-02  0.1161510E+00
          1   -1    0    0  501    0  0.00000000000E+00  0.00000000000E+00  0.45049999590E+02  0.45049999872E+02  0.50400000000E-02 0.  1.
         -1   -1    0    0    0  501 -0.00000000000E+00 -0.00000000000E+00 -0.19334916244E+03  0.19334916251E+03  0.50400000000E-02 0. -1.
    5000001    1    1    2    0    0 -0.50683837764E+02 -0.14577119545E+02 -0.73907569651E+02  0.11904903476E+03  0.77000000000E+02 0.  0.
   -5000001    1    1    2    0    0  0.50683837764E+02  0.14577119545E+02 -0.74391593199E+02  0.11935012762E+03  0.77000000000E+02 0.  0.
<mgrwt>
<rscale>  0 0.18665883E+03</rscale>
<asrwt>0</asrwt>
<pdfrwt beam="1">  1        1 0.64357143E-02 0.18665883E+03</pdfrwt>
<pdfrwt beam="2">  1       -1 0.27621309E-01 0.18665883E+03</pdfrwt>
<totfact> 0.13264116E+04</totfact>
</mgrwt>
</event>
<event>
 4    1  0.3281630E-004  0.1855351E+03  0.7818608E-02  0.1162551E+00
         -1   -1    0    0    0  501 -0.00000000000E+00  0.00000000000E+00  0.90244354057E+01  0.90244368131E+01  0.50400000000E-02 0. -1.
          1   -1    0    0  501    0  0.00000000000E+00 -0.00000000000E+00 -0.95361296155E+03  0.95361296157E+03  0.50400000000E-02 0.  1.
    5000001    1    1    2    0    0  0.51478311496E+02 -0.45648470641E+01 -0.45962249348E+03  0.46888451765E+03  0.77000000000E+02 0.  0.
   -5000001    1    1    2    0    0 -0.51478311496E+02  0.45648470641E+01 -0.48496603267E+03  0.49375288073E+03  0.77000000000E+02 0.  0.
<mgrwt>
<rscale>  0 0.18553511E+03</rscale>
<asrwt>0</asrwt>
<pdfrwt beam="1">  1        1 0.13623036E+00 0.18553511E+03</pdfrwt>
<pdfrwt beam="2">  1       -1 0.12892058E-02 0.18553511E+03</pdfrwt>
<totfact> 0.24814932E+04</totfact>
</mgrwt>
</event>
<event>
 4    1  0.3281630E-004  0.2939531E+03  0.7818608E-02  0.1088303E+00
          1   -1    0    0  501    0  0.00000000000E+00  0.00000000000E+00  0.21122441640E+03  0.21122441646E+03  0.50400000000E-02 0.  1.
         -1   -1    0    0    0  501 -0.00000000000E+00 -0.00000000000E+00 -0.10227085494E+03  0.10227085506E+03  0.50400000000E-02 0. -1.
    5000001    1    1    2    0    0  0.51541638479E+02 -0.10665181381E+03  0.97691649339E+02  0.17176672622E+03  0.77000000000E+02 0.  0.
   -5000001    1    1    2    0    0 -0.51541638479E+02  0.10665181381E+03  0.11261912116E+02  0.14172854530E+03  0.77000000000E+02 0.  0.
<mgrwt>
<rscale>  0 0.29395307E+03</rscale>
<asrwt>0</asrwt>
<pdfrwt beam="1">  1        1 0.30174916E-01 0.29395307E+03</pdfrwt>
<pdfrwt beam="2">  1       -1 0.14610122E-01 0.29395307E+03</pdfrwt>
<totfact> 0.50203781E+03</totfact>
</mgrwt>
</event>
<event>
 4    1  0.3281630E-004  0.1819037E+03  0.7818608E-02  0.1165973E+00
         -1   -1    0    0    0  501 -0.00000000000E+00  0.00000000000E+00  0.16640931484E+02  0.16640932247E+02  0.50400000000E-02 0. -1.
          1   -1    0    0  501    0  0.00000000000E+00 -0.00000000000E+00 -0.49710216885E+03  0.49710216887E+03  0.50400000000E-02 0.  1.
    5000001    1    1    2    0    0  0.61490229728E+01 -0.46227395345E+02 -0.27688735103E+03  0.29115354665E+03  0.77000000000E+02 0.  0.
   -5000001    1    1    2    0    0 -0.61490229728E+01  0.46227395345E+02 -0.20357388633E+03  0.22258955447E+03  0.77000000000E+02 0.  0.
<mgrwt>
<rscale>  0 0.18190375E+03</rscale>
<asrwt>0</asrwt>
<pdfrwt beam="1">  1        1 0.71014587E-01 0.18190375E+03</pdfrwt>
<pdfrwt beam="2">  1       -1 0.23772763E-02 0.18190375E+03</pdfrwt>
<totfact> 0.25687480E+04</totfact>
</mgrwt>
</event>
<event>
 4    1  0.3281630E-004  0.1781823E+03  0.7818608E-02  0.1169574E+00
         -1   -1    0    0    0  501 -0.00000000000E+00  0.00000000000E+00  0.73195236065E+01  0.73195253416E+01  0.50400000000E-02 0. -1.
          1   -1    0    0  501    0  0.00000000000E+00 -0.00000000000E+00 -0.10843921650E+04  0.10843921650E+04  0.50400000000E-02 0.  1.
    5000001    1    1    2    0    0  0.39568224278E+02  0.19878682671E+02 -0.49634107424E+03  0.50422640587E+03  0.77000000000E+02 0.  0.
   -5000001    1    1    2    0    0 -0.39568224278E+02 -0.19878682671E+02 -0.58073156712E+03  0.58748528445E+03  0.77000000000E+02 0.  0.
<mgrwt>
<rscale>  0 0.17818232E+03</rscale>
<asrwt>0</asrwt>
<pdfrwt beam="1">  1        1 0.15491306E+00 0.17818232E+03</pdfrwt>
<pdfrwt beam="2">  1       -1 0.10456470E-02 0.17818232E+03</pdfrwt>
<totfact> 0.27044008E+04</totfact>
</mgrwt>
</event>
<event>
 4    1  0.3281630E-004  0.2325234E+03  0.7818608E-02  0.1124876E+00
          1   -1    0    0  501    0  0.00000000000E+00  0.00000000000E+00  0.14651561674E+04  0.14651561674E+04  0.50400000000E-02 0.  1.
         -1   -1    0    0    0  501 -0.00000000000E+00 -0.00000000000E+00 -0.92254872566E+01  0.92254886333E+01  0.50400000000E-02 0. -1.
    5000001    1    1    2    0    0 -0.22892730310E+02  0.83727219987E+02  0.77432518194E+03  0.78297050509E+03  0.77000000000E+02 0.  0.
   -5000001    1    1    2    0    0  0.22892730310E+02 -0.83727219987E+02  0.68160549819E+03  0.69141115093E+03  0.77000000000E+02 0.  0.
<mgrwt>
<rscale>  0 0.23252338E+03</rscale>
<asrwt>0</asrwt>
<pdfrwt beam="1">  1        1 0.20930814E+00 0.23252338E+03</pdfrwt>
<pdfrwt beam="2">  1       -1 0.13179261E-02 0.23252338E+03</pdfrwt>
<totfact> 0.11121446E+04</totfact>
</mgrwt>
</event>
<event>
 4    1  0.3281630E-004  0.1768758E+03  0.7818608E-02  0.1170861E+00
          1   -1    0    0  501    0  0.00000000000E+00  0.00000000000E+00  0.88676930343E+03  0.88676930344E+03  0.50400000000E-02 0. -1.
         -1   -1    0    0    0  501 -0.00000000000E+00 -0.00000000000E+00 -0.88199482184E+01  0.88199496584E+01  0.50400000000E-02 0.  1.
    5000001    1    1    2    0    0 -0.18763394112E+02 -0.10502999680E+02  0.24750913787E+03  0.26010027161E+03  0.77000000000E+02 0.  0.
   -5000001    1    1    2    0    0  0.18763394112E+02  0.10502999680E+02  0.63044021734E+03  0.63548898149E+03  0.77000000000E+02 0.  0.
<mgrwt>
<rscale>  0 0.17687578E+03</rscale>
<asrwt>0</asrwt>
<pdfrwt beam="1">  1        1 0.12668123E+00 0.17687578E+03</pdfrwt>
<pdfrwt beam="2">  1       -1 0.12599937E-02 0.17687578E+03</pdfrwt>
<totfact> 0.28638913E+04</totfact>
</mgrwt>
</event>
<event>
 4    1  0.3281630E-004  0.3873259E+03  0.7818608E-02  0.1048259E+00
          1   -1    0    0  501    0  0.00000000000E+00  0.00000000000E+00  0.24168822725E+03  0.24168822730E+03  0.50400000000E-02 0.  1.
         -1   -1    0    0    0  501 -0.00000000000E+00 -0.00000000000E+00 -0.15518064796E+03  0.15518064804E+03  0.50400000000E-02 0. -1.
    5000001    1    1    2    0    0 -0.88820234113E+02 -0.13841783643E+03  0.11220062549E+03  0.21346313919E+03  0.77000000000E+02 0.  0.
   -5000001    1    1    2    0    0  0.88820234113E+02  0.13841783643E+03 -0.25693046206E+02  0.18340573615E+03  0.77000000000E+02 0.  0.
<mgrwt>
<rscale>  0 0.38732589E+03</rscale>
<asrwt>0</asrwt>
<pdfrwt beam="1">  1        1 0.34526889E-01 0.38732589E+03</pdfrwt>
<pdfrwt beam="2">  1       -1 0.22168664E-01 0.38732589E+03</pdfrwt>
<totfact> 0.21668450E+03</totfact>
</mgrwt>
</event>
<event>
 4    1  0.3281630E-004  0.3467366E+03  0.7818608E-02  0.1063962E+00
          1   -1    0    0  501    0  0.00000000000E+00  0.00000000000E+00  0.14076601985E+03  0.14076601994E+03  0.50400000000E-02 0.  1.
         -1   -1    0    0    0  501 -0.00000000000E+00 -0.00000000000E+00 -0.21352150293E+03  0.21352150299E+03  0.50400000000E-02 0. -1.
    5000001    1    1    2    0    0 -0.15235639467E+03 -0.13826116136E+02 -0.88856790146E+01  0.17149806931E+03  0.77000000000E+02 0.  0.
   -5000001    1    1    2    0    0  0.15235639467E+03  0.13826116136E+02 -0.63869804066E+02  0.18278945362E+03  0.77000000000E+02 0.  0.
<mgrwt>
<rscale>  0 0.34673663E+03</rscale>
<asrwt>0</asrwt>
<pdfrwt beam="1">  1        1 0.20109432E-01 0.34673663E+03</pdfrwt>
<pdfrwt beam="2">  1       -1 0.30503072E-01 0.34673663E+03</pdfrwt>
<totfact> 0.25265276E+03</totfact>
</mgrwt>
</event>
<event>
 4    1  0.3281630E-004  0.1651038E+03  0.7818608E-02  0.1183052E+00
          1   -1    0    0  501    0  0.00000000000E+00  0.00000000000E+00  0.68592256555E+02  0.68592256740E+02  0.50400000000E-02 0.  1.
         -1   -1    0    0    0  501 -0.00000000000E+00 -0.00000000000E+00 -0.99352505951E+02  0.99352506079E+02  0.50400000000E-02 0. -1.
    5000001    1    1    2    0    0  0.11415689323E+02  0.18697670324E+02 -0.35873553680E+02  0.87725895219E+02  0.77000000000E+02 0.  0.
   -5000001    1    1    2    0    0 -0.11415689323E+02 -0.18697670324E+02  0.51133042839E+01  0.80218867600E+02  0.77000000000E+02 0.  0.
<mgrwt>
<rscale>  0 0.16510376E+03</rscale>
<asrwt>0</asrwt>
<pdfrwt beam="1">  1        1 0.97988939E-02 0.16510376E+03</pdfrwt>
<pdfrwt beam="2">  1       -1 0.14193215E-01 0.16510376E+03</pdfrwt>
<totfact> 0.21813303E+04</totfact>
</mgrwt>
</event>
<event>
 4    1  0.3281630E-004  0.2078415E+03  0.7818608E-02  0.1143287E+00
         -1   -1    0    0    0  501 -0.00000000000E+00  0.00000000000E+00  0.11506100709E+02  0.11506101813E+02  0.50400000000E-02 0.  1.
          1   -1    0    0  501    0  0.00000000000E+00 -0.00000000000E+00 -0.93859107669E+03  0.93859107670E+03  0.50400000000E-02 0. -1.
    5000001    1    1    2    0    0  0.69361819321E+02  0.65299675189E+01 -0.44479390472E+03  0.45675411342E+03  0.77000000000E+02 0.  0.
   -5000001    1    1    2    0    0 -0.69361819321E+02 -0.65299675189E+01 -0.48229107126E+03  0.49334306509E+03  0.77000000000E+02 0.  0.
<mgrwt>
<rscale>  0 0.20784152E+03</rscale>
<asrwt>0</asrwt>
<pdfrwt beam="1">  1        1 0.13408439E+00 0.20784152E+03</pdfrwt>
<pdfrwt beam="2">  1       -1 0.16437294E-02 0.20784152E+03</pdfrwt>
<totfact> 0.18049204E+04</totfact>
</mgrwt>
</event>
<event>
 4    1  0.3281630E-004  0.2787604E+03  0.7818608E-02  0.1096368E+00
          1   -1    0    0  501    0  0.00000000000E+00  0.00000000000E+00  0.32695651060E+03  0.32695651064E+03  0.50400000000E-02 0.  1.
         -1   -1    0    0    0  501 -0.00000000000E+00 -0.00000000000E+00 -0.59417185237E+02  0.59417185451E+02  0.50400000000E-02 0. -1.
    5000001    1    1    2    0    0 -0.57311253774E+02  0.90352111238E+02  0.19652160335E+03  0.23663859448E+03  0.77000000000E+02 0.  0.
   -5000001    1    1    2    0    0  0.57311253774E+02 -0.90352111238E+02  0.71017722013E+02  0.14973510161E+03  0.77000000000E+02 0.  0.
<mgrwt>
<rscale>  0 0.27876037E+03</rscale>
<asrwt>0</asrwt>
<pdfrwt beam="1">  1        1 0.46708072E-01 0.27876037E+03</pdfrwt>
<pdfrwt beam="2">  1       -1 0.84881694E-02 0.27876037E+03</pdfrwt>
<totfact> 0.67382974E+03</totfact>
</mgrwt>
</event>
<event>
 4    1  0.3281630E-004  0.2020106E+03  0.7818608E-02  0.1148054E+00
          1   -1    0    0  501    0  0.00000000000E+00  0.00000000000E+00  0.15098223527E+04  0.15098223527E+04  0.50400000000E-02 0.  1.
         -1   -1    0    0    0  501 -0.00000000000E+00 -0.00000000000E+00 -0.67571302637E+01  0.67571321433E+01  0.50400000000E-02 0. -1.
    5000001    1    1    2    0    0  0.63561050418E+02  0.13390927051E+02  0.80656961804E+03  0.81283631366E+03  0.77000000000E+02 0.  0.
   -5000001    1    1    2    0    0 -0.63561050418E+02 -0.13390927051E+02  0.69649560443E+03  0.70374317123E+03  0.77000000000E+02 0.  0.
<mgrwt>
<rscale>  0 0.20201057E+03</rscale>
<asrwt>0</asrwt>
<pdfrwt beam="1">  1        1 0.21568906E+00 0.20201057E+03</pdfrwt>
<pdfrwt beam="2">  1       -1 0.96530376E-03 0.20201057E+03</pdfrwt>
<totfact> 0.16251187E+04</totfact>
</mgrwt>
</event>
<event>
 4    1  0.3281630E-004  0.2236655E+03  0.7818608E-02  0.1131179E+00
         -1   -1    0    0    0  501 -0.00000000000E+00  0.00000000000E+00  0.42258709170E+01  0.42258739225E+01  0.50400000000E-02 0. -1.
          1   -1    0    0  501    0  0.00000000000E+00 -0.00000000000E+00 -0.29595226846E+04  0.29595226846E+04  0.50400000000E-02 0.  1.
    5000001    1    1    2    0    0  0.79530417663E+02  0.86989061418E+00 -0.12674147332E+04  0.12722401307E+04  0.77000000000E+02 0.  0.
   -5000001    1    1    2    0    0 -0.79530417663E+02 -0.86989061418E+00 -0.16878820804E+04  0.16915084278E+04  0.77000000000E+02 0.  0.
<mgrwt>
<rscale>  0 0.22366551E+03</rscale>
<asrwt>0</asrwt>
<pdfrwt beam="1">  1        1 0.42278763E+00 0.22366551E+03</pdfrwt>
<pdfrwt beam="2">  1       -1 0.60369796E-03 0.22366551E+03</pdfrwt>
<totfact> 0.42105430E+03</totfact>
</mgrwt>
</event>
<event>
 4    1  0.3281630E-004  0.2593431E+03  0.7818608E-02  0.1107539E+00
         -1   -1    0    0    0  501 -0.00000000000E+00  0.00000000000E+00  0.19110207210E+02  0.19110207875E+02  0.50400000000E-02 0.  1.
          1   -1    0    0  501    0  0.00000000000E+00 -0.00000000000E+00 -0.87988095869E+03  0.87988095870E+03  0.50400000000E-02 0. -1.
    5000001    1    1    2    0    0  0.93446450104E+02 -0.29256409085E+02 -0.30552067577E+03  0.32993947905E+03  0.77000000000E+02 0.  0.
   -5000001    1    1    2    0    0 -0.93446450104E+02  0.29256409085E+02 -0.55525007571E+03  0.56905168753E+03  0.77000000000E+02 0.  0.
<mgrwt>
<rscale>  0 0.25934308E+03</rscale>
<asrwt>0</asrwt>
<pdfrwt beam="1">  1        1 0.12569725E+00 0.25934308E+03</pdfrwt>
<pdfrwt beam="2">  1       -1 0.27300302E-02 0.25934308E+03</pdfrwt>
<totfact> 0.96269310E+03</totfact>
</mgrwt>
</event>
<event>
 4    1  0.3281630E-004  0.4246032E+03  0.7818608E-02  0.1035578E+00
         -1   -1    0    0    0  501 -0.00000000000E+00  0.00000000000E+00  0.64615871429E+02  0.64615871626E+02  0.50400000000E-02 0. -1.
          1   -1    0    0  501    0  0.00000000000E+00 -0.00000000000E+00 -0.69753699865E+03  0.69753699867E+03  0.50400000000E-02 0.  1.
    5000001    1    1    2    0    0 -0.14211119084E+03  0.12131281664E+03 -0.43321095993E+03  0.47803046540E+03  0.77000000000E+02 0.  0.
   -5000001    1    1    2    0    0  0.14211119084E+03 -0.12131281664E+03 -0.19971016729E+03  0.28412240489E+03  0.77000000000E+02 0.  0.
<mgrwt>
<rscale>  0 0.42460316E+03</rscale>
<asrwt>0</asrwt>
<pdfrwt beam="1">  1        1 0.99648138E-01 0.42460316E+03</pdfrwt>
<pdfrwt beam="2">  1       -1 0.92308392E-02 0.42460316E+03</pdfrwt>
<totfact> 0.21875542E+03</totfact>
</mgrwt>
</event>
<event>
 4    1  0.3281630E-004  0.1876210E+03  0.7818608E-02  0.1160625E+00
          1   -1    0    0  501    0  0.00000000000E+00  0.00000000000E+00  0.86524742335E+03  0.86524742337E+03  0.50400000000E-02 0. -1.
         -1   -1    0    0    0  501 -0.00000000000E+00 -0.00000000000E+00 -0.10170969003E+02  0.10170970252E+02  0.50400000000E-02 0.  1.
    5000001    1    1    2    0    0  0.16188777065E+02  0.65400972110E+01  0.19115878719E+03  0.20682246323E+03  0.77000000000E+02 0.  0.
   -5000001    1    1    2    0    0 -0.16188777065E+02 -0.65400972110E+01  0.66391766716E+03  0.66859593039E+03  0.77000000000E+02 0.  0.
<mgrwt>
<rscale>  0 0.18762095E+03</rscale>
<asrwt>0</asrwt>
<pdfrwt beam="1">  1        1 0.12360680E+00 0.18762095E+03</pdfrwt>
<pdfrwt beam="2">  1       -1 0.14529954E-02 0.18762095E+03</pdfrwt>
<totfact> 0.24325000E+04</totfact>
</mgrwt>
</event>
<event>
 4    1  0.3281630E-004  0.1674693E+03  0.7818608E-02  0.1180513E+00
          1   -1    0    0  501    0  0.00000000000E+00  0.00000000000E+00  0.15412261082E+04  0.15412261082E+04  0.50400000000E-02 0. -1.
         -1   -1    0    0    0  501 -0.00000000000E+00 -0.00000000000E+00 -0.45492925225E+01  0.45492953143E+01  0.50400000000E-02 0.  1.
    5000001    1    1    2    0    0  0.32018501401E+02  0.68841643485E+01  0.79740170857E+03  0.80177993302E+03  0.77000000000E+02 0.  0.
   -5000001    1    1    2    0    0 -0.32018501401E+02 -0.68841643485E+01  0.73927510708E+03  0.74399547049E+03  0.77000000000E+02 0.  0.
<mgrwt>
<rscale>  0 0.16746929E+03</rscale>
<asrwt>0</asrwt>
<pdfrwt beam="1">  1        1 0.22017527E+00 0.16746929E+03</pdfrwt>
<pdfrwt beam="2">  1       -1 0.64989879E-03 0.16746929E+03</pdfrwt>
<totfact> 0.27083150E+04</totfact>
</mgrwt>
</event>
<event>
 4    1  0.3281630E-004  0.2314062E+03  0.7818608E-02  0.1125654E+00
          1   -1    0    0  501    0  0.00000000000E+00  0.00000000000E+00  0.21764350185E+04  0.21764350185E+04  0.50400000000E-02 0.  1.
         -1   -1    0    0    0  501 -0.00000000000E+00 -0.00000000000E+00 -0.61509767582E+01  0.61509788230E+01  0.50400000000E-02 0. -1.
    5000001    1    1    2    0    0 -0.70542638945E+02  0.44690157689E+02  0.12927987955E+04  0.12977793340E+04  0.77000000000E+02 0.  0.
   -5000001    1    1    2    0    0  0.70542638945E+02 -0.44690157689E+02  0.87748524619E+03  0.88480666328E+03  0.77000000000E+02 0.  0.
<mgrwt>
<rscale>  0 0.23140617E+03</rscale>
<asrwt>0</asrwt>
<pdfrwt beam="1">  1        1 0.31091920E+00 0.23140617E+03</pdfrwt>
<pdfrwt beam="2">  1       -1 0.87871135E-03 0.23140617E+03</pdfrwt>
<totfact> 0.73944728E+03</totfact>
</mgrwt>
</event>
<event>
 4    1  0.3281630E-004  0.2399768E+03  0.7818608E-02  0.1119808E+00
          1   -1    0    0  501    0  0.00000000000E+00  0.00000000000E+00  0.13544067866E+04  0.13544067867E+04  0.50400000000E-02 0.  1.
         -1   -1    0    0    0  501 -0.00000000000E+00 -0.00000000000E+00 -0.10629900744E+02  0.10629901939E+02  0.50400000000E-02 0. -1.
    5000001    1    1    2    0    0 -0.35105366697E+02  0.85058952561E+02  0.66680601045E+03  0.67751506828E+03  0.77000000000E+02 0.  0.
   -5000001    1    1    2    0    0  0.35105366697E+02 -0.85058952561E+02  0.67697087545E+03  0.68752162031E+03  0.77000000000E+02 0.  0.
<mgrwt>
<rscale>  0 0.23997675E+03</rscale>
<asrwt>0</asrwt>
<pdfrwt beam="1">  1        1 0.19348689E+00 0.23997675E+03</pdfrwt>
<pdfrwt beam="2">  1       -1 0.15185557E-02 0.23997675E+03</pdfrwt>
<totfact> 0.10649841E+04</totfact>
</mgrwt>
</event>
<event>
 4    1  0.3281630E-004  0.2257654E+03  0.7818608E-02  0.1129656E+00
          1   -1    0    0  501    0  0.00000000000E+00  0.00000000000E+00  0.17451029022E+03  0.17451029029E+03  0.50400000000E-02 0.  1.
         -1   -1    0    0    0  501 -0.00000000000E+00 -0.00000000000E+00 -0.73018632339E+02  0.73018632513E+02  0.50400000000E-02 0. -1.
    5000001    1    1    2    0    0 -0.81013981384E+02  0.90786147735E+01  0.36542645643E+02  0.11794088085E+03  0.77000000000E+02 0.  0.
   -5000001    1    1    2    0    0  0.81013981384E+02 -0.90786147735E+01  0.64949012234E+02  0.12958804195E+03  0.77000000000E+02 0.  0.
<mgrwt>
<rscale>  0 0.22576539E+03</rscale>
<asrwt>0</asrwt>
<pdfrwt beam="1">  1        1 0.24930041E-01 0.22576539E+03</pdfrwt>
<pdfrwt beam="2">  1       -1 0.10431233E-01 0.22576539E+03</pdfrwt>
<totfact> 0.10703643E+04</totfact>
</mgrwt>
</event>
<event>
 4    1  0.3281630E-004  0.2376423E+03  0.7818608E-02  0.1121374E+00
          1   -1    0    0  501    0  0.00000000000E+00  0.00000000000E+00  0.16935198252E+04  0.16935198252E+04  0.50400000000E-02 0.  1.
         -1   -1    0    0    0  501 -0.00000000000E+00 -0.00000000000E+00 -0.83367560503E+01  0.83367575738E+01  0.50400000000E-02 0. -1.
    5000001    1    1    2    0    0  0.82946052613E+02 -0.51314922392E+01  0.58606833659E+03  0.59691831519E+03  0.77000000000E+02 0.  0.
   -5000001    1    1    2    0    0 -0.82946052613E+02  0.51314922392E+01  0.10991147326E+04  0.11049382676E+04  0.77000000000E+02 0.  0.
<mgrwt>
<rscale>  0 0.23764228E+03</rscale>
<asrwt>0</asrwt>
<pdfrwt beam="1">  1        1 0.24193138E+00 0.23764228E+03</pdfrwt>
<pdfrwt beam="2">  1       -1 0.11909654E-02 0.23764228E+03</pdfrwt>
<totfact> 0.93210892E+03</totfact>
</mgrwt>
</event>
<event>
 4    1  0.3281630E-004  0.2539740E+03  0.7818608E-02  0.1110819E+00
         -1   -1    0    0    0  501 -0.00000000000E+00  0.00000000000E+00  0.71003286526E+02  0.71003286705E+02  0.50400000000E-02 0. -1.
          1   -1    0    0  501    0  0.00000000000E+00 -0.00000000000E+00 -0.22711203507E+03  0.22711203512E+03  0.50400000000E-02 0.  1.
    5000001    1    1    2    0    0  0.81086383532E+02 -0.22714163168E+02 -0.14346968008E+03  0.18331253069E+03  0.77000000000E+02 0.  0.
   -5000001    1    1    2    0    0 -0.81086383532E+02  0.22714163168E+02 -0.12639068457E+02  0.11480279114E+03  0.77000000000E+02 0.  0.
<mgrwt>
<rscale>  0 0.25397402E+03</rscale>
<asrwt>0</asrwt>
<pdfrwt beam="1">  1        1 0.32444576E-01 0.25397402E+03</pdfrwt>
<pdfrwt beam="2">  1       -1 0.10143327E-01 0.25397402E+03</pdfrwt>
<totfact> 0.80638499E+03</totfact>
</mgrwt>
</event>
<event>
 4    1  0.3281630E-004  0.3409750E+03  0.7818608E-02  0.1066381E+00
          1   -1    0    0  501    0  0.00000000000E+00  0.00000000000E+00  0.10105236373E+03  0.10105236386E+03  0.50400000000E-02 0.  1.
         -1   -1    0    0    0  501 -0.00000000000E+00 -0.00000000000E+00 -0.28763291123E+03  0.28763291128E+03  0.50400000000E-02 0. -1.
    5000001    1    1    2    0    0 -0.60223414637E+02  0.11431467254E+03 -0.17956834442E+01  0.15042250001E+03  0.77000000000E+02 0.  0.
   -5000001    1    1    2    0    0  0.60223414637E+02 -0.11431467254E+03 -0.18478486405E+03  0.23826277513E+03  0.77000000000E+02 0.  0.
<mgrwt>
<rscale>  0 0.34097499E+03</rscale>
<asrwt>0</asrwt>
<pdfrwt beam="1">  1        1 0.14436052E-01 0.34097499E+03</pdfrwt>
<pdfrwt beam="2">  1       -1 0.41090416E-01 0.34097499E+03</pdfrwt>
<totfact> 0.23139977E+03</totfact>
</mgrwt>
</event>
<event>
 4    1  0.3281630E-004  0.2574775E+03  0.7818608E-02  0.1108668E+00
         -1   -1    0    0    0  501 -0.00000000000E+00  0.00000000000E+00  0.16860361602E+03  0.16860361609E+03  0.50400000000E-02 0. -1.
          1   -1    0    0  501    0  0.00000000000E+00 -0.00000000000E+00 -0.98299600775E+02  0.98299600904E+02  0.50400000000E-02 0.  1.
    5000001    1    1    2    0    0  0.10078319879E+03 -0.10375211951E+02  0.55353098119E+02  0.13877270500E+03  0.77000000000E+02 0.  0.
   -5000001    1    1    2    0    0 -0.10078319879E+03  0.10375211951E+02  0.14950917125E+02  0.12813051200E+03  0.77000000000E+02 0.  0.
<mgrwt>
<rscale>  0 0.25747752E+03</rscale>
<asrwt>0</asrwt>
<pdfrwt beam="1">  1        1 0.14042800E-01 0.25747752E+03</pdfrwt>
<pdfrwt beam="2">  1       -1 0.24086231E-01 0.25747752E+03</pdfrwt>
<totfact> 0.59604568E+03</totfact>
</mgrwt>
</event>
<event>
 4    1  0.3281630E-004  0.1902778E+03  0.7818608E-02  0.1158211E+00
         -1   -1    0    0    0  501 -0.00000000000E+00  0.00000000000E+00  0.11580213549E+03  0.11580213560E+03  0.50400000000E-02 0. -1.
          1   -1    0    0  501    0  0.00000000000E+00 -0.00000000000E+00 -0.78162693141E+02  0.78162693304E+02  0.50400000000E-02 0.  1.
    5000001    1    1    2    0    0  0.22605733217E+02  0.41363443276E+02 -0.11769295860E+02  0.91046526232E+02  0.77000000000E+02 0.  0.
   -5000001    1    1    2    0    0 -0.22605733217E+02 -0.41363443276E+02  0.49408738213E+02  0.10291830268E+03  0.77000000000E+02 0.  0.
<mgrwt>
<rscale>  0 0.19027776E+03</rscale>
<asrwt>0</asrwt>
<pdfrwt beam="1">  1        1 0.11166099E-01 0.19027776E+03</pdfrwt>
<pdfrwt beam="2">  1       -1 0.16543162E-01 0.19027776E+03</pdfrwt>
<totfact> 0.14573403E+04</totfact>
</mgrwt>
</event>
<event>
 4    1  0.3281630E-004  0.3254445E+03  0.7818608E-02  0.1073171E+00
          1   -1    0    0  501    0  0.00000000000E+00  0.00000000000E+00  0.59868034854E+03  0.59868034856E+03  0.50400000000E-02 0.  1.
         -1   -1    0    0    0  501 -0.00000000000E+00 -0.00000000000E+00 -0.44228158586E+02  0.44228158873E+02  0.50400000000E-02 0. -1.
    5000001    1    1    2    0    0 -0.11754940024E+03 -0.77388117535E+02  0.22338761670E+03  0.27502328907E+03  0.77000000000E+02 0.  0.
   -5000001    1    1    2    0    0  0.11754940024E+03  0.77388117535E+02  0.33106457325E+03  0.36788521837E+03  0.77000000000E+02 0.  0.
<mgrwt>
<rscale>  0 0.32544449E+03</rscale>
<asrwt>0</asrwt>
<pdfrwt beam="1">  1        1 0.85525761E-01 0.32544449E+03</pdfrwt>
<pdfrwt beam="2">  1       -1 0.63183087E-02 0.32544449E+03</pdfrwt>
<totfact> 0.48394255E+03</totfact>
</mgrwt>
</event>
<event>
 4    1  0.3281630E-004  0.3820755E+03  0.7818608E-02  0.1050169E+00
          1   -1    0    0  501    0  0.00000000000E+00  0.00000000000E+00  0.16384117964E+03  0.16384117972E+03  0.50400000000E-02 0.  1.
         -1   -1    0    0    0  501 -0.00000000000E+00 -0.00000000000E+00 -0.22274881764E+03  0.22274881769E+03  0.50400000000E-02 0. -1.
    5000001    1    1    2    0    0  0.53187233811E+02 -0.11652997527E+03 -0.14984845028E+03  0.21164043807E+03  0.77000000000E+02 0.  0.
   -5000001    1    1    2    0    0 -0.53187233811E+02  0.11652997527E+03  0.90940812279E+02  0.17494955934E+03  0.77000000000E+02 0.  0.
<mgrwt>
<rscale>  0 0.38207554E+03</rscale>
<asrwt>0</asrwt>
<pdfrwt beam="1">  1        1 0.23405883E-01 0.38207554E+03</pdfrwt>
<pdfrwt beam="2">  1       -1 0.31821260E-01 0.38207554E+03</pdfrwt>
<totfact> 0.19328275E+03</totfact>
</mgrwt>
</event>
<event>
 4    1  0.3281630E-004  0.2107898E+03  0.7818608E-02  0.1140942E+00
         -1   -1    0    0    0  501 -0.00000000000E+00  0.00000000000E+00  0.12153214692E+02  0.12153215737E+02  0.50400000000E-02 0. -1.
          1   -1    0    0  501    0  0.00000000000E+00 -0.00000000000E+00 -0.91400407596E+03  0.91400407597E+03  0.50400000000E-02 0.  1.
    5000001    1    1    2    0    0  0.59385849523E+02 -0.11041456740E+02 -0.27903523608E+03  0.29569960410E+03  0.77000000000E+02 0.  0.
   -5000001    1    1    2    0    0 -0.59385849523E+02  0.11041456740E+02 -0.62281562519E+03  0.63045768762E+03  0.77000000000E+02 0.  0.
<mgrwt>
<rscale>  0 0.21078983E+03</rscale>
<asrwt>0</asrwt>
<pdfrwt beam="1">  1        1 0.13057197E+00 0.21078983E+03</pdfrwt>
<pdfrwt beam="2">  1       -1 0.17361742E-02 0.21078983E+03</pdfrwt>
<totfact> 0.17400516E+04</totfact>
</mgrwt>
</event>
<event>
 4    1  0.3281630E-004  0.1951662E+03  0.7818608E-02  0.1153883E+00
          1   -1    0    0  501    0  0.00000000000E+00  0.00000000000E+00  0.59476279976E+03  0.59476279978E+03  0.50400000000E-02 0.  1.
         -1   -1    0    0    0  501 -0.00000000000E+00 -0.00000000000E+00 -0.16010524026E+02  0.16010524819E+02  0.50400000000E-02 0. -1.
    5000001    1    1    2    0    0 -0.97308914237E+01  0.57331559253E+02  0.33492803207E+03  0.34855040468E+03  0.77000000000E+02 0.  0.
   -5000001    1    1    2    0    0  0.97308914237E+01 -0.57331559253E+02  0.24382424366E+03  0.26222291992E+03  0.77000000000E+02 0.  0.
<mgrwt>
<rscale>  0 0.19516623E+03</rscale>
<asrwt>0</asrwt>
<pdfrwt beam="1">  1        1 0.84966101E-01 0.19516623E+03</pdfrwt>
<pdfrwt beam="2">  1       -1 0.22872181E-02 0.19516623E+03</pdfrwt>
<totfact> 0.21563525E+04</totfact>
</mgrwt>
</event>
<event>
 4    1  0.3281630E-004  0.1996188E+03  0.7818608E-02  0.1150061E+00
         -1   -1    0    0    0  501 -0.00000000000E+00  0.00000000000E+00  0.60751657181E+02  0.60751657390E+02  0.50400000000E-02 0. -1.
          1   -1    0    0  501    0  0.00000000000E+00 -0.00000000000E+00 -0.16397769346E+03  0.16397769354E+03  0.50400000000E-02 0.  1.
    5000001    1    1    2    0    0 -0.31201657039E+02 -0.26514410771E+02  0.30355897846E+01  0.87262662037E+02  0.77000000000E+02 0.  0.
   -5000001    1    1    2    0    0  0.31201657039E+02  0.26514410771E+02 -0.10626162606E+03  0.13746668889E+03  0.77000000000E+02 0.  0.
<mgrwt>
<rscale>  0 0.19961880E+03</rscale>
<asrwt>0</asrwt>
<pdfrwt beam="1">  1        1 0.23425385E-01 0.19961880E+03</pdfrwt>
<pdfrwt beam="2">  1       -1 0.86788083E-02 0.19961880E+03</pdfrwt>
<totfact> 0.15238611E+04</totfact>
</mgrwt>
</event>
<event>
 4    1  0.3281630E-004  0.3061235E+03  0.7818608E-02  0.1082219E+00
          1   -1    0    0  501    0  0.00000000000E+00  0.00000000000E+00  0.90678797063E+01  0.90678811070E+01  0.50400000000E-02 0.  1.
         -1   -1    0    0    0  501 -0.00000000000E+00 -0.00000000000E+00 -0.25836130265E+04  0.25836130265E+04  0.50400000000E-02 0. -1.
    5000001    1    1    2    0    0  0.72773818050E+02 -0.10466740465E+03 -0.98812182680E+03  0.99928226182E+03  0.77000000000E+02 0.  0.
   -5000001    1    1    2    0    0 -0.72773818050E+02  0.10466740465E+03 -0.15864233200E+04  0.15933986458E+04  0.77000000000E+02 0.  0.
<mgrwt>
<rscale>  0 0.30612346E+03</rscale>
<asrwt>0</asrwt>
<pdfrwt beam="1">  1        1 0.12954131E-02 0.30612346E+03</pdfrwt>
<pdfrwt beam="2">  1       -1 0.36908710E+00 0.30612346E+03</pdfrwt>
<totfact> 0.15701125E+02</totfact>
</mgrwt>
</event>
<event>
 4    1  0.3281630E-004  0.3134852E+03  0.7818608E-02  0.1078687E+00
          1   -1    0    0  501    0  0.00000000000E+00  0.00000000000E+00  0.56379848372E+03  0.56379848374E+03  0.50400000000E-02 0.  1.
         -1   -1    0    0    0  501 -0.00000000000E+00 -0.00000000000E+00 -0.43576288298E+02  0.43576288590E+02  0.50400000000E-02 0. -1.
    5000001    1    1    2    0    0 -0.11082827629E+02  0.10726736960E+03  0.42233044453E+03  0.44262977987E+03  0.77000000000E+02 0.  0.
   -5000001    1    1    2    0    0  0.11082827629E+02 -0.10726736960E+03  0.97891750888E+02  0.16474499246E+03  0.77000000000E+02 0.  0.
<mgrwt>
<rscale>  0 0.31348522E+03</rscale>
<asrwt>0</asrwt>
<pdfrwt beam="1">  1        1 0.80542639E-01 0.31348522E+03</pdfrwt>
<pdfrwt beam="2">  1       -1 0.62251842E-02 0.31348522E+03</pdfrwt>
<totfact> 0.53654895E+03</totfact>
</mgrwt>
</event>
<event>
 4    1  0.3281630E-004  0.3114508E+03  0.7818608E-02  0.1079653E+00
         -1   -1    0    0    0  501 -0.00000000000E+00  0.00000000000E+00  0.53911343353E+03  0.53911343355E+03  0.50400000000E-02 0. -1.
          1   -1    0    0  501    0  0.00000000000E+00 -0.00000000000E+00 -0.44981996327E+02  0.44981996609E+02  0.50400000000E-02 0.  1.
    5000001    1    1    2    0    0 -0.84122630156E+02  0.97046093616E+02  0.32722324701E+03  0.35985915936E+03  0.77000000000E+02 0.  0.
   -5000001    1    1    2    0    0  0.84122630156E+02 -0.97046093616E+02  0.16690819019E+03  0.22423627080E+03  0.77000000000E+02 0.  0.
<mgrwt>
<rscale>  0 0.31145079E+03</rscale>
<asrwt>0</asrwt>
<pdfrwt beam="1">  1        1 0.64260001E-02 0.31145079E+03</pdfrwt>
<pdfrwt beam="2">  1       -1 0.77016198E-01 0.31145079E+03</pdfrwt>
<totfact> 0.20783704E+03</totfact>
</mgrwt>
</event>
<event>
 4    1  0.3281630E-004  0.2291768E+03  0.7818608E-02  0.1127221E+00
         -1   -1    0    0    0  501 -0.00000000000E+00  0.00000000000E+00  0.26340872450E+02  0.26340872932E+02  0.50400000000E-02 0.  1.
          1   -1    0    0  501    0  0.00000000000E+00 -0.00000000000E+00 -0.49848383576E+03  0.49848383579E+03  0.50400000000E-02 0. -1.
    5000001    1    1    2    0    0  0.52581733182E+02  0.61165140057E+02 -0.17567829707E+03  0.20808141936E+03  0.77000000000E+02 0.  0.
   -5000001    1    1    2    0    0 -0.52581733182E+02 -0.61165140057E+02 -0.29646466625E+03  0.31674328936E+03  0.77000000000E+02 0.  0.
<mgrwt>
<rscale>  0 0.22917678E+03</rscale>
<asrwt>0</asrwt>
<pdfrwt beam="1">  1        1 0.71211971E-01 0.22917678E+03</pdfrwt>
<pdfrwt beam="2">  1       -1 0.37629821E-02 0.22917678E+03</pdfrwt>
<totfact> 0.13254011E+04</totfact>
</mgrwt>
</event>
<event>
 4    1  0.3281630E-004  0.2121156E+03  0.7818608E-02  0.1139902E+00
         -1   -1    0    0    0  501 -0.00000000000E+00  0.00000000000E+00  0.22584372827E+02  0.22584373389E+02  0.50400000000E-02 0. -1.
          1   -1    0    0  501    0  0.00000000000E+00 -0.00000000000E+00 -0.49805491079E+03  0.49805491081E+03  0.50400000000E-02 0.  1.
    5000001    1    1    2    0    0 -0.29461089672E+02 -0.41371708634E+02 -0.10926148046E+03  0.14299176617E+03  0.77000000000E+02 0.  0.
   -5000001    1    1    2    0    0  0.29461089672E+02  0.41371708634E+02 -0.36620905750E+03  0.37764751804E+03  0.77000000000E+02 0.  0.
<mgrwt>
<rscale>  0 0.21211561E+03</rscale>
<asrwt>0</asrwt>
<pdfrwt beam="1">  1        1 0.71150695E-01 0.21211561E+03</pdfrwt>
<pdfrwt beam="2">  1       -1 0.32263393E-02 0.21211561E+03</pdfrwt>
<totfact> 0.16573000E+04</totfact>
</mgrwt>
</event>
<event>
 4    1  0.3281630E-004  0.3676126E+03  0.7818608E-02  0.1055610E+00
          1   -1    0    0  501    0  0.00000000000E+00  0.00000000000E+00  0.38810694697E+03  0.38810694700E+03  0.50400000000E-02 0.  1.
         -1   -1    0    0    0  501 -0.00000000000E+00 -0.00000000000E+00 -0.87050110595E+02  0.87050110740E+02  0.50400000000E-02 0. -1.
    5000001    1    1    2    0    0 -0.14956682815E+03  0.63451268808E+02  0.19990737252E+03  0.26886475630E+03  0.77000000000E+02 0.  0.
   -5000001    1    1    2    0    0  0.14956682815E+03 -0.63451268808E+02  0.10114946386E+03  0.20629230144E+03  0.77000000000E+02 0.  0.
<mgrwt>
<rscale>  0 0.36761258E+03</rscale>
<asrwt>0</asrwt>
<pdfrwt beam="1">  1        1 0.55443850E-01 0.36761258E+03</pdfrwt>
<pdfrwt beam="2">  1       -1 0.12435730E-01 0.36761258E+03</pdfrwt>
<totfact> 0.30145337E+03</totfact>
</mgrwt>
</event>
<event>
 4    1  0.3281630E-004  0.3849784E+03  0.7818608E-02  0.1049109E+00
         -1   -1    0    0    0  501 -0.00000000000E+00  0.00000000000E+00  0.15562566975E+03  0.15562566983E+03  0.50400000000E-02 0.  1.
          1   -1    0    0  501    0  0.00000000000E+00 -0.00000000000E+00 -0.23808467351E+03  0.23808467356E+03  0.50400000000E-02 0. -1.
    5000001    1    1    2    0    0  0.82808255564E+02 -0.30011669844E+02  0.11509427933E+03  0.16411459609E+03  0.77000000000E+02 0.  0.
   -5000001    1    1    2    0    0 -0.82808255564E+02  0.30011669844E+02 -0.19755328309E+03  0.22959574729E+03  0.77000000000E+02 0.  0.
<mgrwt>
<rscale>  0 0.38497837E+03</rscale>
<asrwt>0</asrwt>
<pdfrwt beam="1">  1        1 0.34012096E-01 0.38497837E+03</pdfrwt>
<pdfrwt beam="2">  1       -1 0.22232239E-01 0.38497837E+03</pdfrwt>
<totfact> 0.21979789E+03</totfact>
</mgrwt>
</event>
<event>
 4    1  0.3281630E-004  0.2007687E+03  0.7818608E-02  0.1149092E+00
         -1   -1    0    0    0  501 -0.00000000000E+00  0.00000000000E+00  0.11527363417E+03  0.11527363428E+03  0.50400000000E-02 0. -1.
          1   -1    0    0  501    0  0.00000000000E+00 -0.00000000000E+00 -0.87418249095E+02  0.87418249241E+02  0.50400000000E-02 0.  1.
    5000001    1    1    2    0    0 -0.20962944386E+02  0.59122325522E+02 -0.81094684687E+00  0.99320451304E+02  0.77000000000E+02 0.  0.
   -5000001    1    1    2    0    0  0.20962944386E+02 -0.59122325522E+02  0.28666331919E+02  0.10337143221E+03  0.77000000000E+02 0.  0.
<mgrwt>
<rscale>  0 0.20076872E+03</rscale>
<asrwt>0</asrwt>
<pdfrwt beam="1">  1        1 0.12488321E-01 0.20076872E+03</pdfrwt>
<pdfrwt beam="2">  1       -1 0.16467662E-01 0.20076872E+03</pdfrwt>
<totfact> 0.12708546E+04</totfact>
</mgrwt>
</event>
<event>
 4    1  0.3281630E-004  0.3051591E+03  0.7818608E-02  0.1082690E+00
         -1   -1    0    0    0  501 -0.00000000000E+00  0.00000000000E+00  0.74799930199E+02  0.74799930369E+02  0.50400000000E-02 0. -1.
          1   -1    0    0  501    0  0.00000000000E+00 -0.00000000000E+00 -0.31123713271E+03  0.31123713275E+03  0.50400000000E-02 0.  1.
    5000001    1    1    2    0    0  0.12784666933E+03 -0.27908641868E+01 -0.15820164947E+03  0.21750706121E+03  0.77000000000E+02 0.  0.
   -5000001    1    1    2    0    0 -0.12784666933E+03  0.27908641868E+01 -0.78235553040E+02  0.16853000191E+03  0.77000000000E+02 0.  0.
<mgrwt>
<rscale>  0 0.30515908E+03</rscale>
<asrwt>0</asrwt>
<pdfrwt beam="1">  1        1 0.44462447E-01 0.30515908E+03</pdfrwt>
<pdfrwt beam="2">  1       -1 0.10685704E-01 0.30515908E+03</pdfrwt>
<totfact> 0.50395435E+03</totfact>
</mgrwt>
</event>
<event>
 4    1  0.3281630E-004  0.2202203E+03  0.7818608E-02  0.1133719E+00
         -1   -1    0    0    0  501 -0.00000000000E+00  0.00000000000E+00  0.37360494548E+02  0.37360494888E+02  0.50400000000E-02 0.  1.
          1   -1    0    0  501    0  0.00000000000E+00 -0.00000000000E+00 -0.32452032503E+03  0.32452032507E+03  0.50400000000E-02 0. -1.
    5000001    1    1    2    0    0  0.47069626112E+02 -0.31438784439E+02 -0.53705145820E+02  0.10962294266E+03  0.77000000000E+02 0.  0.
   -5000001    1    1    2    0    0 -0.47069626112E+02  0.31438784439E+02 -0.23345468467E+03  0.25225787730E+03  0.77000000000E+02 0.  0.
<mgrwt>
<rscale>  0 0.22022025E+03</rscale>
<asrwt>0</asrwt>
<pdfrwt beam="1">  1        1 0.46360045E-01 0.22022025E+03</pdfrwt>
<pdfrwt beam="2">  1       -1 0.53372137E-02 0.22022025E+03</pdfrwt>
<totfact> 0.13571219E+04</totfact>
</mgrwt>
</event>
<event>
 4    1  0.3281630E-004  0.3126525E+03  0.7818608E-02  0.1079081E+00
          1   -1    0    0  501    0  0.00000000000E+00  0.00000000000E+00  0.22891853295E+03  0.22891853300E+03  0.50400000000E-02 0.  1.
         -1   -1    0    0    0  501 -0.00000000000E+00 -0.00000000000E+00 -0.10675368450E+03  0.10675368462E+03  0.50400000000E-02 0. -1.
    5000001    1    1    2    0    0  0.20161638860E+02  0.12426020608E+03  0.11647374473E+03  0.18799527576E+03  0.77000000000E+02 0.  0.
   -5000001    1    1    2    0    0 -0.20161638860E+02 -0.12426020608E+03  0.56911037186E+01  0.14767694186E+03  0.77000000000E+02 0.  0.
<mgrwt>
<rscale>  0 0.31265250E+03</rscale>
<asrwt>0</asrwt>
<pdfrwt beam="1">  1        1 0.32702648E-01 0.31265250E+03</pdfrwt>
<pdfrwt beam="2">  1       -1 0.15250526E-01 0.31265250E+03</pdfrwt>
<totfact> 0.42434987E+03</totfact>
</mgrwt>
</event>
<event>
 4    1  0.3281630E-004  0.3504187E+03  0.7818608E-02  0.1062443E+00
          1   -1    0    0  501    0  0.00000000000E+00  0.00000000000E+00  0.17242302010E+03  0.17242302017E+03  0.50400000000E-02 0.  1.
         -1   -1    0    0    0  501 -0.00000000000E+00 -0.00000000000E+00 -0.17804073585E+03  0.17804073593E+03  0.50400000000E-02 0. -1.
    5000001    1    1    2    0    0 -0.12617938628E+03  0.82367994404E+02 -0.48241530435E+02  0.17596013550E+03  0.77000000000E+02 0.  0.
   -5000001    1    1    2    0    0  0.12617938628E+03 -0.82367994404E+02  0.42623814678E+02  0.17450362060E+03  0.77000000000E+02 0.  0.
<mgrwt>
<rscale>  0 0.35041873E+03</rscale>
<asrwt>0</asrwt>
<pdfrwt beam="1">  1        1 0.24631860E-01 0.35041873E+03</pdfrwt>
<pdfrwt beam="2">  1       -1 0.25434391E-01 0.35041873E+03</pdfrwt>
<totfact> 0.26471481E+03</totfact>
</mgrwt>
</event>
<event>
 4    1  0.3281630E-004  0.1964763E+03  0.7818608E-02  0.1152746E+00
          1   -1    0    0  501    0  0.00000000000E+00  0.00000000000E+00  0.91592355853E+01  0.91592369720E+01  0.50400000000E-02 0.  1.
         -1   -1    0    0    0  501 -0.00000000000E+00 -0.00000000000E+00 -0.10536618976E+04  0.10536618976E+04  0.50400000000E-02 0. -1.
    5000001    1    1    2    0    0 -0.29026192192E+02  0.50874692178E+02 -0.42997621789E+03  0.44072588089E+03  0.77000000000E+02 0.  0.
   -5000001    1    1    2    0    0  0.29026192192E+02 -0.50874692178E+02 -0.61452644416E+03  0.62209525373E+03  0.77000000000E+02 0.  0.
<mgrwt>
<rscale>  0 0.19647634E+03</rscale>
<asrwt>0</asrwt>
<pdfrwt beam="1">  1        1 0.13084630E-02 0.19647634E+03</pdfrwt>
<pdfrwt beam="2">  1       -1 0.15052305E+00 0.19647634E+03</pdfrwt>
<totfact> 0.40658420E+03</totfact>
</mgrwt>
</event>
<event>
 4    1  0.3281630E-004  0.2400030E+03  0.7818608E-02  0.1119791E+00
          1   -1    0    0  501    0  0.00000000000E+00  0.00000000000E+00  0.40539257784E+03  0.40539257787E+03  0.50400000000E-02 0.  1.
         -1   -1    0    0    0  501 -0.00000000000E+00 -0.00000000000E+00 -0.35522015438E+02  0.35522015795E+02  0.50400000000E-02 0. -1.
    5000001    1    1    2    0    0 -0.86478003424E+02 -0.26862280136E+02  0.15467380230E+03  0.19507181316E+03  0.77000000000E+02 0.  0.
   -5000001    1    1    2    0    0  0.86478003424E+02  0.26862280136E+02  0.21519676010E+03  0.24584278050E+03  0.77000000000E+02 0.  0.
<mgrwt>
<rscale>  0 0.24000301E+03</rscale>
<asrwt>0</asrwt>
<pdfrwt beam="1">  1        1 0.57913224E-01 0.24000301E+03</pdfrwt>
<pdfrwt beam="2">  1       -1 0.50745738E-02 0.24000301E+03</pdfrwt>
<totfact> 0.11109313E+04</totfact>
</mgrwt>
</event>
<event>
 4    1  0.3281630E-004  0.1730299E+03  0.7818608E-02  0.1174724E+00
          1   -1    0    0  501    0  0.00000000000E+00  0.00000000000E+00  0.25269195893E+03  0.25269195898E+03  0.50400000000E-02 0.  1.
         -1   -1    0    0    0  501 -0.00000000000E+00 -0.00000000000E+00 -0.29620404356E+02  0.29620404785E+02  0.50400000000E-02 0. -1.
    5000001    1    1    2    0    0 -0.13881328325E+02  0.36108826501E+02  0.12409995293E+03  0.15108387388E+03  0.77000000000E+02 0.  0.
   -5000001    1    1    2    0    0  0.13881328325E+02 -0.36108826501E+02  0.98971601642E+02  0.13122848989E+03  0.77000000000E+02 0.  0.
<mgrwt>
<rscale>  0 0.17302992E+03</rscale>
<asrwt>0</asrwt>
<pdfrwt beam="1">  1        1 0.36098851E-01 0.17302992E+03</pdfrwt>
<pdfrwt beam="2">  1       -1 0.42314864E-02 0.17302992E+03</pdfrwt>
<totfact> 0.25709411E+04</totfact>
</mgrwt>
</event>
<event>
 4    1  0.3281630E-004  0.1921769E+03  0.7818608E-02  0.1156512E+00
         -1   -1    0    0    0  501 -0.00000000000E+00  0.00000000000E+00  0.35794615221E+02  0.35794615576E+02  0.50400000000E-02 0.  1.
          1   -1    0    0  501    0  0.00000000000E+00 -0.00000000000E+00 -0.25794352703E+03  0.25794352708E+03  0.50400000000E-02 0. -1.
    5000001    1    1    2    0    0 -0.67330099260E+00  0.56691365035E+02 -0.96604269030E+02  0.13592552740E+03  0.77000000000E+02 0.  0.
   -5000001    1    1    2    0    0  0.67330099260E+00 -0.56691365035E+02 -0.12554464278E+03  0.15781261526E+03  0.77000000000E+02 0.  0.
<mgrwt>
<rscale>  0 0.19217689E+03</rscale>
<asrwt>0</asrwt>
<pdfrwt beam="1">  1        1 0.36849074E-01 0.19217689E+03</pdfrwt>
<pdfrwt beam="2">  1       -1 0.51135166E-02 0.19217689E+03</pdfrwt>
<totfact> 0.19088677E+04</totfact>
</mgrwt>
</event>
<event>
 4    1  0.3281630E-004  0.5721428E+03  0.7818608E-02  0.9964948E-01
          1   -1    0    0  501    0  0.00000000000E+00  0.00000000000E+00  0.87266939323E+03  0.87266939324E+03  0.50400000000E-02 0. -1.
         -1   -1    0    0    0  501 -0.00000000000E+00 -0.00000000000E+00 -0.93777615024E+02  0.93777615159E+02  0.50400000000E-02 0.  1.
    5000001    1    1    2    0    0  0.47145018503E+02 -0.26966532109E+03  0.44194124120E+03  0.52553125392E+03  0.77000000000E+02 0.  0.
   -5000001    1    1    2    0    0 -0.47145018503E+02  0.26966532109E+03  0.33695053700E+03  0.44091575449E+03  0.77000000000E+02 0.  0.
<mgrwt>
<rscale>  0 0.57214283E+03</rscale>
<asrwt>0</asrwt>
<pdfrwt beam="1">  1        1 0.12466705E+00 0.57214283E+03</pdfrwt>
<pdfrwt beam="2">  1       -1 0.13396803E-01 0.57214283E+03</pdfrwt>
<totfact> 0.86385541E+02</totfact>
</mgrwt>
</event>
<event>
 4    1  0.3281630E-004  0.2318579E+03  0.7818608E-02  0.1125339E+00
         -1   -1    0    0    0  501 -0.00000000000E+00  0.00000000000E+00  0.11989120741E+02  0.11989121800E+02  0.50400000000E-02 0. -1.
          1   -1    0    0  501    0  0.00000000000E+00 -0.00000000000E+00 -0.11209760255E+04  0.11209760255E+04  0.50400000000E-02 0.  1.
    5000001    1    1    2    0    0  0.66277371889E+02 -0.44604072166E+02 -0.39035594771E+03  0.40581889950E+03  0.77000000000E+02 0.  0.
   -5000001    1    1    2    0    0 -0.66277371889E+02  0.44604072166E+02 -0.71863095706E+03  0.72714624783E+03  0.77000000000E+02 0.  0.
<mgrwt>
<rscale>  0 0.23185787E+03</rscale>
<asrwt>0</asrwt>
<pdfrwt beam="1">  1        1 0.16013936E+00 0.23185787E+03</pdfrwt>
<pdfrwt beam="2">  1       -1 0.17127323E-02 0.23185787E+03</pdfrwt>
<totfact> 0.12713804E+04</totfact>
</mgrwt>
</event>
<event>
 4    1  0.3281630E-004  0.4176916E+03  0.7818608E-02  0.1037820E+00
         -1   -1    0    0    0  501 -0.00000000000E+00  0.00000000000E+00  0.30219934085E+03  0.30219934089E+03  0.50400000000E-02 0.  1.
          1   -1    0    0  501    0  0.00000000000E+00 -0.00000000000E+00 -0.14433044827E+03  0.14433044836E+03  0.50400000000E-02 0. -1.
    5000001    1    1    2    0    0 -0.11273268766E+03  0.98535556389E+02 -0.53167516095E+02  0.17656075302E+03  0.77000000000E+02 0.  0.
   -5000001    1    1    2    0    0  0.11273268766E+03 -0.98535556389E+02  0.21103640867E+03  0.26996903623E+03  0.77000000000E+02 0.  0.
<mgrwt>
<rscale>  0 0.41769159E+03</rscale>
<asrwt>0</asrwt>
<pdfrwt beam="1">  1        1 0.20618635E-01 0.41769159E+03</pdfrwt>
<pdfrwt beam="2">  1       -1 0.43171335E-01 0.41769159E+03</pdfrwt>
<totfact> 0.13281051E+03</totfact>
</mgrwt>
</event>
<event>
 4    1  0.3281630E-004  0.2239744E+03  0.7818608E-02  0.1130954E+00
         -1   -1    0    0    0  501 -0.00000000000E+00  0.00000000000E+00  0.55699368594E+02  0.55699368822E+02  0.50400000000E-02 0.  1.
          1   -1    0    0  501    0  0.00000000000E+00 -0.00000000000E+00 -0.22515762567E+03  0.22515762573E+03  0.50400000000E-02 0. -1.
    5000001    1    1    2    0    0 -0.61985549033E+02  0.34996897365E+01 -0.15057959186E+03  0.18016012212E+03  0.77000000000E+02 0.  0.
   -5000001    1    1    2    0    0  0.61985549033E+02 -0.34996897365E+01 -0.18878665218E+02  0.10069687243E+03  0.77000000000E+02 0.  0.
<mgrwt>
<rscale>  0 0.22397444E+03</rscale>
<asrwt>0</asrwt>
<pdfrwt beam="1">  1        1 0.32165375E-01 0.22397444E+03</pdfrwt>
<pdfrwt beam="2">  1       -1 0.79570528E-02 0.22397444E+03</pdfrwt>
<totfact> 0.11749864E+04</totfact>
</mgrwt>
</event>
<event>
 4    1  0.3281630E-004  0.5389830E+03  0.7818608E-02  0.1004077E+00
         -1   -1    0    0    0  501 -0.00000000000E+00  0.00000000000E+00  0.57273778013E+02  0.57273778234E+02  0.50400000000E-02 0. -1.
          1   -1    0    0  501    0  0.00000000000E+00 -0.00000000000E+00 -0.12680441766E+04  0.12680441766E+04  0.50400000000E-02 0.  1.
    5000001    1    1    2    0    0 -0.21317935361E+03  0.13880494299E+03 -0.49584763743E+03  0.56258877393E+03  0.77000000000E+02 0.  0.
   -5000001    1    1    2    0    0  0.21317935361E+03 -0.13880494299E+03 -0.71492276113E+03  0.76272918089E+03  0.77000000000E+02 0.  0.
<mgrwt>
<rscale>  0 0.53898305E+03</rscale>
<asrwt>0</asrwt>
<pdfrwt beam="1">  1        1 0.18114915E+00 0.53898305E+03</pdfrwt>
<pdfrwt beam="2">  1       -1 0.81819691E-02 0.53898305E+03</pdfrwt>
<totfact> 0.97809160E+02</totfact>
</mgrwt>
</event>
<event>
 4    1  0.3281630E-004  0.1998664E+03  0.7818608E-02  0.1149852E+00
          1   -1    0    0  501    0  0.00000000000E+00  0.00000000000E+00  0.19270182559E+02  0.19270183218E+02  0.50400000000E-02 0.  1.
         -1   -1    0    0    0  501 -0.00000000000E+00 -0.00000000000E+00 -0.51824338070E+03  0.51824338073E+03  0.50400000000E-02 0. -1.
    5000001    1    1    2    0    0  0.40148106911E+02  0.39932891324E+02 -0.17102634052E+03  0.19592221786E+03  0.77000000000E+02 0.  0.
   -5000001    1    1    2    0    0 -0.40148106911E+02 -0.39932891324E+02 -0.32794685762E+03  0.34159134609E+03  0.77000000000E+02 0.  0.
<mgrwt>
<rscale>  0 0.19986640E+03</rscale>
<asrwt>0</asrwt>
<pdfrwt beam="1">  1        1 0.27528836E-02 0.19986640E+03</pdfrwt>
<pdfrwt beam="2">  1       -1 0.74034760E-01 0.19986640E+03</pdfrwt>
<totfact> 0.71927218E+03</totfact>
</mgrwt>
</event>
<event>
 4    1  0.3281630E-004  0.3033750E+03  0.7818608E-02  0.1083566E+00
          1   -1    0    0  501    0  0.00000000000E+00  0.00000000000E+00  0.80695177192E+01  0.80695192931E+01  0.50400000000E-02 0.  1.
         -1   -1    0    0    0  501 -0.00000000000E+00 -0.00000000000E+00 -0.28513602818E+04  0.28513602818E+04  0.50400000000E-02 0. -1.
    5000001    1    1    2    0    0  0.86062936963E+02 -0.88935226785E+02 -0.18174896527E+04  0.18233249687E+04  0.77000000000E+02 0.  0.
   -5000001    1    1    2    0    0 -0.86062936963E+02  0.88935226785E+02 -0.10258011114E+04  0.10361048324E+04  0.77000000000E+02 0.  0.
<mgrwt>
<rscale>  0 0.30337505E+03</rscale>
<asrwt>0</asrwt>
<pdfrwt beam="1">  1        1 0.11527902E-02 0.30337505E+03</pdfrwt>
<pdfrwt beam="2">  1       -1 0.40733654E+00 0.30337505E+03</pdfrwt>
<totfact> 0.10347060E+02</totfact>
</mgrwt>
</event>
<event>
 4    1  0.3281630E-004  0.1951240E+03  0.7818608E-02  0.1153919E+00
          1   -1    0    0  501    0  0.00000000000E+00  0.00000000000E+00  0.12645548963E+04  0.12645548963E+04  0.50400000000E-02 0.  1.
         -1   -1    0    0    0  501 -0.00000000000E+00 -0.00000000000E+00 -0.75270294903E+01  0.75270311776E+01  0.50400000000E-02 0. -1.
    5000001    1    1    2    0    0 -0.47512401865E+02 -0.19575131659E+02  0.42770848607E+03  0.43761188645E+03  0.77000000000E+02 0.  0.
   -5000001    1    1    2    0    0  0.47512401865E+02  0.19575131659E+02  0.82931938074E+03  0.83447004104E+03  0.77000000000E+02 0.  0.
<mgrwt>
<rscale>  0 0.19512399E+03</rscale>
<asrwt>0</asrwt>
<pdfrwt beam="1">  1        1 0.18065080E+00 0.19512399E+03</pdfrwt>
<pdfrwt beam="2">  1       -1 0.10752894E-02 0.19512399E+03</pdfrwt>
<totfact> 0.19838668E+04</totfact>
</mgrwt>
</event>
<event>
 4    1  0.3281630E-004  0.2432902E+03  0.7818608E-02  0.1117620E+00
         -1   -1    0    0    0  501 -0.00000000000E+00  0.00000000000E+00  0.10750310952E+03  0.10750310964E+03  0.50400000000E-02 0.  1.
          1   -1    0    0  501    0  0.00000000000E+00 -0.00000000000E+00 -0.13764742192E+03  0.13764742201E+03  0.50400000000E-02 0. -1.
    5000001    1    1    2    0    0 -0.93329658970E+02 -0.10693159693E+02 -0.21737645223E+02  0.12339487075E+03  0.77000000000E+02 0.  0.
   -5000001    1    1    2    0    0  0.93329658970E+02  0.10693159693E+02 -0.84066671804E+01  0.12175566090E+03  0.77000000000E+02 0.  0.
<mgrwt>
<rscale>  0 0.24329016E+03</rscale>
<asrwt>0</asrwt>
<pdfrwt beam="1">  1        1 0.19663917E-01 0.24329016E+03</pdfrwt>
<pdfrwt beam="2">  1       -1 0.15357587E-01 0.24329016E+03</pdfrwt>
<totfact> 0.79463319E+03</totfact>
</mgrwt>
</event>
<event>
 4    1  0.3281630E-004  0.2570976E+03  0.7818608E-02  0.1108900E+00
          1   -1    0    0  501    0  0.00000000000E+00  0.00000000000E+00  0.72450012607E+03  0.72450012609E+03  0.50400000000E-02 0.  1.
         -1   -1    0    0    0  501 -0.00000000000E+00 -0.00000000000E+00 -0.22808541802E+02  0.22808542359E+02  0.50400000000E-02 0. -1.
    5000001    1    1    2    0    0  0.12980756381E+02  0.86820022673E+02  0.50709543485E+03  0.52036621375E+03  0.77000000000E+02 0.  0.
   -5000001    1    1    2    0    0 -0.12980756381E+02 -0.86820022673E+02  0.19459614942E+03  0.22694245470E+03  0.77000000000E+02 0.  0.
<mgrwt>
<rscale>  0 0.25709758E+03</rscale>
<asrwt>0</asrwt>
<pdfrwt beam="1">  1        1 0.10350001E+00 0.25709758E+03</pdfrwt>
<pdfrwt beam="2">  1       -1 0.32583634E-02 0.25709758E+03</pdfrwt>
<totfact> 0.99069122E+03</totfact>
</mgrwt>
</event>
<event>
 4    1  0.3281630E-004  0.2558113E+03  0.7818608E-02  0.1109686E+00
          1   -1    0    0  501    0  0.00000000000E+00  0.00000000000E+00  0.74648120761E+03  0.74648120763E+03  0.50400000000E-02 0.  1.
         -1   -1    0    0    0  501 -0.00000000000E+00 -0.00000000000E+00 -0.21915972294E+02  0.21915972874E+02  0.50400000000E-02 0. -1.
    5000001    1    1    2    0    0  0.62258101342E+02  0.56749863982E+02  0.53572874454E+03  0.54775076994E+03  0.77000000000E+02 0.  0.
   -5000001    1    1    2    0    0 -0.62258101342E+02 -0.56749863982E+02  0.18883649078E+03  0.22064641056E+03  0.77000000000E+02 0.  0.
<mgrwt>
<rscale>  0 0.25581135E+03</rscale>
<asrwt>0</asrwt>
<pdfrwt beam="1">  1        1 0.10664019E+00 0.25581135E+03</pdfrwt>
<pdfrwt beam="2">  1       -1 0.31308528E-02 0.25581135E+03</pdfrwt>
<totfact> 0.10062142E+04</totfact>
</mgrwt>
</event>
<event>
 4    1  0.3281630E-004  0.3903093E+03  0.7818608E-02  0.1047188E+00
         -1   -1    0    0    0  501 -0.00000000000E+00  0.00000000000E+00  0.25188484818E+03  0.25188484823E+03  0.50400000000E-02 0. -1.
          1   -1    0    0  501    0  0.00000000000E+00 -0.00000000000E+00 -0.15120141271E+03  0.15120141280E+03  0.50400000000E-02 0.  1.
    5000001    1    1    2    0    0  0.33019129629E+02 -0.16205584352E+03  0.12192142216E+03  0.21942240661E+03  0.77000000000E+02 0.  0.
   -5000001    1    1    2    0    0 -0.33019129629E+02  0.16205584352E+03 -0.21237986694E+02  0.18366385442E+03  0.77000000000E+02 0.  0.
<mgrwt>
<rscale>  0 0.39030934E+03</rscale>
<asrwt>0</asrwt>
<pdfrwt beam="1">  1        1 0.21600202E-01 0.39030934E+03</pdfrwt>
<pdfrwt beam="2">  1       -1 0.35983550E-01 0.39030934E+03</pdfrwt>
<totfact> 0.17307789E+03</totfact>
</mgrwt>
</event>
<event>
 4    1  0.3281630E-004  0.1647539E+03  0.7818608E-02  0.1183432E+00
          1   -1    0    0  501    0  0.00000000000E+00  0.00000000000E+00  0.41513108194E+02  0.41513108500E+02  0.50400000000E-02 0. -1.
         -1   -1    0    0    0  501 -0.00000000000E+00 -0.00000000000E+00 -0.16346551245E+03  0.16346551253E+03  0.50400000000E-02 0.  1.
    5000001    1    1    2    0    0 -0.19103907470E+02 -0.22125468171E+02 -0.59022481424E+02  0.10132694082E+03  0.77000000000E+02 0.  0.
   -5000001    1    1    2    0    0  0.19103907470E+02  0.22125468171E+02 -0.62929922833E+02  0.10365168021E+03  0.77000000000E+02 0.  0.
<mgrwt>
<rscale>  0 0.16475390E+03</rscale>
<asrwt>0</asrwt>
<pdfrwt beam="1">  1        1 0.59304441E-02 0.16475390E+03</pdfrwt>
<pdfrwt beam="2">  1       -1 0.23352216E-01 0.16475390E+03</pdfrwt>
<totfact> 0.19368247E+04</totfact>
</mgrwt>
</event>
<event>
 4    1  0.3281630E-004  0.4492164E+03  0.7818608E-02  0.1027956E+00
          1   -1    0    0  501    0  0.00000000000E+00  0.00000000000E+00  0.90859758752E+03  0.90859758754E+03  0.50400000000E-02 0.  1.
         -1   -1    0    0    0  501 -0.00000000000E+00 -0.00000000000E+00 -0.55523859363E+02  0.55523859592E+02  0.50400000000E-02 0. -1.
    5000001    1    1    2    0    0 -0.12913188902E+03 -0.67545373031E+02  0.99052763815E+02  0.19229631353E+03  0.77000000000E+02 0.  0.
   -5000001    1    1    2    0    0  0.12913188902E+03  0.67545373031E+02  0.75402096434E+03  0.77182513360E+03  0.77000000000E+02 0.  0.
<mgrwt>
<rscale>  0 0.44921641E+03</rscale>
<asrwt>0</asrwt>
<pdfrwt beam="1">  1        1 0.12979965E+00 0.44921641E+03</pdfrwt>
<pdfrwt beam="2">  1       -1 0.79319805E-02 0.44921641E+03</pdfrwt>
<totfact> 0.18525395E+03</totfact>
</mgrwt>
</event>
<event>
 4    1  0.3281630E-004  0.3978472E+03  0.7818608E-02  0.1044528E+00
          1   -1    0    0  501    0  0.00000000000E+00  0.00000000000E+00  0.76370023401E+03  0.76370023403E+03  0.50400000000E-02 0.  1.
         -1   -1    0    0    0  501 -0.00000000000E+00 -0.00000000000E+00 -0.51814309553E+02  0.51814309798E+02  0.50400000000E-02 0. -1.
    5000001    1    1    2    0    0  0.16806153184E+03  0.73159872413E+02  0.36962540748E+03  0.41970106894E+03  0.77000000000E+02 0.  0.
   -5000001    1    1    2    0    0 -0.16806153184E+03 -0.73159872413E+02  0.34226051698E+03  0.39581347488E+03  0.77000000000E+02 0.  0.
<mgrwt>
<rscale>  0 0.39784721E+03</rscale>
<asrwt>0</asrwt>
<pdfrwt beam="1">  1        1 0.10910004E+00 0.39784721E+03</pdfrwt>
<pdfrwt beam="2">  1       -1 0.74020437E-02 0.39784721E+03</pdfrwt>
<totfact> 0.26943509E+03</totfact>
</mgrwt>
</event>
<event>
 4    1  0.3281630E-004  0.1932074E+03  0.7818608E-02  0.1155600E+00
          1   -1    0    0  501    0  0.00000000000E+00  0.00000000000E+00  0.36291153020E+02  0.36291153370E+02  0.50400000000E-02 0.  1.
         -1   -1    0    0    0  501 -0.00000000000E+00 -0.00000000000E+00 -0.25715012803E+03  0.25715012808E+03  0.50400000000E-02 0. -1.
    5000001    1    1    2    0    0  0.86595427699E+01 -0.57026009337E+02 -0.97161034625E+02  0.13673412183E+03  0.77000000000E+02 0.  0.
   -5000001    1    1    2    0    0 -0.86595427699E+01  0.57026009337E+02 -0.12369794039E+03  0.15670715963E+03  0.77000000000E+02 0.  0.
<mgrwt>
<rscale>  0 0.19320740E+03</rscale>
<asrwt>0</asrwt>
<pdfrwt beam="1">  1        1 0.51844506E-02 0.19320740E+03</pdfrwt>
<pdfrwt beam="2">  1       -1 0.36735732E-01 0.19320740E+03</pdfrwt>
<totfact> 0.10996121E+04</totfact>
</mgrwt>
</event>
<event>
 4    1  0.3281630E-004  0.3000573E+03  0.7818608E-02  0.1085212E+00
         -1   -1    0    0    0  501 -0.00000000000E+00  0.00000000000E+00  0.12361207530E+02  0.12361208557E+02  0.50400000000E-02 0. -1.
          1   -1    0    0  501    0  0.00000000000E+00 -0.00000000000E+00 -0.18209060324E+04  0.18209060325E+04  0.50400000000E-02 0.  1.
    5000001    1    1    2    0    0 -0.40738744332E+02  0.83444102857E+02 -0.14492732672E+04  0.14542848987E+04  0.77000000000E+02 0.  0.
   -5000001    1    1    2    0    0  0.40738744332E+02 -0.83444102857E+02 -0.35927155769E+03  0.37898234227E+03  0.77000000000E+02 0.  0.
<mgrwt>
<rscale>  0 0.30005732E+03</rscale>
<asrwt>0</asrwt>
<pdfrwt beam="1">  1        1 0.26012926E+00 0.30005732E+03</pdfrwt>
<pdfrwt beam="2">  1       -1 0.17658880E-02 0.30005732E+03</pdfrwt>
<totfact> 0.44134068E+03</totfact>
</mgrwt>
</event>
<event>
 4    1  0.3281630E-004  0.1934086E+03  0.7818608E-02  0.1155422E+00
         -1   -1    0    0    0  501 -0.00000000000E+00  0.00000000000E+00  0.81708773765E+01  0.81708789309E+01  0.50400000000E-02 0.  1.
          1   -1    0    0  501    0  0.00000000000E+00 -0.00000000000E+00 -0.11445180180E+04  0.11445180180E+04  0.50400000000E-02 0. -1.
    5000001    1    1    2    0    0  0.64502128384E+01 -0.21874704654E+02 -0.88926648580E+03  0.89288520579E+03  0.77000000000E+02 0.  0.
   -5000001    1    1    2    0    0 -0.64502128384E+01  0.21874704654E+02 -0.24708065485E+03  0.25980369118E+03  0.77000000000E+02 0.  0.
<mgrwt>
<rscale>  0 0.19340855E+03</rscale>
<asrwt>0</asrwt>
<pdfrwt beam="1">  1        1 0.16350247E+00 0.19340855E+03</pdfrwt>
<pdfrwt beam="2">  1       -1 0.11672690E-02 0.19340855E+03</pdfrwt>
<totfact> 0.21138168E+04</totfact>
</mgrwt>
</event>
<event>
 4    1  0.3281630E-004  0.1762402E+03  0.7818608E-02  0.1171492E+00
         -1   -1    0    0    0  501 -0.00000000000E+00  0.00000000000E+00  0.13601077277E+02  0.13601078211E+02  0.50400000000E-02 0. -1.
          1   -1    0    0  501    0  0.00000000000E+00 -0.00000000000E+00 -0.57092154794E+03  0.57092154796E+03  0.50400000000E-02 0.  1.
    5000001    1    1    2    0    0  0.19689366531E+01 -0.36127667875E+02 -0.35480285768E+03  0.36486045677E+03  0.77000000000E+02 0.  0.
   -5000001    1    1    2    0    0 -0.19689366531E+01  0.36127667875E+02 -0.20251761298E+03  0.21966216940E+03  0.77000000000E+02 0.  0.
<mgrwt>
<rscale>  0 0.17624016E+03</rscale>
<asrwt>0</asrwt>
<pdfrwt beam="1">  1        1 0.81560206E-01 0.17624016E+03</pdfrwt>
<pdfrwt beam="2">  1       -1 0.19430115E-02 0.17624016E+03</pdfrwt>
<totfact> 0.28636780E+04</totfact>
</mgrwt>
</event>
<event>
 4    1  0.3281630E-004  0.2246233E+03  0.7818608E-02  0.1130482E+00
          1   -1    0    0  501    0  0.00000000000E+00  0.00000000000E+00  0.30233268184E+03  0.30233268188E+03  0.50400000000E-02 0.  1.
         -1   -1    0    0    0  501 -0.00000000000E+00 -0.00000000000E+00 -0.41721937541E+02  0.41721937845E+02  0.50400000000E-02 0. -1.
    5000001    1    1    2    0    0 -0.53998965759E+02 -0.52280872120E+02  0.81011225295E+02  0.13468851665E+03  0.77000000000E+02 0.  0.
   -5000001    1    1    2    0    0  0.53998965759E+02  0.52280872120E+02  0.17959951900E+03  0.20936610308E+03  0.77000000000E+02 0.  0.
<mgrwt>
<rscale>  0 0.22462329E+03</rscale>
<asrwt>0</asrwt>
<pdfrwt beam="1">  1        1 0.43190382E-01 0.22462329E+03</pdfrwt>
<pdfrwt beam="2">  1       -1 0.59602769E-02 0.22462329E+03</pdfrwt>
<totfact> 0.12581238E+04</totfact>
</mgrwt>
</event>
<event>
 4    1  0.3281630E-004  0.3972148E+03  0.7818608E-02  0.1044748E+00
         -1   -1    0    0    0  501 -0.00000000000E+00  0.00000000000E+00  0.24462983081E+03  0.24462983087E+03  0.50400000000E-02 0. -1.
          1   -1    0    0  501    0  0.00000000000E+00 -0.00000000000E+00 -0.16124317360E+03  0.16124317367E+03  0.50400000000E-02 0.  1.
    5000001    1    1    2    0    0  0.14743481555E+03 -0.85660429309E+02 -0.26401295081E+02  0.18894645371E+03  0.77000000000E+02 0.  0.
   -5000001    1    1    2    0    0 -0.14743481555E+03  0.85660429309E+02  0.10978795230E+03  0.21692655083E+03  0.77000000000E+02 0.  0.
<mgrwt>
<rscale>  0 0.39721475E+03</rscale>
<asrwt>0</asrwt>
<pdfrwt beam="1">  1        1 0.23034739E-01 0.39721475E+03</pdfrwt>
<pdfrwt beam="2">  1       -1 0.34947119E-01 0.39721475E+03</pdfrwt>
<totfact> 0.16767493E+03</totfact>
</mgrwt>
</event>
<event>
 4    1  0.3281630E-004  0.1787049E+03  0.7818608E-02  0.1169062E+00
          1   -1    0    0  501    0  0.00000000000E+00  0.00000000000E+00  0.75493598396E+03  0.75493598398E+03  0.50400000000E-02 0.  1.
         -1   -1    0    0    0  501 -0.00000000000E+00 -0.00000000000E+00 -0.10575541548E+02  0.10575542749E+02  0.50400000000E-02 0. -1.
    5000001    1    1    2    0    0  0.31436765250E+02 -0.16238303474E+02  0.49356027730E+03  0.50078208838E+03  0.77000000000E+02 0.  0.
   -5000001    1    1    2    0    0 -0.31436765250E+02  0.16238303474E+02  0.25080016511E+03  0.26472943835E+03  0.77000000000E+02 0.  0.
<mgrwt>
<rscale>  0 0.17870487E+03</rscale>
<asrwt>0</asrwt>
<pdfrwt beam="1">  1        1 0.10784804E+00 0.17870487E+03</pdfrwt>
<pdfrwt beam="2">  1       -1 0.15107912E-02 0.17870487E+03</pdfrwt>
<totfact> 0.28041216E+04</totfact>
</mgrwt>
</event>
<event>
 4    1  0.3281630E-004  0.2099276E+03  0.7818608E-02  0.1141623E+00
         -1   -1    0    0    0  501 -0.00000000000E+00  0.00000000000E+00  0.55810904661E+02  0.55810904889E+02  0.50400000000E-02 0. -1.
          1   -1    0    0  501    0  0.00000000000E+00 -0.00000000000E+00 -0.19740582022E+03  0.19740582028E+03  0.50400000000E-02 0.  1.
    5000001    1    1    2    0    0 -0.38541703298E+02 -0.56245050874E+02 -0.96082701613E+02  0.14074748378E+03  0.77000000000E+02 0.  0.
   -5000001    1    1    2    0    0  0.38541703298E+02  0.56245050874E+02 -0.45512213942E+02  0.11246924139E+03  0.77000000000E+02 0.  0.
<mgrwt>
<rscale>  0 0.20992758E+03</rscale>
<asrwt>0</asrwt>
<pdfrwt beam="1">  1        1 0.28200831E-01 0.20992758E+03</pdfrwt>
<pdfrwt beam="2">  1       -1 0.79729865E-02 0.20992758E+03</pdfrwt>
<totfact> 0.13762182E+04</totfact>
</mgrwt>
</event>
<event>
 4    1  0.3281630E-004  0.1595806E+03  0.7818608E-02  0.1189171E+00
          1   -1    0    0  501    0  0.00000000000E+00  0.00000000000E+00  0.65188945277E+01  0.65188964760E+01  0.50400000000E-02 0. -1.
         -1   -1    0    0    0  501 -0.00000000000E+00 -0.00000000000E+00 -0.97662104812E+03  0.97662104813E+03  0.50400000000E-02 0.  1.
    5000001    1    1    2    0    0  0.94743918396E+00 -0.20557311627E+02 -0.50809424045E+03  0.51430755184E+03  0.77000000000E+02 0.  0.
   -5000001    1    1    2    0    0 -0.94743918396E+00  0.20557311627E+02 -0.46200791314E+03  0.46883239277E+03  0.77000000000E+02 0.  0.
<mgrwt>
<rscale>  0 0.15958058E+03</rscale>
<asrwt>0</asrwt>
<pdfrwt beam="1">  1        1 0.93127141E-03 0.15958058E+03</pdfrwt>
<pdfrwt beam="2">  1       -1 0.13951720E+00 0.15958058E+03</pdfrwt>
<totfact> 0.78618092E+03</totfact>
</mgrwt>
</event>
<event>
 4    1  0.3281630E-004  0.2374407E+03  0.7818608E-02  0.1121510E+00
          1   -1    0    0  501    0  0.00000000000E+00  0.00000000000E+00  0.21705662036E+03  0.21705662042E+03  0.50400000000E-02 0.  1.
         -1   -1    0    0    0  501 -0.00000000000E+00 -0.00000000000E+00 -0.64934786822E+02  0.64934787018E+02  0.50400000000E-02 0. -1.
    5000001    1    1    2    0    0  0.88489263752E+02 -0.18628086575E+01  0.97690941775E+02  0.15266414104E+03  0.77000000000E+02 0.  0.
   -5000001    1    1    2    0    0 -0.88489263752E+02  0.18628086575E+01  0.54430891767E+02  0.12932726640E+03  0.77000000000E+02 0.  0.
<mgrwt>
<rscale>  0 0.23744073E+03</rscale>
<asrwt>0</asrwt>
<pdfrwt beam="1">  1        1 0.31008089E-01 0.23744073E+03</pdfrwt>
<pdfrwt beam="2">  1       -1 0.92763980E-02 0.23744073E+03</pdfrwt>
<totfact> 0.97635362E+03</totfact>
</mgrwt>
</event>
<event>
 4    1  0.3281630E-004  0.2813457E+03  0.7818608E-02  0.1094956E+00
          1   -1    0    0  501    0  0.00000000000E+00  0.00000000000E+00  0.37621008022E+03  0.37621008026E+03  0.50400000000E-02 0.  1.
         -1   -1    0    0    0  501 -0.00000000000E+00 -0.00000000000E+00 -0.52600550953E+02  0.52600551195E+02  0.50400000000E-02 0. -1.
    5000001    1    1    2    0    0  0.10492878682E+03  0.53307831328E+02  0.16613782297E+03  0.21767533485E+03  0.77000000000E+02 0.  0.
   -5000001    1    1    2    0    0 -0.10492878682E+03 -0.53307831328E+02  0.15747170630E+03  0.21113529660E+03  0.77000000000E+02 0.  0.
<mgrwt>
<rscale>  0 0.28134575E+03</rscale>
<asrwt>0</asrwt>
<pdfrwt beam="1">  1        1 0.53744297E-01 0.28134575E+03</pdfrwt>
<pdfrwt beam="2">  1       -1 0.75143645E-02 0.28134575E+03</pdfrwt>
<totfact> 0.68010569E+03</totfact>
</mgrwt>
</event>
<event>
 4    1  0.3281630E-004  0.1850710E+03  0.7818608E-02  0.1162984E+00
          1   -1    0    0  501    0  0.00000000000E+00  0.00000000000E+00  0.88699044953E+03  0.88699044954E+03  0.50400000000E-02 0.  1.
         -1   -1    0    0    0  501 -0.00000000000E+00 -0.00000000000E+00 -0.96537871115E+01  0.96537884272E+01  0.50400000000E-02 0. -1.
    5000001    1    1    2    0    0  0.11353878844E+02 -0.38517961368E+02  0.59349753652E+03  0.59981736367E+03  0.77000000000E+02 0.  0.
   -5000001    1    1    2    0    0 -0.11353878844E+02  0.38517961368E+02  0.28383912590E+03  0.29682687430E+03  0.77000000000E+02 0.  0.
<mgrwt>
<rscale>  0 0.18507099E+03</rscale>
<asrwt>0</asrwt>
<pdfrwt beam="1">  1        1 0.12671287E+00 0.18507099E+03</pdfrwt>
<pdfrwt beam="2">  1       -1 0.13791131E-02 0.18507099E+03</pdfrwt>
<totfact> 0.25222125E+04</totfact>
</mgrwt>
</event>
<event>
 4    1  0.3281630E-004  0.3194570E+03  0.7818608E-02  0.1075899E+00
         -1   -1    0    0    0  501 -0.00000000000E+00  0.00000000000E+00  0.39639417006E+03  0.39639417009E+03  0.50400000000E-02 0. -1.
          1   -1    0    0  501    0  0.00000000000E+00 -0.00000000000E+00 -0.64363209472E+02  0.64363209669E+02  0.50400000000E-02 0.  1.
    5000001    1    1    2    0    0 -0.10095148488E+03  0.54663374023E+02  0.50586066567E+02  0.14719795138E+03  0.77000000000E+02 0.  0.
   -5000001    1    1    2    0    0  0.10095148488E+03 -0.54663374023E+02  0.28144489402E+03  0.31355942839E+03  0.77000000000E+02 0.  0.
<mgrwt>
<rscale>  0 0.31945705E+03</rscale>
<asrwt>0</asrwt>
<pdfrwt beam="1">  1        1 0.91947445E-02 0.31945705E+03</pdfrwt>
<pdfrwt beam="2">  1       -1 0.56627737E-01 0.31945705E+03</pdfrwt>
<totfact> 0.23404233E+03</totfact>
</mgrwt>
</event>
<event>
 4    1  0.3281630E-004  0.2394621E+03  0.7818608E-02  0.1120152E+00
          1   -1    0    0  501    0  0.00000000000E+00  0.00000000000E+00  0.72046489621E+02  0.72046489798E+02  0.50400000000E-02 0.  1.
         -1   -1    0    0    0  501 -0.00000000000E+00 -0.00000000000E+00 -0.19897603538E+03  0.19897603545E+03  0.50400000000E-02 0. -1.
    5000001    1    1    2    0    0  0.60634249706E+02  0.68707757626E+02 -0.60021298884E+02  0.13389856054E+03  0.77000000000E+02 0.  0.
   -5000001    1    1    2    0    0 -0.60634249706E+02 -0.68707757626E+02 -0.66908246877E+02  0.13712396470E+03  0.77000000000E+02 0.  0.
<mgrwt>
<rscale>  0 0.23946210E+03</rscale>
<asrwt>0</asrwt>
<pdfrwt beam="1">  1        1 0.10292356E-01 0.23946210E+03</pdfrwt>
<pdfrwt beam="2">  1       -1 0.28425148E-01 0.23946210E+03</pdfrwt>
<totfact> 0.68064364E+03</totfact>
</mgrwt>
</event>
<event>
 4    1  0.3281630E-004  0.2338399E+03  0.7818608E-02  0.1123966E+00
         -1   -1    0    0    0  501 -0.00000000000E+00  0.00000000000E+00  0.12423710615E+02  0.12423711638E+02  0.50400000000E-02 0. -1.
          1   -1    0    0  501    0  0.00000000000E+00 -0.00000000000E+00 -0.11003376322E+04  0.11003376322E+04  0.50400000000E-02 0.  1.
    5000001    1    1    2    0    0  0.47197009710E+02  0.66155487835E+02 -0.38348609694E+03  0.39949304480E+03  0.77000000000E+02 0.  0.
   -5000001    1    1    2    0    0 -0.47197009710E+02 -0.66155487835E+02 -0.70442782461E+03  0.71326829902E+03  0.77000000000E+02 0.  0.
<mgrwt>
<rscale>  0 0.23383992E+03</rscale>
<asrwt>0</asrwt>
<pdfrwt beam="1">  1        1 0.15719103E+00 0.23383992E+03</pdfrwt>
<pdfrwt beam="2">  1       -1 0.17748166E-02 0.23383992E+03</pdfrwt>
<totfact> 0.12475195E+04</totfact>
</mgrwt>
</event>
<event>
 4    1  0.3281630E-004  0.2237338E+03  0.7818608E-02  0.1131130E+00
          1   -1    0    0  501    0  0.00000000000E+00  0.00000000000E+00  0.15315433552E+04  0.15315433552E+04  0.50400000000E-02 0.  1.
         -1   -1    0    0    0  501 -0.00000000000E+00 -0.00000000000E+00 -0.81709711945E+01  0.81709727489E+01  0.50400000000E-02 0. -1.
    5000001    1    1    2    0    0 -0.37115677958E+02  0.65719297064E+02  0.96683140268E+03  0.97282504119E+03  0.77000000000E+02 0.  0.
   -5000001    1    1    2    0    0  0.37115677958E+02 -0.65719297064E+02  0.55654098130E+03  0.56688928674E+03  0.77000000000E+02 0.  0.
<mgrwt>
<rscale>  0 0.22373375E+03</rscale>
<asrwt>0</asrwt>
<pdfrwt beam="1">  1        1 0.21879187E+00 0.22373375E+03</pdfrwt>
<pdfrwt beam="2">  1       -1 0.11672819E-02 0.22373375E+03</pdfrwt>
<totfact> 0.12036820E+04</totfact>
</mgrwt>
</event>
<event>
 4    1  0.3281630E-004  0.2225457E+03  0.7818608E-02  0.1131999E+00
         -1   -1    0    0    0  501 -0.00000000000E+00  0.00000000000E+00  0.22579871242E+02  0.22579871805E+02  0.50400000000E-02 0. -1.
          1   -1    0    0  501    0  0.00000000000E+00 -0.00000000000E+00 -0.54834891072E+03  0.54834891075E+03  0.50400000000E-02 0.  1.
    5000001    1    1    2    0    0  0.32896586524E+02  0.46665263391E+02 -0.11792403083E+03  0.15197009331E+03  0.77000000000E+02 0.  0.
   -5000001    1    1    2    0    0 -0.32896586524E+02 -0.46665263391E+02 -0.40784500865E+03  0.41895868925E+03  0.77000000000E+02 0.  0.
<mgrwt>
<rscale>  0 0.22254571E+03</rscale>
<asrwt>0</asrwt>
<pdfrwt beam="1">  1        1 0.78335551E-01 0.22254571E+03</pdfrwt>
<pdfrwt beam="2">  1       -1 0.32256963E-02 0.22254571E+03</pdfrwt>
<totfact> 0.14652885E+04</totfact>
</mgrwt>
</event>
<event>
 4    1  0.3281630E-004  0.1765214E+03  0.7818608E-02  0.1171213E+00
         -1   -1    0    0    0  501 -0.00000000000E+00  0.00000000000E+00  0.59605275788E+02  0.59605276001E+02  0.50400000000E-02 0.  1.
          1   -1    0    0  501    0  0.00000000000E+00 -0.00000000000E+00 -0.13069231012E+03  0.13069231021E+03  0.50400000000E-02 0. -1.
    5000001    1    1    2    0    0 -0.20325730675E+02  0.31961731836E+02 -0.13286086301E+02  0.86834369455E+02  0.77000000000E+02 0.  0.
   -5000001    1    1    2    0    0  0.20325730675E+02 -0.31961731836E+02 -0.57800948029E+02  0.10346321676E+03  0.77000000000E+02 0.  0.
<mgrwt>
<rscale>  0 0.17652140E+03</rscale>
<asrwt>0</asrwt>
<pdfrwt beam="1">  1        1 0.18670330E-01 0.17652140E+03</pdfrwt>
<pdfrwt beam="2">  1       -1 0.85150394E-02 0.17652140E+03</pdfrwt>
<totfact> 0.20752141E+04</totfact>
</mgrwt>
</event>
<event>
 4    1  0.3281630E-004  0.2118806E+03  0.7818608E-02  0.1140085E+00
          1   -1    0    0  501    0  0.00000000000E+00  0.00000000000E+00  0.71971169769E+03  0.71971169771E+03  0.50400000000E-02 0.  1.
         -1   -1    0    0    0  501 -0.00000000000E+00 -0.00000000000E+00 -0.15594222865E+02  0.15594223680E+02  0.50400000000E-02 0. -1.
    5000001    1    1    2    0    0  0.63221374931E+02  0.21625396208E+02  0.25209345184E+03  0.27192776333E+03  0.77000000000E+02 0.  0.
   -5000001    1    1    2    0    0 -0.63221374931E+02 -0.21625396208E+02  0.45202402298E+03  0.46337815806E+03  0.77000000000E+02 0.  0.
<mgrwt>
<rscale>  0 0.21188058E+03</rscale>
<asrwt>0</asrwt>
<pdfrwt beam="1">  1        1 0.10281595E+00 0.21188058E+03</pdfrwt>
<pdfrwt beam="2">  1       -1 0.22277463E-02 0.21188058E+03</pdfrwt>
<totfact> 0.17303582E+04</totfact>
</mgrwt>
</event>
<event>
 4    1  0.3281630E-004  0.1947766E+03  0.7818608E-02  0.1154222E+00
          1   -1    0    0  501    0  0.00000000000E+00  0.00000000000E+00  0.11491285052E+03  0.11491285063E+03  0.50400000000E-02 0.  1.
         -1   -1    0    0    0  501 -0.00000000000E+00 -0.00000000000E+00 -0.82536276264E+02  0.82536276418E+02  0.50400000000E-02 0. -1.
    5000001    1    1    2    0    0 -0.22723329164E+02 -0.54998866808E+02  0.12361068509E+02  0.98096998186E+02  0.77000000000E+02 0.  0.
   -5000001    1    1    2    0    0  0.22723329164E+02  0.54998866808E+02  0.20015505744E+02  0.99352128858E+02  0.77000000000E+02 0.  0.
<mgrwt>
<rscale>  0 0.19477658E+03</rscale>
<asrwt>0</asrwt>
<pdfrwt beam="1">  1        1 0.16416122E-01 0.19477658E+03</pdfrwt>
<pdfrwt beam="2">  1       -1 0.11790897E-01 0.19477658E+03</pdfrwt>
<totfact> 0.14982106E+04</totfact>
</mgrwt>
</event>
<event>
 4    1  0.3281630E-004  0.2372039E+03  0.7818608E-02  0.1121670E+00
          1   -1    0    0  501    0  0.00000000000E+00  0.00000000000E+00  0.13665802356E+03  0.13665802365E+03  0.50400000000E-02 0.  1.
         -1   -1    0    0    0  501 -0.00000000000E+00 -0.00000000000E+00 -0.10293157337E+03  0.10293157349E+03  0.50400000000E-02 0. -1.
    5000001    1    1    2    0    0 -0.67407161549E+02 -0.59017777615E+02  0.62407093353E+01  0.11829949263E+03  0.77000000000E+02 0.  0.
   -5000001    1    1    2    0    0  0.67407161549E+02  0.59017777615E+02  0.27485740854E+02  0.12129010451E+03  0.77000000000E+02 0.  0.
<mgrwt>
<rscale>  0 0.23720392E+03</rscale>
<asrwt>0</asrwt>
<pdfrwt beam="1">  1        1 0.19522575E-01 0.23720392E+03</pdfrwt>
<pdfrwt beam="2">  1       -1 0.14704510E-01 0.23720392E+03</pdfrwt>
<totfact> 0.85811107E+03</totfact>
</mgrwt>
</event>
<event>
 4    1  0.3281630E-004  0.1877297E+03  0.7818608E-02  0.1160525E+00
         -1   -1    0    0    0  501 -0.00000000000E+00  0.00000000000E+00  0.70131736119E+02  0.70131736300E+02  0.50400000000E-02 0.  1.
          1   -1    0    0  501    0  0.00000000000E+00 -0.00000000000E+00 -0.12562947938E+03  0.12562947948E+03  0.50400000000E-02 0. -1.
    5000001    1    1    2    0    0  0.46665625682E+02  0.17421386201E+02 -0.48615674501E+02  0.10379628666E+03  0.77000000000E+02 0.  0.
   -5000001    1    1    2    0    0 -0.46665625682E+02 -0.17421386201E+02 -0.68820687581E+01  0.91964929119E+02  0.77000000000E+02 0.  0.
<mgrwt>
<rscale>  0 0.18772974E+03</rscale>
<asrwt>0</asrwt>
<pdfrwt beam="1">  1        1 0.17947068E-01 0.18772974E+03</pdfrwt>
<pdfrwt beam="2">  1       -1 0.10018820E-01 0.18772974E+03</pdfrwt>
<totfact> 0.17117492E+04</totfact>
</mgrwt>
</event>
<event>
 4    1  0.3281630E-004  0.4471799E+03  0.7818608E-02  0.1028566E+00
          1   -1    0    0  501    0  0.00000000000E+00  0.00000000000E+00  0.99132859195E+03  0.99132859196E+03  0.50400000000E-02 0. -1.
         -1   -1    0    0    0  501 -0.00000000000E+00 -0.00000000000E+00 -0.50429772414E+02  0.50429772665E+02  0.50400000000E-02 0.  1.
    5000001    1    1    2    0    0 -0.10461749286E+03  0.16597777737E+03  0.29658384935E+03  0.36384670135E+03  0.77000000000E+02 0.  0.
   -5000001    1    1    2    0    0  0.10461749286E+03 -0.16597777737E+03  0.64431497019E+03  0.67791166327E+03  0.77000000000E+02 0.  0.
<mgrwt>
<rscale>  0 0.44717994E+03</rscale>
<asrwt>0</asrwt>
<pdfrwt beam="1">  1        1 0.14161836E+00 0.44717994E+03</pdfrwt>
<pdfrwt beam="2">  1       -1 0.72042537E-02 0.44717994E+03</pdfrwt>
<totfact> 0.18628971E+03</totfact>
</mgrwt>
</event>
<event>
 4    1  0.3281630E-004  0.2802529E+03  0.7818608E-02  0.1095551E+00
          1   -1    0    0  501    0  0.00000000000E+00  0.00000000000E+00  0.55482089094E+02  0.55482089323E+02  0.50400000000E-02 0.  1.
         -1   -1    0    0    0  501 -0.00000000000E+00 -0.00000000000E+00 -0.35390555609E+03  0.35390555613E+03  0.50400000000E-02 0. -1.
    5000001    1    1    2    0    0  0.99540603586E+02  0.18245217259E+01 -0.23919810561E+03  0.27028946404E+03  0.77000000000E+02 0.  0.
   -5000001    1    1    2    0    0 -0.99540603586E+02 -0.18245217259E+01 -0.59225361391E+02  0.13909818142E+03  0.77000000000E+02 0.  0.
<mgrwt>
<rscale>  0 0.28025288E+03</rscale>
<asrwt>0</asrwt>
<pdfrwt beam="1">  1        1 0.79260129E-02 0.28025288E+03</pdfrwt>
<pdfrwt beam="2">  1       -1 0.50557935E-01 0.28025288E+03</pdfrwt>
<totfact> 0.35325188E+03</totfact>
</mgrwt>
</event>
<event>
 4    1  0.3281630E-004  0.2115727E+03  0.7818608E-02  0.1140327E+00
         -1   -1    0    0    0  501 -0.00000000000E+00  0.00000000000E+00  0.21808534435E+03  0.21808534440E+03  0.50400000000E-02 0. -1.
          1   -1    0    0  501    0  0.00000000000E+00 -0.00000000000E+00 -0.51313645260E+02  0.51313645508E+02  0.50400000000E-02 0.  1.
    5000001    1    1    2    0    0 -0.46936158020E+02 -0.49942009424E+02  0.11364009096E+03  0.15342841167E+03  0.77000000000E+02 0.  0.
   -5000001    1    1    2    0    0  0.46936158020E+02  0.49942009424E+02  0.53131608122E+02  0.11597057824E+03  0.77000000000E+02 0.  0.
<mgrwt>
<rscale>  0 0.21157272E+03</rscale>
<asrwt>0</asrwt>
<pdfrwt beam="1">  1        1 0.73305209E-02 0.21157272E+03</pdfrwt>
<pdfrwt beam="2">  1       -1 0.31155049E-01 0.21157272E+03</pdfrwt>
<totfact> 0.91473042E+03</totfact>
</mgrwt>
</event>
<event>
 4    1  0.3281630E-004  0.1664220E+03  0.7818608E-02  0.1181631E+00
         -1   -1    0    0    0  501 -0.00000000000E+00  0.00000000000E+00  0.67801601430E+02  0.67801601617E+02  0.50400000000E-02 0. -1.
          1   -1    0    0  501    0  0.00000000000E+00 -0.00000000000E+00 -0.10212252982E+03  0.10212252995E+03  0.50400000000E-02 0.  1.
    5000001    1    1    2    0    0 -0.68761954053E+01  0.21838253789E+02  0.49959404279E+01  0.80486960513E+02  0.77000000000E+02 0.  0.
   -5000001    1    1    2    0    0  0.68761954053E+01 -0.21838253789E+02 -0.39316868820E+02  0.89437171051E+02  0.77000000000E+02 0.  0.
<mgrwt>
<rscale>  0 0.16642201E+03</rscale>
<asrwt>0</asrwt>
<pdfrwt beam="1">  1        1 0.14588933E-01 0.16642201E+03</pdfrwt>
<pdfrwt beam="2">  1       -1 0.96859431E-02 0.16642201E+03</pdfrwt>
<totfact> 0.23333021E+04</totfact>
</mgrwt>
</event>
<event>
 4    1  0.3281630E-004  0.3617095E+03  0.7818608E-02  0.1057909E+00
         -1   -1    0    0    0  501 -0.00000000000E+00  0.00000000000E+00  0.43483973847E+02  0.43483974139E+02  0.50400000000E-02 0.  1.
          1   -1    0    0  501    0  0.00000000000E+00 -0.00000000000E+00 -0.75219532231E+03  0.75219532232E+03  0.50400000000E-02 0. -1.
    5000001    1    1    2    0    0 -0.10493726424E+03 -0.12554333228E+03 -0.34875417453E+03  0.39285039386E+03  0.77000000000E+02 0.  0.
   -5000001    1    1    2    0    0  0.10493726424E+03  0.12554333228E+03 -0.35995717393E+03  0.40282890260E+03  0.77000000000E+02 0.  0.
<mgrwt>
<rscale>  0 0.36170951E+03</rscale>
<asrwt>0</asrwt>
<pdfrwt beam="1">  1        1 0.10745647E+00 0.36170951E+03</pdfrwt>
<pdfrwt beam="2">  1       -1 0.62119968E-02 0.36170951E+03</pdfrwt>
<totfact> 0.35994397E+03</totfact>
</mgrwt>
</event>
<event>
 4    1  0.3281630E-004  0.3046850E+03  0.7818608E-02  0.1082922E+00
         -1   -1    0    0    0  501 -0.00000000000E+00  0.00000000000E+00  0.46680955963E+02  0.46680956235E+02  0.50400000000E-02 0. -1.
          1   -1    0    0  501    0  0.00000000000E+00 -0.00000000000E+00 -0.49716710832E+03  0.49716710835E+03  0.50400000000E-02 0.  1.
    5000001    1    1    2    0    0  0.10499599761E+03 -0.77192812312E+02 -0.19451564913E+03  0.24647155524E+03  0.77000000000E+02 0.  0.
   -5000001    1    1    2    0    0 -0.10499599761E+03  0.77192812312E+02 -0.25597050323E+03  0.29737650934E+03  0.77000000000E+02 0.  0.
<mgrwt>
<rscale>  0 0.30468499E+03</rscale>
<asrwt>0</asrwt>
<pdfrwt beam="1">  1        1 0.71023869E-01 0.30468499E+03</pdfrwt>
<pdfrwt beam="2">  1       -1 0.66687083E-02 0.30468499E+03</pdfrwt>
<totfact> 0.57092145E+03</totfact>
</mgrwt>
</event>
<event>
 4    1  0.3281630E-004  0.2566781E+03  0.7818608E-02  0.1109156E+00
          1   -1    0    0  501    0  0.00000000000E+00  0.00000000000E+00  0.61855932631E+03  0.61855932633E+03  0.50400000000E-02 0.  1.
         -1   -1    0    0    0  501 -0.00000000000E+00 -0.00000000000E+00 -0.26627861411E+02  0.26627861888E+02  0.50400000000E-02 0. -1.
    5000001    1    1    2    0    0 -0.81156979201E+02  0.62207266438E+02  0.31923699909E+03  0.34394397925E+03  0.77000000000E+02 0.  0.
   -5000001    1    1    2    0    0  0.81156979201E+02 -0.62207266438E+02  0.27269446581E+03  0.30124320897E+03  0.77000000000E+02 0.  0.
<mgrwt>
<rscale>  0 0.25667810E+03</rscale>
<asrwt>0</asrwt>
<pdfrwt beam="1">  1        1 0.88365604E-01 0.25667810E+03</pdfrwt>
<pdfrwt beam="2">  1       -1 0.38039809E-02 0.25667810E+03</pdfrwt>
<totfact> 0.98321978E+03</totfact>
</mgrwt>
</event>
<event>
 4    1  0.3281630E-004  0.2018372E+03  0.7818608E-02  0.1148198E+00
          1   -1    0    0  501    0  0.00000000000E+00  0.00000000000E+00  0.42311228327E+03  0.42311228330E+03  0.50400000000E-02 0. -1.
         -1   -1    0    0    0  501 -0.00000000000E+00 -0.00000000000E+00 -0.24070605179E+02  0.24070605706E+02  0.50400000000E-02 0.  1.
    5000001    1    1    2    0    0 -0.43952644968E+02 -0.41778070001E+02  0.25280160782E+03  0.27113630345E+03  0.77000000000E+02 0.  0.
   -5000001    1    1    2    0    0  0.43952644968E+02  0.41778070001E+02  0.14624007027E+03  0.17604658555E+03  0.77000000000E+02 0.  0.
<mgrwt>
<rscale>  0 0.20183725E+03</rscale>
<asrwt>0</asrwt>
<pdfrwt beam="1">  1        1 0.60444607E-01 0.20183725E+03</pdfrwt>
<pdfrwt beam="2">  1       -1 0.34386582E-02 0.20183725E+03</pdfrwt>
<totfact> 0.18545516E+04</totfact>
</mgrwt>
</event>
<event>
 4    1  0.3281630E-004  0.1675513E+03  0.7818608E-02  0.1180426E+00
         -1   -1    0    0    0  501 -0.00000000000E+00  0.00000000000E+00  0.75537393935E+01  0.75537410748E+01  0.50400000000E-02 0. -1.
          1   -1    0    0  501    0  0.00000000000E+00 -0.00000000000E+00 -0.92912349883E+03  0.92912349884E+03  0.50400000000E-02 0.  1.
    5000001    1    1    2    0    0 -0.47500390665E+01 -0.24465982597E+02 -0.58175072129E+03  0.58735342759E+03  0.77000000000E+02 0.  0.
   -5000001    1    1    2    0    0  0.47500390665E+01  0.24465982597E+02 -0.33981903814E+03  0.34932381233E+03  0.77000000000E+02 0.  0.
<mgrwt>
<rscale>  0 0.16755128E+03</rscale>
<asrwt>0</asrwt>
<pdfrwt beam="1">  1        1 0.13273186E+00 0.16755128E+03</pdfrwt>
<pdfrwt beam="2">  1       -1 0.10791063E-02 0.16755128E+03</pdfrwt>
<totfact> 0.33128811E+04</totfact>
</mgrwt>
</event>
<event>
 4    1  0.3281630E-004  0.2406143E+03  0.7818608E-02  0.1119384E+00
         -1   -1    0    0    0  501 -0.00000000000E+00  0.00000000000E+00  0.49193418694E+02  0.49193418952E+02  0.50400000000E-02 0. -1.
          1   -1    0    0  501    0  0.00000000000E+00 -0.00000000000E+00 -0.29422242510E+03  0.29422242514E+03  0.50400000000E-02 0.  1.
    5000001    1    1    2    0    0  0.85863149858E+02 -0.21188311649E+02 -0.84127626629E+02  0.14431868422E+03  0.77000000000E+02 0.  0.
   -5000001    1    1    2    0    0 -0.85863149858E+02  0.21188311649E+02 -0.16090137977E+03  0.19909715987E+03  0.77000000000E+02 0.  0.
<mgrwt>
<rscale>  0 0.24061427E+03</rscale>
<asrwt>0</asrwt>
<pdfrwt beam="1">  1        1 0.42031774E-01 0.24061427E+03</pdfrwt>
<pdfrwt beam="2">  1       -1 0.70276314E-02 0.24061427E+03</pdfrwt>
<totfact> 0.10190431E+04</totfact>
</mgrwt>
</event>
<event>
 4    1  0.3281630E-004  0.1704305E+03  0.7818608E-02  0.1177400E+00
         -1   -1    0    0    0  501 -0.00000000000E+00  0.00000000000E+00  0.15470865892E+01  0.15470947986E+01  0.50400000000E-02 0. -1.
          1   -1    0    0  501    0  0.00000000000E+00 -0.00000000000E+00 -0.46937362563E+04  0.46937362563E+04  0.50400000000E-02 0.  1.
    5000001    1    1    2    0    0 -0.36238973345E+02 -0.17066580999E+01 -0.24578650782E+04  0.24593385123E+04  0.77000000000E+02 0.  0.
   -5000001    1    1    2    0    0  0.36238973345E+02  0.17066580999E+01 -0.22343240915E+04  0.22359448387E+04  0.77000000000E+02 0.  0.
<mgrwt>
<rscale>  0 0.17043046E+03</rscale>
<asrwt>0</asrwt>
<pdfrwt beam="1">  1        1 0.67052462E+00 0.17043046E+03</pdfrwt>
<pdfrwt beam="2">  1       -1 0.22101597E-03 0.17043046E+03</pdfrwt>
<totfact> 0.10090215E+03</totfact>
</mgrwt>
</event>
<event>
 4    1  0.3281630E-004  0.1770730E+03  0.7818608E-02  0.1170666E+00
         -1   -1    0    0    0  501 -0.00000000000E+00  0.00000000000E+00  0.54118438062E+03  0.54118438064E+03  0.50400000000E-02 0.  1.
          1   -1    0    0  501    0  0.00000000000E+00 -0.00000000000E+00 -0.14484369017E+02  0.14484369893E+02  0.50400000000E-02 0. -1.
    5000001    1    1    2    0    0  0.64933340466E+00  0.28312880210E+02  0.15890937719E+03  0.17883856122E+03  0.77000000000E+02 0.  0.
   -5000001    1    1    2    0    0 -0.64933340466E+00 -0.28312880210E+02  0.36779063441E+03  0.37683018932E+03  0.77000000000E+02 0.  0.
<mgrwt>
<rscale>  0 0.17707303E+03</rscale>
<asrwt>0</asrwt>
<pdfrwt beam="1">  1        1 0.20691965E-02 0.17707303E+03</pdfrwt>
<pdfrwt beam="2">  1       -1 0.77312022E-01 0.17707303E+03</pdfrwt>
<totfact> 0.97422056E+03</totfact>
</mgrwt>
</event>
<event>
 4    1  0.3281630E-004  0.1642963E+03  0.7818608E-02  0.1183930E+00
          1   -1    0    0  501    0  0.00000000000E+00  0.00000000000E+00  0.92765962119E+01  0.92765975810E+01  0.50400000000E-02 0. -1.
         -1   -1    0    0    0  501 -0.00000000000E+00 -0.00000000000E+00 -0.72745646666E+03  0.72745646668E+03  0.50400000000E-02 0.  1.
    5000001    1    1    2    0    0 -0.11239627644E+02  0.14673109655E+02 -0.26108321305E+03  0.27282791923E+03  0.77000000000E+02 0.  0.
   -5000001    1    1    2    0    0  0.11239627644E+02 -0.14673109655E+02 -0.45709665740E+03  0.46390514503E+03  0.77000000000E+02 0.  0.
<mgrwt>
<rscale>  0 0.16429632E+03</rscale>
<asrwt>0</asrwt>
<pdfrwt beam="1">  1        1 0.13252286E-02 0.16429632E+03</pdfrwt>
<pdfrwt beam="2">  1       -1 0.10392232E+00 0.16429632E+03</pdfrwt>
<totfact> 0.96343723E+03</totfact>
</mgrwt>
</event>
<event>
 4    1  0.3281630E-004  0.2435183E+03  0.7818608E-02  0.1117471E+00
         -1   -1    0    0    0  501 -0.00000000000E+00  0.00000000000E+00  0.64403843082E+02  0.64403843279E+02  0.50400000000E-02 0. -1.
          1   -1    0    0  501    0  0.00000000000E+00 -0.00000000000E+00 -0.23019259991E+03  0.23019259997E+03  0.50400000000E-02 0.  1.
    5000001    1    1    2    0    0  0.82667643754E+02 -0.28591266608E+02 -0.12557798613E+03  0.17131908957E+03  0.77000000000E+02 0.  0.
   -5000001    1    1    2    0    0 -0.82667643754E+02  0.28591266608E+02 -0.40210770706E+02  0.12327735368E+03  0.77000000000E+02 0.  0.
<mgrwt>
<rscale>  0 0.24351828E+03</rscale>
<asrwt>0</asrwt>
<pdfrwt beam="1">  1        1 0.32884657E-01 0.24351828E+03</pdfrwt>
<pdfrwt beam="2">  1       -1 0.92005491E-02 0.24351828E+03</pdfrwt>
<totfact> 0.91955147E+03</totfact>
</mgrwt>
</event>
<event>
 4    1  0.3281630E-004  0.1852674E+03  0.7818608E-02  0.1162800E+00
          1   -1    0    0  501    0  0.00000000000E+00  0.00000000000E+00  0.11805568020E+03  0.11805568031E+03  0.50400000000E-02 0. -1.
         -1   -1    0    0    0  501 -0.00000000000E+00 -0.00000000000E+00 -0.72686047027E+02  0.72686047201E+02  0.50400000000E-02 0.  1.
    5000001    1    1    2    0    0  0.15399719670E+02  0.48430663063E+02  0.31256711421E+02  0.97409765935E+02  0.77000000000E+02 0.  0.
   -5000001    1    1    2    0    0 -0.15399719670E+02 -0.48430663063E+02  0.14112921751E+02  0.93331961573E+02  0.77000000000E+02 0.  0.
<mgrwt>
<rscale>  0 0.18526738E+03</rscale>
<asrwt>0</asrwt>
<pdfrwt beam="1">  1        1 0.16865097E-01 0.18526738E+03</pdfrwt>
<pdfrwt beam="2">  1       -1 0.10383721E-01 0.18526738E+03</pdfrwt>
<totfact> 0.17537150E+04</totfact>
</mgrwt>
</event>
<event>
 4    1  0.3281630E-004  0.6985331E+03  0.7818608E-02  0.9719744E-01
          1   -1    0    0  501    0  0.00000000000E+00  0.00000000000E+00  0.61579624801E+03  0.61579624803E+03  0.50400000000E-02 0.  1.
         -1   -1    0    0    0  501 -0.00000000000E+00 -0.00000000000E+00 -0.19809654365E+03  0.19809654371E+03  0.50400000000E-02 0. -1.
    5000001    1    1    2    0    0  0.31878531127E+03 -0.85214135515E+02  0.30752733976E+03  0.45758888565E+03  0.77000000000E+02 0.  0.
   -5000001    1    1    2    0    0 -0.31878531127E+03  0.85214135515E+02  0.11017236461E+03  0.35630390609E+03  0.77000000000E+02 0.  0.
<mgrwt>
<rscale>  0 0.69853306E+03</rscale>
<asrwt>0</asrwt>
<pdfrwt beam="1">  1        1 0.87970894E-01 0.69853306E+03</pdfrwt>
<pdfrwt beam="2">  1       -1 0.28299506E-01 0.69853306E+03</pdfrwt>
<totfact> 0.41866014E+02</totfact>
</mgrwt>
</event>
<event>
 4    1  0.3281630E-004  0.2126001E+03  0.7818608E-02  0.1139523E+00
          1   -1    0    0  501    0  0.00000000000E+00  0.00000000000E+00  0.40484414143E+03  0.40484414146E+03  0.50400000000E-02 0.  1.
         -1   -1    0    0    0  501 -0.00000000000E+00 -0.00000000000E+00 -0.27911225970E+02  0.27911226425E+02  0.50400000000E-02 0. -1.
    5000001    1    1    2    0    0 -0.44431626225E+02 -0.57990215856E+02  0.20027641250E+03  0.22666423615E+03  0.77000000000E+02 0.  0.
   -5000001    1    1    2    0    0  0.44431626225E+02  0.57990215856E+02  0.17665650296E+03  0.20609113174E+03  0.77000000000E+02 0.  0.
<mgrwt>
<rscale>  0 0.21260006E+03</rscale>
<asrwt>0</asrwt>
<pdfrwt beam="1">  1        1 0.57834878E-01 0.21260006E+03</pdfrwt>
<pdfrwt beam="2">  1       -1 0.39873180E-02 0.21260006E+03</pdfrwt>
<totfact> 0.15818576E+04</totfact>
</mgrwt>
</event>
<event>
 4    1  0.3281630E-004  0.2280105E+03  0.7818608E-02  0.1128048E+00
         -1   -1    0    0    0  501 -0.00000000000E+00  0.00000000000E+00  0.11311860755E+02  0.11311861878E+02  0.50400000000E-02 0.  1.
          1   -1    0    0  501    0  0.00000000000E+00 -0.00000000000E+00 -0.11489882101E+04  0.11489882101E+04  0.50400000000E-02 0. -1.
    5000001    1    1    2    0    0  0.13592680688E+02  0.82892163136E+02 -0.58670242030E+03  0.59766596160E+03  0.77000000000E+02 0.  0.
   -5000001    1    1    2    0    0 -0.13592680688E+02 -0.82892163136E+02 -0.55097392903E+03  0.56263411037E+03  0.77000000000E+02 0.  0.
<mgrwt>
<rscale>  0 0.22801048E+03</rscale>
<asrwt>0</asrwt>
<pdfrwt beam="1">  1        1 0.16414110E+00 0.22801048E+03</pdfrwt>
<pdfrwt beam="2">  1       -1 0.16159809E-02 0.22801048E+03</pdfrwt>
<totfact> 0.13233487E+04</totfact>
</mgrwt>
</event>
<event>
 4    1  0.3281630E-004  0.4254897E+03  0.7818608E-02  0.1035294E+00
          1   -1    0    0  501    0  0.00000000000E+00  0.00000000000E+00  0.75046498180E+02  0.75046498349E+02  0.50400000000E-02 0.  1.
         -1   -1    0    0    0  501 -0.00000000000E+00 -0.00000000000E+00 -0.60309766388E+03  0.60309766390E+03  0.50400000000E-02 0. -1.
    5000001    1    1    2    0    0 -0.77972091284E+01  0.19805953388E+03 -0.27447588095E+03  0.34720942477E+03  0.77000000000E+02 0.  0.
   -5000001    1    1    2    0    0  0.77972091284E+01 -0.19805953388E+03 -0.25357528476E+03  0.33093473748E+03  0.77000000000E+02 0.  0.
<mgrwt>
<rscale>  0 0.42548968E+03</rscale>
<asrwt>0</asrwt>
<pdfrwt beam="1">  1        1 0.10720929E-01 0.42548968E+03</pdfrwt>
<pdfrwt beam="2">  1       -1 0.86156806E-01 0.42548968E+03</pdfrwt>
<totfact> 0.81727813E+02</totfact>
</mgrwt>
</event>
<event>
 4    1  0.3281630E-004  0.2004472E+03  0.7818608E-02  0.1149362E+00
         -1   -1    0    0    0  501 -0.00000000000E+00  0.00000000000E+00  0.18567088152E+02  0.18567088836E+02  0.50400000000E-02 0. -1.
          1   -1    0    0  501    0  0.00000000000E+00 -0.00000000000E+00 -0.54099874395E+03  0.54099874397E+03  0.50400000000E-02 0.  1.
    5000001    1    1    2    0    0 -0.21028148927E+01  0.55915621993E+02 -0.34881976542E+03  0.36157323927E+03  0.77000000000E+02 0.  0.
   -5000001    1    1    2    0    0  0.21028148927E+01 -0.55915621993E+02 -0.17361189038E+03  0.19799259353E+03  0.77000000000E+02 0.  0.
<mgrwt>
<rscale>  0 0.20044722E+03</rscale>
<asrwt>0</asrwt>
<pdfrwt beam="1">  1        1 0.77285525E-01 0.20044722E+03</pdfrwt>
<pdfrwt beam="2">  1       -1 0.26524415E-02 0.20044722E+03</pdfrwt>
<totfact> 0.19745529E+04</totfact>
</mgrwt>
</event>
<event>
 4    1  0.3281630E-004  0.2721874E+03  0.7818608E-02  0.1100034E+00
         -1   -1    0    0    0  501 -0.00000000000E+00  0.00000000000E+00  0.26040209418E+02  0.26040209905E+02  0.50400000000E-02 0. -1.
          1   -1    0    0  501    0  0.00000000000E+00 -0.00000000000E+00 -0.71126536576E+03  0.71126536578E+03  0.50400000000E-02 0.  1.
    5000001    1    1    2    0    0  0.86257550164E+02  0.52776986217E+02 -0.21083143728E+03  0.24618015798E+03  0.77000000000E+02 0.  0.
   -5000001    1    1    2    0    0 -0.86257550164E+02 -0.52776986217E+02 -0.47439371906E+03  0.49112541771E+03  0.77000000000E+02 0.  0.
<mgrwt>
<rscale>  0 0.27218743E+03</rscale>
<asrwt>0</asrwt>
<pdfrwt beam="1">  1        1 0.10160933E+00 0.27218743E+03</pdfrwt>
<pdfrwt beam="2">  1       -1 0.37200304E-02 0.27218743E+03</pdfrwt>
<totfact> 0.83782607E+03</totfact>
</mgrwt>
</event>
<event>
 4    1  0.3281630E-004  0.2510708E+03  0.7818608E-02  0.1112630E+00
         -1   -1    0    0    0  501 -0.00000000000E+00  0.00000000000E+00  0.79975512108E+03  0.79975512110E+03  0.50400000000E-02 0. -1.
          1   -1    0    0  501    0  0.00000000000E+00 -0.00000000000E+00 -0.19704949515E+02  0.19704950160E+02  0.50400000000E-02 0.  1.
    5000001    1    1    2    0    0  0.96850342101E+02 -0.21065567774E+02  0.39827409926E+03  0.41758233326E+03  0.77000000000E+02 0.  0.
   -5000001    1    1    2    0    0 -0.96850342101E+02  0.21065567774E+02  0.38177607231E+03  0.40187773800E+03  0.77000000000E+02 0.  0.
<mgrwt>
<rscale>  0 0.25107078E+03</rscale>
<asrwt>0</asrwt>
<pdfrwt beam="1">  1        1 0.28149933E-02 0.25107078E+03</pdfrwt>
<pdfrwt beam="2">  1       -1 0.11425071E+00 0.25107078E+03</pdfrwt>
<totfact> 0.27568103E+03</totfact>
</mgrwt>
</event>
<event>
 4    1  0.3281630E-004  0.1874494E+03  0.7818608E-02  0.1160782E+00
         -1   -1    0    0    0  501 -0.00000000000E+00  0.00000000000E+00  0.24077316227E+03  0.24077316232E+03  0.50400000000E-02 0. -1.
          1   -1    0    0  501    0  0.00000000000E+00 -0.00000000000E+00 -0.36483779841E+02  0.36483780189E+02  0.50400000000E-02 0.  1.
    5000001    1    1    2    0    0 -0.25091878281E+02  0.46746468432E+02  0.92734010161E+02  0.13169446195E+03  0.77000000000E+02 0.  0.
   -5000001    1    1    2    0    0  0.25091878281E+02 -0.46746468432E+02  0.11155537227E+03  0.14556248056E+03  0.77000000000E+02 0.  0.
<mgrwt>
<rscale>  0 0.18744935E+03</rscale>
<asrwt>0</asrwt>
<pdfrwt beam="1">  1        1 0.52119687E-02 0.18744935E+03</pdfrwt>
<pdfrwt beam="2">  1       -1 0.34396165E-01 0.18744935E+03</pdfrwt>
<totfact> 0.12205610E+04</totfact>
</mgrwt>
</event>
<event>
 4    1  0.3281630E-004  0.3166622E+03  0.7818608E-02  0.1077196E+00
         -1   -1    0    0    0  501 -0.00000000000E+00  0.00000000000E+00  0.53102513933E+03  0.53102513935E+03  0.50400000000E-02 0. -1.
          1   -1    0    0  501    0  0.00000000000E+00 -0.00000000000E+00 -0.47208194593E+02  0.47208194862E+02  0.50400000000E-02 0.  1.
    5000001    1    1    2    0    0  0.13150621551E+03  0.39505684043E+02  0.21107326070E+03  0.26331635949E+03  0.77000000000E+02 0.  0.
   -5000001    1    1    2    0    0 -0.13150621551E+03 -0.39505684043E+02  0.27274368403E+03  0.31491697473E+03  0.77000000000E+02 0.  0.
<mgrwt>
<rscale>  0 0.31666221E+03</rscale>
<asrwt>0</asrwt>
<pdfrwt beam="1">  1        1 0.67440278E-02 0.31666221E+03</pdfrwt>
<pdfrwt beam="2">  1       -1 0.75860735E-01 0.31666221E+03</pdfrwt>
<totfact> 0.20065172E+03</totfact>
</mgrwt>
</event>
<event>
 4    1  0.3281630E-004  0.1763458E+03  0.7818608E-02  0.1171387E+00
          1   -1    0    0  501    0  0.00000000000E+00  0.00000000000E+00  0.42937980420E+03  0.42937980423E+03  0.50400000000E-02 0.  1.
         -1   -1    0    0    0  501 -0.00000000000E+00 -0.00000000000E+00 -0.18106250742E+02  0.18106251443E+02  0.50400000000E-02 0. -1.
    5000001    1    1    2    0    0 -0.35850881768E+02  0.49728483399E+00  0.14559139979E+03  0.16855678185E+03  0.77000000000E+02 0.  0.
   -5000001    1    1    2    0    0  0.35850881768E+02 -0.49728483399E+00  0.26568215367E+03  0.27892927382E+03  0.77000000000E+02 0.  0.
<mgrwt>
<rscale>  0 0.17634578E+03</rscale>
<asrwt>0</asrwt>
<pdfrwt beam="1">  1        1 0.61339972E-01 0.17634578E+03</pdfrwt>
<pdfrwt beam="2">  1       -1 0.25866073E-02 0.17634578E+03</pdfrwt>
<totfact> 0.27333832E+04</totfact>
</mgrwt>
</event>
<event>
 4    1  0.3281630E-004  0.1641710E+03  0.7818608E-02  0.1184067E+00
         -1   -1    0    0    0  501 -0.00000000000E+00  0.00000000000E+00  0.24862200655E+02  0.24862201166E+02  0.50400000000E-02 0. -1.
          1   -1    0    0  501    0  0.00000000000E+00 -0.00000000000E+00 -0.27101494779E+03  0.27101494783E+03  0.50400000000E-02 0.  1.
    5000001    1    1    2    0    0 -0.11331326205E+02 -0.20722534177E+02 -0.94511666037E+02  0.12417438300E+03  0.77000000000E+02 0.  0.
   -5000001    1    1    2    0    0  0.11331326205E+02  0.20722534177E+02 -0.15164108109E+03  0.17170276600E+03  0.77000000000E+02 0.  0.
<mgrwt>
<rscale>  0 0.16417099E+03</rscale>
<asrwt>0</asrwt>
<pdfrwt beam="1">  1        1 0.38716419E-01 0.16417099E+03</pdfrwt>
<pdfrwt beam="2">  1       -1 0.35517432E-02 0.16417099E+03</pdfrwt>
<totfact> 0.30353452E+04</totfact>
</mgrwt>
</event>
<event>
 4    1  0.3281630E-004  0.4169447E+03  0.7818608E-02  0.1038065E+00
         -1   -1    0    0    0  501 -0.00000000000E+00  0.00000000000E+00  0.25832814666E+03  0.25832814671E+03  0.50400000000E-02 0.  1.
          1   -1    0    0  501    0  0.00000000000E+00 -0.00000000000E+00 -0.16823844806E+03  0.16823844813E+03  0.50400000000E-02 0. -1.
    5000001    1    1    2    0    0 -0.10607958396E+03  0.13211447764E+03  0.14115210894E+03  0.23358088790E+03  0.77000000000E+02 0.  0.
   -5000001    1    1    2    0    0  0.10607958396E+03 -0.13211447764E+03 -0.51062410332E+02  0.19298570694E+03  0.77000000000E+02 0.  0.
<mgrwt>
<rscale>  0 0.41694473E+03</rscale>
<asrwt>0</asrwt>
<pdfrwt beam="1">  1        1 0.24034064E-01 0.41694473E+03</pdfrwt>
<pdfrwt beam="2">  1       -1 0.36904020E-01 0.41694473E+03</pdfrwt>
<totfact> 0.14424114E+03</totfact>
</mgrwt>
</event>
<event>
 4    1  0.3281630E-004  0.2847620E+03  0.7818608E-02  0.1093116E+00
         -1   -1    0    0    0  501 -0.00000000000E+00  0.00000000000E+00  0.42607641785E+03  0.42607641788E+03  0.50400000000E-02 0. -1.
          1   -1    0    0  501    0  0.00000000000E+00 -0.00000000000E+00 -0.47579152583E+02  0.47579152850E+02  0.50400000000E-02 0.  1.
    5000001    1    1    2    0    0 -0.68856420516E+02 -0.96732837763E+02  0.21527902034E+03  0.25762861864E+03  0.77000000000E+02 0.  0.
   -5000001    1    1    2    0    0  0.68856420516E+02  0.96732837763E+02  0.16321824493E+03  0.21602695208E+03  0.77000000000E+02 0.  0.
<mgrwt>
<rscale>  0 0.28476204E+03</rscale>
<asrwt>0</asrwt>
<pdfrwt beam="1">  1        1 0.67970221E-02 0.28476204E+03</pdfrwt>
<pdfrwt beam="2">  1       -1 0.60868057E-01 0.28476204E+03</pdfrwt>
<totfact> 0.30688362E+03</totfact>
</mgrwt>
</event>
<event>
 4    1  0.3281630E-004  0.4301862E+03  0.7818608E-02  0.1033801E+00
          1   -1    0    0  501    0  0.00000000000E+00  0.00000000000E+00  0.13556227174E+04  0.13556227174E+04  0.50400000000E-02 0.  1.
         -1   -1    0    0    0  501 -0.00000000000E+00 -0.00000000000E+00 -0.34128265011E+02  0.34128265383E+02  0.50400000000E-02 0. -1.
    5000001    1    1    2    0    0  0.17186643517E+03  0.60264451049E+02  0.93422636551E+03  0.95492291711E+03  0.77000000000E+02 0.  0.
   -5000001    1    1    2    0    0 -0.17186643517E+03 -0.60264451049E+02  0.38726808690E+03  0.43482806571E+03  0.77000000000E+02 0.  0.
<mgrwt>
<rscale>  0 0.43018625E+03</rscale>
<asrwt>0</asrwt>
<pdfrwt beam="1">  1        1 0.19366037E+00 0.43018625E+03</pdfrwt>
<pdfrwt beam="2">  1       -1 0.48754670E-02 0.43018625E+03</pdfrwt>
<totfact> 0.19023069E+03</totfact>
</mgrwt>
</event>
<event>
 4    1  0.3281630E-004  0.3242332E+03  0.7818608E-02  0.1073717E+00
          1   -1    0    0  501    0  0.00000000000E+00  0.00000000000E+00  0.50050791464E+02  0.50050791718E+02  0.50400000000E-02 0.  1.
         -1   -1    0    0    0  501 -0.00000000000E+00 -0.00000000000E+00 -0.52510251073E+03  0.52510251075E+03  0.50400000000E-02 0. -1.
    5000001    1    1    2    0    0 -0.72252492024E+02  0.11998161177E+03 -0.18937578647E+03  0.24780677607E+03  0.77000000000E+02 0.  0.
   -5000001    1    1    2    0    0  0.72252492024E+02 -0.11998161177E+03 -0.28567593280E+03  0.32734652640E+03  0.77000000000E+02 0.  0.
<mgrwt>
<rscale>  0 0.32423323E+03</rscale>
<asrwt>0</asrwt>
<pdfrwt beam="1">  1        1 0.71501134E-02 0.32423323E+03</pdfrwt>
<pdfrwt beam="2">  1       -1 0.75014641E-01 0.32423323E+03</pdfrwt>
<totfact> 0.18952935E+03</totfact>
</mgrwt>
</event>
<event>
 4    1  0.3281630E-004  0.3270835E+03  0.7818608E-02  0.1072435E+00
         -1   -1    0    0    0  501 -0.00000000000E+00  0.00000000000E+00  0.50387468572E+03  0.50387468574E+03  0.50400000000E-02 0.  1.
          1   -1    0    0  501    0  0.00000000000E+00 -0.00000000000E+00 -0.53080467421E+02  0.53080467660E+02  0.50400000000E-02 0. -1.
    5000001    1    1    2    0    0 -0.11621820415E+02  0.14197192146E+03  0.26444308755E+03  0.31008102126E+03  0.77000000000E+02 0.  0.
   -5000001    1    1    2    0    0  0.11621820415E+02 -0.14197192146E+03  0.18635113075E+03  0.24687413215E+03  0.77000000000E+02 0.  0.
<mgrwt>
<rscale>  0 0.32708350E+03</rscale>
<asrwt>0</asrwt>
<pdfrwt beam="1">  1        1 0.75829235E-02 0.32708350E+03</pdfrwt>
<pdfrwt beam="2">  1       -1 0.71982103E-01 0.32708350E+03</pdfrwt>
<totfact> 0.19017812E+03</totfact>
</mgrwt>
</event>
<event>
 4    1  0.3281630E-004  0.5052182E+03  0.7818608E-02  0.1012426E+00
          1   -1    0    0  501    0  0.00000000000E+00  0.00000000000E+00  0.11346541529E+04  0.11346541529E+04  0.50400000000E-02 0.  1.
         -1   -1    0    0    0  501 -0.00000000000E+00 -0.00000000000E+00 -0.56238588220E+02  0.56238588446E+02  0.50400000000E-02 0. -1.
    5000001    1    1    2    0    0  0.24710480361E+02  0.15795539226E+03  0.96298898736E+03  0.97920238131E+03  0.77000000000E+02 0.  0.
   -5000001    1    1    2    0    0 -0.24710480361E+02 -0.15795539226E+03  0.11542657730E+03  0.21169036003E+03  0.77000000000E+02 0.  0.
<mgrwt>
<rscale>  0 0.50521816E+03</rscale>
<asrwt>0</asrwt>
<pdfrwt beam="1">  1        1 0.16209345E+00 0.50521816E+03</pdfrwt>
<pdfrwt beam="2">  1       -1 0.80340838E-02 0.50521816E+03</pdfrwt>
<totfact> 0.12420529E+03</totfact>
</mgrwt>
</event>
<event>
 4    1  0.3281630E-004  0.1973501E+03  0.7818608E-02  0.1151994E+00
         -1   -1    0    0    0  501 -0.00000000000E+00  0.00000000000E+00  0.13377688020E+02  0.13377688969E+02  0.50400000000E-02 0. -1.
          1   -1    0    0  501    0  0.00000000000E+00 -0.00000000000E+00 -0.72783589275E+03  0.72783589276E+03  0.50400000000E-02 0.  1.
    5000001    1    1    2    0    0  0.50883954318E+02  0.31340554727E+02 -0.29948758330E+03  0.31494955109E+03  0.77000000000E+02 0.  0.
   -5000001    1    1    2    0    0 -0.50883954318E+02 -0.31340554727E+02 -0.41497062142E+03  0.42626403064E+03  0.77000000000E+02 0.  0.
<mgrwt>
<rscale>  0 0.19735006E+03</rscale>
<asrwt>0</asrwt>
<pdfrwt beam="1">  1        1 0.10397653E+00 0.19735006E+03</pdfrwt>
<pdfrwt beam="2">  1       -1 0.19110988E-02 0.19735006E+03</pdfrwt>
<totfact> 0.21186800E+04</totfact>
</mgrwt>
</event>
<event>
 4    1  0.3281630E-004  0.2005764E+03  0.7818608E-02  0.1149254E+00
          1   -1    0    0  501    0  0.00000000000E+00  0.00000000000E+00  0.71618647393E+03  0.71618647395E+03  0.50400000000E-02 0. -1.
         -1   -1    0    0    0  501 -0.00000000000E+00 -0.00000000000E+00 -0.14043445477E+02  0.14043446382E+02  0.50400000000E-02 0.  1.
    5000001    1    1    2    0    0 -0.12521304465E+02  0.61941906315E+02  0.39339455322E+03  0.40581012472E+03  0.77000000000E+02 0.  0.
   -5000001    1    1    2    0    0  0.12521304465E+02 -0.61941906315E+02  0.30874847523E+03  0.32441979560E+03  0.77000000000E+02 0.  0.
<mgrwt>
<rscale>  0 0.20057643E+03</rscale>
<asrwt>0</asrwt>
<pdfrwt beam="1">  1        1 0.10231239E+00 0.20057643E+03</pdfrwt>
<pdfrwt beam="2">  1       -1 0.20062059E-02 0.20057643E+03</pdfrwt>
<totfact> 0.20225031E+04</totfact>
</mgrwt>
</event>
<event>
 4    1  0.3281630E-004  0.1874484E+03  0.7818608E-02  0.1160783E+00
          1   -1    0    0  501    0  0.00000000000E+00  0.00000000000E+00  0.64809314520E+01  0.64809334117E+01  0.50400000000E-02 0.  1.
         -1   -1    0    0    0  501 -0.00000000000E+00 -0.00000000000E+00 -0.13553957137E+04  0.13553957138E+04  0.50400000000E-02 0. -1.
    5000001    1    1    2    0    0  0.35996305903E+02 -0.39444777083E+02 -0.68824924685E+03  0.69459891324E+03  0.77000000000E+02 0.  0.
   -5000001    1    1    2    0    0 -0.35996305903E+02  0.39444777083E+02 -0.66066553544E+03  0.66727773393E+03  0.77000000000E+02 0.  0.
<mgrwt>
<rscale>  0 0.18744843E+03</rscale>
<asrwt>0</asrwt>
<pdfrwt beam="1">  1        1 0.92584836E-03 0.18744843E+03</pdfrwt>
<pdfrwt beam="2">  1       -1 0.19362778E+00 0.18744843E+03</pdfrwt>
<totfact> 0.32717185E+03</totfact>
</mgrwt>
</event>
<event>
 4    1  0.3281630E-004  0.1979740E+03  0.7818608E-02  0.1151460E+00
          1   -1    0    0  501    0  0.00000000000E+00  0.00000000000E+00  0.22442744605E+03  0.22442744611E+03  0.50400000000E-02 0. -1.
         -1   -1    0    0    0  501 -0.00000000000E+00 -0.00000000000E+00 -0.43659650605E+02  0.43659650896E+02  0.50400000000E-02 0.  1.
    5000001    1    1    2    0    0 -0.22750823730E+02  0.42963848560E+02  0.14293362133E+03  0.16947717360E+03  0.77000000000E+02 0.  0.
   -5000001    1    1    2    0    0  0.22750823730E+02 -0.42963848560E+02  0.37834174117E+02  0.98609923408E+02  0.77000000000E+02 0.  0.
<mgrwt>
<rscale>  0 0.19797398E+03</rscale>
<asrwt>0</asrwt>
<pdfrwt beam="1">  1        1 0.32061064E-01 0.19797398E+03</pdfrwt>
<pdfrwt beam="2">  1       -1 0.62370930E-02 0.19797398E+03</pdfrwt>
<totfact> 0.16911077E+04</totfact>
</mgrwt>
</event>
<event>
 4    1  0.3281630E-004  0.2754667E+03  0.7818608E-02  0.1098191E+00
          1   -1    0    0  501    0  0.00000000000E+00  0.00000000000E+00  0.36265550103E+03  0.36265550106E+03  0.50400000000E-02 0.  1.
         -1   -1    0    0    0  501 -0.00000000000E+00 -0.00000000000E+00 -0.52309916852E+02  0.52309917094E+02  0.50400000000E-02 0. -1.
    5000001    1    1    2    0    0  0.44704483345E+01 -0.92635583416E+02  0.25555141545E+03  0.28255417562E+03  0.77000000000E+02 0.  0.
   -5000001    1    1    2    0    0 -0.44704483345E+01  0.92635583416E+02  0.54794168724E+02  0.13241124253E+03  0.77000000000E+02 0.  0.
<mgrwt>
<rscale>  0 0.27546673E+03</rscale>
<asrwt>0</asrwt>
<pdfrwt beam="1">  1        1 0.51807928E-01 0.27546673E+03</pdfrwt>
<pdfrwt beam="2">  1       -1 0.74728454E-02 0.27546673E+03</pdfrwt>
<totfact> 0.71795022E+03</totfact>
</mgrwt>
</event>
<event>
 4    1  0.3281630E-004  0.2783883E+03  0.7818608E-02  0.1096572E+00
          1   -1    0    0  501    0  0.00000000000E+00  0.00000000000E+00  0.77493526880E+03  0.77493526881E+03  0.50400000000E-02 0.  1.
         -1   -1    0    0    0  501 -0.00000000000E+00 -0.00000000000E+00 -0.25002111181E+02  0.25002111689E+02  0.50400000000E-02 0. -1.
    5000001    1    1    2    0    0 -0.80426525502E+02 -0.22899355628E+02  0.60579691675E+03  0.61636978417E+03  0.77000000000E+02 0.  0.
   -5000001    1    1    2    0    0  0.80426525502E+02  0.22899355628E+02  0.14413624086E+03  0.18356759633E+03  0.77000000000E+02 0.  0.
<mgrwt>
<rscale>  0 0.27838835E+03</rscale>
<asrwt>0</asrwt>
<pdfrwt beam="1">  1        1 0.11070507E+00 0.27838835E+03</pdfrwt>
<pdfrwt beam="2">  1       -1 0.35717293E-02 0.27838835E+03</pdfrwt>
<totfact> 0.78632804E+03</totfact>
</mgrwt>
</event>
<event>
 4    1  0.3281630E-004  0.2346065E+03  0.7818608E-02  0.1123439E+00
          1   -1    0    0  501    0  0.00000000000E+00  0.00000000000E+00  0.24298105572E+03  0.24298105578E+03  0.50400000000E-02 0.  1.
         -1   -1    0    0    0  501 -0.00000000000E+00 -0.00000000000E+00 -0.56630141228E+02  0.56630141452E+02  0.50400000000E-02 0. -1.
    5000001    1    1    2    0    0  0.67129853035E+02 -0.55155491906E+02  0.11464050796E+03  0.16315634073E+03  0.77000000000E+02 0.  0.
   -5000001    1    1    2    0    0 -0.67129853035E+02  0.55155491906E+02  0.71710406537E+02  0.13645485650E+03  0.77000000000E+02 0.  0.
<mgrwt>
<rscale>  0 0.23460649E+03</rscale>
<asrwt>0</asrwt>
<pdfrwt beam="1">  1        1 0.34711579E-01 0.23460649E+03</pdfrwt>
<pdfrwt beam="2">  1       -1 0.80900202E-02 0.23460649E+03</pdfrwt>
<totfact> 0.10441322E+04</totfact>
</mgrwt>
</event>
<event>
 4    1  0.3281630E-004  0.3742881E+03  0.7818608E-02  0.1053065E+00
          1   -1    0    0  501    0  0.00000000000E+00  0.00000000000E+00  0.62439751349E+03  0.62439751351E+03  0.50400000000E-02 0. -1.
         -1   -1    0    0    0  501 -0.00000000000E+00 -0.00000000000E+00 -0.56090707876E+02  0.56090708103E+02  0.50400000000E-02 0.  1.
    5000001    1    1    2    0    0  0.76611461882E+02  0.57999179995E+02  0.54037256373E+03  0.55422443884E+03  0.77000000000E+02 0.  0.
   -5000001    1    1    2    0    0 -0.76611461882E+02 -0.57999179995E+02  0.27934241886E+02  0.12626378278E+03  0.77000000000E+02 0.  0.
<mgrwt>
<rscale>  0 0.37428812E+03</rscale>
<asrwt>0</asrwt>
<pdfrwt beam="1">  1        1 0.89199643E-01 0.37428812E+03</pdfrwt>
<pdfrwt beam="2">  1       -1 0.80129584E-02 0.37428812E+03</pdfrwt>
<totfact> 0.31828680E+03</totfact>
</mgrwt>
</event>
<event>
 4    1  0.3281630E-004  0.2077471E+03  0.7818608E-02  0.1143363E+00
         -1   -1    0    0    0  501 -0.00000000000E+00  0.00000000000E+00  0.32165440526E+02  0.32165440921E+02  0.50400000000E-02 0.  1.
          1   -1    0    0  501    0  0.00000000000E+00 -0.00000000000E+00 -0.33544421750E+03  0.33544421754E+03  0.50400000000E-02 0. -1.
    5000001    1    1    2    0    0  0.42330394454E+02  0.14029826821E+02 -0.24646926671E+03  0.26203968739E+03  0.77000000000E+02 0.  0.
   -5000001    1    1    2    0    0 -0.42330394454E+02 -0.14029826821E+02 -0.56809510266E+02  0.10556997107E+03  0.77000000000E+02 0.  0.
<mgrwt>
<rscale>  0 0.20774707E+03</rscale>
<asrwt>0</asrwt>
<pdfrwt beam="1">  1        1 0.47920600E-01 0.20774707E+03</pdfrwt>
<pdfrwt beam="2">  1       -1 0.45950632E-02 0.20774707E+03</pdfrwt>
<totfact> 0.16216087E+04</totfact>
</mgrwt>
</event>
<event>
 4    1  0.3281630E-004  0.2164846E+03  0.7818608E-02  0.1136531E+00
         -1   -1    0    0    0  501 -0.00000000000E+00  0.00000000000E+00  0.31077711888E+02  0.31077712297E+02  0.50400000000E-02 0. -1.
          1   -1    0    0  501    0  0.00000000000E+00 -0.00000000000E+00 -0.37700325431E+03  0.37700325434E+03  0.50400000000E-02 0.  1.
    5000001    1    1    2    0    0 -0.52720585535E+02  0.10132763253E+02 -0.71358446535E+02  0.11791166576E+03  0.77000000000E+02 0.  0.
   -5000001    1    1    2    0    0  0.52720585535E+02 -0.10132763253E+02 -0.27456709589E+03  0.29016930088E+03  0.77000000000E+02 0.  0.
<mgrwt>
<rscale>  0 0.21648463E+03</rscale>
<asrwt>0</asrwt>
<pdfrwt beam="1">  1        1 0.53857605E-01 0.21648463E+03</pdfrwt>
<pdfrwt beam="2">  1       -1 0.44396734E-02 0.21648463E+03</pdfrwt>
<totfact> 0.14777103E+04</totfact>
</mgrwt>
</event>
<event>
 4    1  0.3281630E-004  0.1821913E+03  0.7818608E-02  0.1165699E+00
         -1   -1    0    0    0  501 -0.00000000000E+00  0.00000000000E+00  0.96534049311E+02  0.96534049443E+02  0.50400000000E-02 0. -1.
          1   -1    0    0  501    0  0.00000000000E+00 -0.00000000000E+00 -0.85963619776E+02  0.85963619924E+02  0.50400000000E-02 0.  1.
    5000001    1    1    2    0    0 -0.27371232313E+02  0.27162465582E+02  0.35040933845E+02  0.92972312758E+02  0.77000000000E+02 0.  0.
   -5000001    1    1    2    0    0  0.27371232313E+02 -0.27162465582E+02 -0.24470504310E+02  0.89525356609E+02  0.77000000000E+02 0.  0.
<mgrwt>
<rscale>  0 0.18219129E+03</rscale>
<asrwt>0</asrwt>
<pdfrwt beam="1">  1        1 0.12280517E-01 0.18219129E+03</pdfrwt>
<pdfrwt beam="2">  1       -1 0.13790579E-01 0.18219129E+03</pdfrwt>
<totfact> 0.17063297E+04</totfact>
</mgrwt>
</event>
<event>
 4    1  0.3281630E-004  0.2262835E+03  0.7818608E-02  0.1129283E+00
         -1   -1    0    0    0  501 -0.00000000000E+00  0.00000000000E+00  0.10047268698E+03  0.10047268710E+03  0.50400000000E-02 0. -1.
          1   -1    0    0  501    0  0.00000000000E+00 -0.00000000000E+00 -0.12740827615E+03  0.12740827625E+03  0.50400000000E-02 0.  1.
    5000001    1    1    2    0    0 -0.49009187899E+02  0.57764619460E+02  0.20435886035E+02  0.10993305780E+03  0.77000000000E+02 0.  0.
   -5000001    1    1    2    0    0  0.49009187899E+02 -0.57764619460E+02 -0.47371475206E+02  0.11794790555E+03  0.77000000000E+02 0.  0.
<mgrwt>
<rscale>  0 0.22628347E+03</rscale>
<asrwt>0</asrwt>
<pdfrwt beam="1">  1        1 0.18201182E-01 0.22628347E+03</pdfrwt>
<pdfrwt beam="2">  1       -1 0.14353241E-01 0.22628347E+03</pdfrwt>
<totfact> 0.97331432E+03</totfact>
</mgrwt>
</event>
<event>
 4    1  0.3281630E-004  0.5859889E+03  0.7818608E-02  0.9934909E-01
         -1   -1    0    0    0  501 -0.00000000000E+00  0.00000000000E+00  0.41104587859E+02  0.41104588168E+02  0.50400000000E-02 0. -1.
          1   -1    0    0  501    0  0.00000000000E+00 -0.00000000000E+00 -0.20884713463E+04  0.20884713463E+04  0.50400000000E-02 0.  1.
    5000001    1    1    2    0    0 -0.24010117166E+03 -0.13107824748E+03 -0.12828748499E+04  0.13139737288E+04  0.77000000000E+02 0.  0.
   -5000001    1    1    2    0    0  0.24010117166E+03  0.13107824748E+03 -0.76449190854E+03  0.81560220562E+03  0.77000000000E+02 0.  0.
<mgrwt>
<rscale>  0 0.58598892E+03</rscale>
<asrwt>0</asrwt>
<pdfrwt beam="1">  1        1 0.29835298E+00 0.58598892E+03</pdfrwt>
<pdfrwt beam="2">  1       -1 0.58720853E-02 0.58598892E+03</pdfrwt>
<totfact> 0.49386914E+02</totfact>
</mgrwt>
</event>
<event>
 4    1  0.3281630E-004  0.1842170E+03  0.7818608E-02  0.1163783E+00
          1   -1    0    0  501    0  0.00000000000E+00  0.00000000000E+00  0.37184875961E+03  0.37184875964E+03  0.50400000000E-02 0. -1.
         -1   -1    0    0    0  501 -0.00000000000E+00 -0.00000000000E+00 -0.22815655399E+02  0.22815655955E+02  0.50400000000E-02 0.  1.
    5000001    1    1    2    0    0 -0.54118111889E+01  0.50250406439E+02  0.17615127839E+03  0.19877792615E+03  0.77000000000E+02 0.  0.
   -5000001    1    1    2    0    0  0.54118111889E+01 -0.50250406439E+02  0.17288182582E+03  0.19588648944E+03  0.77000000000E+02 0.  0.
<mgrwt>
<rscale>  0 0.18421697E+03</rscale>
<asrwt>0</asrwt>
<pdfrwt beam="1">  1        1 0.53121250E-01 0.18421697E+03</pdfrwt>
<pdfrwt beam="2">  1       -1 0.32593795E-02 0.18421697E+03</pdfrwt>
<totfact> 0.23455951E+04</totfact>
</mgrwt>
</event>
<event>
 4    1  0.3281630E-004  0.1708899E+03  0.7818608E-02  0.1176923E+00
         -1   -1    0    0    0  501 -0.00000000000E+00  0.00000000000E+00  0.47783370996E+03  0.47783370999E+03  0.50400000000E-02 0.  1.
          1   -1    0    0  501    0  0.00000000000E+00 -0.00000000000E+00 -0.15279044714E+02  0.15279045545E+02  0.50400000000E-02 0. -1.
    5000001    1    1    2    0    0 -0.92184897504E+01  0.25209348519E+02  0.30492131954E+03  0.31563666282E+03  0.77000000000E+02 0.  0.
   -5000001    1    1    2    0    0  0.92184897504E+01 -0.25209348519E+02  0.15763334571E+03  0.17747609271E+03  0.77000000000E+02 0.  0.
<mgrwt>
<rscale>  0 0.17088994E+03</rscale>
<asrwt>0</asrwt>
<pdfrwt beam="1">  1        1 0.21827206E-02 0.17088994E+03</pdfrwt>
<pdfrwt beam="2">  1       -1 0.68261964E-01 0.17088994E+03</pdfrwt>
<totfact> 0.11566670E+04</totfact>
</mgrwt>
</event>
<event>
 4    1  0.3281630E-004  0.2223035E+03  0.7818608E-02  0.1132177E+00
          1   -1    0    0  501    0  0.00000000000E+00  0.00000000000E+00  0.70452632047E+02  0.70452632227E+02  0.50400000000E-02 0. -1.
         -1   -1    0    0    0  501 -0.00000000000E+00 -0.00000000000E+00 -0.17536199257E+03  0.17536199264E+03  0.50400000000E-02 0.  1.
    5000001    1    1    2    0    0  0.73166594540E+02 -0.95072418203E+01 -0.17804000450E+02  0.10811901144E+03  0.77000000000E+02 0.  0.
   -5000001    1    1    2    0    0 -0.73166594540E+02  0.95072418203E+01 -0.87105360075E+02  0.13769561343E+03  0.77000000000E+02 0.  0.
<mgrwt>
<rscale>  0 0.22230352E+03</rscale>
<asrwt>0</asrwt>
<pdfrwt beam="1">  1        1 0.10064662E-01 0.22230352E+03</pdfrwt>
<pdfrwt beam="2">  1       -1 0.25051713E-01 0.22230352E+03</pdfrwt>
<totfact> 0.86281563E+03</totfact>
</mgrwt>
</event>
<event>
 4    1  0.3281630E-004  0.2938068E+03  0.7818608E-02  0.1088378E+00
          1   -1    0    0  501    0  0.00000000000E+00  0.00000000000E+00  0.36308109305E+02  0.36308109655E+02  0.50400000000E-02 0.  1.
         -1   -1    0    0    0  501 -0.00000000000E+00 -0.00000000000E+00 -0.59437425718E+03  0.59437425720E+03  0.50400000000E-02 0. -1.
    5000001    1    1    2    0    0  0.27067412411E+02  0.12118873746E+03 -0.24631954420E+03  0.28639426104E+03  0.77000000000E+02 0.  0.
   -5000001    1    1    2    0    0 -0.27067412411E+02 -0.12118873746E+03 -0.31174660368E+03  0.34428810582E+03  0.77000000000E+02 0.  0.
<mgrwt>
<rscale>  0 0.29380678E+03</rscale>
<asrwt>0</asrwt>
<pdfrwt beam="1">  1        1 0.51868731E-02 0.29380678E+03</pdfrwt>
<pdfrwt beam="2">  1       -1 0.84910602E-01 0.29380678E+03</pdfrwt>
<totfact> 0.22776806E+03</totfact>
</mgrwt>
</event>
<event>
 4    1  0.3281630E-004  0.2453778E+03  0.7818608E-02  0.1116261E+00
          1   -1    0    0  501    0  0.00000000000E+00  0.00000000000E+00  0.66550657431E+03  0.66550657433E+03  0.50400000000E-02 0.  1.
         -1   -1    0    0    0  501 -0.00000000000E+00 -0.00000000000E+00 -0.22618210465E+02  0.22618211026E+02  0.50400000000E-02 0. -1.
    5000001    1    1    2    0    0  0.53912676491E+02  0.72211446794E+02  0.41023615644E+03  0.42701729917E+03  0.77000000000E+02 0.  0.
   -5000001    1    1    2    0    0 -0.53912676491E+02 -0.72211446794E+02  0.23265220740E+03  0.26110748619E+03  0.77000000000E+02 0.  0.
<mgrwt>
<rscale>  0 0.24537781E+03</rscale>
<asrwt>0</asrwt>
<pdfrwt beam="1">  1        1 0.95072362E-01 0.24537781E+03</pdfrwt>
<pdfrwt beam="2">  1       -1 0.32311732E-02 0.24537781E+03</pdfrwt>
<totfact> 0.11290116E+04</totfact>
</mgrwt>
</event>
<event>
 4    1  0.3281630E-004  0.3390224E+03  0.7818608E-02  0.1067213E+00
         -1   -1    0    0    0  501 -0.00000000000E+00  0.00000000000E+00  0.14243936708E+03  0.14243936717E+03  0.50400000000E-02 0.  1.
          1   -1    0    0  501    0  0.00000000000E+00 -0.00000000000E+00 -0.20172832441E+03  0.20172832448E+03  0.50400000000E-02 0. -1.
    5000001    1    1    2    0    0 -0.98629318506E+02  0.11183947822E+03 -0.54235554458E+01  0.16791136445E+03  0.77000000000E+02 0.  0.
   -5000001    1    1    2    0    0  0.98629318506E+02 -0.11183947822E+03 -0.53865401888E+02  0.17625632720E+03  0.77000000000E+02 0.  0.
<mgrwt>
<rscale>  0 0.33902245E+03</rscale>
<asrwt>0</asrwt>
<pdfrwt beam="1">  1        1 0.28818332E-01 0.33902245E+03</pdfrwt>
<pdfrwt beam="2">  1       -1 0.20348481E-01 0.33902245E+03</pdfrwt>
<totfact> 0.31328653E+03</totfact>
</mgrwt>
</event>
<event>
 4    1  0.3281630E-004  0.1661092E+03  0.7818608E-02  0.1181967E+00
         -1   -1    0    0    0  501 -0.00000000000E+00  0.00000000000E+00  0.69244035089E+01  0.69244053431E+01  0.50400000000E-02 0. -1.
          1   -1    0    0  501    0  0.00000000000E+00 -0.00000000000E+00 -0.99619696529E+03  0.99619696531E+03  0.50400000000E-02 0.  1.
    5000001    1    1    2    0    0  0.24538704851E+02 -0.12495130075E+02 -0.58231398677E+03  0.58802793769E+03  0.77000000000E+02 0.  0.
   -5000001    1    1    2    0    0 -0.24538704851E+02  0.12495130075E+02 -0.40695857501E+03  0.41509343296E+03  0.77000000000E+02 0.  0.
<mgrwt>
<rscale>  0 0.16610925E+03</rscale>
<asrwt>0</asrwt>
<pdfrwt beam="1">  1        1 0.14231376E+00 0.16610925E+03</pdfrwt>
<pdfrwt beam="2">  1       -1 0.98920127E-03 0.16610925E+03</pdfrwt>
<totfact> 0.33546305E+04</totfact>
</mgrwt>
</event>
<event>
 4    1  0.3281630E-004  0.2528478E+03  0.7818608E-02  0.1111518E+00
          1   -1    0    0  501    0  0.00000000000E+00  0.00000000000E+00  0.24554950504E+03  0.24554950509E+03  0.50400000000E-02 0. -1.
         -1   -1    0    0    0  501 -0.00000000000E+00 -0.00000000000E+00 -0.65090733636E+02  0.65090733832E+02  0.50400000000E-02 0.  1.
    5000001    1    1    2    0    0  0.92509606202E+02  0.18863051618E+02  0.48745383780E+02  0.13122101355E+03  0.77000000000E+02 0.  0.
   -5000001    1    1    2    0    0 -0.92509606202E+02 -0.18863051618E+02  0.13171338763E+03  0.17941922538E+03  0.77000000000E+02 0.  0.
<mgrwt>
<rscale>  0 0.25284776E+03</rscale>
<asrwt>0</asrwt>
<pdfrwt beam="1">  1        1 0.35078501E-01 0.25284776E+03</pdfrwt>
<pdfrwt beam="2">  1       -1 0.92986763E-02 0.25284776E+03</pdfrwt>
<totfact> 0.83573515E+03</totfact>
</mgrwt>
</event>
<event>
 4    1  0.3281630E-004  0.4384366E+03  0.7818608E-02  0.1031228E+00
          1   -1    0    0  501    0  0.00000000000E+00  0.00000000000E+00  0.71342634147E+02  0.71342634325E+02  0.50400000000E-02 0.  1.
         -1   -1    0    0    0  501 -0.00000000000E+00 -0.00000000000E+00 -0.67360364233E+03  0.67360364235E+03  0.50400000000E-02 0. -1.
    5000001    1    1    2    0    0  0.10468559419E+03  0.14700005845E+03 -0.46725638451E+03  0.50677965594E+03  0.77000000000E+02 0.  0.
   -5000001    1    1    2    0    0 -0.10468559419E+03 -0.14700005845E+03 -0.13500462368E+03  0.23816662073E+03  0.77000000000E+02 0.  0.
<mgrwt>
<rscale>  0 0.43843658E+03</rscale>
<asrwt>0</asrwt>
<pdfrwt beam="1">  1        1 0.10191805E-01 0.43843658E+03</pdfrwt>
<pdfrwt beam="2">  1       -1 0.96229088E-01 0.43843658E+03</pdfrwt>
<totfact> 0.68776426E+02</totfact>
</mgrwt>
</event>
<event>
 4    1  0.3281630E-004  0.3227774E+03  0.7818608E-02  0.1074378E+00
         -1   -1    0    0    0  501 -0.00000000000E+00  0.00000000000E+00  0.14810272337E+03  0.14810272345E+03  0.50400000000E-02 0.  1.
          1   -1    0    0  501    0  0.00000000000E+00 -0.00000000000E+00 -0.17586652646E+03  0.17586652654E+03  0.50400000000E-02 0. -1.
    5000001    1    1    2    0    0  0.98988604751E+02 -0.10080636093E+03 -0.26443916915E+02  0.16306117569E+03  0.77000000000E+02 0.  0.
   -5000001    1    1    2    0    0 -0.98988604751E+02  0.10080636093E+03 -0.13198861823E+01  0.16090807430E+03  0.77000000000E+02 0.  0.
<mgrwt>
<rscale>  0 0.32277739E+03</rscale>
<asrwt>0</asrwt>
<pdfrwt beam="1">  1        1 0.25123790E-01 0.32277739E+03</pdfrwt>
<pdfrwt beam="2">  1       -1 0.21157532E-01 0.32277739E+03</pdfrwt>
<totfact> 0.34968210E+03</totfact>
</mgrwt>
</event>
<event>
 4    1  0.3281630E-004  0.3039829E+03  0.7818608E-02  0.1083266E+00
          1   -1    0    0  501    0  0.00000000000E+00  0.00000000000E+00  0.14172528747E+03  0.14172528756E+03  0.50400000000E-02 0.  1.
         -1   -1    0    0    0  501 -0.00000000000E+00 -0.00000000000E+00 -0.16300124934E+03  0.16300124941E+03  0.50400000000E-02 0. -1.
    5000001    1    1    2    0    0  0.27520146997E+02  0.12188018359E+03 -0.50234755341E+02  0.15512790944E+03  0.77000000000E+02 0.  0.
   -5000001    1    1    2    0    0 -0.27520146997E+02 -0.12188018359E+03  0.28958793474E+02  0.14959862754E+03  0.77000000000E+02 0.  0.
<mgrwt>
<rscale>  0 0.30398289E+03</rscale>
<asrwt>0</asrwt>
<pdfrwt beam="1">  1        1 0.20246470E-01 0.30398289E+03</pdfrwt>
<pdfrwt beam="2">  1       -1 0.23285893E-01 0.30398289E+03</pdfrwt>
<totfact> 0.39341090E+03</totfact>
</mgrwt>
</event>
<event>
 4    1  0.3281630E-004  0.3863460E+03  0.7818608E-02  0.1048613E+00
         -1   -1    0    0    0  501 -0.00000000000E+00  0.00000000000E+00  0.49236841239E+03  0.49236841242E+03  0.50400000000E-02 0.  1.
          1   -1    0    0  501    0  0.00000000000E+00 -0.00000000000E+00 -0.75788394685E+02  0.75788394853E+02  0.50400000000E-02 0. -1.
    5000001    1    1    2    0    0  0.16635428748E+03 -0.57818511120E+02  0.23658053390E+03  0.30482138739E+03  0.77000000000E+02 0.  0.
   -5000001    1    1    2    0    0 -0.16635428748E+03  0.57818511120E+02  0.17999948380E+03  0.26333541988E+03  0.77000000000E+02 0.  0.
<mgrwt>
<rscale>  0 0.38634602E+03</rscale>
<asrwt>0</asrwt>
<pdfrwt beam="1">  1        1 0.10826914E-01 0.38634602E+03</pdfrwt>
<pdfrwt beam="2">  1       -1 0.70338345E-01 0.38634602E+03</pdfrwt>
<totfact> 0.12291323E+03</totfact>
</mgrwt>
</event>
<event>
 4    1  0.3281630E-004  0.2534964E+03  0.7818608E-02  0.1111115E+00
         -1   -1    0    0    0  501 -0.00000000000E+00  0.00000000000E+00  0.55070657881E+02  0.55070658112E+02  0.50400000000E-02 0.  1.
          1   -1    0    0  501    0  0.00000000000E+00 -0.00000000000E+00 -0.29171811901E+03  0.29171811905E+03  0.50400000000E-02 0. -1.
    5000001    1    1    2    0    0 -0.32734001382E+02  0.74504709285E+02 -0.19941460286E+03  0.22873051914E+03  0.77000000000E+02 0.  0.
   -5000001    1    1    2    0    0  0.32734001382E+02 -0.74504709285E+02 -0.37232858262E+02  0.11805825802E+03  0.77000000000E+02 0.  0.
<mgrwt>
<rscale>  0 0.25349642E+03</rscale>
<asrwt>0</asrwt>
<pdfrwt beam="1">  1        1 0.41674016E-01 0.25349642E+03</pdfrwt>
<pdfrwt beam="2">  1       -1 0.78672370E-02 0.25349642E+03</pdfrwt>
<totfact> 0.86984956E+03</totfact>
</mgrwt>
</event>
<event>
 4    1  0.3281630E-004  0.2543333E+03  0.7818608E-02  0.1110596E+00
          1   -1    0    0  501    0  0.00000000000E+00  0.00000000000E+00  0.86985255067E+02  0.86985255213E+02  0.50400000000E-02 0.  1.
         -1   -1    0    0    0  501 -0.00000000000E+00 -0.00000000000E+00 -0.18590919788E+03  0.18590919795E+03  0.50400000000E-02 0. -1.
    5000001    1    1    2    0    0 -0.16920546723E+02  0.91135159282E+02 -0.93052377124E+02  0.15224870130E+03  0.77000000000E+02 0.  0.
   -5000001    1    1    2    0    0  0.16920546723E+02 -0.91135159282E+02 -0.58715656887E+01  0.12064575186E+03  0.77000000000E+02 0.  0.
<mgrwt>
<rscale>  0 0.25433332E+03</rscale>
<asrwt>0</asrwt>
<pdfrwt beam="1">  1        1 0.12426465E-01 0.25433332E+03</pdfrwt>
<pdfrwt beam="2">  1       -1 0.26558457E-01 0.25433332E+03</pdfrwt>
<totfact> 0.59511878E+03</totfact>
</mgrwt>
</event>
<event>
 4    1  0.3281630E-004  0.1892611E+03  0.7818608E-02  0.1159129E+00
          1   -1    0    0  501    0  0.00000000000E+00  0.00000000000E+00  0.77850093166E+02  0.77850093329E+02  0.50400000000E-02 0. -1.
         -1   -1    0    0    0  501 -0.00000000000E+00 -0.00000000000E+00 -0.11502803616E+03  0.11502803627E+03  0.50400000000E-02 0.  1.
    5000001    1    1    2    0    0 -0.20996907388E+02  0.38283607202E+02 -0.52686407185E+02  0.10301146636E+03  0.77000000000E+02 0.  0.
   -5000001    1    1    2    0    0  0.20996907388E+02 -0.38283607202E+02  0.15508464189E+02  0.89866663239E+02  0.77000000000E+02 0.  0.
<mgrwt>
<rscale>  0 0.18926112E+03</rscale>
<asrwt>0</asrwt>
<pdfrwt beam="1">  1        1 0.11121442E-01 0.18926112E+03</pdfrwt>
<pdfrwt beam="2">  1       -1 0.16432577E-01 0.18926112E+03</pdfrwt>
<totfact> 0.14801820E+04</totfact>
</mgrwt>
</event>
<event>
 4    1  0.3281630E-004  0.1836015E+03  0.7818608E-02  0.1164362E+00
         -1   -1    0    0    0  501 -0.00000000000E+00  0.00000000000E+00  0.22444579252E+02  0.22444579818E+02  0.50400000000E-02 0.  1.
          1   -1    0    0  501    0  0.00000000000E+00 -0.00000000000E+00 -0.37547484797E+03  0.37547484800E+03  0.50400000000E-02 0. -1.
    5000001    1    1    2    0    0  0.42018178181E+02  0.21794824353E+02 -0.21131588430E+03  0.22983460276E+03  0.77000000000E+02 0.  0.
   -5000001    1    1    2    0    0 -0.42018178181E+02 -0.21794824353E+02 -0.14171438441E+03  0.16808482506E+03  0.77000000000E+02 0.  0.
<mgrwt>
<rscale>  0 0.18360147E+03</rscale>
<asrwt>0</asrwt>
<pdfrwt beam="1">  1        1 0.53639261E-01 0.18360147E+03</pdfrwt>
<pdfrwt beam="2">  1       -1 0.32063687E-02 0.18360147E+03</pdfrwt>
<totfact> 0.23729602E+04</totfact>
</mgrwt>
</event>
<event>
 4    1  0.3281630E-004  0.2204713E+03  0.7818608E-02  0.1133532E+00
         -1   -1    0    0    0  501 -0.00000000000E+00  0.00000000000E+00  0.19979947177E+03  0.19979947183E+03  0.50400000000E-02 0. -1.
          1   -1    0    0  501    0  0.00000000000E+00 -0.00000000000E+00 -0.60820469090E+02  0.60820469299E+02  0.50400000000E-02 0.  1.
    5000001    1    1    2    0    0 -0.72415564598E+02 -0.26263986427E+02  0.89588277629E+02  0.14102790670E+03  0.77000000000E+02 0.  0.
   -5000001    1    1    2    0    0  0.72415564598E+02  0.26263986427E+02  0.49390725051E+02  0.11959203443E+03  0.77000000000E+02 0.  0.
<mgrwt>
<rscale>  0 0.22047129E+03</rscale>
<asrwt>0</asrwt>
<pdfrwt beam="1">  1        1 0.86886383E-02 0.22047129E+03</pdfrwt>
<pdfrwt beam="2">  1       -1 0.28542782E-01 0.22047129E+03</pdfrwt>
<totfact> 0.84495555E+03</totfact>
</mgrwt>
</event>
<event>
 4    1  0.3281630E-004  0.1698045E+03  0.7818608E-02  0.1178052E+00
          1   -1    0    0  501    0  0.00000000000E+00  0.00000000000E+00  0.97179879885E+03  0.97179879886E+03  0.50400000000E-02 0. -1.
         -1   -1    0    0    0  501 -0.00000000000E+00 -0.00000000000E+00 -0.74175766555E+01  0.74175783677E+01  0.50400000000E-02 0.  1.
    5000001    1    1    2    0    0  0.32837897682E+02 -0.14075220418E+02  0.47227993135E+03  0.47984765593E+03  0.77000000000E+02 0.  0.
   -5000001    1    1    2    0    0 -0.32837897682E+02  0.14075220418E+02  0.49210129085E+03  0.49936872129E+03  0.77000000000E+02 0.  0.
<mgrwt>
<rscale>  0 0.16980451E+03</rscale>
<asrwt>0</asrwt>
<pdfrwt beam="1">  1        1 0.13882842E+00 0.16980451E+03</pdfrwt>
<pdfrwt beam="2">  1       -1 0.10596538E-02 0.16980451E+03</pdfrwt>
<totfact> 0.31697323E+04</totfact>
</mgrwt>
</event>
<event>
 4    1  0.3281630E-004  0.4072937E+03  0.7818608E-02  0.1041283E+00
          1   -1    0    0  501    0  0.00000000000E+00  0.00000000000E+00  0.12306542227E+02  0.12306543259E+02  0.50400000000E-02 0.  1.
         -1   -1    0    0    0  501 -0.00000000000E+00 -0.00000000000E+00 -0.33699186411E+04  0.33699186411E+04  0.50400000000E-02 0. -1.
    5000001    1    1    2    0    0  0.15671852318E+03  0.92130191823E+02 -0.12640658846E+04  0.12793905691E+04  0.77000000000E+02 0.  0.
   -5000001    1    1    2    0    0 -0.15671852318E+03 -0.92130191823E+02 -0.20935462144E+04  0.21028346153E+04  0.77000000000E+02 0.  0.
<mgrwt>
<rscale>  0 0.40729374E+03</rscale>
<asrwt>0</asrwt>
<pdfrwt beam="1">  1        1 0.17580797E-02 0.40729374E+03</pdfrwt>
<pdfrwt beam="2">  1       -1 0.48141636E+00 0.40729374E+03</pdfrwt>
<totfact> 0.17395015E+01</totfact>
</mgrwt>
</event>
<event>
 4    1  0.3281630E-004  0.3193731E+03  0.7818608E-02  0.1075938E+00
          1   -1    0    0  501    0  0.00000000000E+00  0.00000000000E+00  0.78386648051E+02  0.78386648213E+02  0.50400000000E-02 0. -1.
         -1   -1    0    0    0  501 -0.00000000000E+00 -0.00000000000E+00 -0.32530782604E+03  0.32530782608E+03  0.50400000000E-02 0.  1.
    5000001    1    1    2    0    0 -0.70995141906E+02 -0.11995359932E+03 -0.13850265588E+03  0.21104777149E+03  0.77000000000E+02 0.  0.
   -5000001    1    1    2    0    0  0.70995141906E+02  0.11995359932E+03 -0.10841852211E+03  0.19264670280E+03  0.77000000000E+02 0.  0.
<mgrwt>
<rscale>  0 0.31937307E+03</rscale>
<asrwt>0</asrwt>
<pdfrwt beam="1">  1        1 0.11198093E-01 0.31937307E+03</pdfrwt>
<pdfrwt beam="2">  1       -1 0.46472546E-01 0.31937307E+03</pdfrwt>
<totfact> 0.25941339E+03</totfact>
</mgrwt>
</event>
<event>
 4    1  0.3281630E-004  0.3107116E+03  0.7818608E-02  0.1080005E+00
         -1   -1    0    0    0  501 -0.00000000000E+00  0.00000000000E+00  0.21868146776E+02  0.21868147357E+02  0.50400000000E-02 0. -1.
          1   -1    0    0  501    0  0.00000000000E+00 -0.00000000000E+00 -0.11036793184E+04  0.11036793184E+04  0.50400000000E-02 0.  1.
    5000001    1    1    2    0    0 -0.83685837373E+02 -0.99168375877E+02 -0.67492451413E+03  0.69158498099E+03  0.77000000000E+02 0.  0.
   -5000001    1    1    2    0    0  0.83685837373E+02  0.99168375877E+02 -0.40688665746E+03  0.43396248475E+03  0.77000000000E+02 0.  0.
<mgrwt>
<rscale>  0 0.31071158E+03</rscale>
<asrwt>0</asrwt>
<pdfrwt beam="1">  1        1 0.15766844E+00 0.31071158E+03</pdfrwt>
<pdfrwt beam="2">  1       -1 0.31240217E-02 0.31071158E+03</pdfrwt>
<totfact> 0.54568057E+03</totfact>
</mgrwt>
</event>
<event>
 4    1  0.3281630E-004  0.1774303E+03  0.7818608E-02  0.1170313E+00
         -1   -1    0    0    0  501 -0.00000000000E+00  0.00000000000E+00  0.51936677266E+01  0.51936701720E+01  0.50400000000E-02 0. -1.
          1   -1    0    0  501    0  0.00000000000E+00 -0.00000000000E+00 -0.15153785626E+04  0.15153785626E+04  0.50400000000E-02 0.  1.
    5000001    1    1    2    0    0 -0.22343391310E+02  0.19763823953E+02 -0.10329946534E+04  0.10362899159E+04  0.77000000000E+02 0.  0.
   -5000001    1    1    2    0    0  0.22343391310E+02 -0.19763823953E+02 -0.47719024152E+03  0.48428231691E+03  0.77000000000E+02 0.  0.
<mgrwt>
<rscale>  0 0.17743026E+03</rscale>
<asrwt>0</asrwt>
<pdfrwt beam="1">  1        1 0.21648237E+00 0.17743026E+03</pdfrwt>
<pdfrwt beam="2">  1       -1 0.74195368E-03 0.17743026E+03</pdfrwt>
<totfact> 0.23340007E+04</totfact>
</mgrwt>
</event>
<event>
 4    1  0.3281630E-004  0.2570208E+03  0.7818608E-02  0.1108947E+00
         -1   -1    0    0    0  501 -0.00000000000E+00  0.00000000000E+00  0.56151476853E+03  0.56151476856E+03  0.50400000000E-02 0. -1.
          1   -1    0    0  501    0  0.00000000000E+00 -0.00000000000E+00 -0.29411369477E+02  0.29411369909E+02  0.50400000000E-02 0.  1.
    5000001    1    1    2    0    0  0.37835275127E+02  0.81300811324E+02  0.38202920608E+03  0.39989579176E+03  0.77000000000E+02 0.  0.
   -5000001    1    1    2    0    0 -0.37835275127E+02 -0.81300811324E+02  0.15007419297E+03  0.19103034670E+03  0.77000000000E+02 0.  0.
<mgrwt>
<rscale>  0 0.25702077E+03</rscale>
<asrwt>0</asrwt>
<pdfrwt beam="1">  1        1 0.42016245E-02 0.25702077E+03</pdfrwt>
<pdfrwt beam="2">  1       -1 0.80216391E-01 0.25702077E+03</pdfrwt>
<totfact> 0.34252672E+03</totfact>
</mgrwt>
</event>
<event>
 4    1  0.3281630E-004  0.2090155E+03  0.7818608E-02  0.1142348E+00
          1   -1    0    0  501    0  0.00000000000E+00  0.00000000000E+00  0.85384254637E+02  0.85384254786E+02  0.50400000000E-02 0.  1.
         -1   -1    0    0    0  501 -0.00000000000E+00 -0.00000000000E+00 -0.12791435563E+03  0.12791435573E+03  0.50400000000E-02 0. -1.
    5000001    1    1    2    0    0 -0.33690473664E+01 -0.67383844881E+02  0.16379146613E+00  0.10237655913E+03  0.77000000000E+02 0.  0.
   -5000001    1    1    2    0    0  0.33690473664E+01  0.67383844881E+02 -0.42693892461E+02  0.11092205139E+03  0.77000000000E+02 0.  0.
<mgrwt>
<rscale>  0 0.20901552E+03</rscale>
<asrwt>0</asrwt>
<pdfrwt beam="1">  1        1 0.12197751E-01 0.20901552E+03</pdfrwt>
<pdfrwt beam="2">  1       -1 0.18273479E-01 0.20901552E+03</pdfrwt>
<totfact> 0.11132495E+04</totfact>
</mgrwt>
</event>
<event>
 4    1  0.3281630E-004  0.2401769E+03  0.7818608E-02  0.1119675E+00
         -1   -1    0    0    0  501 -0.00000000000E+00  0.00000000000E+00  0.16119518753E+02  0.16119519540E+02  0.50400000000E-02 0. -1.
          1   -1    0    0  501    0  0.00000000000E+00 -0.00000000000E+00 -0.89464462151E+03  0.89464462152E+03  0.50400000000E-02 0.  1.
    5000001    1    1    2    0    0 -0.31831092198E+02  0.85784200424E+02 -0.39770646670E+03  0.41529697944E+03  0.77000000000E+02 0.  0.
   -5000001    1    1    2    0    0  0.31831092198E+02 -0.85784200424E+02 -0.48081863605E+03  0.49546716163E+03  0.77000000000E+02 0.  0.
<mgrwt>
<rscale>  0 0.24017694E+03</rscale>
<asrwt>0</asrwt>
<pdfrwt beam="1">  1        1 0.12780634E+00 0.24017694E+03</pdfrwt>
<pdfrwt beam="2">  1       -1 0.23027890E-02 0.24017694E+03</pdfrwt>
<totfact> 0.12003583E+04</totfact>
</mgrwt>
</event>
<event>
 4    1  0.3281630E-004  0.2807059E+03  0.7818608E-02  0.1095304E+00
         -1   -1    0    0    0  501 -0.00000000000E+00  0.00000000000E+00  0.65782438915E+01  0.65782458223E+01  0.50400000000E-02 0.  1.
          1   -1    0    0  501    0  0.00000000000E+00 -0.00000000000E+00 -0.29945598964E+04  0.29945598964E+04  0.50400000000E-02 0. -1.
    5000001    1    1    2    0    0  0.86038586384E+02  0.36396764179E+02 -0.73478225109E+03  0.74468873988E+03  0.77000000000E+02 0.  0.
   -5000001    1    1    2    0    0 -0.86038586384E+02 -0.36396764179E+02 -0.22531994014E+04  0.22564494023E+04  0.77000000000E+02 0.  0.
<mgrwt>
<rscale>  0 0.28070588E+03</rscale>
<asrwt>0</asrwt>
<pdfrwt beam="1">  1        1 0.42779340E+00 0.28070588E+03</pdfrwt>
<pdfrwt beam="2">  1       -1 0.93975118E-03 0.28070588E+03</pdfrwt>
<totfact> 0.21114094E+03</totfact>
</mgrwt>
</event>
<event>
 4    1  0.3281630E-004  0.1935948E+03  0.7818608E-02  0.1155258E+00
         -1   -1    0    0    0  501 -0.00000000000E+00  0.00000000000E+00  0.47786968145E+02  0.47786968411E+02  0.50400000000E-02 0.  1.
          1   -1    0    0  501    0  0.00000000000E+00 -0.00000000000E+00 -0.19607299798E+03  0.19607299805E+03  0.50400000000E-02 0. -1.
    5000001    1    1    2    0    0  0.57742931688E+02  0.10032425913E+02 -0.77186663581E+02  0.12378076088E+03  0.77000000000E+02 0.  0.
   -5000001    1    1    2    0    0 -0.57742931688E+02 -0.10032425913E+02 -0.71099366256E+02  0.12007920558E+03  0.77000000000E+02 0.  0.
<mgrwt>
<rscale>  0 0.19359477E+03</rscale>
<asrwt>0</asrwt>
<pdfrwt beam="1">  1        1 0.28010428E-01 0.19359477E+03</pdfrwt>
<pdfrwt beam="2">  1       -1 0.68267099E-02 0.19359477E+03</pdfrwt>
<totfact> 0.17456837E+04</totfact>
</mgrwt>
</event>
<event>
 4    1  0.3281630E-004  0.2783531E+03  0.7818608E-02  0.1096592E+00
         -1   -1    0    0    0  501 -0.00000000000E+00  0.00000000000E+00  0.80673710647E+02  0.80673710804E+02  0.50400000000E-02 0. -1.
          1   -1    0    0  501    0  0.00000000000E+00 -0.00000000000E+00 -0.24010438636E+03  0.24010438641E+03  0.50400000000E-02 0.  1.
    5000001    1    1    2    0    0  0.42551730522E+02 -0.10783824003E+03 -0.78363501330E+02  0.15971716916E+03  0.77000000000E+02 0.  0.
   -5000001    1    1    2    0    0 -0.42551730522E+02  0.10783824003E+03 -0.81067174381E+02  0.16106092806E+03  0.77000000000E+02 0.  0.
<mgrwt>
<rscale>  0 0.27835310E+03</rscale>
<asrwt>0</asrwt>
<pdfrwt beam="1">  1        1 0.34300626E-01 0.27835310E+03</pdfrwt>
<pdfrwt beam="2">  1       -1 0.11524816E-01 0.27835310E+03</pdfrwt>
<totfact> 0.61909665E+03</totfact>
</mgrwt>
</event>
<event>
 4    1  0.3281630E-004  0.2002370E+03  0.7818608E-02  0.1149539E+00
          1   -1    0    0  501    0  0.00000000000E+00  0.00000000000E+00  0.92056929088E+03  0.92056929090E+03  0.50400000000E-02 0. -1.
         -1   -1    0    0    0  501 -0.00000000000E+00 -0.00000000000E+00 -0.10888604717E+02  0.10888605884E+02  0.50400000000E-02 0.  1.
    5000001    1    1    2    0    0  0.26433916273E+02  0.40320008965E+01  0.18440816202E+03  0.20161939187E+03  0.77000000000E+02 0.  0.
   -5000001    1    1    2    0    0 -0.26433916273E+02 -0.40320008965E+01  0.72527252415E+03  0.72983850491E+03  0.77000000000E+02 0.  0.
<mgrwt>
<rscale>  0 0.20023702E+03</rscale>
<asrwt>0</asrwt>
<pdfrwt beam="1">  1        1 0.13150992E+00 0.20023702E+03</pdfrwt>
<pdfrwt beam="2">  1       -1 0.15555148E-02 0.20023702E+03</pdfrwt>
<totfact> 0.20112934E+04</totfact>
</mgrwt>
</event>
<event>
 4    1  0.3281630E-004  0.2516680E+03  0.7818608E-02  0.1112255E+00
          1   -1    0    0  501    0  0.00000000000E+00  0.00000000000E+00  0.10991532980E+04  0.10991532980E+04  0.50400000000E-02 0. -1.
         -1   -1    0    0    0  501 -0.00000000000E+00 -0.00000000000E+00 -0.14405810949E+02  0.14405811830E+02  0.50400000000E-02 0.  1.
    5000001    1    1    2    0    0 -0.77097828450E+02  0.56524536021E+02  0.66484300649E+03  0.67608011478E+03  0.77000000000E+02 0.  0.
   -5000001    1    1    2    0    0  0.77097828450E+02 -0.56524536021E+02  0.41990448058E+03  0.43747899508E+03  0.77000000000E+02 0.  0.
<mgrwt>
<rscale>  0 0.25166800E+03</rscale>
<asrwt>0</asrwt>
<pdfrwt beam="1">  1        1 0.15702193E+00 0.25166800E+03</pdfrwt>
<pdfrwt beam="2">  1       -1 0.20579727E-02 0.25166800E+03</pdfrwt>
<totfact> 0.10101512E+04</totfact>
</mgrwt>
</event>
<event>
 4    1  0.3281630E-004  0.2710984E+03  0.7818608E-02  0.1100653E+00
          1   -1    0    0  501    0  0.00000000000E+00  0.00000000000E+00  0.77231808994E+02  0.77231809159E+02  0.50400000000E-02 0.  1.
         -1   -1    0    0    0  501 -0.00000000000E+00 -0.00000000000E+00 -0.23790173487E+03  0.23790173493E+03  0.50400000000E-02 0. -1.
    5000001    1    1    2    0    0 -0.55455618951E+02  0.96414229836E+02 -0.70365656337E+02  0.15248394991E+03  0.77000000000E+02 0.  0.
   -5000001    1    1    2    0    0  0.55455618951E+02 -0.96414229836E+02 -0.90304269541E+02  0.16264959418E+03  0.77000000000E+02 0.  0.
<mgrwt>
<rscale>  0 0.27109837E+03</rscale>
<asrwt>0</asrwt>
<pdfrwt beam="1">  1        1 0.11033116E-01 0.27109837E+03</pdfrwt>
<pdfrwt beam="2">  1       -1 0.33985962E-01 0.27109837E+03</pdfrwt>
<totfact> 0.45949338E+03</totfact>
</mgrwt>
</event>
<event>
 4    1  0.3281630E-004  0.1822329E+03  0.7818608E-02  0.1165659E+00
         -1   -1    0    0    0  501 -0.00000000000E+00  0.00000000000E+00  0.14453578690E+03  0.14453578699E+03  0.50400000000E-02 0. -1.
          1   -1    0    0  501    0  0.00000000000E+00 -0.00000000000E+00 -0.57440466126E+02  0.57440466347E+02  0.50400000000E-02 0.  1.
    5000001    1    1    2    0    0  0.27445339166E+01  0.44287703872E+02  0.21262831509E+02  0.91378559763E+02  0.77000000000E+02 0.  0.
   -5000001    1    1    2    0    0 -0.27445339166E+01 -0.44287703872E+02  0.65832489269E+02  0.11059769357E+03  0.77000000000E+02 0.  0.
<mgrwt>
<rscale>  0 0.18223285E+03</rscale>
<asrwt>0</asrwt>
<pdfrwt beam="1">  1        1 0.82057809E-02 0.18223285E+03</pdfrwt>
<pdfrwt beam="2">  1       -1 0.20647969E-01 0.18223285E+03</pdfrwt>
<totfact> 0.15368237E+04</totfact>
</mgrwt>
</event>
<event>
 4    1  0.3281630E-004  0.2244459E+03  0.7818608E-02  0.1130611E+00
         -1   -1    0    0    0  501 -0.00000000000E+00  0.00000000000E+00  0.16787205871E+02  0.16787206628E+02  0.50400000000E-02 0. -1.
          1   -1    0    0  501    0  0.00000000000E+00 -0.00000000000E+00 -0.75021328463E+03  0.75021328465E+03  0.50400000000E-02 0.  1.
    5000001    1    1    2    0    0 -0.14420054879E+02 -0.77332701869E+02 -0.44132471826E+03  0.45484589885E+03  0.77000000000E+02 0.  0.
   -5000001    1    1    2    0    0  0.14420054879E+02  0.77332701869E+02 -0.29210136050E+03  0.31215459242E+03  0.77000000000E+02 0.  0.
<mgrwt>
<rscale>  0 0.22444585E+03</rscale>
<asrwt>0</asrwt>
<pdfrwt beam="1">  1        1 0.10717331E+00 0.22444585E+03</pdfrwt>
<pdfrwt beam="2">  1       -1 0.23981728E-02 0.22444585E+03</pdfrwt>
<totfact> 0.14686401E+04</totfact>
</mgrwt>
</event>
<event>
 4    1  0.3281630E-004  0.2279693E+03  0.7818608E-02  0.1128077E+00
          1   -1    0    0  501    0  0.00000000000E+00  0.00000000000E+00  0.19528357876E+03  0.19528357882E+03  0.50400000000E-02 0. -1.
         -1   -1    0    0    0  501 -0.00000000000E+00 -0.00000000000E+00 -0.66531475865E+02  0.66531476056E+02  0.50400000000E-02 0.  1.
    5000001    1    1    2    0    0  0.60937038285E+02 -0.62439473262E+01 -0.17101168119E+01  0.98408505795E+02  0.77000000000E+02 0.  0.
   -5000001    1    1    2    0    0 -0.60937038285E+02  0.62439473262E+01  0.13046221971E+03  0.16340654908E+03  0.77000000000E+02 0.  0.
<mgrwt>
<rscale>  0 0.22796934E+03</rscale>
<asrwt>0</asrwt>
<pdfrwt beam="1">  1        1 0.27897654E-01 0.22796934E+03</pdfrwt>
<pdfrwt beam="2">  1       -1 0.95044965E-02 0.22796934E+03</pdfrwt>
<totfact> 0.10720745E+04</totfact>
</mgrwt>
</event>
<event>
 4    1  0.3281630E-004  0.1955094E+03  0.7818608E-02  0.1153584E+00
         -1   -1    0    0    0  501 -0.00000000000E+00  0.00000000000E+00  0.73422271863E+02  0.73422272036E+02  0.50400000000E-02 0.  1.
          1   -1    0    0  501    0  0.00000000000E+00 -0.00000000000E+00 -0.13015098368E+03  0.13015098378E+03  0.50400000000E-02 0. -1.
    5000001    1    1    2    0    0  0.11370146992E+02 -0.59080148601E+02 -0.31165428550E+02  0.10256718841E+03  0.77000000000E+02 0.  0.
   -5000001    1    1    2    0    0 -0.11370146992E+02  0.59080148601E+02 -0.25563283267E+02  0.10100606741E+03  0.77000000000E+02 0.  0.
<mgrwt>
<rscale>  0 0.19550940E+03</rscale>
<asrwt>0</asrwt>
<pdfrwt beam="1">  1        1 0.18592998E-01 0.19550940E+03</pdfrwt>
<pdfrwt beam="2">  1       -1 0.10488896E-01 0.19550940E+03</pdfrwt>
<totfact> 0.15289587E+04</totfact>
</mgrwt>
</event>
<event>
 4    1  0.3281630E-004  0.3928966E+03  0.7818608E-02  0.1046267E+00
          1   -1    0    0  501    0  0.00000000000E+00  0.00000000000E+00  0.54270371889E+03  0.54270371891E+03  0.50400000000E-02 0.  1.
         -1   -1    0    0    0  501 -0.00000000000E+00 -0.00000000000E+00 -0.71110520289E+02  0.71110520468E+02  0.50400000000E-02 0. -1.
    5000001    1    1    2    0    0 -0.15159658548E+03 -0.55097028032E+02  0.10843743524E+03  0.20905713236E+03  0.77000000000E+02 0.  0.
   -5000001    1    1    2    0    0  0.15159658548E+03  0.55097028032E+02  0.36315576335E+03  0.40475710702E+03  0.77000000000E+02 0.  0.
<mgrwt>
<rscale>  0 0.39289665E+03</rscale>
<asrwt>0</asrwt>
<pdfrwt beam="1">  1        1 0.77529102E-01 0.39289665E+03</pdfrwt>
<pdfrwt beam="2">  1       -1 0.10158646E-01 0.39289665E+03</pdfrwt>
<totfact> 0.26707916E+03</totfact>
</mgrwt>
</event>
<event>
 4    1  0.3281630E-004  0.1622911E+03  0.7818608E-02  0.1186134E+00
          1   -1    0    0  501    0  0.00000000000E+00  0.00000000000E+00  0.37619437235E+03  0.37619437239E+03  0.50400000000E-02 0. -1.
         -1   -1    0    0    0  501 -0.00000000000E+00 -0.00000000000E+00 -0.17503185612E+02  0.17503186338E+02  0.50400000000E-02 0.  1.
    5000001    1    1    2    0    0  0.21574360030E+02  0.93524887581E+01  0.15476418487E+03  0.17445307385E+03  0.77000000000E+02 0.  0.
   -5000001    1    1    2    0    0 -0.21574360030E+02 -0.93524887581E+01  0.20392700187E+03  0.21924448488E+03  0.77000000000E+02 0.  0.
<mgrwt>
<rscale>  0 0.16229110E+03</rscale>
<asrwt>0</asrwt>
<pdfrwt beam="1">  1        1 0.53742052E-01 0.16229110E+03</pdfrwt>
<pdfrwt beam="2">  1       -1 0.25004552E-02 0.16229110E+03</pdfrwt>
<totfact> 0.33669134E+04</totfact>
</mgrwt>
</event>
<event>
 4    1  0.3281630E-004  0.1695223E+03  0.7818608E-02  0.1178347E+00
         -1   -1    0    0    0  501 -0.00000000000E+00  0.00000000000E+00  0.65141560510E+01  0.65141580007E+01  0.50400000000E-02 0. -1.
          1   -1    0    0  501    0  0.00000000000E+00 -0.00000000000E+00 -0.11028982255E+04  0.11028982255E+04  0.50400000000E-02 0.  1.
    5000001    1    1    2    0    0  0.26040706887E+02 -0.20785508374E+02 -0.62707690307E+03  0.63266468064E+03  0.77000000000E+02 0.  0.
   -5000001    1    1    2    0    0 -0.26040706887E+02  0.20785508374E+02 -0.46930716641E+03  0.47674770290E+03  0.77000000000E+02 0.  0.
<mgrwt>
<rscale>  0 0.16952230E+03</rscale>
<asrwt>0</asrwt>
<pdfrwt beam="1">  1        1 0.15755677E+00 0.16952230E+03</pdfrwt>
<pdfrwt beam="2">  1       -1 0.93059456E-03 0.16952230E+03</pdfrwt>
<totfact> 0.30930754E+04</totfact>
</mgrwt>
</event>
<event>
 4    1  0.3281630E-004  0.3636295E+03  0.7818608E-02  0.1057156E+00
         -1   -1    0    0    0  501 -0.00000000000E+00  0.00000000000E+00  0.48037892298E+03  0.48037892300E+03  0.50400000000E-02 0. -1.
          1   -1    0    0  501    0  0.00000000000E+00 -0.00000000000E+00 -0.68813619229E+02  0.68813619413E+02  0.50400000000E-02 0.  1.
    5000001    1    1    2    0    0 -0.63842585453E+02 -0.14171693581E+03  0.28806389239E+03  0.33625789465E+03  0.77000000000E+02 0.  0.
   -5000001    1    1    2    0    0  0.63842585453E+02  0.14171693581E+03  0.12350141135E+03  0.21293464777E+03  0.77000000000E+02 0.  0.
<mgrwt>
<rscale>  0 0.36362955E+03</rscale>
<asrwt>0</asrwt>
<pdfrwt beam="1">  1        1 0.98305171E-02 0.36362955E+03</pdfrwt>
<pdfrwt beam="2">  1       -1 0.68625560E-01 0.36362955E+03</pdfrwt>
<totfact> 0.14713436E+03</totfact>
</mgrwt>
</event>
<event>
 4    1  0.3281630E-004  0.1989717E+03  0.7818608E-02  0.1150610E+00
         -1   -1    0    0    0  501 -0.00000000000E+00  0.00000000000E+00  0.12041631268E+03  0.12041631279E+03  0.50400000000E-02 0.  1.
          1   -1    0    0  501    0  0.00000000000E+00 -0.00000000000E+00 -0.82193438250E+02  0.82193438405E+02  0.50400000000E-02 0. -1.
    5000001    1    1    2    0    0  0.42581938054E+02  0.29736040333E+02  0.55414059611E+02  0.10815346294E+03  0.77000000000E+02 0.  0.
   -5000001    1    1    2    0    0 -0.42581938054E+02 -0.29736040333E+02 -0.17191185177E+02  0.94456288255E+02  0.77000000000E+02 0.  0.
<mgrwt>
<rscale>  0 0.19897166E+03</rscale>
<asrwt>0</asrwt>
<pdfrwt beam="1">  1        1 0.11741920E-01 0.19897166E+03</pdfrwt>
<pdfrwt beam="2">  1       -1 0.17202330E-01 0.19897166E+03</pdfrwt>
<totfact> 0.12853384E+04</totfact>
</mgrwt>
</event>
<event>
 4    1  0.3281630E-004  0.2222350E+03  0.7818608E-02  0.1132228E+00
          1   -1    0    0  501    0  0.00000000000E+00  0.00000000000E+00  0.15646926037E+04  0.15646926037E+04  0.50400000000E-02 0.  1.
         -1   -1    0    0    0  501 -0.00000000000E+00 -0.00000000000E+00 -0.78910668800E+01  0.78910684896E+01  0.50400000000E-02 0. -1.
    5000001    1    1    2    0    0  0.57218033547E+02  0.46708741673E+02  0.99793306949E+03  0.10036209549E+04  0.77000000000E+02 0.  0.
   -5000001    1    1    2    0    0 -0.57218033547E+02 -0.46708741673E+02  0.55886846736E+03  0.56896271734E+03  0.77000000000E+02 0.  0.
<mgrwt>
<rscale>  0 0.22223497E+03</rscale>
<asrwt>0</asrwt>
<pdfrwt beam="1">  1        1 0.22352752E+00 0.22223497E+03</pdfrwt>
<pdfrwt beam="2">  1       -1 0.11272953E-02 0.22223497E+03</pdfrwt>
<totfact> 0.12072837E+04</totfact>
</mgrwt>
</event>
<event>
 4    1  0.3281630E-004  0.2323574E+03  0.7818608E-02  0.1124991E+00
         -1   -1    0    0    0  501 -0.00000000000E+00  0.00000000000E+00  0.15012098075E+02  0.15012098921E+02  0.50400000000E-02 0. -1.
          1   -1    0    0  501    0  0.00000000000E+00 -0.00000000000E+00 -0.89910779422E+03  0.89910779423E+03  0.50400000000E-02 0.  1.
    5000001    1    1    2    0    0  0.81776762149E+02 -0.17187927578E+02 -0.34684309176E+03  0.36498218311E+03  0.77000000000E+02 0.  0.
   -5000001    1    1    2    0    0 -0.81776762149E+02  0.17187927578E+02 -0.53725260438E+03  0.54913771005E+03  0.77000000000E+02 0.  0.
<mgrwt>
<rscale>  0 0.23235744E+03</rscale>
<asrwt>0</asrwt>
<pdfrwt beam="1">  1        1 0.12844394E+00 0.23235744E+03</pdfrwt>
<pdfrwt beam="2">  1       -1 0.21445861E-02 0.23235744E+03</pdfrwt>
<totfact> 0.13196400E+04</totfact>
</mgrwt>
</event>
<event>
 4    1  0.3281630E-004  0.2820547E+03  0.7818608E-02  0.1094572E+00
          1   -1    0    0  501    0  0.00000000000E+00  0.00000000000E+00  0.70663528562E+03  0.70663528564E+03  0.50400000000E-02 0. -1.
         -1   -1    0    0    0  501 -0.00000000000E+00 -0.00000000000E+00 -0.28145656907E+02  0.28145657358E+02  0.50400000000E-02 0.  1.
    5000001    1    1    2    0    0  0.99090798530E+02  0.12843753365E+01  0.17164390767E+03  0.21262941239E+03  0.77000000000E+02 0.  0.
   -5000001    1    1    2    0    0 -0.99090798530E+02 -0.12843753365E+01  0.50684572104E+03  0.52215153061E+03  0.77000000000E+02 0.  0.
<mgrwt>
<rscale>  0 0.28205471E+03</rscale>
<asrwt>0</asrwt>
<pdfrwt beam="1">  1        1 0.10094789E+00 0.28205471E+03</pdfrwt>
<pdfrwt beam="2">  1       -1 0.40208087E-02 0.28205471E+03</pdfrwt>
<totfact> 0.75429404E+03</totfact>
</mgrwt>
</event>
<event>
 4    1  0.3281630E-004  0.1984437E+03  0.7818608E-02  0.1151059E+00
          1   -1    0    0  501    0  0.00000000000E+00  0.00000000000E+00  0.11464512141E+03  0.11464512152E+03  0.50400000000E-02 0.  1.
         -1   -1    0    0    0  501 -0.00000000000E+00 -0.00000000000E+00 -0.85873499017E+02  0.85873499165E+02  0.50400000000E-02 0. -1.
    5000001    1    1    2    0    0 -0.53452420191E+02 -0.32299188379E+02  0.18374098765E+02  0.10083157392E+03  0.77000000000E+02 0.  0.
   -5000001    1    1    2    0    0  0.53452420191E+02  0.32299188379E+02  0.10397523624E+02  0.99687046760E+02  0.77000000000E+02 0.  0.
<mgrwt>
<rscale>  0 0.19844372E+03</rscale>
<asrwt>0</asrwt>
<pdfrwt beam="1">  1        1 0.16377874E-01 0.19844372E+03</pdfrwt>
<pdfrwt beam="2">  1       -1 0.12267643E-01 0.19844372E+03</pdfrwt>
<totfact> 0.14148871E+04</totfact>
</mgrwt>
</event>
<event>
 4    1  0.3281630E-004  0.2084990E+03  0.7818608E-02  0.1142760E+00
          1   -1    0    0  501    0  0.00000000000E+00  0.00000000000E+00  0.71527008304E+02  0.71527008482E+02  0.50400000000E-02 0.  1.
         -1   -1    0    0    0  501 -0.00000000000E+00 -0.00000000000E+00 -0.15194204477E+03  0.15194204486E+03  0.50400000000E-02 0. -1.
    5000001    1    1    2    0    0 -0.44166386468E+02  0.52341114376E+02 -0.23305074145E+02  0.10565220503E+03  0.77000000000E+02 0.  0.
   -5000001    1    1    2    0    0  0.44166386468E+02 -0.52341114376E+02 -0.57109962324E+02  0.11781684830E+03  0.77000000000E+02 0.  0.
<mgrwt>
<rscale>  0 0.20849902E+03</rscale>
<asrwt>0</asrwt>
<pdfrwt beam="1">  1        1 0.10218144E-01 0.20849902E+03</pdfrwt>
<pdfrwt beam="2">  1       -1 0.21706006E-01 0.20849902E+03</pdfrwt>
<totfact> 0.10660896E+04</totfact>
</mgrwt>
</event>
<event>
 4    1  0.3281630E-004  0.3378783E+03  0.7818608E-02  0.1067703E+00
          1   -1    0    0  501    0  0.00000000000E+00  0.00000000000E+00  0.55561393315E+03  0.55561393317E+03  0.50400000000E-02 0.  1.
         -1   -1    0    0    0  501 -0.00000000000E+00 -0.00000000000E+00 -0.51367372515E+02  0.51367372763E+02  0.50400000000E-02 0. -1.
    5000001    1    1    2    0    0 -0.13663066548E+03  0.69438504601E+01  0.14000304968E+03  0.21034735494E+03  0.77000000000E+02 0.  0.
   -5000001    1    1    2    0    0  0.13663066548E+03 -0.69438504601E+01  0.36424351096E+03  0.39663395100E+03  0.77000000000E+02 0.  0.
<mgrwt>
<rscale>  0 0.33787825E+03</rscale>
<asrwt>0</asrwt>
<pdfrwt beam="1">  1        1 0.79373413E-01 0.33787825E+03</pdfrwt>
<pdfrwt beam="2">  1       -1 0.73381966E-02 0.33787825E+03</pdfrwt>
<totfact> 0.42671101E+03</totfact>
</mgrwt>
</event>
<event>
 4    1  0.3281630E-004  0.2150576E+03  0.7818608E-02  0.1137622E+00
          1   -1    0    0  501    0  0.00000000000E+00  0.00000000000E+00  0.20997286281E+03  0.20997286287E+03  0.50400000000E-02 0. -1.
         -1   -1    0    0    0  501 -0.00000000000E+00 -0.00000000000E+00 -0.55066390725E+02  0.55066390955E+02  0.50400000000E-02 0.  1.
    5000001    1    1    2    0    0  0.21363624492E+02  0.69293238515E+02  0.53572114147E+02  0.11856191956E+03  0.77000000000E+02 0.  0.
   -5000001    1    1    2    0    0 -0.21363624492E+02 -0.69293238515E+02  0.10133435794E+03  0.14647733427E+03  0.77000000000E+02 0.  0.
<mgrwt>
<rscale>  0 0.21505765E+03</rscale>
<asrwt>0</asrwt>
<pdfrwt beam="1">  1        1 0.29996123E-01 0.21505765E+03</pdfrwt>
<pdfrwt beam="2">  1       -1 0.78666273E-02 0.21505765E+03</pdfrwt>
<totfact> 0.13017913E+04</totfact>
</mgrwt>
</event>
<event>
 4    1  0.3281630E-004  0.3241837E+03  0.7818608E-02  0.1073740E+00
          1   -1    0    0  501    0  0.00000000000E+00  0.00000000000E+00  0.71830662484E+02  0.71830662661E+02  0.50400000000E-02 0.  1.
         -1   -1    0    0    0  501 -0.00000000000E+00 -0.00000000000E+00 -0.36577361718E+03  0.36577361721E+03  0.50400000000E-02 0. -1.
    5000001    1    1    2    0    0  0.87014859721E+02 -0.10803320198E+03 -0.19178218253E+03  0.24890191658E+03  0.77000000000E+02 0.  0.
   -5000001    1    1    2    0    0 -0.87014859721E+02  0.10803320198E+03 -0.10216077217E+03  0.18870236329E+03  0.77000000000E+02 0.  0.
<mgrwt>
<rscale>  0 0.32418366E+03</rscale>
<asrwt>0</asrwt>
<pdfrwt beam="1">  1        1 0.10261523E-01 0.32418366E+03</pdfrwt>
<pdfrwt beam="2">  1       -1 0.52253373E-01 0.32418366E+03</pdfrwt>
<totfact> 0.23490170E+03</totfact>
</mgrwt>
</event>
<event>
 4    1  0.3281630E-004  0.4053190E+03  0.7818608E-02  0.1041953E+00
          1   -1    0    0  501    0  0.00000000000E+00  0.00000000000E+00  0.54664483635E+03  0.54664483637E+03  0.50400000000E-02 0.  1.
         -1   -1    0    0    0  501 -0.00000000000E+00 -0.00000000000E+00 -0.75132627591E+02  0.75132627760E+02  0.50400000000E-02 0. -1.
    5000001    1    1    2    0    0 -0.10573413907E+03  0.95576097309E+02  0.42255316949E+03  0.45254246164E+03  0.77000000000E+02 0.  0.
   -5000001    1    1    2    0    0  0.10573413907E+03 -0.95576097309E+02  0.48959039265E+02  0.16923500249E+03  0.77000000000E+02 0.  0.
<mgrwt>
<rscale>  0 0.40531895E+03</rscale>
<asrwt>0</asrwt>
<pdfrwt beam="1">  1        1 0.78092120E-01 0.40531895E+03</pdfrwt>
<pdfrwt beam="2">  1       -1 0.10733233E-01 0.40531895E+03</pdfrwt>
<totfact> 0.24274532E+03</totfact>
</mgrwt>
</event>
<event>
 4    1  0.3281630E-004  0.2351789E+03  0.7818608E-02  0.1123047E+00
          1   -1    0    0  501    0  0.00000000000E+00  0.00000000000E+00  0.80097903895E+03  0.80097903897E+03  0.50400000000E-02 0.  1.
         -1   -1    0    0    0  501 -0.00000000000E+00 -0.00000000000E+00 -0.17262974738E+02  0.17262975473E+02  0.50400000000E-02 0. -1.
    5000001    1    1    2    0    0  0.73904193178E+02  0.48112561619E+02  0.43022953899E+03  0.44587341766E+03  0.77000000000E+02 0.  0.
   -5000001    1    1    2    0    0 -0.73904193178E+02 -0.48112561619E+02  0.35348652523E+03  0.37236859679E+03  0.77000000000E+02 0.  0.
<mgrwt>
<rscale>  0 0.23517892E+03</rscale>
<asrwt>0</asrwt>
<pdfrwt beam="1">  1        1 0.11442561E+00 0.23517892E+03</pdfrwt>
<pdfrwt beam="2">  1       -1 0.24661386E-02 0.23517892E+03</pdfrwt>
<totfact> 0.12837085E+04</totfact>
</mgrwt>
</event>
<event>
 4    1  0.3281630E-004  0.1737161E+03  0.7818608E-02  0.1174027E+00
         -1   -1    0    0    0  501 -0.00000000000E+00  0.00000000000E+00  0.16608776685E+03  0.16608776692E+03  0.50400000000E-02 0. -1.
          1   -1    0    0  501    0  0.00000000000E+00 -0.00000000000E+00 -0.45423695085E+02  0.45423695364E+02  0.50400000000E-02 0.  1.
    5000001    1    1    2    0    0  0.29728206979E+02  0.26415106491E+02  0.67410293228E+02  0.10979376929E+03  0.77000000000E+02 0.  0.
   -5000001    1    1    2    0    0 -0.29728206979E+02 -0.26415106491E+02  0.53253778533E+02  0.10171769300E+03  0.77000000000E+02 0.  0.
<mgrwt>
<rscale>  0 0.17371609E+03</rscale>
<asrwt>0</asrwt>
<pdfrwt beam="1">  1        1 0.64890994E-02 0.17371609E+03</pdfrwt>
<pdfrwt beam="2">  1       -1 0.23726824E-01 0.17371609E+03</pdfrwt>
<totfact> 0.16770266E+04</totfact>
</mgrwt>
</event>
<event>
 4    1  0.3281630E-004  0.2564027E+03  0.7818608E-02  0.1109324E+00
         -1   -1    0    0    0  501 -0.00000000000E+00  0.00000000000E+00  0.32719235612E+02  0.32719236000E+02  0.50400000000E-02 0.  1.
          1   -1    0    0  501    0  0.00000000000E+00 -0.00000000000E+00 -0.50232172155E+03  0.50232172158E+03  0.50400000000E-02 0. -1.
    5000001    1    1    2    0    0  0.10030693553E+03  0.19786251183E+02 -0.21952310424E+03  0.25411094102E+03  0.77000000000E+02 0.  0.
   -5000001    1    1    2    0    0 -0.10030693553E+03 -0.19786251183E+02 -0.25007938170E+03  0.28093001656E+03  0.77000000000E+02 0.  0.
<mgrwt>
<rscale>  0 0.25640267E+03</rscale>
<asrwt>0</asrwt>
<pdfrwt beam="1">  1        1 0.71760241E-01 0.25640267E+03</pdfrwt>
<pdfrwt beam="2">  1       -1 0.46741769E-02 0.25640267E+03</pdfrwt>
<totfact> 0.95590956E+03</totfact>
</mgrwt>
</event>
<event>
 4    1  0.3281630E-004  0.2055377E+03  0.7818608E-02  0.1145149E+00
         -1   -1    0    0    0  501 -0.00000000000E+00  0.00000000000E+00  0.68788263472E+01  0.68788281936E+01  0.50400000000E-02 0. -1.
          1   -1    0    0  501    0  0.00000000000E+00 -0.00000000000E+00 -0.15353537133E+04  0.15353537133E+04  0.50400000000E-02 0.  1.
    5000001    1    1    2    0    0 -0.48861938486E+02  0.29286518967E+02 -0.10437072123E+04  0.10480929988E+04  0.77000000000E+02 0.  0.
   -5000001    1    1    2    0    0  0.48861938486E+02 -0.29286518967E+02 -0.48476767462E+03  0.49413954262E+03  0.77000000000E+02 0.  0.
<mgrwt>
<rscale>  0 0.20553767E+03</rscale>
<asrwt>0</asrwt>
<pdfrwt beam="1">  1        1 0.21933603E+00 0.20553767E+03</pdfrwt>
<pdfrwt beam="2">  1       -1 0.98269059E-03 0.20553767E+03</pdfrwt>
<totfact> 0.15287775E+04</totfact>
</mgrwt>
</event>
<event>
 4    1  0.3281630E-004  0.2000047E+03  0.7818608E-02  0.1149735E+00
         -1   -1    0    0    0  501 -0.00000000000E+00  0.00000000000E+00  0.17045037448E+02  0.17045038193E+02  0.50400000000E-02 0.  1.
          1   -1    0    0  501    0  0.00000000000E+00 -0.00000000000E+00 -0.58670830444E+03  0.58670830447E+03  0.50400000000E-02 0. -1.
    5000001    1    1    2    0    0  0.63259014942E+02  0.66566750839E+01 -0.30006063777E+03  0.31624579149E+03  0.77000000000E+02 0.  0.
   -5000001    1    1    2    0    0 -0.63259014942E+02 -0.66566750839E+01 -0.26960262922E+03  0.28750755117E+03  0.77000000000E+02 0.  0.
<mgrwt>
<rscale>  0 0.20000465E+03</rscale>
<asrwt>0</asrwt>
<pdfrwt beam="1">  1        1 0.83815459E-01 0.20000465E+03</pdfrwt>
<pdfrwt beam="2">  1       -1 0.24350058E-02 0.20000465E+03</pdfrwt>
<totfact> 0.20080756E+04</totfact>
</mgrwt>
</event>
<event>
 4    1  0.3281630E-004  0.1753212E+03  0.7818608E-02  0.1172410E+00
          1   -1    0    0  501    0  0.00000000000E+00  0.00000000000E+00  0.74189449510E+03  0.74189449512E+03  0.50400000000E-02 0. -1.
         -1   -1    0    0    0  501 -0.00000000000E+00 -0.00000000000E+00 -0.10357776687E+02  0.10357777914E+02  0.50400000000E-02 0.  1.
    5000001    1    1    2    0    0  0.35098427530E+02  0.53849636390E+01  0.27035619441E+03  0.28334143591E+03  0.77000000000E+02 0.  0.
   -5000001    1    1    2    0    0 -0.35098427530E+02 -0.53849636390E+01  0.46118052401E+03  0.46891083713E+03  0.77000000000E+02 0.  0.
<mgrwt>
<rscale>  0 0.17532117E+03</rscale>
<asrwt>0</asrwt>
<pdfrwt beam="1">  1        1 0.10598494E+00 0.17532117E+03</pdfrwt>
<pdfrwt beam="2">  1       -1 0.14796824E-02 0.17532117E+03</pdfrwt>
<totfact> 0.29582990E+04</totfact>
</mgrwt>
</event>
<event>
 4    1  0.3281630E-004  0.2186798E+03  0.7818608E-02  0.1134871E+00
         -1   -1    0    0    0  501 -0.00000000000E+00  0.00000000000E+00  0.86925367318E+01  0.86925381930E+01  0.50400000000E-02 0. -1.
          1   -1    0    0  501    0  0.00000000000E+00 -0.00000000000E+00 -0.13753421580E+04  0.13753421580E+04  0.50400000000E-02 0.  1.
    5000001    1    1    2    0    0 -0.12569407184E+02  0.71607096858E+02 -0.85556874271E+03  0.86209769738E+03  0.77000000000E+02 0.  0.
   -5000001    1    1    2    0    0  0.12569407184E+02 -0.71607096858E+02 -0.51108087859E+03  0.52193699886E+03  0.77000000000E+02 0.  0.
<mgrwt>
<rscale>  0 0.21867980E+03</rscale>
<asrwt>0</asrwt>
<pdfrwt beam="1">  1        1 0.19647731E+00 0.21867980E+03</pdfrwt>
<pdfrwt beam="2">  1       -1 0.12417919E-02 0.21867980E+03</pdfrwt>
<totfact> 0.13771527E+04</totfact>
</mgrwt>
</event>
<event>
 4    1  0.3281630E-004  0.2666084E+03  0.7818608E-02  0.1103237E+00
         -1   -1    0    0    0  501 -0.00000000000E+00  0.00000000000E+00  0.44967152576E+02  0.44967152859E+02  0.50400000000E-02 0. -1.
          1   -1    0    0  501    0  0.00000000000E+00 -0.00000000000E+00 -0.39517763950E+03  0.39517763954E+03  0.50400000000E-02 0.  1.
    5000001    1    1    2    0    0  0.28001054469E+02 -0.81227427128E+02 -0.64864198686E+02  0.13235678388E+03  0.77000000000E+02 0.  0.
   -5000001    1    1    2    0    0 -0.28001054469E+02  0.81227427128E+02 -0.28534628824E+03  0.30778800851E+03  0.77000000000E+02 0.  0.
<mgrwt>
<rscale>  0 0.26660843E+03</rscale>
<asrwt>0</asrwt>
<pdfrwt beam="1">  1        1 0.56453947E-01 0.26660843E+03</pdfrwt>
<pdfrwt beam="2">  1       -1 0.64238792E-02 0.26660843E+03</pdfrwt>
<totfact> 0.80890823E+03</totfact>
</mgrwt>
</event>
<event>
 4    1  0.3281630E-004  0.2975824E+03  0.7818608E-02  0.1086455E+00
          1   -1    0    0  501    0  0.00000000000E+00  0.00000000000E+00  0.18382355447E+03  0.18382355454E+03  0.50400000000E-02 0.  1.
         -1   -1    0    0    0  501 -0.00000000000E+00 -0.00000000000E+00 -0.12043513986E+03  0.12043513997E+03  0.50400000000E-02 0. -1.
    5000001    1    1    2    0    0  0.10644957539E+03  0.69842150697E+02  0.31066092226E+02  0.15199848750E+03  0.77000000000E+02 0.  0.
   -5000001    1    1    2    0    0 -0.10644957539E+03 -0.69842150697E+02  0.32322322377E+02  0.15226020701E+03  0.77000000000E+02 0.  0.
<mgrwt>
<rscale>  0 0.29758236E+03</rscale>
<asrwt>0</asrwt>
<pdfrwt beam="1">  1        1 0.26260508E-01 0.29758236E+03</pdfrwt>
<pdfrwt beam="2">  1       -1 0.17205020E-01 0.29758236E+03</pdfrwt>
<totfact> 0.46137803E+03</totfact>
</mgrwt>
</event>
<event>
 4    1  0.3281630E-004  0.1916628E+03  0.7818608E-02  0.1156970E+00
          1   -1    0    0  501    0  0.00000000000E+00  0.00000000000E+00  0.53804272914E+01  0.53804296520E+01  0.50400000000E-02 0.  1.
         -1   -1    0    0    0  501 -0.00000000000E+00 -0.00000000000E+00 -0.17068638830E+04  0.17068638830E+04  0.50400000000E-02 0. -1.
    5000001    1    1    2    0    0  0.54668336750E+02 -0.16006195505E+02 -0.87875646301E+03  0.88396082867E+03  0.77000000000E+02 0.  0.
   -5000001    1    1    2    0    0 -0.54668336750E+02  0.16006195505E+02 -0.82272699265E+03  0.82828348394E+03  0.77000000000E+02 0.  0.
<mgrwt>
<rscale>  0 0.19166282E+03</rscale>
<asrwt>0</asrwt>
<pdfrwt beam="1">  1        1 0.76863373E-03 0.19166282E+03</pdfrwt>
<pdfrwt beam="2">  1       -1 0.24383735E+00 0.19166282E+03</pdfrwt>
<totfact> 0.20191575E+03</totfact>
</mgrwt>
</event>
<event>
 4    1  0.3281630E-004  0.1801247E+03  0.7818608E-02  0.1167682E+00
          1   -1    0    0  501    0  0.00000000000E+00  0.00000000000E+00  0.25054974545E+02  0.25054975052E+02  0.50400000000E-02 0.  1.
         -1   -1    0    0    0  501 -0.00000000000E+00 -0.00000000000E+00 -0.32373706704E+03  0.32373706708E+03  0.50400000000E-02 0. -1.
    5000001    1    1    2    0    0  0.11415141352E+02 -0.41927330154E+02 -0.11613783877E+03  0.14596302292E+03  0.77000000000E+02 0.  0.
   -5000001    1    1    2    0    0 -0.11415141352E+02  0.41927330154E+02 -0.18254425373E+03  0.20282901922E+03  0.77000000000E+02 0.  0.
<mgrwt>
<rscale>  0 0.18012467E+03</rscale>
<asrwt>0</asrwt>
<pdfrwt beam="1">  1        1 0.35792823E-02 0.18012467E+03</pdfrwt>
<pdfrwt beam="2">  1       -1 0.46248150E-01 0.18012467E+03</pdfrwt>
<totfact> 0.12132783E+04</totfact>
</mgrwt>
</event>
<event>
 4    1  0.3281630E-004  0.2668931E+03  0.7818608E-02  0.1103071E+00
          1   -1    0    0  501    0  0.00000000000E+00  0.00000000000E+00  0.22582594126E+03  0.22582594132E+03  0.50400000000E-02 0. -1.
         -1   -1    0    0    0  501 -0.00000000000E+00 -0.00000000000E+00 -0.78857135506E+02  0.78857135667E+02  0.50400000000E-02 0.  1.
    5000001    1    1    2    0    0  0.75130663887E+01  0.81855645444E+02 -0.82187726259E+01  0.11293069149E+03  0.77000000000E+02 0.  0.
   -5000001    1    1    2    0    0 -0.75130663887E+01 -0.81855645444E+02  0.15518757838E+03  0.19175238549E+03  0.77000000000E+02 0.  0.
<mgrwt>
<rscale>  0 0.26689314E+03</rscale>
<asrwt>0</asrwt>
<pdfrwt beam="1">  1        1 0.32260849E-01 0.26689314E+03</pdfrwt>
<pdfrwt beam="2">  1       -1 0.11265305E-01 0.26689314E+03</pdfrwt>
<totfact> 0.69174686E+03</totfact>
</mgrwt>
</event>
<event>
 4    1  0.3281630E-004  0.2416393E+03  0.7818608E-02  0.1118706E+00
         -1   -1    0    0    0  501 -0.00000000000E+00  0.00000000000E+00  0.34477240834E+02  0.34477241203E+02  0.50400000000E-02 0. -1.
          1   -1    0    0  501    0  0.00000000000E+00 -0.00000000000E+00 -0.42339185672E+03  0.42339185675E+03  0.50400000000E-02 0.  1.
    5000001    1    1    2    0    0  0.14918984850E+02  0.24726902291E+02 -0.26740590612E+02  0.86475748000E+02  0.77000000000E+02 0.  0.
   -5000001    1    1    2    0    0 -0.14918984850E+02 -0.24726902291E+02 -0.36217402528E+03  0.37139334995E+03  0.77000000000E+02 0.  0.
<mgrwt>
<rscale>  0 0.24163926E+03</rscale>
<asrwt>0</asrwt>
<pdfrwt beam="1">  1        1 0.60484548E-01 0.24163926E+03</pdfrwt>
<pdfrwt beam="2">  1       -1 0.49253204E-02 0.24163926E+03</pdfrwt>
<totfact> 0.10994684E+04</totfact>
</mgrwt>
</event>
<event>
 4    1  0.3281630E-004  0.3070177E+03  0.7818608E-02  0.1081784E+00
          1   -1    0    0  501    0  0.00000000000E+00  0.00000000000E+00  0.23905059924E+04  0.23905059924E+04  0.50400000000E-02 0.  1.
         -1   -1    0    0    0  501 -0.00000000000E+00 -0.00000000000E+00 -0.98577303807E+01  0.98577316691E+01  0.50400000000E-02 0. -1.
    5000001    1    1    2    0    0  0.92216681966E+02  0.72142948127E+02  0.16802931755E+04  0.16861265305E+04  0.77000000000E+02 0.  0.
   -5000001    1    1    2    0    0 -0.92216681966E+02 -0.72142948127E+02  0.70035508648E+03  0.71423719349E+03  0.77000000000E+02 0.  0.
<mgrwt>
<rscale>  0 0.30701769E+03</rscale>
<asrwt>0</asrwt>
<pdfrwt beam="1">  1        1 0.34150142E+00 0.30701769E+03</pdfrwt>
<pdfrwt beam="2">  1       -1 0.14082450E-02 0.30701769E+03</pdfrwt>
<totfact> 0.27744091E+03</totfact>
</mgrwt>
</event>
<event>
 4    1  0.3281630E-004  0.1638011E+03  0.7818608E-02  0.1184471E+00
          1   -1    0    0  501    0  0.00000000000E+00  0.00000000000E+00  0.34421991223E+02  0.34421991592E+02  0.50400000000E-02 0.  1.
         -1   -1    0    0    0  501 -0.00000000000E+00 -0.00000000000E+00 -0.19486681726E+03  0.19486681733E+03  0.50400000000E-02 0. -1.
    5000001    1    1    2    0    0 -0.25092556476E+02 -0.20976394815E+01 -0.63385932177E+02  0.10286307831E+03  0.77000000000E+02 0.  0.
   -5000001    1    1    2    0    0  0.25092556476E+02  0.20976394815E+01 -0.97058893861E+02  0.12642573061E+03  0.77000000000E+02 0.  0.
<mgrwt>
<rscale>  0 0.16380115E+03</rscale>
<asrwt>0</asrwt>
<pdfrwt beam="1">  1        1 0.49174274E-02 0.16380115E+03</pdfrwt>
<pdfrwt beam="2">  1       -1 0.27838116E-01 0.16380115E+03</pdfrwt>
<totfact> 0.18710078E+04</totfact>
</mgrwt>
</event>
<event>
 4    1  0.3281630E-004  0.1610506E+03  0.7818608E-02  0.1187516E+00
          1   -1    0    0  501    0  0.00000000000E+00  0.00000000000E+00  0.91699027976E+02  0.91699028114E+02  0.50400000000E-02 0.  1.
         -1   -1    0    0    0  501 -0.00000000000E+00 -0.00000000000E+00 -0.70713096294E+02  0.70713096474E+02  0.50400000000E-02 0. -1.
    5000001    1    1    2    0    0  0.20302881387E+02  0.65141975323E+01  0.20611759770E+02  0.82513552844E+02  0.77000000000E+02 0.  0.
   -5000001    1    1    2    0    0 -0.20302881387E+02 -0.65141975323E+01  0.37417191086E+00  0.79898571744E+02  0.77000000000E+02 0.  0.
<mgrwt>
<rscale>  0 0.16105058E+03</rscale>
<asrwt>0</asrwt>
<pdfrwt beam="1">  1        1 0.13099861E-01 0.16105058E+03</pdfrwt>
<pdfrwt beam="2">  1       -1 0.10101871E-01 0.16105058E+03</pdfrwt>
<totfact> 0.25104574E+04</totfact>
</mgrwt>
</event>
<event>
 4    1  0.3281630E-004  0.8118943E+03  0.7818608E-02  0.9542958E-01
         -1   -1    0    0    0  501 -0.00000000000E+00  0.00000000000E+00  0.41795623399E+03  0.41795623402E+03  0.50400000000E-02 0. -1.
          1   -1    0    0  501    0  0.00000000000E+00 -0.00000000000E+00 -0.39428314687E+03  0.39428314691E+03  0.50400000000E-02 0.  1.
    5000001    1    1    2    0    0  0.19694032513E+03 -0.33868911515E+03 -0.61463216638E+02  0.40398333553E+03  0.77000000000E+02 0.  0.
   -5000001    1    1    2    0    0 -0.19694032513E+03  0.33868911515E+03  0.85136303750E+02  0.40825604539E+03  0.77000000000E+02 0.  0.
<mgrwt>
<rscale>  0 0.81189433E+03</rscale>
<asrwt>0</asrwt>
<pdfrwt beam="1">  1        1 0.56326163E-01 0.81189433E+03</pdfrwt>
<pdfrwt beam="2">  1       -1 0.59708034E-01 0.81189433E+03</pdfrwt>
<totfact> 0.19397689E+02</totfact>
</mgrwt>
</event>
<event>
 4    1  0.3281630E-004  0.2211617E+03  0.7818608E-02  0.1133020E+00
          1   -1    0    0  501    0  0.00000000000E+00  0.00000000000E+00  0.19710209724E+04  0.19710209724E+04  0.50400000000E-02 0. -1.
         -1   -1    0    0    0  501 -0.00000000000E+00 -0.00000000000E+00 -0.62039511076E+01  0.62039531548E+01  0.50400000000E-02 0.  1.
    5000001    1    1    2    0    0 -0.54472487562E+02  0.54175290605E+02  0.11605191821E+04  0.11656054161E+04  0.77000000000E+02 0.  0.
   -5000001    1    1    2    0    0  0.54472487562E+02 -0.54175290605E+02  0.80429783923E+03  0.81161950950E+03  0.77000000000E+02 0.  0.
<mgrwt>
<rscale>  0 0.22116166E+03</rscale>
<asrwt>0</asrwt>
<pdfrwt beam="1">  1        1 0.28157448E+00 0.22116166E+03</pdfrwt>
<pdfrwt beam="2">  1       -1 0.88627872E-03 0.22116166E+03</pdfrwt>
<totfact> 0.96889933E+03</totfact>
</mgrwt>
</event>
<event>
 4    1  0.3281630E-004  0.2373009E+03  0.7818608E-02  0.1121604E+00
          1   -1    0    0  501    0  0.00000000000E+00  0.00000000000E+00  0.12121989028E+02  0.12121990076E+02  0.50400000000E-02 0. -1.
         -1   -1    0    0    0  501 -0.00000000000E+00 -0.00000000000E+00 -0.11613546345E+04  0.11613546346E+04  0.50400000000E-02 0.  1.
    5000001    1    1    2    0    0 -0.59720601532E+02 -0.67678830568E+02 -0.58152957277E+03  0.59350873486E+03  0.77000000000E+02 0.  0.
   -5000001    1    1    2    0    0  0.59720601532E+02  0.67678830568E+02 -0.56770307275E+03  0.57996788977E+03  0.77000000000E+02 0.  0.
<mgrwt>
<rscale>  0 0.23730090E+03</rscale>
<asrwt>0</asrwt>
<pdfrwt beam="1">  1        1 0.17317135E-02 0.23730090E+03</pdfrwt>
<pdfrwt beam="2">  1       -1 0.16590773E+00 0.23730090E+03</pdfrwt>
<totfact> 0.21259776E+03</totfact>
</mgrwt>
</event>
<event>
 4    1  0.3281630E-004  0.1851440E+03  0.7818608E-02  0.1162916E+00
         -1   -1    0    0    0  501 -0.00000000000E+00  0.00000000000E+00  0.13694693912E+02  0.13694694839E+02  0.50400000000E-02 0. -1.
          1   -1    0    0  501    0  0.00000000000E+00 -0.00000000000E+00 -0.62575848299E+03  0.62575848301E+03  0.50400000000E-02 0.  1.
    5000001    1    1    2    0    0  0.50619412848E+01  0.50898275921E+02 -0.28900158693E+03  0.30342573224E+03  0.77000000000E+02 0.  0.
   -5000001    1    1    2    0    0 -0.50619412848E+01 -0.50898275921E+02 -0.32306220215E+03  0.33602744561E+03  0.77000000000E+02 0.  0.
<mgrwt>
<rscale>  0 0.18514396E+03</rscale>
<asrwt>0</asrwt>
<pdfrwt beam="1">  1        1 0.89394051E-01 0.18514396E+03</pdfrwt>
<pdfrwt beam="2">  1       -1 0.19563853E-02 0.18514396E+03</pdfrwt>
<totfact> 0.25162000E+04</totfact>
</mgrwt>
</event>
<event>
 4    1  0.3281630E-004  0.5148577E+03  0.7818608E-02  0.1009972E+00
         -1   -1    0    0    0  501 -0.00000000000E+00  0.00000000000E+00  0.19175696526E+03  0.19175696533E+03  0.50400000000E-02 0. -1.
          1   -1    0    0  501    0  0.00000000000E+00 -0.00000000000E+00 -0.34559162879E+03  0.34559162883E+03  0.50400000000E-02 0.  1.
    5000001    1    1    2    0    0 -0.10037637584E+03  0.22419844909E+03 -0.77429252610E+02  0.26882085217E+03  0.77000000000E+02 0.  0.
   -5000001    1    1    2    0    0  0.10037637584E+03 -0.22419844909E+03 -0.76405410916E+02  0.26852774199E+03  0.77000000000E+02 0.  0.
<mgrwt>
<rscale>  0 0.51485766E+03</rscale>
<asrwt>0</asrwt>
<pdfrwt beam="1">  1        1 0.49370233E-01 0.51485766E+03</pdfrwt>
<pdfrwt beam="2">  1       -1 0.27393852E-01 0.51485766E+03</pdfrwt>
<totfact> 0.96259514E+02</totfact>
</mgrwt>
</event>
<event>
 4    1  0.3281630E-004  0.2007061E+03  0.7818608E-02  0.1149145E+00
          1   -1    0    0  501    0  0.00000000000E+00  0.00000000000E+00  0.42201723866E+03  0.42201723869E+03  0.50400000000E-02 0.  1.
         -1   -1    0    0    0  501 -0.00000000000E+00 -0.00000000000E+00 -0.23863317293E+02  0.23863317825E+02  0.50400000000E-02 0. -1.
    5000001    1    1    2    0    0 -0.61834179296E+02  0.16392416014E+02  0.18343832076E+03  0.20897558364E+03  0.77000000000E+02 0.  0.
   -5000001    1    1    2    0    0  0.61834179296E+02 -0.16392416014E+02  0.21471560060E+03  0.23690497288E+03  0.77000000000E+02 0.  0.
<mgrwt>
<rscale>  0 0.20070607E+03</rscale>
<asrwt>0</asrwt>
<pdfrwt beam="1">  1        1 0.60288173E-01 0.20070607E+03</pdfrwt>
<pdfrwt beam="2">  1       -1 0.34090456E-02 0.20070607E+03</pdfrwt>
<totfact> 0.18837729E+04</totfact>
</mgrwt>
</event>
<event>
 4    1  0.3281630E-004  0.2857767E+03  0.7818608E-02  0.1092575E+00
         -1   -1    0    0    0  501 -0.00000000000E+00  0.00000000000E+00  0.12848399435E+02  0.12848400423E+02  0.50400000000E-02 0. -1.
          1   -1    0    0  501    0  0.00000000000E+00 -0.00000000000E+00 -0.15890753722E+04  0.15890753722E+04  0.50400000000E-02 0.  1.
    5000001    1    1    2    0    0  0.19496096555E+02  0.11605760208E+03 -0.64645802575E+03  0.66157875105E+03  0.77000000000E+02 0.  0.
   -5000001    1    1    2    0    0 -0.19496096555E+02 -0.11605760208E+03 -0.92976894700E+03  0.94034502157E+03  0.77000000000E+02 0.  0.
<mgrwt>
<rscale>  0 0.28577667E+03</rscale>
<asrwt>0</asrwt>
<pdfrwt beam="1">  1        1 0.22701064E+00 0.28577667E+03</pdfrwt>
<pdfrwt beam="2">  1       -1 0.18354867E-02 0.28577667E+03</pdfrwt>
<totfact> 0.57814106E+03</totfact>
</mgrwt>
</event>
<event>
 4    1  0.3281630E-004  0.2585269E+03  0.7818608E-02  0.1108032E+00
         -1   -1    0    0    0  501 -0.00000000000E+00  0.00000000000E+00  0.19454019436E+02  0.19454020088E+02  0.50400000000E-02 0. -1.
          1   -1    0    0  501    0  0.00000000000E+00 -0.00000000000E+00 -0.85889890943E+03  0.85889890945E+03  0.50400000000E-02 0.  1.
    5000001    1    1    2    0    0  0.59446386084E+01  0.76990912851E+02 -0.18391579352E+03  0.21381524383E+03  0.77000000000E+02 0.  0.
   -5000001    1    1    2    0    0 -0.59446386084E+01 -0.76990912851E+02 -0.65552909648E+03  0.66453768570E+03  0.77000000000E+02 0.  0.
<mgrwt>
<rscale>  0 0.25852688E+03</rscale>
<asrwt>0</asrwt>
<pdfrwt beam="1">  1        1 0.12269982E+00 0.25852688E+03</pdfrwt>
<pdfrwt beam="2">  1       -1 0.27791462E-02 0.25852688E+03</pdfrwt>
<totfact> 0.97326589E+03</totfact>
</mgrwt>
</event>
<event>
 4    1  0.3281630E-004  0.1911861E+03  0.7818608E-02  0.1157396E+00
         -1   -1    0    0    0  501 -0.00000000000E+00  0.00000000000E+00  0.71558541925E+02  0.71558542102E+02  0.50400000000E-02 0. -1.
          1   -1    0    0  501    0  0.00000000000E+00 -0.00000000000E+00 -0.12770002005E+03  0.12770002015E+03  0.50400000000E-02 0.  1.
    5000001    1    1    2    0    0  0.32685096959E+02  0.28244842361E+02 -0.66264213793E+02  0.11039036513E+03  0.77000000000E+02 0.  0.
   -5000001    1    1    2    0    0 -0.32685096959E+02 -0.28244842361E+02  0.10122735666E+02  0.88868197127E+02  0.77000000000E+02 0.  0.
<mgrwt>
<rscale>  0 0.19118606E+03</rscale>
<asrwt>0</asrwt>
<pdfrwt beam="1">  1        1 0.18242860E-01 0.19118606E+03</pdfrwt>
<pdfrwt beam="2">  1       -1 0.10222649E-01 0.19118606E+03</pdfrwt>
<totfact> 0.16273548E+04</totfact>
</mgrwt>
</event>
<event>
 4    1  0.3281630E-004  0.2158035E+03  0.7818608E-02  0.1137051E+00
         -1   -1    0    0    0  501 -0.00000000000E+00  0.00000000000E+00  0.51182561911E+02  0.51182562160E+02  0.50400000000E-02 0.  1.
          1   -1    0    0  501    0  0.00000000000E+00 -0.00000000000E+00 -0.22747566708E+03  0.22747566714E+03  0.50400000000E-02 0. -1.
    5000001    1    1    2    0    0 -0.56549223909E+02 -0.49757231920E+02 -0.79960478817E+02  0.13415019577E+03  0.77000000000E+02 0.  0.
   -5000001    1    1    2    0    0  0.56549223909E+02  0.49757231920E+02 -0.96332626353E+02  0.14450803352E+03  0.77000000000E+02 0.  0.
<mgrwt>
<rscale>  0 0.21580350E+03</rscale>
<asrwt>0</asrwt>
<pdfrwt beam="1">  1        1 0.32496523E-01 0.21580350E+03</pdfrwt>
<pdfrwt beam="2">  1       -1 0.73117947E-02 0.21580350E+03</pdfrwt>
<totfact> 0.13158994E+04</totfact>
</mgrwt>
</event>
<event>
 4    1  0.3281630E-004  0.2166164E+03  0.7818608E-02  0.1136431E+00
         -1   -1    0    0    0  501 -0.00000000000E+00  0.00000000000E+00  0.10115202610E+02  0.10115203866E+02  0.50400000000E-02 0. -1.
          1   -1    0    0  501    0  0.00000000000E+00 -0.00000000000E+00 -0.11597066138E+04  0.11597066138E+04  0.50400000000E-02 0.  1.
    5000001    1    1    2    0    0 -0.16349833762E+02 -0.52813258232E+02 -0.29184662537E+03  0.30685503100E+03  0.77000000000E+02 0.  0.
   -5000001    1    1    2    0    0  0.16349833762E+02  0.52813258232E+02 -0.85774478583E+03  0.86296678669E+03  0.77000000000E+02 0.  0.
<mgrwt>
<rscale>  0 0.21661642E+03</rscale>
<asrwt>0</asrwt>
<pdfrwt beam="1">  1        1 0.16567229E+00 0.21661642E+03</pdfrwt>
<pdfrwt beam="2">  1       -1 0.14450298E-02 0.21661642E+03</pdfrwt>
<totfact> 0.15269129E+04</totfact>
</mgrwt>
</event>
<event>
 4    1  0.3281630E-004  0.2187777E+03  0.7818608E-02  0.1134798E+00
          1   -1    0    0  501    0  0.00000000000E+00  0.00000000000E+00  0.36956702460E+04  0.36956702460E+04  0.50400000000E-02 0. -1.
         -1   -1    0    0    0  501 -0.00000000000E+00 -0.00000000000E+00 -0.32378194667E+01  0.32378233893E+01  0.50400000000E-02 0.  1.
    5000001    1    1    2    0    0 -0.36277744730E+01 -0.35438604602E+02  0.30136505383E+04  0.30148445437E+04  0.77000000000E+02 0.  0.
   -5000001    1    1    2    0    0  0.36277744730E+01  0.35438604602E+02  0.67878188825E+03  0.68406352574E+03  0.77000000000E+02 0.  0.
<mgrwt>
<rscale>  0 0.21877770E+03</rscale>
<asrwt>0</asrwt>
<pdfrwt beam="1">  1        1 0.52794865E+00 0.21877770E+03</pdfrwt>
<pdfrwt beam="2">  1       -1 0.46254963E-03 0.21877770E+03</pdfrwt>
<totfact> 0.20275392E+03</totfact>
</mgrwt>
</event>
<event>
 4    1  0.3281630E-004  0.1399229E+04  0.7818608E-02  0.8954377E-01
         -1   -1    0    0    0  501 -0.00000000000E+00  0.00000000000E+00  0.42321857605E+03  0.42321857608E+03  0.50400000000E-02 0. -1.
          1   -1    0    0  501    0  0.00000000000E+00 -0.00000000000E+00 -0.11565189004E+04  0.11565189004E+04  0.50400000000E-02 0.  1.
    5000001    1    1    2    0    0  0.15109753863E+03 -0.62944886537E+03 -0.79929477261E+02  0.65677550322E+03  0.77000000000E+02 0.  0.
   -5000001    1    1    2    0    0 -0.15109753863E+03  0.62944886537E+03 -0.65337084711E+03  0.92296197329E+03  0.77000000000E+02 0.  0.
<mgrwt>
<rscale>  0 0.13992288E+04</rscale>
<asrwt>0</asrwt>
<pdfrwt beam="1">  1        1 0.16521698E+00 0.13992288E+04</pdfrwt>
<pdfrwt beam="2">  1       -1 0.60459797E-01 0.13992288E+04</pdfrwt>
<totfact> 0.35959840E+01</totfact>
</mgrwt>
</event>
<event>
 4    1  0.3281630E-004  0.1907416E+03  0.7818608E-02  0.1157794E+00
         -1   -1    0    0    0  501 -0.00000000000E+00  0.00000000000E+00  0.36877405995E+01  0.36877440436E+01  0.50400000000E-02 0. -1.
          1   -1    0    0  501    0  0.00000000000E+00 -0.00000000000E+00 -0.24664395681E+04  0.24664395681E+04  0.50400000000E-02 0.  1.
    5000001    1    1    2    0    0  0.53421828065E+02  0.68198547375E+01 -0.14426619895E+04  0.14457188586E+04  0.77000000000E+02 0.  0.
   -5000001    1    1    2    0    0 -0.53421828065E+02 -0.68198547375E+01 -0.10200898380E+04  0.10244084536E+04  0.77000000000E+02 0.  0.
<mgrwt>
<rscale>  0 0.19074164E+03</rscale>
<asrwt>0</asrwt>
<pdfrwt beam="1">  1        1 0.35234745E+00 0.19074164E+03</pdfrwt>
<pdfrwt beam="2">  1       -1 0.52682191E-03 0.19074164E+03</pdfrwt>
<totfact> 0.10252795E+04</totfact>
</mgrwt>
</event>
<event>
 4    1  0.3281630E-004  0.3113593E+03  0.7818608E-02  0.1079696E+00
          1   -1    0    0  501    0  0.00000000000E+00  0.00000000000E+00  0.16700234312E+03  0.16700234320E+03  0.50400000000E-02 0.  1.
         -1   -1    0    0    0  501 -0.00000000000E+00 -0.00000000000E+00 -0.14512465249E+03  0.14512465257E+03  0.50400000000E-02 0. -1.
    5000001    1    1    2    0    0  0.76248639871E+02 -0.11162437876E+03  0.16723689902E+02  0.15646897079E+03  0.77000000000E+02 0.  0.
   -5000001    1    1    2    0    0 -0.76248639871E+02  0.11162437876E+03  0.51540007338E+01  0.15565802498E+03  0.77000000000E+02 0.  0.
<mgrwt>
<rscale>  0 0.31135932E+03</rscale>
<asrwt>0</asrwt>
<pdfrwt beam="1">  1        1 0.23857478E-01 0.31135932E+03</pdfrwt>
<pdfrwt beam="2">  1       -1 0.20732093E-01 0.31135932E+03</pdfrwt>
<totfact> 0.38590713E+03</totfact>
</mgrwt>
</event>
<event>
 4    1  0.3281630E-004  0.4711536E+03  0.7818608E-02  0.1021595E+00
         -1   -1    0    0    0  501 -0.00000000000E+00  0.00000000000E+00  0.56108792692E+02  0.56108792918E+02  0.50400000000E-02 0. -1.
          1   -1    0    0  501    0  0.00000000000E+00 -0.00000000000E+00 -0.98908616161E+03  0.98908616163E+03  0.50400000000E-02 0.  1.
    5000001    1    1    2    0    0  0.11778685651E+02  0.16924466034E+03 -0.78631128527E+03  0.80808225437E+03  0.77000000000E+02 0.  0.
   -5000001    1    1    2    0    0 -0.11778685651E+02 -0.16924466034E+03 -0.14666608365E+03  0.23711270017E+03  0.77000000000E+02 0.  0.
<mgrwt>
<rscale>  0 0.47115361E+03</rscale>
<asrwt>0</asrwt>
<pdfrwt beam="1">  1        1 0.14129801E+00 0.47115361E+03</pdfrwt>
<pdfrwt beam="2">  1       -1 0.80155424E-02 0.47115361E+03</pdfrwt>
<totfact> 0.15852555E+03</totfact>
</mgrwt>
</event>
<event>
 4    1  0.3281630E-004  0.2414055E+03  0.7818608E-02  0.1118860E+00
         -1   -1    0    0    0  501 -0.00000000000E+00  0.00000000000E+00  0.28081656208E+02  0.28081656661E+02  0.50400000000E-02 0. -1.
          1   -1    0    0  501    0  0.00000000000E+00 -0.00000000000E+00 -0.51881387130E+03  0.51881387133E+03  0.50400000000E-02 0.  1.
    5000001    1    1    2    0    0 -0.92421394302E+02 -0.30237430768E+01 -0.26677393664E+03  0.29265712091E+03  0.77000000000E+02 0.  0.
   -5000001    1    1    2    0    0  0.92421394302E+02  0.30237430768E+01 -0.22395827845E+03  0.25423840708E+03  0.77000000000E+02 0.  0.
<mgrwt>
<rscale>  0 0.24140549E+03</rscale>
<asrwt>0</asrwt>
<pdfrwt beam="1">  1        1 0.74116262E-01 0.24140549E+03</pdfrwt>
<pdfrwt beam="2">  1       -1 0.40116655E-02 0.24140549E+03</pdfrwt>
<totfact> 0.11471139E+04</totfact>
</mgrwt>
</event>
<event>
 4    1  0.3281630E-004  0.3029338E+03  0.7818608E-02  0.1083783E+00
         -1   -1    0    0    0  501 -0.00000000000E+00  0.00000000000E+00  0.12288949489E+03  0.12288949500E+03  0.50400000000E-02 0.  1.
          1   -1    0    0  501    0  0.00000000000E+00 -0.00000000000E+00 -0.18668983435E+03  0.18668983442E+03  0.50400000000E-02 0. -1.
    5000001    1    1    2    0    0 -0.69602502280E+02  0.11004054267E+03 -0.39802204614E+02  0.15641817301E+03  0.77000000000E+02 0.  0.
   -5000001    1    1    2    0    0  0.69602502280E+02 -0.11004054267E+03 -0.23998134843E+02  0.15316115640E+03  0.77000000000E+02 0.  0.
<mgrwt>
<rscale>  0 0.30293378E+03</rscale>
<asrwt>0</asrwt>
<pdfrwt beam="1">  1        1 0.26669976E-01 0.30293378E+03</pdfrwt>
<pdfrwt beam="2">  1       -1 0.17555642E-01 0.30293378E+03</pdfrwt>
<totfact> 0.43815700E+03</totfact>
</mgrwt>
</event>
<event>
 4    1  0.3281630E-004  0.1479125E+04  0.7818608E-02  0.8898454E-01
         -1   -1    0    0    0  501 -0.00000000000E+00  0.00000000000E+00  0.37163090116E+03  0.37163090120E+03  0.50400000000E-02 0.  1.
          1   -1    0    0  501    0  0.00000000000E+00 -0.00000000000E+00 -0.14717634119E+04  0.14717634119E+04  0.50400000000E-02 0. -1.
    5000001    1    1    2    0    0  0.34172896843E+03  0.64371018652E+03 -0.42617469654E+03  0.84775902476E+03  0.77000000000E+02 0.  0.
   -5000001    1    1    2    0    0 -0.34172896843E+03 -0.64371018652E+03 -0.67395781420E+03  0.99563528835E+03  0.77000000000E+02 0.  0.
<mgrwt>
<rscale>  0 0.14791251E+04</rscale>
<asrwt>0</asrwt>
<pdfrwt beam="1">  1        1 0.21025191E+00 0.14791251E+04</pdfrwt>
<pdfrwt beam="2">  1       -1 0.53090130E-01 0.14791251E+04</pdfrwt>
<totfact> 0.28165552E+01</totfact>
</mgrwt>
</event>
<event>
 4    1  0.3281630E-004  0.2166436E+03  0.7818608E-02  0.1136410E+00
         -1   -1    0    0    0  501 -0.00000000000E+00  0.00000000000E+00  0.16091196770E+02  0.16091197559E+02  0.50400000000E-02 0. -1.
          1   -1    0    0  501    0  0.00000000000E+00 -0.00000000000E+00 -0.72919473491E+03  0.72919473492E+03  0.50400000000E-02 0.  1.
    5000001    1    1    2    0    0 -0.63614322325E+02  0.33903395690E+02 -0.44140520953E+03  0.45383232723E+03  0.77000000000E+02 0.  0.
   -5000001    1    1    2    0    0  0.63614322325E+02 -0.33903395690E+02 -0.27169832861E+03  0.29145360525E+03  0.77000000000E+02 0.  0.
<mgrwt>
<rscale>  0 0.21664364E+03</rscale>
<asrwt>0</asrwt>
<pdfrwt beam="1">  1        1 0.10417066E+00 0.21664364E+03</pdfrwt>
<pdfrwt beam="2">  1       -1 0.22987429E-02 0.21664364E+03</pdfrwt>
<totfact> 0.16244377E+04</totfact>
</mgrwt>
</event>
<event>
 4    1  0.3281630E-004  0.4018183E+03  0.7818608E-02  0.1043152E+00
         -1   -1    0    0    0  501 -0.00000000000E+00  0.00000000000E+00  0.42432742552E+02  0.42432742851E+02  0.50400000000E-02 0. -1.
          1   -1    0    0  501    0  0.00000000000E+00 -0.00000000000E+00 -0.95125785761E+03  0.95125785763E+03  0.50400000000E-02 0.  1.
    5000001    1    1    2    0    0  0.24227218939E+02 -0.17613331205E+03 -0.58586697024E+03  0.61707293618E+03  0.77000000000E+02 0.  0.
   -5000001    1    1    2    0    0 -0.24227218939E+02  0.17613331205E+03 -0.32295814482E+03  0.37661766430E+03  0.77000000000E+02 0.  0.
<mgrwt>
<rscale>  0 0.40181827E+03</rscale>
<asrwt>0</asrwt>
<pdfrwt beam="1">  1        1 0.13589397E+00 0.40181827E+03</pdfrwt>
<pdfrwt beam="2">  1       -1 0.60618210E-02 0.40181827E+03</pdfrwt>
<totfact> 0.25992080E+03</totfact>
</mgrwt>
</event>
<event>
 4    1  0.3281630E-004  0.2511110E+03  0.7818608E-02  0.1112605E+00
          1   -1    0    0  501    0  0.00000000000E+00  0.00000000000E+00  0.14026985875E+04  0.14026985875E+04  0.50400000000E-02 0. -1.
         -1   -1    0    0    0  501 -0.00000000000E+00 -0.00000000000E+00 -0.11238466444E+02  0.11238467575E+02  0.50400000000E-02 0.  1.
    5000001    1    1    2    0    0 -0.70544630379E+02  0.24624677113E+02  0.10629061411E+04  0.10683077199E+04  0.77000000000E+02 0.  0.
   -5000001    1    1    2    0    0  0.70544630379E+02 -0.24624677113E+02  0.32855397995E+03  0.34562933518E+03  0.77000000000E+02 0.  0.
<mgrwt>
<rscale>  0 0.25111099E+03</rscale>
<asrwt>0</asrwt>
<pdfrwt beam="1">  1        1 0.20038547E+00 0.25111099E+03</pdfrwt>
<pdfrwt beam="2">  1       -1 0.16054957E-02 0.25111099E+03</pdfrwt>
<totfact> 0.91651653E+03</totfact>
</mgrwt>
</event>
<event>
 4    1  0.3281630E-004  0.1928287E+03  0.7818608E-02  0.1155935E+00
          1   -1    0    0  501    0  0.00000000000E+00  0.00000000000E+00  0.15549407022E+03  0.15549407030E+03  0.50400000000E-02 0.  1.
         -1   -1    0    0    0  501 -0.00000000000E+00 -0.00000000000E+00 -0.59781852245E+02  0.59781852457E+02  0.50400000000E-02 0. -1.
    5000001    1    1    2    0    0  0.91605557243E+01  0.56833208248E+02  0.55967905718E+02  0.11124448666E+03  0.77000000000E+02 0.  0.
   -5000001    1    1    2    0    0 -0.91605557243E+01 -0.56833208248E+02  0.39744312258E+02  0.10403143610E+03  0.77000000000E+02 0.  0.
<mgrwt>
<rscale>  0 0.19282867E+03</rscale>
<asrwt>0</asrwt>
<pdfrwt beam="1">  1        1 0.22213439E-01 0.19282867E+03</pdfrwt>
<pdfrwt beam="2">  1       -1 0.85402646E-02 0.19282867E+03</pdfrwt>
<totfact> 0.16665998E+04</totfact>
</mgrwt>
</event>
<event>
 4    1  0.3281630E-004  0.3025624E+03  0.7818608E-02  0.1083967E+00
         -1   -1    0    0    0  501 -0.00000000000E+00  0.00000000000E+00  0.18102729922E+02  0.18102730624E+02  0.50400000000E-02 0.  1.
          1   -1    0    0  501    0  0.00000000000E+00 -0.00000000000E+00 -0.12642290484E+04  0.12642290484E+04  0.50400000000E-02 0. -1.
    5000001    1    1    2    0    0 -0.10859318262E+03  0.64439180516E+02 -0.48822917010E+03  0.51013881428E+03  0.77000000000E+02 0.  0.
   -5000001    1    1    2    0    0  0.10859318262E+03 -0.64439180516E+02 -0.75789714841E+03  0.77219296478E+03  0.77000000000E+02 0.  0.
<mgrwt>
<rscale>  0 0.30256237E+03</rscale>
<asrwt>0</asrwt>
<pdfrwt beam="1">  1        1 0.18060409E+00 0.30256237E+03</pdfrwt>
<pdfrwt beam="2">  1       -1 0.25861051E-02 0.30256237E+03</pdfrwt>
<totfact> 0.56239266E+03</totfact>
</mgrwt>
</event>
<event>
 4    1  0.3281630E-004  0.4503502E+03  0.7818608E-02  0.1027618E+00
          1   -1    0    0  501    0  0.00000000000E+00  0.00000000000E+00  0.35778574149E+03  0.35778574152E+03  0.50400000000E-02 0.  1.
         -1   -1    0    0    0  501 -0.00000000000E+00 -0.00000000000E+00 -0.14171558826E+03  0.14171558835E+03  0.50400000000E-02 0. -1.
    5000001    1    1    2    0    0 -0.16365395085E+03  0.86918742667E+02 -0.52782800597E+01  0.20073451048E+03  0.77000000000E+02 0.  0.
   -5000001    1    1    2    0    0  0.16365395085E+03 -0.86918742667E+02  0.22134843329E+03  0.29876681940E+03  0.77000000000E+02 0.  0.
<mgrwt>
<rscale>  0 0.45035016E+03</rscale>
<asrwt>0</asrwt>
<pdfrwt beam="1">  1        1 0.51112248E-01 0.45035016E+03</pdfrwt>
<pdfrwt beam="2">  1       -1 0.20245084E-01 0.45035016E+03</pdfrwt>
<totfact> 0.15290683E+03</totfact>
</mgrwt>
</event>
<event>
 4    1  0.3281630E-004  0.4166402E+03  0.7818608E-02  0.1038165E+00
         -1   -1    0    0    0  501 -0.00000000000E+00  0.00000000000E+00  0.83761945968E+02  0.83761946119E+02  0.50400000000E-02 0. -1.
          1   -1    0    0  501    0  0.00000000000E+00 -0.00000000000E+00 -0.51810239425E+03  0.51810239428E+03  0.50400000000E-02 0.  1.
    5000001    1    1    2    0    0  0.11724066051E+03 -0.14157824003E+03 -0.30478401678E+03  0.36415939835E+03  0.77000000000E+02 0.  0.
   -5000001    1    1    2    0    0 -0.11724066051E+03  0.14157824003E+03 -0.12955643151E+03  0.23770494204E+03  0.77000000000E+02 0.  0.
<mgrwt>
<rscale>  0 0.41664020E+03</rscale>
<asrwt>0</asrwt>
<pdfrwt beam="1">  1        1 0.74014626E-01 0.41664020E+03</pdfrwt>
<pdfrwt beam="2">  1       -1 0.11965993E-01 0.41664020E+03</pdfrwt>
<totfact> 0.21992350E+03</totfact>
</mgrwt>
</event>
<event>
 4    1  0.3281630E-004  0.1812290E+03  0.7818608E-02  0.1166619E+00
         -1   -1    0    0    0  501 -0.00000000000E+00  0.00000000000E+00  0.50198122641E+01  0.50198147943E+01  0.50400000000E-02 0.  1.
          1   -1    0    0  501    0  0.00000000000E+00 -0.00000000000E+00 -0.16357161870E+04  0.16357161870E+04  0.50400000000E-02 0. -1.
    5000001    1    1    2    0    0 -0.93635798980E+00 -0.47733508998E+02 -0.80067832309E+03  0.80578790120E+03  0.77000000000E+02 0.  0.
   -5000001    1    1    2    0    0  0.93635798980E+00  0.47733508998E+02 -0.83001805163E+03  0.83494810059E+03  0.77000000000E+02 0.  0.
<mgrwt>
<rscale>  0 0.18122903E+03</rscale>
<asrwt>0</asrwt>
<pdfrwt beam="1">  1        1 0.23367340E+00 0.18122903E+03</pdfrwt>
<pdfrwt beam="2">  1       -1 0.71711726E-03 0.18122903E+03</pdfrwt>
<totfact> 0.20715753E+04</totfact>
</mgrwt>
</event>
<event>
 4    1  0.3281630E-004  0.1828624E+03  0.7818608E-02  0.1165061E+00
         -1   -1    0    0    0  501 -0.00000000000E+00  0.00000000000E+00  0.80989218899E+01  0.80989234581E+01  0.50400000000E-02 0. -1.
          1   -1    0    0  501    0  0.00000000000E+00 -0.00000000000E+00 -0.10321948376E+04  0.10321948376E+04  0.50400000000E-02 0.  1.
    5000001    1    1    2    0    0 -0.29732555399E+02 -0.38663419152E+02 -0.55298516783E+03  0.56044667960E+03  0.77000000000E+02 0.  0.
   -5000001    1    1    2    0    0  0.29732555399E+02  0.38663419152E+02 -0.47111074790E+03  0.47984708149E+03  0.77000000000E+02 0.  0.
<mgrwt>
<rscale>  0 0.18286242E+03</rscale>
<asrwt>0</asrwt>
<pdfrwt beam="1">  1        1 0.14745632E+00 0.18286242E+03</pdfrwt>
<pdfrwt beam="2">  1       -1 0.11569896E-02 0.18286242E+03</pdfrwt>
<totfact> 0.25460406E+04</totfact>
</mgrwt>
</event>
<event>
 4    1  0.3281630E-004  0.1649273E+03  0.7818608E-02  0.1183244E+00
          1   -1    0    0  501    0  0.00000000000E+00  0.00000000000E+00  0.15614382456E+04  0.15614382457E+04  0.50400000000E-02 0.  1.
         -1   -1    0    0    0  501 -0.00000000000E+00 -0.00000000000E+00 -0.43551210256E+01  0.43551239419E+01  0.50400000000E-02 0. -1.
    5000001    1    1    2    0    0  0.22821084745E+02 -0.18377458473E+02  0.74467910753E+03  0.74922260115E+03  0.77000000000E+02 0.  0.
   -5000001    1    1    2    0    0 -0.22821084745E+02  0.18377458473E+02  0.81240401710E+03  0.81657076845E+03  0.77000000000E+02 0.  0.
<mgrwt>
<rscale>  0 0.16492732E+03</rscale>
<asrwt>0</asrwt>
<pdfrwt beam="1">  1        1 0.22306238E+00 0.16492732E+03</pdfrwt>
<pdfrwt beam="2">  1       -1 0.62216098E-03 0.16492732E+03</pdfrwt>
<totfact> 0.27982020E+04</totfact>
</mgrwt>
</event>
<event>
 4    1  0.3281630E-004  0.2378509E+03  0.7818608E-02  0.1121233E+00
          1   -1    0    0  501    0  0.00000000000E+00  0.00000000000E+00  0.13667154840E+03  0.13667154849E+03  0.50400000000E-02 0. -1.
         -1   -1    0    0    0  501 -0.00000000000E+00 -0.00000000000E+00 -0.10348358170E+03  0.10348358182E+03  0.50400000000E-02 0.  1.
    5000001    1    1    2    0    0 -0.48530901316E+02  0.32531168975E+02 -0.53364599417E+02  0.11040971791E+03  0.77000000000E+02 0.  0.
   -5000001    1    1    2    0    0  0.48530901316E+02 -0.32531168975E+02  0.86552566116E+02  0.12974541240E+03  0.77000000000E+02 0.  0.
<mgrwt>
<rscale>  0 0.23785089E+03</rscale>
<asrwt>0</asrwt>
<pdfrwt beam="1">  1        1 0.19524507E-01 0.23785089E+03</pdfrwt>
<pdfrwt beam="2">  1       -1 0.14783369E-01 0.23785089E+03</pdfrwt>
<totfact> 0.85089357E+03</totfact>
</mgrwt>
</event>
<event>
 4    1  0.3281630E-004  0.2206383E+03  0.7818608E-02  0.1133408E+00
         -1   -1    0    0    0  501 -0.00000000000E+00  0.00000000000E+00  0.14422309234E+02  0.14422310115E+02  0.50400000000E-02 0.  1.
          1   -1    0    0  501    0  0.00000000000E+00 -0.00000000000E+00 -0.84385372282E+03  0.84385372284E+03  0.50400000000E-02 0. -1.
    5000001    1    1    2    0    0 -0.26853431048E+01  0.66847008406E+02 -0.57816778586E+03  0.58709685931E+03  0.77000000000E+02 0.  0.
   -5000001    1    1    2    0    0  0.26853431048E+01 -0.66847008406E+02 -0.25126362773E+03  0.27117917365E+03  0.77000000000E+02 0.  0.
<mgrwt>
<rscale>  0 0.22063834E+03</rscale>
<asrwt>0</asrwt>
<pdfrwt beam="1">  1        1 0.12055050E+00 0.22063834E+03</pdfrwt>
<pdfrwt beam="2">  1       -1 0.20603305E-02 0.22063834E+03</pdfrwt>
<totfact> 0.15384767E+04</totfact>
</mgrwt>
</event>
<event>
 4    1  0.3281630E-004  0.2745839E+03  0.7818608E-02  0.1098684E+00
          1   -1    0    0  501    0  0.00000000000E+00  0.00000000000E+00  0.13063479204E+04  0.13063479204E+04  0.50400000000E-02 0.  1.
         -1   -1    0    0    0  501 -0.00000000000E+00 -0.00000000000E+00 -0.14428834105E+02  0.14428834985E+02  0.50400000000E-02 0. -1.
    5000001    1    1    2    0    0 -0.72898911181E+02  0.24578814182E+02  0.10484507374E+04  0.10540855365E+04  0.77000000000E+02 0.  0.
   -5000001    1    1    2    0    0  0.72898911181E+02 -0.24578814182E+02  0.24346834887E+03  0.26669121894E+03  0.77000000000E+02 0.  0.
<mgrwt>
<rscale>  0 0.27458389E+03</rscale>
<asrwt>0</asrwt>
<pdfrwt beam="1">  1        1 0.18662124E+00 0.27458389E+03</pdfrwt>
<pdfrwt beam="2">  1       -1 0.20612609E-02 0.27458389E+03</pdfrwt>
<totfact> 0.73534301E+03</totfact>
</mgrwt>
</event>
<event>
 4    1  0.3281630E-004  0.1795509E+03  0.7818608E-02  0.1168238E+00
         -1   -1    0    0    0  501 -0.00000000000E+00  0.00000000000E+00  0.58513981515E+03  0.58513981518E+03  0.50400000000E-02 0.  1.
          1   -1    0    0  501    0  0.00000000000E+00 -0.00000000000E+00 -0.13773858689E+02  0.13773859611E+02  0.50400000000E-02 0. -1.
    5000001    1    1    2    0    0 -0.40274982125E+02  0.53167881019E+01  0.35878490243E+03  0.36919635512E+03  0.77000000000E+02 0.  0.
   -5000001    1    1    2    0    0  0.40274982125E+02 -0.53167881019E+01  0.21258105404E+03  0.22971731967E+03  0.77000000000E+02 0.  0.
<mgrwt>
<rscale>  0 0.17955092E+03</rscale>
<asrwt>0</asrwt>
<pdfrwt beam="1">  1        1 0.19676943E-02 0.17955092E+03</pdfrwt>
<pdfrwt beam="2">  1       -1 0.83591395E-01 0.17955092E+03</pdfrwt>
<totfact> 0.89095700E+03</totfact>
</mgrwt>
</event>
<event>
 4    1  0.3281630E-004  0.2044890E+03  0.7818608E-02  0.1146006E+00
          1   -1    0    0  501    0  0.00000000000E+00  0.00000000000E+00  0.38618341760E+02  0.38618342089E+02  0.50400000000E-02 0.  1.
         -1   -1    0    0    0  501 -0.00000000000E+00 -0.00000000000E+00 -0.27069882143E+03  0.27069882148E+03  0.50400000000E-02 0. -1.
    5000001    1    1    2    0    0 -0.65100082644E+02 -0.81547146314E+01 -0.13849761852E+03  0.17150833935E+03  0.77000000000E+02 0.  0.
   -5000001    1    1    2    0    0  0.65100082644E+02  0.81547146314E+01 -0.93582861155E+02  0.13780882422E+03  0.77000000000E+02 0.  0.
<mgrwt>
<rscale>  0 0.20448902E+03</rscale>
<asrwt>0</asrwt>
<pdfrwt beam="1">  1        1 0.55169062E-02 0.20448902E+03</pdfrwt>
<pdfrwt beam="2">  1       -1 0.38671259E-01 0.20448902E+03</pdfrwt>
<totfact> 0.92644958E+03</totfact>
</mgrwt>
</event>
<event>
 4    1  0.3281630E-004  0.1756316E+03  0.7818608E-02  0.1172099E+00
          1   -1    0    0  501    0  0.00000000000E+00  0.00000000000E+00  0.80570647904E+03  0.80570647906E+03  0.50400000000E-02 0. -1.
         -1   -1    0    0    0  501 -0.00000000000E+00 -0.00000000000E+00 -0.95712452880E+01  0.95712466150E+01  0.50400000000E-02 0.  1.
    5000001    1    1    2    0    0 -0.31608433531E+02 -0.26051030387E+02  0.35053195908E+03  0.36121932893E+03  0.77000000000E+02 0.  0.
   -5000001    1    1    2    0    0  0.31608433531E+02  0.26051030387E+02  0.44560327467E+03  0.45405839674E+03  0.77000000000E+02 0.  0.
<mgrwt>
<rscale>  0 0.17563160E+03</rscale>
<asrwt>0</asrwt>
<pdfrwt beam="1">  1        1 0.11510096E+00 0.17563160E+03</pdfrwt>
<pdfrwt beam="2">  1       -1 0.13673205E-02 0.17563160E+03</pdfrwt>
<totfact> 0.29403640E+04</totfact>
</mgrwt>
</event>
<event>
 4    1  0.3281630E-004  0.2211420E+03  0.7818608E-02  0.1133035E+00
         -1   -1    0    0    0  501 -0.00000000000E+00  0.00000000000E+00  0.10325437808E+02  0.10325439038E+02  0.50400000000E-02 0. -1.
          1   -1    0    0  501    0  0.00000000000E+00 -0.00000000000E+00 -0.11840604715E+04  0.11840604715E+04  0.50400000000E-02 0.  1.
    5000001    1    1    2    0    0 -0.73033881601E+02  0.15407765943E+02 -0.73235346194E+03  0.74016345514E+03  0.77000000000E+02 0.  0.
   -5000001    1    1    2    0    0  0.73033881601E+02 -0.15407765943E+02 -0.44138157179E+03  0.45422245544E+03  0.77000000000E+02 0.  0.
<mgrwt>
<rscale>  0 0.22114198E+03</rscale>
<asrwt>0</asrwt>
<pdfrwt beam="1">  1        1 0.16915141E+00 0.22114198E+03</pdfrwt>
<pdfrwt beam="2">  1       -1 0.14750634E-02 0.22114198E+03</pdfrwt>
<totfact> 0.14290686E+04</totfact>
</mgrwt>
</event>
<event>
 4    1  0.3281630E-004  0.2062442E+03  0.7818608E-02  0.1144575E+00
         -1   -1    0    0    0  501 -0.00000000000E+00  0.00000000000E+00  0.47365909627E+02  0.47365909895E+02  0.50400000000E-02 0. -1.
          1   -1    0    0  501    0  0.00000000000E+00 -0.00000000000E+00 -0.22451091967E+03  0.22451091972E+03  0.50400000000E-02 0.  1.
    5000001    1    1    2    0    0 -0.57588403428E+02  0.18159011010E+02 -0.13147044842E+03  0.16388914759E+03  0.77000000000E+02 0.  0.
   -5000001    1    1    2    0    0  0.57588403428E+02 -0.18159011010E+02 -0.45674561617E+02  0.10798768203E+03  0.77000000000E+02 0.  0.
<mgrwt>
<rscale>  0 0.20624417E+03</rscale>
<asrwt>0</asrwt>
<pdfrwt beam="1">  1        1 0.32072988E-01 0.20624417E+03</pdfrwt>
<pdfrwt beam="2">  1       -1 0.67665587E-02 0.20624417E+03</pdfrwt>
<totfact> 0.14994826E+04</totfact>
</mgrwt>
</event>
<event>
 4    1  0.3281630E-004  0.2152378E+03  0.7818608E-02  0.1137484E+00
         -1   -1    0    0    0  501 -0.00000000000E+00  0.00000000000E+00  0.74494576576E+02  0.74494576746E+02  0.50400000000E-02 0.  1.
          1   -1    0    0  501    0  0.00000000000E+00 -0.00000000000E+00 -0.15547215216E+03  0.15547215224E+03  0.50400000000E-02 0. -1.
    5000001    1    1    2    0    0  0.47517741860E+02 -0.45753524936E+02 -0.19435830911E+01  0.10141054359E+03  0.77000000000E+02 0.  0.
   -5000001    1    1    2    0    0 -0.47517741860E+02  0.45753524936E+02 -0.79033992496E+02  0.12855618540E+03  0.77000000000E+02 0.  0.
<mgrwt>
<rscale>  0 0.21523784E+03</rscale>
<asrwt>0</asrwt>
<pdfrwt beam="1">  1        1 0.22210307E-01 0.21523784E+03</pdfrwt>
<pdfrwt beam="2">  1       -1 0.10642082E-01 0.21523784E+03</pdfrwt>
<totfact> 0.11985118E+04</totfact>
</mgrwt>
</event>
<event>
 4    1  0.3281630E-004  0.3086287E+03  0.7818608E-02  0.1081005E+00
         -1   -1    0    0    0  501 -0.00000000000E+00  0.00000000000E+00  0.23249146141E+02  0.23249146687E+02  0.50400000000E-02 0. -1.
          1   -1    0    0  501    0  0.00000000000E+00 -0.00000000000E+00 -0.10242493696E+04  0.10242493696E+04  0.50400000000E-02 0.  1.
    5000001    1    1    2    0    0  0.25284083949E+02  0.13051397461E+03 -0.54977114679E+03  0.57083315979E+03  0.77000000000E+02 0.  0.
   -5000001    1    1    2    0    0 -0.25284083949E+02 -0.13051397461E+03 -0.45122907670E+03  0.47666535655E+03  0.77000000000E+02 0.  0.
<mgrwt>
<rscale>  0 0.30862873E+03</rscale>
<asrwt>0</asrwt>
<pdfrwt beam="1">  1        1 0.14632131E+00 0.30862873E+03</pdfrwt>
<pdfrwt beam="2">  1       -1 0.33213073E-02 0.30862873E+03</pdfrwt>
<totfact> 0.56651322E+03</totfact>
</mgrwt>
</event>
<event>
 4    1  0.3281630E-004  0.2242601E+03  0.7818608E-02  0.1130746E+00
         -1   -1    0    0    0  501 -0.00000000000E+00  0.00000000000E+00  0.15321943416E+03  0.15321943424E+03  0.50400000000E-02 0. -1.
          1   -1    0    0  501    0  0.00000000000E+00 -0.00000000000E+00 -0.82059744225E+02  0.82059744380E+02  0.50400000000E-02 0.  1.
    5000001    1    1    2    0    0 -0.31781425662E+02  0.64289065006E+02 -0.50665955843E+01  0.10534615934E+03  0.77000000000E+02 0.  0.
   -5000001    1    1    2    0    0  0.31781425662E+02 -0.64289065006E+02  0.76226285521E+02  0.12993301929E+03  0.77000000000E+02 0.  0.
<mgrwt>
<rscale>  0 0.22426010E+03</rscale>
<asrwt>0</asrwt>
<pdfrwt beam="1">  1        1 0.11722821E-01 0.22426010E+03</pdfrwt>
<pdfrwt beam="2">  1       -1 0.21888490E-01 0.22426010E+03</pdfrwt>
<totfact> 0.87973435E+03</totfact>
</mgrwt>
</event>
<event>
 4    1  0.3281630E-004  0.1871271E+03  0.7818608E-02  0.1161078E+00
         -1   -1    0    0    0  501 -0.00000000000E+00  0.00000000000E+00  0.56365971995E+01  0.56365994528E+01  0.50400000000E-02 0. -1.
          1   -1    0    0  501    0  0.00000000000E+00 -0.00000000000E+00 -0.15530881609E+04  0.15530881609E+04  0.50400000000E-02 0.  1.
    5000001    1    1    2    0    0 -0.52927260494E+02  0.29653549014E+01 -0.80603615979E+03  0.81143907912E+03  0.77000000000E+02 0.  0.
   -5000001    1    1    2    0    0  0.52927260494E+02 -0.29653549014E+01 -0.74141540393E+03  0.74728568127E+03  0.77000000000E+02 0.  0.
<mgrwt>
<rscale>  0 0.18712706E+03</rscale>
<asrwt>0</asrwt>
<pdfrwt beam="1">  1        1 0.22186946E+00 0.18712706E+03</pdfrwt>
<pdfrwt beam="2">  1       -1 0.80522933E-03 0.18712706E+03</pdfrwt>
<totfact> 0.19745838E+04</totfact>
</mgrwt>
</event>
<event>
 4    1  0.3281630E-004  0.2406499E+03  0.7818608E-02  0.1119361E+00
          1   -1    0    0  501    0  0.00000000000E+00  0.00000000000E+00  0.10817017076E+03  0.10817017087E+03  0.50400000000E-02 0.  1.
         -1   -1    0    0    0  501 -0.00000000000E+00 -0.00000000000E+00 -0.13384549050E+03  0.13384549060E+03  0.50400000000E-02 0. -1.
    5000001    1    1    2    0    0  0.44403137813E+02  0.79849661911E+02  0.14373507140E+01  0.11949340204E+03  0.77000000000E+02 0.  0.
   -5000001    1    1    2    0    0 -0.44403137813E+02 -0.79849661911E+02 -0.27112670459E+02  0.12252225942E+03  0.77000000000E+02 0.  0.
<mgrwt>
<rscale>  0 0.24064987E+03</rscale>
<asrwt>0</asrwt>
<pdfrwt beam="1">  1        1 0.15452882E-01 0.24064987E+03</pdfrwt>
<pdfrwt beam="2">  1       -1 0.19120784E-01 0.24064987E+03</pdfrwt>
<totfact> 0.76447810E+03</totfact>
</mgrwt>
</event>
<event>
 4    1  0.3281630E-004  0.3376267E+03  0.7818608E-02  0.1067811E+00
          1   -1    0    0  501    0  0.00000000000E+00  0.00000000000E+00  0.15644390652E+03  0.15644390660E+03  0.50400000000E-02 0. -1.
         -1   -1    0    0    0  501 -0.00000000000E+00 -0.00000000000E+00 -0.18216081390E+03  0.18216081397E+03  0.50400000000E-02 0.  1.
    5000001    1    1    2    0    0  0.16606374663E+02 -0.14366793068E+03 -0.53629669782E+02  0.17239891956E+03  0.77000000000E+02 0.  0.
   -5000001    1    1    2    0    0 -0.16606374663E+02  0.14366793068E+03  0.27912762407E+02  0.16620580101E+03  0.77000000000E+02 0.  0.
<mgrwt>
<rscale>  0 0.33762671E+03</rscale>
<asrwt>0</asrwt>
<pdfrwt beam="1">  1        1 0.22349130E-01 0.33762671E+03</pdfrwt>
<pdfrwt beam="2">  1       -1 0.26022973E-01 0.33762671E+03</pdfrwt>
<totfact> 0.28848175E+03</totfact>
</mgrwt>
</event>
<event>
 4    1  0.3281630E-004  0.2217099E+03  0.7818608E-02  0.1132615E+00
         -1   -1    0    0    0  501 -0.00000000000E+00  0.00000000000E+00  0.29320075572E+02  0.29320076005E+02  0.50400000000E-02 0. -1.
          1   -1    0    0  501    0  0.00000000000E+00 -0.00000000000E+00 -0.41912654237E+03  0.41912654240E+03  0.50400000000E-02 0.  1.
    5000001    1    1    2    0    0  0.31982584597E+02 -0.20498867764E+02 -0.53074596054E+02  0.10094058670E+03  0.77000000000E+02 0.  0.
   -5000001    1    1    2    0    0 -0.31982584597E+02  0.20498867764E+02 -0.33673187075E+03  0.34750603171E+03  0.77000000000E+02 0.  0.
<mgrwt>
<rscale>  0 0.22170992E+03</rscale>
<asrwt>0</asrwt>
<pdfrwt beam="1">  1        1 0.59875217E-01 0.22170992E+03</pdfrwt>
<pdfrwt beam="2">  1       -1 0.41885825E-02 0.22170992E+03</pdfrwt>
<totfact> 0.14108977E+04</totfact>
</mgrwt>
</event>
<event>
 4    1  0.3281630E-004  0.3721911E+03  0.7818608E-02  0.1053858E+00
         -1   -1    0    0    0  501 -0.00000000000E+00  0.00000000000E+00  0.11779056699E+04  0.11779056699E+04  0.50400000000E-02 0. -1.
          1   -1    0    0  501    0  0.00000000000E+00 -0.00000000000E+00 -0.29400951976E+02  0.29400952408E+02  0.50400000000E-02 0.  1.
    5000001    1    1    2    0    0  0.17633583747E+02  0.16838593179E+03  0.55431352122E+03  0.58468559509E+03  0.77000000000E+02 0.  0.
   -5000001    1    1    2    0    0 -0.17633583747E+02 -0.16838593179E+03  0.59419119666E+03  0.62262102718E+03  0.77000000000E+02 0.  0.
<mgrwt>
<rscale>  0 0.37219107E+03</rscale>
<asrwt>0</asrwt>
<pdfrwt beam="1">  1        1 0.42001354E-02 0.37219107E+03</pdfrwt>
<pdfrwt beam="2">  1       -1 0.16827226E+00 0.37219107E+03</pdfrwt>
<totfact> 0.58878692E+02</totfact>
</mgrwt>
</event>
<event>
 4    1  0.3281630E-004  0.2047794E+03  0.7818608E-02  0.1145768E+00
          1   -1    0    0  501    0  0.00000000000E+00  0.00000000000E+00  0.21510272566E+03  0.21510272572E+03  0.50400000000E-02 0.  1.
         -1   -1    0    0    0  501 -0.00000000000E+00 -0.00000000000E+00 -0.48737871436E+02  0.48737871697E+02  0.50400000000E-02 0. -1.
    5000001    1    1    2    0    0  0.61421588925E+02 -0.13966886506E+02  0.51967599061E+02  0.11223776930E+03  0.77000000000E+02 0.  0.
   -5000001    1    1    2    0    0 -0.61421588925E+02  0.13966886506E+02  0.11439725517E+03  0.15160282812E+03  0.77000000000E+02 0.  0.
<mgrwt>
<rscale>  0 0.20477938E+03</rscale>
<asrwt>0</asrwt>
<pdfrwt beam="1">  1        1 0.30728961E-01 0.20477938E+03</pdfrwt>
<pdfrwt beam="2">  1       -1 0.69625530E-02 0.20477938E+03</pdfrwt>
<totfact> 0.15146233E+04</totfact>
</mgrwt>
</event>
<event>
 4    1  0.3281630E-004  0.2917585E+03  0.7818608E-02  0.1089435E+00
          1   -1    0    0  501    0  0.00000000000E+00  0.00000000000E+00  0.76270578510E+03  0.76270578511E+03  0.50400000000E-02 0.  1.
         -1   -1    0    0    0  501 -0.00000000000E+00 -0.00000000000E+00 -0.27901660492E+02  0.27901660947E+02  0.50400000000E-02 0. -1.
    5000001    1    1    2    0    0  0.93852848458E+02  0.80738241874E+02  0.35392446233E+03  0.38277741038E+03  0.77000000000E+02 0.  0.
   -5000001    1    1    2    0    0 -0.93852848458E+02 -0.80738241874E+02  0.38087966228E+03  0.40783003568E+03  0.77000000000E+02 0.  0.
<mgrwt>
<rscale>  0 0.29175852E+03</rscale>
<asrwt>0</asrwt>
<pdfrwt beam="1">  1        1 0.10895797E+00 0.29175852E+03</pdfrwt>
<pdfrwt beam="2">  1       -1 0.39859513E-02 0.29175852E+03</pdfrwt>
<totfact> 0.68476469E+03</totfact>
</mgrwt>
</event>
<event>
 4    1  0.3281630E-004  0.2998052E+03  0.7818608E-02  0.1085338E+00
         -1   -1    0    0    0  501 -0.00000000000E+00  0.00000000000E+00  0.37655701792E+02  0.37655702129E+02  0.50400000000E-02 0.  1.
          1   -1    0    0  501    0  0.00000000000E+00 -0.00000000000E+00 -0.59674334623E+03  0.59674334625E+03  0.50400000000E-02 0. -1.
    5000001    1    1    2    0    0  0.28421755991E+02  0.95109518350E+02 -0.10649162943E+03  0.16469087356E+03  0.77000000000E+02 0.  0.
   -5000001    1    1    2    0    0 -0.28421755991E+02 -0.95109518350E+02 -0.45259601501E+03  0.46970817482E+03  0.77000000000E+02 0.  0.
<mgrwt>
<rscale>  0 0.29980520E+03</rscale>
<asrwt>0</asrwt>
<pdfrwt beam="1">  1        1 0.85249044E-01 0.29980520E+03</pdfrwt>
<pdfrwt beam="2">  1       -1 0.53793863E-02 0.29980520E+03</pdfrwt>
<totfact> 0.61866641E+03</totfact>
</mgrwt>
</event>
<event>
 4    1  0.3281630E-004  0.2126568E+03  0.7818608E-02  0.1139479E+00
          1   -1    0    0  501    0  0.00000000000E+00  0.00000000000E+00  0.12154468169E+03  0.12154468180E+03  0.50400000000E-02 0.  1.
         -1   -1    0    0    0  501 -0.00000000000E+00 -0.00000000000E+00 -0.93017044844E+02  0.93017044980E+02  0.50400000000E-02 0. -1.
    5000001    1    1    2    0    0  0.66657035324E+02  0.24899821086E+02  0.32130227564E+02  0.10965634032E+03  0.77000000000E+02 0.  0.
   -5000001    1    1    2    0    0 -0.66657035324E+02 -0.24899821086E+02 -0.36025907172E+01  0.10490538646E+03  0.77000000000E+02 0.  0.
<mgrwt>
<rscale>  0 0.21265679E+03</rscale>
<asrwt>0</asrwt>
<pdfrwt beam="1">  1        1 0.17363526E-01 0.21265679E+03</pdfrwt>
<pdfrwt beam="2">  1       -1 0.13288149E-01 0.21265679E+03</pdfrwt>
<totfact> 0.11632802E+04</totfact>
</mgrwt>
</event>
<event>
 4    1  0.3281630E-004  0.2455282E+03  0.7818608E-02  0.1116164E+00
          1   -1    0    0  501    0  0.00000000000E+00  0.00000000000E+00  0.67732158481E+02  0.67732158669E+02  0.50400000000E-02 0.  1.
         -1   -1    0    0    0  501 -0.00000000000E+00 -0.00000000000E+00 -0.22250909839E+03  0.22250909845E+03  0.50400000000E-02 0. -1.
    5000001    1    1    2    0    0  0.93979484733E+02  0.52389895926E+00 -0.56588593398E+02  0.13402867948E+03  0.77000000000E+02 0.  0.
   -5000001    1    1    2    0    0 -0.93979484733E+02 -0.52389895926E+00 -0.98188346513E+02  0.15621257764E+03  0.77000000000E+02 0.  0.
<mgrwt>
<rscale>  0 0.24552818E+03</rscale>
<asrwt>0</asrwt>
<pdfrwt beam="1">  1        1 0.96760227E-02 0.24552818E+03</pdfrwt>
<pdfrwt beam="2">  1       -1 0.31787014E-01 0.24552818E+03</pdfrwt>
<totfact> 0.61226754E+03</totfact>
</mgrwt>
</event>
<event>
 4    1  0.3281630E-004  0.3839067E+03  0.7818608E-02  0.1049499E+00
         -1   -1    0    0    0  501 -0.00000000000E+00  0.00000000000E+00  0.40426704693E+03  0.40426704697E+03  0.50400000000E-02 0. -1.
          1   -1    0    0  501    0  0.00000000000E+00 -0.00000000000E+00 -0.91142955438E+02  0.91142955578E+02  0.50400000000E-02 0.  1.
    5000001    1    1    2    0    0 -0.91960093605E+02 -0.14963245129E+03  0.14572199694E+03  0.24085354406E+03  0.77000000000E+02 0.  0.
   -5000001    1    1    2    0    0  0.91960093605E+02  0.14963245129E+03  0.16740209455E+03  0.25455645848E+03  0.77000000000E+02 0.  0.
<mgrwt>
<rscale>  0 0.38390673E+03</rscale>
<asrwt>0</asrwt>
<pdfrwt beam="1">  1        1 0.13020422E-01 0.38390673E+03</pdfrwt>
<pdfrwt beam="2">  1       -1 0.57752436E-01 0.38390673E+03</pdfrwt>
<totfact> 0.14141011E+03</totfact>
</mgrwt>
</event>
<event>
 4    1  0.3281630E-004  0.2129266E+03  0.7818608E-02  0.1139269E+00
         -1   -1    0    0    0  501 -0.00000000000E+00  0.00000000000E+00  0.94959922220E+01  0.94959935595E+01  0.50400000000E-02 0.  1.
          1   -1    0    0  501    0  0.00000000000E+00 -0.00000000000E+00 -0.11936020530E+04  0.11936020530E+04  0.50400000000E-02 0. -1.
    5000001    1    1    2    0    0  0.71664645230E+02 -0.10216595681E+02 -0.66468435157E+03  0.67303379367E+03  0.77000000000E+02 0.  0.
   -5000001    1    1    2    0    0 -0.71664645230E+02  0.10216595681E+02 -0.51942170921E+03  0.53006425290E+03  0.77000000000E+02 0.  0.
<mgrwt>
<rscale>  0 0.21292662E+03</rscale>
<asrwt>0</asrwt>
<pdfrwt beam="1">  1        1 0.17051448E+00 0.21292662E+03</pdfrwt>
<pdfrwt beam="2">  1       -1 0.13565712E-02 0.21292662E+03</pdfrwt>
<totfact> 0.15868763E+04</totfact>
</mgrwt>
</event>
<event>
 4    1  0.3281630E-004  0.2113415E+03  0.7818608E-02  0.1140508E+00
          1   -1    0    0  501    0  0.00000000000E+00  0.00000000000E+00  0.11747178023E+04  0.11747178023E+04  0.50400000000E-02 0.  1.
         -1   -1    0    0    0  501 -0.00000000000E+00 -0.00000000000E+00 -0.95055267066E+01  0.95055280427E+01  0.50400000000E-02 0. -1.
    5000001    1    1    2    0    0 -0.52007474984E+02  0.49985210777E+02  0.61528555660E+03  0.62426646147E+03  0.77000000000E+02 0.  0.
   -5000001    1    1    2    0    0  0.52007474984E+02 -0.49985210777E+02  0.54992671895E+03  0.55995686884E+03  0.77000000000E+02 0.  0.
<mgrwt>
<rscale>  0 0.21134155E+03</rscale>
<asrwt>0</asrwt>
<pdfrwt beam="1">  1        1 0.16781689E+00 0.21134155E+03</pdfrwt>
<pdfrwt beam="2">  1       -1 0.13579320E-02 0.21134155E+03</pdfrwt>
<totfact> 0.16303927E+04</totfact>
</mgrwt>
</event>
<event>
 4    1  0.3281630E-004  0.2342138E+03  0.7818608E-02  0.1123709E+00
          1   -1    0    0  501    0  0.00000000000E+00  0.00000000000E+00  0.13896871715E+03  0.13896871724E+03  0.50400000000E-02 0. -1.
         -1   -1    0    0    0  501 -0.00000000000E+00 -0.00000000000E+00 -0.98684263611E+02  0.98684263739E+02  0.50400000000E-02 0.  1.
    5000001    1    1    2    0    0  0.35761832477E+02 -0.79069414464E+02  0.39662238243E+01  0.11608450326E+03  0.77000000000E+02 0.  0.
   -5000001    1    1    2    0    0 -0.35761832477E+02  0.79069414464E+02  0.36318229716E+02  0.12156847772E+03  0.77000000000E+02 0.  0.
<mgrwt>
<rscale>  0 0.23421380E+03</rscale>
<asrwt>0</asrwt>
<pdfrwt beam="1">  1        1 0.19852674E-01 0.23421380E+03</pdfrwt>
<pdfrwt beam="2">  1       -1 0.14097752E-01 0.23421380E+03</pdfrwt>
<totfact> 0.89696169E+03</totfact>
</mgrwt>
</event>
<event>
 4    1  0.3281630E-004  0.3535980E+03  0.7818608E-02  0.1061148E+00
         -1   -1    0    0    0  501 -0.00000000000E+00  0.00000000000E+00  0.10641534963E+03  0.10641534975E+03  0.50400000000E-02 0. -1.
          1   -1    0    0  501    0  0.00000000000E+00 -0.00000000000E+00 -0.29373475509E+03  0.29373475513E+03  0.50400000000E-02 0.  1.
    5000001    1    1    2    0    0  0.11078163367E+03 -0.11405571612E+03 -0.85851303172E+02  0.19641976223E+03  0.77000000000E+02 0.  0.
   -5000001    1    1    2    0    0 -0.11078163367E+03  0.11405571612E+03 -0.10146810229E+03  0.20373034266E+03  0.77000000000E+02 0.  0.
<mgrwt>
<rscale>  0 0.35359800E+03</rscale>
<asrwt>0</asrwt>
<pdfrwt beam="1">  1        1 0.41962108E-01 0.35359800E+03</pdfrwt>
<pdfrwt beam="2">  1       -1 0.15202193E-01 0.35359800E+03</pdfrwt>
<totfact> 0.31212532E+03</totfact>
</mgrwt>
</event>
<event>
 4    1  0.3281630E-004  0.1915836E+03  0.7818608E-02  0.1157041E+00
         -1   -1    0    0    0  501 -0.00000000000E+00  0.00000000000E+00  0.52689525106E+02  0.52689525347E+02  0.50400000000E-02 0. -1.
          1   -1    0    0  501    0  0.00000000000E+00 -0.00000000000E+00 -0.17415354149E+03  0.17415354156E+03  0.50400000000E-02 0.  1.
    5000001    1    1    2    0    0  0.20636200821E+02  0.28913030246E+02 -0.11348838533E+03  0.14167014402E+03  0.77000000000E+02 0.  0.
   -5000001    1    1    2    0    0 -0.20636200821E+02 -0.28913030246E+02 -0.79756310534E+01  0.85172922887E+02  0.77000000000E+02 0.  0.
<mgrwt>
<rscale>  0 0.19158358E+03</rscale>
<asrwt>0</asrwt>
<pdfrwt beam="1">  1        1 0.24879077E-01 0.19158358E+03</pdfrwt>
<pdfrwt beam="2">  1       -1 0.75270751E-02 0.19158358E+03</pdfrwt>
<totfact> 0.17476548E+04</totfact>
</mgrwt>
</event>
<event>
 4    1  0.3281630E-004  0.3525874E+03  0.7818608E-02  0.1061558E+00
          1   -1    0    0  501    0  0.00000000000E+00  0.00000000000E+00  0.14682783480E+03  0.14682783489E+03  0.50400000000E-02 0.  1.
         -1   -1    0    0    0  501 -0.00000000000E+00 -0.00000000000E+00 -0.21167285346E+03  0.21167285352E+03  0.50400000000E-02 0. -1.
    5000001    1    1    2    0    0 -0.19622217468E+01  0.15627757791E+03 -0.59779797221E+02  0.18419868573E+03  0.77000000000E+02 0.  0.
   -5000001    1    1    2    0    0  0.19622217468E+01 -0.15627757791E+03 -0.50652214403E+01  0.17430200268E+03  0.77000000000E+02 0.  0.
<mgrwt>
<rscale>  0 0.35258739E+03</rscale>
<asrwt>0</asrwt>
<pdfrwt beam="1">  1        1 0.20975405E-01 0.35258739E+03</pdfrwt>
<pdfrwt beam="2">  1       -1 0.30238979E-01 0.35258739E+03</pdfrwt>
<totfact> 0.24287598E+03</totfact>
</mgrwt>
</event>
<event>
 4    1  0.3281630E-004  0.1862955E+03  0.7818608E-02  0.1161846E+00
          1   -1    0    0  501    0  0.00000000000E+00  0.00000000000E+00  0.74937942880E+03  0.74937942882E+03  0.50400000000E-02 0.  1.
         -1   -1    0    0    0  501 -0.00000000000E+00 -0.00000000000E+00 -0.11578250002E+02  0.11578251099E+02  0.50400000000E-02 0. -1.
    5000001    1    1    2    0    0 -0.49793702923E+02  0.14636890710E+02  0.39887540753E+03  0.40954150236E+03  0.77000000000E+02 0.  0.
   -5000001    1    1    2    0    0  0.49793702923E+02 -0.14636890710E+02  0.33892577127E+03  0.35141617756E+03  0.77000000000E+02 0.  0.
<mgrwt>
<rscale>  0 0.18629549E+03</rscale>
<asrwt>0</asrwt>
<pdfrwt beam="1">  1        1 0.10705424E+00 0.18629549E+03</pdfrwt>
<pdfrwt beam="2">  1       -1 0.16540352E-02 0.18629549E+03</pdfrwt>
<totfact> 0.24945494E+04</totfact>
</mgrwt>
</event>
<event>
 4    1  0.3281630E-004  0.1989685E+03  0.7818608E-02  0.1150612E+00
          1   -1    0    0  501    0  0.00000000000E+00  0.00000000000E+00  0.39725682522E+03  0.39725682525E+03  0.50400000000E-02 0. -1.
         -1   -1    0    0    0  501 -0.00000000000E+00 -0.00000000000E+00 -0.24913658175E+02  0.24913658684E+02  0.50400000000E-02 0.  1.
    5000001    1    1    2    0    0  0.36326367636E+02 -0.38681854008E+02  0.11414828084E+03  0.14756259971E+03  0.77000000000E+02 0.  0.
   -5000001    1    1    2    0    0 -0.36326367636E+02  0.38681854008E+02  0.25819488621E+03  0.27460788423E+03  0.77000000000E+02 0.  0.
<mgrwt>
<rscale>  0 0.19896855E+03</rscale>
<asrwt>0</asrwt>
<pdfrwt beam="1">  1        1 0.56750973E-01 0.19896855E+03</pdfrwt>
<pdfrwt beam="2">  1       -1 0.35590942E-02 0.19896855E+03</pdfrwt>
<totfact> 0.19075626E+04</totfact>
</mgrwt>
</event>
<event>
 4    1  0.3281630E-004  0.3907830E+03  0.7818608E-02  0.1047019E+00
          1   -1    0    0  501    0  0.00000000000E+00  0.00000000000E+00  0.12469309010E+04  0.12469309010E+04  0.50400000000E-02 0. -1.
         -1   -1    0    0    0  501 -0.00000000000E+00 -0.00000000000E+00 -0.30617452557E+02  0.30617452971E+02  0.50400000000E-02 0.  1.
    5000001    1    1    2    0    0  0.16746090705E+03  0.61191345349E+02  0.53794026447E+03  0.57192330279E+03  0.77000000000E+02 0.  0.
   -5000001    1    1    2    0    0 -0.16746090705E+03 -0.61191345349E+02  0.67837318397E+03  0.70562505119E+03  0.77000000000E+02 0.  0.
<mgrwt>
<rscale>  0 0.39078305E+03</rscale>
<asrwt>0</asrwt>
<pdfrwt beam="1">  1        1 0.17813301E+00 0.39078305E+03</pdfrwt>
<pdfrwt beam="2">  1       -1 0.43739212E-02 0.39078305E+03</pdfrwt>
<totfact> 0.26440055E+03</totfact>
</mgrwt>
</event>
<event>
 4    1  0.3281630E-004  0.1976665E+03  0.7818608E-02  0.1151723E+00
          1   -1    0    0  501    0  0.00000000000E+00  0.00000000000E+00  0.68256729014E+03  0.68256729016E+03  0.50400000000E-02 0. -1.
         -1   -1    0    0    0  501 -0.00000000000E+00 -0.00000000000E+00 -0.14310692555E+02  0.14310693443E+02  0.50400000000E-02 0.  1.
    5000001    1    1    2    0    0  0.59562124099E+02 -0.17068514990E+02  0.33474017655E+03  0.34902573921E+03  0.77000000000E+02 0.  0.
   -5000001    1    1    2    0    0 -0.59562124099E+02  0.17068514990E+02  0.33351642103E+03  0.34785224439E+03  0.77000000000E+02 0.  0.
<mgrwt>
<rscale>  0 0.19766650E+03</rscale>
<asrwt>0</asrwt>
<pdfrwt beam="1">  1        1 0.97509611E-01 0.19766650E+03</pdfrwt>
<pdfrwt beam="2">  1       -1 0.20443847E-02 0.19766650E+03</pdfrwt>
<totfact> 0.21038176E+04</totfact>
</mgrwt>
</event>
<event>
 4    1  0.3281630E-004  0.3135535E+03  0.7818608E-02  0.1078655E+00
         -1   -1    0    0    0  501 -0.00000000000E+00  0.00000000000E+00  0.44212230542E+02  0.44212230829E+02  0.50400000000E-02 0. -1.
          1   -1    0    0  501    0  0.00000000000E+00 -0.00000000000E+00 -0.55593107384E+03  0.55593107386E+03  0.50400000000E-02 0.  1.
    5000001    1    1    2    0    0 -0.10440714587E+03  0.87943542368E+02 -0.24843807691E+03  0.29374376046E+03  0.77000000000E+02 0.  0.
   -5000001    1    1    2    0    0  0.10440714587E+03 -0.87943542368E+02 -0.26328076639E+03  0.30639954423E+03  0.77000000000E+02 0.  0.
<mgrwt>
<rscale>  0 0.31355352E+03</rscale>
<asrwt>0</asrwt>
<pdfrwt beam="1">  1        1 0.79418721E-01 0.31355352E+03</pdfrwt>
<pdfrwt beam="2">  1       -1 0.63160333E-02 0.31355352E+03</pdfrwt>
<totfact> 0.53491360E+03</totfact>
</mgrwt>
</event>
<event>
 4    1  0.3281630E-004  0.2524443E+03  0.7818608E-02  0.1111770E+00
         -1   -1    0    0    0  501 -0.00000000000E+00  0.00000000000E+00  0.33535097738E+03  0.33535097742E+03  0.50400000000E-02 0. -1.
          1   -1    0    0  501    0  0.00000000000E+00 -0.00000000000E+00 -0.47508521982E+02  0.47508522249E+02  0.50400000000E-02 0.  1.
    5000001    1    1    2    0    0 -0.74103416957E+02 -0.60834971130E+02  0.18710652372E+03  0.22389743486E+03  0.77000000000E+02 0.  0.
   -5000001    1    1    2    0    0  0.74103416957E+02  0.60834971130E+02  0.10073593168E+03  0.15896206481E+03  0.77000000000E+02 0.  0.
<mgrwt>
<rscale>  0 0.25244429E+03</rscale>
<asrwt>0</asrwt>
<pdfrwt beam="1">  1        1 0.67869319E-02 0.25244429E+03</pdfrwt>
<pdfrwt beam="2">  1       -1 0.47907281E-01 0.25244429E+03</pdfrwt>
<totfact> 0.48030978E+03</totfact>
</mgrwt>
</event>
<event>
 4    1  0.3281630E-004  0.1981668E+03  0.7818608E-02  0.1151295E+00
          1   -1    0    0  501    0  0.00000000000E+00  0.00000000000E+00  0.13189828348E+03  0.13189828358E+03  0.50400000000E-02 0.  1.
         -1   -1    0    0    0  501 -0.00000000000E+00 -0.00000000000E+00 -0.74432481261E+02  0.74432481431E+02  0.50400000000E-02 0. -1.
    5000001    1    1    2    0    0 -0.22697364711E+02  0.48429613289E+02  0.62114917217E+02  0.11246270826E+03  0.77000000000E+02 0.  0.
   -5000001    1    1    2    0    0  0.22697364711E+02 -0.48429613289E+02 -0.46491149943E+01  0.93868056752E+02  0.77000000000E+02 0.  0.
<mgrwt>
<rscale>  0 0.19816676E+03</rscale>
<asrwt>0</asrwt>
<pdfrwt beam="1">  1        1 0.18842612E-01 0.19816676E+03</pdfrwt>
<pdfrwt beam="2">  1       -1 0.10633212E-01 0.19816676E+03</pdfrwt>
<totfact> 0.14730529E+04</totfact>
</mgrwt>
</event>
<event>
 4    1  0.3281630E-004  0.3303251E+03  0.7818608E-02  0.1070993E+00
          1   -1    0    0  501    0  0.00000000000E+00  0.00000000000E+00  0.11454406793E+04  0.11454406793E+04  0.50400000000E-02 0. -1.
         -1   -1    0    0    0  501 -0.00000000000E+00 -0.00000000000E+00 -0.23815004333E+02  0.23815004866E+02  0.50400000000E-02 0.  1.
    5000001    1    1    2    0    0  0.60115157665E+02 -0.10769655337E+03  0.83811698607E+03  0.85063591632E+03  0.77000000000E+02 0.  0.
   -5000001    1    1    2    0    0 -0.60115157665E+02  0.10769655337E+03  0.28350868886E+03  0.31861976783E+03  0.77000000000E+02 0.  0.
<mgrwt>
<rscale>  0 0.33032514E+03</rscale>
<asrwt>0</asrwt>
<pdfrwt beam="1">  1        1 0.16363441E+00 0.33032514E+03</pdfrwt>
<pdfrwt beam="2">  1       -1 0.34021430E-02 0.33032514E+03</pdfrwt>
<totfact> 0.45042782E+03</totfact>
</mgrwt>
</event>
<event>
 4    1  0.3281630E-004  0.2821833E+03  0.7818608E-02  0.1094502E+00
          1   -1    0    0  501    0  0.00000000000E+00  0.00000000000E+00  0.22550241358E+04  0.22550241358E+04  0.50400000000E-02 0.  1.
         -1   -1    0    0    0  501 -0.00000000000E+00 -0.00000000000E+00 -0.88277805206E+01  0.88277819593E+01  0.50400000000E-02 0. -1.
    5000001    1    1    2    0    0 -0.11319754488E+03 -0.16726115272E+02  0.13616837184E+04  0.13686507941E+04  0.77000000000E+02 0.  0.
   -5000001    1    1    2    0    0  0.11319754488E+03  0.16726115272E+02  0.88451263686E+03  0.89520112370E+03  0.77000000000E+02 0.  0.
<mgrwt>
<rscale>  0 0.28218334E+03</rscale>
<asrwt>0</asrwt>
<pdfrwt beam="1">  1        1 0.32214678E+00 0.28218334E+03</pdfrwt>
<pdfrwt beam="2">  1       -1 0.12611098E-02 0.28218334E+03</pdfrwt>
<totfact> 0.39386342E+03</totfact>
</mgrwt>
</event>
<event>
 4    1  0.3281630E-004  0.1870812E+03  0.7818608E-02  0.1161121E+00
          1   -1    0    0  501    0  0.00000000000E+00  0.00000000000E+00  0.51454209324E+03  0.51454209326E+03  0.50400000000E-02 0.  1.
         -1   -1    0    0    0  501 -0.00000000000E+00 -0.00000000000E+00 -0.17005099500E+02  0.17005100247E+02  0.50400000000E-02 0. -1.
    5000001    1    1    2    0    0  0.37823109529E+02 -0.12462675080E+02  0.34861517636E+03  0.35923174563E+03  0.77000000000E+02 0.  0.
   -5000001    1    1    2    0    0 -0.37823109529E+02  0.12462675080E+02  0.14892181738E+03  0.17231544788E+03  0.77000000000E+02 0.  0.
<mgrwt>
<rscale>  0 0.18708116E+03</rscale>
<asrwt>0</asrwt>
<pdfrwt beam="1">  1        1 0.73506007E-01 0.18708116E+03</pdfrwt>
<pdfrwt beam="2">  1       -1 0.24293002E-02 0.18708116E+03</pdfrwt>
<totfact> 0.23852657E+04</totfact>
</mgrwt>
</event>
<event>
 4    1  0.3281630E-004  0.3969355E+03  0.7818608E-02  0.1044846E+00
          1   -1    0    0  501    0  0.00000000000E+00  0.00000000000E+00  0.71666087488E+03  0.71666087489E+03  0.50400000000E-02 0.  1.
         -1   -1    0    0    0  501 -0.00000000000E+00 -0.00000000000E+00 -0.54962477687E+02  0.54962477918E+02  0.50400000000E-02 0. -1.
    5000001    1    1    2    0    0 -0.23023567971E+02 -0.18146042490E+03  0.32778357151E+03  0.38318277654E+03  0.77000000000E+02 0.  0.
   -5000001    1    1    2    0    0  0.23023567971E+02  0.18146042490E+03  0.33391482568E+03  0.38844057627E+03  0.77000000000E+02 0.  0.
<mgrwt>
<rscale>  0 0.39693555E+03</rscale>
<asrwt>0</asrwt>
<pdfrwt beam="1">  1        1 0.10238012E+00 0.39693555E+03</pdfrwt>
<pdfrwt beam="2">  1       -1 0.78517829E-02 0.39693555E+03</pdfrwt>
<totfact> 0.27015137E+03</totfact>
</mgrwt>
</event>
<event>
 4    1  0.3281630E-004  0.1714749E+03  0.7818608E-02  0.1176318E+00
          1   -1    0    0  501    0  0.00000000000E+00  0.00000000000E+00  0.55118076225E+03  0.55118076227E+03  0.50400000000E-02 0.  1.
         -1   -1    0    0    0  501 -0.00000000000E+00 -0.00000000000E+00 -0.13336654532E+02  0.13336655485E+02  0.50400000000E-02 0. -1.
    5000001    1    1    2    0    0 -0.26514741157E+02 -0.12578057599E+02  0.34687454607E+03  0.35652796488E+03  0.77000000000E+02 0.  0.
   -5000001    1    1    2    0    0  0.26514741157E+02  0.12578057599E+02  0.19096956164E+03  0.20798945287E+03  0.77000000000E+02 0.  0.
<mgrwt>
<rscale>  0 0.17147487E+03</rscale>
<asrwt>0</asrwt>
<pdfrwt beam="1">  1        1 0.78740100E-01 0.17147487E+03</pdfrwt>
<pdfrwt beam="2">  1       -1 0.19052367E-02 0.17147487E+03</pdfrwt>
<totfact> 0.30795765E+04</totfact>
</mgrwt>
</event>
<event>
 4    1  0.3281630E-004  0.2288647E+03  0.7818608E-02  0.1127441E+00
          1   -1    0    0  501    0  0.00000000000E+00  0.00000000000E+00  0.23494817941E+02  0.23494818481E+02  0.50400000000E-02 0.  1.
         -1   -1    0    0    0  501 -0.00000000000E+00 -0.00000000000E+00 -0.55734691474E+03  0.55734691476E+03  0.50400000000E-02 0. -1.
    5000001    1    1    2    0    0 -0.64006269090E+02  0.54822156403E+02 -0.28714889900E+03  0.30900770461E+03  0.77000000000E+02 0.  0.
   -5000001    1    1    2    0    0  0.64006269090E+02 -0.54822156403E+02 -0.24670319780E+03  0.27183402863E+03  0.77000000000E+02 0.  0.
<mgrwt>
<rscale>  0 0.22886472E+03</rscale>
<asrwt>0</asrwt>
<pdfrwt beam="1">  1        1 0.33564030E-02 0.22886472E+03</pdfrwt>
<pdfrwt beam="2">  1       -1 0.79620980E-01 0.22886472E+03</pdfrwt>
<totfact> 0.47354084E+03</totfact>
</mgrwt>
</event>
<event>
 4    1  0.3281630E-004  0.3105647E+03  0.7818608E-02  0.1080076E+00
         -1   -1    0    0    0  501 -0.00000000000E+00  0.00000000000E+00  0.11806271920E+03  0.11806271931E+03  0.50400000000E-02 0. -1.
          1   -1    0    0  501    0  0.00000000000E+00 -0.00000000000E+00 -0.20423555935E+03  0.20423555941E+03  0.50400000000E-02 0.  1.
    5000001    1    1    2    0    0 -0.37670540858E+02  0.10988506107E+03  0.27983120542E+02  0.14214728745E+03  0.77000000000E+02 0.  0.
   -5000001    1    1    2    0    0  0.37670540858E+02 -0.10988506107E+03 -0.11415596069E+03  0.18015099127E+03  0.77000000000E+02 0.  0.
<mgrwt>
<rscale>  0 0.31056468E+03</rscale>
<asrwt>0</asrwt>
<pdfrwt beam="1">  1        1 0.29176509E-01 0.31056468E+03</pdfrwt>
<pdfrwt beam="2">  1       -1 0.16866103E-01 0.31056468E+03</pdfrwt>
<totfact> 0.41723381E+03</totfact>
</mgrwt>
</event>
<event>
 4    1  0.3281630E-004  0.4605490E+03  0.7818608E-02  0.1024622E+00
         -1   -1    0    0    0  501 -0.00000000000E+00  0.00000000000E+00  0.80778949783E+02  0.80778949940E+02  0.50400000000E-02 0. -1.
          1   -1    0    0  501    0  0.00000000000E+00 -0.00000000000E+00 -0.65643775119E+03  0.65643775121E+03  0.50400000000E-02 0.  1.
    5000001    1    1    2    0    0 -0.21539692235E+03 -0.21253722745E+02 -0.31312897283E+03  0.38836362923E+03  0.77000000000E+02 0.  0.
   -5000001    1    1    2    0    0  0.21539692235E+03  0.21253722745E+02 -0.26252982858E+03  0.34885307192E+03  0.77000000000E+02 0.  0.
<mgrwt>
<rscale>  0 0.46054903E+03</rscale>
<asrwt>0</asrwt>
<pdfrwt beam="1">  1        1 0.93776818E-01 0.46054903E+03</pdfrwt>
<pdfrwt beam="2">  1       -1 0.11539850E-01 0.46054903E+03</pdfrwt>
<totfact> 0.16817632E+03</totfact>
</mgrwt>
</event>
<event>
 4    1  0.3281630E-004  0.3079433E+03  0.7818608E-02  0.1081336E+00
          1   -1    0    0  501    0  0.00000000000E+00  0.00000000000E+00  0.16095211586E+03  0.16095211594E+03  0.50400000000E-02 0.  1.
         -1   -1    0    0    0  501 -0.00000000000E+00 -0.00000000000E+00 -0.14729394528E+03  0.14729394536E+03  0.50400000000E-02 0. -1.
    5000001    1    1    2    0    0  0.23074708445E+02  0.88760886581E+02 -0.90051058302E+02  0.14983033824E+03  0.77000000000E+02 0.  0.
   -5000001    1    1    2    0    0 -0.23074708445E+02 -0.88760886581E+02  0.10370922889E+03  0.15841572306E+03  0.77000000000E+02 0.  0.
<mgrwt>
<rscale>  0 0.30794332E+03</rscale>
<asrwt>0</asrwt>
<pdfrwt beam="1">  1        1 0.22993159E-01 0.30794332E+03</pdfrwt>
<pdfrwt beam="2">  1       -1 0.21041992E-01 0.30794332E+03</pdfrwt>
<totfact> 0.39477090E+03</totfact>
</mgrwt>
</event>
<event>
 4    1  0.3281630E-004  0.2432247E+03  0.7818608E-02  0.1117663E+00
          1   -1    0    0  501    0  0.00000000000E+00  0.00000000000E+00  0.28923476566E+03  0.28923476571E+03  0.50400000000E-02 0. -1.
         -1   -1    0    0    0  501 -0.00000000000E+00 -0.00000000000E+00 -0.51133415951E+02  0.51133416199E+02  0.50400000000E-02 0.  1.
    5000001    1    1    2    0    0  0.71285236308E+02  0.30861489016E+02  0.19345004804E+03  0.22222947038E+03  0.77000000000E+02 0.  0.
   -5000001    1    1    2    0    0 -0.71285236308E+02 -0.30861489016E+02  0.44651301676E+02  0.11813871153E+03  0.77000000000E+02 0.  0.
<mgrwt>
<rscale>  0 0.24322468E+03</rscale>
<asrwt>0</asrwt>
<pdfrwt beam="1">  1        1 0.41319252E-01 0.24322468E+03</pdfrwt>
<pdfrwt beam="2">  1       -1 0.73047738E-02 0.24322468E+03</pdfrwt>
<totfact> 0.98229881E+03</totfact>
</mgrwt>
</event>
<event>
 4    1  0.3281630E-004  0.4935360E+03  0.7818608E-02  0.1015480E+00
         -1   -1    0    0    0  501 -0.00000000000E+00  0.00000000000E+00  0.31340953835E+02  0.31340954240E+02  0.50400000000E-02 0. -1.
          1   -1    0    0  501    0  0.00000000000E+00 -0.00000000000E+00 -0.19429668306E+04  0.19429668306E+04  0.50400000000E-02 0.  1.
    5000001    1    1    2    0    0 -0.17993035938E+03 -0.14902284033E+03 -0.10340695986E+04  0.10629259974E+04  0.77000000000E+02 0.  0.
   -5000001    1    1    2    0    0  0.17993035938E+03  0.14902284033E+03 -0.87755627812E+03  0.91138178741E+03  0.77000000000E+02 0.  0.
<mgrwt>
<rscale>  0 0.49353595E+03</rscale>
<asrwt>0</asrwt>
<pdfrwt beam="1">  1        1 0.27756662E+00 0.49353595E+03</pdfrwt>
<pdfrwt beam="2">  1       -1 0.44772804E-02 0.49353595E+03</pdfrwt>
<totfact> 0.92430193E+02</totfact>
</mgrwt>
</event>
<event>
 4    1  0.3281630E-004  0.1634395E+03  0.7818608E-02  0.1184867E+00
          1   -1    0    0  501    0  0.00000000000E+00  0.00000000000E+00  0.13119758897E+03  0.13119758907E+03  0.50400000000E-02 0. -1.
         -1   -1    0    0    0  501 -0.00000000000E+00 -0.00000000000E+00 -0.50901204728E+02  0.50901204978E+02  0.50400000000E-02 0.  1.
    5000001    1    1    2    0    0 -0.23300468120E+02  0.10821308131E+02  0.29631094695E+02  0.86411887476E+02  0.77000000000E+02 0.  0.
   -5000001    1    1    2    0    0  0.23300468120E+02 -0.10821308131E+02  0.50665289551E+02  0.95686906573E+02  0.77000000000E+02 0.  0.
<mgrwt>
<rscale>  0 0.16343947E+03</rscale>
<asrwt>0</asrwt>
<pdfrwt beam="1">  1        1 0.18742513E-01 0.16343947E+03</pdfrwt>
<pdfrwt beam="2">  1       -1 0.72716007E-02 0.16343947E+03</pdfrwt>
<totfact> 0.26041822E+04</totfact>
</mgrwt>
</event>
<event>
 4    1  0.3281630E-004  0.1789440E+03  0.7818608E-02  0.1168829E+00
          1   -1    0    0  501    0  0.00000000000E+00  0.00000000000E+00  0.17939825404E+02  0.17939826112E+02  0.50400000000E-02 0.  1.
         -1   -1    0    0    0  501 -0.00000000000E+00 -0.00000000000E+00 -0.44622707326E+03  0.44622707329E+03  0.50400000000E-02 0. -1.
    5000001    1    1    2    0    0  0.28849033802E+02 -0.43616793275E+01 -0.30492889397E+03  0.31585110634E+03  0.77000000000E+02 0.  0.
   -5000001    1    1    2    0    0 -0.28849033802E+02  0.43616793275E+01 -0.12335835388E+03  0.14831579306E+03  0.77000000000E+02 0.  0.
<mgrwt>
<rscale>  0 0.17894397E+03</rscale>
<asrwt>0</asrwt>
<pdfrwt beam="1">  1        1 0.25628325E-02 0.17894397E+03</pdfrwt>
<pdfrwt beam="2">  1       -1 0.63746718E-01 0.17894397E+03</pdfrwt>
<totfact> 0.10601293E+04</totfact>
</mgrwt>
</event>
<event>
 4    1  0.3281630E-004  0.4764969E+03  0.7818608E-02  0.1020102E+00
          1   -1    0    0  501    0  0.00000000000E+00  0.00000000000E+00  0.10974223886E+04  0.10974223886E+04  0.50400000000E-02 0.  1.
         -1   -1    0    0    0  501 -0.00000000000E+00 -0.00000000000E+00 -0.51723305073E+02  0.51723305319E+02  0.50400000000E-02 0. -1.
    5000001    1    1    2    0    0  0.11521516400E+03  0.10925097448E+03  0.13681152534E+03  0.22328614580E+03  0.77000000000E+02 0.  0.
   -5000001    1    1    2    0    0 -0.11521516400E+03 -0.10925097448E+03  0.90888755815E+03  0.92585954810E+03  0.77000000000E+02 0.  0.
<mgrwt>
<rscale>  0 0.47649685E+03</rscale>
<asrwt>0</asrwt>
<pdfrwt beam="1">  1        1 0.15677464E+00 0.47649685E+03</pdfrwt>
<pdfrwt beam="2">  1       -1 0.73890432E-02 0.47649685E+03</pdfrwt>
<totfact> 0.15024358E+03</totfact>
</mgrwt>
</event>
<event>
 4    1  0.3281630E-004  0.2114363E+03  0.7818608E-02  0.1140434E+00
          1   -1    0    0  501    0  0.00000000000E+00  0.00000000000E+00  0.22315698873E+03  0.22315698878E+03  0.50400000000E-02 0. -1.
         -1   -1    0    0    0  501 -0.00000000000E+00 -0.00000000000E+00 -0.50082797289E+02  0.50082797543E+02  0.50400000000E-02 0.  1.
    5000001    1    1    2    0    0  0.12586103865E+02  0.71036836454E+02  0.78094079658E+02  0.13127195977E+03  0.77000000000E+02 0.  0.
   -5000001    1    1    2    0    0 -0.12586103865E+02 -0.71036836454E+02  0.94980111779E+02  0.14196782656E+03  0.77000000000E+02 0.  0.
<mgrwt>
<rscale>  0 0.21143629E+03</rscale>
<asrwt>0</asrwt>
<pdfrwt beam="1">  1        1 0.31879569E-01 0.21143629E+03</pdfrwt>
<pdfrwt beam="2">  1       -1 0.71546854E-02 0.21143629E+03</pdfrwt>
<totfact> 0.13911037E+04</totfact>
</mgrwt>
</event>
<event>
 4    1  0.3281630E-004  0.1872184E+03  0.7818608E-02  0.1160994E+00
         -1   -1    0    0    0  501 -0.00000000000E+00  0.00000000000E+00  0.22520066725E+02  0.22520067289E+02  0.50400000000E-02 0. -1.
          1   -1    0    0  501    0  0.00000000000E+00 -0.00000000000E+00 -0.38910554098E+03  0.38910554102E+03  0.50400000000E-02 0.  1.
    5000001    1    1    2    0    0  0.40251672120E+02 -0.22241134797E+02 -0.12434553197E+03  0.15331561077E+03  0.77000000000E+02 0.  0.
   -5000001    1    1    2    0    0 -0.40251672120E+02  0.22241134797E+02 -0.24223994229E+03  0.25830999754E+03  0.77000000000E+02 0.  0.
<mgrwt>
<rscale>  0 0.18721841E+03</rscale>
<asrwt>0</asrwt>
<pdfrwt beam="1">  1        1 0.55586502E-01 0.18721841E+03</pdfrwt>
<pdfrwt beam="2">  1       -1 0.32171527E-02 0.18721841E+03</pdfrwt>
<totfact> 0.22612740E+04</totfact>
</mgrwt>
</event>
<event>
 4    1  0.3281630E-004  0.2083312E+03  0.7818608E-02  0.1142894E+00
          1   -1    0    0  501    0  0.00000000000E+00  0.00000000000E+00  0.30414016877E+04  0.30414016877E+04  0.50400000000E-02 0.  1.
         -1   -1    0    0    0  501 -0.00000000000E+00 -0.00000000000E+00 -0.35675867065E+01  0.35675902665E+01  0.50400000000E-02 0. -1.
    5000001    1    1    2    0    0  0.67784274391E+02 -0.11126799987E+02  0.17271405452E+04  0.17302202103E+04  0.77000000000E+02 0.  0.
   -5000001    1    1    2    0    0 -0.67784274391E+02  0.11126799987E+02  0.13106935558E+04  0.13147490676E+04  0.77000000000E+02 0.  0.
<mgrwt>
<rscale>  0 0.20833118E+03</rscale>
<asrwt>0</asrwt>
<pdfrwt beam="1">  1        1 0.43448604E+00 0.20833118E+03</pdfrwt>
<pdfrwt beam="2">  1       -1 0.50965540E-03 0.20833118E+03</pdfrwt>
<totfact> 0.47622431E+03</totfact>
</mgrwt>
</event>
<event>
 4    1  0.3281630E-004  0.1941459E+03  0.7818608E-02  0.1154774E+00
          1   -1    0    0  501    0  0.00000000000E+00  0.00000000000E+00  0.14943382396E+02  0.14943383246E+02  0.50400000000E-02 0. -1.
         -1   -1    0    0    0  501 -0.00000000000E+00 -0.00000000000E+00 -0.63059079323E+03  0.63059079325E+03  0.50400000000E-02 0.  1.
    5000001    1    1    2    0    0  0.38635475592E+02  0.44735507569E+02 -0.30635909148E+03  0.32137028261E+03  0.77000000000E+02 0.  0.
   -5000001    1    1    2    0    0 -0.38635475592E+02 -0.44735507569E+02 -0.30928831935E+03  0.32416389388E+03  0.77000000000E+02 0.  0.
<mgrwt>
<rscale>  0 0.19414592E+03</rscale>
<asrwt>0</asrwt>
<pdfrwt beam="1">  1        1 0.21347694E-02 0.19414592E+03</pdfrwt>
<pdfrwt beam="2">  1       -1 0.90084383E-01 0.19414592E+03</pdfrwt>
<totfact> 0.68235589E+03</totfact>
</mgrwt>
</event>
<event>
 4    1  0.3281630E-004  0.2480246E+03  0.7818608E-02  0.1114560E+00
         -1   -1    0    0    0  501 -0.00000000000E+00  0.00000000000E+00  0.56687153100E+02  0.56687153324E+02  0.50400000000E-02 0. -1.
          1   -1    0    0  501    0  0.00000000000E+00 -0.00000000000E+00 -0.27129683726E+03  0.27129683731E+03  0.50400000000E-02 0.  1.
    5000001    1    1    2    0    0 -0.51976505074E+01  0.96819362541E+02 -0.11656539677E+03  0.17005145180E+03  0.77000000000E+02 0.  0.
   -5000001    1    1    2    0    0  0.51976505074E+01 -0.96819362541E+02 -0.98044287392E+02  0.15793253884E+03  0.77000000000E+02 0.  0.
<mgrwt>
<rscale>  0 0.24802456E+03</rscale>
<asrwt>0</asrwt>
<pdfrwt beam="1">  1        1 0.38756691E-01 0.24802456E+03</pdfrwt>
<pdfrwt beam="2">  1       -1 0.80981649E-02 0.24802456E+03</pdfrwt>
<totfact> 0.91057726E+03</totfact>
</mgrwt>
</event>
<event>
 4    1  0.3281630E-004  0.3271022E+03  0.7818608E-02  0.1072426E+00
         -1   -1    0    0    0  501 -0.00000000000E+00  0.00000000000E+00  0.30694874704E+02  0.30694875117E+02  0.50400000000E-02 0. -1.
          1   -1    0    0  501    0  0.00000000000E+00 -0.00000000000E+00 -0.87144724167E+03  0.87144724169E+03  0.50400000000E-02 0.  1.
    5000001    1    1    2    0    0 -0.11318845724E+03  0.89485216605E+02 -0.42273783592E+03  0.45327200306E+03  0.77000000000E+02 0.  0.
   -5000001    1    1    2    0    0  0.11318845724E+03 -0.89485216605E+02 -0.41801453106E+03  0.44887011375E+03  0.77000000000E+02 0.  0.
<mgrwt>
<rscale>  0 0.32710221E+03</rscale>
<asrwt>0</asrwt>
<pdfrwt beam="1">  1        1 0.12449245E+00 0.32710221E+03</pdfrwt>
<pdfrwt beam="2">  1       -1 0.43849827E-02 0.32710221E+03</pdfrwt>
<totfact> 0.48668747E+03</totfact>
</mgrwt>
</event>
<event>
 4    1  0.3281630E-004  0.1838387E+04  0.7818608E-02  0.8686148E-01
         -1   -1    0    0    0  501 -0.00000000000E+00  0.00000000000E+00  0.24561594871E+04  0.24561594871E+04  0.50400000000E-02 0. -1.
          1   -1    0    0  501    0  0.00000000000E+00 -0.00000000000E+00 -0.34399911000E+03  0.34399911004E+03  0.50400000000E-02 0.  1.
    5000001    1    1    2    0    0  0.29160934525E+03 -0.65122112101E+03  0.18127306649E+03  0.74021205294E+03  0.77000000000E+02 0.  0.
   -5000001    1    1    2    0    0 -0.29160934525E+03  0.65122112101E+03  0.19308873106E+04  0.20599465442E+04  0.77000000000E+02 0.  0.
<mgrwt>
<rscale>  0 0.18383870E+04</rscale>
<asrwt>0</asrwt>
<pdfrwt beam="1">  1        1 0.49142729E-01 0.18383870E+04</pdfrwt>
<pdfrwt beam="2">  1       -1 0.35087993E+00 0.18383870E+04</pdfrwt>
<totfact> 0.11702150E+00</totfact>
</mgrwt>
</event>
<event>
 4    1  0.3281630E-004  0.2229719E+03  0.7818608E-02  0.1131687E+00
          1   -1    0    0  501    0  0.00000000000E+00  0.00000000000E+00  0.45281403593E+03  0.45281403596E+03  0.50400000000E-02 0.  1.
         -1   -1    0    0    0  501 -0.00000000000E+00 -0.00000000000E+00 -0.27448616285E+02  0.27448616748E+02  0.50400000000E-02 0. -1.
    5000001    1    1    2    0    0 -0.54900006940E+02 -0.58925033150E+02  0.22072709954E+03  0.24725618853E+03  0.77000000000E+02 0.  0.
   -5000001    1    1    2    0    0  0.54900006940E+02  0.58925033150E+02  0.20463832011E+03  0.23300646418E+03  0.77000000000E+02 0.  0.
<mgrwt>
<rscale>  0 0.22297192E+03</rscale>
<asrwt>0</asrwt>
<pdfrwt beam="1">  1        1 0.64687718E-01 0.22297192E+03</pdfrwt>
<pdfrwt beam="2">  1       -1 0.39212310E-02 0.22297192E+03</pdfrwt>
<totfact> 0.14098555E+04</totfact>
</mgrwt>
</event>
<event>
 4    1  0.3281630E-004  0.3431956E+03  0.7818608E-02  0.1065443E+00
         -1   -1    0    0    0  501 -0.00000000000E+00  0.00000000000E+00  0.45166716477E+02  0.45166716758E+02  0.50400000000E-02 0. -1.
          1   -1    0    0  501    0  0.00000000000E+00 -0.00000000000E+00 -0.65193599419E+03  0.65193599421E+03  0.50400000000E-02 0.  1.
    5000001    1    1    2    0    0 -0.30053530264E+02 -0.50668899540E+02 -0.15796033620E+02  0.98229663239E+02  0.77000000000E+02 0.  0.
   -5000001    1    1    2    0    0  0.30053530264E+02  0.50668899540E+02 -0.59097324409E+03  0.59887304773E+03  0.77000000000E+02 0.  0.
<mgrwt>
<rscale>  0 0.34319562E+03</rscale>
<asrwt>0</asrwt>
<pdfrwt beam="1">  1        1 0.93133708E-01 0.34319562E+03</pdfrwt>
<pdfrwt beam="2">  1       -1 0.64523885E-02 0.34319562E+03</pdfrwt>
<totfact> 0.41695748E+03</totfact>
</mgrwt>
</event>
<event>
 4    1  0.3281630E-004  0.2742707E+03  0.7818608E-02  0.1098860E+00
          1   -1    0    0  501    0  0.00000000000E+00  0.00000000000E+00  0.90121192657E+02  0.90121192798E+02  0.50400000000E-02 0.  1.
         -1   -1    0    0    0  501 -0.00000000000E+00 -0.00000000000E+00 -0.20867570295E+03  0.20867570301E+03  0.50400000000E-02 0. -1.
    5000001    1    1    2    0    0  0.94363075180E+02 -0.30764038664E+02 -0.11920828626E+03  0.17317745680E+03  0.77000000000E+02 0.  0.
   -5000001    1    1    2    0    0 -0.94363075180E+02  0.30764038664E+02  0.65377596948E+00  0.12561943900E+03  0.77000000000E+02 0.  0.
<mgrwt>
<rscale>  0 0.27427069E+03</rscale>
<asrwt>0</asrwt>
<pdfrwt beam="1">  1        1 0.12874456E-01 0.27427069E+03</pdfrwt>
<pdfrwt beam="2">  1       -1 0.29810815E-01 0.27427069E+03</pdfrwt>
<totfact> 0.46867577E+03</totfact>
</mgrwt>
</event>
<event>
 4    1  0.3281630E-004  0.3395689E+03  0.7818608E-02  0.1066980E+00
         -1   -1    0    0    0  501 -0.00000000000E+00  0.00000000000E+00  0.39624207432E+03  0.39624207435E+03  0.50400000000E-02 0. -1.
          1   -1    0    0  501    0  0.00000000000E+00 -0.00000000000E+00 -0.72750386231E+02  0.72750386405E+02  0.50400000000E-02 0.  1.
    5000001    1    1    2    0    0  0.62749838688E+02  0.66796991764E+02  0.32804793622E+03  0.34920456587E+03  0.77000000000E+02 0.  0.
   -5000001    1    1    2    0    0 -0.62749838688E+02 -0.66796991764E+02 -0.45562481357E+01  0.11978789489E+03  0.77000000000E+02 0.  0.
<mgrwt>
<rscale>  0 0.33956893E+03</rscale>
<asrwt>0</asrwt>
<pdfrwt beam="1">  1        1 0.10392912E-01 0.33956893E+03</pdfrwt>
<pdfrwt beam="2">  1       -1 0.56606010E-01 0.33956893E+03</pdfrwt>
<totfact> 0.19865789E+03</totfact>
</mgrwt>
</event>
<event>
 4    1  0.3281630E-004  0.1926465E+03  0.7818608E-02  0.1156096E+00
          1   -1    0    0  501    0  0.00000000000E+00  0.00000000000E+00  0.19559329449E+04  0.19559329449E+04  0.50400000000E-02 0.  1.
         -1   -1    0    0    0  501 -0.00000000000E+00 -0.00000000000E+00 -0.47436004421E+01  0.47436031196E+01  0.50400000000E-02 0. -1.
    5000001    1    1    2    0    0 -0.30187200212E+02  0.31275883773E+02  0.58674699983E+03  0.59337213431E+03  0.77000000000E+02 0.  0.
   -5000001    1    1    2    0    0  0.30187200212E+02 -0.31275883773E+02  0.13644423446E+04  0.13673044137E+04  0.77000000000E+02 0.  0.
<mgrwt>
<rscale>  0 0.19264648E+03</rscale>
<asrwt>0</asrwt>
<pdfrwt beam="1">  1        1 0.27941941E+00 0.19264648E+03</pdfrwt>
<pdfrwt beam="2">  1       -1 0.67765640E-03 0.19264648E+03</pdfrwt>
<totfact> 0.14466052E+04</totfact>
</mgrwt>
</event>
<event>
 4    1  0.3281630E-004  0.2032325E+03  0.7818608E-02  0.1147040E+00
          1   -1    0    0  501    0  0.00000000000E+00  0.00000000000E+00  0.63485330349E+02  0.63485330549E+02  0.50400000000E-02 0. -1.
         -1   -1    0    0    0  501 -0.00000000000E+00 -0.00000000000E+00 -0.16264963806E+03  0.16264963814E+03  0.50400000000E-02 0.  1.
    5000001    1    1    2    0    0  0.11766280344E+02  0.63526550171E+02 -0.32973660655E+02  0.10578435719E+03  0.77000000000E+02 0.  0.
   -5000001    1    1    2    0    0 -0.11766280344E+02 -0.63526550171E+02 -0.66190647059E+02  0.12035061150E+03  0.77000000000E+02 0.  0.
<mgrwt>
<rscale>  0 0.20323254E+03</rscale>
<asrwt>0</asrwt>
<pdfrwt beam="1">  1        1 0.90693330E-02 0.20323254E+03</pdfrwt>
<pdfrwt beam="2">  1       -1 0.23235662E-01 0.20323254E+03</pdfrwt>
<totfact> 0.11170111E+04</totfact>
</mgrwt>
</event>
<event>
 4    1  0.3281630E-004  0.2529194E+03  0.7818608E-02  0.1111474E+00
          1   -1    0    0  501    0  0.00000000000E+00  0.00000000000E+00  0.10829548759E+03  0.10829548771E+03  0.50400000000E-02 0. -1.
         -1   -1    0    0    0  501 -0.00000000000E+00 -0.00000000000E+00 -0.14767050685E+03  0.14767050694E+03  0.50400000000E-02 0.  1.
    5000001    1    1    2    0    0  0.81086769616E+02 -0.54430249058E+02  0.35087360180E+01  0.12441473967E+03  0.77000000000E+02 0.  0.
   -5000001    1    1    2    0    0 -0.81086769616E+02  0.54430249058E+02 -0.42883755276E+02  0.13155125498E+03  0.77000000000E+02 0.  0.
<mgrwt>
<rscale>  0 0.25291935E+03</rscale>
<asrwt>0</asrwt>
<pdfrwt beam="1">  1        1 0.15470784E-01 0.25291935E+03</pdfrwt>
<pdfrwt beam="2">  1       -1 0.21095786E-01 0.25291935E+03</pdfrwt>
<totfact> 0.65219712E+03</totfact>
</mgrwt>
</event>
<event>
 4    1  0.3281630E-004  0.3279466E+03  0.7818608E-02  0.1072049E+00
          1   -1    0    0  501    0  0.00000000000E+00  0.00000000000E+00  0.25767825351E+03  0.25767825356E+03  0.50400000000E-02 0. -1.
         -1   -1    0    0    0  501 -0.00000000000E+00 -0.00000000000E+00 -0.10434423849E+03  0.10434423861E+03  0.50400000000E-02 0.  1.
    5000001    1    1    2    0    0 -0.12900123189E+03 -0.35654669245E+02  0.15745069575E+02  0.15520786218E+03  0.77000000000E+02 0.  0.
   -5000001    1    1    2    0    0  0.12900123189E+03  0.35654669245E+02  0.13758894544E+03  0.20681462998E+03  0.77000000000E+02 0.  0.
<mgrwt>
<rscale>  0 0.32794659E+03</rscale>
<asrwt>0</asrwt>
<pdfrwt beam="1">  1        1 0.36811180E-01 0.32794659E+03</pdfrwt>
<pdfrwt beam="2">  1       -1 0.14906320E-01 0.32794659E+03</pdfrwt>
<totfact> 0.37943798E+03</totfact>
</mgrwt>
</event>
<event>
 4    1  0.3281630E-004  0.2793178E+03  0.7818608E-02  0.1096062E+00
          1   -1    0    0  501    0  0.00000000000E+00  0.00000000000E+00  0.30197342346E+03  0.30197342350E+03  0.50400000000E-02 0.  1.
         -1   -1    0    0    0  501 -0.00000000000E+00 -0.00000000000E+00 -0.64590497815E+02  0.64590498012E+02  0.50400000000E-02 0. -1.
    5000001    1    1    2    0    0  0.84571903403E+02  0.74818648204E+02  0.15639457329E+03  0.20769809705E+03  0.77000000000E+02 0.  0.
   -5000001    1    1    2    0    0 -0.84571903403E+02 -0.74818648204E+02  0.80988352349E+02  0.15886582446E+03  0.77000000000E+02 0.  0.
<mgrwt>
<rscale>  0 0.27931784E+03</rscale>
<asrwt>0</asrwt>
<pdfrwt beam="1">  1        1 0.43139062E-01 0.27931784E+03</pdfrwt>
<pdfrwt beam="2">  1       -1 0.92272136E-02 0.27931784E+03</pdfrwt>
<totfact> 0.65508922E+03</totfact>
</mgrwt>
</event>
<event>
 4    1  0.3281630E-004  0.2152180E+03  0.7818608E-02  0.1137499E+00
         -1   -1    0    0    0  501 -0.00000000000E+00  0.00000000000E+00  0.26633400658E+03  0.26633400663E+03  0.50400000000E-02 0. -1.
          1   -1    0    0  501    0  0.00000000000E+00 -0.00000000000E+00 -0.43478097883E+02  0.43478098175E+02  0.50400000000E-02 0.  1.
    5000001    1    1    2    0    0 -0.74442047627E+02 -0.10091033446E+02  0.10755227037E+03  0.15211817207E+03  0.77000000000E+02 0.  0.
   -5000001    1    1    2    0    0  0.74442047627E+02  0.10091033446E+02  0.11530363833E+03  0.15769393274E+03  0.77000000000E+02 0.  0.
<mgrwt>
<rscale>  0 0.21521799E+03</rscale>
<asrwt>0</asrwt>
<pdfrwt beam="1">  1        1 0.62111570E-02 0.21521799E+03</pdfrwt>
<pdfrwt beam="2">  1       -1 0.38047714E-01 0.21521799E+03</pdfrwt>
<totfact> 0.81283322E+03</totfact>
</mgrwt>
</event>
<event>
 4    1  0.3281630E-004  0.1963466E+03  0.7818608E-02  0.1152859E+00
          1   -1    0    0  501    0  0.00000000000E+00  0.00000000000E+00  0.37228345300E+03  0.37228345303E+03  0.50400000000E-02 0.  1.
         -1   -1    0    0    0  501 -0.00000000000E+00 -0.00000000000E+00 -0.25888863665E+02  0.25888864155E+02  0.50400000000E-02 0. -1.
    5000001    1    1    2    0    0 -0.26879364357E+02 -0.53712871098E+02  0.19362011635E+03  0.21685322733E+03  0.77000000000E+02 0.  0.
   -5000001    1    1    2    0    0  0.26879364357E+02  0.53712871098E+02  0.15277447298E+03  0.18131908985E+03  0.77000000000E+02 0.  0.
<mgrwt>
<rscale>  0 0.19634659E+03</rscale>
<asrwt>0</asrwt>
<pdfrwt beam="1">  1        1 0.53183349E-01 0.19634659E+03</pdfrwt>
<pdfrwt beam="2">  1       -1 0.36984092E-02 0.19634659E+03</pdfrwt>
<totfact> 0.19545051E+04</totfact>
</mgrwt>
</event>
<event>
 4    1  0.3281630E-004  0.1729390E+03  0.7818608E-02  0.1174817E+00
         -1   -1    0    0    0  501 -0.00000000000E+00  0.00000000000E+00  0.73374098273E+01  0.73374115582E+01  0.50400000000E-02 0.  1.
          1   -1    0    0  501    0  0.00000000000E+00 -0.00000000000E+00 -0.10190210506E+04  0.10190210506E+04  0.50400000000E-02 0. -1.
    5000001    1    1    2    0    0 -0.22684152553E+02 -0.30189189098E+02 -0.44028496409E+03  0.44855970341E+03  0.77000000000E+02 0.  0.
   -5000001    1    1    2    0    0  0.22684152553E+02  0.30189189098E+02 -0.57139867665E+03  0.57779875873E+03  0.77000000000E+02 0.  0.
<mgrwt>
<rscale>  0 0.17293902E+03</rscale>
<asrwt>0</asrwt>
<pdfrwt beam="1">  1        1 0.14557435E+00 0.17293902E+03</pdfrwt>
<pdfrwt beam="2">  1       -1 0.10482022E-02 0.17293902E+03</pdfrwt>
<totfact> 0.29845489E+04</totfact>
</mgrwt>
</event>
<event>
 4    1  0.3281630E-004  0.1890665E+03  0.7818608E-02  0.1159306E+00
         -1   -1    0    0    0  501 -0.00000000000E+00  0.00000000000E+00  0.10197861860E+02  0.10197863105E+02  0.50400000000E-02 0.  1.
          1   -1    0    0  501    0  0.00000000000E+00 -0.00000000000E+00 -0.87631477489E+03  0.87631477490E+03  0.50400000000E-02 0. -1.
    5000001    1    1    2    0    0  0.36880122749E+02 -0.40232986055E+02 -0.40793852296E+03  0.41871431208E+03  0.77000000000E+02 0.  0.
   -5000001    1    1    2    0    0 -0.36880122749E+02  0.40232986055E+02 -0.45817839007E+03  0.46779832593E+03  0.77000000000E+02 0.  0.
<mgrwt>
<rscale>  0 0.18906652E+03</rscale>
<asrwt>0</asrwt>
<pdfrwt beam="1">  1        1 0.12518778E+00 0.18906652E+03</pdfrwt>
<pdfrwt beam="2">  1       -1 0.14568381E-02 0.18906652E+03</pdfrwt>
<totfact> 0.23778710E+04</totfact>
</mgrwt>
</event>
<event>
 4    1  0.3281630E-004  0.1902985E+03  0.7818608E-02  0.1158192E+00
          1   -1    0    0  501    0  0.00000000000E+00  0.00000000000E+00  0.12549710926E+03  0.12549710936E+03  0.50400000000E-02 0.  1.
         -1   -1    0    0    0  501 -0.00000000000E+00 -0.00000000000E+00 -0.72140182961E+02  0.72140183137E+02  0.50400000000E-02 0. -1.
    5000001    1    1    2    0    0  0.24289634147E+02 -0.46462892463E+02  0.65507280465E+01  0.93384681511E+02  0.77000000000E+02 0.  0.
   -5000001    1    1    2    0    0 -0.24289634147E+02  0.46462892463E+02  0.46806198256E+02  0.10425261099E+03  0.77000000000E+02 0.  0.
<mgrwt>
<rscale>  0 0.19029855E+03</rscale>
<asrwt>0</asrwt>
<pdfrwt beam="1">  1        1 0.17928158E-01 0.19029855E+03</pdfrwt>
<pdfrwt beam="2">  1       -1 0.10305741E-01 0.19029855E+03</pdfrwt>
<totfact> 0.16430564E+04</totfact>
</mgrwt>
</event>
<event>
 4    1  0.3281630E-004  0.2310907E+03  0.7818608E-02  0.1125874E+00
          1   -1    0    0  501    0  0.00000000000E+00  0.00000000000E+00  0.24125258721E+03  0.24125258726E+03  0.50400000000E-02 0.  1.
         -1   -1    0    0    0  501 -0.00000000000E+00 -0.00000000000E+00 -0.55339200668E+02  0.55339200898E+02  0.50400000000E-02 0. -1.
    5000001    1    1    2    0    0  0.69735671759E+02 -0.17974809910E+02  0.32273195466E+02  0.11025750248E+03  0.77000000000E+02 0.  0.
   -5000001    1    1    2    0    0 -0.69735671759E+02  0.17974809910E+02  0.15364019107E+03  0.18633428568E+03  0.77000000000E+02 0.  0.
<mgrwt>
<rscale>  0 0.23109068E+03</rscale>
<asrwt>0</asrwt>
<pdfrwt beam="1">  1        1 0.34464655E-01 0.23109068E+03</pdfrwt>
<pdfrwt beam="2">  1       -1 0.79056002E-02 0.23109068E+03</pdfrwt>
<totfact> 0.10902693E+04</totfact>
</mgrwt>
</event>
<event>
 4    1  0.3281630E-004  0.2052022E+03  0.7818608E-02  0.1145423E+00
         -1   -1    0    0    0  501 -0.00000000000E+00  0.00000000000E+00  0.12569171033E+02  0.12569172044E+02  0.50400000000E-02 0. -1.
          1   -1    0    0  501    0  0.00000000000E+00 -0.00000000000E+00 -0.83752453900E+03  0.83752453901E+03  0.50400000000E-02 0.  1.
    5000001    1    1    2    0    0  0.31787399321E+02  0.57801978573E+02 -0.47751721910E+03  0.48816308957E+03  0.77000000000E+02 0.  0.
   -5000001    1    1    2    0    0 -0.31787399321E+02 -0.57801978573E+02 -0.34743814886E+03  0.36193062148E+03  0.77000000000E+02 0.  0.
<mgrwt>
<rscale>  0 0.20520224E+03</rscale>
<asrwt>0</asrwt>
<pdfrwt beam="1">  1        1 0.11964633E+00 0.20520224E+03</pdfrwt>
<pdfrwt beam="2">  1       -1 0.17955965E-02 0.20520224E+03</pdfrwt>
<totfact> 0.18925628E+04</totfact>
</mgrwt>
</event>
<event>
 4    1  0.3281630E-004  0.3620000E+03  0.7818608E-02  0.1057795E+00
          1   -1    0    0  501    0  0.00000000000E+00  0.00000000000E+00  0.17387321507E+04  0.17387321507E+04  0.50400000000E-02 0.  1.
         -1   -1    0    0    0  501 -0.00000000000E+00 -0.00000000000E+00 -0.18841890278E+02  0.18841890952E+02  0.50400000000E-02 0. -1.
    5000001    1    1    2    0    0  0.16234635627E+03  0.20118438596E+02  0.90082965123E+03  0.91879494530E+03  0.77000000000E+02 0.  0.
   -5000001    1    1    2    0    0 -0.16234635627E+03 -0.20118438596E+02  0.81906060915E+03  0.83877909632E+03  0.77000000000E+02 0.  0.
<mgrwt>
<rscale>  0 0.36200001E+03</rscale>
<asrwt>0</asrwt>
<pdfrwt beam="1">  1        1 0.24839020E+00 0.36200001E+03</pdfrwt>
<pdfrwt beam="2">  1       -1 0.26916998E-02 0.36200001E+03</pdfrwt>
<totfact> 0.26622440E+03</totfact>
</mgrwt>
</event>
<event>
 4    1  0.3281630E-004  0.2400065E+03  0.7818608E-02  0.1119788E+00
          1   -1    0    0  501    0  0.00000000000E+00  0.00000000000E+00  0.36117079434E+03  0.36117079437E+03  0.50400000000E-02 0.  1.
         -1   -1    0    0    0  501 -0.00000000000E+00 -0.00000000000E+00 -0.39872497328E+02  0.39872497647E+02  0.50400000000E-02 0. -1.
    5000001    1    1    2    0    0 -0.14464873820E+02  0.72415780582E+02  0.25245367370E+03  0.27407140533E+03  0.77000000000E+02 0.  0.
   -5000001    1    1    2    0    0  0.14464873820E+02 -0.72415780582E+02  0.68844623304E+02  0.12697188669E+03  0.77000000000E+02 0.  0.
<mgrwt>
<rscale>  0 0.24000651E+03</rscale>
<asrwt>0</asrwt>
<pdfrwt beam="1">  1        1 0.51595827E-01 0.24000651E+03</pdfrwt>
<pdfrwt beam="2">  1       -1 0.56960711E-02 0.24000651E+03</pdfrwt>
<totfact> 0.10814360E+04</totfact>
</mgrwt>
</event>
<event>
 4    1  0.3281630E-004  0.1919435E+03  0.7818608E-02  0.1156720E+00
         -1   -1    0    0    0  501 -0.00000000000E+00  0.00000000000E+00  0.24381056011E+01  0.24381108104E+01  0.50400000000E-02 0.  1.
          1   -1    0    0  501    0  0.00000000000E+00 -0.00000000000E+00 -0.37777542392E+04  0.37777542392E+04  0.50400000000E-02 0. -1.
    5000001    1    1    2    0    0  0.74282014830E+01 -0.45573310151E+02 -0.12199460892E+04  0.12232455049E+04  0.77000000000E+02 0.  0.
   -5000001    1    1    2    0    0 -0.74282014830E+01  0.45573310151E+02 -0.25553700444E+04  0.25569468451E+04  0.77000000000E+02 0.  0.
<mgrwt>
<rscale>  0 0.19194347E+03</rscale>
<asrwt>0</asrwt>
<pdfrwt beam="1">  1        1 0.53967543E+00 0.19194347E+03</pdfrwt>
<pdfrwt beam="2">  1       -1 0.34830359E-03 0.19194347E+03</pdfrwt>
<totfact> 0.26677307E+03</totfact>
</mgrwt>
</event>
<event>
 4    1  0.3281630E-004  0.2505034E+03  0.7818608E-02  0.1112987E+00
         -1   -1    0    0    0  501 -0.00000000000E+00  0.00000000000E+00  0.27561169067E+02  0.27561169528E+02  0.50400000000E-02 0.  1.
          1   -1    0    0  501    0  0.00000000000E+00 -0.00000000000E+00 -0.56920599510E+03  0.56920599513E+03  0.50400000000E-02 0. -1.
    5000001    1    1    2    0    0  0.46252756340E+02  0.44674605360E+02 -0.44947447849E+03  0.46053386916E+03  0.77000000000E+02 0.  0.
   -5000001    1    1    2    0    0 -0.46252756340E+02 -0.44674605360E+02 -0.92170347547E+02  0.13623329549E+03  0.77000000000E+02 0.  0.
<mgrwt>
<rscale>  0 0.25050336E+03</rscale>
<asrwt>0</asrwt>
<pdfrwt beam="1">  1        1 0.81315135E-01 0.25050336E+03</pdfrwt>
<pdfrwt beam="2">  1       -1 0.39373103E-02 0.25050336E+03</pdfrwt>
<totfact> 0.10446085E+04</totfact>
</mgrwt>
</event>
<event>
 4    1  0.3281630E-004  0.1825177E+03  0.7818608E-02  0.1165388E+00
          1   -1    0    0  501    0  0.00000000000E+00  0.00000000000E+00  0.89642166860E+03  0.89642166861E+03  0.50400000000E-02 0. -1.
         -1   -1    0    0    0  501 -0.00000000000E+00 -0.00000000000E+00 -0.92904643659E+01  0.92904657330E+01  0.50400000000E-02 0.  1.
    5000001    1    1    2    0    0 -0.30309053780E+02  0.36440052810E+02  0.50487754536E+03  0.51291017927E+03  0.77000000000E+02 0.  0.
   -5000001    1    1    2    0    0  0.30309053780E+02 -0.36440052810E+02  0.38225365887E+03  0.39280195507E+03  0.77000000000E+02 0.  0.
<mgrwt>
<rscale>  0 0.18251766E+03</rscale>
<asrwt>0</asrwt>
<pdfrwt beam="1">  1        1 0.12806017E+00 0.18251766E+03</pdfrwt>
<pdfrwt beam="2">  1       -1 0.13272100E-02 0.18251766E+03</pdfrwt>
<totfact> 0.26196598E+04</totfact>
</mgrwt>
</event>
<event>
 4    1  0.3281630E-004  0.1809224E+03  0.7818608E-02  0.1166913E+00
          1   -1    0    0  501    0  0.00000000000E+00  0.00000000000E+00  0.22194847969E+04  0.22194847969E+04  0.50400000000E-02 0. -1.
         -1   -1    0    0    0  501 -0.00000000000E+00 -0.00000000000E+00 -0.36869911927E+01  0.36869946374E+01  0.50400000000E-02 0.  1.
    5000001    1    1    2    0    0  0.22765149510E+02  0.30852718612E+01  0.16184724015E+04  0.16204658853E+04  0.77000000000E+02 0.  0.
   -5000001    1    1    2    0    0 -0.22765149510E+02 -0.30852718612E+01  0.59732540420E+03  0.60270590626E+03  0.77000000000E+02 0.  0.
<mgrwt>
<rscale>  0 0.18092236E+03</rscale>
<asrwt>0</asrwt>
<pdfrwt beam="1">  1        1 0.31706792E+00 0.18092236E+03</pdfrwt>
<pdfrwt beam="2">  1       -1 0.52671549E-03 0.18092236E+03</pdfrwt>
<totfact> 0.14395161E+04</totfact>
</mgrwt>
</event>
<event>
 4    1  0.3281630E-004  0.2211708E+03  0.7818608E-02  0.1133013E+00
         -1   -1    0    0    0  501 -0.00000000000E+00  0.00000000000E+00  0.14426439071E+03  0.14426439080E+03  0.50400000000E-02 0. -1.
          1   -1    0    0  501    0  0.00000000000E+00 -0.00000000000E+00 -0.84768910266E+02  0.84768910416E+02  0.50400000000E-02 0.  1.
    5000001    1    1    2    0    0 -0.93651656972E+01 -0.46882130826E+02 -0.35864702722E+02  0.97472649603E+02  0.77000000000E+02 0.  0.
   -5000001    1    1    2    0    0  0.93651656972E+01  0.46882130826E+02  0.95360183168E+02  0.13156065161E+03  0.77000000000E+02 0.  0.
<mgrwt>
<rscale>  0 0.22117084E+03</rscale>
<asrwt>0</asrwt>
<pdfrwt beam="1">  1        1 0.12109844E-01 0.22117084E+03</pdfrwt>
<pdfrwt beam="2">  1       -1 0.20609199E-01 0.22117084E+03</pdfrwt>
<totfact> 0.92879378E+03</totfact>
</mgrwt>
</event>
<event>
 4    1  0.3281630E-004  0.2515369E+03  0.7818608E-02  0.1112337E+00
         -1   -1    0    0    0  501 -0.00000000000E+00  0.00000000000E+00  0.29625361700E+02  0.29625362129E+02  0.50400000000E-02 0. -1.
          1   -1    0    0  501    0  0.00000000000E+00 -0.00000000000E+00 -0.53392449658E+03  0.53392449660E+03  0.50400000000E-02 0.  1.
    5000001    1    1    2    0    0  0.16416215565E+01  0.97869339830E+02 -0.21285554547E+03  0.24661221753E+03  0.77000000000E+02 0.  0.
   -5000001    1    1    2    0    0 -0.16416215565E+01 -0.97869339830E+02 -0.29144358941E+03  0.31693764120E+03  0.77000000000E+02 0.  0.
<mgrwt>
<rscale>  0 0.25153693E+03</rscale>
<asrwt>0</asrwt>
<pdfrwt beam="1">  1        1 0.76274922E-01 0.25153693E+03</pdfrwt>
<pdfrwt beam="2">  1       -1 0.42321949E-02 0.25153693E+03</pdfrwt>
<totfact> 0.10220248E+04</totfact>
</mgrwt>
</event>
<event>
 4    1  0.3281630E-004  0.2335200E+03  0.7818608E-02  0.1124186E+00
         -1   -1    0    0    0  501 -0.00000000000E+00  0.00000000000E+00  0.51047968634E+01  0.51047993514E+01  0.50400000000E-02 0. -1.
          1   -1    0    0  501    0  0.00000000000E+00 -0.00000000000E+00 -0.26706048012E+04  0.26706048012E+04  0.50400000000E-02 0.  1.
    5000001    1    1    2    0    0 -0.68743138450E+02 -0.54474923930E+02 -0.12951610780E+04  0.13004093026E+04  0.77000000000E+02 0.  0.
   -5000001    1    1    2    0    0  0.68743138450E+02  0.54474923930E+02 -0.13703389264E+04  0.13753002979E+04  0.77000000000E+02 0.  0.
<mgrwt>
<rscale>  0 0.23352001E+03</rscale>
<asrwt>0</asrwt>
<pdfrwt beam="1">  1        1 0.38151408E+00 0.23352001E+03</pdfrwt>
<pdfrwt beam="2">  1       -1 0.72925858E-03 0.23352001E+03</pdfrwt>
<totfact> 0.48529481E+03</totfact>
</mgrwt>
</event>
<event>
 4    1  0.3281630E-004  0.1994987E+03  0.7818608E-02  0.1150163E+00
          1   -1    0    0  501    0  0.00000000000E+00  0.00000000000E+00  0.18594186103E+04  0.18594186103E+04  0.50400000000E-02 0.  1.
         -1   -1    0    0    0  501 -0.00000000000E+00 -0.00000000000E+00 -0.53511002658E+01  0.53511026393E+01  0.50400000000E-02 0. -1.
    5000001    1    1    2    0    0 -0.38639215187E+02  0.44793322105E+02  0.11404930624E+04  0.11446190878E+04  0.77000000000E+02 0.  0.
   -5000001    1    1    2    0    0  0.38639215187E+02 -0.44793322105E+02  0.71357444757E+03  0.72015062513E+03  0.77000000000E+02 0.  0.
<mgrwt>
<rscale>  0 0.19949875E+03</rscale>
<asrwt>0</asrwt>
<pdfrwt beam="1">  1        1 0.26563172E+00 0.19949875E+03</pdfrwt>
<pdfrwt beam="2">  1       -1 0.76444167E-03 0.19949875E+03</pdfrwt>
<totfact> 0.13926194E+04</totfact>
</mgrwt>
</event>
<event>
 4    1  0.3281630E-004  0.2216422E+03  0.7818608E-02  0.1132665E+00
          1   -1    0    0  501    0  0.00000000000E+00  0.00000000000E+00  0.65686327605E+03  0.65686327607E+03  0.50400000000E-02 0. -1.
         -1   -1    0    0    0  501 -0.00000000000E+00 -0.00000000000E+00 -0.18696917617E+02  0.18696918297E+02  0.50400000000E-02 0.  1.
    5000001    1    1    2    0    0  0.14624962498E+02  0.77219865853E+02  0.35946415587E+03  0.37592589239E+03  0.77000000000E+02 0.  0.
   -5000001    1    1    2    0    0 -0.14624962498E+02 -0.77219865853E+02  0.27870220256E+03  0.29963430198E+03  0.77000000000E+02 0.  0.
<mgrwt>
<rscale>  0 0.22164222E+03</rscale>
<asrwt>0</asrwt>
<pdfrwt beam="1">  1        1 0.93837616E-01 0.22164222E+03</pdfrwt>
<pdfrwt beam="2">  1       -1 0.26709881E-02 0.22164222E+03</pdfrwt>
<totfact> 0.15132420E+04</totfact>
</mgrwt>
</event>
<event>
 4    1  0.3281630E-004  0.1898330E+03  0.7818608E-02  0.1158612E+00
          1   -1    0    0  501    0  0.00000000000E+00  0.00000000000E+00  0.74728005503E+03  0.74728005505E+03  0.50400000000E-02 0. -1.
         -1   -1    0    0    0  501 -0.00000000000E+00 -0.00000000000E+00 -0.12055909542E+02  0.12055910595E+02  0.50400000000E-02 0.  1.
    5000001    1    1    2    0    0  0.29517431242E+02 -0.35074587753E+02  0.24247879914E+03  0.25850816908E+03  0.77000000000E+02 0.  0.
   -5000001    1    1    2    0    0 -0.29517431242E+02  0.35074587753E+02  0.49274534635E+03  0.50082779656E+03  0.77000000000E+02 0.  0.
<mgrwt>
<rscale>  0 0.18983299E+03</rscale>
<asrwt>0</asrwt>
<pdfrwt beam="1">  1        1 0.10675436E+00 0.18983299E+03</pdfrwt>
<pdfrwt beam="2">  1       -1 0.17222719E-02 0.18983299E+03</pdfrwt>
<totfact> 0.23656439E+04</totfact>
</mgrwt>
</event>
<event>
 4    1  0.3281630E-004  0.1700588E+03  0.7818608E-02  0.1177787E+00
         -1   -1    0    0    0  501 -0.00000000000E+00  0.00000000000E+00  0.27820623802E+03  0.27820623806E+03  0.50400000000E-02 0. -1.
          1   -1    0    0  501    0  0.00000000000E+00 -0.00000000000E+00 -0.25987916272E+02  0.25987916761E+02  0.50400000000E-02 0.  1.
    5000001    1    1    2    0    0  0.26173482946E+02  0.21679367815E+02  0.10449889268E+03  0.13417922630E+03  0.77000000000E+02 0.  0.
   -5000001    1    1    2    0    0 -0.26173482946E+02 -0.21679367815E+02  0.14771942907E+03  0.17001492853E+03  0.77000000000E+02 0.  0.
<mgrwt>
<rscale>  0 0.17005882E+03</rscale>
<asrwt>0</asrwt>
<pdfrwt beam="1">  1        1 0.37125594E-02 0.17005882E+03</pdfrwt>
<pdfrwt beam="2">  1       -1 0.39743750E-01 0.17005882E+03</pdfrwt>
<totfact> 0.15039760E+04</totfact>
</mgrwt>
</event>
<event>
 4    1  0.3281630E-004  0.3789479E+03  0.7818608E-02  0.1051323E+00
         -1   -1    0    0    0  501 -0.00000000000E+00  0.00000000000E+00  0.10162500965E+03  0.10162500977E+03  0.50400000000E-02 0. -1.
          1   -1    0    0  501    0  0.00000000000E+00 -0.00000000000E+00 -0.35326320764E+03  0.35326320768E+03  0.50400000000E-02 0.  1.
    5000001    1    1    2    0    0 -0.10418234048E+03  0.11908031945E+03 -0.21016611032E+03  0.27410376954E+03  0.77000000000E+02 0.  0.
   -5000001    1    1    2    0    0  0.10418234048E+03 -0.11908031945E+03 -0.41472087668E+02  0.18078444791E+03  0.77000000000E+02 0.  0.
<mgrwt>
<rscale>  0 0.37894790E+03</rscale>
<asrwt>0</asrwt>
<pdfrwt beam="1">  1        1 0.50466172E-01 0.37894790E+03</pdfrwt>
<pdfrwt beam="2">  1       -1 0.14517859E-01 0.37894790E+03</pdfrwt>
<totfact> 0.26607551E+03</totfact>
</mgrwt>
</event>
<event>
 4    1  0.3281630E-004  0.2398176E+03  0.7818608E-02  0.1119914E+00
         -1   -1    0    0    0  501 -0.00000000000E+00  0.00000000000E+00  0.25872207710E+03  0.25872207715E+03  0.50400000000E-02 0. -1.
          1   -1    0    0  501    0  0.00000000000E+00 -0.00000000000E+00 -0.55573616366E+02  0.55573616595E+02  0.50400000000E-02 0.  1.
    5000001    1    1    2    0    0  0.56881592958E+02 -0.91653606375E+00  0.69523729535E+01  0.95987973963E+02  0.77000000000E+02 0.  0.
   -5000001    1    1    2    0    0 -0.56881592958E+02  0.91653606375E+00  0.19619608778E+03  0.21830771978E+03  0.77000000000E+02 0.  0.
<mgrwt>
<rscale>  0 0.23981761E+03</rscale>
<asrwt>0</asrwt>
<pdfrwt beam="1">  1        1 0.79390880E-02 0.23981761E+03</pdfrwt>
<pdfrwt beam="2">  1       -1 0.36960297E-01 0.23981761E+03</pdfrwt>
<totfact> 0.61556069E+03</totfact>
</mgrwt>
</event>
<event>
 4    1  0.3281630E-004  0.3443645E+03  0.7818608E-02  0.1064952E+00
         -1   -1    0    0    0  501 -0.00000000000E+00  0.00000000000E+00  0.71275417160E+02  0.71275417339E+02  0.50400000000E-02 0. -1.
          1   -1    0    0  501    0  0.00000000000E+00 -0.00000000000E+00 -0.41594594245E+03  0.41594594248E+03  0.50400000000E-02 0.  1.
    5000001    1    1    2    0    0  0.99831502450E+02  0.99446433045E+02 -0.84412199731E+02  0.18141207620E+03  0.77000000000E+02 0.  0.
   -5000001    1    1    2    0    0 -0.99831502450E+02 -0.99446433045E+02 -0.26025832556E+03  0.30580928363E+03  0.77000000000E+02 0.  0.
<mgrwt>
<rscale>  0 0.34436446E+03</rscale>
<asrwt>0</asrwt>
<pdfrwt beam="1">  1        1 0.59420848E-01 0.34436446E+03</pdfrwt>
<pdfrwt beam="2">  1       -1 0.10182203E-01 0.34436446E+03</pdfrwt>
<totfact> 0.37677707E+03</totfact>
</mgrwt>
</event>
<event>
 4    1  0.3281630E-004  0.2375099E+03  0.7818608E-02  0.1121463E+00
          1   -1    0    0  501    0  0.00000000000E+00  0.00000000000E+00  0.67484795476E+03  0.67484795478E+03  0.50400000000E-02 0. -1.
         -1   -1    0    0    0  501 -0.00000000000E+00 -0.00000000000E+00 -0.20897654394E+02  0.20897655002E+02  0.50400000000E-02 0.  1.
    5000001    1    1    2    0    0  0.51458545465E+02 -0.90167928949E+01  0.54312052471E+03  0.55103374563E+03  0.77000000000E+02 0.  0.
   -5000001    1    1    2    0    0 -0.51458545465E+02  0.90167928949E+01  0.11082977565E+03  0.14471186415E+03  0.77000000000E+02 0.  0.
<mgrwt>
<rscale>  0 0.23750991E+03</rscale>
<asrwt>0</asrwt>
<pdfrwt beam="1">  1        1 0.96406826E-01 0.23750991E+03</pdfrwt>
<pdfrwt beam="2">  1       -1 0.29853800E-02 0.23750991E+03</pdfrwt>
<totfact> 0.12422058E+04</totfact>
</mgrwt>
</event>
<event>
 4    1  0.3281630E-004  0.3301485E+03  0.7818608E-02  0.1071071E+00
          1   -1    0    0  501    0  0.00000000000E+00  0.00000000000E+00  0.54999182241E+03  0.54999182244E+03  0.50400000000E-02 0.  1.
         -1   -1    0    0    0  501 -0.00000000000E+00 -0.00000000000E+00 -0.49545292463E+02  0.49545292719E+02  0.50400000000E-02 0. -1.
    5000001    1    1    2    0    0 -0.57201099128E+01 -0.11250617242E+03  0.81522960238E+02  0.15895078338E+03  0.77000000000E+02 0.  0.
   -5000001    1    1    2    0    0  0.57201099128E+01  0.11250617242E+03  0.41892356971E+03  0.44058633178E+03  0.77000000000E+02 0.  0.
<mgrwt>
<rscale>  0 0.33014849E+03</rscale>
<asrwt>0</asrwt>
<pdfrwt beam="1">  1        1 0.78570264E-01 0.33014849E+03</pdfrwt>
<pdfrwt beam="2">  1       -1 0.70778986E-02 0.33014849E+03</pdfrwt>
<totfact> 0.45690454E+03</totfact>
</mgrwt>
</event>
<event>
 4    1  0.3281630E-004  0.1774527E+03  0.7818608E-02  0.1170291E+00
          1   -1    0    0  501    0  0.00000000000E+00  0.00000000000E+00  0.92095709106E+03  0.92095709108E+03  0.50400000000E-02 0.  1.
         -1   -1    0    0    0  501 -0.00000000000E+00 -0.00000000000E+00 -0.85480290420E+01  0.85480305278E+01  0.50400000000E-02 0. -1.
    5000001    1    1    2    0    0  0.42820139817E+02  0.64039734115E+01  0.49964980028E+03  0.50739875657E+03  0.77000000000E+02 0.  0.
   -5000001    1    1    2    0    0 -0.42820139817E+02 -0.64039734115E+01  0.41275926174E+03  0.42210636504E+03  0.77000000000E+02 0.  0.
<mgrwt>
<rscale>  0 0.17745274E+03</rscale>
<asrwt>0</asrwt>
<pdfrwt beam="1">  1        1 0.13156524E+00 0.17745274E+03</pdfrwt>
<pdfrwt beam="2">  1       -1 0.12211477E-02 0.17745274E+03</pdfrwt>
<totfact> 0.28255655E+04</totfact>
</mgrwt>
</event>
<event>
 4    1  0.3281630E-004  0.2549860E+03  0.7818608E-02  0.1110194E+00
          1   -1    0    0  501    0  0.00000000000E+00  0.00000000000E+00  0.19896724357E+04  0.19896724357E+04  0.50400000000E-02 0.  1.
         -1   -1    0    0    0  501 -0.00000000000E+00 -0.00000000000E+00 -0.81694141073E+01  0.81694156620E+01  0.50400000000E-02 0. -1.
    5000001    1    1    2    0    0  0.16273685564E+02  0.49957089352E+02  0.16722217559E+04  0.16748179437E+04  0.77000000000E+02 0.  0.
   -5000001    1    1    2    0    0 -0.16273685564E+02 -0.49957089352E+02  0.30928126564E+03  0.32302390762E+03  0.77000000000E+02 0.  0.
<mgrwt>
<rscale>  0 0.25498596E+03</rscale>
<asrwt>0</asrwt>
<pdfrwt beam="1">  1        1 0.28423910E+00 0.25498596E+03</pdfrwt>
<pdfrwt beam="2">  1       -1 0.11670585E-02 0.25498596E+03</pdfrwt>
<totfact> 0.63660589E+03</totfact>
</mgrwt>
</event>
<event>
 4    1  0.3281630E-004  0.2451610E+03  0.7818608E-02  0.1116402E+00
          1   -1    0    0  501    0  0.00000000000E+00  0.00000000000E+00  0.17682200031E+04  0.17682200031E+04  0.50400000000E-02 0. -1.
         -1   -1    0    0    0  501 -0.00000000000E+00 -0.00000000000E+00 -0.84978011684E+01  0.84978026630E+01  0.50400000000E-02 0.  1.
    5000001    1    1    2    0    0  0.29669675938E+02 -0.90028393474E+02  0.80330775845E+03  0.81253784901E+03  0.77000000000E+02 0.  0.
   -5000001    1    1    2    0    0 -0.29669675938E+02  0.90028393474E+02  0.95641444353E+03  0.96417995680E+03  0.77000000000E+02 0.  0.
<mgrwt>
<rscale>  0 0.24516104E+03</rscale>
<asrwt>0</asrwt>
<pdfrwt beam="1">  1        1 0.25260279E+00 0.24516104E+03</pdfrwt>
<pdfrwt beam="2">  1       -1 0.12139720E-02 0.24516104E+03</pdfrwt>
<totfact> 0.81737295E+03</totfact>
</mgrwt>
</event>
<event>
 4    1  0.3281630E-004  0.1727739E+03  0.7818608E-02  0.1174986E+00
          1   -1    0    0  501    0  0.00000000000E+00  0.00000000000E+00  0.15331622042E+03  0.15331622051E+03  0.50400000000E-02 0. -1.
         -1   -1    0    0    0  501 -0.00000000000E+00 -0.00000000000E+00 -0.48675236551E+02  0.48675236812E+02  0.50400000000E-02 0.  1.
    5000001    1    1    2    0    0  0.12978918111E+01 -0.37172058108E+02  0.37989635808E+02  0.93571677638E+02  0.77000000000E+02 0.  0.
   -5000001    1    1    2    0    0 -0.12978918111E+01  0.37172058108E+02  0.66651348065E+02  0.10841977968E+03  0.77000000000E+02 0.  0.
<mgrwt>
<rscale>  0 0.17277388E+03</rscale>
<asrwt>0</asrwt>
<pdfrwt beam="1">  1        1 0.21902318E-01 0.17277388E+03</pdfrwt>
<pdfrwt beam="2">  1       -1 0.69536051E-02 0.17277388E+03</pdfrwt>
<totfact> 0.22951307E+04</totfact>
</mgrwt>
</event>
<event>
 4    1  0.3281630E-004  0.1904901E+03  0.7818608E-02  0.1158020E+00
         -1   -1    0    0    0  501 -0.00000000000E+00  0.00000000000E+00  0.32596838970E+02  0.32596839360E+02  0.50400000000E-02 0. -1.
          1   -1    0    0  501    0  0.00000000000E+00 -0.00000000000E+00 -0.27829744757E+03  0.27829744762E+03  0.50400000000E-02 0.  1.
    5000001    1    1    2    0    0 -0.57381317001E+01  0.36854522417E+02 -0.19115293370E+03  0.20942689904E+03  0.77000000000E+02 0.  0.
   -5000001    1    1    2    0    0  0.57381317001E+01 -0.36854522417E+02 -0.54547674899E+02  0.10146738794E+03  0.77000000000E+02 0.  0.
<mgrwt>
<rscale>  0 0.19049007E+03</rscale>
<asrwt>0</asrwt>
<pdfrwt beam="1">  1        1 0.39756777E-01 0.19049007E+03</pdfrwt>
<pdfrwt beam="2">  1       -1 0.46566915E-02 0.19049007E+03</pdfrwt>
<totfact> 0.19944279E+04</totfact>
</mgrwt>
</event>
<event>
 4    1  0.3281630E-004  0.1976509E+03  0.7818608E-02  0.1151736E+00
         -1   -1    0    0    0  501 -0.00000000000E+00  0.00000000000E+00  0.98226523488E+03  0.98226523489E+03  0.50400000000E-02 0.  1.
          1   -1    0    0  501    0  0.00000000000E+00 -0.00000000000E+00 -0.99428068945E+01  0.99428081719E+01  0.50400000000E-02 0. -1.
    5000001    1    1    2    0    0  0.32931253368E+02 -0.40874257433E+02  0.32101141908E+03  0.33426412244E+03  0.77000000000E+02 0.  0.
   -5000001    1    1    2    0    0 -0.32931253368E+02  0.40874257433E+02  0.65131100890E+03  0.65794392062E+03  0.77000000000E+02 0.  0.
<mgrwt>
<rscale>  0 0.19765095E+03</rscale>
<asrwt>0</asrwt>
<pdfrwt beam="1">  1        1 0.14204013E-02 0.19765095E+03</pdfrwt>
<pdfrwt beam="2">  1       -1 0.14032358E+00 0.19765095E+03</pdfrwt>
<totfact> 0.43389160E+03</totfact>
</mgrwt>
</event>
<event>
 4    1  0.3281630E-004  0.3387189E+03  0.7818608E-02  0.1067343E+00
         -1   -1    0    0    0  501 -0.00000000000E+00  0.00000000000E+00  0.11851349295E+02  0.11851350366E+02  0.50400000000E-02 0.  1.
          1   -1    0    0  501    0  0.00000000000E+00 -0.00000000000E+00 -0.24201984358E+04  0.24201984358E+04  0.50400000000E-02 0. -1.
    5000001    1    1    2    0    0  0.41093788345E+02 -0.14179856938E+03 -0.14264200799E+04  0.14361054203E+04  0.77000000000E+02 0.  0.
   -5000001    1    1    2    0    0 -0.41093788345E+02  0.14179856938E+03 -0.98192700660E+03  0.99594436592E+03  0.77000000000E+02 0.  0.
<mgrwt>
<rscale>  0 0.33871887E+03</rscale>
<asrwt>0</asrwt>
<pdfrwt beam="1">  1        1 0.34574232E+00 0.33871887E+03</pdfrwt>
<pdfrwt beam="2">  1       -1 0.16930515E-02 0.33871887E+03</pdfrwt>
<totfact> 0.20294968E+03</totfact>
</mgrwt>
</event>
<event>
 4    1  0.3281630E-004  0.1914249E+03  0.7818608E-02  0.1157182E+00
          1   -1    0    0  501    0  0.00000000000E+00  0.00000000000E+00  0.40493414190E+03  0.40493414193E+03  0.50400000000E-02 0. -1.
         -1   -1    0    0    0  501 -0.00000000000E+00 -0.00000000000E+00 -0.22623109183E+02  0.22623109744E+02  0.50400000000E-02 0.  1.
    5000001    1    1    2    0    0  0.19319179521E+02 -0.44226810082E+02  0.12405121858E+03  0.15377563610E+03  0.77000000000E+02 0.  0.
   -5000001    1    1    2    0    0 -0.19319179521E+02  0.44226810082E+02  0.25825981414E+03  0.27378161558E+03  0.77000000000E+02 0.  0.
<mgrwt>
<rscale>  0 0.19142486E+03</rscale>
<asrwt>0</asrwt>
<pdfrwt beam="1">  1        1 0.57847739E-01 0.19142486E+03</pdfrwt>
<pdfrwt beam="2">  1       -1 0.32318725E-02 0.19142486E+03</pdfrwt>
<totfact> 0.21396609E+04</totfact>
</mgrwt>
</event>
<event>
 4    1  0.3281630E-004  0.2149520E+03  0.7818608E-02  0.1137703E+00
         -1   -1    0    0    0  501 -0.00000000000E+00  0.00000000000E+00  0.42799886229E+01  0.42799915904E+01  0.50400000000E-02 0. -1.
          1   -1    0    0  501    0  0.00000000000E+00 -0.00000000000E+00 -0.26988588478E+04  0.26988588478E+04  0.50400000000E-02 0.  1.
    5000001    1    1    2    0    0  0.64911528214E+02  0.27659494901E+02 -0.16663058103E+04  0.16695755771E+04  0.77000000000E+02 0.  0.
   -5000001    1    1    2    0    0 -0.64911528214E+02 -0.27659494901E+02 -0.10282730488E+04  0.10335632623E+04  0.77000000000E+02 0.  0.
<mgrwt>
<rscale>  0 0.21495199E+03</rscale>
<asrwt>0</asrwt>
<pdfrwt beam="1">  1        1 0.38555017E+00 0.21495199E+03</pdfrwt>
<pdfrwt beam="2">  1       -1 0.61142889E-03 0.21495199E+03</pdfrwt>
<totfact> 0.60001599E+03</totfact>
</mgrwt>
</event>
<event>
 4    1  0.3281630E-004  0.3024388E+03  0.7818608E-02  0.1084028E+00
         -1   -1    0    0    0  501 -0.00000000000E+00  0.00000000000E+00  0.19998888785E+02  0.19998889420E+02  0.50400000000E-02 0. -1.
          1   -1    0    0  501    0  0.00000000000E+00 -0.00000000000E+00 -0.11434288304E+04  0.11434288304E+04  0.50400000000E-02 0.  1.
    5000001    1    1    2    0    0  0.58775011051E+02 -0.72523572175E+02 -0.91057165319E+03  0.91857710947E+03  0.77000000000E+02 0.  0.
   -5000001    1    1    2    0    0 -0.58775011051E+02  0.72523572175E+02 -0.21285828844E+03  0.24485061038E+03  0.77000000000E+02 0.  0.
<mgrwt>
<rscale>  0 0.30243880E+03</rscale>
<asrwt>0</asrwt>
<pdfrwt beam="1">  1        1 0.16334693E+00 0.30243880E+03</pdfrwt>
<pdfrwt beam="2">  1       -1 0.28569849E-02 0.30243880E+03</pdfrwt>
<totfact> 0.58465761E+03</totfact>
</mgrwt>
</event>
<event>
 4    1  0.3281630E-004  0.2613890E+03  0.7818608E-02  0.1106312E+00
          1   -1    0    0  501    0  0.00000000000E+00  0.00000000000E+00  0.25801654488E+04  0.25801654489E+04  0.50400000000E-02 0.  1.
         -1   -1    0    0    0  501 -0.00000000000E+00 -0.00000000000E+00 -0.66201388306E+01  0.66201407491E+01  0.50400000000E-02 0. -1.
    5000001    1    1    2    0    0 -0.66203657501E+02  0.44241855906E+02  0.60029499772E+03  0.61042882499E+03  0.77000000000E+02 0.  0.
   -5000001    1    1    2    0    0  0.66203657501E+02 -0.44241855906E+02  0.19732503123E+04  0.19763567646E+04  0.77000000000E+02 0.  0.
<mgrwt>
<rscale>  0 0.26138903E+03</rscale>
<asrwt>0</asrwt>
<pdfrwt beam="1">  1        1 0.36859419E+00 0.26138903E+03</pdfrwt>
<pdfrwt beam="2">  1       -1 0.94573649E-03 0.26138903E+03</pdfrwt>
<totfact> 0.37921874E+03</totfact>
</mgrwt>
</event>
<event>
 4    1  0.3281630E-004  0.1733857E+03  0.7818608E-02  0.1174362E+00
          1   -1    0    0  501    0  0.00000000000E+00  0.00000000000E+00  0.10230147655E+04  0.10230147655E+04  0.50400000000E-02 0. -1.
         -1   -1    0    0    0  501 -0.00000000000E+00 -0.00000000000E+00 -0.73465668220E+01  0.73465685508E+01  0.50400000000E-02 0.  1.
    5000001    1    1    2    0    0  0.27690068568E+02  0.28041740261E+02  0.54226433438E+03  0.54911992081E+03  0.77000000000E+02 0.  0.
   -5000001    1    1    2    0    0 -0.27690068568E+02 -0.28041740261E+02  0.47340386432E+03  0.48124141327E+03  0.77000000000E+02 0.  0.
<mgrwt>
<rscale>  0 0.17338567E+03</rscale>
<asrwt>0</asrwt>
<pdfrwt beam="1">  1        1 0.14614493E+00 0.17338567E+03</pdfrwt>
<pdfrwt beam="2">  1       -1 0.10495099E-02 0.17338567E+03</pdfrwt>
<totfact> 0.29606365E+04</totfact>
</mgrwt>
</event>
<event>
 4    1  0.3281630E-004  0.1954186E+03  0.7818608E-02  0.1153663E+00
          1   -1    0    0  501    0  0.00000000000E+00  0.00000000000E+00  0.10780661210E+02  0.10780662388E+02  0.50400000000E-02 0.  1.
         -1   -1    0    0    0  501 -0.00000000000E+00 -0.00000000000E+00 -0.88557749390E+03  0.88557749392E+03  0.50400000000E-02 0. -1.
    5000001    1    1    2    0    0  0.58748275148E+02 -0.12726768077E+02 -0.44742782975E+03  0.45796724041E+03  0.77000000000E+02 0.  0.
   -5000001    1    1    2    0    0 -0.58748275148E+02  0.12726768077E+02 -0.42736900295E+03  0.43839091589E+03  0.77000000000E+02 0.  0.
<mgrwt>
<rscale>  0 0.19541864E+03</rscale>
<asrwt>0</asrwt>
<pdfrwt beam="1">  1        1 0.15400951E-02 0.19541864E+03</pdfrwt>
<pdfrwt beam="2">  1       -1 0.12651102E+00 0.19541864E+03</pdfrwt>
<totfact> 0.49984351E+03</totfact>
</mgrwt>
</event>
<event>
 4    1  0.3281630E-004  0.5081062E+03  0.7818608E-02  0.1011684E+00
          1   -1    0    0  501    0  0.00000000000E+00  0.00000000000E+00  0.41213137761E+03  0.41213137764E+03  0.50400000000E-02 0.  1.
         -1   -1    0    0    0  501 -0.00000000000E+00 -0.00000000000E+00 -0.15660774381E+03  0.15660774389E+03  0.50400000000E-02 0. -1.
    5000001    1    1    2    0    0 -0.13267380389E+03 -0.15049466532E+03 -0.23918861632E+02  0.21622232649E+03  0.77000000000E+02 0.  0.
   -5000001    1    1    2    0    0  0.13267380389E+03  0.15049466532E+03  0.27944249544E+03  0.35251679504E+03  0.77000000000E+02 0.  0.
<mgrwt>
<rscale>  0 0.50810615E+03</rscale>
<asrwt>0</asrwt>
<pdfrwt beam="1">  1        1 0.58875911E-01 0.50810615E+03</pdfrwt>
<pdfrwt beam="2">  1       -1 0.22372535E-01 0.50810615E+03</pdfrwt>
<totfact> 0.10787970E+03</totfact>
</mgrwt>
</event>
<event>
 4    1  0.3281630E-004  0.2741538E+03  0.7818608E-02  0.1098926E+00
         -1   -1    0    0    0  501 -0.00000000000E+00  0.00000000000E+00  0.25193841513E+02  0.25193842017E+02  0.50400000000E-02 0. -1.
          1   -1    0    0  501    0  0.00000000000E+00 -0.00000000000E+00 -0.74581999330E+03  0.74581999331E+03  0.50400000000E-02 0.  1.
    5000001    1    1    2    0    0  0.48009567751E+02 -0.85837659728E+02 -0.51910573631E+03  0.53392208036E+03  0.77000000000E+02 0.  0.
   -5000001    1    1    2    0    0 -0.48009567751E+02  0.85837659728E+02 -0.20152041547E+03  0.23709175497E+03  0.77000000000E+02 0.  0.
<mgrwt>
<rscale>  0 0.27415376E+03</rscale>
<asrwt>0</asrwt>
<pdfrwt beam="1">  1        1 0.10654570E+00 0.27415376E+03</pdfrwt>
<pdfrwt beam="2">  1       -1 0.35991207E-02 0.27415376E+03</pdfrwt>
<totfact> 0.82191524E+03</totfact>
</mgrwt>
</event>
<event>
 4    1  0.3281630E-004  0.2174101E+03  0.7818608E-02  0.1135829E+00
          1   -1    0    0  501    0  0.00000000000E+00  0.00000000000E+00  0.87012566449E+02  0.87012566595E+02  0.50400000000E-02 0.  1.
         -1   -1    0    0    0  501 -0.00000000000E+00 -0.00000000000E+00 -0.13580556922E+03  0.13580556932E+03  0.50400000000E-02 0. -1.
    5000001    1    1    2    0    0  0.77673653782E+01 -0.65297430119E+02 -0.64923845643E+02  0.12028379807E+03  0.77000000000E+02 0.  0.
   -5000001    1    1    2    0    0 -0.77673653782E+01  0.65297430119E+02  0.16130842867E+02  0.10253433784E+03  0.77000000000E+02 0.  0.
<mgrwt>
<rscale>  0 0.21741013E+03</rscale>
<asrwt>0</asrwt>
<pdfrwt beam="1">  1        1 0.12430367E-01 0.21741013E+03</pdfrwt>
<pdfrwt beam="2">  1       -1 0.19400796E-01 0.21741013E+03</pdfrwt>
<totfact> 0.98847612E+03</totfact>
</mgrwt>
</event>
<event>
 4    1  0.3281630E-004  0.3576175E+03  0.7818608E-02  0.1059531E+00
         -1   -1    0    0    0  501 -0.00000000000E+00  0.00000000000E+00  0.14191470528E+03  0.14191470537E+03  0.50400000000E-02 0.  1.
          1   -1    0    0  501    0  0.00000000000E+00 -0.00000000000E+00 -0.22529432395E+03  0.22529432400E+03  0.50400000000E-02 0. -1.
    5000001    1    1    2    0    0 -0.74395042789E+02 -0.82810890127E+02  0.78282694379E+02  0.15636318670E+03  0.77000000000E+02 0.  0.
   -5000001    1    1    2    0    0  0.74395042789E+02  0.82810890127E+02 -0.16166231304E+03  0.21084584268E+03  0.77000000000E+02 0.  0.
<mgrwt>
<rscale>  0 0.35761755E+03</rscale>
<asrwt>0</asrwt>
<pdfrwt beam="1">  1        1 0.32184903E-01 0.35761755E+03</pdfrwt>
<pdfrwt beam="2">  1       -1 0.20273530E-01 0.35761755E+03</pdfrwt>
<totfact> 0.27417086E+03</totfact>
</mgrwt>
</event>
<event>
 4    1  0.3281630E-004  0.1845677E+03  0.7818608E-02  0.1163454E+00
         -1   -1    0    0    0  501 -0.00000000000E+00  0.00000000000E+00  0.71971278197E+02  0.71971278373E+02  0.50400000000E-02 0. -1.
          1   -1    0    0  501    0  0.00000000000E+00 -0.00000000000E+00 -0.11832921896E+03  0.11832921907E+03  0.50400000000E-02 0.  1.
    5000001    1    1    2    0    0  0.29057396383E+02  0.21907412818E+02  0.13464158778E+02  0.86223840047E+02  0.77000000000E+02 0.  0.
   -5000001    1    1    2    0    0 -0.29057396383E+02 -0.21907412818E+02 -0.59822099544E+02  0.10407665740E+03  0.77000000000E+02 0.  0.
<mgrwt>
<rscale>  0 0.18456766E+03</rscale>
<asrwt>0</asrwt>
<pdfrwt beam="1">  1        1 0.16904174E-01 0.18456766E+03</pdfrwt>
<pdfrwt beam="2">  1       -1 0.10281611E-01 0.18456766E+03</pdfrwt>
<totfact> 0.17747013E+04</totfact>
</mgrwt>
</event>
<event>
 4    1  0.3281630E-004  0.1774096E+03  0.7818608E-02  0.1170334E+00
         -1   -1    0    0    0  501 -0.00000000000E+00  0.00000000000E+00  0.10563133982E+03  0.10563133994E+03  0.50400000000E-02 0.  1.
          1   -1    0    0  501    0  0.00000000000E+00 -0.00000000000E+00 -0.74490586562E+02  0.74490586733E+02  0.50400000000E-02 0. -1.
    5000001    1    1    2    0    0 -0.17180256559E+01 -0.40518778619E+02  0.33003134293E+02  0.93074861838E+02  0.77000000000E+02 0.  0.
   -5000001    1    1    2    0    0  0.17180256559E+01  0.40518778619E+02 -0.18623810376E+01  0.87047064833E+02  0.77000000000E+02 0.  0.
<mgrwt>
<rscale>  0 0.17740959E+03</rscale>
<asrwt>0</asrwt>
<pdfrwt beam="1">  1        1 0.10641512E-01 0.17740959E+03</pdfrwt>
<pdfrwt beam="2">  1       -1 0.15090191E-01 0.17740959E+03</pdfrwt>
<totfact> 0.17864826E+04</totfact>
</mgrwt>
</event>
<event>
 4    1  0.3281630E-004  0.4038802E+03  0.7818608E-02  0.1042444E+00
          1   -1    0    0  501    0  0.00000000000E+00  0.00000000000E+00  0.12047778741E+03  0.12047778751E+03  0.50400000000E-02 0.  1.
         -1   -1    0    0    0  501 -0.00000000000E+00 -0.00000000000E+00 -0.33848405972E+03  0.33848405976E+03  0.50400000000E-02 0. -1.
    5000001    1    1    2    0    0 -0.46999494358E+02  0.14718925361E+03 -0.22806410571E+03  0.28603472719E+03  0.77000000000E+02 0.  0.
   -5000001    1    1    2    0    0  0.46999494358E+02 -0.14718925361E+03  0.10057833398E+02  0.17292712008E+03  0.77000000000E+02 0.  0.
<mgrwt>
<rscale>  0 0.40388023E+03</rscale>
<asrwt>0</asrwt>
<pdfrwt beam="1">  1        1 0.17211113E-01 0.40388023E+03</pdfrwt>
<pdfrwt beam="2">  1       -1 0.48354865E-01 0.40388023E+03</pdfrwt>
<totfact> 0.13660176E+03</totfact>
</mgrwt>
</event>
<event>
 4    1  0.3281630E-004  0.5047285E+03  0.7818608E-02  0.1012552E+00
         -1   -1    0    0    0  501 -0.00000000000E+00  0.00000000000E+00  0.13212754186E+03  0.13212754195E+03  0.50400000000E-02 0. -1.
          1   -1    0    0  501    0  0.00000000000E+00 -0.00000000000E+00 -0.48201698937E+03  0.48201698940E+03  0.50400000000E-02 0.  1.
    5000001    1    1    2    0    0  0.83933578921E+02  0.22446467874E+03 -0.19703131981E+03  0.31965540612E+03  0.77000000000E+02 0.  0.
   -5000001    1    1    2    0    0 -0.83933578921E+02 -0.22446467874E+03 -0.15285812771E+03  0.29448912523E+03  0.77000000000E+02 0.  0.
<mgrwt>
<rscale>  0 0.50472852E+03</rscale>
<asrwt>0</asrwt>
<pdfrwt beam="1">  1        1 0.68859569E-01 0.50472852E+03</pdfrwt>
<pdfrwt beam="2">  1       -1 0.18875363E-01 0.50472852E+03</pdfrwt>
<totfact> 0.11632893E+03</totfact>
</mgrwt>
</event>
<event>
 4    1  0.3281630E-004  0.2559055E+03  0.7818608E-02  0.1109629E+00
          1   -1    0    0  501    0  0.00000000000E+00  0.00000000000E+00  0.59845037844E+03  0.59845037846E+03  0.50400000000E-02 0.  1.
         -1   -1    0    0    0  501 -0.00000000000E+00 -0.00000000000E+00 -0.27357163470E+02  0.27357163934E+02  0.50400000000E-02 0. -1.
    5000001    1    1    2    0    0  0.98543884237E+01 -0.95880886811E+02  0.36857186096E+03  0.38867013021E+03  0.77000000000E+02 0.  0.
   -5000001    1    1    2    0    0 -0.98543884237E+01  0.95880886811E+02  0.20252135401E+03  0.23713741218E+03  0.77000000000E+02 0.  0.
<mgrwt>
<rscale>  0 0.25590549E+03</rscale>
<asrwt>0</asrwt>
<pdfrwt beam="1">  1        1 0.85492912E-01 0.25590549E+03</pdfrwt>
<pdfrwt beam="2">  1       -1 0.39081662E-02 0.25590549E+03</pdfrwt>
<totfact> 0.98802647E+03</totfact>
</mgrwt>
</event>
<event>
 4    1  0.3281630E-004  0.2637838E+03  0.7818608E-02  0.1104891E+00
         -1   -1    0    0    0  501 -0.00000000000E+00  0.00000000000E+00  0.51082618384E+02  0.51082618632E+02  0.50400000000E-02 0. -1.
          1   -1    0    0  501    0  0.00000000000E+00 -0.00000000000E+00 -0.34053593399E+03  0.34053593403E+03  0.50400000000E-02 0.  1.
    5000001    1    1    2    0    0  0.69752748406E+02 -0.80660742048E+02 -0.13026658404E+03  0.18512153882E+03  0.77000000000E+02 0.  0.
   -5000001    1    1    2    0    0 -0.69752748406E+02  0.80660742048E+02 -0.15918673157E+03  0.20649701384E+03  0.77000000000E+02 0.  0.
<mgrwt>
<rscale>  0 0.26378375E+03</rscale>
<asrwt>0</asrwt>
<pdfrwt beam="1">  1        1 0.48647989E-01 0.26378375E+03</pdfrwt>
<pdfrwt beam="2">  1       -1 0.72975171E-02 0.26378375E+03</pdfrwt>
<totfact> 0.80450224E+03</totfact>
</mgrwt>
</event>
<event>
 4    1  0.3281630E-004  0.2692529E+03  0.7818608E-02  0.1101708E+00
          1   -1    0    0  501    0  0.00000000000E+00  0.00000000000E+00  0.17620942781E+03  0.17620942788E+03  0.50400000000E-02 0. -1.
         -1   -1    0    0    0  501 -0.00000000000E+00 -0.00000000000E+00 -0.10285645901E+03  0.10285645913E+03  0.50400000000E-02 0.  1.
    5000001    1    1    2    0    0  0.99864348449E+02  0.30917205915E+02  0.73561651781E+02  0.14922827589E+03  0.77000000000E+02 0.  0.
   -5000001    1    1    2    0    0 -0.99864348449E+02 -0.30917205915E+02 -0.20868297797E+00  0.12983761112E+03  0.77000000000E+02 0.  0.
<mgrwt>
<rscale>  0 0.26925288E+03</rscale>
<asrwt>0</asrwt>
<pdfrwt beam="1">  1        1 0.25172775E-01 0.26925288E+03</pdfrwt>
<pdfrwt beam="2">  1       -1 0.14693780E-01 0.26925288E+03</pdfrwt>
<totfact> 0.62412877E+03</totfact>
</mgrwt>
</event>
<event>
 4    1  0.3281630E-004  0.2308549E+03  0.7818608E-02  0.1126039E+00
          1   -1    0    0  501    0  0.00000000000E+00  0.00000000000E+00  0.45777124768E+02  0.45777125045E+02  0.50400000000E-02 0.  1.
         -1   -1    0    0    0  501 -0.00000000000E+00 -0.00000000000E+00 -0.29105146140E+03  0.29105146145E+03  0.50400000000E-02 0. -1.
    5000001    1    1    2    0    0  0.53597152835E+01  0.75779107172E+02 -0.18142252042E+03  0.21122104664E+03  0.77000000000E+02 0.  0.
   -5000001    1    1    2    0    0 -0.53597152835E+01 -0.75779107172E+02 -0.63851816218E+02  0.12560753985E+03  0.77000000000E+02 0.  0.
<mgrwt>
<rscale>  0 0.23085493E+03</rscale>
<asrwt>0</asrwt>
<pdfrwt beam="1">  1        1 0.65395895E-02 0.23085493E+03</pdfrwt>
<pdfrwt beam="2">  1       -1 0.41578779E-01 0.23085493E+03</pdfrwt>
<totfact> 0.65007486E+03</totfact>
</mgrwt>
</event>
<event>
 4    1  0.3281630E-004  0.2599778E+03  0.7818608E-02  0.1107157E+00
         -1   -1    0    0    0  501 -0.00000000000E+00  0.00000000000E+00  0.16789938191E+03  0.16789938198E+03  0.50400000000E-02 0. -1.
          1   -1    0    0  501    0  0.00000000000E+00 -0.00000000000E+00 -0.10063832133E+03  0.10063832146E+03  0.50400000000E-02 0.  1.
    5000001    1    1    2    0    0 -0.94657665784E+02 -0.17688094967E+02  0.76158593896E+02  0.14492092264E+03  0.77000000000E+02 0.  0.
   -5000001    1    1    2    0    0  0.94657665784E+02  0.17688094967E+02 -0.88975333229E+01  0.12361678080E+03  0.77000000000E+02 0.  0.
<mgrwt>
<rscale>  0 0.25997778E+03</rscale>
<asrwt>0</asrwt>
<pdfrwt beam="1">  1        1 0.14376903E-01 0.25997778E+03</pdfrwt>
<pdfrwt beam="2">  1       -1 0.23985626E-01 0.25997778E+03</pdfrwt>
<totfact> 0.58214124E+03</totfact>
</mgrwt>
</event>
<event>
 4    1  0.3281630E-004  0.1919478E+03  0.7818608E-02  0.1156716E+00
         -1   -1    0    0    0  501 -0.00000000000E+00  0.00000000000E+00  0.17948448574E+02  0.17948449282E+02  0.50400000000E-02 0. -1.
          1   -1    0    0  501    0  0.00000000000E+00 -0.00000000000E+00 -0.51319143152E+03  0.51319143154E+03  0.50400000000E-02 0.  1.
    5000001    1    1    2    0    0  0.55512648203E+02  0.14143399644E+02 -0.24610500703E+03  0.26415594703E+03  0.77000000000E+02 0.  0.
   -5000001    1    1    2    0    0 -0.55512648203E+02 -0.14143399644E+02 -0.24913797591E+03  0.26698393380E+03  0.77000000000E+02 0.  0.
<mgrwt>
<rscale>  0 0.19194781E+03</rscale>
<asrwt>0</asrwt>
<pdfrwt beam="1">  1        1 0.73313052E-01 0.19194781E+03</pdfrwt>
<pdfrwt beam="2">  1       -1 0.25640645E-02 0.19194781E+03</pdfrwt>
<totfact> 0.22166132E+04</totfact>
</mgrwt>
</event>
<event>
 4    1  0.3281630E-004  0.2107198E+03  0.7818608E-02  0.1140997E+00
          1   -1    0    0  501    0  0.00000000000E+00  0.00000000000E+00  0.36771540387E+03  0.36771540391E+03  0.50400000000E-02 0.  1.
         -1   -1    0    0    0  501 -0.00000000000E+00 -0.00000000000E+00 -0.30188325240E+02  0.30188325661E+02  0.50400000000E-02 0. -1.
    5000001    1    1    2    0    0 -0.10458366540E+01  0.69975078224E+02  0.13750039786E+03  0.17243249334E+03  0.77000000000E+02 0.  0.
   -5000001    1    1    2    0    0  0.10458366540E+01 -0.69975078224E+02  0.20002668077E+03  0.22547123623E+03  0.77000000000E+02 0.  0.
<mgrwt>
<rscale>  0 0.21071984E+03</rscale>
<asrwt>0</asrwt>
<pdfrwt beam="1">  1        1 0.52530773E-01 0.21071984E+03</pdfrwt>
<pdfrwt beam="2">  1       -1 0.43126178E-02 0.21071984E+03</pdfrwt>
<totfact> 0.15893128E+04</totfact>
</mgrwt>
</event>
<event>
 4    1  0.3281630E-004  0.3488882E+03  0.7818608E-02  0.1063072E+00
          1   -1    0    0  501    0  0.00000000000E+00  0.00000000000E+00  0.38897744717E+02  0.38897745044E+02  0.50400000000E-02 0.  1.
         -1   -1    0    0    0  501 -0.00000000000E+00 -0.00000000000E+00 -0.78232675348E+03  0.78232675349E+03  0.50400000000E-02 0. -1.
    5000001    1    1    2    0    0  0.13135874000E+03 -0.56105437756E+02 -0.22101758548E+03  0.27419101337E+03  0.77000000000E+02 0.  0.
   -5000001    1    1    2    0    0 -0.13135874000E+03  0.56105437756E+02 -0.52241142328E+03  0.54703348517E+03  0.77000000000E+02 0.  0.
<mgrwt>
<rscale>  0 0.34888821E+03</rscale>
<asrwt>0</asrwt>
<pdfrwt beam="1">  1        1 0.55568212E-02 0.34888821E+03</pdfrwt>
<pdfrwt beam="2">  1       -1 0.11176096E+00 0.34888821E+03</pdfrwt>
<totfact> 0.11279494E+03</totfact>
</mgrwt>
</event>
<event>
 4    1  0.3281630E-004  0.2797561E+03  0.7818608E-02  0.1095822E+00
         -1   -1    0    0    0  501 -0.00000000000E+00  0.00000000000E+00  0.18024378919E+04  0.18024378919E+04  0.50400000000E-02 0. -1.
          1   -1    0    0  501    0  0.00000000000E+00 -0.00000000000E+00 -0.10855227171E+02  0.10855228341E+02  0.50400000000E-02 0.  1.
    5000001    1    1    2    0    0  0.10590470822E+03 -0.58513237057E+01  0.12124555656E+04  0.12195193905E+04  0.77000000000E+02 0.  0.
   -5000001    1    1    2    0    0 -0.10590470822E+03  0.58513237057E+01  0.57912709914E+03  0.59377372977E+03  0.77000000000E+02 0.  0.
<mgrwt>
<rscale>  0 0.27975614E+03</rscale>
<asrwt>0</asrwt>
<pdfrwt beam="1">  1        1 0.15507471E-02 0.27975614E+03</pdfrwt>
<pdfrwt beam="2">  1       -1 0.25749108E+00 0.27975614E+03</pdfrwt>
<totfact> 0.61812807E+02</totfact>
</mgrwt>
</event>
<event>
 4    1  0.3281630E-004  0.2458682E+03  0.7818608E-02  0.1115944E+00
          1   -1    0    0  501    0  0.00000000000E+00  0.00000000000E+00  0.21545746197E+02  0.21545746786E+02  0.50400000000E-02 0.  1.
         -1   -1    0    0    0  501 -0.00000000000E+00 -0.00000000000E+00 -0.70142820648E+03  0.70142820650E+03  0.50400000000E-02 0. -1.
    5000001    1    1    2    0    0  0.20403621142E+02 -0.59144409166E+02 -0.55339405239E+03  0.56221734775E+03  0.77000000000E+02 0.  0.
   -5000001    1    1    2    0    0 -0.20403621142E+02  0.59144409166E+02 -0.12648840789E+03  0.16075660553E+03  0.77000000000E+02 0.  0.
<mgrwt>
<rscale>  0 0.24586821E+03</rscale>
<asrwt>0</asrwt>
<pdfrwt beam="1">  1        1 0.30779642E-02 0.24586821E+03</pdfrwt>
<pdfrwt beam="2">  1       -1 0.10020402E+00 0.24586821E+03</pdfrwt>
<totfact> 0.32773480E+03</totfact>
</mgrwt>
</event>
<event>
 4    1  0.3281630E-004  0.2055787E+03  0.7818608E-02  0.1145116E+00
         -1   -1    0    0    0  501 -0.00000000000E+00  0.00000000000E+00  0.10947650483E+02  0.10947651644E+02  0.50400000000E-02 0.  1.
          1   -1    0    0  501    0  0.00000000000E+00 -0.00000000000E+00 -0.96510619404E+03  0.96510619405E+03  0.50400000000E-02 0. -1.
    5000001    1    1    2    0    0 -0.64751911830E+02 -0.15418751309E+02 -0.54523973382E+03  0.55465837712E+03  0.77000000000E+02 0.  0.
   -5000001    1    1    2    0    0  0.64751911830E+02  0.15418751309E+02 -0.40891880974E+03  0.42139546857E+03  0.77000000000E+02 0.  0.
<mgrwt>
<rscale>  0 0.20557866E+03</rscale>
<asrwt>0</asrwt>
<pdfrwt beam="1">  1        1 0.13787226E+00 0.20557866E+03</pdfrwt>
<pdfrwt beam="2">  1       -1 0.15639508E-02 0.20557866E+03</pdfrwt>
<totfact> 0.18540372E+04</totfact>
</mgrwt>
</event>
<event>
 4    1  0.3281630E-004  0.1727271E+03  0.7818608E-02  0.1175033E+00
          1   -1    0    0  501    0  0.00000000000E+00  0.00000000000E+00  0.19551951733E+03  0.19551951739E+03  0.50400000000E-02 0. -1.
         -1   -1    0    0    0  501 -0.00000000000E+00 -0.00000000000E+00 -0.38147930949E+02  0.38147931282E+02  0.50400000000E-02 0.  1.
    5000001    1    1    2    0    0  0.12856686545E+02 -0.28496142679E+02  0.11047949773E+03  0.13824631625E+03  0.77000000000E+02 0.  0.
   -5000001    1    1    2    0    0 -0.12856686545E+02  0.28496142679E+02  0.46892088649E+02  0.95421132431E+02  0.77000000000E+02 0.  0.
<mgrwt>
<rscale>  0 0.17272713E+03</rscale>
<asrwt>0</asrwt>
<pdfrwt beam="1">  1        1 0.27931360E-01 0.17272713E+03</pdfrwt>
<pdfrwt beam="2">  1       -1 0.54497044E-02 0.17272713E+03</pdfrwt>
<totfact> 0.24323683E+04</totfact>
</mgrwt>
</event>
<event>
 4    1  0.3281630E-004  0.2420700E+03  0.7818608E-02  0.1118422E+00
         -1   -1    0    0    0  501 -0.00000000000E+00  0.00000000000E+00  0.18030547618E+02  0.18030548323E+02  0.50400000000E-02 0.  1.
          1   -1    0    0  501    0  0.00000000000E+00 -0.00000000000E+00 -0.81248039091E+03  0.81248039092E+03  0.50400000000E-02 0. -1.
    5000001    1    1    2    0    0 -0.50359297854E+02 -0.65684276756E+02 -0.54558715125E+03  0.55717575567E+03  0.77000000000E+02 0.  0.
   -5000001    1    1    2    0    0  0.50359297854E+02  0.65684276756E+02 -0.24886269204E+03  0.27333518358E+03  0.77000000000E+02 0.  0.
<mgrwt>
<rscale>  0 0.24206996E+03</rscale>
<asrwt>0</asrwt>
<pdfrwt beam="1">  1        1 0.11606860E+00 0.24206996E+03</pdfrwt>
<pdfrwt beam="2">  1       -1 0.25757931E-02 0.24206996E+03</pdfrwt>
<totfact> 0.11806407E+04</totfact>
</mgrwt>
</event>
<event>
 4    1  0.3281630E-004  0.3781163E+03  0.7818608E-02  0.1051632E+00
         -1   -1    0    0    0  501 -0.00000000000E+00  0.00000000000E+00  0.40720425853E+02  0.40720426165E+02  0.50400000000E-02 0. -1.
          1   -1    0    0  501    0  0.00000000000E+00 -0.00000000000E+00 -0.87776531593E+03  0.87776531594E+03  0.50400000000E-02 0.  1.
    5000001    1    1    2    0    0 -0.48718130155E+02  0.14657164187E+03 -0.23103556130E+03  0.28838018828E+03  0.77000000000E+02 0.  0.
   -5000001    1    1    2    0    0  0.48718130155E+02 -0.14657164187E+03 -0.60600932877E+03  0.63010555383E+03  0.77000000000E+02 0.  0.
<mgrwt>
<rscale>  0 0.37811627E+03</rscale>
<asrwt>0</asrwt>
<pdfrwt beam="1">  1        1 0.12539503E+00 0.37811627E+03</pdfrwt>
<pdfrwt beam="2">  1       -1 0.58172043E-02 0.37811627E+03</pdfrwt>
<totfact> 0.31469797E+03</totfact>
</mgrwt>
</event>
<event>
 4    1  0.3281630E-004  0.4725250E+03  0.7818608E-02  0.1021210E+00
          1   -1    0    0  501    0  0.00000000000E+00  0.00000000000E+00  0.11957195348E+03  0.11957195359E+03  0.50400000000E-02 0.  1.
         -1   -1    0    0    0  501 -0.00000000000E+00 -0.00000000000E+00 -0.46683164774E+03  0.46683164777E+03  0.50400000000E-02 0. -1.
    5000001    1    1    2    0    0 -0.12508913249E+03  0.12108210785E+03 -0.34729363379E+03  0.39604297239E+03  0.77000000000E+02 0.  0.
   -5000001    1    1    2    0    0  0.12508913249E+03 -0.12108210785E+03  0.33939532456E-01  0.19036062897E+03  0.77000000000E+02 0.  0.
<mgrwt>
<rscale>  0 0.47252501E+03</rscale>
<asrwt>0</asrwt>
<pdfrwt beam="1">  1        1 0.17081708E-01 0.47252501E+03</pdfrwt>
<pdfrwt beam="2">  1       -1 0.66690235E-01 0.47252501E+03</pdfrwt>
<totfact> 0.74329126E+02</totfact>
</mgrwt>
</event>
<event>
 4    1  0.3281630E-004  0.4148873E+03  0.7818608E-02  0.1038743E+00
          1   -1    0    0  501    0  0.00000000000E+00  0.00000000000E+00  0.64999478940E+03  0.64999478942E+03  0.50400000000E-02 0. -1.
         -1   -1    0    0    0  501 -0.00000000000E+00 -0.00000000000E+00 -0.66204950757E+02  0.66204950949E+02  0.50400000000E-02 0.  1.
    5000001    1    1    2    0    0  0.13351969054E+03 -0.35609468153E+02  0.52354941124E+03  0.54692643746E+03  0.77000000000E+02 0.  0.
   -5000001    1    1    2    0    0 -0.13351969054E+03  0.35609468153E+02  0.60240427409E+02  0.16927330291E+03  0.77000000000E+02 0.  0.
<mgrwt>
<rscale>  0 0.41488732E+03</rscale>
<asrwt>0</asrwt>
<pdfrwt beam="1">  1        1 0.92856398E-01 0.41488732E+03</pdfrwt>
<pdfrwt beam="2">  1       -1 0.94578501E-02 0.41488732E+03</pdfrwt>
<totfact> 0.23295070E+03</totfact>
</mgrwt>
</event>
<event>
 4    1  0.3281630E-004  0.2123101E+03  0.7818608E-02  0.1139750E+00
          1   -1    0    0  501    0  0.00000000000E+00  0.00000000000E+00  0.42062796311E+03  0.42062796314E+03  0.50400000000E-02 0.  1.
         -1   -1    0    0    0  501 -0.00000000000E+00 -0.00000000000E+00 -0.26790649526E+02  0.26790650000E+02  0.50400000000E-02 0. -1.
    5000001    1    1    2    0    0  0.37251853574E+02 -0.56213117072E+02  0.25623618805E+03  0.27592317625E+03  0.77000000000E+02 0.  0.
   -5000001    1    1    2    0    0 -0.37251853574E+02  0.56213117072E+02  0.13760112553E+03  0.17149543689E+03  0.77000000000E+02 0.  0.
<mgrwt>
<rscale>  0 0.21231012E+03</rscale>
<asrwt>0</asrwt>
<pdfrwt beam="1">  1        1 0.60089710E-01 0.21231012E+03</pdfrwt>
<pdfrwt beam="2">  1       -1 0.38272357E-02 0.21231012E+03</pdfrwt>
<totfact> 0.16009103E+04</totfact>
</mgrwt>
</event>
<event>
 4    1  0.3281630E-004  0.1862627E+03  0.7818608E-02  0.1161876E+00
          1   -1    0    0  501    0  0.00000000000E+00  0.00000000000E+00  0.75850825373E+02  0.75850825541E+02  0.50400000000E-02 0.  1.
         -1   -1    0    0    0  501 -0.00000000000E+00 -0.00000000000E+00 -0.11434873119E+03  0.11434873130E+03  0.50400000000E-02 0. -1.
    5000001    1    1    2    0    0 -0.35765174162E+02 -0.31459203543E+02  0.30206323538E+01  0.90592236921E+02  0.77000000000E+02 0.  0.
   -5000001    1    1    2    0    0  0.35765174162E+02  0.31459203543E+02 -0.41518538174E+02  0.99607319925E+02  0.77000000000E+02 0.  0.
<mgrwt>
<rscale>  0 0.18626267E+03</rscale>
<asrwt>0</asrwt>
<pdfrwt beam="1">  1        1 0.10835832E-01 0.18626267E+03</pdfrwt>
<pdfrwt beam="2">  1       -1 0.16335533E-01 0.18626267E+03</pdfrwt>
<totfact> 0.15447228E+04</totfact>
</mgrwt>
</event>
<event>
 4    1  0.3281630E-004  0.3870853E+03  0.7818608E-02  0.1048346E+00
         -1   -1    0    0    0  501 -0.00000000000E+00  0.00000000000E+00  0.87552377693E+02  0.87552377838E+02  0.50400000000E-02 0. -1.
          1   -1    0    0  501    0  0.00000000000E+00 -0.00000000000E+00 -0.42784395655E+03  0.42784395658E+03  0.50400000000E-02 0.  1.
    5000001    1    1    2    0    0 -0.10720539833E+03 -0.13666939965E+03 -0.21921644651E+03  0.29009717795E+03  0.77000000000E+02 0.  0.
   -5000001    1    1    2    0    0  0.10720539833E+03  0.13666939965E+03 -0.12107513235E+03  0.22529915647E+03  0.77000000000E+02 0.  0.
<mgrwt>
<rscale>  0 0.38708529E+03</rscale>
<asrwt>0</asrwt>
<pdfrwt beam="1">  1        1 0.61120564E-01 0.38708529E+03</pdfrwt>
<pdfrwt beam="2">  1       -1 0.12507483E-01 0.38708529E+03</pdfrwt>
<totfact> 0.26362900E+03</totfact>
</mgrwt>
</event>
<event>
 4    1  0.3281630E-004  0.3576482E+03  0.7818608E-02  0.1059519E+00
          1   -1    0    0  501    0  0.00000000000E+00  0.00000000000E+00  0.26244507791E+03  0.26244507796E+03  0.50400000000E-02 0.  1.
         -1   -1    0    0    0  501 -0.00000000000E+00 -0.00000000000E+00 -0.12184668383E+03  0.12184668393E+03  0.50400000000E-02 0. -1.
    5000001    1    1    2    0    0  0.39275048861E+02 -0.66616591537E+02  0.22251694939E+03  0.24783682635E+03  0.77000000000E+02 0.  0.
   -5000001    1    1    2    0    0 -0.39275048861E+02  0.66616591537E+02 -0.81918555305E+02  0.13645493554E+03  0.77000000000E+02 0.  0.
<mgrwt>
<rscale>  0 0.35764822E+03</rscale>
<asrwt>0</asrwt>
<pdfrwt beam="1">  1        1 0.37492153E-01 0.35764822E+03</pdfrwt>
<pdfrwt beam="2">  1       -1 0.17406669E-01 0.35764822E+03</pdfrwt>
<totfact> 0.28958331E+03</totfact>
</mgrwt>
</event>
<event>
 4    1  0.3281630E-004  0.1943781E+03  0.7818608E-02  0.1154571E+00
          1   -1    0    0  501    0  0.00000000000E+00  0.00000000000E+00  0.20976901328E+02  0.20976901934E+02  0.50400000000E-02 0. -1.
         -1   -1    0    0    0  501 -0.00000000000E+00 -0.00000000000E+00 -0.45029117220E+03  0.45029117223E+03  0.50400000000E-02 0.  1.
    5000001    1    1    2    0    0  0.42528717798E+02  0.34888623595E+02 -0.26836964631E+03  0.28456488707E+03  0.77000000000E+02 0.  0.
   -5000001    1    1    2    0    0 -0.42528717798E+02 -0.34888623595E+02 -0.16094462456E+03  0.18670318709E+03  0.77000000000E+02 0.  0.
<mgrwt>
<rscale>  0 0.19437812E+03</rscale>
<asrwt>0</asrwt>
<pdfrwt beam="1">  1        1 0.29967005E-02 0.19437812E+03</pdfrwt>
<pdfrwt beam="2">  1       -1 0.64327305E-01 0.19437812E+03</pdfrwt>
<totfact> 0.84236582E+03</totfact>
</mgrwt>
</event>
<event>
 4    1  0.3281630E-004  0.2810762E+03  0.7818608E-02  0.1095103E+00
          1   -1    0    0  501    0  0.00000000000E+00  0.00000000000E+00  0.36652901757E+03  0.36652901761E+03  0.50400000000E-02 0. -1.
         -1   -1    0    0    0  501 -0.00000000000E+00 -0.00000000000E+00 -0.53886474280E+02  0.53886474516E+02  0.50400000000E-02 0.  1.
    5000001    1    1    2    0    0  0.61505787741E+02 -0.90257924803E+02  0.91252474450E+02  0.16181924795E+03  0.77000000000E+02 0.  0.
   -5000001    1    1    2    0    0 -0.61505787741E+02  0.90257924803E+02  0.22139006884E+03  0.25859624417E+03  0.77000000000E+02 0.  0.
<mgrwt>
<rscale>  0 0.28107619E+03</rscale>
<asrwt>0</asrwt>
<pdfrwt beam="1">  1        1 0.52361290E-01 0.28107619E+03</pdfrwt>
<pdfrwt beam="2">  1       -1 0.76980676E-02 0.28107619E+03</pdfrwt>
<totfact> 0.67752038E+03</totfact>
</mgrwt>
</event>
<event>
 4    1  0.3281630E-004  0.2192120E+03  0.7818608E-02  0.1134472E+00
         -1   -1    0    0    0  501 -0.00000000000E+00  0.00000000000E+00  0.12400511174E+03  0.12400511184E+03  0.50400000000E-02 0. -1.
          1   -1    0    0  501    0  0.00000000000E+00 -0.00000000000E+00 -0.96878897456E+02  0.96878897587E+02  0.50400000000E-02 0.  1.
    5000001    1    1    2    0    0 -0.72354183408E+02 -0.96309173134E+01 -0.14152981620E+02  0.10703826098E+03  0.77000000000E+02 0.  0.
   -5000001    1    1    2    0    0  0.72354183408E+02  0.96309173134E+01  0.41279195902E+02  0.11384574845E+03  0.77000000000E+02 0.  0.
<mgrwt>
<rscale>  0 0.21921203E+03</rscale>
<asrwt>0</asrwt>
<pdfrwt beam="1">  1        1 0.13839843E-01 0.21921203E+03</pdfrwt>
<pdfrwt beam="2">  1       -1 0.17715016E-01 0.21921203E+03</pdfrwt>
<totfact> 0.99360387E+03</totfact>
</mgrwt>
</event>
<event>
 4    1  0.3281630E-004  0.2174778E+03  0.7818608E-02  0.1135778E+00
          1   -1    0    0  501    0  0.00000000000E+00  0.00000000000E+00  0.25175630120E+02  0.25175630625E+02  0.50400000000E-02 0.  1.
         -1   -1    0    0    0  501 -0.00000000000E+00 -0.00000000000E+00 -0.46966627026E+03  0.46966627029E+03  0.50400000000E-02 0. -1.
    5000001    1    1    2    0    0  0.68644992071E+02  0.17305634084E+02 -0.28987867210E+03  0.30817245893E+03  0.77000000000E+02 0.  0.
   -5000001    1    1    2    0    0 -0.68644992071E+02 -0.17305634084E+02 -0.15461196805E+03  0.18666944199E+03  0.77000000000E+02 0.  0.
<mgrwt>
<rscale>  0 0.21747776E+03</rscale>
<asrwt>0</asrwt>
<pdfrwt beam="1">  1        1 0.35965189E-02 0.21747776E+03</pdfrwt>
<pdfrwt beam="2">  1       -1 0.67095176E-01 0.21747776E+03</pdfrwt>
<totfact> 0.60556145E+03</totfact>
</mgrwt>
</event>
<event>
 4    1  0.3281630E-004  0.1981731E+03  0.7818608E-02  0.1151290E+00
         -1   -1    0    0    0  501 -0.00000000000E+00  0.00000000000E+00  0.96642312058E+03  0.96642312059E+03  0.50400000000E-02 0.  1.
          1   -1    0    0  501    0  0.00000000000E+00 -0.00000000000E+00 -0.10159257838E+02  0.10159259088E+02  0.50400000000E-02 0. -1.
    5000001    1    1    2    0    0  0.18649781327E+02  0.52605777926E+02  0.34103633539E+03  0.35404796889E+03  0.77000000000E+02 0.  0.
   -5000001    1    1    2    0    0 -0.18649781327E+02 -0.52605777926E+02  0.61522752735E+03  0.62253441080E+03  0.77000000000E+02 0.  0.
<mgrwt>
<rscale>  0 0.19817308E+03</rscale>
<asrwt>0</asrwt>
<pdfrwt beam="1">  1        1 0.14513225E-02 0.19817308E+03</pdfrwt>
<pdfrwt beam="2">  1       -1 0.13806046E+00 0.19817308E+03</pdfrwt>
<totfact> 0.43861202E+03</totfact>
</mgrwt>
</event>
<event>
 4    1  0.3281630E-004  0.3788947E+03  0.7818608E-02  0.1051343E+00
         -1   -1    0    0    0  501 -0.00000000000E+00  0.00000000000E+00  0.15618466466E+03  0.15618466474E+03  0.50400000000E-02 0. -1.
          1   -1    0    0  501    0  0.00000000000E+00 -0.00000000000E+00 -0.22979403637E+03  0.22979403642E+03  0.50400000000E-02 0.  1.
    5000001    1    1    2    0    0  0.35544362670E+02 -0.16823291749E+03 -0.57065947628E+02  0.19685334293E+03  0.77000000000E+02 0.  0.
   -5000001    1    1    2    0    0 -0.35544362670E+02  0.16823291749E+03 -0.16543424079E+02  0.18912535823E+03  0.77000000000E+02 0.  0.
<mgrwt>
<rscale>  0 0.37889473E+03</rscale>
<asrwt>0</asrwt>
<pdfrwt beam="1">  1        1 0.32827719E-01 0.37889473E+03</pdfrwt>
<pdfrwt beam="2">  1       -1 0.22312095E-01 0.37889473E+03</pdfrwt>
<totfact> 0.22851473E+03</totfact>
</mgrwt>
</event>
<event>
 4    1  0.3281630E-004  0.4534937E+03  0.7818608E-02  0.1026685E+00
         -1   -1    0    0    0  501 -0.00000000000E+00  0.00000000000E+00  0.38685912444E+03  0.38685912447E+03  0.50400000000E-02 0. -1.
          1   -1    0    0  501    0  0.00000000000E+00 -0.00000000000E+00 -0.13290142892E+03  0.13290142902E+03  0.50400000000E-02 0.  1.
    5000001    1    1    2    0    0 -0.18091514323E+03 -0.99747116289E+02  0.66273643538E+02  0.23021939989E+03  0.77000000000E+02 0.  0.
   -5000001    1    1    2    0    0  0.18091514323E+03  0.99747116289E+02  0.18768405198E+03  0.28954115360E+03  0.77000000000E+02 0.  0.
<mgrwt>
<rscale>  0 0.45349368E+03</rscale>
<asrwt>0</asrwt>
<pdfrwt beam="1">  1        1 0.18985918E-01 0.45349368E+03</pdfrwt>
<pdfrwt beam="2">  1       -1 0.55265589E-01 0.45349368E+03</pdfrwt>
<totfact> 0.93388523E+02</totfact>
</mgrwt>
</event>
<event>
 4    1  0.3281630E-004  0.3172452E+03  0.7818608E-02  0.1076924E+00
         -1   -1    0    0    0  501 -0.00000000000E+00  0.00000000000E+00  0.40755392698E+03  0.40755392702E+03  0.50400000000E-02 0.  1.
          1   -1    0    0  501    0  0.00000000000E+00 -0.00000000000E+00 -0.61736940868E+02  0.61736941074E+02  0.50400000000E-02 0. -1.
    5000001    1    1    2    0    0 -0.11894072340E+03 -0.70168627482E+02  0.15410369216E+03  0.22078831469E+03  0.77000000000E+02 0.  0.
   -5000001    1    1    2    0    0  0.11894072340E+03  0.70168627482E+02  0.19171329396E+03  0.24850255340E+03  0.77000000000E+02 0.  0.
<mgrwt>
<rscale>  0 0.31724522E+03</rscale>
<asrwt>0</asrwt>
<pdfrwt beam="1">  1        1 0.88195634E-02 0.31724522E+03</pdfrwt>
<pdfrwt beam="2">  1       -1 0.58221987E-01 0.31724522E+03</pdfrwt>
<totfact> 0.23482607E+03</totfact>
</mgrwt>
</event>
<event>
 4    1  0.3281630E-004  0.2350099E+03  0.7818608E-02  0.1123162E+00
         -1   -1    0    0    0  501 -0.00000000000E+00  0.00000000000E+00  0.13557549247E+03  0.13557549256E+03  0.50400000000E-02 0. -1.
          1   -1    0    0  501    0  0.00000000000E+00 -0.00000000000E+00 -0.10184298523E+03  0.10184298535E+03  0.50400000000E-02 0.  1.
    5000001    1    1    2    0    0  0.68946622055E+02  0.62778922087E+01 -0.39249085028E+02  0.11073635040E+03  0.77000000000E+02 0.  0.
   -5000001    1    1    2    0    0 -0.68946622055E+02 -0.62778922087E+01  0.72981592265E+02  0.12668212752E+03  0.77000000000E+02 0.  0.
<mgrwt>
<rscale>  0 0.23500990E+03</rscale>
<asrwt>0</asrwt>
<pdfrwt beam="1">  1        1 0.14548998E-01 0.23500990E+03</pdfrwt>
<pdfrwt beam="2">  1       -1 0.19367928E-01 0.23500990E+03</pdfrwt>
<totfact> 0.80929283E+03</totfact>
</mgrwt>
</event>
<event>
 4    1  0.3281630E-004  0.1875910E+03  0.7818608E-02  0.1160652E+00
         -1   -1    0    0    0  501 -0.00000000000E+00  0.00000000000E+00  0.72758143774E+01  0.72758161230E+01  0.50400000000E-02 0. -1.
          1   -1    0    0  501    0  0.00000000000E+00 -0.00000000000E+00 -0.12091564633E+04  0.12091564633E+04  0.50400000000E-02 0.  1.
    5000001    1    1    2    0    0 -0.27621467339E+02  0.39595572526E+02 -0.75132518363E+03  0.75680201266E+03  0.77000000000E+02 0.  0.
   -5000001    1    1    2    0    0  0.27621467339E+02 -0.39595572526E+02 -0.45055546528E+03  0.45963026676E+03  0.77000000000E+02 0.  0.
<mgrwt>
<rscale>  0 0.18759103E+03</rscale>
<asrwt>0</asrwt>
<pdfrwt beam="1">  1        1 0.17273651E+00 0.18759103E+03</pdfrwt>
<pdfrwt beam="2">  1       -1 0.10394029E-02 0.18759103E+03</pdfrwt>
<totfact> 0.22582919E+04</totfact>
</mgrwt>
</event>
<event>
 4    1  0.3281630E-004  0.1789044E+03  0.7818608E-02  0.1168868E+00
          1   -1    0    0  501    0  0.00000000000E+00  0.00000000000E+00  0.13515980149E+03  0.13515980158E+03  0.50400000000E-02 0.  1.
         -1   -1    0    0    0  501 -0.00000000000E+00 -0.00000000000E+00 -0.59201736611E+02  0.59201736826E+02  0.50400000000E-02 0. -1.
    5000001    1    1    2    0    0  0.33154083438E+02 -0.23304810088E+02  0.60517230903E+02  0.10598887988E+03  0.77000000000E+02 0.  0.
   -5000001    1    1    2    0    0 -0.33154083438E+02  0.23304810088E+02  0.15440833976E+02  0.88372658530E+02  0.77000000000E+02 0.  0.
<mgrwt>
<rscale>  0 0.17890439E+03</rscale>
<asrwt>0</asrwt>
<pdfrwt beam="1">  1        1 0.19308543E-01 0.17890439E+03</pdfrwt>
<pdfrwt beam="2">  1       -1 0.84573909E-02 0.17890439E+03</pdfrwt>
<totfact> 0.20106194E+04</totfact>
</mgrwt>
</event>
<event>
 4    1  0.3281630E-004  0.2298247E+03  0.7818608E-02  0.1126763E+00
         -1   -1    0    0    0  501 -0.00000000000E+00  0.00000000000E+00  0.10110238587E+02  0.10110239844E+02  0.50400000000E-02 0. -1.
          1   -1    0    0  501    0  0.00000000000E+00 -0.00000000000E+00 -0.13060860778E+04  0.13060860778E+04  0.50400000000E-02 0.  1.
    5000001    1    1    2    0    0 -0.52519353213E+02 -0.38045816543E+02 -0.33066705530E+03  0.34565223575E+03  0.77000000000E+02 0.  0.
   -5000001    1    1    2    0    0  0.52519353213E+02  0.38045816543E+02 -0.96530878395E+03  0.97054408194E+03  0.77000000000E+02 0.  0.
<mgrwt>
<rscale>  0 0.22982465E+03</rscale>
<asrwt>0</asrwt>
<pdfrwt beam="1">  1        1 0.18658362E+00 0.22982465E+03</pdfrwt>
<pdfrwt beam="2">  1       -1 0.14443207E-02 0.22982465E+03</pdfrwt>
<totfact> 0.12280155E+04</totfact>
</mgrwt>
</event>
<event>
 4    1  0.3281630E-004  0.1802337E+03  0.7818608E-02  0.1167577E+00
         -1   -1    0    0    0  501 -0.00000000000E+00  0.00000000000E+00  0.53397425357E+03  0.53397425359E+03  0.50400000000E-02 0. -1.
          1   -1    0    0  501    0  0.00000000000E+00 -0.00000000000E+00 -0.15208684442E+02  0.15208685277E+02  0.50400000000E-02 0.  1.
    5000001    1    1    2    0    0  0.80532837799E+01  0.45390811514E+02  0.23446665937E+03  0.25105536343E+03  0.77000000000E+02 0.  0.
   -5000001    1    1    2    0    0 -0.80532837799E+01 -0.45390811514E+02  0.28429890975E+03  0.29812757544E+03  0.77000000000E+02 0.  0.
<mgrwt>
<rscale>  0 0.18023369E+03</rscale>
<asrwt>0</asrwt>
<pdfrwt beam="1">  1        1 0.21726695E-02 0.18023369E+03</pdfrwt>
<pdfrwt beam="2">  1       -1 0.76282029E-01 0.18023369E+03</pdfrwt>
<totfact> 0.93625809E+03</totfact>
</mgrwt>
</event>
<event>
 4    1  0.3281630E-004  0.2397539E+03  0.7818608E-02  0.1119957E+00
          1   -1    0    0  501    0  0.00000000000E+00  0.00000000000E+00  0.23034222367E+02  0.23034222918E+02  0.50400000000E-02 0.  1.
         -1   -1    0    0    0  501 -0.00000000000E+00 -0.00000000000E+00 -0.62387535487E+03  0.62387535489E+03  0.50400000000E-02 0. -1.
    5000001    1    1    2    0    0  0.76775075172E+02  0.45972253447E+02 -0.35660737126E+03  0.37564035658E+03  0.77000000000E+02 0.  0.
   -5000001    1    1    2    0    0 -0.76775075172E+02 -0.45972253447E+02 -0.24423376124E+03  0.27126922122E+03  0.77000000000E+02 0.  0.
<mgrwt>
<rscale>  0 0.23975391E+03</rscale>
<asrwt>0</asrwt>
<pdfrwt beam="1">  1        1 0.32906036E-02 0.23975391E+03</pdfrwt>
<pdfrwt beam="2">  1       -1 0.89125040E-01 0.23975391E+03</pdfrwt>
<totfact> 0.38495083E+03</totfact>
</mgrwt>
</event>
<event>
 4    1  0.3281630E-004  0.1661792E+03  0.7818608E-02  0.1181892E+00
          1   -1    0    0  501    0  0.00000000000E+00  0.00000000000E+00  0.63137909394E+03  0.63137909396E+03  0.50400000000E-02 0. -1.
         -1   -1    0    0    0  501 -0.00000000000E+00 -0.00000000000E+00 -0.10934606039E+02  0.10934607201E+02  0.50400000000E-02 0.  1.
    5000001    1    1    2    0    0  0.17753797285E+02 -0.21408783670E+02  0.36506823909E+03  0.37413547350E+03  0.77000000000E+02 0.  0.
   -5000001    1    1    2    0    0 -0.17753797285E+02  0.21408783670E+02  0.25537624881E+03  0.26817822766E+03  0.77000000000E+02 0.  0.
<mgrwt>
<rscale>  0 0.16617920E+03</rscale>
<asrwt>0</asrwt>
<pdfrwt beam="1">  1        1 0.90197011E-01 0.16617920E+03</pdfrwt>
<pdfrwt beam="2">  1       -1 0.15620867E-02 0.16617920E+03</pdfrwt>
<totfact> 0.34108370E+04</totfact>
</mgrwt>
</event>
<event>
 4    1  0.3281630E-004  0.3412979E+03  0.7818608E-02  0.1066244E+00
         -1   -1    0    0    0  501 -0.00000000000E+00  0.00000000000E+00  0.41497200749E+02  0.41497201055E+02  0.50400000000E-02 0.  1.
          1   -1    0    0  501    0  0.00000000000E+00 -0.00000000000E+00 -0.70175976261E+03  0.70175976263E+03  0.50400000000E-02 0. -1.
    5000001    1    1    2    0    0 -0.24721904672E+02  0.12844173939E+03 -0.49998933452E+03  0.52251965286E+03  0.77000000000E+02 0.  0.
   -5000001    1    1    2    0    0  0.24721904672E+02 -0.12844173939E+03 -0.16027322734E+03  0.22073731082E+03  0.77000000000E+02 0.  0.
<mgrwt>
<rscale>  0 0.34129791E+03</rscale>
<asrwt>0</asrwt>
<pdfrwt beam="1">  1        1 0.10025139E+00 0.34129791E+03</pdfrwt>
<pdfrwt beam="2">  1       -1 0.59281720E-02 0.34129791E+03</pdfrwt>
<totfact> 0.42713548E+03</totfact>
</mgrwt>
</event>
<event>
 4    1  0.3281630E-004  0.2744014E+03  0.7818608E-02  0.1098787E+00
          1   -1    0    0  501    0  0.00000000000E+00  0.00000000000E+00  0.10960024592E+04  0.10960024592E+04  0.50400000000E-02 0.  1.
         -1   -1    0    0    0  501 -0.00000000000E+00 -0.00000000000E+00 -0.17175167177E+02  0.17175167917E+02  0.50400000000E-02 0. -1.
    5000001    1    1    2    0    0  0.36464470659E+02  0.10748074129E+03  0.52464211129E+03  0.54227309753E+03  0.77000000000E+02 0.  0.
   -5000001    1    1    2    0    0 -0.36464470659E+02 -0.10748074129E+03  0.55418518070E+03  0.57090452956E+03  0.77000000000E+02 0.  0.
<mgrwt>
<rscale>  0 0.27440135E+03</rscale>
<asrwt>0</asrwt>
<pdfrwt beam="1">  1        1 0.15657176E+00 0.27440135E+03</pdfrwt>
<pdfrwt beam="2">  1       -1 0.24535957E-02 0.27440135E+03</pdfrwt>
<totfact> 0.78679211E+03</totfact>
</mgrwt>
</event>
<event>
 4    1  0.3281630E-004  0.2172158E+03  0.7818608E-02  0.1135976E+00
          1   -1    0    0  501    0  0.00000000000E+00  0.00000000000E+00  0.15531890516E+04  0.15531890517E+04  0.50400000000E-02 0.  1.
         -1   -1    0    0    0  501 -0.00000000000E+00 -0.00000000000E+00 -0.75944885231E+01  0.75944901954E+01  0.50400000000E-02 0. -1.
    5000001    1    1    2    0    0 -0.12243655074E+02  0.32113161838E+02  0.28095040193E+03  0.29333136654E+03  0.77000000000E+02 0.  0.
   -5000001    1    1    2    0    0  0.12243655074E+02 -0.32113161838E+02  0.12646441612E+04  0.12674521753E+04  0.77000000000E+02 0.  0.
<mgrwt>
<rscale>  0 0.21721582E+03</rscale>
<asrwt>0</asrwt>
<pdfrwt beam="1">  1        1 0.22188431E+00 0.21721582E+03</pdfrwt>
<pdfrwt beam="2">  1       -1 0.10849263E-02 0.21721582E+03</pdfrwt>
<totfact> 0.12956956E+04</totfact>
</mgrwt>
</event>
<event>
 4    1  0.3281630E-004  0.2215114E+03  0.7818608E-02  0.1132761E+00
          1   -1    0    0  501    0  0.00000000000E+00  0.00000000000E+00  0.84599063091E+02  0.84599063241E+02  0.50400000000E-02 0. -1.
         -1   -1    0    0    0  501 -0.00000000000E+00 -0.00000000000E+00 -0.14499959288E+03  0.14499959297E+03  0.50400000000E-02 0.  1.
    5000001    1    1    2    0    0 -0.51784995391E+02  0.49834758910E+02  0.52937948616E+01  0.10546190406E+03  0.77000000000E+02 0.  0.
   -5000001    1    1    2    0    0  0.51784995391E+02 -0.49834758910E+02 -0.65694324648E+02  0.12413675215E+03  0.77000000000E+02 0.  0.
<mgrwt>
<rscale>  0 0.22151144E+03</rscale>
<asrwt>0</asrwt>
<pdfrwt beam="1">  1        1 0.12085580E-01 0.22151144E+03</pdfrwt>
<pdfrwt beam="2">  1       -1 0.20714228E-01 0.22151144E+03</pdfrwt>
<totfact> 0.92368716E+03</totfact>
</mgrwt>
</event>
<event>
 4    1  0.3281630E-004  0.2120526E+03  0.7818608E-02  0.1139951E+00
         -1   -1    0    0    0  501 -0.00000000000E+00  0.00000000000E+00  0.79298072422E+01  0.79298088438E+01  0.50400000000E-02 0.  1.
          1   -1    0    0  501    0  0.00000000000E+00 -0.00000000000E+00 -0.14176350699E+04  0.14176350700E+04  0.50400000000E-02 0. -1.
    5000001    1    1    2    0    0 -0.27293532052E+02 -0.65983021377E+02 -0.60653611598E+03  0.61555970952E+03  0.77000000000E+02 0.  0.
   -5000001    1    1    2    0    0  0.27293532052E+02  0.65983021377E+02 -0.80316914673E+03  0.81000516928E+03  0.77000000000E+02 0.  0.
<mgrwt>
<rscale>  0 0.21205258E+03</rscale>
<asrwt>0</asrwt>
<pdfrwt beam="1">  1        1 0.20251913E+00 0.21205258E+03</pdfrwt>
<pdfrwt beam="2">  1       -1 0.11328306E-02 0.21205258E+03</pdfrwt>
<totfact> 0.14765799E+04</totfact>
</mgrwt>
</event>
<event>
 4    1  0.3281630E-004  0.2654463E+03  0.7818608E-02  0.1103914E+00
         -1   -1    0    0    0  501 -0.00000000000E+00  0.00000000000E+00  0.12198248085E+03  0.12198248095E+03  0.50400000000E-02 0. -1.
          1   -1    0    0  501    0  0.00000000000E+00 -0.00000000000E+00 -0.14440955832E+03  0.14440955841E+03  0.50400000000E-02 0.  1.
    5000001    1    1    2    0    0 -0.34566886984E+01  0.95354681498E+02 -0.62207685460E+02  0.13748912725E+03  0.77000000000E+02 0.  0.
   -5000001    1    1    2    0    0  0.34566886984E+01 -0.95354681498E+02  0.39780607988E+02  0.12890291212E+03  0.77000000000E+02 0.  0.
<mgrwt>
<rscale>  0 0.26544631E+03</rscale>
<asrwt>0</asrwt>
<pdfrwt beam="1">  1        1 0.20629937E-01 0.26544631E+03</pdfrwt>
<pdfrwt beam="2">  1       -1 0.17426069E-01 0.26544631E+03</pdfrwt>
<totfact> 0.61302901E+03</totfact>
</mgrwt>
</event>
<event>
 4    1  0.3281630E-004  0.3261791E+03  0.7818608E-02  0.1072840E+00
         -1   -1    0    0    0  501 -0.00000000000E+00  0.00000000000E+00  0.45566773558E+03  0.45566773561E+03  0.50400000000E-02 0. -1.
          1   -1    0    0  501    0  0.00000000000E+00 -0.00000000000E+00 -0.58371919369E+02  0.58371919587E+02  0.50400000000E-02 0.  1.
    5000001    1    1    2    0    0 -0.14032369297E+03  0.54047947344E+01  0.15009326669E+03  0.21949245846E+03  0.77000000000E+02 0.  0.
   -5000001    1    1    2    0    0  0.14032369297E+03 -0.54047947344E+01  0.24720254952E+03  0.29454719674E+03  0.77000000000E+02 0.  0.
<mgrwt>
<rscale>  0 0.32617909E+03</rscale>
<asrwt>0</asrwt>
<pdfrwt beam="1">  1        1 0.83388457E-02 0.32617909E+03</pdfrwt>
<pdfrwt beam="2">  1       -1 0.65095391E-01 0.32617909E+03</pdfrwt>
<totfact> 0.20412487E+03</totfact>
</mgrwt>
</event>
<event>
 4    1  0.3281630E-004  0.1806551E+03  0.7818608E-02  0.1167171E+00
          1   -1    0    0  501    0  0.00000000000E+00  0.00000000000E+00  0.66822242704E+03  0.66822242706E+03  0.50400000000E-02 0.  1.
         -1   -1    0    0    0  501 -0.00000000000E+00 -0.00000000000E+00 -0.12210106951E+02  0.12210107991E+02  0.50400000000E-02 0. -1.
    5000001    1    1    2    0    0 -0.55577696241E+01 -0.44085670394E+02  0.38822645284E+03  0.39827529904E+03  0.77000000000E+02 0.  0.
   -5000001    1    1    2    0    0  0.55577696241E+01  0.44085670394E+02  0.26778586725E+03  0.28215723601E+03  0.77000000000E+02 0.  0.
<mgrwt>
<rscale>  0 0.18065512E+03</rscale>
<asrwt>0</asrwt>
<pdfrwt beam="1">  1        1 0.95460336E-01 0.18065512E+03</pdfrwt>
<pdfrwt beam="2">  1       -1 0.17443013E-02 0.18065512E+03</pdfrwt>
<totfact> 0.27096020E+04</totfact>
</mgrwt>
</event>
<event>
 4    1  0.3281630E-004  0.2530585E+03  0.7818608E-02  0.1111387E+00
          1   -1    0    0  501    0  0.00000000000E+00  0.00000000000E+00  0.10962880652E+04  0.10962880652E+04  0.50400000000E-02 0.  1.
         -1   -1    0    0    0  501 -0.00000000000E+00 -0.00000000000E+00 -0.14603511896E+02  0.14603512766E+02  0.50400000000E-02 0. -1.
    5000001    1    1    2    0    0  0.66647348704E+02 -0.37380690112E+02  0.25494571249E+03  0.27706587917E+03  0.77000000000E+02 0.  0.
   -5000001    1    1    2    0    0 -0.66647348704E+02  0.37380690112E+02  0.82673884077E+03  0.83382569877E+03  0.77000000000E+02 0.  0.
<mgrwt>
<rscale>  0 0.25305854E+03</rscale>
<asrwt>0</asrwt>
<pdfrwt beam="1">  1        1 0.15661257E+00 0.25305854E+03</pdfrwt>
<pdfrwt beam="2">  1       -1 0.20862163E-02 0.25305854E+03</pdfrwt>
<totfact> 0.99492701E+03</totfact>
</mgrwt>
</event>
<event>
 4    1  0.3281630E-004  0.2480241E+03  0.7818608E-02  0.1114560E+00
          1   -1    0    0  501    0  0.00000000000E+00  0.00000000000E+00  0.39255482353E+03  0.39255482357E+03  0.50400000000E-02 0.  1.
         -1   -1    0    0    0  501 -0.00000000000E+00 -0.00000000000E+00 -0.39176667718E+02  0.39176668043E+02  0.50400000000E-02 0. -1.
    5000001    1    1    2    0    0  0.32540714153E+02 -0.86591559544E+02  0.22870592480E+03  0.25844224945E+03  0.77000000000E+02 0.  0.
   -5000001    1    1    2    0    0 -0.32540714153E+02  0.86591559544E+02  0.12467223102E+03  0.17328924216E+03  0.77000000000E+02 0.  0.
<mgrwt>
<rscale>  0 0.24802411E+03</rscale>
<asrwt>0</asrwt>
<pdfrwt beam="1">  1        1 0.56079261E-01 0.24802411E+03</pdfrwt>
<pdfrwt beam="2">  1       -1 0.55966668E-02 0.24802411E+03</pdfrwt>
<totfact> 0.10009288E+04</totfact>
</mgrwt>
</event>
<event>
 4    1  0.3281630E-004  0.3445545E+03  0.7818608E-02  0.1064873E+00
          1   -1    0    0  501    0  0.00000000000E+00  0.00000000000E+00  0.15232242349E+03  0.15232242357E+03  0.50400000000E-02 0.  1.
         -1   -1    0    0    0  501 -0.00000000000E+00 -0.00000000000E+00 -0.19484626135E+03  0.19484626142E+03  0.50400000000E-02 0. -1.
    5000001    1    1    2    0    0  0.12001712772E+03  0.87093728847E+02 -0.63544890368E+02  0.17876347961E+03  0.77000000000E+02 0.  0.
   -5000001    1    1    2    0    0 -0.12001712772E+03 -0.87093728847E+02  0.21021052505E+02  0.16840520538E+03  0.77000000000E+02 0.  0.
<mgrwt>
<rscale>  0 0.34455452E+03</rscale>
<asrwt>0</asrwt>
<pdfrwt beam="1">  1        1 0.21760346E-01 0.34455452E+03</pdfrwt>
<pdfrwt beam="2">  1       -1 0.27835180E-01 0.34455452E+03</pdfrwt>
<totfact> 0.26662675E+03</totfact>
</mgrwt>
</event>
<event>
 4    1  0.3281630E-004  0.2686413E+03  0.7818608E-02  0.1102060E+00
          1   -1    0    0  501    0  0.00000000000E+00  0.00000000000E+00  0.41623825275E+03  0.41623825278E+03  0.50400000000E-02 0.  1.
         -1   -1    0    0    0  501 -0.00000000000E+00 -0.00000000000E+00 -0.43345447817E+02  0.43345448110E+02  0.50400000000E-02 0. -1.
    5000001    1    1    2    0    0 -0.99472610282E+02  0.25866167809E+02  0.25378159064E+03  0.28442565739E+03  0.77000000000E+02 0.  0.
   -5000001    1    1    2    0    0  0.99472610282E+02 -0.25866167809E+02  0.11911121429E+03  0.17515804350E+03  0.77000000000E+02 0.  0.
<mgrwt>
<rscale>  0 0.26864127E+03</rscale>
<asrwt>0</asrwt>
<pdfrwt beam="1">  1        1 0.59462605E-01 0.26864127E+03</pdfrwt>
<pdfrwt beam="2">  1       -1 0.61922071E-02 0.26864127E+03</pdfrwt>
<totfact> 0.80056095E+03</totfact>
</mgrwt>
</event>
<event>
 4    1  0.3281630E-004  0.2041714E+03  0.7818608E-02  0.1146267E+00
          1   -1    0    0  501    0  0.00000000000E+00  0.00000000000E+00  0.30161176526E+03  0.30161176530E+03  0.50400000000E-02 0.  1.
         -1   -1    0    0    0  501 -0.00000000000E+00 -0.00000000000E+00 -0.34552676354E+02  0.34552676722E+02  0.50400000000E-02 0. -1.
    5000001    1    1    2    0    0 -0.61185016811E+02 -0.12774732642E+01  0.88521373087E+02  0.13232638329E+03  0.77000000000E+02 0.  0.
   -5000001    1    1    2    0    0  0.61185016811E+02  0.12774732642E+01  0.17853771581E+03  0.20383805873E+03  0.77000000000E+02 0.  0.
<mgrwt>
<rscale>  0 0.20417144E+03</rscale>
<asrwt>0</asrwt>
<pdfrwt beam="1">  1        1 0.43087396E-01 0.20417144E+03</pdfrwt>
<pdfrwt beam="2">  1       -1 0.49360965E-02 0.20417144E+03</pdfrwt>
<totfact> 0.16628406E+04</totfact>
</mgrwt>
</event>
<event>
 4    1  0.3281630E-004  0.1986131E+03  0.7818608E-02  0.1150914E+00
          1   -1    0    0  501    0  0.00000000000E+00  0.00000000000E+00  0.15470636025E+03  0.15470636033E+03  0.50400000000E-02 0.  1.
         -1   -1    0    0    0  501 -0.00000000000E+00 -0.00000000000E+00 -0.63745233664E+02  0.63745233863E+02  0.50400000000E-02 0. -1.
    5000001    1    1    2    0    0  0.49101874829E+02  0.29292337262E+02  0.73817451491E+02  0.12102500270E+03  0.77000000000E+02 0.  0.
   -5000001    1    1    2    0    0 -0.49101874829E+02 -0.29292337262E+02  0.17143675092E+02  0.97426591491E+02  0.77000000000E+02 0.  0.
<mgrwt>
<rscale>  0 0.19861312E+03</rscale>
<asrwt>0</asrwt>
<pdfrwt beam="1">  1        1 0.22100909E-01 0.19861312E+03</pdfrwt>
<pdfrwt beam="2">  1       -1 0.91064619E-02 0.19861312E+03</pdfrwt>
<totfact> 0.15241501E+04</totfact>
</mgrwt>
</event>
<event>
 4    1  0.3281630E-004  0.1905130E+03  0.7818608E-02  0.1157999E+00
         -1   -1    0    0    0  501 -0.00000000000E+00  0.00000000000E+00  0.70953284279E+03  0.70953284281E+03  0.50400000000E-02 0.  1.
          1   -1    0    0  501    0  0.00000000000E+00 -0.00000000000E+00 -0.12788417140E+02  0.12788418133E+02  0.50400000000E-02 0. -1.
    5000001    1    1    2    0    0 -0.46783414321E+02  0.17452750160E+02  0.44514835032E+03  0.45451000004E+03  0.77000000000E+02 0.  0.
   -5000001    1    1    2    0    0  0.46783414321E+02 -0.17452750160E+02  0.25159607533E+03  0.26781126090E+03  0.77000000000E+02 0.  0.
<mgrwt>
<rscale>  0 0.19051302E+03</rscale>
<asrwt>0</asrwt>
<pdfrwt beam="1">  1        1 0.18269176E-02 0.19051302E+03</pdfrwt>
<pdfrwt beam="2">  1       -1 0.10136179E+00 0.19051302E+03</pdfrwt>
<totfact> 0.65588793E+03</totfact>
</mgrwt>
</event>
<event>
 4    1  0.3281630E-004  0.1781794E+03  0.7818608E-02  0.1169577E+00
         -1   -1    0    0    0  501 -0.00000000000E+00  0.00000000000E+00  0.32674088881E+01  0.32674127752E+01  0.50400000000E-02 0.  1.
          1   -1    0    0  501    0  0.00000000000E+00 -0.00000000000E+00 -0.24291336827E+04  0.24291336827E+04  0.50400000000E-02 0. -1.
    5000001    1    1    2    0    0  0.43442427371E+02 -0.92716361743E+01 -0.12934301693E+04  0.12964813190E+04  0.77000000000E+02 0.  0.
   -5000001    1    1    2    0    0 -0.43442427371E+02  0.92716361743E+01 -0.11324361044E+04  0.11359197764E+04  0.77000000000E+02 0.  0.
<mgrwt>
<rscale>  0 0.17817943E+03</rscale>
<asrwt>0</asrwt>
<pdfrwt beam="1">  1        1 0.34701794E+00 0.17817943E+03</pdfrwt>
<pdfrwt beam="2">  1       -1 0.46677453E-03 0.17817943E+03</pdfrwt>
<totfact> 0.12798669E+04</totfact>
</mgrwt>
</event>
<event>
 4    1  0.3281630E-004  0.2180887E+03  0.7818608E-02  0.1135316E+00
         -1   -1    0    0    0  501 -0.00000000000E+00  0.00000000000E+00  0.51072050240E+02  0.51072050488E+02  0.50400000000E-02 0. -1.
          1   -1    0    0  501    0  0.00000000000E+00 -0.00000000000E+00 -0.23282140417E+03  0.23282140422E+03  0.50400000000E-02 0.  1.
    5000001    1    1    2    0    0  0.19200628222E+02  0.63072056364E+02 -0.38563133671E+02  0.10845673652E+03  0.77000000000E+02 0.  0.
   -5000001    1    1    2    0    0 -0.19200628222E+02 -0.63072056364E+02 -0.14318622026E+03  0.17543671819E+03  0.77000000000E+02 0.  0.
<mgrwt>
<rscale>  0 0.21808867E+03</rscale>
<asrwt>0</asrwt>
<pdfrwt beam="1">  1        1 0.33260200E-01 0.21808867E+03</pdfrwt>
<pdfrwt beam="2">  1       -1 0.72960073E-02 0.21808867E+03</pdfrwt>
<totfact> 0.12832107E+04</totfact>
</mgrwt>
</event>
<event>
 4    1  0.3281630E-004  0.3879296E+03  0.7818608E-02  0.1048041E+00
          1   -1    0    0  501    0  0.00000000000E+00  0.00000000000E+00  0.29318304956E+03  0.29318304960E+03  0.50400000000E-02 0.  1.
         -1   -1    0    0    0  501 -0.00000000000E+00 -0.00000000000E+00 -0.12832372751E+03  0.12832372761E+03  0.50400000000E-02 0. -1.
    5000001    1    1    2    0    0 -0.52321176671E+02 -0.23185003025E+02  0.26559809791E+03  0.28239405005E+03  0.77000000000E+02 0.  0.
   -5000001    1    1    2    0    0  0.52321176671E+02  0.23185003025E+02 -0.10073877586E+03  0.13911272715E+03  0.77000000000E+02 0.  0.
<mgrwt>
<rscale>  0 0.38792959E+03</rscale>
<asrwt>0</asrwt>
<pdfrwt beam="1">  1        1 0.41883292E-01 0.38792959E+03</pdfrwt>
<pdfrwt beam="2">  1       -1 0.18331961E-01 0.38792959E+03</pdfrwt>
<totfact> 0.23166924E+03</totfact>
</mgrwt>
</event>
<event>
 4    1  0.3281630E-004  0.2012733E+03  0.7818608E-02  0.1148669E+00
         -1   -1    0    0    0  501 -0.00000000000E+00  0.00000000000E+00  0.14780049442E+02  0.14780050301E+02  0.50400000000E-02 0. -1.
          1   -1    0    0  501    0  0.00000000000E+00 -0.00000000000E+00 -0.68522994490E+03  0.68522994492E+03  0.50400000000E-02 0.  1.
    5000001    1    1    2    0    0  0.49131791050E+02 -0.33822208674E+02 -0.42326880500E+03  0.43433092911E+03  0.77000000000E+02 0.  0.
   -5000001    1    1    2    0    0 -0.49131791050E+02  0.33822208674E+02 -0.24718109046E+03  0.26567906612E+03  0.77000000000E+02 0.  0.
<mgrwt>
<rscale>  0 0.20127327E+03</rscale>
<asrwt>0</asrwt>
<pdfrwt beam="1">  1        1 0.97889972E-01 0.20127327E+03</pdfrwt>
<pdfrwt beam="2">  1       -1 0.21114361E-02 0.20127327E+03</pdfrwt>
<totfact> 0.19988747E+04</totfact>
</mgrwt>
</event>
<event>
 4    1  0.3281630E-004  0.2000139E+03  0.7818608E-02  0.1149727E+00
          1   -1    0    0  501    0  0.00000000000E+00  0.00000000000E+00  0.24142896750E+03  0.24142896755E+03  0.50400000000E-02 0.  1.
         -1   -1    0    0    0  501 -0.00000000000E+00 -0.00000000000E+00 -0.41425800570E+02  0.41425800877E+02  0.50400000000E-02 0. -1.
    5000001    1    1    2    0    0 -0.48458152099E+02 -0.38442146761E+02  0.12219995986E+03  0.15712358621E+03  0.77000000000E+02 0.  0.
   -5000001    1    1    2    0    0  0.48458152099E+02  0.38442146761E+02  0.77803207066E+02  0.12573118222E+03  0.77000000000E+02 0.  0.
<mgrwt>
<rscale>  0 0.20001388E+03</rscale>
<asrwt>0</asrwt>
<pdfrwt beam="1">  1        1 0.34489853E-01 0.20001388E+03</pdfrwt>
<pdfrwt beam="2">  1       -1 0.59179715E-02 0.20001388E+03</pdfrwt>
<totfact> 0.16713855E+04</totfact>
</mgrwt>
</event>
<event>
 4    1  0.3281630E-004  0.2270372E+03  0.7818608E-02  0.1128743E+00
         -1   -1    0    0    0  501 -0.00000000000E+00  0.00000000000E+00  0.10088270974E+02  0.10088272233E+02  0.50400000000E-02 0. -1.
          1   -1    0    0  501    0  0.00000000000E+00 -0.00000000000E+00 -0.12773720228E+04  0.12773720228E+04  0.50400000000E-02 0.  1.
    5000001    1    1    2    0    0 -0.61438997823E+02  0.34173350018E+02 -0.88818673737E+03  0.89428588759E+03  0.77000000000E+02 0.  0.
   -5000001    1    1    2    0    0  0.61438997823E+02 -0.34173350018E+02 -0.37909701441E+03  0.39317440741E+03  0.77000000000E+02 0.  0.
<mgrwt>
<rscale>  0 0.22703723E+03</rscale>
<asrwt>0</asrwt>
<pdfrwt beam="1">  1        1 0.18248162E+00 0.22703723E+03</pdfrwt>
<pdfrwt beam="2">  1       -1 0.14411825E-02 0.22703723E+03</pdfrwt>
<totfact> 0.12850402E+04</totfact>
</mgrwt>
</event>
<event>
 4    1  0.3281630E-004  0.1680077E+03  0.7818608E-02  0.1179942E+00
          1   -1    0    0  501    0  0.00000000000E+00  0.00000000000E+00  0.19111218210E+04  0.19111218210E+04  0.50400000000E-02 0.  1.
         -1   -1    0    0    0  501 -0.00000000000E+00 -0.00000000000E+00 -0.36924102436E+01  0.36924136833E+01  0.50400000000E-02 0. -1.
    5000001    1    1    2    0    0 -0.16288832413E+02 -0.17759801142E+02  0.12202509729E+04  0.12229154401E+04  0.77000000000E+02 0.  0.
   -5000001    1    1    2    0    0  0.16288832413E+02  0.17759801142E+02  0.68717843780E+03  0.69189879460E+03  0.77000000000E+02 0.  0.
<mgrwt>
<rscale>  0 0.16800773E+03</rscale>
<asrwt>0</asrwt>
<pdfrwt beam="1">  1        1 0.27301812E+00 0.16800773E+03</pdfrwt>
<pdfrwt beam="2">  1       -1 0.52748603E-03 0.16800773E+03</pdfrwt>
<totfact> 0.21839596E+04</totfact>
</mgrwt>
</event>
<event>
 4    1  0.3281630E-004  0.1666246E+03  0.7818608E-02  0.1181414E+00
          1   -1    0    0  501    0  0.00000000000E+00  0.00000000000E+00  0.83419383456E+03  0.83419383458E+03  0.50400000000E-02 0. -1.
         -1   -1    0    0    0  501 -0.00000000000E+00 -0.00000000000E+00 -0.83205355834E+01  0.83205371099E+01  0.50400000000E-02 0.  1.
    5000001    1    1    2    0    0 -0.15204944653E+02 -0.20568629060E+02  0.31730838269E+03  0.32751773779E+03  0.77000000000E+02 0.  0.
   -5000001    1    1    2    0    0  0.15204944653E+02  0.20568629060E+02  0.50856491628E+03  0.51499663389E+03  0.77000000000E+02 0.  0.
<mgrwt>
<rscale>  0 0.16662461E+03</rscale>
<asrwt>0</asrwt>
<pdfrwt beam="1">  1        1 0.11917051E+00 0.16662461E+03</pdfrwt>
<pdfrwt beam="2">  1       -1 0.11886485E-02 0.16662461E+03</pdfrwt>
<totfact> 0.34002242E+04</totfact>
</mgrwt>
</event>
<event>
 4    1  0.3281630E-004  0.2931913E+03  0.7818608E-02  0.1088695E+00
         -1   -1    0    0    0  501 -0.00000000000E+00  0.00000000000E+00  0.42305088294E+03  0.42305088297E+03  0.50400000000E-02 0.  1.
          1   -1    0    0  501    0  0.00000000000E+00 -0.00000000000E+00 -0.50798340849E+02  0.50798341100E+02  0.50400000000E-02 0. -1.
    5000001    1    1    2    0    0  0.11368837571E+02  0.82758865635E+02  0.33585624029E+03  0.35455139888E+03  0.77000000000E+02 0.  0.
   -5000001    1    1    2    0    0 -0.11368837571E+02 -0.82758865635E+02  0.36396301799E+02  0.11929782518E+03  0.77000000000E+02 0.  0.
<mgrwt>
<rscale>  0 0.29319129E+03</rscale>
<asrwt>0</asrwt>
<pdfrwt beam="1">  1        1 0.72569057E-02 0.29319129E+03</pdfrwt>
<pdfrwt beam="2">  1       -1 0.60435841E-01 0.29319129E+03</pdfrwt>
<totfact> 0.28465324E+03</totfact>
</mgrwt>
</event>
<event>
 4    1  0.3281630E-004  0.4144976E+03  0.7818608E-02  0.1038872E+00
          1   -1    0    0  501    0  0.00000000000E+00  0.00000000000E+00  0.14370526182E+04  0.14370526182E+04  0.50400000000E-02 0.  1.
         -1   -1    0    0    0  501 -0.00000000000E+00 -0.00000000000E+00 -0.29888994219E+02  0.29888994644E+02  0.50400000000E-02 0. -1.
    5000001    1    1    2    0    0  0.17175195096E+03  0.21682062755E+02  0.40633641604E+03  0.44833818430E+03  0.77000000000E+02 0.  0.
   -5000001    1    1    2    0    0 -0.17175195096E+03 -0.21682062755E+02  0.10008272080E+04  0.10186034286E+04  0.77000000000E+02 0.  0.
<mgrwt>
<rscale>  0 0.41449756E+03</rscale>
<asrwt>0</asrwt>
<pdfrwt beam="1">  1        1 0.20529321E+00 0.41449756E+03</pdfrwt>
<pdfrwt beam="2">  1       -1 0.42698567E-02 0.41449756E+03</pdfrwt>
<totfact> 0.20604596E+03</totfact>
</mgrwt>
</event>
<event>
 4    1  0.3281630E-004  0.2045033E+03  0.7818608E-02  0.1145994E+00
         -1   -1    0    0    0  501 -0.00000000000E+00  0.00000000000E+00  0.47554017120E+01  0.47554043828E+01  0.50400000000E-02 0. -1.
          1   -1    0    0  501    0  0.00000000000E+00 -0.00000000000E+00 -0.21986354610E+04  0.21986354610E+04  0.50400000000E-02 0.  1.
    5000001    1    1    2    0    0 -0.42040592716E+01 -0.64457668249E+02 -0.12996390254E+04  0.13035194903E+04  0.77000000000E+02 0.  0.
   -5000001    1    1    2    0    0  0.42040592716E+01  0.64457668249E+02 -0.89424103388E+03  0.89987137513E+03  0.77000000000E+02 0.  0.
<mgrwt>
<rscale>  0 0.20450328E+03</rscale>
<asrwt>0</asrwt>
<pdfrwt beam="1">  1        1 0.31409013E+00 0.20450328E+03</pdfrwt>
<pdfrwt beam="2">  1       -1 0.67934470E-03 0.20450328E+03</pdfrwt>
<totfact> 0.10345988E+04</totfact>
</mgrwt>
</event>
<event>
 4    1  0.3281630E-004  0.1980048E+03  0.7818608E-02  0.1151433E+00
         -1   -1    0    0    0  501 -0.00000000000E+00  0.00000000000E+00  0.21289401065E+03  0.21289401071E+03  0.50400000000E-02 0.  1.
          1   -1    0    0  501    0  0.00000000000E+00 -0.00000000000E+00 -0.46039243154E+02  0.46039243429E+02  0.50400000000E-02 0. -1.
    5000001    1    1    2    0    0  0.11942323668E+02 -0.50295353388E+02  0.12873232991E+03  0.15866081568E+03  0.77000000000E+02 0.  0.
   -5000001    1    1    2    0    0 -0.11942323668E+02  0.50295353388E+02  0.38122437580E+02  0.10027243846E+03  0.77000000000E+02 0.  0.
<mgrwt>
<rscale>  0 0.19800484E+03</rscale>
<asrwt>0</asrwt>
<pdfrwt beam="1">  1        1 0.65770347E-02 0.19800484E+03</pdfrwt>
<pdfrwt beam="2">  1       -1 0.30413430E-01 0.19800484E+03</pdfrwt>
<totfact> 0.10997640E+04</totfact>
</mgrwt>
</event>
<event>
 4    1  0.3281630E-004  0.2008037E+03  0.7818608E-02  0.1149063E+00
          1   -1    0    0  501    0  0.00000000000E+00  0.00000000000E+00  0.11382079450E+03  0.11382079461E+03  0.50400000000E-02 0. -1.
         -1   -1    0    0    0  501 -0.00000000000E+00 -0.00000000000E+00 -0.88564917889E+02  0.88564918032E+02  0.50400000000E-02 0.  1.
    5000001    1    1    2    0    0 -0.57085826070E+02  0.29631297844E+02  0.16495355358E+02  0.10167547442E+03  0.77000000000E+02 0.  0.
   -5000001    1    1    2    0    0  0.57085826070E+02 -0.29631297844E+02  0.87605212495E+01  0.10071023822E+03  0.77000000000E+02 0.  0.
<mgrwt>
<rscale>  0 0.20080368E+03</rscale>
<asrwt>0</asrwt>
<pdfrwt beam="1">  1        1 0.16260113E-01 0.20080368E+03</pdfrwt>
<pdfrwt beam="2">  1       -1 0.12652131E-01 0.20080368E+03</pdfrwt>
<totfact> 0.13623021E+04</totfact>
</mgrwt>
</event>
<event>
 4    1  0.3281630E-004  0.3269489E+03  0.7818608E-02  0.1072495E+00
         -1   -1    0    0    0  501 -0.00000000000E+00  0.00000000000E+00  0.74566691000E+02  0.74566691170E+02  0.50400000000E-02 0. -1.
          1   -1    0    0  501    0  0.00000000000E+00 -0.00000000000E+00 -0.35838917035E+03  0.35838917039E+03  0.50400000000E-02 0.  1.
    5000001    1    1    2    0    0  0.78692321566E+02  0.11458623794E+03 -0.91097902896E+02  0.18316745156E+03  0.77000000000E+02 0.  0.
   -5000001    1    1    2    0    0 -0.78692321566E+02 -0.11458623794E+03 -0.19272457645E+03  0.24978841000E+03  0.77000000000E+02 0.  0.
<mgrwt>
<rscale>  0 0.32694889E+03</rscale>
<asrwt>0</asrwt>
<pdfrwt beam="1">  1        1 0.51198452E-01 0.32694889E+03</pdfrwt>
<pdfrwt beam="2">  1       -1 0.10652385E-01 0.32694889E+03</pdfrwt>
<totfact> 0.42441287E+03</totfact>
</mgrwt>
</event>
<event>
 4    1  0.3281630E-004  0.1950998E+03  0.7818608E-02  0.1153940E+00
          1   -1    0    0  501    0  0.00000000000E+00  0.00000000000E+00  0.46395335925E+03  0.46395335928E+03  0.50400000000E-02 0. -1.
         -1   -1    0    0    0  501 -0.00000000000E+00 -0.00000000000E+00 -0.20510648301E+02  0.20510648920E+02  0.50400000000E-02 0.  1.
    5000001    1    1    2    0    0  0.19308486010E+02  0.50790548575E+02  0.15917298699E+03  0.18497982929E+03  0.77000000000E+02 0.  0.
   -5000001    1    1    2    0    0 -0.19308486010E+02 -0.50790548575E+02  0.28426972396E+03  0.29948417891E+03  0.77000000000E+02 0.  0.
<mgrwt>
<rscale>  0 0.19509981E+03</rscale>
<asrwt>0</asrwt>
<pdfrwt beam="1">  1        1 0.66279044E-01 0.19509981E+03</pdfrwt>
<pdfrwt beam="2">  1       -1 0.29300930E-02 0.19509981E+03</pdfrwt>
<totfact> 0.20804609E+04</totfact>
</mgrwt>
</event>
<event>
 4    1  0.3281630E-004  0.2583454E+03  0.7818608E-02  0.1108141E+00
         -1   -1    0    0    0  501 -0.00000000000E+00  0.00000000000E+00  0.27807553048E+02  0.27807553505E+02  0.50400000000E-02 0. -1.
          1   -1    0    0  501    0  0.00000000000E+00 -0.00000000000E+00 -0.60003802076E+03  0.60003802078E+03  0.50400000000E-02 0.  1.
    5000001    1    1    2    0    0  0.26046945087E+02  0.76921906730E+02 -0.12934644740E+03  0.17104071602E+03  0.77000000000E+02 0.  0.
   -5000001    1    1    2    0    0 -0.26046945087E+02 -0.76921906730E+02 -0.44288402031E+03  0.45680485826E+03  0.77000000000E+02 0.  0.
<mgrwt>
<rscale>  0 0.25834542E+03</rscale>
<asrwt>0</asrwt>
<pdfrwt beam="1">  1        1 0.85719709E-01 0.25834542E+03</pdfrwt>
<pdfrwt beam="2">  1       -1 0.39725080E-02 0.25834542E+03</pdfrwt>
<totfact> 0.96127359E+03</totfact>
</mgrwt>
</event>
<event>
 4    1  0.3281630E-004  0.4219602E+03  0.7818608E-02  0.1036430E+00
         -1   -1    0    0    0  501 -0.00000000000E+00  0.00000000000E+00  0.22419046505E+03  0.22419046510E+03  0.50400000000E-02 0. -1.
          1   -1    0    0  501    0  0.00000000000E+00 -0.00000000000E+00 -0.19854819669E+03  0.19854819675E+03  0.50400000000E-02 0.  1.
    5000001    1    1    2    0    0 -0.13641618135E+03  0.13909224265E+03  0.37919016604E+02  0.21289170561E+03  0.77000000000E+02 0.  0.
   -5000001    1    1    2    0    0  0.13641618135E+03 -0.13909224265E+03 -0.12276748247E+02  0.20984695625E+03  0.77000000000E+02 0.  0.
<mgrwt>
<rscale>  0 0.42196025E+03</rscale>
<asrwt>0</asrwt>
<pdfrwt beam="1">  1        1 0.28364028E-01 0.42196025E+03</pdfrwt>
<pdfrwt beam="2">  1       -1 0.32027209E-01 0.42196025E+03</pdfrwt>
<totfact> 0.14942757E+03</totfact>
</mgrwt>
</event>
<event>
 4    1  0.3281630E-004  0.2309984E+03  0.7818608E-02  0.1125939E+00
         -1   -1    0    0    0  501 -0.00000000000E+00  0.00000000000E+00  0.12637578426E+03  0.12637578436E+03  0.50400000000E-02 0. -1.
          1   -1    0    0  501    0  0.00000000000E+00 -0.00000000000E+00 -0.10555873738E+03  0.10555873750E+03  0.50400000000E-02 0.  1.
    5000001    1    1    2    0    0  0.57010910873E+02 -0.13514993598E+02  0.73736848415E+02  0.12165123026E+03  0.77000000000E+02 0.  0.
   -5000001    1    1    2    0    0 -0.57010910873E+02  0.13514993598E+02 -0.52919801533E+02  0.11028329159E+03  0.77000000000E+02 0.  0.
<mgrwt>
<rscale>  0 0.23099843E+03</rscale>
<asrwt>0</asrwt>
<pdfrwt beam="1">  1        1 0.15079820E-01 0.23099843E+03</pdfrwt>
<pdfrwt beam="2">  1       -1 0.18053684E-01 0.23099843E+03</pdfrwt>
<totfact> 0.86398393E+03</totfact>
</mgrwt>
</event>
<event>
 4    1  0.3281630E-004  0.1989086E+03  0.7818608E-02  0.1150663E+00
         -1   -1    0    0    0  501 -0.00000000000E+00  0.00000000000E+00  0.26601249863E+02  0.26601250341E+02  0.50400000000E-02 0.  1.
          1   -1    0    0  501    0  0.00000000000E+00 -0.00000000000E+00 -0.37183045913E+03  0.37183045916E+03  0.50400000000E-02 0. -1.
    5000001    1    1    2    0    0 -0.17457252752E+01  0.61518185936E+02 -0.14614498185E+03  0.17628071499E+03  0.77000000000E+02 0.  0.
   -5000001    1    1    2    0    0  0.17457252752E+01 -0.61518185936E+02 -0.19908422742E+03  0.22215099451E+03  0.77000000000E+02 0.  0.
<mgrwt>
<rscale>  0 0.19890857E+03</rscale>
<asrwt>0</asrwt>
<pdfrwt beam="1">  1        1 0.53118634E-01 0.19890857E+03</pdfrwt>
<pdfrwt beam="2">  1       -1 0.38001788E-02 0.19890857E+03</pdfrwt>
<totfact> 0.18824027E+04</totfact>
</mgrwt>
</event>
<event>
 4    1  0.3281630E-004  0.2371987E+03  0.7818608E-02  0.1121673E+00
         -1   -1    0    0    0  501 -0.00000000000E+00  0.00000000000E+00  0.53165351914E+01  0.53165375803E+01  0.50400000000E-02 0. -1.
          1   -1    0    0  501    0  0.00000000000E+00 -0.00000000000E+00 -0.26456699118E+04  0.26456699118E+04  0.50400000000E-02 0.  1.
    5000001    1    1    2    0    0 -0.68251384117E+02  0.54211877654E+02 -0.10605556934E+04  0.10669135663E+04  0.77000000000E+02 0.  0.
   -5000001    1    1    2    0    0  0.68251384117E+02 -0.54211877654E+02 -0.15797976831E+04  0.15840728830E+04  0.77000000000E+02 0.  0.
<mgrwt>
<rscale>  0 0.23719865E+03</rscale>
<asrwt>0</asrwt>
<pdfrwt beam="1">  1        1 0.37795200E+00 0.23719865E+03</pdfrwt>
<pdfrwt beam="2">  1       -1 0.75950689E-03 0.23719865E+03</pdfrwt>
<totfact> 0.47421867E+03</totfact>
</mgrwt>
</event>
<event>
 4    1  0.3281630E-004  0.7680195E+03  0.7818608E-02  0.9607497E-01
          1   -1    0    0  501    0  0.00000000000E+00  0.00000000000E+00  0.95627340288E+03  0.95627340289E+03  0.50400000000E-02 0.  1.
         -1   -1    0    0    0  501 -0.00000000000E+00 -0.00000000000E+00 -0.15420640586E+03  0.15420640594E+03  0.50400000000E-02 0. -1.
    5000001    1    1    2    0    0 -0.22921027875E+03 -0.26982285300E+03  0.58502547004E+03  0.68813190921E+03  0.77000000000E+02 0.  0.
   -5000001    1    1    2    0    0  0.22921027875E+03  0.26982285300E+03  0.21704152698E+03  0.42234789962E+03  0.77000000000E+02 0.  0.
<mgrwt>
<rscale>  0 0.76801949E+03</rscale>
<asrwt>0</asrwt>
<pdfrwt beam="1">  1        1 0.13661049E+00 0.76801949E+03</pdfrwt>
<pdfrwt beam="2">  1       -1 0.22029487E-01 0.76801949E+03</pdfrwt>
<totfact> 0.32635474E+02</totfact>
</mgrwt>
</event>
<event>
 4    1  0.3281630E-004  0.1739940E+03  0.7818608E-02  0.1173746E+00
         -1   -1    0    0    0  501 -0.00000000000E+00  0.00000000000E+00  0.26328324570E+02  0.26328325053E+02  0.50400000000E-02 0. -1.
          1   -1    0    0  501    0  0.00000000000E+00 -0.00000000000E+00 -0.28746514701E+03  0.28746514705E+03  0.50400000000E-02 0.  1.
    5000001    1    1    2    0    0 -0.31007220767E+02 -0.20709110247E+02 -0.15903592535E+03  0.18058721034E+03  0.77000000000E+02 0.  0.
   -5000001    1    1    2    0    0  0.31007220767E+02  0.20709110247E+02 -0.10210089709E+03  0.13320626177E+03  0.77000000000E+02 0.  0.
<mgrwt>
<rscale>  0 0.17399397E+03</rscale>
<asrwt>0</asrwt>
<pdfrwt beam="1">  1        1 0.41066448E-01 0.17399397E+03</pdfrwt>
<pdfrwt beam="2">  1       -1 0.37611894E-02 0.17399397E+03</pdfrwt>
<totfact> 0.26070287E+04</totfact>
</mgrwt>
</event>
<event>
 4    1  0.3281630E-004  0.1992632E+03  0.7818608E-02  0.1150362E+00
          1   -1    0    0  501    0  0.00000000000E+00  0.00000000000E+00  0.26359997081E+03  0.26359997085E+03  0.50400000000E-02 0.  1.
         -1   -1    0    0    0  501 -0.00000000000E+00 -0.00000000000E+00 -0.37657267244E+02  0.37657267581E+02  0.50400000000E-02 0. -1.
    5000001    1    1    2    0    0  0.61738748195E+02 -0.13205566191E+02  0.11807475522E+03  0.15445616798E+03  0.77000000000E+02 0.  0.
   -5000001    1    1    2    0    0 -0.61738748195E+02  0.13205566191E+02  0.10786794835E+03  0.14680107046E+03  0.77000000000E+02 0.  0.
<mgrwt>
<rscale>  0 0.19926319E+03</rscale>
<asrwt>0</asrwt>
<pdfrwt beam="1">  1        1 0.37657139E-01 0.19926319E+03</pdfrwt>
<pdfrwt beam="2">  1       -1 0.53796096E-02 0.19926319E+03</pdfrwt>
<totfact> 0.17270981E+04</totfact>
</mgrwt>
</event>
<event>
 4    1  0.3281630E-004  0.2430000E+03  0.7818608E-02  0.1117810E+00
         -1   -1    0    0    0  501 -0.00000000000E+00  0.00000000000E+00  0.11258936062E+03  0.11258936073E+03  0.50400000000E-02 0.  1.
          1   -1    0    0  501    0  0.00000000000E+00 -0.00000000000E+00 -0.13111582228E+03  0.13111582237E+03  0.50400000000E-02 0. -1.
    5000001    1    1    2    0    0  0.27399997946E+02 -0.84107127411E+02 -0.41111931908E+02  0.12427372898E+03  0.77000000000E+02 0.  0.
   -5000001    1    1    2    0    0 -0.27399997946E+02  0.84107127411E+02  0.22585470250E+02  0.11943145413E+03  0.77000000000E+02 0.  0.
<mgrwt>
<rscale>  0 0.24299997E+03</rscale>
<asrwt>0</asrwt>
<pdfrwt beam="1">  1        1 0.18730832E-01 0.24299997E+03</pdfrwt>
<pdfrwt beam="2">  1       -1 0.16084195E-01 0.24299997E+03</pdfrwt>
<totfact> 0.78605713E+03</totfact>
</mgrwt>
</event>
<event>
 4    1  0.3281630E-004  0.2912851E+03  0.7818608E-02  0.1089680E+00
          1   -1    0    0  501    0  0.00000000000E+00  0.00000000000E+00  0.17389389225E+03  0.17389389232E+03  0.50400000000E-02 0.  1.
         -1   -1    0    0    0  501 -0.00000000000E+00 -0.00000000000E+00 -0.12198097667E+03  0.12198097677E+03  0.50400000000E-02 0. -1.
    5000001    1    1    2    0    0  0.10866814173E+03  0.21367652388E+02  0.81752922898E+02  0.15772723924E+03  0.77000000000E+02 0.  0.
   -5000001    1    1    2    0    0 -0.10866814173E+03 -0.21367652388E+02 -0.29840007318E+02  0.13814762985E+03  0.77000000000E+02 0.  0.
<mgrwt>
<rscale>  0 0.29128506E+03</rscale>
<asrwt>0</asrwt>
<pdfrwt beam="1">  1        1 0.24841985E-01 0.29128506E+03</pdfrwt>
<pdfrwt beam="2">  1       -1 0.17425854E-01 0.29128506E+03</pdfrwt>
<totfact> 0.48484752E+03</totfact>
</mgrwt>
</event>
<event>
 4    1  0.3281630E-004  0.1935744E+03  0.7818608E-02  0.1155276E+00
         -1   -1    0    0    0  501 -0.00000000000E+00  0.00000000000E+00  0.41493575781E+03  0.41493575784E+03  0.50400000000E-02 0.  1.
          1   -1    0    0  501    0  0.00000000000E+00 -0.00000000000E+00 -0.22576411699E+02  0.22576412262E+02  0.50400000000E-02 0. -1.
    5000001    1    1    2    0    0  0.51448884238E+02 -0.23374662239E+02  0.23158575339E+03  0.25050813100E+03  0.77000000000E+02 0.  0.
   -5000001    1    1    2    0    0 -0.51448884238E+02  0.23374662239E+02  0.16077359272E+03  0.18700403910E+03  0.77000000000E+02 0.  0.
<mgrwt>
<rscale>  0 0.19357438E+03</rscale>
<asrwt>0</asrwt>
<pdfrwt beam="1">  1        1 0.32252015E-02 0.19357438E+03</pdfrwt>
<pdfrwt beam="2">  1       -1 0.59276540E-01 0.19357438E+03</pdfrwt>
<totfact> 0.88975191E+03</totfact>
</mgrwt>
</event>
<event>
 4    1  0.3281630E-004  0.1729532E+03  0.7818608E-02  0.1174803E+00
         -1   -1    0    0    0  501 -0.00000000000E+00  0.00000000000E+00  0.81887490374E+01  0.81887505884E+01  0.50400000000E-02 0. -1.
          1   -1    0    0  501    0  0.00000000000E+00 -0.00000000000E+00 -0.91322857114E+03  0.91322857115E+03  0.50400000000E-02 0.  1.
    5000001    1    1    2    0    0  0.36633726355E+02 -0.14304835025E+02 -0.44402569175E+03  0.45236541993E+03  0.77000000000E+02 0.  0.
   -5000001    1    1    2    0    0 -0.36633726355E+02  0.14304835025E+02 -0.46101413035E+03  0.46905190181E+03  0.77000000000E+02 0.  0.
<mgrwt>
<rscale>  0 0.17295318E+03</rscale>
<asrwt>0</asrwt>
<pdfrwt beam="1">  1        1 0.13046116E+00 0.17295318E+03</pdfrwt>
<pdfrwt beam="2">  1       -1 0.11698220E-02 0.17295318E+03</pdfrwt>
<totfact> 0.30391493E+04</totfact>
</mgrwt>
</event>
<event>
 4    1  0.3281630E-004  0.1930823E+03  0.7818608E-02  0.1155710E+00
         -1   -1    0    0    0  501 -0.00000000000E+00  0.00000000000E+00  0.32800173870E+02  0.32800174257E+02  0.50400000000E-02 0.  1.
          1   -1    0    0  501    0  0.00000000000E+00 -0.00000000000E+00 -0.28415069777E+03  0.28415069782E+03  0.50400000000E-02 0. -1.
    5000001    1    1    2    0    0 -0.44796408706E+02 -0.19388541665E+02 -0.17780674518E+03  0.19981709740E+03  0.77000000000E+02 0.  0.
   -5000001    1    1    2    0    0  0.44796408706E+02  0.19388541665E+02 -0.73543778718E+02  0.11713377467E+03  0.77000000000E+02 0.  0.
<mgrwt>
<rscale>  0 0.19308229E+03</rscale>
<asrwt>0</asrwt>
<pdfrwt beam="1">  1        1 0.40592955E-01 0.19308229E+03</pdfrwt>
<pdfrwt beam="2">  1       -1 0.46857393E-02 0.19308229E+03</pdfrwt>
<totfact> 0.19275941E+04</totfact>
</mgrwt>
</event>
<event>
 4    1  0.3281630E-004  0.2750403E+03  0.7818608E-02  0.1098429E+00
         -1   -1    0    0    0  501 -0.00000000000E+00  0.00000000000E+00  0.45201317975E+03  0.45201317978E+03  0.50400000000E-02 0. -1.
          1   -1    0    0  501    0  0.00000000000E+00 -0.00000000000E+00 -0.41839024105E+02  0.41839024408E+02  0.50400000000E-02 0.  1.
    5000001    1    1    2    0    0  0.45040909954E+02 -0.26953434891E+02  0.23498740416E+02  0.96105993689E+02  0.77000000000E+02 0.  0.
   -5000001    1    1    2    0    0 -0.45040909954E+02  0.26953434891E+02  0.38667541523E+03  0.39774621050E+03  0.77000000000E+02 0.  0.
<mgrwt>
<rscale>  0 0.27504029E+03</rscale>
<asrwt>0</asrwt>
<pdfrwt beam="1">  1        1 0.59770037E-02 0.27504029E+03</pdfrwt>
<pdfrwt beam="2">  1       -1 0.64573309E-01 0.27504029E+03</pdfrwt>
<totfact> 0.32610107E+03</totfact>
</mgrwt>
</event>
<event>
 4    1  0.3281630E-004  0.3758238E+03  0.7818608E-02  0.1052488E+00
          1   -1    0    0  501    0  0.00000000000E+00  0.00000000000E+00  0.12641624599E+04  0.12641624599E+04  0.50400000000E-02 0.  1.
         -1   -1    0    0    0  501 -0.00000000000E+00 -0.00000000000E+00 -0.27932240492E+02  0.27932240947E+02  0.50400000000E-02 0. -1.
    5000001    1    1    2    0    0 -0.36920509027E+02  0.16390423911E+03  0.73491549130E+03  0.75779779819E+03  0.77000000000E+02 0.  0.
   -5000001    1    1    2    0    0  0.36920509027E+02 -0.16390423911E+03  0.50131472811E+03  0.53429690268E+03  0.77000000000E+02 0.  0.
<mgrwt>
<rscale>  0 0.37582384E+03</rscale>
<asrwt>0</asrwt>
<pdfrwt beam="1">  1        1 0.18059463E+00 0.37582384E+03</pdfrwt>
<pdfrwt beam="2">  1       -1 0.39903203E-02 0.37582384E+03</pdfrwt>
<totfact> 0.29563143E+03</totfact>
</mgrwt>
</event>
<event>
 4    1  0.3281630E-004  0.2492506E+03  0.7818608E-02  0.1113779E+00
          1   -1    0    0  501    0  0.00000000000E+00  0.00000000000E+00  0.60686835341E+02  0.60686835550E+02  0.50400000000E-02 0.  1.
         -1   -1    0    0    0  501 -0.00000000000E+00 -0.00000000000E+00 -0.25592799461E+03  0.25592799466E+03  0.50400000000E-02 0. -1.
    5000001    1    1    2    0    0 -0.68437248584E+02 -0.55094227094E+02 -0.42492892649E+02  0.12431281824E+03  0.77000000000E+02 0.  0.
   -5000001    1    1    2    0    0  0.68437248584E+02  0.55094227094E+02 -0.15274826662E+03  0.19230201197E+03  0.77000000000E+02 0.  0.
<mgrwt>
<rscale>  0 0.24925056E+03</rscale>
<asrwt>0</asrwt>
<pdfrwt beam="1">  1        1 0.86695481E-02 0.24925056E+03</pdfrwt>
<pdfrwt beam="2">  1       -1 0.36561142E-01 0.24925056E+03</pdfrwt>
<totfact> 0.55780321E+03</totfact>
</mgrwt>
</event>
<event>
 4    1  0.3281630E-004  0.4201710E+03  0.7818608E-02  0.1037011E+00
          1   -1    0    0  501    0  0.00000000000E+00  0.00000000000E+00  0.11423749372E+04  0.11423749372E+04  0.50400000000E-02 0.  1.
         -1   -1    0    0    0  501 -0.00000000000E+00 -0.00000000000E+00 -0.38635222744E+02  0.38635223072E+02  0.50400000000E-02 0. -1.
    5000001    1    1    2    0    0  0.17065455129E+03 -0.92228819721E+02  0.61943280371E+03  0.65364755746E+03  0.77000000000E+02 0.  0.
   -5000001    1    1    2    0    0 -0.17065455129E+03  0.92228819721E+02  0.48430691078E+03  0.52736260286E+03  0.77000000000E+02 0.  0.
<mgrwt>
<rscale>  0 0.42017097E+03</rscale>
<asrwt>0</asrwt>
<pdfrwt beam="1">  1        1 0.16319642E+00 0.42017097E+03</pdfrwt>
<pdfrwt beam="2">  1       -1 0.55193174E-02 0.42017097E+03</pdfrwt>
<totfact> 0.21881283E+03</totfact>
</mgrwt>
</event>
<event>
 4    1  0.3281630E-004  0.3487333E+03  0.7818608E-02  0.1063136E+00
          1   -1    0    0  501    0  0.00000000000E+00  0.00000000000E+00  0.36514462494E+03  0.36514462497E+03  0.50400000000E-02 0.  1.
         -1   -1    0    0    0  501 -0.00000000000E+00 -0.00000000000E+00 -0.83264871356E+02  0.83264871509E+02  0.50400000000E-02 0. -1.
    5000001    1    1    2    0    0  0.84934384704E+02  0.12650796994E+03  0.95359209573E+02  0.19555177067E+03  0.77000000000E+02 0.  0.
   -5000001    1    1    2    0    0 -0.84934384704E+02 -0.12650796994E+03  0.18652054401E+03  0.25285772581E+03  0.77000000000E+02 0.  0.
<mgrwt>
<rscale>  0 0.34873325E+03</rscale>
<asrwt>0</asrwt>
<pdfrwt beam="1">  1        1 0.52163518E-01 0.34873325E+03</pdfrwt>
<pdfrwt beam="2">  1       -1 0.11894981E-01 0.34873325E+03</pdfrwt>
<totfact> 0.34922838E+03</totfact>
</mgrwt>
</event>
<event>
 4    1  0.3281630E-004  0.2639262E+03  0.7818608E-02  0.1104807E+00
          1   -1    0    0  501    0  0.00000000000E+00  0.00000000000E+00  0.27478800906E+04  0.27478800906E+04  0.50400000000E-02 0.  1.
         -1   -1    0    0    0  501 -0.00000000000E+00 -0.00000000000E+00 -0.63373435778E+01  0.63373455819E+01  0.50400000000E-02 0. -1.
    5000001    1    1    2    0    0  0.94561726505E+02 -0.44083919232E+02  0.16263788502E+04  0.16315399096E+04  0.77000000000E+02 0.  0.
   -5000001    1    1    2    0    0 -0.94561726505E+02  0.44083919232E+02  0.11151638968E+04  0.11226775267E+04  0.77000000000E+02 0.  0.
<mgrwt>
<rscale>  0 0.26392622E+03</rscale>
<asrwt>0</asrwt>
<pdfrwt beam="1">  1        1 0.39255405E+00 0.26392622E+03</pdfrwt>
<pdfrwt beam="2">  1       -1 0.90533550E-03 0.26392622E+03</pdfrwt>
<totfact> 0.31839945E+03</totfact>
</mgrwt>
</event>
<event>
 4    1  0.3281630E-004  0.3022695E+03  0.7818608E-02  0.1084112E+00
          1   -1    0    0  501    0  0.00000000000E+00  0.00000000000E+00  0.29161412153E+04  0.29161412153E+04  0.50400000000E-02 0.  1.
         -1   -1    0    0    0  501 -0.00000000000E+00 -0.00000000000E+00 -0.78328566152E+01  0.78328582367E+01  0.50400000000E-02 0. -1.
    5000001    1    1    2    0    0 -0.48207900365E+02 -0.99242152328E+02  0.21201248586E+04  0.21243896588E+04  0.77000000000E+02 0.  0.
   -5000001    1    1    2    0    0  0.48207900365E+02  0.99242152328E+02  0.78818350012E+03  0.79958441475E+03  0.77000000000E+02 0.  0.
<mgrwt>
<rscale>  0 0.30226954E+03</rscale>
<asrwt>0</asrwt>
<pdfrwt beam="1">  1        1 0.41659205E+00 0.30226954E+03</pdfrwt>
<pdfrwt beam="2">  1       -1 0.11189784E-02 0.30226954E+03</pdfrwt>
<totfact> 0.18347855E+03</totfact>
</mgrwt>
</event>
<event>
 4    1  0.3281630E-004  0.2306738E+03  0.7818608E-02  0.1126166E+00
          1   -1    0    0  501    0  0.00000000000E+00  0.00000000000E+00  0.16637013099E+04  0.16637013099E+04  0.50400000000E-02 0.  1.
         -1   -1    0    0    0  501 -0.00000000000E+00 -0.00000000000E+00 -0.79957850631E+01  0.79957866516E+01  0.50400000000E-02 0. -1.
    5000001    1    1    2    0    0 -0.20059259038E+02  0.75610387466E+02  0.10845133332E+04  0.10900538860E+04  0.77000000000E+02 0.  0.
   -5000001    1    1    2    0    0  0.20059259038E+02 -0.75610387466E+02  0.57119219169E+03  0.58164321058E+03  0.77000000000E+02 0.  0.
<mgrwt>
<rscale>  0 0.23067379E+03</rscale>
<asrwt>0</asrwt>
<pdfrwt beam="1">  1        1 0.23767150E+00 0.23067379E+03</pdfrwt>
<pdfrwt beam="2">  1       -1 0.11422557E-02 0.23067379E+03</pdfrwt>
<totfact> 0.10314847E+04</totfact>
</mgrwt>
</event>
<event>
 4    1  0.3281630E-004  0.2427054E+03  0.7818608E-02  0.1118004E+00
         -1   -1    0    0    0  501 -0.00000000000E+00  0.00000000000E+00  0.67460520896E+03  0.67460520898E+03  0.50400000000E-02 0.  1.
          1   -1    0    0  501    0  0.00000000000E+00 -0.00000000000E+00 -0.21829777113E+02  0.21829777695E+02  0.50400000000E-02 0. -1.
    5000001    1    1    2    0    0  0.46636412594E+01 -0.77901666562E+02  0.17709101334E+03  0.20828021079E+03  0.77000000000E+02 0.  0.
   -5000001    1    1    2    0    0 -0.46636412594E+01  0.77901666562E+02  0.47568441851E+03  0.48815477589E+03  0.77000000000E+02 0.  0.
<mgrwt>
<rscale>  0 0.24270543E+03</rscale>
<asrwt>0</asrwt>
<pdfrwt beam="1">  1        1 0.31185397E-02 0.24270543E+03</pdfrwt>
<pdfrwt beam="2">  1       -1 0.96372170E-01 0.24270543E+03</pdfrwt>
<totfact> 0.35054530E+03</totfact>
</mgrwt>
</event>
<event>
 4    1  0.3281630E-004  0.2827963E+03  0.7818608E-02  0.1094171E+00
          1   -1    0    0  501    0  0.00000000000E+00  0.00000000000E+00  0.86118799093E+03  0.86118799095E+03  0.50400000000E-02 0.  1.
         -1   -1    0    0    0  501 -0.00000000000E+00 -0.00000000000E+00 -0.23216111983E+02  0.23216112530E+02  0.50400000000E-02 0. -1.
    5000001    1    1    2    0    0  0.59320647190E+02  0.90796268110E+02  0.56901862099E+03  0.58435784629E+03  0.77000000000E+02 0.  0.
   -5000001    1    1    2    0    0 -0.59320647190E+02 -0.90796268110E+02  0.26895325796E+03  0.30004625719E+03  0.77000000000E+02 0.  0.
<mgrwt>
<rscale>  0 0.28279630E+03</rscale>
<asrwt>0</asrwt>
<pdfrwt beam="1">  1        1 0.12302686E+00 0.28279630E+03</pdfrwt>
<pdfrwt beam="2">  1       -1 0.33165875E-02 0.28279630E+03</pdfrwt>
<totfact> 0.74889838E+03</totfact>
</mgrwt>
</event>
<event>
 4    1  0.3281630E-004  0.2064441E+03  0.7818608E-02  0.1144413E+00
          1   -1    0    0  501    0  0.00000000000E+00  0.00000000000E+00  0.26792991841E+03  0.26792991846E+03  0.50400000000E-02 0. -1.
         -1   -1    0    0    0  501 -0.00000000000E+00 -0.00000000000E+00 -0.39767092611E+02  0.39767092930E+02  0.50400000000E-02 0.  1.
    5000001    1    1    2    0    0 -0.66292158848E+02  0.75061583460E+00  0.86982044749E+02  0.13375384053E+03  0.77000000000E+02 0.  0.
   -5000001    1    1    2    0    0  0.66292158848E+02 -0.75061583460E+00  0.14118078105E+03  0.17394317085E+03  0.77000000000E+02 0.  0.
<mgrwt>
<rscale>  0 0.20644412E+03</rscale>
<asrwt>0</asrwt>
<pdfrwt beam="1">  1        1 0.38275702E-01 0.20644412E+03</pdfrwt>
<pdfrwt beam="2">  1       -1 0.56810133E-02 0.20644412E+03</pdfrwt>
<totfact> 0.15636805E+04</totfact>
</mgrwt>
</event>
<event>
 4    1  0.3281630E-004  0.2319753E+03  0.7818608E-02  0.1125257E+00
          1   -1    0    0  501    0  0.00000000000E+00  0.00000000000E+00  0.21947666618E+03  0.21947666623E+03  0.50400000000E-02 0.  1.
         -1   -1    0    0    0  501 -0.00000000000E+00 -0.00000000000E+00 -0.61296403194E+02  0.61296403401E+02  0.50400000000E-02 0. -1.
    5000001    1    1    2    0    0 -0.35061374720E+02 -0.41244396774E+02 -0.29443643547E+01  0.94170428182E+02  0.77000000000E+02 0.  0.
   -5000001    1    1    2    0    0  0.35061374720E+02  0.41244396774E+02  0.16112462734E+03  0.18660264145E+03  0.77000000000E+02 0.  0.
<mgrwt>
<rscale>  0 0.23197526E+03</rscale>
<asrwt>0</asrwt>
<pdfrwt beam="1">  1        1 0.31353810E-01 0.23197526E+03</pdfrwt>
<pdfrwt beam="2">  1       -1 0.87566289E-02 0.23197526E+03</pdfrwt>
<totfact> 0.10505174E+04</totfact>
</mgrwt>
</event>
<event>
 4    1  0.3281630E-004  0.2736352E+03  0.7818608E-02  0.1099217E+00
         -1   -1    0    0    0  501 -0.00000000000E+00  0.00000000000E+00  0.83477561283E+01  0.83477576498E+01  0.50400000000E-02 0. -1.
          1   -1    0    0  501    0  0.00000000000E+00 -0.00000000000E+00 -0.22424053823E+04  0.22424053823E+04  0.50400000000E-02 0.  1.
    5000001    1    1    2    0    0 -0.44473233196E+02 -0.38751819233E+01 -0.19717232324E+04  0.19737310837E+04  0.77000000000E+02 0.  0.
   -5000001    1    1    2    0    0  0.44473233196E+02  0.38751819233E+01 -0.26233439375E+03  0.27702205625E+03  0.77000000000E+02 0.  0.
<mgrwt>
<rscale>  0 0.27363520E+03</rscale>
<asrwt>0</asrwt>
<pdfrwt beam="1">  1        1 0.32034324E+00 0.27363520E+03</pdfrwt>
<pdfrwt beam="2">  1       -1 0.11925381E-02 0.27363520E+03</pdfrwt>
<totfact> 0.43474858E+03</totfact>
</mgrwt>
</event>
<event>
 4    1  0.3281630E-004  0.2233509E+03  0.7818608E-02  0.1131409E+00
          1   -1    0    0  501    0  0.00000000000E+00  0.00000000000E+00  0.11801695515E+04  0.11801695515E+04  0.50400000000E-02 0.  1.
         -1   -1    0    0    0  501 -0.00000000000E+00 -0.00000000000E+00 -0.10567467284E+02  0.10567468486E+02  0.50400000000E-02 0. -1.
    5000001    1    1    2    0    0  0.27768152147E+02 -0.71069481698E+02  0.44170295361E+03  0.45481033490E+03  0.77000000000E+02 0.  0.
   -5000001    1    1    2    0    0 -0.27768152147E+02  0.71069481698E+02  0.72789913059E+03  0.73592668508E+03  0.77000000000E+02 0.  0.
<mgrwt>
<rscale>  0 0.22335088E+03</rscale>
<asrwt>0</asrwt>
<pdfrwt beam="1">  1        1 0.16859555E+00 0.22335088E+03</pdfrwt>
<pdfrwt beam="2">  1       -1 0.15096392E-02 0.22335088E+03</pdfrwt>
<totfact> 0.13907965E+04</totfact>
</mgrwt>
</event>
<event>
 4    1  0.3281630E-004  0.1886827E+03  0.7818608E-02  0.1159655E+00
          1   -1    0    0  501    0  0.00000000000E+00  0.00000000000E+00  0.30138925442E+04  0.30138925442E+04  0.50400000000E-02 0.  1.
         -1   -1    0    0    0  501 -0.00000000000E+00 -0.00000000000E+00 -0.29530849108E+01  0.29530892117E+01  0.50400000000E-02 0. -1.
    5000001    1    1    2    0    0 -0.43470678130E+02  0.12343995728E+02  0.19928620974E+04  0.19948610010E+04  0.77000000000E+02 0.  0.
   -5000001    1    1    2    0    0  0.43470678130E+02 -0.12343995728E+02  0.10180773619E+04  0.10219846324E+04  0.77000000000E+02 0.  0.
<mgrwt>
<rscale>  0 0.18868267E+03</rscale>
<asrwt>0</asrwt>
<pdfrwt beam="1">  1        1 0.43055837E+00 0.18868267E+03</pdfrwt>
<pdfrwt beam="2">  1       -1 0.42186733E-03 0.18868267E+03</pdfrwt>
<totfact> 0.64812027E+03</totfact>
</mgrwt>
</event>
<event>
 4    1  0.3281630E-004  0.2043996E+03  0.7818608E-02  0.1146079E+00
         -1   -1    0    0    0  501 -0.00000000000E+00  0.00000000000E+00  0.54705385389E+01  0.54705408606E+01  0.50400000000E-02 0.  1.
          1   -1    0    0  501    0  0.00000000000E+00 -0.00000000000E+00 -0.19092807255E+04  0.19092807255E+04  0.50400000000E-02 0. -1.
    5000001    1    1    2    0    0 -0.58700675213E+02  0.15770457769E+02 -0.12203705616E+04  0.12243070629E+04  0.77000000000E+02 0.  0.
   -5000001    1    1    2    0    0  0.58700675213E+02 -0.15770457769E+02 -0.68343962531E+03  0.69044420343E+03  0.77000000000E+02 0.  0.
<mgrwt>
<rscale>  0 0.20439957E+03</rscale>
<asrwt>0</asrwt>
<pdfrwt beam="1">  1        1 0.27275396E+00 0.20439957E+03</pdfrwt>
<pdfrwt beam="2">  1       -1 0.78150689E-03 0.20439957E+03</pdfrwt>
<totfact> 0.12607537E+04</totfact>
</mgrwt>
</event>
<event>
 4    1  0.3281630E-004  0.2019086E+03  0.7818608E-02  0.1148139E+00
         -1   -1    0    0    0  501 -0.00000000000E+00  0.00000000000E+00  0.26630196015E+02  0.26630196492E+02  0.50400000000E-02 0. -1.
          1   -1    0    0  501    0  0.00000000000E+00 -0.00000000000E+00 -0.38271475588E+03  0.38271475591E+03  0.50400000000E-02 0.  1.
    5000001    1    1    2    0    0  0.29415489077E+01  0.56235072354E+02 -0.11105491795E+03  0.14640092511E+03  0.77000000000E+02 0.  0.
   -5000001    1    1    2    0    0 -0.29415489077E+01 -0.56235072354E+02 -0.24502964191E+03  0.26294402729E+03  0.77000000000E+02 0.  0.
<mgrwt>
<rscale>  0 0.20190858E+03</rscale>
<asrwt>0</asrwt>
<pdfrwt beam="1">  1        1 0.54673533E-01 0.20190858E+03</pdfrwt>
<pdfrwt beam="2">  1       -1 0.38043140E-02 0.20190858E+03</pdfrwt>
<totfact> 0.18142351E+04</totfact>
</mgrwt>
</event>
<event>
 4    1  0.3281630E-004  0.5675172E+03  0.7818608E-02  0.9975188E-01
         -1   -1    0    0    0  501 -0.00000000000E+00  0.00000000000E+00  0.42368903258E+03  0.42368903261E+03  0.50400000000E-02 0.  1.
          1   -1    0    0  501    0  0.00000000000E+00 -0.00000000000E+00 -0.19004257196E+03  0.19004257203E+03  0.50400000000E-02 0. -1.
    5000001    1    1    2    0    0  0.24859606382E+03  0.35399377790E+02  0.23297952902E+03  0.35108628546E+03  0.77000000000E+02 0.  0.
   -5000001    1    1    2    0    0 -0.24859606382E+03 -0.35399377790E+02  0.66693159673E+00  0.26264531919E+03  0.77000000000E+02 0.  0.
<mgrwt>
<rscale>  0 0.56751724E+03</rscale>
<asrwt>0</asrwt>
<pdfrwt beam="1">  1        1 0.27148939E-01 0.56751724E+03</pdfrwt>
<pdfrwt beam="2">  1       -1 0.60527004E-01 0.56751724E+03</pdfrwt>
<totfact> 0.49037468E+02</totfact>
</mgrwt>
</event>
<event>
 4    1  0.3281630E-004  0.1897149E+03  0.7818608E-02  0.1158719E+00
          1   -1    0    0  501    0  0.00000000000E+00  0.00000000000E+00  0.18250895801E+03  0.18250895808E+03  0.50400000000E-02 0.  1.
         -1   -1    0    0    0  501 -0.00000000000E+00 -0.00000000000E+00 -0.49301352212E+02  0.49301352470E+02  0.50400000000E-02 0. -1.
    5000001    1    1    2    0    0  0.20788695995E+02 -0.51340018188E+02  0.65399694817E+02  0.11521322594E+03  0.77000000000E+02 0.  0.
   -5000001    1    1    2    0    0 -0.20788695995E+02  0.51340018188E+02  0.67807910986E+02  0.11659708462E+03  0.77000000000E+02 0.  0.
<mgrwt>
<rscale>  0 0.18971493E+03</rscale>
<asrwt>0</asrwt>
<pdfrwt beam="1">  1        1 0.26072709E-01 0.18971493E+03</pdfrwt>
<pdfrwt beam="2">  1       -1 0.70430503E-02 0.18971493E+03</pdfrwt>
<totfact> 0.18198755E+04</totfact>
</mgrwt>
</event>
<event>
 4    1  0.3281630E-004  0.2149179E+03  0.7818608E-02  0.1137730E+00
          1   -1    0    0  501    0  0.00000000000E+00  0.00000000000E+00  0.37437594353E+03  0.37437594357E+03  0.50400000000E-02 0.  1.
         -1   -1    0    0    0  501 -0.00000000000E+00 -0.00000000000E+00 -0.30844473569E+02  0.30844473981E+02  0.50400000000E-02 0. -1.
    5000001    1    1    2    0    0 -0.47402500092E+02 -0.80216654430E+01  0.63337760932E+02  0.11068882550E+03  0.77000000000E+02 0.  0.
   -5000001    1    1    2    0    0  0.47402500092E+02  0.80216654430E+01  0.28019370903E+03  0.29453159205E+03  0.77000000000E+02 0.  0.
<mgrwt>
<rscale>  0 0.21491793E+03</rscale>
<asrwt>0</asrwt>
<pdfrwt beam="1">  1        1 0.53482280E-01 0.21491793E+03</pdfrwt>
<pdfrwt beam="2">  1       -1 0.44063532E-02 0.21491793E+03</pdfrwt>
<totfact> 0.15068850E+04</totfact>
</mgrwt>
</event>
<event>
 4    1  0.3281630E-004  0.2784982E+03  0.7818608E-02  0.1096512E+00
         -1   -1    0    0    0  501 -0.00000000000E+00  0.00000000000E+00  0.72452955715E+03  0.72452955717E+03  0.50400000000E-02 0. -1.
          1   -1    0    0  501    0  0.00000000000E+00 -0.00000000000E+00 -0.26762619962E+02  0.26762620436E+02  0.50400000000E-02 0.  1.
    5000001    1    1    2    0    0 -0.11319923755E+03  0.13718678606E+02  0.29108561696E+03  0.32196600120E+03  0.77000000000E+02 0.  0.
   -5000001    1    1    2    0    0  0.11319923755E+03 -0.13718678606E+02  0.40668132023E+03  0.42932617641E+03  0.77000000000E+02 0.  0.
<mgrwt>
<rscale>  0 0.27849818E+03</rscale>
<asrwt>0</asrwt>
<pdfrwt beam="1">  1        1 0.38232312E-02 0.27849818E+03</pdfrwt>
<pdfrwt beam="2">  1       -1 0.10350423E+00 0.27849818E+03</pdfrwt>
<totfact> 0.22583229E+03</totfact>
</mgrwt>
</event>
<event>
 4    1  0.3281630E-004  0.1796128E+03  0.7818608E-02  0.1168178E+00
          1   -1    0    0  501    0  0.00000000000E+00  0.00000000000E+00  0.57409123945E+02  0.57409124166E+02  0.50400000000E-02 0. -1.
         -1   -1    0    0    0  501 -0.00000000000E+00 -0.00000000000E+00 -0.14048621824E+03  0.14048621833E+03  0.50400000000E-02 0.  1.
    5000001    1    1    2    0    0 -0.33488916366E+02 -0.27070988989E+02 -0.23041463723E+02  0.91182536786E+02  0.77000000000E+02 0.  0.
   -5000001    1    1    2    0    0  0.33488916366E+02  0.27070988989E+02 -0.60035630569E+02  0.10671280571E+03  0.77000000000E+02 0.  0.
<mgrwt>
<rscale>  0 0.17961281E+03</rscale>
<asrwt>0</asrwt>
<pdfrwt beam="1">  1        1 0.82013035E-02 0.17961281E+03</pdfrwt>
<pdfrwt beam="2">  1       -1 0.20069460E-01 0.17961281E+03</pdfrwt>
<totfact> 0.16083570E+04</totfact>
</mgrwt>
</event>
<event>
 4    1  0.3281630E-004  0.2927062E+03  0.7818608E-02  0.1088945E+00
          1   -1    0    0  501    0  0.00000000000E+00  0.00000000000E+00  0.11966637520E+04  0.11966637520E+04  0.50400000000E-02 0.  1.
         -1   -1    0    0    0  501 -0.00000000000E+00 -0.00000000000E+00 -0.17899123167E+02  0.17899123876E+02  0.50400000000E-02 0. -1.
    5000001    1    1    2    0    0 -0.29919017291E+02 -0.10180830924E+03  0.31950518095E+03  0.34535871219E+03  0.77000000000E+02 0.  0.
   -5000001    1    1    2    0    0  0.29919017291E+02  0.10180830924E+03  0.85925944790E+03  0.86920416372E+03  0.77000000000E+02 0.  0.
<mgrwt>
<rscale>  0 0.29270622E+03</rscale>
<asrwt>0</asrwt>
<pdfrwt beam="1">  1        1 0.17095206E+00 0.29270622E+03</pdfrwt>
<pdfrwt beam="2">  1       -1 0.25570162E-02 0.29270622E+03</pdfrwt>
<totfact> 0.63356310E+03</totfact>
</mgrwt>
</event>
<event>
 4    1  0.3281630E-004  0.2494463E+03  0.7818608E-02  0.1113655E+00
          1   -1    0    0  501    0  0.00000000000E+00  0.00000000000E+00  0.63476066339E+03  0.63476066341E+03  0.50400000000E-02 0.  1.
         -1   -1    0    0    0  501 -0.00000000000E+00 -0.00000000000E+00 -0.24506664065E+02  0.24506664583E+02  0.50400000000E-02 0. -1.
    5000001    1    1    2    0    0  0.92119993117E+02 -0.22184385439E+02  0.37243733800E+03  0.39193980511E+03  0.77000000000E+02 0.  0.
   -5000001    1    1    2    0    0 -0.92119993117E+02  0.22184385439E+02  0.23781666132E+03  0.26732752288E+03  0.77000000000E+02 0.  0.
<mgrwt>
<rscale>  0 0.24944632E+03</rscale>
<asrwt>0</asrwt>
<pdfrwt beam="1">  1        1 0.90680099E-01 0.24944632E+03</pdfrwt>
<pdfrwt beam="2">  1       -1 0.35009519E-02 0.24944632E+03</pdfrwt>
<totfact> 0.10717169E+04</totfact>
</mgrwt>
</event>
<event>
 4    1  0.3281630E-004  0.3014065E+03  0.7818608E-02  0.1084540E+00
         -1   -1    0    0    0  501 -0.00000000000E+00  0.00000000000E+00  0.44059353629E+03  0.44059353632E+03  0.50400000000E-02 0. -1.
          1   -1    0    0  501    0  0.00000000000E+00 -0.00000000000E+00 -0.51547444332E+02  0.51547444578E+02  0.50400000000E-02 0.  1.
    5000001    1    1    2    0    0 -0.86383028480E+02  0.13530851719E+02  0.38443046307E+02  0.12268650850E+03  0.77000000000E+02 0.  0.
   -5000001    1    1    2    0    0  0.86383028480E+02 -0.13530851719E+02  0.35060304565E+03  0.36945447240E+03  0.77000000000E+02 0.  0.
<mgrwt>
<rscale>  0 0.30140651E+03</rscale>
<asrwt>0</asrwt>
<pdfrwt beam="1">  1        1 0.73639204E-02 0.30140651E+03</pdfrwt>
<pdfrwt beam="2">  1       -1 0.62941936E-01 0.30140651E+03</pdfrwt>
<totfact> 0.25801489E+03</totfact>
</mgrwt>
</event>
<event>
 4    1  0.3281630E-004  0.2142946E+03  0.7818608E-02  0.1138210E+00
         -1   -1    0    0    0  501 -0.00000000000E+00  0.00000000000E+00  0.70067571411E+01  0.70067589537E+01  0.50400000000E-02 0. -1.
          1   -1    0    0  501    0  0.00000000000E+00 -0.00000000000E+00 -0.16384952570E+04  0.16384952570E+04  0.50400000000E-02 0.  1.
    5000001    1    1    2    0    0 -0.73950781954E+02 -0.51068825817E+01 -0.75790303040E+03  0.76540237907E+03  0.77000000000E+02 0.  0.
   -5000001    1    1    2    0    0  0.73950781954E+02  0.51068825817E+01 -0.87358546947E+03  0.88009963690E+03  0.77000000000E+02 0.  0.
<mgrwt>
<rscale>  0 0.21429456E+03</rscale>
<asrwt>0</asrwt>
<pdfrwt beam="1">  1        1 0.23407051E+00 0.21429456E+03</pdfrwt>
<pdfrwt beam="2">  1       -1 0.10009665E-02 0.21429456E+03</pdfrwt>
<totfact> 0.12894418E+04</totfact>
</mgrwt>
</event>
<event>
 4    1  0.3281630E-004  0.3778316E+03  0.7818608E-02  0.1051738E+00
          1   -1    0    0  501    0  0.00000000000E+00  0.00000000000E+00  0.87549134379E+03  0.87549134381E+03  0.50400000000E-02 0.  1.
         -1   -1    0    0    0  501 -0.00000000000E+00 -0.00000000000E+00 -0.40764737917E+02  0.40764738228E+02  0.50400000000E-02 0. -1.
    5000001    1    1    2    0    0 -0.15561519576E+03  0.73662799850E+02  0.39103425392E+03  0.43414177980E+03  0.77000000000E+02 0.  0.
   -5000001    1    1    2    0    0  0.15561519576E+03 -0.73662799850E+02  0.44369235196E+03  0.48211430224E+03  0.77000000000E+02 0.  0.
<mgrwt>
<rscale>  0 0.37783158E+03</rscale>
<asrwt>0</asrwt>
<pdfrwt beam="1">  1        1 0.12507019E+00 0.37783158E+03</pdfrwt>
<pdfrwt beam="2">  1       -1 0.58235342E-02 0.37783158E+03</pdfrwt>
<totfact> 0.31545891E+03</totfact>
</mgrwt>
</event>
<event>
 4    1  0.3281630E-004  0.2138976E+03  0.7818608E-02  0.1138516E+00
         -1   -1    0    0    0  501 -0.00000000000E+00  0.00000000000E+00  0.10784844691E+02  0.10784845869E+02  0.50400000000E-02 0. -1.
          1   -1    0    0  501    0  0.00000000000E+00 -0.00000000000E+00 -0.10605669143E+04  0.10605669144E+04  0.50400000000E-02 0.  1.
    5000001    1    1    2    0    0  0.65574704446E+02  0.15632624274E+02 -0.68045403729E+03  0.68810690861E+03  0.77000000000E+02 0.  0.
   -5000001    1    1    2    0    0 -0.65574704446E+02 -0.15632624274E+02 -0.36932803237E+03  0.38324485163E+03  0.77000000000E+02 0.  0.
<mgrwt>
<rscale>  0 0.21389764E+03</rscale>
<asrwt>0</asrwt>
<pdfrwt beam="1">  1        1 0.15150949E+00 0.21389764E+03</pdfrwt>
<pdfrwt beam="2">  1       -1 0.15406929E-02 0.21389764E+03</pdfrwt>
<totfact> 0.16248455E+04</totfact>
</mgrwt>
</event>
<event>
 4    1  0.3281630E-004  0.2238370E+03  0.7818608E-02  0.1131054E+00
         -1   -1    0    0    0  501 -0.00000000000E+00  0.00000000000E+00  0.16389180974E+03  0.16389180981E+03  0.50400000000E-02 0. -1.
          1   -1    0    0  501    0  0.00000000000E+00 -0.00000000000E+00 -0.76426964576E+02  0.76426964742E+02  0.50400000000E-02 0.  1.
    5000001    1    1    2    0    0 -0.20372377198E+02  0.73087358033E+02  0.74848477941E+02  0.13148418273E+03  0.77000000000E+02 0.  0.
   -5000001    1    1    2    0    0  0.20372377198E+02 -0.73087358033E+02  0.12616367218E+02  0.10883459183E+03  0.77000000000E+02 0.  0.
<mgrwt>
<rscale>  0 0.22383703E+03</rscale>
<asrwt>0</asrwt>
<pdfrwt beam="1">  1        1 0.10918138E-01 0.22383703E+03</pdfrwt>
<pdfrwt beam="2">  1       -1 0.23413116E-01 0.22383703E+03</pdfrwt>
<totfact> 0.86578461E+03</totfact>
</mgrwt>
</event>
<event>
 4    1  0.3281630E-004  0.3590677E+03  0.7818608E-02  0.1058954E+00
         -1   -1    0    0    0  501 -0.00000000000E+00  0.00000000000E+00  0.37991754089E+03  0.37991754092E+03  0.50400000000E-02 0. -1.
          1   -1    0    0  501    0  0.00000000000E+00 -0.00000000000E+00 -0.84840511026E+02  0.84840511176E+02  0.50400000000E-02 0.  1.
    5000001    1    1    2    0    0  0.32793910836E+02  0.13741867379E+03  0.25063276834E+03  0.29783404281E+03  0.77000000000E+02 0.  0.
   -5000001    1    1    2    0    0 -0.32793910836E+02 -0.13741867379E+03  0.44444261526E+02  0.16692400929E+03  0.77000000000E+02 0.  0.
<mgrwt>
<rscale>  0 0.35906767E+03</rscale>
<asrwt>0</asrwt>
<pdfrwt beam="1">  1        1 0.12120073E-01 0.35906767E+03</pdfrwt>
<pdfrwt beam="2">  1       -1 0.54273936E-01 0.35906767E+03</pdfrwt>
<totfact> 0.17511685E+03</totfact>
</mgrwt>
</event>
<event>
 4    1  0.3281630E-004  0.2627405E+03  0.7818608E-02  0.1105508E+00
         -1   -1    0    0    0  501 -0.00000000000E+00  0.00000000000E+00  0.28334793671E+02  0.28334794119E+02  0.50400000000E-02 0.  1.
          1   -1    0    0  501    0  0.00000000000E+00 -0.00000000000E+00 -0.60907959531E+03  0.60907959533E+03  0.50400000000E-02 0. -1.
    5000001    1    1    2    0    0 -0.42641251043E+02  0.96821989538E+02 -0.26204181156E+03  0.29289534813E+03  0.77000000000E+02 0.  0.
   -5000001    1    1    2    0    0  0.42641251043E+02 -0.96821989538E+02 -0.31870299008E+03  0.34451904133E+03  0.77000000000E+02 0.  0.
<mgrwt>
<rscale>  0 0.26274052E+03</rscale>
<asrwt>0</asrwt>
<pdfrwt beam="1">  1        1 0.87011362E-01 0.26274052E+03</pdfrwt>
<pdfrwt beam="2">  1       -1 0.40478281E-02 0.26274052E+03</pdfrwt>
<totfact> 0.91658035E+03</totfact>
</mgrwt>
</event>
<event>
 4    1  0.3281630E-004  0.2013739E+03  0.7818608E-02  0.1148585E+00
         -1   -1    0    0    0  501 -0.00000000000E+00  0.00000000000E+00  0.12928657034E+04  0.12928657034E+04  0.50400000000E-02 0.  1.
          1   -1    0    0  501    0  0.00000000000E+00 -0.00000000000E+00 -0.78413906581E+01  0.78413922778E+01  0.50400000000E-02 0. -1.
    5000001    1    1    2    0    0 -0.15510663666E+02 -0.52335822976E+02  0.86897441080E+03  0.87408531945E+03  0.77000000000E+02 0.  0.
   -5000001    1    1    2    0    0  0.15510663666E+02  0.52335822976E+02  0.41604990195E+03  0.42662177625E+03  0.77000000000E+02 0.  0.
<mgrwt>
<rscale>  0 0.20137394E+03</rscale>
<asrwt>0</asrwt>
<pdfrwt beam="1">  1        1 0.11201993E-02 0.20137394E+03</pdfrwt>
<pdfrwt beam="2">  1       -1 0.18469502E+00 0.20137394E+03</pdfrwt>
<totfact> 0.28843695E+03</totfact>
</mgrwt>
</event>
<event>
 4    1  0.3281630E-004  0.2167041E+03  0.7818608E-02  0.1136364E+00
         -1   -1    0    0    0  501 -0.00000000000E+00  0.00000000000E+00  0.13633222719E+02  0.13633223650E+02  0.50400000000E-02 0. -1.
          1   -1    0    0  501    0  0.00000000000E+00 -0.00000000000E+00 -0.86114358340E+03  0.86114358342E+03  0.50400000000E-02 0.  1.
    5000001    1    1    2    0    0  0.56177142260E+01 -0.66966377374E+02 -0.27848273569E+03  0.29664404341E+03  0.77000000000E+02 0.  0.
   -5000001    1    1    2    0    0 -0.56177142260E+01  0.66966377374E+02 -0.56902762499E+03  0.57813276365E+03  0.77000000000E+02 0.  0.
<mgrwt>
<rscale>  0 0.21670406E+03</rscale>
<asrwt>0</asrwt>
<pdfrwt beam="1">  1        1 0.12302048E+00 0.21670406E+03</pdfrwt>
<pdfrwt beam="2">  1       -1 0.19476039E-02 0.21670406E+03</pdfrwt>
<totfact> 0.16174094E+04</totfact>
</mgrwt>
</event>
<event>
 4    1  0.3281630E-004  0.1933369E+03  0.7818608E-02  0.1155486E+00
          1   -1    0    0  501    0  0.00000000000E+00  0.00000000000E+00  0.16572552317E+04  0.16572552317E+04  0.50400000000E-02 0.  1.
         -1   -1    0    0    0  501 -0.00000000000E+00 -0.00000000000E+00 -0.56387159688E+01  0.56387182213E+01  0.50400000000E-02 0. -1.
    5000001    1    1    2    0    0  0.54364140746E+02  0.19154088982E+02  0.74266064169E+03  0.74886325029E+03  0.77000000000E+02 0.  0.
   -5000001    1    1    2    0    0 -0.54364140746E+02 -0.19154088982E+02  0.90895587408E+03  0.91403069968E+03  0.77000000000E+02 0.  0.
<mgrwt>
<rscale>  0 0.19333694E+03</rscale>
<asrwt>0</asrwt>
<pdfrwt beam="1">  1        1 0.23675090E+00 0.19333694E+03</pdfrwt>
<pdfrwt beam="2">  1       -1 0.80553049E-03 0.19333694E+03</pdfrwt>
<totfact> 0.17079374E+04</totfact>
</mgrwt>
</event>
<event>
 4    1  0.3281630E-004  0.2330499E+03  0.7818608E-02  0.1124511E+00
          1   -1    0    0  501    0  0.00000000000E+00  0.00000000000E+00  0.99706405029E+03  0.99706405030E+03  0.50400000000E-02 0.  1.
         -1   -1    0    0    0  501 -0.00000000000E+00 -0.00000000000E+00 -0.13618049618E+02  0.13618050551E+02  0.50400000000E-02 0. -1.
    5000001    1    1    2    0    0  0.12213980601E+02  0.86401943195E+02  0.51722931005E+03  0.53016001008E+03  0.77000000000E+02 0.  0.
   -5000001    1    1    2    0    0 -0.12213980601E+02 -0.86401943195E+02  0.46621669062E+03  0.48052209077E+03  0.77000000000E+02 0.  0.
<mgrwt>
<rscale>  0 0.23304994E+03</rscale>
<asrwt>0</asrwt>
<pdfrwt beam="1">  1        1 0.14243774E+00 0.23304994E+03</pdfrwt>
<pdfrwt beam="2">  1       -1 0.19454354E-02 0.23304994E+03</pdfrwt>
<totfact> 0.12890808E+04</totfact>
</mgrwt>
</event>
<event>
 4    1  0.3281630E-004  0.2482676E+03  0.7818608E-02  0.1114405E+00
          1   -1    0    0  501    0  0.00000000000E+00  0.00000000000E+00  0.12393923366E+04  0.12393923366E+04  0.50400000000E-02 0. -1.
         -1   -1    0    0    0  501 -0.00000000000E+00 -0.00000000000E+00 -0.12432869117E+02  0.12432870138E+02  0.50400000000E-02 0.  1.
    5000001    1    1    2    0    0 -0.59675567397E+02  0.48956697899E+02  0.91273033545E+03  0.91921901464E+03  0.77000000000E+02 0.  0.
   -5000001    1    1    2    0    0  0.59675567397E+02 -0.48956697899E+02  0.31422913200E+03  0.33260619208E+03  0.77000000000E+02 0.  0.
<mgrwt>
<rscale>  0 0.24826762E+03</rscale>
<asrwt>0</asrwt>
<pdfrwt beam="1">  1        1 0.17705596E+00 0.24826762E+03</pdfrwt>
<pdfrwt beam="2">  1       -1 0.17761251E-02 0.24826762E+03</pdfrwt>
<totfact> 0.10077181E+04</totfact>
</mgrwt>
</event>
<event>
 4    1  0.3281630E-004  0.7000792E+03  0.7818608E-02  0.9717097E-01
         -1   -1    0    0    0  501 -0.00000000000E+00  0.00000000000E+00  0.96535546928E+03  0.96535546930E+03  0.50400000000E-02 0. -1.
          1   -1    0    0  501    0  0.00000000000E+00 -0.00000000000E+00 -0.12692496993E+03  0.12692497003E+03  0.50400000000E-02 0.  1.
    5000001    1    1    2    0    0 -0.29049453679E+03  0.40343963640E+02  0.69207165708E+03  0.75558380729E+03  0.77000000000E+02 0.  0.
   -5000001    1    1    2    0    0  0.29049453679E+03 -0.40343963640E+02  0.14635884228E+03  0.33669663203E+03  0.77000000000E+02 0.  0.
<mgrwt>
<rscale>  0 0.70007918E+03</rscale>
<asrwt>0</asrwt>
<pdfrwt beam="1">  1        1 0.18132139E-01 0.70007918E+03</pdfrwt>
<pdfrwt beam="2">  1       -1 0.13790792E+00 0.70007918E+03</pdfrwt>
<totfact> 0.13263665E+02</totfact>
</mgrwt>
</event>
<event>
 4    1  0.3281630E-004  0.2431270E+03  0.7818608E-02  0.1117727E+00
          1   -1    0    0  501    0  0.00000000000E+00  0.00000000000E+00  0.22023261685E+02  0.22023262262E+02  0.50400000000E-02 0. -1.
         -1   -1    0    0    0  501 -0.00000000000E+00 -0.00000000000E+00 -0.67100365058E+03  0.67100365060E+03  0.50400000000E-02 0.  1.
    5000001    1    1    2    0    0 -0.82723740551E+02  0.96454260624E+01 -0.44914541995E+03  0.46324600350E+03  0.77000000000E+02 0.  0.
   -5000001    1    1    2    0    0  0.82723740551E+02 -0.96454260624E+01 -0.19983496895E+03  0.22978090937E+03  0.77000000000E+02 0.  0.
<mgrwt>
<rscale>  0 0.24312704E+03</rscale>
<asrwt>0</asrwt>
<pdfrwt beam="1">  1        1 0.31461807E-02 0.24312704E+03</pdfrwt>
<pdfrwt beam="2">  1       -1 0.95857652E-01 0.24312704E+03</pdfrwt>
<totfact> 0.35034879E+03</totfact>
</mgrwt>
</event>
<event>
 4    1  0.3281630E-004  0.2760310E+03  0.7818608E-02  0.1097877E+00
         -1   -1    0    0    0  501 -0.00000000000E+00  0.00000000000E+00  0.11193449308E+03  0.11193449320E+03  0.50400000000E-02 0. -1.
          1   -1    0    0  501    0  0.00000000000E+00 -0.00000000000E+00 -0.17017349230E+03  0.17017349238E+03  0.50400000000E-02 0.  1.
    5000001    1    1    2    0    0 -0.75349059481E+02  0.50641016807E+02  0.42255605620E+02  0.12631915751E+03  0.77000000000E+02 0.  0.
   -5000001    1    1    2    0    0  0.75349059481E+02 -0.50641016807E+02 -0.10049460484E+03  0.15578882806E+03  0.77000000000E+02 0.  0.
<mgrwt>
<rscale>  0 0.27603104E+03</rscale>
<asrwt>0</asrwt>
<pdfrwt beam="1">  1        1 0.24310499E-01 0.27603104E+03</pdfrwt>
<pdfrwt beam="2">  1       -1 0.15990642E-01 0.27603104E+03</pdfrwt>
<totfact> 0.57093309E+03</totfact>
</mgrwt>
</event>
<event>
 4    1  0.3281630E-004  0.2601912E+03  0.7818608E-02  0.1107028E+00
          1   -1    0    0  501    0  0.00000000000E+00  0.00000000000E+00  0.40409170496E+03  0.40409170499E+03  0.50400000000E-02 0.  1.
         -1   -1    0    0    0  501 -0.00000000000E+00 -0.00000000000E+00 -0.41883718281E+02  0.41883718585E+02  0.50400000000E-02 0. -1.
    5000001    1    1    2    0    0  0.51524515314E+02  0.86873216797E+02  0.13280204803E+03  0.18375830712E+03  0.77000000000E+02 0.  0.
   -5000001    1    1    2    0    0 -0.51524515314E+02 -0.86873216797E+02  0.22940593865E+03  0.26221711646E+03  0.77000000000E+02 0.  0.
<mgrwt>
<rscale>  0 0.26019119E+03</rscale>
<asrwt>0</asrwt>
<pdfrwt beam="1">  1        1 0.57727388E-01 0.26019119E+03</pdfrwt>
<pdfrwt beam="2">  1       -1 0.59833882E-02 0.26019119E+03</pdfrwt>
<totfact> 0.87437006E+03</totfact>
</mgrwt>
</event>
<event>
 4    1  0.3281630E-004  0.1820499E+03  0.7818608E-02  0.1165834E+00
         -1   -1    0    0    0  501 -0.00000000000E+00  0.00000000000E+00  0.11812454778E+02  0.11812455854E+02  0.50400000000E-02 0. -1.
          1   -1    0    0  501    0  0.00000000000E+00 -0.00000000000E+00 -0.70142411171E+03  0.70142411172E+03  0.50400000000E-02 0.  1.
    5000001    1    1    2    0    0 -0.23355011062E+02  0.31660125211E+02 -0.23339112484E+03  0.24889402810E+03  0.77000000000E+02 0.  0.
   -5000001    1    1    2    0    0  0.23355011062E+02 -0.31660125211E+02 -0.45622053208E+03  0.46434253947E+03  0.77000000000E+02 0.  0.
<mgrwt>
<rscale>  0 0.18204989E+03</rscale>
<asrwt>0</asrwt>
<pdfrwt beam="1">  1        1 0.10020342E+00 0.18204989E+03</pdfrwt>
<pdfrwt beam="2">  1       -1 0.16874941E-02 0.18204989E+03</pdfrwt>
<totfact> 0.26579693E+04</totfact>
</mgrwt>
</event>
<event>
 4    1  0.3281630E-004  0.2123855E+03  0.7818608E-02  0.1139691E+00
          1   -1    0    0  501    0  0.00000000000E+00  0.00000000000E+00  0.21088618737E+03  0.21088618743E+03  0.50400000000E-02 0. -1.
         -1   -1    0    0    0  501 -0.00000000000E+00 -0.00000000000E+00 -0.53473879413E+02  0.53473879650E+02  0.50400000000E-02 0.  1.
    5000001    1    1    2    0    0  0.48696272302E+02 -0.36939531690E+02  0.28730354941E+02  0.10242211301E+03  0.77000000000E+02 0.  0.
   -5000001    1    1    2    0    0 -0.48696272302E+02  0.36939531690E+02  0.12868195301E+03  0.16193795407E+03  0.77000000000E+02 0.  0.
<mgrwt>
<rscale>  0 0.21238552E+03</rscale>
<asrwt>0</asrwt>
<pdfrwt beam="1">  1        1 0.30126599E-01 0.21238552E+03</pdfrwt>
<pdfrwt beam="2">  1       -1 0.76391255E-02 0.21238552E+03</pdfrwt>
<totfact> 0.13526324E+04</totfact>
</mgrwt>
</event>
<event>
 4    1  0.3281630E-004  0.2200725E+03  0.7818608E-02  0.1133829E+00
         -1   -1    0    0    0  501 -0.00000000000E+00  0.00000000000E+00  0.12321082940E+02  0.12321083971E+02  0.50400000000E-02 0. -1.
          1   -1    0    0  501    0  0.00000000000E+00 -0.00000000000E+00 -0.98270385417E+03  0.98270385418E+03  0.50400000000E-02 0.  1.
    5000001    1    1    2    0    0 -0.51797092088E+02 -0.34085270303E+02 -0.26674735460E+03  0.28447828667E+03  0.77000000000E+02 0.  0.
   -5000001    1    1    2    0    0  0.51797092088E+02  0.34085270303E+02 -0.70363541663E+03  0.71054665148E+03  0.77000000000E+02 0.  0.
<mgrwt>
<rscale>  0 0.22007250E+03</rscale>
<asrwt>0</asrwt>
<pdfrwt beam="1">  1        1 0.14038622E+00 0.22007250E+03</pdfrwt>
<pdfrwt beam="2">  1       -1 0.17601554E-02 0.22007250E+03</pdfrwt>
<totfact> 0.15226892E+04</totfact>
</mgrwt>
</event>
<event>
 4    1  0.3281630E-004  0.1777329E+03  0.7818608E-02  0.1170015E+00
          1   -1    0    0  501    0  0.00000000000E+00  0.00000000000E+00  0.36562426528E+02  0.36562426875E+02  0.50400000000E-02 0. -1.
         -1   -1    0    0    0  501 -0.00000000000E+00 -0.00000000000E+00 -0.21599355894E+03  0.21599355900E+03  0.50400000000E-02 0.  1.
    5000001    1    1    2    0    0  0.10820732342E+02  0.37716969872E+02 -0.60297705147E+02  0.10537775529E+03  0.77000000000E+02 0.  0.
   -5000001    1    1    2    0    0 -0.10820732342E+02 -0.37716969872E+02 -0.11913342727E+03  0.14717823058E+03  0.77000000000E+02 0.  0.
<mgrwt>
<rscale>  0 0.17773293E+03</rscale>
<asrwt>0</asrwt>
<pdfrwt beam="1">  1        1 0.52232039E-02 0.17773293E+03</pdfrwt>
<pdfrwt beam="2">  1       -1 0.30856222E-01 0.17773293E+03</pdfrwt>
<totfact> 0.14588091E+04</totfact>
</mgrwt>
</event>
<event>
 4    1  0.3281630E-004  0.1653811E+03  0.7818608E-02  0.1182752E+00
         -1   -1    0    0    0  501 -0.00000000000E+00  0.00000000000E+00  0.60576956926E+02  0.60576957136E+02  0.50400000000E-02 0. -1.
          1   -1    0    0  501    0  0.00000000000E+00 -0.00000000000E+00 -0.11287671841E+03  0.11287671852E+03  0.50400000000E-02 0.  1.
    5000001    1    1    2    0    0  0.22667484378E+02 -0.38687128191E+00 -0.53113949549E+01  0.80443616489E+02  0.77000000000E+02 0.  0.
   -5000001    1    1    2    0    0 -0.22667484378E+02  0.38687128191E+00 -0.46988366526E+02  0.93010059167E+02  0.77000000000E+02 0.  0.
<mgrwt>
<rscale>  0 0.16538111E+03</rscale>
<asrwt>0</asrwt>
<pdfrwt beam="1">  1        1 0.16125246E-01 0.16538111E+03</pdfrwt>
<pdfrwt beam="2">  1       -1 0.86538510E-02 0.16538111E+03</pdfrwt>
<totfact> 0.24315590E+04</totfact>
</mgrwt>
</event>
<event>
 4    1  0.3281630E-004  0.1918740E+03  0.7818608E-02  0.1156782E+00
          1   -1    0    0  501    0  0.00000000000E+00  0.00000000000E+00  0.15057051919E+02  0.15057052762E+02  0.50400000000E-02 0. -1.
         -1   -1    0    0    0  501 -0.00000000000E+00 -0.00000000000E+00 -0.61126890791E+03  0.61126890793E+03  0.50400000000E-02 0.  1.
    5000001    1    1    2    0    0  0.12152562605E+02  0.37923261559E+02 -0.16395136124E+03  0.18545864067E+03  0.77000000000E+02 0.  0.
   -5000001    1    1    2    0    0 -0.12152562605E+02 -0.37923261559E+02 -0.43226049475E+03  0.44086732003E+03  0.77000000000E+02 0.  0.
<mgrwt>
<rscale>  0 0.19187400E+03</rscale>
<asrwt>0</asrwt>
<pdfrwt beam="1">  1        1 0.21510079E-02 0.19187400E+03</pdfrwt>
<pdfrwt beam="2">  1       -1 0.87324114E-01 0.19187400E+03</pdfrwt>
<totfact> 0.72076762E+03</totfact>
</mgrwt>
</event>
<event>
 4    1  0.3281630E-004  0.2483516E+03  0.7818608E-02  0.1114351E+00
          1   -1    0    0  501    0  0.00000000000E+00  0.00000000000E+00  0.55757749811E+03  0.55757749813E+03  0.50400000000E-02 0. -1.
         -1   -1    0    0    0  501 -0.00000000000E+00 -0.00000000000E+00 -0.27654689410E+02  0.27654689870E+02  0.50400000000E-02 0.  1.
    5000001    1    1    2    0    0 -0.13340342439E+00  0.55763219445E+02  0.76723001463E+02  0.12216780833E+03  0.77000000000E+02 0.  0.
   -5000001    1    1    2    0    0  0.13340342439E+00 -0.55763219445E+02  0.45319980723E+03  0.46306437967E+03  0.77000000000E+02 0.  0.
<mgrwt>
<rscale>  0 0.24835163E+03</rscale>
<asrwt>0</asrwt>
<pdfrwt beam="1">  1        1 0.79653920E-01 0.24835163E+03</pdfrwt>
<pdfrwt beam="2">  1       -1 0.39506704E-02 0.24835163E+03</pdfrwt>
<totfact> 0.10680690E+04</totfact>
</mgrwt>
</event>
<event>
 4    1  0.3281630E-004  0.2473478E+03  0.7818608E-02  0.1114992E+00
          1   -1    0    0  501    0  0.00000000000E+00  0.00000000000E+00  0.15455013535E+04  0.15455013535E+04  0.50400000000E-02 0. -1.
         -1   -1    0    0    0  501 -0.00000000000E+00 -0.00000000000E+00 -0.98966168012E+01  0.98966180845E+01  0.50400000000E-02 0.  1.
    5000001    1    1    2    0    0  0.13352107378E+02 -0.95852035911E+02  0.77149112170E+03  0.78134079788E+03  0.77000000000E+02 0.  0.
   -5000001    1    1    2    0    0 -0.13352107378E+02  0.95852035911E+02  0.76411361500E+03  0.77405717372E+03  0.77000000000E+02 0.  0.
<mgrwt>
<rscale>  0 0.24734782E+03</rscale>
<asrwt>0</asrwt>
<pdfrwt beam="1">  1        1 0.22078563E+00 0.24734782E+03</pdfrwt>
<pdfrwt beam="2">  1       -1 0.14138042E-02 0.24734782E+03</pdfrwt>
<totfact> 0.89711932E+03</totfact>
</mgrwt>
</event>
<event>
 4    1  0.3281630E-004  0.3247386E+03  0.7818608E-02  0.1073489E+00
         -1   -1    0    0    0  501 -0.00000000000E+00  0.00000000000E+00  0.14421538854E+03  0.14421538863E+03  0.50400000000E-02 0. -1.
          1   -1    0    0  501    0  0.00000000000E+00 -0.00000000000E+00 -0.18280847671E+03  0.18280847678E+03  0.50400000000E-02 0.  1.
    5000001    1    1    2    0    0 -0.10358891858E+03 -0.13185335239E+02 -0.11760667591E+03  0.17511381252E+03  0.77000000000E+02 0.  0.
   -5000001    1    1    2    0    0  0.10358891858E+03  0.13185335239E+02  0.79013587747E+02  0.15191005288E+03  0.77000000000E+02 0.  0.
<mgrwt>
<rscale>  0 0.32473864E+03</rscale>
<asrwt>0</asrwt>
<pdfrwt beam="1">  1        1 0.26115497E-01 0.32473864E+03</pdfrwt>
<pdfrwt beam="2">  1       -1 0.20602198E-01 0.32473864E+03</pdfrwt>
<totfact> 0.34769132E+03</totfact>
</mgrwt>
</event>
<event>
 4    1  0.3281630E-004  0.2272606E+03  0.7818608E-02  0.1128583E+00
         -1   -1    0    0    0  501 -0.00000000000E+00  0.00000000000E+00  0.22930432800E+02  0.22930433354E+02  0.50400000000E-02 0. -1.
          1   -1    0    0  501    0  0.00000000000E+00 -0.00000000000E+00 -0.56308764291E+03  0.56308764293E+03  0.50400000000E-02 0.  1.
    5000001    1    1    2    0    0 -0.63888751868E+02 -0.32166573266E+02 -0.15867808623E+03  0.19032655122E+03  0.77000000000E+02 0.  0.
   -5000001    1    1    2    0    0  0.63888751868E+02  0.32166573266E+02 -0.38147912388E+03  0.39569152506E+03  0.77000000000E+02 0.  0.
<mgrwt>
<rscale>  0 0.22726059E+03</rscale>
<asrwt>0</asrwt>
<pdfrwt beam="1">  1        1 0.80441083E-01 0.22726059E+03</pdfrwt>
<pdfrwt beam="2">  1       -1 0.32757765E-02 0.22726059E+03</pdfrwt>
<totfact> 0.13843950E+04</totfact>
</mgrwt>
</event>
<event>
 4    1  0.3281630E-004  0.3106064E+03  0.7818608E-02  0.1080056E+00
         -1   -1    0    0    0  501 -0.00000000000E+00  0.00000000000E+00  0.82799340767E+02  0.82799340921E+02  0.50400000000E-02 0. -1.
          1   -1    0    0  501    0  0.00000000000E+00 -0.00000000000E+00 -0.29129567970E+03  0.29129567974E+03  0.50400000000E-02 0.  1.
    5000001    1    1    2    0    0  0.50948882881E+02 -0.11151935593E+03 -0.36568332811E+02  0.14932715218E+03  0.77000000000E+02 0.  0.
   -5000001    1    1    2    0    0 -0.50948882881E+02  0.11151935593E+03 -0.17192800612E+03  0.22476786848E+03  0.77000000000E+02 0.  0.
<mgrwt>
<rscale>  0 0.31060644E+03</rscale>
<asrwt>0</asrwt>
<pdfrwt beam="1">  1        1 0.41613668E-01 0.31060644E+03</pdfrwt>
<pdfrwt beam="2">  1       -1 0.11828477E-01 0.31060644E+03</pdfrwt>
<totfact> 0.46771360E+03</totfact>
</mgrwt>
</event>
<event>
 4    1  0.3281630E-004  0.2089595E+03  0.7818608E-02  0.1142393E+00
          1   -1    0    0  501    0  0.00000000000E+00  0.00000000000E+00  0.68148935597E+03  0.68148935599E+03  0.50400000000E-02 0. -1.
         -1   -1    0    0    0  501 -0.00000000000E+00 -0.00000000000E+00 -0.16017889857E+02  0.16017890650E+02  0.50400000000E-02 0.  1.
    5000001    1    1    2    0    0  0.65164296149E+02  0.11992955345E+02  0.25118969754E+03  0.27095291219E+03  0.77000000000E+02 0.  0.
   -5000001    1    1    2    0    0 -0.65164296149E+02 -0.11992955345E+02  0.41428176857E+03  0.42655433445E+03  0.77000000000E+02 0.  0.
<mgrwt>
<rscale>  0 0.20895953E+03</rscale>
<asrwt>0</asrwt>
<pdfrwt beam="1">  1        1 0.97355636E-01 0.20895953E+03</pdfrwt>
<pdfrwt beam="2">  1       -1 0.22882697E-02 0.20895953E+03</pdfrwt>
<totfact> 0.17958879E+04</totfact>
</mgrwt>
</event>
<event>
 4    1  0.3281630E-004  0.1971870E+03  0.7818608E-02  0.1152134E+00
          1   -1    0    0  501    0  0.00000000000E+00  0.00000000000E+00  0.34809918847E+02  0.34809919212E+02  0.50400000000E-02 0. -1.
         -1   -1    0    0    0  501 -0.00000000000E+00 -0.00000000000E+00 -0.27925033809E+03  0.27925033813E+03  0.50400000000E-02 0.  1.
    5000001    1    1    2    0    0 -0.39517256139E+02  0.32058462086E+02 -0.17744641835E+03  0.20001397429E+03  0.77000000000E+02 0.  0.
   -5000001    1    1    2    0    0  0.39517256139E+02 -0.32058462086E+02 -0.66994000885E+02  0.11404628305E+03  0.77000000000E+02 0.  0.
<mgrwt>
<rscale>  0 0.19718703E+03</rscale>
<asrwt>0</asrwt>
<pdfrwt beam="1">  1        1 0.49728457E-02 0.19718703E+03</pdfrwt>
<pdfrwt beam="2">  1       -1 0.39892904E-01 0.19718703E+03</pdfrwt>
<totfact> 0.10093185E+04</totfact>
</mgrwt>
</event>
<event>
 4    1  0.3281630E-004  0.2086709E+03  0.7818608E-02  0.1142623E+00
         -1   -1    0    0    0  501 -0.00000000000E+00  0.00000000000E+00  0.23406114435E+03  0.23406114440E+03  0.50400000000E-02 0.  1.
          1   -1    0    0  501    0  0.00000000000E+00 -0.00000000000E+00 -0.46508729756E+02  0.46508730029E+02  0.50400000000E-02 0. -1.
    5000001    1    1    2    0    0 -0.15592093931E+02  0.68043824567E+02  0.81467004969E+02  0.13205661041E+03  0.77000000000E+02 0.  0.
   -5000001    1    1    2    0    0  0.15592093931E+02 -0.68043824567E+02  0.10608540962E+03  0.14851326402E+03  0.77000000000E+02 0.  0.
<mgrwt>
<rscale>  0 0.20867090E+03</rscale>
<asrwt>0</asrwt>
<pdfrwt beam="1">  1        1 0.66441042E-02 0.20867090E+03</pdfrwt>
<pdfrwt beam="2">  1       -1 0.33437307E-01 0.20867090E+03</pdfrwt>
<totfact> 0.92584745E+03</totfact>
</mgrwt>
</event>
<event>
 4    1  0.3281630E-004  0.2420596E+03  0.7818608E-02  0.1118428E+00
         -1   -1    0    0    0  501 -0.00000000000E+00  0.00000000000E+00  0.76374105532E+02  0.76374105698E+02  0.50400000000E-02 0. -1.
          1   -1    0    0  501    0  0.00000000000E+00 -0.00000000000E+00 -0.19179549486E+03  0.19179549493E+03  0.50400000000E-02 0.  1.
    5000001    1    1    2    0    0  0.87663433443E+02 -0.32154408723E+02 -0.56987746674E+02  0.13377364028E+03  0.77000000000E+02 0.  0.
   -5000001    1    1    2    0    0 -0.87663433443E+02  0.32154408723E+02 -0.58433642657E+02  0.13439596035E+03  0.77000000000E+02 0.  0.
<mgrwt>
<rscale>  0 0.24205957E+03</rscale>
<asrwt>0</asrwt>
<pdfrwt beam="1">  1        1 0.27399356E-01 0.24205957E+03</pdfrwt>
<pdfrwt beam="2">  1       -1 0.10910587E-01 0.24205957E+03</pdfrwt>
<totfact> 0.88928104E+03</totfact>
</mgrwt>
</event>
<event>
 4    1  0.3281630E-004  0.1710936E+03  0.7818608E-02  0.1176712E+00
          1   -1    0    0  501    0  0.00000000000E+00  0.00000000000E+00  0.11046232991E+03  0.11046233003E+03  0.50400000000E-02 0.  1.
         -1   -1    0    0    0  501 -0.00000000000E+00 -0.00000000000E+00 -0.66251162132E+02  0.66251162324E+02  0.50400000000E-02 0. -1.
    5000001    1    1    2    0    0 -0.20590533776E+02  0.16170286283E+02 -0.52952279599E+01  0.81501458139E+02  0.77000000000E+02 0.  0.
   -5000001    1    1    2    0    0  0.20590533776E+02 -0.16170286283E+02  0.49506395742E+02  0.95212034213E+02  0.77000000000E+02 0.  0.
<mgrwt>
<rscale>  0 0.17109363E+03</rscale>
<asrwt>0</asrwt>
<pdfrwt beam="1">  1        1 0.15780333E-01 0.17109363E+03</pdfrwt>
<pdfrwt beam="2">  1       -1 0.94644518E-02 0.17109363E+03</pdfrwt>
<totfact> 0.21883734E+04</totfact>
</mgrwt>
</event>
<event>
 4    1  0.3281630E-004  0.4438043E+03  0.7818608E-02  0.1029586E+00
         -1   -1    0    0    0  501 -0.00000000000E+00  0.00000000000E+00  0.53655280627E+03  0.53655280630E+03  0.50400000000E-02 0. -1.
          1   -1    0    0  501    0  0.00000000000E+00 -0.00000000000E+00 -0.91772082760E+02  0.91772082898E+02  0.50400000000E-02 0.  1.
    5000001    1    1    2    0    0  0.19876174788E+03  0.14115750971E+02  0.13737243270E+03  0.25397966870E+03  0.77000000000E+02 0.  0.
   -5000001    1    1    2    0    0 -0.19876174788E+03 -0.14115750971E+02  0.30740829081E+03  0.37434522049E+03  0.77000000000E+02 0.  0.
<mgrwt>
<rscale>  0 0.44380432E+03</rscale>
<asrwt>0</asrwt>
<pdfrwt beam="1">  1        1 0.13110297E-01 0.44380432E+03</pdfrwt>
<pdfrwt beam="2">  1       -1 0.76650403E-01 0.44380432E+03</pdfrwt>
<totfact> 0.79682458E+02</totfact>
</mgrwt>
</event>
<event>
 4    1  0.3281630E-004  0.2380260E+03  0.7818608E-02  0.1121115E+00
          1   -1    0    0  501    0  0.00000000000E+00  0.00000000000E+00  0.68116219488E+02  0.68116219674E+02  0.50400000000E-02 0.  1.
         -1   -1    0    0    0  501 -0.00000000000E+00 -0.00000000000E+00 -0.20794005821E+03  0.20794005827E+03  0.50400000000E-02 0. -1.
    5000001    1    1    2    0    0  0.14711104712E+02 -0.13746636560E+02 -0.17253521487E+03  0.19000733404E+03  0.77000000000E+02 0.  0.
   -5000001    1    1    2    0    0 -0.14711104712E+02  0.13746636560E+02  0.32711376145E+02  0.86048943909E+02  0.77000000000E+02 0.  0.
<mgrwt>
<rscale>  0 0.23802597E+03</rscale>
<asrwt>0</asrwt>
<pdfrwt beam="1">  1        1 0.97308886E-02 0.23802597E+03</pdfrwt>
<pdfrwt beam="2">  1       -1 0.29705722E-01 0.23802597E+03</pdfrwt>
<totfact> 0.68093943E+03</totfact>
</mgrwt>
</event>
<event>
 4    1  0.3281630E-004  0.3177590E+03  0.7818608E-02  0.1076685E+00
          1   -1    0    0  501    0  0.00000000000E+00  0.00000000000E+00  0.34849091037E+02  0.34849091402E+02  0.50400000000E-02 0.  1.
         -1   -1    0    0    0  501 -0.00000000000E+00 -0.00000000000E+00 -0.72434285413E+03  0.72434285415E+03  0.50400000000E-02 0. -1.
    5000001    1    1    2    0    0  0.30379353521E+02  0.12070243994E+03 -0.49244753590E+03  0.51373685846E+03  0.77000000000E+02 0.  0.
   -5000001    1    1    2    0    0 -0.30379353521E+02 -0.12070243994E+03 -0.19704622720E+03  0.24545508709E+03  0.77000000000E+02 0.  0.
<mgrwt>
<rscale>  0 0.31775897E+03</rscale>
<asrwt>0</asrwt>
<pdfrwt beam="1">  1        1 0.49784421E-02 0.31775897E+03</pdfrwt>
<pdfrwt beam="2">  1       -1 0.10347754E+00 0.31775897E+03</pdfrwt>
<totfact> 0.15671700E+03</totfact>
</mgrwt>
</event>
<event>
 4    1  0.3281630E-004  0.1802246E+03  0.7818608E-02  0.1167586E+00
          1   -1    0    0  501    0  0.00000000000E+00  0.00000000000E+00  0.48286859193E+03  0.48286859196E+03  0.50400000000E-02 0. -1.
         -1   -1    0    0    0  501 -0.00000000000E+00 -0.00000000000E+00 -0.16816644264E+02  0.16816645019E+02  0.50400000000E-02 0.  1.
    5000001    1    1    2    0    0 -0.16399207964E+02 -0.41379057152E+02  0.19284101773E+03  0.21236246964E+03  0.77000000000E+02 0.  0.
   -5000001    1    1    2    0    0  0.16399207964E+02  0.41379057152E+02  0.27321092994E+03  0.28732276734E+03  0.77000000000E+02 0.  0.
<mgrwt>
<rscale>  0 0.18022463E+03</rscale>
<asrwt>0</asrwt>
<pdfrwt beam="1">  1        1 0.68981228E-01 0.18022463E+03</pdfrwt>
<pdfrwt beam="2">  1       -1 0.24023778E-02 0.18022463E+03</pdfrwt>
<totfact> 0.26245588E+04</totfact>
</mgrwt>
</event>
<event>
 4    1  0.3281630E-004  0.3238777E+03  0.7818608E-02  0.1073878E+00
         -1   -1    0    0    0  501 -0.00000000000E+00  0.00000000000E+00  0.13851933844E+02  0.13851934761E+02  0.50400000000E-02 0. -1.
          1   -1    0    0  501    0  0.00000000000E+00 -0.00000000000E+00 -0.18931787779E+04  0.18931787779E+04  0.50400000000E-02 0.  1.
    5000001    1    1    2    0    0  0.30884082608E+02 -0.11736447198E+03 -0.13789875174E+04  0.13864572907E+04  0.77000000000E+02 0.  0.
   -5000001    1    1    2    0    0 -0.30884082608E+02  0.11736447198E+03 -0.50033932666E+03  0.52057342196E+03  0.77000000000E+02 0.  0.
<mgrwt>
<rscale>  0 0.32387768E+03</rscale>
<asrwt>0</asrwt>
<pdfrwt beam="1">  1        1 0.27045395E+00 0.32387768E+03</pdfrwt>
<pdfrwt beam="2">  1       -1 0.19788490E-02 0.32387768E+03</pdfrwt>
<totfact> 0.33756566E+03</totfact>
</mgrwt>
</event>
<event>
 4    1  0.3281630E-004  0.2151245E+03  0.7818608E-02  0.1137571E+00
         -1   -1    0    0    0  501 -0.00000000000E+00  0.00000000000E+00  0.57678576372E+02  0.57678576592E+02  0.50400000000E-02 0.  1.
          1   -1    0    0  501    0  0.00000000000E+00 -0.00000000000E+00 -0.20058816753E+03  0.20058816760E+03  0.50400000000E-02 0. -1.
    5000001    1    1    2    0    0 -0.23176813796E+02  0.57555078271E+02 -0.20649051942E+02  0.10102046861E+03  0.77000000000E+02 0.  0.
   -5000001    1    1    2    0    0  0.23176813796E+02 -0.57555078271E+02 -0.12226053922E+03  0.15724627558E+03  0.77000000000E+02 0.  0.
<mgrwt>
<rscale>  0 0.21512452E+03</rscale>
<asrwt>0</asrwt>
<pdfrwt beam="1">  1        1 0.28655452E-01 0.21512452E+03</pdfrwt>
<pdfrwt beam="2">  1       -1 0.82397967E-02 0.21512452E+03</pdfrwt>
<totfact> 0.12849452E+04</totfact>
</mgrwt>
</event>
<event>
 4    1  0.3281630E-004  0.1655138E+03  0.7818608E-02  0.1182609E+00
         -1   -1    0    0    0  501 -0.00000000000E+00  0.00000000000E+00  0.72305875818E+01  0.72305893384E+01  0.50400000000E-02 0. -1.
          1   -1    0    0  501    0  0.00000000000E+00 -0.00000000000E+00 -0.94718511829E+03  0.94718511830E+03  0.50400000000E-02 0.  1.
    5000001    1    1    2    0    0 -0.24844171357E+02 -0.12692495597E+02 -0.53853987478E+03  0.54473161192E+03  0.77000000000E+02 0.  0.
   -5000001    1    1    2    0    0  0.24844171357E+02  0.12692495597E+02 -0.40141465592E+03  0.40968409572E+03  0.77000000000E+02 0.  0.
<mgrwt>
<rscale>  0 0.16551382E+03</rscale>
<asrwt>0</asrwt>
<pdfrwt beam="1">  1        1 0.13531208E+00 0.16551382E+03</pdfrwt>
<pdfrwt beam="2">  1       -1 0.10329418E-02 0.16551382E+03</pdfrwt>
<totfact> 0.34180880E+04</totfact>
</mgrwt>
</event>
<event>
 4    1  0.3281630E-004  0.2213503E+03  0.7818608E-02  0.1132880E+00
          1   -1    0    0  501    0  0.00000000000E+00  0.00000000000E+00  0.97186194320E+03  0.97186194322E+03  0.50400000000E-02 0.  1.
         -1   -1    0    0    0  501 -0.00000000000E+00 -0.00000000000E+00 -0.12603634412E+02  0.12603635420E+02  0.50400000000E-02 0. -1.
    5000001    1    1    2    0    0  0.77143098890E+02  0.19190569425E+02  0.48323543241E+03  0.49574672848E+03  0.77000000000E+02 0.  0.
   -5000001    1    1    2    0    0 -0.77143098890E+02 -0.19190569425E+02  0.47602287638E+03  0.48871885016E+03  0.77000000000E+02 0.  0.
<mgrwt>
<rscale>  0 0.22135034E+03</rscale>
<asrwt>0</asrwt>
<pdfrwt beam="1">  1        1 0.13883746E+00 0.22135034E+03</pdfrwt>
<pdfrwt beam="2">  1       -1 0.18005187E-02 0.22135034E+03</pdfrwt>
<totfact> 0.15005955E+04</totfact>
</mgrwt>
</event>
<event>
 4    1  0.3281630E-004  0.2538853E+03  0.7818608E-02  0.1110874E+00
         -1   -1    0    0    0  501 -0.00000000000E+00  0.00000000000E+00  0.83981022205E+02  0.83981022356E+02  0.50400000000E-02 0. -1.
          1   -1    0    0  501    0  0.00000000000E+00 -0.00000000000E+00 -0.19188193030E+03  0.19188193037E+03  0.50400000000E-02 0.  1.
    5000001    1    1    2    0    0 -0.66193420923E+02 -0.28530068573E+02 -0.13070462548E+03  0.16795306758E+03  0.77000000000E+02 0.  0.
   -5000001    1    1    2    0    0  0.66193420923E+02  0.28530068573E+02  0.22803717382E+02  0.10790988515E+03  0.77000000000E+02 0.  0.
<mgrwt>
<rscale>  0 0.25388533E+03</rscale>
<asrwt>0</asrwt>
<pdfrwt beam="1">  1        1 0.27411704E-01 0.25388533E+03</pdfrwt>
<pdfrwt beam="2">  1       -1 0.11997289E-01 0.25388533E+03</pdfrwt>
<totfact> 0.76850614E+03</totfact>
</mgrwt>
</event>
<event>
 4    1  0.3281630E-004  0.1726831E+03  0.7818608E-02  0.1175078E+00
          1   -1    0    0  501    0  0.00000000000E+00  0.00000000000E+00  0.60827360334E+02  0.60827360543E+02  0.50400000000E-02 0. -1.
         -1   -1    0    0    0  501 -0.00000000000E+00 -0.00000000000E+00 -0.12255770247E+03  0.12255770258E+03  0.50400000000E-02 0.  1.
    5000001    1    1    2    0    0 -0.33650211009E+02  0.11675935141E+02 -0.13833884522E+02  0.85959528403E+02  0.77000000000E+02 0.  0.
   -5000001    1    1    2    0    0  0.33650211009E+02 -0.11675935141E+02 -0.47896457617E+02  0.97425534715E+02  0.77000000000E+02 0.  0.
<mgrwt>
<rscale>  0 0.17268308E+03</rscale>
<asrwt>0</asrwt>
<pdfrwt beam="1">  1        1 0.86896229E-02 0.17268308E+03</pdfrwt>
<pdfrwt beam="2">  1       -1 0.17508243E-01 0.17268308E+03</pdfrwt>
<totfact> 0.18460805E+04</totfact>
</mgrwt>
</event>
<event>
 4    1  0.3281630E-004  0.4706659E+03  0.7818608E-02  0.1021732E+00
         -1   -1    0    0    0  501 -0.00000000000E+00  0.00000000000E+00  0.30253608628E+02  0.30253609047E+02  0.50400000000E-02 0. -1.
          1   -1    0    0  501    0  0.00000000000E+00 -0.00000000000E+00 -0.18305780845E+04  0.18305780845E+04  0.50400000000E-02 0.  1.
    5000001    1    1    2    0    0  0.10739786457E+03 -0.10684100485E+03 -0.15438041018E+04  0.15531289085E+04  0.77000000000E+02 0.  0.
   -5000001    1    1    2    0    0 -0.10739786457E+03  0.10684100485E+03 -0.25652037411E+03  0.30770278510E+03  0.77000000000E+02 0.  0.
<mgrwt>
<rscale>  0 0.47066588E+03</rscale>
<asrwt>0</asrwt>
<pdfrwt beam="1">  1        1 0.26151109E+00 0.47066588E+03</pdfrwt>
<pdfrwt beam="2">  1       -1 0.43219453E-02 0.47066588E+03</pdfrwt>
<totfact> 0.11450349E+03</totfact>
</mgrwt>
</event>
<event>
 4    1  0.3281630E-004  0.2412666E+03  0.7818608E-02  0.1118952E+00
          1   -1    0    0  501    0  0.00000000000E+00  0.00000000000E+00  0.40104593308E+03  0.40104593311E+03  0.50400000000E-02 0.  1.
         -1   -1    0    0    0  501 -0.00000000000E+00 -0.00000000000E+00 -0.36286113400E+02  0.36286113750E+02  0.50400000000E-02 0. -1.
    5000001    1    1    2    0    0 -0.48417934648E+02  0.62331820497E+02  0.27106735192E+03  0.29263639815E+03  0.77000000000E+02 0.  0.
   -5000001    1    1    2    0    0  0.48417934648E+02 -0.62331820497E+02  0.93692467755E+02  0.14469564871E+03  0.77000000000E+02 0.  0.
<mgrwt>
<rscale>  0 0.24126664E+03</rscale>
<asrwt>0</asrwt>
<pdfrwt beam="1">  1        1 0.57292273E-01 0.24126664E+03</pdfrwt>
<pdfrwt beam="2">  1       -1 0.51837308E-02 0.24126664E+03</pdfrwt>
<totfact> 0.10912399E+04</totfact>
</mgrwt>
</event>
<event>
 4    1  0.3281630E-004  0.3393935E+03  0.7818608E-02  0.1067055E+00
          1   -1    0    0  501    0  0.00000000000E+00  0.00000000000E+00  0.23814131568E+03  0.23814131574E+03  0.50400000000E-02 0.  1.
         -1   -1    0    0    0  501 -0.00000000000E+00 -0.00000000000E+00 -0.12092395329E+03  0.12092395340E+03  0.50400000000E-02 0. -1.
    5000001    1    1    2    0    0  0.13791454430E+03 -0.16283726385E+02  0.12193108450E+03  0.20020432224E+03  0.77000000000E+02 0.  0.
   -5000001    1    1    2    0    0 -0.13791454430E+03  0.16283726385E+02 -0.47137221145E+01  0.15886094690E+03  0.77000000000E+02 0.  0.
<mgrwt>
<rscale>  0 0.33939351E+03</rscale>
<asrwt>0</asrwt>
<pdfrwt beam="1">  1        1 0.34020187E-01 0.33939351E+03</pdfrwt>
<pdfrwt beam="2">  1       -1 0.17274851E-01 0.33939351E+03</pdfrwt>
<totfact> 0.33121484E+03</totfact>
</mgrwt>
</event>
<event>
 4    1  0.3281630E-004  0.2825825E+03  0.7818608E-02  0.1094287E+00
         -1   -1    0    0    0  501 -0.00000000000E+00  0.00000000000E+00  0.11086464679E+03  0.11086464690E+03  0.50400000000E-02 0. -1.
          1   -1    0    0  501    0  0.00000000000E+00 -0.00000000000E+00 -0.18006837712E+03  0.18006837720E+03  0.50400000000E-02 0.  1.
    5000001    1    1    2    0    0 -0.15435047330E+02  0.99607769915E+02  0.29481103326E+02  0.13022320825E+03  0.77000000000E+02 0.  0.
   -5000001    1    1    2    0    0  0.15435047330E+02 -0.99607769915E+02 -0.98684833666E+02  0.16070981585E+03  0.77000000000E+02 0.  0.
<mgrwt>
<rscale>  0 0.28258250E+03</rscale>
<asrwt>0</asrwt>
<pdfrwt beam="1">  1        1 0.25724054E-01 0.28258250E+03</pdfrwt>
<pdfrwt beam="2">  1       -1 0.15837807E-01 0.28258250E+03</pdfrwt>
<totfact> 0.53992985E+03</totfact>
</mgrwt>
</event>
<event>
 4    1  0.3281630E-004  0.2007146E+03  0.7818608E-02  0.1149138E+00
          1   -1    0    0  501    0  0.00000000000E+00  0.00000000000E+00  0.93864046336E+02  0.93864046472E+02  0.50400000000E-02 0.  1.
         -1   -1    0    0    0  501 -0.00000000000E+00 -0.00000000000E+00 -0.10729969907E+03  0.10729969919E+03  0.50400000000E-02 0. -1.
    5000001    1    1    2    0    0  0.58719231962E+02  0.25866594420E+02 -0.11784338980E+02  0.10092026335E+03  0.77000000000E+02 0.  0.
   -5000001    1    1    2    0    0 -0.58719231962E+02 -0.25866594420E+02 -0.16513137544E+01  0.10024348231E+03  0.77000000000E+02 0.  0.
<mgrwt>
<rscale>  0 0.20071456E+03</rscale>
<asrwt>0</asrwt>
<pdfrwt beam="1">  1        1 0.13409150E-01 0.20071456E+03</pdfrwt>
<pdfrwt beam="2">  1       -1 0.15328528E-01 0.20071456E+03</pdfrwt>
<totfact> 0.12964693E+04</totfact>
</mgrwt>
</event>
<event>
 4    1  0.3281630E-004  0.1195488E+04  0.7818608E-02  0.9116815E-01
          1   -1    0    0  501    0  0.00000000000E+00  0.00000000000E+00  0.50701659601E+03  0.50701659604E+03  0.50400000000E-02 0.  1.
         -1   -1    0    0    0  501 -0.00000000000E+00 -0.00000000000E+00 -0.70470680822E+03  0.70470680824E+03  0.50400000000E-02 0. -1.
    5000001    1    1    2    0    0 -0.72395447157E+02  0.55729775363E+03  0.92254870909E+02  0.57468412904E+03  0.77000000000E+02 0.  0.
   -5000001    1    1    2    0    0  0.72395447157E+02 -0.55729775363E+03 -0.28994508312E+03  0.63703927523E+03  0.77000000000E+02 0.  0.
<mgrwt>
<rscale>  0 0.11954883E+04</rscale>
<asrwt>0</asrwt>
<pdfrwt beam="1">  1        1 0.72430942E-01 0.11954883E+04</pdfrwt>
<pdfrwt beam="2">  1       -1 0.10067240E+00 0.11954883E+04</pdfrwt>
<totfact> 0.44814360E+01</totfact>
</mgrwt>
</event>
<event>
 4    1  0.3281630E-004  0.2041693E+03  0.7818608E-02  0.1146268E+00
         -1   -1    0    0    0  501 -0.00000000000E+00  0.00000000000E+00  0.27717200508E+01  0.27717246331E+01  0.50400000000E-02 0.  1.
          1   -1    0    0  501    0  0.00000000000E+00 -0.00000000000E+00 -0.37598563672E+04  0.37598563672E+04  0.50400000000E-02 0. -1.
    5000001    1    1    2    0    0  0.11631835057E+02  0.50681342128E+02 -0.10991956304E+04  0.11031155569E+04  0.77000000000E+02 0.  0.
   -5000001    1    1    2    0    0 -0.11631835057E+02 -0.50681342128E+02 -0.26578890168E+04  0.26595125349E+04  0.77000000000E+02 0.  0.
<mgrwt>
<rscale>  0 0.20416932E+03</rscale>
<asrwt>0</asrwt>
<pdfrwt beam="1">  1        1 0.53711907E+00 0.20416932E+03</pdfrwt>
<pdfrwt beam="2">  1       -1 0.39596274E-03 0.20416932E+03</pdfrwt>
<totfact> 0.22866022E+03</totfact>
</mgrwt>
</event>
<event>
 4    1  0.3281630E-004  0.2841894E+03  0.7818608E-02  0.1093423E+00
          1   -1    0    0  501    0  0.00000000000E+00  0.00000000000E+00  0.65673655839E+03  0.65673655841E+03  0.50400000000E-02 0.  1.
         -1   -1    0    0    0  501 -0.00000000000E+00 -0.00000000000E+00 -0.30744297039E+02  0.30744297452E+02  0.50400000000E-02 0. -1.
    5000001    1    1    2    0    0 -0.81779171260E+02 -0.30485025223E+02  0.51018915304E+03  0.52329641839E+03  0.77000000000E+02 0.  0.
   -5000001    1    1    2    0    0  0.81779171260E+02  0.30485025223E+02  0.11580310831E+03  0.16418443747E+03  0.77000000000E+02 0.  0.
<mgrwt>
<rscale>  0 0.28418940E+03</rscale>
<asrwt>0</asrwt>
<pdfrwt beam="1">  1        1 0.93819510E-01 0.28418940E+03</pdfrwt>
<pdfrwt beam="2">  1       -1 0.43920424E-02 0.28418940E+03</pdfrwt>
<totfact> 0.73349070E+03</totfact>
</mgrwt>
</event>
<event>
 4    1  0.3281630E-004  0.1606020E+03  0.7818608E-02  0.1188019E+00
         -1   -1    0    0    0  501 -0.00000000000E+00  0.00000000000E+00  0.21415736157E+03  0.21415736163E+03  0.50400000000E-02 0.  1.
          1   -1    0    0  501    0  0.00000000000E+00 -0.00000000000E+00 -0.30109877983E+02  0.30109878404E+02  0.50400000000E-02 0. -1.
    5000001    1    1    2    0    0 -0.15527421807E+02  0.21741879510E+00  0.66659736641E+02  0.10302266056E+03  0.77000000000E+02 0.  0.
   -5000001    1    1    2    0    0  0.15527421807E+02 -0.21741879510E+00  0.11738774695E+03  0.14124457948E+03  0.77000000000E+02 0.  0.
<mgrwt>
<rscale>  0 0.16060202E+03</rscale>
<asrwt>0</asrwt>
<pdfrwt beam="1">  1        1 0.43014110E-02 0.16060202E+03</pdfrwt>
<pdfrwt beam="2">  1       -1 0.30593910E-01 0.16060202E+03</pdfrwt>
<totfact> 0.19159559E+04</totfact>
</mgrwt>
</event>
<event>
 4    1  0.3281630E-004  0.2083459E+03  0.7818608E-02  0.1142883E+00
          1   -1    0    0  501    0  0.00000000000E+00  0.00000000000E+00  0.17314302993E+04  0.17314302993E+04  0.50400000000E-02 0.  1.
         -1   -1    0    0    0  501 -0.00000000000E+00 -0.00000000000E+00 -0.62676514529E+01  0.62676534793E+01  0.50400000000E-02 0. -1.
    5000001    1    1    2    0    0 -0.67566977551E+02 -0.15943780444E+02  0.94743397182E+03  0.95308951917E+03  0.77000000000E+02 0.  0.
   -5000001    1    1    2    0    0  0.67566977551E+02  0.15943780444E+02  0.77772867606E+03  0.78460843365E+03  0.77000000000E+02 0.  0.
<mgrwt>
<rscale>  0 0.20834590E+03</rscale>
<asrwt>0</asrwt>
<pdfrwt beam="1">  1        1 0.24734721E+00 0.20834590E+03</pdfrwt>
<pdfrwt beam="2">  1       -1 0.89537884E-03 0.20834590E+03</pdfrwt>
<totfact> 0.13277769E+04</totfact>
</mgrwt>
</event>
<event>
 4    1  0.3281630E-004  0.3068410E+03  0.7818608E-02  0.1081870E+00
          1   -1    0    0  501    0  0.00000000000E+00  0.00000000000E+00  0.18427268374E+04  0.18427268374E+04  0.50400000000E-02 0.  1.
         -1   -1    0    0    0  501 -0.00000000000E+00 -0.00000000000E+00 -0.12773376297E+02  0.12773377291E+02  0.50400000000E-02 0. -1.
    5000001    1    1    2    0    0  0.10550601632E+03  0.78991550758E+02  0.82175322908E+03  0.83581011843E+03  0.77000000000E+02 0.  0.
   -5000001    1    1    2    0    0 -0.10550601632E+03 -0.78991550758E+02  0.10082002320E+04  0.10196900963E+04  0.77000000000E+02 0.  0.
<mgrwt>
<rscale>  0 0.30684096E+03</rscale>
<asrwt>0</asrwt>
<pdfrwt beam="1">  1        1 0.26324693E+00 0.30684096E+03</pdfrwt>
<pdfrwt beam="2">  1       -1 0.18247664E-02 0.30684096E+03</pdfrwt>
<totfact> 0.40802074E+03</totfact>
</mgrwt>
</event>
<event>
 4    1  0.3281630E-004  0.2363557E+03  0.7818608E-02  0.1122245E+00
         -1   -1    0    0    0  501 -0.00000000000E+00  0.00000000000E+00  0.14023227150E+02  0.14023228056E+02  0.50400000000E-02 0. -1.
          1   -1    0    0  501    0  0.00000000000E+00 -0.00000000000E+00 -0.99591965313E+03  0.99591965314E+03  0.50400000000E-02 0.  1.
    5000001    1    1    2    0    0 -0.34166464849E+02 -0.68523327343E+02 -0.69019064986E+03  0.69868084764E+03  0.77000000000E+02 0.  0.
   -5000001    1    1    2    0    0  0.34166464849E+02  0.68523327343E+02 -0.29170577612E+03  0.31126203356E+03  0.77000000000E+02 0.  0.
<mgrwt>
<rscale>  0 0.23635573E+03</rscale>
<asrwt>0</asrwt>
<pdfrwt beam="1">  1        1 0.14227419E+00 0.23635573E+03</pdfrwt>
<pdfrwt beam="2">  1       -1 0.20033189E-02 0.23635573E+03</pdfrwt>
<totfact> 0.12382575E+04</totfact>
</mgrwt>
</event>
<event>
 4    1  0.3281630E-004  0.2241539E+03  0.7818608E-02  0.1130823E+00
          1   -1    0    0  501    0  0.00000000000E+00  0.00000000000E+00  0.15280956798E+04  0.15280956798E+04  0.50400000000E-02 0.  1.
         -1   -1    0    0    0  501 -0.00000000000E+00 -0.00000000000E+00 -0.82201945608E+01  0.82201961059E+01  0.50400000000E-02 0. -1.
    5000001    1    1    2    0    0 -0.76018582748E+02 -0.16643365695E+02  0.59538576194E+03  0.60536685743E+03  0.77000000000E+02 0.  0.
   -5000001    1    1    2    0    0  0.76018582748E+02  0.16643365695E+02  0.92448972326E+03  0.93094901846E+03  0.77000000000E+02 0.  0.
<mgrwt>
<rscale>  0 0.22415392E+03</rscale>
<asrwt>0</asrwt>
<pdfrwt beam="1">  1        1 0.21829934E+00 0.22415392E+03</pdfrwt>
<pdfrwt beam="2">  1       -1 0.11743138E-02 0.22415392E+03</pdfrwt>
<totfact> 0.11992434E+04</totfact>
</mgrwt>
</event>
<event>
 4    1  0.3281630E-004  0.5594668E+03  0.7818608E-02  0.9993262E-01
          1   -1    0    0  501    0  0.00000000000E+00  0.00000000000E+00  0.14312783458E+03  0.14312783466E+03  0.50400000000E-02 0.  1.
         -1   -1    0    0    0  501 -0.00000000000E+00 -0.00000000000E+00 -0.54671952261E+03  0.54671952263E+03  0.50400000000E-02 0. -1.
    5000001    1    1    2    0    0 -0.20998430359E+03 -0.22456886318E+02  0.35127353048E+01  0.22480893845E+03  0.77000000000E+02 0.  0.
   -5000001    1    1    2    0    0  0.20998430359E+03  0.22456886318E+02 -0.40710442334E+03  0.46503841884E+03  0.77000000000E+02 0.  0.
<mgrwt>
<rscale>  0 0.55946682E+03</rscale>
<asrwt>0</asrwt>
<pdfrwt beam="1">  1        1 0.20446834E-01 0.55946682E+03</pdfrwt>
<pdfrwt beam="2">  1       -1 0.78102788E-01 0.55946682E+03</pdfrwt>
<totfact> 0.42361611E+02</totfact>
</mgrwt>
</event>
<event>
 4    1  0.3281630E-004  0.2054529E+03  0.7818608E-02  0.1145218E+00
         -1   -1    0    0    0  501 -0.00000000000E+00  0.00000000000E+00  0.82200533793E+02  0.82200533947E+02  0.50400000000E-02 0. -1.
          1   -1    0    0  501    0  0.00000000000E+00 -0.00000000000E+00 -0.12837781092E+03  0.12837781102E+03  0.50400000000E-02 0.  1.
    5000001    1    1    2    0    0 -0.51201726096E+02 -0.44540628845E+02 -0.18711234237E+02  0.10432926080E+03  0.77000000000E+02 0.  0.
   -5000001    1    1    2    0    0  0.51201726096E+02  0.44540628845E+02 -0.27466042889E+02  0.10624908416E+03  0.77000000000E+02 0.  0.
<mgrwt>
<rscale>  0 0.20545291E+03</rscale>
<asrwt>0</asrwt>
<pdfrwt beam="1">  1        1 0.18339687E-01 0.20545291E+03</pdfrwt>
<pdfrwt beam="2">  1       -1 0.11742933E-01 0.20545291E+03</pdfrwt>
<totfact> 0.13113690E+04</totfact>
</mgrwt>
</event>
<event>
 4    1  0.3281630E-004  0.2646354E+03  0.7818608E-02  0.1104390E+00
          1   -1    0    0  501    0  0.00000000000E+00  0.00000000000E+00  0.14665252197E+04  0.14665252197E+04  0.50400000000E-02 0. -1.
         -1   -1    0    0    0  501 -0.00000000000E+00 -0.00000000000E+00 -0.11938409195E+02  0.11938410259E+02  0.50400000000E-02 0.  1.
    5000001    1    1    2    0    0  0.90653052535E+02  0.31347932772E+02  0.45483708598E+03  0.47117559742E+03  0.77000000000E+02 0.  0.
   -5000001    1    1    2    0    0 -0.90653052535E+02 -0.31347932772E+02  0.99974972452E+03  0.10072880325E+04  0.77000000000E+02 0.  0.
<mgrwt>
<rscale>  0 0.26463544E+03</rscale>
<asrwt>0</asrwt>
<pdfrwt beam="1">  1        1 0.20950390E+00 0.26463544E+03</pdfrwt>
<pdfrwt beam="2">  1       -1 0.17054847E-02 0.26463544E+03</pdfrwt>
<totfact> 0.76613625E+03</totfact>
</mgrwt>
</event>
<event>
 4    1  0.3281630E-004  0.3019769E+03  0.7818608E-02  0.1084257E+00
         -1   -1    0    0    0  501 -0.00000000000E+00  0.00000000000E+00  0.21775687823E+02  0.21775688406E+02  0.50400000000E-02 0. -1.
          1   -1    0    0  501    0  0.00000000000E+00 -0.00000000000E+00 -0.10469249297E+04  0.10469249297E+04  0.50400000000E-02 0.  1.
    5000001    1    1    2    0    0 -0.93870353137E+02 -0.84520064939E+02 -0.61952234038E+03  0.63693972619E+03  0.77000000000E+02 0.  0.
   -5000001    1    1    2    0    0  0.93870353137E+02  0.84520064939E+02 -0.40562690148E+03  0.43176089190E+03  0.77000000000E+02 0.  0.
<mgrwt>
<rscale>  0 0.30197689E+03</rscale>
<asrwt>0</asrwt>
<pdfrwt beam="1">  1        1 0.14956067E+00 0.30197689E+03</pdfrwt>
<pdfrwt beam="2">  1       -1 0.31108133E-02 0.30197689E+03</pdfrwt>
<totfact> 0.60129169E+03</totfact>
</mgrwt>
</event>
<event>
 4    1  0.3281630E-004  0.2084639E+03  0.7818608E-02  0.1142788E+00
         -1   -1    0    0    0  501 -0.00000000000E+00  0.00000000000E+00  0.97878368494E+02  0.97878368623E+02  0.50400000000E-02 0. -1.
          1   -1    0    0  501    0  0.00000000000E+00 -0.00000000000E+00 -0.11099801373E+03  0.11099801384E+03  0.50400000000E-02 0.  1.
    5000001    1    1    2    0    0  0.88213149393E+01  0.67273929702E+02 -0.24808689009E+02  0.10558441298E+03  0.77000000000E+02 0.  0.
   -5000001    1    1    2    0    0 -0.88213149393E+01 -0.67273929702E+02  0.11689043775E+02  0.10329196948E+03  0.77000000000E+02 0.  0.
<mgrwt>
<rscale>  0 0.20846395E+03</rscale>
<asrwt>0</asrwt>
<pdfrwt beam="1">  1        1 0.15856859E-01 0.20846395E+03</pdfrwt>
<pdfrwt beam="2">  1       -1 0.13982624E-01 0.20846395E+03</pdfrwt>
<totfact> 0.12066262E+04</totfact>
</mgrwt>
</event>
<event>
 4    1  0.3281630E-004  0.1863526E+03  0.7818608E-02  0.1161793E+00
          1   -1    0    0  501    0  0.00000000000E+00  0.00000000000E+00  0.49490242129E+03  0.49490242131E+03  0.50400000000E-02 0.  1.
         -1   -1    0    0    0  501 -0.00000000000E+00 -0.00000000000E+00 -0.17542494124E+02  0.17542494848E+02  0.50400000000E-02 0. -1.
    5000001    1    1    2    0    0  0.41409604577E+02 -0.11942842234E+02  0.32096655027E+03  0.33287522170E+03  0.77000000000E+02 0.  0.
   -5000001    1    1    2    0    0 -0.41409604577E+02  0.11942842234E+02  0.15639337690E+03  0.17956969446E+03  0.77000000000E+02 0.  0.
<mgrwt>
<rscale>  0 0.18635260E+03</rscale>
<asrwt>0</asrwt>
<pdfrwt beam="1">  1        1 0.70700356E-01 0.18635260E+03</pdfrwt>
<pdfrwt beam="2">  1       -1 0.25060703E-02 0.18635260E+03</pdfrwt>
<totfact> 0.23970492E+04</totfact>
</mgrwt>
</event>
<event>
 4    1  0.3281630E-004  0.5235465E+03  0.7818608E-02  0.1007809E+00
         -1   -1    0    0    0  501 -0.00000000000E+00  0.00000000000E+00  0.73301853718E+02  0.73301853891E+02  0.50400000000E-02 0. -1.
          1   -1    0    0  501    0  0.00000000000E+00 -0.00000000000E+00 -0.93483630670E+03  0.93483630671E+03  0.50400000000E-02 0.  1.
    5000001    1    1    2    0    0  0.24957179406E+03 -0.62752086835E+01 -0.39908106653E+03  0.47699072978E+03  0.77000000000E+02 0.  0.
   -5000001    1    1    2    0    0 -0.24957179406E+03  0.62752086835E+01 -0.46245338644E+03  0.53114743082E+03  0.77000000000E+02 0.  0.
<mgrwt>
<rscale>  0 0.52354650E+03</rscale>
<asrwt>0</asrwt>
<pdfrwt beam="1">  1        1 0.13354804E+00 0.52354650E+03</pdfrwt>
<pdfrwt beam="2">  1       -1 0.10471694E-01 0.52354650E+03</pdfrwt>
<totfact> 0.11451045E+03</totfact>
</mgrwt>
</event>
<event>
 4    1  0.3281630E-004  0.1855151E+03  0.7818608E-02  0.1162570E+00
          1   -1    0    0  501    0  0.00000000000E+00  0.00000000000E+00  0.12984454538E+04  0.12984454538E+04  0.50400000000E-02 0. -1.
         -1   -1    0    0    0  501 -0.00000000000E+00 -0.00000000000E+00 -0.66263535099E+01  0.66263554266E+01  0.50400000000E-02 0.  1.
    5000001    1    1    2    0    0  0.25402403870E+02  0.44803264121E+02  0.61265524888E+03  0.61961929325E+03  0.77000000000E+02 0.  0.
   -5000001    1    1    2    0    0 -0.25402403870E+02 -0.44803264121E+02  0.67916385144E+03  0.68545251601E+03  0.77000000000E+02 0.  0.
<mgrwt>
<rscale>  0 0.18551507E+03</rscale>
<asrwt>0</asrwt>
<pdfrwt beam="1">  1        1 0.18549241E+00 0.18551507E+03</pdfrwt>
<pdfrwt beam="2">  1       -1 0.94662104E-03 0.18551507E+03</pdfrwt>
<totfact> 0.22585968E+04</totfact>
</mgrwt>
</event>
<event>
 4    1  0.3281630E-004  0.2308857E+03  0.7818608E-02  0.1126018E+00
         -1   -1    0    0    0  501 -0.00000000000E+00  0.00000000000E+00  0.75115863159E+03  0.75115863161E+03  0.50400000000E-02 0. -1.
          1   -1    0    0  501    0  0.00000000000E+00 -0.00000000000E+00 -0.17741991536E+02  0.17741992251E+02  0.50400000000E-02 0.  1.
    5000001    1    1    2    0    0  0.64987660753E+02  0.50174068985E+02  0.45208271343E+03  0.46588476368E+03  0.77000000000E+02 0.  0.
   -5000001    1    1    2    0    0 -0.64987660753E+02 -0.50174068985E+02  0.28133392663E+03  0.30301586018E+03  0.77000000000E+02 0.  0.
<mgrwt>
<rscale>  0 0.23088569E+03</rscale>
<asrwt>0</asrwt>
<pdfrwt beam="1">  1        1 0.25345711E-02 0.23088569E+03</pdfrwt>
<pdfrwt beam="2">  1       -1 0.10730834E+00 0.23088569E+03</pdfrwt>
<totfact> 0.36792595E+03</totfact>
</mgrwt>
</event>
<event>
 4    1  0.3281630E-004  0.2563211E+03  0.7818608E-02  0.1109374E+00
         -1   -1    0    0    0  501 -0.00000000000E+00  0.00000000000E+00  0.36866249477E+03  0.36866249480E+03  0.50400000000E-02 0. -1.
          1   -1    0    0  501    0  0.00000000000E+00 -0.00000000000E+00 -0.44553291998E+02  0.44553292283E+02  0.50400000000E-02 0.  1.
    5000001    1    1    2    0    0  0.30966783831E+02  0.75501513710E+02  0.62199126784E+02  0.12828543037E+03  0.77000000000E+02 0.  0.
   -5000001    1    1    2    0    0 -0.30966783831E+02 -0.75501513710E+02  0.26191007599E+03  0.28493035671E+03  0.77000000000E+02 0.  0.
<mgrwt>
<rscale>  0 0.25632111E+03</rscale>
<asrwt>0</asrwt>
<pdfrwt beam="1">  1        1 0.63647563E-02 0.25632111E+03</pdfrwt>
<pdfrwt beam="2">  1       -1 0.52666068E-01 0.25632111E+03</pdfrwt>
<totfact> 0.44051425E+03</totfact>
</mgrwt>
</event>
<event>
 4    1  0.3281630E-004  0.2240387E+03  0.7818608E-02  0.1130907E+00
          1   -1    0    0  501    0  0.00000000000E+00  0.00000000000E+00  0.95211975800E+02  0.95211975933E+02  0.50400000000E-02 0. -1.
         -1   -1    0    0    0  501 -0.00000000000E+00 -0.00000000000E+00 -0.13179365877E+03  0.13179365887E+03  0.50400000000E-02 0.  1.
    5000001    1    1    2    0    0  0.78282285601E+02  0.13591068231E+02 -0.55181605452E+00  0.11064419495E+03  0.77000000000E+02 0.  0.
   -5000001    1    1    2    0    0 -0.78282285601E+02 -0.13591068231E+02 -0.36029866917E+02  0.11636143985E+03  0.77000000000E+02 0.  0.
<mgrwt>
<rscale>  0 0.22403870E+03</rscale>
<asrwt>0</asrwt>
<pdfrwt beam="1">  1        1 0.13601711E-01 0.22403870E+03</pdfrwt>
<pdfrwt beam="2">  1       -1 0.18827665E-01 0.22403870E+03</pdfrwt>
<totfact> 0.92296266E+03</totfact>
</mgrwt>
</event>
<event>
 4    1  0.3281630E-004  0.2355414E+03  0.7818608E-02  0.1122799E+00
         -1   -1    0    0    0  501 -0.00000000000E+00  0.00000000000E+00  0.57316958844E+03  0.57316958846E+03  0.50400000000E-02 0.  1.
          1   -1    0    0  501    0  0.00000000000E+00 -0.00000000000E+00 -0.24198667819E+02  0.24198668343E+02  0.50400000000E-02 0. -1.
    5000001    1    1    2    0    0  0.59102428875E+02 -0.32112837240E+00  0.10534614797E+03  0.14324807543E+03  0.77000000000E+02 0.  0.
   -5000001    1    1    2    0    0 -0.59102428875E+02  0.32112837240E+00  0.44362477265E+03  0.45412018138E+03  0.77000000000E+02 0.  0.
<mgrwt>
<rscale>  0 0.23554142E+03</rscale>
<asrwt>0</asrwt>
<pdfrwt beam="1">  1        1 0.34569527E-02 0.23554142E+03</pdfrwt>
<pdfrwt beam="2">  1       -1 0.81881366E-01 0.23554142E+03</pdfrwt>
<totfact> 0.42936044E+03</totfact>
</mgrwt>
</event>
<event>
 4    1  0.3281630E-004  0.1879929E+03  0.7818608E-02  0.1160284E+00
         -1   -1    0    0    0  501 -0.00000000000E+00  0.00000000000E+00  0.47628903712E+02  0.47628903979E+02  0.50400000000E-02 0. -1.
          1   -1    0    0  501    0  0.00000000000E+00 -0.00000000000E+00 -0.18550352935E+03  0.18550352942E+03  0.50400000000E-02 0.  1.
    5000001    1    1    2    0    0 -0.96787837656E+01  0.52657161581E+02 -0.76768139550E+02  0.12119737114E+03  0.77000000000E+02 0.  0.
   -5000001    1    1    2    0    0  0.96787837656E+01 -0.52657161581E+02 -0.61106486087E+02  0.11193506226E+03  0.77000000000E+02 0.  0.
<mgrwt>
<rscale>  0 0.18799287E+03</rscale>
<asrwt>0</asrwt>
<pdfrwt beam="1">  1        1 0.26500504E-01 0.18799287E+03</pdfrwt>
<pdfrwt beam="2">  1       -1 0.68041292E-02 0.18799287E+03</pdfrwt>
<totfact> 0.18767734E+04</totfact>
</mgrwt>
</event>
<event>
 4    1  0.3281630E-004  0.1855072E+03  0.7818608E-02  0.1162577E+00
          1   -1    0    0  501    0  0.00000000000E+00  0.00000000000E+00  0.24354671925E+02  0.24354672447E+02  0.50400000000E-02 0. -1.
         -1   -1    0    0    0  501 -0.00000000000E+00 -0.00000000000E+00 -0.35324756024E+03  0.35324756028E+03  0.50400000000E-02 0.  1.
    5000001    1    1    2    0    0 -0.42637192033E+02  0.24160919149E+02 -0.19805080459E+03  0.21807063387E+03  0.77000000000E+02 0.  0.
   -5000001    1    1    2    0    0  0.42637192033E+02 -0.24160919149E+02 -0.13084208373E+03  0.15953159885E+03  0.77000000000E+02 0.  0.
<mgrwt>
<rscale>  0 0.18550718E+03</rscale>
<asrwt>0</asrwt>
<pdfrwt beam="1">  1        1 0.34792391E-02 0.18550718E+03</pdfrwt>
<pdfrwt beam="2">  1       -1 0.50463934E-01 0.18550718E+03</pdfrwt>
<totfact> 0.10788477E+04</totfact>
</mgrwt>
</event>
<event>
 4    1  0.3281630E-004  0.2449692E+03  0.7818608E-02  0.1116526E+00
          1   -1    0    0  501    0  0.00000000000E+00  0.00000000000E+00  0.25027861293E+03  0.25027861298E+03  0.50400000000E-02 0.  1.
         -1   -1    0    0    0  501 -0.00000000000E+00 -0.00000000000E+00 -0.59943101438E+02  0.59943101650E+02  0.50400000000E-02 0. -1.
    5000001    1    1    2    0    0 -0.92499393500E+01  0.72691836730E+02  0.17223772394E+03  0.20239688252E+03  0.77000000000E+02 0.  0.
   -5000001    1    1    2    0    0  0.92499393500E+01 -0.72691836730E+02  0.18097787551E+02  0.10782483211E+03  0.77000000000E+02 0.  0.
<mgrwt>
<rscale>  0 0.24496919E+03</rscale>
<asrwt>0</asrwt>
<pdfrwt beam="1">  1        1 0.35754088E-01 0.24496919E+03</pdfrwt>
<pdfrwt beam="2">  1       -1 0.85633001E-02 0.24496919E+03</pdfrwt>
<totfact> 0.92447539E+03</totfact>
</mgrwt>
</event>
<event>
 4    1  0.3281630E-004  0.4331470E+03  0.7818608E-02  0.1032870E+00
          1   -1    0    0  501    0  0.00000000000E+00  0.00000000000E+00  0.14024216018E+03  0.14024216027E+03  0.50400000000E-02 0.  1.
         -1   -1    0    0    0  501 -0.00000000000E+00 -0.00000000000E+00 -0.33445059573E+03  0.33445059577E+03  0.50400000000E-02 0. -1.
    5000001    1    1    2    0    0  0.14987812282E+03 -0.75925559595E+02 -0.22083568288E+03  0.28796795157E+03  0.77000000000E+02 0.  0.
   -5000001    1    1    2    0    0 -0.14987812282E+03  0.75925559595E+02  0.26627247331E+02  0.18672480446E+03  0.77000000000E+02 0.  0.
<mgrwt>
<rscale>  0 0.43314697E+03</rscale>
<asrwt>0</asrwt>
<pdfrwt beam="1">  1        1 0.20034594E-01 0.43314697E+03</pdfrwt>
<pdfrwt beam="2">  1       -1 0.47778656E-01 0.43314697E+03</pdfrwt>
<totfact> 0.11447335E+03</totfact>
</mgrwt>
</event>
<event>
 4    1  0.3281630E-004  0.2151377E+03  0.7818608E-02  0.1137561E+00
         -1   -1    0    0    0  501 -0.00000000000E+00  0.00000000000E+00  0.40655079644E+02  0.40655079956E+02  0.50400000000E-02 0.  1.
          1   -1    0    0  501    0  0.00000000000E+00 -0.00000000000E+00 -0.28461537509E+03  0.28461537513E+03  0.50400000000E-02 0. -1.
    5000001    1    1    2    0    0 -0.65027121754E+02  0.21755682442E+02 -0.75620105819E+02  0.12786413370E+03  0.77000000000E+02 0.  0.
   -5000001    1    1    2    0    0  0.65027121754E+02 -0.21755682442E+02 -0.16834018963E+03  0.19740632139E+03  0.77000000000E+02 0.  0.
<mgrwt>
<rscale>  0 0.21513773E+03</rscale>
<asrwt>0</asrwt>
<pdfrwt beam="1">  1        1 0.40659338E-01 0.21513773E+03</pdfrwt>
<pdfrwt beam="2">  1       -1 0.58078687E-02 0.21513773E+03</pdfrwt>
<totfact> 0.14067216E+04</totfact>
</mgrwt>
</event>
<event>
 4    1  0.3281630E-004  0.3123935E+03  0.7818608E-02  0.1079204E+00
         -1   -1    0    0    0  501 -0.00000000000E+00  0.00000000000E+00  0.55834611611E+03  0.55834611614E+03  0.50400000000E-02 0. -1.
          1   -1    0    0  501    0  0.00000000000E+00 -0.00000000000E+00 -0.43695866263E+02  0.43695866554E+02  0.50400000000E-02 0.  1.
    5000001    1    1    2    0    0 -0.38164003599E+02 -0.12777205896E+03  0.20684054074E+03  0.25786469227E+03  0.77000000000E+02 0.  0.
   -5000001    1    1    2    0    0  0.38164003599E+02  0.12777205896E+03  0.30780970911E+03  0.34417729042E+03  0.77000000000E+02 0.  0.
<mgrwt>
<rscale>  0 0.31239345E+03</rscale>
<asrwt>0</asrwt>
<pdfrwt beam="1">  1        1 0.62422667E-02 0.31239345E+03</pdfrwt>
<pdfrwt beam="2">  1       -1 0.79763730E-01 0.31239345E+03</pdfrwt>
<totfact> 0.20120758E+03</totfact>
</mgrwt>
</event>
<event>
 4    1  0.3281630E-004  0.4853848E+03  0.7818608E-02  0.1017666E+00
         -1   -1    0    0    0  501 -0.00000000000E+00  0.00000000000E+00  0.29354141241E+03  0.29354141245E+03  0.50400000000E-02 0. -1.
          1   -1    0    0  501    0  0.00000000000E+00 -0.00000000000E+00 -0.20065178102E+03  0.20065178109E+03  0.50400000000E-02 0.  1.
    5000001    1    1    2    0    0  0.88553779659E+01  0.22194820860E+03 -0.14908012273E+02  0.23556458530E+03  0.77000000000E+02 0.  0.
   -5000001    1    1    2    0    0 -0.88553779659E+01 -0.22194820860E+03  0.10779764366E+03  0.25862860824E+03  0.77000000000E+02 0.  0.
<mgrwt>
<rscale>  0 0.48538483E+03</rscale>
<asrwt>0</asrwt>
<pdfrwt beam="1">  1        1 0.28664540E-01 0.48538483E+03</pdfrwt>
<pdfrwt beam="2">  1       -1 0.41934487E-01 0.48538483E+03</pdfrwt>
<totfact> 0.91416579E+02</totfact>
</mgrwt>
</event>
<event>
 4    1  0.3281630E-004  0.2104741E+03  0.7818608E-02  0.1141191E+00
         -1   -1    0    0    0  501 -0.00000000000E+00  0.00000000000E+00  0.43436385767E+02  0.43436386059E+02  0.50400000000E-02 0. -1.
          1   -1    0    0  501    0  0.00000000000E+00 -0.00000000000E+00 -0.25496682513E+03  0.25496682518E+03  0.50400000000E-02 0.  1.
    5000001    1    1    2    0    0 -0.61700704151E+02  0.19034470524E+02 -0.15007013798E+03  0.18060823423E+03  0.77000000000E+02 0.  0.
   -5000001    1    1    2    0    0  0.61700704151E+02 -0.19034470524E+02 -0.61460301384E+02  0.11779497700E+03  0.77000000000E+02 0.  0.
<mgrwt>
<rscale>  0 0.21047411E+03</rscale>
<asrwt>0</asrwt>
<pdfrwt beam="1">  1        1 0.36423832E-01 0.21047411E+03</pdfrwt>
<pdfrwt beam="2">  1       -1 0.62051981E-02 0.21047411E+03</pdfrwt>
<totfact> 0.14591257E+04</totfact>
</mgrwt>
</event>
<event>
 4    1  0.3281630E-004  0.1901435E+03  0.7818608E-02  0.1158332E+00
         -1   -1    0    0    0  501 -0.00000000000E+00  0.00000000000E+00  0.56293947295E+02  0.56293947520E+02  0.50400000000E-02 0. -1.
          1   -1    0    0  501    0  0.00000000000E+00 -0.00000000000E+00 -0.16056144663E+03  0.16056144671E+03  0.50400000000E-02 0.  1.
    5000001    1    1    2    0    0 -0.49269659658E+02  0.17595493053E+02 -0.74146453931E+02  0.11901175307E+03  0.77000000000E+02 0.  0.
   -5000001    1    1    2    0    0  0.49269659658E+02 -0.17595493053E+02 -0.30121045403E+02  0.97843641156E+02  0.77000000000E+02 0.  0.
<mgrwt>
<rscale>  0 0.19014350E+03</rscale>
<asrwt>0</asrwt>
<pdfrwt beam="1">  1        1 0.22937349E-01 0.19014350E+03</pdfrwt>
<pdfrwt beam="2">  1       -1 0.80419926E-02 0.19014350E+03</pdfrwt>
<totfact> 0.17512579E+04</totfact>
</mgrwt>
</event>
<event>
 4    1  0.3281630E-004  0.7741231E+03  0.7818608E-02  0.9598247E-01
         -1   -1    0    0    0  501 -0.00000000000E+00  0.00000000000E+00  0.36602100204E+03  0.36602100207E+03  0.50400000000E-02 0. -1.
          1   -1    0    0  501    0  0.00000000000E+00 -0.00000000000E+00 -0.40931157788E+03  0.40931157791E+03  0.50400000000E-02 0.  1.
    5000001    1    1    2    0    0  0.37261291890E+03  0.70525682147E+02 -0.30224576620E+02  0.38814531326E+03  0.77000000000E+02 0.  0.
   -5000001    1    1    2    0    0 -0.37261291890E+03 -0.70525682147E+02 -0.13065999221E+02  0.38718726672E+03  0.77000000000E+02 0.  0.
<mgrwt>
<rscale>  0 0.77412308E+03</rscale>
<asrwt>0</asrwt>
<pdfrwt beam="1">  1        1 0.58473083E-01 0.77412308E+03</pdfrwt>
<pdfrwt beam="2">  1       -1 0.52288715E-01 0.77412308E+03</pdfrwt>
<totfact> 0.23925912E+02</totfact>
</mgrwt>
</event>
<event>
 4    1  0.3281630E-004  0.2082262E+03  0.7818608E-02  0.1142978E+00
          1   -1    0    0  501    0  0.00000000000E+00  0.00000000000E+00  0.45872417062E+03  0.45872417065E+03  0.50400000000E-02 0.  1.
         -1   -1    0    0    0  501 -0.00000000000E+00 -0.00000000000E+00 -0.23629742501E+02  0.23629743038E+02  0.50400000000E-02 0. -1.
    5000001    1    1    2    0    0  0.52938348850E+02  0.96698562685E+01  0.32152020230E+03  0.33496300599E+03  0.77000000000E+02 0.  0.
   -5000001    1    1    2    0    0 -0.52938348850E+02 -0.96698562685E+01  0.11357422582E+03  0.14739090769E+03  0.77000000000E+02 0.  0.
<mgrwt>
<rscale>  0 0.20822617E+03</rscale>
<asrwt>0</asrwt>
<pdfrwt beam="1">  1        1 0.65532019E-01 0.20822617E+03</pdfrwt>
<pdfrwt beam="2">  1       -1 0.33756778E-02 0.20822617E+03</pdfrwt>
<totfact> 0.17224181E+04</totfact>
</mgrwt>
</event>
<event>
 4    1  0.3281630E-004  0.2251494E+03  0.7818608E-02  0.1130101E+00
         -1   -1    0    0    0  501 -0.00000000000E+00  0.00000000000E+00  0.59634657000E+03  0.59634657002E+03  0.50400000000E-02 0. -1.
          1   -1    0    0  501    0  0.00000000000E+00 -0.00000000000E+00 -0.21251176509E+02  0.21251177107E+02  0.50400000000E-02 0.  1.
    5000001    1    1    2    0    0 -0.19465545211E+01 -0.74978740797E+02  0.19581034482E+03  0.22337477875E+03  0.77000000000E+02 0.  0.
   -5000001    1    1    2    0    0  0.19465545211E+01  0.74978740797E+02  0.37928504868E+03  0.39422296838E+03  0.77000000000E+02 0.  0.
<mgrwt>
<rscale>  0 0.22514943E+03</rscale>
<asrwt>0</asrwt>
<pdfrwt beam="1">  1        1 0.30358830E-02 0.22514943E+03</pdfrwt>
<pdfrwt beam="2">  1       -1 0.85192351E-01 0.22514943E+03</pdfrwt>
<totfact> 0.47284528E+03</totfact>
</mgrwt>
</event>
<event>
 4    1  0.3281630E-004  0.2210738E+03  0.7818608E-02  0.1133085E+00
         -1   -1    0    0    0  501 -0.00000000000E+00  0.00000000000E+00  0.37325359464E+03  0.37325359467E+03  0.50400000000E-02 0. -1.
          1   -1    0    0  501    0  0.00000000000E+00 -0.00000000000E+00 -0.32734857745E+02  0.32734858133E+02  0.50400000000E-02 0.  1.
    5000001    1    1    2    0    0  0.71911928441E+02  0.69642466980E+00  0.23165228739E+03  0.25448692051E+03  0.77000000000E+02 0.  0.
   -5000001    1    1    2    0    0 -0.71911928441E+02 -0.69642466980E+00  0.10886644950E+03  0.15150153229E+03  0.77000000000E+02 0.  0.
<mgrwt>
<rscale>  0 0.22107377E+03</rscale>
<asrwt>0</asrwt>
<pdfrwt beam="1">  1        1 0.46764084E-02 0.22107377E+03</pdfrwt>
<pdfrwt beam="2">  1       -1 0.53321941E-01 0.22107377E+03</pdfrwt>
<totfact> 0.65378445E+03</totfact>
</mgrwt>
</event>
<event>
 4    1  0.3281630E-004  0.1849664E+03  0.7818608E-02  0.1163081E+00
         -1   -1    0    0    0  501 -0.00000000000E+00  0.00000000000E+00  0.37359779911E+01  0.37359813907E+01  0.50400000000E-02 0. -1.
          1   -1    0    0  501    0  0.00000000000E+00 -0.00000000000E+00 -0.22893982966E+04  0.22893982966E+04  0.50400000000E-02 0.  1.
    5000001    1    1    2    0    0 -0.20435305132E+02  0.45466420250E+02 -0.99648285725E+03  0.10006956989E+04  0.77000000000E+02 0.  0.
   -5000001    1    1    2    0    0  0.20435305132E+02 -0.45466420250E+02 -0.12891794613E+04  0.12924385790E+04  0.77000000000E+02 0.  0.
<mgrwt>
<rscale>  0 0.18496644E+03</rscale>
<asrwt>0</asrwt>
<pdfrwt beam="1">  1        1 0.32705600E+00 0.18496644E+03</pdfrwt>
<pdfrwt beam="2">  1       -1 0.53371285E-03 0.18496644E+03</pdfrwt>
<totfact> 0.12842962E+04</totfact>
</mgrwt>
</event>
<event>
 4    1  0.3281630E-004  0.2494381E+03  0.7818608E-02  0.1113660E+00
          1   -1    0    0  501    0  0.00000000000E+00  0.00000000000E+00  0.23544299540E+02  0.23544300079E+02  0.50400000000E-02 0.  1.
         -1   -1    0    0    0  501 -0.00000000000E+00 -0.00000000000E+00 -0.66066274599E+03  0.66066274601E+03  0.50400000000E-02 0. -1.
    5000001    1    1    2    0    0  0.18553123511E+02 -0.30262441367E+02 -0.67671913266E+02  0.10848281705E+03  0.77000000000E+02 0.  0.
   -5000001    1    1    2    0    0 -0.18553123511E+02  0.30262441367E+02 -0.56944653319E+03  0.57572422905E+03  0.77000000000E+02 0.  0.
<mgrwt>
<rscale>  0 0.24943810E+03</rscale>
<asrwt>0</asrwt>
<pdfrwt beam="1">  1        1 0.33634718E-02 0.24943810E+03</pdfrwt>
<pdfrwt beam="2">  1       -1 0.94380381E-01 0.24943810E+03</pdfrwt>
<totfact> 0.33040612E+03</totfact>
</mgrwt>
</event>
<event>
 4    1  0.3281630E-004  0.2625345E+03  0.7818608E-02  0.1105630E+00
         -1   -1    0    0    0  501 -0.00000000000E+00  0.00000000000E+00  0.91208263845E+01  0.91208277770E+01  0.50400000000E-02 0. -1.
          1   -1    0    0  501    0  0.00000000000E+00 -0.00000000000E+00 -0.18892029798E+04  0.18892029798E+04  0.50400000000E-02 0.  1.
    5000001    1    1    2    0    0  0.47443356105E+02 -0.91846641919E+02 -0.11194187072E+04  0.11268158322E+04  0.77000000000E+02 0.  0.
   -5000001    1    1    2    0    0 -0.47443356105E+02  0.91846641919E+02 -0.76066344623E+03  0.77150797540E+03  0.77000000000E+02 0.  0.
<mgrwt>
<rscale>  0 0.26253452E+03</rscale>
<asrwt>0</asrwt>
<pdfrwt beam="1">  1        1 0.26988589E+00 0.26253452E+03</pdfrwt>
<pdfrwt beam="2">  1       -1 0.13029765E-02 0.26253452E+03</pdfrwt>
<totfact> 0.62410046E+03</totfact>
</mgrwt>
</event>
<event>
 4    1  0.3281630E-004  0.1922544E+03  0.7818608E-02  0.1156444E+00
          1   -1    0    0  501    0  0.00000000000E+00  0.00000000000E+00  0.33079212780E+03  0.33079212784E+03  0.50400000000E-02 0.  1.
         -1   -1    0    0    0  501 -0.00000000000E+00 -0.00000000000E+00 -0.27934285719E+02  0.27934286174E+02  0.50400000000E-02 0. -1.
    5000001    1    1    2    0    0 -0.55930878909E+02  0.10870861584E+02  0.13638524864E+03  0.16666245796E+03  0.77000000000E+02 0.  0.
   -5000001    1    1    2    0    0  0.55930878909E+02 -0.10870861584E+02  0.16647259344E+03  0.19206395605E+03  0.77000000000E+02 0.  0.
<mgrwt>
<rscale>  0 0.19225443E+03</rscale>
<asrwt>0</asrwt>
<pdfrwt beam="1">  1        1 0.47256020E-01 0.19225443E+03</pdfrwt>
<pdfrwt beam="2">  1       -1 0.39906121E-02 0.19225443E+03</pdfrwt>
<totfact> 0.20225947E+04</totfact>
</mgrwt>
</event>
<event>
 4    1  0.3281630E-004  0.3005298E+03  0.7818608E-02  0.1084976E+00
          1   -1    0    0  501    0  0.00000000000E+00  0.00000000000E+00  0.66716486173E+03  0.66716486175E+03  0.50400000000E-02 0.  1.
         -1   -1    0    0    0  501 -0.00000000000E+00 -0.00000000000E+00 -0.33844026612E+02  0.33844026987E+02  0.50400000000E-02 0. -1.
    5000001    1    1    2    0    0  0.81227113043E+02  0.72673289542E+02  0.15553871355E+03  0.20494033844E+03  0.77000000000E+02 0.  0.
   -5000001    1    1    2    0    0 -0.81227113043E+02 -0.72673289542E+02  0.47778212157E+03  0.49606855030E+03  0.77000000000E+02 0.  0.
<mgrwt>
<rscale>  0 0.30052984E+03</rscale>
<asrwt>0</asrwt>
<pdfrwt beam="1">  1        1 0.95309260E-01 0.30052984E+03</pdfrwt>
<pdfrwt beam="2">  1       -1 0.48348613E-02 0.30052984E+03</pdfrwt>
<totfact> 0.62238186E+03</totfact>
</mgrwt>
</event>
<event>
 4    1  0.3281630E-004  0.1841167E+03  0.7818608E-02  0.1163877E+00
         -1   -1    0    0    0  501 -0.00000000000E+00  0.00000000000E+00  0.15867078814E+02  0.15867079614E+02  0.50400000000E-02 0. -1.
          1   -1    0    0  501    0  0.00000000000E+00 -0.00000000000E+00 -0.53410819442E+03  0.53410819444E+03  0.50400000000E-02 0.  1.
    5000001    1    1    2    0    0 -0.25873256249E+02 -0.39291657996E+02 -0.31358725367E+03  0.32631154660E+03  0.77000000000E+02 0.  0.
   -5000001    1    1    2    0    0  0.25873256249E+02  0.39291657996E+02 -0.20465386193E+03  0.22366372746E+03  0.77000000000E+02 0.  0.
<mgrwt>
<rscale>  0 0.18411667E+03</rscale>
<asrwt>0</asrwt>
<pdfrwt beam="1">  1        1 0.76301159E-01 0.18411667E+03</pdfrwt>
<pdfrwt beam="2">  1       -1 0.22667259E-02 0.18411667E+03</pdfrwt>
<totfact> 0.25094212E+04</totfact>
</mgrwt>
</event>
<event>
 4    1  0.3281630E-004  0.2192579E+03  0.7818608E-02  0.1134438E+00
          1   -1    0    0  501    0  0.00000000000E+00  0.00000000000E+00  0.18694289067E+02  0.18694289746E+02  0.50400000000E-02 0.  1.
         -1   -1    0    0    0  501 -0.00000000000E+00 -0.00000000000E+00 -0.64289723625E+03  0.64289723627E+03  0.50400000000E-02 0. -1.
    5000001    1    1    2    0    0  0.55355252942E+02 -0.11144088181E+02 -0.14957768179E+03  0.17745669224E+03  0.77000000000E+02 0.  0.
   -5000001    1    1    2    0    0 -0.55355252942E+02  0.11144088181E+02 -0.47462526539E+03  0.48413483378E+03  0.77000000000E+02 0.  0.
<mgrwt>
<rscale>  0 0.21925790E+03</rscale>
<asrwt>0</asrwt>
<pdfrwt beam="1">  1        1 0.26706132E-02 0.21925790E+03</pdfrwt>
<pdfrwt beam="2">  1       -1 0.91842448E-01 0.21925790E+03</pdfrwt>
<totfact> 0.48149117E+03</totfact>
</mgrwt>
</event>
<event>
 4    1  0.3281630E-004  0.2539297E+03  0.7818608E-02  0.1110846E+00
          1   -1    0    0  501    0  0.00000000000E+00  0.00000000000E+00  0.35272252411E+03  0.35272252414E+03  0.50400000000E-02 0. -1.
         -1   -1    0    0    0  501 -0.00000000000E+00 -0.00000000000E+00 -0.45701849201E+02  0.45701849479E+02  0.50400000000E-02 0.  1.
    5000001    1    1    2    0    0  0.89882784775E+02 -0.90544831107E+01  0.22420700506E+03  0.25369012551E+03  0.77000000000E+02 0.  0.
   -5000001    1    1    2    0    0 -0.89882784775E+02  0.90544831107E+01  0.82813669844E+02  0.14473424811E+03  0.77000000000E+02 0.  0.
<mgrwt>
<rscale>  0 0.25392969E+03</rscale>
<asrwt>0</asrwt>
<pdfrwt beam="1">  1        1 0.50388932E-01 0.25392969E+03</pdfrwt>
<pdfrwt beam="2">  1       -1 0.65288357E-02 0.25392969E+03</pdfrwt>
<totfact> 0.90958508E+03</totfact>
</mgrwt>
</event>
<event>
 4    1  0.3281630E-004  0.1722582E+03  0.7818608E-02  0.1175513E+00
          1   -1    0    0  501    0  0.00000000000E+00  0.00000000000E+00  0.44505171079E+02  0.44505171364E+02  0.50400000000E-02 0.  1.
         -1   -1    0    0    0  501 -0.00000000000E+00 -0.00000000000E+00 -0.16668225719E+03  0.16668225727E+03  0.50400000000E-02 0. -1.
    5000001    1    1    2    0    0  0.37157504363E+02 -0.10160402679E+02 -0.63913253534E+02  0.10722787833E+03  0.77000000000E+02 0.  0.
   -5000001    1    1    2    0    0 -0.37157504363E+02  0.10160402679E+02 -0.58263832580E+02  0.10395955031E+03  0.77000000000E+02 0.  0.
<mgrwt>
<rscale>  0 0.17225821E+03</rscale>
<asrwt>0</asrwt>
<pdfrwt beam="1">  1        1 0.63578817E-02 0.17225821E+03</pdfrwt>
<pdfrwt beam="2">  1       -1 0.23811751E-01 0.17225821E+03</pdfrwt>
<totfact> 0.17129805E+04</totfact>
</mgrwt>
</event>
<event>
 4    1  0.3281630E-004  0.1600393E+03  0.7818608E-02  0.1188652E+00
         -1   -1    0    0    0  501 -0.00000000000E+00  0.00000000000E+00  0.97298057032E+01  0.97298070086E+01  0.50400000000E-02 0. -1.
          1   -1    0    0  501    0  0.00000000000E+00 -0.00000000000E+00 -0.65809561318E+03  0.65809561320E+03  0.50400000000E-02 0.  1.
    5000001    1    1    2    0    0 -0.91975985488E+01  0.19449132373E+02 -0.33819679132E+03  0.34751825020E+03  0.77000000000E+02 0.  0.
   -5000001    1    1    2    0    0  0.91975985488E+01 -0.19449132373E+02 -0.31016901616E+03  0.32030717001E+03  0.77000000000E+02 0.  0.
<mgrwt>
<rscale>  0 0.16003928E+03</rscale>
<asrwt>0</asrwt>
<pdfrwt beam="1">  1        1 0.94013631E-01 0.16003928E+03</pdfrwt>
<pdfrwt beam="2">  1       -1 0.13899728E-02 0.16003928E+03</pdfrwt>
<totfact> 0.37995448E+04</totfact>
</mgrwt>
</event>
<event>
 4    1  0.3281630E-004  0.1983265E+03  0.7818608E-02  0.1151159E+00
         -1   -1    0    0    0  501 -0.00000000000E+00  0.00000000000E+00  0.66175810758E+02  0.66175810950E+02  0.50400000000E-02 0.  1.
          1   -1    0    0  501    0  0.00000000000E+00 -0.00000000000E+00 -0.14859425483E+03  0.14859425491E+03  0.50400000000E-02 0. -1.
    5000001    1    1    2    0    0 -0.17745029229E+02 -0.59635063376E+02 -0.47441233540E+02  0.10977657986E+03  0.77000000000E+02 0.  0.
   -5000001    1    1    2    0    0  0.17745029229E+02  0.59635063376E+02 -0.34977210530E+02  0.10499348600E+03  0.77000000000E+02 0.  0.
<mgrwt>
<rscale>  0 0.19832645E+03</rscale>
<asrwt>0</asrwt>
<pdfrwt beam="1">  1        1 0.21227751E-01 0.19832645E+03</pdfrwt>
<pdfrwt beam="2">  1       -1 0.94536874E-02 0.19832645E+03</pdfrwt>
<totfact> 0.15150522E+04</totfact>
</mgrwt>
</event>
<event>
 4    1  0.3281630E-004  0.1900878E+03  0.7818608E-02  0.1158382E+00
         -1   -1    0    0    0  501 -0.00000000000E+00  0.00000000000E+00  0.42865695735E+02  0.42865696031E+02  0.50400000000E-02 0.  1.
          1   -1    0    0  501    0  0.00000000000E+00 -0.00000000000E+00 -0.21073595274E+03  0.21073595280E+03  0.50400000000E-02 0. -1.
    5000001    1    1    2    0    0  0.41575768189E+00 -0.53472428631E+02 -0.10481200064E+03  0.14062015843E+03  0.77000000000E+02 0.  0.
   -5000001    1    1    2    0    0 -0.41575768189E+00  0.53472428631E+02 -0.63058256367E+02  0.11298149041E+03  0.77000000000E+02 0.  0.
<mgrwt>
<rscale>  0 0.19008780E+03</rscale>
<asrwt>0</asrwt>
<pdfrwt beam="1">  1        1 0.30105136E-01 0.19008780E+03</pdfrwt>
<pdfrwt beam="2">  1       -1 0.61236709E-02 0.19008780E+03</pdfrwt>
<totfact> 0.18751178E+04</totfact>
</mgrwt>
</event>
<event>
 4    1  0.3281630E-004  0.1698988E+03  0.7818608E-02  0.1177953E+00
         -1   -1    0    0    0  501 -0.00000000000E+00  0.00000000000E+00  0.10569012485E+02  0.10569013687E+02  0.50400000000E-02 0.  1.
          1   -1    0    0  501    0  0.00000000000E+00 -0.00000000000E+00 -0.68278841838E+03  0.68278841840E+03  0.50400000000E-02 0. -1.
    5000001    1    1    2    0    0  0.29913184359E+02 -0.11388941048E+02 -0.26994040361E+03  0.28252668561E+03  0.77000000000E+02 0.  0.
   -5000001    1    1    2    0    0 -0.29913184359E+02  0.11388941048E+02 -0.40227900228E+03  0.41083074648E+03  0.77000000000E+02 0.  0.
<mgrwt>
<rscale>  0 0.16989879E+03</rscale>
<asrwt>0</asrwt>
<pdfrwt beam="1">  1        1 0.97541175E-01 0.16989879E+03</pdfrwt>
<pdfrwt beam="2">  1       -1 0.15098594E-02 0.16989879E+03</pdfrwt>
<totfact> 0.32225008E+04</totfact>
</mgrwt>
</event>
<event>
 4    1  0.3281630E-004  0.2354697E+03  0.7818608E-02  0.1122848E+00
         -1   -1    0    0    0  501 -0.00000000000E+00  0.00000000000E+00  0.29437204105E+02  0.29437204537E+02  0.50400000000E-02 0.  1.
          1   -1    0    0  501    0  0.00000000000E+00 -0.00000000000E+00 -0.47088367561E+03  0.47088367564E+03  0.50400000000E-02 0. -1.
    5000001    1    1    2    0    0 -0.20600079380E+02 -0.82442779871E+02 -0.27739245006E+03  0.30016120098E+03  0.77000000000E+02 0.  0.
   -5000001    1    1    2    0    0  0.20600079380E+02  0.82442779871E+02 -0.16405402145E+03  0.20015967920E+03  0.77000000000E+02 0.  0.
<mgrwt>
<rscale>  0 0.23546973E+03</rscale>
<asrwt>0</asrwt>
<pdfrwt beam="1">  1        1 0.67269092E-01 0.23546973E+03</pdfrwt>
<pdfrwt beam="2">  1       -1 0.42053152E-02 0.23546973E+03</pdfrwt>
<totfact> 0.12121549E+04</totfact>
</mgrwt>
</event>
<event>
 4    1  0.3281630E-004  0.2104150E+03  0.7818608E-02  0.1141238E+00
          1   -1    0    0  501    0  0.00000000000E+00  0.00000000000E+00  0.21390328613E+02  0.21390329206E+02  0.50400000000E-02 0. -1.
         -1   -1    0    0    0  501 -0.00000000000E+00 -0.00000000000E+00 -0.51745877018E+03  0.51745877021E+03  0.50400000000E-02 0.  1.
    5000001    1    1    2    0    0  0.69544746720E+02  0.79137371327E+01 -0.20831863389E+03  0.23286208849E+03  0.77000000000E+02 0.  0.
   -5000001    1    1    2    0    0 -0.69544746720E+02 -0.79137371327E+01 -0.28774980768E+03  0.30598701092E+03  0.77000000000E+02 0.  0.
<mgrwt>
<rscale>  0 0.21041495E+03</rscale>
<asrwt>0</asrwt>
<pdfrwt beam="1">  1        1 0.30557616E-02 0.21041495E+03</pdfrwt>
<pdfrwt beam="2">  1       -1 0.73922673E-01 0.21041495E+03</pdfrwt>
<totfact> 0.62544374E+03</totfact>
</mgrwt>
</event>
<event>
 4    1  0.3281630E-004  0.2104621E+03  0.7818608E-02  0.1141201E+00
          1   -1    0    0  501    0  0.00000000000E+00  0.00000000000E+00  0.51759170337E+03  0.51759170339E+03  0.50400000000E-02 0.  1.
         -1   -1    0    0    0  501 -0.00000000000E+00 -0.00000000000E+00 -0.21394419908E+02  0.21394420502E+02  0.50400000000E-02 0. -1.
    5000001    1    1    2    0    0 -0.31594186875E+02  0.54018813735E+02  0.15834240066E+03  0.18686235771E+03  0.77000000000E+02 0.  0.
   -5000001    1    1    2    0    0  0.31594186875E+02 -0.54018813735E+02  0.33785488280E+03  0.35212376619E+03  0.77000000000E+02 0.  0.
<mgrwt>
<rscale>  0 0.21046210E+03</rscale>
<asrwt>0</asrwt>
<pdfrwt beam="1">  1        1 0.73941676E-01 0.21046210E+03</pdfrwt>
<pdfrwt beam="2">  1       -1 0.30563456E-02 0.21046210E+03</pdfrwt>
<totfact> 0.17057830E+04</totfact>
</mgrwt>
</event>
<event>
 4    1  0.3281630E-004  0.2845252E+03  0.7818608E-02  0.1093243E+00
         -1   -1    0    0    0  501 -0.00000000000E+00  0.00000000000E+00  0.66946053288E+03  0.66946053290E+03  0.50400000000E-02 0.  1.
          1   -1    0    0  501    0  0.00000000000E+00 -0.00000000000E+00 -0.30231275170E+02  0.30231275590E+02  0.50400000000E-02 0. -1.
    5000001    1    1    2    0    0 -0.38822274738E+02  0.11314802372E+03  0.31970829745E+03  0.34993147864E+03  0.77000000000E+02 0.  0.
   -5000001    1    1    2    0    0  0.38822274738E+02 -0.11314802372E+03  0.31952096026E+03  0.34976032984E+03  0.77000000000E+02 0.  0.
<mgrwt>
<rscale>  0 0.28452519E+03</rscale>
<asrwt>0</asrwt>
<pdfrwt beam="1">  1        1 0.43187543E-02 0.28452519E+03</pdfrwt>
<pdfrwt beam="2">  1       -1 0.95637205E-01 0.28452519E+03</pdfrwt>
<totfact> 0.22727407E+03</totfact>
</mgrwt>
</event>
<event>
 4    1  0.3281630E-004  0.2173501E+03  0.7818608E-02  0.1135874E+00
         -1   -1    0    0    0  501 -0.00000000000E+00  0.00000000000E+00  0.11346824865E+02  0.11346825984E+02  0.50400000000E-02 0. -1.
          1   -1    0    0  501    0  0.00000000000E+00 -0.00000000000E+00 -0.10408429377E+04  0.10408429377E+04  0.50400000000E-02 0.  1.
    5000001    1    1    2    0    0 -0.51014286572E+02  0.11497400820E+02 -0.78630200753E+03  0.79179195166E+03  0.77000000000E+02 0.  0.
   -5000001    1    1    2    0    0  0.51014286572E+02 -0.11497400820E+02 -0.24319410528E+03  0.26039781202E+03  0.77000000000E+02 0.  0.
<mgrwt>
<rscale>  0 0.21735007E+03</rscale>
<asrwt>0</asrwt>
<pdfrwt beam="1">  1        1 0.14869179E+00 0.21735007E+03</pdfrwt>
<pdfrwt beam="2">  1       -1 0.16209757E-02 0.21735007E+03</pdfrwt>
<totfact> 0.15594204E+04</totfact>
</mgrwt>
</event>
<event>
 4    1  0.3281630E-004  0.2737980E+03  0.7818608E-02  0.1099125E+00
         -1   -1    0    0    0  501 -0.00000000000E+00  0.00000000000E+00  0.69590743656E+01  0.69590761906E+01  0.50400000000E-02 0. -1.
          1   -1    0    0  501    0  0.00000000000E+00 -0.00000000000E+00 -0.26930779028E+04  0.26930779028E+04  0.50400000000E-02 0.  1.
    5000001    1    1    2    0    0 -0.41857099038E+02  0.10298349125E+03 -0.11327738568E+04  0.11408169121E+04  0.77000000000E+02 0.  0.
   -5000001    1    1    2    0    0  0.41857099038E+02 -0.10298349125E+03 -0.15533449716E+04  0.15592200669E+04  0.77000000000E+02 0.  0.
<mgrwt>
<rscale>  0 0.27379797E+03</rscale>
<asrwt>0</asrwt>
<pdfrwt beam="1">  1        1 0.38472475E+00 0.27379797E+03</pdfrwt>
<pdfrwt beam="2">  1       -1 0.99415533E-03 0.27379797E+03</pdfrwt>
<totfact> 0.30057571E+03</totfact>
</mgrwt>
</event>
<event>
 4    1  0.3281630E-004  0.2859824E+03  0.7818608E-02  0.1092466E+00
          1   -1    0    0  501    0  0.00000000000E+00  0.00000000000E+00  0.61586806875E+03  0.61586806877E+03  0.50400000000E-02 0. -1.
         -1   -1    0    0    0  501 -0.00000000000E+00 -0.00000000000E+00 -0.33199457504E+02  0.33199457887E+02  0.50400000000E-02 0.  1.
    5000001    1    1    2    0    0 -0.66625788620E+02  0.92544855483E+02  0.37964328547E+03  0.40380882876E+03  0.77000000000E+02 0.  0.
   -5000001    1    1    2    0    0  0.66625788620E+02 -0.92544855483E+02  0.20302532578E+03  0.24525869789E+03  0.77000000000E+02 0.  0.
<mgrwt>
<rscale>  0 0.28598242E+03</rscale>
<asrwt>0</asrwt>
<pdfrwt beam="1">  1        1 0.87981143E-01 0.28598242E+03</pdfrwt>
<pdfrwt beam="2">  1       -1 0.47427802E-02 0.28598242E+03</pdfrwt>
<totfact> 0.71488067E+03</totfact>
</mgrwt>
</event>
<event>
 4    1  0.3281630E-004  0.1755785E+03  0.7818608E-02  0.1172152E+00
          1   -1    0    0  501    0  0.00000000000E+00  0.00000000000E+00  0.48706338233E+02  0.48706338494E+02  0.50400000000E-02 0.  1.
         -1   -1    0    0    0  501 -0.00000000000E+00 -0.00000000000E+00 -0.15823313312E+03  0.15823313320E+03  0.50400000000E-02 0. -1.
    5000001    1    1    2    0    0  0.25181329852E+02 -0.10079898033E+02 -0.92813727182E+02  0.12360862296E+03  0.77000000000E+02 0.  0.
   -5000001    1    1    2    0    0 -0.25181329852E+02  0.10079898033E+02 -0.16713067701E+02  0.83330848726E+02  0.77000000000E+02 0.  0.
<mgrwt>
<rscale>  0 0.17557855E+03</rscale>
<asrwt>0</asrwt>
<pdfrwt beam="1">  1        1 0.69580485E-02 0.17557855E+03</pdfrwt>
<pdfrwt beam="2">  1       -1 0.22604733E-01 0.17557855E+03</pdfrwt>
<totfact> 0.16527367E+04</totfact>
</mgrwt>
</event>
<event>
 4    1  0.3281630E-004  0.1716047E+03  0.7818608E-02  0.1176185E+00
         -1   -1    0    0    0  501 -0.00000000000E+00  0.00000000000E+00  0.37779035513E+02  0.37779035849E+02  0.50400000000E-02 0. -1.
          1   -1    0    0  501    0  0.00000000000E+00 -0.00000000000E+00 -0.19487108346E+03  0.19487108353E+03  0.50400000000E-02 0.  1.
    5000001    1    1    2    0    0 -0.36672311911E+02  0.24711640920E+01 -0.66263613507E+02  0.10803162309E+03  0.77000000000E+02 0.  0.
   -5000001    1    1    2    0    0  0.36672311911E+02 -0.24711640920E+01 -0.90828434441E+02  0.12461849628E+03  0.77000000000E+02 0.  0.
<mgrwt>
<rscale>  0 0.17160468E+03</rscale>
<asrwt>0</asrwt>
<pdfrwt beam="1">  1        1 0.27838726E-01 0.17160468E+03</pdfrwt>
<pdfrwt beam="2">  1       -1 0.53970052E-02 0.17160468E+03</pdfrwt>
<totfact> 0.24767065E+04</totfact>
</mgrwt>
</event>
<event>
 4    1  0.3281630E-004  0.2123530E+03  0.7818608E-02  0.1139716E+00
          1   -1    0    0  501    0  0.00000000000E+00  0.00000000000E+00  0.53743711541E+03  0.53743711543E+03  0.50400000000E-02 0.  1.
         -1   -1    0    0    0  501 -0.00000000000E+00 -0.00000000000E+00 -0.20976303867E+02  0.20976304472E+02  0.50400000000E-02 0. -1.
    5000001    1    1    2    0    0 -0.57217743219E+02 -0.25662086099E+02  0.15941611736E+03  0.18781616351E+03  0.77000000000E+02 0.  0.
   -5000001    1    1    2    0    0  0.57217743219E+02  0.25662086099E+02  0.35704469418E+03  0.37059725639E+03  0.77000000000E+02 0.  0.
<mgrwt>
<rscale>  0 0.21235296E+03</rscale>
<asrwt>0</asrwt>
<pdfrwt beam="1">  1        1 0.76776733E-01 0.21235296E+03</pdfrwt>
<pdfrwt beam="2">  1       -1 0.29966148E-02 0.21235296E+03</pdfrwt>
<totfact> 0.16721566E+04</totfact>
</mgrwt>
</event>
<event>
 4    1  0.3281630E-004  0.2590126E+03  0.7818608E-02  0.1107738E+00
          1   -1    0    0  501    0  0.00000000000E+00  0.00000000000E+00  0.57634790700E+02  0.57634790921E+02  0.50400000000E-02 0. -1.
         -1   -1    0    0    0  501 -0.00000000000E+00 -0.00000000000E+00 -0.29100278743E+03  0.29100278748E+03  0.50400000000E-02 0.  1.
    5000001    1    1    2    0    0 -0.10250665344E+03  0.11757410941E+02 -0.13557799976E+03  0.18696589189E+03  0.77000000000E+02 0.  0.
   -5000001    1    1    2    0    0  0.10250665344E+03 -0.11757410941E+02 -0.97789996970E+02  0.16167168651E+03  0.77000000000E+02 0.  0.
<mgrwt>
<rscale>  0 0.25901262E+03</rscale>
<asrwt>0</asrwt>
<pdfrwt beam="1">  1        1 0.82335417E-02 0.25901262E+03</pdfrwt>
<pdfrwt beam="2">  1       -1 0.41571826E-01 0.25901262E+03</pdfrwt>
<totfact> 0.47755202E+03</totfact>
</mgrwt>
</event>
<event>
 4    1  0.3281630E-004  0.1814744E+03  0.7818608E-02  0.1166384E+00
         -1   -1    0    0    0  501 -0.00000000000E+00  0.00000000000E+00  0.22222579019E+02  0.22222579590E+02  0.50400000000E-02 0.  1.
          1   -1    0    0  501    0  0.00000000000E+00 -0.00000000000E+00 -0.37048961872E+03  0.37048961876E+03  0.50400000000E-02 0. -1.
    5000001    1    1    2    0    0  0.23511576801E+02 -0.35317195682E+02 -0.12554505632E+03  0.15326662951E+03  0.77000000000E+02 0.  0.
   -5000001    1    1    2    0    0 -0.23511576801E+02  0.35317195682E+02 -0.22272198338E+03  0.23944556884E+03  0.77000000000E+02 0.  0.
<mgrwt>
<rscale>  0 0.18147435E+03</rscale>
<asrwt>0</asrwt>
<pdfrwt beam="1">  1        1 0.52927085E-01 0.18147435E+03</pdfrwt>
<pdfrwt beam="2">  1       -1 0.31746544E-02 0.18147435E+03</pdfrwt>
<totfact> 0.24461927E+04</totfact>
</mgrwt>
</event>
<event>
 4    1  0.3281630E-004  0.1708435E+03  0.7818608E-02  0.1176971E+00
          1   -1    0    0  501    0  0.00000000000E+00  0.00000000000E+00  0.46594373506E+03  0.46594373509E+03  0.50400000000E-02 0. -1.
         -1   -1    0    0    0  501 -0.00000000000E+00 -0.00000000000E+00 -0.15660419309E+02  0.15660420120E+02  0.50400000000E-02 0.  1.
    5000001    1    1    2    0    0 -0.78778296694E+01  0.36045231735E+02  0.23235930921E+03  0.24755033328E+03  0.77000000000E+02 0.  0.
   -5000001    1    1    2    0    0  0.78778296694E+01 -0.36045231735E+02  0.21792400654E+03  0.23405382193E+03  0.77000000000E+02 0.  0.
<mgrwt>
<rscale>  0 0.17084349E+03</rscale>
<asrwt>0</asrwt>
<pdfrwt beam="1">  1        1 0.66563390E-01 0.17084349E+03</pdfrwt>
<pdfrwt beam="2">  1       -1 0.22372028E-02 0.17084349E+03</pdfrwt>
<totfact> 0.30336175E+04</totfact>
</mgrwt>
</event>
<event>
 4    1  0.3281630E-004  0.2505475E+03  0.7818608E-02  0.1112959E+00
          1   -1    0    0  501    0  0.00000000000E+00  0.00000000000E+00  0.20682591252E+04  0.20682591252E+04  0.50400000000E-02 0. -1.
         -1   -1    0    0    0  501 -0.00000000000E+00 -0.00000000000E+00 -0.75877888594E+01  0.75877905332E+01  0.50400000000E-02 0.  1.
    5000001    1    1    2    0    0 -0.89663718398E+01  0.96571309522E+02  0.87354927540E+03  0.88228325961E+03  0.77000000000E+02 0.  0.
   -5000001    1    1    2    0    0  0.89663718398E+01 -0.96571309522E+02  0.11871220609E+04  0.11935636561E+04  0.77000000000E+02 0.  0.
<mgrwt>
<rscale>  0 0.25054752E+03</rscale>
<asrwt>0</asrwt>
<pdfrwt beam="1">  1        1 0.29546593E+00 0.25054752E+03</pdfrwt>
<pdfrwt beam="2">  1       -1 0.10839687E-02 0.25054752E+03</pdfrwt>
<totfact> 0.63519925E+03</totfact>
</mgrwt>
</event>
<event>
 4    1  0.3281630E-004  0.2896805E+03  0.7818608E-02  0.1090516E+00
          1   -1    0    0  501    0  0.00000000000E+00  0.00000000000E+00  0.12004430279E+03  0.12004430290E+03  0.50400000000E-02 0.  1.
         -1   -1    0    0    0  501 -0.00000000000E+00 -0.00000000000E+00 -0.17475796197E+03  0.17475796204E+03  0.50400000000E-02 0. -1.
    5000001    1    1    2    0    0  0.27729300035E+02  0.10799007433E+03  0.24723448548E+02  0.13773532278E+03  0.77000000000E+02 0.  0.
   -5000001    1    1    2    0    0 -0.27729300035E+02 -0.10799007433E+03 -0.79437107726E+02  0.15706694215E+03  0.77000000000E+02 0.  0.
<mgrwt>
<rscale>  0 0.28968050E+03</rscale>
<asrwt>0</asrwt>
<pdfrwt beam="1">  1        1 0.17149186E-01 0.28968050E+03</pdfrwt>
<pdfrwt beam="2">  1       -1 0.24965423E-01 0.28968050E+03</pdfrwt>
<totfact> 0.43411220E+03</totfact>
</mgrwt>
</event>
<event>
 4    1  0.3281630E-004  0.2837400E+03  0.7818608E-02  0.1093664E+00
         -1   -1    0    0    0  501 -0.00000000000E+00  0.00000000000E+00  0.10419769868E+03  0.10419769881E+03  0.50400000000E-02 0. -1.
          1   -1    0    0  501    0  0.00000000000E+00 -0.00000000000E+00 -0.19316260630E+03  0.19316260636E+03  0.50400000000E-02 0.  1.
    5000001    1    1    2    0    0  0.57215662813E+01 -0.10590176748E+03  0.12440384300E+02  0.13164985316E+03  0.77000000000E+02 0.  0.
   -5000001    1    1    2    0    0 -0.57215662813E+01  0.10590176748E+03 -0.10140529191E+03  0.16571045201E+03  0.77000000000E+02 0.  0.
<mgrwt>
<rscale>  0 0.28374002E+03</rscale>
<asrwt>0</asrwt>
<pdfrwt beam="1">  1        1 0.27594658E-01 0.28374002E+03</pdfrwt>
<pdfrwt beam="2">  1       -1 0.14885386E-01 0.28374002E+03</pdfrwt>
<totfact> 0.54516286E+03</totfact>
</mgrwt>
</event>
<event>
 4    1  0.3281630E-004  0.3601009E+03  0.7818608E-02  0.1058544E+00
         -1   -1    0    0    0  501 -0.00000000000E+00  0.00000000000E+00  0.89655063847E+03  0.89655063849E+03  0.50400000000E-02 0. -1.
          1   -1    0    0  501    0  0.00000000000E+00 -0.00000000000E+00 -0.36158775480E+02  0.36158775831E+02  0.50400000000E-02 0.  1.
    5000001    1    1    2    0    0 -0.72085609414E+02 -0.14296121785E+03  0.50592925167E+03  0.53621605029E+03  0.77000000000E+02 0.  0.
   -5000001    1    1    2    0    0  0.72085609414E+02  0.14296121785E+03  0.35446261132E+03  0.39649336403E+03  0.77000000000E+02 0.  0.
<mgrwt>
<rscale>  0 0.36010095E+03</rscale>
<asrwt>0</asrwt>
<pdfrwt beam="1">  1        1 0.51655404E-02 0.36010095E+03</pdfrwt>
<pdfrwt beam="2">  1       -1 0.12807864E+00 0.36010095E+03</pdfrwt>
<totfact> 0.90119617E+02</totfact>
</mgrwt>
</event>
<event>
 4    1  0.3281630E-004  0.2382107E+03  0.7818608E-02  0.1120991E+00
         -1   -1    0    0    0  501 -0.00000000000E+00  0.00000000000E+00  0.66262619884E+03  0.66262619886E+03  0.50400000000E-02 0.  1.
          1   -1    0    0  501    0  0.00000000000E+00 -0.00000000000E+00 -0.21408877633E+02  0.21408878226E+02  0.50400000000E-02 0. -1.
    5000001    1    1    2    0    0 -0.66422720994E+02  0.61502356041E+02  0.29789508727E+03  0.32072574060E+03  0.77000000000E+02 0.  0.
   -5000001    1    1    2    0    0  0.66422720994E+02 -0.61502356041E+02  0.34332223394E+03  0.36330933649E+03  0.77000000000E+02 0.  0.
<mgrwt>
<rscale>  0 0.23821069E+03</rscale>
<asrwt>0</asrwt>
<pdfrwt beam="1">  1        1 0.30584116E-02 0.23821069E+03</pdfrwt>
<pdfrwt beam="2">  1       -1 0.94660871E-01 0.23821069E+03</pdfrwt>
<totfact> 0.37435435E+03</totfact>
</mgrwt>
</event>
<event>
 4    1  0.3281630E-004  0.2255046E+03  0.7818608E-02  0.1129844E+00
          1   -1    0    0  501    0  0.00000000000E+00  0.00000000000E+00  0.44579347389E+03  0.44579347392E+03  0.50400000000E-02 0.  1.
         -1   -1    0    0    0  501 -0.00000000000E+00 -0.00000000000E+00 -0.28517863206E+02  0.28517863651E+02  0.50400000000E-02 0. -1.
    5000001    1    1    2    0    0 -0.52918685217E+02 -0.61969260853E+02  0.23383402878E+03  0.25932205759E+03  0.77000000000E+02 0.  0.
   -5000001    1    1    2    0    0  0.52918685217E+02  0.61969260853E+02  0.18344158190E+03  0.21498927998E+03  0.77000000000E+02 0.  0.
<mgrwt>
<rscale>  0 0.22550457E+03</rscale>
<asrwt>0</asrwt>
<pdfrwt beam="1">  1        1 0.63684780E-01 0.22550457E+03</pdfrwt>
<pdfrwt beam="2">  1       -1 0.40739806E-02 0.22550457E+03</pdfrwt>
<totfact> 0.13601392E+04</totfact>
</mgrwt>
</event>
<event>
 4    1  0.3281630E-004  0.2554928E+03  0.7818608E-02  0.1109882E+00
          1   -1    0    0  501    0  0.00000000000E+00  0.00000000000E+00  0.50029483538E+03  0.50029483541E+03  0.50400000000E-02 0.  1.
         -1   -1    0    0    0  501 -0.00000000000E+00 -0.00000000000E+00 -0.32619059583E+02  0.32619059972E+02  0.50400000000E-02 0. -1.
    5000001    1    1    2    0    0  0.97724777223E+02 -0.28458876848E+02  0.22239291033E+03  0.25641303851E+03  0.77000000000E+02 0.  0.
   -5000001    1    1    2    0    0 -0.97724777223E+02  0.28458876848E+02  0.24528286547E+03  0.27650085686E+03  0.77000000000E+02 0.  0.
<mgrwt>
<rscale>  0 0.25549283E+03</rscale>
<asrwt>0</asrwt>
<pdfrwt beam="1">  1        1 0.71470686E-01 0.25549283E+03</pdfrwt>
<pdfrwt beam="2">  1       -1 0.46598660E-02 0.25549283E+03</pdfrwt>
<totfact> 0.96524262E+03</totfact>
</mgrwt>
</event>
<event>
 4    1  0.3281630E-004  0.2336437E+03  0.7818608E-02  0.1124101E+00
         -1   -1    0    0    0  501 -0.00000000000E+00  0.00000000000E+00  0.17525239459E+03  0.17525239467E+03  0.50400000000E-02 0.  1.
          1   -1    0    0  501    0  0.00000000000E+00 -0.00000000000E+00 -0.77872501740E+02  0.77872501903E+02  0.50400000000E-02 0. -1.
    5000001    1    1    2    0    0  0.57434617253E+02  0.54879728102E+02  0.89339407492E+02  0.14220073680E+03  0.77000000000E+02 0.  0.
   -5000001    1    1    2    0    0 -0.57434617253E+02 -0.54879728102E+02  0.80404853614E+01  0.11092415977E+03  0.77000000000E+02 0.  0.
<mgrwt>
<rscale>  0 0.23364368E+03</rscale>
<asrwt>0</asrwt>
<pdfrwt beam="1">  1        1 0.11124643E-01 0.23364368E+03</pdfrwt>
<pdfrwt beam="2">  1       -1 0.25036056E-01 0.23364368E+03</pdfrwt>
<totfact> 0.75769951E+03</totfact>
</mgrwt>
</event>
<event>
 4    1  0.3281630E-004  0.2620185E+03  0.7818608E-02  0.1105937E+00
          1   -1    0    0  501    0  0.00000000000E+00  0.00000000000E+00  0.29353925829E+04  0.29353925829E+04  0.50400000000E-02 0. -1.
         -1   -1    0    0    0  501 -0.00000000000E+00 -0.00000000000E+00 -0.58470600700E+01  0.58470622422E+01  0.50400000000E-02 0.  1.
    5000001    1    1    2    0    0  0.38578998190E+02  0.78435996142E+02  0.21377184378E+04  0.21408899233E+04  0.77000000000E+02 0.  0.
   -5000001    1    1    2    0    0 -0.38578998190E+02 -0.78435996142E+02  0.79182708501E+03  0.80034972178E+03  0.77000000000E+02 0.  0.
<mgrwt>
<rscale>  0 0.26201847E+03</rscale>
<asrwt>0</asrwt>
<pdfrwt beam="1">  1        1 0.41934200E+00 0.26201847E+03</pdfrwt>
<pdfrwt beam="2">  1       -1 0.83529405E-03 0.26201847E+03</pdfrwt>
<totfact> 0.27315282E+03</totfact>
</mgrwt>
</event>
<event>
 4    1  0.3281630E-004  0.1758903E+03  0.7818608E-02  0.1171841E+00
         -1   -1    0    0    0  501 -0.00000000000E+00  0.00000000000E+00  0.44018996932E+03  0.44018996935E+03  0.50400000000E-02 0. -1.
          1   -1    0    0  501    0  0.00000000000E+00 -0.00000000000E+00 -0.17570479853E+02  0.17570480576E+02  0.50400000000E-02 0.  1.
    5000001    1    1    2    0    0 -0.37097395658E+02  0.18664702250E+02  0.23469800913E+03  0.25047303920E+03  0.77000000000E+02 0.  0.
   -5000001    1    1    2    0    0  0.37097395658E+02 -0.18664702250E+02  0.18792148034E+03  0.20728741073E+03  0.77000000000E+02 0.  0.
<mgrwt>
<rscale>  0 0.17589030E+03</rscale>
<asrwt>0</asrwt>
<pdfrwt beam="1">  1        1 0.25100687E-02 0.17589030E+03</pdfrwt>
<pdfrwt beam="2">  1       -1 0.62884279E-01 0.17589030E+03</pdfrwt>
<totfact> 0.11190110E+04</totfact>
</mgrwt>
</event>
<event>
 4    1  0.3281630E-004  0.2542019E+03  0.7818608E-02  0.1110678E+00
         -1   -1    0    0    0  501 -0.00000000000E+00  0.00000000000E+00  0.72549398206E+03  0.72549398208E+03  0.50400000000E-02 0. -1.
          1   -1    0    0  501    0  0.00000000000E+00 -0.00000000000E+00 -0.22267107223E+02  0.22267107794E+02  0.50400000000E-02 0.  1.
    5000001    1    1    2    0    0 -0.59186554439E+02 -0.76483531435E+02  0.26470543634E+03  0.29214850134E+03  0.77000000000E+02 0.  0.
   -5000001    1    1    2    0    0  0.59186554439E+02  0.76483531435E+02  0.43852143850E+03  0.45561258853E+03  0.77000000000E+02 0.  0.
<mgrwt>
<rscale>  0 0.25420191E+03</rscale>
<asrwt>0</asrwt>
<pdfrwt beam="1">  1        1 0.31810150E-02 0.25420191E+03</pdfrwt>
<pdfrwt beam="2">  1       -1 0.10364201E+00 0.25420191E+03</pdfrwt>
<totfact> 0.29048711E+03</totfact>
</mgrwt>
</event>
<event>
 4    1  0.3281630E-004  0.1772022E+03  0.7818608E-02  0.1170539E+00
         -1   -1    0    0    0  501 -0.00000000000E+00  0.00000000000E+00  0.10810231076E+02  0.10810232250E+02  0.50400000000E-02 0. -1.
          1   -1    0    0  501    0  0.00000000000E+00 -0.00000000000E+00 -0.72617791347E+03  0.72617791349E+03  0.50400000000E-02 0.  1.
    5000001    1    1    2    0    0  0.29491706602E+02  0.21328615239E+02 -0.45925952595E+03  0.46708990864E+03  0.77000000000E+02 0.  0.
   -5000001    1    1    2    0    0 -0.29491706602E+02 -0.21328615239E+02 -0.25610815645E+03  0.26989823710E+03  0.77000000000E+02 0.  0.
<mgrwt>
<rscale>  0 0.17720216E+03</rscale>
<asrwt>0</asrwt>
<pdfrwt beam="1">  1        1 0.10373967E+00 0.17720216E+03</pdfrwt>
<pdfrwt beam="2">  1       -1 0.15443193E-02 0.17720216E+03</pdfrwt>
<totfact> 0.28702185E+04</totfact>
</mgrwt>
</event>
<event>
 4    1  0.3281630E-004  0.2765298E+03  0.7818608E-02  0.1097600E+00
          1   -1    0    0  501    0  0.00000000000E+00  0.00000000000E+00  0.14218758140E+04  0.14218758140E+04  0.50400000000E-02 0. -1.
         -1   -1    0    0    0  501 -0.00000000000E+00 -0.00000000000E+00 -0.13445038796E+02  0.13445039740E+02  0.50400000000E-02 0.  1.
    5000001    1    1    2    0    0  0.77214317431E+02 -0.17540582899E+02  0.11359447981E+04  0.11413015846E+04  0.77000000000E+02 0.  0.
   -5000001    1    1    2    0    0 -0.77214317431E+02  0.17540582899E+02  0.27248597710E+03  0.29401926906E+03  0.77000000000E+02 0.  0.
<mgrwt>
<rscale>  0 0.27652975E+03</rscale>
<asrwt>0</asrwt>
<pdfrwt beam="1">  1        1 0.20312520E+00 0.27652975E+03</pdfrwt>
<pdfrwt beam="2">  1       -1 0.19207191E-02 0.27652975E+03</pdfrwt>
<totfact> 0.68784049E+03</totfact>
</mgrwt>
</event>
<event>
 4    1  0.3281630E-004  0.1728433E+03  0.7818608E-02  0.1174915E+00
          1   -1    0    0  501    0  0.00000000000E+00  0.00000000000E+00  0.82824917169E+02  0.82824917322E+02  0.50400000000E-02 0.  1.
         -1   -1    0    0    0  501 -0.00000000000E+00 -0.00000000000E+00 -0.90174603397E+02  0.90174603538E+02  0.50400000000E-02 0. -1.
    5000001    1    1    2    0    0 -0.22272449764E+01  0.75442382958E+01  0.34802423583E+02  0.84865097884E+02  0.77000000000E+02 0.  0.
   -5000001    1    1    2    0    0  0.22272449764E+01 -0.75442382958E+01 -0.42152109812E+02  0.88134422976E+02  0.77000000000E+02 0.  0.
<mgrwt>
<rscale>  0 0.17284333E+03</rscale>
<asrwt>0</asrwt>
<pdfrwt beam="1">  1        1 0.11832131E-01 0.17284333E+03</pdfrwt>
<pdfrwt beam="2">  1       -1 0.12882086E-01 0.17284333E+03</pdfrwt>
<totfact> 0.19844660E+04</totfact>
</mgrwt>
</event>
<event>
 4    1  0.3281630E-004  0.2425036E+03  0.7818608E-02  0.1118136E+00
         -1   -1    0    0    0  501 -0.00000000000E+00  0.00000000000E+00  0.18001299921E+03  0.18001299928E+03  0.50400000000E-02 0. -1.
          1   -1    0    0  501    0  0.00000000000E+00 -0.00000000000E+00 -0.81671881537E+02  0.81671881693E+02  0.50400000000E-02 0.  1.
    5000001    1    1    2    0    0  0.85433680339E+02  0.37203098978E+02  0.59408684057E+02  0.13468992557E+03  0.77000000000E+02 0.  0.
   -5000001    1    1    2    0    0 -0.85433680339E+02 -0.37203098978E+02  0.38932433617E+02  0.12699495540E+03  0.77000000000E+02 0.  0.
<mgrwt>
<rscale>  0 0.24250361E+03</rscale>
<asrwt>0</asrwt>
<pdfrwt beam="1">  1        1 0.11667412E-01 0.24250361E+03</pdfrwt>
<pdfrwt beam="2">  1       -1 0.25716143E-01 0.24250361E+03</pdfrwt>
<totfact> 0.68138482E+03</totfact>
</mgrwt>
</event>
<event>
 4    1  0.3281630E-004  0.2092890E+03  0.7818608E-02  0.1142130E+00
          1   -1    0    0  501    0  0.00000000000E+00  0.00000000000E+00  0.32462966843E+03  0.32462966847E+03  0.50400000000E-02 0.  1.
         -1   -1    0    0    0  501 -0.00000000000E+00 -0.00000000000E+00 -0.33732187520E+02  0.33732187897E+02  0.50400000000E-02 0. -1.
    5000001    1    1    2    0    0  0.65055015021E+02  0.17450756325E+02  0.10774798679E+03  0.14857763133E+03  0.77000000000E+02 0.  0.
   -5000001    1    1    2    0    0 -0.65055015021E+02 -0.17450756325E+02  0.18314949412E+03  0.20978422503E+03  0.77000000000E+02 0.  0.
<mgrwt>
<rscale>  0 0.20928898E+03</rscale>
<asrwt>0</asrwt>
<pdfrwt beam="1">  1        1 0.46375668E-01 0.20928898E+03</pdfrwt>
<pdfrwt beam="2">  1       -1 0.48188838E-02 0.20928898E+03</pdfrwt>
<totfact> 0.15748410E+04</totfact>
</mgrwt>
</event>
<event>
 4    1  0.3281630E-004  0.1651719E+03  0.7818608E-02  0.1182978E+00
          1   -1    0    0  501    0  0.00000000000E+00  0.00000000000E+00  0.27222829969E+04  0.27222829969E+04  0.50400000000E-02 0. -1.
         -1   -1    0    0    0  501 -0.00000000000E+00 -0.00000000000E+00 -0.25054096194E+01  0.25054146887E+01  0.50400000000E-02 0.  1.
    5000001    1    1    2    0    0  0.25268309963E+02 -0.15552380003E+02  0.14147930272E+04  0.14171974717E+04  0.77000000000E+02 0.  0.
   -5000001    1    1    2    0    0 -0.25268309963E+02  0.15552380003E+02  0.13049845601E+04  0.13075909399E+04  0.77000000000E+02 0.  0.
<mgrwt>
<rscale>  0 0.16517192E+03</rscale>
<asrwt>0</asrwt>
<pdfrwt beam="1">  1        1 0.38889853E+00 0.16517192E+03</pdfrwt>
<pdfrwt beam="2">  1       -1 0.35791514E-03 0.16517192E+03</pdfrwt>
<totfact> 0.12361913E+04</totfact>
</mgrwt>
</event>
<event>
 4    1  0.3281630E-004  0.1663662E+03  0.7818608E-02  0.1181691E+00
         -1   -1    0    0    0  501 -0.00000000000E+00  0.00000000000E+00  0.10715661970E+02  0.10715663155E+02  0.50400000000E-02 0. -1.
          1   -1    0    0  501    0  0.00000000000E+00 -0.00000000000E+00 -0.64573062166E+03  0.64573062168E+03  0.50400000000E-02 0.  1.
    5000001    1    1    2    0    0  0.27979252280E+02  0.14176851892E+02 -0.32765190085E+03  0.33803637351E+03  0.77000000000E+02 0.  0.
   -5000001    1    1    2    0    0 -0.27979252280E+02 -0.14176851892E+02 -0.30736305884E+03  0.31840991132E+03  0.77000000000E+02 0.  0.
<mgrwt>
<rscale>  0 0.16636624E+03</rscale>
<asrwt>0</asrwt>
<pdfrwt beam="1">  1        1 0.92247207E-01 0.16636624E+03</pdfrwt>
<pdfrwt beam="2">  1       -1 0.15308094E-02 0.16636624E+03</pdfrwt>
<totfact> 0.34059461E+04</totfact>
</mgrwt>
</event>
<event>
 4    1  0.3281630E-004  0.3579657E+03  0.7818608E-02  0.1059392E+00
         -1   -1    0    0    0  501 -0.00000000000E+00  0.00000000000E+00  0.42633921263E+03  0.42633921266E+03  0.50400000000E-02 0. -1.
          1   -1    0    0  501    0  0.00000000000E+00 -0.00000000000E+00 -0.75139366311E+02  0.75139366480E+02  0.50400000000E-02 0.  1.
    5000001    1    1    2    0    0  0.12772676734E+03  0.51113099509E+02  0.29429931053E+03  0.33386787838E+03  0.77000000000E+02 0.  0.
   -5000001    1    1    2    0    0 -0.12772676734E+03 -0.51113099509E+02  0.56900535787E+02  0.16761070076E+03  0.77000000000E+02 0.  0.
<mgrwt>
<rscale>  0 0.35796569E+03</rscale>
<asrwt>0</asrwt>
<pdfrwt beam="1">  1        1 0.10734195E-01 0.35796569E+03</pdfrwt>
<pdfrwt beam="2">  1       -1 0.60905603E-01 0.35796569E+03</pdfrwt>
<totfact> 0.16527416E+03</totfact>
</mgrwt>
</event>
<event>
 4    1  0.3281630E-004  0.4901572E+03  0.7818608E-02  0.1016380E+00
         -1   -1    0    0    0  501 -0.00000000000E+00  0.00000000000E+00  0.33676498857E+03  0.33676498861E+03  0.50400000000E-02 0. -1.
          1   -1    0    0  501    0  0.00000000000E+00 -0.00000000000E+00 -0.17835443806E+03  0.17835443813E+03  0.50400000000E-02 0.  1.
    5000001    1    1    2    0    0  0.67202677230E+02  0.21798028260E+03  0.12739834531E+03  0.27238014212E+03  0.77000000000E+02 0.  0.
   -5000001    1    1    2    0    0 -0.67202677230E+02 -0.21798028260E+03  0.31012205199E+02  0.24273928463E+03  0.77000000000E+02 0.  0.
<mgrwt>
<rscale>  0 0.49015724E+03</rscale>
<asrwt>0</asrwt>
<pdfrwt beam="1">  1        1 0.25479206E-01 0.49015724E+03</pdfrwt>
<pdfrwt beam="2">  1       -1 0.48109284E-01 0.49015724E+03</pdfrwt>
<totfact> 0.82667485E+02</totfact>
</mgrwt>
</event>
<event>
 4    1  0.3281630E-004  0.2181951E+03  0.7818608E-02  0.1135236E+00
         -1   -1    0    0    0  501 -0.00000000000E+00  0.00000000000E+00  0.12870952477E+02  0.12870953464E+02  0.50400000000E-02 0.  1.
          1   -1    0    0  501    0  0.00000000000E+00 -0.00000000000E+00 -0.92473944395E+03  0.92473944397E+03  0.50400000000E-02 0. -1.
    5000001    1    1    2    0    0 -0.14277645832E+02 -0.70377955227E+02 -0.57871235328E+03  0.58821245787E+03  0.77000000000E+02 0.  0.
   -5000001    1    1    2    0    0  0.14277645832E+02  0.70377955227E+02 -0.33315613819E+03  0.34939793956E+03  0.77000000000E+02 0.  0.
<mgrwt>
<rscale>  0 0.21819512E+03</rscale>
<asrwt>0</asrwt>
<pdfrwt beam="1">  1        1 0.13210559E+00 0.21819512E+03</pdfrwt>
<pdfrwt beam="2">  1       -1 0.18387081E-02 0.21819512E+03</pdfrwt>
<totfact> 0.15747908E+04</totfact>
</mgrwt>
</event>
<event>
 4    1  0.3281630E-004  0.2455588E+03  0.7818608E-02  0.1116144E+00
         -1   -1    0    0    0  501 -0.00000000000E+00  0.00000000000E+00  0.10722825484E+03  0.10722825496E+03  0.50400000000E-02 0. -1.
          1   -1    0    0  501    0  0.00000000000E+00 -0.00000000000E+00 -0.14058590516E+03  0.14058590525E+03  0.50400000000E-02 0.  1.
    5000001    1    1    2    0    0 -0.78767401332E+02 -0.51775141360E+02 -0.38080589119E+00  0.12171324410E+03  0.77000000000E+02 0.  0.
   -5000001    1    1    2    0    0  0.78767401332E+02  0.51775141360E+02 -0.32976844432E+02  0.12610091611E+03  0.77000000000E+02 0.  0.
<mgrwt>
<rscale>  0 0.24555880E+03</rscale>
<asrwt>0</asrwt>
<pdfrwt beam="1">  1        1 0.20083701E-01 0.24555880E+03</pdfrwt>
<pdfrwt beam="2">  1       -1 0.15318322E-01 0.24555880E+03</pdfrwt>
<totfact> 0.77681838E+03</totfact>
</mgrwt>
</event>
<event>
 4    1  0.3281630E-004  0.1843707E+03  0.7818608E-02  0.1163639E+00
         -1   -1    0    0    0  501 -0.00000000000E+00  0.00000000000E+00  0.29380166322E+03  0.29380166327E+03  0.50400000000E-02 0.  1.
          1   -1    0    0  501    0  0.00000000000E+00 -0.00000000000E+00 -0.28924750402E+02  0.28924750841E+02  0.50400000000E-02 0. -1.
    5000001    1    1    2    0    0 -0.44105944687E+02 -0.95279348224E+01  0.17285097745E+03  0.19453168457E+03  0.77000000000E+02 0.  0.
   -5000001    1    1    2    0    0  0.44105944687E+02  0.95279348224E+01  0.92025935374E+02  0.12819472953E+03  0.77000000000E+02 0.  0.
<mgrwt>
<rscale>  0 0.18437071E+03</rscale>
<asrwt>0</asrwt>
<pdfrwt beam="1">  1        1 0.41321069E-02 0.18437071E+03</pdfrwt>
<pdfrwt beam="2">  1       -1 0.41971670E-01 0.18437071E+03</pdfrwt>
<totfact> 0.11853892E+04</totfact>
</mgrwt>
</event>
<event>
 4    1  0.3281630E-004  0.3380734E+03  0.7818608E-02  0.1067619E+00
         -1   -1    0    0    0  501 -0.00000000000E+00  0.00000000000E+00  0.46393284775E+02  0.46393285048E+02  0.50400000000E-02 0. -1.
          1   -1    0    0  501    0  0.00000000000E+00 -0.00000000000E+00 -0.61589519017E+03  0.61589519019E+03  0.50400000000E-02 0.  1.
    5000001    1    1    2    0    0 -0.12416606639E+03  0.84735381737E+02 -0.29819609877E+03  0.34270571965E+03  0.77000000000E+02 0.  0.
   -5000001    1    1    2    0    0  0.12416606639E+03 -0.84735381737E+02 -0.27130580663E+03  0.31958275559E+03  0.77000000000E+02 0.  0.
<mgrwt>
<rscale>  0 0.33807337E+03</rscale>
<asrwt>0</asrwt>
<pdfrwt beam="1">  1        1 0.87985022E-01 0.33807337E+03</pdfrwt>
<pdfrwt beam="2">  1       -1 0.66276125E-02 0.33807337E+03</pdfrwt>
<totfact> 0.43315787E+03</totfact>
</mgrwt>
</event>
<event>
 4    1  0.3281630E-004  0.2201049E+03  0.7818608E-02  0.1133805E+00
         -1   -1    0    0    0  501 -0.00000000000E+00  0.00000000000E+00  0.29723379974E+03  0.29723379978E+03  0.50400000000E-02 0. -1.
          1   -1    0    0  501    0  0.00000000000E+00 -0.00000000000E+00 -0.40747521330E+02  0.40747521642E+02  0.50400000000E-02 0.  1.
    5000001    1    1    2    0    0 -0.62246640557E+02  0.45543199379E+02  0.10476818246E+03  0.15117605408E+03  0.77000000000E+02 0.  0.
   -5000001    1    1    2    0    0  0.62246640557E+02 -0.45543199379E+02  0.15171809595E+03  0.18680526735E+03  0.77000000000E+02 0.  0.
<mgrwt>
<rscale>  0 0.22010489E+03</rscale>
<asrwt>0</asrwt>
<pdfrwt beam="1">  1        1 0.58210745E-02 0.22010489E+03</pdfrwt>
<pdfrwt beam="2">  1       -1 0.42461972E-01 0.22010489E+03</pdfrwt>
<totfact> 0.73249445E+03</totfact>
</mgrwt>
</event>
<event>
 4    1  0.3281630E-004  0.2353042E+03  0.7818608E-02  0.1122961E+00
          1   -1    0    0  501    0  0.00000000000E+00  0.00000000000E+00  0.16814907790E+04  0.16814907790E+04  0.50400000000E-02 0. -1.
         -1   -1    0    0    0  501 -0.00000000000E+00 -0.00000000000E+00 -0.82319892657E+01  0.82319908086E+01  0.50400000000E-02 0.  1.
    5000001    1    1    2    0    0  0.13545365156E+02  0.59894756771E+02  0.12987965217E+04  0.13025253409E+04  0.77000000000E+02 0.  0.
   -5000001    1    1    2    0    0 -0.13545365156E+02 -0.59894756771E+02  0.37446226795E+03  0.38719742888E+03  0.77000000000E+02 0.  0.
<mgrwt>
<rscale>  0 0.23530419E+03</rscale>
<asrwt>0</asrwt>
<pdfrwt beam="1">  1        1 0.24021285E+00 0.23530419E+03</pdfrwt>
<pdfrwt beam="2">  1       -1 0.11759992E-02 0.23530419E+03</pdfrwt>
<totfact> 0.96518455E+03</totfact>
</mgrwt>
</event>
<event>
 4    1  0.3281630E-004  0.2644167E+03  0.7818608E-02  0.1104518E+00
          1   -1    0    0  501    0  0.00000000000E+00  0.00000000000E+00  0.11415832961E+03  0.11415832972E+03  0.50400000000E-02 0. -1.
         -1   -1    0    0    0  501 -0.00000000000E+00 -0.00000000000E+00 -0.15311233651E+03  0.15311233659E+03  0.50400000000E-02 0.  1.
    5000001    1    1    2    0    0  0.32481720095E+02  0.10215466231E+03 -0.27268078994E+02  0.13477086222E+03  0.77000000000E+02 0.  0.
   -5000001    1    1    2    0    0 -0.32481720095E+02 -0.10215466231E+03 -0.11685927902E+02  0.13249980409E+03  0.77000000000E+02 0.  0.
<mgrwt>
<rscale>  0 0.26441671E+03</rscale>
<asrwt>0</asrwt>
<pdfrwt beam="1">  1        1 0.16308333E-01 0.26441671E+03</pdfrwt>
<pdfrwt beam="2">  1       -1 0.21873191E-01 0.26441671E+03</pdfrwt>
<totfact> 0.57486292E+03</totfact>
</mgrwt>
</event>
<event>
 4    1  0.3281630E-004  0.5079173E+03  0.7818608E-02  0.1011733E+00
         -1   -1    0    0    0  501 -0.00000000000E+00  0.00000000000E+00  0.24222294717E+03  0.24222294722E+03  0.50400000000E-02 0.  1.
          1   -1    0    0  501    0  0.00000000000E+00 -0.00000000000E+00 -0.26626291205E+03  0.26626291210E+03  0.50400000000E-02 0. -1.
    5000001    1    1    2    0    0 -0.15557580657E+03  0.18121424406E+03  0.27056436134E+02  0.25239549239E+03  0.77000000000E+02 0.  0.
   -5000001    1    1    2    0    0  0.15557580657E+03 -0.18121424406E+03 -0.51096401021E+02  0.25609036694E+03  0.77000000000E+02 0.  0.
<mgrwt>
<rscale>  0 0.50791727E+03</rscale>
<asrwt>0</asrwt>
<pdfrwt beam="1">  1        1 0.38037559E-01 0.50791727E+03</pdfrwt>
<pdfrwt beam="2">  1       -1 0.34603278E-01 0.50791727E+03</pdfrwt>
<totfact> 0.89664800E+02</totfact>
</mgrwt>
</event>
<event>
 4    1  0.3281630E-004  0.1765204E+03  0.7818608E-02  0.1171214E+00
          1   -1    0    0  501    0  0.00000000000E+00  0.00000000000E+00  0.30984218210E+03  0.30984218214E+03  0.50400000000E-02 0. -1.
         -1   -1    0    0    0  501 -0.00000000000E+00 -0.00000000000E+00 -0.25141394224E+02  0.25141394729E+02  0.50400000000E-02 0.  1.
    5000001    1    1    2    0    0  0.26863743624E+01 -0.42797407455E+02  0.15125745243E+03  0.17506185080E+03  0.77000000000E+02 0.  0.
   -5000001    1    1    2    0    0 -0.26863743624E+01  0.42797407455E+02  0.13344333545E+03  0.15992172606E+03  0.77000000000E+02 0.  0.
<mgrwt>
<rscale>  0 0.17652042E+03</rscale>
<asrwt>0</asrwt>
<pdfrwt beam="1">  1        1 0.44263170E-01 0.17652042E+03</pdfrwt>
<pdfrwt beam="2">  1       -1 0.35916277E-02 0.17652042E+03</pdfrwt>
<totfact> 0.25450910E+04</totfact>
</mgrwt>
</event>
<event>
 4    1  0.3281630E-004  0.1630069E+03  0.7818608E-02  0.1185343E+00
         -1   -1    0    0    0  501 -0.00000000000E+00  0.00000000000E+00  0.12675366051E+02  0.12675367053E+02  0.50400000000E-02 0.  1.
          1   -1    0    0  501    0  0.00000000000E+00 -0.00000000000E+00 -0.52407250863E+03  0.52407250866E+03  0.50400000000E-02 0. -1.
    5000001    1    1    2    0    0 -0.14730299082E+02 -0.22224004766E+02 -0.26132824606E+03  0.27373772171E+03  0.77000000000E+02 0.  0.
   -5000001    1    1    2    0    0  0.14730299082E+02  0.22224004766E+02 -0.25006889652E+03  0.26301015400E+03  0.77000000000E+02 0.  0.
<mgrwt>
<rscale>  0 0.16300689E+03</rscale>
<asrwt>0</asrwt>
<pdfrwt beam="1">  1        1 0.74867488E-01 0.16300689E+03</pdfrwt>
<pdfrwt beam="2">  1       -1 0.18107670E-02 0.16300689E+03</pdfrwt>
<totfact> 0.35250901E+04</totfact>
</mgrwt>
</event>
<event>
 4    1  0.3281630E-004  0.2299488E+03  0.7818608E-02  0.1126676E+00
          1   -1    0    0  501    0  0.00000000000E+00  0.00000000000E+00  0.16802029088E+04  0.16802029088E+04  0.50400000000E-02 0.  1.
         -1   -1    0    0    0  501 -0.00000000000E+00 -0.00000000000E+00 -0.78675715034E+01  0.78675731177E+01  0.50400000000E-02 0. -1.
    5000001    1    1    2    0    0  0.73744736559E+02  0.26801611339E+02  0.58901168456E+03  0.59918309146E+03  0.77000000000E+02 0.  0.
   -5000001    1    1    2    0    0 -0.73744736559E+02 -0.26801611339E+02  0.10833236527E+04  0.10888873904E+04  0.77000000000E+02 0.  0.
<mgrwt>
<rscale>  0 0.22994885E+03</rscale>
<asrwt>0</asrwt>
<pdfrwt beam="1">  1        1 0.24002907E+00 0.22994885E+03</pdfrwt>
<pdfrwt beam="2">  1       -1 0.11239385E-02 0.22994885E+03</pdfrwt>
<totfact> 0.10315846E+04</totfact>
</mgrwt>
</event>
<event>
 4    1  0.3281630E-004  0.2325062E+03  0.7818608E-02  0.1124888E+00
          1   -1    0    0  501    0  0.00000000000E+00  0.00000000000E+00  0.21087231965E+03  0.21087231971E+03  0.50400000000E-02 0. -1.
         -1   -1    0    0    0  501 -0.00000000000E+00 -0.00000000000E+00 -0.64089874059E+02  0.64089874257E+02  0.50400000000E-02 0.  1.
    5000001    1    1    2    0    0 -0.56899796657E+02  0.59417927642E+02  0.10720832647E+03  0.15553360489E+03  0.77000000000E+02 0.  0.
   -5000001    1    1    2    0    0  0.56899796657E+02 -0.59417927642E+02  0.39574119119E+02  0.11942858908E+03  0.77000000000E+02 0.  0.
<mgrwt>
<rscale>  0 0.23250618E+03</rscale>
<asrwt>0</asrwt>
<pdfrwt beam="1">  1        1 0.30124617E-01 0.23250618E+03</pdfrwt>
<pdfrwt beam="2">  1       -1 0.91556963E-02 0.23250618E+03</pdfrwt>
<totfact> 0.10319067E+04</totfact>
</mgrwt>
</event>
<event>
 4    1  0.3281630E-004  0.2364481E+03  0.7818608E-02  0.1122182E+00
          1   -1    0    0  501    0  0.00000000000E+00  0.00000000000E+00  0.89190813508E+03  0.89190813509E+03  0.50400000000E-02 0. -1.
         -1   -1    0    0    0  501 -0.00000000000E+00 -0.00000000000E+00 -0.15670818440E+02  0.15670819251E+02  0.50400000000E-02 0.  1.
    5000001    1    1    2    0    0 -0.72099645821E+02  0.27193764628E+02  0.61443682188E+03  0.62401880408E+03  0.77000000000E+02 0.  0.
   -5000001    1    1    2    0    0  0.72099645821E+02 -0.27193764628E+02  0.26180049475E+03  0.28356015026E+03  0.77000000000E+02 0.  0.
<mgrwt>
<rscale>  0 0.23644814E+03</rscale>
<asrwt>0</asrwt>
<pdfrwt beam="1">  1        1 0.12741545E+00 0.23644814E+03</pdfrwt>
<pdfrwt beam="2">  1       -1 0.22386883E-02 0.23644814E+03</pdfrwt>
<totfact> 0.12560612E+04</totfact>
</mgrwt>
</event>
<event>
 4    1  0.3281630E-004  0.2062574E+03  0.7818608E-02  0.1144564E+00
         -1   -1    0    0    0  501 -0.00000000000E+00  0.00000000000E+00  0.15919848430E+03  0.15919848438E+03  0.50400000000E-02 0.  1.
          1   -1    0    0  501    0  0.00000000000E+00 -0.00000000000E+00 -0.66806721090E+02  0.66806721280E+02  0.50400000000E-02 0. -1.
    5000001    1    1    2    0    0 -0.57568428699E+02  0.34502993919E+02  0.61767325792E+02  0.11936826675E+03  0.77000000000E+02 0.  0.
   -5000001    1    1    2    0    0  0.57568428699E+02 -0.34502993919E+02  0.30624437418E+02  0.10663693891E+03  0.77000000000E+02 0.  0.
<mgrwt>
<rscale>  0 0.20625740E+03</rscale>
<asrwt>0</asrwt>
<pdfrwt beam="1">  1        1 0.95438174E-02 0.20625740E+03</pdfrwt>
<pdfrwt beam="2">  1       -1 0.22742640E-01 0.20625740E+03</pdfrwt>
<totfact> 0.10815283E+04</totfact>
</mgrwt>
</event>
<event>
 4    1  0.3281630E-004  0.3693477E+03  0.7818608E-02  0.1054943E+00
          1   -1    0    0  501    0  0.00000000000E+00  0.00000000000E+00  0.11623844733E+04  0.11623844733E+04  0.50400000000E-02 0.  1.
         -1   -1    0    0    0  501 -0.00000000000E+00 -0.00000000000E+00 -0.29340052428E+02  0.29340052861E+02  0.50400000000E-02 0. -1.
    5000001    1    1    2    0    0  0.40439891691E+02  0.15981216042E+03  0.66856080407E+03  0.69287651150E+03  0.77000000000E+02 0.  0.
   -5000001    1    1    2    0    0 -0.40439891691E+02 -0.15981216042E+03  0.46448361682E+03  0.49884801468E+03  0.77000000000E+02 0.  0.
<mgrwt>
<rscale>  0 0.36934765E+03</rscale>
<asrwt>0</asrwt>
<pdfrwt beam="1">  1        1 0.16605495E+00 0.36934765E+03</pdfrwt>
<pdfrwt beam="2">  1       -1 0.41914355E-02 0.36934765E+03</pdfrwt>
<totfact> 0.32136504E+03</totfact>
</mgrwt>
</event>
<event>
 4    1  0.3281630E-004  0.2653409E+03  0.7818608E-02  0.1103976E+00
          1   -1    0    0  501    0  0.00000000000E+00  0.00000000000E+00  0.85414748676E+02  0.85414748825E+02  0.50400000000E-02 0. -1.
         -1   -1    0    0    0  501 -0.00000000000E+00 -0.00000000000E+00 -0.20607030026E+03  0.20607030033E+03  0.50400000000E-02 0.  1.
    5000001    1    1    2    0    0  0.79215417547E+02 -0.52897026985E+02 -0.11633414766E+03  0.16892546212E+03  0.77000000000E+02 0.  0.
   -5000001    1    1    2    0    0 -0.79215417547E+02  0.52897026985E+02 -0.43214039282E+01  0.12255958703E+03  0.77000000000E+02 0.  0.
<mgrwt>
<rscale>  0 0.26534086E+03</rscale>
<asrwt>0</asrwt>
<pdfrwt beam="1">  1        1 0.12202107E-01 0.26534086E+03</pdfrwt>
<pdfrwt beam="2">  1       -1 0.29438614E-01 0.26534086E+03</pdfrwt>
<totfact> 0.51346856E+03</totfact>
</mgrwt>
</event>
<event>
 4    1  0.3281630E-004  0.2094866E+03  0.7818608E-02  0.1141973E+00
         -1   -1    0    0    0  501 -0.00000000000E+00  0.00000000000E+00  0.16631224589E+02  0.16631225353E+02  0.50400000000E-02 0. -1.
          1   -1    0    0  501    0  0.00000000000E+00 -0.00000000000E+00 -0.65967212479E+03  0.65967212481E+03  0.50400000000E-02 0.  1.
    5000001    1    1    2    0    0  0.30661672047E+02  0.49209420290E+02 -0.18917829580E+03  0.21231847018E+03  0.77000000000E+02 0.  0.
   -5000001    1    1    2    0    0 -0.30661672047E+02 -0.49209420290E+02 -0.45386260440E+03  0.46398487998E+03  0.77000000000E+02 0.  0.
<mgrwt>
<rscale>  0 0.20948657E+03</rscale>
<asrwt>0</asrwt>
<pdfrwt beam="1">  1        1 0.94238858E-01 0.20948657E+03</pdfrwt>
<pdfrwt beam="2">  1       -1 0.23758897E-02 0.20948657E+03</pdfrwt>
<totfact> 0.17792172E+04</totfact>
</mgrwt>
</event>
<event>
 4    1  0.3281630E-004  0.5917607E+03  0.7818608E-02  0.9922649E-01
          1   -1    0    0  501    0  0.00000000000E+00  0.00000000000E+00  0.41433714888E+03  0.41433714891E+03  0.50400000000E-02 0.  1.
         -1   -1    0    0    0  501 -0.00000000000E+00 -0.00000000000E+00 -0.21128973964E+03  0.21128973970E+03  0.50400000000E-02 0. -1.
    5000001    1    1    2    0    0 -0.24255450922E+03  0.74882018329E+02  0.24008201625E+03  0.35778258920E+03  0.77000000000E+02 0.  0.
   -5000001    1    1    2    0    0  0.24255450922E+03 -0.74882018329E+02 -0.37034607014E+02  0.26784429941E+03  0.77000000000E+02 0.  0.
<mgrwt>
<rscale>  0 0.59176072E+03</rscale>
<asrwt>0</asrwt>
<pdfrwt beam="1">  1        1 0.59191020E-01 0.59176072E+03</pdfrwt>
<pdfrwt beam="2">  1       -1 0.30184249E-01 0.59176072E+03</pdfrwt>
<totfact> 0.64271232E+02</totfact>
</mgrwt>
</event>
<event>
 4    1  0.3281630E-004  0.3080574E+03  0.7818608E-02  0.1081281E+00
         -1   -1    0    0    0  501 -0.00000000000E+00  0.00000000000E+00  0.82578981998E+01  0.82578997378E+01  0.50400000000E-02 0.  1.
          1   -1    0    0  501    0  0.00000000000E+00 -0.00000000000E+00 -0.28729870444E+04  0.28729870444E+04  0.50400000000E-02 0. -1.
    5000001    1    1    2    0    0  0.57392626055E+02  0.10209459713E+03 -0.20296817490E+04  0.20345157219E+04  0.77000000000E+02 0.  0.
   -5000001    1    1    2    0    0 -0.57392626055E+02 -0.10209459713E+03 -0.83504739721E+03  0.84672922228E+03  0.77000000000E+02 0.  0.
<mgrwt>
<rscale>  0 0.30805738E+03</rscale>
<asrwt>0</asrwt>
<pdfrwt beam="1">  1        1 0.41042608E+00 0.30805738E+03</pdfrwt>
<pdfrwt beam="2">  1       -1 0.11797017E-02 0.30805738E+03</pdfrwt>
<totfact> 0.18080188E+03</totfact>
</mgrwt>
</event>
<event>
 4    1  0.3281630E-004  0.2925454E+03  0.7818608E-02  0.1089028E+00
          1   -1    0    0  501    0  0.00000000000E+00  0.00000000000E+00  0.35646579545E+02  0.35646579901E+02  0.50400000000E-02 0.  1.
         -1   -1    0    0    0  501 -0.00000000000E+00 -0.00000000000E+00 -0.60021768578E+03  0.60021768580E+03  0.50400000000E-02 0. -1.
    5000001    1    1    2    0    0  0.12475440164E+02  0.94361063434E+02 -0.10830507670E+03  0.16345836332E+03  0.77000000000E+02 0.  0.
   -5000001    1    1    2    0    0 -0.12475440164E+02 -0.94361063434E+02 -0.45626602954E+03  0.47240590239E+03  0.77000000000E+02 0.  0.
<mgrwt>
<rscale>  0 0.29254543E+03</rscale>
<asrwt>0</asrwt>
<pdfrwt beam="1">  1        1 0.50923689E-02 0.29254543E+03</pdfrwt>
<pdfrwt beam="2">  1       -1 0.85745377E-01 0.29254543E+03</pdfrwt>
<totfact> 0.22884208E+03</totfact>
</mgrwt>
</event>
<event>
 4    1  0.3281630E-004  0.2994453E+03  0.7818608E-02  0.1085518E+00
         -1   -1    0    0    0  501 -0.00000000000E+00  0.00000000000E+00  0.17244046951E+03  0.17244046958E+03  0.50400000000E-02 0. -1.
          1   -1    0    0  501    0  0.00000000000E+00 -0.00000000000E+00 -0.12999777179E+03  0.12999777189E+03  0.50400000000E-02 0.  1.
    5000001    1    1    2    0    0  0.10315160760E+03 -0.75528011150E+02  0.91375631631E+01  0.14952334159E+03  0.77000000000E+02 0.  0.
   -5000001    1    1    2    0    0 -0.10315160760E+03  0.75528011150E+02  0.33305134556E+02  0.15291489989E+03  0.77000000000E+02 0.  0.
<mgrwt>
<rscale>  0 0.29944533E+03</rscale>
<asrwt>0</asrwt>
<pdfrwt beam="1">  1        1 0.18571110E-01 0.29944533E+03</pdfrwt>
<pdfrwt beam="2">  1       -1 0.24634353E-01 0.29944533E+03</pdfrwt>
<totfact> 0.40055461E+03</totfact>
</mgrwt>
</event>
<event>
 4    1  0.3281630E-004  0.1600579E+03  0.7818608E-02  0.1188631E+00
         -1   -1    0    0    0  501 -0.00000000000E+00  0.00000000000E+00  0.23289510497E+03  0.23289510502E+03  0.50400000000E-02 0. -1.
          1   -1    0    0  501    0  0.00000000000E+00 -0.00000000000E+00 -0.27500081547E+02  0.27500082008E+02  0.50400000000E-02 0.  1.
    5000001    1    1    2    0    0 -0.14354935194E+02 -0.40775953453E+01  0.76823275216E+02  0.10978846280E+03  0.77000000000E+02 0.  0.
   -5000001    1    1    2    0    0  0.14354935194E+02  0.40775953453E+01  0.12857174821E+03  0.15060672424E+03  0.77000000000E+02 0.  0.
<mgrwt>
<rscale>  0 0.16005792E+03</rscale>
<asrwt>0</asrwt>
<pdfrwt beam="1">  1        1 0.39285832E-02 0.16005792E+03</pdfrwt>
<pdfrwt beam="2">  1       -1 0.33270729E-01 0.16005792E+03</pdfrwt>
<totfact> 0.18822614E+04</totfact>
</mgrwt>
</event>
<event>
 4    1  0.3281630E-004  0.1958741E+03  0.7818608E-02  0.1153268E+00
          1   -1    0    0  501    0  0.00000000000E+00  0.00000000000E+00  0.17322330917E+02  0.17322331650E+02  0.50400000000E-02 0.  1.
         -1   -1    0    0    0  501 -0.00000000000E+00 -0.00000000000E+00 -0.55371653171E+03  0.55371653173E+03  0.50400000000E-02 0. -1.
    5000001    1    1    2    0    0 -0.43197168405E+02  0.36607737614E+02 -0.20590572970E+03  0.22700724952E+03  0.77000000000E+02 0.  0.
   -5000001    1    1    2    0    0  0.43197168405E+02 -0.36607737614E+02 -0.33048847110E+03  0.34403161387E+03  0.77000000000E+02 0.  0.
<mgrwt>
<rscale>  0 0.19587405E+03</rscale>
<asrwt>0</asrwt>
<pdfrwt beam="1">  1        1 0.24746191E-02 0.19587405E+03</pdfrwt>
<pdfrwt beam="2">  1       -1 0.79102351E-01 0.19587405E+03</pdfrwt>
<totfact> 0.72874713E+03</totfact>
</mgrwt>
</event>
<event>
 4    1  0.3281630E-004  0.3435597E+03  0.7818608E-02  0.1065290E+00
          1   -1    0    0  501    0  0.00000000000E+00  0.00000000000E+00  0.11182116260E+04  0.11182116260E+04  0.50400000000E-02 0.  1.
         -1   -1    0    0    0  501 -0.00000000000E+00 -0.00000000000E+00 -0.26388846069E+02  0.26388846550E+02  0.50400000000E-02 0. -1.
    5000001    1    1    2    0    0  0.25173591644E+02  0.15086185039E+03  0.50043704375E+03  0.52892271871E+03  0.77000000000E+02 0.  0.
   -5000001    1    1    2    0    0 -0.25173591644E+02 -0.15086185039E+03  0.59138573620E+03  0.61567775386E+03  0.77000000000E+02 0.  0.
<mgrwt>
<rscale>  0 0.34355969E+03</rscale>
<asrwt>0</asrwt>
<pdfrwt beam="1">  1        1 0.15974450E+00 0.34355969E+03</pdfrwt>
<pdfrwt beam="2">  1       -1 0.37698356E-02 0.34355969E+03</pdfrwt>
<totfact> 0.40368416E+03</totfact>
</mgrwt>
</event>
<event>
 4    1  0.3281630E-004  0.1758210E+03  0.7818608E-02  0.1171910E+00
          1   -1    0    0  501    0  0.00000000000E+00  0.00000000000E+00  0.22368716594E+02  0.22368717161E+02  0.50400000000E-02 0.  1.
         -1   -1    0    0    0  501 -0.00000000000E+00 -0.00000000000E+00 -0.34549383266E+03  0.34549383270E+03  0.50400000000E-02 0. -1.
    5000001    1    1    2    0    0  0.87555002162E+01  0.29543847480E+02 -0.22255303400E+03  0.23750442238E+03  0.77000000000E+02 0.  0.
   -5000001    1    1    2    0    0 -0.87555002162E+01 -0.29543847480E+02 -0.10057208206E+03  0.13035812747E+03  0.77000000000E+02 0.  0.
<mgrwt>
<rscale>  0 0.17582097E+03</rscale>
<asrwt>0</asrwt>
<pdfrwt beam="1">  1        1 0.31955312E-02 0.17582097E+03</pdfrwt>
<pdfrwt beam="2">  1       -1 0.49356259E-01 0.17582097E+03</pdfrwt>
<totfact> 0.12594315E+04</totfact>
</mgrwt>
</event>
<event>
 4    1  0.3281630E-004  0.1746323E+03  0.7818608E-02  0.1173101E+00
         -1   -1    0    0    0  501 -0.00000000000E+00  0.00000000000E+00  0.27445419384E+03  0.27445419388E+03  0.50400000000E-02 0. -1.
          1   -1    0    0  501    0  0.00000000000E+00 -0.00000000000E+00 -0.27779178420E+02  0.27779178877E+02  0.50400000000E-02 0.  1.
    5000001    1    1    2    0    0  0.19727186449E+02  0.36037994254E+02  0.11868934673E+03  0.14732297832E+03  0.77000000000E+02 0.  0.
   -5000001    1    1    2    0    0 -0.19727186449E+02 -0.36037994254E+02  0.12798566869E+03  0.15491039444E+03  0.77000000000E+02 0.  0.
<mgrwt>
<rscale>  0 0.17463232E+03</rscale>
<asrwt>0</asrwt>
<pdfrwt beam="1">  1        1 0.39684542E-02 0.17463232E+03</pdfrwt>
<pdfrwt beam="2">  1       -1 0.39207741E-01 0.17463232E+03</pdfrwt>
<totfact> 0.14076876E+04</totfact>
</mgrwt>
</event>
<event>
 4    1  0.3281630E-004  0.3873185E+03  0.7818608E-02  0.1048261E+00
         -1   -1    0    0    0  501 -0.00000000000E+00  0.00000000000E+00  0.15174653748E+03  0.15174653756E+03  0.50400000000E-02 0.  1.
          1   -1    0    0  501    0  0.00000000000E+00 -0.00000000000E+00 -0.24714832402E+03  0.24714832407E+03  0.50400000000E-02 0. -1.
    5000001    1    1    2    0    0 -0.80340842297E+02  0.15827684582E+03 -0.56236648557E+02  0.20148888681E+03  0.77000000000E+02 0.  0.
   -5000001    1    1    2    0    0  0.80340842297E+02 -0.15827684582E+03 -0.39165137985E+02  0.19740597483E+03  0.77000000000E+02 0.  0.
<mgrwt>
<rscale>  0 0.38731849E+03</rscale>
<asrwt>0</asrwt>
<pdfrwt beam="1">  1        1 0.35306903E-01 0.38731849E+03</pdfrwt>
<pdfrwt beam="2">  1       -1 0.21678077E-01 0.38731849E+03</pdfrwt>
<totfact> 0.21856870E+03</totfact>
</mgrwt>
</event>
<event>
 4    1  0.3281630E-004  0.1926105E+03  0.7818608E-02  0.1156128E+00
         -1   -1    0    0    0  501 -0.00000000000E+00  0.00000000000E+00  0.28521163529E+01  0.28521208060E+01  0.50400000000E-02 0. -1.
          1   -1    0    0  501    0  0.00000000000E+00 -0.00000000000E+00 -0.32518621694E+04  0.32518621694E+04  0.50400000000E-02 0.  1.
    5000001    1    1    2    0    0  0.30258656413E+02  0.25015064234E+02 -0.90672026999E+03  0.91083038363E+03  0.77000000000E+02 0.  0.
   -5000001    1    1    2    0    0 -0.30258656413E+02 -0.25015064234E+02 -0.23422897830E+04  0.23438839066E+04  0.77000000000E+02 0.  0.
<mgrwt>
<rscale>  0 0.19261045E+03</rscale>
<asrwt>0</asrwt>
<pdfrwt beam="1">  1        1 0.46454936E+00 0.19261045E+03</pdfrwt>
<pdfrwt beam="2">  1       -1 0.40744760E-03 0.19261045E+03</pdfrwt>
<totfact> 0.48038158E+03</totfact>
</mgrwt>
</event>
<event>
 4    1  0.3281630E-004  0.1646972E+03  0.7818608E-02  0.1183493E+00
          1   -1    0    0  501    0  0.00000000000E+00  0.00000000000E+00  0.66587006651E+02  0.66587006842E+02  0.50400000000E-02 0.  1.
         -1   -1    0    0    0  501 -0.00000000000E+00 -0.00000000000E+00 -0.10184107325E+03  0.10184107338E+03  0.50400000000E-02 0. -1.
    5000001    1    1    2    0    0 -0.16310022654E+02  0.22975826203E+02 -0.25441254188E+02  0.85849652552E+02  0.77000000000E+02 0.  0.
   -5000001    1    1    2    0    0  0.16310022654E+02 -0.22975826203E+02 -0.98128124156E+01  0.82578427668E+02  0.77000000000E+02 0.  0.
<mgrwt>
<rscale>  0 0.16469720E+03</rscale>
<asrwt>0</asrwt>
<pdfrwt beam="1">  1        1 0.95124296E-02 0.16469720E+03</pdfrwt>
<pdfrwt beam="2">  1       -1 0.14548725E-01 0.16469720E+03</pdfrwt>
<totfact> 0.21825441E+04</totfact>
</mgrwt>
</event>
<event>
 4    1  0.3281630E-004  0.2140819E+03  0.7818608E-02  0.1138374E+00
         -1   -1    0    0    0  501 -0.00000000000E+00  0.00000000000E+00  0.12066265019E+02  0.12066266072E+02  0.50400000000E-02 0. -1.
          1   -1    0    0  501    0  0.00000000000E+00 -0.00000000000E+00 -0.94956966297E+03  0.94956966298E+03  0.50400000000E-02 0.  1.
    5000001    1    1    2    0    0 -0.36937019218E+02  0.42126177850E+02 -0.68834128624E+03  0.69489688774E+03  0.77000000000E+02 0.  0.
   -5000001    1    1    2    0    0  0.36937019218E+02 -0.42126177850E+02 -0.24916211170E+03  0.26673904131E+03  0.77000000000E+02 0.  0.
<mgrwt>
<rscale>  0 0.21408185E+03</rscale>
<asrwt>0</asrwt>
<pdfrwt beam="1">  1        1 0.13565276E+00 0.21408185E+03</pdfrwt>
<pdfrwt beam="2">  1       -1 0.17237528E-02 0.21408185E+03</pdfrwt>
<totfact> 0.16565239E+04</totfact>
</mgrwt>
</event>
<event>
 4    1  0.3281630E-004  0.2586923E+03  0.7818608E-02  0.1107931E+00
         -1   -1    0    0    0  501 -0.00000000000E+00  0.00000000000E+00  0.10507059267E+02  0.10507060476E+02  0.50400000000E-02 0. -1.
          1   -1    0    0  501    0  0.00000000000E+00 -0.00000000000E+00 -0.15923029357E+04  0.15923029358E+04  0.50400000000E-02 0.  1.
    5000001    1    1    2    0    0 -0.10044423940E+02  0.91348269698E+02 -0.10916361306E+04  0.10982002725E+04  0.77000000000E+02 0.  0.
   -5000001    1    1    2    0    0  0.10044423940E+02 -0.91348269698E+02 -0.49015974587E+03  0.50460972374E+03  0.77000000000E+02 0.  0.
<mgrwt>
<rscale>  0 0.25869227E+03</rscale>
<asrwt>0</asrwt>
<pdfrwt beam="1">  1        1 0.22747169E+00 0.25869227E+03</pdfrwt>
<pdfrwt beam="2">  1       -1 0.15010096E-02 0.25869227E+03</pdfrwt>
<totfact> 0.77031641E+03</totfact>
</mgrwt>
</event>
<event>
 4    1  0.3281630E-004  0.1575928E+03  0.7818608E-02  0.1191442E+00
          1   -1    0    0  501    0  0.00000000000E+00  0.00000000000E+00  0.48469495701E+02  0.48469495964E+02  0.50400000000E-02 0. -1.
         -1   -1    0    0    0  501 -0.00000000000E+00 -0.00000000000E+00 -0.12809859586E+03  0.12809859596E+03  0.50400000000E-02 0.  1.
    5000001    1    1    2    0    0 -0.98307054471E+01  0.66325155612E+01 -0.26593684476E+02  0.82321668389E+02  0.77000000000E+02 0.  0.
   -5000001    1    1    2    0    0  0.98307054471E+01 -0.66325155612E+01 -0.53035415681E+02  0.94246423533E+02  0.77000000000E+02 0.  0.
<mgrwt>
<rscale>  0 0.15759282E+03</rscale>
<asrwt>0</asrwt>
<pdfrwt beam="1">  1        1 0.69242138E-02 0.15759282E+03</pdfrwt>
<pdfrwt beam="2">  1       -1 0.18299799E-01 0.15759282E+03</pdfrwt>
<totfact> 0.23170630E+04</totfact>
</mgrwt>
</event>
<event>
 4    1  0.3281630E-004  0.2193982E+03  0.7818608E-02  0.1134333E+00
         -1   -1    0    0    0  501 -0.00000000000E+00  0.00000000000E+00  0.17859628453E+02  0.17859629164E+02  0.50400000000E-02 0. -1.
          1   -1    0    0  501    0  0.00000000000E+00 -0.00000000000E+00 -0.67380417799E+03  0.67380417801E+03  0.50400000000E-02 0.  1.
    5000001    1    1    2    0    0 -0.17506980639E+01 -0.69461355556E+02 -0.21531777598E+03  0.23899516630E+03  0.77000000000E+02 0.  0.
   -5000001    1    1    2    0    0  0.17506980639E+01  0.69461355556E+02 -0.44062677355E+03  0.45266864087E+03  0.77000000000E+02 0.  0.
<mgrwt>
<rscale>  0 0.21939820E+03</rscale>
<asrwt>0</asrwt>
<pdfrwt beam="1">  1        1 0.96257724E-01 0.21939820E+03</pdfrwt>
<pdfrwt beam="2">  1       -1 0.25513760E-02 0.21939820E+03</pdfrwt>
<totfact> 0.15609563E+04</totfact>
</mgrwt>
</event>
<event>
 4    1  0.3281630E-004  0.2465151E+03  0.7818608E-02  0.1115527E+00
          1   -1    0    0  501    0  0.00000000000E+00  0.00000000000E+00  0.31464917266E+03  0.31464917270E+03  0.50400000000E-02 0.  1.
         -1   -1    0    0    0  501 -0.00000000000E+00 -0.00000000000E+00 -0.48283683887E+02  0.48283684150E+02  0.50400000000E-02 0. -1.
    5000001    1    1    2    0    0 -0.86863620221E+02  0.30564103669E+02  0.91960461079E+02  0.15121236508E+03  0.77000000000E+02 0.  0.
   -5000001    1    1    2    0    0  0.86863620221E+02 -0.30564103669E+02  0.17440502770E+03  0.21172049177E+03  0.77000000000E+02 0.  0.
<mgrwt>
<rscale>  0 0.24651508E+03</rscale>
<asrwt>0</asrwt>
<pdfrwt beam="1">  1        1 0.44949883E-01 0.24651508E+03</pdfrwt>
<pdfrwt beam="2">  1       -1 0.68976689E-02 0.24651508E+03</pdfrwt>
<totfact> 0.96489238E+03</totfact>
</mgrwt>
</event>
<event>
 4    1  0.3281630E-004  0.2632683E+03  0.7818608E-02  0.1105195E+00
         -1   -1    0    0    0  501 -0.00000000000E+00  0.00000000000E+00  0.56922830961E+03  0.56922830963E+03  0.50400000000E-02 0. -1.
          1   -1    0    0  501    0  0.00000000000E+00 -0.00000000000E+00 -0.30440428628E+02  0.30440429045E+02  0.50400000000E-02 0.  1.
    5000001    1    1    2    0    0  0.94023575049E+02 -0.18178941259E+02  0.37690075645E+03  0.39642664742E+03  0.77000000000E+02 0.  0.
   -5000001    1    1    2    0    0 -0.94023575049E+02  0.18178941259E+02  0.16188712453E+03  0.20324209126E+03  0.77000000000E+02 0.  0.
<mgrwt>
<rscale>  0 0.26326833E+03</rscale>
<asrwt>0</asrwt>
<pdfrwt beam="1">  1        1 0.43486325E-02 0.26326833E+03</pdfrwt>
<pdfrwt beam="2">  1       -1 0.81318333E-01 0.26326833E+03</pdfrwt>
<totfact> 0.31765129E+03</totfact>
</mgrwt>
</event>
<event>
 4    1  0.3281630E-004  0.2408651E+03  0.7818608E-02  0.1119218E+00
          1   -1    0    0  501    0  0.00000000000E+00  0.00000000000E+00  0.12087044013E+04  0.12087044013E+04  0.50400000000E-02 0.  1.
         -1   -1    0    0    0  501 -0.00000000000E+00 -0.00000000000E+00 -0.11999621635E+02  0.11999622694E+02  0.50400000000E-02 0. -1.
    5000001    1    1    2    0    0 -0.23303106423E+02 -0.81351363655E+02  0.40778503717E+03  0.42353124522E+03  0.77000000000E+02 0.  0.
   -5000001    1    1    2    0    0  0.23303106423E+02  0.81351363655E+02  0.78891974251E+03  0.79717277880E+03  0.77000000000E+02 0.  0.
<mgrwt>
<rscale>  0 0.24086508E+03</rscale>
<asrwt>0</asrwt>
<pdfrwt beam="1">  1        1 0.17267213E+00 0.24086508E+03</pdfrwt>
<pdfrwt beam="2">  1       -1 0.17142310E-02 0.24086508E+03</pdfrwt>
<totfact> 0.11105329E+04</totfact>
</mgrwt>
</event>
<event>
 4    1  0.3281630E-004  0.2467692E+03  0.7818608E-02  0.1115364E+00
         -1   -1    0    0    0  501 -0.00000000000E+00  0.00000000000E+00  0.30488076754E+02  0.30488077171E+02  0.50400000000E-02 0. -1.
          1   -1    0    0  501    0  0.00000000000E+00 -0.00000000000E+00 -0.49933489872E+03  0.49933489874E+03  0.50400000000E-02 0.  1.
    5000001    1    1    2    0    0 -0.67525022912E+02 -0.57713609415E+02 -0.31488069014E+03  0.33610911689E+03  0.77000000000E+02 0.  0.
   -5000001    1    1    2    0    0  0.67525022912E+02  0.57713609415E+02 -0.15396613182E+03  0.19371385903E+03  0.77000000000E+02 0.  0.
<mgrwt>
<rscale>  0 0.24676921E+03</rscale>
<asrwt>0</asrwt>
<pdfrwt beam="1">  1        1 0.71333552E-01 0.24676921E+03</pdfrwt>
<pdfrwt beam="2">  1       -1 0.43554399E-02 0.24676921E+03</pdfrwt>
<totfact> 0.10685230E+04</totfact>
</mgrwt>
</event>
<event>
 4    1  0.3281630E-004  0.2633729E+03  0.7818608E-02  0.1105133E+00
          1   -1    0    0  501    0  0.00000000000E+00  0.00000000000E+00  0.23491660611E+02  0.23491661152E+02  0.50400000000E-02 0. -1.
         -1   -1    0    0    0  501 -0.00000000000E+00 -0.00000000000E+00 -0.73819070092E+03  0.73819070094E+03  0.50400000000E-02 0.  1.
    5000001    1    1    2    0    0  0.21956660728E+02 -0.86820262452E+02 -0.52579561133E+03  0.53889690834E+03  0.77000000000E+02 0.  0.
   -5000001    1    1    2    0    0 -0.21956660728E+02  0.86820262452E+02 -0.18890342898E+03  0.22278545375E+03  0.77000000000E+02 0.  0.
<mgrwt>
<rscale>  0 0.26337293E+03</rscale>
<asrwt>0</asrwt>
<pdfrwt beam="1">  1        1 0.33559520E-02 0.26337293E+03</pdfrwt>
<pdfrwt beam="2">  1       -1 0.10545580E+00 0.26337293E+03</pdfrwt>
<totfact> 0.25940622E+03</totfact>
</mgrwt>
</event>
<event>
 4    1  0.3281630E-004  0.1805400E+03  0.7818608E-02  0.1167281E+00
         -1   -1    0    0    0  501 -0.00000000000E+00  0.00000000000E+00  0.19248593657E+03  0.19248593664E+03  0.50400000000E-02 0. -1.
          1   -1    0    0  501    0  0.00000000000E+00 -0.00000000000E+00 -0.42333877893E+02  0.42333878193E+02  0.50400000000E-02 0.  1.
    5000001    1    1    2    0    0  0.30726758098E+02 -0.26240961300E+02  0.10658711897E+03  0.13755920777E+03  0.77000000000E+02 0.  0.
   -5000001    1    1    2    0    0 -0.30726758098E+02  0.26240961300E+02  0.43564939711E+02  0.97260607057E+02  0.77000000000E+02 0.  0.
<mgrwt>
<rscale>  0 0.18054004E+03</rscale>
<asrwt>0</asrwt>
<pdfrwt beam="1">  1        1 0.60476969E-02 0.18054004E+03</pdfrwt>
<pdfrwt beam="2">  1       -1 0.27497991E-01 0.18054004E+03</pdfrwt>
<totfact> 0.14508144E+04</totfact>
</mgrwt>
</event>
<event>
 4    1  0.3281630E-004  0.4158317E+03  0.7818608E-02  0.1038432E+00
         -1   -1    0    0    0  501 -0.00000000000E+00  0.00000000000E+00  0.26330126607E+03  0.26330126612E+03  0.50400000000E-02 0. -1.
          1   -1    0    0  501    0  0.00000000000E+00 -0.00000000000E+00 -0.16418074319E+03  0.16418074327E+03  0.50400000000E-02 0.  1.
    5000001    1    1    2    0    0  0.38268202714E+02 -0.18618778983E+03  0.84718577735E+02  0.22189318564E+03  0.77000000000E+02 0.  0.
   -5000001    1    1    2    0    0 -0.38268202714E+02  0.18618778983E+03  0.14401945145E+02  0.20558882374E+03  0.77000000000E+02 0.  0.
<mgrwt>
<rscale>  0 0.41583169E+03</rscale>
<asrwt>0</asrwt>
<pdfrwt beam="1">  1        1 0.23454392E-01 0.41583169E+03</pdfrwt>
<pdfrwt beam="2">  1       -1 0.37614467E-01 0.41583169E+03</pdfrwt>
<totfact> 0.14391434E+03</totfact>
</mgrwt>
</event>
<event>
 4    1  0.3281630E-004  0.2261581E+03  0.7818608E-02  0.1129373E+00
          1   -1    0    0  501    0  0.00000000000E+00  0.00000000000E+00  0.13439255584E+04  0.13439255584E+04  0.50400000000E-02 0.  1.
         -1   -1    0    0    0  501 -0.00000000000E+00 -0.00000000000E+00 -0.95145712005E+01  0.95145725354E+01  0.50400000000E-02 0. -1.
    5000001    1    1    2    0    0 -0.89520695745E+01 -0.67200544532E+02  0.95181944584E+03  0.95733239275E+03  0.77000000000E+02 0.  0.
   -5000001    1    1    2    0    0  0.89520695745E+01  0.67200544532E+02  0.38259154134E+03  0.39610773818E+03  0.77000000000E+02 0.  0.
<mgrwt>
<rscale>  0 0.22615814E+03</rscale>
<asrwt>0</asrwt>
<pdfrwt beam="1">  1        1 0.19198914E+00 0.22615814E+03</pdfrwt>
<pdfrwt beam="2">  1       -1 0.13592261E-02 0.22615814E+03</pdfrwt>
<totfact> 0.12672013E+04</totfact>
</mgrwt>
</event>
<event>
 4    1  0.3281630E-004  0.4808119E+03  0.7818608E-02  0.1018912E+00
          1   -1    0    0  501    0  0.00000000000E+00  0.00000000000E+00  0.13850403985E+04  0.13850403985E+04  0.50400000000E-02 0. -1.
         -1   -1    0    0    0  501 -0.00000000000E+00 -0.00000000000E+00 -0.41728033631E+02  0.41728033935E+02  0.50400000000E-02 0.  1.
    5000001    1    1    2    0    0 -0.14107899232E+03  0.17877052881E+03  0.67746239507E+03  0.71885080565E+03  0.77000000000E+02 0.  0.
   -5000001    1    1    2    0    0  0.14107899232E+03 -0.17877052881E+03  0.66584996976E+03  0.70791762676E+03  0.77000000000E+02 0.  0.
<mgrwt>
<rscale>  0 0.48081187E+03</rscale>
<asrwt>0</asrwt>
<pdfrwt beam="1">  1        1 0.19786290E+00 0.48081187E+03</pdfrwt>
<pdfrwt beam="2">  1       -1 0.59611481E-02 0.48081187E+03</pdfrwt>
<totfact> 0.13381874E+03</totfact>
</mgrwt>
</event>
<event>
 4    1  0.3281630E-004  0.1782426E+03  0.7818608E-02  0.1169515E+00
         -1   -1    0    0    0  501 -0.00000000000E+00  0.00000000000E+00  0.56155714821E+01  0.56155737438E+01  0.50400000000E-02 0.  1.
          1   -1    0    0  501    0  0.00000000000E+00 -0.00000000000E+00 -0.14143896418E+04  0.14143896418E+04  0.50400000000E-02 0. -1.
    5000001    1    1    2    0    0 -0.27619582971E+02  0.31046410333E+02 -0.56944922355E+03  0.57613205011E+03  0.77000000000E+02 0.  0.
   -5000001    1    1    2    0    0  0.27619582971E+02 -0.31046410333E+02 -0.83932484672E+03  0.84387316540E+03  0.77000000000E+02 0.  0.
<mgrwt>
<rscale>  0 0.17824262E+03</rscale>
<asrwt>0</asrwt>
<pdfrwt beam="1">  1        1 0.20205544E+00 0.17824262E+03</pdfrwt>
<pdfrwt beam="2">  1       -1 0.80222556E-03 0.17824262E+03</pdfrwt>
<totfact> 0.24117043E+04</totfact>
</mgrwt>
</event>
<event>
 4    1  0.3281630E-004  0.1983752E+03  0.7818608E-02  0.1151117E+00
         -1   -1    0    0    0  501 -0.00000000000E+00  0.00000000000E+00  0.10319890619E+03  0.10319890631E+03  0.50400000000E-02 0.  1.
          1   -1    0    0  501    0  0.00000000000E+00 -0.00000000000E+00 -0.95332210458E+02  0.95332210591E+02  0.50400000000E-02 0. -1.
    5000001    1    1    2    0    0 -0.30997708479E+02 -0.54215960840E+02  0.93908577592E+00  0.99146912321E+02  0.77000000000E+02 0.  0.
   -5000001    1    1    2    0    0  0.30997708479E+02  0.54215960840E+02  0.69276099564E+01  0.99384204582E+02  0.77000000000E+02 0.  0.
<mgrwt>
<rscale>  0 0.19837520E+03</rscale>
<asrwt>0</asrwt>
<pdfrwt beam="1">  1        1 0.13618887E-01 0.19837520E+03</pdfrwt>
<pdfrwt beam="2">  1       -1 0.14742701E-01 0.19837520E+03</pdfrwt>
<totfact> 0.13498059E+04</totfact>
</mgrwt>
</event>
<event>
 4    1  0.3281630E-004  0.3362211E+03  0.7818608E-02  0.1068417E+00
         -1   -1    0    0    0  501 -0.00000000000E+00  0.00000000000E+00  0.17050262185E+02  0.17050262930E+02  0.50400000000E-02 0. -1.
          1   -1    0    0  501    0  0.00000000000E+00 -0.00000000000E+00 -0.16575207853E+04  0.16575207853E+04  0.50400000000E-02 0.  1.
    5000001    1    1    2    0    0  0.10011697578E+03 -0.63326518223E+02 -0.12739454795E+04  0.12817565063E+04  0.77000000000E+02 0.  0.
   -5000001    1    1    2    0    0 -0.10011697578E+03  0.63326518223E+02 -0.36652504366E+03  0.39281454196E+03  0.77000000000E+02 0.  0.
<mgrwt>
<rscale>  0 0.33622115E+03</rscale>
<asrwt>0</asrwt>
<pdfrwt beam="1">  1        1 0.23678858E+00 0.33622115E+03</pdfrwt>
<pdfrwt beam="2">  1       -1 0.24357528E-02 0.33622115E+03</pdfrwt>
<totfact> 0.34643202E+03</totfact>
</mgrwt>
</event>
<event>
 4    1  0.3281630E-004  0.1959650E+03  0.7818608E-02  0.1153189E+00
          1   -1    0    0  501    0  0.00000000000E+00  0.00000000000E+00  0.65268257116E+03  0.65268257118E+03  0.50400000000E-02 0.  1.
         -1   -1    0    0    0  501 -0.00000000000E+00 -0.00000000000E+00 -0.14709408407E+02  0.14709409270E+02  0.50400000000E-02 0. -1.
    5000001    1    1    2    0    0 -0.42354019687E+02 -0.17341092773E+02  0.18374258838E+03  0.20441358875E+03  0.77000000000E+02 0.  0.
   -5000001    1    1    2    0    0  0.42354019687E+02  0.17341092773E+02  0.45423057438E+03  0.46297839170E+03  0.77000000000E+02 0.  0.
<mgrwt>
<rscale>  0 0.19596505E+03</rscale>
<asrwt>0</asrwt>
<pdfrwt beam="1">  1        1 0.93240395E-01 0.19596505E+03</pdfrwt>
<pdfrwt beam="2">  1       -1 0.21013435E-02 0.19596505E+03</pdfrwt>
<totfact> 0.21498707E+04</totfact>
</mgrwt>
</event>
<event>
 4    1  0.3281630E-004  0.2362587E+03  0.7818608E-02  0.1122311E+00
         -1   -1    0    0    0  501 -0.00000000000E+00  0.00000000000E+00  0.14312706540E+02  0.14312707427E+02  0.50400000000E-02 0.  1.
          1   -1    0    0  501    0  0.00000000000E+00 -0.00000000000E+00 -0.97497585987E+03  0.97497585988E+03  0.50400000000E-02 0. -1.
    5000001    1    1    2    0    0 -0.36074250433E+02 -0.80239643333E+02 -0.55111965683E+03  0.56338408573E+03  0.77000000000E+02 0.  0.
   -5000001    1    1    2    0    0  0.36074250433E+02  0.80239643333E+02 -0.40954349650E+03  0.42590448158E+03  0.77000000000E+02 0.  0.
<mgrwt>
<rscale>  0 0.23625870E+03</rscale>
<asrwt>0</asrwt>
<pdfrwt beam="1">  1        1 0.13928222E+00 0.23625870E+03</pdfrwt>
<pdfrwt beam="2">  1       -1 0.20446730E-02 0.23625870E+03</pdfrwt>
<totfact> 0.12443883E+04</totfact>
</mgrwt>
</event>
<event>
 4    1  0.3281630E-004  0.1941019E+03  0.7818608E-02  0.1154813E+00
         -1   -1    0    0    0  501 -0.00000000000E+00  0.00000000000E+00  0.14990202497E+02  0.14990203344E+02  0.50400000000E-02 0. -1.
          1   -1    0    0  501    0  0.00000000000E+00 -0.00000000000E+00 -0.62833615443E+03  0.62833615445E+03  0.50400000000E-02 0.  1.
    5000001    1    1    2    0    0 -0.24738143867E+00 -0.46020346315E+02 -0.42943701962E+03  0.43870615142E+03  0.77000000000E+02 0.  0.
   -5000001    1    1    2    0    0  0.24738143867E+00  0.46020346315E+02 -0.18390893231E+03  0.20462020638E+03  0.77000000000E+02 0.  0.
<mgrwt>
<rscale>  0 0.19410190E+03</rscale>
<asrwt>0</asrwt>
<pdfrwt beam="1">  1        1 0.89762291E-01 0.19410190E+03</pdfrwt>
<pdfrwt beam="2">  1       -1 0.21414580E-02 0.19410190E+03</pdfrwt>
<totfact> 0.22021201E+04</totfact>
</mgrwt>
</event>
<event>
 4    1  0.3281630E-004  0.2791597E+03  0.7818608E-02  0.1096149E+00
          1   -1    0    0  501    0  0.00000000000E+00  0.00000000000E+00  0.28612346847E+02  0.28612347291E+02  0.50400000000E-02 0. -1.
         -1   -1    0    0    0  501 -0.00000000000E+00 -0.00000000000E+00 -0.68091333713E+03  0.68091333715E+03  0.50400000000E-02 0.  1.
    5000001    1    1    2    0    0 -0.64539914487E+01 -0.77803791576E+02 -0.54565306104E+03  0.55656207831E+03  0.77000000000E+02 0.  0.
   -5000001    1    1    2    0    0  0.64539914487E+01  0.77803791576E+02 -0.10664792925E+03  0.15296360614E+03  0.77000000000E+02 0.  0.
<mgrwt>
<rscale>  0 0.27915966E+03</rscale>
<asrwt>0</asrwt>
<pdfrwt beam="1">  1        1 0.40874786E-02 0.27915966E+03</pdfrwt>
<pdfrwt beam="2">  1       -1 0.97273323E-01 0.27915966E+03</pdfrwt>
<totfact> 0.23631078E+03</totfact>
</mgrwt>
</event>
<event>
 4    1  0.3281630E-004  0.2888654E+03  0.7818608E-02  0.1090943E+00
         -1   -1    0    0    0  501 -0.00000000000E+00  0.00000000000E+00  0.93194137842E+03  0.93194137843E+03  0.50400000000E-02 0. -1.
          1   -1    0    0  501    0  0.00000000000E+00 -0.00000000000E+00 -0.22384246597E+02  0.22384247164E+02  0.50400000000E-02 0.  1.
    5000001    1    1    2    0    0 -0.64533195731E+02 -0.70333103462E+02  0.70682595736E+03  0.71738637623E+03  0.77000000000E+02 0.  0.
   -5000001    1    1    2    0    0  0.64533195731E+02  0.70333103462E+02  0.20273117446E+03  0.23693924937E+03  0.77000000000E+02 0.  0.
<mgrwt>
<rscale>  0 0.28886541E+03</rscale>
<asrwt>0</asrwt>
<pdfrwt beam="1">  1        1 0.31977498E-02 0.28886541E+03</pdfrwt>
<pdfrwt beam="2">  1       -1 0.13313447E+00 0.28886541E+03</pdfrwt>
<totfact> 0.16000436E+03</totfact>
</mgrwt>
</event>
<event>
 4    1  0.3281630E-004  0.6883066E+03  0.7818608E-02  0.9737441E-01
         -1   -1    0    0    0  501 -0.00000000000E+00  0.00000000000E+00  0.79441847716E+02  0.79441847876E+02  0.50400000000E-02 0.  1.
          1   -1    0    0  501    0  0.00000000000E+00 -0.00000000000E+00 -0.14909207611E+04  0.14909207611E+04  0.50400000000E-02 0. -1.
    5000001    1    1    2    0    0  0.12894510365E+03  0.27159293278E+03 -0.36639605081E+03  0.48017145577E+03  0.77000000000E+02 0.  0.
   -5000001    1    1    2    0    0 -0.12894510365E+03 -0.27159293278E+03 -0.10450828626E+04  0.10901911532E+04  0.77000000000E+02 0.  0.
<mgrwt>
<rscale>  0 0.68830662E+03</rscale>
<asrwt>0</asrwt>
<pdfrwt beam="1">  1        1 0.21298866E+00 0.68830662E+03</pdfrwt>
<pdfrwt beam="2">  1       -1 0.11348836E-01 0.68830662E+03</pdfrwt>
<totfact> 0.41419474E+02</totfact>
</mgrwt>
</event>
<event>
 4    1  0.3281630E-004  0.2540400E+03  0.7818608E-02  0.1110778E+00
         -1   -1    0    0    0  501 -0.00000000000E+00  0.00000000000E+00  0.13148848895E+02  0.13148849861E+02  0.50400000000E-02 0. -1.
          1   -1    0    0  501    0  0.00000000000E+00 -0.00000000000E+00 -0.12270339193E+04  0.12270339193E+04  0.50400000000E-02 0.  1.
    5000001    1    1    2    0    0  0.96427070569E+02  0.19202894456E+02 -0.72019207951E+03  0.73093950672E+03  0.77000000000E+02 0.  0.
   -5000001    1    1    2    0    0 -0.96427070569E+02 -0.19202894456E+02 -0.49369299087E+03  0.50924326243E+03  0.77000000000E+02 0.  0.
<mgrwt>
<rscale>  0 0.25404003E+03</rscale>
<asrwt>0</asrwt>
<pdfrwt beam="1">  1        1 0.17529049E+00 0.25404003E+03</pdfrwt>
<pdfrwt beam="2">  1       -1 0.18784078E-02 0.25404003E+03</pdfrwt>
<totfact> 0.94701594E+03</totfact>
</mgrwt>
</event>
<event>
 4    1  0.3281630E-004  0.2604145E+03  0.7818608E-02  0.1106894E+00
          1   -1    0    0  501    0  0.00000000000E+00  0.00000000000E+00  0.30188122263E+04  0.30188122263E+04  0.50400000000E-02 0. -1.
         -1   -1    0    0    0  501 -0.00000000000E+00 -0.00000000000E+00 -0.56160909282E+01  0.56160931897E+01  0.50400000000E-02 0.  1.
    5000001    1    1    2    0    0 -0.71688848948E+02  0.16158775715E+02  0.63559181867E+03  0.64444267166E+03  0.77000000000E+02 0.  0.
   -5000001    1    1    2    0    0  0.71688848948E+02 -0.16158775715E+02  0.23776043167E+04  0.23799856478E+04  0.77000000000E+02 0.  0.
<mgrwt>
<rscale>  0 0.26041450E+03</rscale>
<asrwt>0</asrwt>
<pdfrwt beam="1">  1        1 0.43125820E+00 0.26041450E+03</pdfrwt>
<pdfrwt beam="2">  1       -1 0.80230015E-03 0.26041450E+03</pdfrwt>
<totfact> 0.25643245E+03</totfact>
</mgrwt>
</event>
<event>
 4    1  0.3281630E-004  0.1788851E+03  0.7818608E-02  0.1168886E+00
         -1   -1    0    0    0  501 -0.00000000000E+00  0.00000000000E+00  0.19674083745E+03  0.19674083751E+03  0.50400000000E-02 0. -1.
          1   -1    0    0  501    0  0.00000000000E+00 -0.00000000000E+00 -0.40662459996E+02  0.40662460308E+02  0.50400000000E-02 0.  1.
    5000001    1    1    2    0    0  0.17550730413E+02  0.38873285245E+02  0.99098576133E+02  0.13254692843E+03  0.77000000000E+02 0.  0.
   -5000001    1    1    2    0    0 -0.17550730413E+02 -0.38873285245E+02  0.56979801316E+02  0.10485636939E+03  0.77000000000E+02 0.  0.
<mgrwt>
<rscale>  0 0.17888506E+03</rscale>
<asrwt>0</asrwt>
<pdfrwt beam="1">  1        1 0.58089229E-02 0.17888506E+03</pdfrwt>
<pdfrwt beam="2">  1       -1 0.28105834E-01 0.17888506E+03</pdfrwt>
<totfact> 0.14767391E+04</totfact>
</mgrwt>
</event>
<event>
 4    1  0.3281630E-004  0.2032482E+03  0.7818608E-02  0.1147027E+00
          1   -1    0    0  501    0  0.00000000000E+00  0.00000000000E+00  0.52815264247E+03  0.52815264250E+03  0.50400000000E-02 0.  1.
         -1   -1    0    0    0  501 -0.00000000000E+00 -0.00000000000E+00 -0.19553927427E+02  0.19553928077E+02  0.50400000000E-02 0. -1.
    5000001    1    1    2    0    0 -0.21346881017E+02 -0.62249624642E+02  0.27648066706E+03  0.29445078426E+03  0.77000000000E+02 0.  0.
   -5000001    1    1    2    0    0  0.21346881017E+02  0.62249624642E+02  0.23211804799E+03  0.25325578631E+03  0.77000000000E+02 0.  0.
<mgrwt>
<rscale>  0 0.20324821E+03</rscale>
<asrwt>0</asrwt>
<pdfrwt beam="1">  1        1 0.75450389E-01 0.20324821E+03</pdfrwt>
<pdfrwt beam="2">  1       -1 0.27934178E-02 0.20324821E+03</pdfrwt>
<totfact> 0.18910889E+04</totfact>
</mgrwt>
</event>
<event>
 4    1  0.3281630E-004  0.1612629E+03  0.7818608E-02  0.1187278E+00
         -1   -1    0    0    0  501 -0.00000000000E+00  0.00000000000E+00  0.41648927498E+02  0.41648927803E+02  0.50400000000E-02 0. -1.
          1   -1    0    0  501    0  0.00000000000E+00 -0.00000000000E+00 -0.15610076386E+03  0.15610076394E+03  0.50400000000E-02 0.  1.
    5000001    1    1    2    0    0 -0.14506048210E+02  0.18864628090E+02 -0.60261939359E+02  0.10063200765E+03  0.77000000000E+02 0.  0.
   -5000001    1    1    2    0    0  0.14506048210E+02 -0.18864628090E+02 -0.54189897005E+02  0.97117684101E+02  0.77000000000E+02 0.  0.
<mgrwt>
<rscale>  0 0.16126288E+03</rscale>
<asrwt>0</asrwt>
<pdfrwt beam="1">  1        1 0.22300109E-01 0.16126288E+03</pdfrwt>
<pdfrwt beam="2">  1       -1 0.59498469E-02 0.16126288E+03</pdfrwt>
<totfact> 0.28162040E+04</totfact>
</mgrwt>
</event>
<event>
 4    1  0.3281630E-004  0.4722399E+03  0.7818608E-02  0.1021290E+00
         -1   -1    0    0    0  501 -0.00000000000E+00  0.00000000000E+00  0.40943812255E+02  0.40943812565E+02  0.50400000000E-02 0. -1.
          1   -1    0    0  501    0  0.00000000000E+00 -0.00000000000E+00 -0.13616861017E+04  0.13616861018E+04  0.50400000000E-02 0.  1.
    5000001    1    1    2    0    0  0.15979227124E+02  0.19227187583E+03 -0.32697354848E+03  0.38738160945E+03  0.77000000000E+02 0.  0.
   -5000001    1    1    2    0    0 -0.15979227124E+02 -0.19227187583E+03 -0.99376874101E+03  0.10152483049E+04  0.77000000000E+02 0.  0.
<mgrwt>
<rscale>  0 0.47223986E+03</rscale>
<asrwt>0</asrwt>
<pdfrwt beam="1">  1        1 0.19452656E+00 0.47223986E+03</pdfrwt>
<pdfrwt beam="2">  1       -1 0.58491169E-02 0.47223986E+03</pdfrwt>
<totfact> 0.14270787E+03</totfact>
</mgrwt>
</event>
<event>
 4    1  0.3281630E-004  0.2359770E+03  0.7818608E-02  0.1122502E+00
          1   -1    0    0  501    0  0.00000000000E+00  0.00000000000E+00  0.39292794061E+02  0.39292794384E+02  0.50400000000E-02 0. -1.
         -1   -1    0    0    0  501 -0.00000000000E+00 -0.00000000000E+00 -0.35429623464E+03  0.35429623468E+03  0.50400000000E-02 0.  1.
    5000001    1    1    2    0    0  0.76187478746E+02 -0.28657510204E+02 -0.95845236183E+02  0.14744861514E+03  0.77000000000E+02 0.  0.
   -5000001    1    1    2    0    0 -0.76187478746E+02  0.28657510204E+02 -0.21915820440E+03  0.24614041392E+03  0.77000000000E+02 0.  0.
<mgrwt>
<rscale>  0 0.23597702E+03</rscale>
<asrwt>0</asrwt>
<pdfrwt beam="1">  1        1 0.56132565E-02 0.23597702E+03</pdfrwt>
<pdfrwt beam="2">  1       -1 0.50613746E-01 0.23597702E+03</pdfrwt>
<totfact> 0.56169856E+03</totfact>
</mgrwt>
</event>
<event>
 4    1  0.3281630E-004  0.2425104E+03  0.7818608E-02  0.1118132E+00
         -1   -1    0    0    0  501 -0.00000000000E+00  0.00000000000E+00  0.19434266785E+04  0.19434266785E+04  0.50400000000E-02 0.  1.
          1   -1    0    0  501    0  0.00000000000E+00 -0.00000000000E+00 -0.75654089490E+01  0.75654106278E+01  0.50400000000E-02 0. -1.
    5000001    1    1    2    0    0  0.12501423204E+02  0.52790125661E+02  0.15822396707E+04  0.15850408381E+04  0.77000000000E+02 0.  0.
   -5000001    1    1    2    0    0 -0.12501423204E+02 -0.52790125661E+02  0.35362159882E+03  0.36595125099E+03  0.77000000000E+02 0.  0.
<mgrwt>
<rscale>  0 0.24251036E+03</rscale>
<asrwt>0</asrwt>
<pdfrwt beam="1">  1        1 0.10807728E-02 0.24251036E+03</pdfrwt>
<pdfrwt beam="2">  1       -1 0.27763240E+00 0.24251036E+03</pdfrwt>
<totfact> 0.77176991E+02</totfact>
</mgrwt>
</event>
<event>
 4    1  0.3281630E-004  0.3068905E+03  0.7818608E-02  0.1081846E+00
          1   -1    0    0  501    0  0.00000000000E+00  0.00000000000E+00  0.11914004288E+04  0.11914004288E+04  0.50400000000E-02 0.  1.
         -1   -1    0    0    0  501 -0.00000000000E+00 -0.00000000000E+00 -0.19762825368E+02  0.19762826011E+02  0.50400000000E-02 0. -1.
    5000001    1    1    2    0    0  0.84832934741E+02  0.97756581631E+02  0.46985000611E+03  0.49339741012E+03  0.77000000000E+02 0.  0.
   -5000001    1    1    2    0    0 -0.84832934741E+02 -0.97756581631E+02  0.70178759732E+03  0.71776584471E+03  0.77000000000E+02 0.  0.
<mgrwt>
<rscale>  0 0.30689046E+03</rscale>
<asrwt>0</asrwt>
<pdfrwt beam="1">  1        1 0.17020013E+00 0.30689046E+03</pdfrwt>
<pdfrwt beam="2">  1       -1 0.28232596E-02 0.30689046E+03</pdfrwt>
<totfact> 0.55235049E+03</totfact>
</mgrwt>
</event>
<event>
 4    1  0.3281630E-004  0.2335479E+03  0.7818608E-02  0.1124167E+00
          1   -1    0    0  501    0  0.00000000000E+00  0.00000000000E+00  0.55328216116E+03  0.55328216118E+03  0.50400000000E-02 0.  1.
         -1   -1    0    0    0  501 -0.00000000000E+00 -0.00000000000E+00 -0.24645929355E+02  0.24645929870E+02  0.50400000000E-02 0. -1.
    5000001    1    1    2    0    0  0.22252806988E+02  0.71209436859E+02  0.37882316942E+03  0.39370288926E+03  0.77000000000E+02 0.  0.
   -5000001    1    1    2    0    0 -0.22252806988E+02 -0.71209436859E+02  0.14981306238E+03  0.18422520179E+03  0.77000000000E+02 0.  0.
<mgrwt>
<rscale>  0 0.23354788E+03</rscale>
<asrwt>0</asrwt>
<pdfrwt beam="1">  1        1 0.79040306E-01 0.23354788E+03</pdfrwt>
<pdfrwt beam="2">  1       -1 0.35208472E-02 0.23354788E+03</pdfrwt>
<totfact> 0.12759928E+04</totfact>
</mgrwt>
</event>
<event>
 4    1  0.3281630E-004  0.3604639E+03  0.7818608E-02  0.1058400E+00
          1   -1    0    0  501    0  0.00000000000E+00  0.00000000000E+00  0.23160268436E+03  0.23160268441E+03  0.50400000000E-02 0.  1.
         -1   -1    0    0    0  501 -0.00000000000E+00 -0.00000000000E+00 -0.14025552740E+03  0.14025552749E+03  0.50400000000E-02 0. -1.
    5000001    1    1    2    0    0  0.12349717584E+03  0.10313577660E+03  0.72296631925E+02  0.19246907243E+03  0.77000000000E+02 0.  0.
   -5000001    1    1    2    0    0 -0.12349717584E+03 -0.10313577660E+03  0.19050525034E+02  0.17938913947E+03  0.77000000000E+02 0.  0.
<mgrwt>
<rscale>  0 0.36046390E+03</rscale>
<asrwt>0</asrwt>
<pdfrwt beam="1">  1        1 0.33086098E-01 0.36046390E+03</pdfrwt>
<pdfrwt beam="2">  1       -1 0.20036504E-01 0.36046390E+03</pdfrwt>
<totfact> 0.26991395E+03</totfact>
</mgrwt>
</event>
<event>
 4    1  0.3281630E-004  0.4793016E+03  0.7818608E-02  0.1019327E+00
         -1   -1    0    0    0  501 -0.00000000000E+00  0.00000000000E+00  0.34499792160E+02  0.34499792529E+02  0.50400000000E-02 0. -1.
          1   -1    0    0  501    0  0.00000000000E+00 -0.00000000000E+00 -0.16647201241E+04  0.16647201241E+04  0.50400000000E-02 0.  1.
    5000001    1    1    2    0    0 -0.40006154717E+01  0.22615620908E+03 -0.88056331227E+03  0.91240527330E+03  0.77000000000E+02 0.  0.
   -5000001    1    1    2    0    0  0.40006154717E+01 -0.22615620908E+03 -0.74965701968E+03  0.78681464335E+03  0.77000000000E+02 0.  0.
<mgrwt>
<rscale>  0 0.47930157E+03</rscale>
<asrwt>0</asrwt>
<pdfrwt beam="1">  1        1 0.23781711E+00 0.47930157E+03</pdfrwt>
<pdfrwt beam="2">  1       -1 0.49285428E-02 0.47930157E+03</pdfrwt>
<totfact> 0.11883338E+03</totfact>
</mgrwt>
</event>
<event>
 4    1  0.3281630E-004  0.3540030E+03  0.7818608E-02  0.1060984E+00
          1   -1    0    0  501    0  0.00000000000E+00  0.00000000000E+00  0.19759790101E+04  0.19759790101E+04  0.50400000000E-02 0.  1.
         -1   -1    0    0    0  501 -0.00000000000E+00 -0.00000000000E+00 -0.15855195894E+02  0.15855196695E+02  0.50400000000E-02 0. -1.
    5000001    1    1    2    0    0  0.10953647363E+03 -0.11430547777E+02  0.33186270911E+03  0.35803736422E+03  0.77000000000E+02 0.  0.
   -5000001    1    1    2    0    0 -0.10953647363E+03  0.11430547777E+02  0.16282611051E+04  0.16337968426E+04  0.77000000000E+02 0.  0.
<mgrwt>
<rscale>  0 0.35400302E+03</rscale>
<asrwt>0</asrwt>
<pdfrwt beam="1">  1        1 0.28228267E+00 0.35400302E+03</pdfrwt>
<pdfrwt beam="2">  1       -1 0.22650284E-02 0.35400302E+03</pdfrwt>
<totfact> 0.24622927E+03</totfact>
</mgrwt>
</event>
<event>
 4    1  0.3281630E-004  0.3062890E+03  0.7818608E-02  0.1082138E+00
          1   -1    0    0  501    0  0.00000000000E+00  0.00000000000E+00  0.12162545410E+04  0.12162545410E+04  0.50400000000E-02 0.  1.
         -1   -1    0    0    0  501 -0.00000000000E+00 -0.00000000000E+00 -0.19283162941E+02  0.19283163600E+02  0.50400000000E-02 0. -1.
    5000001    1    1    2    0    0 -0.24488401492E+02  0.58056510221E+02  0.12885303431E+03  0.16279540730E+03  0.77000000000E+02 0.  0.
   -5000001    1    1    2    0    0  0.24488401492E+02 -0.58056510221E+02  0.10681183438E+04  0.10727422973E+04  0.77000000000E+02 0.  0.
<mgrwt>
<rscale>  0 0.30628898E+03</rscale>
<asrwt>0</asrwt>
<pdfrwt beam="1">  1        1 0.17375067E+00 0.30628898E+03</pdfrwt>
<pdfrwt beam="2">  1       -1 0.27547373E-02 0.30628898E+03</pdfrwt>
<totfact> 0.55126267E+03</totfact>
</mgrwt>
</event>
<event>
 4    1  0.3281630E-004  0.2081454E+03  0.7818608E-02  0.1143043E+00
          1   -1    0    0  501    0  0.00000000000E+00  0.00000000000E+00  0.17815662554E+03  0.17815662561E+03  0.50400000000E-02 0. -1.
         -1   -1    0    0    0  501 -0.00000000000E+00 -0.00000000000E+00 -0.60795550343E+02  0.60795550552E+02  0.50400000000E-02 0.  1.
    5000001    1    1    2    0    0 -0.69696131640E+02 -0.56278416121E+01  0.62804861692E+02  0.12150174492E+03  0.77000000000E+02 0.  0.
   -5000001    1    1    2    0    0  0.69696131640E+02  0.56278416121E+01  0.54556213504E+02  0.11745043124E+03  0.77000000000E+02 0.  0.
<mgrwt>
<rscale>  0 0.20814543E+03</rscale>
<asrwt>0</asrwt>
<pdfrwt beam="1">  1        1 0.25450947E-01 0.20814543E+03</pdfrwt>
<pdfrwt beam="2">  1       -1 0.86850785E-02 0.20814543E+03</pdfrwt>
<totfact> 0.13742655E+04</totfact>
</mgrwt>
</event>
<event>
 4    1  0.3281630E-004  0.2441647E+03  0.7818608E-02  0.1117049E+00
          1   -1    0    0  501    0  0.00000000000E+00  0.00000000000E+00  0.80470512881E+02  0.80470513039E+02  0.50400000000E-02 0. -1.
         -1   -1    0    0    0  501 -0.00000000000E+00 -0.00000000000E+00 -0.18521190065E+03  0.18521190072E+03  0.50400000000E-02 0.  1.
    5000001    1    1    2    0    0 -0.90217653997E+02 -0.10032344286E+02 -0.22866094964E+02  0.12120945229E+03  0.77000000000E+02 0.  0.
   -5000001    1    1    2    0    0  0.90217653997E+02  0.10032344286E+02 -0.81875292806E+02  0.14447296147E+03  0.77000000000E+02 0.  0.
<mgrwt>
<rscale>  0 0.24416467E+03</rscale>
<asrwt>0</asrwt>
<pdfrwt beam="1">  1        1 0.11495788E-01 0.24416467E+03</pdfrwt>
<pdfrwt beam="2">  1       -1 0.26458843E-01 0.24416467E+03</pdfrwt>
<totfact> 0.66292220E+03</totfact>
</mgrwt>
</event>
<event>
 4    1  0.3281630E-004  0.1587836E+03  0.7818608E-02  0.1190077E+00
         -1   -1    0    0    0  501 -0.00000000000E+00  0.00000000000E+00  0.14842878018E+02  0.14842878874E+02  0.50400000000E-02 0.  1.
          1   -1    0    0  501    0  0.00000000000E+00 -0.00000000000E+00 -0.42465189241E+03  0.42465189244E+03  0.50400000000E-02 0. -1.
    5000001    1    1    2    0    0 -0.13495450931E+02  0.13804811879E+02 -0.20812812204E+03  0.22275326083E+03  0.77000000000E+02 0.  0.
   -5000001    1    1    2    0    0  0.13495450931E+02 -0.13804811879E+02 -0.20168089236E+03  0.21674151049E+03  0.77000000000E+02 0.  0.
<mgrwt>
<rscale>  0 0.15878358E+03</rscale>
<asrwt>0</asrwt>
<pdfrwt beam="1">  1        1 0.60664548E-01 0.15878358E+03</pdfrwt>
<pdfrwt beam="2">  1       -1 0.21204115E-02 0.15878358E+03</pdfrwt>
<totfact> 0.36647230E+04</totfact>
</mgrwt>
</event>
<event>
 4    1  0.3281630E-004  0.3589115E+03  0.7818608E-02  0.1059016E+00
          1   -1    0    0  501    0  0.00000000000E+00  0.00000000000E+00  0.18815041690E+04  0.18815041690E+04  0.50400000000E-02 0. -1.
         -1   -1    0    0    0  501 -0.00000000000E+00 -0.00000000000E+00 -0.17116289550E+02  0.17116290292E+02  0.50400000000E-02 0.  1.
    5000001    1    1    2    0    0 -0.76956973604E+02  0.11735949761E+03  0.50309718547E+03  0.52795019225E+03  0.77000000000E+02 0.  0.
   -5000001    1    1    2    0    0  0.76956973604E+02 -0.11735949761E+03  0.13612906940E+04  0.13706702670E+04  0.77000000000E+02 0.  0.
<mgrwt>
<rscale>  0 0.35891153E+03</rscale>
<asrwt>0</asrwt>
<pdfrwt beam="1">  1        1 0.26878623E+00 0.35891153E+03</pdfrwt>
<pdfrwt beam="2">  1       -1 0.24451850E-02 0.35891153E+03</pdfrwt>
<totfact> 0.25100144E+03</totfact>
</mgrwt>
</event>
<event>
 4    1  0.3281630E-004  0.2959077E+03  0.7818608E-02  0.1087304E+00
          1   -1    0    0  501    0  0.00000000000E+00  0.00000000000E+00  0.27908945190E+03  0.27908945194E+03  0.50400000000E-02 0.  1.
         -1   -1    0    0    0  501 -0.00000000000E+00 -0.00000000000E+00 -0.78434832159E+02  0.78434832321E+02  0.50400000000E-02 0. -1.
    5000001    1    1    2    0    0 -0.10818688816E+03 -0.22273898683E+02  0.17442245648E+03  0.22034682357E+03  0.77000000000E+02 0.  0.
   -5000001    1    1    2    0    0  0.10818688816E+03  0.22273898683E+02  0.26232163257E+02  0.13717746069E+03  0.77000000000E+02 0.  0.
<mgrwt>
<rscale>  0 0.29590765E+03</rscale>
<asrwt>0</asrwt>
<pdfrwt beam="1">  1        1 0.39869922E-01 0.29590765E+03</pdfrwt>
<pdfrwt beam="2">  1       -1 0.11204976E-01 0.29590765E+03</pdfrwt>
<totfact> 0.53641164E+03</totfact>
</mgrwt>
</event>
<event>
 4    1  0.3281630E-004  0.3984125E+03  0.7818608E-02  0.1044331E+00
          1   -1    0    0  501    0  0.00000000000E+00  0.00000000000E+00  0.42449762450E+03  0.42449762453E+03  0.50400000000E-02 0.  1.
         -1   -1    0    0    0  501 -0.00000000000E+00 -0.00000000000E+00 -0.93482561396E+02  0.93482561532E+02  0.50400000000E-02 0. -1.
    5000001    1    1    2    0    0  0.41161707204E+02  0.17800768773E+03  0.14039478835E+03  0.24294180296E+03  0.77000000000E+02 0.  0.
   -5000001    1    1    2    0    0 -0.41161707204E+02 -0.17800768773E+03  0.19062027475E+03  0.27503838310E+03  0.77000000000E+02 0.  0.
<mgrwt>
<rscale>  0 0.39841248E+03</rscale>
<asrwt>0</asrwt>
<pdfrwt beam="1">  1        1 0.60642518E-01 0.39841248E+03</pdfrwt>
<pdfrwt beam="2">  1       -1 0.13354652E-01 0.39841248E+03</pdfrwt>
<totfact> 0.24013885E+03</totfact>
</mgrwt>
</event>
<event>
 4    1  0.3281630E-004  0.3100264E+03  0.7818608E-02  0.1080333E+00
          1   -1    0    0  501    0  0.00000000000E+00  0.00000000000E+00  0.87694998204E+03  0.87694998205E+03  0.50400000000E-02 0.  1.
         -1   -1    0    0    0  501 -0.00000000000E+00 -0.00000000000E+00 -0.27400756594E+02  0.27400757058E+02  0.50400000000E-02 0. -1.
    5000001    1    1    2    0    0 -0.32601553707E+02 -0.12966485363E+03  0.38109167433E+03  0.41113951380E+03  0.77000000000E+02 0.  0.
   -5000001    1    1    2    0    0  0.32601553707E+02  0.12966485363E+03  0.46845755112E+03  0.49321122531E+03  0.77000000000E+02 0.  0.
<mgrwt>
<rscale>  0 0.31002641E+03</rscale>
<asrwt>0</asrwt>
<pdfrwt beam="1">  1        1 0.12527854E+00 0.31002641E+03</pdfrwt>
<pdfrwt beam="2">  1       -1 0.39143946E-02 0.31002641E+03</pdfrwt>
<totfact> 0.57048056E+03</totfact>
</mgrwt>
</event>
<event>
 4    1  0.3281630E-004  0.2937562E+03  0.7818608E-02  0.1088404E+00
         -1   -1    0    0    0  501 -0.00000000000E+00  0.00000000000E+00  0.20908792528E+02  0.20908793135E+02  0.50400000000E-02 0. -1.
          1   -1    0    0  501    0  0.00000000000E+00 -0.00000000000E+00 -0.10317751391E+04  0.10317751391E+04  0.50400000000E-02 0.  1.
    5000001    1    1    2    0    0  0.49784215804E+02 -0.11471162043E+03 -0.51487945552E+03  0.53541299734E+03  0.77000000000E+02 0.  0.
   -5000001    1    1    2    0    0 -0.49784215804E+02  0.11471162043E+03 -0.49598689107E+03  0.51727093492E+03  0.77000000000E+02 0.  0.
<mgrwt>
<rscale>  0 0.29375618E+03</rscale>
<asrwt>0</asrwt>
<pdfrwt beam="1">  1        1 0.14739642E+00 0.29375618E+03</pdfrwt>
<pdfrwt beam="2">  1       -1 0.29869711E-02 0.29375618E+03</pdfrwt>
<totfact> 0.65413791E+03</totfact>
</mgrwt>
</event>
<event>
 4    1  0.3281630E-004  0.2150547E+03  0.7818608E-02  0.1137625E+00
         -1   -1    0    0    0  501 -0.00000000000E+00  0.00000000000E+00  0.18166550246E+02  0.18166550945E+02  0.50400000000E-02 0. -1.
          1   -1    0    0  501    0  0.00000000000E+00 -0.00000000000E+00 -0.63645178034E+03  0.63645178036E+03  0.50400000000E-02 0.  1.
    5000001    1    1    2    0    0 -0.74178044468E+02  0.65017862745E+01 -0.33777495016E+03  0.35435232815E+03  0.77000000000E+02 0.  0.
   -5000001    1    1    2    0    0  0.74178044468E+02 -0.65017862745E+01 -0.28051027993E+03  0.30026600316E+03  0.77000000000E+02 0.  0.
<mgrwt>
<rscale>  0 0.21505472E+03</rscale>
<asrwt>0</asrwt>
<pdfrwt beam="1">  1        1 0.90921669E-01 0.21505472E+03</pdfrwt>
<pdfrwt beam="2">  1       -1 0.25952219E-02 0.21505472E+03</pdfrwt>
<totfact> 0.16457572E+04</totfact>
</mgrwt>
</event>
<event>
 4    1  0.3281630E-004  0.2115451E+03  0.7818608E-02  0.1140348E+00
          1   -1    0    0  501    0  0.00000000000E+00  0.00000000000E+00  0.36716944432E+03  0.36716944435E+03  0.50400000000E-02 0.  1.
         -1   -1    0    0    0  501 -0.00000000000E+00 -0.00000000000E+00 -0.30470479985E+02  0.30470480402E+02  0.50400000000E-02 0. -1.
    5000001    1    1    2    0    0 -0.36907604423E+01  0.60481506660E+02  0.93463211040E+02  0.13541050985E+03  0.77000000000E+02 0.  0.
   -5000001    1    1    2    0    0  0.36907604423E+01 -0.60481506660E+02  0.24323575329E+03  0.26222941490E+03  0.77000000000E+02 0.  0.
<mgrwt>
<rscale>  0 0.21154507E+03</rscale>
<asrwt>0</asrwt>
<pdfrwt beam="1">  1        1 0.52452779E-01 0.21154507E+03</pdfrwt>
<pdfrwt beam="2">  1       -1 0.43529257E-02 0.21154507E+03</pdfrwt>
<totfact> 0.15708566E+04</totfact>
</mgrwt>
</event>
<event>
 4    1  0.3281630E-004  0.2178729E+03  0.7818608E-02  0.1135479E+00
         -1   -1    0    0    0  501 -0.00000000000E+00  0.00000000000E+00  0.77701715060E+02  0.77701715223E+02  0.50400000000E-02 0. -1.
          1   -1    0    0  501    0  0.00000000000E+00 -0.00000000000E+00 -0.15272702071E+03  0.15272702079E+03  0.50400000000E-02 0.  1.
    5000001    1    1    2    0    0 -0.31959235465E+02 -0.68063492523E+02 -0.55339892111E+02  0.12101873989E+03  0.77000000000E+02 0.  0.
   -5000001    1    1    2    0    0  0.31959235465E+02  0.68063492523E+02 -0.19685413540E+02  0.10940999613E+03  0.77000000000E+02 0.  0.
<mgrwt>
<rscale>  0 0.21787291E+03</rscale>
<asrwt>0</asrwt>
<pdfrwt beam="1">  1        1 0.21818146E-01 0.21787291E+03</pdfrwt>
<pdfrwt beam="2">  1       -1 0.11100245E-01 0.21787291E+03</pdfrwt>
<totfact> 0.11495671E+04</totfact>
</mgrwt>
</event>
<event>
 4    1  0.3281630E-004  0.4086020E+03  0.7818608E-02  0.1040841E+00
         -1   -1    0    0    0  501 -0.00000000000E+00  0.00000000000E+00  0.40103756358E+02  0.40103756675E+02  0.50400000000E-02 0. -1.
          1   -1    0    0  501    0  0.00000000000E+00 -0.00000000000E+00 -0.10407727523E+04  0.10407727523E+04  0.50400000000E-02 0.  1.
    5000001    1    1    2    0    0 -0.49633515721E+02  0.13864550230E+03 -0.18595665539E+03  0.24938913143E+03  0.77000000000E+02 0.  0.
   -5000001    1    1    2    0    0  0.49633515721E+02 -0.13864550230E+03 -0.81471234055E+03  0.83148737755E+03  0.77000000000E+02 0.  0.
<mgrwt>
<rscale>  0 0.40860199E+03</rscale>
<asrwt>0</asrwt>
<pdfrwt beam="1">  1        1 0.14868180E+00 0.40860199E+03</pdfrwt>
<pdfrwt beam="2">  1       -1 0.57291087E-02 0.40860199E+03</pdfrwt>
<totfact> 0.24365511E+03</totfact>
</mgrwt>
</event>
<event>
 4    1  0.3281630E-004  0.1708304E+03  0.7818608E-02  0.1176985E+00
         -1   -1    0    0    0  501 -0.00000000000E+00  0.00000000000E+00  0.28489765593E+03  0.28489765597E+03  0.50400000000E-02 0. -1.
          1   -1    0    0  501    0  0.00000000000E+00 -0.00000000000E+00 -0.25608327645E+02  0.25608328141E+02  0.50400000000E-02 0.  1.
    5000001    1    1    2    0    0  0.31519236959E+02  0.17003720104E+02  0.11296959615E+03  0.14132840638E+03  0.77000000000E+02 0.  0.
   -5000001    1    1    2    0    0 -0.31519236959E+02 -0.17003720104E+02  0.14631973213E+03  0.16917757773E+03  0.77000000000E+02 0.  0.
<mgrwt>
<rscale>  0 0.17083036E+03</rscale>
<asrwt>0</asrwt>
<pdfrwt beam="1">  1        1 0.36583324E-02 0.17083036E+03</pdfrwt>
<pdfrwt beam="2">  1       -1 0.40699667E-01 0.17083036E+03</pdfrwt>
<totfact> 0.14725524E+04</totfact>
</mgrwt>
</event>
<event>
 4    1  0.3281630E-004  0.5948791E+03  0.7818608E-02  0.9916088E-01
         -1   -1    0    0    0  501 -0.00000000000E+00  0.00000000000E+00  0.43931829521E+03  0.43931829524E+03  0.50400000000E-02 0. -1.
          1   -1    0    0  501    0  0.00000000000E+00 -0.00000000000E+00 -0.20138082804E+03  0.20138082810E+03  0.50400000000E-02 0.  1.
    5000001    1    1    2    0    0 -0.16030009529E+03  0.23816986832E+03  0.13078047067E+03  0.32473610553E+03  0.77000000000E+02 0.  0.
   -5000001    1    1    2    0    0  0.16030009529E+03 -0.23816986832E+03  0.10715699650E+03  0.31596301781E+03  0.77000000000E+02 0.  0.
<mgrwt>
<rscale>  0 0.59487909E+03</rscale>
<asrwt>0</asrwt>
<pdfrwt beam="1">  1        1 0.28768690E-01 0.59487909E+03</pdfrwt>
<pdfrwt beam="2">  1       -1 0.62759755E-01 0.59487909E+03</pdfrwt>
<totfact> 0.42325786E+02</totfact>
</mgrwt>
</event>
<event>
 4    1  0.3281630E-004  0.1788929E+03  0.7818608E-02  0.1168879E+00
         -1   -1    0    0    0  501 -0.00000000000E+00  0.00000000000E+00  0.20393718577E+02  0.20393719199E+02  0.50400000000E-02 0.  1.
          1   -1    0    0  501    0  0.00000000000E+00 -0.00000000000E+00 -0.39231017799E+03  0.39231017802E+03  0.50400000000E-02 0. -1.
    5000001    1    1    2    0    0 -0.39923690117E+02 -0.20830615964E+02 -0.20123459377E+03  0.22011855288E+03  0.77000000000E+02 0.  0.
   -5000001    1    1    2    0    0  0.39923690117E+02  0.20830615964E+02 -0.17068186564E+03  0.19258534433E+03  0.77000000000E+02 0.  0.
<mgrwt>
<rscale>  0 0.17889286E+03</rscale>
<asrwt>0</asrwt>
<pdfrwt beam="1">  1        1 0.56044307E-01 0.17889286E+03</pdfrwt>
<pdfrwt beam="2">  1       -1 0.29133887E-02 0.17889286E+03</pdfrwt>
<totfact> 0.25783595E+04</totfact>
</mgrwt>
</event>
<event>
 4    1  0.3281630E-004  0.2868015E+03  0.7818608E-02  0.1092031E+00
          1   -1    0    0  501    0  0.00000000000E+00  0.00000000000E+00  0.99902621764E+03  0.99902621766E+03  0.50400000000E-02 0. -1.
         -1   -1    0    0    0  501 -0.00000000000E+00 -0.00000000000E+00 -0.20583816545E+02  0.20583817162E+02  0.50400000000E-02 0.  1.
    5000001    1    1    2    0    0 -0.69492937949E+02 -0.95850263712E+02  0.40082610335E+03  0.42497894842E+03  0.77000000000E+02 0.  0.
   -5000001    1    1    2    0    0  0.69492937949E+02  0.95850263712E+02  0.57761629775E+03  0.59463108640E+03  0.77000000000E+02 0.  0.
<mgrwt>
<rscale>  0 0.28680148E+03</rscale>
<asrwt>0</asrwt>
<pdfrwt beam="1">  1        1 0.14271807E+00 0.28680148E+03</pdfrwt>
<pdfrwt beam="2">  1       -1 0.29405444E-02 0.28680148E+03</pdfrwt>
<totfact> 0.70615999E+03</totfact>
</mgrwt>
</event>
<event>
 4    1  0.3281630E-004  0.2221407E+03  0.7818608E-02  0.1132297E+00
         -1   -1    0    0    0  501 -0.00000000000E+00  0.00000000000E+00  0.41758660661E+02  0.41758660965E+02  0.50400000000E-02 0.  1.
          1   -1    0    0  501    0  0.00000000000E+00 -0.00000000000E+00 -0.29542665762E+03  0.29542665767E+03  0.50400000000E-02 0. -1.
    5000001    1    1    2    0    0  0.62847834912E+02 -0.34814318219E+02 -0.18040790122E+03  0.20889685955E+03  0.77000000000E+02 0.  0.
   -5000001    1    1    2    0    0 -0.62847834912E+02  0.34814318219E+02 -0.73260095743E+02  0.12828845909E+03  0.77000000000E+02 0.  0.
<mgrwt>
<rscale>  0 0.22214069E+03</rscale>
<asrwt>0</asrwt>
<pdfrwt beam="1">  1        1 0.42203807E-01 0.22214069E+03</pdfrwt>
<pdfrwt beam="2">  1       -1 0.59655232E-02 0.22214069E+03</pdfrwt>
<totfact> 0.12924053E+04</totfact>
</mgrwt>
</event>
<event>
 4    1  0.3281630E-004  0.2433560E+03  0.7818608E-02  0.1117577E+00
          1   -1    0    0  501    0  0.00000000000E+00  0.00000000000E+00  0.62660967644E+02  0.62660967847E+02  0.50400000000E-02 0. -1.
         -1   -1    0    0    0  501 -0.00000000000E+00 -0.00000000000E+00 -0.23628012319E+03  0.23628012325E+03  0.50400000000E-02 0.  1.
    5000001    1    1    2    0    0 -0.70203242392E+02  0.36168891049E+02 -0.23694416047E+02  0.11281449053E+03  0.77000000000E+02 0.  0.
   -5000001    1    1    2    0    0  0.70203242392E+02 -0.36168891049E+02 -0.14992473950E+03  0.18612660056E+03  0.77000000000E+02 0.  0.
<mgrwt>
<rscale>  0 0.24335605E+03</rscale>
<asrwt>0</asrwt>
<pdfrwt beam="1">  1        1 0.89515669E-02 0.24335605E+03</pdfrwt>
<pdfrwt beam="2">  1       -1 0.33754303E-01 0.24335605E+03</pdfrwt>
<totfact> 0.61300861E+03</totfact>
</mgrwt>
</event>
<event>
 4    1  0.3281630E-004  0.3505762E+03  0.7818608E-02  0.1062379E+00
          1   -1    0    0  501    0  0.00000000000E+00  0.00000000000E+00  0.62594563488E+03  0.62594563490E+03  0.50400000000E-02 0.  1.
         -1   -1    0    0    0  501 -0.00000000000E+00 -0.00000000000E+00 -0.49087190688E+02  0.49087190947E+02  0.50400000000E-02 0. -1.
    5000001    1    1    2    0    0 -0.11760950005E+03  0.84922449692E+02  0.40638991876E+03  0.43832132396E+03  0.77000000000E+02 0.  0.
   -5000001    1    1    2    0    0  0.11760950005E+03 -0.84922449692E+02  0.17046852542E+03  0.23671150188E+03  0.77000000000E+02 0.  0.
<mgrwt>
<rscale>  0 0.35057617E+03</rscale>
<asrwt>0</asrwt>
<pdfrwt beam="1">  1        1 0.89420808E-01 0.35057617E+03</pdfrwt>
<pdfrwt beam="2">  1       -1 0.70124556E-02 0.35057617E+03</pdfrwt>
<totfact> 0.38884984E+03</totfact>
</mgrwt>
</event>
<event>
 4    1  0.3281630E-004  0.2610841E+03  0.7818608E-02  0.1106494E+00
         -1   -1    0    0    0  501 -0.00000000000E+00  0.00000000000E+00  0.20808325289E+02  0.20808325899E+02  0.50400000000E-02 0. -1.
          1   -1    0    0  501    0  0.00000000000E+00 -0.00000000000E+00 -0.81896164694E+03  0.81896164696E+03  0.50400000000E-02 0.  1.
    5000001    1    1    2    0    0 -0.18378272344E+02 -0.90987415711E+02 -0.55976358138E+03  0.57260871261E+03  0.77000000000E+02 0.  0.
   -5000001    1    1    2    0    0  0.18378272344E+02  0.90987415711E+02 -0.23838974027E+03  0.26716126025E+03  0.77000000000E+02 0.  0.
<mgrwt>
<rscale>  0 0.26108405E+03</rscale>
<asrwt>0</asrwt>
<pdfrwt beam="1">  1        1 0.11699450E+00 0.26108405E+03</pdfrwt>
<pdfrwt beam="2">  1       -1 0.29726185E-02 0.26108405E+03</pdfrwt>
<totfact> 0.94795735E+03</totfact>
</mgrwt>
</event>
<event>
 4    1  0.3281630E-004  0.3003193E+03  0.7818608E-02  0.1085081E+00
          1   -1    0    0  501    0  0.00000000000E+00  0.00000000000E+00  0.11923928837E+03  0.11923928848E+03  0.50400000000E-02 0.  1.
         -1   -1    0    0    0  501 -0.00000000000E+00 -0.00000000000E+00 -0.18909810065E+03  0.18909810071E+03  0.50400000000E-02 0. -1.
    5000001    1    1    2    0    0  0.10930147012E+03 -0.31885753713E+02 -0.97003586045E+02  0.16823260197E+03  0.77000000000E+02 0.  0.
   -5000001    1    1    2    0    0 -0.10930147012E+03  0.31885753713E+02  0.27144773774E+02  0.14010478722E+03  0.77000000000E+02 0.  0.
<mgrwt>
<rscale>  0 0.30031932E+03</rscale>
<asrwt>0</asrwt>
<pdfrwt beam="1">  1        1 0.17034184E-01 0.30031932E+03</pdfrwt>
<pdfrwt beam="2">  1       -1 0.27014014E-01 0.30031932E+03</pdfrwt>
<totfact> 0.38417458E+03</totfact>
</mgrwt>
</event>
<event>
 4    1  0.3281630E-004  0.1783704E+03  0.7818608E-02  0.1169390E+00
          1   -1    0    0  501    0  0.00000000000E+00  0.00000000000E+00  0.17005209321E+04  0.17005209321E+04  0.50400000000E-02 0.  1.
         -1   -1    0    0    0  501 -0.00000000000E+00 -0.00000000000E+00 -0.46773878756E+01  0.46773905910E+01  0.50400000000E-02 0. -1.
    5000001    1    1    2    0    0  0.29738841376E+02 -0.28203678403E+02  0.10255276952E+04  0.10292307320E+04  0.77000000000E+02 0.  0.
   -5000001    1    1    2    0    0 -0.29738841376E+02  0.28203678403E+02  0.67031584906E+03  0.67596759069E+03  0.77000000000E+02 0.  0.
<mgrwt>
<rscale>  0 0.17837038E+03</rscale>
<asrwt>0</asrwt>
<pdfrwt beam="1">  1        1 0.24293219E+00 0.17837038E+03</pdfrwt>
<pdfrwt beam="2">  1       -1 0.66819674E-03 0.17837038E+03</pdfrwt>
<totfact> 0.20918526E+04</totfact>
</mgrwt>
</event>
<event>
 4    1  0.3281630E-004  0.2661384E+03  0.7818608E-02  0.1103510E+00
         -1   -1    0    0    0  501 -0.00000000000E+00  0.00000000000E+00  0.32319938759E+02  0.32319939152E+02  0.50400000000E-02 0.  1.
          1   -1    0    0  501    0  0.00000000000E+00 -0.00000000000E+00 -0.54787876604E+03  0.54787876607E+03  0.50400000000E-02 0. -1.
    5000001    1    1    2    0    0 -0.81591327917E+02 -0.15542906264E+02 -0.10549165323E+03  0.15477795588E+03  0.77000000000E+02 0.  0.
   -5000001    1    1    2    0    0  0.81591327917E+02  0.15542906264E+02 -0.41006717406E+03  0.42542074934E+03  0.77000000000E+02 0.  0.
<mgrwt>
<rscale>  0 0.26613837E+03</rscale>
<asrwt>0</asrwt>
<pdfrwt beam="1">  1        1 0.78268390E-01 0.26613837E+03</pdfrwt>
<pdfrwt beam="2">  1       -1 0.46171345E-02 0.26613837E+03</pdfrwt>
<totfact> 0.86946936E+03</totfact>
</mgrwt>
</event>
<event>
 4    1  0.3281630E-004  0.2528662E+03  0.7818608E-02  0.1111507E+00
          1   -1    0    0  501    0  0.00000000000E+00  0.00000000000E+00  0.27308060726E+03  0.27308060731E+03  0.50400000000E-02 0.  1.
         -1   -1    0    0    0  501 -0.00000000000E+00 -0.00000000000E+00 -0.58537031468E+02  0.58537031685E+02  0.50400000000E-02 0. -1.
    5000001    1    1    2    0    0 -0.92369756614E+02 -0.35262816060E+02  0.12924331929E+03  0.18002353656E+03  0.77000000000E+02 0.  0.
   -5000001    1    1    2    0    0  0.92369756614E+02  0.35262816060E+02  0.85300256500E+02  0.15159410243E+03  0.77000000000E+02 0.  0.
<mgrwt>
<rscale>  0 0.25286620E+03</rscale>
<asrwt>0</asrwt>
<pdfrwt beam="1">  1        1 0.39011516E-01 0.25286620E+03</pdfrwt>
<pdfrwt beam="2">  1       -1 0.83624329E-02 0.25286620E+03</pdfrwt>
<totfact> 0.86068198E+03</totfact>
</mgrwt>
</event>
<event>
 4    1  0.3281630E-004  0.2059033E+03  0.7818608E-02  0.1144852E+00
          1   -1    0    0  501    0  0.00000000000E+00  0.00000000000E+00  0.56817946920E+02  0.56817947144E+02  0.50400000000E-02 0.  1.
         -1   -1    0    0    0  501 -0.00000000000E+00 -0.00000000000E+00 -0.18654385211E+03  0.18654385218E+03  0.50400000000E-02 0. -1.
    5000001    1    1    2    0    0  0.31245919306E+02  0.80813708696E+01  0.63318204586E+01  0.83729970612E+02  0.77000000000E+02 0.  0.
   -5000001    1    1    2    0    0 -0.31245919306E+02 -0.80813708696E+01 -0.13605772565E+03  0.15963182871E+03  0.77000000000E+02 0.  0.
<mgrwt>
<rscale>  0 0.20590327E+03</rscale>
<asrwt>0</asrwt>
<pdfrwt beam="1">  1        1 0.81168496E-02 0.20590327E+03</pdfrwt>
<pdfrwt beam="2">  1       -1 0.26649122E-01 0.20590327E+03</pdfrwt>
<totfact> 0.10348579E+04</totfact>
</mgrwt>
</event>
<event>
 4    1  0.3281630E-004  0.2133409E+03  0.7818608E-02  0.1138947E+00
         -1   -1    0    0    0  501 -0.00000000000E+00  0.00000000000E+00  0.31114568021E+02  0.31114568429E+02  0.50400000000E-02 0. -1.
          1   -1    0    0  501    0  0.00000000000E+00 -0.00000000000E+00 -0.36569965103E+03  0.36569965106E+03  0.50400000000E-02 0.  1.
    5000001    1    1    2    0    0 -0.37359026573E+02 -0.53975529177E+02 -0.23010804307E+03  0.25137176871E+03  0.77000000000E+02 0.  0.
   -5000001    1    1    2    0    0  0.37359026573E+02  0.53975529177E+02 -0.10447703993E+03  0.14544245078E+03  0.77000000000E+02 0.  0.
<mgrwt>
<rscale>  0 0.21334092E+03</rscale>
<asrwt>0</asrwt>
<pdfrwt beam="1">  1        1 0.52242805E-01 0.21334092E+03</pdfrwt>
<pdfrwt beam="2">  1       -1 0.44449385E-02 0.21334092E+03</pdfrwt>
<totfact> 0.15313583E+04</totfact>
</mgrwt>
</event>
<event>
 4    1  0.3281630E-004  0.2179330E+03  0.7818608E-02  0.1135433E+00
          1   -1    0    0  501    0  0.00000000000E+00  0.00000000000E+00  0.16240340283E+04  0.16240340283E+04  0.50400000000E-02 0.  1.
         -1   -1    0    0    0  501 -0.00000000000E+00 -0.00000000000E+00 -0.73112392375E+01  0.73112409746E+01  0.50400000000E-02 0. -1.
    5000001    1    1    2    0    0  0.21207698411E+02  0.58268380584E+02  0.11513697890E+04  0.11556064908E+04  0.77000000000E+02 0.  0.
   -5000001    1    1    2    0    0 -0.21207698411E+02 -0.58268380584E+02  0.46535300008E+03  0.47573877846E+03  0.77000000000E+02 0.  0.
<mgrwt>
<rscale>  0 0.21793304E+03</rscale>
<asrwt>0</asrwt>
<pdfrwt beam="1">  1        1 0.23200499E+00 0.21793304E+03</pdfrwt>
<pdfrwt beam="2">  1       -1 0.10444623E-02 0.21793304E+03</pdfrwt>
<totfact> 0.12385148E+04</totfact>
</mgrwt>
</event>
<event>
 4    1  0.3281630E-004  0.1915561E+03  0.7818608E-02  0.1157065E+00
         -1   -1    0    0    0  501 -0.00000000000E+00  0.00000000000E+00  0.11834918774E+03  0.11834918785E+03  0.50400000000E-02 0.  1.
          1   -1    0    0  501    0  0.00000000000E+00 -0.00000000000E+00 -0.77511627788E+02  0.77511627952E+02  0.50400000000E-02 0. -1.
    5000001    1    1    2    0    0  0.45389518708E+02  0.20230824194E+01 -0.14706330307E+02  0.90606718416E+02  0.77000000000E+02 0.  0.
   -5000001    1    1    2    0    0 -0.45389518708E+02 -0.20230824194E+01  0.55543890262E+02  0.10525409739E+03  0.77000000000E+02 0.  0.
<mgrwt>
<rscale>  0 0.19155614E+03</rscale>
<asrwt>0</asrwt>
<pdfrwt beam="1">  1        1 0.11073090E-01 0.19155614E+03</pdfrwt>
<pdfrwt beam="2">  1       -1 0.16907027E-01 0.19155614E+03</pdfrwt>
<totfact> 0.14242316E+04</totfact>
</mgrwt>
</event>
<event>
 4    1  0.3281630E-004  0.1832814E+03  0.7818608E-02  0.1164665E+00
          1   -1    0    0  501    0  0.00000000000E+00  0.00000000000E+00  0.76930332721E+03  0.76930332723E+03  0.50400000000E-02 0. -1.
         -1   -1    0    0    0  501 -0.00000000000E+00 -0.00000000000E+00 -0.10916387109E+02  0.10916388273E+02  0.50400000000E-02 0.  1.
    5000001    1    1    2    0    0  0.46650805080E+02 -0.10710531483E+02  0.32239861539E+03  0.33490428529E+03  0.77000000000E+02 0.  0.
   -5000001    1    1    2    0    0 -0.46650805080E+02  0.10710531483E+02  0.43598832471E+03  0.44531543021E+03  0.77000000000E+02 0.  0.
<mgrwt>
<rscale>  0 0.18328135E+03</rscale>
<asrwt>0</asrwt>
<pdfrwt beam="1">  1        1 0.10990053E+00 0.18328135E+03</pdfrwt>
<pdfrwt beam="2">  1       -1 0.15594832E-02 0.18328135E+03</pdfrwt>
<totfact> 0.26116222E+04</totfact>
</mgrwt>
</event>
<event>
 4    1  0.3281630E-004  0.1890532E+03  0.7818608E-02  0.1159318E+00
         -1   -1    0    0    0  501 -0.00000000000E+00  0.00000000000E+00  0.76353336399E+01  0.76353353033E+01  0.50400000000E-02 0. -1.
          1   -1    0    0  501    0  0.00000000000E+00 -0.00000000000E+00 -0.11702534964E+04  0.11702534964E+04  0.50400000000E-02 0.  1.
    5000001    1    1    2    0    0 -0.48482314014E+01  0.50148762003E+02 -0.71607633679E+03  0.72196448929E+03  0.77000000000E+02 0.  0.
   -5000001    1    1    2    0    0  0.48482314014E+01 -0.50148762003E+02 -0.44654182595E+03  0.45592434241E+03  0.77000000000E+02 0.  0.
<mgrwt>
<rscale>  0 0.18905319E+03</rscale>
<asrwt>0</asrwt>
<pdfrwt beam="1">  1        1 0.16717896E+00 0.18905319E+03</pdfrwt>
<pdfrwt beam="2">  1       -1 0.10907628E-02 0.18905319E+03</pdfrwt>
<totfact> 0.22366730E+04</totfact>
</mgrwt>
</event>
<event>
 4    1  0.3281630E-004  0.3282150E+03  0.7818608E-02  0.1071929E+00
          1   -1    0    0  501    0  0.00000000000E+00  0.00000000000E+00  0.93698443409E+03  0.93698443410E+03  0.50400000000E-02 0.  1.
         -1   -1    0    0    0  501 -0.00000000000E+00 -0.00000000000E+00 -0.28742493483E+02  0.28742493925E+02  0.50400000000E-02 0. -1.
    5000001    1    1    2    0    0  0.58485166542E+01 -0.14480352647E+03  0.45427629824E+03  0.48300954604E+03  0.77000000000E+02 0.  0.
   -5000001    1    1    2    0    0 -0.58485166542E+01  0.14480352647E+03  0.45396564237E+03  0.48271738199E+03  0.77000000000E+02 0.  0.
<mgrwt>
<rscale>  0 0.32821499E+03</rscale>
<asrwt>0</asrwt>
<pdfrwt beam="1">  1        1 0.13385495E+00 0.32821499E+03</pdfrwt>
<pdfrwt beam="2">  1       -1 0.41060697E-02 0.32821499E+03</pdfrwt>
<totfact> 0.47876534E+03</totfact>
</mgrwt>
</event>
<event>
 4    1  0.3281630E-004  0.2358471E+03  0.7818608E-02  0.1122591E+00
          1   -1    0    0  501    0  0.00000000000E+00  0.00000000000E+00  0.40646522737E+03  0.40646522740E+03  0.50400000000E-02 0. -1.
         -1   -1    0    0    0  501 -0.00000000000E+00 -0.00000000000E+00 -0.34211925783E+02  0.34211926154E+02  0.50400000000E-02 0.  1.
    5000001    1    1    2    0    0  0.43652569308E+02  0.70621101981E+02  0.12460626814E+03  0.16837045142E+03  0.77000000000E+02 0.  0.
   -5000001    1    1    2    0    0 -0.43652569308E+02 -0.70621101981E+02  0.24764703344E+03  0.27230670213E+03  0.77000000000E+02 0.  0.
<mgrwt>
<rscale>  0 0.23584705E+03</rscale>
<asrwt>0</asrwt>
<pdfrwt beam="1">  1        1 0.58066462E-01 0.23584705E+03</pdfrwt>
<pdfrwt beam="2">  1       -1 0.48874179E-02 0.23584705E+03</pdfrwt>
<totfact> 0.11701147E+04</totfact>
</mgrwt>
</event>
<event>
 4    1  0.3281630E-004  0.4192545E+03  0.7818608E-02  0.1037309E+00
          1   -1    0    0  501    0  0.00000000000E+00  0.00000000000E+00  0.63971356288E+03  0.63971356290E+03  0.50400000000E-02 0.  1.
         -1   -1    0    0    0  501 -0.00000000000E+00 -0.00000000000E+00 -0.68692610012E+02  0.68692610197E+02  0.50400000000E-02 0. -1.
    5000001    1    1    2    0    0  0.98176907873E+02 -0.12496203640E+03  0.47637988710E+03  0.50805611168E+03  0.77000000000E+02 0.  0.
   -5000001    1    1    2    0    0 -0.98176907873E+02  0.12496203640E+03  0.94641065762E+02  0.20035006141E+03  0.77000000000E+02 0.  0.
<mgrwt>
<rscale>  0 0.41925455E+03</rscale>
<asrwt>0</asrwt>
<pdfrwt beam="1">  1        1 0.91387643E-01 0.41925455E+03</pdfrwt>
<pdfrwt beam="2">  1       -1 0.98132310E-02 0.41925455E+03</pdfrwt>
<totfact> 0.22493839E+03</totfact>
</mgrwt>
</event>
<event>
 4    1  0.3281630E-004  0.2942709E+03  0.7818608E-02  0.1088140E+00
          1   -1    0    0  501    0  0.00000000000E+00  0.00000000000E+00  0.16506332348E+03  0.16506332356E+03  0.50400000000E-02 0.  1.
         -1   -1    0    0    0  501 -0.00000000000E+00 -0.00000000000E+00 -0.13115477494E+03  0.13115477504E+03  0.50400000000E-02 0. -1.
    5000001    1    1    2    0    0 -0.34379306281E+02 -0.11446787781E+03 -0.21177930038E+02  0.14374399629E+03  0.77000000000E+02 0.  0.
   -5000001    1    1    2    0    0  0.34379306281E+02  0.11446787781E+03  0.55086478580E+02  0.15247410230E+03  0.77000000000E+02 0.  0.
<mgrwt>
<rscale>  0 0.29427092E+03</rscale>
<asrwt>0</asrwt>
<pdfrwt beam="1">  1        1 0.23580475E-01 0.29427092E+03</pdfrwt>
<pdfrwt beam="2">  1       -1 0.18736397E-01 0.29427092E+03</pdfrwt>
<totfact> 0.46115355E+03</totfact>
</mgrwt>
</event>
<event>
 4    1  0.3281630E-004  0.1813777E+03  0.7818608E-02  0.1166476E+00
         -1   -1    0    0    0  501 -0.00000000000E+00  0.00000000000E+00  0.44727486520E+02  0.44727486804E+02  0.50400000000E-02 0. -1.
          1   -1    0    0  501    0  0.00000000000E+00 -0.00000000000E+00 -0.18387948833E+03  0.18387948840E+03  0.50400000000E-02 0.  1.
    5000001    1    1    2    0    0 -0.46486874340E+02 -0.39081919890E+00 -0.84181607074E+02  0.12319385210E+03  0.77000000000E+02 0.  0.
   -5000001    1    1    2    0    0  0.46486874340E+02  0.39081919890E+00 -0.54970394741E+02  0.10541312311E+03  0.77000000000E+02 0.  0.
<mgrwt>
<rscale>  0 0.18137770E+03</rscale>
<asrwt>0</asrwt>
<pdfrwt beam="1">  1        1 0.26268498E-01 0.18137770E+03</pdfrwt>
<pdfrwt beam="2">  1       -1 0.63896411E-02 0.18137770E+03</pdfrwt>
<totfact> 0.20796763E+04</totfact>
</mgrwt>
</event>
<event>
 4    1  0.3281630E-004  0.1892682E+03  0.7818608E-02  0.1159123E+00
         -1   -1    0    0    0  501 -0.00000000000E+00  0.00000000000E+00  0.84923882507E+01  0.84923897462E+01  0.50400000000E-02 0. -1.
          1   -1    0    0  501    0  0.00000000000E+00 -0.00000000000E+00 -0.10545460459E+04  0.10545460459E+04  0.50400000000E-02 0.  1.
    5000001    1    1    2    0    0  0.23293907172E+01 -0.52711506514E+02 -0.43552968785E+03  0.44542006912E+03  0.77000000000E+02 0.  0.
   -5000001    1    1    2    0    0 -0.23293907172E+01  0.52711506514E+02 -0.61052396978E+03  0.61761836651E+03  0.77000000000E+02 0.  0.
<mgrwt>
<rscale>  0 0.18926823E+03</rscale>
<asrwt>0</asrwt>
<pdfrwt beam="1">  1        1 0.15064935E+00 0.18926823E+03</pdfrwt>
<pdfrwt beam="2">  1       -1 0.12131991E-02 0.18926823E+03</pdfrwt>
<totfact> 0.22997830E+04</totfact>
</mgrwt>
</event>
<event>
 4    1  0.3281630E-004  0.1867149E+03  0.7818608E-02  0.1161458E+00
         -1   -1    0    0    0  501 -0.00000000000E+00  0.00000000000E+00  0.28267680965E+02  0.28267681414E+02  0.50400000000E-02 0.  1.
          1   -1    0    0  501    0  0.00000000000E+00 -0.00000000000E+00 -0.30832422486E+03  0.30832422490E+03  0.50400000000E-02 0. -1.
    5000001    1    1    2    0    0  0.30537467357E+02 -0.42806405954E+02 -0.13163346931E+03  0.16131117613E+03  0.77000000000E+02 0.  0.
   -5000001    1    1    2    0    0 -0.30537467357E+02  0.42806405954E+02 -0.14842307458E+03  0.17528073018E+03  0.77000000000E+02 0.  0.
<mgrwt>
<rscale>  0 0.18671487E+03</rscale>
<asrwt>0</asrwt>
<pdfrwt beam="1">  1        1 0.44046316E-01 0.18671487E+03</pdfrwt>
<pdfrwt beam="2">  1       -1 0.40382404E-02 0.18671487E+03</pdfrwt>
<totfact> 0.21646269E+04</totfact>
</mgrwt>
</event>
<event>
 4    1  0.3281630E-004  0.1732991E+03  0.7818608E-02  0.1174450E+00
         -1   -1    0    0    0  501 -0.00000000000E+00  0.00000000000E+00  0.39154565656E+02  0.39154565980E+02  0.50400000000E-02 0. -1.
          1   -1    0    0  501    0  0.00000000000E+00 -0.00000000000E+00 -0.19175646064E+03  0.19175646071E+03  0.50400000000E-02 0.  1.
    5000001    1    1    2    0    0  0.29970530204E+02 -0.11803959599E+02 -0.10730922939E+03  0.13594791964E+03  0.77000000000E+02 0.  0.
   -5000001    1    1    2    0    0 -0.29970530204E+02  0.11803959599E+02 -0.45292665596E+02  0.94963107046E+02  0.77000000000E+02 0.  0.
<mgrwt>
<rscale>  0 0.17329906E+03</rscale>
<asrwt>0</asrwt>
<pdfrwt beam="1">  1        1 0.27393780E-01 0.17329906E+03</pdfrwt>
<pdfrwt beam="2">  1       -1 0.55935095E-02 0.17329906E+03</pdfrwt>
<totfact> 0.23981426E+04</totfact>
</mgrwt>
</event>
<event>
 4    1  0.3281630E-004  0.4761353E+03  0.7818608E-02  0.1020203E+00
          1   -1    0    0  501    0  0.00000000000E+00  0.00000000000E+00  0.98504973660E+02  0.98504973789E+02  0.50400000000E-02 0. -1.
         -1   -1    0    0    0  501 -0.00000000000E+00 -0.00000000000E+00 -0.57536395628E+03  0.57536395630E+03  0.50400000000E-02 0.  1.
    5000001    1    1    2    0    0  0.97821352432E+02  0.19127763822E+03 -0.33432571242E+03  0.40479480463E+03  0.77000000000E+02 0.  0.
   -5000001    1    1    2    0    0 -0.97821352432E+02 -0.19127763822E+03 -0.14253327020E+03  0.26907412546E+03  0.77000000000E+02 0.  0.
<mgrwt>
<rscale>  0 0.47613532E+03</rscale>
<asrwt>0</asrwt>
<pdfrwt beam="1">  1        1 0.14072139E-01 0.47613532E+03</pdfrwt>
<pdfrwt beam="2">  1       -1 0.82194849E-01 0.47613532E+03</pdfrwt>
<totfact> 0.62578655E+02</totfact>
</mgrwt>
</event>
<event>
 4    1  0.3281630E-004  0.2129615E+03  0.7818608E-02  0.1139242E+00
          1   -1    0    0  501    0  0.00000000000E+00  0.00000000000E+00  0.34392109648E+03  0.34392109652E+03  0.50400000000E-02 0.  1.
         -1   -1    0    0    0  501 -0.00000000000E+00 -0.00000000000E+00 -0.32967295085E+02  0.32967295471E+02  0.50400000000E-02 0. -1.
    5000001    1    1    2    0    0 -0.41461440413E+02  0.50374821828E+02  0.95397251703E+02  0.13887515742E+03  0.77000000000E+02 0.  0.
   -5000001    1    1    2    0    0  0.41461440413E+02 -0.50374821828E+02  0.21555654969E+03  0.23801323457E+03  0.77000000000E+02 0.  0.
<mgrwt>
<rscale>  0 0.21296148E+03</rscale>
<asrwt>0</asrwt>
<pdfrwt beam="1">  1        1 0.49131590E-01 0.21296148E+03</pdfrwt>
<pdfrwt beam="2">  1       -1 0.47096131E-02 0.21296148E+03</pdfrwt>
<totfact> 0.15176435E+04</totfact>
</mgrwt>
</event>
<event>
 4    1  0.3281630E-004  0.8602201E+03  0.7818608E-02  0.9476722E-01
          1   -1    0    0  501    0  0.00000000000E+00  0.00000000000E+00  0.24713269822E+04  0.24713269822E+04  0.50400000000E-02 0.  1.
         -1   -1    0    0    0  501 -0.00000000000E+00 -0.00000000000E+00 -0.74856411863E+02  0.74856412033E+02  0.50400000000E-02 0. -1.
    5000001    1    1    2    0    0 -0.38176172674E+03  0.20129952979E+02  0.17352667077E+04  0.17785462541E+04  0.77000000000E+02 0.  0.
   -5000001    1    1    2    0    0  0.38176172674E+03 -0.20129952979E+02  0.66120386269E+03  0.76763714022E+03  0.77000000000E+02 0.  0.
<mgrwt>
<rscale>  0 0.86022014E+03</rscale>
<asrwt>0</asrwt>
<pdfrwt beam="1">  1        1 0.35304668E+00 0.86022014E+03</pdfrwt>
<pdfrwt beam="2">  1       -1 0.10693774E-01 0.86022014E+03</pdfrwt>
<totfact> 0.10923014E+02</totfact>
</mgrwt>
</event>
<event>
 4    1  0.3281630E-004  0.2386301E+03  0.7818608E-02  0.1120709E+00
         -1   -1    0    0    0  501 -0.00000000000E+00  0.00000000000E+00  0.15385894649E+02  0.15385895475E+02  0.50400000000E-02 0.  1.
          1   -1    0    0  501    0  0.00000000000E+00 -0.00000000000E+00 -0.92526853241E+03  0.92526853243E+03  0.50400000000E-02 0. -1.
    5000001    1    1    2    0    0 -0.65383897546E+02  0.13673775701E+02 -0.21051031197E+03  0.23389232063E+03  0.77000000000E+02 0.  0.
   -5000001    1    1    2    0    0  0.65383897546E+02 -0.13673775701E+02 -0.69937232579E+03  0.70676210728E+03  0.77000000000E+02 0.  0.
<mgrwt>
<rscale>  0 0.23863013E+03</rscale>
<asrwt>0</asrwt>
<pdfrwt beam="1">  1        1 0.13218118E+00 0.23863013E+03</pdfrwt>
<pdfrwt beam="2">  1       -1 0.21979856E-02 0.23863013E+03</pdfrwt>
<totfact> 0.12183685E+04</totfact>
</mgrwt>
</event>
<event>
 4    1  0.3281630E-004  0.2070844E+03  0.7818608E-02  0.1143896E+00
          1   -1    0    0  501    0  0.00000000000E+00  0.00000000000E+00  0.76982403433E+02  0.76982403598E+02  0.50400000000E-02 0.  1.
         -1   -1    0    0    0  501 -0.00000000000E+00 -0.00000000000E+00 -0.13926538530E+03  0.13926538540E+03  0.50400000000E-02 0. -1.
    5000001    1    1    2    0    0  0.37273077290E+02 -0.36526784120E+02  0.16351736296E+02  0.94445050314E+02  0.77000000000E+02 0.  0.
   -5000001    1    1    2    0    0 -0.37273077290E+02  0.36526784120E+02 -0.78634718167E+02  0.12180273868E+03  0.77000000000E+02 0.  0.
<mgrwt>
<rscale>  0 0.20708437E+03</rscale>
<asrwt>0</asrwt>
<pdfrwt beam="1">  1        1 0.10997486E-01 0.20708437E+03</pdfrwt>
<pdfrwt beam="2">  1       -1 0.19895055E-01 0.20708437E+03</pdfrwt>
<totfact> 0.11130243E+04</totfact>
</mgrwt>
</event>
<event>
 4    1  0.3281630E-004  0.2185048E+03  0.7818608E-02  0.1135003E+00
         -1   -1    0    0    0  501 -0.00000000000E+00  0.00000000000E+00  0.27974560441E+02  0.27974560895E+02  0.50400000000E-02 0.  1.
          1   -1    0    0  501    0  0.00000000000E+00 -0.00000000000E+00 -0.42667665141E+03  0.42667665144E+03  0.50400000000E-02 0. -1.
    5000001    1    1    2    0    0 -0.67833579498E+02 -0.41481570181E+01 -0.12181767106E+03  0.15933344501E+03  0.77000000000E+02 0.  0.
   -5000001    1    1    2    0    0  0.67833579498E+02  0.41481570181E+01 -0.27688441991E+03  0.29531776733E+03  0.77000000000E+02 0.  0.
<mgrwt>
<rscale>  0 0.21850485E+03</rscale>
<asrwt>0</asrwt>
<pdfrwt beam="1">  1        1 0.60953804E-01 0.21850485E+03</pdfrwt>
<pdfrwt beam="2">  1       -1 0.39963661E-02 0.21850485E+03</pdfrwt>
<totfact> 0.14773163E+04</totfact>
</mgrwt>
</event>
<event>
 4    1  0.3281630E-004  0.2335337E+03  0.7818608E-02  0.1124177E+00
         -1   -1    0    0    0  501 -0.00000000000E+00  0.00000000000E+00  0.45423302967E+01  0.45423330928E+01  0.50400000000E-02 0.  1.
          1   -1    0    0  501    0  0.00000000000E+00 -0.00000000000E+00 -0.30016521187E+04  0.30016521187E+04  0.50400000000E-02 0. -1.
    5000001    1    1    2    0    0 -0.84791037891E+02 -0.21235614455E+02 -0.16023598619E+04  0.16065884970E+04  0.77000000000E+02 0.  0.
   -5000001    1    1    2    0    0  0.84791037891E+02  0.21235614455E+02 -0.13947499265E+04  0.13996059548E+04  0.77000000000E+02 0.  0.
<mgrwt>
<rscale>  0 0.23353372E+03</rscale>
<asrwt>0</asrwt>
<pdfrwt beam="1">  1        1 0.42880617E+00 0.23353372E+03</pdfrwt>
<pdfrwt beam="2">  1       -1 0.64890645E-03 0.23353372E+03</pdfrwt>
<totfact> 0.35708577E+03</totfact>
</mgrwt>
</event>
<event>
 4    1  0.3281630E-004  0.9175909E+03  0.7818608E-02  0.9403855E-01
          1   -1    0    0  501    0  0.00000000000E+00  0.00000000000E+00  0.72449645088E+03  0.72449645090E+03  0.50400000000E-02 0.  1.
         -1   -1    0    0    0  501 -0.00000000000E+00 -0.00000000000E+00 -0.29053732194E+03  0.29053732199E+03  0.50400000000E-02 0. -1.
    5000001    1    1    2    0    0  0.11419272162E+03 -0.39573344935E+03  0.10268236071E+02  0.41914123786E+03  0.77000000000E+02 0.  0.
   -5000001    1    1    2    0    0 -0.11419272162E+03  0.39573344935E+03  0.42369089287E+03  0.59589253503E+03  0.77000000000E+02 0.  0.
<mgrwt>
<rscale>  0 0.91759089E+03</rscale>
<asrwt>0</asrwt>
<pdfrwt beam="1">  1        1 0.10349949E+00 0.91759089E+03</pdfrwt>
<pdfrwt beam="2">  1       -1 0.41505332E-01 0.91759089E+03</pdfrwt>
<totfact> 0.16556666E+02</totfact>
</mgrwt>
</event>
<event>
 4    1  0.3281630E-004  0.3861463E+03  0.7818608E-02  0.1048685E+00
         -1   -1    0    0    0  501 -0.00000000000E+00  0.00000000000E+00  0.31753250116E+02  0.31753250516E+02  0.50400000000E-02 0. -1.
          1   -1    0    0  501    0  0.00000000000E+00 -0.00000000000E+00 -0.11739659091E+04  0.11739659091E+04  0.50400000000E-02 0.  1.
    5000001    1    1    2    0    0  0.10659313901E+03 -0.14091698580E+03 -0.60650705373E+03  0.63639571055E+03  0.77000000000E+02 0.  0.
   -5000001    1    1    2    0    0 -0.10659313901E+03  0.14091698580E+03 -0.53570560521E+03  0.56932344904E+03  0.77000000000E+02 0.  0.
<mgrwt>
<rscale>  0 0.38614626E+03</rscale>
<asrwt>0</asrwt>
<pdfrwt beam="1">  1        1 0.16770939E+00 0.38614626E+03</pdfrwt>
<pdfrwt beam="2">  1       -1 0.45361793E-02 0.38614626E+03</pdfrwt>
<totfact> 0.28022571E+03</totfact>
</mgrwt>
</event>
<event>
 4    1  0.3281630E-004  0.2152525E+03  0.7818608E-02  0.1137473E+00
          1   -1    0    0  501    0  0.00000000000E+00  0.00000000000E+00  0.16732607105E+03  0.16732607113E+03  0.50400000000E-02 0. -1.
         -1   -1    0    0    0  501 -0.00000000000E+00 -0.00000000000E+00 -0.69226564090E+02  0.69226564273E+02  0.50400000000E-02 0.  1.
    5000001    1    1    2    0    0  0.58418171807E+02  0.80527055809E+01 -0.22242063408E+01  0.97012761832E+02  0.77000000000E+02 0.  0.
   -5000001    1    1    2    0    0 -0.58418171807E+02 -0.80527055809E+01  0.10032371330E+03  0.13953987357E+03  0.77000000000E+02 0.  0.
<mgrwt>
<rscale>  0 0.21525249E+03</rscale>
<asrwt>0</asrwt>
<pdfrwt beam="1">  1        1 0.23903724E-01 0.21525249E+03</pdfrwt>
<pdfrwt beam="2">  1       -1 0.98895094E-02 0.21525249E+03</pdfrwt>
<totfact> 0.12221577E+04</totfact>
</mgrwt>
</event>
<event>
 4    1  0.3281630E-004  0.2140790E+03  0.7818608E-02  0.1138376E+00
          1   -1    0    0  501    0  0.00000000000E+00  0.00000000000E+00  0.28230262776E+02  0.28230263226E+02  0.50400000000E-02 0. -1.
         -1   -1    0    0    0  501 -0.00000000000E+00 -0.00000000000E+00 -0.40585711677E+03  0.40585711680E+03  0.50400000000E-02 0.  1.
    5000001    1    1    2    0    0 -0.30752357777E+02  0.67569902021E+02 -0.18043975108E+03  0.20975915460E+03  0.77000000000E+02 0.  0.
   -5000001    1    1    2    0    0  0.30752357777E+02 -0.67569902021E+02 -0.19718710291E+03  0.22432822543E+03  0.77000000000E+02 0.  0.
<mgrwt>
<rscale>  0 0.21407899E+03</rscale>
<asrwt>0</asrwt>
<pdfrwt beam="1">  1        1 0.40328950E-02 0.21407899E+03</pdfrwt>
<pdfrwt beam="2">  1       -1 0.57979585E-01 0.21407899E+03</pdfrwt>
<totfact> 0.68435295E+03</totfact>
</mgrwt>
</event>
<event>
 4    1  0.3281630E-004  0.2730554E+03  0.7818608E-02  0.1099544E+00
          1   -1    0    0  501    0  0.00000000000E+00  0.00000000000E+00  0.93046298190E+03  0.93046298191E+03  0.50400000000E-02 0.  1.
         -1   -1    0    0    0  501 -0.00000000000E+00 -0.00000000000E+00 -0.20032841720E+02  0.20032842354E+02  0.50400000000E-02 0. -1.
    5000001    1    1    2    0    0 -0.97370130263E+02 -0.44599903688E+02  0.57782821277E+03  0.59269261608E+03  0.77000000000E+02 0.  0.
   -5000001    1    1    2    0    0  0.97370130263E+02  0.44599903688E+02  0.33260192741E+03  0.35780320819E+03  0.77000000000E+02 0.  0.
<mgrwt>
<rscale>  0 0.27305544E+03</rscale>
<asrwt>0</asrwt>
<pdfrwt beam="1">  1        1 0.13292326E+00 0.27305544E+03</pdfrwt>
<pdfrwt beam="2">  1       -1 0.28618351E-02 0.27305544E+03</pdfrwt>
<totfact> 0.82394202E+03</totfact>
</mgrwt>
</event>
<event>
 4    1  0.3281630E-004  0.1588400E+03  0.7818608E-02  0.1190013E+00
         -1   -1    0    0    0  501 -0.00000000000E+00  0.00000000000E+00  0.42315587522E+01  0.42315617536E+01  0.50400000000E-02 0. -1.
          1   -1    0    0  501    0  0.00000000000E+00 -0.00000000000E+00 -0.14905933047E+04  0.14905933047E+04  0.50400000000E-02 0.  1.
    5000001    1    1    2    0    0 -0.11394843129E+02  0.15768565489E+02 -0.74518357059E+03  0.74940379235E+03  0.77000000000E+02 0.  0.
   -5000001    1    1    2    0    0  0.11394843129E+02 -0.15768565489E+02 -0.74117817537E+03  0.74542107413E+03  0.77000000000E+02 0.  0.
<mgrwt>
<rscale>  0 0.15883999E+03</rscale>
<asrwt>0</asrwt>
<pdfrwt beam="1">  1        1 0.21294157E+00 0.15883999E+03</pdfrwt>
<pdfrwt beam="2">  1       -1 0.60450956E-03 0.15883999E+03</pdfrwt>
<totfact> 0.32126330E+04</totfact>
</mgrwt>
</event>
<event>
 4    1  0.3281630E-004  0.2828485E+03  0.7818608E-02  0.1094143E+00
         -1   -1    0    0    0  501 -0.00000000000E+00  0.00000000000E+00  0.12321433165E+02  0.12321434196E+02  0.50400000000E-02 0.  1.
          1   -1    0    0  501    0  0.00000000000E+00 -0.00000000000E+00 -0.16232541823E+04  0.16232541823E+04  0.50400000000E-02 0. -1.
    5000001    1    1    2    0    0 -0.69008712514E+02 -0.95428194617E+02 -0.72306279412E+03  0.73662578489E+03  0.77000000000E+02 0.  0.
   -5000001    1    1    2    0    0  0.69008712514E+02  0.95428194617E+02 -0.88786995500E+03  0.89894983159E+03  0.77000000000E+02 0.  0.
<mgrwt>
<rscale>  0 0.28284850E+03</rscale>
<asrwt>0</asrwt>
<pdfrwt beam="1">  1        1 0.23189332E+00 0.28284850E+03</pdfrwt>
<pdfrwt beam="2">  1       -1 0.17602058E-02 0.28284850E+03</pdfrwt>
<totfact> 0.58540894E+03</totfact>
</mgrwt>
</event>
<event>
 4    1  0.3281630E-004  0.2373459E+03  0.7818608E-02  0.1121574E+00
          1   -1    0    0  501    0  0.00000000000E+00  0.00000000000E+00  0.16757073770E+04  0.16757073770E+04  0.50400000000E-02 0. -1.
         -1   -1    0    0    0  501 -0.00000000000E+00 -0.00000000000E+00 -0.84043733057E+01  0.84043748170E+01  0.50400000000E-02 0.  1.
    5000001    1    1    2    0    0 -0.37540624757E+02 -0.58901904632E+02  0.42755382628E+03  0.44001137172E+03  0.77000000000E+02 0.  0.
   -5000001    1    1    2    0    0  0.37540624757E+02  0.58901904632E+02  0.12397491774E+04  0.12441003801E+04  0.77000000000E+02 0.  0.
<mgrwt>
<rscale>  0 0.23734592E+03</rscale>
<asrwt>0</asrwt>
<pdfrwt beam="1">  1        1 0.23938677E+00 0.23734592E+03</pdfrwt>
<pdfrwt beam="2">  1       -1 0.12006249E-02 0.23734592E+03</pdfrwt>
<totfact> 0.94455914E+03</totfact>
</mgrwt>
</event>
<event>
 4    1  0.3281630E-004  0.4275020E+03  0.7818608E-02  0.1034652E+00
         -1   -1    0    0    0  501 -0.00000000000E+00  0.00000000000E+00  0.36846911709E+02  0.36846912054E+02  0.50400000000E-02 0. -1.
          1   -1    0    0  501    0  0.00000000000E+00 -0.00000000000E+00 -0.12399818110E+04  0.12399818110E+04  0.50400000000E-02 0.  1.
    5000001    1    1    2    0    0  0.10996406999E+03  0.16590292199E+03 -0.56564920408E+03  0.60456918404E+03  0.77000000000E+02 0.  0.
   -5000001    1    1    2    0    0 -0.10996406999E+03 -0.16590292199E+03 -0.63748569523E+03  0.67225953904E+03  0.77000000000E+02 0.  0.
<mgrwt>
<rscale>  0 0.42750205E+03</rscale>
<asrwt>0</asrwt>
<pdfrwt beam="1">  1        1 0.17714023E+00 0.42750205E+03</pdfrwt>
<pdfrwt beam="2">  1       -1 0.52638453E-02 0.42750205E+03</pdfrwt>
<totfact> 0.20186731E+03</totfact>
</mgrwt>
</event>
<event>
 4    1  0.3281630E-004  0.3500737E+03  0.7818608E-02  0.1062585E+00
         -1   -1    0    0    0  501 -0.00000000000E+00  0.00000000000E+00  0.62583253663E+02  0.62583253866E+02  0.50400000000E-02 0. -1.
          1   -1    0    0  501    0  0.00000000000E+00 -0.00000000000E+00 -0.48955416915E+03  0.48955416917E+03  0.50400000000E-02 0.  1.
    5000001    1    1    2    0    0 -0.67163849507E+02  0.62134006410E+02 -0.41507943671E+03  0.43196244769E+03  0.77000000000E+02 0.  0.
   -5000001    1    1    2    0    0  0.67163849507E+02 -0.62134006410E+02 -0.11891478774E+02  0.12017497535E+03  0.77000000000E+02 0.  0.
<mgrwt>
<rscale>  0 0.35007367E+03</rscale>
<asrwt>0</asrwt>
<pdfrwt beam="1">  1        1 0.69936308E-01 0.35007367E+03</pdfrwt>
<pdfrwt beam="2">  1       -1 0.89404651E-02 0.35007367E+03</pdfrwt>
<totfact> 0.37301922E+03</totfact>
</mgrwt>
</event>
<event>
 4    1  0.3281630E-004  0.1988191E+03  0.7818608E-02  0.1150739E+00
          1   -1    0    0  501    0  0.00000000000E+00  0.00000000000E+00  0.92666565563E+01  0.92666579269E+01  0.50400000000E-02 0.  1.
         -1   -1    0    0    0  501 -0.00000000000E+00 -0.00000000000E+00 -0.10664322366E+04  0.10664322366E+04  0.50400000000E-02 0. -1.
    5000001    1    1    2    0    0  0.22432255059E+02 -0.29714968269E+02 -0.80270988229E+03  0.80725357882E+03  0.77000000000E+02 0.  0.
   -5000001    1    1    2    0    0 -0.22432255059E+02  0.29714968269E+02 -0.25445569772E+03  0.26844531568E+03  0.77000000000E+02 0.  0.
<mgrwt>
<rscale>  0 0.19881913E+03</rscale>
<asrwt>0</asrwt>
<pdfrwt beam="1">  1        1 0.13238089E-02 0.19881913E+03</pdfrwt>
<pdfrwt beam="2">  1       -1 0.15234738E+00 0.19881913E+03</pdfrwt>
<totfact> 0.38778169E+03</totfact>
</mgrwt>
</event>
<event>
 4    1  0.3281630E-004  0.1825433E+03  0.7818608E-02  0.1165364E+00
         -1   -1    0    0    0  501 -0.00000000000E+00  0.00000000000E+00  0.54609220670E+02  0.54609220903E+02  0.50400000000E-02 0. -1.
          1   -1    0    0  501    0  0.00000000000E+00 -0.00000000000E+00 -0.15254781055E+03  0.15254781064E+03  0.50400000000E-02 0.  1.
    5000001    1    1    2    0    0  0.39782500097E+02  0.17687497584E+02 -0.74497394678E+02  0.11564755379E+03  0.77000000000E+02 0.  0.
   -5000001    1    1    2    0    0 -0.39782500097E+02 -0.17687497584E+02 -0.23441195207E+02  0.91509477747E+02  0.77000000000E+02 0.  0.
<mgrwt>
<rscale>  0 0.18254333E+03</rscale>
<asrwt>0</asrwt>
<pdfrwt beam="1">  1        1 0.21792544E-01 0.18254333E+03</pdfrwt>
<pdfrwt beam="2">  1       -1 0.78013173E-02 0.18254333E+03</pdfrwt>
<totfact> 0.19506820E+04</totfact>
</mgrwt>
</event>
<event>
 4    1  0.3281630E-004  0.3528934E+03  0.7818608E-02  0.1061434E+00
          1   -1    0    0  501    0  0.00000000000E+00  0.00000000000E+00  0.97625389946E+03  0.97625389947E+03  0.50400000000E-02 0.  1.
         -1   -1    0    0    0  501 -0.00000000000E+00 -0.00000000000E+00 -0.31890721498E+02  0.31890721897E+02  0.50400000000E-02 0. -1.
    5000001    1    1    2    0    0  0.12043893044E+03 -0.33705504581E+02  0.19281605685E+03  0.24238116425E+03  0.77000000000E+02 0.  0.
   -5000001    1    1    2    0    0 -0.12043893044E+03  0.33705504581E+02  0.75154712111E+03  0.76576345712E+03  0.77000000000E+02 0.  0.
<mgrwt>
<rscale>  0 0.35289342E+03</rscale>
<asrwt>0</asrwt>
<pdfrwt beam="1">  1        1 0.13946485E+00 0.35289342E+03</pdfrwt>
<pdfrwt beam="2">  1       -1 0.45558170E-02 0.35289342E+03</pdfrwt>
<totfact> 0.38349878E+03</totfact>
</mgrwt>
</event>
<event>
 4    1  0.3281630E-004  0.1866090E+03  0.7818608E-02  0.1161556E+00
         -1   -1    0    0    0  501 -0.00000000000E+00  0.00000000000E+00  0.18714299584E+01  0.18714367451E+01  0.50400000000E-02 0. -1.
          1   -1    0    0  501    0  0.00000000000E+00 -0.00000000000E+00 -0.46519061844E+04  0.46519061844E+04  0.50400000000E-02 0.  1.
    5000001    1    1    2    0    0 -0.31293649323E+02 -0.42389712137E+02 -0.23064852142E+04  0.23083715523E+04  0.77000000000E+02 0.  0.
   -5000001    1    1    2    0    0  0.31293649323E+02  0.42389712137E+02 -0.23435495402E+04  0.23454060688E+04  0.77000000000E+02 0.  0.
<mgrwt>
<rscale>  0 0.18660903E+03</rscale>
<asrwt>0</asrwt>
<pdfrwt beam="1">  1        1 0.66455062E+00 0.18660903E+03</pdfrwt>
<pdfrwt beam="2">  1       -1 0.26735060E-03 0.18660903E+03</pdfrwt>
<totfact> 0.83459940E+02</totfact>
</mgrwt>
</event>
<event>
 4    1  0.3281630E-004  0.4459105E+03  0.7818608E-02  0.1028949E+00
         -1   -1    0    0    0  501 -0.00000000000E+00  0.00000000000E+00  0.18693514636E+03  0.18693514643E+03  0.50400000000E-02 0. -1.
          1   -1    0    0  501    0  0.00000000000E+00 -0.00000000000E+00 -0.26591594345E+03  0.26591594350E+03  0.50400000000E-02 0.  1.
    5000001    1    1    2    0    0  0.99784621263E+02  0.16875444879E+03 -0.11373786789E+03  0.23937488845E+03  0.77000000000E+02 0.  0.
   -5000001    1    1    2    0    0 -0.99784621263E+02 -0.16875444879E+03  0.34757070806E+02  0.21347620148E+03  0.77000000000E+02 0.  0.
<mgrwt>
<rscale>  0 0.44591047E+03</rscale>
<asrwt>0</asrwt>
<pdfrwt beam="1">  1        1 0.37987992E-01 0.44591047E+03</pdfrwt>
<pdfrwt beam="2">  1       -1 0.26705021E-01 0.44591047E+03</pdfrwt>
<totfact> 0.14058244E+03</totfact>
</mgrwt>
</event>
<event>
 4    1  0.3281630E-004  0.3174280E+03  0.7818608E-02  0.1076839E+00
         -1   -1    0    0    0  501 -0.00000000000E+00  0.00000000000E+00  0.58810935425E+03  0.58810935427E+03  0.50400000000E-02 0. -1.
          1   -1    0    0  501    0  0.00000000000E+00 -0.00000000000E+00 -0.42832392452E+02  0.42832392748E+02  0.50400000000E-02 0.  1.
    5000001    1    1    2    0    0  0.38554060512E+01  0.72243411903E+02  0.37226332104E+02  0.11202131280E+03  0.77000000000E+02 0.  0.
   -5000001    1    1    2    0    0 -0.38554060512E+01 -0.72243411903E+02  0.50805062969E+03  0.51892043422E+03  0.77000000000E+02 0.  0.
<mgrwt>
<rscale>  0 0.31742798E+03</rscale>
<asrwt>0</asrwt>
<pdfrwt beam="1">  1        1 0.61189133E-02 0.31742798E+03</pdfrwt>
<pdfrwt beam="2">  1       -1 0.84015622E-01 0.31742798E+03</pdfrwt>
<totfact> 0.18556289E+03</totfact>
</mgrwt>
</event>
<event>
 4    1  0.3281630E-004  0.2555731E+03  0.7818608E-02  0.1109833E+00
         -1   -1    0    0    0  501 -0.00000000000E+00  0.00000000000E+00  0.26932988395E+02  0.26932988866E+02  0.50400000000E-02 0. -1.
          1   -1    0    0  501    0  0.00000000000E+00 -0.00000000000E+00 -0.60629729981E+03  0.60629729983E+03  0.50400000000E-02 0.  1.
    5000001    1    1    2    0    0  0.10266279645E+02 -0.63374704318E+02 -0.93355312477E+02  0.13698891931E+03  0.77000000000E+02 0.  0.
   -5000001    1    1    2    0    0 -0.10266279645E+02  0.63374704318E+02 -0.48600899893E+03  0.49624136939E+03  0.77000000000E+02 0.  0.
<mgrwt>
<rscale>  0 0.25557307E+03</rscale>
<asrwt>0</asrwt>
<pdfrwt beam="1">  1        1 0.86613892E-01 0.25557307E+03</pdfrwt>
<pdfrwt beam="2">  1       -1 0.38475702E-02 0.25557307E+03</pdfrwt>
<totfact> 0.99338152E+03</totfact>
</mgrwt>
</event>
<event>
 4    1  0.3281630E-004  0.2922163E+03  0.7818608E-02  0.1089198E+00
         -1   -1    0    0    0  501 -0.00000000000E+00  0.00000000000E+00  0.11038601698E+02  0.11038602849E+02  0.50400000000E-02 0. -1.
          1   -1    0    0  501    0  0.00000000000E+00 -0.00000000000E+00 -0.19339039732E+04  0.19339039732E+04  0.50400000000E-02 0.  1.
    5000001    1    1    2    0    0 -0.43807530698E+02 -0.11037918179E+03 -0.12028782487E+04  0.12111761823E+04  0.77000000000E+02 0.  0.
   -5000001    1    1    2    0    0  0.43807530698E+02  0.11037918179E+03 -0.71998712281E+03  0.73376639370E+03  0.77000000000E+02 0.  0.
<mgrwt>
<rscale>  0 0.29221634E+03</rscale>
<asrwt>0</asrwt>
<pdfrwt beam="1">  1        1 0.27627178E+00 0.29221634E+03</pdfrwt>
<pdfrwt beam="2">  1       -1 0.15769444E-02 0.29221634E+03</pdfrwt>
<totfact> 0.44464638E+03</totfact>
</mgrwt>
</event>
<event>
 4    1  0.3281630E-004  0.2123929E+03  0.7818608E-02  0.1139685E+00
         -1   -1    0    0    0  501 -0.00000000000E+00  0.00000000000E+00  0.16977885485E+02  0.16977886233E+02  0.50400000000E-02 0. -1.
          1   -1    0    0  501    0  0.00000000000E+00 -0.00000000000E+00 -0.66425764877E+03  0.66425764879E+03  0.50400000000E-02 0.  1.
    5000001    1    1    2    0    0 -0.60472633036E+02 -0.21935300644E+02 -0.43523788712E+03  0.44665323814E+03  0.77000000000E+02 0.  0.
   -5000001    1    1    2    0    0  0.60472633036E+02  0.21935300644E+02 -0.21204187617E+03  0.23458229688E+03  0.77000000000E+02 0.  0.
<mgrwt>
<rscale>  0 0.21239294E+03</rscale>
<asrwt>0</asrwt>
<pdfrwt beam="1">  1        1 0.94893934E-01 0.21239294E+03</pdfrwt>
<pdfrwt beam="2">  1       -1 0.24254127E-02 0.21239294E+03</pdfrwt>
<totfact> 0.17113501E+04</totfact>
</mgrwt>
</event>
<event>
 4    1  0.3281630E-004  0.2245037E+03  0.7818608E-02  0.1130569E+00
          1   -1    0    0  501    0  0.00000000000E+00  0.00000000000E+00  0.65394184874E+03  0.65394184876E+03  0.50400000000E-02 0. -1.
         -1   -1    0    0    0  501 -0.00000000000E+00 -0.00000000000E+00 -0.19268497290E+02  0.19268497949E+02  0.50400000000E-02 0.  1.
    5000001    1    1    2    0    0 -0.61405253663E+02  0.32418225221E+01  0.47855093117E+03  0.48859094170E+03  0.77000000000E+02 0.  0.
   -5000001    1    1    2    0    0  0.61405253663E+02 -0.32418225221E+01  0.15612242028E+03  0.18461940501E+03  0.77000000000E+02 0.  0.
<mgrwt>
<rscale>  0 0.22450369E+03</rscale>
<asrwt>0</asrwt>
<pdfrwt beam="1">  1        1 0.93420252E-01 0.22450369E+03</pdfrwt>
<pdfrwt beam="2">  1       -1 0.27526429E-02 0.22450369E+03</pdfrwt>
<totfact> 0.14579341E+04</totfact>
</mgrwt>
</event>
<event>
 4    1  0.3281630E-004  0.4945827E+03  0.7818608E-02  0.1015203E+00
         -1   -1    0    0    0  501 -0.00000000000E+00  0.00000000000E+00  0.35570263621E+02  0.35570263978E+02  0.50400000000E-02 0. -1.
          1   -1    0    0  501    0  0.00000000000E+00 -0.00000000000E+00 -0.17192171102E+04  0.17192171102E+04  0.50400000000E-02 0.  1.
    5000001    1    1    2    0    0  0.19126248635E+03  0.21409975114E+02 -0.13202702297E+04  0.13364438653E+04  0.77000000000E+02 0.  0.
   -5000001    1    1    2    0    0 -0.19126248635E+03 -0.21409975114E+02 -0.36337661694E+03  0.41834350892E+03  0.77000000000E+02 0.  0.
<mgrwt>
<rscale>  0 0.49458268E+03</rscale>
<asrwt>0</asrwt>
<pdfrwt beam="1">  1        1 0.24560239E+00 0.49458268E+03</pdfrwt>
<pdfrwt beam="2">  1       -1 0.50814673E-02 0.49458268E+03</pdfrwt>
<totfact> 0.10482184E+03</totfact>
</mgrwt>
</event>
<event>
 4    1  0.3281630E-004  0.4544098E+03  0.7818608E-02  0.1026415E+00
          1   -1    0    0  501    0  0.00000000000E+00  0.00000000000E+00  0.13520446584E+04  0.13520446584E+04  0.50400000000E-02 0.  1.
         -1   -1    0    0    0  501 -0.00000000000E+00 -0.00000000000E+00 -0.38180737193E+02  0.38180737526E+02  0.50400000000E-02 0. -1.
    5000001    1    1    2    0    0  0.18744548501E+03  0.43698220016E+02  0.94143591071E+03  0.96398958411E+03  0.77000000000E+02 0.  0.
   -5000001    1    1    2    0    0 -0.18744548501E+03 -0.43698220016E+02  0.37242801046E+03  0.42623581180E+03  0.77000000000E+02 0.  0.
<mgrwt>
<rscale>  0 0.45440978E+03</rscale>
<asrwt>0</asrwt>
<pdfrwt beam="1">  1        1 0.19314922E+00 0.45440978E+03</pdfrwt>
<pdfrwt beam="2">  1       -1 0.54543914E-02 0.45440978E+03</pdfrwt>
<totfact> 0.16117288E+03</totfact>
</mgrwt>
</event>
<event>
 4    1  0.3281630E-004  0.2932088E+03  0.7818608E-02  0.1088686E+00
          1   -1    0    0  501    0  0.00000000000E+00  0.00000000000E+00  0.37867314161E+03  0.37867314165E+03  0.50400000000E-02 0.  1.
         -1   -1    0    0    0  501 -0.00000000000E+00 -0.00000000000E+00 -0.56758301789E+02  0.56758302012E+02  0.50400000000E-02 0. -1.
    5000001    1    1    2    0    0  0.65337045059E+02 -0.81144620072E+02  0.59033817405E+02  0.14236351506E+03  0.77000000000E+02 0.  0.
   -5000001    1    1    2    0    0 -0.65337045059E+02  0.81144620072E+02  0.26288102242E+03  0.29306792860E+03  0.77000000000E+02 0.  0.
<mgrwt>
<rscale>  0 0.29320876E+03</rscale>
<asrwt>0</asrwt>
<pdfrwt beam="1">  1        1 0.54096164E-01 0.29320876E+03</pdfrwt>
<pdfrwt beam="2">  1       -1 0.81083287E-02 0.29320876E+03</pdfrwt>
<totfact> 0.60129657E+03</totfact>
</mgrwt>
</event>
<event>
 4    1  0.3281630E-004  0.2793615E+03  0.7818608E-02  0.1096038E+00
         -1   -1    0    0    0  501 -0.00000000000E+00  0.00000000000E+00  0.15663990710E+02  0.15663991521E+02  0.50400000000E-02 0. -1.
          1   -1    0    0  501    0  0.00000000000E+00 -0.00000000000E+00 -0.12455773103E+04  0.12455773103E+04  0.50400000000E-02 0.  1.
    5000001    1    1    2    0    0 -0.10288905587E+03 -0.37555241035E+02 -0.43520707051E+03  0.45533586304E+03  0.77000000000E+02 0.  0.
   -5000001    1    1    2    0    0  0.10288905587E+03  0.37555241035E+02 -0.79470624906E+03  0.80590543878E+03  0.77000000000E+02 0.  0.
<mgrwt>
<rscale>  0 0.27936150E+03</rscale>
<asrwt>0</asrwt>
<pdfrwt beam="1">  1        1 0.17793955E+00 0.27936150E+03</pdfrwt>
<pdfrwt beam="2">  1       -1 0.22377138E-02 0.27936150E+03</pdfrwt>
<totfact> 0.71460574E+03</totfact>
</mgrwt>
</event>
<event>
 4    1  0.3281630E-004  0.1725138E+03  0.7818608E-02  0.1175251E+00
         -1   -1    0    0    0  501 -0.00000000000E+00  0.00000000000E+00  0.89624722303E+02  0.89624722444E+02  0.50400000000E-02 0. -1.
          1   -1    0    0  501    0  0.00000000000E+00 -0.00000000000E+00 -0.83015601817E+02  0.83015601970E+02  0.50400000000E-02 0.  1.
    5000001    1    1    2    0    0  0.36041507622E+02 -0.94985450820E+01 -0.77506091573E+01  0.85896941579E+02  0.77000000000E+02 0.  0.
   -5000001    1    1    2    0    0 -0.36041507622E+02  0.94985450820E+01  0.14359729643E+02  0.86743382836E+02  0.77000000000E+02 0.  0.
<mgrwt>
<rscale>  0 0.17251377E+03</rscale>
<asrwt>0</asrwt>
<pdfrwt beam="1">  1        1 0.11859372E-01 0.17251377E+03</pdfrwt>
<pdfrwt beam="2">  1       -1 0.12803532E-01 0.17251377E+03</pdfrwt>
<totfact> 0.19970454E+04</totfact>
</mgrwt>
</event>
<event>
 4    1  0.3281630E-004  0.2216387E+03  0.7818608E-02  0.1132667E+00
          1   -1    0    0  501    0  0.00000000000E+00  0.00000000000E+00  0.20365436442E+02  0.20365437066E+02  0.50400000000E-02 0.  1.
         -1   -1    0    0    0  501 -0.00000000000E+00 -0.00000000000E+00 -0.60302805520E+03  0.60302805522E+03  0.50400000000E-02 0. -1.
    5000001    1    1    2    0    0 -0.46196377559E+02 -0.44709180119E+02 -0.15884016666E+03  0.18786222247E+03  0.77000000000E+02 0.  0.
   -5000001    1    1    2    0    0  0.46196377559E+02  0.44709180119E+02 -0.42382245210E+03  0.43553126981E+03  0.77000000000E+02 0.  0.
<mgrwt>
<rscale>  0 0.22163871E+03</rscale>
<asrwt>0</asrwt>
<pdfrwt beam="1">  1        1 0.29093485E-02 0.22163871E+03</pdfrwt>
<pdfrwt beam="2">  1       -1 0.86146854E-01 0.22163871E+03</pdfrwt>
<totfact> 0.48983834E+03</totfact>
</mgrwt>
</event>
<event>
 4    1  0.3281630E-004  0.3066864E+03  0.7818608E-02  0.1081945E+00
         -1   -1    0    0    0  501 -0.00000000000E+00  0.00000000000E+00  0.79479362621E+01  0.79479378601E+01  0.50400000000E-02 0. -1.
          1   -1    0    0  501    0  0.00000000000E+00 -0.00000000000E+00 -0.29585207717E+04  0.29585207717E+04  0.50400000000E-02 0.  1.
    5000001    1    1    2    0    0  0.99871912503E+02 -0.80611454359E+02 -0.11526589070E+04  0.11623356492E+04  0.77000000000E+02 0.  0.
   -5000001    1    1    2    0    0 -0.99871912503E+02  0.80611454359E+02 -0.17979139284E+04  0.18041330604E+04  0.77000000000E+02 0.  0.
<mgrwt>
<rscale>  0 0.30668640E+03</rscale>
<asrwt>0</asrwt>
<pdfrwt beam="1">  1        1 0.42264512E+00 0.30668640E+03</pdfrwt>
<pdfrwt beam="2">  1       -1 0.11354215E-02 0.30668640E+03</pdfrwt>
<totfact> 0.16882903E+03</totfact>
</mgrwt>
</event>
<event>
 4    1  0.3281630E-004  0.3061797E+03  0.7818608E-02  0.1082192E+00
          1   -1    0    0  501    0  0.00000000000E+00  0.00000000000E+00  0.19903944708E+04  0.19903944708E+04  0.50400000000E-02 0.  1.
         -1   -1    0    0    0  501 -0.00000000000E+00 -0.00000000000E+00 -0.11774804221E+02  0.11774805300E+02  0.50400000000E-02 0. -1.
    5000001    1    1    2    0    0  0.10153757279E+03  0.70713406609E+01  0.43646252038E+03  0.45473994134E+03  0.77000000000E+02 0.  0.
   -5000001    1    1    2    0    0 -0.10153757279E+03 -0.70713406609E+01  0.15421571462E+04  0.15474293348E+04  0.77000000000E+02 0.  0.
<mgrwt>
<rscale>  0 0.30617973E+03</rscale>
<asrwt>0</asrwt>
<pdfrwt beam="1">  1        1 0.28434205E+00 0.30617973E+03</pdfrwt>
<pdfrwt beam="2">  1       -1 0.16821151E-02 0.30617973E+03</pdfrwt>
<totfact> 0.37401672E+03</totfact>
</mgrwt>
</event>
<event>
 4    1  0.3281630E-004  0.2536187E+03  0.7818608E-02  0.1111039E+00
          1   -1    0    0  501    0  0.00000000000E+00  0.00000000000E+00  0.56843453727E+03  0.56843453729E+03  0.50400000000E-02 0. -1.
         -1   -1    0    0    0  501 -0.00000000000E+00 -0.00000000000E+00 -0.28289303135E+02  0.28289303584E+02  0.50400000000E-02 0.  1.
    5000001    1    1    2    0    0  0.68471671352E+02  0.68799724969E+02  0.33363605815E+03  0.35589856874E+03  0.77000000000E+02 0.  0.
   -5000001    1    1    2    0    0 -0.68471671352E+02 -0.68799724969E+02  0.20650917598E+03  0.24082527213E+03  0.77000000000E+02 0.  0.
<mgrwt>
<rscale>  0 0.25361875E+03</rscale>
<asrwt>0</asrwt>
<pdfrwt beam="1">  1        1 0.81204936E-01 0.25361875E+03</pdfrwt>
<pdfrwt beam="2">  1       -1 0.40413290E-02 0.25361875E+03</pdfrwt>
<totfact> 0.10073159E+04</totfact>
</mgrwt>
</event>
<event>
 4    1  0.3281630E-004  0.2340371E+03  0.7818608E-02  0.1123830E+00
          1   -1    0    0  501    0  0.00000000000E+00  0.00000000000E+00  0.30139997270E+03  0.30139997274E+03  0.50400000000E-02 0.  1.
         -1   -1    0    0    0  501 -0.00000000000E+00 -0.00000000000E+00 -0.45432460371E+02  0.45432460650E+02  0.50400000000E-02 0. -1.
    5000001    1    1    2    0    0 -0.60322368732E+02  0.38555841949E+02  0.51853941575E+02  0.11723127729E+03  0.77000000000E+02 0.  0.
   -5000001    1    1    2    0    0  0.60322368732E+02 -0.38555841949E+02  0.20411357075E+03  0.22960115610E+03  0.77000000000E+02 0.  0.
<mgrwt>
<rscale>  0 0.23403711E+03</rscale>
<asrwt>0</asrwt>
<pdfrwt beam="1">  1        1 0.43057141E-01 0.23403711E+03</pdfrwt>
<pdfrwt beam="2">  1       -1 0.64903513E-02 0.23403711E+03</pdfrwt>
<totfact> 0.11135383E+04</totfact>
</mgrwt>
</event>
<event>
 4    1  0.3281630E-004  0.1986366E+03  0.7818608E-02  0.1150894E+00
          1   -1    0    0  501    0  0.00000000000E+00  0.00000000000E+00  0.11032739959E+02  0.11032741110E+02  0.50400000000E-02 0.  1.
         -1   -1    0    0    0  501 -0.00000000000E+00 -0.00000000000E+00 -0.89407722135E+03  0.89407722136E+03  0.50400000000E-02 0. -1.
    5000001    1    1    2    0    0 -0.17464778522E+02 -0.55655713111E+02 -0.54667491870E+03  0.55514416473E+03  0.77000000000E+02 0.  0.
   -5000001    1    1    2    0    0  0.17464778522E+02  0.55655713111E+02 -0.33636956268E+03  0.34996579774E+03  0.77000000000E+02 0.  0.
<mgrwt>
<rscale>  0 0.19863657E+03</rscale>
<asrwt>0</asrwt>
<pdfrwt beam="1">  1        1 0.15761064E-02 0.19863657E+03</pdfrwt>
<pdfrwt beam="2">  1       -1 0.12772527E+00 0.19863657E+03</pdfrwt>
<totfact> 0.47320138E+03</totfact>
</mgrwt>
</event>
