<event>
 4    1  0.4998754E-005  0.7437994E+03  0.7818608E-02  0.9645129E-01
          2   -1    0    0  501    0  0.00000000000E+00  0.00000000000E+00  0.53369959747E+03  0.53369959748E+03  0.25500000000E-02 0.  1.
         -2   -1    0    0    0  501 -0.00000000000E+00 -0.00000000000E+00 -0.25915215079E+03  0.25915215080E+03  0.25500000000E-02 0. -1.
    5000001    1    1    2    0    0  0.26068234541E+02  0.31043043429E+03  0.18072718416E+03  0.41147286968E+03  0.19900000000E+03 0.  0.
   -5000001    1    1    2    0    0 -0.26068234541E+02 -0.31043043429E+03  0.93820262528E+02  0.38137887861E+03  0.19900000000E+03 0.  0.
<mgrwt>
<rscale>  0 0.74379943E+03</rscale>
<asrwt>0</asrwt>
<pdfrwt beam="1">  1        2 0.76242799E-01 0.74379943E+03</pdfrwt>
<pdfrwt beam="2">  1       -2 0.37021736E-01 0.74379943E+03</pdfrwt>
<totfact> 0.43046375E+02</totfact>
</mgrwt>
</event>
<event>
 4    1  0.4998754E-005  0.4591512E+03  0.7818608E-02  0.1025028E+00
          2   -1    0    0  501    0  0.00000000000E+00  0.00000000000E+00  0.11669706416E+04  0.11669706416E+04  0.25500000000E-02 0.  1.
         -2   -1    0    0    0  501 -0.00000000000E+00 -0.00000000000E+00 -0.45163917505E+02  0.45163917577E+02  0.25500000000E-02 0. -1.
    5000001    1    1    2    0    0  0.97703106461E+02  0.43478223749E+02  0.45309418987E+03  0.50629200848E+03  0.19900000000E+03 0.  0.
   -5000001    1    1    2    0    0 -0.97703106461E+02 -0.43478223749E+02  0.66871253420E+03  0.70584255068E+03  0.19900000000E+03 0.  0.
<mgrwt>
<rscale>  0 0.45915124E+03</rscale>
<asrwt>0</asrwt>
<pdfrwt beam="1">  1        2 0.16671008E+00 0.45915124E+03</pdfrwt>
<pdfrwt beam="2">  1       -2 0.64519887E-02 0.45915124E+03</pdfrwt>
<totfact> 0.31009440E+03</totfact>
</mgrwt>
</event>
<event>
 4    1  0.4998754E-005  0.5396155E+03  0.7818608E-02  0.1003926E+00
         -2   -1    0    0    0  501 -0.00000000000E+00  0.00000000000E+00  0.44384593149E+03  0.44384593150E+03  0.25500000000E-02 0. -1.
          2   -1    0    0  501    0  0.00000000000E+00 -0.00000000000E+00 -0.16401239716E+03  0.16401239718E+03  0.25500000000E-02 0.  1.
    5000001    1    1    2    0    0 -0.14142306973E+03 -0.73180972433E+02  0.40179734581E+02  0.25801424466E+03  0.19900000000E+03 0.  0.
   -5000001    1    1    2    0    0  0.14142306973E+03  0.73180972433E+02  0.23965379975E+03  0.34984408401E+03  0.19900000000E+03 0.  0.
<mgrwt>
<rscale>  0 0.53961555E+03</rscale>
<asrwt>0</asrwt>
<pdfrwt beam="1">  1        2 0.23430343E-01 0.53961555E+03</pdfrwt>
<pdfrwt beam="2">  1       -2 0.63406561E-01 0.53961555E+03</pdfrwt>
<totfact> 0.54812161E+02</totfact>
</mgrwt>
</event>
<event>
 4    1  0.4998754E-005  0.4865804E+03  0.7818608E-02  0.1017342E+00
         -2   -1    0    0    0  501 -0.00000000000E+00  0.00000000000E+00  0.46739106535E+02  0.46739106604E+02  0.25500000000E-02 0. -1.
          2   -1    0    0  501    0  0.00000000000E+00 -0.00000000000E+00 -0.12663940611E+04  0.12663940611E+04  0.25500000000E-02 0.  1.
    5000001    1    1    2    0    0  0.11910387698E+03 -0.72450549652E+02 -0.64335126225E+03  0.68770390598E+03  0.19900000000E+03 0.  0.
   -5000001    1    1    2    0    0 -0.11910387698E+03  0.72450549652E+02 -0.57630369236E+03  0.62542926178E+03  0.19900000000E+03 0.  0.
<mgrwt>
<rscale>  0 0.48658042E+03</rscale>
<asrwt>0</asrwt>
<pdfrwt beam="1">  1        2 0.18091342E+00 0.48658042E+03</pdfrwt>
<pdfrwt beam="2">  1       -2 0.66770160E-02 0.48658042E+03</pdfrwt>
<totfact> 0.25896050E+03</totfact>
</mgrwt>
</event>
<event>
 4    1  0.4998754E-005  0.4918933E+03  0.7818608E-02  0.1015917E+00
          2   -1    0    0  501    0  0.00000000000E+00  0.00000000000E+00  0.77062200378E+02  0.77062200420E+02  0.25500000000E-02 0.  1.
         -2   -1    0    0    0  501 -0.00000000000E+00 -0.00000000000E+00 -0.78494726051E+03  0.78494726052E+03  0.25500000000E-02 0. -1.
    5000001    1    1    2    0    0 -0.99138341981E+02 -0.79994183132E+02 -0.47358732958E+03  0.52925744106E+03  0.19900000000E+03 0.  0.
   -5000001    1    1    2    0    0  0.99138341981E+02  0.79994183132E+02 -0.23429773056E+03  0.33275201988E+03  0.19900000000E+03 0.  0.
<mgrwt>
<rscale>  0 0.49189333E+03</rscale>
<asrwt>0</asrwt>
<pdfrwt beam="1">  1        2 0.11008886E-01 0.49189333E+03</pdfrwt>
<pdfrwt beam="2">  1       -2 0.11213532E+00 0.49189333E+03</pdfrwt>
<totfact> 0.37319270E+02</totfact>
</mgrwt>
</event>
<event>
 4    1  0.4998754E-005  0.5390632E+03  0.7818608E-02  0.1004058E+00
         -2   -1    0    0    0  501 -0.00000000000E+00  0.00000000000E+00  0.78804004585E+02  0.78804004627E+02  0.25500000000E-02 0. -1.
          2   -1    0    0  501    0  0.00000000000E+00 -0.00000000000E+00 -0.92187303707E+03  0.92187303707E+03  0.25500000000E-02 0.  1.
    5000001    1    1    2    0    0 -0.11401977099E+03  0.14016870731E+03 -0.45859193353E+03  0.53155934399E+03  0.19900000000E+03 0.  0.
   -5000001    1    1    2    0    0  0.11401977099E+03 -0.14016870731E+03 -0.38447709895E+03  0.46911769771E+03  0.19900000000E+03 0.  0.
<mgrwt>
<rscale>  0 0.53906321E+03</rscale>
<asrwt>0</asrwt>
<pdfrwt beam="1">  1        2 0.13169614E+00 0.53906321E+03</pdfrwt>
<pdfrwt beam="2">  1       -2 0.11257715E-01 0.53906321E+03</pdfrwt>
<totfact> 0.17833679E+03</totfact>
</mgrwt>
</event>
<event>
 4    1  0.4998754E-005  0.9304365E+03  0.7818608E-02  0.9388314E-01
          2   -1    0    0  501    0  0.00000000000E+00  0.00000000000E+00  0.12489672842E+04  0.12489672842E+04  0.25500000000E-02 0.  1.
         -2   -1    0    0    0  501 -0.00000000000E+00 -0.00000000000E+00 -0.17328559769E+03  0.17328559771E+03  0.25500000000E-02 0. -1.
    5000001    1    1    2    0    0  0.31202972589E+03  0.34922481600E+02  0.11026012090E+03  0.38773757081E+03  0.19900000000E+03 0.  0.
   -5000001    1    1    2    0    0 -0.31202972589E+03 -0.34922481600E+02  0.96542156564E+03  0.10345153111E+04  0.19900000000E+03 0.  0.
<mgrwt>
<rscale>  0 0.93043655E+03</rscale>
<asrwt>0</asrwt>
<pdfrwt beam="1">  1        2 0.17842390E+00 0.93043655E+03</pdfrwt>
<pdfrwt beam="2">  1       -2 0.24755085E-01 0.93043655E+03</pdfrwt>
<totfact> 0.29223491E+02</totfact>
</mgrwt>
</event>
<event>
 4    1  0.4998754E-005  0.5116012E+03  0.7818608E-02  0.1010794E+00
         -2   -1    0    0    0  501 -0.00000000000E+00  0.00000000000E+00  0.12099913871E+02  0.12099914140E+02  0.25500000000E-02 0.  1.
          2   -1    0    0  501    0  0.00000000000E+00 -0.00000000000E+00 -0.54078032406E+04  0.54078032406E+04  0.25500000000E-02 0. -1.
    5000001    1    1    2    0    0 -0.15009692410E+03  0.55589514993E+02 -0.25429931282E+04  0.25557844844E+04  0.19900000000E+03 0.  0.
   -5000001    1    1    2    0    0  0.15009692410E+03 -0.55589514993E+02 -0.28527101985E+04  0.28641186703E+04  0.19900000000E+03 0.  0.
<mgrwt>
<rscale>  0 0.51160123E+03</rscale>
<asrwt>0</asrwt>
<pdfrwt beam="1">  1        2 0.77254178E+00 0.51160123E+03</pdfrwt>
<pdfrwt beam="2">  1       -2 0.17285626E-02 0.51160123E+03</pdfrwt>
<totfact> 0.41724573E+01</totfact>
</mgrwt>
</event>
<event>
 4    1  0.4998754E-005  0.5121370E+03  0.7818608E-02  0.1010659E+00
          2   -1    0    0  501    0  0.00000000000E+00  0.00000000000E+00  0.37147033480E+03  0.37147033481E+03  0.25500000000E-02 0.  1.
         -2   -1    0    0    0  501 -0.00000000000E+00 -0.00000000000E+00 -0.17651768504E+03  0.17651768506E+03  0.25500000000E-02 0. -1.
    5000001    1    1    2    0    0  0.15417297962E+03  0.36658756975E+02  0.12879856853E+03  0.28513723602E+03  0.19900000000E+03 0.  0.
   -5000001    1    1    2    0    0 -0.15417297962E+03 -0.36658756975E+02  0.66154081229E+02  0.26285078385E+03  0.19900000000E+03 0.  0.
<mgrwt>
<rscale>  0 0.51213703E+03</rscale>
<asrwt>0</asrwt>
<pdfrwt beam="1">  1        2 0.53067191E-01 0.51213703E+03</pdfrwt>
<pdfrwt beam="2">  1       -2 0.25216812E-01 0.51213703E+03</pdfrwt>
<totfact> 0.13237669E+03</totfact>
</mgrwt>
</event>
<event>
 4    1  0.4998754E-005  0.7041550E+03  0.7818608E-02  0.9710153E-01
         -2   -1    0    0    0  501 -0.00000000000E+00  0.00000000000E+00  0.16582142668E+03  0.16582142670E+03  0.25500000000E-02 0. -1.
          2   -1    0    0  501    0  0.00000000000E+00 -0.00000000000E+00 -0.74754256941E+03  0.74754256942E+03  0.25500000000E-02 0.  1.
    5000001    1    1    2    0    0 -0.18334445240E+03  0.20269944721E+03 -0.41831618504E+03  0.53785842449E+03  0.19900000000E+03 0.  0.
   -5000001    1    1    2    0    0  0.18334445240E+03 -0.20269944721E+03 -0.16340495769E+03  0.37550557163E+03  0.19900000000E+03 0.  0.
<mgrwt>
<rscale>  0 0.70415503E+03</rscale>
<asrwt>0</asrwt>
<pdfrwt beam="1">  1        2 0.10679179E+00 0.70415503E+03</pdfrwt>
<pdfrwt beam="2">  1       -2 0.23688776E-01 0.70415503E+03</pdfrwt>
<totfact> 0.65713093E+02</totfact>
</mgrwt>
</event>
<event>
 4    1  0.4998754E-005  0.7756245E+03  0.7818608E-02  0.9595986E-01
         -2   -1    0    0    0  501 -0.00000000000E+00  0.00000000000E+00  0.39627648309E+02  0.39627648391E+02  0.25500000000E-02 0.  1.
          2   -1    0    0  501    0  0.00000000000E+00 -0.00000000000E+00 -0.37952881078E+04  0.37952881078E+04  0.25500000000E-02 0. -1.
    5000001    1    1    2    0    0  0.27113467569E+03  0.18346875580E+03 -0.15802450833E+04  0.16260228534E+04  0.19900000000E+03 0.  0.
   -5000001    1    1    2    0    0 -0.27113467569E+03 -0.18346875580E+03 -0.21754153762E+04  0.22088929027E+04  0.19900000000E+03 0.  0.
<mgrwt>
<rscale>  0 0.77562450E+03</rscale>
<asrwt>0</asrwt>
<pdfrwt beam="1">  1        2 0.54218378E+00 0.77562450E+03</pdfrwt>
<pdfrwt beam="2">  1       -2 0.56610950E-02 0.77562450E+03</pdfrwt>
<totfact> 0.14281336E+02</totfact>
</mgrwt>
</event>
<event>
 4    1  0.4998754E-005  0.4623599E+03  0.7818608E-02  0.1024099E+00
          2   -1    0    0  501    0  0.00000000000E+00  0.00000000000E+00  0.36005765328E+03  0.36005765329E+03  0.25500000000E-02 0.  1.
         -2   -1    0    0    0  501 -0.00000000000E+00 -0.00000000000E+00 -0.14843227543E+03  0.14843227545E+03  0.25500000000E-02 0. -1.
    5000001    1    1    2    0    0  0.65369788280E+01  0.50874309736E+02 -0.10639736040E+02  0.20577932711E+03  0.19900000000E+03 0.  0.
   -5000001    1    1    2    0    0 -0.65369788280E+01 -0.50874309736E+02  0.22226511390E+03  0.30271060163E+03  0.19900000000E+03 0.  0.
<mgrwt>
<rscale>  0 0.46235993E+03</rscale>
<asrwt>0</asrwt>
<pdfrwt beam="1">  1        2 0.51436807E-01 0.46235993E+03</pdfrwt>
<pdfrwt beam="2">  1       -2 0.21204611E-01 0.46235993E+03</pdfrwt>
<totfact> 0.18601610E+03</totfact>
</mgrwt>
</event>
<event>
 4    1  0.4998754E-005  0.4796994E+03  0.7818608E-02  0.1019218E+00
         -2   -1    0    0    0  501 -0.00000000000E+00  0.00000000000E+00  0.97882821923E+02  0.97882821956E+02  0.25500000000E-02 0. -1.
          2   -1    0    0  501    0  0.00000000000E+00 -0.00000000000E+00 -0.58772191250E+03  0.58772191250E+03  0.25500000000E-02 0.  1.
    5000001    1    1    2    0    0  0.11199359058E+03 -0.36509853011E+02 -0.33589081932E+03  0.40779796003E+03  0.19900000000E+03 0.  0.
   -5000001    1    1    2    0    0 -0.11199359058E+03  0.36509853011E+02 -0.15394827125E+03  0.27780677443E+03  0.19900000000E+03 0.  0.
<mgrwt>
<rscale>  0 0.47969940E+03</rscale>
<asrwt>0</asrwt>
<pdfrwt beam="1">  1        2 0.83960271E-01 0.47969940E+03</pdfrwt>
<pdfrwt beam="2">  1       -2 0.13983261E-01 0.47969940E+03</pdfrwt>
<totfact> 0.21816170E+03</totfact>
</mgrwt>
</event>
<event>
 4    1  0.4998754E-005  0.5236595E+03  0.7818608E-02  0.1007781E+00
          2   -1    0    0  501    0  0.00000000000E+00  0.00000000000E+00  0.84789887036E+03  0.84789887037E+03  0.25500000000E-02 0.  1.
         -2   -1    0    0    0  501 -0.00000000000E+00 -0.00000000000E+00 -0.80852592660E+02  0.80852592701E+02  0.25500000000E-02 0. -1.
    5000001    1    1    2    0    0 -0.13338381970E+03  0.31081182527E+02  0.20443084533E+03  0.31646524894E+03  0.19900000000E+03 0.  0.
   -5000001    1    1    2    0    0  0.13338381970E+03 -0.31081182527E+02  0.56261543237E+03  0.61228621413E+03  0.19900000000E+03 0.  0.
<mgrwt>
<rscale>  0 0.52365952E+03</rscale>
<asrwt>0</asrwt>
<pdfrwt beam="1">  1        2 0.12112841E+00 0.52365952E+03</pdfrwt>
<pdfrwt beam="2">  1       -2 0.11550370E-01 0.52365952E+03</pdfrwt>
<totfact> 0.19103006E+03</totfact>
</mgrwt>
</event>
<event>
 4    1  0.4998754E-005  0.4912164E+03  0.7818608E-02  0.1016097E+00
         -2   -1    0    0    0  501 -0.00000000000E+00  0.00000000000E+00  0.51078867391E+02  0.51078867455E+02  0.25500000000E-02 0. -1.
          2   -1    0    0  501    0  0.00000000000E+00 -0.00000000000E+00 -0.11809852209E+04  0.11809852209E+04  0.25500000000E-02 0.  1.
    5000001    1    1    2    0    0  0.10185815649E+03  0.86061943208E+02 -0.42893975301E+03  0.49129629942E+03  0.19900000000E+03 0.  0.
   -5000001    1    1    2    0    0 -0.10185815649E+03 -0.86061943208E+02 -0.70096660049E+03  0.74076778893E+03  0.19900000000E+03 0.  0.
<mgrwt>
<rscale>  0 0.49121640E+03</rscale>
<asrwt>0</asrwt>
<pdfrwt beam="1">  1        2 0.16871216E+00 0.49121640E+03</pdfrwt>
<pdfrwt beam="2">  1       -2 0.72969818E-02 0.49121640E+03</pdfrwt>
<totfact> 0.25102960E+03</totfact>
</mgrwt>
</event>
<event>
 4    1  0.4998754E-005  0.5900189E+03  0.7818608E-02  0.9926333E-01
         -2   -1    0    0    0  501 -0.00000000000E+00  0.00000000000E+00  0.73699645683E+02  0.73699645727E+02  0.25500000000E-02 0. -1.
          2   -1    0    0  501    0  0.00000000000E+00 -0.00000000000E+00 -0.11808819619E+04  0.11808819619E+04  0.25500000000E-02 0.  1.
    5000001    1    1    2    0    0  0.21498138112E+03 -0.34333273711E+02 -0.54122646867E+03  0.61637882694E+03  0.19900000000E+03 0.  0.
   -5000001    1    1    2    0    0 -0.21498138112E+03  0.34333273711E+02 -0.56595584757E+03  0.63820278071E+03  0.19900000000E+03 0.  0.
<mgrwt>
<rscale>  0 0.59001892E+03</rscale>
<asrwt>0</asrwt>
<pdfrwt beam="1">  1        2 0.16869741E+00 0.59001892E+03</pdfrwt>
<pdfrwt beam="2">  1       -2 0.10528522E-01 0.59001892E+03</pdfrwt>
<totfact> 0.13937259E+03</totfact>
</mgrwt>
</event>
<event>
 4    1  0.4998754E-005  0.9027042E+03  0.7818608E-02  0.9422207E-01
         -2   -1    0    0    0  501 -0.00000000000E+00  0.00000000000E+00  0.17881003558E+03  0.17881003560E+03  0.25500000000E-02 0. -1.
          2   -1    0    0  501    0  0.00000000000E+00 -0.00000000000E+00 -0.11393024403E+04  0.11393024403E+04  0.25500000000E-02 0.  1.
    5000001    1    1    2    0    0  0.39211894689E+03 -0.75523442200E+02 -0.57988853023E+03  0.73166438093E+03  0.19900000000E+03 0.  0.
   -5000001    1    1    2    0    0 -0.39211894689E+03  0.75523442200E+02 -0.38060387451E+03  0.58644809499E+03  0.19900000000E+03 0.  0.
<mgrwt>
<rscale>  0 0.90270418E+03</rscale>
<asrwt>0</asrwt>
<pdfrwt beam="1">  1        2 0.16275749E+00 0.90270418E+03</pdfrwt>
<pdfrwt beam="2">  1       -2 0.25544291E-01 0.90270418E+03</pdfrwt>
<totfact> 0.31924660E+02</totfact>
</mgrwt>
</event>
<event>
 4    1  0.4998754E-005  0.6734988E+03  0.7818608E-02  0.9763658E-01
         -2   -1    0    0    0  501 -0.00000000000E+00  0.00000000000E+00  0.12135651230E+03  0.12135651233E+03  0.25500000000E-02 0. -1.
          2   -1    0    0  501    0  0.00000000000E+00 -0.00000000000E+00 -0.93443822411E+03  0.93443822411E+03  0.25500000000E-02 0.  1.
    5000001    1    1    2    0    0 -0.25497888250E+03 -0.92035225567E+02 -0.43433919590E+03  0.54930524334E+03  0.19900000000E+03 0.  0.
   -5000001    1    1    2    0    0  0.25497888250E+03  0.92035225567E+02 -0.37874251590E+03  0.50648949310E+03  0.19900000000E+03 0.  0.
<mgrwt>
<rscale>  0 0.67349882E+03</rscale>
<asrwt>0</asrwt>
<pdfrwt beam="1">  1        2 0.13349117E+00 0.67349882E+03</pdfrwt>
<pdfrwt beam="2">  1       -2 0.17336645E-01 0.67349882E+03</pdfrwt>
<totfact> 0.84844518E+02</totfact>
</mgrwt>
</event>
<event>
 4    1  0.4998754E-005  0.6470015E+03  0.7818608E-02  0.9812422E-01
          2   -1    0    0  501    0  0.00000000000E+00  0.00000000000E+00  0.30011224593E+04  0.30011224593E+04  0.25500000000E-02 0.  1.
         -2   -1    0    0    0  501 -0.00000000000E+00 -0.00000000000E+00 -0.34871197206E+02  0.34871197299E+02  0.25500000000E-02 0. -1.
    5000001    1    1    2    0    0 -0.12362759912E+03  0.21752752956E+03  0.17153747869E+04  0.17449107911E+04  0.19900000000E+03 0.  0.
   -5000001    1    1    2    0    0  0.12362759912E+03 -0.21752752956E+03  0.12508764752E+04  0.12910828655E+04  0.19900000000E+03 0.  0.
<mgrwt>
<rscale>  0 0.64700149E+03</rscale>
<asrwt>0</asrwt>
<pdfrwt beam="1">  1        2 0.42873203E+00 0.64700149E+03</pdfrwt>
<pdfrwt beam="2">  1       -2 0.49815967E-02 0.64700149E+03</pdfrwt>
<totfact> 0.51749602E+02</totfact>
</mgrwt>
</event>
<event>
 4    1  0.4998754E-005  0.5008351E+03  0.7818608E-02  0.1013561E+00
         -2   -1    0    0    0  501 -0.00000000000E+00  0.00000000000E+00  0.71518634069E+02  0.71518634114E+02  0.25500000000E-02 0. -1.
          2   -1    0    0  501    0  0.00000000000E+00 -0.00000000000E+00 -0.87681972056E+03  0.87681972056E+03  0.25500000000E-02 0.  1.
    5000001    1    1    2    0    0  0.14551799216E+03 -0.99953017176E+01 -0.32159228533E+03  0.40533688468E+03  0.19900000000E+03 0.  0.
   -5000001    1    1    2    0    0 -0.14551799216E+03  0.99953017176E+01 -0.48370880115E+03  0.54300146999E+03  0.19900000000E+03 0.  0.
<mgrwt>
<rscale>  0 0.50083510E+03</rscale>
<asrwt>0</asrwt>
<pdfrwt beam="1">  1        2 0.12525995E+00 0.50083510E+03</pdfrwt>
<pdfrwt beam="2">  1       -2 0.10216948E-01 0.50083510E+03</pdfrwt>
<totfact> 0.22321076E+03</totfact>
</mgrwt>
</event>
<event>
 4    1  0.4998754E-005  0.5829140E+03  0.7818608E-02  0.9941502E-01
         -2   -1    0    0    0  501 -0.00000000000E+00  0.00000000000E+00  0.24010954458E+03  0.24010954459E+03  0.25500000000E-02 0. -1.
          2   -1    0    0  501    0  0.00000000000E+00 -0.00000000000E+00 -0.35378513153E+03  0.35378513154E+03  0.25500000000E-02 0.  1.
    5000001    1    1    2    0    0  0.18759480596E+03  0.73473305353E+02 -0.12710102111E+03  0.31039621034E+03  0.19900000000E+03 0.  0.
   -5000001    1    1    2    0    0 -0.18759480596E+03 -0.73473305353E+02  0.13425434166E+02  0.28349846579E+03  0.19900000000E+03 0.  0.
<mgrwt>
<rscale>  0 0.58291401E+03</rscale>
<asrwt>0</asrwt>
<pdfrwt beam="1">  1        2 0.50540734E-01 0.58291401E+03</pdfrwt>
<pdfrwt beam="2">  1       -2 0.34301363E-01 0.58291401E+03</pdfrwt>
<totfact> 0.79325498E+02</totfact>
</mgrwt>
</event>
<event>
 4    1  0.4998754E-005  0.6866268E+03  0.7818608E-02  0.9740379E-01
         -2   -1    0    0    0  501 -0.00000000000E+00  0.00000000000E+00  0.54590619502E+02  0.54590619562E+02  0.25500000000E-02 0. -1.
          2   -1    0    0  501    0  0.00000000000E+00 -0.00000000000E+00 -0.21590537678E+04  0.21590537678E+04  0.25500000000E-02 0.  1.
    5000001    1    1    2    0    0 -0.12449217776E+03  0.17727597811E+03 -0.16229512067E+04  0.16493928259E+04  0.19900000000E+03 0.  0.
   -5000001    1    1    2    0    0  0.12449217776E+03 -0.17727597811E+03 -0.48151194164E+03  0.56425156152E+03  0.19900000000E+03 0.  0.
<mgrwt>
<rscale>  0 0.68662678E+03</rscale>
<asrwt>0</asrwt>
<pdfrwt beam="1">  1        2 0.30843620E+00 0.68662678E+03</pdfrwt>
<pdfrwt beam="2">  1       -2 0.77986613E-02 0.68662678E+03</pdfrwt>
<totfact> 0.69954028E+02</totfact>
</mgrwt>
</event>
<event>
 4    1  0.4998754E-005  0.5282139E+03  0.7818608E-02  0.1006666E+00
         -2   -1    0    0    0  501 -0.00000000000E+00  0.00000000000E+00  0.45153575427E+02  0.45153575499E+02  0.25500000000E-02 0. -1.
          2   -1    0    0  501    0  0.00000000000E+00 -0.00000000000E+00 -0.15447832787E+04  0.15447832787E+04  0.25500000000E-02 0.  1.
    5000001    1    1    2    0    0 -0.53471016729E+02 -0.16341665652E+03 -0.67686691654E+03  0.72616387680E+03  0.19900000000E+03 0.  0.
   -5000001    1    1    2    0    0  0.53471016729E+02  0.16341665652E+03 -0.82276278671E+03  0.86377297738E+03  0.19900000000E+03 0.  0.
<mgrwt>
<rscale>  0 0.52821393E+03</rscale>
<asrwt>0</asrwt>
<pdfrwt beam="1">  1        2 0.22068329E+00 0.52821393E+03</pdfrwt>
<pdfrwt beam="2">  1       -2 0.64505118E-02 0.52821393E+03</pdfrwt>
<totfact> 0.19471736E+03</totfact>
</mgrwt>
</event>
<event>
 4    1  0.4998754E-005  0.9785451E+03  0.7818608E-02  0.9332394E-01
          2   -1    0    0  501    0  0.00000000000E+00  0.00000000000E+00  0.14784978113E+04  0.14784978113E+04  0.25500000000E-02 0.  1.
         -2   -1    0    0    0  501 -0.00000000000E+00 -0.00000000000E+00 -0.16191275393E+03  0.16191275395E+03  0.25500000000E-02 0. -1.
    5000001    1    1    2    0    0 -0.31580796193E+03 -0.46588217408E+02  0.13382084559E+03  0.39926701533E+03  0.19900000000E+03 0.  0.
   -5000001    1    1    2    0    0  0.31580796193E+03  0.46588217408E+02  0.11827642118E+04  0.12411435500E+04  0.19900000000E+03 0.  0.
<mgrwt>
<rscale>  0 0.97854515E+03</rscale>
<asrwt>0</asrwt>
<pdfrwt beam="1">  1        2 0.21121398E+00 0.97854515E+03</pdfrwt>
<pdfrwt beam="2">  1       -2 0.23130393E-01 0.97854515E+03</pdfrwt>
<totfact> 0.24700296E+02</totfact>
</mgrwt>
</event>
<event>
 4    1  0.4998754E-005  0.4080170E+03  0.7818608E-02  0.1041038E+00
         -2   -1    0    0    0  501 -0.00000000000E+00  0.00000000000E+00  0.27731165301E+02  0.27731165418E+02  0.25500000000E-02 0. -1.
          2   -1    0    0  501    0  0.00000000000E+00 -0.00000000000E+00 -0.15008193362E+04  0.15008193362E+04  0.25500000000E-02 0.  1.
    5000001    1    1    2    0    0  0.28268296524E+02 -0.31496446630E+02 -0.79303070920E+03  0.81871229896E+03  0.19900000000E+03 0.  0.
   -5000001    1    1    2    0    0 -0.28268296524E+02  0.31496446630E+02 -0.68005746168E+03  0.70983820264E+03  0.19900000000E+03 0.  0.
<mgrwt>
<rscale>  0 0.40801701E+03</rscale>
<asrwt>0</asrwt>
<pdfrwt beam="1">  1        2 0.21440271E+00 0.40801701E+03</pdfrwt>
<pdfrwt beam="2">  1       -2 0.39615960E-02 0.40801701E+03</pdfrwt>
<totfact> 0.43594362E+03</totfact>
</mgrwt>
</event>
<event>
 4    1  0.4998754E-005  0.5882023E+03  0.7818608E-02  0.9930189E-01
         -2   -1    0    0    0  501 -0.00000000000E+00  0.00000000000E+00  0.35890774440E+03  0.35890774441E+03  0.25500000000E-02 0. -1.
          2   -1    0    0  501    0  0.00000000000E+00 -0.00000000000E+00 -0.24099642965E+03  0.24099642966E+03  0.25500000000E-02 0.  1.
    5000001    1    1    2    0    0 -0.20305619465E+03  0.39178369049E+01  0.13559932270E+03  0.31501641854E+03  0.19900000000E+03 0.  0.
   -5000001    1    1    2    0    0  0.20305619465E+03 -0.39178369049E+01 -0.17688007944E+02  0.28488775554E+03  0.19900000000E+03 0.  0.
<mgrwt>
<rscale>  0 0.58820230E+03</rscale>
<asrwt>0</asrwt>
<pdfrwt beam="1">  1        2 0.34428061E-01 0.58820230E+03</pdfrwt>
<pdfrwt beam="2">  1       -2 0.51272535E-01 0.58820230E+03</pdfrwt>
<totfact> 0.55177549E+02</totfact>
</mgrwt>
</event>
<event>
 4    1  0.4998754E-005  0.1133064E+04  0.7818608E-02  0.9173551E-01
         -2   -1    0    0    0  501 -0.00000000000E+00  0.00000000000E+00  0.11423438320E+03  0.11423438323E+03  0.25500000000E-02 0.  1.
          2   -1    0    0  501    0  0.00000000000E+00 -0.00000000000E+00 -0.28096505725E+04  0.28096505725E+04  0.25500000000E-02 0. -1.
    5000001    1    1    2    0    0  0.52657785054E+03  0.62863120356E+02 -0.13761751910E+04  0.14881851904E+04  0.19900000000E+03 0.  0.
   -5000001    1    1    2    0    0 -0.52657785054E+03 -0.62863120356E+02 -0.13192409983E+04  0.14356997653E+04  0.19900000000E+03 0.  0.
<mgrwt>
<rscale>  0 0.11330643E+04</rscale>
<asrwt>0</asrwt>
<pdfrwt beam="1">  1        2 0.40137861E+00 0.11330643E+04</pdfrwt>
<pdfrwt beam="2">  1       -2 0.16319199E-01 0.11330643E+04</pdfrwt>
<totfact> 0.91582191E+01</totfact>
</mgrwt>
</event>
<event>
 4    1  0.4998754E-005  0.7097227E+03  0.7818608E-02  0.9700748E-01
          2   -1    0    0  501    0  0.00000000000E+00  0.00000000000E+00  0.21702462382E+04  0.21702462382E+04  0.25500000000E-02 0.  1.
         -2   -1    0    0    0  501 -0.00000000000E+00 -0.00000000000E+00 -0.58024090586E+02  0.58024090642E+02  0.25500000000E-02 0. -1.
    5000001    1    1    2    0    0 -0.49370208828E+02 -0.26397834303E+03  0.68193317262E+03  0.75944442524E+03  0.19900000000E+03 0.  0.
   -5000001    1    1    2    0    0  0.49370208828E+02  0.26397834303E+03  0.14302889750E+04  0.14688259036E+04  0.19900000000E+03 0.  0.
<mgrwt>
<rscale>  0 0.70972266E+03</rscale>
<asrwt>0</asrwt>
<pdfrwt beam="1">  1        2 0.31003514E+00 0.70972266E+03</pdfrwt>
<pdfrwt beam="2">  1       -2 0.82891567E-02 0.70972266E+03</pdfrwt>
<totfact> 0.62533743E+02</totfact>
</mgrwt>
</event>
<event>
 4    1  0.4998754E-005  0.5546052E+03  0.7818608E-02  0.1000434E+00
         -2   -1    0    0    0  501 -0.00000000000E+00  0.00000000000E+00  0.11764624178E+03  0.11764624181E+03  0.25500000000E-02 0. -1.
          2   -1    0    0  501    0  0.00000000000E+00 -0.00000000000E+00 -0.65362672075E+03  0.65362672075E+03  0.25500000000E-02 0.  1.
    5000001    1    1    2    0    0 -0.17340400967E+03  0.23030415472E+02 -0.38179072613E+03  0.46471981792E+03  0.19900000000E+03 0.  0.
   -5000001    1    1    2    0    0  0.17340400967E+03 -0.23030415472E+02 -0.15418975284E+03  0.30655314464E+03  0.19900000000E+03 0.  0.
<mgrwt>
<rscale>  0 0.55460518E+03</rscale>
<asrwt>0</asrwt>
<pdfrwt beam="1">  1        2 0.93375244E-01 0.55460518E+03</pdfrwt>
<pdfrwt beam="2">  1       -2 0.16806606E-01 0.55460518E+03</pdfrwt>
<totfact> 0.14128406E+03</totfact>
</mgrwt>
</event>
<event>
 4    1  0.4998754E-005  0.6874049E+03  0.7818608E-02  0.9739017E-01
          2   -1    0    0  501    0  0.00000000000E+00  0.00000000000E+00  0.21985840363E+04  0.21985840363E+04  0.25500000000E-02 0.  1.
         -2   -1    0    0    0  501 -0.00000000000E+00 -0.00000000000E+00 -0.53730653943E+02  0.53730654003E+02  0.25500000000E-02 0. -1.
    5000001    1    1    2    0    0  0.24263510855E+03 -0.13801659148E+03  0.99150308650E+03  0.10490947269E+04  0.19900000000E+03 0.  0.
   -5000001    1    1    2    0    0 -0.24263510855E+03  0.13801659148E+03  0.11533502958E+04  0.12032199634E+04  0.19900000000E+03 0.  0.
<mgrwt>
<rscale>  0 0.68740485E+03</rscale>
<asrwt>0</asrwt>
<pdfrwt beam="1">  1        2 0.31408340E+00 0.68740485E+03</pdfrwt>
<pdfrwt beam="2">  1       -2 0.76758086E-02 0.68740485E+03</pdfrwt>
<totfact> 0.68516823E+02</totfact>
</mgrwt>
</event>
<event>
 4    1  0.4998754E-005  0.5145541E+03  0.7818608E-02  0.1010048E+00
          2   -1    0    0  501    0  0.00000000000E+00  0.00000000000E+00  0.25311485833E+03  0.25311485835E+03  0.25500000000E-02 0.  1.
         -2   -1    0    0    0  501 -0.00000000000E+00 -0.00000000000E+00 -0.26150769026E+03  0.26150769027E+03  0.25500000000E-02 0. -1.
    5000001    1    1    2    0    0  0.12417156512E+03 -0.92964939492E+02  0.46103657209E+02  0.25649094480E+03  0.19900000000E+03 0.  0.
   -5000001    1    1    2    0    0 -0.12417156512E+03  0.92964939492E+02 -0.54496489129E+02  0.25813160381E+03  0.19900000000E+03 0.  0.
<mgrwt>
<rscale>  0 0.51455411E+03</rscale>
<asrwt>0</asrwt>
<pdfrwt beam="1">  1        2 0.36159265E-01 0.51455411E+03</pdfrwt>
<pdfrwt beam="2">  1       -2 0.37358242E-01 0.51455411E+03</pdfrwt>
<totfact> 0.97609455E+02</totfact>
</mgrwt>
</event>
<event>
 4    1  0.4998754E-005  0.6478584E+03  0.7818608E-02  0.9810806E-01
         -2   -1    0    0    0  501 -0.00000000000E+00  0.00000000000E+00  0.30619014559E+03  0.30619014560E+03  0.25500000000E-02 0. -1.
          2   -1    0    0  501    0  0.00000000000E+00 -0.00000000000E+00 -0.34269599820E+03  0.34269599821E+03  0.25500000000E-02 0.  1.
    5000001    1    1    2    0    0  0.13581464805E+02  0.25279539378E+03 -0.53510618220E+02  0.32642664347E+03  0.19900000000E+03 0.  0.
   -5000001    1    1    2    0    0 -0.13581464805E+02 -0.25279539378E+03  0.17004765613E+02  0.32245950034E+03  0.19900000000E+03 0.  0.
<mgrwt>
<rscale>  0 0.64785843E+03</rscale>
<asrwt>0</asrwt>
<pdfrwt beam="1">  1        2 0.48956571E-01 0.64785843E+03</pdfrwt>
<pdfrwt beam="2">  1       -2 0.43741450E-01 0.64785843E+03</pdfrwt>
<totfact> 0.51329932E+02</totfact>
</mgrwt>
</event>
<event>
 4    1  0.4998754E-005  0.1177534E+04  0.7818608E-02  0.9132752E-01
         -2   -1    0    0    0  501 -0.00000000000E+00  0.00000000000E+00  0.23712820203E+03  0.23712820204E+03  0.25500000000E-02 0. -1.
          2   -1    0    0  501    0  0.00000000000E+00 -0.00000000000E+00 -0.14618528638E+04  0.14618528638E+04  0.25500000000E-02 0.  1.
    5000001    1    1    2    0    0 -0.53307000335E+03  0.14793246683E+03 -0.56678402400E+03  0.81663503052E+03  0.19900000000E+03 0.  0.
   -5000001    1    1    2    0    0  0.53307000335E+03 -0.14793246683E+03 -0.65794063774E+03  0.88234603529E+03  0.19900000000E+03 0.  0.
<mgrwt>
<rscale>  0 0.11775339E+04</rscale>
<asrwt>0</asrwt>
<pdfrwt beam="1">  1        2 0.20883612E+00 0.11775339E+04</pdfrwt>
<pdfrwt beam="2">  1       -2 0.33875458E-01 0.11775339E+04</pdfrwt>
<totfact> 0.12331599E+02</totfact>
</mgrwt>
</event>
<event>
 4    1  0.4998754E-005  0.5343615E+03  0.7818608E-02  0.1005180E+00
          2   -1    0    0  501    0  0.00000000000E+00  0.00000000000E+00  0.55557153989E+03  0.55557153989E+03  0.25500000000E-02 0.  1.
         -2   -1    0    0    0  501 -0.00000000000E+00 -0.00000000000E+00 -0.12849030179E+03  0.12849030181E+03  0.25500000000E-02 0. -1.
    5000001    1    1    2    0    0  0.15836377262E+02  0.16161547673E+03  0.11934571366E+03  0.28322209047E+03  0.19900000000E+03 0.  0.
   -5000001    1    1    2    0    0 -0.15836377262E+02 -0.16161547673E+03  0.30773552444E+03  0.40083975123E+03  0.19900000000E+03 0.  0.
<mgrwt>
<rscale>  0 0.53436151E+03</rscale>
<asrwt>0</asrwt>
<pdfrwt beam="1">  1        2 0.79367363E-01 0.53436151E+03</pdfrwt>
<pdfrwt beam="2">  1       -2 0.18355757E-01 0.53436151E+03</pdfrwt>
<totfact> 0.14708177E+03</totfact>
</mgrwt>
</event>
<event>
 4    1  0.4998754E-005  0.8550800E+03  0.7818608E-02  0.9483544E-01
          2   -1    0    0  501    0  0.00000000000E+00  0.00000000000E+00  0.67079698458E+03  0.67079698459E+03  0.25500000000E-02 0.  1.
         -2   -1    0    0    0  501 -0.00000000000E+00 -0.00000000000E+00 -0.27249742002E+03  0.27249742003E+03  0.25500000000E-02 0. -1.
    5000001    1    1    2    0    0  0.38877286489E+01  0.37302535059E+03  0.12914944893E+03  0.44209004374E+03  0.19900000000E+03 0.  0.
   -5000001    1    1    2    0    0 -0.38877286489E+01 -0.37302535059E+03  0.26915011564E+03  0.50120436088E+03  0.19900000000E+03 0.  0.
<mgrwt>
<rscale>  0 0.85507999E+03</rscale>
<asrwt>0</asrwt>
<pdfrwt beam="1">  1        2 0.95828142E-01 0.85507999E+03</pdfrwt>
<pdfrwt beam="2">  1       -2 0.38928202E-01 0.85507999E+03</pdfrwt>
<totfact> 0.29668000E+02</totfact>
</mgrwt>
</event>
<event>
 4    1  0.4998754E-005  0.4545579E+03  0.7818608E-02  0.1026371E+00
         -2   -1    0    0    0  501 -0.00000000000E+00  0.00000000000E+00  0.94709138512E+02  0.94709138546E+02  0.25500000000E-02 0. -1.
          2   -1    0    0  501    0  0.00000000000E+00 -0.00000000000E+00 -0.54541434734E+03  0.54541434734E+03  0.25500000000E-02 0.  1.
    5000001    1    1    2    0    0  0.44331001725E+02  0.10029626694E+03 -0.21762089103E+03  0.31461791285E+03  0.19900000000E+03 0.  0.
   -5000001    1    1    2    0    0 -0.44331001725E+02 -0.10029626694E+03 -0.23308431779E+03  0.32550557304E+03  0.19900000000E+03 0.  0.
<mgrwt>
<rscale>  0 0.45455791E+03</rscale>
<asrwt>0</asrwt>
<pdfrwt beam="1">  1        2 0.77916334E-01 0.45455791E+03</pdfrwt>
<pdfrwt beam="2">  1       -2 0.13529877E-01 0.45455791E+03</pdfrwt>
<totfact> 0.25103386E+03</totfact>
</mgrwt>
</event>
<event>
 4    1  0.4998754E-005  0.5443731E+03  0.7818608E-02  0.1002805E+00
          2   -1    0    0  501    0  0.00000000000E+00  0.00000000000E+00  0.84615435865E+03  0.84615435865E+03  0.25500000000E-02 0.  1.
         -2   -1    0    0    0  501 -0.00000000000E+00 -0.00000000000E+00 -0.87555555849E+02  0.87555555886E+02  0.25500000000E-02 0. -1.
    5000001    1    1    2    0    0  0.16656384817E+03 -0.60628972599E+02  0.47425915660E+03  0.54400563918E+03  0.19900000000E+03 0.  0.
   -5000001    1    1    2    0    0 -0.16656384817E+03  0.60628972599E+02  0.28433964620E+03  0.38970427536E+03  0.19900000000E+03 0.  0.
<mgrwt>
<rscale>  0 0.54437309E+03</rscale>
<asrwt>0</asrwt>
<pdfrwt beam="1">  1        2 0.12087919E+00 0.54437309E+03</pdfrwt>
<pdfrwt beam="2">  1       -2 0.12507937E-01 0.54437309E+03</pdfrwt>
<totfact> 0.16803929E+03</totfact>
</mgrwt>
</event>
<event>
 4    1  0.4998754E-005  0.5040978E+03  0.7818608E-02  0.1012715E+00
         -2   -1    0    0    0  501 -0.00000000000E+00  0.00000000000E+00  0.15730965064E+03  0.15730965066E+03  0.25500000000E-02 0. -1.
          2   -1    0    0  501    0  0.00000000000E+00 -0.00000000000E+00 -0.40384461708E+03  0.40384461709E+03  0.25500000000E-02 0.  1.
    5000001    1    1    2    0    0 -0.14458525038E+03 -0.54038460894E+02 -0.13454343721E+03  0.28553106027E+03  0.19900000000E+03 0.  0.
   -5000001    1    1    2    0    0  0.14458525038E+03  0.54038460894E+02 -0.11199152923E+03  0.27562320748E+03  0.19900000000E+03 0.  0.
<mgrwt>
<rscale>  0 0.50409783E+03</rscale>
<asrwt>0</asrwt>
<pdfrwt beam="1">  1        2 0.57692088E-01 0.50409783E+03</pdfrwt>
<pdfrwt beam="2">  1       -2 0.22472807E-01 0.50409783E+03</pdfrwt>
<totfact> 0.14811915E+03</totfact>
</mgrwt>
</event>
<event>
 4    1  0.4998754E-005  0.5956251E+03  0.7818608E-02  0.9914524E-01
          2   -1    0    0  501    0  0.00000000000E+00  0.00000000000E+00  0.32960984955E+03  0.32960984956E+03  0.25500000000E-02 0.  1.
         -2   -1    0    0    0  501 -0.00000000000E+00 -0.00000000000E+00 -0.26908275647E+03  0.26908275648E+03  0.25500000000E-02 0. -1.
    5000001    1    1    2    0    0 -0.13109025341E+03  0.16720013465E+03 -0.32915446522E+02  0.29295898379E+03  0.19900000000E+03 0.  0.
   -5000001    1    1    2    0    0  0.13109025341E+03 -0.16720013465E+03  0.93442539600E+02  0.30573362225E+03  0.19900000000E+03 0.  0.
<mgrwt>
<rscale>  0 0.59562514E+03</rscale>
<asrwt>0</asrwt>
<pdfrwt beam="1">  1        2 0.47087122E-01 0.59562514E+03</pdfrwt>
<pdfrwt beam="2">  1       -2 0.38440394E-01 0.59562514E+03</pdfrwt>
<totfact> 0.69014994E+02</totfact>
</mgrwt>
</event>
<event>
 4    1  0.4998754E-005  0.6931824E+03  0.7818608E-02  0.9728963E-01
         -2   -1    0    0    0  501 -0.00000000000E+00  0.00000000000E+00  0.23875516730E+03  0.23875516731E+03  0.25500000000E-02 0. -1.
          2   -1    0    0  501    0  0.00000000000E+00 -0.00000000000E+00 -0.50313239351E+03  0.50313239352E+03  0.25500000000E-02 0.  1.
    5000001    1    1    2    0    0 -0.14006788568E+03 -0.24022631457E+03 -0.19270121832E+03  0.39250790356E+03  0.19900000000E+03 0.  0.
   -5000001    1    1    2    0    0  0.14006788568E+03  0.24022631457E+03 -0.71676007893E+02  0.34937965728E+03  0.19900000000E+03 0.  0.
<mgrwt>
<rscale>  0 0.69318240E+03</rscale>
<asrwt>0</asrwt>
<pdfrwt beam="1">  1        2 0.71876056E-01 0.69318240E+03</pdfrwt>
<pdfrwt beam="2">  1       -2 0.34107881E-01 0.69318240E+03</pdfrwt>
<totfact> 0.53934929E+02</totfact>
</mgrwt>
</event>
<event>
 4    1  0.4998754E-005  0.7870912E+03  0.7818608E-02  0.9578892E-01
          2   -1    0    0  501    0  0.00000000000E+00  0.00000000000E+00  0.42979765462E+03  0.42979765463E+03  0.25500000000E-02 0.  1.
         -2   -1    0    0    0  501 -0.00000000000E+00 -0.00000000000E+00 -0.36035126183E+03  0.36035126184E+03  0.25500000000E-02 0. -1.
    5000001    1    1    2    0    0  0.26108739651E+03  0.89265647231E+02 -0.16388913413E+03  0.37761836909E+03  0.19900000000E+03 0.  0.
   -5000001    1    1    2    0    0 -0.26108739651E+03 -0.89265647231E+02  0.23333552692E+03  0.41253054737E+03  0.19900000000E+03 0.  0.
<mgrwt>
<rscale>  0 0.78709117E+03</rscale>
<asrwt>0</asrwt>
<pdfrwt beam="1">  1        2 0.61399665E-01 0.78709117E+03</pdfrwt>
<pdfrwt beam="2">  1       -2 0.51478752E-01 0.78709117E+03</pdfrwt>
<totfact> 0.28626611E+02</totfact>
</mgrwt>
</event>
<event>
 4    1  0.4998754E-005  0.7275065E+03  0.7818608E-02  0.9671315E-01
          2   -1    0    0  501    0  0.00000000000E+00  0.00000000000E+00  0.11292305735E+04  0.11292305735E+04  0.25500000000E-02 0.  1.
         -2   -1    0    0    0  501 -0.00000000000E+00 -0.00000000000E+00 -0.11717397524E+03  0.11717397526E+03  0.25500000000E-02 0. -1.
    5000001    1    1    2    0    0  0.54742321248E+02  0.29944431547E+03  0.51836081917E+03  0.63321604422E+03  0.19900000000E+03 0.  0.
   -5000001    1    1    2    0    0 -0.54742321248E+02 -0.29944431547E+03  0.49369577905E+03  0.61318850451E+03  0.19900000000E+03 0.  0.
<mgrwt>
<rscale>  0 0.72750652E+03</rscale>
<asrwt>0</asrwt>
<pdfrwt beam="1">  1        2 0.16131867E+00 0.72750652E+03</pdfrwt>
<pdfrwt beam="2">  1       -2 0.16739138E-01 0.72750652E+03</pdfrwt>
<totfact> 0.68585342E+02</totfact>
</mgrwt>
</event>
<event>
 4    1  0.4998754E-005  0.9019427E+03  0.7818608E-02  0.9423156E-01
          2   -1    0    0  501    0  0.00000000000E+00  0.00000000000E+00  0.44015494690E+03  0.44015494691E+03  0.25500000000E-02 0.  1.
         -2   -1    0    0    0  501 -0.00000000000E+00 -0.00000000000E+00 -0.46205352459E+03  0.46205352460E+03  0.25500000000E-02 0. -1.
    5000001    1    1    2    0    0 -0.19114707499E+03 -0.85881935253E+02  0.33536255055E+03  0.44269848813E+03  0.19900000000E+03 0.  0.
   -5000001    1    1    2    0    0  0.19114707499E+03  0.85881935253E+02 -0.35726112823E+03  0.45950998338E+03  0.19900000000E+03 0.  0.
<mgrwt>
<rscale>  0 0.90194267E+03</rscale>
<asrwt>0</asrwt>
<pdfrwt beam="1">  1        2 0.62879278E-01 0.90194267E+03</pdfrwt>
<pdfrwt beam="2">  1       -2 0.66007646E-01 0.90194267E+03</pdfrwt>
<totfact> 0.16459024E+02</totfact>
</mgrwt>
</event>
<event>
 4    1  0.4998754E-005  0.5143369E+03  0.7818608E-02  0.1010103E+00
         -2   -1    0    0    0  501 -0.00000000000E+00  0.00000000000E+00  0.17071872972E+02  0.17071873162E+02  0.25500000000E-02 0. -1.
          2   -1    0    0  501    0  0.00000000000E+00 -0.00000000000E+00 -0.38739513717E+04  0.38739513717E+04  0.25500000000E-02 0.  1.
    5000001    1    1    2    0    0 -0.45204374967E+02 -0.15236903896E+03 -0.16583269802E+04  0.16777690940E+04  0.19900000000E+03 0.  0.
   -5000001    1    1    2    0    0  0.45204374967E+02  0.15236903896E+03 -0.21985525186E+04  0.22132541509E+04  0.19900000000E+03 0.  0.
<mgrwt>
<rscale>  0 0.51433688E+03</rscale>
<asrwt>0</asrwt>
<pdfrwt beam="1">  1        2 0.55342106E+00 0.51433688E+03</pdfrwt>
<pdfrwt beam="2">  1       -2 0.24388415E-02 0.51433688E+03</pdfrwt>
<totfact> 0.47946102E+02</totfact>
</mgrwt>
</event>
<event>
 4    1  0.4998754E-005  0.6198900E+03  0.7818608E-02  0.9864979E-01
         -2   -1    0    0    0  501 -0.00000000000E+00  0.00000000000E+00  0.46915218832E+03  0.46915218833E+03  0.25500000000E-02 0. -1.
          2   -1    0    0  501    0  0.00000000000E+00 -0.00000000000E+00 -0.20476488634E+03  0.20476488636E+03  0.25500000000E-02 0.  1.
    5000001    1    1    2    0    0 -0.15401730129E+02 -0.22081262948E+03  0.38235044946E+02  0.30009723306E+03  0.19900000000E+03 0.  0.
   -5000001    1    1    2    0    0  0.15401730129E+02  0.22081262948E+03  0.22615225704E+03  0.37381984162E+03  0.19900000000E+03 0.  0.
<mgrwt>
<rscale>  0 0.61988997E+03</rscale>
<asrwt>0</asrwt>
<pdfrwt beam="1">  1        2 0.29252127E-01 0.61988997E+03</pdfrwt>
<pdfrwt beam="2">  1       -2 0.67021740E-01 0.61988997E+03</pdfrwt>
<totfact> 0.37775178E+02</totfact>
</mgrwt>
</event>
<event>
 4    1  0.4998754E-005  0.5450894E+03  0.7818608E-02  0.1002637E+00
         -2   -1    0    0    0  501 -0.00000000000E+00  0.00000000000E+00  0.69840971957E+02  0.69840972003E+02  0.25500000000E-02 0. -1.
          2   -1    0    0  501    0  0.00000000000E+00 -0.00000000000E+00 -0.10635679930E+04  0.10635679930E+04  0.25500000000E-02 0.  1.
    5000001    1    1    2    0    0 -0.29032059729E+02 -0.18249988824E+03 -0.54475773497E+03  0.60869619640E+03  0.19900000000E+03 0.  0.
   -5000001    1    1    2    0    0  0.29032059729E+02  0.18249988824E+03 -0.44896928603E+03  0.52471276857E+03  0.19900000000E+03 0.  0.
<mgrwt>
<rscale>  0 0.54508943E+03</rscale>
<asrwt>0</asrwt>
<pdfrwt beam="1">  1        2 0.15193827E+00 0.54508943E+03</pdfrwt>
<pdfrwt beam="2">  1       -2 0.99772824E-02 0.54508943E+03</pdfrwt>
<totfact> 0.17781417E+03</totfact>
</mgrwt>
</event>
<event>
 4    1  0.4998754E-005  0.6303929E+03  0.7818608E-02  0.9844282E-01
         -2   -1    0    0    0  501 -0.00000000000E+00  0.00000000000E+00  0.98689989353E+02  0.98689989386E+02  0.25500000000E-02 0. -1.
          2   -1    0    0  501    0  0.00000000000E+00 -0.00000000000E+00 -0.10066756872E+04  0.10066756872E+04  0.25500000000E-02 0.  1.
    5000001    1    1    2    0    0  0.79927982714E+02  0.16134354969E+03 -0.74385752921E+03  0.79078773840E+03  0.19900000000E+03 0.  0.
   -5000001    1    1    2    0    0 -0.79927982714E+02 -0.16134354969E+03 -0.16412816861E+03  0.31457793816E+03  0.19900000000E+03 0.  0.
<mgrwt>
<rscale>  0 0.63039293E+03</rscale>
<asrwt>0</asrwt>
<pdfrwt beam="1">  1        2 0.14381081E+00 0.63039293E+03</pdfrwt>
<pdfrwt beam="2">  1       -2 0.14098570E-01 0.63039293E+03</pdfrwt>
<totfact> 0.10873306E+03</totfact>
</mgrwt>
</event>
<event>
 4    1  0.4998754E-005  0.4579080E+03  0.7818608E-02  0.1025390E+00
         -2   -1    0    0    0  501 -0.00000000000E+00  0.00000000000E+00  0.79227759922E+02  0.79227759963E+02  0.25500000000E-02 0. -1.
          2   -1    0    0  501    0  0.00000000000E+00 -0.00000000000E+00 -0.66163580544E+03  0.66163580544E+03  0.25500000000E-02 0.  1.
    5000001    1    1    2    0    0  0.18108682801E+02  0.10999852319E+03 -0.32320976405E+03  0.39559215244E+03  0.19900000000E+03 0.  0.
   -5000001    1    1    2    0    0 -0.18108682801E+02 -0.10999852319E+03 -0.25919828147E+03  0.34527141297E+03  0.19900000000E+03 0.  0.
<mgrwt>
<rscale>  0 0.45790795E+03</rscale>
<asrwt>0</asrwt>
<pdfrwt beam="1">  1        2 0.94519398E-01 0.45790795E+03</pdfrwt>
<pdfrwt beam="2">  1       -2 0.11318252E-01 0.45790795E+03</pdfrwt>
<totfact> 0.26858981E+03</totfact>
</mgrwt>
</event>
<event>
 4    1  0.4998754E-005  0.5342640E+03  0.7818608E-02  0.1005203E+00
          2   -1    0    0  501    0  0.00000000000E+00  0.00000000000E+00  0.23432439618E+04  0.23432439618E+04  0.25500000000E-02 0.  1.
         -2   -1    0    0    0  501 -0.00000000000E+00 -0.00000000000E+00 -0.30453297390E+02  0.30453297496E+02  0.25500000000E-02 0. -1.
    5000001    1    1    2    0    0 -0.15996608250E+03 -0.77102726982E+02  0.10898214337E+04  0.11219829479E+04  0.19900000000E+03 0.  0.
   -5000001    1    1    2    0    0  0.15996608250E+03  0.77102726982E+02  0.12229692307E+04  0.12517143114E+04  0.19900000000E+03 0.  0.
<mgrwt>
<rscale>  0 0.53426400E+03</rscale>
<asrwt>0</asrwt>
<pdfrwt beam="1">  1        2 0.33474919E+00 0.53426400E+03</pdfrwt>
<pdfrwt beam="2">  1       -2 0.43504704E-02 0.53426400E+03</pdfrwt>
<totfact> 0.14212724E+03</totfact>
</mgrwt>
</event>
<event>
 4    1  0.4998754E-005  0.1329110E+04  0.7818608E-02  0.9006794E-01
          2   -1    0    0  501    0  0.00000000000E+00  0.00000000000E+00  0.52247131833E+03  0.52247131834E+03  0.25500000000E-02 0.  1.
         -2   -1    0    0    0  501 -0.00000000000E+00 -0.00000000000E+00 -0.84527781221E+03  0.84527781221E+03  0.25500000000E-02 0. -1.
    5000001    1    1    2    0    0  0.37250616244E+03  0.48279132459E+03 -0.34018972462E+03  0.72607048756E+03  0.19900000000E+03 0.  0.
   -5000001    1    1    2    0    0 -0.37250616244E+03 -0.48279132459E+03  0.17383230743E+02  0.64167864299E+03  0.19900000000E+03 0.  0.
<mgrwt>
<rscale>  0 0.13291101E+04</rscale>
<asrwt>0</asrwt>
<pdfrwt beam="1">  1        2 0.74638760E-01 0.13291101E+04</pdfrwt>
<pdfrwt beam="2">  1       -2 0.12075397E+00 0.13291101E+04</pdfrwt>
<totfact> 0.32677628E+01</totfact>
</mgrwt>
</event>
<event>
 4    1  0.4998754E-005  0.7481890E+03  0.7818608E-02  0.9638196E-01
          2   -1    0    0  501    0  0.00000000000E+00  0.00000000000E+00  0.68720325102E+03  0.68720325103E+03  0.25500000000E-02 0.  1.
         -2   -1    0    0    0  501 -0.00000000000E+00 -0.00000000000E+00 -0.20364674917E+03  0.20364674919E+03  0.25500000000E-02 0. -1.
    5000001    1    1    2    0    0  0.41451755105E+02 -0.87520322989E+02  0.60089589269E+03  0.64035531449E+03  0.19900000000E+03 0.  0.
   -5000001    1    1    2    0    0 -0.41451755105E+02  0.87520322989E+02 -0.11733939084E+03  0.25049468573E+03  0.19900000000E+03 0.  0.
<mgrwt>
<rscale>  0 0.74818904E+03</rscale>
<asrwt>0</asrwt>
<pdfrwt beam="1">  1        2 0.98171891E-01 0.74818904E+03</pdfrwt>
<pdfrwt beam="2">  1       -2 0.29092393E-01 0.74818904E+03</pdfrwt>
<totfact> 0.50167246E+02</totfact>
</mgrwt>
</event>
<event>
 4    1  0.4998754E-005  0.5985548E+03  0.7818608E-02  0.9908409E-01
          2   -1    0    0  501    0  0.00000000000E+00  0.00000000000E+00  0.31099003201E+03  0.31099003202E+03  0.25500000000E-02 0.  1.
         -2   -1    0    0    0  501 -0.00000000000E+00 -0.00000000000E+00 -0.28800591443E+03  0.28800591444E+03  0.25500000000E-02 0. -1.
    5000001    1    1    2    0    0  0.16814356817E+03 -0.53043507860E+02 -0.12601406545E+03  0.29422171561E+03  0.19900000000E+03 0.  0.
   -5000001    1    1    2    0    0 -0.16814356817E+03  0.53043507860E+02  0.14899818303E+03  0.30477423085E+03  0.19900000000E+03 0.  0.
<mgrwt>
<rscale>  0 0.59855482E+03</rscale>
<asrwt>0</asrwt>
<pdfrwt beam="1">  1        2 0.44427148E-01 0.59855482E+03</pdfrwt>
<pdfrwt beam="2">  1       -2 0.41143702E-01 0.59855482E+03</pdfrwt>
<totfact> 0.64500668E+02</totfact>
</mgrwt>
</event>
<event>
 4    1  0.4998754E-005  0.5212108E+03  0.7818608E-02  0.1008386E+00
         -2   -1    0    0    0  501 -0.00000000000E+00  0.00000000000E+00  0.57216995245E+03  0.57216995245E+03  0.25500000000E-02 0. -1.
          2   -1    0    0  501    0  0.00000000000E+00 -0.00000000000E+00 -0.11869753501E+03  0.11869753504E+03  0.25500000000E-02 0.  1.
    5000001    1    1    2    0    0  0.69419545955E+01 -0.16799603628E+03  0.23545880100E+03  0.35115908917E+03  0.19900000000E+03 0.  0.
   -5000001    1    1    2    0    0 -0.69419545955E+01  0.16799603628E+03  0.21801361644E+03  0.33970839832E+03  0.19900000000E+03 0.  0.
<mgrwt>
<rscale>  0 0.52121076E+03</rscale>
<asrwt>0</asrwt>
<pdfrwt beam="1">  1        2 0.16956791E-01 0.52121076E+03</pdfrwt>
<pdfrwt beam="2">  1       -2 0.81738564E-01 0.52121076E+03</pdfrwt>
<totfact> 0.45953948E+02</totfact>
</mgrwt>
</event>
<event>
 4    1  0.4998754E-005  0.5593744E+03  0.7818608E-02  0.9993471E-01
         -2   -1    0    0    0  501 -0.00000000000E+00  0.00000000000E+00  0.49572179209E+03  0.49572179210E+03  0.25500000000E-02 0. -1.
          2   -1    0    0  501    0  0.00000000000E+00 -0.00000000000E+00 -0.15780004274E+03  0.15780004276E+03  0.25500000000E-02 0.  1.
    5000001    1    1    2    0    0  0.15105959215E+03 -0.11724102588E+03  0.22198022200E+03  0.35417605437E+03  0.19900000000E+03 0.  0.
   -5000001    1    1    2    0    0 -0.15105959215E+03  0.11724102588E+03  0.11594152735E+03  0.29934578049E+03  0.19900000000E+03 0.  0.
<mgrwt>
<rscale>  0 0.55937436E+03</rscale>
<asrwt>0</asrwt>
<pdfrwt beam="1">  1        2 0.22542863E-01 0.55937436E+03</pdfrwt>
<pdfrwt beam="2">  1       -2 0.70817400E-01 0.55937436E+03</pdfrwt>
<totfact> 0.45172935E+02</totfact>
</mgrwt>
</event>
<event>
 4    1  0.4998754E-005  0.4346361E+03  0.7818608E-02  0.1032405E+00
          2   -1    0    0  501    0  0.00000000000E+00  0.00000000000E+00  0.13798154107E+04  0.13798154107E+04  0.25500000000E-02 0.  1.
         -2   -1    0    0    0  501 -0.00000000000E+00 -0.00000000000E+00 -0.34227141251E+02  0.34227141346E+02  0.25500000000E-02 0. -1.
    5000001    1    1    2    0    0  0.95555704054E+01  0.83984295986E+02  0.74418120283E+03  0.77495247180E+03  0.19900000000E+03 0.  0.
   -5000001    1    1    2    0    0 -0.95555704054E+01 -0.83984295986E+02  0.60140706664E+03  0.63909008027E+03  0.19900000000E+03 0.  0.
<mgrwt>
<rscale>  0 0.43463611E+03</rscale>
<asrwt>0</asrwt>
<pdfrwt beam="1">  1        2 0.19711647E+00 0.43463611E+03</pdfrwt>
<pdfrwt beam="2">  1       -2 0.48895921E-02 0.43463611E+03</pdfrwt>
<totfact> 0.36526914E+03</totfact>
</mgrwt>
</event>
<event>
 4    1  0.4998754E-005  0.9121163E+03  0.7818608E-02  0.9410561E-01
          2   -1    0    0  501    0  0.00000000000E+00  0.00000000000E+00  0.15695944432E+04  0.15695944432E+04  0.25500000000E-02 0.  1.
         -2   -1    0    0    0  501 -0.00000000000E+00 -0.00000000000E+00 -0.13251131392E+03  0.13251131395E+03  0.25500000000E-02 0. -1.
    5000001    1    1    2    0    0 -0.36146553740E+03 -0.16589856704E+03  0.90708619691E+03  0.10102405842E+04  0.19900000000E+03 0.  0.
   -5000001    1    1    2    0    0  0.36146553740E+03  0.16589856704E+03  0.52999693237E+03  0.69186517299E+03  0.19900000000E+03 0.  0.
<mgrwt>
<rscale>  0 0.91211627E+03</rscale>
<asrwt>0</asrwt>
<pdfrwt beam="1">  1        2 0.22422778E+00 0.91211627E+03</pdfrwt>
<pdfrwt beam="2">  1       -2 0.18930188E-01 0.91211627E+03</pdfrwt>
<totfact> 0.31620075E+02</totfact>
</mgrwt>
</event>
<event>
 4    1  0.4998754E-005  0.9277148E+03  0.7818608E-02  0.9391585E-01
          2   -1    0    0  501    0  0.00000000000E+00  0.00000000000E+00  0.10113664572E+04  0.10113664572E+04  0.25500000000E-02 0.  1.
         -2   -1    0    0    0  501 -0.00000000000E+00 -0.00000000000E+00 -0.21274551021E+03  0.21274551022E+03  0.25500000000E-02 0. -1.
    5000001    1    1    2    0    0  0.39378434394E+03 -0.11700184266E+03  0.29044535066E+03  0.54103146160E+03  0.19900000000E+03 0.  0.
   -5000001    1    1    2    0    0 -0.39378434394E+03  0.11700184266E+03  0.50817559629E+03  0.68308050579E+03  0.19900000000E+03 0.  0.
<mgrwt>
<rscale>  0 0.92771477E+03</rscale>
<asrwt>0</asrwt>
<pdfrwt beam="1">  1        2 0.14448092E+00 0.92771477E+03</pdfrwt>
<pdfrwt beam="2">  1       -2 0.30392216E-01 0.92771477E+03</pdfrwt>
<totfact> 0.27617898E+02</totfact>
</mgrwt>
</event>
<event>
 4    1  0.4998754E-005  0.5912212E+03  0.7818608E-02  0.9923789E-01
          2   -1    0    0  501    0  0.00000000000E+00  0.00000000000E+00  0.76372099280E+03  0.76372099280E+03  0.25500000000E-02 0.  1.
         -2   -1    0    0    0  501 -0.00000000000E+00 -0.00000000000E+00 -0.11442088012E+03  0.11442088015E+03  0.25500000000E-02 0. -1.
    5000001    1    1    2    0    0 -0.22960458710E+02  0.15982255626E+03  0.54352021941E+03  0.60090403648E+03  0.19900000000E+03 0.  0.
   -5000001    1    1    2    0    0  0.22960458710E+02 -0.15982255626E+03  0.10577989327E+03  0.27723783647E+03  0.19900000000E+03 0.  0.
<mgrwt>
<rscale>  0 0.59122120E+03</rscale>
<asrwt>0</asrwt>
<pdfrwt beam="1">  1        2 0.10910300E+00 0.59122120E+03</pdfrwt>
<pdfrwt beam="2">  1       -2 0.16345840E-01 0.59122120E+03</pdfrwt>
<totfact> 0.12234777E+03</totfact>
</mgrwt>
</event>
<event>
 4    1  0.4998754E-005  0.1298342E+04  0.7818608E-02  0.9030881E-01
         -2   -1    0    0    0  501 -0.00000000000E+00  0.00000000000E+00  0.36443324107E+03  0.36443324108E+03  0.25500000000E-02 0. -1.
          2   -1    0    0  501    0  0.00000000000E+00 -0.00000000000E+00 -0.11563788276E+04  0.11563788276E+04  0.25500000000E-02 0.  1.
    5000001    1    1    2    0    0 -0.97965189803E+02  0.54204273517E+03 -0.72398072872E+03  0.93121243587E+03  0.19900000000E+03 0.  0.
   -5000001    1    1    2    0    0  0.97965189803E+02 -0.54204273517E+03 -0.67964857847E+02  0.58959963285E+03  0.19900000000E+03 0.  0.
<mgrwt>
<rscale>  0 0.12983418E+04</rscale>
<asrwt>0</asrwt>
<pdfrwt beam="1">  1        2 0.16519697E+00 0.12983418E+04</pdfrwt>
<pdfrwt beam="2">  1       -2 0.52061892E-01 0.12983418E+04</pdfrwt>
<totfact> 0.77352987E+01</totfact>
</mgrwt>
</event>
<event>
 4    1  0.4998754E-005  0.1156734E+04  0.7818608E-02  0.9151593E-01
          2   -1    0    0  501    0  0.00000000000E+00  0.00000000000E+00  0.19961080125E+04  0.19961080125E+04  0.25500000000E-02 0.  1.
         -2   -1    0    0    0  501 -0.00000000000E+00 -0.00000000000E+00 -0.16758039266E+03  0.16758039268E+03  0.25500000000E-02 0. -1.
    5000001    1    1    2    0    0 -0.41833596845E+03  0.16376072316E+03  0.34357287967E+03  0.59955473528E+03  0.19900000000E+03 0.  0.
   -5000001    1    1    2    0    0  0.41833596845E+03 -0.16376072316E+03  0.14849547401E+04  0.15641336699E+04  0.19900000000E+03 0.  0.
<mgrwt>
<rscale>  0 0.11567343E+04</rscale>
<asrwt>0</asrwt>
<pdfrwt beam="1">  1        2 0.28515827E+00 0.11567343E+04</pdfrwt>
<pdfrwt beam="2">  1       -2 0.23940057E-01 0.11567343E+04</pdfrwt>
<totfact> 0.12381225E+02</totfact>
</mgrwt>
</event>
<event>
 4    1  0.4998754E-005  0.5895911E+03  0.7818608E-02  0.9927240E-01
         -2   -1    0    0    0  501 -0.00000000000E+00  0.00000000000E+00  0.23036907445E+03  0.23036907446E+03  0.25500000000E-02 0. -1.
          2   -1    0    0  501    0  0.00000000000E+00 -0.00000000000E+00 -0.37723999573E+03  0.37723999574E+03  0.25500000000E-02 0.  1.
    5000001    1    1    2    0    0  0.16091272689E+03 -0.10445235747E+03  0.32166665745E+02  0.27827844875E+03  0.19900000000E+03 0.  0.
   -5000001    1    1    2    0    0 -0.16091272689E+03  0.10445235747E+03 -0.17903758703E+03  0.32933062145E+03  0.19900000000E+03 0.  0.
<mgrwt>
<rscale>  0 0.58959114E+03</rscale>
<asrwt>0</asrwt>
<pdfrwt beam="1">  1        2 0.53891428E-01 0.58959114E+03</pdfrwt>
<pdfrwt beam="2">  1       -2 0.32909868E-01 0.58959114E+03</pdfrwt>
<totfact> 0.79868134E+02</totfact>
</mgrwt>
</event>
<event>
 4    1  0.4998754E-005  0.9832212E+03  0.7818608E-02  0.9327141E-01
         -2   -1    0    0    0  501 -0.00000000000E+00  0.00000000000E+00  0.20814005429E+03  0.20814005431E+03  0.25500000000E-02 0. -1.
          2   -1    0    0  501    0  0.00000000000E+00 -0.00000000000E+00 -0.11611460463E+04  0.11611460463E+04  0.25500000000E-02 0.  1.
    5000001    1    1    2    0    0 -0.40852036083E+03 -0.18653863476E+03 -0.50416228100E+03  0.70389356657E+03  0.19900000000E+03 0.  0.
   -5000001    1    1    2    0    0  0.40852036083E+03  0.18653863476E+03 -0.44884371103E+03  0.66539253407E+03  0.19900000000E+03 0.  0.
<mgrwt>
<rscale>  0 0.98322124E+03</rscale>
<asrwt>0</asrwt>
<pdfrwt beam="1">  1        2 0.16587800E+00 0.98322124E+03</pdfrwt>
<pdfrwt beam="2">  1       -2 0.29734294E-01 0.98322124E+03</pdfrwt>
<totfact> 0.23370491E+02</totfact>
</mgrwt>
</event>
<event>
 4    1  0.4998754E-005  0.1097633E+04  0.7818608E-02  0.9207502E-01
         -2   -1    0    0    0  501 -0.00000000000E+00  0.00000000000E+00  0.10022165922E+03  0.10022165925E+03  0.25500000000E-02 0. -1.
          2   -1    0    0  501    0  0.00000000000E+00 -0.00000000000E+00 -0.30053313125E+04  0.30053313125E+04  0.25500000000E-02 0.  1.
    5000001    1    1    2    0    0 -0.46853149286E+03  0.11798547583E+03 -0.19273071849E+04  0.19968866561E+04  0.19900000000E+03 0.  0.
   -5000001    1    1    2    0    0  0.46853149286E+03 -0.11798547583E+03 -0.97780246838E+03  0.11086663157E+04  0.19900000000E+03 0.  0.
<mgrwt>
<rscale>  0 0.10976325E+04</rscale>
<asrwt>0</asrwt>
<pdfrwt beam="1">  1        2 0.42933299E+00 0.10976325E+04</pdfrwt>
<pdfrwt beam="2">  1       -2 0.14317382E-01 0.10976325E+04</pdfrwt>
<totfact> 0.89751820E+01</totfact>
</mgrwt>
</event>
<event>
 4    1  0.4998754E-005  0.5416580E+03  0.7818608E-02  0.1003443E+00
         -2   -1    0    0    0  501 -0.00000000000E+00  0.00000000000E+00  0.11136426545E+03  0.11136426548E+03  0.25500000000E-02 0. -1.
          2   -1    0    0  501    0  0.00000000000E+00 -0.00000000000E+00 -0.65863442840E+03  0.65863442841E+03  0.25500000000E-02 0.  1.
    5000001    1    1    2    0    0  0.17886351599E+03  0.12897927536E+02 -0.33029852233E+03  0.42527241592E+03  0.19900000000E+03 0.  0.
   -5000001    1    1    2    0    0 -0.17886351599E+03 -0.12897927536E+02 -0.21697164063E+03  0.34472627797E+03  0.19900000000E+03 0.  0.
<mgrwt>
<rscale>  0 0.54165797E+03</rscale>
<asrwt>0</asrwt>
<pdfrwt beam="1">  1        2 0.94090631E-01 0.54165797E+03</pdfrwt>
<pdfrwt beam="2">  1       -2 0.15909181E-01 0.54165797E+03</pdfrwt>
<totfact> 0.15366169E+03</totfact>
</mgrwt>
</event>
<event>
 4    1  0.4998754E-005  0.1307679E+04  0.7818608E-02  0.9023498E-01
          2   -1    0    0  501    0  0.00000000000E+00  0.00000000000E+00  0.63953080386E+03  0.63953080387E+03  0.25500000000E-02 0.  1.
         -2   -1    0    0    0  501 -0.00000000000E+00 -0.00000000000E+00 -0.66846823904E+03  0.66846823904E+03  0.25500000000E-02 0. -1.
    5000001    1    1    2    0    0  0.34767525404E+03  0.42470972635E+03 -0.30890211747E+03  0.66051340040E+03  0.19900000000E+03 0.  0.
   -5000001    1    1    2    0    0 -0.34767525404E+03 -0.42470972635E+03  0.27996468229E+03  0.64748564251E+03  0.19900000000E+03 0.  0.
<mgrwt>
<rscale>  0 0.13076789E+04</rscale>
<asrwt>0</asrwt>
<pdfrwt beam="1">  1        2 0.91361544E-01 0.13076789E+04</pdfrwt>
<pdfrwt beam="2">  1       -2 0.95495462E-01 0.13076789E+04</pdfrwt>
<totfact> 0.45413847E+01</totfact>
</mgrwt>
</event>
<event>
 4    1  0.4998754E-005  0.7375539E+03  0.7818608E-02  0.9655081E-01
          2   -1    0    0  501    0  0.00000000000E+00  0.00000000000E+00  0.80368810502E+03  0.80368810503E+03  0.25500000000E-02 0. -1.
         -2   -1    0    0    0  501 -0.00000000000E+00 -0.00000000000E+00 -0.16921542444E+03  0.16921542446E+03  0.25500000000E-02 0.  1.
    5000001    1    1    2    0    0  0.29805194459E+03  0.53173931249E+02  0.40798580466E+03  0.54563343504E+03  0.19900000000E+03 0.  0.
   -5000001    1    1    2    0    0 -0.29805194459E+03 -0.53173931249E+02  0.22648687593E+03  0.42727009444E+03  0.19900000000E+03 0.  0.
<mgrwt>
<rscale>  0 0.73755386E+03</rscale>
<asrwt>0</asrwt>
<pdfrwt beam="1">  1        2 0.11481258E+00 0.73755386E+03</pdfrwt>
<pdfrwt beam="2">  1       -2 0.24173632E-01 0.73755386E+03</pdfrwt>
<totfact> 0.57740079E+02</totfact>
</mgrwt>
</event>
<event>
 4    1  0.4998754E-005  0.4572338E+03  0.7818608E-02  0.1025587E+00
         -2   -1    0    0    0  501 -0.00000000000E+00  0.00000000000E+00  0.12435637444E+03  0.12435637447E+03  0.25500000000E-02 0. -1.
          2   -1    0    0  501    0  0.00000000000E+00 -0.00000000000E+00 -0.42028960274E+03  0.42028960275E+03  0.25500000000E-02 0.  1.
    5000001    1    1    2    0    0 -0.42869181255E+02  0.10257955814E+03 -0.12718549810E+03  0.26103157544E+03  0.19900000000E+03 0.  0.
   -5000001    1    1    2    0    0  0.42869181255E+02 -0.10257955814E+03 -0.16874773020E+03  0.28361440178E+03  0.19900000000E+03 0.  0.
<mgrwt>
<rscale>  0 0.45723382E+03</rscale>
<asrwt>0</asrwt>
<pdfrwt beam="1">  1        2 0.60041371E-01 0.45723382E+03</pdfrwt>
<pdfrwt beam="2">  1       -2 0.17765197E-01 0.45723382E+03</pdfrwt>
<totfact> 0.21287031E+03</totfact>
</mgrwt>
</event>
<event>
 4    1  0.4998754E-005  0.9122463E+03  0.7818608E-02  0.9410401E-01
          2   -1    0    0  501    0  0.00000000000E+00  0.00000000000E+00  0.76895882123E+03  0.76895882124E+03  0.25500000000E-02 0. -1.
         -2   -1    0    0    0  501 -0.00000000000E+00 -0.00000000000E+00 -0.27055850604E+03  0.27055850605E+03  0.25500000000E-02 0.  1.
    5000001    1    1    2    0    0 -0.54699445585E+02 -0.38098797877E+03  0.86830510611E+02  0.44190995337E+03  0.19900000000E+03 0.  0.
   -5000001    1    1    2    0    0  0.54699445585E+02  0.38098797877E+03  0.41156980458E+03  0.59760737392E+03  0.19900000000E+03 0.  0.
<mgrwt>
<rscale>  0 0.91224635E+03</rscale>
<asrwt>0</asrwt>
<pdfrwt beam="1">  1        2 0.10985126E+00 0.91224635E+03</pdfrwt>
<pdfrwt beam="2">  1       -2 0.38651214E-01 0.91224635E+03</pdfrwt>
<totfact> 0.25309384E+02</totfact>
</mgrwt>
</event>
<event>
 4    1  0.4998754E-005  0.6485602E+03  0.7818608E-02  0.9809485E-01
          2   -1    0    0  501    0  0.00000000000E+00  0.00000000000E+00  0.29194890572E+04  0.29194890572E+04  0.25500000000E-02 0.  1.
         -2   -1    0    0    0  501 -0.00000000000E+00 -0.00000000000E+00 -0.36019171691E+02  0.36019171781E+02  0.25500000000E-02 0. -1.
    5000001    1    1    2    0    0 -0.17992370262E+03 -0.48737992941E+02  0.22416027237E+04  0.22581257054E+04  0.19900000000E+03 0.  0.
   -5000001    1    1    2    0    0  0.17992370262E+03  0.48737992941E+02  0.64186716181E+03  0.69738252354E+03  0.19900000000E+03 0.  0.
<mgrwt>
<rscale>  0 0.64856018E+03</rscale>
<asrwt>0</asrwt>
<pdfrwt beam="1">  1        2 0.41706983E+00 0.64856018E+03</pdfrwt>
<pdfrwt beam="2">  1       -2 0.51455964E-02 0.64856018E+03</pdfrwt>
<totfact> 0.54479349E+02</totfact>
</mgrwt>
</event>
<event>
 4    1  0.4998754E-005  0.7617564E+03  0.7818608E-02  0.9617085E-01
          2   -1    0    0  501    0  0.00000000000E+00  0.00000000000E+00  0.18660772840E+04  0.18660772840E+04  0.25500000000E-02 0.  1.
         -2   -1    0    0    0  501 -0.00000000000E+00 -0.00000000000E+00 -0.77739655057E+02  0.77739655099E+02  0.25500000000E-02 0. -1.
    5000001    1    1    2    0    0 -0.28969428682E+03  0.14102320234E+03  0.99803756489E+03  0.10674691117E+04  0.19900000000E+03 0.  0.
   -5000001    1    1    2    0    0  0.28969428682E+03 -0.14102320234E+03  0.79030006405E+03  0.87634782744E+03  0.19900000000E+03 0.  0.
<mgrwt>
<rscale>  0 0.76175640E+03</rscale>
<asrwt>0</asrwt>
<pdfrwt beam="1">  1        2 0.26658246E+00 0.76175640E+03</pdfrwt>
<pdfrwt beam="2">  1       -2 0.11105665E-01 0.76175640E+03</pdfrwt>
<totfact> 0.55271489E+02</totfact>
</mgrwt>
</event>
<event>
 4    1  0.4998754E-005  0.6505602E+03  0.7818608E-02  0.9805729E-01
         -2   -1    0    0    0  501 -0.00000000000E+00  0.00000000000E+00  0.15676934638E+03  0.15676934640E+03  0.25500000000E-02 0. -1.
          2   -1    0    0  501    0  0.00000000000E+00 -0.00000000000E+00 -0.67492241564E+03  0.67492241565E+03  0.25500000000E-02 0.  1.
    5000001    1    1    2    0    0  0.57657389646E+02  0.23783648830E+03 -0.36067365406E+03  0.47914199824E+03  0.19900000000E+03 0.  0.
   -5000001    1    1    2    0    0 -0.57657389646E+02 -0.23783648830E+03 -0.15747941520E+03  0.35254976381E+03  0.19900000000E+03 0.  0.
<mgrwt>
<rscale>  0 0.65056021E+03</rscale>
<asrwt>0</asrwt>
<pdfrwt beam="1">  1        2 0.96417487E-01 0.65056021E+03</pdfrwt>
<pdfrwt beam="2">  1       -2 0.22395621E-01 0.65056021E+03</pdfrwt>
<totfact> 0.82482892E+02</totfact>
</mgrwt>
</event>
<event>
 4    1  0.4998754E-005  0.1384531E+04  0.7818608E-02  0.8965092E-01
         -2   -1    0    0    0  501 -0.00000000000E+00  0.00000000000E+00  0.13378385683E+03  0.13378385685E+03  0.25500000000E-02 0. -1.
          2   -1    0    0  501    0  0.00000000000E+00 -0.00000000000E+00 -0.35821342014E+04  0.35821342014E+04  0.25500000000E-02 0.  1.
    5000001    1    1    2    0    0  0.58833406924E+03 -0.28343995558E+03 -0.14163403456E+04  0.15722901004E+04  0.19900000000E+03 0.  0.
   -5000001    1    1    2    0    0 -0.58833406924E+03  0.28343995558E+03 -0.20320099990E+04  0.21436279578E+04  0.19900000000E+03 0.  0.
<mgrwt>
<rscale>  0 0.13845313E+04</rscale>
<asrwt>0</asrwt>
<pdfrwt beam="1">  1        2 0.51173340E+00 0.13845313E+04</pdfrwt>
<pdfrwt beam="2">  1       -2 0.19111982E-01 0.13845313E+04</pdfrwt>
<totfact> 0.24509044E+01</totfact>
</mgrwt>
</event>
<event>
 4    1  0.4998754E-005  0.5340079E+03  0.7818608E-02  0.1005265E+00
          2   -1    0    0  501    0  0.00000000000E+00  0.00000000000E+00  0.22229828546E+04  0.22229828546E+04  0.25500000000E-02 0.  1.
         -2   -1    0    0    0  501 -0.00000000000E+00 -0.00000000000E+00 -0.32070016610E+02  0.32070016712E+02  0.25500000000E-02 0. -1.
    5000001    1    1    2    0    0 -0.13310464456E+03  0.81035006195E+02  0.73202882380E+03  0.77443574137E+03  0.19900000000E+03 0.  0.
   -5000001    1    1    2    0    0  0.13310464456E+03 -0.81035006195E+02  0.14588840142E+04  0.14806171299E+04  0.19900000000E+03 0.  0.
<mgrwt>
<rscale>  0 0.53400785E+03</rscale>
<asrwt>0</asrwt>
<pdfrwt beam="1">  1        2 0.31756909E+00 0.53400785E+03</pdfrwt>
<pdfrwt beam="2">  1       -2 0.45814293E-02 0.53400785E+03</pdfrwt>
<totfact> 0.15089457E+03</totfact>
</mgrwt>
</event>
<event>
 4    1  0.4998754E-005  0.6256112E+03  0.7818608E-02  0.9853651E-01
         -2   -1    0    0    0  501 -0.00000000000E+00  0.00000000000E+00  0.12221064532E+03  0.12221064535E+03  0.25500000000E-02 0. -1.
          2   -1    0    0  501    0  0.00000000000E+00 -0.00000000000E+00 -0.80064502220E+03  0.80064502220E+03  0.25500000000E-02 0.  1.
    5000001    1    1    2    0    0 -0.18000761165E+03 -0.41585798398E+02 -0.11014839488E+03  0.29302864668E+03  0.19900000000E+03 0.  0.
   -5000001    1    1    2    0    0  0.18000761165E+03  0.41585798398E+02 -0.56828598200E+03  0.62982702087E+03  0.19900000000E+03 0.  0.
<mgrwt>
<rscale>  0 0.62561120E+03</rscale>
<asrwt>0</asrwt>
<pdfrwt beam="1">  1        2 0.11437786E+00 0.62561120E+03</pdfrwt>
<pdfrwt beam="2">  1       -2 0.17458664E-01 0.62561120E+03</pdfrwt>
<totfact> 0.10292811E+03</totfact>
</mgrwt>
</event>
<event>
 4    1  0.4998754E-005  0.6249799E+03  0.7818608E-02  0.9854894E-01
          2   -1    0    0  501    0  0.00000000000E+00  0.00000000000E+00  0.63496022274E+02  0.63496022325E+02  0.25500000000E-02 0.  1.
         -2   -1    0    0    0  501 -0.00000000000E+00 -0.00000000000E+00 -0.15378912631E+04  0.15378912631E+04  0.25500000000E-02 0. -1.
    5000001    1    1    2    0    0  0.52421074693E+02  0.14023585000E+03 -0.12208888031E+04  0.12460275006E+04  0.19900000000E+03 0.  0.
   -5000001    1    1    2    0    0 -0.52421074693E+02 -0.14023585000E+03 -0.25350643766E+03  0.35535978477E+03  0.19900000000E+03 0.  0.
<mgrwt>
<rscale>  0 0.62497993E+03</rscale>
<asrwt>0</asrwt>
<pdfrwt beam="1">  1        2 0.90708613E-02 0.62497993E+03</pdfrwt>
<pdfrwt beam="2">  1       -2 0.21969873E+00 0.62497993E+03</pdfrwt>
<totfact> 0.76937974E+01</totfact>
</mgrwt>
</event>
<event>
 4    1  0.4998754E-005  0.4904077E+03  0.7818608E-02  0.1016313E+00
         -2   -1    0    0    0  501 -0.00000000000E+00  0.00000000000E+00  0.22414357103E+02  0.22414357248E+02  0.25500000000E-02 0. -1.
          2   -1    0    0  501    0  0.00000000000E+00 -0.00000000000E+00 -0.26824293936E+04  0.26824293936E+04  0.25500000000E-02 0.  1.
    5000001    1    1    2    0    0  0.13631685497E+03  0.31291083968E+02 -0.11588924162E+04  0.11841427486E+04  0.19900000000E+03 0.  0.
   -5000001    1    1    2    0    0 -0.13631685497E+03 -0.31291083968E+02 -0.15011226204E+04  0.15207010023E+04  0.19900000000E+03 0.  0.
<mgrwt>
<rscale>  0 0.49040771E+03</rscale>
<asrwt>0</asrwt>
<pdfrwt beam="1">  1        2 0.38320400E+00 0.49040771E+03</pdfrwt>
<pdfrwt beam="2">  1       -2 0.32020527E-02 0.49040771E+03</pdfrwt>
<totfact> 0.15264930E+03</totfact>
</mgrwt>
</event>
<event>
 4    1  0.4998754E-005  0.5170007E+03  0.7818608E-02  0.1009434E+00
         -2   -1    0    0    0  501 -0.00000000000E+00  0.00000000000E+00  0.15767390426E+03  0.15767390428E+03  0.25500000000E-02 0. -1.
          2   -1    0    0  501    0  0.00000000000E+00 -0.00000000000E+00 -0.42380140037E+03  0.42380140038E+03  0.25500000000E-02 0.  1.
    5000001    1    1    2    0    0 -0.10042595387E+03  0.10171912867E+03 -0.22573641336E+03  0.33315173970E+03  0.19900000000E+03 0.  0.
   -5000001    1    1    2    0    0  0.10042595387E+03 -0.10171912867E+03 -0.40391082747E+02  0.24832356496E+03  0.19900000000E+03 0.  0.
<mgrwt>
<rscale>  0 0.51700066E+03</rscale>
<asrwt>0</asrwt>
<pdfrwt beam="1">  1        2 0.60543057E-01 0.51700066E+03</pdfrwt>
<pdfrwt beam="2">  1       -2 0.22524844E-01 0.51700066E+03</pdfrwt>
<totfact> 0.13984518E+03</totfact>
</mgrwt>
</event>
<event>
 4    1  0.4998754E-005  0.5375152E+03  0.7818608E-02  0.1004426E+00
         -2   -1    0    0    0  501 -0.00000000000E+00  0.00000000000E+00  0.50371553097E+03  0.50371553098E+03  0.25500000000E-02 0. -1.
          2   -1    0    0  501    0  0.00000000000E+00 -0.00000000000E+00 -0.14339573867E+03  0.14339573869E+03  0.25500000000E-02 0.  1.
    5000001    1    1    2    0    0 -0.16076604795E+03 -0.49221025453E+02  0.10065522854E+03  0.27928642386E+03  0.19900000000E+03 0.  0.
   -5000001    1    1    2    0    0  0.16076604795E+03  0.49221025453E+02  0.25966456377E+03  0.36782484581E+03  0.19900000000E+03 0.  0.
<mgrwt>
<rscale>  0 0.53751525E+03</rscale>
<asrwt>0</asrwt>
<pdfrwt beam="1">  1        2 0.20485106E-01 0.53751525E+03</pdfrwt>
<pdfrwt beam="2">  1       -2 0.71959362E-01 0.53751525E+03</pdfrwt>
<totfact> 0.48758519E+02</totfact>
</mgrwt>
</event>
<event>
 4    1  0.4998754E-005  0.7755256E+03  0.7818608E-02  0.9596134E-01
         -2   -1    0    0    0  501 -0.00000000000E+00  0.00000000000E+00  0.64579342143E+02  0.64579342194E+02  0.25500000000E-02 0.  1.
          2   -1    0    0  501    0  0.00000000000E+00 -0.00000000000E+00 -0.23282983834E+04  0.23282983834E+04  0.25500000000E-02 0. -1.
    5000001    1    1    2    0    0 -0.30362604705E+03 -0.15788194533E+02 -0.71422326346E+03  0.80134506525E+03  0.19900000000E+03 0.  0.
   -5000001    1    1    2    0    0  0.30362604705E+03  0.15788194533E+02 -0.15494957778E+04  0.15915326604E+04  0.19900000000E+03 0.  0.
<mgrwt>
<rscale>  0 0.77552557E+03</rscale>
<asrwt>0</asrwt>
<pdfrwt beam="1">  1        2 0.33261400E+00 0.77552557E+03</pdfrwt>
<pdfrwt beam="2">  1       -2 0.92256217E-02 0.77552557E+03</pdfrwt>
<totfact> 0.43539169E+02</totfact>
</mgrwt>
</event>
<event>
 4    1  0.4998754E-005  0.4303778E+03  0.7818608E-02  0.1033741E+00
         -2   -1    0    0    0  501 -0.00000000000E+00  0.00000000000E+00  0.44694913505E+02  0.44694913578E+02  0.25500000000E-02 0.  1.
          2   -1    0    0  501    0  0.00000000000E+00 -0.00000000000E+00 -0.10360520767E+04  0.10360520767E+04  0.25500000000E-02 0. -1.
    5000001    1    1    2    0    0 -0.78590837991E+02 -0.17765612336E+02 -0.53233816440E+03  0.57400092167E+03  0.19900000000E+03 0.  0.
   -5000001    1    1    2    0    0  0.78590837991E+02  0.17765612336E+02 -0.45901899877E+03  0.50674606858E+03  0.19900000000E+03 0.  0.
<mgrwt>
<rscale>  0 0.43037778E+03</rscale>
<asrwt>0</asrwt>
<pdfrwt beam="1">  1        2 0.14800742E+00 0.43037778E+03</pdfrwt>
<pdfrwt beam="2">  1       -2 0.63849883E-02 0.43037778E+03</pdfrwt>
<totfact> 0.37474768E+03</totfact>
</mgrwt>
</event>
<event>
 4    1  0.4998754E-005  0.4856775E+03  0.7818608E-02  0.1017586E+00
          2   -1    0    0  501    0  0.00000000000E+00  0.00000000000E+00  0.17619139088E+04  0.17619139088E+04  0.25500000000E-02 0.  1.
         -2   -1    0    0    0  501 -0.00000000000E+00 -0.00000000000E+00 -0.33469661850E+02  0.33469661947E+02  0.25500000000E-02 0. -1.
    5000001    1    1    2    0    0 -0.25901871525E+02  0.12821934493E+03  0.68854119169E+03  0.72856096520E+03  0.19900000000E+03 0.  0.
   -5000001    1    1    2    0    0  0.25901871525E+02 -0.12821934493E+03  0.10399030553E+04  0.10668226055E+04  0.19900000000E+03 0.  0.
<mgrwt>
<rscale>  0 0.48567752E+03</rscale>
<asrwt>0</asrwt>
<pdfrwt beam="1">  1        2 0.25170203E+00 0.48567752E+03</pdfrwt>
<pdfrwt beam="2">  1       -2 0.47813794E-02 0.48567752E+03</pdfrwt>
<totfact> 0.24079300E+03</totfact>
</mgrwt>
</event>
<event>
 4    1  0.4998754E-005  0.5173778E+03  0.7818608E-02  0.1009340E+00
          2   -1    0    0  501    0  0.00000000000E+00  0.00000000000E+00  0.48369787469E+03  0.48369787470E+03  0.25500000000E-02 0. -1.
         -2   -1    0    0    0  501 -0.00000000000E+00 -0.00000000000E+00 -0.13835072976E+03  0.13835072978E+03  0.25500000000E-02 0.  1.
    5000001    1    1    2    0    0  0.39602455598E+02 -0.15924185471E+03  0.19649725519E+03  0.32425066550E+03  0.19900000000E+03 0.  0.
   -5000001    1    1    2    0    0 -0.39602455598E+02  0.15924185471E+03  0.14884988975E+03  0.29779793898E+03  0.19900000000E+03 0.  0.
<mgrwt>
<rscale>  0 0.51737783E+03</rscale>
<asrwt>0</asrwt>
<pdfrwt beam="1">  1        2 0.69099696E-01 0.51737783E+03</pdfrwt>
<pdfrwt beam="2">  1       -2 0.19764390E-01 0.51737783E+03</pdfrwt>
<totfact> 0.15160501E+03</totfact>
</mgrwt>
</event>
<event>
 4    1  0.4998754E-005  0.5896208E+03  0.7818608E-02  0.9927177E-01
         -2   -1    0    0    0  501 -0.00000000000E+00  0.00000000000E+00  0.23436928815E+03  0.23436928817E+03  0.25500000000E-02 0. -1.
          2   -1    0    0  501    0  0.00000000000E+00 -0.00000000000E+00 -0.37083855942E+03  0.37083855943E+03  0.25500000000E-02 0.  1.
    5000001    1    1    2    0    0  0.72671230020E+02  0.16337890886E+03 -0.19535692393E+03  0.33126892891E+03  0.19900000000E+03 0.  0.
   -5000001    1    1    2    0    0 -0.72671230020E+02 -0.16337890886E+03  0.58887652666E+02  0.27393891868E+03  0.19900000000E+03 0.  0.
<mgrwt>
<rscale>  0 0.58962079E+03</rscale>
<asrwt>0</asrwt>
<pdfrwt beam="1">  1        2 0.52976937E-01 0.58962079E+03</pdfrwt>
<pdfrwt beam="2">  1       -2 0.33481327E-01 0.58962079E+03</pdfrwt>
<totfact> 0.78807772E+02</totfact>
</mgrwt>
</event>
<event>
 4    1  0.4998754E-005  0.4785620E+03  0.7818608E-02  0.1019531E+00
          2   -1    0    0  501    0  0.00000000000E+00  0.00000000000E+00  0.25737845370E+03  0.25737845371E+03  0.25500000000E-02 0.  1.
         -2   -1    0    0    0  501 -0.00000000000E+00 -0.00000000000E+00 -0.22245607967E+03  0.22245607968E+03  0.25500000000E-02 0. -1.
    5000001    1    1    2    0    0  0.54339769845E+02  0.98770674018E+02 -0.53053230143E+02  0.23478522496E+03  0.19900000000E+03 0.  0.
   -5000001    1    1    2    0    0 -0.54339769845E+02 -0.98770674018E+02  0.87975604169E+02  0.24504930843E+03  0.19900000000E+03 0.  0.
<mgrwt>
<rscale>  0 0.47856202E+03</rscale>
<asrwt>0</asrwt>
<pdfrwt beam="1">  1        2 0.36768350E-01 0.47856202E+03</pdfrwt>
<pdfrwt beam="2">  1       -2 0.31779440E-01 0.47856202E+03</pdfrwt>
<totfact> 0.12992641E+03</totfact>
</mgrwt>
</event>
<event>
 4    1  0.4998754E-005  0.6373185E+03  0.7818608E-02  0.9830870E-01
         -2   -1    0    0    0  501 -0.00000000000E+00  0.00000000000E+00  0.15828797404E+03  0.15828797406E+03  0.25500000000E-02 0. -1.
          2   -1    0    0  501    0  0.00000000000E+00 -0.00000000000E+00 -0.64151257079E+03  0.64151257080E+03  0.25500000000E-02 0.  1.
    5000001    1    1    2    0    0  0.11577534747E+02  0.24666869290E+03 -0.28056098461E+03  0.42343234342E+03  0.19900000000E+03 0.  0.
   -5000001    1    1    2    0    0 -0.11577534747E+02 -0.24666869290E+03 -0.20266361215E+03  0.37636820144E+03  0.19900000000E+03 0.  0.
<mgrwt>
<rscale>  0 0.63731852E+03</rscale>
<asrwt>0</asrwt>
<pdfrwt beam="1">  1        2 0.91644652E-01 0.63731852E+03</pdfrwt>
<pdfrwt beam="2">  1       -2 0.22612568E-01 0.63731852E+03</pdfrwt>
<totfact> 0.86228706E+02</totfact>
</mgrwt>
</event>
<event>
 4    1  0.4998754E-005  0.7430644E+03  0.7818608E-02  0.9646294E-01
         -2   -1    0    0    0  501 -0.00000000000E+00  0.00000000000E+00  0.11007106658E+03  0.11007106661E+03  0.25500000000E-02 0. -1.
          2   -1    0    0  501    0  0.00000000000E+00 -0.00000000000E+00 -0.12540640620E+04  0.12540640620E+04  0.25500000000E-02 0.  1.
    5000001    1    1    2    0    0 -0.16857595170E+03 -0.13373829616E+03 -0.99115722224E+03  0.10335847438E+04  0.19900000000E+03 0.  0.
   -5000001    1    1    2    0    0  0.16857595170E+03  0.13373829616E+03 -0.15283577316E+03  0.33055038483E+03  0.19900000000E+03 0.  0.
<mgrwt>
<rscale>  0 0.74306438E+03</rscale>
<asrwt>0</asrwt>
<pdfrwt beam="1">  1        2 0.17915200E+00 0.74306438E+03</pdfrwt>
<pdfrwt beam="2">  1       -2 0.15724439E-01 0.74306438E+03</pdfrwt>
<totfact> 0.64797084E+02</totfact>
</mgrwt>
</event>
<event>
 4    1  0.4998754E-005  0.6463675E+03  0.7818608E-02  0.9813619E-01
         -2   -1    0    0    0  501 -0.00000000000E+00  0.00000000000E+00  0.30365109268E+02  0.30365109375E+02  0.25500000000E-02 0. -1.
          2   -1    0    0  501    0  0.00000000000E+00 -0.00000000000E+00 -0.34397289261E+04  0.34397289261E+04  0.25500000000E-02 0.  1.
    5000001    1    1    2    0    0  0.22716911703E+03 -0.11314745264E+03 -0.15922494709E+04  0.16245822637E+04  0.19900000000E+03 0.  0.
   -5000001    1    1    2    0    0 -0.22716911703E+03  0.11314745264E+03 -0.18171143459E+04  0.18455117718E+04  0.19900000000E+03 0.  0.
<mgrwt>
<rscale>  0 0.64636753E+03</rscale>
<asrwt>0</asrwt>
<pdfrwt beam="1">  1        2 0.49138960E+00 0.64636753E+03</pdfrwt>
<pdfrwt beam="2">  1       -2 0.43378750E-02 0.64636753E+03</pdfrwt>
<totfact> 0.36227158E+02</totfact>
</mgrwt>
</event>
<event>
 4    1  0.4998754E-005  0.5438842E+03  0.7818608E-02  0.1002919E+00
          2   -1    0    0  501    0  0.00000000000E+00  0.00000000000E+00  0.11645544043E+04  0.11645544043E+04  0.25500000000E-02 0.  1.
         -2   -1    0    0    0  501 -0.00000000000E+00 -0.00000000000E+00 -0.63502826853E+02  0.63502826904E+02  0.25500000000E-02 0. -1.
    5000001    1    1    2    0    0 -0.82774596507E+02  0.12865124795E+03  0.78678777535E+03  0.82585639240E+03  0.19900000000E+03 0.  0.
   -5000001    1    1    2    0    0  0.82774596507E+02 -0.12865124795E+03  0.31426380209E+03  0.40220083880E+03  0.19900000000E+03 0.  0.
<mgrwt>
<rscale>  0 0.54388417E+03</rscale>
<asrwt>0</asrwt>
<pdfrwt beam="1">  1        2 0.16636490E+00 0.54388417E+03</pdfrwt>
<pdfrwt beam="2">  1       -2 0.90718333E-02 0.54388417E+03</pdfrwt>
<totfact> 0.18126433E+03</totfact>
</mgrwt>
</event>
<event>
 4    1  0.4998754E-005  0.4749865E+03  0.7818608E-02  0.1020522E+00
         -2   -1    0    0    0  501 -0.00000000000E+00  0.00000000000E+00  0.42508883782E+03  0.42508883783E+03  0.25500000000E-02 0. -1.
          2   -1    0    0  501    0  0.00000000000E+00 -0.00000000000E+00 -0.13268532567E+03  0.13268532570E+03  0.25500000000E-02 0.  1.
    5000001    1    1    2    0    0 -0.40457227698E+02 -0.10425914108E+03  0.69240241768E+02  0.23854133154E+03  0.19900000000E+03 0.  0.
   -5000001    1    1    2    0    0  0.40457227698E+02  0.10425914108E+03  0.22316327038E+03  0.31923283199E+03  0.19900000000E+03 0.  0.
<mgrwt>
<rscale>  0 0.47498653E+03</rscale>
<asrwt>0</asrwt>
<pdfrwt beam="1">  1        2 0.18955047E-01 0.47498653E+03</pdfrwt>
<pdfrwt beam="2">  1       -2 0.60726977E-01 0.47498653E+03</pdfrwt>
<totfact> 0.76792261E+02</totfact>
</mgrwt>
</event>
<event>
 4    1  0.4998754E-005  0.7664603E+03  0.7818608E-02  0.9609875E-01
         -2   -1    0    0    0  501 -0.00000000000E+00  0.00000000000E+00  0.58582436707E+02  0.58582436763E+02  0.25500000000E-02 0. -1.
          2   -1    0    0  501    0  0.00000000000E+00 -0.00000000000E+00 -0.25069861956E+04  0.25069861956E+04  0.25500000000E-02 0.  1.
    5000001    1    1    2    0    0  0.17305010752E+03  0.19855969213E+03 -0.57262132536E+03  0.66096026606E+03  0.19900000000E+03 0.  0.
   -5000001    1    1    2    0    0 -0.17305010752E+03 -0.19855969213E+03 -0.18757824336E+04  0.19046083663E+04  0.19900000000E+03 0.  0.
<mgrwt>
<rscale>  0 0.76646033E+03</rscale>
<asrwt>0</asrwt>
<pdfrwt beam="1">  1        2 0.35814082E+00 0.76646033E+03</pdfrwt>
<pdfrwt beam="2">  1       -2 0.83689211E-02 0.76646033E+03</pdfrwt>
<totfact> 0.41265398E+02</totfact>
</mgrwt>
</event>
<event>
 4    1  0.4998754E-005  0.4695885E+03  0.7818608E-02  0.1022036E+00
         -2   -1    0    0    0  501 -0.00000000000E+00  0.00000000000E+00  0.44625739480E+02  0.44625739553E+02  0.25500000000E-02 0.  1.
          2   -1    0    0  501    0  0.00000000000E+00 -0.00000000000E+00 -0.12353482948E+04  0.12353482948E+04  0.25500000000E-02 0. -1.
    5000001    1    1    2    0    0 -0.98357940280E+02 -0.37285822851E+02 -0.41327041860E+03  0.47059319576E+03  0.19900000000E+03 0.  0.
   -5000001    1    1    2    0    0  0.98357940280E+02  0.37285822851E+02 -0.77745213672E+03  0.80938083860E+03  0.19900000000E+03 0.  0.
<mgrwt>
<rscale>  0 0.46958846E+03</rscale>
<asrwt>0</asrwt>
<pdfrwt beam="1">  1        2 0.17647831E+00 0.46958846E+03</pdfrwt>
<pdfrwt beam="2">  1       -2 0.63751064E-02 0.46958846E+03</pdfrwt>
<totfact> 0.28953121E+03</totfact>
</mgrwt>
</event>
<event>
 4    1  0.4998754E-005  0.5105297E+03  0.7818608E-02  0.1011066E+00
         -2   -1    0    0    0  501 -0.00000000000E+00  0.00000000000E+00  0.67473461933E+02  0.67473461981E+02  0.25500000000E-02 0. -1.
          2   -1    0    0  501    0  0.00000000000E+00 -0.00000000000E+00 -0.96571507423E+03  0.96571507423E+03  0.25500000000E-02 0.  1.
    5000001    1    1    2    0    0  0.91373741862E+02 -0.71724234734E+02 -0.67141763771E+03  0.70985644378E+03  0.19900000000E+03 0.  0.
   -5000001    1    1    2    0    0 -0.91373741862E+02  0.71724234734E+02 -0.22682397459E+03  0.32333209243E+03  0.19900000000E+03 0.  0.
<mgrwt>
<rscale>  0 0.51052968E+03</rscale>
<asrwt>0</asrwt>
<pdfrwt beam="1">  1        2 0.13795929E+00 0.51052968E+03</pdfrwt>
<pdfrwt beam="2">  1       -2 0.96390666E-02 0.51052968E+03</pdfrwt>
<totfact> 0.21538186E+03</totfact>
</mgrwt>
</event>
<event>
 4    1  0.4998754E-005  0.7800275E+03  0.7818608E-02  0.9589385E-01
          2   -1    0    0  501    0  0.00000000000E+00  0.00000000000E+00  0.31137147610E+03  0.31137147611E+03  0.25500000000E-02 0.  1.
         -2   -1    0    0    0  501 -0.00000000000E+00 -0.00000000000E+00 -0.48851854670E+03  0.48851854670E+03  0.25500000000E-02 0. -1.
    5000001    1    1    2    0    0 -0.27037536409E+03 -0.67580422586E+02  0.10283359287E+03  0.35755516895E+03  0.19900000000E+03 0.  0.
   -5000001    1    1    2    0    0  0.27037536409E+03  0.67580422586E+02 -0.27998066347E+03  0.44233485386E+03  0.19900000000E+03 0.  0.
<mgrwt>
<rscale>  0 0.78002754E+03</rscale>
<asrwt>0</asrwt>
<pdfrwt beam="1">  1        2 0.44481639E-01 0.78002754E+03</pdfrwt>
<pdfrwt beam="2">  1       -2 0.69788364E-01 0.78002754E+03</pdfrwt>
<totfact> 0.21577354E+02</totfact>
</mgrwt>
</event>
<event>
 4    1  0.4998754E-005  0.5633856E+03  0.7818608E-02  0.9984423E-01
          2   -1    0    0  501    0  0.00000000000E+00  0.00000000000E+00  0.12014701800E+04  0.12014701801E+04  0.25500000000E-02 0.  1.
         -2   -1    0    0    0  501 -0.00000000000E+00 -0.00000000000E+00 -0.66044780214E+02  0.66044780263E+02  0.25500000000E-02 0. -1.
    5000001    1    1    2    0    0  0.14636876173E+03  0.11673757196E+03  0.41349989217E+03  0.49561541132E+03  0.19900000000E+03 0.  0.
   -5000001    1    1    2    0    0 -0.14636876173E+03 -0.11673757196E+03  0.72192550767E+03  0.77189954899E+03  0.19900000000E+03 0.  0.
<mgrwt>
<rscale>  0 0.56338560E+03</rscale>
<asrwt>0</asrwt>
<pdfrwt beam="1">  1        2 0.17163859E+00 0.56338560E+03</pdfrwt>
<pdfrwt beam="2">  1       -2 0.94349692E-02 0.56338560E+03</pdfrwt>
<totfact> 0.16217831E+03</totfact>
</mgrwt>
</event>
<event>
 4    1  0.4998754E-005  0.1150755E+04  0.7818608E-02  0.9157087E-01
         -2   -1    0    0    0  501 -0.00000000000E+00  0.00000000000E+00  0.15138953311E+03  0.15138953313E+03  0.25500000000E-02 0. -1.
          2   -1    0    0  501    0  0.00000000000E+00 -0.00000000000E+00 -0.21868059480E+04  0.21868059480E+04  0.25500000000E-02 0.  1.
    5000001    1    1    2    0    0 -0.32716261731E+03 -0.30894066391E+03 -0.41161266087E+03  0.64148709618E+03  0.19900000000E+03 0.  0.
   -5000001    1    1    2    0    0  0.32716261731E+03  0.30894066391E+03 -0.16238037540E+04  0.16967083850E+04  0.19900000000E+03 0.  0.
<mgrwt>
<rscale>  0 0.11507555E+04</rscale>
<asrwt>0</asrwt>
<pdfrwt beam="1">  1        2 0.31240083E+00 0.11507555E+04</pdfrwt>
<pdfrwt beam="2">  1       -2 0.21627077E-01 0.11507555E+04</pdfrwt>
<totfact> 0.11861889E+02</totfact>
</mgrwt>
</event>
<event>
 4    1  0.4998754E-005  0.4890708E+03  0.7818608E-02  0.1016672E+00
          2   -1    0    0  501    0  0.00000000000E+00  0.00000000000E+00  0.14979953675E+04  0.14979953675E+04  0.25500000000E-02 0.  1.
         -2   -1    0    0    0  501 -0.00000000000E+00 -0.00000000000E+00 -0.39918392914E+02  0.39918392995E+02  0.25500000000E-02 0. -1.
    5000001    1    1    2    0    0  0.19387464438E+02  0.13486460870E+03  0.60199538969E+03  0.64850889405E+03  0.19900000000E+03 0.  0.
   -5000001    1    1    2    0    0 -0.19387464438E+02 -0.13486460870E+03  0.85608158486E+03  0.88940486641E+03  0.19900000000E+03 0.  0.
<mgrwt>
<rscale>  0 0.48907082E+03</rscale>
<asrwt>0</asrwt>
<pdfrwt beam="1">  1        2 0.21399933E+00 0.48907082E+03</pdfrwt>
<pdfrwt beam="2">  1       -2 0.57026277E-02 0.48907082E+03</pdfrwt>
<totfact> 0.24974185E+03</totfact>
</mgrwt>
</event>
<event>
 4    1  0.4998754E-005  0.5281430E+03  0.7818608E-02  0.1006683E+00
         -2   -1    0    0    0  501 -0.00000000000E+00  0.00000000000E+00  0.12319002702E+03  0.12319002705E+03  0.25500000000E-02 0. -1.
          2   -1    0    0  501    0  0.00000000000E+00 -0.00000000000E+00 -0.56606656477E+03  0.56606656477E+03  0.25500000000E-02 0.  1.
    5000001    1    1    2    0    0  0.13399535299E+01 -0.14233042441E+03 -0.91763883234E+02  0.26130701379E+03  0.19900000000E+03 0.  0.
   -5000001    1    1    2    0    0 -0.13399535299E+01  0.14233042441E+03 -0.35111265451E+03  0.42794957804E+03  0.19900000000E+03 0.  0.
<mgrwt>
<rscale>  0 0.52814299E+03</rscale>
<asrwt>0</asrwt>
<pdfrwt beam="1">  1        2 0.80866651E-01 0.52814299E+03</pdfrwt>
<pdfrwt beam="2">  1       -2 0.17598576E-01 0.52814299E+03</pdfrwt>
<totfact> 0.15470800E+03</totfact>
</mgrwt>
</event>
<event>
 4    1  0.4998754E-005  0.4678965E+03  0.7818608E-02  0.1022516E+00
         -2   -1    0    0    0  501 -0.00000000000E+00  0.00000000000E+00  0.37350210064E+02  0.37350210151E+02  0.25500000000E-02 0. -1.
          2   -1    0    0  501    0  0.00000000000E+00 -0.00000000000E+00 -0.14653676500E+04  0.14653676500E+04  0.25500000000E-02 0.  1.
    5000001    1    1    2    0    0  0.62809559091E+02 -0.98699435561E+02 -0.59195898639E+03  0.63537631437E+03  0.19900000000E+03 0.  0.
   -5000001    1    1    2    0    0 -0.62809559091E+02  0.98699435561E+02 -0.83605845350E+03  0.86734154574E+03  0.19900000000E+03 0.  0.
<mgrwt>
<rscale>  0 0.46789653E+03</rscale>
<asrwt>0</asrwt>
<pdfrwt beam="1">  1        2 0.20933820E+00 0.46789653E+03</pdfrwt>
<pdfrwt beam="2">  1       -2 0.53357452E-02 0.46789653E+03</pdfrwt>
<totfact> 0.28795053E+03</totfact>
</mgrwt>
</event>
<event>
 4    1  0.4998754E-005  0.5436820E+03  0.7818608E-02  0.1002967E+00
         -2   -1    0    0    0  501 -0.00000000000E+00  0.00000000000E+00  0.68056947486E+02  0.68056947533E+02  0.25500000000E-02 0. -1.
          2   -1    0    0  501    0  0.00000000000E+00 -0.00000000000E+00 -0.10858190799E+04  0.10858190799E+04  0.25500000000E-02 0.  1.
    5000001    1    1    2    0    0 -0.12213111234E+03 -0.13803682022E+03 -0.54722198430E+03  0.61075614810E+03  0.19900000000E+03 0.  0.
   -5000001    1    1    2    0    0  0.12213111234E+03  0.13803682022E+03 -0.47054014809E+03  0.54311987931E+03  0.19900000000E+03 0.  0.
<mgrwt>
<rscale>  0 0.54368201E+03</rscale>
<asrwt>0</asrwt>
<pdfrwt beam="1">  1        2 0.15511700E+00 0.54368201E+03</pdfrwt>
<pdfrwt beam="2">  1       -2 0.97224217E-02 0.54368201E+03</pdfrwt>
<totfact> 0.17992425E+03</totfact>
</mgrwt>
</event>
<event>
 4    1  0.4998754E-005  0.1148568E+04  0.7818608E-02  0.9159105E-01
          2   -1    0    0  501    0  0.00000000000E+00  0.00000000000E+00  0.23242836241E+04  0.23242836241E+04  0.25500000000E-02 0.  1.
         -2   -1    0    0    0  501 -0.00000000000E+00 -0.00000000000E+00 -0.14189419769E+03  0.14189419771E+03  0.25500000000E-02 0. -1.
    5000001    1    1    2    0    0 -0.10269705219E+03 -0.52019650386E+03  0.12954617789E+04  0.14138505252E+04  0.19900000000E+03 0.  0.
   -5000001    1    1    2    0    0  0.10269705219E+03  0.52019650386E+03  0.88692764751E+03  0.10523272966E+04  0.19900000000E+03 0.  0.
<mgrwt>
<rscale>  0 0.11485684E+04</rscale>
<asrwt>0</asrwt>
<pdfrwt beam="1">  1        2 0.33204052E+00 0.11485684E+04</pdfrwt>
<pdfrwt beam="2">  1       -2 0.20270600E-01 0.11485684E+04</pdfrwt>
<totfact> 0.11303487E+02</totfact>
</mgrwt>
</event>
<event>
 4    1  0.4998754E-005  0.5075931E+03  0.7818608E-02  0.1011816E+00
          2   -1    0    0  501    0  0.00000000000E+00  0.00000000000E+00  0.59021313809E+03  0.59021313810E+03  0.25500000000E-02 0.  1.
         -2   -1    0    0    0  501 -0.00000000000E+00 -0.00000000000E+00 -0.10913460965E+03  0.10913460968E+03  0.25500000000E-02 0. -1.
    5000001    1    1    2    0    0  0.67489140047E+02 -0.13582879441E+03  0.29911379882E+03  0.38996706279E+03  0.19900000000E+03 0.  0.
   -5000001    1    1    2    0    0 -0.67489140047E+02  0.13582879441E+03  0.18196472962E+03  0.30938068499E+03  0.19900000000E+03 0.  0.
<mgrwt>
<rscale>  0 0.50759307E+03</rscale>
<asrwt>0</asrwt>
<pdfrwt beam="1">  1        2 0.84316162E-01 0.50759307E+03</pdfrwt>
<pdfrwt beam="2">  1       -2 0.15590659E-01 0.50759307E+03</pdfrwt>
<totfact> 0.18099749E+03</totfact>
</mgrwt>
</event>
<event>
 4    1  0.4998754E-005  0.7902176E+03  0.7818608E-02  0.9574286E-01
         -2   -1    0    0    0  501 -0.00000000000E+00  0.00000000000E+00  0.54264821911E+02  0.54264821971E+02  0.25500000000E-02 0. -1.
          2   -1    0    0  501    0  0.00000000000E+00 -0.00000000000E+00 -0.28768356839E+04  0.28768356839E+04  0.25500000000E-02 0.  1.
    5000001    1    1    2    0    0  0.13601178466E+03  0.16844153532E+03 -0.23901166789E+04  0.24081383879E+04  0.19900000000E+03 0.  0.
   -5000001    1    1    2    0    0 -0.13601178466E+03 -0.16844153532E+03 -0.43245418306E+03  0.52296211797E+03  0.19900000000E+03 0.  0.
<mgrwt>
<rscale>  0 0.79021763E+03</rscale>
<asrwt>0</asrwt>
<pdfrwt beam="1">  1        2 0.41097643E+00 0.79021763E+03</pdfrwt>
<pdfrwt beam="2">  1       -2 0.77521192E-02 0.79021763E+03</pdfrwt>
<totfact> 0.29712313E+02</totfact>
</mgrwt>
</event>
<event>
 4    1  0.4998754E-005  0.6422567E+03  0.7818608E-02  0.9821418E-01
         -2   -1    0    0    0  501 -0.00000000000E+00  0.00000000000E+00  0.36619981551E+03  0.36619981552E+03  0.25500000000E-02 0. -1.
          2   -1    0    0  501    0  0.00000000000E+00 -0.00000000000E+00 -0.28160425587E+03  0.28160425588E+03  0.25500000000E-02 0.  1.
    5000001    1    1    2    0    0  0.23532405546E+03 -0.90240315827E+02  0.40982340170E+02  0.32373025482E+03  0.19900000000E+03 0.  0.
   -5000001    1    1    2    0    0 -0.23532405546E+03  0.90240315827E+02  0.43613219470E+02  0.32407381658E+03  0.19900000000E+03 0.  0.
<mgrwt>
<rscale>  0 0.64225673E+03</rscale>
<asrwt>0</asrwt>
<pdfrwt beam="1">  1        2 0.40229179E-01 0.64225673E+03</pdfrwt>
<pdfrwt beam="2">  1       -2 0.52314259E-01 0.64225673E+03</pdfrwt>
<totfact> 0.44505339E+02</totfact>
</mgrwt>
</event>
<event>
 4    1  0.4998754E-005  0.8023805E+03  0.7818608E-02  0.9556578E-01
         -2   -1    0    0    0  501 -0.00000000000E+00  0.00000000000E+00  0.64294933355E+03  0.64294933355E+03  0.25500000000E-02 0. -1.
          2   -1    0    0  501    0  0.00000000000E+00 -0.00000000000E+00 -0.25033636411E+03  0.25033636413E+03  0.25500000000E-02 0.  1.
    5000001    1    1    2    0    0  0.13418361061E+03  0.29713893599E+03  0.33291007065E+03  0.50668225129E+03  0.19900000000E+03 0.  0.
   -5000001    1    1    2    0    0 -0.13418361061E+03 -0.29713893599E+03  0.59702898789E+02  0.38660344639E+03  0.19900000000E+03 0.  0.
<mgrwt>
<rscale>  0 0.80238045E+03</rscale>
<asrwt>0</asrwt>
<pdfrwt beam="1">  1        2 0.35762338E-01 0.80238045E+03</pdfrwt>
<pdfrwt beam="2">  1       -2 0.91849904E-01 0.80238045E+03</pdfrwt>
<totfact> 0.14825019E+02</totfact>
</mgrwt>
</event>
<event>
 4    1  0.4998754E-005  0.5904532E+03  0.7818608E-02  0.9925413E-01
         -2   -1    0    0    0  501 -0.00000000000E+00  0.00000000000E+00  0.41423875989E+03  0.41423875990E+03  0.25500000000E-02 0. -1.
          2   -1    0    0  501    0  0.00000000000E+00 -0.00000000000E+00 -0.21040705208E+03  0.21040705210E+03  0.25500000000E-02 0.  1.
    5000001    1    1    2    0    0 -0.10818498812E+03  0.17918683785E+03  0.16666335944E+03  0.33345103073E+03  0.19900000000E+03 0.  0.
   -5000001    1    1    2    0    0  0.10818498812E+03 -0.17918683785E+03  0.37168348365E+02  0.29119478126E+03  0.19900000000E+03 0.  0.
<mgrwt>
<rscale>  0 0.59045324E+03</rscale>
<asrwt>0</asrwt>
<pdfrwt beam="1">  1        2 0.30058151E-01 0.59045324E+03</pdfrwt>
<pdfrwt beam="2">  1       -2 0.59176964E-01 0.59045324E+03</pdfrwt>
<totfact> 0.47755921E+02</totfact>
</mgrwt>
</event>
<event>
 4    1  0.4998754E-005  0.7957700E+03  0.7818608E-02  0.9566160E-01
         -2   -1    0    0    0  501 -0.00000000000E+00  0.00000000000E+00  0.14481958750E+03  0.14481958752E+03  0.25500000000E-02 0. -1.
          2   -1    0    0  501    0  0.00000000000E+00 -0.00000000000E+00 -0.10931703746E+04  0.10931703746E+04  0.25500000000E-02 0.  1.
    5000001    1    1    2    0    0  0.26987278088E+03  0.17224728467E+03 -0.67225280738E+03  0.77073035620E+03  0.19900000000E+03 0.  0.
   -5000001    1    1    2    0    0 -0.26987278088E+03 -0.17224728467E+03 -0.27609797976E+03  0.46725960596E+03  0.19900000000E+03 0.  0.
<mgrwt>
<rscale>  0 0.79577002E+03</rscale>
<asrwt>0</asrwt>
<pdfrwt beam="1">  1        2 0.15616719E+00 0.79577002E+03</pdfrwt>
<pdfrwt beam="2">  1       -2 0.20688513E-01 0.79577002E+03</pdfrwt>
<totfact> 0.49731494E+02</totfact>
</mgrwt>
</event>
<event>
 4    1  0.4998754E-005  0.5514217E+03  0.7818608E-02  0.1001165E+00
          2   -1    0    0  501    0  0.00000000000E+00  0.00000000000E+00  0.18602796451E+04  0.18602796451E+04  0.25500000000E-02 0.  1.
         -2   -1    0    0    0  501 -0.00000000000E+00 -0.00000000000E+00 -0.40862928928E+02  0.40862929007E+02  0.25500000000E-02 0. -1.
    5000001    1    1    2    0    0 -0.13446240755E+03 -0.11768481843E+03  0.11406179865E+04  0.11715546281E+04  0.19900000000E+03 0.  0.
   -5000001    1    1    2    0    0  0.13446240755E+03  0.11768481843E+03  0.67879872967E+03  0.72958794599E+03  0.19900000000E+03 0.  0.
<mgrwt>
<rscale>  0 0.55142171E+03</rscale>
<asrwt>0</asrwt>
<pdfrwt beam="1">  1        2 0.26575427E+00 0.55142171E+03</pdfrwt>
<pdfrwt beam="2">  1       -2 0.58375605E-02 0.55142171E+03</pdfrwt>
<totfact> 0.15733782E+03</totfact>
</mgrwt>
</event>
<event>
 4    1  0.4998754E-005  0.5071592E+03  0.7818608E-02  0.1011927E+00
          2   -1    0    0  501    0  0.00000000000E+00  0.00000000000E+00  0.26762941135E+04  0.26762941135E+04  0.25500000000E-02 0.  1.
         -2   -1    0    0    0  501 -0.00000000000E+00 -0.00000000000E+00 -0.24026735581E+02  0.24026735717E+02  0.25500000000E-02 0. -1.
    5000001    1    1    2    0    0 -0.43306399403E+02  0.10087676386E+03  0.72728498669E+03  0.76196851482E+03  0.19900000000E+03 0.  0.
   -5000001    1    1    2    0    0  0.43306399403E+02 -0.10087676386E+03  0.19249823912E+04  0.19383523344E+04  0.19900000000E+03 0.  0.
<mgrwt>
<rscale>  0 0.50715919E+03</rscale>
<asrwt>0</asrwt>
<pdfrwt beam="1">  1        2 0.38232765E+00 0.50715919E+03</pdfrwt>
<pdfrwt beam="2">  1       -2 0.34323915E-02 0.50715919E+03</pdfrwt>
<totfact> 0.13820419E+03</totfact>
</mgrwt>
</event>
<event>
 4    1  0.4998754E-005  0.6697832E+03  0.7818608E-02  0.9770350E-01
          2   -1    0    0  501    0  0.00000000000E+00  0.00000000000E+00  0.25144779989E+04  0.25144779989E+04  0.25500000000E-02 0.  1.
         -2   -1    0    0    0  501 -0.00000000000E+00 -0.00000000000E+00 -0.44602644040E+02  0.44602644113E+02  0.25500000000E-02 0. -1.
    5000001    1    1    2    0    0 -0.40719982632E+02 -0.17947725443E+03  0.48348864643E+03  0.55428555192E+03  0.19900000000E+03 0.  0.
   -5000001    1    1    2    0    0  0.40719982632E+02  0.17947725443E+03  0.19863867084E+04  0.20047950911E+04  0.19900000000E+03 0.  0.
<mgrwt>
<rscale>  0 0.66978315E+03</rscale>
<asrwt>0</asrwt>
<pdfrwt beam="1">  1        2 0.35921115E+00 0.66978315E+03</pdfrwt>
<pdfrwt beam="2">  1       -2 0.63718062E-02 0.66978315E+03</pdfrwt>
<totfact> 0.63580585E+02</totfact>
</mgrwt>
</event>
<event>
 4    1  0.4998754E-005  0.5617736E+03  0.7818608E-02  0.9988050E-01
         -2   -1    0    0    0  501 -0.00000000000E+00  0.00000000000E+00  0.20394901808E+02  0.20394901967E+02  0.25500000000E-02 0. -1.
          2   -1    0    0  501    0  0.00000000000E+00 -0.00000000000E+00 -0.38684854704E+04  0.38684854704E+04  0.25500000000E-02 0.  1.
    5000001    1    1    2    0    0 -0.26768587471E+02 -0.18128970284E+03 -0.14007722026E+04  0.14266556267E+04  0.19900000000E+03 0.  0.
   -5000001    1    1    2    0    0  0.26768587471E+02  0.18128970284E+03 -0.24473183660E+04  0.24622247457E+04  0.19900000000E+03 0.  0.
<mgrwt>
<rscale>  0 0.56177355E+03</rscale>
<asrwt>0</asrwt>
<pdfrwt beam="1">  1        2 0.55264031E+00 0.56177355E+03</pdfrwt>
<pdfrwt beam="2">  1       -2 0.29135599E-02 0.56177355E+03</pdfrwt>
<totfact> 0.36701113E+02</totfact>
</mgrwt>
</event>
<event>
 4    1  0.4998754E-005  0.4485748E+03  0.7818608E-02  0.1028148E+00
         -2   -1    0    0    0  501 -0.00000000000E+00  0.00000000000E+00  0.20433770592E+02  0.20433770751E+02  0.25500000000E-02 0. -1.
          2   -1    0    0  501    0  0.00000000000E+00 -0.00000000000E+00 -0.24618481455E+04  0.24618481455E+04  0.25500000000E-02 0.  1.
    5000001    1    1    2    0    0 -0.29618254005E+02 -0.44562848098E+02 -0.73070831625E+03  0.75920928066E+03  0.19900000000E+03 0.  0.
   -5000001    1    1    2    0    0  0.29618254005E+02  0.44562848098E+02 -0.17107060587E+04  0.17230726356E+04  0.19900000000E+03 0.  0.
<mgrwt>
<rscale>  0 0.44857481E+03</rscale>
<asrwt>0</asrwt>
<pdfrwt beam="1">  1        2 0.35169240E+00 0.44857481E+03</pdfrwt>
<pdfrwt beam="2">  1       -2 0.29191117E-02 0.44857481E+03</pdfrwt>
<totfact> 0.22839948E+03</totfact>
</mgrwt>
</event>
<event>
 4    1  0.4998754E-005  0.5926727E+03  0.7818608E-02  0.9920726E-01
         -2   -1    0    0    0  501 -0.00000000000E+00  0.00000000000E+00  0.10918511232E+03  0.10918511235E+03  0.25500000000E-02 0. -1.
          2   -1    0    0  501    0  0.00000000000E+00 -0.00000000000E+00 -0.80427837254E+03  0.80427837254E+03  0.25500000000E-02 0.  1.
    5000001    1    1    2    0    0 -0.18862203177E+03 -0.24913018770E+02 -0.17860234382E+03  0.32817484149E+03  0.19900000000E+03 0.  0.
   -5000001    1    1    2    0    0  0.18862203177E+03  0.24913018770E+02 -0.51649091640E+03  0.58528864340E+03  0.19900000000E+03 0.  0.
<mgrwt>
<rscale>  0 0.59267267E+03</rscale>
<asrwt>0</asrwt>
<pdfrwt beam="1">  1        2 0.11489691E+00 0.59267267E+03</pdfrwt>
<pdfrwt beam="2">  1       -2 0.15597874E-01 0.59267267E+03</pdfrwt>
<totfact> 0.12404001E+03</totfact>
</mgrwt>
</event>
<event>
 4    1  0.4998754E-005  0.4607043E+03  0.7818608E-02  0.1024577E+00
          2   -1    0    0  501    0  0.00000000000E+00  0.00000000000E+00  0.39978913815E+03  0.39978913816E+03  0.25500000000E-02 0.  1.
         -2   -1    0    0    0  501 -0.00000000000E+00 -0.00000000000E+00 -0.13272524212E+03  0.13272524214E+03  0.25500000000E-02 0. -1.
    5000001    1    1    2    0    0  0.16880903090E+02 -0.11475762969E+03  0.13655310709E+03  0.26777234644E+03  0.19900000000E+03 0.  0.
   -5000001    1    1    2    0    0 -0.16880903090E+02  0.11475762969E+03  0.13051078894E+03  0.26474203386E+03  0.19900000000E+03 0.  0.
<mgrwt>
<rscale>  0 0.46070429E+03</rscale>
<asrwt>0</asrwt>
<pdfrwt beam="1">  1        2 0.57112734E-01 0.46070429E+03</pdfrwt>
<pdfrwt beam="2">  1       -2 0.18960749E-01 0.46070429E+03</pdfrwt>
<totfact> 0.20122311E+03</totfact>
</mgrwt>
</event>
<event>
 4    1  0.4998754E-005  0.4807821E+03  0.7818608E-02  0.1018920E+00
          2   -1    0    0  501    0  0.00000000000E+00  0.00000000000E+00  0.41811425911E+02  0.41811425989E+02  0.25500000000E-02 0.  1.
         -2   -1    0    0    0  501 -0.00000000000E+00 -0.00000000000E+00 -0.13821070351E+04  0.13821070351E+04  0.25500000000E-02 0. -1.
    5000001    1    1    2    0    0 -0.90540613199E+02  0.92843322723E+02 -0.77974486471E+03  0.81511995391E+03  0.19900000000E+03 0.  0.
   -5000001    1    1    2    0    0  0.90540613199E+02 -0.92843322723E+02 -0.56055074444E+03  0.60879850715E+03  0.19900000000E+03 0.  0.
<mgrwt>
<rscale>  0 0.48078214E+03</rscale>
<asrwt>0</asrwt>
<pdfrwt beam="1">  1        2 0.59730617E-02 0.48078214E+03</pdfrwt>
<pdfrwt beam="2">  1       -2 0.19744384E+00 0.48078214E+03</pdfrwt>
<totfact> 0.18510164E+02</totfact>
</mgrwt>
</event>
<event>
 4    1  0.4998754E-005  0.1042288E+04  0.7818608E-02  0.9263342E-01
          2   -1    0    0  501    0  0.00000000000E+00  0.00000000000E+00  0.12912810148E+04  0.12912810148E+04  0.25500000000E-02 0.  1.
         -2   -1    0    0    0  501 -0.00000000000E+00 -0.00000000000E+00 -0.21032689416E+03  0.21032689418E+03  0.25500000000E-02 0. -1.
    5000001    1    1    2    0    0  0.28174709686E+03 -0.26270245672E+03  0.12393216251E+03  0.45094809929E+03  0.19900000000E+03 0.  0.
   -5000001    1    1    2    0    0 -0.28174709686E+03  0.26270245672E+03  0.95702195817E+03  0.10506598097E+04  0.19900000000E+03 0.  0.
<mgrwt>
<rscale>  0 0.10422881E+04</rscale>
<asrwt>0</asrwt>
<pdfrwt beam="1">  1        2 0.18446872E+00 0.10422881E+04</pdfrwt>
<pdfrwt beam="2">  1       -2 0.30046699E-01 0.10422881E+04</pdfrwt>
<totfact> 0.19288695E+02</totfact>
</mgrwt>
</event>
<event>
 4    1  0.4998754E-005  0.5949347E+03  0.7818608E-02  0.9915971E-01
          2   -1    0    0  501    0  0.00000000000E+00  0.00000000000E+00  0.78963253175E+03  0.78963253175E+03  0.25500000000E-02 0.  1.
         -2   -1    0    0    0  501 -0.00000000000E+00 -0.00000000000E+00 -0.11206075396E+03  0.11206075399E+03  0.25500000000E-02 0. -1.
    5000001    1    1    2    0    0  0.22054251527E+03 -0.15699416346E+02  0.33967502490E+03  0.45151477856E+03  0.19900000000E+03 0.  0.
   -5000001    1    1    2    0    0 -0.22054251527E+03  0.15699416346E+02  0.33789675289E+03  0.45017850718E+03  0.19900000000E+03 0.  0.
<mgrwt>
<rscale>  0 0.59493467E+03</rscale>
<asrwt>0</asrwt>
<pdfrwt beam="1">  1        2 0.11280464E+00 0.59493467E+03</pdfrwt>
<pdfrwt beam="2">  1       -2 0.16008680E-01 0.59493467E+03</pdfrwt>
<totfact> 0.12151176E+03</totfact>
</mgrwt>
</event>
<event>
 4    1  0.4998754E-005  0.7004797E+03  0.7818608E-02  0.9716412E-01
         -2   -1    0    0    0  501 -0.00000000000E+00  0.00000000000E+00  0.16635565680E+03  0.16635565682E+03  0.25500000000E-02 0. -1.
          2   -1    0    0  501    0  0.00000000000E+00 -0.00000000000E+00 -0.73738364455E+03  0.73738364456E+03  0.25500000000E-02 0.  1.
    5000001    1    1    2    0    0  0.91572071291E+02  0.27241415099E+03 -0.31354449618E+03  0.46958073319E+03  0.19900000000E+03 0.  0.
   -5000001    1    1    2    0    0 -0.91572071291E+02 -0.27241415099E+03 -0.25748349157E+03  0.43415856819E+03  0.19900000000E+03 0.  0.
<mgrwt>
<rscale>  0 0.70047967E+03</rscale>
<asrwt>0</asrwt>
<pdfrwt beam="1">  1        2 0.10534052E+00 0.70047967E+03</pdfrwt>
<pdfrwt beam="2">  1       -2 0.23765094E-01 0.70047967E+03</pdfrwt>
<totfact> 0.66472280E+02</totfact>
</mgrwt>
</event>
<event>
 4    1  0.4998754E-005  0.4376993E+03  0.7818608E-02  0.1031455E+00
          2   -1    0    0  501    0  0.00000000000E+00  0.00000000000E+00  0.26333810246E+03  0.26333810247E+03  0.25500000000E-02 0. -1.
         -2   -1    0    0    0  501 -0.00000000000E+00 -0.00000000000E+00 -0.18187707266E+03  0.18187707268E+03  0.25500000000E-02 0.  1.
    5000001    1    1    2    0    0 -0.85040100220E+00  0.85612379481E+02  0.91496693670E+01  0.21682923961E+03  0.19900000000E+03 0.  0.
   -5000001    1    1    2    0    0  0.85040100220E+00 -0.85612379481E+02  0.72311360438E+02  0.22838593554E+03  0.19900000000E+03 0.  0.
<mgrwt>
<rscale>  0 0.43769927E+03</rscale>
<asrwt>0</asrwt>
<pdfrwt beam="1">  1        2 0.37619729E-01 0.43769927E+03</pdfrwt>
<pdfrwt beam="2">  1       -2 0.25982439E-01 0.43769927E+03</pdfrwt>
<totfact> 0.18282737E+03</totfact>
</mgrwt>
</event>
<event>
 4    1  0.4998754E-005  0.4745174E+03  0.7818608E-02  0.1020653E+00
         -2   -1    0    0    0  501 -0.00000000000E+00  0.00000000000E+00  0.26629352300E+03  0.26629352302E+03  0.25500000000E-02 0. -1.
          2   -1    0    0  501    0  0.00000000000E+00 -0.00000000000E+00 -0.21138967578E+03  0.21138967580E+03  0.25500000000E-02 0.  1.
    5000001    1    1    2    0    0  0.11868031135E+01 -0.11740870617E+03  0.81704782577E+02  0.24507730267E+03  0.19900000000E+03 0.  0.
   -5000001    1    1    2    0    0 -0.11868031135E+01  0.11740870617E+03 -0.26800935355E+02  0.23260589615E+03  0.19900000000E+03 0.  0.
<mgrwt>
<rscale>  0 0.47451745E+03</rscale>
<asrwt>0</asrwt>
<pdfrwt beam="1">  1        2 0.30198525E-01 0.47451745E+03</pdfrwt>
<pdfrwt beam="2">  1       -2 0.38041932E-01 0.47451745E+03</pdfrwt>
<totfact> 0.11514488E+03</totfact>
</mgrwt>
</event>
<event>
 4    1  0.4998754E-005  0.7059047E+03  0.7818608E-02  0.9707187E-01
          2   -1    0    0  501    0  0.00000000000E+00  0.00000000000E+00  0.70605576033E+03  0.70605576033E+03  0.25500000000E-02 0.  1.
         -2   -1    0    0    0  501 -0.00000000000E+00 -0.00000000000E+00 -0.17643842441E+03  0.17643842443E+03  0.25500000000E-02 0. -1.
    5000001    1    1    2    0    0 -0.26586844240E+03  0.55829136321E+02  0.13267288496E+03  0.36194753146E+03  0.19900000000E+03 0.  0.
   -5000001    1    1    2    0    0  0.26586844240E+03 -0.55829136321E+02  0.39694445096E+03  0.52054665331E+03  0.19900000000E+03 0.  0.
<mgrwt>
<rscale>  0 0.70590471E+03</rscale>
<asrwt>0</asrwt>
<pdfrwt beam="1">  1        2 0.10086511E+00 0.70590471E+03</pdfrwt>
<pdfrwt beam="2">  1       -2 0.25205489E-01 0.70590471E+03</pdfrwt>
<totfact> 0.63110835E+02</totfact>
</mgrwt>
</event>
<event>
 4    1  0.4998754E-005  0.1299027E+04  0.7818608E-02  0.9030337E-01
          2   -1    0    0  501    0  0.00000000000E+00  0.00000000000E+00  0.27626057596E+04  0.27626057596E+04  0.25500000000E-02 0.  1.
         -2   -1    0    0    0  501 -0.00000000000E+00 -0.00000000000E+00 -0.15270653019E+03  0.15270653021E+03  0.25500000000E-02 0. -1.
    5000001    1    1    2    0    0  0.51237246869E+03  0.28815773653E+03  0.87497938573E+03  0.10727303264E+04  0.19900000000E+03 0.  0.
   -5000001    1    1    2    0    0 -0.51237246869E+03 -0.28815773653E+03  0.17349198437E+04  0.18425819634E+04  0.19900000000E+03 0.  0.
<mgrwt>
<rscale>  0 0.12990272E+04</rscale>
<asrwt>0</asrwt>
<pdfrwt beam="1">  1        2 0.39465797E+00 0.12990272E+04</pdfrwt>
<pdfrwt beam="2">  1       -2 0.21815218E-01 0.12990272E+04</pdfrwt>
<totfact> 0.57659654E+01</totfact>
</mgrwt>
</event>
<event>
 4    1  0.4998754E-005  0.4941824E+03  0.7818608E-02  0.1015309E+00
          2   -1    0    0  501    0  0.00000000000E+00  0.00000000000E+00  0.47952326726E+03  0.47952326726E+03  0.25500000000E-02 0.  1.
         -2   -1    0    0    0  501 -0.00000000000E+00 -0.00000000000E+00 -0.12732243042E+03  0.12732243045E+03  0.25500000000E-02 0. -1.
    5000001    1    1    2    0    0  0.70827902431E+01 -0.12936781333E+03  0.25998919638E+03  0.35211018060E+03  0.19900000000E+03 0.  0.
   -5000001    1    1    2    0    0 -0.70827902431E+01  0.12936781333E+03  0.92211640448E+02  0.25473551711E+03  0.19900000000E+03 0.  0.
<mgrwt>
<rscale>  0 0.49418243E+03</rscale>
<asrwt>0</asrwt>
<pdfrwt beam="1">  1        2 0.68503324E-01 0.49418243E+03</pdfrwt>
<pdfrwt beam="2">  1       -2 0.18188919E-01 0.49418243E+03</pdfrwt>
<totfact> 0.17663417E+03</totfact>
</mgrwt>
</event>
<event>
 4    1  0.4998754E-005  0.1305000E+04  0.7818608E-02  0.9025609E-01
         -2   -1    0    0    0  501 -0.00000000000E+00  0.00000000000E+00  0.32817150103E+03  0.32817150104E+03  0.25500000000E-02 0. -1.
          2   -1    0    0  501    0  0.00000000000E+00 -0.00000000000E+00 -0.12973599817E+04  0.12973599817E+04  0.25500000000E-02 0.  1.
    5000001    1    1    2    0    0 -0.50068946718E+03  0.16788089198E+03 -0.89258225306E+03  0.10560198932E+04  0.19900000000E+03 0.  0.
   -5000001    1    1    2    0    0  0.50068946718E+03 -0.16788089198E+03 -0.76606227561E+02  0.56951158946E+03  0.19900000000E+03 0.  0.
<mgrwt>
<rscale>  0 0.13050005E+04</rscale>
<asrwt>0</asrwt>
<pdfrwt beam="1">  1        2 0.18533714E+00 0.13050005E+04</pdfrwt>
<pdfrwt beam="2">  1       -2 0.46881643E-01 0.13050005E+04</pdfrwt>
<totfact> 0.79621049E+01</totfact>
</mgrwt>
</event>
<event>
 4    1  0.4998754E-005  0.4643530E+03  0.7818608E-02  0.1023526E+00
          2   -1    0    0  501    0  0.00000000000E+00  0.00000000000E+00  0.19037796360E+04  0.19037796360E+04  0.25500000000E-02 0.  1.
         -2   -1    0    0    0  501 -0.00000000000E+00 -0.00000000000E+00 -0.28315209959E+02  0.28315210074E+02  0.25500000000E-02 0. -1.
    5000001    1    1    2    0    0 -0.27535156049E+02 -0.11639029543E+03  0.93695901499E+03  0.96529688773E+03  0.19900000000E+03 0.  0.
   -5000001    1    1    2    0    0  0.27535156049E+02  0.11639029543E+03  0.93850541101E+03  0.96679795830E+03  0.19900000000E+03 0.  0.
<mgrwt>
<rscale>  0 0.46435297E+03</rscale>
<asrwt>0</asrwt>
<pdfrwt beam="1">  1        2 0.27196861E+00 0.46435297E+03</pdfrwt>
<pdfrwt beam="2">  1       -2 0.40450287E-02 0.46435297E+03</pdfrwt>
<totfact> 0.26447748E+03</totfact>
</mgrwt>
</event>
<event>
 4    1  0.4998754E-005  0.6774197E+03  0.7818608E-02  0.9756646E-01
         -2   -1    0    0    0  501 -0.00000000000E+00  0.00000000000E+00  0.31401661799E+03  0.31401661800E+03  0.25500000000E-02 0. -1.
          2   -1    0    0  501    0  0.00000000000E+00 -0.00000000000E+00 -0.36534491492E+03  0.36534491493E+03  0.25500000000E-02 0.  1.
    5000001    1    1    2    0    0  0.94888025603E+02  0.25515876216E+03  0.62648781995E+01  0.33726840945E+03  0.19900000000E+03 0.  0.
   -5000001    1    1    2    0    0 -0.94888025603E+02 -0.25515876216E+03 -0.57593175133E+02  0.34209312348E+03  0.19900000000E+03 0.  0.
<mgrwt>
<rscale>  0 0.67741974E+03</rscale>
<asrwt>0</asrwt>
<pdfrwt beam="1">  1        2 0.52192131E-01 0.67741974E+03</pdfrwt>
<pdfrwt beam="2">  1       -2 0.44859517E-01 0.67741974E+03</pdfrwt>
<totfact> 0.45451068E+02</totfact>
</mgrwt>
</event>
<event>
 4    1  0.4998754E-005  0.1581475E+04  0.7818608E-02  0.8832010E-01
         -2   -1    0    0    0  501 -0.00000000000E+00  0.00000000000E+00  0.23544052912E+03  0.23544052913E+03  0.25500000000E-02 0. -1.
          2   -1    0    0  501    0  0.00000000000E+00 -0.00000000000E+00 -0.26557276688E+04  0.26557276688E+04  0.25500000000E-02 0.  1.
    5000001    1    1    2    0    0  0.49468887162E+03  0.57161364027E+03 -0.99225110586E+03  0.12631795163E+04  0.19900000000E+03 0.  0.
   -5000001    1    1    2    0    0 -0.49468887162E+03 -0.57161364027E+03 -0.14280360338E+04  0.16279886816E+04  0.19900000000E+03 0.  0.
<mgrwt>
<rscale>  0 0.15814752E+04</rscale>
<asrwt>0</asrwt>
<pdfrwt beam="1">  1        2 0.37938965E+00 0.15814752E+04</pdfrwt>
<pdfrwt beam="2">  1       -2 0.33634363E-01 0.15814752E+04</pdfrwt>
<totfact> 0.29015339E+01</totfact>
</mgrwt>
</event>
<event>
 4    1  0.4998754E-005  0.6561235E+03  0.7818608E-02  0.9795356E-01
          2   -1    0    0  501    0  0.00000000000E+00  0.00000000000E+00  0.40685221550E+03  0.40685221551E+03  0.25500000000E-02 0.  1.
         -2   -1    0    0    0  501 -0.00000000000E+00 -0.00000000000E+00 -0.26452975166E+03  0.26452975168E+03  0.25500000000E-02 0. -1.
    5000001    1    1    2    0    0 -0.23096984962E+03  0.68969001146E+02 -0.30752757001E+02  0.31408681382E+03  0.19900000000E+03 0.  0.
   -5000001    1    1    2    0    0  0.23096984962E+03 -0.68969001146E+02  0.17307522084E+03  0.35729515337E+03  0.19900000000E+03 0.  0.
<mgrwt>
<rscale>  0 0.65612351E+03</rscale>
<asrwt>0</asrwt>
<pdfrwt beam="1">  1        2 0.58121745E-01 0.65612351E+03</pdfrwt>
<pdfrwt beam="2">  1       -2 0.37789965E-01 0.65612351E+03</pdfrwt>
<totfact> 0.56408993E+02</totfact>
</mgrwt>
</event>
<event>
 4    1  0.4998754E-005  0.8037451E+03  0.7818608E-02  0.9554612E-01
         -2   -1    0    0    0  501 -0.00000000000E+00  0.00000000000E+00  0.84999319257E+03  0.84999319258E+03  0.25500000000E-02 0.  1.
          2   -1    0    0  501    0  0.00000000000E+00 -0.00000000000E+00 -0.19000333457E+03  0.19000333459E+03  0.25500000000E-02 0. -1.
    5000001    1    1    2    0    0 -0.27314349734E+03  0.10066038109E+03  0.57942870361E+03  0.67829087051E+03  0.19900000000E+03 0.  0.
   -5000001    1    1    2    0    0  0.27314349734E+03 -0.10066038109E+03  0.80561154390E+02  0.36170565665E+03  0.19900000000E+03 0.  0.
<mgrwt>
<rscale>  0 0.80374509E+03</rscale>
<asrwt>0</asrwt>
<pdfrwt beam="1">  1        2 0.27143333E-01 0.80374509E+03</pdfrwt>
<pdfrwt beam="2">  1       -2 0.12142760E+00 0.80374509E+03</pdfrwt>
<totfact> 0.10356948E+02</totfact>
</mgrwt>
</event>
<event>
 4    1  0.4998754E-005  0.5082468E+03  0.7818608E-02  0.1011649E+00
         -2   -1    0    0    0  501 -0.00000000000E+00  0.00000000000E+00  0.22036083445E+02  0.22036083592E+02  0.25500000000E-02 0. -1.
          2   -1    0    0  501    0  0.00000000000E+00 -0.00000000000E+00 -0.29305895030E+04  0.29305895030E+04  0.25500000000E-02 0.  1.
    5000001    1    1    2    0    0  0.30058770498E+02 -0.11368285112E+03 -0.84082722728E+03  0.87201992320E+03  0.19900000000E+03 0.  0.
   -5000001    1    1    2    0    0 -0.30058770498E+02  0.11368285112E+03 -0.20677261923E+04  0.20806056634E+04  0.19900000000E+03 0.  0.
<mgrwt>
<rscale>  0 0.50824685E+03</rscale>
<asrwt>0</asrwt>
<pdfrwt beam="1">  1        2 0.41865539E+00 0.50824685E+03</pdfrwt>
<pdfrwt beam="2">  1       -2 0.31480138E-02 0.50824685E+03</pdfrwt>
<totfact> 0.11574419E+03</totfact>
</mgrwt>
</event>
<event>
 4    1  0.4998754E-005  0.6154380E+03  0.7818608E-02  0.9873885E-01
         -2   -1    0    0    0  501 -0.00000000000E+00  0.00000000000E+00  0.14470621628E+03  0.14470621630E+03  0.25500000000E-02 0. -1.
          2   -1    0    0  501    0  0.00000000000E+00 -0.00000000000E+00 -0.65436707301E+03  0.65436707302E+03  0.25500000000E-02 0.  1.
    5000001    1    1    2    0    0  0.15914142138E+03  0.17240122624E+03 -0.26322568627E+03  0.40489126531E+03  0.19900000000E+03 0.  0.
   -5000001    1    1    2    0    0 -0.15914142138E+03 -0.17240122624E+03 -0.24643517047E+03  0.39418202401E+03  0.19900000000E+03 0.  0.
<mgrwt>
<rscale>  0 0.61543800E+03</rscale>
<asrwt>0</asrwt>
<pdfrwt beam="1">  1        2 0.93481008E-01 0.61543800E+03</pdfrwt>
<pdfrwt beam="2">  1       -2 0.20672317E-01 0.61543800E+03</pdfrwt>
<totfact> 0.98649760E+02</totfact>
</mgrwt>
</event>
<event>
 4    1  0.4998754E-005  0.6865073E+03  0.7818608E-02  0.9740589E-01
          2   -1    0    0  501    0  0.00000000000E+00  0.00000000000E+00  0.26332497633E+04  0.26332497633E+04  0.25500000000E-02 0.  1.
         -2   -1    0    0    0  501 -0.00000000000E+00 -0.00000000000E+00 -0.44744358663E+02  0.44744358736E+02  0.25500000000E-02 0. -1.
    5000001    1    1    2    0    0  0.10213580408E+02  0.27784928894E+03  0.14124136504E+04  0.14532095046E+04  0.19900000000E+03 0.  0.
   -5000001    1    1    2    0    0 -0.10213580408E+02 -0.27784928894E+03  0.11760917543E+04  0.12247846174E+04  0.19900000000E+03 0.  0.
<mgrwt>
<rscale>  0 0.68650731E+03</rscale>
<asrwt>0</asrwt>
<pdfrwt beam="1">  1        2 0.37617868E+00 0.68650731E+03</pdfrwt>
<pdfrwt beam="2">  1       -2 0.63920488E-02 0.68650731E+03</pdfrwt>
<totfact> 0.54824521E+02</totfact>
</mgrwt>
</event>
<event>
 4    1  0.4998754E-005  0.6399387E+03  0.7818608E-02  0.9825844E-01
         -2   -1    0    0    0  501 -0.00000000000E+00  0.00000000000E+00  0.32405178381E+03  0.32405178382E+03  0.25500000000E-02 0. -1.
          2   -1    0    0  501    0  0.00000000000E+00 -0.00000000000E+00 -0.31593838266E+03  0.31593838267E+03  0.25500000000E-02 0.  1.
    5000001    1    1    2    0    0  0.84110847003E+02 -0.90319450178E+02  0.22212733509E+03  0.32275964843E+03  0.19900000000E+03 0.  0.
   -5000001    1    1    2    0    0 -0.84110847003E+02  0.90319450178E+02 -0.21401393393E+03  0.31723051805E+03  0.19900000000E+03 0.  0.
<mgrwt>
<rscale>  0 0.63993874E+03</rscale>
<asrwt>0</asrwt>
<pdfrwt beam="1">  1        2 0.45134055E-01 0.63993874E+03</pdfrwt>
<pdfrwt beam="2">  1       -2 0.46293112E-01 0.63993874E+03</pdfrwt>
<totfact> 0.50183823E+02</totfact>
</mgrwt>
</event>
<event>
 4    1  0.4998754E-005  0.1288775E+04  0.7818608E-02  0.9038514E-01
          2   -1    0    0  501    0  0.00000000000E+00  0.00000000000E+00  0.21523263139E+04  0.21523263139E+04  0.25500000000E-02 0.  1.
         -2   -1    0    0    0  501 -0.00000000000E+00 -0.00000000000E+00 -0.19292392227E+03  0.19292392229E+03  0.25500000000E-02 0. -1.
    5000001    1    1    2    0    0  0.32001397302E+03 -0.49745983853E+03  0.12717642338E+04  0.14166370390E+04  0.19900000000E+03 0.  0.
   -5000001    1    1    2    0    0 -0.32001397302E+03  0.49745983853E+03  0.68763815775E+03  0.92861319713E+03  0.19900000000E+03 0.  0.
<mgrwt>
<rscale>  0 0.12887750E+04</rscale>
<asrwt>0</asrwt>
<pdfrwt beam="1">  1        2 0.30747517E+00 0.12887750E+04</pdfrwt>
<pdfrwt beam="2">  1       -2 0.27560562E-01 0.12887750E+04</pdfrwt>
<totfact> 0.78920659E+01</totfact>
</mgrwt>
</event>
<event>
 4    1  0.4998754E-005  0.5095938E+03  0.7818608E-02  0.1011305E+00
          2   -1    0    0  501    0  0.00000000000E+00  0.00000000000E+00  0.26087273543E+04  0.26087273543E+04  0.25500000000E-02 0.  1.
         -2   -1    0    0    0  501 -0.00000000000E+00 -0.00000000000E+00 -0.24886261264E+02  0.24886261395E+02  0.25500000000E-02 0. -1.
    5000001    1    1    2    0    0 -0.13915715456E+03 -0.69574668900E+02  0.11193410607E+04  0.11474888925E+04  0.19900000000E+03 0.  0.
   -5000001    1    1    2    0    0  0.13915715456E+03  0.69574668900E+02  0.14645000323E+04  0.14861247232E+04  0.19900000000E+03 0.  0.
<mgrwt>
<rscale>  0 0.50959384E+03</rscale>
<asrwt>0</asrwt>
<pdfrwt beam="1">  1        2 0.37267543E+00 0.50959384E+03</pdfrwt>
<pdfrwt beam="2">  1       -2 0.35551793E-02 0.50959384E+03</pdfrwt>
<totfact> 0.14195751E+03</totfact>
</mgrwt>
</event>
<event>
 4    1  0.4998754E-005  0.5397661E+03  0.7818608E-02  0.1003891E+00
         -2   -1    0    0    0  501 -0.00000000000E+00  0.00000000000E+00  0.32166230797E+02  0.32166230898E+02  0.25500000000E-02 0. -1.
          2   -1    0    0  501    0  0.00000000000E+00 -0.00000000000E+00 -0.22643889619E+04  0.22643889619E+04  0.25500000000E-02 0.  1.
    5000001    1    1    2    0    0  0.16455531943E+03  0.63322548465E+02 -0.91893537453E+03  0.95662501580E+03  0.19900000000E+03 0.  0.
   -5000001    1    1    2    0    0 -0.16455531943E+03 -0.63322548465E+02 -0.13132873566E+04  0.13399301770E+04  0.19900000000E+03 0.  0.
<mgrwt>
<rscale>  0 0.53976609E+03</rscale>
<asrwt>0</asrwt>
<pdfrwt beam="1">  1        2 0.32348404E+00 0.53976609E+03</pdfrwt>
<pdfrwt beam="2">  1       -2 0.45951773E-02 0.53976609E+03</pdfrwt>
<totfact> 0.14312195E+03</totfact>
</mgrwt>
</event>
<event>
 4    1  0.4998754E-005  0.6761870E+03  0.7818608E-02  0.9758845E-01
         -2   -1    0    0    0  501 -0.00000000000E+00  0.00000000000E+00  0.30508011610E+03  0.30508011611E+03  0.25500000000E-02 0. -1.
          2   -1    0    0  501    0  0.00000000000E+00 -0.00000000000E+00 -0.37467933494E+03  0.37467933495E+03  0.25500000000E-02 0.  1.
    5000001    1    1    2    0    0  0.11081945584E+03  0.38449737512E+02 -0.28297812310E+03  0.36529023017E+03  0.19900000000E+03 0.  0.
   -5000001    1    1    2    0    0 -0.11081945584E+03 -0.38449737512E+02  0.21337890426E+03  0.31446922089E+03  0.19900000000E+03 0.  0.
<mgrwt>
<rscale>  0 0.67618700E+03</rscale>
<asrwt>0</asrwt>
<pdfrwt beam="1">  1        2 0.53525619E-01 0.67618700E+03</pdfrwt>
<pdfrwt beam="2">  1       -2 0.43582874E-01 0.67618700E+03</pdfrwt>
<totfact> 0.46798439E+02</totfact>
</mgrwt>
</event>
<event>
 4    1  0.4998754E-005  0.7520991E+03  0.7818608E-02  0.9632063E-01
          2   -1    0    0  501    0  0.00000000000E+00  0.00000000000E+00  0.21834930254E+03  0.21834930255E+03  0.25500000000E-02 0.  1.
         -2   -1    0    0    0  501 -0.00000000000E+00 -0.00000000000E+00 -0.64764704579E+03  0.64764704580E+03  0.25500000000E-02 0. -1.
    5000001    1    1    2    0    0 -0.25591732914E+03 -0.78677947970E+00 -0.43408181212E+03  0.54177700024E+03  0.19900000000E+03 0.  0.
   -5000001    1    1    2    0    0  0.25591732914E+03  0.78677947970E+00  0.47840688632E+01  0.32421934811E+03  0.19900000000E+03 0.  0.
<mgrwt>
<rscale>  0 0.75209914E+03</rscale>
<asrwt>0</asrwt>
<pdfrwt beam="1">  1        2 0.31192758E-01 0.75209914E+03</pdfrwt>
<pdfrwt beam="2">  1       -2 0.92521005E-01 0.75209914E+03</pdfrwt>
<totfact> 0.17025813E+02</totfact>
</mgrwt>
</event>
<event>
 4    1  0.4998754E-005  0.5972036E+03  0.7818608E-02  0.9911225E-01
         -2   -1    0    0    0  501 -0.00000000000E+00  0.00000000000E+00  0.32107885950E+03  0.32107885951E+03  0.25500000000E-02 0. -1.
          2   -1    0    0  501    0  0.00000000000E+00 -0.00000000000E+00 -0.27769820387E+03  0.27769820388E+03  0.25500000000E-02 0.  1.
    5000001    1    1    2    0    0 -0.16531209629E+03 -0.13495973555E+03  0.85259296311E+02  0.30399402462E+03  0.19900000000E+03 0.  0.
   -5000001    1    1    2    0    0  0.16531209629E+03  0.13495973555E+03 -0.41878640686E+02  0.29478303877E+03  0.19900000000E+03 0.  0.
<mgrwt>
<rscale>  0 0.59720356E+03</rscale>
<asrwt>0</asrwt>
<pdfrwt beam="1">  1        2 0.39671172E-01 0.59720356E+03</pdfrwt>
<pdfrwt beam="2">  1       -2 0.45868408E-01 0.59720356E+03</pdfrwt>
<totfact> 0.58992391E+02</totfact>
</mgrwt>
</event>
<event>
 4    1  0.4998754E-005  0.2000290E+04  0.7818608E-02  0.8606485E-01
          2   -1    0    0  501    0  0.00000000000E+00  0.00000000000E+00  0.11587370905E+04  0.11587370905E+04  0.25500000000E-02 0.  1.
         -2   -1    0    0    0  501 -0.00000000000E+00 -0.00000000000E+00 -0.86325908043E+03  0.86325908044E+03  0.25500000000E-02 0. -1.
    5000001    1    1    2    0    0 -0.35546646318E+03  0.70443692373E+03  0.73551367829E+03  0.10968906768E+04  0.19900000000E+03 0.  0.
   -5000001    1    1    2    0    0  0.35546646318E+03 -0.70443692373E+03 -0.44003566821E+03  0.92510549412E+03  0.19900000000E+03 0.  0.
<mgrwt>
<rscale>  0 0.20002903E+04</rscale>
<asrwt>0</asrwt>
<pdfrwt beam="1">  1        2 0.16553387E+00 0.20002903E+04</pdfrwt>
<pdfrwt beam="2">  1       -2 0.12332273E+00 0.20002903E+04</pdfrwt>
<totfact> 0.10443730E+01</totfact>
</mgrwt>
</event>
<event>
 4    1  0.4998754E-005  0.4969957E+03  0.7818608E-02  0.1014566E+00
          2   -1    0    0  501    0  0.00000000000E+00  0.00000000000E+00  0.13687512218E+03  0.13687512220E+03  0.25500000000E-02 0.  1.
         -2   -1    0    0    0  501 -0.00000000000E+00 -0.00000000000E+00 -0.45114975448E+03  0.45114975448E+03  0.25500000000E-02 0. -1.
    5000001    1    1    2    0    0  0.84038198701E+02 -0.11189978837E+03 -0.97201279958E+02  0.26197914097E+03  0.19900000000E+03 0.  0.
   -5000001    1    1    2    0    0 -0.84038198701E+02  0.11189978837E+03 -0.21707335234E+03  0.32604573571E+03  0.19900000000E+03 0.  0.
<mgrwt>
<rscale>  0 0.49699569E+03</rscale>
<asrwt>0</asrwt>
<pdfrwt beam="1">  1        2 0.19553589E-01 0.49699569E+03</pdfrwt>
<pdfrwt beam="2">  1       -2 0.64449964E-01 0.49699569E+03</pdfrwt>
<totfact> 0.65301048E+02</totfact>
</mgrwt>
</event>
<event>
 4    1  0.4998754E-005  0.5041461E+03  0.7818608E-02  0.1012702E+00
          2   -1    0    0  501    0  0.00000000000E+00  0.00000000000E+00  0.25836152117E+04  0.25836152117E+04  0.25500000000E-02 0.  1.
         -2   -1    0    0    0  501 -0.00000000000E+00 -0.00000000000E+00 -0.24593765618E+02  0.24593765750E+02  0.25500000000E-02 0. -1.
    5000001    1    1    2    0    0  0.97178990925E+02 -0.93332554473E+02  0.16730078681E+04  0.16901807740E+04  0.19900000000E+03 0.  0.
   -5000001    1    1    2    0    0 -0.97178990925E+02  0.93332554473E+02  0.88601357795E+03  0.91802820344E+03  0.19900000000E+03 0.  0.
<mgrwt>
<rscale>  0 0.50414612E+03</rscale>
<asrwt>0</asrwt>
<pdfrwt beam="1">  1        2 0.36908775E+00 0.50414612E+03</pdfrwt>
<pdfrwt beam="2">  1       -2 0.35133964E-02 0.50414612E+03</pdfrwt>
<totfact> 0.14896080E+03</totfact>
</mgrwt>
</event>
<event>
 4    1  0.4998754E-005  0.4624405E+03  0.7818608E-02  0.1024076E+00
         -2   -1    0    0    0  501 -0.00000000000E+00  0.00000000000E+00  0.90128802305E+02  0.90128802341E+02  0.25500000000E-02 0. -1.
          2   -1    0    0  501    0  0.00000000000E+00 -0.00000000000E+00 -0.59318219162E+03  0.59318219163E+03  0.25500000000E-02 0.  1.
    5000001    1    1    2    0    0 -0.25221340709E+02 -0.81381288903E+02 -0.13145914312E+03  0.25326179443E+03  0.19900000000E+03 0.  0.
   -5000001    1    1    2    0    0  0.25221340709E+02  0.81381288903E+02 -0.37159424620E+03  0.43004919953E+03  0.19900000000E+03 0.  0.
<mgrwt>
<rscale>  0 0.46244048E+03</rscale>
<asrwt>0</asrwt>
<pdfrwt beam="1">  1        2 0.84740311E-01 0.46244048E+03</pdfrwt>
<pdfrwt beam="2">  1       -2 0.12875544E-01 0.46244048E+03</pdfrwt>
<totfact> 0.24735223E+03</totfact>
</mgrwt>
</event>
<event>
 4    1  0.4998754E-005  0.5998515E+03  0.7818608E-02  0.9905714E-01
          2   -1    0    0  501    0  0.00000000000E+00  0.00000000000E+00  0.21333481288E+04  0.21333481288E+04  0.25500000000E-02 0. -1.
         -2   -1    0    0    0  501 -0.00000000000E+00 -0.00000000000E+00 -0.42166325954E+02  0.42166326031E+02  0.25500000000E-02 0.  1.
    5000001    1    1    2    0    0  0.12917168153E+03 -0.16956691439E+03  0.12998828443E+04  0.13321916794E+04  0.19900000000E+03 0.  0.
   -5000001    1    1    2    0    0 -0.12917168153E+03  0.16956691439E+03  0.79129895853E+03  0.84332277542E+03  0.19900000000E+03 0.  0.
<mgrwt>
<rscale>  0 0.59985149E+03</rscale>
<asrwt>0</asrwt>
<pdfrwt beam="1">  1        2 0.30476398E+00 0.59985149E+03</pdfrwt>
<pdfrwt beam="2">  1       -2 0.60237616E-02 0.59985149E+03</pdfrwt>
<totfact> 0.10899457E+03</totfact>
</mgrwt>
</event>
<event>
 4    1  0.4998754E-005  0.7095810E+03  0.7818608E-02  0.9700986E-01
          2   -1    0    0  501    0  0.00000000000E+00  0.00000000000E+00  0.16785830010E+04  0.16785830010E+04  0.25500000000E-02 0.  1.
         -2   -1    0    0    0  501 -0.00000000000E+00 -0.00000000000E+00 -0.74989618803E+02  0.74989618846E+02  0.25500000000E-02 0. -1.
    5000001    1    1    2    0    0  0.28776277341E+03 -0.17597570347E+01  0.65633113651E+03  0.74376210663E+03  0.19900000000E+03 0.  0.
   -5000001    1    1    2    0    0 -0.28776277341E+03  0.17597570347E+01  0.94726224570E+03  0.10098105132E+04  0.19900000000E+03 0.  0.
<mgrwt>
<rscale>  0 0.70958100E+03</rscale>
<asrwt>0</asrwt>
<pdfrwt beam="1">  1        2 0.23979757E+00 0.70958100E+03</pdfrwt>
<pdfrwt beam="2">  1       -2 0.10712803E-01 0.70958100E+03</pdfrwt>
<totfact> 0.73273774E+02</totfact>
</mgrwt>
</event>
<event>
 4    1  0.4998754E-005  0.6540420E+03  0.7818608E-02  0.9799224E-01
         -2   -1    0    0    0  501 -0.00000000000E+00  0.00000000000E+00  0.21934806966E+03  0.21934806968E+03  0.25500000000E-02 0. -1.
          2   -1    0    0  501    0  0.00000000000E+00 -0.00000000000E+00 -0.48754812259E+03  0.48754812260E+03  0.25500000000E-02 0.  1.
    5000001    1    1    2    0    0 -0.17125020085E+03  0.74183815112E+02 -0.32898168538E+03  0.42738720036E+03  0.19900000000E+03 0.  0.
   -5000001    1    1    2    0    0  0.17125020085E+03 -0.74183815112E+02  0.60781632454E+02  0.27950899191E+03  0.19900000000E+03 0.  0.
<mgrwt>
<rscale>  0 0.65404202E+03</rscale>
<asrwt>0</asrwt>
<pdfrwt beam="1">  1        2 0.69649731E-01 0.65404202E+03</pdfrwt>
<pdfrwt beam="2">  1       -2 0.31335439E-01 0.65404202E+03</pdfrwt>
<totfact> 0.65607642E+02</totfact>
</mgrwt>
</event>
<event>
 4    1  0.4998754E-005  0.1234508E+04  0.7818608E-02  0.9083176E-01
          2   -1    0    0  501    0  0.00000000000E+00  0.00000000000E+00  0.23676824586E+04  0.23676824586E+04  0.25500000000E-02 0.  1.
         -2   -1    0    0    0  501 -0.00000000000E+00 -0.00000000000E+00 -0.16091797744E+03  0.16091797746E+03  0.25500000000E-02 0. -1.
    5000001    1    1    2    0    0  0.44136951063E+03 -0.16040180690E+03  0.18154774684E+04  0.18857611786E+04  0.19900000000E+03 0.  0.
   -5000001    1    1    2    0    0 -0.44136951063E+03  0.16040180690E+03  0.39128701283E+03  0.64283925750E+03  0.19900000000E+03 0.  0.
<mgrwt>
<rscale>  0 0.12345083E+04</rscale>
<asrwt>0</asrwt>
<pdfrwt beam="1">  1        2 0.33824033E+00 0.12345083E+04</pdfrwt>
<pdfrwt beam="2">  1       -2 0.22988284E-01 0.12345083E+04</pdfrwt>
<totfact> 0.85275476E+01</totfact>
</mgrwt>
</event>
<event>
 4    1  0.4998754E-005  0.7051819E+03  0.7818608E-02  0.9708411E-01
          2   -1    0    0  501    0  0.00000000000E+00  0.00000000000E+00  0.16557824086E+04  0.16557824086E+04  0.25500000000E-02 0.  1.
         -2   -1    0    0    0  501 -0.00000000000E+00 -0.00000000000E+00 -0.75082552990E+02  0.75082553033E+02  0.25500000000E-02 0. -1.
    5000001    1    1    2    0    0 -0.28032660078E+03  0.44026695338E+02  0.63131805858E+03  0.72019778124E+03  0.19900000000E+03 0.  0.
   -5000001    1    1    2    0    0  0.28032660078E+03 -0.44026695338E+02  0.94938179704E+03  0.10106671804E+04  0.19900000000E+03 0.  0.
<mgrwt>
<rscale>  0 0.70518188E+03</rscale>
<asrwt>0</asrwt>
<pdfrwt beam="1">  1        2 0.23654033E+00 0.70518188E+03</pdfrwt>
<pdfrwt beam="2">  1       -2 0.10726080E-01 0.70518188E+03</pdfrwt>
<totfact> 0.75138994E+02</totfact>
</mgrwt>
</event>
<event>
 4    1  0.4998754E-005  0.4908181E+03  0.7818608E-02  0.1016204E+00
          2   -1    0    0  501    0  0.00000000000E+00  0.00000000000E+00  0.32976955520E+04  0.32976955520E+04  0.25500000000E-02 0.  1.
         -2   -1    0    0    0  501 -0.00000000000E+00 -0.00000000000E+00 -0.18262933008E+02  0.18262933186E+02  0.25500000000E-02 0. -1.
    5000001    1    1    2    0    0 -0.43640031001E+02 -0.13157668530E+03  0.18931977675E+04  0.19086685577E+04  0.19900000000E+03 0.  0.
   -5000001    1    1    2    0    0  0.43640031001E+02  0.13157668530E+03  0.13862348515E+04  0.14072899275E+04  0.19900000000E+03 0.  0.
<mgrwt>
<rscale>  0 0.49081807E+03</rscale>
<asrwt>0</asrwt>
<pdfrwt beam="1">  1        2 0.47109940E+00 0.49081807E+03</pdfrwt>
<pdfrwt beam="2">  1       -2 0.26089902E-02 0.49081807E+03</pdfrwt>
<totfact> 0.96659121E+02</totfact>
</mgrwt>
</event>
<event>
 4    1  0.4998754E-005  0.5208400E+03  0.7818608E-02  0.1008478E+00
          2   -1    0    0  501    0  0.00000000000E+00  0.00000000000E+00  0.61256634280E+02  0.61256634333E+02  0.25500000000E-02 0.  1.
         -2   -1    0    0    0  501 -0.00000000000E+00 -0.00000000000E+00 -0.11071220039E+04  0.11071220039E+04  0.25500000000E-02 0. -1.
    5000001    1    1    2    0    0 -0.57385356662E+02 -0.15700662090E+03 -0.56002518934E+03  0.61739239618E+03  0.19900000000E+03 0.  0.
   -5000001    1    1    2    0    0  0.57385356662E+02  0.15700662090E+03 -0.48584018031E+03  0.55098624209E+03  0.19900000000E+03 0.  0.
<mgrwt>
<rscale>  0 0.52083997E+03</rscale>
<asrwt>0</asrwt>
<pdfrwt beam="1">  1        2 0.87509484E-02 0.52083997E+03</pdfrwt>
<pdfrwt beam="2">  1       -2 0.15816027E+00 0.52083997E+03</pdfrwt>
<totfact> 0.20880119E+02</totfact>
</mgrwt>
</event>
<event>
 4    1  0.4998754E-005  0.7089587E+03  0.7818608E-02  0.9702033E-01
          2   -1    0    0  501    0  0.00000000000E+00  0.00000000000E+00  0.11555382833E+04  0.11555382833E+04  0.25500000000E-02 0. -1.
         -2   -1    0    0    0  501 -0.00000000000E+00 -0.00000000000E+00 -0.10874205069E+03  0.10874205072E+03  0.25500000000E-02 0.  1.
    5000001    1    1    2    0    0  0.17831007690E+03 -0.34720875081E+02  0.93415409959E+03  0.97223706187E+03  0.19900000000E+03 0.  0.
   -5000001    1    1    2    0    0 -0.17831007690E+03  0.34720875081E+02  0.11264213304E+03  0.29204327218E+03  0.19900000000E+03 0.  0.
<mgrwt>
<rscale>  0 0.70895868E+03</rscale>
<asrwt>0</asrwt>
<pdfrwt beam="1">  1        2 0.16507690E+00 0.70895868E+03</pdfrwt>
<pdfrwt beam="2">  1       -2 0.15534578E-01 0.70895868E+03</pdfrwt>
<totfact> 0.75267286E+02</totfact>
</mgrwt>
</event>
<event>
 4    1  0.4998754E-005  0.6041373E+03  0.7818608E-02  0.9896859E-01
         -2   -1    0    0    0  501 -0.00000000000E+00  0.00000000000E+00  0.44327251156E+02  0.44327251229E+02  0.25500000000E-02 0. -1.
          2   -1    0    0  501    0  0.00000000000E+00 -0.00000000000E+00 -0.20584507718E+04  0.20584507718E+04  0.25500000000E-02 0.  1.
    5000001    1    1    2    0    0 -0.15804632812E+03 -0.15245098811E+03 -0.80337745332E+03  0.85629216866E+03  0.19900000000E+03 0.  0.
   -5000001    1    1    2    0    0  0.15804632812E+03  0.15245098811E+03 -0.12107460673E+04  0.12464858544E+04  0.19900000000E+03 0.  0.
<mgrwt>
<rscale>  0 0.60413728E+03</rscale>
<asrwt>0</asrwt>
<pdfrwt beam="1">  1        2 0.29406434E+00 0.60413728E+03</pdfrwt>
<pdfrwt beam="2">  1       -2 0.63324658E-02 0.60413728E+03</pdfrwt>
<totfact> 0.10987177E+03</totfact>
</mgrwt>
</event>
<event>
 4    1  0.4998754E-005  0.1185232E+04  0.7818608E-02  0.9125882E-01
         -2   -1    0    0    0  501 -0.00000000000E+00  0.00000000000E+00  0.35961730321E+03  0.35961730322E+03  0.25500000000E-02 0. -1.
          2   -1    0    0  501    0  0.00000000000E+00 -0.00000000000E+00 -0.97657596063E+03  0.97657596063E+03  0.25500000000E-02 0.  1.
    5000001    1    1    2    0    0  0.44959697042E+03 -0.11395166607E+03  0.41677464750E+02  0.50641922266E+03  0.19900000000E+03 0.  0.
   -5000001    1    1    2    0    0 -0.44959697042E+03  0.11395166607E+03 -0.65863612216E+03  0.82977404119E+03  0.19900000000E+03 0.  0.
<mgrwt>
<rscale>  0 0.11852318E+04</rscale>
<asrwt>0</asrwt>
<pdfrwt beam="1">  1        2 0.13951085E+00 0.11852318E+04</pdfrwt>
<pdfrwt beam="2">  1       -2 0.51373901E-01 0.11852318E+04</pdfrwt>
<totfact> 0.10270862E+02</totfact>
</mgrwt>
</event>
<event>
 4    1  0.4998754E-005  0.6821873E+03  0.7818608E-02  0.9748189E-01
         -2   -1    0    0    0  501 -0.00000000000E+00  0.00000000000E+00  0.13744535327E+03  0.13744535329E+03  0.25500000000E-02 0. -1.
          2   -1    0    0  501    0  0.00000000000E+00 -0.00000000000E+00 -0.84648101547E+03  0.84648101547E+03  0.25500000000E-02 0.  1.
    5000001    1    1    2    0    0  0.14949206546E+03 -0.23231554877E+03 -0.32476667574E+03  0.47052394785E+03  0.19900000000E+03 0.  0.
   -5000001    1    1    2    0    0 -0.14949206546E+03  0.23231554877E+03 -0.38426898647E+03  0.51340242091E+03  0.19900000000E+03 0.  0.
<mgrwt>
<rscale>  0 0.68218731E+03</rscale>
<asrwt>0</asrwt>
<pdfrwt beam="1">  1        2 0.12092586E+00 0.68218731E+03</pdfrwt>
<pdfrwt beam="2">  1       -2 0.19635051E-01 0.68218731E+03</pdfrwt>
<totfact> 0.78074053E+02</totfact>
</mgrwt>
</event>
<event>
 4    1  0.4998754E-005  0.5274899E+03  0.7818608E-02  0.1006843E+00
          2   -1    0    0  501    0  0.00000000000E+00  0.00000000000E+00  0.18577609073E+03  0.18577609075E+03  0.25500000000E-02 0.  1.
         -2   -1    0    0    0  501 -0.00000000000E+00 -0.00000000000E+00 -0.37443675643E+03  0.37443675644E+03  0.25500000000E-02 0. -1.
    5000001    1    1    2    0    0 -0.11327992008E+03  0.11253767877E+03 -0.23377736164E+02  0.25621199813E+03  0.19900000000E+03 0.  0.
   -5000001    1    1    2    0    0  0.11327992008E+03 -0.11253767877E+03 -0.16528292953E+03  0.30400084906E+03  0.19900000000E+03 0.  0.
<mgrwt>
<rscale>  0 0.52748989E+03</rscale>
<asrwt>0</asrwt>
<pdfrwt beam="1">  1        2 0.26539442E-01 0.52748989E+03</pdfrwt>
<pdfrwt beam="2">  1       -2 0.53490965E-01 0.52748989E+03</pdfrwt>
<totfact> 0.67802192E+02</totfact>
</mgrwt>
</event>
<event>
 4    1  0.4998754E-005  0.7433628E+03  0.7818608E-02  0.9645821E-01
         -2   -1    0    0    0  501 -0.00000000000E+00  0.00000000000E+00  0.58928295807E+02  0.58928295863E+02  0.25500000000E-02 0. -1.
          2   -1    0    0  501    0  0.00000000000E+00 -0.00000000000E+00 -0.23443247836E+04  0.23443247836E+04  0.25500000000E-02 0.  1.
    5000001    1    1    2    0    0 -0.27593096343E+00  0.26177434452E+03 -0.17028495246E+04  0.17343077544E+04  0.19900000000E+03 0.  0.
   -5000001    1    1    2    0    0  0.27593096343E+00 -0.26177434452E+03 -0.58254696324E+03  0.66894532510E+03  0.19900000000E+03 0.  0.
<mgrwt>
<rscale>  0 0.74336280E+03</rscale>
<asrwt>0</asrwt>
<pdfrwt beam="1">  1        2 0.33490348E+00 0.74336280E+03</pdfrwt>
<pdfrwt beam="2">  1       -2 0.84183294E-02 0.74336280E+03</pdfrwt>
<totfact> 0.49640827E+02</totfact>
</mgrwt>
</event>
<event>
 4    1  0.4998754E-005  0.4747488E+03  0.7818608E-02  0.1020588E+00
         -2   -1    0    0    0  501 -0.00000000000E+00  0.00000000000E+00  0.12501300476E+04  0.12501300476E+04  0.25500000000E-02 0. -1.
          2   -1    0    0  501    0  0.00000000000E+00 -0.00000000000E+00 -0.45072589070E+02  0.45072589142E+02  0.25500000000E-02 0.  1.
    5000001    1    1    2    0    0 -0.50646111791E+02  0.76588349515E+02  0.85129965514E+03  0.87905796553E+03  0.19900000000E+03 0.  0.
   -5000001    1    1    2    0    0  0.50646111791E+02 -0.76588349515E+02  0.35375780340E+03  0.41614467122E+03  0.19900000000E+03 0.  0.
<mgrwt>
<rscale>  0 0.47474877E+03</rscale>
<asrwt>0</asrwt>
<pdfrwt beam="1">  1        2 0.64389418E-02 0.47474877E+03</pdfrwt>
<pdfrwt beam="2">  1       -2 0.17858999E+00 0.47474877E+03</pdfrwt>
<totfact> 0.22354355E+02</totfact>
</mgrwt>
</event>
<event>
 4    1  0.4998754E-005  0.9381496E+03  0.7818608E-02  0.9379110E-01
          2   -1    0    0  501    0  0.00000000000E+00  0.00000000000E+00  0.10180358398E+04  0.10180358398E+04  0.25500000000E-02 0.  1.
         -2   -1    0    0    0  501 -0.00000000000E+00 -0.00000000000E+00 -0.21613302572E+03  0.21613302573E+03  0.25500000000E-02 0. -1.
    5000001    1    1    2    0    0 -0.31729856032E+03 -0.24327659921E+03  0.21228197418E+03  0.49449622513E+03  0.19900000000E+03 0.  0.
   -5000001    1    1    2    0    0  0.31729856032E+03  0.24327659921E+03  0.58962083987E+03  0.73967264037E+03  0.19900000000E+03 0.  0.
<mgrwt>
<rscale>  0 0.93814960E+03</rscale>
<asrwt>0</asrwt>
<pdfrwt beam="1">  1        2 0.14543369E+00 0.93814960E+03</pdfrwt>
<pdfrwt beam="2">  1       -2 0.30876147E-01 0.93814960E+03</pdfrwt>
<totfact> 0.26551116E+02</totfact>
</mgrwt>
</event>
<event>
 4    1  0.4998754E-005  0.5183347E+03  0.7818608E-02  0.1009101E+00
          2   -1    0    0  501    0  0.00000000000E+00  0.00000000000E+00  0.18154178853E+04  0.18154178853E+04  0.25500000000E-02 0.  1.
         -2   -1    0    0    0  501 -0.00000000000E+00 -0.00000000000E+00 -0.36998487500E+02  0.36998487588E+02  0.25500000000E-02 0. -1.
    5000001    1    1    2    0    0 -0.14078457788E+02  0.10794361954E+03  0.13372415004E+04  0.13563428248E+04  0.19900000000E+03 0.  0.
   -5000001    1    1    2    0    0  0.14078457788E+02 -0.10794361954E+03  0.44117789744E+03  0.49607354814E+03  0.19900000000E+03 0.  0.
<mgrwt>
<rscale>  0 0.51833470E+03</rscale>
<asrwt>0</asrwt>
<pdfrwt beam="1">  1        2 0.25934541E+00 0.51833470E+03</pdfrwt>
<pdfrwt beam="2">  1       -2 0.52854982E-02 0.51833470E+03</pdfrwt>
<totfact> 0.19366037E+03</totfact>
</mgrwt>
</event>
<event>
 4    1  0.4998754E-005  0.5156132E+03  0.7818608E-02  0.1009782E+00
          2   -1    0    0  501    0  0.00000000000E+00  0.00000000000E+00  0.21859916383E+04  0.21859916383E+04  0.25500000000E-02 0.  1.
         -2   -1    0    0    0  501 -0.00000000000E+00 -0.00000000000E+00 -0.30404615443E+02  0.30404615549E+02  0.25500000000E-02 0. -1.
    5000001    1    1    2    0    0 -0.54300142947E+02  0.12064555032E+03  0.66193368590E+03  0.70374786598E+03  0.19900000000E+03 0.  0.
   -5000001    1    1    2    0    0  0.54300142947E+02 -0.12064555032E+03  0.14936533369E+04  0.15126483879E+04  0.19900000000E+03 0.  0.
<mgrwt>
<rscale>  0 0.51561317E+03</rscale>
<asrwt>0</asrwt>
<pdfrwt beam="1">  1        2 0.31228452E+00 0.51561317E+03</pdfrwt>
<pdfrwt beam="2">  1       -2 0.43435165E-02 0.51561317E+03</pdfrwt>
<totfact> 0.17111877E+03</totfact>
</mgrwt>
</event>
<event>
 4    1  0.4998754E-005  0.7064076E+03  0.7818608E-02  0.9706337E-01
         -2   -1    0    0    0  501 -0.00000000000E+00  0.00000000000E+00  0.58028420540E+02  0.58028420596E+02  0.25500000000E-02 0. -1.
          2   -1    0    0  501    0  0.00000000000E+00 -0.00000000000E+00 -0.21498587586E+04  0.21498587586E+04  0.25500000000E-02 0.  1.
    5000001    1    1    2    0    0 -0.11584007855E+03  0.26761741761E+03 -0.10125581218E+04  0.10723399442E+04  0.19900000000E+03 0.  0.
   -5000001    1    1    2    0    0  0.11584007855E+03 -0.26761741761E+03 -0.10792722162E+04  0.11355472349E+04  0.19900000000E+03 0.  0.
<mgrwt>
<rscale>  0 0.70640755E+03</rscale>
<asrwt>0</asrwt>
<pdfrwt beam="1">  1        2 0.30712263E+00 0.70640755E+03</pdfrwt>
<pdfrwt beam="2">  1       -2 0.82897757E-02 0.70640755E+03</pdfrwt>
<totfact> 0.64043245E+02</totfact>
</mgrwt>
</event>
<event>
 4    1  0.4998754E-005  0.8550550E+03  0.7818608E-02  0.9483577E-01
          2   -1    0    0  501    0  0.00000000000E+00  0.00000000000E+00  0.43075493090E+03  0.43075493091E+03  0.25500000000E-02 0.  1.
         -2   -1    0    0    0  501 -0.00000000000E+00 -0.00000000000E+00 -0.42432422084E+03  0.42432422084E+03  0.25500000000E-02 0. -1.
    5000001    1    1    2    0    0  0.35466045253E+03  0.16469541839E+02  0.13407572559E+03  0.42852372466E+03  0.19900000000E+03 0.  0.
   -5000001    1    1    2    0    0 -0.35466045253E+03 -0.16469541839E+02 -0.12764501552E+03  0.42655542710E+03  0.19900000000E+03 0.  0.
<mgrwt>
<rscale>  0 0.85505497E+03</rscale>
<asrwt>0</asrwt>
<pdfrwt beam="1">  1        2 0.61536419E-01 0.85505497E+03</pdfrwt>
<pdfrwt beam="2">  1       -2 0.60617746E-01 0.85505497E+03</pdfrwt>
<totfact> 0.20271111E+02</totfact>
</mgrwt>
</event>
<event>
 4    1  0.4998754E-005  0.5807725E+03  0.7818608E-02  0.9946120E-01
         -2   -1    0    0    0  501 -0.00000000000E+00  0.00000000000E+00  0.10768129459E+03  0.10768129463E+03  0.25500000000E-02 0. -1.
          2   -1    0    0  501    0  0.00000000000E+00 -0.00000000000E+00 -0.78309038914E+03  0.78309038914E+03  0.25500000000E-02 0.  1.
    5000001    1    1    2    0    0 -0.16276638415E+01  0.91830478166E+02 -0.45531565440E+02  0.22385175778E+03  0.19900000000E+03 0.  0.
   -5000001    1    1    2    0    0  0.16276638415E+01 -0.91830478166E+02 -0.62987752910E+03  0.66691992599E+03  0.19900000000E+03 0.  0.
<mgrwt>
<rscale>  0 0.58077254E+03</rscale>
<asrwt>0</asrwt>
<pdfrwt beam="1">  1        2 0.11187005E+00 0.58077254E+03</pdfrwt>
<pdfrwt beam="2">  1       -2 0.15383043E-01 0.58077254E+03</pdfrwt>
<totfact> 0.13138882E+03</totfact>
</mgrwt>
</event>
<event>
 4    1  0.4998754E-005  0.8180997E+03  0.7818608E-02  0.9534182E-01
          2   -1    0    0  501    0  0.00000000000E+00  0.00000000000E+00  0.15676564632E+04  0.15676564632E+04  0.25500000000E-02 0.  1.
         -2   -1    0    0    0  501 -0.00000000000E+00 -0.00000000000E+00 -0.10673370070E+03  0.10673370073E+03  0.25500000000E-02 0. -1.
    5000001    1    1    2    0    0 -0.35337916239E+03  0.49421786121E+02  0.77146815228E+03  0.87297391446E+03  0.19900000000E+03 0.  0.
   -5000001    1    1    2    0    0  0.35337916239E+03 -0.49421786121E+02  0.68945461019E+03  0.80141624944E+03  0.19900000000E+03 0.  0.
<mgrwt>
<rscale>  0 0.81809969E+03</rscale>
<asrwt>0</asrwt>
<pdfrwt beam="1">  1        2 0.22395091E+00 0.81809969E+03</pdfrwt>
<pdfrwt beam="2">  1       -2 0.15247673E-01 0.81809969E+03</pdfrwt>
<totfact> 0.46200487E+02</totfact>
</mgrwt>
</event>
<event>
 4    1  0.4998754E-005  0.9510078E+03  0.7818608E-02  0.9363973E-01
          2   -1    0    0  501    0  0.00000000000E+00  0.00000000000E+00  0.62034021536E+03  0.62034021536E+03  0.25500000000E-02 0.  1.
         -2   -1    0    0    0  501 -0.00000000000E+00 -0.00000000000E+00 -0.36448379796E+03  0.36448379797E+03  0.25500000000E-02 0. -1.
    5000001    1    1    2    0    0 -0.42225100647E+03 -0.85204230003E+02  0.15980060786E+03  0.50069242809E+03  0.19900000000E+03 0.  0.
   -5000001    1    1    2    0    0  0.42225100647E+03  0.85204230003E+02  0.96055809540E+02  0.48413158524E+03  0.19900000000E+03 0.  0.
<mgrwt>
<rscale>  0 0.95100780E+03</rscale>
<asrwt>0</asrwt>
<pdfrwt beam="1">  1        2 0.88620031E-01 0.95100780E+03</pdfrwt>
<pdfrwt beam="2">  1       -2 0.52069114E-01 0.95100780E+03</pdfrwt>
<totfact> 0.18170810E+02</totfact>
</mgrwt>
</event>
<event>
 4    1  0.4998754E-005  0.5420631E+03  0.7818608E-02  0.1003348E+00
          2   -1    0    0  501    0  0.00000000000E+00  0.00000000000E+00  0.10498157266E+03  0.10498157269E+03  0.25500000000E-02 0.  1.
         -2   -1    0    0    0  501 -0.00000000000E+00 -0.00000000000E+00 -0.69972371244E+03  0.69972371244E+03  0.25500000000E-02 0. -1.
    5000001    1    1    2    0    0  0.90922921257E+02  0.10920562255E+03 -0.12383892803E+03  0.27409838690E+03  0.19900000000E+03 0.  0.
   -5000001    1    1    2    0    0 -0.90922921257E+02 -0.10920562255E+03 -0.47090321176E+03  0.53060689823E+03  0.19900000000E+03 0.  0.
<mgrwt>
<rscale>  0 0.54206308E+03</rscale>
<asrwt>0</asrwt>
<pdfrwt beam="1">  1        2 0.14997368E-01 0.54206308E+03</pdfrwt>
<pdfrwt beam="2">  1       -2 0.99960528E-01 0.54206308E+03</pdfrwt>
<totfact> 0.33538683E+02</totfact>
</mgrwt>
</event>
<event>
 4    1  0.4998754E-005  0.5229026E+03  0.7818608E-02  0.1007968E+00
          2   -1    0    0  501    0  0.00000000000E+00  0.00000000000E+00  0.48374948313E+04  0.48374948313E+04  0.25500000000E-02 0.  1.
         -2   -1    0    0    0  501 -0.00000000000E+00 -0.00000000000E+00 -0.14130613423E+02  0.14130613653E+02  0.25500000000E-02 0. -1.
    5000001    1    1    2    0    0  0.11126545417E+03  0.12469616958E+03  0.21449206252E+04  0.21606051524E+04  0.19900000000E+03 0.  0.
   -5000001    1    1    2    0    0 -0.11126545417E+03 -0.12469616958E+03  0.26784435926E+04  0.26910202925E+04  0.19900000000E+03 0.  0.
<mgrwt>
<rscale>  0 0.52290255E+03</rscale>
<asrwt>0</asrwt>
<pdfrwt beam="1">  1        2 0.69107130E+00 0.52290255E+03</pdfrwt>
<pdfrwt beam="2">  1       -2 0.20186573E-02 0.52290255E+03</pdfrwt>
<totfact> 0.12221298E+02</totfact>
</mgrwt>
</event>
<event>
 4    1  0.4998754E-005  0.6266473E+03  0.7818608E-02  0.9851613E-01
          2   -1    0    0  501    0  0.00000000000E+00  0.00000000000E+00  0.58177778759E+03  0.58177778760E+03  0.25500000000E-02 0.  1.
         -2   -1    0    0    0  501 -0.00000000000E+00 -0.00000000000E+00 -0.16874431767E+03  0.16874431769E+03  0.25500000000E-02 0. -1.
    5000001    1    1    2    0    0  0.56592849883E+02  0.19188593864E+03  0.43404796662E+02  0.28549595527E+03  0.19900000000E+03 0.  0.
   -5000001    1    1    2    0    0 -0.56592849883E+02 -0.19188593864E+03  0.36962867326E+03  0.46502615001E+03  0.19900000000E+03 0.  0.
<mgrwt>
<rscale>  0 0.62664726E+03</rscale>
<asrwt>0</asrwt>
<pdfrwt beam="1">  1        2 0.83111112E-01 0.62664726E+03</pdfrwt>
<pdfrwt beam="2">  1       -2 0.24106331E-01 0.62664726E+03</pdfrwt>
<totfact> 0.86402757E+02</totfact>
</mgrwt>
</event>
<event>
 4    1  0.4998754E-005  0.6025189E+03  0.7818608E-02  0.9900194E-01
          2   -1    0    0  501    0  0.00000000000E+00  0.00000000000E+00  0.38328082725E+03  0.38328082726E+03  0.25500000000E-02 0.  1.
         -2   -1    0    0    0  501 -0.00000000000E+00 -0.00000000000E+00 -0.23679048011E+03  0.23679048012E+03  0.25500000000E-02 0. -1.
    5000001    1    1    2    0    0 -0.12849935185E+03  0.88501646958E+02  0.24175784017E+03  0.34984636374E+03  0.19900000000E+03 0.  0.
   -5000001    1    1    2    0    0  0.12849935185E+03 -0.88501646958E+02 -0.95267493022E+02  0.27022494364E+03  0.19900000000E+03 0.  0.
<mgrwt>
<rscale>  0 0.60251888E+03</rscale>
<asrwt>0</asrwt>
<pdfrwt beam="1">  1        2 0.54754403E-01 0.60251888E+03</pdfrwt>
<pdfrwt beam="2">  1       -2 0.33827212E-01 0.60251888E+03</pdfrwt>
<totfact> 0.74508976E+02</totfact>
</mgrwt>
</event>
<event>
 4    1  0.4998754E-005  0.9449912E+03  0.7818608E-02  0.9371024E-01
          2   -1    0    0  501    0  0.00000000000E+00  0.00000000000E+00  0.21497213524E+04  0.21497213524E+04  0.25500000000E-02 0.  1.
         -2   -1    0    0    0  501 -0.00000000000E+00 -0.00000000000E+00 -0.10385163752E+03  0.10385163755E+03  0.25500000000E-02 0. -1.
    5000001    1    1    2    0    0 -0.30196274951E+03  0.95237796074E+01  0.17477549365E+04  0.17848026565E+04  0.19900000000E+03 0.  0.
   -5000001    1    1    2    0    0  0.30196274951E+03 -0.95237796074E+01  0.29811477838E+03  0.46877033349E+03  0.19900000000E+03 0.  0.
<mgrwt>
<rscale>  0 0.94499118E+03</rscale>
<asrwt>0</asrwt>
<pdfrwt beam="1">  1        2 0.30710309E+00 0.94499118E+03</pdfrwt>
<pdfrwt beam="2">  1       -2 0.14835946E-01 0.94499118E+03</pdfrwt>
<totfact> 0.24174331E+02</totfact>
</mgrwt>
</event>
<event>
 4    1  0.4998754E-005  0.7258704E+03  0.7818608E-02  0.9673985E-01
          2   -1    0    0  501    0  0.00000000000E+00  0.00000000000E+00  0.14535630650E+03  0.14535630652E+03  0.25500000000E-02 0.  1.
         -2   -1    0    0    0  501 -0.00000000000E+00 -0.00000000000E+00 -0.90620059486E+03  0.90620059486E+03  0.25500000000E-02 0. -1.
    5000001    1    1    2    0    0  0.41706109144E+02  0.98283486519E+02 -0.79201652298E+03  0.82358376377E+03  0.19900000000E+03 0.  0.
   -5000001    1    1    2    0    0 -0.41706109144E+02 -0.98283486519E+02  0.31172234622E+02  0.22797313761E+03  0.19900000000E+03 0.  0.
<mgrwt>
<rscale>  0 0.72587043E+03</rscale>
<asrwt>0</asrwt>
<pdfrwt beam="1">  1        2 0.20765187E-01 0.72587043E+03</pdfrwt>
<pdfrwt beam="2">  1       -2 0.12945722E+00 0.72587043E+03</pdfrwt>
<totfact> 0.12060887E+02</totfact>
</mgrwt>
</event>
<event>
 4    1  0.4998754E-005  0.5978302E+03  0.7818608E-02  0.9909918E-01
          2   -1    0    0  501    0  0.00000000000E+00  0.00000000000E+00  0.15034329166E+04  0.15034329166E+04  0.25500000000E-02 0.  1.
         -2   -1    0    0    0  501 -0.00000000000E+00 -0.00000000000E+00 -0.59430808255E+02  0.59430808310E+02  0.25500000000E-02 0. -1.
    5000001    1    1    2    0    0 -0.11317394072E+03 -0.19013376755E+03  0.64852114030E+03  0.71354037015E+03  0.19900000000E+03 0.  0.
   -5000001    1    1    2    0    0  0.11317394072E+03  0.19013376755E+03  0.79548096805E+03  0.84932335477E+03  0.19900000000E+03 0.  0.
<mgrwt>
<rscale>  0 0.59783019E+03</rscale>
<asrwt>0</asrwt>
<pdfrwt beam="1">  1        2 0.21477611E+00 0.59783019E+03</pdfrwt>
<pdfrwt beam="2">  1       -2 0.84901164E-02 0.59783019E+03</pdfrwt>
<totfact> 0.13209706E+03</totfact>
</mgrwt>
</event>
<event>
 4    1  0.4998754E-005  0.8144459E+03  0.7818608E-02  0.9539339E-01
         -2   -1    0    0    0  501 -0.00000000000E+00  0.00000000000E+00  0.61854238211E+03  0.61854238212E+03  0.25500000000E-02 0.  1.
          2   -1    0    0  501    0  0.00000000000E+00 -0.00000000000E+00 -0.26809889003E+03  0.26809889005E+03  0.25500000000E-02 0. -1.
    5000001    1    1    2    0    0  0.24128864927E+03  0.22323627855E+03  0.32198639420E+03  0.50132911982E+03  0.19900000000E+03 0.  0.
   -5000001    1    1    2    0    0 -0.24128864927E+03 -0.22323627855E+03  0.28457097879E+02  0.38531215235E+03  0.19900000000E+03 0.  0.
<mgrwt>
<rscale>  0 0.81444589E+03</rscale>
<asrwt>0</asrwt>
<pdfrwt beam="1">  1        2 0.38299841E-01 0.81444589E+03</pdfrwt>
<pdfrwt beam="2">  1       -2 0.88363199E-01 0.81444589E+03</pdfrwt>
<totfact> 0.15007881E+02</totfact>
</mgrwt>
</event>
<event>
 4    1  0.4998754E-005  0.4885861E+03  0.7818608E-02  0.1016802E+00
         -2   -1    0    0    0  501 -0.00000000000E+00  0.00000000000E+00  0.18454190500E+02  0.18454190676E+02  0.25500000000E-02 0. -1.
          2   -1    0    0  501    0  0.00000000000E+00 -0.00000000000E+00 -0.32339041393E+04  0.32339041393E+04  0.25500000000E-02 0.  1.
    5000001    1    1    2    0    0  0.89394649698E+02  0.59793335701E+02 -0.99359716533E+03  0.10190205952E+04  0.19900000000E+03 0.  0.
   -5000001    1    1    2    0    0 -0.89394649698E+02 -0.59793335701E+02 -0.22218527835E+04  0.22333377348E+04  0.19900000000E+03 0.  0.
<mgrwt>
<rscale>  0 0.48858606E+03</rscale>
<asrwt>0</asrwt>
<pdfrwt beam="1">  1        2 0.46198594E+00 0.48858606E+03</pdfrwt>
<pdfrwt beam="2">  1       -2 0.26363150E-02 0.48858606E+03</pdfrwt>
<totfact> 0.10340626E+03</totfact>
</mgrwt>
</event>
<event>
 4    1  0.4998754E-005  0.7467906E+03  0.7818608E-02  0.9640399E-01
          2   -1    0    0  501    0  0.00000000000E+00  0.00000000000E+00  0.11844607264E+04  0.11844607264E+04  0.25500000000E-02 0.  1.
         -2   -1    0    0    0  501 -0.00000000000E+00 -0.00000000000E+00 -0.11771098292E+03  0.11771098294E+03  0.25500000000E-02 0. -1.
    5000001    1    1    2    0    0 -0.28670977581E+02 -0.23168481794E+03  0.90459328387E+03  0.95519102228E+03  0.19900000000E+03 0.  0.
   -5000001    1    1    2    0    0  0.28670977581E+02  0.23168481794E+03  0.16215645966E+03  0.34698068711E+03  0.19900000000E+03 0.  0.
<mgrwt>
<rscale>  0 0.74679056E+03</rscale>
<asrwt>0</asrwt>
<pdfrwt beam="1">  1        2 0.16920868E+00 0.74679056E+03</pdfrwt>
<pdfrwt beam="2">  1       -2 0.16815854E-01 0.74679056E+03</pdfrwt>
<totfact> 0.63219646E+02</totfact>
</mgrwt>
</event>
<event>
 4    1  0.4998754E-005  0.5234710E+03  0.7818608E-02  0.1007828E+00
          2   -1    0    0  501    0  0.00000000000E+00  0.00000000000E+00  0.12627866515E+03  0.12627866517E+03  0.25500000000E-02 0.  1.
         -2   -1    0    0    0  501 -0.00000000000E+00 -0.00000000000E+00 -0.54249439060E+03  0.54249439061E+03  0.25500000000E-02 0. -1.
    5000001    1    1    2    0    0 -0.51789265748E+02 -0.80592414210E+02 -0.28668010495E+02  0.22271084415E+03  0.19900000000E+03 0.  0.
   -5000001    1    1    2    0    0  0.51789265748E+02  0.80592414210E+02 -0.38754771496E+03  0.44606221163E+03  0.19900000000E+03 0.  0.
<mgrwt>
<rscale>  0 0.52347098E+03</rscale>
<asrwt>0</asrwt>
<pdfrwt beam="1">  1        2 0.18039810E-01 0.52347098E+03</pdfrwt>
<pdfrwt beam="2">  1       -2 0.77499197E-01 0.52347098E+03</pdfrwt>
<totfact> 0.48086022E+02</totfact>
</mgrwt>
</event>
<event>
 4    1  0.4998754E-005  0.4586622E+03  0.7818608E-02  0.1025170E+00
         -2   -1    0    0    0  501 -0.00000000000E+00  0.00000000000E+00  0.39176340051E+03  0.39176340052E+03  0.25500000000E-02 0. -1.
          2   -1    0    0  501    0  0.00000000000E+00 -0.00000000000E+00 -0.13424623591E+03  0.13424623593E+03  0.25500000000E-02 0.  1.
    5000001    1    1    2    0    0  0.52451016573E+02 -0.20942347434E+02  0.24230139124E+03  0.31859167480E+03  0.19900000000E+03 0.  0.
   -5000001    1    1    2    0    0 -0.52451016573E+02  0.20942347434E+02  0.15215773364E+02  0.20741796165E+03  0.19900000000E+03 0.  0.
<mgrwt>
<rscale>  0 0.45866224E+03</rscale>
<asrwt>0</asrwt>
<pdfrwt beam="1">  1        2 0.19178034E-01 0.45866224E+03</pdfrwt>
<pdfrwt beam="2">  1       -2 0.55966201E-01 0.45866224E+03</pdfrwt>
<totfact> 0.89765216E+02</totfact>
</mgrwt>
</event>
<event>
 4    1  0.4998754E-005  0.6177772E+03  0.7818608E-02  0.9869195E-01
         -2   -1    0    0    0  501 -0.00000000000E+00  0.00000000000E+00  0.80958810202E+03  0.80958810202E+03  0.25500000000E-02 0. -1.
          2   -1    0    0  501    0  0.00000000000E+00 -0.00000000000E+00 -0.11785273203E+03  0.11785273205E+03  0.25500000000E-02 0.  1.
    5000001    1    1    2    0    0  0.28221299322E+02 -0.22232827022E+03  0.23367596782E+03  0.38004178640E+03  0.19900000000E+03 0.  0.
   -5000001    1    1    2    0    0 -0.28221299322E+02  0.22232827022E+03  0.45805940217E+03  0.54739904767E+03  0.19900000000E+03 0.  0.
<mgrwt>
<rscale>  0 0.61777721E+03</rscale>
<asrwt>0</asrwt>
<pdfrwt beam="1">  1        2 0.16836104E-01 0.61777721E+03</pdfrwt>
<pdfrwt beam="2">  1       -2 0.11565545E+00 0.61777721E+03</pdfrwt>
<totfact> 0.20533756E+02</totfact>
</mgrwt>
</event>
<event>
 4    1  0.4998754E-005  0.6213564E+03  0.7818608E-02  0.9862063E-01
         -2   -1    0    0    0  501 -0.00000000000E+00  0.00000000000E+00  0.32461642332E+02  0.32461642432E+02  0.25500000000E-02 0. -1.
          2   -1    0    0  501    0  0.00000000000E+00 -0.00000000000E+00 -0.29733845717E+04  0.29733845717E+04  0.25500000000E-02 0.  1.
    5000001    1    1    2    0    0 -0.22556169804E+03  0.51182682479E+02 -0.11874665246E+04  0.12260405759E+04  0.19900000000E+03 0.  0.
   -5000001    1    1    2    0    0  0.22556169804E+03 -0.51182682479E+02 -0.17534564047E+04  0.17798056382E+04  0.19900000000E+03 0.  0.
<mgrwt>
<rscale>  0 0.62135641E+03</rscale>
<asrwt>0</asrwt>
<pdfrwt beam="1">  1        2 0.42476905E+00 0.62135641E+03</pdfrwt>
<pdfrwt beam="2">  1       -2 0.46373794E-02 0.62135641E+03</pdfrwt>
<totfact> 0.60015165E+02</totfact>
</mgrwt>
</event>
<event>
 4    1  0.4998754E-005  0.6594383E+03  0.7818608E-02  0.9789228E-01
         -2   -1    0    0    0  501 -0.00000000000E+00  0.00000000000E+00  0.16632059420E+03  0.16632059422E+03  0.25500000000E-02 0. -1.
          2   -1    0    0  501    0  0.00000000000E+00 -0.00000000000E+00 -0.65364549547E+03  0.65364549548E+03  0.25500000000E-02 0.  1.
    5000001    1    1    2    0    0  0.21136010428E+03  0.73324123271E+02 -0.41534687038E+03  0.51201908506E+03  0.19900000000E+03 0.  0.
   -5000001    1    1    2    0    0 -0.21136010428E+03 -0.73324123271E+02 -0.71978030890E+02  0.30794700464E+03  0.19900000000E+03 0.  0.
<mgrwt>
<rscale>  0 0.65943827E+03</rscale>
<asrwt>0</asrwt>
<pdfrwt beam="1">  1        2 0.93377927E-01 0.65943827E+03</pdfrwt>
<pdfrwt beam="2">  1       -2 0.23760085E-01 0.65943827E+03</pdfrwt>
<totfact> 0.77167994E+02</totfact>
</mgrwt>
</event>
<event>
 4    1  0.4998754E-005  0.9025816E+03  0.7818608E-02  0.9422360E-01
         -2   -1    0    0    0  501 -0.00000000000E+00  0.00000000000E+00  0.58360247456E+02  0.58360247511E+02  0.25500000000E-02 0. -1.
          2   -1    0    0  501    0  0.00000000000E+00 -0.00000000000E+00 -0.34897623203E+04  0.34897623203E+04  0.25500000000E-02 0.  1.
    5000001    1    1    2    0    0  0.38616296913E+02 -0.40279936061E+03 -0.16449580046E+04  0.17056454439E+04  0.19900000000E+03 0.  0.
   -5000001    1    1    2    0    0 -0.38616296913E+02  0.40279936061E+03 -0.17864440683E+04  0.18424771240E+04  0.19900000000E+03 0.  0.
<mgrwt>
<rscale>  0 0.90258161E+03</rscale>
<asrwt>0</asrwt>
<pdfrwt beam="1">  1        2 0.49853734E+00 0.90258161E+03</pdfrwt>
<pdfrwt beam="2">  1       -2 0.83371804E-02 0.90258161E+03</pdfrwt>
<totfact> 0.11749224E+02</totfact>
</mgrwt>
</event>
<event>
 4    1  0.4998754E-005  0.6161809E+03  0.7818608E-02  0.9872393E-01
          2   -1    0    0  501    0  0.00000000000E+00  0.00000000000E+00  0.37717793821E+02  0.37717793907E+02  0.25500000000E-02 0.  1.
         -2   -1    0    0    0  501 -0.00000000000E+00 -0.00000000000E+00 -0.25165764789E+04  0.25165764789E+04  0.25500000000E-02 0. -1.
    5000001    1    1    2    0    0 -0.66909943712E+02 -0.22543903355E+03 -0.12575054432E+04  0.12946893983E+04  0.19900000000E+03 0.  0.
   -5000001    1    1    2    0    0  0.66909943712E+02  0.22543903355E+03 -0.12213532419E+04  0.12596048745E+04  0.19900000000E+03 0.  0.
<mgrwt>
<rscale>  0 0.61618086E+03</rscale>
<asrwt>0</asrwt>
<pdfrwt beam="1">  1        2 0.53882579E-02 0.61618086E+03</pdfrwt>
<pdfrwt beam="2">  1       -2 0.35951082E+00 0.61618086E+03</pdfrwt>
<totfact> 0.21758842E+01</totfact>
</mgrwt>
</event>
<event>
 4    1  0.4998754E-005  0.6949478E+03  0.7818608E-02  0.9725911E-01
          2   -1    0    0  501    0  0.00000000000E+00  0.00000000000E+00  0.34920599072E+03  0.34920599073E+03  0.25500000000E-02 0.  1.
         -2   -1    0    0    0  501 -0.00000000000E+00 -0.00000000000E+00 -0.34575042049E+03  0.34575042050E+03  0.25500000000E-02 0. -1.
    5000001    1    1    2    0    0  0.11929018607E+03 -0.17542631088E+03  0.19181585015E+03  0.34842339102E+03  0.19900000000E+03 0.  0.
   -5000001    1    1    2    0    0 -0.11929018607E+03  0.17542631088E+03 -0.18836027992E+03  0.34653302021E+03  0.19900000000E+03 0.  0.
<mgrwt>
<rscale>  0 0.69494782E+03</rscale>
<asrwt>0</asrwt>
<pdfrwt beam="1">  1        2 0.49886570E-01 0.69494782E+03</pdfrwt>
<pdfrwt beam="2">  1       -2 0.49392917E-01 0.69494782E+03</pdfrwt>
<totfact> 0.39377101E+02</totfact>
</mgrwt>
</event>
<event>
 4    1  0.4998754E-005  0.8334865E+03  0.7818608E-02  0.9512773E-01
         -2   -1    0    0    0  501 -0.00000000000E+00  0.00000000000E+00  0.36832688300E+03  0.36832688301E+03  0.25500000000E-02 0. -1.
          2   -1    0    0  501    0  0.00000000000E+00 -0.00000000000E+00 -0.47152396374E+03  0.47152396375E+03  0.25500000000E-02 0.  1.
    5000001    1    1    2    0    0 -0.11656799813E+03 -0.34195244973E+03  0.84752790622E+01  0.41254382363E+03  0.19900000000E+03 0.  0.
   -5000001    1    1    2    0    0  0.11656799813E+03  0.34195244973E+03 -0.11167235980E+03  0.42730702312E+03  0.19900000000E+03 0.  0.
<mgrwt>
<rscale>  0 0.83348654E+03</rscale>
<asrwt>0</asrwt>
<pdfrwt beam="1">  1        2 0.67360566E-01 0.83348654E+03</pdfrwt>
<pdfrwt beam="2">  1       -2 0.52618126E-01 0.83348654E+03</pdfrwt>
<totfact> 0.24604479E+02</totfact>
</mgrwt>
</event>
<event>
 4    1  0.4998754E-005  0.8127586E+03  0.7818608E-02  0.9541731E-01
          2   -1    0    0  501    0  0.00000000000E+00  0.00000000000E+00  0.82307387079E+03  0.82307387080E+03  0.25500000000E-02 0.  1.
         -2   -1    0    0    0  501 -0.00000000000E+00 -0.00000000000E+00 -0.20064315835E+03  0.20064315836E+03  0.25500000000E-02 0. -1.
    5000001    1    1    2    0    0  0.24519457757E+03  0.23506850077E+03  0.43820959010E+03  0.58907234342E+03  0.19900000000E+03 0.  0.
   -5000001    1    1    2    0    0 -0.24519457757E+03 -0.23506850077E+03  0.18422112235E+03  0.43464468574E+03  0.19900000000E+03 0.  0.
<mgrwt>
<rscale>  0 0.81275861E+03</rscale>
<asrwt>0</asrwt>
<pdfrwt beam="1">  1        2 0.11758198E+00 0.81275861E+03</pdfrwt>
<pdfrwt beam="2">  1       -2 0.28663308E-01 0.81275861E+03</pdfrwt>
<totfact> 0.40966757E+02</totfact>
</mgrwt>
</event>
<event>
 4    1  0.4998754E-005  0.4003715E+03  0.7818608E-02  0.1043651E+00
         -2   -1    0    0    0  501 -0.00000000000E+00  0.00000000000E+00  0.44011406812E+02  0.44011406885E+02  0.25500000000E-02 0.  1.
          2   -1    0    0  501    0  0.00000000000E+00 -0.00000000000E+00 -0.91054414040E+03  0.91054414041E+03  0.25500000000E-02 0. -1.
    5000001    1    1    2    0    0  0.21255544228E+02 -0.39921802213E+01 -0.43890480486E+03  0.48239627216E+03  0.19900000000E+03 0.  0.
   -5000001    1    1    2    0    0 -0.21255544228E+02  0.39921802213E+01 -0.42762792873E+03  0.47215927513E+03  0.19900000000E+03 0.  0.
<mgrwt>
<rscale>  0 0.40037147E+03</rscale>
<asrwt>0</asrwt>
<pdfrwt beam="1">  1        2 0.13007772E+00 0.40037147E+03</pdfrwt>
<pdfrwt beam="2">  1       -2 0.62873444E-02 0.40037147E+03</pdfrwt>
<totfact> 0.45747926E+03</totfact>
</mgrwt>
</event>
<event>
 4    1  0.4998754E-005  0.5178687E+03  0.7818608E-02  0.1009217E+00
         -2   -1    0    0    0  501 -0.00000000000E+00  0.00000000000E+00  0.44492818652E+02  0.44492818725E+02  0.25500000000E-02 0.  1.
          2   -1    0    0  501    0  0.00000000000E+00 -0.00000000000E+00 -0.15069174355E+04  0.15069174355E+04  0.25500000000E-02 0. -1.
    5000001    1    1    2    0    0  0.12897325281E+03  0.10118175168E+03 -0.65942916614E+03  0.70803931527E+03  0.19900000000E+03 0.  0.
   -5000001    1    1    2    0    0 -0.12897325281E+03 -0.10118175168E+03 -0.80299545069E+03  0.84337093894E+03  0.19900000000E+03 0.  0.
<mgrwt>
<rscale>  0 0.51786873E+03</rscale>
<asrwt>0</asrwt>
<pdfrwt beam="1">  1        2 0.21527389E+00 0.51786873E+03</pdfrwt>
<pdfrwt beam="2">  1       -2 0.63561179E-02 0.51786873E+03</pdfrwt>
<totfact> 0.20850260E+03</totfact>
</mgrwt>
</event>
<event>
 4    1  0.4998754E-005  0.5638103E+03  0.7818608E-02  0.9983470E-01
         -2   -1    0    0    0  501 -0.00000000000E+00  0.00000000000E+00  0.14485489816E+03  0.14485489819E+03  0.25500000000E-02 0. -1.
          2   -1    0    0  501    0  0.00000000000E+00 -0.00000000000E+00 -0.54862156800E+03  0.54862156801E+03  0.25500000000E-02 0.  1.
    5000001    1    1    2    0    0  0.14845577086E+03  0.11596782466E+03 -0.12046384052E+03  0.29933290687E+03  0.19900000000E+03 0.  0.
   -5000001    1    1    2    0    0 -0.14845577086E+03 -0.11596782466E+03 -0.28330282932E+03  0.39414355933E+03  0.19900000000E+03 0.  0.
<mgrwt>
<rscale>  0 0.56381033E+03</rscale>
<asrwt>0</asrwt>
<pdfrwt beam="1">  1        2 0.78374509E-01 0.56381033E+03</pdfrwt>
<pdfrwt beam="2">  1       -2 0.20693557E-01 0.56381033E+03</pdfrwt>
<totfact> 0.12123073E+03</totfact>
</mgrwt>
</event>
<event>
 4    1  0.4998754E-005  0.6905232E+03  0.7818608E-02  0.9733577E-01
         -2   -1    0    0    0  501 -0.00000000000E+00  0.00000000000E+00  0.17244840743E+03  0.17244840745E+03  0.25500000000E-02 0. -1.
          2   -1    0    0  501    0  0.00000000000E+00 -0.00000000000E+00 -0.69125364055E+03  0.69125364056E+03  0.25500000000E-02 0.  1.
    5000001    1    1    2    0    0 -0.22265696925E+03  0.14848273449E+03 -0.14765877988E+03  0.36472916482E+03  0.19900000000E+03 0.  0.
   -5000001    1    1    2    0    0  0.22265696925E+03 -0.14848273449E+03 -0.37114645324E+03  0.49897288318E+03  0.19900000000E+03 0.  0.
<mgrwt>
<rscale>  0 0.69052325E+03</rscale>
<asrwt>0</asrwt>
<pdfrwt beam="1">  1        2 0.98750519E-01 0.69052325E+03</pdfrwt>
<pdfrwt beam="2">  1       -2 0.24635487E-01 0.69052325E+03</pdfrwt>
<totfact> 0.67525348E+02</totfact>
</mgrwt>
</event>
<event>
 4    1  0.4998754E-005  0.1298655E+04  0.7818608E-02  0.9030633E-01
         -2   -1    0    0    0  501 -0.00000000000E+00  0.00000000000E+00  0.16858379314E+04  0.16858379314E+04  0.25500000000E-02 0. -1.
          2   -1    0    0  501    0  0.00000000000E+00 -0.00000000000E+00 -0.25009879508E+03  0.25009879509E+03  0.25500000000E-02 0.  1.
    5000001    1    1    2    0    0  0.34572973390E+03  0.26104298610E+01  0.14816229555E+04  0.15343869934E+04  0.19900000000E+03 0.  0.
   -5000001    1    1    2    0    0 -0.34572973390E+03 -0.26104298610E+01 -0.45883819223E+02  0.40154973305E+03  0.19900000000E+03 0.  0.
<mgrwt>
<rscale>  0 0.12986547E+04</rscale>
<asrwt>0</asrwt>
<pdfrwt beam="1">  1        2 0.35728400E-01 0.12986547E+04</pdfrwt>
<pdfrwt beam="2">  1       -2 0.24083399E+00 0.12986547E+04</pdfrwt>
<totfact> 0.10517733E+01</totfact>
</mgrwt>
</event>
<event>
 4    1  0.4998754E-005  0.6981875E+03  0.7818608E-02  0.9720337E-01
          2   -1    0    0  501    0  0.00000000000E+00  0.00000000000E+00  0.40434692218E+03  0.40434692219E+03  0.25500000000E-02 0.  1.
         -2   -1    0    0    0  501 -0.00000000000E+00 -0.00000000000E+00 -0.30139080570E+03  0.30139080571E+03  0.25500000000E-02 0. -1.
    5000001    1    1    2    0    0  0.23349982734E+03  0.14994883956E+03 -0.21822485589E+02  0.34217545898E+03  0.19900000000E+03 0.  0.
   -5000001    1    1    2    0    0 -0.23349982734E+03 -0.14994883956E+03  0.12477860207E+03  0.36356226893E+03  0.19900000000E+03 0.  0.
<mgrwt>
<rscale>  0 0.69818750E+03</rscale>
<asrwt>0</asrwt>
<pdfrwt beam="1">  1        2 0.57763846E-01 0.69818750E+03</pdfrwt>
<pdfrwt beam="2">  1       -2 0.43055829E-01 0.69818750E+03</pdfrwt>
<totfact> 0.44009268E+02</totfact>
</mgrwt>
</event>
<event>
 4    1  0.4998754E-005  0.4822509E+03  0.7818608E-02  0.1018518E+00
          2   -1    0    0  501    0  0.00000000000E+00  0.00000000000E+00  0.22938848480E+04  0.22938848481E+04  0.25500000000E-02 0.  1.
         -2   -1    0    0    0  501 -0.00000000000E+00 -0.00000000000E+00 -0.25346293320E+02  0.25346293448E+02  0.25500000000E-02 0. -1.
    5000001    1    1    2    0    0  0.11625062502E+03  0.36443077935E+02  0.84181054612E+03  0.87354925523E+03  0.19900000000E+03 0.  0.
   -5000001    1    1    2    0    0 -0.11625062502E+03 -0.36443077935E+02  0.14267280086E+04  0.14456818863E+04  0.19900000000E+03 0.  0.
<mgrwt>
<rscale>  0 0.48225088E+03</rscale>
<asrwt>0</asrwt>
<pdfrwt beam="1">  1        2 0.32769793E+00 0.48225088E+03</pdfrwt>
<pdfrwt beam="2">  1       -2 0.36208980E-02 0.48225088E+03</pdfrwt>
<totfact> 0.19989027E+03</totfact>
</mgrwt>
</event>
<event>
 4    1  0.4998754E-005  0.4499615E+03  0.7818608E-02  0.1027734E+00
          2   -1    0    0  501    0  0.00000000000E+00  0.00000000000E+00  0.37443753502E+03  0.37443753503E+03  0.25500000000E-02 0.  1.
         -2   -1    0    0    0  501 -0.00000000000E+00 -0.00000000000E+00 -0.13517967285E+03  0.13517967288E+03  0.25500000000E-02 0. -1.
    5000001    1    1    2    0    0 -0.10431891207E+03  0.25524453126E+01  0.10689594120E+03  0.24883065052E+03  0.19900000000E+03 0.  0.
   -5000001    1    1    2    0    0  0.10431891207E+03 -0.25524453126E+01  0.13236192097E+03  0.26078655739E+03  0.19900000000E+03 0.  0.
<mgrwt>
<rscale>  0 0.44996153E+03</rscale>
<asrwt>0</asrwt>
<pdfrwt beam="1">  1        2 0.53491076E-01 0.44996153E+03</pdfrwt>
<pdfrwt beam="2">  1       -2 0.19311382E-01 0.44996153E+03</pdfrwt>
<totfact> 0.20950643E+03</totfact>
</mgrwt>
</event>
<event>
 4    1  0.4998754E-005  0.6594042E+03  0.7818608E-02  0.9789291E-01
          2   -1    0    0  501    0  0.00000000000E+00  0.00000000000E+00  0.11119777450E+04  0.11119777450E+04  0.25500000000E-02 0.  1.
         -2   -1    0    0    0  501 -0.00000000000E+00 -0.00000000000E+00 -0.97756876288E+02  0.97756876321E+02  0.25500000000E-02 0. -1.
    5000001    1    1    2    0    0  0.11765573667E+03 -0.21431441938E+03  0.68430658475E+03  0.75342554022E+03  0.19900000000E+03 0.  0.
   -5000001    1    1    2    0    0 -0.11765573667E+03  0.21431441938E+03  0.32991428393E+03  0.45630908107E+03  0.19900000000E+03 0.  0.
<mgrwt>
<rscale>  0 0.65940419E+03</rscale>
<asrwt>0</asrwt>
<pdfrwt beam="1">  1        2 0.15885395E+00 0.65940419E+03</pdfrwt>
<pdfrwt beam="2">  1       -2 0.13965269E-01 0.65940419E+03</pdfrwt>
<totfact> 0.95579908E+02</totfact>
</mgrwt>
</event>
<event>
 4    1  0.4998754E-005  0.7844550E+03  0.7818608E-02  0.9582794E-01
          2   -1    0    0  501    0  0.00000000000E+00  0.00000000000E+00  0.39607896825E+03  0.39607896825E+03  0.25500000000E-02 0.  1.
         -2   -1    0    0    0  501 -0.00000000000E+00 -0.00000000000E+00 -0.38841347304E+03  0.38841347305E+03  0.25500000000E-02 0. -1.
    5000001    1    1    2    0    0 -0.80072949649E+02  0.32687809210E+03  0.35146273715E+02  0.39255219388E+03  0.19900000000E+03 0.  0.
   -5000001    1    1    2    0    0  0.80072949649E+02 -0.32687809210E+03 -0.27480778508E+02  0.39194024742E+03  0.19900000000E+03 0.  0.
<mgrwt>
<rscale>  0 0.78445499E+03</rscale>
<asrwt>0</asrwt>
<pdfrwt beam="1">  1        2 0.56582710E-01 0.78445499E+03</pdfrwt>
<pdfrwt beam="2">  1       -2 0.55487639E-01 0.78445499E+03</pdfrwt>
<totfact> 0.26881296E+02</totfact>
</mgrwt>
</event>
<event>
 4    1  0.4998754E-005  0.1400795E+04  0.7818608E-02  0.8953243E-01
          2   -1    0    0  501    0  0.00000000000E+00  0.00000000000E+00  0.12398173360E+04  0.12398173360E+04  0.25500000000E-02 0.  1.
         -2   -1    0    0    0  501 -0.00000000000E+00 -0.00000000000E+00 -0.39566862106E+03  0.39566862107E+03  0.25500000000E-02 0. -1.
    5000001    1    1    2    0    0  0.38240918913E+03 -0.53811496204E+03  0.56578778131E+03  0.89192001535E+03  0.19900000000E+03 0.  0.
   -5000001    1    1    2    0    0 -0.38240918913E+03  0.53811496204E+03  0.27836093362E+03  0.74356594171E+03  0.19900000000E+03 0.  0.
<mgrwt>
<rscale>  0 0.14007952E+04</rscale>
<asrwt>0</asrwt>
<pdfrwt beam="1">  1        2 0.17711677E+00 0.14007952E+04</pdfrwt>
<pdfrwt beam="2">  1       -2 0.56524087E-01 0.14007952E+04</pdfrwt>
<totfact> 0.58042738E+01</totfact>
</mgrwt>
</event>
<event>
 4    1  0.4998754E-005  0.8252718E+03  0.7818608E-02  0.9524141E-01
         -2   -1    0    0    0  501 -0.00000000000E+00  0.00000000000E+00  0.19947724283E+03  0.19947724285E+03  0.25500000000E-02 0. -1.
          2   -1    0    0  501    0  0.00000000000E+00 -0.00000000000E+00 -0.85357306661E+03  0.85357306661E+03  0.25500000000E-02 0.  1.
    5000001    1    1    2    0    0 -0.23786639015E+03  0.44254614893E+02 -0.66974118465E+03  0.73938700619E+03  0.19900000000E+03 0.  0.
   -5000001    1    1    2    0    0  0.23786639015E+03 -0.44254614893E+02  0.15645360883E+02  0.31366330327E+03  0.19900000000E+03 0.  0.
<mgrwt>
<rscale>  0 0.82527184E+03</rscale>
<asrwt>0</asrwt>
<pdfrwt beam="1">  1        2 0.12193901E+00 0.82527184E+03</pdfrwt>
<pdfrwt beam="2">  1       -2 0.28496750E-01 0.82527184E+03</pdfrwt>
<totfact> 0.39458434E+02</totfact>
</mgrwt>
</event>
<event>
 4    1  0.4998754E-005  0.4551986E+03  0.7818608E-02  0.1026183E+00
         -2   -1    0    0    0  501 -0.00000000000E+00  0.00000000000E+00  0.20286190039E+03  0.20286190040E+03  0.25500000000E-02 0. -1.
          2   -1    0    0  501    0  0.00000000000E+00 -0.00000000000E+00 -0.25535327479E+03  0.25535327480E+03  0.25500000000E-02 0.  1.
    5000001    1    1    2    0    0 -0.92200205491E+02  0.34201195985E+02  0.24385250979E+02  0.22330750136E+03  0.19900000000E+03 0.  0.
   -5000001    1    1    2    0    0  0.92200205491E+02 -0.34201195985E+02 -0.76876625376E+02  0.23490767384E+03  0.19900000000E+03 0.  0.
<mgrwt>
<rscale>  0 0.45519864E+03</rscale>
<asrwt>0</asrwt>
<pdfrwt beam="1">  1        2 0.36479039E-01 0.45519864E+03</pdfrwt>
<pdfrwt beam="2">  1       -2 0.28980272E-01 0.45519864E+03</pdfrwt>
<totfact> 0.15526368E+03</totfact>
</mgrwt>
</event>
<event>
 4    1  0.4998754E-005  0.5212793E+03  0.7818608E-02  0.1008369E+00
         -2   -1    0    0    0  501 -0.00000000000E+00  0.00000000000E+00  0.18000636675E+03  0.18000636677E+03  0.25500000000E-02 0. -1.
          2   -1    0    0  501    0  0.00000000000E+00 -0.00000000000E+00 -0.37739237923E+03  0.37739237924E+03  0.25500000000E-02 0.  1.
    5000001    1    1    2    0    0  0.14143855330E+03  0.83026933497E+02 -0.58205234207E+02  0.26436184546E+03  0.19900000000E+03 0.  0.
   -5000001    1    1    2    0    0 -0.14143855330E+03 -0.83026933497E+02 -0.13918077827E+03  0.29303690055E+03  0.19900000000E+03 0.  0.
<mgrwt>
<rscale>  0 0.52127931E+03</rscale>
<asrwt>0</asrwt>
<pdfrwt beam="1">  1        2 0.53913197E-01 0.52127931E+03</pdfrwt>
<pdfrwt beam="2">  1       -2 0.25715195E-01 0.52127931E+03</pdfrwt>
<totfact> 0.12559879E+03</totfact>
</mgrwt>
</event>
<event>
 4    1  0.4998754E-005  0.7218179E+03  0.7818608E-02  0.9680631E-01
          2   -1    0    0  501    0  0.00000000000E+00  0.00000000000E+00  0.43625819478E+03  0.43625819479E+03  0.25500000000E-02 0.  1.
         -2   -1    0    0    0  501 -0.00000000000E+00 -0.00000000000E+00 -0.29857382061E+03  0.29857382062E+03  0.25500000000E-02 0. -1.
    5000001    1    1    2    0    0 -0.22485418697E+03 -0.17177825701E+03 -0.35906584982E+02  0.34778938716E+03  0.19900000000E+03 0.  0.
   -5000001    1    1    2    0    0  0.22485418697E+03  0.17177825701E+03  0.17359095916E+03  0.38704262825E+03  0.19900000000E+03 0.  0.
<mgrwt>
<rscale>  0 0.72181792E+03</rscale>
<asrwt>0</asrwt>
<pdfrwt beam="1">  1        2 0.62322599E-01 0.72181792E+03</pdfrwt>
<pdfrwt beam="2">  1       -2 0.42653403E-01 0.72181792E+03</pdfrwt>
<totfact> 0.41148438E+02</totfact>
</mgrwt>
</event>
<event>
 4    1  0.4998754E-005  0.8497099E+03  0.7818608E-02  0.9490726E-01
          2   -1    0    0  501    0  0.00000000000E+00  0.00000000000E+00  0.58153382664E+03  0.58153382665E+03  0.25500000000E-02 0.  1.
         -2   -1    0    0    0  501 -0.00000000000E+00 -0.00000000000E+00 -0.31038903212E+03  0.31038903213E+03  0.25500000000E-02 0. -1.
    5000001    1    1    2    0    0  0.18117565869E+03 -0.31680963896E+03  0.22772775180E+03  0.47397668253E+03  0.19900000000E+03 0.  0.
   -5000001    1    1    2    0    0 -0.18117565869E+03  0.31680963896E+03  0.43417042720E+02  0.41794617625E+03  0.19900000000E+03 0.  0.
<mgrwt>
<rscale>  0 0.84970988E+03</rscale>
<asrwt>0</asrwt>
<pdfrwt beam="1">  1        2 0.83076261E-01 0.84970988E+03</pdfrwt>
<pdfrwt beam="2">  1       -2 0.44341290E-01 0.84970988E+03</pdfrwt>
<totfact> 0.27268255E+02</totfact>
</mgrwt>
</event>
<event>
 4    1  0.4998754E-005  0.9011438E+03  0.7818608E-02  0.9424153E-01
         -2   -1    0    0    0  501 -0.00000000000E+00  0.00000000000E+00  0.13930399271E+03  0.13930399273E+03  0.25500000000E-02 0. -1.
          2   -1    0    0  501    0  0.00000000000E+00 -0.00000000000E+00 -0.14573525407E+04  0.14573525407E+04  0.25500000000E-02 0.  1.
    5000001    1    1    2    0    0 -0.10326151004E+03 -0.37380119020E+03 -0.45682221194E+03  0.63140937796E+03  0.19900000000E+03 0.  0.
   -5000001    1    1    2    0    0  0.10326151004E+03  0.37380119020E+03 -0.86122633606E+03  0.96524715549E+03  0.19900000000E+03 0.  0.
<mgrwt>
<rscale>  0 0.90114378E+03</rscale>
<asrwt>0</asrwt>
<pdfrwt beam="1">  1        2 0.20819321E+00 0.90114378E+03</pdfrwt>
<pdfrwt beam="2">  1       -2 0.19900571E-01 0.90114378E+03</pdfrwt>
<totfact> 0.33226642E+02</totfact>
</mgrwt>
</event>
<event>
 4    1  0.4998754E-005  0.7233261E+03  0.7818608E-02  0.9678153E-01
          2   -1    0    0  501    0  0.00000000000E+00  0.00000000000E+00  0.73799517045E+03  0.73799517045E+03  0.25500000000E-02 0.  1.
         -2   -1    0    0    0  501 -0.00000000000E+00 -0.00000000000E+00 -0.17723715137E+03  0.17723715139E+03  0.25500000000E-02 0. -1.
    5000001    1    1    2    0    0  0.41862806948E+02  0.26809036945E+03  0.44811847470E+03  0.56038924701E+03  0.19900000000E+03 0.  0.
   -5000001    1    1    2    0    0 -0.41862806948E+02 -0.26809036945E+03  0.11263954437E+03  0.35484307483E+03  0.19900000000E+03 0.  0.
<mgrwt>
<rscale>  0 0.72332610E+03</rscale>
<asrwt>0</asrwt>
<pdfrwt beam="1">  1        2 0.10542788E+00 0.72332610E+03</pdfrwt>
<pdfrwt beam="2">  1       -2 0.25319593E-01 0.72332610E+03</pdfrwt>
<totfact> 0.59222127E+02</totfact>
</mgrwt>
</event>
<event>
 4    1  0.4998754E-005  0.6384191E+03  0.7818608E-02  0.9828756E-01
          2   -1    0    0  501    0  0.00000000000E+00  0.00000000000E+00  0.18785481722E+04  0.18785481722E+04  0.25500000000E-02 0.  1.
         -2   -1    0    0    0  501 -0.00000000000E+00 -0.00000000000E+00 -0.54241214696E+02  0.54241214756E+02  0.25500000000E-02 0. -1.
    5000001    1    1    2    0    0 -0.90580135638E+02  0.20472191158E+03  0.57806223471E+03  0.65105511998E+03  0.19900000000E+03 0.  0.
   -5000001    1    1    2    0    0  0.90580135638E+02 -0.20472191158E+03  0.12462447228E+04  0.12817342670E+04  0.19900000000E+03 0.  0.
<mgrwt>
<rscale>  0 0.63841909E+03</rscale>
<asrwt>0</asrwt>
<pdfrwt beam="1">  1        2 0.26836404E+00 0.63841909E+03</pdfrwt>
<pdfrwt beam="2">  1       -2 0.77487446E-02 0.63841909E+03</pdfrwt>
<totfact> 0.98157473E+02</totfact>
</mgrwt>
</event>
<event>
 4    1  0.4998754E-005  0.6211192E+03  0.7818608E-02  0.9862534E-01
          2   -1    0    0  501    0  0.00000000000E+00  0.00000000000E+00  0.26812807877E+04  0.26812807877E+04  0.25500000000E-02 0.  1.
         -2   -1    0    0    0  501 -0.00000000000E+00 -0.00000000000E+00 -0.35970599492E+02  0.35970599582E+02  0.25500000000E-02 0. -1.
    5000001    1    1    2    0    0 -0.78541085516E+02  0.21815365039E+03  0.10796070049E+04  0.11220124787E+04  0.19900000000E+03 0.  0.
   -5000001    1    1    2    0    0  0.78541085516E+02 -0.21815365039E+03  0.15657031833E+04  0.15952389086E+04  0.19900000000E+03 0.  0.
<mgrwt>
<rscale>  0 0.62111924E+03</rscale>
<asrwt>0</asrwt>
<pdfrwt beam="1">  1        2 0.38304014E+00 0.62111924E+03</pdfrwt>
<pdfrwt beam="2">  1       -2 0.51386567E-02 0.62111924E+03</pdfrwt>
<totfact> 0.73210773E+02</totfact>
</mgrwt>
</event>
<event>
 4    1  0.4998754E-005  0.5406214E+03  0.7818608E-02  0.1003688E+00
          2   -1    0    0  501    0  0.00000000000E+00  0.00000000000E+00  0.82879166979E+02  0.82879167019E+02  0.25500000000E-02 0.  1.
         -2   -1    0    0    0  501 -0.00000000000E+00 -0.00000000000E+00 -0.88161925406E+03  0.88161925407E+03  0.25500000000E-02 0. -1.
    5000001    1    1    2    0    0 -0.80902742744E+02 -0.14268863275E+03 -0.54388479370E+03  0.60192771038E+03  0.19900000000E+03 0.  0.
   -5000001    1    1    2    0    0  0.80902742744E+02  0.14268863275E+03 -0.25485529338E+03  0.36257071070E+03  0.19900000000E+03 0.  0.
<mgrwt>
<rscale>  0 0.54062138E+03</rscale>
<asrwt>0</asrwt>
<pdfrwt beam="1">  1        2 0.11839882E-01 0.54062138E+03</pdfrwt>
<pdfrwt beam="2">  1       -2 0.12594560E+00 0.54062138E+03</pdfrwt>
<totfact> 0.25614540E+02</totfact>
</mgrwt>
</event>
<event>
 4    1  0.4998754E-005  0.4511194E+03  0.7818608E-02  0.1027389E+00
         -2   -1    0    0    0  501 -0.00000000000E+00  0.00000000000E+00  0.41109850795E+03  0.41109850796E+03  0.25500000000E-02 0. -1.
          2   -1    0    0  501    0  0.00000000000E+00 -0.00000000000E+00 -0.12375908982E+03  0.12375908984E+03  0.25500000000E-02 0.  1.
    5000001    1    1    2    0    0  0.30671568395E+01 -0.68634578700E+02  0.23966905486E+03  0.31900214529E+03  0.19900000000E+03 0.  0.
   -5000001    1    1    2    0    0 -0.30671568395E+01  0.68634578700E+02  0.47670363275E+02  0.21585545251E+03  0.19900000000E+03 0.  0.
<mgrwt>
<rscale>  0 0.45111940E+03</rscale>
<asrwt>0</asrwt>
<pdfrwt beam="1">  1        2 0.17679870E-01 0.45111940E+03</pdfrwt>
<pdfrwt beam="2">  1       -2 0.58728358E-01 0.45111940E+03</pdfrwt>
<totfact> 0.89371733E+02</totfact>
</mgrwt>
</event>
<event>
 4    1  0.4998754E-005  0.4273340E+03  0.7818608E-02  0.1034705E+00
          2   -1    0    0  501    0  0.00000000000E+00  0.00000000000E+00  0.60981811269E+03  0.60981811270E+03  0.25500000000E-02 0.  1.
         -2   -1    0    0    0  501 -0.00000000000E+00 -0.00000000000E+00 -0.74864266659E+02  0.74864266702E+02  0.25500000000E-02 0. -1.
    5000001    1    1    2    0    0 -0.64391722261E+02  0.43646923292E+02  0.26569420027E+03  0.34094831847E+03  0.19900000000E+03 0.  0.
   -5000001    1    1    2    0    0  0.64391722261E+02 -0.43646923292E+02  0.26925964576E+03  0.34373406093E+03  0.19900000000E+03 0.  0.
<mgrwt>
<rscale>  0 0.42733399E+03</rscale>
<asrwt>0</asrwt>
<pdfrwt beam="1">  1        2 0.87116875E-01 0.42733399E+03</pdfrwt>
<pdfrwt beam="2">  1       -2 0.10694895E-01 0.42733399E+03</pdfrwt>
<totfact> 0.32392685E+03</totfact>
</mgrwt>
</event>
<event>
 4    1  0.4998754E-005  0.6309057E+03  0.7818608E-02  0.9843283E-01
          2   -1    0    0  501    0  0.00000000000E+00  0.00000000000E+00  0.13470921901E+03  0.13470921904E+03  0.25500000000E-02 0.  1.
         -2   -1    0    0    0  501 -0.00000000000E+00 -0.00000000000E+00 -0.73870597487E+03  0.73870597488E+03  0.25500000000E-02 0. -1.
    5000001    1    1    2    0    0  0.12945321333E+03 -0.73444854513E+02 -0.32995882123E+02  0.25068308546E+03  0.19900000000E+03 0.  0.
   -5000001    1    1    2    0    0 -0.12945321333E+03  0.73444854513E+02 -0.57100087374E+03  0.62273210846E+03  0.19900000000E+03 0.  0.
<mgrwt>
<rscale>  0 0.63090571E+03</rscale>
<asrwt>0</asrwt>
<pdfrwt beam="1">  1        2 0.19244174E-01 0.63090571E+03</pdfrwt>
<pdfrwt beam="2">  1       -2 0.10552942E+00 0.63090571E+03</pdfrwt>
<totfact> 0.21848392E+02</totfact>
</mgrwt>
</event>
<event>
 4    1  0.4998754E-005  0.5146787E+03  0.7818608E-02  0.1010017E+00
          2   -1    0    0  501    0  0.00000000000E+00  0.00000000000E+00  0.79067211298E+03  0.79067211298E+03  0.25500000000E-02 0.  1.
         -2   -1    0    0    0  501 -0.00000000000E+00 -0.00000000000E+00 -0.83756000112E+02  0.83756000151E+02  0.25500000000E-02 0. -1.
    5000001    1    1    2    0    0  0.94006443688E+02  0.12942371265E+03  0.40811197994E+03  0.48139806504E+03  0.19900000000E+03 0.  0.
   -5000001    1    1    2    0    0 -0.94006443688E+02 -0.12942371265E+03  0.29880413292E+03  0.39303004809E+03  0.19900000000E+03 0.  0.
<mgrwt>
<rscale>  0 0.51467867E+03</rscale>
<asrwt>0</asrwt>
<pdfrwt beam="1">  1        2 0.11295317E+00 0.51467867E+03</pdfrwt>
<pdfrwt beam="2">  1       -2 0.11965142E-01 0.51467867E+03</pdfrwt>
<totfact> 0.19720475E+03</totfact>
</mgrwt>
</event>
<event>
 4    1  0.4998754E-005  0.1436294E+04  0.7818608E-02  0.8927958E-01
         -2   -1    0    0    0  501 -0.00000000000E+00  0.00000000000E+00  0.26302059385E+03  0.26302059387E+03  0.25500000000E-02 0. -1.
          2   -1    0    0  501    0  0.00000000000E+00 -0.00000000000E+00 -0.19608171416E+04  0.19608171416E+04  0.25500000000E-02 0.  1.
    5000001    1    1    2    0    0 -0.13906725132E+03  0.64149568802E+03 -0.51943828942E+03  0.86039151243E+03  0.19900000000E+03 0.  0.
   -5000001    1    1    2    0    0  0.13906725132E+03 -0.64149568802E+03 -0.11783582583E+04  0.13634462230E+04  0.19900000000E+03 0.  0.
<mgrwt>
<rscale>  0 0.14362942E+04</rscale>
<asrwt>0</asrwt>
<pdfrwt beam="1">  1        2 0.28011673E+00 0.14362942E+04</pdfrwt>
<pdfrwt beam="2">  1       -2 0.37574372E-01 0.14362942E+04</pdfrwt>
<totfact> 0.54574512E+01</totfact>
</mgrwt>
</event>
<event>
 4    1  0.4998754E-005  0.5927032E+03  0.7818608E-02  0.9920661E-01
          2   -1    0    0  501    0  0.00000000000E+00  0.00000000000E+00  0.17893293369E+04  0.17893293369E+04  0.25500000000E-02 0.  1.
         -2   -1    0    0    0  501 -0.00000000000E+00 -0.00000000000E+00 -0.49082228500E+02  0.49082228566E+02  0.25500000000E-02 0. -1.
    5000001    1    1    2    0    0 -0.43333774088E+02 -0.21049713600E+03  0.73015250826E+03  0.78670867897E+03  0.19900000000E+03 0.  0.
   -5000001    1    1    2    0    0  0.43333774088E+02  0.21049713600E+03  0.10100946001E+04  0.10517028865E+04  0.19900000000E+03 0.  0.
<mgrwt>
<rscale>  0 0.59270320E+03</rscale>
<asrwt>0</asrwt>
<pdfrwt beam="1">  1        2 0.25561851E+00 0.59270320E+03</pdfrwt>
<pdfrwt beam="2">  1       -2 0.70117461E-02 0.59270320E+03</pdfrwt>
<totfact> 0.12787322E+03</totfact>
</mgrwt>
</event>
<event>
 4    1  0.4998754E-005  0.4909866E+03  0.7818608E-02  0.1016159E+00
          2   -1    0    0  501    0  0.00000000000E+00  0.00000000000E+00  0.55228921046E+03  0.55228921047E+03  0.25500000000E-02 0.  1.
         -2   -1    0    0    0  501 -0.00000000000E+00 -0.00000000000E+00 -0.10912208177E+03  0.10912208180E+03  0.25500000000E-02 0. -1.
    5000001    1    1    2    0    0 -0.39141124647E+02  0.52697704328E+02  0.49296708285E+02  0.21526783579E+03  0.19900000000E+03 0.  0.
   -5000001    1    1    2    0    0  0.39141124647E+02 -0.52697704328E+02  0.39387042041E+03  0.44614345647E+03  0.19900000000E+03 0.  0.
<mgrwt>
<rscale>  0 0.49098655E+03</rscale>
<asrwt>0</asrwt>
<pdfrwt beam="1">  1        2 0.78898459E-01 0.49098655E+03</pdfrwt>
<pdfrwt beam="2">  1       -2 0.15588869E-01 0.49098655E+03</pdfrwt>
<totfact> 0.19547375E+03</totfact>
</mgrwt>
</event>
<event>
 4    1  0.4998754E-005  0.5019416E+03  0.7818608E-02  0.1013273E+00
          2   -1    0    0  501    0  0.00000000000E+00  0.00000000000E+00  0.94696163452E+03  0.94696163452E+03  0.25500000000E-02 0.  1.
         -2   -1    0    0    0  501 -0.00000000000E+00 -0.00000000000E+00 -0.66514141236E+02  0.66514141285E+02  0.25500000000E-02 0. -1.
    5000001    1    1    2    0    0 -0.15029772062E+03  0.26071041553E+02  0.41845515510E+03  0.48782662993E+03  0.19900000000E+03 0.  0.
   -5000001    1    1    2    0    0  0.15029772062E+03 -0.26071041553E+02  0.46199233818E+03  0.52564914588E+03  0.19900000000E+03 0.  0.
<mgrwt>
<rscale>  0 0.50194159E+03</rscale>
<asrwt>0</asrwt>
<pdfrwt beam="1">  1        2 0.13528024E+00 0.50194159E+03</pdfrwt>
<pdfrwt beam="2">  1       -2 0.95020199E-02 0.50194159E+03</pdfrwt>
<totfact> 0.22638886E+03</totfact>
</mgrwt>
</event>
<event>
 4    1  0.4998754E-005  0.4405515E+03  0.7818608E-02  0.1030578E+00
          2   -1    0    0  501    0  0.00000000000E+00  0.00000000000E+00  0.16690129703E+04  0.16690129703E+04  0.25500000000E-02 0.  1.
         -2   -1    0    0    0  501 -0.00000000000E+00 -0.00000000000E+00 -0.29071913491E+02  0.29071913603E+02  0.25500000000E-02 0. -1.
    5000001    1    1    2    0    0  0.14088472679E+02  0.90616942265E+02  0.90705775089E+03  0.93314772611E+03  0.19900000000E+03 0.  0.
   -5000001    1    1    2    0    0 -0.14088472679E+02 -0.90616942265E+02  0.73288330596E+03  0.76493715784E+03  0.19900000000E+03 0.  0.
<mgrwt>
<rscale>  0 0.44055148E+03</rscale>
<asrwt>0</asrwt>
<pdfrwt beam="1">  1        2 0.23843049E+00 0.44055148E+03</pdfrwt>
<pdfrwt beam="2">  1       -2 0.41531294E-02 0.44055148E+03</pdfrwt>
<totfact> 0.33314234E+03</totfact>
</mgrwt>
</event>
<event>
 4    1  0.4998754E-005  0.5204878E+03  0.7818608E-02  0.1008565E+00
          2   -1    0    0  501    0  0.00000000000E+00  0.00000000000E+00  0.98550897077E+03  0.98550897078E+03  0.25500000000E-02 0.  1.
         -2   -1    0    0    0  501 -0.00000000000E+00 -0.00000000000E+00 -0.68722759728E+02  0.68722759775E+02  0.25500000000E-02 0. -1.
    5000001    1    1    2    0    0 -0.52347310143E+02  0.15381252234E+03  0.37421147200E+03  0.45390941682E+03  0.19900000000E+03 0.  0.
   -5000001    1    1    2    0    0  0.52347310143E+02 -0.15381252234E+03  0.54257473905E+03  0.60032231373E+03  0.19900000000E+03 0.  0.
<mgrwt>
<rscale>  0 0.52048783E+03</rscale>
<asrwt>0</asrwt>
<pdfrwt beam="1">  1        2 0.14078699E+00 0.52048783E+03</pdfrwt>
<pdfrwt beam="2">  1       -2 0.98175374E-02 0.52048783E+03</pdfrwt>
<totfact> 0.20332571E+03</totfact>
</mgrwt>
</event>
<event>
 4    1  0.4998754E-005  0.6281065E+03  0.7818608E-02  0.9848751E-01
          2   -1    0    0  501    0  0.00000000000E+00  0.00000000000E+00  0.30038860808E+04  0.30038860808E+04  0.25500000000E-02 0.  1.
         -2   -1    0    0    0  501 -0.00000000000E+00 -0.00000000000E+00 -0.32833952211E+02  0.32833952310E+02  0.25500000000E-02 0. -1.
    5000001    1    1    2    0    0 -0.10348947194E+03  0.13520645380E+03  0.64760321007E+03  0.69855692227E+03  0.19900000000E+03 0.  0.
   -5000001    1    1    2    0    0  0.10348947194E+03 -0.13520645380E+03  0.23234489186E+04  0.23381631109E+04  0.19900000000E+03 0.  0.
<mgrwt>
<rscale>  0 0.62810653E+03</rscale>
<asrwt>0</asrwt>
<pdfrwt beam="1">  1        2 0.42912645E+00 0.62810653E+03</pdfrwt>
<pdfrwt beam="2">  1       -2 0.46905661E-02 0.62810653E+03</pdfrwt>
<totfact> 0.56719487E+02</totfact>
</mgrwt>
</event>
<event>
 4    1  0.4998754E-005  0.7821150E+03  0.7818608E-02  0.9586272E-01
         -2   -1    0    0    0  501 -0.00000000000E+00  0.00000000000E+00  0.88399046306E+03  0.88399046306E+03  0.25500000000E-02 0. -1.
          2   -1    0    0  501    0  0.00000000000E+00 -0.00000000000E+00 -0.17299504159E+03  0.17299504161E+03  0.25500000000E-02 0.  1.
    5000001    1    1    2    0    0  0.23286656161E+03  0.24109922147E+03  0.39757297129E+03  0.55679523849E+03  0.19900000000E+03 0.  0.
   -5000001    1    1    2    0    0 -0.23286656161E+03 -0.24109922147E+03  0.31342245018E+03  0.50019026618E+03  0.19900000000E+03 0.  0.
<mgrwt>
<rscale>  0 0.78211500E+03</rscale>
<asrwt>0</asrwt>
<pdfrwt beam="1">  1        2 0.24713577E-01 0.78211500E+03</pdfrwt>
<pdfrwt beam="2">  1       -2 0.12628435E+00 0.78211500E+03</pdfrwt>
<totfact> 0.10464526E+02</totfact>
</mgrwt>
</event>
<event>
 4    1  0.4998754E-005  0.1474537E+04  0.7818608E-02  0.8901564E-01
         -2   -1    0    0    0  501 -0.00000000000E+00  0.00000000000E+00  0.65104630187E+03  0.65104630187E+03  0.25500000000E-02 0. -1.
          2   -1    0    0  501    0  0.00000000000E+00 -0.00000000000E+00 -0.83490951938E+03  0.83490951938E+03  0.25500000000E-02 0.  1.
    5000001    1    1    2    0    0 -0.29784578135E+03  0.22070193023E+03 -0.70204746203E+03  0.81846996916E+03  0.19900000000E+03 0.  0.
   -5000001    1    1    2    0    0  0.29784578135E+03 -0.22070193023E+03  0.51818424452E+03  0.66748585209E+03  0.19900000000E+03 0.  0.
<mgrwt>
<rscale>  0 0.14745369E+04</rscale>
<asrwt>0</asrwt>
<pdfrwt beam="1">  1        2 0.11927279E+00 0.14745369E+04</pdfrwt>
<pdfrwt beam="2">  1       -2 0.93006615E-01 0.14745369E+04</pdfrwt>
<totfact> 0.34151638E+01</totfact>
</mgrwt>
</event>
<event>
 4    1  0.4998754E-005  0.1050390E+04  0.7818608E-02  0.9254942E-01
          2   -1    0    0  501    0  0.00000000000E+00  0.00000000000E+00  0.33679767177E+04  0.33679767177E+04  0.25500000000E-02 0.  1.
         -2   -1    0    0    0  501 -0.00000000000E+00 -0.00000000000E+00 -0.81897726585E+02  0.81897726625E+02  0.25500000000E-02 0. -1.
    5000001    1    1    2    0    0  0.40504294145E+03  0.26804166261E+03  0.15840559918E+04  0.16687541767E+04  0.19900000000E+03 0.  0.
   -5000001    1    1    2    0    0 -0.40504294145E+03 -0.26804166261E+03  0.17020229993E+04  0.17811202676E+04  0.19900000000E+03 0.  0.
<mgrwt>
<rscale>  0 0.10503897E+04</rscale>
<asrwt>0</asrwt>
<pdfrwt beam="1">  1        2 0.48113960E+00 0.10503897E+04</pdfrwt>
<pdfrwt beam="2">  1       -2 0.11699674E-01 0.10503897E+04</pdfrwt>
<totfact> 0.78557830E+01</totfact>
</mgrwt>
</event>
<event>
 4    1  0.4998754E-005  0.9118350E+03  0.7818608E-02  0.9410907E-01
         -2   -1    0    0    0  501 -0.00000000000E+00  0.00000000000E+00  0.13820708247E+03  0.13820708249E+03  0.25500000000E-02 0. -1.
          2   -1    0    0  501    0  0.00000000000E+00 -0.00000000000E+00 -0.15039806887E+04  0.15039806887E+04  0.25500000000E-02 0.  1.
    5000001    1    1    2    0    0 -0.25681926741E+03 -0.31296993901E+03 -0.56405736867E+03  0.72226590255E+03  0.19900000000E+03 0.  0.
   -5000001    1    1    2    0    0  0.25681926741E+03  0.31296993901E+03 -0.80171623755E+03  0.91992186863E+03  0.19900000000E+03 0.  0.
<mgrwt>
<rscale>  0 0.91183504E+03</rscale>
<asrwt>0</asrwt>
<pdfrwt beam="1">  1        2 0.21485437E+00 0.91183504E+03</pdfrwt>
<pdfrwt beam="2">  1       -2 0.19743870E-01 0.91183504E+03</pdfrwt>
<totfact> 0.31807398E+02</totfact>
</mgrwt>
</event>
<event>
 4    1  0.4998754E-005  0.8922699E+03  0.7818608E-02  0.9435296E-01
         -2   -1    0    0    0  501 -0.00000000000E+00  0.00000000000E+00  0.40380175773E+03  0.40380175774E+03  0.25500000000E-02 0. -1.
          2   -1    0    0  501    0  0.00000000000E+00 -0.00000000000E+00 -0.49290615461E+03  0.49290615461E+03  0.25500000000E-02 0.  1.
    5000001    1    1    2    0    0 -0.27160831252E+03 -0.20822877613E+03  0.16215281377E+03  0.42781401760E+03  0.19900000000E+03 0.  0.
   -5000001    1    1    2    0    0  0.27160831252E+03  0.20822877613E+03 -0.25125721064E+03  0.46889389476E+03  0.19900000000E+03 0.  0.
<mgrwt>
<rscale>  0 0.89226985E+03</rscale>
<asrwt>0</asrwt>
<pdfrwt beam="1">  1        2 0.70415165E-01 0.89226985E+03</pdfrwt>
<pdfrwt beam="2">  1       -2 0.57685965E-01 0.89226985E+03</pdfrwt>
<totfact> 0.19277978E+02</totfact>
</mgrwt>
</event>
<event>
 4    1  0.4998754E-005  0.5825905E+03  0.7818608E-02  0.9942198E-01
          2   -1    0    0  501    0  0.00000000000E+00  0.00000000000E+00  0.22805806355E+04  0.22805806355E+04  0.25500000000E-02 0.  1.
         -2   -1    0    0    0  501 -0.00000000000E+00 -0.00000000000E+00 -0.37206715154E+02  0.37206715241E+02  0.25500000000E-02 0. -1.
    5000001    1    1    2    0    0  0.17645574139E+03 -0.85686227581E+02  0.14491073705E+04  0.14758021309E+04  0.19900000000E+03 0.  0.
   -5000001    1    1    2    0    0 -0.17645574139E+03  0.85686227581E+02  0.79426654989E+03  0.84198521991E+03  0.19900000000E+03 0.  0.
<mgrwt>
<rscale>  0 0.58259047E+03</rscale>
<asrwt>0</asrwt>
<pdfrwt beam="1">  1        2 0.32579732E+00 0.58259047E+03</pdfrwt>
<pdfrwt beam="2">  1       -2 0.53152436E-02 0.58259047E+03</pdfrwt>
<totfact> 0.11181594E+03</totfact>
</mgrwt>
</event>
<event>
 4    1  0.4998754E-005  0.1050257E+04  0.7818608E-02  0.9255078E-01
          2   -1    0    0  501    0  0.00000000000E+00  0.00000000000E+00  0.37131344019E+03  0.37131344019E+03  0.25500000000E-02 0.  1.
         -2   -1    0    0    0  501 -0.00000000000E+00 -0.00000000000E+00 -0.74266126768E+03  0.74266126769E+03  0.25500000000E-02 0. -1.
    5000001    1    1    2    0    0  0.62462406361E+02  0.31240615999E+03 -0.57489721876E+03  0.68673646557E+03  0.19900000000E+03 0.  0.
   -5000001    1    1    2    0    0 -0.62462406361E+02 -0.31240615999E+03  0.20354939127E+03  0.42723824231E+03  0.19900000000E+03 0.  0.
<mgrwt>
<rscale>  0 0.10502573E+04</rscale>
<asrwt>0</asrwt>
<pdfrwt beam="1">  1        2 0.53044777E-01 0.10502573E+04</pdfrwt>
<pdfrwt beam="2">  1       -2 0.10609447E+00 0.10502573E+04</pdfrwt>
<totfact> 0.67153099E+01</totfact>
</mgrwt>
</event>
<event>
 4    1  0.4998754E-005  0.5095123E+03  0.7818608E-02  0.1011325E+00
          2   -1    0    0  501    0  0.00000000000E+00  0.00000000000E+00  0.13617769492E+04  0.13617769492E+04  0.25500000000E-02 0.  1.
         -2   -1    0    0    0  501 -0.00000000000E+00 -0.00000000000E+00 -0.47658833720E+02  0.47658833789E+02  0.25500000000E-02 0. -1.
    5000001    1    1    2    0    0 -0.33660437782E+02  0.68305076748E+02  0.27076317812E+03  0.34454652401E+03  0.19900000000E+03 0.  0.
   -5000001    1    1    2    0    0  0.33660437782E+02 -0.68305076748E+02  0.10433549373E+04  0.10648892590E+04  0.19900000000E+03 0.  0.
<mgrwt>
<rscale>  0 0.50951232E+03</rscale>
<asrwt>0</asrwt>
<pdfrwt beam="1">  1        2 0.19453952E+00 0.50951232E+03</pdfrwt>
<pdfrwt beam="2">  1       -2 0.68084065E-02 0.50951232E+03</pdfrwt>
<totfact> 0.22309384E+03</totfact>
</mgrwt>
</event>
<event>
 4    1  0.4998754E-005  0.6034537E+03  0.7818608E-02  0.9898267E-01
         -2   -1    0    0    0  501 -0.00000000000E+00  0.00000000000E+00  0.18665385044E+02  0.18665385218E+02  0.25500000000E-02 0. -1.
          2   -1    0    0  501    0  0.00000000000E+00 -0.00000000000E+00 -0.48774285147E+04  0.48774285147E+04  0.25500000000E-02 0.  1.
    5000001    1    1    2    0    0 -0.18077185500E+03 -0.13120771473E+03 -0.27482056143E+04  0.27644400927E+04  0.19900000000E+03 0.  0.
   -5000001    1    1    2    0    0  0.18077185500E+03  0.13120771473E+03 -0.21105575154E+04  0.21316538072E+04  0.19900000000E+03 0.  0.
<mgrwt>
<rscale>  0 0.60345367E+03</rscale>
<asrwt>0</asrwt>
<pdfrwt beam="1">  1        2 0.69677469E+00 0.60345367E+03</pdfrwt>
<pdfrwt beam="2">  1       -2 0.26664867E-02 0.60345367E+03</pdfrwt>
<totfact> 0.72863582E+01</totfact>
</mgrwt>
</event>
<event>
 4    1  0.4998754E-005  0.7042801E+03  0.7818608E-02  0.9709941E-01
          2   -1    0    0  501    0  0.00000000000E+00  0.00000000000E+00  0.94077716372E+03  0.94077716372E+03  0.25500000000E-02 0.  1.
         -2   -1    0    0    0  501 -0.00000000000E+00 -0.00000000000E+00 -0.13180868428E+03  0.13180868430E+03  0.25500000000E-02 0. -1.
    5000001    1    1    2    0    0 -0.22077649800E+03  0.14281173503E+03  0.59264234569E+03  0.67820601858E+03  0.19900000000E+03 0.  0.
   -5000001    1    1    2    0    0  0.22077649800E+03 -0.14281173503E+03  0.21632613375E+03  0.39437982945E+03  0.19900000000E+03 0.  0.
<mgrwt>
<rscale>  0 0.70428006E+03</rscale>
<asrwt>0</asrwt>
<pdfrwt beam="1">  1        2 0.13439674E+00 0.70428006E+03</pdfrwt>
<pdfrwt beam="2">  1       -2 0.18829812E-01 0.70428006E+03</pdfrwt>
<totfact> 0.72838982E+02</totfact>
</mgrwt>
</event>
<event>
 4    1  0.4998754E-005  0.6458698E+03  0.7818608E-02  0.9814560E-01
          2   -1    0    0  501    0  0.00000000000E+00  0.00000000000E+00  0.39042522528E+03  0.39042522529E+03  0.25500000000E-02 0.  1.
         -2   -1    0    0    0  501 -0.00000000000E+00 -0.00000000000E+00 -0.26711119338E+03  0.26711119339E+03  0.25500000000E-02 0. -1.
    5000001    1    1    2    0    0  0.60152412393E+02  0.22714815284E+03 -0.37421803177E+02  0.31018702005E+03  0.19900000000E+03 0.  0.
   -5000001    1    1    2    0    0 -0.60152412393E+02 -0.22714815284E+03  0.16073583508E+03  0.34734939864E+03  0.19900000000E+03 0.  0.
<mgrwt>
<rscale>  0 0.64586979E+03</rscale>
<asrwt>0</asrwt>
<pdfrwt beam="1">  1        2 0.55775032E-01 0.64586979E+03</pdfrwt>
<pdfrwt beam="2">  1       -2 0.38158742E-01 0.64586979E+03</pdfrwt>
<totfact> 0.57978050E+02</totfact>
</mgrwt>
</event>
<event>
 4    1  0.4998754E-005  0.1098191E+04  0.7818608E-02  0.9206957E-01
         -2   -1    0    0    0  501 -0.00000000000E+00  0.00000000000E+00  0.18794355635E+04  0.18794355635E+04  0.25500000000E-02 0. -1.
          2   -1    0    0  501    0  0.00000000000E+00 -0.00000000000E+00 -0.16042352192E+03  0.16042352194E+03  0.25500000000E-02 0.  1.
    5000001    1    1    2    0    0 -0.34127110183E+03 -0.25429230259E+02  0.15270884756E+03  0.42430366817E+03  0.19900000000E+03 0.  0.
   -5000001    1    1    2    0    0  0.34127110183E+03  0.25429230259E+02  0.15663031940E+04  0.16155554173E+04  0.19900000000E+03 0.  0.
<mgrwt>
<rscale>  0 0.10981906E+04</rscale>
<asrwt>0</asrwt>
<pdfrwt beam="1">  1        2 0.22917646E-01 0.10981906E+04</pdfrwt>
<pdfrwt beam="2">  1       -2 0.26849079E+00 0.10981906E+04</pdfrwt>
<totfact> 0.12022324E+01</totfact>
</mgrwt>
</event>
<event>
 4    1  0.4998754E-005  0.4547190E+03  0.7818608E-02  0.1026324E+00
          2   -1    0    0  501    0  0.00000000000E+00  0.00000000000E+00  0.79784353587E+03  0.79784353587E+03  0.25500000000E-02 0. -1.
         -2   -1    0    0    0  501 -0.00000000000E+00 -0.00000000000E+00 -0.64790066858E+02  0.64790066908E+02  0.25500000000E-02 0.  1.
    5000001    1    1    2    0    0 -0.30454433327E+02  0.98811620558E+02  0.29554166028E+03  0.37099471940E+03  0.19900000000E+03 0.  0.
   -5000001    1    1    2    0    0  0.30454433327E+02 -0.98811620558E+02  0.43751180873E+03  0.49163888338E+03  0.19900000000E+03 0.  0.
<mgrwt>
<rscale>  0 0.45471897E+03</rscale>
<asrwt>0</asrwt>
<pdfrwt beam="1">  1        2 0.11397764E+00 0.45471897E+03</pdfrwt>
<pdfrwt beam="2">  1       -2 0.92557244E-02 0.45471897E+03</pdfrwt>
<totfact> 0.29537266E+03</totfact>
</mgrwt>
</event>
<event>
 4    1  0.4998754E-005  0.8336081E+03  0.7818608E-02  0.9512606E-01
          2   -1    0    0  501    0  0.00000000000E+00  0.00000000000E+00  0.77168103821E+03  0.77168103821E+03  0.25500000000E-02 0.  1.
         -2   -1    0    0    0  501 -0.00000000000E+00 -0.00000000000E+00 -0.22512618725E+03  0.22512618726E+03  0.25500000000E-02 0. -1.
    5000001    1    1    2    0    0 -0.34864582903E+03 -0.46508379797E+01  0.13932365188E+03  0.42495602639E+03  0.19900000000E+03 0.  0.
   -5000001    1    1    2    0    0  0.34864582903E+03  0.46508379797E+01  0.40723119908E+03  0.57185119908E+03  0.19900000000E+03 0.  0.
<mgrwt>
<rscale>  0 0.83360809E+03</rscale>
<asrwt>0</asrwt>
<pdfrwt beam="1">  1        2 0.11024015E+00 0.83360809E+03</pdfrwt>
<pdfrwt beam="2">  1       -2 0.32160883E-01 0.83360809E+03</pdfrwt>
<totfact> 0.35903234E+02</totfact>
</mgrwt>
</event>
<event>
 4    1  0.4998754E-005  0.6125268E+03  0.7818608E-02  0.9879752E-01
          2   -1    0    0  501    0  0.00000000000E+00  0.00000000000E+00  0.15127115550E+03  0.15127115552E+03  0.25500000000E-02 0.  1.
         -2   -1    0    0    0  501 -0.00000000000E+00 -0.00000000000E+00 -0.62006044398E+03  0.62006044399E+03  0.25500000000E-02 0. -1.
    5000001    1    1    2    0    0  0.77805816255E+02  0.21033146726E+03 -0.31306766499E+03  0.43348060398E+03  0.19900000000E+03 0.  0.
   -5000001    1    1    2    0    0 -0.77805816255E+02 -0.21033146726E+03 -0.15572162348E+03  0.33785099553E+03  0.19900000000E+03 0.  0.
<mgrwt>
<rscale>  0 0.61252677E+03</rscale>
<asrwt>0</asrwt>
<pdfrwt beam="1">  1        2 0.21610165E-01 0.61252677E+03</pdfrwt>
<pdfrwt beam="2">  1       -2 0.88580062E-01 0.61252677E+03</pdfrwt>
<totfact> 0.28753625E+02</totfact>
</mgrwt>
</event>
<event>
 4    1  0.4998754E-005  0.6236839E+03  0.7818608E-02  0.9857452E-01
          2   -1    0    0  501    0  0.00000000000E+00  0.00000000000E+00  0.17171673351E+04  0.17171673351E+04  0.25500000000E-02 0.  1.
         -2   -1    0    0    0  501 -0.00000000000E+00 -0.00000000000E+00 -0.56631288904E+02  0.56631288961E+02  0.25500000000E-02 0. -1.
    5000001    1    1    2    0    0  0.28495089840E+02  0.21417960185E+03  0.11280070065E+04  0.11656267322E+04  0.19900000000E+03 0.  0.
   -5000001    1    1    2    0    0 -0.28495089840E+02 -0.21417960185E+03  0.53252903968E+03  0.60817189190E+03  0.19900000000E+03 0.  0.
<mgrwt>
<rscale>  0 0.62368389E+03</rscale>
<asrwt>0</asrwt>
<pdfrwt beam="1">  1        2 0.24530957E+00 0.62368389E+03</pdfrwt>
<pdfrwt beam="2">  1       -2 0.80901857E-02 0.62368389E+03</pdfrwt>
<totfact> 0.11067903E+03</totfact>
</mgrwt>
</event>
<event>
 4    1  0.4998754E-005  0.6929524E+03  0.7818608E-02  0.9729361E-01
         -2   -1    0    0    0  501 -0.00000000000E+00  0.00000000000E+00  0.10274918417E+03  0.10274918420E+03  0.25500000000E-02 0. -1.
          2   -1    0    0  501    0  0.00000000000E+00 -0.00000000000E+00 -0.11683378860E+04  0.11683378860E+04  0.25500000000E-02 0.  1.
    5000001    1    1    2    0    0  0.71187100906E+02 -0.25844797006E+03 -0.70272091780E+03  0.77799784375E+03  0.19900000000E+03 0.  0.
   -5000001    1    1    2    0    0 -0.71187100906E+02  0.25844797006E+03 -0.36286778401E+03  0.49308922645E+03  0.19900000000E+03 0.  0.
<mgrwt>
<rscale>  0 0.69295242E+03</rscale>
<asrwt>0</asrwt>
<pdfrwt beam="1">  1        2 0.16690540E+00 0.69295242E+03</pdfrwt>
<pdfrwt beam="2">  1       -2 0.14678456E-01 0.69295242E+03</pdfrwt>
<totfact> 0.81498210E+02</totfact>
</mgrwt>
</event>
<event>
 4    1  0.4998754E-005  0.7031442E+03  0.7818608E-02  0.9711870E-01
         -2   -1    0    0    0  501 -0.00000000000E+00  0.00000000000E+00  0.76967656545E+02  0.76967656587E+02  0.25500000000E-02 0. -1.
          2   -1    0    0  501    0  0.00000000000E+00 -0.00000000000E+00 -0.16059075630E+04  0.16059075630E+04  0.25500000000E-02 0.  1.
    5000001    1    1    2    0    0  0.81203800340E+01  0.27798391393E+03 -0.56913703700E+03  0.66397211076E+03  0.19900000000E+03 0.  0.
   -5000001    1    1    2    0    0 -0.81203800340E+01 -0.27798391393E+03 -0.95980286944E+03  0.10189031088E+04  0.19900000000E+03 0.  0.
<mgrwt>
<rscale>  0 0.70314420E+03</rscale>
<asrwt>0</asrwt>
<pdfrwt beam="1">  1        2 0.22941535E+00 0.70314420E+03</pdfrwt>
<pdfrwt beam="2">  1       -2 0.10995380E-01 0.70314420E+03</pdfrwt>
<totfact> 0.76553114E+02</totfact>
</mgrwt>
</event>
<event>
 4    1  0.4998754E-005  0.8334468E+03  0.7818608E-02  0.9512827E-01
          2   -1    0    0  501    0  0.00000000000E+00  0.00000000000E+00  0.13466335012E+03  0.13466335014E+03  0.25500000000E-02 0.  1.
         -2   -1    0    0    0  501 -0.00000000000E+00 -0.00000000000E+00 -0.12895743062E+04  0.12895743062E+04  0.25500000000E-02 0. -1.
    5000001    1    1    2    0    0  0.48384481107E+01 -0.34130799323E+03 -0.80379193874E+03  0.89565453028E+03  0.19900000000E+03 0.  0.
   -5000001    1    1    2    0    0 -0.48384481107E+01  0.34130799323E+03 -0.35111901735E+03  0.52858312607E+03  0.19900000000E+03 0.  0.
<mgrwt>
<rscale>  0 0.83344681E+03</rscale>
<asrwt>0</asrwt>
<pdfrwt beam="1">  1        2 0.19237622E-01 0.83344681E+03</pdfrwt>
<pdfrwt beam="2">  1       -2 0.18422489E+00 0.83344681E+03</pdfrwt>
<totfact> 0.50971680E+01</totfact>
</mgrwt>
</event>
<event>
 4    1  0.4998754E-005  0.9652882E+03  0.7818608E-02  0.9347457E-01
         -2   -1    0    0    0  501 -0.00000000000E+00  0.00000000000E+00  0.25226055280E+03  0.25226055281E+03  0.25500000000E-02 0. -1.
          2   -1    0    0  501    0  0.00000000000E+00 -0.00000000000E+00 -0.92343150385E+03  0.92343150386E+03  0.25500000000E-02 0.  1.
    5000001    1    1    2    0    0  0.42424896164E+03  0.83608534792E+02 -0.43276980884E+03  0.64332594848E+03  0.19900000000E+03 0.  0.
   -5000001    1    1    2    0    0 -0.42424896164E+03 -0.83608534792E+02 -0.23840114222E+03  0.53236610819E+03  0.19900000000E+03 0.  0.
<mgrwt>
<rscale>  0 0.96528823E+03</rscale>
<asrwt>0</asrwt>
<pdfrwt beam="1">  1        2 0.13191878E+00 0.96528823E+03</pdfrwt>
<pdfrwt beam="2">  1       -2 0.36037222E-01 0.96528823E+03</pdfrwt>
<totfact> 0.22691841E+02</totfact>
</mgrwt>
</event>
<event>
 4    1  0.4998754E-005  0.8334462E+03  0.7818608E-02  0.9512828E-01
         -2   -1    0    0    0  501 -0.00000000000E+00  0.00000000000E+00  0.14706177849E+03  0.14706177852E+03  0.25500000000E-02 0. -1.
          2   -1    0    0  501    0  0.00000000000E+00 -0.00000000000E+00 -0.11808516048E+04  0.11808516048E+04  0.25500000000E-02 0.  1.
    5000001    1    1    2    0    0  0.20243259062E+03 -0.29554692559E+03 -0.39628666626E+03  0.57006233065E+03  0.19900000000E+03 0.  0.
   -5000001    1    1    2    0    0 -0.20243259062E+03  0.29554692559E+03 -0.63750316006E+03  0.75785105268E+03  0.19900000000E+03 0.  0.
<mgrwt>
<rscale>  0 0.83344619E+03</rscale>
<asrwt>0</asrwt>
<pdfrwt beam="1">  1        2 0.16869308E+00 0.83344619E+03</pdfrwt>
<pdfrwt beam="2">  1       -2 0.21008826E-01 0.83344619E+03</pdfrwt>
<totfact> 0.42990955E+02</totfact>
</mgrwt>
</event>
<event>
 4    1  0.4998754E-005  0.7896675E+03  0.7818608E-02  0.9575094E-01
          2   -1    0    0  501    0  0.00000000000E+00  0.00000000000E+00  0.54050731842E+03  0.54050731843E+03  0.25500000000E-02 0.  1.
         -2   -1    0    0    0  501 -0.00000000000E+00 -0.00000000000E+00 -0.28842108505E+03  0.28842108506E+03  0.25500000000E-02 0. -1.
    5000001    1    1    2    0    0  0.21243347805E+03  0.25096074567E+03  0.31083186432E+02  0.38558584381E+03  0.19900000000E+03 0.  0.
   -5000001    1    1    2    0    0 -0.21243347805E+03 -0.25096074567E+03  0.22100304694E+03  0.44334255968E+03  0.19900000000E+03 0.  0.
<mgrwt>
<rscale>  0 0.78966754E+03</rscale>
<asrwt>0</asrwt>
<pdfrwt beam="1">  1        2 0.77215330E-01 0.78966754E+03</pdfrwt>
<pdfrwt beam="2">  1       -2 0.41203013E-01 0.78966754E+03</pdfrwt>
<totfact> 0.34414656E+02</totfact>
</mgrwt>
</event>
<event>
 4    1  0.4998754E-005  0.7430387E+03  0.7818608E-02  0.9646335E-01
          2   -1    0    0  501    0  0.00000000000E+00  0.00000000000E+00  0.54496847622E+03  0.54496847622E+03  0.25500000000E-02 0. -1.
         -2   -1    0    0    0  501 -0.00000000000E+00 -0.00000000000E+00 -0.25327454487E+03  0.25327454488E+03  0.25500000000E-02 0.  1.
    5000001    1    1    2    0    0  0.41662838263E+02 -0.75608768058E+02  0.46987331223E+03  0.51752720454E+03  0.19900000000E+03 0.  0.
   -5000001    1    1    2    0    0 -0.41662838263E+02  0.75608768058E+02 -0.17817938088E+03  0.28071581656E+03  0.19900000000E+03 0.  0.
<mgrwt>
<rscale>  0 0.74303874E+03</rscale>
<asrwt>0</asrwt>
<pdfrwt beam="1">  1        2 0.77852639E-01 0.74303874E+03</pdfrwt>
<pdfrwt beam="2">  1       -2 0.36182078E-01 0.74303874E+03</pdfrwt>
<totfact> 0.43906120E+02</totfact>
</mgrwt>
</event>
<event>
 4    1  0.4998754E-005  0.5302785E+03  0.7818608E-02  0.1006165E+00
          2   -1    0    0  501    0  0.00000000000E+00  0.00000000000E+00  0.36239296388E+03  0.36239296389E+03  0.25500000000E-02 0.  1.
         -2   -1    0    0    0  501 -0.00000000000E+00 -0.00000000000E+00 -0.19398505335E+03  0.19398505336E+03  0.25500000000E-02 0. -1.
    5000001    1    1    2    0    0 -0.11976795108E+03  0.14604358151E+01  0.21836993579E+03  0.31879919045E+03  0.19900000000E+03 0.  0.
   -5000001    1    1    2    0    0  0.11976795108E+03 -0.14604358151E+01 -0.49962025249E+02  0.23757882680E+03  0.19900000000E+03 0.  0.
<mgrwt>
<rscale>  0 0.53027849E+03</rscale>
<asrwt>0</asrwt>
<pdfrwt beam="1">  1        2 0.51770423E-01 0.53027849E+03</pdfrwt>
<pdfrwt beam="2">  1       -2 0.27712151E-01 0.53027849E+03</pdfrwt>
<totfact> 0.11473120E+03</totfact>
</mgrwt>
</event>
<event>
 4    1  0.4998754E-005  0.5261579E+03  0.7818608E-02  0.1007168E+00
         -2   -1    0    0    0  501 -0.00000000000E+00  0.00000000000E+00  0.71951713950E+02  0.71951713996E+02  0.25500000000E-02 0. -1.
          2   -1    0    0  501    0  0.00000000000E+00 -0.00000000000E+00 -0.96190251443E+03  0.96190251443E+03  0.25500000000E-02 0.  1.
    5000001    1    1    2    0    0 -0.13923464670E+03  0.86027066292E+02 -0.34058339636E+03  0.42706556037E+03  0.19900000000E+03 0.  0.
   -5000001    1    1    2    0    0  0.13923464670E+03 -0.86027066292E+02 -0.54936740412E+03  0.60678866806E+03  0.19900000000E+03 0.  0.
<mgrwt>
<rscale>  0 0.52615790E+03</rscale>
<asrwt>0</asrwt>
<pdfrwt beam="1">  1        2 0.13741464E+00 0.52615790E+03</pdfrwt>
<pdfrwt beam="2">  1       -2 0.10278817E-01 0.52615790E+03</pdfrwt>
<totfact> 0.19518945E+03</totfact>
</mgrwt>
</event>
<event>
 4    1  0.4998754E-005  0.7999083E+03  0.7818608E-02  0.9560150E-01
          2   -1    0    0  501    0  0.00000000000E+00  0.00000000000E+00  0.12402995670E+03  0.12402995673E+03  0.25500000000E-02 0.  1.
         -2   -1    0    0    0  501 -0.00000000000E+00 -0.00000000000E+00 -0.12897150710E+04  0.12897150710E+04  0.25500000000E-02 0. -1.
    5000001    1    1    2    0    0 -0.31127367876E+03 -0.13577080399E+03 -0.45740447825E+03  0.60344417391E+03  0.19900000000E+03 0.  0.
   -5000001    1    1    2    0    0  0.31127367876E+03  0.13577080399E+03 -0.70828063603E+03  0.81030085381E+03  0.19900000000E+03 0.  0.
<mgrwt>
<rscale>  0 0.79990826E+03</rscale>
<asrwt>0</asrwt>
<pdfrwt beam="1">  1        2 0.17718566E-01 0.79990826E+03</pdfrwt>
<pdfrwt beam="2">  1       -2 0.18424500E+00 0.79990826E+03</pdfrwt>
<totfact> 0.56301100E+01</totfact>
</mgrwt>
</event>
<event>
 4    1  0.4998754E-005  0.4200257E+03  0.7818608E-02  0.1037058E+00
         -2   -1    0    0    0  501 -0.00000000000E+00  0.00000000000E+00  0.12447631903E+02  0.12447632164E+02  0.25500000000E-02 0. -1.
          2   -1    0    0  501    0  0.00000000000E+00 -0.00000000000E+00 -0.35432755652E+04  0.35432755652E+04  0.25500000000E-02 0.  1.
    5000001    1    1    2    0    0 -0.32664574889E+02 -0.44839469966E+02 -0.20851852310E+04  0.20953939964E+04  0.19900000000E+03 0.  0.
   -5000001    1    1    2    0    0  0.32664574889E+02  0.44839469966E+02 -0.14456427023E+04  0.14603292010E+04  0.19900000000E+03 0.  0.
<mgrwt>
<rscale>  0 0.42002567E+03</rscale>
<asrwt>0</asrwt>
<pdfrwt beam="1">  1        2 0.50618158E+00 0.42002567E+03</pdfrwt>
<pdfrwt beam="2">  1       -2 0.17782354E-02 0.42002567E+03</pdfrwt>
<totfact> 0.12456276E+03</totfact>
</mgrwt>
</event>
<event>
 4    1  0.4998754E-005  0.4929488E+03  0.7818608E-02  0.1015636E+00
         -2   -1    0    0    0  501 -0.00000000000E+00  0.00000000000E+00  0.37782575833E+02  0.37782575919E+02  0.25500000000E-02 0. -1.
          2   -1    0    0  501    0  0.00000000000E+00 -0.00000000000E+00 -0.16078743493E+04  0.16078743493E+04  0.25500000000E-02 0.  1.
    5000001    1    1    2    0    0 -0.64568499959E+02 -0.13029620839E+03 -0.77982954835E+03  0.81785164767E+03  0.19900000000E+03 0.  0.
   -5000001    1    1    2    0    0  0.64568499959E+02  0.13029620839E+03 -0.79026222514E+03  0.82780527758E+03  0.19900000000E+03 0.  0.
<mgrwt>
<rscale>  0 0.49294882E+03</rscale>
<asrwt>0</asrwt>
<pdfrwt beam="1">  1        2 0.22969629E+00 0.49294882E+03</pdfrwt>
<pdfrwt beam="2">  1       -2 0.53975119E-02 0.49294882E+03</pdfrwt>
<totfact> 0.23884428E+03</totfact>
</mgrwt>
</event>
<event>
 4    1  0.4998754E-005  0.1106485E+04  0.7818608E-02  0.9198894E-01
         -2   -1    0    0    0  501 -0.00000000000E+00  0.00000000000E+00  0.10650074146E+04  0.10650074146E+04  0.25500000000E-02 0. -1.
          2   -1    0    0  501    0  0.00000000000E+00 -0.00000000000E+00 -0.28739450743E+03  0.28739450744E+03  0.25500000000E-02 0.  1.
    5000001    1    1    2    0    0  0.24743000121E+03  0.45121162973E+03  0.43864582344E+03  0.70485792805E+03  0.19900000000E+03 0.  0.
   -5000001    1    1    2    0    0 -0.24743000121E+03 -0.45121162973E+03  0.33896708371E+03  0.64754399399E+03  0.19900000000E+03 0.  0.
<mgrwt>
<rscale>  0 0.11064850E+04</rscale>
<asrwt>0</asrwt>
<pdfrwt beam="1">  1        2 0.41056358E-01 0.11064850E+04</pdfrwt>
<pdfrwt beam="2">  1       -2 0.15214392E+00 0.11064850E+04</pdfrwt>
<totfact> 0.35819713E+01</totfact>
</mgrwt>
</event>
<event>
 4    1  0.4998754E-005  0.5975282E+03  0.7818608E-02  0.9910548E-01
         -2   -1    0    0    0  501 -0.00000000000E+00  0.00000000000E+00  0.62191452036E+02  0.62191452088E+02  0.25500000000E-02 0. -1.
          2   -1    0    0  501    0  0.00000000000E+00 -0.00000000000E+00 -0.14352451257E+04  0.14352451257E+04  0.25500000000E-02 0.  1.
    5000001    1    1    2    0    0 -0.19756063379E+03 -0.96535156253E+02 -0.77722161240E+03  0.83187960379E+03  0.19900000000E+03 0.  0.
   -5000001    1    1    2    0    0  0.19756063379E+03  0.96535156253E+02 -0.59583206129E+03  0.66555697402E+03  0.19900000000E+03 0.  0.
<mgrwt>
<rscale>  0 0.59752817E+03</rscale>
<asrwt>0</asrwt>
<pdfrwt beam="1">  1        2 0.20503500E+00 0.59752817E+03</pdfrwt>
<pdfrwt beam="2">  1       -2 0.88844940E-02 0.59752817E+03</pdfrwt>
<totfact> 0.13335785E+03</totfact>
</mgrwt>
</event>
<event>
 4    1  0.4998754E-005  0.6402513E+03  0.7818608E-02  0.9825246E-01
          2   -1    0    0  501    0  0.00000000000E+00  0.00000000000E+00  0.17978450269E+03  0.17978450271E+03  0.25500000000E-02 0.  1.
         -2   -1    0    0    0  501 -0.00000000000E+00 -0.00000000000E+00 -0.57001814145E+03  0.57001814146E+03  0.25500000000E-02 0. -1.
    5000001    1    1    2    0    0  0.23037404078E+03  0.32508913726E+02 -0.85567304567E+02  0.31788644474E+03  0.19900000000E+03 0.  0.
   -5000001    1    1    2    0    0 -0.23037404078E+03 -0.32508913726E+02 -0.30466633419E+03  0.43191619943E+03  0.19900000000E+03 0.  0.
<mgrwt>
<rscale>  0 0.64025129E+03</rscale>
<asrwt>0</asrwt>
<pdfrwt beam="1">  1        2 0.25683501E-01 0.64025129E+03</pdfrwt>
<pdfrwt beam="2">  1       -2 0.81431162E-01 0.64025129E+03</pdfrwt>
<totfact> 0.28505048E+02</totfact>
</mgrwt>
</event>
<event>
 4    1  0.4998754E-005  0.4842038E+03  0.7818608E-02  0.1017986E+00
         -2   -1    0    0    0  501 -0.00000000000E+00  0.00000000000E+00  0.92026554726E+02  0.92026554762E+02  0.25500000000E-02 0. -1.
          2   -1    0    0  501    0  0.00000000000E+00 -0.00000000000E+00 -0.63691745527E+03  0.63691745528E+03  0.25500000000E-02 0.  1.
    5000001    1    1    2    0    0 -0.11705248438E+03  0.36917619810E+02 -0.36703897930E+03  0.43518134964E+03  0.19900000000E+03 0.  0.
   -5000001    1    1    2    0    0  0.11705248438E+03 -0.36917619810E+02 -0.17785192125E+03  0.29376266040E+03  0.19900000000E+03 0.  0.
<mgrwt>
<rscale>  0 0.48420375E+03</rscale>
<asrwt>0</asrwt>
<pdfrwt beam="1">  1        2 0.90988205E-01 0.48420375E+03</pdfrwt>
<pdfrwt beam="2">  1       -2 0.13146651E-01 0.48420375E+03</pdfrwt>
<totfact> 0.21992886E+03</totfact>
</mgrwt>
</event>
<event>
 4    1  0.4998754E-005  0.9031070E+03  0.7818608E-02  0.9421706E-01
         -2   -1    0    0    0  501 -0.00000000000E+00  0.00000000000E+00  0.92723064451E+03  0.92723064451E+03  0.25500000000E-02 0. -1.
          2   -1    0    0  501    0  0.00000000000E+00 -0.00000000000E+00 -0.21990273759E+03  0.21990273760E+03  0.25500000000E-02 0.  1.
    5000001    1    1    2    0    0  0.37150584825E+03 -0.16037625931E+03  0.38378735725E+03  0.59214092530E+03  0.19900000000E+03 0.  0.
   -5000001    1    1    2    0    0 -0.37150584825E+03  0.16037625931E+03  0.32354054967E+03  0.55499245681E+03  0.19900000000E+03 0.  0.
<mgrwt>
<rscale>  0 0.90310699E+03</rscale>
<asrwt>0</asrwt>
<pdfrwt beam="1">  1        2 0.31414676E-01 0.90310699E+03</pdfrwt>
<pdfrwt beam="2">  1       -2 0.13246152E+00 0.90310699E+03</pdfrwt>
<totfact> 0.70170673E+01</totfact>
</mgrwt>
</event>
<event>
 4    1  0.4998754E-005  0.5060996E+03  0.7818608E-02  0.1012199E+00
         -2   -1    0    0    0  501 -0.00000000000E+00  0.00000000000E+00  0.16014768542E+03  0.16014768544E+03  0.25500000000E-02 0. -1.
          2   -1    0    0  501    0  0.00000000000E+00 -0.00000000000E+00 -0.39984469479E+03  0.39984469480E+03  0.25500000000E-02 0.  1.
    5000001    1    1    2    0    0 -0.95757827074E+02 -0.95906195425E+02 -0.20602414713E+03  0.31688248448E+03  0.19900000000E+03 0.  0.
   -5000001    1    1    2    0    0  0.95757827074E+02  0.95906195425E+02 -0.33672862234E+02  0.24310989576E+03  0.19900000000E+03 0.  0.
<mgrwt>
<rscale>  0 0.50609960E+03</rscale>
<asrwt>0</asrwt>
<pdfrwt beam="1">  1        2 0.57120670E-01 0.50609960E+03</pdfrwt>
<pdfrwt beam="2">  1       -2 0.22878241E-01 0.50609960E+03</pdfrwt>
<totfact> 0.14510859E+03</totfact>
</mgrwt>
</event>
<event>
 4    1  0.4998754E-005  0.6608026E+03  0.7818608E-02  0.9786717E-01
          2   -1    0    0  501    0  0.00000000000E+00  0.00000000000E+00  0.96848237143E+03  0.96848237143E+03  0.25500000000E-02 0.  1.
         -2   -1    0    0    0  501 -0.00000000000E+00 -0.00000000000E+00 -0.11271762465E+03  0.11271762468E+03  0.25500000000E-02 0. -1.
    5000001    1    1    2    0    0 -0.15466516430E+02  0.25722292229E+03  0.51987635112E+03  0.61341280173E+03  0.19900000000E+03 0.  0.
   -5000001    1    1    2    0    0  0.15466516430E+02 -0.25722292229E+03  0.33588839566E+03  0.46778719437E+03  0.19900000000E+03 0.  0.
<mgrwt>
<rscale>  0 0.66080264E+03</rscale>
<asrwt>0</asrwt>
<pdfrwt beam="1">  1        2 0.13835462E+00 0.66080264E+03</pdfrwt>
<pdfrwt beam="2">  1       -2 0.16102518E-01 0.66080264E+03</pdfrwt>
<totfact> 0.91651891E+02</totfact>
</mgrwt>
</event>
<event>
 4    1  0.4998754E-005  0.5495584E+03  0.7818608E-02  0.1001596E+00
         -2   -1    0    0    0  501 -0.00000000000E+00  0.00000000000E+00  0.41370477620E+02  0.41370477699E+02  0.25500000000E-02 0. -1.
          2   -1    0    0  501    0  0.00000000000E+00 -0.00000000000E+00 -0.18250601596E+04  0.18250601596E+04  0.25500000000E-02 0.  1.
    5000001    1    1    2    0    0  0.19988863370E+01  0.80913030400E+02 -0.14736996168E+04  0.14892758222E+04  0.19900000000E+03 0.  0.
   -5000001    1    1    2    0    0 -0.19988863370E+01 -0.80913030400E+02 -0.30999006512E+03  0.37715481504E+03  0.19900000000E+03 0.  0.
<mgrwt>
<rscale>  0 0.54955841E+03</rscale>
<asrwt>0</asrwt>
<pdfrwt beam="1">  1        2 0.26072283E+00 0.54955841E+03</pdfrwt>
<pdfrwt beam="2">  1       -2 0.59100694E-02 0.54955841E+03</pdfrwt>
<totfact> 0.16076656E+03</totfact>
</mgrwt>
</event>
<event>
 4    1  0.4998754E-005  0.5543678E+03  0.7818608E-02  0.1000488E+00
          2   -1    0    0  501    0  0.00000000000E+00  0.00000000000E+00  0.70115709120E+03  0.70115709121E+03  0.25500000000E-02 0.  1.
         -2   -1    0    0    0  501 -0.00000000000E+00 -0.00000000000E+00 -0.10957731840E+03  0.10957731843E+03  0.25500000000E-02 0. -1.
    5000001    1    1    2    0    0 -0.69765729446E+02 -0.14060963630E+03  0.45989452102E+03  0.52511169982E+03  0.19900000000E+03 0.  0.
   -5000001    1    1    2    0    0  0.69765729446E+02  0.14060963630E+03  0.13168525179E+03  0.28562270982E+03  0.19900000000E+03 0.  0.
<mgrwt>
<rscale>  0 0.55436780E+03</rscale>
<asrwt>0</asrwt>
<pdfrwt beam="1">  1        2 0.10016530E+00 0.55436780E+03</pdfrwt>
<pdfrwt beam="2">  1       -2 0.15653903E-01 0.55436780E+03</pdfrwt>
<totfact> 0.14639780E+03</totfact>
</mgrwt>
</event>
<event>
 4    1  0.4998754E-005  0.4338843E+03  0.7818608E-02  0.1032640E+00
         -2   -1    0    0    0  501 -0.00000000000E+00  0.00000000000E+00  0.38634711355E+02  0.38634711439E+02  0.25500000000E-02 0. -1.
          2   -1    0    0  501    0  0.00000000000E+00 -0.00000000000E+00 -0.12181764430E+04  0.12181764430E+04  0.25500000000E-02 0.  1.
    5000001    1    1    2    0    0 -0.37264218971E+00 -0.84174670230E+02 -0.64604208262E+03  0.68121720947E+03  0.19900000000E+03 0.  0.
   -5000001    1    1    2    0    0  0.37264218971E+00  0.84174670230E+02 -0.53349964901E+03  0.57559394495E+03  0.19900000000E+03 0.  0.
<mgrwt>
<rscale>  0 0.43388429E+03</rscale>
<asrwt>0</asrwt>
<pdfrwt beam="1">  1        2 0.17402518E+00 0.43388429E+03</pdfrwt>
<pdfrwt beam="2">  1       -2 0.55192452E-02 0.43388429E+03</pdfrwt>
<totfact> 0.37016134E+03</totfact>
</mgrwt>
</event>
<event>
 4    1  0.4998754E-005  0.5431894E+03  0.7818608E-02  0.1003083E+00
          2   -1    0    0  501    0  0.00000000000E+00  0.00000000000E+00  0.20913187076E+04  0.20913187076E+04  0.25500000000E-02 0.  1.
         -2   -1    0    0    0  501 -0.00000000000E+00 -0.00000000000E+00 -0.35271377184E+02  0.35271377276E+02  0.25500000000E-02 0. -1.
    5000001    1    1    2    0    0 -0.98819895078E+02  0.10551841750E+03  0.57714846406E+03  0.62737616918E+03  0.19900000000E+03 0.  0.
   -5000001    1    1    2    0    0  0.98819895078E+02 -0.10551841750E+03  0.14788988664E+04  0.14992139157E+04  0.19900000000E+03 0.  0.
<mgrwt>
<rscale>  0 0.54318944E+03</rscale>
<asrwt>0</asrwt>
<pdfrwt beam="1">  1        2 0.29875980E+00 0.54318944E+03</pdfrwt>
<pdfrwt beam="2">  1       -2 0.50387685E-02 0.54318944E+03</pdfrwt>
<totfact> 0.15157391E+03</totfact>
</mgrwt>
</event>
<event>
 4    1  0.4998754E-005  0.8126612E+03  0.7818608E-02  0.9541869E-01
         -2   -1    0    0    0  501 -0.00000000000E+00  0.00000000000E+00  0.42906751765E+02  0.42906751841E+02  0.25500000000E-02 0. -1.
          2   -1    0    0  501    0  0.00000000000E+00 -0.00000000000E+00 -0.38479854353E+04  0.38479854353E+04  0.25500000000E-02 0.  1.
    5000001    1    1    2    0    0 -0.28177871073E+03 -0.14836198597E+03 -0.11593740283E+04  0.12186712674E+04  0.19900000000E+03 0.  0.
   -5000001    1    1    2    0    0  0.28177871073E+03  0.14836198597E+03 -0.26457046553E+04  0.26722209197E+04  0.19900000000E+03 0.  0.
<mgrwt>
<rscale>  0 0.81266120E+03</rscale>
<asrwt>0</asrwt>
<pdfrwt beam="1">  1        2 0.54971199E+00 0.81266120E+03</pdfrwt>
<pdfrwt beam="2">  1       -2 0.61295384E-02 0.81266120E+03</pdfrwt>
<totfact> 0.11603825E+02</totfact>
</mgrwt>
</event>
<event>
 4    1  0.4998754E-005  0.7467138E+03  0.7818608E-02  0.9640520E-01
         -2   -1    0    0    0  501 -0.00000000000E+00  0.00000000000E+00  0.30639573611E+03  0.30639573612E+03  0.25500000000E-02 0. -1.
          2   -1    0    0  501    0  0.00000000000E+00 -0.00000000000E+00 -0.45495204432E+03  0.45495204432E+03  0.25500000000E-02 0.  1.
    5000001    1    1    2    0    0  0.19935173701E+03  0.24324989248E+03 -0.10457138802E+03  0.38658479074E+03  0.19900000000E+03 0.  0.
   -5000001    1    1    2    0    0 -0.19935173701E+03 -0.24324989248E+03 -0.43984920192E+02  0.37476298970E+03  0.19900000000E+03 0.  0.
<mgrwt>
<rscale>  0 0.74671378E+03</rscale>
<asrwt>0</asrwt>
<pdfrwt beam="1">  1        2 0.64993149E-01 0.74671378E+03</pdfrwt>
<pdfrwt beam="2">  1       -2 0.43770819E-01 0.74671378E+03</pdfrwt>
<totfact> 0.37264365E+02</totfact>
</mgrwt>
</event>
<event>
 4    1  0.4998754E-005  0.7537274E+03  0.7818608E-02  0.9629521E-01
          2   -1    0    0  501    0  0.00000000000E+00  0.00000000000E+00  0.15275895026E+03  0.15275895028E+03  0.25500000000E-02 0.  1.
         -2   -1    0    0    0  501 -0.00000000000E+00 -0.00000000000E+00 -0.92974097887E+03  0.92974097887E+03  0.25500000000E-02 0. -1.
    5000001    1    1    2    0    0  0.18196222392E+03 -0.25658446511E+03 -0.30377474541E+03  0.48044347703E+03  0.19900000000E+03 0.  0.
   -5000001    1    1    2    0    0 -0.18196222392E+03  0.25658446511E+03 -0.47320728320E+03  0.60205645212E+03  0.19900000000E+03 0.  0.
<mgrwt>
<rscale>  0 0.75372742E+03</rscale>
<asrwt>0</asrwt>
<pdfrwt beam="1">  1        2 0.21822708E-01 0.75372742E+03</pdfrwt>
<pdfrwt beam="2">  1       -2 0.13282014E+00 0.75372742E+03</pdfrwt>
<totfact> 0.10653244E+02</totfact>
</mgrwt>
</event>
<event>
 4    1  0.4998754E-005  0.9639582E+03  0.7818608E-02  0.9348983E-01
          2   -1    0    0  501    0  0.00000000000E+00  0.00000000000E+00  0.28621405290E+04  0.28621405290E+04  0.25500000000E-02 0.  1.
         -2   -1    0    0    0  501 -0.00000000000E+00 -0.00000000000E+00 -0.81164377883E+02  0.81164377923E+02  0.25500000000E-02 0. -1.
    5000001    1    1    2    0    0 -0.28064240858E+03  0.13785933461E+03  0.23312851119E+04  0.23605627784E+04  0.19900000000E+03 0.  0.
   -5000001    1    1    2    0    0  0.28064240858E+03 -0.13785933461E+03  0.44969103917E+03  0.58274212851E+03  0.19900000000E+03 0.  0.
<mgrwt>
<rscale>  0 0.96395821E+03</rscale>
<asrwt>0</asrwt>
<pdfrwt beam="1">  1        2 0.40887709E+00 0.96395821E+03</pdfrwt>
<pdfrwt beam="2">  1       -2 0.11594915E-01 0.96395821E+03</pdfrwt>
<totfact> 0.15481932E+02</totfact>
</mgrwt>
</event>
<event>
 4    1  0.4998754E-005  0.7944703E+03  0.7818608E-02  0.9568056E-01
          2   -1    0    0  501    0  0.00000000000E+00  0.00000000000E+00  0.63876060415E+03  0.63876060416E+03  0.25500000000E-02 0.  1.
         -2   -1    0    0    0  501 -0.00000000000E+00 -0.00000000000E+00 -0.24703429756E+03  0.24703429757E+03  0.25500000000E-02 0. -1.
    5000001    1    1    2    0    0 -0.32403281282E+03 -0.91040758535E+02  0.27398205907E+03  0.47744408279E+03  0.19900000000E+03 0.  0.
   -5000001    1    1    2    0    0  0.32403281282E+03  0.91040758535E+02  0.11774424753E+03  0.40835081894E+03  0.19900000000E+03 0.  0.
<mgrwt>
<rscale>  0 0.79447033E+03</rscale>
<asrwt>0</asrwt>
<pdfrwt beam="1">  1        2 0.91251513E-01 0.79447033E+03</pdfrwt>
<pdfrwt beam="2">  1       -2 0.35290615E-01 0.79447033E+03</pdfrwt>
<totfact> 0.38107144E+02</totfact>
</mgrwt>
</event>
<event>
 4    1  0.4998754E-005  0.7217024E+03  0.7818608E-02  0.9680822E-01
         -2   -1    0    0    0  501 -0.00000000000E+00  0.00000000000E+00  0.64034936060E+02  0.64034936111E+02  0.25500000000E-02 0.  1.
          2   -1    0    0  501    0  0.00000000000E+00 -0.00000000000E+00 -0.20334771893E+04  0.20334771893E+04  0.25500000000E-02 0. -1.
    5000001    1    1    2    0    0  0.49405287852E+02 -0.29343123337E+03 -0.11169455410E+04  0.11729071202E+04  0.19900000000E+03 0.  0.
   -5000001    1    1    2    0    0 -0.49405287852E+02  0.29343123337E+03 -0.85249671229E+03  0.92460500521E+03  0.19900000000E+03 0.  0.
<mgrwt>
<rscale>  0 0.72170238E+03</rscale>
<asrwt>0</asrwt>
<pdfrwt beam="1">  1        2 0.29049670E+00 0.72170238E+03</pdfrwt>
<pdfrwt beam="2">  1       -2 0.91478492E-02 0.72170238E+03</pdfrwt>
<totfact> 0.62520634E+02</totfact>
</mgrwt>
</event>
<event>
 4    1  0.4998754E-005  0.5093334E+03  0.7818608E-02  0.1011371E+00
          2   -1    0    0  501    0  0.00000000000E+00  0.00000000000E+00  0.42903724576E+04  0.42903724576E+04  0.25500000000E-02 0.  1.
         -2   -1    0    0    0  501 -0.00000000000E+00 -0.00000000000E+00 -0.15116435513E+02  0.15116435728E+02  0.25500000000E-02 0. -1.
    5000001    1    1    2    0    0 -0.25365588001E+02 -0.12443589916E+03  0.13300754200E+04  0.13508624389E+04  0.19900000000E+03 0.  0.
   -5000001    1    1    2    0    0  0.25365588001E+02  0.12443589916E+03  0.29451806021E+04  0.29546264544E+04  0.19900000000E+03 0.  0.
<mgrwt>
<rscale>  0 0.50933344E+03</rscale>
<asrwt>0</asrwt>
<pdfrwt beam="1">  1        2 0.61290962E+00 0.50933344E+03</pdfrwt>
<pdfrwt beam="2">  1       -2 0.21594934E-02 0.50933344E+03</pdfrwt>
<totfact> 0.30015146E+02</totfact>
</mgrwt>
</event>
<event>
 4    1  0.4998754E-005  0.6444132E+03  0.7818608E-02  0.9817319E-01
          2   -1    0    0  501    0  0.00000000000E+00  0.00000000000E+00  0.15891289176E+04  0.15891289176E+04  0.25500000000E-02 0.  1.
         -2   -1    0    0    0  501 -0.00000000000E+00 -0.00000000000E+00 -0.65329554954E+02  0.65329555004E+02  0.25500000000E-02 0. -1.
    5000001    1    1    2    0    0  0.25540609089E+02 -0.90021135891E+02  0.15728146806E+03  0.27036010766E+03  0.19900000000E+03 0.  0.
   -5000001    1    1    2    0    0 -0.25540609089E+02  0.90021135891E+02  0.13665178945E+04  0.13840983649E+04  0.19900000000E+03 0.  0.
<mgrwt>
<rscale>  0 0.64441317E+03</rscale>
<asrwt>0</asrwt>
<pdfrwt beam="1">  1        2 0.22701844E+00 0.64441317E+03</pdfrwt>
<pdfrwt beam="2">  1       -2 0.93327924E-02 0.64441317E+03</pdfrwt>
<totfact> 0.10223716E+03</totfact>
</mgrwt>
</event>
<event>
 4    1  0.4998754E-005  0.7438891E+03  0.7818608E-02  0.9644986E-01
         -2   -1    0    0    0  501 -0.00000000000E+00  0.00000000000E+00  0.11464518837E+03  0.11464518840E+03  0.25500000000E-02 0. -1.
          2   -1    0    0  501    0  0.00000000000E+00 -0.00000000000E+00 -0.12067035593E+04  0.12067035593E+04  0.25500000000E-02 0.  1.
    5000001    1    1    2    0    0  0.12765599261E+03  0.22009141042E+03 -0.87358376428E+03  0.93138921756E+03  0.19900000000E+03 0.  0.
   -5000001    1    1    2    0    0 -0.12765599261E+03 -0.22009141042E+03 -0.21847460664E+03  0.38995953013E+03  0.19900000000E+03 0.  0.
<mgrwt>
<rscale>  0 0.74388912E+03</rscale>
<asrwt>0</asrwt>
<pdfrwt beam="1">  1        2 0.17238621E+00 0.74388912E+03</pdfrwt>
<pdfrwt beam="2">  1       -2 0.16377885E-01 0.74388912E+03</pdfrwt>
<totfact> 0.64255885E+02</totfact>
</mgrwt>
</event>
<event>
 4    1  0.4998754E-005  0.7115684E+03  0.7818608E-02  0.9697651E-01
          2   -1    0    0  501    0  0.00000000000E+00  0.00000000000E+00  0.16945585093E+04  0.16945585093E+04  0.25500000000E-02 0.  1.
         -2   -1    0    0    0  501 -0.00000000000E+00 -0.00000000000E+00 -0.74699335349E+02  0.74699335393E+02  0.25500000000E-02 0. -1.
    5000001    1    1    2    0    0  0.15349802802E+03  0.23413249419E+03  0.57932536359E+03  0.67349725044E+03  0.19900000000E+03 0.  0.
   -5000001    1    1    2    0    0 -0.15349802802E+03 -0.23413249419E+03  0.10405338104E+04  0.10957605943E+04  0.19900000000E+03 0.  0.
<mgrwt>
<rscale>  0 0.71156839E+03</rscale>
<asrwt>0</asrwt>
<pdfrwt beam="1">  1        2 0.24207977E+00 0.71156839E+03</pdfrwt>
<pdfrwt beam="2">  1       -2 0.10671334E-01 0.71156839E+03</pdfrwt>
<totfact> 0.72356046E+02</totfact>
</mgrwt>
</event>
<event>
 4    1  0.4998754E-005  0.8639875E+03  0.7818608E-02  0.9471753E-01
          2   -1    0    0  501    0  0.00000000000E+00  0.00000000000E+00  0.87095609327E+03  0.87095609328E+03  0.25500000000E-02 0.  1.
         -2   -1    0    0    0  501 -0.00000000000E+00 -0.00000000000E+00 -0.21426867404E+03  0.21426867405E+03  0.25500000000E-02 0. -1.
    5000001    1    1    2    0    0 -0.27872137366E+03  0.23052994480E+03  0.48815524543E+03  0.63931698180E+03  0.19900000000E+03 0.  0.
   -5000001    1    1    2    0    0  0.27872137366E+03 -0.23052994480E+03  0.16853217381E+03  0.44590778553E+03  0.19900000000E+03 0.  0.
<mgrwt>
<rscale>  0 0.86398752E+03</rscale>
<asrwt>0</asrwt>
<pdfrwt beam="1">  1        2 0.12442230E+00 0.86398752E+03</pdfrwt>
<pdfrwt beam="2">  1       -2 0.30609811E-01 0.86398752E+03</pdfrwt>
<totfact> 0.33594182E+02</totfact>
</mgrwt>
</event>
<event>
 4    1  0.4998754E-005  0.4983109E+03  0.7818608E-02  0.1014221E+00
          2   -1    0    0  501    0  0.00000000000E+00  0.00000000000E+00  0.40808837989E+03  0.40808837990E+03  0.25500000000E-02 0.  1.
         -2   -1    0    0    0  501 -0.00000000000E+00 -0.00000000000E+00 -0.15212008116E+03  0.15212008118E+03  0.25500000000E-02 0. -1.
    5000001    1    1    2    0    0  0.14948114885E+03 -0.67949018082E+01  0.11751910935E+03  0.27532258464E+03  0.19900000000E+03 0.  0.
   -5000001    1    1    2    0    0 -0.14948114885E+03  0.67949018082E+01  0.13844918938E+03  0.28488587644E+03  0.19900000000E+03 0.  0.
<mgrwt>
<rscale>  0 0.49831090E+03</rscale>
<asrwt>0</asrwt>
<pdfrwt beam="1">  1        2 0.58298340E-01 0.49831090E+03</pdfrwt>
<pdfrwt beam="2">  1       -2 0.21731440E-01 0.49831090E+03</pdfrwt>
<totfact> 0.15530626E+03</totfact>
</mgrwt>
</event>
<event>
 4    1  0.4998754E-005  0.4769040E+03  0.7818608E-02  0.1019990E+00
          2   -1    0    0  501    0  0.00000000000E+00  0.00000000000E+00  0.16259392749E+04  0.16259392749E+04  0.25500000000E-02 0.  1.
         -2   -1    0    0    0  501 -0.00000000000E+00 -0.00000000000E+00 -0.34970154827E+02  0.34970154920E+02  0.25500000000E-02 0. -1.
    5000001    1    1    2    0    0 -0.28054654214E+02 -0.12293863868E+03  0.66717321395E+03  0.70754651432E+03  0.19900000000E+03 0.  0.
   -5000001    1    1    2    0    0  0.28054654214E+02  0.12293863868E+03  0.92379590616E+03  0.95336291555E+03  0.19900000000E+03 0.  0.
<mgrwt>
<rscale>  0 0.47690397E+03</rscale>
<asrwt>0</asrwt>
<pdfrwt beam="1">  1        2 0.23227704E+00 0.47690397E+03</pdfrwt>
<pdfrwt beam="2">  1       -2 0.49957364E-02 0.47690397E+03</pdfrwt>
<totfact> 0.26364915E+03</totfact>
</mgrwt>
</event>
<event>
 4    1  0.4998754E-005  0.1124608E+04  0.7818608E-02  0.9181534E-01
         -2   -1    0    0    0  501 -0.00000000000E+00  0.00000000000E+00  0.18836010051E+03  0.18836010053E+03  0.25500000000E-02 0. -1.
          2   -1    0    0  501    0  0.00000000000E+00 -0.00000000000E+00 -0.16786242683E+04  0.16786242683E+04  0.25500000000E-02 0.  1.
    5000001    1    1    2    0    0  0.61511939990E+02 -0.40468530386E+03 -0.19696327163E+03  0.49593290301E+03  0.19900000000E+03 0.  0.
   -5000001    1    1    2    0    0 -0.61511939990E+02  0.40468530386E+03 -0.12933008961E+04  0.13710514658E+04  0.19900000000E+03 0.  0.
<mgrwt>
<rscale>  0 0.11246081E+04</rscale>
<asrwt>0</asrwt>
<pdfrwt beam="1">  1        2 0.23980346E+00 0.11246081E+04</pdfrwt>
<pdfrwt beam="2">  1       -2 0.26908587E-01 0.11246081E+04</pdfrwt>
<totfact> 0.14618093E+02</totfact>
</mgrwt>
</event>
<event>
 4    1  0.4998754E-005  0.6450004E+03  0.7818608E-02  0.9816206E-01
          2   -1    0    0  501    0  0.00000000000E+00  0.00000000000E+00  0.80230472511E+03  0.80230472511E+03  0.25500000000E-02 0.  1.
         -2   -1    0    0    0  501 -0.00000000000E+00 -0.00000000000E+00 -0.12963452803E+03  0.12963452806E+03  0.25500000000E-02 0. -1.
    5000001    1    1    2    0    0 -0.13784341200E+02  0.23615573978E+03  0.46912019853E+03  0.56181340511E+03  0.19900000000E+03 0.  0.
   -5000001    1    1    2    0    0  0.13784341200E+02 -0.23615573978E+03  0.20354999854E+03  0.37012584806E+03  0.19900000000E+03 0.  0.
<mgrwt>
<rscale>  0 0.64500045E+03</rscale>
<asrwt>0</asrwt>
<pdfrwt beam="1">  1        2 0.11461496E+00 0.64500045E+03</pdfrwt>
<pdfrwt beam="2">  1       -2 0.18519218E-01 0.64500045E+03</pdfrwt>
<totfact> 0.92715152E+02</totfact>
</mgrwt>
</event>
<event>
 4    1  0.4998754E-005  0.4788960E+03  0.7818608E-02  0.1019439E+00
          2   -1    0    0  501    0  0.00000000000E+00  0.00000000000E+00  0.12569382226E+04  0.12569382226E+04  0.25500000000E-02 0.  1.
         -2   -1    0    0    0  501 -0.00000000000E+00 -0.00000000000E+00 -0.45615086272E+02  0.45615086343E+02  0.25500000000E-02 0. -1.
    5000001    1    1    2    0    0 -0.12349647846E+03 -0.21415001437E+02  0.48328493723E+03  0.53747122066E+03  0.19900000000E+03 0.  0.
   -5000001    1    1    2    0    0  0.12349647846E+03  0.21415001437E+02  0.72803819910E+03  0.76508208829E+03  0.19900000000E+03 0.  0.
<mgrwt>
<rscale>  0 0.47889600E+03</rscale>
<asrwt>0</asrwt>
<pdfrwt beam="1">  1        2 0.17956258E+00 0.47889600E+03</pdfrwt>
<pdfrwt beam="2">  1       -2 0.65164417E-02 0.47889600E+03</pdfrwt>
<totfact> 0.27225264E+03</totfact>
</mgrwt>
</event>
<event>
 4    1  0.4998754E-005  0.7098676E+03  0.7818608E-02  0.9700505E-01
          2   -1    0    0  501    0  0.00000000000E+00  0.00000000000E+00  0.75190070500E+02  0.75190070544E+02  0.25500000000E-02 0.  1.
         -2   -1    0    0    0  501 -0.00000000000E+00 -0.00000000000E+00 -0.16754606121E+04  0.16754606121E+04  0.25500000000E-02 0. -1.
    5000001    1    1    2    0    0 -0.96127201316E+02 -0.26695986042E+03 -0.98906662571E+03  0.10480275741E+04  0.19900000000E+03 0.  0.
   -5000001    1    1    2    0    0  0.96127201316E+02  0.26695986042E+03 -0.61120391588E+03  0.70262310857E+03  0.19900000000E+03 0.  0.
<mgrwt>
<rscale>  0 0.70986760E+03</rscale>
<asrwt>0</asrwt>
<pdfrwt beam="1">  1        2 0.10741440E-01 0.70986760E+03</pdfrwt>
<pdfrwt beam="2">  1       -2 0.23935149E+00 0.70986760E+03</pdfrwt>
<totfact> 0.46682836E+01</totfact>
</mgrwt>
</event>
<event>
 4    1  0.4998754E-005  0.7328812E+03  0.7818608E-02  0.9662597E-01
          2   -1    0    0  501    0  0.00000000000E+00  0.00000000000E+00  0.49751839406E+03  0.49751839406E+03  0.25500000000E-02 0.  1.
         -2   -1    0    0    0  501 -0.00000000000E+00 -0.00000000000E+00 -0.26989695937E+03  0.26989695938E+03  0.25500000000E-02 0. -1.
    5000001    1    1    2    0    0  0.14461848564E+03 -0.22592692864E+03 -0.44024230563E+02  0.33689258875E+03  0.19900000000E+03 0.  0.
   -5000001    1    1    2    0    0 -0.14461848564E+03  0.22592692864E+03  0.27164566525E+03  0.43052276470E+03  0.19900000000E+03 0.  0.
<mgrwt>
<rscale>  0 0.73288117E+03</rscale>
<asrwt>0</asrwt>
<pdfrwt beam="1">  1        2 0.71074057E-01 0.73288117E+03</pdfrwt>
<pdfrwt beam="2">  1       -2 0.38556708E-01 0.73288117E+03</pdfrwt>
<totfact> 0.43165730E+02</totfact>
</mgrwt>
</event>
<event>
 4    1  0.4998754E-005  0.5749908E+03  0.7818608E-02  0.9958695E-01
          2   -1    0    0  501    0  0.00000000000E+00  0.00000000000E+00  0.21286745549E+03  0.21286745550E+03  0.25500000000E-02 0.  1.
         -2   -1    0    0    0  501 -0.00000000000E+00 -0.00000000000E+00 -0.38828676272E+03  0.38828676273E+03  0.25500000000E-02 0. -1.
    5000001    1    1    2    0    0  0.50947947220E+02 -0.19384242431E+03 -0.31582281763E+02  0.28419890800E+03  0.19900000000E+03 0.  0.
   -5000001    1    1    2    0    0 -0.50947947220E+02  0.19384242431E+03 -0.14383702547E+03  0.31695531023E+03  0.19900000000E+03 0.  0.
<mgrwt>
<rscale>  0 0.57499084E+03</rscale>
<asrwt>0</asrwt>
<pdfrwt beam="1">  1        2 0.30409636E-01 0.57499084E+03</pdfrwt>
<pdfrwt beam="2">  1       -2 0.55469538E-01 0.57499084E+03</pdfrwt>
<totfact> 0.53944590E+02</totfact>
</mgrwt>
</event>
<event>
 4    1  0.4998754E-005  0.1063199E+04  0.7818608E-02  0.9241822E-01
         -2   -1    0    0    0  501 -0.00000000000E+00  0.00000000000E+00  0.40541122657E+03  0.40541122658E+03  0.25500000000E-02 0. -1.
          2   -1    0    0  501    0  0.00000000000E+00 -0.00000000000E+00 -0.69706542059E+03  0.69706542059E+03  0.25500000000E-02 0.  1.
    5000001    1    1    2    0    0  0.14579019664E+03  0.46849416806E+03 -0.19507456279E+03  0.56426647250E+03  0.19900000000E+03 0.  0.
   -5000001    1    1    2    0    0 -0.14579019664E+03 -0.46849416806E+03 -0.96579631230E+02  0.53821017466E+03  0.19900000000E+03 0.  0.
<mgrwt>
<rscale>  0 0.10631992E+04</rscale>
<asrwt>0</asrwt>
<pdfrwt beam="1">  1        2 0.99580774E-01 0.10631992E+04</pdfrwt>
<pdfrwt beam="2">  1       -2 0.57915890E-01 0.10631992E+04</pdfrwt>
<totfact> 0.12567508E+02</totfact>
</mgrwt>
</event>
<event>
 4    1  0.4998754E-005  0.4834332E+03  0.7818608E-02  0.1018196E+00
          2   -1    0    0  501    0  0.00000000000E+00  0.00000000000E+00  0.17674480918E+04  0.17674480918E+04  0.25500000000E-02 0.  1.
         -2   -1    0    0    0  501 -0.00000000000E+00 -0.00000000000E+00 -0.33057213080E+02  0.33057213179E+02  0.25500000000E-02 0. -1.
    5000001    1    1    2    0    0 -0.13401725927E+03 -0.28681850329E+02  0.89151388006E+03  0.92367812178E+03  0.19900000000E+03 0.  0.
   -5000001    1    1    2    0    0  0.13401725927E+03  0.28681850329E+02  0.84287699863E+03  0.87682718316E+03  0.19900000000E+03 0.  0.
<mgrwt>
<rscale>  0 0.48343317E+03</rscale>
<asrwt>0</asrwt>
<pdfrwt beam="1">  1        2 0.25249270E+00 0.48343317E+03</pdfrwt>
<pdfrwt beam="2">  1       -2 0.47224569E-02 0.48343317E+03</pdfrwt>
<totfact> 0.24388518E+03</totfact>
</mgrwt>
</event>
<event>
 4    1  0.4998754E-005  0.6563238E+03  0.7818608E-02  0.9794985E-01
          2   -1    0    0  501    0  0.00000000000E+00  0.00000000000E+00  0.83141567729E+03  0.83141567729E+03  0.25500000000E-02 0.  1.
         -2   -1    0    0    0  501 -0.00000000000E+00 -0.00000000000E+00 -0.12952634717E+03  0.12952634719E+03  0.25500000000E-02 0. -1.
    5000001    1    1    2    0    0  0.18740865621E+03 -0.17797179239E+03  0.40359777478E+03  0.51892979016E+03  0.19900000000E+03 0.  0.
   -5000001    1    1    2    0    0 -0.18740865621E+03  0.17797179239E+03  0.29829155534E+03  0.44201223433E+03  0.19900000000E+03 0.  0.
<mgrwt>
<rscale>  0 0.65632381E+03</rscale>
<asrwt>0</asrwt>
<pdfrwt beam="1">  1        2 0.11877367E+00 0.65632381E+03</pdfrwt>
<pdfrwt beam="2">  1       -2 0.18503764E-01 0.65632381E+03</pdfrwt>
<totfact> 0.88650695E+02</totfact>
</mgrwt>
</event>
<event>
 4    1  0.4998754E-005  0.7537700E+03  0.7818608E-02  0.9629454E-01
         -2   -1    0    0    0  501 -0.00000000000E+00  0.00000000000E+00  0.10568948532E+03  0.10568948535E+03  0.25500000000E-02 0. -1.
          2   -1    0    0  501    0  0.00000000000E+00 -0.00000000000E+00 -0.13439586639E+04  0.13439586639E+04  0.25500000000E-02 0.  1.
    5000001    1    1    2    0    0 -0.13740536876E+03  0.27757021772E+03 -0.46389270192E+03  0.59221862519E+03  0.19900000000E+03 0.  0.
   -5000001    1    1    2    0    0  0.13740536876E+03 -0.27757021772E+03 -0.77437647664E+03  0.85742952404E+03  0.19900000000E+03 0.  0.
<mgrwt>
<rscale>  0 0.75376999E+03</rscale>
<asrwt>0</asrwt>
<pdfrwt beam="1">  1        2 0.19199408E+00 0.75376999E+03</pdfrwt>
<pdfrwt beam="2">  1       -2 0.15098499E-01 0.75376999E+03</pdfrwt>
<totfact> 0.61939931E+02</totfact>
</mgrwt>
</event>
<event>
 4    1  0.4998754E-005  0.9020059E+03  0.7818608E-02  0.9423077E-01
         -2   -1    0    0    0  501 -0.00000000000E+00  0.00000000000E+00  0.76453242587E+03  0.76453242587E+03  0.25500000000E-02 0. -1.
          2   -1    0    0  501    0  0.00000000000E+00 -0.00000000000E+00 -0.26604972248E+03  0.26604972250E+03  0.25500000000E-02 0.  1.
    5000001    1    1    2    0    0  0.20933525055E+03  0.29831283201E+03  0.48105271671E+02  0.41800348088E+03  0.19900000000E+03 0.  0.
   -5000001    1    1    2    0    0 -0.20933525055E+03 -0.29831283201E+03  0.45037743171E+03  0.61257866749E+03  0.19900000000E+03 0.  0.
<mgrwt>
<rscale>  0 0.90200585E+03</rscale>
<asrwt>0</asrwt>
<pdfrwt beam="1">  1        2 0.38007103E-01 0.90200585E+03</pdfrwt>
<pdfrwt beam="2">  1       -2 0.10921892E+00 0.90200585E+03</pdfrwt>
<totfact> 0.91459857E+01</totfact>
</mgrwt>
</event>
<event>
 4    1  0.4998754E-005  0.6334549E+03  0.7818608E-02  0.9838330E-01
          2   -1    0    0  501    0  0.00000000000E+00  0.00000000000E+00  0.66112365700E+03  0.66112365700E+03  0.25500000000E-02 0.  1.
         -2   -1    0    0    0  501 -0.00000000000E+00 -0.00000000000E+00 -0.15173604370E+03  0.15173604372E+03  0.25500000000E-02 0. -1.
    5000001    1    1    2    0    0  0.24610491195E+03  0.27982141648E+01  0.23951978423E+03  0.39692087968E+03  0.19900000000E+03 0.  0.
   -5000001    1    1    2    0    0 -0.24610491195E+03 -0.27982141648E+01  0.26986782907E+03  0.41593882105E+03  0.19900000000E+03 0.  0.
<mgrwt>
<rscale>  0 0.63345493E+03</rscale>
<asrwt>0</asrwt>
<pdfrwt beam="1">  1        2 0.94446240E-01 0.63345493E+03</pdfrwt>
<pdfrwt beam="2">  1       -2 0.21676577E-01 0.63345493E+03</pdfrwt>
<totfact> 0.89620259E+02</totfact>
</mgrwt>
</event>
<event>
 4    1  0.4998754E-005  0.6100891E+03  0.7818608E-02  0.9884693E-01
         -2   -1    0    0    0  501 -0.00000000000E+00  0.00000000000E+00  0.52696213233E+02  0.52696213295E+02  0.25500000000E-02 0. -1.
          2   -1    0    0  501    0  0.00000000000E+00 -0.00000000000E+00 -0.17658231131E+04  0.17658231131E+04  0.25500000000E-02 0.  1.
    5000001    1    1    2    0    0  0.10807986474E+03  0.16749893120E+03 -0.12056293011E+04  0.12380953763E+04  0.19900000000E+03 0.  0.
   -5000001    1    1    2    0    0 -0.10807986474E+03 -0.16749893120E+03 -0.50749759882E+03  0.58042395017E+03  0.19900000000E+03 0.  0.
<mgrwt>
<rscale>  0 0.61008915E+03</rscale>
<asrwt>0</asrwt>
<pdfrwt beam="1">  1        2 0.25226041E+00 0.61008915E+03</pdfrwt>
<pdfrwt beam="2">  1       -2 0.75280316E-02 0.61008915E+03</pdfrwt>
<totfact> 0.11734002E+03</totfact>
</mgrwt>
</event>
<event>
 4    1  0.4998754E-005  0.1105921E+04  0.7818608E-02  0.9199440E-01
          2   -1    0    0  501    0  0.00000000000E+00  0.00000000000E+00  0.21046665763E+04  0.21046665763E+04  0.25500000000E-02 0.  1.
         -2   -1    0    0    0  501 -0.00000000000E+00 -0.00000000000E+00 -0.14527961987E+03  0.14527961989E+03  0.25500000000E-02 0. -1.
    5000001    1    1    2    0    0  0.98513104138E+02  0.48045206379E+03  0.65402083006E+03  0.84135798768E+03  0.19900000000E+03 0.  0.
   -5000001    1    1    2    0    0 -0.98513104138E+02 -0.48045206379E+03  0.13053661264E+04  0.14085882085E+04  0.19900000000E+03 0.  0.
<mgrwt>
<rscale>  0 0.11059207E+04</rscale>
<asrwt>0</asrwt>
<pdfrwt beam="1">  1        2 0.30066664E+00 0.11059207E+04</pdfrwt>
<pdfrwt beam="2">  1       -2 0.20754232E-01 0.11059207E+04</pdfrwt>
<totfact> 0.14104232E+02</totfact>
</mgrwt>
</event>
<event>
 4    1  0.4998754E-005  0.7490434E+03  0.7818608E-02  0.9636852E-01
         -2   -1    0    0    0  501 -0.00000000000E+00  0.00000000000E+00  0.17621736815E+03  0.17621736817E+03  0.25500000000E-02 0. -1.
          2   -1    0    0  501    0  0.00000000000E+00 -0.00000000000E+00 -0.79598566018E+03  0.79598566018E+03  0.25500000000E-02 0.  1.
    5000001    1    1    2    0    0 -0.12130732704E+03 -0.21419923285E+03 -0.50076022204E+02  0.32047681187E+03  0.19900000000E+03 0.  0.
   -5000001    1    1    2    0    0  0.12130732704E+03  0.21419923285E+03 -0.56969226983E+03  0.65172621648E+03  0.19900000000E+03 0.  0.
<mgrwt>
<rscale>  0 0.74904338E+03</rscale>
<asrwt>0</asrwt>
<pdfrwt beam="1">  1        2 0.11371224E+00 0.74904338E+03</pdfrwt>
<pdfrwt beam="2">  1       -2 0.25173910E-01 0.74904338E+03</pdfrwt>
<totfact> 0.54327190E+02</totfact>
</mgrwt>
</event>
<event>
 4    1  0.4998754E-005  0.4490432E+03  0.7818608E-02  0.1028008E+00
          2   -1    0    0  501    0  0.00000000000E+00  0.00000000000E+00  0.20093941696E+04  0.20093941696E+04  0.25500000000E-02 0.  1.
         -2   -1    0    0    0  501 -0.00000000000E+00 -0.00000000000E+00 -0.25087141050E+02  0.25087141180E+02  0.25500000000E-02 0. -1.
    5000001    1    1    2    0    0 -0.98588473096E+02 -0.32988163129E+02  0.98751278985E+03  0.10127143803E+04  0.19900000000E+03 0.  0.
   -5000001    1    1    2    0    0  0.98588473096E+02  0.32988163129E+02  0.99679423867E+03  0.10217669305E+04  0.19900000000E+03 0.  0.
<mgrwt>
<rscale>  0 0.44904323E+03</rscale>
<asrwt>0</asrwt>
<pdfrwt beam="1">  1        2 0.28705633E+00 0.44904323E+03</pdfrwt>
<pdfrwt beam="2">  1       -2 0.35838771E-02 0.44904323E+03</pdfrwt>
<totfact> 0.28191967E+03</totfact>
</mgrwt>
</event>
<event>
 4    1  0.4998754E-005  0.5032286E+03  0.7818608E-02  0.1012940E+00
          2   -1    0    0  501    0  0.00000000000E+00  0.00000000000E+00  0.11344682873E+04  0.11344682873E+04  0.25500000000E-02 0.  1.
         -2   -1    0    0    0  501 -0.00000000000E+00 -0.00000000000E+00 -0.55805663723E+02  0.55805663782E+02  0.25500000000E-02 0. -1.
    5000001    1    1    2    0    0  0.11870426711E+03 -0.96318243256E+02  0.49566339451E+03  0.55556377462E+03  0.19900000000E+03 0.  0.
   -5000001    1    1    2    0    0 -0.11870426711E+03  0.96318243256E+02  0.58299922907E+03  0.63471017647E+03  0.19900000000E+03 0.  0.
<mgrwt>
<rscale>  0 0.50322860E+03</rscale>
<asrwt>0</asrwt>
<pdfrwt beam="1">  1        2 0.16206690E+00 0.50322860E+03</pdfrwt>
<pdfrwt beam="2">  1       -2 0.79722378E-02 0.50322860E+03</pdfrwt>
<totfact> 0.23182260E+03</totfact>
</mgrwt>
</event>
<event>
 4    1  0.4998754E-005  0.7230008E+03  0.7818608E-02  0.9678687E-01
          2   -1    0    0  501    0  0.00000000000E+00  0.00000000000E+00  0.16062083178E+03  0.16062083180E+03  0.25500000000E-02 0.  1.
         -2   -1    0    0    0  501 -0.00000000000E+00 -0.00000000000E+00 -0.81360888390E+03  0.81360888390E+03  0.25500000000E-02 0. -1.
    5000001    1    1    2    0    0  0.13881538775E+03 -0.20937507025E+03 -0.55186560039E+03  0.63817260425E+03  0.19900000000E+03 0.  0.
   -5000001    1    1    2    0    0 -0.13881538775E+03  0.20937507025E+03 -0.10112245173E+03  0.33605711146E+03  0.19900000000E+03 0.  0.
<mgrwt>
<rscale>  0 0.72300079E+03</rscale>
<asrwt>0</asrwt>
<pdfrwt beam="1">  1        2 0.22945834E-01 0.72300079E+03</pdfrwt>
<pdfrwt beam="2">  1       -2 0.11622984E+00 0.72300079E+03</pdfrwt>
<totfact> 0.14042046E+02</totfact>
</mgrwt>
</event>
<event>
 4    1  0.4998754E-005  0.7214245E+03  0.7818608E-02  0.9681279E-01
         -2   -1    0    0    0  501 -0.00000000000E+00  0.00000000000E+00  0.37142741101E+03  0.37142741102E+03  0.25500000000E-02 0. -1.
          2   -1    0    0  501    0  0.00000000000E+00 -0.00000000000E+00 -0.35030624832E+03  0.35030624833E+03  0.25500000000E-02 0.  1.
    5000001    1    1    2    0    0 -0.16616614102E+03  0.19026731645E+03  0.17403042588E+03  0.36565069022E+03  0.19900000000E+03 0.  0.
   -5000001    1    1    2    0    0  0.16616614102E+03 -0.19026731645E+03 -0.15290926319E+03  0.35608296912E+03  0.19900000000E+03 0.  0.
<mgrwt>
<rscale>  0 0.72142454E+03</rscale>
<asrwt>0</asrwt>
<pdfrwt beam="1">  1        2 0.50043750E-01 0.72142454E+03</pdfrwt>
<pdfrwt beam="2">  1       -2 0.53061058E-01 0.72142454E+03</pdfrwt>
<totfact> 0.33877687E+02</totfact>
</mgrwt>
</event>
<event>
 4    1  0.4998754E-005  0.7987786E+03  0.7818608E-02  0.9561787E-01
         -2   -1    0    0    0  501 -0.00000000000E+00  0.00000000000E+00  0.69951556629E+02  0.69951556676E+02  0.25500000000E-02 0. -1.
          2   -1    0    0  501    0  0.00000000000E+00 -0.00000000000E+00 -0.22803185188E+04  0.22803185188E+04  0.25500000000E-02 0.  1.
    5000001    1    1    2    0    0  0.22457058512E+03  0.24642899762E+03 -0.82992808751E+03  0.91626460644E+03  0.19900000000E+03 0.  0.
   -5000001    1    1    2    0    0 -0.22457058512E+03 -0.24642899762E+03 -0.13804388747E+04  0.14340054690E+04  0.19900000000E+03 0.  0.
<mgrwt>
<rscale>  0 0.79877864E+03</rscale>
<asrwt>0</asrwt>
<pdfrwt beam="1">  1        2 0.32575974E+00 0.79877864E+03</pdfrwt>
<pdfrwt beam="2">  1       -2 0.99930810E-02 0.79877864E+03</pdfrwt>
<totfact> 0.40389936E+02</totfact>
</mgrwt>
</event>
<event>
 4    1  0.4998754E-005  0.9269863E+03  0.7818608E-02  0.9392462E-01
         -2   -1    0    0    0  501 -0.00000000000E+00  0.00000000000E+00  0.20591996218E+03  0.20591996220E+03  0.25500000000E-02 0. -1.
          2   -1    0    0  501    0  0.00000000000E+00 -0.00000000000E+00 -0.10432495194E+04  0.10432495194E+04  0.25500000000E-02 0.  1.
    5000001    1    1    2    0    0 -0.31213426933E+03  0.25104091720E+03 -0.58246707460E+03  0.73438289549E+03  0.19900000000E+03 0.  0.
   -5000001    1    1    2    0    0  0.31213426933E+03 -0.25104091720E+03 -0.25486248261E+03  0.51478658610E+03  0.19900000000E+03 0.  0.
<mgrwt>
<rscale>  0 0.92698630E+03</rscale>
<asrwt>0</asrwt>
<pdfrwt beam="1">  1        2 0.14903564E+00 0.92698630E+03</pdfrwt>
<pdfrwt beam="2">  1       -2 0.29417138E-01 0.92698630E+03</pdfrwt>
<totfact> 0.28060777E+02</totfact>
</mgrwt>
</event>
<event>
 4    1  0.4998754E-005  0.9402175E+03  0.7818608E-02  0.9376658E-01
          2   -1    0    0  501    0  0.00000000000E+00  0.00000000000E+00  0.27151794828E+04  0.27151794828E+04  0.25500000000E-02 0.  1.
         -2   -1    0    0    0  501 -0.00000000000E+00 -0.00000000000E+00 -0.81395072980E+02  0.81395073020E+02  0.25500000000E-02 0. -1.
    5000001    1    1    2    0    0  0.31484503321E+03  0.28052864571E+03  0.14947975030E+04  0.15658366105E+04  0.19900000000E+03 0.  0.
   -5000001    1    1    2    0    0 -0.31484503321E+03 -0.28052864571E+03  0.11389869069E+04  0.12307379453E+04  0.19900000000E+03 0.  0.
<mgrwt>
<rscale>  0 0.94021749E+03</rscale>
<asrwt>0</asrwt>
<pdfrwt beam="1">  1        2 0.38788276E+00 0.94021749E+03</pdfrwt>
<pdfrwt beam="2">  1       -2 0.11627868E-01 0.94021749E+03</pdfrwt>
<totfact> 0.18511834E+02</totfact>
</mgrwt>
</event>
<event>
 4    1  0.4998754E-005  0.7076047E+03  0.7818608E-02  0.9704315E-01
          2   -1    0    0  501    0  0.00000000000E+00  0.00000000000E+00  0.19443891886E+03  0.19443891887E+03  0.25500000000E-02 0.  1.
         -2   -1    0    0    0  501 -0.00000000000E+00 -0.00000000000E+00 -0.64378110692E+03  0.64378110693E+03  0.25500000000E-02 0. -1.
    5000001    1    1    2    0    0  0.26456283392E+03 -0.53068559338E+02 -0.35851033721E+03  0.49085682940E+03  0.19900000000E+03 0.  0.
   -5000001    1    1    2    0    0 -0.26456283392E+03  0.53068559338E+02 -0.90831850860E+02  0.34736319640E+03  0.19900000000E+03 0.  0.
<mgrwt>
<rscale>  0 0.70760470E+03</rscale>
<asrwt>0</asrwt>
<pdfrwt beam="1">  1        2 0.27776989E-01 0.70760470E+03</pdfrwt>
<pdfrwt beam="2">  1       -2 0.91968728E-01 0.70760470E+03</pdfrwt>
<totfact> 0.19713060E+02</totfact>
</mgrwt>
</event>
<event>
 4    1  0.4998754E-005  0.7485019E+03  0.7818608E-02  0.9637704E-01
         -2   -1    0    0    0  501 -0.00000000000E+00  0.00000000000E+00  0.13371995416E+03  0.13371995418E+03  0.25500000000E-02 0. -1.
          2   -1    0    0  501    0  0.00000000000E+00 -0.00000000000E+00 -0.10474410614E+04  0.10474410614E+04  0.25500000000E-02 0.  1.
    5000001    1    1    2    0    0  0.87914046655E+02  0.29382599606E+03 -0.58310495641E+03  0.68824049994E+03  0.19900000000E+03 0.  0.
   -5000001    1    1    2    0    0 -0.87914046655E+02 -0.29382599606E+03 -0.33061615086E+03  0.49292051567E+03  0.19900000000E+03 0.  0.
<mgrwt>
<rscale>  0 0.74850189E+03</rscale>
<asrwt>0</asrwt>
<pdfrwt beam="1">  1        2 0.14963443E+00 0.74850189E+03</pdfrwt>
<pdfrwt beam="2">  1       -2 0.19102851E-01 0.74850189E+03</pdfrwt>
<totfact> 0.60978004E+02</totfact>
</mgrwt>
</event>
<event>
 4    1  0.4998754E-005  0.9534016E+03  0.7818608E-02  0.9361183E-01
         -2   -1    0    0    0  501 -0.00000000000E+00  0.00000000000E+00  0.18114090574E+03  0.18114090576E+03  0.25500000000E-02 0. -1.
          2   -1    0    0  501    0  0.00000000000E+00 -0.00000000000E+00 -0.12545130892E+04  0.12545130892E+04  0.25500000000E-02 0.  1.
    5000001    1    1    2    0    0 -0.29652003467E+03 -0.29698585203E+03 -0.69829331284E+03  0.83865325255E+03  0.19900000000E+03 0.  0.
   -5000001    1    1    2    0    0  0.29652003467E+03  0.29698585203E+03 -0.37507887066E+03  0.59700074244E+03  0.19900000000E+03 0.  0.
<mgrwt>
<rscale>  0 0.95340157E+03</rscale>
<asrwt>0</asrwt>
<pdfrwt beam="1">  1        2 0.17921615E+00 0.95340157E+03</pdfrwt>
<pdfrwt beam="2">  1       -2 0.25877273E-01 0.95340157E+03</pdfrwt>
<totfact> 0.26744417E+02</totfact>
</mgrwt>
</event>
<event>
 4    1  0.4998754E-005  0.1113128E+04  0.7818608E-02  0.9192490E-01
          2   -1    0    0  501    0  0.00000000000E+00  0.00000000000E+00  0.38176670034E+03  0.38176670035E+03  0.25500000000E-02 0.  1.
         -2   -1    0    0    0  501 -0.00000000000E+00 -0.00000000000E+00 -0.81139456318E+03  0.81139456318E+03  0.25500000000E-02 0. -1.
    5000001    1    1    2    0    0 -0.14251429193E+03 -0.46656131847E+03 -0.40707768441E+03  0.66581005433E+03  0.19900000000E+03 0.  0.
   -5000001    1    1    2    0    0  0.14251429193E+03  0.46656131847E+03 -0.22550178420E+02  0.52735120920E+03  0.19900000000E+03 0.  0.
<mgrwt>
<rscale>  0 0.11131279E+04</rscale>
<asrwt>0</asrwt>
<pdfrwt beam="1">  1        2 0.54538101E-01 0.11131279E+04</pdfrwt>
<pdfrwt beam="2">  1       -2 0.11591351E+00 0.11131279E+04</pdfrwt>
<totfact> 0.52315342E+01</totfact>
</mgrwt>
</event>
<event>
 4    1  0.4998754E-005  0.4188570E+03  0.7818608E-02  0.1037439E+00
         -2   -1    0    0    0  501 -0.00000000000E+00  0.00000000000E+00  0.33938461174E+02  0.33938461269E+02  0.25500000000E-02 0. -1.
          2   -1    0    0  501    0  0.00000000000E+00 -0.00000000000E+00 -0.12923480299E+04  0.12923480299E+04  0.25500000000E-02 0.  1.
    5000001    1    1    2    0    0  0.37414750484E+02  0.33213778084E+02 -0.76190420209E+03  0.78905134926E+03  0.19900000000E+03 0.  0.
   -5000001    1    1    2    0    0 -0.37414750484E+02 -0.33213778084E+02 -0.49650536668E+03  0.53723514195E+03  0.19900000000E+03 0.  0.
<mgrwt>
<rscale>  0 0.41885703E+03</rscale>
<asrwt>0</asrwt>
<pdfrwt beam="1">  1        2 0.18462112E+00 0.41885703E+03</pdfrwt>
<pdfrwt beam="2">  1       -2 0.48483524E-02 0.41885703E+03</pdfrwt>
<totfact> 0.41185324E+03</totfact>
</mgrwt>
</event>
<event>
 4    1  0.4998754E-005  0.5564705E+03  0.7818608E-02  0.1000007E+00
         -2   -1    0    0    0  501 -0.00000000000E+00  0.00000000000E+00  0.42853795277E+03  0.42853795278E+03  0.25500000000E-02 0. -1.
          2   -1    0    0  501    0  0.00000000000E+00 -0.00000000000E+00 -0.18064877164E+03  0.18064877165E+03  0.25500000000E-02 0.  1.
    5000001    1    1    2    0    0  0.12867991940E+03  0.19057009840E+02 -0.34289476566E+02  0.24020503634E+03  0.19900000000E+03 0.  0.
   -5000001    1    1    2    0    0 -0.12867991940E+03 -0.19057009840E+02  0.28217865770E+03  0.36898168809E+03  0.19900000000E+03 0.  0.
<mgrwt>
<rscale>  0 0.55647050E+03</rscale>
<asrwt>0</asrwt>
<pdfrwt beam="1">  1        2 0.25806968E-01 0.55647050E+03</pdfrwt>
<pdfrwt beam="2">  1       -2 0.61219707E-01 0.55647050E+03</pdfrwt>
<totfact> 0.52855936E+02</totfact>
</mgrwt>
</event>
<event>
 4    1  0.4998754E-005  0.5068978E+03  0.7818608E-02  0.1011994E+00
         -2   -1    0    0    0  501 -0.00000000000E+00  0.00000000000E+00  0.69357636479E+03  0.69357636480E+03  0.25500000000E-02 0. -1.
          2   -1    0    0  501    0  0.00000000000E+00 -0.00000000000E+00 -0.92616125346E+02  0.92616125381E+02  0.25500000000E-02 0.  1.
    5000001    1    1    2    0    0 -0.75288034435E+02  0.13741077585E+03  0.31480860568E+03  0.40404884316E+03  0.19900000000E+03 0.  0.
   -5000001    1    1    2    0    0  0.75288034435E+02 -0.13741077585E+03  0.28615163377E+03  0.38214364702E+03  0.19900000000E+03 0.  0.
<mgrwt>
<rscale>  0 0.50689784E+03</rscale>
<asrwt>0</asrwt>
<pdfrwt beam="1">  1        2 0.13230875E-01 0.50689784E+03</pdfrwt>
<pdfrwt beam="2">  1       -2 0.99082336E-01 0.50689784E+03</pdfrwt>
<totfact> 0.39903968E+02</totfact>
</mgrwt>
</event>
<event>
 4    1  0.4998754E-005  0.6093216E+03  0.7818608E-02  0.9886253E-01
          2   -1    0    0  501    0  0.00000000000E+00  0.00000000000E+00  0.89866626409E+03  0.89866626410E+03  0.25500000000E-02 0. -1.
         -2   -1    0    0    0  501 -0.00000000000E+00 -0.00000000000E+00 -0.10328440102E+03  0.10328440105E+03  0.25500000000E-02 0.  1.
    5000001    1    1    2    0    0 -0.17153490216E+03 -0.13742979521E+03  0.51286775605E+03  0.59240653817E+03  0.19900000000E+03 0.  0.
   -5000001    1    1    2    0    0  0.17153490216E+03  0.13742979521E+03  0.28251410702E+03  0.40954412697E+03  0.19900000000E+03 0.  0.
<mgrwt>
<rscale>  0 0.60932161E+03</rscale>
<asrwt>0</asrwt>
<pdfrwt beam="1">  1        2 0.12838090E+00 0.60932161E+03</pdfrwt>
<pdfrwt beam="2">  1       -2 0.14754914E-01 0.60932161E+03</pdfrwt>
<totfact> 0.11778276E+03</totfact>
</mgrwt>
</event>
<event>
 4    1  0.4998754E-005  0.6467062E+03  0.7818608E-02  0.9812980E-01
         -2   -1    0    0    0  501 -0.00000000000E+00  0.00000000000E+00  0.10267978775E+03  0.10267978779E+03  0.25500000000E-02 0. -1.
          2   -1    0    0  501    0  0.00000000000E+00 -0.00000000000E+00 -0.10182842572E+04  0.10182842572E+04  0.25500000000E-02 0.  1.
    5000001    1    1    2    0    0  0.60247993591E+02  0.23266933868E+03 -0.31081131951E+03  0.44041970690E+03  0.19900000000E+03 0.  0.
   -5000001    1    1    2    0    0 -0.60247993591E+02 -0.23266933868E+03 -0.60479314995E+03  0.68054433810E+03  0.19900000000E+03 0.  0.
<mgrwt>
<rscale>  0 0.64670615E+03</rscale>
<asrwt>0</asrwt>
<pdfrwt beam="1">  1        2 0.14546917E+00 0.64670615E+03</pdfrwt>
<pdfrwt beam="2">  1       -2 0.14668542E-01 0.64670615E+03</pdfrwt>
<totfact> 0.10005653E+03</totfact>
</mgrwt>
</event>
<event>
 4    1  0.4998754E-005  0.5986549E+03  0.7818608E-02  0.9908201E-01
         -2   -1    0    0    0  501 -0.00000000000E+00  0.00000000000E+00  0.87991327882E+02  0.87991327919E+02  0.25500000000E-02 0. -1.
          2   -1    0    0  501    0  0.00000000000E+00 -0.00000000000E+00 -0.10182472438E+04  0.10182472438E+04  0.25500000000E-02 0.  1.
    5000001    1    1    2    0    0 -0.27506167981E+02 -0.21574714855E+03 -0.56101293355E+03  0.63375068678E+03  0.19900000000E+03 0.  0.
   -5000001    1    1    2    0    0  0.27506167981E+02  0.21574714855E+03 -0.36924298236E+03  0.47248788494E+03  0.19900000000E+03 0.  0.
<mgrwt>
<rscale>  0 0.59865492E+03</rscale>
<asrwt>0</asrwt>
<pdfrwt beam="1">  1        2 0.14546388E+00 0.59865492E+03</pdfrwt>
<pdfrwt beam="2">  1       -2 0.12570190E-01 0.59865492E+03</pdfrwt>
<totfact> 0.12959428E+03</totfact>
</mgrwt>
</event>
<event>
 4    1  0.4998754E-005  0.6693344E+03  0.7818608E-02  0.9771161E-01
          2   -1    0    0  501    0  0.00000000000E+00  0.00000000000E+00  0.15027907679E+04  0.15027907679E+04  0.25500000000E-02 0.  1.
         -2   -1    0    0    0  501 -0.00000000000E+00 -0.00000000000E+00 -0.74529424995E+02  0.74529425038E+02  0.25500000000E-02 0. -1.
    5000001    1    1    2    0    0  0.17744329379E+03  0.20126468618E+03  0.66655779459E+03  0.74558291956E+03  0.19900000000E+03 0.  0.
   -5000001    1    1    2    0    0 -0.17744329379E+03 -0.20126468618E+03  0.76170354836E+03  0.83173727342E+03  0.19900000000E+03 0.  0.
<mgrwt>
<rscale>  0 0.66933439E+03</rscale>
<asrwt>0</asrwt>
<pdfrwt beam="1">  1        2 0.21468439E+00 0.66933439E+03</pdfrwt>
<pdfrwt beam="2">  1       -2 0.10647061E-01 0.66933439E+03</pdfrwt>
<totfact> 0.91428407E+02</totfact>
</mgrwt>
</event>
<event>
 4    1  0.4998754E-005  0.7634880E+03  0.7818608E-02  0.9614424E-01
         -2   -1    0    0    0  501 -0.00000000000E+00  0.00000000000E+00  0.27937781234E+03  0.27937781235E+03  0.25500000000E-02 0. -1.
          2   -1    0    0  501    0  0.00000000000E+00 -0.00000000000E+00 -0.52161796351E+03  0.52161796351E+03  0.25500000000E-02 0.  1.
    5000001    1    1    2    0    0 -0.17359038129E+02  0.29660497255E+03  0.19053793000E+02  0.35810598009E+03  0.19900000000E+03 0.  0.
   -5000001    1    1    2    0    0  0.17359038129E+02 -0.29660497255E+03 -0.26129394416E+03  0.44288979578E+03  0.19900000000E+03 0.  0.
<mgrwt>
<rscale>  0 0.76348801E+03</rscale>
<asrwt>0</asrwt>
<pdfrwt beam="1">  1        2 0.74516852E-01 0.76348801E+03</pdfrwt>
<pdfrwt beam="2">  1       -2 0.39911116E-01 0.76348801E+03</pdfrwt>
<totfact> 0.38197352E+02</totfact>
</mgrwt>
</event>
<event>
 4    1  0.4998754E-005  0.5963480E+03  0.7818608E-02  0.9913012E-01
         -2   -1    0    0    0  501 -0.00000000000E+00  0.00000000000E+00  0.13677369541E+03  0.13677369543E+03  0.25500000000E-02 0. -1.
          2   -1    0    0  501    0  0.00000000000E+00 -0.00000000000E+00 -0.65003542195E+03  0.65003542196E+03  0.25500000000E-02 0.  1.
    5000001    1    1    2    0    0 -0.19469469866E+03  0.13658779240E+02 -0.39634904930E+03  0.48454737314E+03  0.19900000000E+03 0.  0.
   -5000001    1    1    2    0    0  0.19469469866E+03 -0.13658779240E+02 -0.11691267724E+03  0.30226174425E+03  0.19900000000E+03 0.  0.
<mgrwt>
<rscale>  0 0.59634804E+03</rscale>
<asrwt>0</asrwt>
<pdfrwt beam="1">  1        2 0.92862201E-01 0.59634804E+03</pdfrwt>
<pdfrwt beam="2">  1       -2 0.19539100E-01 0.59634804E+03</pdfrwt>
<totfact> 0.10974083E+03</totfact>
</mgrwt>
</event>
<event>
 4    1  0.4998754E-005  0.6135328E+03  0.7818608E-02  0.9877721E-01
          2   -1    0    0  501    0  0.00000000000E+00  0.00000000000E+00  0.18163194862E+03  0.18163194864E+03  0.25500000000E-02 0.  1.
         -2   -1    0    0    0  501 -0.00000000000E+00 -0.00000000000E+00 -0.51811155569E+03  0.51811155570E+03  0.25500000000E-02 0. -1.
    5000001    1    1    2    0    0 -0.21963340008E+03 -0.10104114974E+02 -0.78698906793E+02  0.30681499556E+03  0.19900000000E+03 0.  0.
   -5000001    1    1    2    0    0  0.21963340008E+03  0.10104114974E+02 -0.25778070027E+03  0.39292850877E+03  0.19900000000E+03 0.  0.
<mgrwt>
<rscale>  0 0.61353276E+03</rscale>
<asrwt>0</asrwt>
<pdfrwt beam="1">  1        2 0.25947421E-01 0.61353276E+03</pdfrwt>
<pdfrwt beam="2">  1       -2 0.74015936E-01 0.61353276E+03</pdfrwt>
<totfact> 0.34866644E+02</totfact>
</mgrwt>
</event>
<event>
 4    1  0.4998754E-005  0.5121675E+03  0.7818608E-02  0.1010651E+00
         -2   -1    0    0    0  501 -0.00000000000E+00  0.00000000000E+00  0.16394273708E+03  0.16394273710E+03  0.25500000000E-02 0.  1.
          2   -1    0    0  501    0  0.00000000000E+00 -0.00000000000E+00 -0.40001090582E+03  0.40001090583E+03  0.25500000000E-02 0. -1.
    5000001    1    1    2    0    0  0.11585069147E+03 -0.10743075374E+03 -0.82951391567E+02  0.26729138207E+03  0.19900000000E+03 0.  0.
   -5000001    1    1    2    0    0 -0.11585069147E+03  0.10743075374E+03 -0.15311677717E+03  0.29666226086E+03  0.19900000000E+03 0.  0.
<mgrwt>
<rscale>  0 0.51216748E+03</rscale>
<asrwt>0</asrwt>
<pdfrwt beam="1">  1        2 0.57144415E-01 0.51216748E+03</pdfrwt>
<pdfrwt beam="2">  1       -2 0.23420391E-01 0.51216748E+03</pdfrwt>
<totfact> 0.13915577E+03</totfact>
</mgrwt>
</event>
<event>
 4    1  0.4998754E-005  0.6340354E+03  0.7818608E-02  0.9837206E-01
          2   -1    0    0  501    0  0.00000000000E+00  0.00000000000E+00  0.10525653173E+04  0.10525653173E+04  0.25500000000E-02 0.  1.
         -2   -1    0    0    0  501 -0.00000000000E+00 -0.00000000000E+00 -0.95481221200E+02  0.95481221234E+02  0.25500000000E-02 0. -1.
    5000001    1    1    2    0    0 -0.20337324233E+03 -0.11106328323E+03  0.63222212400E+03  0.70214068580E+03  0.19900000000E+03 0.  0.
   -5000001    1    1    2    0    0  0.20337324233E+03  0.11106328323E+03  0.32486197206E+03  0.44590585269E+03  0.19900000000E+03 0.  0.
<mgrwt>
<rscale>  0 0.63403540E+03</rscale>
<asrwt>0</asrwt>
<pdfrwt beam="1">  1        2 0.15036648E+00 0.63403540E+03</pdfrwt>
<pdfrwt beam="2">  1       -2 0.13640174E-01 0.63403540E+03</pdfrwt>
<totfact> 0.10782223E+03</totfact>
</mgrwt>
</event>
<event>
 4    1  0.4998754E-005  0.7108776E+03  0.7818608E-02  0.9698809E-01
         -2   -1    0    0    0  501 -0.00000000000E+00  0.00000000000E+00  0.19365640919E+03  0.19365640921E+03  0.25500000000E-02 0. -1.
          2   -1    0    0  501    0  0.00000000000E+00 -0.00000000000E+00 -0.65237579970E+03  0.65237579971E+03  0.25500000000E-02 0.  1.
    5000001    1    1    2    0    0 -0.21515383143E+03 -0.10598266547E+03 -0.43277077668E+03  0.53330576756E+03  0.19900000000E+03 0.  0.
   -5000001    1    1    2    0    0  0.21515383143E+03  0.10598266547E+03 -0.25948613825E+02  0.31272644135E+03  0.19900000000E+03 0.  0.
<mgrwt>
<rscale>  0 0.71087764E+03</rscale>
<asrwt>0</asrwt>
<pdfrwt beam="1">  1        2 0.93196542E-01 0.71087764E+03</pdfrwt>
<pdfrwt beam="2">  1       -2 0.27665202E-01 0.71087764E+03</pdfrwt>
<totfact> 0.58682379E+02</totfact>
</mgrwt>
</event>
<event>
 4    1  0.4998754E-005  0.9382107E+03  0.7818608E-02  0.9379038E-01
         -2   -1    0    0    0  501 -0.00000000000E+00  0.00000000000E+00  0.18798835347E+03  0.18798835348E+03  0.25500000000E-02 0.  1.
          2   -1    0    0  501    0  0.00000000000E+00 -0.00000000000E+00 -0.11706036007E+04  0.11706036007E+04  0.25500000000E-02 0. -1.
    5000001    1    1    2    0    0 -0.42133351086E+03 -0.39303915995E+02 -0.43727865076E+03  0.64021898097E+03  0.19900000000E+03 0.  0.
   -5000001    1    1    2    0    0  0.42133351086E+03  0.39303915995E+02 -0.54533659647E+03  0.71837297321E+03  0.19900000000E+03 0.  0.
<mgrwt>
<rscale>  0 0.93821073E+03</rscale>
<asrwt>0</asrwt>
<pdfrwt beam="1">  1        2 0.16722908E+00 0.93821073E+03</pdfrwt>
<pdfrwt beam="2">  1       -2 0.26855480E-01 0.93821073E+03</pdfrwt>
<totfact> 0.27908035E+02</totfact>
</mgrwt>
</event>
<event>
 4    1  0.4998754E-005  0.4274901E+03  0.7818608E-02  0.1034656E+00
          2   -1    0    0  501    0  0.00000000000E+00  0.00000000000E+00  0.52566908691E+03  0.52566908692E+03  0.25500000000E-02 0.  1.
         -2   -1    0    0    0  501 -0.00000000000E+00 -0.00000000000E+00 -0.86911978389E+02  0.86911978427E+02  0.25500000000E-02 0. -1.
    5000001    1    1    2    0    0 -0.12874122337E+02 -0.83403115792E+01  0.32898575705E+03  0.38479596173E+03  0.19900000000E+03 0.  0.
   -5000001    1    1    2    0    0  0.12874122337E+02  0.83403115792E+01  0.10977135147E+03  0.22778510361E+03  0.19900000000E+03 0.  0.
<mgrwt>
<rscale>  0 0.42749007E+03</rscale>
<asrwt>0</asrwt>
<pdfrwt beam="1">  1        2 0.75095585E-01 0.42749007E+03</pdfrwt>
<pdfrwt beam="2">  1       -2 0.12415997E-01 0.42749007E+03</pdfrwt>
<totfact> 0.30137135E+03</totfact>
</mgrwt>
</event>
<event>
 4    1  0.4998754E-005  0.1519211E+04  0.7818608E-02  0.8871777E-01
          2   -1    0    0  501    0  0.00000000000E+00  0.00000000000E+00  0.31104642743E+04  0.31104642743E+04  0.25500000000E-02 0.  1.
         -2   -1    0    0    0  501 -0.00000000000E+00 -0.00000000000E+00 -0.18550313782E+03  0.18550313783E+03  0.25500000000E-02 0. -1.
    5000001    1    1    2    0    0 -0.56879126937E+03 -0.41705089924E+03  0.10288743867E+04  0.12631858392E+04  0.19900000000E+03 0.  0.
   -5000001    1    1    2    0    0  0.56879126937E+03  0.41705089924E+03  0.18960867498E+04  0.20327815730E+04  0.19900000000E+03 0.  0.
<mgrwt>
<rscale>  0 0.15192115E+04</rscale>
<asrwt>0</asrwt>
<pdfrwt beam="1">  1        2 0.44435203E+00 0.15192115E+04</pdfrwt>
<pdfrwt beam="2">  1       -2 0.26500449E-01 0.15192115E+04</pdfrwt>
<totfact> 0.25603123E+01</totfact>
</mgrwt>
</event>
<event>
 4    1  0.4998754E-005  0.4338284E+03  0.7818608E-02  0.1032657E+00
         -2   -1    0    0    0  501 -0.00000000000E+00  0.00000000000E+00  0.23344506564E+02  0.23344506703E+02  0.25500000000E-02 0. -1.
          2   -1    0    0  501    0  0.00000000000E+00 -0.00000000000E+00 -0.20155394411E+04  0.20155394411E+04  0.25500000000E-02 0.  1.
    5000001    1    1    2    0    0 -0.61237078418E+02 -0.46011160500E+02 -0.11831313034E+04  0.12021928663E+04  0.19900000000E+03 0.  0.
   -5000001    1    1    2    0    0  0.61237078418E+02  0.46011160500E+02 -0.80906363107E+03  0.83669108145E+03  0.19900000000E+03 0.  0.
<mgrwt>
<rscale>  0 0.43382842E+03</rscale>
<asrwt>0</asrwt>
<pdfrwt beam="1">  1        2 0.28793410E+00 0.43382842E+03</pdfrwt>
<pdfrwt beam="2">  1       -2 0.33349308E-02 0.43382842E+03</pdfrwt>
<totfact> 0.31237918E+03</totfact>
</mgrwt>
</event>
<event>
 4    1  0.4998754E-005  0.7902574E+03  0.7818608E-02  0.9574227E-01
         -2   -1    0    0    0  501 -0.00000000000E+00  0.00000000000E+00  0.33740970189E+03  0.33740970190E+03  0.25500000000E-02 0. -1.
          2   -1    0    0  501    0  0.00000000000E+00 -0.00000000000E+00 -0.46272141185E+03  0.46272141185E+03  0.25500000000E-02 0.  1.
    5000001    1    1    2    0    0  0.28994141923E+03 -0.13573831308E+03 -0.18260449997E+03  0.41885119032E+03  0.19900000000E+03 0.  0.
   -5000001    1    1    2    0    0 -0.28994141923E+03  0.13573831308E+03  0.57292790020E+02  0.38127992343E+03  0.19900000000E+03 0.  0.
<mgrwt>
<rscale>  0 0.79025741E+03</rscale>
<asrwt>0</asrwt>
<pdfrwt beam="1">  1        2 0.66103059E-01 0.79025741E+03</pdfrwt>
<pdfrwt beam="2">  1       -2 0.48201386E-01 0.79025741E+03</pdfrwt>
<totfact> 0.30101625E+02</totfact>
</mgrwt>
</event>
<event>
 4    1  0.4998754E-005  0.6990594E+03  0.7818608E-02  0.9718842E-01
          2   -1    0    0  501    0  0.00000000000E+00  0.00000000000E+00  0.20694259171E+04  0.20694259171E+04  0.25500000000E-02 0.  1.
         -2   -1    0    0    0  501 -0.00000000000E+00 -0.00000000000E+00 -0.59036183281E+02  0.59036183336E+02  0.25500000000E-02 0. -1.
    5000001    1    1    2    0    0 -0.18956470287E+03 -0.17278425977E+03  0.13996145472E+04  0.14367710526E+04  0.19900000000E+03 0.  0.
   -5000001    1    1    2    0    0  0.18956470287E+03  0.17278425977E+03  0.61077518663E+03  0.69169104780E+03  0.19900000000E+03 0.  0.
<mgrwt>
<rscale>  0 0.69905939E+03</rscale>
<asrwt>0</asrwt>
<pdfrwt beam="1">  1        2 0.29563225E+00 0.69905939E+03</pdfrwt>
<pdfrwt beam="2">  1       -2 0.84337413E-02 0.69905939E+03</pdfrwt>
<totfact> 0.68442378E+02</totfact>
</mgrwt>
</event>
<event>
 4    1  0.4998754E-005  0.5230861E+03  0.7818608E-02  0.1007923E+00
         -2   -1    0    0    0  501 -0.00000000000E+00  0.00000000000E+00  0.19408479742E+02  0.19408479910E+02  0.25500000000E-02 0. -1.
          2   -1    0    0  501    0  0.00000000000E+00 -0.00000000000E+00 -0.35244787950E+04  0.35244787950E+04  0.25500000000E-02 0.  1.
    5000001    1    1    2    0    0  0.10832982151E+03  0.11151940955E+03 -0.22136231144E+04  0.22279811987E+04  0.19900000000E+03 0.  0.
   -5000001    1    1    2    0    0 -0.10832982151E+03 -0.11151940955E+03 -0.12914472008E+04  0.13159060762E+04  0.19900000000E+03 0.  0.
<mgrwt>
<rscale>  0 0.52308613E+03</rscale>
<asrwt>0</asrwt>
<pdfrwt beam="1">  1        2 0.50349656E+00 0.52308613E+03</pdfrwt>
<pdfrwt beam="2">  1       -2 0.27726422E-02 0.52308613E+03</pdfrwt>
<totfact> 0.64877488E+02</totfact>
</mgrwt>
</event>
<event>
 4    1  0.4998754E-005  0.7421291E+03  0.7818608E-02  0.9647780E-01
          2   -1    0    0  501    0  0.00000000000E+00  0.00000000000E+00  0.29220266243E+04  0.29220266243E+04  0.25500000000E-02 0.  1.
         -2   -1    0    0    0  501 -0.00000000000E+00 -0.00000000000E+00 -0.47121025146E+02  0.47121025215E+02  0.25500000000E-02 0. -1.
    5000001    1    1    2    0    0  0.52961956232E+02  0.29775778986E+03  0.17630547045E+04  0.17998409822E+04  0.19900000000E+03 0.  0.
   -5000001    1    1    2    0    0 -0.52961956232E+02 -0.29775778986E+03  0.11118508946E+04  0.11693066672E+04  0.19900000000E+03 0.  0.
<mgrwt>
<rscale>  0 0.74212907E+03</rscale>
<asrwt>0</asrwt>
<pdfrwt beam="1">  1        2 0.41743252E+00 0.74212907E+03</pdfrwt>
<pdfrwt beam="2">  1       -2 0.67315727E-02 0.74212907E+03</pdfrwt>
<totfact> 0.35315808E+02</totfact>
</mgrwt>
</event>
<event>
 4    1  0.4998754E-005  0.5087465E+03  0.7818608E-02  0.1011521E+00
         -2   -1    0    0    0  501 -0.00000000000E+00  0.00000000000E+00  0.22142166068E+03  0.22142166070E+03  0.25500000000E-02 0. -1.
          2   -1    0    0  501    0  0.00000000000E+00 -0.00000000000E+00 -0.29222862967E+03  0.29222862968E+03  0.25500000000E-02 0.  1.
    5000001    1    1    2    0    0 -0.14810400923E+03  0.27361658980E+02  0.14277427972E+02  0.24997660467E+03  0.19900000000E+03 0.  0.
   -5000001    1    1    2    0    0  0.14810400923E+03 -0.27361658980E+02 -0.85084396962E+02  0.26367368571E+03  0.19900000000E+03 0.  0.
<mgrwt>
<rscale>  0 0.50874649E+03</rscale>
<asrwt>0</asrwt>
<pdfrwt beam="1">  1        2 0.41746947E-01 0.50874649E+03</pdfrwt>
<pdfrwt beam="2">  1       -2 0.31631666E-01 0.50874649E+03</pdfrwt>
<totfact> 0.11398183E+03</totfact>
</mgrwt>
</event>
<event>
 4    1  0.4998754E-005  0.7162056E+03  0.7818608E-02  0.9689913E-01
          2   -1    0    0  501    0  0.00000000000E+00  0.00000000000E+00  0.18253420937E+04  0.18253420937E+04  0.25500000000E-02 0.  1.
         -2   -1    0    0    0  501 -0.00000000000E+00 -0.00000000000E+00 -0.70254012146E+02  0.70254012192E+02  0.25500000000E-02 0. -1.
    5000001    1    1    2    0    0 -0.11916090850E+03  0.23617928879E+03  0.51603040959E+03  0.61308104048E+03  0.19900000000E+03 0.  0.
   -5000001    1    1    2    0    0  0.11916090850E+03 -0.23617928879E+03  0.12390576719E+04  0.12825150654E+04  0.19900000000E+03 0.  0.
<mgrwt>
<rscale>  0 0.71620557E+03</rscale>
<asrwt>0</asrwt>
<pdfrwt beam="1">  1        2 0.26076313E+00 0.71620557E+03</pdfrwt>
<pdfrwt beam="2">  1       -2 0.10036289E-01 0.71620557E+03</pdfrwt>
<totfact> 0.68579848E+02</totfact>
</mgrwt>
</event>
<event>
 4    1  0.4998754E-005  0.5090339E+03  0.7818608E-02  0.1011447E+00
          2   -1    0    0  501    0  0.00000000000E+00  0.00000000000E+00  0.10230265013E+04  0.10230265013E+04  0.25500000000E-02 0.  1.
         -2   -1    0    0    0  501 -0.00000000000E+00 -0.00000000000E+00 -0.63320820289E+02  0.63320820340E+02  0.25500000000E-02 0. -1.
    5000001    1    1    2    0    0  0.54143504748E+02 -0.11941213191E+03  0.67058177378E+03  0.71166824552E+03  0.19900000000E+03 0.  0.
   -5000001    1    1    2    0    0 -0.54143504748E+02  0.11941213191E+03  0.28912390723E+03  0.37467907613E+03  0.19900000000E+03 0.  0.
<mgrwt>
<rscale>  0 0.50903390E+03</rscale>
<asrwt>0</asrwt>
<pdfrwt beam="1">  1        2 0.14614663E+00 0.50903390E+03</pdfrwt>
<pdfrwt beam="2">  1       -2 0.90458323E-02 0.50903390E+03</pdfrwt>
<totfact> 0.22014149E+03</totfact>
</mgrwt>
</event>
<event>
 4    1  0.4998754E-005  0.5448178E+03  0.7818608E-02  0.1002701E+00
          2   -1    0    0  501    0  0.00000000000E+00  0.00000000000E+00  0.12098056363E+04  0.12098056363E+04  0.25500000000E-02 0.  1.
         -2   -1    0    0    0  501 -0.00000000000E+00 -0.00000000000E+00 -0.61337630518E+02  0.61337630571E+02  0.25500000000E-02 0. -1.
    5000001    1    1    2    0    0 -0.97404856108E+02 -0.89762352200E+02  0.87898187269E+03  0.91090895175E+03  0.19900000000E+03 0.  0.
   -5000001    1    1    2    0    0  0.97404856108E+02  0.89762352200E+02  0.26948613311E+03  0.36023431514E+03  0.19900000000E+03 0.  0.
<mgrwt>
<rscale>  0 0.54481781E+03</rscale>
<asrwt>0</asrwt>
<pdfrwt beam="1">  1        2 0.17282936E+00 0.54481781E+03</pdfrwt>
<pdfrwt beam="2">  1       -2 0.87625197E-02 0.54481781E+03</pdfrwt>
<totfact> 0.18074835E+03</totfact>
</mgrwt>
</event>
<event>
 4    1  0.4998754E-005  0.6127173E+03  0.7818608E-02  0.9879367E-01
         -2   -1    0    0    0  501 -0.00000000000E+00  0.00000000000E+00  0.42812312635E+02  0.42812312711E+02  0.25500000000E-02 0. -1.
          2   -1    0    0  501    0  0.00000000000E+00 -0.00000000000E+00 -0.21922578446E+04  0.21922578446E+04  0.25500000000E-02 0.  1.
    5000001    1    1    2    0    0 -0.14128547191E+03 -0.16633255790E+03 -0.77777922137E+03  0.83196732002E+03  0.19900000000E+03 0.  0.
   -5000001    1    1    2    0    0  0.14128547191E+03  0.16633255790E+03 -0.13716663106E+04  0.14031028373E+04  0.19900000000E+03 0.  0.
<mgrwt>
<rscale>  0 0.61271732E+03</rscale>
<asrwt>0</asrwt>
<pdfrwt beam="1">  1        2 0.31317962E+00 0.61271732E+03</pdfrwt>
<pdfrwt beam="2">  1       -2 0.61160461E-02 0.61271732E+03</pdfrwt>
<totfact> 0.99326930E+02</totfact>
</mgrwt>
</event>
<event>
 4    1  0.4998754E-005  0.6097694E+03  0.7818608E-02  0.9885342E-01
          2   -1    0    0  501    0  0.00000000000E+00  0.00000000000E+00  0.22881519835E+04  0.22881519835E+04  0.25500000000E-02 0.  1.
         -2   -1    0    0    0  501 -0.00000000000E+00 -0.00000000000E+00 -0.40624346009E+02  0.40624346089E+02  0.25500000000E-02 0. -1.
    5000001    1    1    2    0    0  0.15192450285E+03 -0.19878964904E+02  0.17839005867E+04  0.18014934169E+04  0.19900000000E+03 0.  0.
   -5000001    1    1    2    0    0 -0.15192450285E+03  0.19878964904E+02  0.46362705076E+03  0.52728291269E+03  0.19900000000E+03 0.  0.
<mgrwt>
<rscale>  0 0.60976939E+03</rscale>
<asrwt>0</asrwt>
<pdfrwt beam="1">  1        2 0.32687885E+00 0.60976939E+03</pdfrwt>
<pdfrwt beam="2">  1       -2 0.58034782E-02 0.60976939E+03</pdfrwt>
<totfact> 0.96471640E+02</totfact>
</mgrwt>
</event>
<event>
 4    1  0.4998754E-005  0.1021767E+04  0.7818608E-02  0.9284988E-01
          2   -1    0    0  501    0  0.00000000000E+00  0.00000000000E+00  0.54686193481E+03  0.54686193481E+03  0.25500000000E-02 0.  1.
         -2   -1    0    0    0  501 -0.00000000000E+00 -0.00000000000E+00 -0.47727225565E+03  0.47727225566E+03  0.25500000000E-02 0. -1.
    5000001    1    1    2    0    0 -0.34987292695E+02 -0.46918975434E+03  0.40964823925E+02  0.51248634423E+03  0.19900000000E+03 0.  0.
   -5000001    1    1    2    0    0  0.34987292695E+02  0.46918975434E+03  0.28624855232E+02  0.51164784624E+03  0.19900000000E+03 0.  0.
<mgrwt>
<rscale>  0 0.10217672E+04</rscale>
<asrwt>0</asrwt>
<pdfrwt beam="1">  1        2 0.78123134E-01 0.10217672E+04</pdfrwt>
<pdfrwt beam="2">  1       -2 0.68181750E-01 0.10217672E+04</pdfrwt>
<totfact> 0.11893597E+02</totfact>
</mgrwt>
</event>
<event>
 4    1  0.4998754E-005  0.5479606E+03  0.7818608E-02  0.1001967E+00
          2   -1    0    0  501    0  0.00000000000E+00  0.00000000000E+00  0.39799623131E+04  0.39799623131E+04  0.25500000000E-02 0.  1.
         -2   -1    0    0    0  501 -0.00000000000E+00 -0.00000000000E+00 -0.18860783094E+02  0.18860783266E+02  0.25500000000E-02 0. -1.
    5000001    1    1    2    0    0 -0.26457462166E+02  0.18580013428E+03  0.18669043376E+04  0.18868371665E+04  0.19900000000E+03 0.  0.
   -5000001    1    1    2    0    0  0.26457462166E+02 -0.18580013428E+03  0.20941971924E+04  0.21119859299E+04  0.19900000000E+03 0.  0.
<mgrwt>
<rscale>  0 0.54796061E+03</rscale>
<asrwt>0</asrwt>
<pdfrwt beam="1">  1        2 0.56856547E+00 0.54796061E+03</pdfrwt>
<pdfrwt beam="2">  1       -2 0.26944003E-02 0.54796061E+03</pdfrwt>
<totfact> 0.35011528E+02</totfact>
</mgrwt>
</event>
<event>
 4    1  0.4998754E-005  0.4944577E+03  0.7818608E-02  0.1015236E+00
          2   -1    0    0  501    0  0.00000000000E+00  0.00000000000E+00  0.26216732593E+03  0.26216732595E+03  0.25500000000E-02 0.  1.
         -2   -1    0    0    0  501 -0.00000000000E+00 -0.00000000000E+00 -0.23314155461E+03  0.23314155462E+03  0.25500000000E-02 0. -1.
    5000001    1    1    2    0    0 -0.11583140430E+03 -0.74911784452E+02  0.64522854580E+02  0.25058509220E+03  0.19900000000E+03 0.  0.
   -5000001    1    1    2    0    0  0.11583140430E+03  0.74911784452E+02 -0.35497083250E+02  0.24472378836E+03  0.19900000000E+03 0.  0.
<mgrwt>
<rscale>  0 0.49445767E+03</rscale>
<asrwt>0</asrwt>
<pdfrwt beam="1">  1        2 0.37452475E-01 0.49445767E+03</pdfrwt>
<pdfrwt beam="2">  1       -2 0.33305936E-01 0.49445767E+03</pdfrwt>
<totfact> 0.11666639E+03</totfact>
</mgrwt>
</event>
<event>
 4    1  0.4998754E-005  0.4749565E+03  0.7818608E-02  0.1020531E+00
         -2   -1    0    0    0  501 -0.00000000000E+00  0.00000000000E+00  0.82163473283E+02  0.82163473323E+02  0.25500000000E-02 0. -1.
          2   -1    0    0  501    0  0.00000000000E+00 -0.00000000000E+00 -0.68638677340E+03  0.68638677341E+03  0.25500000000E-02 0.  1.
    5000001    1    1    2    0    0  0.14640835125E+02  0.87308451720E+02 -0.14896089551E+03  0.26387017298E+03  0.19900000000E+03 0.  0.
   -5000001    1    1    2    0    0 -0.14640835125E+02 -0.87308451720E+02 -0.45526240461E+03  0.50468007376E+03  0.19900000000E+03 0.  0.
<mgrwt>
<rscale>  0 0.47495651E+03</rscale>
<asrwt>0</asrwt>
<pdfrwt beam="1">  1        2 0.98055249E-01 0.47495651E+03</pdfrwt>
<pdfrwt beam="2">  1       -2 0.11737640E-01 0.47495651E+03</pdfrwt>
<totfact> 0.24227353E+03</totfact>
</mgrwt>
</event>
<event>
 4    1  0.4998754E-005  0.5430402E+03  0.7818608E-02  0.1003118E+00
          2   -1    0    0  501    0  0.00000000000E+00  0.00000000000E+00  0.53771887493E+03  0.53771887494E+03  0.25500000000E-02 0.  1.
         -2   -1    0    0    0  501 -0.00000000000E+00 -0.00000000000E+00 -0.13710353392E+03  0.13710353395E+03  0.25500000000E-02 0. -1.
    5000001    1    1    2    0    0  0.10601731027E+03 -0.10068292012E+03  0.60015023513E+02  0.25412501555E+03  0.19900000000E+03 0.  0.
   -5000001    1    1    2    0    0 -0.10601731027E+03  0.10068292012E+03  0.34060031749E+03  0.42069739333E+03  0.19900000000E+03 0.  0.
<mgrwt>
<rscale>  0 0.54304018E+03</rscale>
<asrwt>0</asrwt>
<pdfrwt beam="1">  1        2 0.76816982E-01 0.54304018E+03</pdfrwt>
<pdfrwt beam="2">  1       -2 0.19586219E-01 0.54304018E+03</pdfrwt>
<totfact> 0.13653583E+03</totfact>
</mgrwt>
</event>
<event>
 4    1  0.4998754E-005  0.2053099E+04  0.7818608E-02  0.8582190E-01
          2   -1    0    0  501    0  0.00000000000E+00  0.00000000000E+00  0.13584675599E+04  0.13584675599E+04  0.25500000000E-02 0.  1.
         -2   -1    0    0    0  501 -0.00000000000E+00 -0.00000000000E+00 -0.77572986439E+03  0.77572986440E+03  0.25500000000E-02 0. -1.
    5000001    1    1    2    0    0 -0.42715043536E+03 -0.69094557833E+03 -0.32740867663E+03  0.89814293304E+03  0.19900000000E+03 0.  0.
   -5000001    1    1    2    0    0  0.42715043536E+03  0.69094557833E+03  0.91014637212E+03  0.12360544912E+04  0.19900000000E+03 0.  0.
<mgrwt>
<rscale>  0 0.20530990E+04</rscale>
<asrwt>0</asrwt>
<pdfrwt beam="1">  1        2 0.19406679E+00 0.20530990E+04</pdfrwt>
<pdfrwt beam="2">  1       -2 0.11081855E+00 0.20530990E+04</pdfrwt>
<totfact> 0.10451265E+01</totfact>
</mgrwt>
</event>
<event>
 4    1  0.4998754E-005  0.5831222E+03  0.7818608E-02  0.9941054E-01
          2   -1    0    0  501    0  0.00000000000E+00  0.00000000000E+00  0.93990172571E+03  0.93990172571E+03  0.25500000000E-02 0.  1.
         -2   -1    0    0    0  501 -0.00000000000E+00 -0.00000000000E+00 -0.90443379104E+02  0.90443379140E+02  0.25500000000E-02 0. -1.
    5000001    1    1    2    0    0 -0.90617487074E+02 -0.15816265657E+03  0.61973408780E+03  0.67594252306E+03  0.19900000000E+03 0.  0.
   -5000001    1    1    2    0    0  0.90617487074E+02  0.15816265657E+03  0.22972425881E+03  0.35440258179E+03  0.19900000000E+03 0.  0.
<mgrwt>
<rscale>  0 0.58312224E+03</rscale>
<asrwt>0</asrwt>
<pdfrwt beam="1">  1        2 0.13427167E+00 0.58312224E+03</pdfrwt>
<pdfrwt beam="2">  1       -2 0.12920483E-01 0.58312224E+03</pdfrwt>
<totfact> 0.13842762E+03</totfact>
</mgrwt>
</event>
<event>
 4    1  0.4998754E-005  0.5728011E+03  0.7818608E-02  0.9963499E-01
         -2   -1    0    0    0  501 -0.00000000000E+00  0.00000000000E+00  0.21047671831E+02  0.21047671986E+02  0.25500000000E-02 0. -1.
          2   -1    0    0  501    0  0.00000000000E+00 -0.00000000000E+00 -0.38971180674E+04  0.38971180674E+04  0.25500000000E-02 0.  1.
    5000001    1    1    2    0    0 -0.55567074325E+02  0.17888521956E+03 -0.13521296293E+04  0.13794720570E+04  0.19900000000E+03 0.  0.
   -5000001    1    1    2    0    0  0.55567074325E+02 -0.17888521956E+03 -0.25239407663E+04  0.25386936824E+04  0.19900000000E+03 0.  0.
<mgrwt>
<rscale>  0 0.57280106E+03</rscale>
<asrwt>0</asrwt>
<pdfrwt beam="1">  1        2 0.55673069E+00 0.57280106E+03</pdfrwt>
<pdfrwt beam="2">  1       -2 0.30068128E-02 0.57280106E+03</pdfrwt>
<totfact> 0.33475253E+02</totfact>
</mgrwt>
</event>
<event>
 4    1  0.4998754E-005  0.7461604E+03  0.7818608E-02  0.9641393E-01
         -2   -1    0    0    0  501 -0.00000000000E+00  0.00000000000E+00  0.11002870172E+03  0.11002870175E+03  0.25500000000E-02 0. -1.
          2   -1    0    0  501    0  0.00000000000E+00 -0.00000000000E+00 -0.12650229728E+04  0.12650229728E+04  0.25500000000E-02 0.  1.
    5000001    1    1    2    0    0 -0.24673995115E+03  0.43096632701E+01 -0.93997263730E+03  0.99199230621E+03  0.19900000000E+03 0.  0.
   -5000001    1    1    2    0    0  0.24673995115E+03 -0.43096632701E+01 -0.21502163379E+03  0.38305936836E+03  0.19900000000E+03 0.  0.
<mgrwt>
<rscale>  0 0.74616040E+03</rscale>
<asrwt>0</asrwt>
<pdfrwt beam="1">  1        2 0.18071756E+00 0.74616040E+03</pdfrwt>
<pdfrwt beam="2">  1       -2 0.15718387E-01 0.74616040E+03</pdfrwt>
<totfact> 0.63930705E+02</totfact>
</mgrwt>
</event>
<event>
 4    1  0.4998754E-005  0.6987606E+03  0.7818608E-02  0.9719354E-01
          2   -1    0    0  501    0  0.00000000000E+00  0.00000000000E+00  0.28577600697E+03  0.28577600698E+03  0.25500000000E-02 0.  1.
         -2   -1    0    0    0  501 -0.00000000000E+00 -0.00000000000E+00 -0.42714077391E+03  0.42714077392E+03  0.25500000000E-02 0. -1.
    5000001    1    1    2    0    0  0.14710263652E+03 -0.23393747706E+03  0.90001464261E+01  0.34065808589E+03  0.19900000000E+03 0.  0.
   -5000001    1    1    2    0    0 -0.14710263652E+03  0.23393747706E+03 -0.15036491337E+03  0.37225869502E+03  0.19900000000E+03 0.  0.
<mgrwt>
<rscale>  0 0.69876057E+03</rscale>
<asrwt>0</asrwt>
<pdfrwt beam="1">  1        2 0.40825144E-01 0.69876057E+03</pdfrwt>
<pdfrwt beam="2">  1       -2 0.61020110E-01 0.69876057E+03</pdfrwt>
<totfact> 0.31742470E+02</totfact>
</mgrwt>
</event>
<event>
 4    1  0.4998754E-005  0.6796865E+03  0.7818608E-02  0.9752616E-01
         -2   -1    0    0    0  501 -0.00000000000E+00  0.00000000000E+00  0.87709378696E+03  0.87709378697E+03  0.25500000000E-02 0. -1.
          2   -1    0    0  501    0  0.00000000000E+00 -0.00000000000E+00 -0.13167740105E+03  0.13167740107E+03  0.25500000000E-02 0.  1.
    5000001    1    1    2    0    0 -0.26887713754E+03  0.25826373652E+01  0.46164517293E+03  0.57010424555E+03  0.19900000000E+03 0.  0.
   -5000001    1    1    2    0    0  0.26887713754E+03 -0.25826373652E+01  0.28377121298E+03  0.43866694248E+03  0.19900000000E+03 0.  0.
<mgrwt>
<rscale>  0 0.67968649E+03</rscale>
<asrwt>0</asrwt>
<pdfrwt beam="1">  1        2 0.18811057E-01 0.67968649E+03</pdfrwt>
<pdfrwt beam="2">  1       -2 0.12529911E+00 0.67968649E+03</pdfrwt>
<totfact> 0.14732729E+02</totfact>
</mgrwt>
</event>
<event>
 4    1  0.4998754E-005  0.8260443E+03  0.7818608E-02  0.9523066E-01
         -2   -1    0    0    0  501 -0.00000000000E+00  0.00000000000E+00  0.70853228315E+02  0.70853228360E+02  0.25500000000E-02 0. -1.
          2   -1    0    0  501    0  0.00000000000E+00 -0.00000000000E+00 -0.24076149988E+04  0.24076149988E+04  0.25500000000E-02 0.  1.
    5000001    1    1    2    0    0 -0.90128320365E+02 -0.26236050568E+03 -0.47095495594E+03  0.58168352185E+03  0.19900000000E+03 0.  0.
   -5000001    1    1    2    0    0  0.90128320365E+02  0.26236050568E+03 -0.18658068145E+04  0.18967847053E+04  0.19900000000E+03 0.  0.
<mgrwt>
<rscale>  0 0.82604430E+03</rscale>
<asrwt>0</asrwt>
<pdfrwt beam="1">  1        2 0.34394495E+00 0.82604430E+03</pdfrwt>
<pdfrwt beam="2">  1       -2 0.10121891E-01 0.82604430E+03</pdfrwt>
<totfact> 0.33970558E+02</totfact>
</mgrwt>
</event>
<event>
 4    1  0.4998754E-005  0.4712235E+03  0.7818608E-02  0.1021575E+00
          2   -1    0    0  501    0  0.00000000000E+00  0.00000000000E+00  0.20141148142E+04  0.20141148142E+04  0.25500000000E-02 0. -1.
         -2   -1    0    0    0  501 -0.00000000000E+00 -0.00000000000E+00 -0.27561929643E+02  0.27561929761E+02  0.25500000000E-02 0.  1.
    5000001    1    1    2    0    0 -0.12363085439E+03 -0.13628561880E+01  0.88491999396E+03  0.91540747280E+03  0.19900000000E+03 0.  0.
   -5000001    1    1    2    0    0  0.12363085439E+03  0.13628561880E+01  0.11016328906E+04  0.11262692711E+04  0.19900000000E+03 0.  0.
<mgrwt>
<rscale>  0 0.47122348E+03</rscale>
<asrwt>0</asrwt>
<pdfrwt beam="1">  1        2 0.28773068E+00 0.47122348E+03</pdfrwt>
<pdfrwt beam="2">  1       -2 0.39374186E-02 0.47122348E+03</pdfrwt>
<totfact> 0.24279043E+03</totfact>
</mgrwt>
</event>
<event>
 4    1  0.4998754E-005  0.7111871E+03  0.7818608E-02  0.9698290E-01
         -2   -1    0    0    0  501 -0.00000000000E+00  0.00000000000E+00  0.14262107730E+03  0.14262107732E+03  0.25500000000E-02 0. -1.
          2   -1    0    0  501    0  0.00000000000E+00 -0.00000000000E+00 -0.88659251941E+03  0.88659251942E+03  0.25500000000E-02 0.  1.
    5000001    1    1    2    0    0 -0.18873902898E+03 -0.14975235649E+03 -0.61756951858E+03  0.69212809481E+03  0.19900000000E+03 0.  0.
   -5000001    1    1    2    0    0  0.18873902898E+03  0.14975235649E+03 -0.12640192354E+03  0.33708550193E+03  0.19900000000E+03 0.  0.
<mgrwt>
<rscale>  0 0.71118712E+03</rscale>
<asrwt>0</asrwt>
<pdfrwt beam="1">  1        2 0.12665607E+00 0.71118712E+03</pdfrwt>
<pdfrwt beam="2">  1       -2 0.20374440E-01 0.71118712E+03</pdfrwt>
<totfact> 0.68783787E+02</totfact>
</mgrwt>
</event>
<event>
 4    1  0.4998754E-005  0.5618657E+03  0.7818608E-02  0.9987842E-01
          2   -1    0    0  501    0  0.00000000000E+00  0.00000000000E+00  0.49814678549E+03  0.49814678550E+03  0.25500000000E-02 0.  1.
         -2   -1    0    0    0  501 -0.00000000000E+00 -0.00000000000E+00 -0.15843377550E+03  0.15843377552E+03  0.25500000000E-02 0. -1.
    5000001    1    1    2    0    0 -0.17953944797E+02 -0.94131786576E+02  0.37272793525E+03  0.43325541092E+03  0.19900000000E+03 0.  0.
   -5000001    1    1    2    0    0  0.17953944797E+02  0.94131786576E+02 -0.33014925257E+02  0.22332515010E+03  0.19900000000E+03 0.  0.
<mgrwt>
<rscale>  0 0.56186573E+03</rscale>
<asrwt>0</asrwt>
<pdfrwt beam="1">  1        2 0.71163827E-01 0.56186573E+03</pdfrwt>
<pdfrwt beam="2">  1       -2 0.22633396E-01 0.56186573E+03</pdfrwt>
<totfact> 0.11565696E+03</totfact>
</mgrwt>
</event>
<event>
 4    1  0.4998754E-005  0.5237035E+03  0.7818608E-02  0.1007771E+00
          2   -1    0    0  501    0  0.00000000000E+00  0.00000000000E+00  0.31373786946E+04  0.31373786946E+04  0.25500000000E-02 0. -1.
         -2   -1    0    0    0  501 -0.00000000000E+00 -0.00000000000E+00 -0.21854656901E+02  0.21854657050E+02  0.25500000000E-02 0.  1.
    5000001    1    1    2    0    0 -0.10021511236E+03 -0.10498157177E+03  0.20939795521E+04  0.21084154153E+04  0.19900000000E+03 0.  0.
   -5000001    1    1    2    0    0  0.10021511236E+03  0.10498157177E+03  0.10215444857E+04  0.10508179364E+04  0.19900000000E+03 0.  0.
<mgrwt>
<rscale>  0 0.52370349E+03</rscale>
<asrwt>0</asrwt>
<pdfrwt beam="1">  1        2 0.44819636E+00 0.52370349E+03</pdfrwt>
<pdfrwt beam="2">  1       -2 0.31220980E-02 0.52370349E+03</pdfrwt>
<totfact> 0.90312965E+02</totfact>
</mgrwt>
</event>
<event>
 4    1  0.4998754E-005  0.5273466E+03  0.7818608E-02  0.1006878E+00
          2   -1    0    0  501    0  0.00000000000E+00  0.00000000000E+00  0.46930234269E+02  0.46930234339E+02  0.25500000000E-02 0.  1.
         -2   -1    0    0    0  501 -0.00000000000E+00 -0.00000000000E+00 -0.14814249762E+04  0.14814249762E+04  0.25500000000E-02 0. -1.
    5000001    1    1    2    0    0 -0.15397821943E+03 -0.58210815590E+02 -0.87128409797E+03  0.90875451607E+03  0.19900000000E+03 0.  0.
   -5000001    1    1    2    0    0  0.15397821943E+03  0.58210815590E+02 -0.56321064393E+03  0.61960069443E+03  0.19900000000E+03 0.  0.
<mgrwt>
<rscale>  0 0.52734665E+03</rscale>
<asrwt>0</asrwt>
<pdfrwt beam="1">  1        2 0.67043201E-02 0.52734665E+03</pdfrwt>
<pdfrwt beam="2">  1       -2 0.21163211E+00 0.52734665E+03</pdfrwt>
<totfact> 0.12877608E+02</totfact>
</mgrwt>
</event>
<event>
 4    1  0.4998754E-005  0.8116978E+03  0.7818608E-02  0.9543238E-01
         -2   -1    0    0    0  501 -0.00000000000E+00  0.00000000000E+00  0.59391011477E+03  0.59391011478E+03  0.25500000000E-02 0. -1.
          2   -1    0    0  501    0  0.00000000000E+00 -0.00000000000E+00 -0.27733711500E+03  0.27733711501E+03  0.25500000000E-02 0.  1.
    5000001    1    1    2    0    0 -0.27315955830E+03  0.10282526480E+03  0.37275296529E+03  0.51355131438E+03  0.19900000000E+03 0.  0.
   -5000001    1    1    2    0    0  0.27315955830E+03 -0.10282526480E+03 -0.56179965514E+02  0.35769591540E+03  0.19900000000E+03 0.  0.
<mgrwt>
<rscale>  0 0.81169777E+03</rscale>
<asrwt>0</asrwt>
<pdfrwt beam="1">  1        2 0.39619588E-01 0.81169777E+03</pdfrwt>
<pdfrwt beam="2">  1       -2 0.84844301E-01 0.81169777E+03</pdfrwt>
<totfact> 0.15860491E+02</totfact>
</mgrwt>
</event>
<event>
 4    1  0.4998754E-005  0.6687093E+03  0.7818608E-02  0.9772292E-01
          2   -1    0    0  501    0  0.00000000000E+00  0.00000000000E+00  0.11297421790E+04  0.11297421790E+04  0.25500000000E-02 0.  1.
         -2   -1    0    0    0  501 -0.00000000000E+00 -0.00000000000E+00 -0.98954466384E+02  0.98954466417E+02  0.25500000000E-02 0. -1.
    5000001    1    1    2    0    0  0.92301587979E+02  0.59511860701E+02  0.64830613771E+02  0.23635831525E+03  0.19900000000E+03 0.  0.
   -5000001    1    1    2    0    0 -0.92301587979E+02 -0.59511860701E+02  0.96595709883E+03  0.99233833016E+03  0.19900000000E+03 0.  0.
<mgrwt>
<rscale>  0 0.66870931E+03</rscale>
<asrwt>0</asrwt>
<pdfrwt beam="1">  1        2 0.16139173E+00 0.66870931E+03</pdfrwt>
<pdfrwt beam="2">  1       -2 0.14136353E-01 0.66870931E+03</pdfrwt>
<totfact> 0.91431120E+02</totfact>
</mgrwt>
</event>
<event>
 4    1  0.4998754E-005  0.5570858E+03  0.7818608E-02  0.9998670E-01
         -2   -1    0    0    0  501 -0.00000000000E+00  0.00000000000E+00  0.97658336405E+02  0.97658336438E+02  0.25500000000E-02 0. -1.
          2   -1    0    0  501    0  0.00000000000E+00 -0.00000000000E+00 -0.79446511949E+03  0.79446511949E+03  0.25500000000E-02 0.  1.
    5000001    1    1    2    0    0 -0.16725367132E+03 -0.39485597659E+02 -0.49563083362E+03  0.56105599206E+03  0.19900000000E+03 0.  0.
   -5000001    1    1    2    0    0  0.16725367132E+03  0.39485597659E+02 -0.20117594946E+03  0.33106746387E+03  0.19900000000E+03 0.  0.
<mgrwt>
<rscale>  0 0.55708578E+03</rscale>
<asrwt>0</asrwt>
<pdfrwt beam="1">  1        2 0.11349501E+00 0.55708578E+03</pdfrwt>
<pdfrwt beam="2">  1       -2 0.13951191E-01 0.55708578E+03</pdfrwt>
<totfact> 0.15201677E+03</totfact>
</mgrwt>
</event>
<event>
 4    1  0.4998754E-005  0.4673888E+03  0.7818608E-02  0.1022660E+00
          2   -1    0    0  501    0  0.00000000000E+00  0.00000000000E+00  0.17018754642E+04  0.17018754642E+04  0.25500000000E-02 0.  1.
         -2   -1    0    0    0  501 -0.00000000000E+00 -0.00000000000E+00 -0.32089932072E+02  0.32089932174E+02  0.25500000000E-02 0. -1.
    5000001    1    1    2    0    0  0.23318033199E+02 -0.10276558621E+03  0.60298482329E+03  0.64365844475E+03  0.19900000000E+03 0.  0.
   -5000001    1    1    2    0    0 -0.23318033199E+02  0.10276558621E+03  0.10668007088E+04  0.10903069516E+04  0.19900000000E+03 0.  0.
<mgrwt>
<rscale>  0 0.46738878E+03</rscale>
<asrwt>0</asrwt>
<pdfrwt beam="1">  1        2 0.24312504E+00 0.46738878E+03</pdfrwt>
<pdfrwt beam="2">  1       -2 0.45842765E-02 0.46738878E+03</pdfrwt>
<totfact> 0.27553012E+03</totfact>
</mgrwt>
</event>
<event>
 4    1  0.4998754E-005  0.5811243E+03  0.7818608E-02  0.9945360E-01
          2   -1    0    0  501    0  0.00000000000E+00  0.00000000000E+00  0.75078338458E+03  0.75078338459E+03  0.25500000000E-02 0. -1.
         -2   -1    0    0    0  501 -0.00000000000E+00 -0.00000000000E+00 -0.11245104347E+03  0.11245104350E+03  0.25500000000E-02 0.  1.
    5000001    1    1    2    0    0  0.19848038023E+03  0.62312854698E+02  0.26072105433E+03  0.38839904913E+03  0.19900000000E+03 0.  0.
   -5000001    1    1    2    0    0 -0.19848038023E+03 -0.62312854698E+02  0.37761128679E+03  0.47483537895E+03  0.19900000000E+03 0.  0.
<mgrwt>
<rscale>  0 0.58112434E+03</rscale>
<asrwt>0</asrwt>
<pdfrwt beam="1">  1        2 0.10725476E+00 0.58112434E+03</pdfrwt>
<pdfrwt beam="2">  1       -2 0.16064436E-01 0.58112434E+03</pdfrwt>
<totfact> 0.12874858E+03</totfact>
</mgrwt>
</event>
<event>
 4    1  0.4998754E-005  0.1532569E+04  0.7818608E-02  0.8863079E-01
          2   -1    0    0  501    0  0.00000000000E+00  0.00000000000E+00  0.11109153360E+04  0.11109153360E+04  0.25500000000E-02 0.  1.
         -2   -1    0    0    0  501 -0.00000000000E+00 -0.00000000000E+00 -0.52856573968E+03  0.52856573969E+03  0.25500000000E-02 0. -1.
    5000001    1    1    2    0    0 -0.50736131894E+03  0.44025486667E+03 -0.40883534919E+02  0.70179221926E+03  0.19900000000E+03 0.  0.
   -5000001    1    1    2    0    0  0.50736131894E+03 -0.44025486667E+03  0.62323313121E+03  0.93768885640E+03  0.19900000000E+03 0.  0.
<mgrwt>
<rscale>  0 0.15325688E+04</rscale>
<asrwt>0</asrwt>
<pdfrwt beam="1">  1        2 0.15870219E+00 0.15325688E+04</pdfrwt>
<pdfrwt beam="2">  1       -2 0.75509392E-01 0.15325688E+04</pdfrwt>
<totfact> 0.36571307E+01</totfact>
</mgrwt>
</event>
<event>
 4    1  0.4998754E-005  0.1008938E+04  0.7818608E-02  0.9298796E-01
          2   -1    0    0  501    0  0.00000000000E+00  0.00000000000E+00  0.23657899313E+04  0.23657899313E+04  0.25500000000E-02 0.  1.
         -2   -1    0    0    0  501 -0.00000000000E+00 -0.00000000000E+00 -0.10757029612E+03  0.10757029615E+03  0.25500000000E-02 0. -1.
    5000001    1    1    2    0    0  0.30851285636E+03  0.18098648183E+02  0.19761204388E+04  0.20100151075E+04  0.19900000000E+03 0.  0.
   -5000001    1    1    2    0    0 -0.30851285636E+03 -0.18098648183E+02  0.28209919636E+03  0.46334511996E+03  0.19900000000E+03 0.  0.
<mgrwt>
<rscale>  0 0.10089375E+04</rscale>
<asrwt>0</asrwt>
<pdfrwt beam="1">  1        2 0.33796995E+00 0.10089375E+04</pdfrwt>
<pdfrwt beam="2">  1       -2 0.15367187E-01 0.10089375E+04</pdfrwt>
<totfact> 0.17561004E+02</totfact>
</mgrwt>
</event>
<event>
 4    1  0.4998754E-005  0.7145437E+03  0.7818608E-02  0.9692679E-01
         -2   -1    0    0    0  501 -0.00000000000E+00  0.00000000000E+00  0.76298818785E+02  0.76298818828E+02  0.25500000000E-02 0. -1.
          2   -1    0    0  501    0  0.00000000000E+00 -0.00000000000E+00 -0.16729376714E+04  0.16729376714E+04  0.25500000000E-02 0.  1.
    5000001    1    1    2    0    0  0.22435169398E+03  0.16017160148E+03 -0.52955169869E+03  0.62929692999E+03  0.19900000000E+03 0.  0.
   -5000001    1    1    2    0    0 -0.22435169398E+03 -0.16017160148E+03 -0.10670871539E+04  0.11199395602E+04  0.19900000000E+03 0.  0.
<mgrwt>
<rscale>  0 0.71454368E+03</rscale>
<asrwt>0</asrwt>
<pdfrwt beam="1">  1        2 0.23899107E+00 0.71454368E+03</pdfrwt>
<pdfrwt beam="2">  1       -2 0.10899832E-01 0.71454368E+03</pdfrwt>
<totfact> 0.71685160E+02</totfact>
</mgrwt>
</event>
<event>
 4    1  0.4998754E-005  0.5382804E+03  0.7818608E-02  0.1004244E+00
          2   -1    0    0  501    0  0.00000000000E+00  0.00000000000E+00  0.20968383115E+04  0.20968383115E+04  0.25500000000E-02 0.  1.
         -2   -1    0    0    0  501 -0.00000000000E+00 -0.00000000000E+00 -0.34545554678E+02  0.34545554772E+02  0.25500000000E-02 0. -1.
    5000001    1    1    2    0    0 -0.96698036441E+01 -0.12876418128E+03  0.15345275336E+04  0.15527554446E+04  0.19900000000E+03 0.  0.
   -5000001    1    1    2    0    0  0.96698036441E+01  0.12876418128E+03  0.52776522327E+03  0.57862842168E+03  0.19900000000E+03 0.  0.
<mgrwt>
<rscale>  0 0.53828038E+03</rscale>
<asrwt>0</asrwt>
<pdfrwt beam="1">  1        2 0.29954841E+00 0.53828038E+03</pdfrwt>
<pdfrwt beam="2">  1       -2 0.49350779E-02 0.53828038E+03</pdfrwt>
<totfact> 0.15557748E+03</totfact>
</mgrwt>
</event>
<event>
 4    1  0.4998754E-005  0.6871952E+03  0.7818608E-02  0.9739384E-01
          2   -1    0    0  501    0  0.00000000000E+00  0.00000000000E+00  0.95142873811E+02  0.95142873845E+02  0.25500000000E-02 0.  1.
         -2   -1    0    0    0  501 -0.00000000000E+00 -0.00000000000E+00 -0.12408633028E+04  0.12408633028E+04  0.25500000000E-02 0. -1.
    5000001    1    1    2    0    0  0.27456953943E+03  0.30520692642E+02 -0.48295841773E+03  0.59090589599E+03  0.19900000000E+03 0.  0.
   -5000001    1    1    2    0    0 -0.27456953943E+03 -0.30520692642E+02 -0.66276201126E+03  0.74510028065E+03  0.19900000000E+03 0.  0.
<mgrwt>
<rscale>  0 0.68719517E+03</rscale>
<asrwt>0</asrwt>
<pdfrwt beam="1">  1        2 0.13591840E-01 0.68719517E+03</pdfrwt>
<pdfrwt beam="2">  1       -2 0.17726618E+00 0.68719517E+03</pdfrwt>
<totfact> 0.87191408E+01</totfact>
</mgrwt>
</event>
<event>
 4    1  0.4998754E-005  0.4559505E+03  0.7818608E-02  0.1025962E+00
          2   -1    0    0  501    0  0.00000000000E+00  0.00000000000E+00  0.17199910739E+03  0.17199910741E+03  0.25500000000E-02 0.  1.
         -2   -1    0    0    0  501 -0.00000000000E+00 -0.00000000000E+00 -0.30216853432E+03  0.30216853433E+03  0.25500000000E-02 0. -1.
    5000001    1    1    2    0    0 -0.45807032559E+02 -0.79207247960E+02 -0.13085427860E+03  0.25513901032E+03  0.19900000000E+03 0.  0.
   -5000001    1    1    2    0    0  0.45807032559E+02  0.79207247960E+02  0.68485166736E+00  0.21902863142E+03  0.19900000000E+03 0.  0.
<mgrwt>
<rscale>  0 0.45595052E+03</rscale>
<asrwt>0</asrwt>
<pdfrwt beam="1">  1        2 0.24571301E-01 0.45595052E+03</pdfrwt>
<pdfrwt beam="2">  1       -2 0.43166933E-01 0.45595052E+03</pdfrwt>
<totfact> 0.11369017E+03</totfact>
</mgrwt>
</event>
<event>
 4    1  0.4998754E-005  0.4466079E+03  0.7818608E-02  0.1028738E+00
          2   -1    0    0  501    0  0.00000000000E+00  0.00000000000E+00  0.41730910690E+03  0.41730910691E+03  0.25500000000E-02 0.  1.
         -2   -1    0    0    0  501 -0.00000000000E+00 -0.00000000000E+00 -0.11949094936E+03  0.11949094939E+03  0.25500000000E-02 0. -1.
    5000001    1    1    2    0    0 -0.99139733244E+02  0.18226612601E+02  0.16109362255E+03  0.27516004677E+03  0.19900000000E+03 0.  0.
   -5000001    1    1    2    0    0  0.99139733244E+02 -0.18226612601E+02  0.13672453500E+03  0.26164000953E+03  0.19900000000E+03 0.  0.
<mgrwt>
<rscale>  0 0.44660793E+03</rscale>
<asrwt>0</asrwt>
<pdfrwt beam="1">  1        2 0.59615585E-01 0.44660793E+03</pdfrwt>
<pdfrwt beam="2">  1       -2 0.17070136E-01 0.44660793E+03</pdfrwt>
<totfact> 0.22956468E+03</totfact>
</mgrwt>
</event>
<event>
 4    1  0.4998754E-005  0.4532862E+03  0.7818608E-02  0.1026747E+00
         -2   -1    0    0    0  501 -0.00000000000E+00  0.00000000000E+00  0.83410194806E+02  0.83410194845E+02  0.25500000000E-02 0. -1.
          2   -1    0    0  501    0  0.00000000000E+00 -0.00000000000E+00 -0.61583723020E+03  0.61583723021E+03  0.25500000000E-02 0.  1.
    5000001    1    1    2    0    0  0.92225066920E+02 -0.56205331297E+02 -0.25066433413E+03  0.33778411839E+03  0.19900000000E+03 0.  0.
   -5000001    1    1    2    0    0 -0.92225066920E+02  0.56205331297E+02 -0.28176270127E+03  0.36146330666E+03  0.19900000000E+03 0.  0.
<mgrwt>
<rscale>  0 0.45328624E+03</rscale>
<asrwt>0</asrwt>
<pdfrwt beam="1">  1        2 0.87976744E-01 0.45328624E+03</pdfrwt>
<pdfrwt beam="2">  1       -2 0.11915743E-01 0.45328624E+03</pdfrwt>
<totfact> 0.26880576E+03</totfact>
</mgrwt>
</event>
<event>
 4    1  0.4998754E-005  0.6189929E+03  0.7818608E-02  0.9866767E-01
          2   -1    0    0  501    0  0.00000000000E+00  0.00000000000E+00  0.14496239503E+04  0.14496239503E+04  0.25500000000E-02 0.  1.
         -2   -1    0    0    0  501 -0.00000000000E+00 -0.00000000000E+00 -0.66077854167E+02  0.66077854216E+02  0.25500000000E-02 0. -1.
    5000001    1    1    2    0    0  0.11798096191E+03  0.97187636896E+02  0.24815287856E+03  0.35291046354E+03  0.19900000000E+03 0.  0.
   -5000001    1    1    2    0    0 -0.11798096191E+03 -0.97187636896E+02  0.11353932176E+04  0.11627913410E+04  0.19900000000E+03 0.  0.
<mgrwt>
<rscale>  0 0.61899286E+03</rscale>
<asrwt>0</asrwt>
<pdfrwt beam="1">  1        2 0.20708913E+00 0.61899286E+03</pdfrwt>
<pdfrwt beam="2">  1       -2 0.94396936E-02 0.61899286E+03</pdfrwt>
<totfact> 0.11877408E+03</totfact>
</mgrwt>
</event>
<event>
 4    1  0.4998754E-005  0.9678586E+03  0.7818608E-02  0.9344517E-01
          2   -1    0    0  501    0  0.00000000000E+00  0.00000000000E+00  0.40727494676E+03  0.40727494677E+03  0.25500000000E-02 0.  1.
         -2   -1    0    0    0  501 -0.00000000000E+00 -0.00000000000E+00 -0.57501103056E+03  0.57501103057E+03  0.25500000000E-02 0. -1.
    5000001    1    1    2    0    0  0.24636424760E+03  0.36590833312E+03 -0.82316818922E+02  0.49087810036E+03  0.19900000000E+03 0.  0.
   -5000001    1    1    2    0    0 -0.24636424760E+03 -0.36590833312E+03 -0.85419264876E+02  0.49140787697E+03  0.19900000000E+03 0.  0.
<mgrwt>
<rscale>  0 0.96785864E+03</rscale>
<asrwt>0</asrwt>
<pdfrwt beam="1">  1        2 0.58182135E-01 0.96785864E+03</pdfrwt>
<pdfrwt beam="2">  1       -2 0.82144433E-01 0.96785864E+03</pdfrwt>
<totfact> 0.11045356E+02</totfact>
</mgrwt>
</event>
<event>
 4    1  0.4998754E-005  0.8454785E+03  0.7818608E-02  0.9496426E-01
          2   -1    0    0  501    0  0.00000000000E+00  0.00000000000E+00  0.29540974318E+04  0.29540974318E+04  0.25500000000E-02 0.  1.
         -2   -1    0    0    0  501 -0.00000000000E+00 -0.00000000000E+00 -0.60495124445E+02  0.60495124499E+02  0.25500000000E-02 0. -1.
    5000001    1    1    2    0    0  0.29066425178E+01  0.36028582944E+03  0.11030787490E+04  0.11773691239E+04  0.19900000000E+03 0.  0.
   -5000001    1    1    2    0    0 -0.29066425178E+01 -0.36028582944E+03  0.17905235584E+04  0.18372234324E+04  0.19900000000E+03 0.  0.
<mgrwt>
<rscale>  0 0.84547854E+03</rscale>
<asrwt>0</asrwt>
<pdfrwt beam="1">  1        2 0.42201405E+00 0.84547854E+03</pdfrwt>
<pdfrwt beam="2">  1       -2 0.86421580E-02 0.84547854E+03</pdfrwt>
<totfact> 0.22542403E+02</totfact>
</mgrwt>
</event>
<event>
 4    1  0.4998754E-005  0.9013830E+03  0.7818608E-02  0.9423854E-01
          2   -1    0    0  501    0  0.00000000000E+00  0.00000000000E+00  0.12150465057E+04  0.12150465057E+04  0.25500000000E-02 0.  1.
         -2   -1    0    0    0  501 -0.00000000000E+00 -0.00000000000E+00 -0.16717286870E+03  0.16717286872E+03  0.25500000000E-02 0. -1.
    5000001    1    1    2    0    0 -0.22344482942E+03  0.33673689470E+03  0.54575712105E+03  0.70765186583E+03  0.19900000000E+03 0.  0.
   -5000001    1    1    2    0    0  0.22344482942E+03 -0.33673689470E+03  0.50211651594E+03  0.67456750858E+03  0.19900000000E+03 0.  0.
<mgrwt>
<rscale>  0 0.90138296E+03</rscale>
<asrwt>0</asrwt>
<pdfrwt beam="1">  1        2 0.17357807E+00 0.90138296E+03</pdfrwt>
<pdfrwt beam="2">  1       -2 0.23881838E-01 0.90138296E+03</pdfrwt>
<totfact> 0.32623124E+02</totfact>
</mgrwt>
</event>
<event>
 4    1  0.4998754E-005  0.6000552E+03  0.7818608E-02  0.9905291E-01
          2   -1    0    0  501    0  0.00000000000E+00  0.00000000000E+00  0.20040596873E+04  0.20040596873E+04  0.25500000000E-02 0.  1.
         -2   -1    0    0    0  501 -0.00000000000E+00 -0.00000000000E+00 -0.44917110208E+02  0.44917110280E+02  0.25500000000E-02 0. -1.
    5000001    1    1    2    0    0  0.89637812596E+01  0.17256308639E+03  0.48998661485E+03  0.55636880834E+03  0.19900000000E+03 0.  0.
   -5000001    1    1    2    0    0 -0.89637812596E+01 -0.17256308639E+03  0.14691559622E+04  0.14926079892E+04  0.19900000000E+03 0.  0.
<mgrwt>
<rscale>  0 0.60005523E+03</rscale>
<asrwt>0</asrwt>
<pdfrwt beam="1">  1        2 0.28629425E+00 0.60005523E+03</pdfrwt>
<pdfrwt beam="2">  1       -2 0.64167299E-02 0.60005523E+03</pdfrwt>
<totfact> 0.11462391E+03</totfact>
</mgrwt>
</event>
<event>
 4    1  0.4998754E-005  0.5944248E+03  0.7818608E-02  0.9917041E-01
         -2   -1    0    0    0  501 -0.00000000000E+00  0.00000000000E+00  0.81939970068E+02  0.81939970108E+02  0.25500000000E-02 0.  1.
          2   -1    0    0  501    0  0.00000000000E+00 -0.00000000000E+00 -0.10780478480E+04  0.10780478480E+04  0.25500000000E-02 0. -1.
    5000001    1    1    2    0    0  0.87913743133E+02  0.19344083189E+03 -0.38119464015E+03  0.47964417577E+03  0.19900000000E+03 0.  0.
   -5000001    1    1    2    0    0 -0.87913743133E+02 -0.19344083189E+03 -0.61491323783E+03  0.68034364239E+03  0.19900000000E+03 0.  0.
<mgrwt>
<rscale>  0 0.59442479E+03</rscale>
<asrwt>0</asrwt>
<pdfrwt beam="1">  1        2 0.15400683E+00 0.59442479E+03</pdfrwt>
<pdfrwt beam="2">  1       -2 0.11705711E-01 0.59442479E+03</pdfrwt>
<totfact> 0.13428140E+03</totfact>
</mgrwt>
</event>
<event>
 4    1  0.4998754E-005  0.4137928E+03  0.7818608E-02  0.1039106E+00
          2   -1    0    0  501    0  0.00000000000E+00  0.00000000000E+00  0.52385811504E+03  0.52385811505E+03  0.25500000000E-02 0. -1.
         -2   -1    0    0    0  501 -0.00000000000E+00 -0.00000000000E+00 -0.81713186580E+02  0.81713186620E+02  0.25500000000E-02 0.  1.
    5000001    1    1    2    0    0  0.51980069197E+02 -0.22375490685E+02  0.21874664453E+03  0.30108750335E+03  0.19900000000E+03 0.  0.
   -5000001    1    1    2    0    0 -0.51980069197E+02  0.22375490685E+02  0.22339828393E+03  0.30448379832E+03  0.19900000000E+03 0.  0.
<mgrwt>
<rscale>  0 0.41379278E+03</rscale>
<asrwt>0</asrwt>
<pdfrwt beam="1">  1        2 0.74836874E-01 0.41379278E+03</pdfrwt>
<pdfrwt beam="2">  1       -2 0.11673312E-01 0.41379278E+03</pdfrwt>
<totfact> 0.33446165E+03</totfact>
</mgrwt>
</event>
<event>
 4    1  0.4998754E-005  0.6914908E+03  0.7818608E-02  0.9731896E-01
         -2   -1    0    0    0  501 -0.00000000000E+00  0.00000000000E+00  0.89134346953E+02  0.89134346989E+02  0.25500000000E-02 0. -1.
          2   -1    0    0  501    0  0.00000000000E+00 -0.00000000000E+00 -0.13411203483E+04  0.13411203483E+04  0.25500000000E-02 0.  1.
    5000001    1    1    2    0    0 -0.27276553275E+03 -0.55923390882E+02 -0.52444443950E+03  0.62623592330E+03  0.19900000000E+03 0.  0.
   -5000001    1    1    2    0    0  0.27276553275E+03  0.55923390882E+02 -0.72754156184E+03  0.80401877199E+03  0.19900000000E+03 0.  0.
<mgrwt>
<rscale>  0 0.69149081E+03</rscale>
<asrwt>0</asrwt>
<pdfrwt beam="1">  1        2 0.19158861E+00 0.69149081E+03</pdfrwt>
<pdfrwt beam="2">  1       -2 0.12733479E-01 0.69149081E+03</pdfrwt>
<totfact> 0.82919513E+02</totfact>
</mgrwt>
</event>
<event>
 4    1  0.4998754E-005  0.5478047E+03  0.7818608E-02  0.1002003E+00
          2   -1    0    0  501    0  0.00000000000E+00  0.00000000000E+00  0.15609485268E+04  0.15609485269E+04  0.25500000000E-02 0.  1.
         -2   -1    0    0    0  501 -0.00000000000E+00 -0.00000000000E+00 -0.48062127241E+02  0.48062127308E+02  0.25500000000E-02 0. -1.
    5000001    1    1    2    0    0  0.10654030317E+03 -0.91170211283E+02  0.38772648592E+03  0.45781619839E+03  0.19900000000E+03 0.  0.
   -5000001    1    1    2    0    0 -0.10654030317E+03  0.91170211283E+02  0.11251599137E+04  0.11511944558E+04  0.19900000000E+03 0.  0.
<mgrwt>
<rscale>  0 0.54780473E+03</rscale>
<asrwt>0</asrwt>
<pdfrwt beam="1">  1        2 0.22299257E+00 0.54780473E+03</pdfrwt>
<pdfrwt beam="2">  1       -2 0.68660206E-02 0.54780473E+03</pdfrwt>
<totfact> 0.17306967E+03</totfact>
</mgrwt>
</event>
<event>
 4    1  0.4998754E-005  0.1110725E+04  0.7818608E-02  0.9194801E-01
          2   -1    0    0  501    0  0.00000000000E+00  0.00000000000E+00  0.88020111372E+03  0.88020111372E+03  0.25500000000E-02 0.  1.
         -2   -1    0    0    0  501 -0.00000000000E+00 -0.00000000000E+00 -0.35040592990E+03  0.35040592991E+03  0.25500000000E-02 0. -1.
    5000001    1    1    2    0    0  0.33241594834E+03  0.44960701067E+02  0.70292265886E+03  0.80388002320E+03  0.19900000000E+03 0.  0.
   -5000001    1    1    2    0    0 -0.33241594834E+03 -0.44960701067E+02 -0.17312747505E+03  0.42672702043E+03  0.19900000000E+03 0.  0.
<mgrwt>
<rscale>  0 0.11107253E+04</rscale>
<asrwt>0</asrwt>
<pdfrwt beam="1">  1        2 0.12574301E+00 0.11107253E+04</pdfrwt>
<pdfrwt beam="2">  1       -2 0.50057991E-01 0.11107253E+04</pdfrwt>
<totfact> 0.12551177E+02</totfact>
</mgrwt>
</event>
<event>
 4    1  0.4998754E-005  0.8555806E+03  0.7818608E-02  0.9482877E-01
         -2   -1    0    0    0  501 -0.00000000000E+00  0.00000000000E+00  0.19971685305E+03  0.19971685307E+03  0.25500000000E-02 0. -1.
          2   -1    0    0  501    0  0.00000000000E+00 -0.00000000000E+00 -0.91632003686E+03  0.91632003687E+03  0.25500000000E-02 0.  1.
    5000001    1    1    2    0    0 -0.24222384834E+03 -0.10473567702E+03 -0.71257027943E+03  0.78549306673E+03  0.19900000000E+03 0.  0.
   -5000001    1    1    2    0    0  0.24222384834E+03  0.10473567702E+03 -0.40329043766E+01  0.33054382321E+03  0.19900000000E+03 0.  0.
<mgrwt>
<rscale>  0 0.85558063E+03</rscale>
<asrwt>0</asrwt>
<pdfrwt beam="1">  1        2 0.13090286E+00 0.85558063E+03</pdfrwt>
<pdfrwt beam="2">  1       -2 0.28530980E-01 0.85558063E+03</pdfrwt>
<totfact> 0.35751020E+02</totfact>
</mgrwt>
</event>
<event>
 4    1  0.4998754E-005  0.8039212E+03  0.7818608E-02  0.9554359E-01
          2   -1    0    0  501    0  0.00000000000E+00  0.00000000000E+00  0.13382149715E+04  0.13382149715E+04  0.25500000000E-02 0.  1.
         -2   -1    0    0    0  501 -0.00000000000E+00 -0.00000000000E+00 -0.12073719404E+03  0.12073719407E+03  0.25500000000E-02 0. -1.
    5000001    1    1    2    0    0  0.32249968149E+03  0.47359698845E+02  0.83629374055E+03  0.91936782960E+03  0.19900000000E+03 0.  0.
   -5000001    1    1    2    0    0 -0.32249968149E+03 -0.47359698845E+02  0.38118403696E+03  0.53958433601E+03  0.19900000000E+03 0.  0.
<mgrwt>
<rscale>  0 0.80392119E+03</rscale>
<asrwt>0</asrwt>
<pdfrwt beam="1">  1        2 0.19117356E+00 0.80392119E+03</pdfrwt>
<pdfrwt beam="2">  1       -2 0.17248171E-01 0.80392119E+03</pdfrwt>
<totfact> 0.49603541E+02</totfact>
</mgrwt>
</event>
<event>
 4    1  0.4998754E-005  0.5281591E+03  0.7818608E-02  0.1006680E+00
         -2   -1    0    0    0  501 -0.00000000000E+00  0.00000000000E+00  0.57059519794E+02  0.57059519851E+02  0.25500000000E-02 0. -1.
          2   -1    0    0  501    0  0.00000000000E+00 -0.00000000000E+00 -0.12221976053E+04  0.12221976053E+04  0.25500000000E-02 0.  1.
    5000001    1    1    2    0    0  0.41325837102E+02 -0.13489563365E+03 -0.82757734887E+03  0.86278034583E+03  0.19900000000E+03 0.  0.
   -5000001    1    1    2    0    0 -0.41325837102E+02  0.13489563365E+03 -0.33756073660E+03  0.41647677928E+03  0.19900000000E+03 0.  0.
<mgrwt>
<rscale>  0 0.52815910E+03</rscale>
<asrwt>0</asrwt>
<pdfrwt beam="1">  1        2 0.17459964E+00 0.52815910E+03</pdfrwt>
<pdfrwt beam="2">  1       -2 0.81513608E-02 0.52815910E+03</pdfrwt>
<totfact> 0.19972255E+03</totfact>
</mgrwt>
</event>
<event>
 4    1  0.4998754E-005  0.1071726E+04  0.7818608E-02  0.9233197E-01
          2   -1    0    0  501    0  0.00000000000E+00  0.00000000000E+00  0.27380051539E+04  0.27380051539E+04  0.25500000000E-02 0.  1.
         -2   -1    0    0    0  501 -0.00000000000E+00 -0.00000000000E+00 -0.10487528058E+03  0.10487528061E+03  0.25500000000E-02 0. -1.
    5000001    1    1    2    0    0  0.17001363838E+03  0.32934583758E+03  0.43609218722E+03  0.60592962769E+03  0.19900000000E+03 0.  0.
   -5000001    1    1    2    0    0 -0.17001363838E+03 -0.32934583758E+03  0.21970376861E+04  0.22369508068E+04  0.19900000000E+03 0.  0.
<mgrwt>
<rscale>  0 0.10717258E+04</rscale>
<asrwt>0</asrwt>
<pdfrwt beam="1">  1        2 0.39114357E+00 0.10717258E+04</pdfrwt>
<pdfrwt beam="2">  1       -2 0.14982184E-01 0.10717258E+04</pdfrwt>
<totfact> 0.11638992E+02</totfact>
</mgrwt>
</event>
<event>
 4    1  0.4998754E-005  0.5361688E+03  0.7818608E-02  0.1004747E+00
          2   -1    0    0  501    0  0.00000000000E+00  0.00000000000E+00  0.50231553185E+03  0.50231553185E+03  0.25500000000E-02 0.  1.
         -2   -1    0    0    0  501 -0.00000000000E+00 -0.00000000000E+00 -0.14307592329E+03  0.14307592331E+03  0.25500000000E-02 0. -1.
    5000001    1    1    2    0    0 -0.10571219435E+03 -0.12389832266E+03  0.88404395848E+02  0.27192315017E+03  0.19900000000E+03 0.  0.
   -5000001    1    1    2    0    0  0.10571219435E+03  0.12389832266E+03  0.27083521271E+03  0.37346830500E+03  0.19900000000E+03 0.  0.
<mgrwt>
<rscale>  0 0.53616885E+03</rscale>
<asrwt>0</asrwt>
<pdfrwt beam="1">  1        2 0.71759362E-01 0.53616885E+03</pdfrwt>
<pdfrwt beam="2">  1       -2 0.20439417E-01 0.53616885E+03</pdfrwt>
<totfact> 0.13703157E+03</totfact>
</mgrwt>
</event>
<event>
 4    1  0.4998754E-005  0.6649764E+03  0.7818608E-02  0.9779076E-01
         -2   -1    0    0    0  501 -0.00000000000E+00  0.00000000000E+00  0.76198091186E+02  0.76198091229E+02  0.25500000000E-02 0. -1.
          2   -1    0    0  501    0  0.00000000000E+00 -0.00000000000E+00 -0.14508027140E+04  0.14508027140E+04  0.25500000000E-02 0.  1.
    5000001    1    1    2    0    0 -0.16525170390E+03  0.20554890781E+03 -0.60172248370E+03  0.68646152589E+03  0.19900000000E+03 0.  0.
   -5000001    1    1    2    0    0  0.16525170390E+03 -0.20554890781E+03 -0.77288213910E+03  0.84053927932E+03  0.19900000000E+03 0.  0.
<mgrwt>
<rscale>  0 0.66497638E+03</rscale>
<asrwt>0</asrwt>
<pdfrwt beam="1">  1        2 0.20725751E+00 0.66497638E+03</pdfrwt>
<pdfrwt beam="2">  1       -2 0.10885442E-01 0.66497638E+03</pdfrwt>
<totfact> 0.93919279E+02</totfact>
</mgrwt>
</event>
<event>
 4    1  0.4998754E-005  0.4273075E+03  0.7818608E-02  0.1034714E+00
          2   -1    0    0  501    0  0.00000000000E+00  0.00000000000E+00  0.79799820396E+03  0.79799820396E+03  0.25500000000E-02 0.  1.
         -2   -1    0    0    0  501 -0.00000000000E+00 -0.00000000000E+00 -0.57203053971E+02  0.57203054028E+02  0.25500000000E-02 0. -1.
    5000001    1    1    2    0    0  0.46543647705E+02 -0.51609447601E+02  0.30057613775E+03  0.36711968186E+03  0.19900000000E+03 0.  0.
   -5000001    1    1    2    0    0 -0.46543647705E+02  0.51609447601E+02  0.44021901224E+03  0.48808157614E+03  0.19900000000E+03 0.  0.
<mgrwt>
<rscale>  0 0.42730754E+03</rscale>
<asrwt>0</asrwt>
<pdfrwt beam="1">  1        2 0.11399974E+00 0.42730754E+03</pdfrwt>
<pdfrwt beam="2">  1       -2 0.81718655E-02 0.42730754E+03</pdfrwt>
<totfact> 0.35983513E+03</totfact>
</mgrwt>
</event>
<event>
 4    1  0.4998754E-005  0.8390261E+03  0.7818608E-02  0.9505185E-01
         -2   -1    0    0    0  501 -0.00000000000E+00  0.00000000000E+00  0.14572392441E+03  0.14572392444E+03  0.25500000000E-02 0. -1.
          2   -1    0    0  501    0  0.00000000000E+00 -0.00000000000E+00 -0.12077027846E+04  0.12077027846E+04  0.25500000000E-02 0.  1.
    5000001    1    1    2    0    0 -0.12382115735E+03 -0.29973380282E+03 -0.81600128156E+03  0.90035055565E+03  0.19900000000E+03 0.  0.
   -5000001    1    1    2    0    0  0.12382115735E+03  0.29973380282E+03 -0.24597757858E+03  0.45307615334E+03  0.19900000000E+03 0.  0.
<mgrwt>
<rscale>  0 0.83902608E+03</rscale>
<asrwt>0</asrwt>
<pdfrwt beam="1">  1        2 0.17252896E+00 0.83902608E+03</pdfrwt>
<pdfrwt beam="2">  1       -2 0.20817704E-01 0.83902608E+03</pdfrwt>
<totfact> 0.42170927E+02</totfact>
</mgrwt>
</event>
<event>
 4    1  0.4998754E-005  0.7375385E+03  0.7818608E-02  0.9655106E-01
          2   -1    0    0  501    0  0.00000000000E+00  0.00000000000E+00  0.19192689576E+04  0.19192689576E+04  0.25500000000E-02 0.  1.
         -2   -1    0    0    0  501 -0.00000000000E+00 -0.00000000000E+00 -0.70855490834E+02  0.70855490880E+02  0.25500000000E-02 0. -1.
    5000001    1    1    2    0    0  0.28064471442E+03  0.23326555759E+02  0.57151735450E+03  0.66748683166E+03  0.19900000000E+03 0.  0.
   -5000001    1    1    2    0    0 -0.28064471442E+03 -0.23326555759E+02  0.12768961122E+04  0.13226376168E+04  0.19900000000E+03 0.  0.
<mgrwt>
<rscale>  0 0.73753846E+03</rscale>
<asrwt>0</asrwt>
<pdfrwt beam="1">  1        2 0.27418134E+00 0.73753846E+03</pdfrwt>
<pdfrwt beam="2">  1       -2 0.10122211E-01 0.73753846E+03</pdfrwt>
<totfact> 0.60539100E+02</totfact>
</mgrwt>
</event>
<event>
 4    1  0.4998754E-005  0.5565192E+03  0.7818608E-02  0.9999962E-01
         -2   -1    0    0    0  501 -0.00000000000E+00  0.00000000000E+00  0.63258657561E+02  0.63258657612E+02  0.25500000000E-02 0. -1.
          2   -1    0    0  501    0  0.00000000000E+00 -0.00000000000E+00 -0.12239969271E+04  0.12239969271E+04  0.25500000000E-02 0.  1.
    5000001    1    1    2    0    0  0.16111084483E+02  0.16127648715E+03 -0.33170055458E+03  0.41939948767E+03  0.19900000000E+03 0.  0.
   -5000001    1    1    2    0    0 -0.16111084483E+02 -0.16127648715E+03 -0.82903771495E+03  0.86785609704E+03  0.19900000000E+03 0.  0.
<mgrwt>
<rscale>  0 0.55651919E+03</rscale>
<asrwt>0</asrwt>
<pdfrwt beam="1">  1        2 0.17485669E+00 0.55651919E+03</pdfrwt>
<pdfrwt beam="2">  1       -2 0.90369518E-02 0.55651919E+03</pdfrwt>
<totfact> 0.16889711E+03</totfact>
</mgrwt>
</event>
<event>
 4    1  0.4998754E-005  0.5833230E+03  0.7818608E-02  0.9940622E-01
         -2   -1    0    0    0  501 -0.00000000000E+00  0.00000000000E+00  0.29114231298E+02  0.29114231410E+02  0.25500000000E-02 0. -1.
          2   -1    0    0  501    0  0.00000000000E+00 -0.00000000000E+00 -0.29218165580E+04  0.29218165580E+04  0.25500000000E-02 0.  1.
    5000001    1    1    2    0    0 -0.70258373410E+02  0.43073294141E+02 -0.45149830816E+03  0.50024321082E+03  0.19900000000E+03 0.  0.
   -5000001    1    1    2    0    0  0.70258373410E+02 -0.43073294141E+02 -0.24412040185E+04  0.24506875786E+04  0.19900000000E+03 0.  0.
<mgrwt>
<rscale>  0 0.58332304E+03</rscale>
<asrwt>0</asrwt>
<pdfrwt beam="1">  1        2 0.41740218E+00 0.58332304E+03</pdfrwt>
<pdfrwt beam="2">  1       -2 0.41591778E-02 0.58332304E+03</pdfrwt>
<totfact> 0.75953035E+02</totfact>
</mgrwt>
</event>
<event>
 4    1  0.4998754E-005  0.9238472E+03  0.7818608E-02  0.9396253E-01
         -2   -1    0    0    0  501 -0.00000000000E+00  0.00000000000E+00  0.41738299990E+02  0.41738300068E+02  0.25500000000E-02 0. -1.
          2   -1    0    0  501    0  0.00000000000E+00 -0.00000000000E+00 -0.51121728181E+04  0.51121728181E+04  0.25500000000E-02 0.  1.
    5000001    1    1    2    0    0 -0.38255392100E+03 -0.15282026620E+03 -0.21792744484E+04  0.22267778645E+04  0.19900000000E+03 0.  0.
   -5000001    1    1    2    0    0  0.38255392100E+03  0.15282026620E+03 -0.28911600697E+04  0.29271332536E+04  0.19900000000E+03 0.  0.
<mgrwt>
<rscale>  0 0.92384718E+03</rscale>
<asrwt>0</asrwt>
<pdfrwt beam="1">  1        2 0.73031001E+00 0.92384718E+03</pdfrwt>
<pdfrwt beam="2">  1       -2 0.59626175E-02 0.92384718E+03</pdfrwt>
<totfact> 0.11905419E+01</totfact>
</mgrwt>
</event>
<event>
 4    1  0.4998754E-005  0.1373552E+04  0.7818608E-02  0.8973189E-01
          2   -1    0    0  501    0  0.00000000000E+00  0.00000000000E+00  0.10436114611E+04  0.10436114611E+04  0.25500000000E-02 0. -1.
         -2   -1    0    0    0  501 -0.00000000000E+00 -0.00000000000E+00 -0.45195082408E+03  0.45195082409E+03  0.25500000000E-02 0.  1.
    5000001    1    1    2    0    0  0.24306823005E+03 -0.36409226881E+03 -0.23804521797E+03  0.53657419847E+03  0.19900000000E+03 0.  0.
   -5000001    1    1    2    0    0 -0.24306823005E+03  0.36409226881E+03  0.82970585495E+03  0.95898808668E+03  0.19900000000E+03 0.  0.
<mgrwt>
<rscale>  0 0.13735517E+04</rscale>
<asrwt>0</asrwt>
<pdfrwt beam="1">  1        2 0.14908735E+00 0.13735517E+04</pdfrwt>
<pdfrwt beam="2">  1       -2 0.64564403E-01 0.13735517E+04</pdfrwt>
<totfact> 0.57116071E+01</totfact>
</mgrwt>
</event>
<event>
 4    1  0.4998754E-005  0.4918865E+03  0.7818608E-02  0.1015919E+00
         -2   -1    0    0    0  501 -0.00000000000E+00  0.00000000000E+00  0.42253871044E+02  0.42253871121E+02  0.25500000000E-02 0. -1.
          2   -1    0    0  501    0  0.00000000000E+00 -0.00000000000E+00 -0.14315393077E+04  0.14315393077E+04  0.25500000000E-02 0.  1.
    5000001    1    1    2    0    0  0.54144612794E+01 -0.87025172720E+02 -0.34930635924E+03  0.41136192055E+03  0.19900000000E+03 0.  0.
   -5000001    1    1    2    0    0 -0.54144612794E+01  0.87025172720E+02 -0.10399790774E+04  0.10624312583E+04  0.19900000000E+03 0.  0.
<mgrwt>
<rscale>  0 0.49188648E+03</rscale>
<asrwt>0</asrwt>
<pdfrwt beam="1">  1        2 0.20450559E+00 0.49188648E+03</pdfrwt>
<pdfrwt beam="2">  1       -2 0.60362682E-02 0.49188648E+03</pdfrwt>
<totfact> 0.24752848E+03</totfact>
</mgrwt>
</event>
<event>
 4    1  0.4998754E-005  0.1187795E+04  0.7818608E-02  0.9123607E-01
         -2   -1    0    0    0  501 -0.00000000000E+00  0.00000000000E+00  0.17020951229E+03  0.17020951230E+03  0.25500000000E-02 0.  1.
          2   -1    0    0  501    0  0.00000000000E+00 -0.00000000000E+00 -0.20722349907E+04  0.20722349907E+04  0.25500000000E-02 0. -1.
    5000001    1    1    2    0    0  0.26787279276E+02  0.45406018649E+03 -0.33570348056E+03  0.59932131461E+03  0.19900000000E+03 0.  0.
   -5000001    1    1    2    0    0 -0.26787279276E+02 -0.45406018649E+03 -0.15663219979E+04  0.16431231884E+04  0.19900000000E+03 0.  0.
<mgrwt>
<rscale>  0 0.11877948E+04</rscale>
<asrwt>0</asrwt>
<pdfrwt beam="1">  1        2 0.29603355E+00 0.11877948E+04</pdfrwt>
<pdfrwt beam="2">  1       -2 0.24315646E-01 0.11877948E+04</pdfrwt>
<totfact> 0.10980521E+02</totfact>
</mgrwt>
</event>
<event>
 4    1  0.4998754E-005  0.6699851E+03  0.7818608E-02  0.9769985E-01
          2   -1    0    0  501    0  0.00000000000E+00  0.00000000000E+00  0.28385457216E+03  0.28385457217E+03  0.25500000000E-02 0.  1.
         -2   -1    0    0    0  501 -0.00000000000E+00 -0.00000000000E+00 -0.39534328644E+03  0.39534328645E+03  0.25500000000E-02 0. -1.
    5000001    1    1    2    0    0  0.49086876067E+02 -0.22191999378E+03 -0.20251429899E+03  0.36369086644E+03  0.19900000000E+03 0.  0.
   -5000001    1    1    2    0    0 -0.49086876067E+02  0.22191999378E+03  0.91025584705E+02  0.31550699217E+03  0.19900000000E+03 0.  0.
<mgrwt>
<rscale>  0 0.66998507E+03</rscale>
<asrwt>0</asrwt>
<pdfrwt beam="1">  1        2 0.40550653E-01 0.66998507E+03</pdfrwt>
<pdfrwt beam="2">  1       -2 0.56477612E-01 0.66998507E+03</pdfrwt>
<totfact> 0.37642038E+02</totfact>
</mgrwt>
</event>
<event>
 4    1  0.4998754E-005  0.9436472E+03  0.7818608E-02  0.9372607E-01
         -2   -1    0    0    0  501 -0.00000000000E+00  0.00000000000E+00  0.85467880188E+02  0.85467880226E+02  0.25500000000E-02 0. -1.
          2   -1    0    0  501    0  0.00000000000E+00 -0.00000000000E+00 -0.26046923213E+04  0.26046923213E+04  0.25500000000E-02 0.  1.
    5000001    1    1    2    0    0 -0.31830441130E+03  0.25406358611E+03 -0.88626991540E+03  0.99546037941E+03  0.19900000000E+03 0.  0.
   -5000001    1    1    2    0    0  0.31830441130E+03 -0.25406358611E+03 -0.16329545257E+04  0.16946998221E+04  0.19900000000E+03 0.  0.
<mgrwt>
<rscale>  0 0.94364725E+03</rscale>
<asrwt>0</asrwt>
<pdfrwt beam="1">  1        2 0.37209886E+00 0.94364725E+03</pdfrwt>
<pdfrwt beam="2">  1       -2 0.12209699E-01 0.94364725E+03</pdfrwt>
<totfact> 0.19521325E+02</totfact>
</mgrwt>
</event>
<event>
 4    1  0.4998754E-005  0.8339287E+03  0.7818608E-02  0.9512165E-01
         -2   -1    0    0    0  501 -0.00000000000E+00  0.00000000000E+00  0.14696541094E+03  0.14696541096E+03  0.25500000000E-02 0. -1.
          2   -1    0    0  501    0  0.00000000000E+00 -0.00000000000E+00 -0.11829943559E+04  0.11829943559E+04  0.25500000000E-02 0.  1.
    5000001    1    1    2    0    0 -0.78072664885E+02 -0.33740861217E+03 -0.32718039654E+03  0.51632153204E+03  0.19900000000E+03 0.  0.
   -5000001    1    1    2    0    0  0.78072664885E+02  0.33740861217E+03 -0.70884854838E+03  0.81363823479E+03  0.19900000000E+03 0.  0.
<mgrwt>
<rscale>  0 0.83392866E+03</rscale>
<asrwt>0</asrwt>
<pdfrwt beam="1">  1        2 0.16899919E+00 0.83392866E+03</pdfrwt>
<pdfrwt beam="2">  1       -2 0.20995059E-01 0.83392866E+03</pdfrwt>
<totfact> 0.42918819E+02</totfact>
</mgrwt>
</event>
<event>
 4    1  0.4998754E-005  0.4632661E+03  0.7818608E-02  0.1023838E+00
          2   -1    0    0  501    0  0.00000000000E+00  0.00000000000E+00  0.59022914383E+03  0.59022914383E+03  0.25500000000E-02 0.  1.
         -2   -1    0    0    0  501 -0.00000000000E+00 -0.00000000000E+00 -0.90903448097E+02  0.90903448132E+02  0.25500000000E-02 0. -1.
    5000001    1    1    2    0    0 -0.90640984886E+02 -0.68813485231E+02  0.29846609247E+03  0.37634305128E+03  0.19900000000E+03 0.  0.
   -5000001    1    1    2    0    0  0.90640984886E+02  0.68813485231E+02  0.20085960326E+03  0.30478954069E+03  0.19900000000E+03 0.  0.
<mgrwt>
<rscale>  0 0.46326608E+03</rscale>
<asrwt>0</asrwt>
<pdfrwt beam="1">  1        2 0.84318452E-01 0.46326608E+03</pdfrwt>
<pdfrwt beam="2">  1       -2 0.12986206E-01 0.46326608E+03</pdfrwt>
<totfact> 0.24530999E+03</totfact>
</mgrwt>
</event>
<event>
 4    1  0.4998754E-005  0.6472979E+03  0.7818608E-02  0.9811863E-01
          2   -1    0    0  501    0  0.00000000000E+00  0.00000000000E+00  0.56699046586E+03  0.56699046586E+03  0.25500000000E-02 0.  1.
         -2   -1    0    0    0  501 -0.00000000000E+00 -0.00000000000E+00 -0.18474495389E+03  0.18474495391E+03  0.25500000000E-02 0. -1.
    5000001    1    1    2    0    0 -0.16379200046E+03 -0.19574235060E+03  0.18859426583E+03  0.37458201283E+03  0.19900000000E+03 0.  0.
   -5000001    1    1    2    0    0  0.16379200046E+03  0.19574235060E+03  0.19365124614E+03  0.37715340694E+03  0.19900000000E+03 0.  0.
<mgrwt>
<rscale>  0 0.64729785E+03</rscale>
<asrwt>0</asrwt>
<pdfrwt beam="1">  1        2 0.80998639E-01 0.64729785E+03</pdfrwt>
<pdfrwt beam="2">  1       -2 0.26392136E-01 0.64729785E+03</pdfrwt>
<totfact> 0.75615416E+02</totfact>
</mgrwt>
</event>
<event>
 4    1  0.4998754E-005  0.6700119E+03  0.7818608E-02  0.9769936E-01
          2   -1    0    0  501    0  0.00000000000E+00  0.00000000000E+00  0.33552302353E+03  0.33552302354E+03  0.25500000000E-02 0.  1.
         -2   -1    0    0    0  501 -0.00000000000E+00 -0.00000000000E+00 -0.33448966550E+03  0.33448966551E+03  0.25500000000E-02 0. -1.
    5000001    1    1    2    0    0  0.21993239750E+03  0.15529696977E+03  0.12373152462E+02  0.33502463072E+03  0.19900000000E+03 0.  0.
   -5000001    1    1    2    0    0 -0.21993239750E+03 -0.15529696977E+03 -0.11339794428E+02  0.33498805833E+03  0.19900000000E+03 0.  0.
<mgrwt>
<rscale>  0 0.67001189E+03</rscale>
<asrwt>0</asrwt>
<pdfrwt beam="1">  1        2 0.47931860E-01 0.67001189E+03</pdfrwt>
<pdfrwt beam="2">  1       -2 0.47784238E-01 0.67001189E+03</pdfrwt>
<totfact> 0.44033253E+02</totfact>
</mgrwt>
</event>
<event>
 4    1  0.4998754E-005  0.6861039E+03  0.7818608E-02  0.9741296E-01
          2   -1    0    0  501    0  0.00000000000E+00  0.00000000000E+00  0.86134582058E+02  0.86134582096E+02  0.25500000000E-02 0.  1.
         -2   -1    0    0    0  501 -0.00000000000E+00 -0.00000000000E+00 -0.13662879885E+04  0.13662879885E+04  0.25500000000E-02 0. -1.
    5000001    1    1    2    0    0 -0.30278795032E+02 -0.27437303620E+03 -0.73201697147E+03  0.80724668778E+03  0.19900000000E+03 0.  0.
   -5000001    1    1    2    0    0  0.30278795032E+02  0.27437303620E+03 -0.54813643498E+03  0.64517588282E+03  0.19900000000E+03 0.  0.
<mgrwt>
<rscale>  0 0.68610391E+03</rscale>
<asrwt>0</asrwt>
<pdfrwt beam="1">  1        2 0.12304941E-01 0.68610391E+03</pdfrwt>
<pdfrwt beam="2">  1       -2 0.19518398E+00 0.68610391E+03</pdfrwt>
<totfact> 0.74739232E+01</totfact>
</mgrwt>
</event>
<event>
 4    1  0.4998754E-005  0.5737502E+03  0.7818608E-02  0.9961414E-01
         -2   -1    0    0    0  501 -0.00000000000E+00  0.00000000000E+00  0.45421785799E+02  0.45421785870E+02  0.25500000000E-02 0. -1.
          2   -1    0    0  501    0  0.00000000000E+00 -0.00000000000E+00 -0.18118471278E+04  0.18118471278E+04  0.25500000000E-02 0.  1.
    5000001    1    1    2    0    0  0.89997802218E+02 -0.16520377818E+03 -0.11598720278E+04  0.11917617269E+04  0.19900000000E+03 0.  0.
   -5000001    1    1    2    0    0 -0.89997802218E+02  0.16520377818E+03 -0.60655331415E+03  0.66550718677E+03  0.19900000000E+03 0.  0.
<mgrwt>
<rscale>  0 0.57375023E+03</rscale>
<asrwt>0</asrwt>
<pdfrwt beam="1">  1        2 0.25883526E+00 0.57375023E+03</pdfrwt>
<pdfrwt beam="2">  1       -2 0.64888277E-02 0.57375023E+03</pdfrwt>
<totfact> 0.14087462E+03</totfact>
</mgrwt>
</event>
<event>
 4    1  0.4998754E-005  0.4232436E+03  0.7818608E-02  0.1036016E+00
          2   -1    0    0  501    0  0.00000000000E+00  0.00000000000E+00  0.23157498407E+04  0.23157498407E+04  0.25500000000E-02 0. -1.
         -2   -1    0    0    0  501 -0.00000000000E+00 -0.00000000000E+00 -0.19338788300E+02  0.19338788468E+02  0.25500000000E-02 0.  1.
    5000001    1    1    2    0    0  0.37373171272E+02 -0.17100674920E+02  0.14743049842E+04  0.14882423773E+04  0.19900000000E+03 0.  0.
   -5000001    1    1    2    0    0 -0.37373171272E+02  0.17100674920E+02  0.82210606817E+03  0.84684625188E+03  0.19900000000E+03 0.  0.
<mgrwt>
<rscale>  0 0.42324365E+03</rscale>
<asrwt>0</asrwt>
<pdfrwt beam="1">  1        2 0.33082155E+00 0.42324365E+03</pdfrwt>
<pdfrwt beam="2">  1       -2 0.27626829E-02 0.42324365E+03</pdfrwt>
<totfact> 0.29429058E+03</totfact>
</mgrwt>
</event>
<event>
 4    1  0.4998754E-005  0.5358575E+03  0.7818608E-02  0.1004821E+00
         -2   -1    0    0    0  501 -0.00000000000E+00  0.00000000000E+00  0.42402256483E+02  0.42402256560E+02  0.25500000000E-02 0. -1.
          2   -1    0    0  501    0  0.00000000000E+00 -0.00000000000E+00 -0.16929713621E+04  0.16929713621E+04  0.25500000000E-02 0.  1.
    5000001    1    1    2    0    0 -0.13016921953E+03  0.12090925046E+03 -0.90603516274E+03  0.94449128566E+03  0.19900000000E+03 0.  0.
   -5000001    1    1    2    0    0  0.13016921953E+03 -0.12090925046E+03 -0.74453394286E+03  0.79088233299E+03  0.19900000000E+03 0.  0.
<mgrwt>
<rscale>  0 0.53585747E+03</rscale>
<asrwt>0</asrwt>
<pdfrwt beam="1">  1        2 0.24185301E+00 0.53585747E+03</pdfrwt>
<pdfrwt beam="2">  1       -2 0.60574663E-02 0.53585747E+03</pdfrwt>
<totfact> 0.18045323E+03</totfact>
</mgrwt>
</event>
<event>
 4    1  0.4998754E-005  0.1182442E+04  0.7818608E-02  0.9128365E-01
          2   -1    0    0  501    0  0.00000000000E+00  0.00000000000E+00  0.20012814541E+04  0.20012814541E+04  0.25500000000E-02 0.  1.
         -2   -1    0    0    0  501 -0.00000000000E+00 -0.00000000000E+00 -0.17465925862E+03  0.17465925863E+03  0.25500000000E-02 0. -1.
    5000001    1    1    2    0    0 -0.94072654436E+02  0.52851801616E+03  0.64185451223E+03  0.86009253722E+03  0.19900000000E+03 0.  0.
   -5000001    1    1    2    0    0  0.94072654436E+02 -0.52851801616E+03  0.11847676833E+04  0.13158481755E+04  0.19900000000E+03 0.  0.
<mgrwt>
<rscale>  0 0.11824421E+04</rscale>
<asrwt>0</asrwt>
<pdfrwt beam="1">  1        2 0.28589733E+00 0.11824421E+04</pdfrwt>
<pdfrwt beam="2">  1       -2 0.24951324E-01 0.11824421E+04</pdfrwt>
<totfact> 0.11399158E+02</totfact>
</mgrwt>
</event>
<event>
 4    1  0.4998754E-005  0.5009178E+03  0.7818608E-02  0.1013540E+00
          2   -1    0    0  501    0  0.00000000000E+00  0.00000000000E+00  0.11242430982E+03  0.11242430985E+03  0.25500000000E-02 0.  1.
         -2   -1    0    0    0  501 -0.00000000000E+00 -0.00000000000E+00 -0.55797242763E+03  0.55797242764E+03  0.25500000000E-02 0. -1.
    5000001    1    1    2    0    0 -0.19457685162E+02 -0.10219931963E+03 -0.74312977197E+02  0.23653059215E+03  0.19900000000E+03 0.  0.
   -5000001    1    1    2    0    0  0.19457685162E+02  0.10219931963E+03 -0.37123514061E+03  0.43386614534E+03  0.19900000000E+03 0.  0.
<mgrwt>
<rscale>  0 0.50091782E+03</rscale>
<asrwt>0</asrwt>
<pdfrwt beam="1">  1        2 0.16060616E-01 0.50091782E+03</pdfrwt>
<pdfrwt beam="2">  1       -2 0.79710345E-01 0.50091782E+03</pdfrwt>
<totfact> 0.51876334E+02</totfact>
</mgrwt>
</event>
<event>
 4    1  0.4998754E-005  0.6233112E+03  0.7818608E-02  0.9858189E-01
         -2   -1    0    0    0  501 -0.00000000000E+00  0.00000000000E+00  0.39208073553E+03  0.39208073554E+03  0.25500000000E-02 0. -1.
          2   -1    0    0  501    0  0.00000000000E+00 -0.00000000000E+00 -0.24772759808E+03  0.24772759809E+03  0.25500000000E-02 0.  1.
    5000001    1    1    2    0    0  0.21431148645E+03  0.10546708385E+03  0.94559664414E+02  0.32495422621E+03  0.19900000000E+03 0.  0.
   -5000001    1    1    2    0    0 -0.21431148645E+03 -0.10546708385E+03  0.49793473031E+02  0.31485410742E+03  0.19900000000E+03 0.  0.
<mgrwt>
<rscale>  0 0.62331122E+03</rscale>
<asrwt>0</asrwt>
<pdfrwt beam="1">  1        2 0.35389657E-01 0.62331122E+03</pdfrwt>
<pdfrwt beam="2">  1       -2 0.56011534E-01 0.62331122E+03</pdfrwt>
<totfact> 0.44593333E+02</totfact>
</mgrwt>
</event>
<event>
 4    1  0.4998754E-005  0.5976674E+03  0.7818608E-02  0.9910257E-01
         -2   -1    0    0    0  501 -0.00000000000E+00  0.00000000000E+00  0.25945207217E+03  0.25945207218E+03  0.25500000000E-02 0. -1.
          2   -1    0    0  501    0  0.00000000000E+00 -0.00000000000E+00 -0.34419295082E+03  0.34419295083E+03  0.25500000000E-02 0.  1.
    5000001    1    1    2    0    0  0.21657758955E+03 -0.49151132786E+02 -0.22710707160E+02  0.29906263954E+03  0.19900000000E+03 0.  0.
   -5000001    1    1    2    0    0 -0.21657758955E+03  0.49151132786E+02 -0.62030171493E+02  0.30458238348E+03  0.19900000000E+03 0.  0.
<mgrwt>
<rscale>  0 0.59766738E+03</rscale>
<asrwt>0</asrwt>
<pdfrwt beam="1">  1        2 0.49170421E-01 0.59766738E+03</pdfrwt>
<pdfrwt beam="2">  1       -2 0.37064582E-01 0.59766738E+03</pdfrwt>
<totfact> 0.70561726E+02</totfact>
</mgrwt>
</event>
<event>
 4    1  0.4998754E-005  0.1136093E+04  0.7818608E-02  0.9170710E-01
          2   -1    0    0  501    0  0.00000000000E+00  0.00000000000E+00  0.67985695529E+03  0.67985695530E+03  0.25500000000E-02 0.  1.
         -2   -1    0    0    0  501 -0.00000000000E+00 -0.00000000000E+00 -0.47462466548E+03  0.47462466549E+03  0.25500000000E-02 0. -1.
    5000001    1    1    2    0    0  0.18145491219E+03 -0.42136372830E+03 -0.17119378870E+03  0.52856559666E+03  0.19900000000E+03 0.  0.
   -5000001    1    1    2    0    0 -0.18145491219E+03  0.42136372830E+03  0.37642607851E+03  0.62591602413E+03  0.19900000000E+03 0.  0.
<mgrwt>
<rscale>  0 0.11360931E+04</rscale>
<asrwt>0</asrwt>
<pdfrwt beam="1">  1        2 0.97122423E-01 0.11360931E+04</pdfrwt>
<pdfrwt beam="2">  1       -2 0.67803523E-01 0.11360931E+04</pdfrwt>
<totfact> 0.92206136E+01</totfact>
</mgrwt>
</event>
<event>
 4    1  0.4998754E-005  0.5882929E+03  0.7818608E-02  0.9929997E-01
          2   -1    0    0  501    0  0.00000000000E+00  0.00000000000E+00  0.18508713243E+03  0.18508713244E+03  0.25500000000E-02 0.  1.
         -2   -1    0    0    0  501 -0.00000000000E+00 -0.00000000000E+00 -0.46746698153E+03  0.46746698153E+03  0.25500000000E-02 0. -1.
    5000001    1    1    2    0    0 -0.11889833176E+03 -0.11286146374E+03  0.15862018170E+02  0.25831594398E+03  0.19900000000E+03 0.  0.
   -5000001    1    1    2    0    0  0.11889833176E+03  0.11286146374E+03 -0.29824186727E+03  0.39423817000E+03  0.19900000000E+03 0.  0.
<mgrwt>
<rscale>  0 0.58829286E+03</rscale>
<asrwt>0</asrwt>
<pdfrwt beam="1">  1        2 0.26441019E-01 0.58829286E+03</pdfrwt>
<pdfrwt beam="2">  1       -2 0.66780997E-01 0.58829286E+03</pdfrwt>
<totfact> 0.42706930E+02</totfact>
</mgrwt>
</event>
<event>
 4    1  0.4998754E-005  0.7049641E+03  0.7818608E-02  0.9708780E-01
         -2   -1    0    0    0  501 -0.00000000000E+00  0.00000000000E+00  0.15490475193E+03  0.15490475195E+03  0.25500000000E-02 0. -1.
          2   -1    0    0  501    0  0.00000000000E+00 -0.00000000000E+00 -0.80206434304E+03  0.80206434305E+03  0.25500000000E-02 0.  1.
    5000001    1    1    2    0    0  0.27905877804E+03  0.81167959282E+02 -0.34181943821E+03  0.49081928197E+03  0.19900000000E+03 0.  0.
   -5000001    1    1    2    0    0 -0.27905877804E+03 -0.81167959282E+02 -0.30534015290E+03  0.46614981303E+03  0.19900000000E+03 0.  0.
<mgrwt>
<rscale>  0 0.70496405E+03</rscale>
<asrwt>0</asrwt>
<pdfrwt beam="1">  1        2 0.11458062E+00 0.70496405E+03</pdfrwt>
<pdfrwt beam="2">  1       -2 0.22129251E-01 0.70496405E+03</pdfrwt>
<totfact> 0.67829274E+02</totfact>
</mgrwt>
</event>
<event>
 4    1  0.4998754E-005  0.4808922E+03  0.7818608E-02  0.1018890E+00
         -2   -1    0    0    0  501 -0.00000000000E+00  0.00000000000E+00  0.13633373766E+03  0.13633373768E+03  0.25500000000E-02 0. -1.
          2   -1    0    0  501    0  0.00000000000E+00 -0.00000000000E+00 -0.42406471741E+03  0.42406471742E+03  0.25500000000E-02 0.  1.
    5000001    1    1    2    0    0 -0.28206676555E+02 -0.11663907863E+03 -0.21582441777E+03  0.31714581910E+03  0.19900000000E+03 0.  0.
   -5000001    1    1    2    0    0  0.28206676555E+02  0.11663907863E+03 -0.71906561980E+02  0.24325263600E+03  0.19900000000E+03 0.  0.
<mgrwt>
<rscale>  0 0.48089220E+03</rscale>
<asrwt>0</asrwt>
<pdfrwt beam="1">  1        2 0.60580673E-01 0.48089220E+03</pdfrwt>
<pdfrwt beam="2">  1       -2 0.19476248E-01 0.48089220E+03</pdfrwt>
<totfact> 0.18007793E+03</totfact>
</mgrwt>
</event>
<event>
 4    1  0.4998754E-005  0.7407291E+03  0.7818608E-02  0.9650008E-01
          2   -1    0    0  501    0  0.00000000000E+00  0.00000000000E+00  0.12190605930E+04  0.12190605930E+04  0.25500000000E-02 0.  1.
         -2   -1    0    0    0  501 -0.00000000000E+00 -0.00000000000E+00 -0.11252099097E+03  0.11252099100E+03  0.25500000000E-02 0. -1.
    5000001    1    1    2    0    0  0.23682211047E+02 -0.31006122441E+03  0.60629617698E+03  0.70985552349E+03  0.19900000000E+03 0.  0.
   -5000001    1    1    2    0    0 -0.23682211047E+02  0.31006122441E+03  0.50024342503E+03  0.62172606049E+03  0.19900000000E+03 0.  0.
<mgrwt>
<rscale>  0 0.74072912E+03</rscale>
<asrwt>0</asrwt>
<pdfrwt beam="1">  1        2 0.17415152E+00 0.74072912E+03</pdfrwt>
<pdfrwt beam="2">  1       -2 0.16074427E-01 0.74072912E+03</pdfrwt>
<totfact> 0.65293194E+02</totfact>
</mgrwt>
</event>
<event>
 4    1  0.4998754E-005  0.1124236E+04  0.7818608E-02  0.9181887E-01
         -2   -1    0    0    0  501 -0.00000000000E+00  0.00000000000E+00  0.59416347070E+03  0.59416347070E+03  0.25500000000E-02 0. -1.
          2   -1    0    0  501    0  0.00000000000E+00 -0.00000000000E+00 -0.53180059299E+03  0.53180059300E+03  0.25500000000E-02 0.  1.
    5000001    1    1    2    0    0  0.24817751747E+02 -0.52078831302E+03  0.98657845145E+02  0.56671929400E+03  0.19900000000E+03 0.  0.
   -5000001    1    1    2    0    0 -0.24817751747E+02  0.52078831302E+03 -0.36294967442E+02  0.55924476970E+03  0.19900000000E+03 0.  0.
<mgrwt>
<rscale>  0 0.11242357E+04</rscale>
<asrwt>0</asrwt>
<pdfrwt beam="1">  1        2 0.75971513E-01 0.11242357E+04</pdfrwt>
<pdfrwt beam="2">  1       -2 0.84880496E-01 0.11242357E+04</pdfrwt>
<totfact> 0.75022974E+01</totfact>
</mgrwt>
</event>
<event>
 4    1  0.4998754E-005  0.6419579E+03  0.7818608E-02  0.9821988E-01
         -2   -1    0    0    0  501 -0.00000000000E+00  0.00000000000E+00  0.21041016381E+03  0.21041016383E+03  0.25500000000E-02 0. -1.
          2   -1    0    0  501    0  0.00000000000E+00 -0.00000000000E+00 -0.48965071802E+03  0.48965071803E+03  0.25500000000E-02 0.  1.
    5000001    1    1    2    0    0  0.88276897165E+02  0.23190127656E+03 -0.18659420009E+03  0.36876741742E+03  0.19900000000E+03 0.  0.
   -5000001    1    1    2    0    0 -0.88276897165E+02 -0.23190127656E+03 -0.92646354121E+02  0.33129346443E+03  0.19900000000E+03 0.  0.
<mgrwt>
<rscale>  0 0.64195790E+03</rscale>
<asrwt>0</asrwt>
<pdfrwt beam="1">  1        2 0.69950102E-01 0.64195790E+03</pdfrwt>
<pdfrwt beam="2">  1       -2 0.30058595E-01 0.64195790E+03</pdfrwt>
<totfact> 0.70546695E+02</totfact>
</mgrwt>
</event>
<event>
 4    1  0.4998754E-005  0.1560320E+04  0.7818608E-02  0.8845303E-01
         -2   -1    0    0    0  501 -0.00000000000E+00  0.00000000000E+00  0.59420164999E+03  0.59420165000E+03  0.25500000000E-02 0.  1.
          2   -1    0    0  501    0  0.00000000000E+00 -0.00000000000E+00 -0.10243148575E+04  0.10243148575E+04  0.25500000000E-02 0. -1.
    5000001    1    1    2    0    0  0.16722821263E+02  0.69388894562E+03  0.91406644053E+02  0.72781707604E+03  0.19900000000E+03 0.  0.
   -5000001    1    1    2    0    0 -0.16722821263E+02 -0.69388894562E+03 -0.52151985154E+03  0.89069943143E+03  0.19900000000E+03 0.  0.
<mgrwt>
<rscale>  0 0.15603199E+04</rscale>
<asrwt>0</asrwt>
<pdfrwt beam="1">  1        2 0.14633069E+00 0.15603199E+04</pdfrwt>
<pdfrwt beam="2">  1       -2 0.84885950E-01 0.15603199E+04</pdfrwt>
<totfact> 0.31615246E+01</totfact>
</mgrwt>
</event>
<event>
 4    1  0.4998754E-005  0.5656794E+03  0.7818608E-02  0.9979285E-01
          2   -1    0    0  501    0  0.00000000000E+00  0.00000000000E+00  0.13571221069E+03  0.13571221071E+03  0.25500000000E-02 0.  1.
         -2   -1    0    0    0  501 -0.00000000000E+00 -0.00000000000E+00 -0.58947017559E+03  0.58947017560E+03  0.25500000000E-02 0. -1.
    5000001    1    1    2    0    0 -0.28420876544E+02  0.19861463122E+03 -0.24214369095E+03  0.37214256009E+03  0.19900000000E+03 0.  0.
   -5000001    1    1    2    0    0  0.28420876544E+02 -0.19861463122E+03 -0.21161427395E+03  0.35303982622E+03  0.19900000000E+03 0.  0.
<mgrwt>
<rscale>  0 0.56567942E+03</rscale>
<asrwt>0</asrwt>
<pdfrwt beam="1">  1        2 0.19387459E-01 0.56567942E+03</pdfrwt>
<pdfrwt beam="2">  1       -2 0.84210024E-01 0.56567942E+03</pdfrwt>
<totfact> 0.36654988E+02</totfact>
</mgrwt>
</event>
<event>
 4    1  0.4998754E-005  0.5094867E+03  0.7818608E-02  0.1011332E+00
         -2   -1    0    0    0  501 -0.00000000000E+00  0.00000000000E+00  0.61212987798E+02  0.61212987851E+02  0.25500000000E-02 0. -1.
          2   -1    0    0  501    0  0.00000000000E+00 -0.00000000000E+00 -0.10601372962E+04  0.10601372962E+04  0.25500000000E-02 0.  1.
    5000001    1    1    2    0    0 -0.14159651622E+03  0.21859908480E+02 -0.65140271953E+03  0.69602724947E+03  0.19900000000E+03 0.  0.
   -5000001    1    1    2    0    0  0.14159651622E+03 -0.21859908480E+02 -0.34752158884E+03  0.42532303455E+03  0.19900000000E+03 0.  0.
<mgrwt>
<rscale>  0 0.50948669E+03</rscale>
<asrwt>0</asrwt>
<pdfrwt beam="1">  1        2 0.15144817E+00 0.50948669E+03</pdfrwt>
<pdfrwt beam="2">  1       -2 0.87447132E-02 0.50948669E+03</pdfrwt>
<totfact> 0.22090449E+03</totfact>
</mgrwt>
</event>
<event>
 4    1  0.4998754E-005  0.1045907E+04  0.7818608E-02  0.9259580E-01
         -2   -1    0    0    0  501 -0.00000000000E+00  0.00000000000E+00  0.50340435140E+03  0.50340435141E+03  0.25500000000E-02 0. -1.
          2   -1    0    0  501    0  0.00000000000E+00 -0.00000000000E+00 -0.54326189380E+03  0.54326189380E+03  0.25500000000E-02 0.  1.
    5000001    1    1    2    0    0  0.38651559495E+03  0.15497988608E+03 -0.26600628332E+03  0.53270386989E+03  0.19900000000E+03 0.  0.
   -5000001    1    1    2    0    0 -0.38651559495E+03 -0.15497988608E+03  0.22614874092E+03  0.51396237532E+03  0.19900000000E+03 0.  0.
<mgrwt>
<rscale>  0 0.10459071E+04</rscale>
<asrwt>0</asrwt>
<pdfrwt beam="1">  1        2 0.77608842E-01 0.10459071E+04</pdfrwt>
<pdfrwt beam="2">  1       -2 0.71914907E-01 0.10459071E+04</pdfrwt>
<totfact> 0.10654024E+02</totfact>
</mgrwt>
</event>
<event>
 4    1  0.4998754E-005  0.6652607E+03  0.7818608E-02  0.9778558E-01
         -2   -1    0    0    0  501 -0.00000000000E+00  0.00000000000E+00  0.18884686996E+03  0.18884686998E+03  0.25500000000E-02 0. -1.
          2   -1    0    0  501    0  0.00000000000E+00 -0.00000000000E+00 -0.58588711208E+03  0.58588711208E+03  0.25500000000E-02 0.  1.
    5000001    1    1    2    0    0 -0.21973590122E+03 -0.10669478541E+03 -0.74319675650E+02  0.32371601398E+03  0.19900000000E+03 0.  0.
   -5000001    1    1    2    0    0  0.21973590122E+03  0.10669478541E+03 -0.32272056646E+03  0.45101796809E+03  0.19900000000E+03 0.  0.
<mgrwt>
<rscale>  0 0.66526069E+03</rscale>
<asrwt>0</asrwt>
<pdfrwt beam="1">  1        2 0.83698158E-01 0.66526069E+03</pdfrwt>
<pdfrwt beam="2">  1       -2 0.26978124E-01 0.66526069E+03</pdfrwt>
<totfact> 0.69898909E+02</totfact>
</mgrwt>
</event>
<event>
 4    1  0.4998754E-005  0.5205535E+03  0.7818608E-02  0.1008549E+00
         -2   -1    0    0    0  501 -0.00000000000E+00  0.00000000000E+00  0.44943040103E+02  0.44943040175E+02  0.25500000000E-02 0. -1.
          2   -1    0    0  501    0  0.00000000000E+00 -0.00000000000E+00 -0.15073299851E+04  0.15073299851E+04  0.25500000000E-02 0.  1.
    5000001    1    1    2    0    0 -0.81895009511E+02  0.14543829450E+03 -0.78143778415E+03  0.82347137205E+03  0.19900000000E+03 0.  0.
   -5000001    1    1    2    0    0  0.81895009511E+02 -0.14543829450E+03 -0.68094916085E+03  0.72880165323E+03  0.19900000000E+03 0.  0.
<mgrwt>
<rscale>  0 0.52055352E+03</rscale>
<asrwt>0</asrwt>
<pdfrwt beam="1">  1        2 0.21533282E+00 0.52055352E+03</pdfrwt>
<pdfrwt beam="2">  1       -2 0.64204352E-02 0.52055352E+03</pdfrwt>
<totfact> 0.20512545E+03</totfact>
</mgrwt>
</event>
<event>
 4    1  0.4998754E-005  0.7383244E+03  0.7818608E-02  0.9653848E-01
          2   -1    0    0  501    0  0.00000000000E+00  0.00000000000E+00  0.13320587397E+04  0.13320587397E+04  0.25500000000E-02 0.  1.
         -2   -1    0    0    0  501 -0.00000000000E+00 -0.00000000000E+00 -0.10230834221E+03  0.10230834224E+03  0.25500000000E-02 0. -1.
    5000001    1    1    2    0    0  0.15802055281E+03 -0.26048900369E+03  0.49425815204E+03  0.61377287086E+03  0.19900000000E+03 0.  0.
   -5000001    1    1    2    0    0 -0.15802055281E+03  0.26048900369E+03  0.73549224549E+03  0.82059421113E+03  0.19900000000E+03 0.  0.
<mgrwt>
<rscale>  0 0.73832438E+03</rscale>
<asrwt>0</asrwt>
<pdfrwt beam="1">  1        2 0.19029410E+00 0.73832438E+03</pdfrwt>
<pdfrwt beam="2">  1       -2 0.14615478E-01 0.73832438E+03</pdfrwt>
<totfact> 0.66461651E+02</totfact>
</mgrwt>
</event>
<event>
 4    1  0.4998754E-005  0.7149667E+03  0.7818608E-02  0.9691974E-01
         -2   -1    0    0    0  501 -0.00000000000E+00  0.00000000000E+00  0.40087066758E+02  0.40087066839E+02  0.25500000000E-02 0. -1.
          2   -1    0    0  501    0  0.00000000000E+00 -0.00000000000E+00 -0.31879198762E+04  0.31879198762E+04  0.25500000000E-02 0.  1.
    5000001    1    1    2    0    0  0.23168521960E+03  0.15470807598E+03 -0.11095012469E+04  0.11611230110E+04  0.19900000000E+03 0.  0.
   -5000001    1    1    2    0    0 -0.23168521960E+03 -0.15470807598E+03 -0.20383315625E+04  0.20668839320E+04  0.19900000000E+03 0.  0.
<mgrwt>
<rscale>  0 0.71496673E+03</rscale>
<asrwt>0</asrwt>
<pdfrwt beam="1">  1        2 0.45541696E+00 0.71496673E+03</pdfrwt>
<pdfrwt beam="2">  1       -2 0.57267259E-02 0.71496673E+03</pdfrwt>
<totfact> 0.32581096E+02</totfact>
</mgrwt>
</event>
<event>
 4    1  0.4998754E-005  0.6108315E+03  0.7818608E-02  0.9883185E-01
         -2   -1    0    0    0  501 -0.00000000000E+00  0.00000000000E+00  0.20877561640E+03  0.20877561642E+03  0.25500000000E-02 0. -1.
          2   -1    0    0  501    0  0.00000000000E+00 -0.00000000000E+00 -0.44678969556E+03  0.44678969557E+03  0.25500000000E-02 0.  1.
    5000001    1    1    2    0    0 -0.45403237099E+02 -0.21974361265E+03 -0.18093074580E+03  0.35026510533E+03  0.19900000000E+03 0.  0.
   -5000001    1    1    2    0    0  0.45403237099E+02  0.21974361265E+03 -0.57083333360E+02  0.30530020666E+03  0.19900000000E+03 0.  0.
<mgrwt>
<rscale>  0 0.61083155E+03</rscale>
<asrwt>0</asrwt>
<pdfrwt beam="1">  1        2 0.63827099E-01 0.61083155E+03</pdfrwt>
<pdfrwt beam="2">  1       -2 0.29825088E-01 0.61083155E+03</pdfrwt>
<totfact> 0.79413898E+02</totfact>
</mgrwt>
</event>
<event>
 4    1  0.4998754E-005  0.7173377E+03  0.7818608E-02  0.9688033E-01
         -2   -1    0    0    0  501 -0.00000000000E+00  0.00000000000E+00  0.14931142635E+03  0.14931142637E+03  0.25500000000E-02 0. -1.
          2   -1    0    0  501    0  0.00000000000E+00 -0.00000000000E+00 -0.86157743428E+03  0.86157743428E+03  0.25500000000E-02 0.  1.
    5000001    1    1    2    0    0 -0.22572707749E+03 -0.39958917403E+02 -0.86927407136E+02  0.31576384008E+03  0.19900000000E+03 0.  0.
   -5000001    1    1    2    0    0  0.22572707749E+03  0.39958917403E+02 -0.62533860079E+03  0.69512502058E+03  0.19900000000E+03 0.  0.
<mgrwt>
<rscale>  0 0.71733773E+03</rscale>
<asrwt>0</asrwt>
<pdfrwt beam="1">  1        2 0.12308249E+00 0.71733773E+03</pdfrwt>
<pdfrwt beam="2">  1       -2 0.21330204E-01 0.71733773E+03</pdfrwt>
<totfact> 0.65910182E+02</totfact>
</mgrwt>
</event>
<event>
 4    1  0.4998754E-005  0.7285018E+03  0.7818608E-02  0.9669695E-01
         -2   -1    0    0    0  501 -0.00000000000E+00  0.00000000000E+00  0.53684169071E+02  0.53684169132E+02  0.25500000000E-02 0. -1.
          2   -1    0    0  501    0  0.00000000000E+00 -0.00000000000E+00 -0.24714681918E+04  0.24714681918E+04  0.25500000000E-02 0.  1.
    5000001    1    1    2    0    0  0.21012588140E+03  0.21973288540E+03 -0.12967380807E+04  0.13466870746E+04  0.19900000000E+03 0.  0.
   -5000001    1    1    2    0    0 -0.21012588140E+03 -0.21973288540E+03 -0.11210459420E+04  0.11784652863E+04  0.19900000000E+03 0.  0.
<mgrwt>
<rscale>  0 0.72850180E+03</rscale>
<asrwt>0</asrwt>
<pdfrwt beam="1">  1        2 0.35306681E+00 0.72850180E+03</pdfrwt>
<pdfrwt beam="2">  1       -2 0.76691686E-02 0.72850180E+03</pdfrwt>
<totfact> 0.49649287E+02</totfact>
</mgrwt>
</event>
<event>
 4    1  0.4998754E-005  0.6505356E+03  0.7818608E-02  0.9805775E-01
         -2   -1    0    0    0  501 -0.00000000000E+00  0.00000000000E+00  0.11782464899E+03  0.11782464902E+03  0.25500000000E-02 0. -1.
          2   -1    0    0  501    0  0.00000000000E+00 -0.00000000000E+00 -0.89793730464E+03  0.89793730464E+03  0.25500000000E-02 0.  1.
    5000001    1    1    2    0    0  0.28711624343E+02  0.18425330046E+03 -0.66684934530E+03  0.72046005124E+03  0.19900000000E+03 0.  0.
   -5000001    1    1    2    0    0 -0.28711624343E+02 -0.18425330046E+03 -0.11326331035E+03  0.29530190242E+03  0.19900000000E+03 0.  0.
<mgrwt>
<rscale>  0 0.65053562E+03</rscale>
<asrwt>0</asrwt>
<pdfrwt beam="1">  1        2 0.12827675E+00 0.65053562E+03</pdfrwt>
<pdfrwt beam="2">  1       -2 0.16832093E-01 0.65053562E+03</pdfrwt>
<totfact> 0.94241346E+02</totfact>
</mgrwt>
</event>
<event>
 4    1  0.4998754E-005  0.7601699E+03  0.7818608E-02  0.9619529E-01
          2   -1    0    0  501    0  0.00000000000E+00  0.00000000000E+00  0.14140693433E+04  0.14140693433E+04  0.25500000000E-02 0.  1.
         -2   -1    0    0    0  501 -0.00000000000E+00 -0.00000000000E+00 -0.10216228474E+03  0.10216228477E+03  0.25500000000E-02 0. -1.
    5000001    1    1    2    0    0  0.13600458923E+03 -0.28649771770E+03  0.52538191258E+03  0.64513978687E+03  0.19900000000E+03 0.  0.
   -5000001    1    1    2    0    0 -0.13600458923E+03  0.28649771770E+03  0.78652514598E+03  0.87109184119E+03  0.19900000000E+03 0.  0.
<mgrwt>
<rscale>  0 0.76016986E+03</rscale>
<asrwt>0</asrwt>
<pdfrwt beam="1">  1        2 0.20200992E+00 0.76016986E+03</pdfrwt>
<pdfrwt beam="2">  1       -2 0.14594611E-01 0.76016986E+03</pdfrwt>
<totfact> 0.60122051E+02</totfact>
</mgrwt>
</event>
<event>
 4    1  0.4998754E-005  0.5990757E+03  0.7818608E-02  0.9907326E-01
          2   -1    0    0  501    0  0.00000000000E+00  0.00000000000E+00  0.26715804556E+04  0.26715804556E+04  0.25500000000E-02 0.  1.
         -2   -1    0    0    0  501 -0.00000000000E+00 -0.00000000000E+00 -0.33584209410E+02  0.33584209506E+02  0.25500000000E-02 0. -1.
    5000001    1    1    2    0    0  0.14392664650E+03  0.14358798106E+03  0.17423435146E+04  0.17654161863E+04  0.19900000000E+03 0.  0.
   -5000001    1    1    2    0    0 -0.14392664650E+03 -0.14358798106E+03  0.89565273164E+03  0.93974847889E+03  0.19900000000E+03 0.  0.
<mgrwt>
<rscale>  0 0.59907568E+03</rscale>
<asrwt>0</asrwt>
<pdfrwt beam="1">  1        2 0.38165436E+00 0.59907568E+03</pdfrwt>
<pdfrwt beam="2">  1       -2 0.47977440E-02 0.59907568E+03</pdfrwt>
<totfact> 0.82540017E+02</totfact>
</mgrwt>
</event>
<event>
 4    1  0.4998754E-005  0.5512592E+03  0.7818608E-02  0.1001203E+00
         -2   -1    0    0    0  501 -0.00000000000E+00  0.00000000000E+00  0.52893985884E+03  0.52893985884E+03  0.25500000000E-02 0. -1.
          2   -1    0    0  501    0  0.00000000000E+00 -0.00000000000E+00 -0.14363006796E+03  0.14363006798E+03  0.25500000000E-02 0.  1.
    5000001    1    1    2    0    0  0.13351801639E+03  0.11236603496E+03  0.98801482997E+02  0.28251711374E+03  0.19900000000E+03 0.  0.
   -5000001    1    1    2    0    0 -0.13351801639E+03 -0.11236603496E+03  0.28650830788E+03  0.39005281309E+03  0.19900000000E+03 0.  0.
<mgrwt>
<rscale>  0 0.55125917E+03</rscale>
<asrwt>0</asrwt>
<pdfrwt beam="1">  1        2 0.20518581E-01 0.55125917E+03</pdfrwt>
<pdfrwt beam="2">  1       -2 0.75562839E-01 0.55125917E+03</pdfrwt>
<totfact> 0.43708866E+02</totfact>
</mgrwt>
</event>
<event>
 4    1  0.4998754E-005  0.5554814E+03  0.7818608E-02  0.1000233E+00
          2   -1    0    0  501    0  0.00000000000E+00  0.00000000000E+00  0.10358377351E+03  0.10358377354E+03  0.25500000000E-02 0.  1.
         -2   -1    0    0    0  501 -0.00000000000E+00 -0.00000000000E+00 -0.74471036962E+03  0.74471036963E+03  0.25500000000E-02 0. -1.
    5000001    1    1    2    0    0  0.69887010944E+02  0.11845560672E+03 -0.11216145407E+03  0.26664042612E+03  0.19900000000E+03 0.  0.
   -5000001    1    1    2    0    0 -0.69887010944E+02 -0.11845560672E+03 -0.52896514204E+03  0.58165371705E+03  0.19900000000E+03 0.  0.
<mgrwt>
<rscale>  0 0.55548145E+03</rscale>
<asrwt>0</asrwt>
<pdfrwt beam="1">  1        2 0.14797682E-01 0.55548145E+03</pdfrwt>
<pdfrwt beam="2">  1       -2 0.10638719E+00 0.55548145E+03</pdfrwt>
<totfact> 0.29388452E+02</totfact>
</mgrwt>
</event>
<event>
 4    1  0.4998754E-005  0.5105360E+03  0.7818608E-02  0.1011065E+00
          2   -1    0    0  501    0  0.00000000000E+00  0.00000000000E+00  0.72642081184E+03  0.72642081184E+03  0.25500000000E-02 0.  1.
         -2   -1    0    0    0  501 -0.00000000000E+00 -0.00000000000E+00 -0.89702501760E+02  0.89702501796E+02  0.25500000000E-02 0. -1.
    5000001    1    1    2    0    0 -0.13337916424E+02 -0.14155648572E+03  0.43522510985E+03  0.49923745343E+03  0.19900000000E+03 0.  0.
   -5000001    1    1    2    0    0  0.13337916424E+02  0.14155648572E+03  0.20149320023E+03  0.31688586021E+03  0.19900000000E+03 0.  0.
<mgrwt>
<rscale>  0 0.51053605E+03</rscale>
<asrwt>0</asrwt>
<pdfrwt beam="1">  1        2 0.10377441E+00 0.51053605E+03</pdfrwt>
<pdfrwt beam="2">  1       -2 0.12814642E-01 0.51053605E+03</pdfrwt>
<totfact> 0.19580391E+03</totfact>
</mgrwt>
</event>
<event>
 4    1  0.4998754E-005  0.4787522E+03  0.7818608E-02  0.1019479E+00
          2   -1    0    0  501    0  0.00000000000E+00  0.00000000000E+00  0.23794052794E+04  0.23794052794E+04  0.25500000000E-02 0.  1.
         -2   -1    0    0    0  501 -0.00000000000E+00 -0.00000000000E+00 -0.24082032379E+02  0.24082032514E+02  0.25500000000E-02 0. -1.
    5000001    1    1    2    0    0  0.11973712845E+03  0.55493058024E+02  0.12621843848E+04  0.12845726451E+04  0.19900000000E+03 0.  0.
   -5000001    1    1    2    0    0 -0.11973712845E+03 -0.55493058024E+02  0.10931388623E+04  0.11189146668E+04  0.19900000000E+03 0.  0.
<mgrwt>
<rscale>  0 0.47875219E+03</rscale>
<asrwt>0</asrwt>
<pdfrwt beam="1">  1        2 0.33991498E+00 0.47875219E+03</pdfrwt>
<pdfrwt beam="2">  1       -2 0.34402909E-02 0.47875219E+03</pdfrwt>
<totfact> 0.19571619E+03</totfact>
</mgrwt>
</event>
<event>
 4    1  0.4998754E-005  0.6028662E+03  0.7818608E-02  0.9899477E-01
         -2   -1    0    0    0  501 -0.00000000000E+00  0.00000000000E+00  0.13062288977E+03  0.13062288980E+03  0.25500000000E-02 0.  1.
          2   -1    0    0  501    0  0.00000000000E+00 -0.00000000000E+00 -0.69560480544E+03  0.69560480544E+03  0.25500000000E-02 0. -1.
    5000001    1    1    2    0    0 -0.16374610104E+03 -0.11749782237E+03 -0.42387432645E+03  0.50979306439E+03  0.19900000000E+03 0.  0.
   -5000001    1    1    2    0    0  0.16374610104E+03  0.11749782237E+03 -0.14110758921E+03  0.31643463085E+03  0.19900000000E+03 0.  0.
<mgrwt>
<rscale>  0 0.60286619E+03</rscale>
<asrwt>0</asrwt>
<pdfrwt beam="1">  1        2 0.99372113E-01 0.60286619E+03</pdfrwt>
<pdfrwt beam="2">  1       -2 0.18660413E-01 0.60286619E+03</pdfrwt>
<totfact> 0.10947545E+03</totfact>
</mgrwt>
</event>
<event>
 4    1  0.4998754E-005  0.8089752E+03  0.7818608E-02  0.9547116E-01
          2   -1    0    0  501    0  0.00000000000E+00  0.00000000000E+00  0.88123177267E+03  0.88123177268E+03  0.25500000000E-02 0.  1.
         -2   -1    0    0    0  501 -0.00000000000E+00 -0.00000000000E+00 -0.18566081336E+03  0.18566081338E+03  0.25500000000E-02 0. -1.
    5000001    1    1    2    0    0 -0.26671751944E+03  0.11908499337E+03  0.60719349531E+03  0.70256986241E+03  0.19900000000E+03 0.  0.
   -5000001    1    1    2    0    0  0.26671751944E+03 -0.11908499337E+03  0.88377464009E+02  0.36432272365E+03  0.19900000000E+03 0.  0.
<mgrwt>
<rscale>  0 0.80897517E+03</rscale>
<asrwt>0</asrwt>
<pdfrwt beam="1">  1        2 0.12589025E+00 0.80897517E+03</pdfrwt>
<pdfrwt beam="2">  1       -2 0.26522973E-01 0.80897517E+03</pdfrwt>
<totfact> 0.43159074E+02</totfact>
</mgrwt>
</event>
<event>
 4    1  0.4998754E-005  0.8120805E+03  0.7818608E-02  0.9542694E-01
         -2   -1    0    0    0  501 -0.00000000000E+00  0.00000000000E+00  0.74133286071E+02  0.74133286115E+02  0.25500000000E-02 0. -1.
          2   -1    0    0  501    0  0.00000000000E+00 -0.00000000000E+00 -0.22239492343E+04  0.22239492343E+04  0.25500000000E-02 0.  1.
    5000001    1    1    2    0    0  0.21936277710E+03 -0.23998764209E+03 -0.67919564923E+03  0.77885931095E+03  0.19900000000E+03 0.  0.
   -5000001    1    1    2    0    0 -0.21936277710E+03  0.23998764209E+03 -0.14706202990E+04  0.15192232095E+04  0.19900000000E+03 0.  0.
<mgrwt>
<rscale>  0 0.81208045E+03</rscale>
<asrwt>0</asrwt>
<pdfrwt beam="1">  1        2 0.31770699E+00 0.81208045E+03</pdfrwt>
<pdfrwt beam="2">  1       -2 0.10590471E-01 0.81208045E+03</pdfrwt>
<totfact> 0.39209315E+02</totfact>
</mgrwt>
</event>
<event>
 4    1  0.4998754E-005  0.7860775E+03  0.7818608E-02  0.9580391E-01
          2   -1    0    0  501    0  0.00000000000E+00  0.00000000000E+00  0.26504484667E+03  0.26504484669E+03  0.25500000000E-02 0.  1.
         -2   -1    0    0    0  501 -0.00000000000E+00 -0.00000000000E+00 -0.58284278920E+03  0.58284278920E+03  0.25500000000E-02 0. -1.
    5000001    1    1    2    0    0  0.94724896863E+02 -0.30035515361E+03 -0.29401856572E+03  0.47458818083E+03  0.19900000000E+03 0.  0.
   -5000001    1    1    2    0    0 -0.94724896863E+02  0.30035515361E+03 -0.23779376799E+02  0.37329945506E+03  0.19900000000E+03 0.  0.
<mgrwt>
<rscale>  0 0.78607755E+03</rscale>
<asrwt>0</asrwt>
<pdfrwt beam="1">  1        2 0.37863550E-01 0.78607755E+03</pdfrwt>
<pdfrwt beam="2">  1       -2 0.83263255E-01 0.78607755E+03</pdfrwt>
<totfact> 0.17427328E+02</totfact>
</mgrwt>
</event>
<event>
 4    1  0.4998754E-005  0.7602784E+03  0.7818608E-02  0.9619362E-01
         -2   -1    0    0    0  501 -0.00000000000E+00  0.00000000000E+00  0.72631253223E+02  0.72631253268E+02  0.25500000000E-02 0. -1.
          2   -1    0    0  501    0  0.00000000000E+00 -0.00000000000E+00 -0.19895818881E+04  0.19895818881E+04  0.25500000000E-02 0.  1.
    5000001    1    1    2    0    0  0.28607945596E+03  0.16758278050E+02 -0.54906209865E+03  0.65053246128E+03  0.19900000000E+03 0.  0.
   -5000001    1    1    2    0    0 -0.28607945596E+03 -0.16758278050E+02 -0.13678885363E+04  0.14116806801E+04  0.19900000000E+03 0.  0.
<mgrwt>
<rscale>  0 0.76027844E+03</rscale>
<asrwt>0</asrwt>
<pdfrwt beam="1">  1        2 0.28422595E+00 0.76027844E+03</pdfrwt>
<pdfrwt beam="2">  1       -2 0.10375895E-01 0.76027844E+03</pdfrwt>
<totfact> 0.53494441E+02</totfact>
</mgrwt>
</event>
<event>
 4    1  0.4998754E-005  0.4231355E+03  0.7818608E-02  0.1036051E+00
          2   -1    0    0  501    0  0.00000000000E+00  0.00000000000E+00  0.34595160820E+03  0.34595160821E+03  0.25500000000E-02 0.  1.
         -2   -1    0    0    0  501 -0.00000000000E+00 -0.00000000000E+00 -0.12938491406E+03  0.12938491409E+03  0.25500000000E-02 0. -1.
    5000001    1    1    2    0    0  0.50906296161E+02  0.27139526050E+02  0.15636443220E+03  0.25957434488E+03  0.19900000000E+03 0.  0.
   -5000001    1    1    2    0    0 -0.50906296161E+02 -0.27139526050E+02  0.60202261939E+02  0.21576217742E+03  0.19900000000E+03 0.  0.
<mgrwt>
<rscale>  0 0.42313553E+03</rscale>
<asrwt>0</asrwt>
<pdfrwt beam="1">  1        2 0.49421658E-01 0.42313553E+03</pdfrwt>
<pdfrwt beam="2">  1       -2 0.18483559E-01 0.42313553E+03</pdfrwt>
<totfact> 0.24615102E+03</totfact>
</mgrwt>
</event>
<event>
 4    1  0.4998754E-005  0.6516780E+03  0.7818608E-02  0.9803636E-01
          2   -1    0    0  501    0  0.00000000000E+00  0.00000000000E+00  0.98407327780E+03  0.98407327780E+03  0.25500000000E-02 0.  1.
         -2   -1    0    0    0  501 -0.00000000000E+00 -0.00000000000E+00 -0.10788936386E+03  0.10788936389E+03  0.25500000000E-02 0. -1.
    5000001    1    1    2    0    0 -0.10556430052E+03 -0.22208776559E+03  0.56899660651E+03  0.65101838330E+03  0.19900000000E+03 0.  0.
   -5000001    1    1    2    0    0  0.10556430052E+03  0.22208776559E+03  0.30718730742E+03  0.44094425839E+03  0.19900000000E+03 0.  0.
<mgrwt>
<rscale>  0 0.65167796E+03</rscale>
<asrwt>0</asrwt>
<pdfrwt beam="1">  1        2 0.14058189E+00 0.65167796E+03</pdfrwt>
<pdfrwt beam="2">  1       -2 0.15412766E-01 0.65167796E+03</pdfrwt>
<totfact> 0.96567706E+02</totfact>
</mgrwt>
</event>
<event>
 4    1  0.4998754E-005  0.4533774E+03  0.7818608E-02  0.1026720E+00
          2   -1    0    0  501    0  0.00000000000E+00  0.00000000000E+00  0.19410328623E+03  0.19410328624E+03  0.25500000000E-02 0.  1.
         -2   -1    0    0    0  501 -0.00000000000E+00 -0.00000000000E+00 -0.26474441350E+03  0.26474441351E+03  0.25500000000E-02 0. -1.
    5000001    1    1    2    0    0  0.10461244220E+03 -0.18319906469E+02 -0.12523715423E+02  0.22591419938E+03  0.19900000000E+03 0.  0.
   -5000001    1    1    2    0    0 -0.10461244220E+03  0.18319906469E+02 -0.58117411851E+02  0.23293350037E+03  0.19900000000E+03 0.  0.
<mgrwt>
<rscale>  0 0.45337737E+03</rscale>
<asrwt>0</asrwt>
<pdfrwt beam="1">  1        2 0.27729041E-01 0.45337737E+03</pdfrwt>
<pdfrwt beam="2">  1       -2 0.37820630E-01 0.45337737E+03</pdfrwt>
<totfact> 0.12807124E+03</totfact>
</mgrwt>
</event>
<event>
 4    1  0.4998754E-005  0.5919829E+03  0.7818608E-02  0.9922180E-01
          2   -1    0    0  501    0  0.00000000000E+00  0.00000000000E+00  0.77110813514E+03  0.77110813514E+03  0.25500000000E-02 0.  1.
         -2   -1    0    0    0  501 -0.00000000000E+00 -0.00000000000E+00 -0.11361693430E+03  0.11361693432E+03  0.25500000000E-02 0. -1.
    5000001    1    1    2    0    0  0.19769075026E+03 -0.54153575799E+02  0.21302275514E+03  0.35636208653E+03  0.19900000000E+03 0.  0.
   -5000001    1    1    2    0    0 -0.19769075026E+03  0.54153575799E+02  0.44446844571E+03  0.52836298294E+03  0.19900000000E+03 0.  0.
<mgrwt>
<rscale>  0 0.59198291E+03</rscale>
<asrwt>0</asrwt>
<pdfrwt beam="1">  1        2 0.11015831E+00 0.59198291E+03</pdfrwt>
<pdfrwt beam="2">  1       -2 0.16230990E-01 0.59198291E+03</pdfrwt>
<totfact> 0.12232891E+03</totfact>
</mgrwt>
</event>
<event>
 4    1  0.4998754E-005  0.6507410E+03  0.7818608E-02  0.9805390E-01
         -2   -1    0    0    0  501 -0.00000000000E+00  0.00000000000E+00  0.60490847402E+02  0.60490847456E+02  0.25500000000E-02 0. -1.
          2   -1    0    0  501    0  0.00000000000E+00 -0.00000000000E+00 -0.17501155054E+04  0.17501155054E+04  0.25500000000E-02 0.  1.
    5000001    1    1    2    0    0 -0.60242243617E+02 -0.24401457026E+03 -0.69007789521E+03  0.76090783927E+03  0.19900000000E+03 0.  0.
   -5000001    1    1    2    0    0  0.60242243617E+02  0.24401457026E+03 -0.99954676280E+03  0.10496985136E+04  0.19900000000E+03 0.  0.
<mgrwt>
<rscale>  0 0.65074102E+03</rscale>
<asrwt>0</asrwt>
<pdfrwt beam="1">  1        2 0.25001647E+00 0.65074102E+03</pdfrwt>
<pdfrwt beam="2">  1       -2 0.86415507E-02 0.65074102E+03</pdfrwt>
<totfact> 0.95702095E+02</totfact>
</mgrwt>
</event>
<event>
 4    1  0.4998754E-005  0.9384122E+03  0.7818608E-02  0.9378798E-01
         -2   -1    0    0    0  501 -0.00000000000E+00  0.00000000000E+00  0.84706122936E+02  0.84706122974E+02  0.25500000000E-02 0. -1.
          2   -1    0    0  501    0  0.00000000000E+00 -0.00000000000E+00 -0.25990371710E+04  0.25990371710E+04  0.25500000000E-02 0.  1.
    5000001    1    1    2    0    0 -0.42148058868E+03  0.10216229740E+02 -0.11057512044E+04  0.12000154100E+04  0.19900000000E+03 0.  0.
   -5000001    1    1    2    0    0  0.42148058868E+03 -0.10216229740E+02 -0.14085798436E+04  0.14837278840E+04  0.19900000000E+03 0.  0.
<mgrwt>
<rscale>  0 0.93841220E+03</rscale>
<asrwt>0</asrwt>
<pdfrwt beam="1">  1        2 0.37129098E+00 0.93841220E+03</pdfrwt>
<pdfrwt beam="2">  1       -2 0.12100876E-01 0.93841220E+03</pdfrwt>
<totfact> 0.19958284E+02</totfact>
</mgrwt>
</event>
<event>
 4    1  0.4998754E-005  0.7053932E+03  0.7818608E-02  0.9708053E-01
          2   -1    0    0  501    0  0.00000000000E+00  0.00000000000E+00  0.62468033424E+03  0.62468033424E+03  0.25500000000E-02 0.  1.
         -2   -1    0    0    0  501 -0.00000000000E+00 -0.00000000000E+00 -0.19913366261E+03  0.19913366263E+03  0.25500000000E-02 0. -1.
    5000001    1    1    2    0    0 -0.16178586835E+03 -0.20523638736E+03  0.36277758890E+03  0.48939270622E+03  0.19900000000E+03 0.  0.
   -5000001    1    1    2    0    0  0.16178586835E+03  0.20523638736E+03  0.62769082725E+02  0.33442129065E+03  0.19900000000E+03 0.  0.
<mgrwt>
<rscale>  0 0.70539318E+03</rscale>
<asrwt>0</asrwt>
<pdfrwt beam="1">  1        2 0.89240048E-01 0.70539318E+03</pdfrwt>
<pdfrwt beam="2">  1       -2 0.28447666E-01 0.70539318E+03</pdfrwt>
<totfact> 0.58745532E+02</totfact>
</mgrwt>
</event>
<event>
 4    1  0.4998754E-005  0.5809085E+03  0.7818608E-02  0.9945826E-01
          2   -1    0    0  501    0  0.00000000000E+00  0.00000000000E+00  0.39071210276E+04  0.39071210276E+04  0.25500000000E-02 0.  1.
         -2   -1    0    0    0  501 -0.00000000000E+00 -0.00000000000E+00 -0.21592281752E+02  0.21592281903E+02  0.25500000000E-02 0. -1.
    5000001    1    1    2    0    0 -0.18053215394E+03  0.97005115917E+02  0.15874108027E+04  0.16129091443E+04  0.19900000000E+03 0.  0.
   -5000001    1    1    2    0    0  0.18053215394E+03 -0.97005115917E+02  0.22981179431E+04  0.23158041652E+04  0.19900000000E+03 0.  0.
<mgrwt>
<rscale>  0 0.58090846E+03</rscale>
<asrwt>0</asrwt>
<pdfrwt beam="1">  1        2 0.55815956E+00 0.58090846E+03</pdfrwt>
<pdfrwt beam="2">  1       -2 0.30846149E-02 0.58090846E+03</pdfrwt>
<totfact> 0.31685221E+02</totfact>
</mgrwt>
</event>
<event>
 4    1  0.4998754E-005  0.4419713E+03  0.7818608E-02  0.1030144E+00
          2   -1    0    0  501    0  0.00000000000E+00  0.00000000000E+00  0.14522557956E+04  0.14522557956E+04  0.25500000000E-02 0.  1.
         -2   -1    0    0    0  501 -0.00000000000E+00 -0.00000000000E+00 -0.33626758974E+02  0.33626759070E+02  0.25500000000E-02 0. -1.
    5000001    1    1    2    0    0  0.12095712967E+02 -0.95189522105E+02  0.69207188023E+03  0.72647906976E+03  0.19900000000E+03 0.  0.
   -5000001    1    1    2    0    0 -0.12095712967E+02  0.95189522105E+02  0.72655715640E+03  0.75940348492E+03  0.19900000000E+03 0.  0.
<mgrwt>
<rscale>  0 0.44197129E+03</rscale>
<asrwt>0</asrwt>
<pdfrwt beam="1">  1        2 0.20746510E+00 0.44197129E+03</pdfrwt>
<pdfrwt beam="2">  1       -2 0.48038231E-02 0.44197129E+03</pdfrwt>
<totfact> 0.34398528E+03</totfact>
</mgrwt>
</event>
<event>
 4    1  0.4998754E-005  0.9379263E+03  0.7818608E-02  0.9379375E-01
         -2   -1    0    0    0  501 -0.00000000000E+00  0.00000000000E+00  0.15023200809E+03  0.15023200811E+03  0.25500000000E-02 0. -1.
          2   -1    0    0  501    0  0.00000000000E+00 -0.00000000000E+00 -0.14639120056E+04  0.14639120056E+04  0.25500000000E-02 0.  1.
    5000001    1    1    2    0    0  0.33994256343E+03 -0.25380176319E+03 -0.68899770739E+03  0.83324373518E+03  0.19900000000E+03 0.  0.
   -5000001    1    1    2    0    0 -0.33994256343E+03  0.25380176319E+03 -0.62468229015E+03  0.78090027857E+03  0.19900000000E+03 0.  0.
<mgrwt>
<rscale>  0 0.93792631E+03</rscale>
<asrwt>0</asrwt>
<pdfrwt beam="1">  1        2 0.20913028E+00 0.93792631E+03</pdfrwt>
<pdfrwt beam="2">  1       -2 0.21461716E-01 0.93792631E+03</pdfrwt>
<totfact> 0.28796464E+02</totfact>
</mgrwt>
</event>
<event>
 4    1  0.4998754E-005  0.7110816E+03  0.7818608E-02  0.9698467E-01
         -2   -1    0    0    0  501 -0.00000000000E+00  0.00000000000E+00  0.11024555082E+03  0.11024555085E+03  0.25500000000E-02 0.  1.
          2   -1    0    0  501    0  0.00000000000E+00 -0.00000000000E+00 -0.11466155870E+04  0.11466155870E+04  0.25500000000E-02 0. -1.
    5000001    1    1    2    0    0 -0.21537199928E+03  0.20046725145E+03 -0.54534127211E+03  0.65082280234E+03  0.19900000000E+03 0.  0.
   -5000001    1    1    2    0    0  0.21537199928E+03 -0.20046725145E+03 -0.49102876409E+03  0.60603833554E+03  0.19900000000E+03 0.  0.
<mgrwt>
<rscale>  0 0.71108162E+03</rscale>
<asrwt>0</asrwt>
<pdfrwt beam="1">  1        2 0.16380222E+00 0.71108162E+03</pdfrwt>
<pdfrwt beam="2">  1       -2 0.15749365E-01 0.71108162E+03</pdfrwt>
<totfact> 0.74400024E+02</totfact>
</mgrwt>
</event>
<event>
 4    1  0.4998754E-005  0.4909472E+03  0.7818608E-02  0.1016169E+00
         -2   -1    0    0    0  501 -0.00000000000E+00  0.00000000000E+00  0.61474547216E+02  0.61474547269E+02  0.25500000000E-02 0. -1.
          2   -1    0    0  501    0  0.00000000000E+00 -0.00000000000E+00 -0.98019913122E+03  0.98019913122E+03  0.25500000000E-02 0.  1.
    5000001    1    1    2    0    0 -0.72614667735E+02  0.88226655551E+02 -0.27439779297E+03  0.35770376222E+03  0.19900000000E+03 0.  0.
   -5000001    1    1    2    0    0  0.72614667735E+02 -0.88226655551E+02 -0.64432679103E+03  0.68396991627E+03  0.19900000000E+03 0.  0.
<mgrwt>
<rscale>  0 0.49094724E+03</rscale>
<asrwt>0</asrwt>
<pdfrwt beam="1">  1        2 0.14002844E+00 0.49094724E+03</pdfrwt>
<pdfrwt beam="2">  1       -2 0.87820788E-02 0.49094724E+03</pdfrwt>
<totfact> 0.24500911E+03</totfact>
</mgrwt>
</event>
<event>
 4    1  0.4998754E-005  0.4835873E+03  0.7818608E-02  0.1018154E+00
          2   -1    0    0  501    0  0.00000000000E+00  0.00000000000E+00  0.48576830214E+03  0.48576830214E+03  0.25500000000E-02 0.  1.
         -2   -1    0    0    0  501 -0.00000000000E+00 -0.00000000000E+00 -0.12035401637E+03  0.12035401640E+03  0.25500000000E-02 0. -1.
    5000001    1    1    2    0    0  0.70260479832E+02  0.94214752642E+02  0.93635351726E+02  0.24936225403E+03  0.19900000000E+03 0.  0.
   -5000001    1    1    2    0    0 -0.70260479832E+02 -0.94214752642E+02  0.27177893404E+03  0.35676006451E+03  0.19900000000E+03 0.  0.
<mgrwt>
<rscale>  0 0.48358729E+03</rscale>
<asrwt>0</asrwt>
<pdfrwt beam="1">  1        2 0.69395471E-01 0.48358729E+03</pdfrwt>
<pdfrwt beam="2">  1       -2 0.17193431E-01 0.48358729E+03</pdfrwt>
<totfact> 0.19161186E+03</totfact>
</mgrwt>
</event>
<event>
 4    1  0.4998754E-005  0.6502532E+03  0.7818608E-02  0.9806304E-01
          2   -1    0    0  501    0  0.00000000000E+00  0.00000000000E+00  0.53168082428E+03  0.53168082429E+03  0.25500000000E-02 0.  1.
         -2   -1    0    0    0  501 -0.00000000000E+00 -0.00000000000E+00 -0.19881724632E+03  0.19881724634E+03  0.25500000000E-02 0. -1.
    5000001    1    1    2    0    0  0.18326662193E+03  0.12286169163E+03  0.31472415713E+03  0.43282091570E+03  0.19900000000E+03 0.  0.
   -5000001    1    1    2    0    0 -0.18326662193E+03 -0.12286169163E+03  0.18139420830E+02  0.29767715494E+03  0.19900000000E+03 0.  0.
<mgrwt>
<rscale>  0 0.65025324E+03</rscale>
<asrwt>0</asrwt>
<pdfrwt beam="1">  1        2 0.75954405E-01 0.65025324E+03</pdfrwt>
<pdfrwt beam="2">  1       -2 0.28402463E-01 0.65025324E+03</pdfrwt>
<totfact> 0.71255500E+02</totfact>
</mgrwt>
</event>
<event>
 4    1  0.4998754E-005  0.6602320E+03  0.7818608E-02  0.9787767E-01
          2   -1    0    0  501    0  0.00000000000E+00  0.00000000000E+00  0.30503157726E+04  0.30503157726E+04  0.25500000000E-02 0.  1.
         -2   -1    0    0    0  501 -0.00000000000E+00 -0.00000000000E+00 -0.35726319976E+02  0.35726320067E+02  0.25500000000E-02 0. -1.
    5000001    1    1    2    0    0  0.78383209839E+02  0.90852277045E+02  0.26032624793E+04  0.26136133225E+04  0.19900000000E+03 0.  0.
   -5000001    1    1    2    0    0 -0.78383209839E+02 -0.90852277045E+02  0.41132697335E+03  0.47242877012E+03  0.19900000000E+03 0.  0.
<mgrwt>
<rscale>  0 0.66023195E+03</rscale>
<asrwt>0</asrwt>
<pdfrwt beam="1">  1        2 0.43575947E+00 0.66023195E+03</pdfrwt>
<pdfrwt beam="2">  1       -2 0.51037591E-02 0.66023195E+03</pdfrwt>
<totfact> 0.46779674E+02</totfact>
</mgrwt>
</event>
<event>
 4    1  0.4998754E-005  0.6802200E+03  0.7818608E-02  0.9751670E-01
          2   -1    0    0  501    0  0.00000000000E+00  0.00000000000E+00  0.21687552132E+04  0.21687552132E+04  0.25500000000E-02 0.  1.
         -2   -1    0    0    0  501 -0.00000000000E+00 -0.00000000000E+00 -0.53336955352E+02  0.53336955413E+02  0.25500000000E-02 0. -1.
    5000001    1    1    2    0    0 -0.19792756199E+03  0.15999970148E+03  0.14049449698E+04  0.14416124973E+04  0.19900000000E+03 0.  0.
   -5000001    1    1    2    0    0  0.19792756199E+03 -0.15999970148E+03  0.71047328803E+03  0.78047967128E+03  0.19900000000E+03 0.  0.
<mgrwt>
<rscale>  0 0.68021996E+03</rscale>
<asrwt>0</asrwt>
<pdfrwt beam="1">  1        2 0.30982222E+00 0.68021996E+03</pdfrwt>
<pdfrwt beam="2">  1       -2 0.76195638E-02 0.68021996E+03</pdfrwt>
<totfact> 0.71808980E+02</totfact>
</mgrwt>
</event>
<event>
 4    1  0.4998754E-005  0.5988020E+03  0.7818608E-02  0.9907895E-01
          2   -1    0    0  501    0  0.00000000000E+00  0.00000000000E+00  0.11858855149E+04  0.11858855149E+04  0.25500000000E-02 0.  1.
         -2   -1    0    0    0  501 -0.00000000000E+00 -0.00000000000E+00 -0.75589883837E+02  0.75589883880E+02  0.25500000000E-02 0. -1.
    5000001    1    1    2    0    0  0.19386515772E+02 -0.21901532183E+03  0.64191584201E+03  0.70710713220E+03  0.19900000000E+03 0.  0.
   -5000001    1    1    2    0    0 -0.19386515772E+02  0.21901532183E+03  0.46837978903E+03  0.55436826655E+03  0.19900000000E+03 0.  0.
<mgrwt>
<rscale>  0 0.59880197E+03</rscale>
<asrwt>0</asrwt>
<pdfrwt beam="1">  1        2 0.16941222E+00 0.59880197E+03</pdfrwt>
<pdfrwt beam="2">  1       -2 0.10798555E-01 0.59880197E+03</pdfrwt>
<totfact> 0.13284539E+03</totfact>
</mgrwt>
</event>
<event>
 4    1  0.4998754E-005  0.4835300E+03  0.7818608E-02  0.1018170E+00
          2   -1    0    0  501    0  0.00000000000E+00  0.00000000000E+00  0.96647716764E+02  0.96647716798E+02  0.25500000000E-02 0.  1.
         -2   -1    0    0    0  501 -0.00000000000E+00 -0.00000000000E+00 -0.60477691234E+03  0.60477691235E+03  0.25500000000E-02 0. -1.
    5000001    1    1    2    0    0  0.13689301259E+03 -0.66145806758E+01 -0.24229226739E+03  0.34218414985E+03  0.19900000000E+03 0.  0.
   -5000001    1    1    2    0    0 -0.13689301259E+03  0.66145806758E+01 -0.26583692819E+03  0.35924047929E+03  0.19900000000E+03 0.  0.
<mgrwt>
<rscale>  0 0.48352997E+03</rscale>
<asrwt>0</asrwt>
<pdfrwt beam="1">  1        2 0.13806817E-01 0.48352997E+03</pdfrwt>
<pdfrwt beam="2">  1       -2 0.86396700E-01 0.48352997E+03</pdfrwt>
<totfact> 0.51954744E+02</totfact>
</mgrwt>
</event>
<event>
 4    1  0.4998754E-005  0.6497701E+03  0.7818608E-02  0.9807211E-01
         -2   -1    0    0    0  501 -0.00000000000E+00  0.00000000000E+00  0.26445518975E+02  0.26445519098E+02  0.25500000000E-02 0. -1.
          2   -1    0    0  501    0  0.00000000000E+00 -0.00000000000E+00 -0.39912360420E+04  0.39912360420E+04  0.25500000000E-02 0.  1.
    5000001    1    1    2    0    0 -0.19436131148E+03  0.64684996566E+02 -0.29400752028E+04  0.29539132801E+04  0.19900000000E+03 0.  0.
   -5000001    1    1    2    0    0  0.19436131148E+03 -0.64684996566E+02 -0.10247153203E+04  0.10637682811E+04  0.19900000000E+03 0.  0.
<mgrwt>
<rscale>  0 0.64977014E+03</rscale>
<asrwt>0</asrwt>
<pdfrwt beam="1">  1        2 0.57017619E+00 0.64977014E+03</pdfrwt>
<pdfrwt beam="2">  1       -2 0.37779338E-02 0.64977014E+03</pdfrwt>
<totfact> 0.20264525E+02</totfact>
</mgrwt>
</event>
<event>
 4    1  0.4998754E-005  0.6532008E+03  0.7818608E-02  0.9800792E-01
          2   -1    0    0  501    0  0.00000000000E+00  0.00000000000E+00  0.36380524498E+03  0.36380524499E+03  0.25500000000E-02 0.  1.
         -2   -1    0    0    0  501 -0.00000000000E+00 -0.00000000000E+00 -0.29320035726E+03  0.29320035728E+03  0.25500000000E-02 0. -1.
    5000001    1    1    2    0    0 -0.14397207626E+03 -0.20389299103E+03 -0.34139670768E+02  0.32104022747E+03  0.19900000000E+03 0.  0.
   -5000001    1    1    2    0    0  0.14397207626E+03  0.20389299103E+03  0.10474455849E+03  0.33596537480E+03  0.19900000000E+03 0.  0.
<mgrwt>
<rscale>  0 0.65320082E+03</rscale>
<asrwt>0</asrwt>
<pdfrwt beam="1">  1        2 0.51972178E-01 0.65320082E+03</pdfrwt>
<pdfrwt beam="2">  1       -2 0.41885765E-01 0.65320082E+03</pdfrwt>
<totfact> 0.52313723E+02</totfact>
</mgrwt>
</event>
<event>
 4    1  0.4998754E-005  0.5819383E+03  0.7818608E-02  0.9943603E-01
          2   -1    0    0  501    0  0.00000000000E+00  0.00000000000E+00  0.27794596900E+04  0.27794596900E+04  0.25500000000E-02 0.  1.
         -2   -1    0    0    0  501 -0.00000000000E+00 -0.00000000000E+00 -0.30460254804E+02  0.30460254910E+02  0.25500000000E-02 0. -1.
    5000001    1    1    2    0    0 -0.83538896552E+01  0.19777440757E+03  0.17446814994E+04  0.17671160228E+04  0.19900000000E+03 0.  0.
   -5000001    1    1    2    0    0  0.83538896552E+01 -0.19777440757E+03  0.10043179358E+04  0.10428039221E+04  0.19900000000E+03 0.  0.
<mgrwt>
<rscale>  0 0.58193831E+03</rscale>
<asrwt>0</asrwt>
<pdfrwt beam="1">  1        2 0.39706575E+00 0.58193831E+03</pdfrwt>
<pdfrwt beam="2">  1       -2 0.43514641E-02 0.58193831E+03</pdfrwt>
<totfact> 0.84370318E+02</totfact>
</mgrwt>
</event>
<event>
 4    1  0.4998754E-005  0.6679704E+03  0.7818608E-02  0.9773631E-01
         -2   -1    0    0    0  501 -0.00000000000E+00  0.00000000000E+00  0.24399994946E+03  0.24399994948E+03  0.25500000000E-02 0. -1.
          2   -1    0    0  501    0  0.00000000000E+00 -0.00000000000E+00 -0.45715632156E+03  0.45715632157E+03  0.25500000000E-02 0.  1.
    5000001    1    1    2    0    0 -0.21585367986E+03  0.12263595511E+03 -0.21317505144E+03  0.38298432233E+03  0.19900000000E+03 0.  0.
   -5000001    1    1    2    0    0  0.21585367986E+03 -0.12263595511E+03  0.18679348685E-01  0.31817194871E+03  0.19900000000E+03 0.  0.
<mgrwt>
<rscale>  0 0.66797042E+03</rscale>
<asrwt>0</asrwt>
<pdfrwt beam="1">  1        2 0.65308046E-01 0.66797042E+03</pdfrwt>
<pdfrwt beam="2">  1       -2 0.34857136E-01 0.66797042E+03</pdfrwt>
<totfact> 0.57744393E+02</totfact>
</mgrwt>
</event>
<event>
 4    1  0.4998754E-005  0.4805223E+03  0.7818608E-02  0.1018992E+00
         -2   -1    0    0    0  501 -0.00000000000E+00  0.00000000000E+00  0.54749108084E+02  0.54749108144E+02  0.25500000000E-02 0. -1.
          2   -1    0    0  501    0  0.00000000000E+00 -0.00000000000E+00 -0.10543627670E+04  0.10543627670E+04  0.25500000000E-02 0.  1.
    5000001    1    1    2    0    0 -0.98218040748E+02 -0.71979075933E+02 -0.63233195977E+03  0.67399738742E+03  0.19900000000E+03 0.  0.
   -5000001    1    1    2    0    0  0.98218040748E+02  0.71979075933E+02 -0.36728169913E+03  0.43511448771E+03  0.19900000000E+03 0.  0.
<mgrwt>
<rscale>  0 0.48052230E+03</rscale>
<asrwt>0</asrwt>
<pdfrwt beam="1">  1        2 0.15062324E+00 0.48052230E+03</pdfrwt>
<pdfrwt beam="2">  1       -2 0.78213018E-02 0.48052230E+03</pdfrwt>
<totfact> 0.26589952E+03</totfact>
</mgrwt>
</event>
<event>
 4    1  0.4998754E-005  0.5447240E+03  0.7818608E-02  0.1002723E+00
         -2   -1    0    0    0  501 -0.00000000000E+00  0.00000000000E+00  0.36438481416E+02  0.36438481505E+02  0.25500000000E-02 0. -1.
          2   -1    0    0  501    0  0.00000000000E+00 -0.00000000000E+00 -0.20357892946E+04  0.20357892946E+04  0.25500000000E-02 0.  1.
    5000001    1    1    2    0    0  0.31321860206E+01  0.18398549731E+03 -0.89762716719E+03  0.93765452331E+03  0.19900000000E+03 0.  0.
   -5000001    1    1    2    0    0 -0.31321860206E+01 -0.18398549731E+03 -0.11017236460E+04  0.11345732528E+04  0.19900000000E+03 0.  0.
<mgrwt>
<rscale>  0 0.54472404E+03</rscale>
<asrwt>0</asrwt>
<pdfrwt beam="1">  1        2 0.29082697E+00 0.54472404E+03</pdfrwt>
<pdfrwt beam="2">  1       -2 0.52054987E-02 0.54472404E+03</pdfrwt>
<totfact> 0.15362912E+03</totfact>
</mgrwt>
</event>
<event>
 4    1  0.4998754E-005  0.7869426E+03  0.7818608E-02  0.9579112E-01
          2   -1    0    0  501    0  0.00000000000E+00  0.00000000000E+00  0.12166692257E+04  0.12166692257E+04  0.25500000000E-02 0.  1.
         -2   -1    0    0    0  501 -0.00000000000E+00 -0.00000000000E+00 -0.12724876540E+03  0.12724876542E+03  0.25500000000E-02 0. -1.
    5000001    1    1    2    0    0 -0.72747263609E+02  0.20700960014E+03  0.10242211990E+03  0.31342691262E+03  0.19900000000E+03 0.  0.
   -5000001    1    1    2    0    0  0.72747263609E+02 -0.20700960014E+03  0.98699834036E+03  0.10304910785E+04  0.19900000000E+03 0.  0.
<mgrwt>
<rscale>  0 0.78694258E+03</rscale>
<asrwt>0</asrwt>
<pdfrwt beam="1">  1        2 0.17380990E+00 0.78694258E+03</pdfrwt>
<pdfrwt beam="2">  1       -2 0.18178394E-01 0.78694258E+03</pdfrwt>
<totfact> 0.52931298E+02</totfact>
</mgrwt>
</event>
<event>
 4    1  0.4998754E-005  0.5286309E+03  0.7818608E-02  0.1006565E+00
         -2   -1    0    0    0  501 -0.00000000000E+00  0.00000000000E+00  0.74914901015E+02  0.74914901058E+02  0.25500000000E-02 0. -1.
          2   -1    0    0  501    0  0.00000000000E+00 -0.00000000000E+00 -0.93256034676E+03  0.93256034677E+03  0.25500000000E-02 0.  1.
    5000001    1    1    2    0    0 -0.14596568411E+03  0.93919567335E+02 -0.40669550573E+03  0.48490112440E+03  0.19900000000E+03 0.  0.
   -5000001    1    1    2    0    0  0.14596568411E+03 -0.93919567335E+02 -0.45094994002E+03  0.52257412343E+03  0.19900000000E+03 0.  0.
<mgrwt>
<rscale>  0 0.52863093E+03</rscale>
<asrwt>0</asrwt>
<pdfrwt beam="1">  1        2 0.13322290E+00 0.52863093E+03</pdfrwt>
<pdfrwt beam="2">  1       -2 0.10702129E-01 0.52863093E+03</pdfrwt>
<totfact> 0.19069065E+03</totfact>
</mgrwt>
</event>
<event>
 4    1  0.4998754E-005  0.4591475E+03  0.7818608E-02  0.1025029E+00
          2   -1    0    0  501    0  0.00000000000E+00  0.00000000000E+00  0.81740159056E+03  0.81740159056E+03  0.25500000000E-02 0.  1.
         -2   -1    0    0    0  501 -0.00000000000E+00 -0.00000000000E+00 -0.64477615389E+02  0.64477615439E+02  0.25500000000E-02 0. -1.
    5000001    1    1    2    0    0 -0.71714617493E+02 -0.89036086557E+02  0.36547969315E+03  0.43156322500E+03  0.19900000000E+03 0.  0.
   -5000001    1    1    2    0    0  0.71714617493E+02  0.89036086557E+02  0.38744428202E+03  0.45031598100E+03  0.19900000000E+03 0.  0.
<mgrwt>
<rscale>  0 0.45914749E+03</rscale>
<asrwt>0</asrwt>
<pdfrwt beam="1">  1        2 0.11677166E+00 0.45914749E+03</pdfrwt>
<pdfrwt beam="2">  1       -2 0.92110877E-02 0.45914749E+03</pdfrwt>
<totfact> 0.28867929E+03</totfact>
</mgrwt>
</event>
<event>
 4    1  0.4998754E-005  0.5816243E+03  0.7818608E-02  0.9944281E-01
          2   -1    0    0  501    0  0.00000000000E+00  0.00000000000E+00  0.13103336215E+04  0.13103336215E+04  0.25500000000E-02 0.  1.
         -2   -1    0    0    0  501 -0.00000000000E+00 -0.00000000000E+00 -0.64542116842E+02  0.64542116893E+02  0.25500000000E-02 0. -1.
    5000001    1    1    2    0    0 -0.18244665262E+03  0.10496619316E+03  0.68390076397E+03  0.74271524673E+03  0.19900000000E+03 0.  0.
   -5000001    1    1    2    0    0  0.18244665262E+03 -0.10496619316E+03  0.56189074071E+03  0.63216049169E+03  0.19900000000E+03 0.  0.
<mgrwt>
<rscale>  0 0.58162430E+03</rscale>
<asrwt>0</asrwt>
<pdfrwt beam="1">  1        2 0.18719051E+00 0.58162430E+03</pdfrwt>
<pdfrwt beam="2">  1       -2 0.92203027E-02 0.58162430E+03</pdfrwt>
<totfact> 0.14656679E+03</totfact>
</mgrwt>
</event>
<event>
 4    1  0.4998754E-005  0.5655259E+03  0.7818608E-02  0.9979628E-01
         -2   -1    0    0    0  501 -0.00000000000E+00  0.00000000000E+00  0.23201693077E+02  0.23201693218E+02  0.25500000000E-02 0. -1.
          2   -1    0    0  501    0  0.00000000000E+00 -0.00000000000E+00 -0.34460795731E+04  0.34460795731E+04  0.25500000000E-02 0.  1.
    5000001    1    1    2    0    0  0.74808761785E+02 -0.17676885818E+03 -0.13479767919E+04  0.13760399745E+04  0.19900000000E+03 0.  0.
   -5000001    1    1    2    0    0 -0.74808761785E+02  0.17676885818E+03 -0.20749010881E+04  0.20932412918E+04  0.19900000000E+03 0.  0.
<mgrwt>
<rscale>  0 0.56552588E+03</rscale>
<asrwt>0</asrwt>
<pdfrwt beam="1">  1        2 0.49229676E+00 0.56552588E+03</pdfrwt>
<pdfrwt beam="2">  1       -2 0.33145298E-02 0.56552588E+03</pdfrwt>
<totfact> 0.54769598E+02</totfact>
</mgrwt>
</event>
<event>
 4    1  0.4998754E-005  0.7370867E+03  0.7818608E-02  0.9655830E-01
         -2   -1    0    0    0  501 -0.00000000000E+00  0.00000000000E+00  0.70818769829E+03  0.70818769829E+03  0.25500000000E-02 0. -1.
          2   -1    0    0  501    0  0.00000000000E+00 -0.00000000000E+00 -0.19179126811E+03  0.19179126812E+03  0.25500000000E-02 0.  1.
    5000001    1    1    2    0    0  0.18654095734E+03 -0.17944434769E+03  0.46693264762E+03  0.56975863320E+03  0.19900000000E+03 0.  0.
   -5000001    1    1    2    0    0 -0.18654095734E+03  0.17944434769E+03  0.49463782558E+02  0.33022033322E+03  0.19900000000E+03 0.  0.
<mgrwt>
<rscale>  0 0.73708674E+03</rscale>
<asrwt>0</asrwt>
<pdfrwt beam="1">  1        2 0.27398752E-01 0.73708674E+03</pdfrwt>
<pdfrwt beam="2">  1       -2 0.10116967E+00 0.73708674E+03</pdfrwt>
<totfact> 0.15997676E+02</totfact>
</mgrwt>
</event>
<event>
 4    1  0.4998754E-005  0.8335145E+03  0.7818608E-02  0.9512734E-01
         -2   -1    0    0    0  501 -0.00000000000E+00  0.00000000000E+00  0.11588996008E+03  0.11588996011E+03  0.25500000000E-02 0. -1.
          2   -1    0    0  501    0  0.00000000000E+00 -0.00000000000E+00 -0.14987198593E+04  0.14987198593E+04  0.25500000000E-02 0.  1.
    5000001    1    1    2    0    0  0.36359519013E+03  0.38961873015E+02 -0.65435103654E+03  0.77556158289E+03  0.19900000000E+03 0.  0.
   -5000001    1    1    2    0    0 -0.36359519013E+03 -0.38961873015E+02 -0.72847886273E+03  0.83904823656E+03  0.19900000000E+03 0.  0.
<mgrwt>
<rscale>  0 0.83351445E+03</rscale>
<asrwt>0</asrwt>
<pdfrwt beam="1">  1        2 0.21410283E+00 0.83351445E+03</pdfrwt>
<pdfrwt beam="2">  1       -2 0.16555709E-01 0.83351445E+03</pdfrwt>
<totfact> 0.43604338E+02</totfact>
</mgrwt>
</event>
<event>
 4    1  0.4998754E-005  0.5056832E+03  0.7818608E-02  0.1012306E+00
         -2   -1    0    0    0  501 -0.00000000000E+00  0.00000000000E+00  0.10480301102E+03  0.10480301105E+03  0.25500000000E-02 0. -1.
          2   -1    0    0  501    0  0.00000000000E+00 -0.00000000000E+00 -0.60999074688E+03  0.60999074688E+03  0.25500000000E-02 0.  1.
    5000001    1    1    2    0    0 -0.13818562422E+03  0.71195963917E+02 -0.27068113562E+03  0.37018023880E+03  0.19900000000E+03 0.  0.
   -5000001    1    1    2    0    0  0.13818562422E+03 -0.71195963917E+02 -0.23450660024E+03  0.34461351914E+03  0.19900000000E+03 0.  0.
<mgrwt>
<rscale>  0 0.50568317E+03</rscale>
<asrwt>0</asrwt>
<pdfrwt beam="1">  1        2 0.87141533E-01 0.50568317E+03</pdfrwt>
<pdfrwt beam="2">  1       -2 0.14971859E-01 0.50568317E+03</pdfrwt>
<totfact> 0.18641595E+03</totfact>
</mgrwt>
</event>
<event>
 4    1  0.4998754E-005  0.8290363E+03  0.7818608E-02  0.9518914E-01
          2   -1    0    0  501    0  0.00000000000E+00  0.00000000000E+00  0.13615580119E+04  0.13615580119E+04  0.25500000000E-02 0.  1.
         -2   -1    0    0    0  501 -0.00000000000E+00 -0.00000000000E+00 -0.12619756432E+03  0.12619756435E+03  0.25500000000E-02 0. -1.
    5000001    1    1    2    0    0  0.27071453728E+03  0.20774019081E+03  0.84312410923E+03  0.93107551313E+03  0.19900000000E+03 0.  0.
   -5000001    1    1    2    0    0 -0.27071453728E+03 -0.20774019081E+03  0.39223633836E+03  0.55668006314E+03  0.19900000000E+03 0.  0.
<mgrwt>
<rscale>  0 0.82903632E+03</rscale>
<asrwt>0</asrwt>
<pdfrwt beam="1">  1        2 0.19450828E+00 0.82903632E+03</pdfrwt>
<pdfrwt beam="2">  1       -2 0.18028224E-01 0.82903632E+03</pdfrwt>
<totfact> 0.44586903E+02</totfact>
</mgrwt>
</event>
<event>
 4    1  0.4998754E-005  0.7915095E+03  0.7818608E-02  0.9572389E-01
          2   -1    0    0  501    0  0.00000000000E+00  0.00000000000E+00  0.52900654874E+03  0.52900654875E+03  0.25500000000E-02 0.  1.
         -2   -1    0    0    0  501 -0.00000000000E+00 -0.00000000000E+00 -0.29606783855E+03  0.29606783856E+03  0.25500000000E-02 0. -1.
    5000001    1    1    2    0    0 -0.28754891348E+03 -0.51949803128E+02  0.30188193040E+03  0.46488370545E+03  0.19900000000E+03 0.  0.
   -5000001    1    1    2    0    0  0.28754891348E+03  0.51949803128E+02 -0.68943220211E+02  0.36019068186E+03  0.19900000000E+03 0.  0.
<mgrwt>
<rscale>  0 0.79150951E+03</rscale>
<asrwt>0</asrwt>
<pdfrwt beam="1">  1        2 0.75572363E-01 0.79150951E+03</pdfrwt>
<pdfrwt beam="2">  1       -2 0.42295406E-01 0.79150951E+03</pdfrwt>
<totfact> 0.33513028E+02</totfact>
</mgrwt>
</event>
<event>
 4    1  0.4998754E-005  0.5020507E+03  0.7818608E-02  0.1013245E+00
          2   -1    0    0  501    0  0.00000000000E+00  0.00000000000E+00  0.12237075480E+04  0.12237075480E+04  0.25500000000E-02 0.  1.
         -2   -1    0    0    0  501 -0.00000000000E+00 -0.00000000000E+00 -0.51494102417E+02  0.51494102480E+02  0.25500000000E-02 0. -1.
    5000001    1    1    2    0    0  0.81789298524E+02  0.18533579893E+02  0.26103080890E+03  0.33877878643E+03  0.19900000000E+03 0.  0.
   -5000001    1    1    2    0    0 -0.81789298524E+02 -0.18533579893E+02  0.91118263664E+03  0.93642286401E+03  0.19900000000E+03 0.  0.
<mgrwt>
<rscale>  0 0.50205068E+03</rscale>
<asrwt>0</asrwt>
<pdfrwt beam="1">  1        2 0.17481536E+00 0.50205068E+03</pdfrwt>
<pdfrwt beam="2">  1       -2 0.73563007E-02 0.50205068E+03</pdfrwt>
<totfact> 0.23462940E+03</totfact>
</mgrwt>
</event>
<event>
 4    1  0.4998754E-005  0.6134830E+03  0.7818608E-02  0.9877821E-01
          2   -1    0    0  501    0  0.00000000000E+00  0.00000000000E+00  0.11097486899E+04  0.11097486899E+04  0.25500000000E-02 0.  1.
         -2   -1    0    0    0  501 -0.00000000000E+00 -0.00000000000E+00 -0.84785276943E+02  0.84785276982E+02  0.25500000000E-02 0. -1.
    5000001    1    1    2    0    0 -0.15712439990E+03  0.16921338281E+03  0.57902997113E+03  0.65436836219E+03  0.19900000000E+03 0.  0.
   -5000001    1    1    2    0    0  0.15712439990E+03 -0.16921338281E+03  0.44593344185E+03  0.54016560472E+03  0.19900000000E+03 0.  0.
<mgrwt>
<rscale>  0 0.61348301E+03</rscale>
<asrwt>0</asrwt>
<pdfrwt beam="1">  1        2 0.15853552E+00 0.61348301E+03</pdfrwt>
<pdfrwt beam="2">  1       -2 0.12112183E-01 0.61348301E+03</pdfrwt>
<totfact> 0.12159901E+03</totfact>
</mgrwt>
</event>
<event>
 4    1  0.4998754E-005  0.9292707E+03  0.7818608E-02  0.9389714E-01
         -2   -1    0    0    0  501 -0.00000000000E+00  0.00000000000E+00  0.15234462684E+03  0.15234462686E+03  0.25500000000E-02 0. -1.
          2   -1    0    0  501    0  0.00000000000E+00 -0.00000000000E+00 -0.14170898325E+04  0.14170898325E+04  0.25500000000E-02 0.  1.
    5000001    1    1    2    0    0  0.16465236269E+03 -0.35615949928E+03 -0.88471892204E+03  0.98807315543E+03  0.19900000000E+03 0.  0.
   -5000001    1    1    2    0    0 -0.16465236269E+03  0.35615949928E+03 -0.38002628361E+03  0.58136130392E+03  0.19900000000E+03 0.  0.
<mgrwt>
<rscale>  0 0.92927073E+03</rscale>
<asrwt>0</asrwt>
<pdfrwt beam="1">  1        2 0.20244140E+00 0.92927073E+03</pdfrwt>
<pdfrwt beam="2">  1       -2 0.21763519E-01 0.92927073E+03</pdfrwt>
<totfact> 0.29772922E+02</totfact>
</mgrwt>
</event>
<event>
 4    1  0.4998754E-005  0.7042568E+03  0.7818608E-02  0.9709980E-01
          2   -1    0    0  501    0  0.00000000000E+00  0.00000000000E+00  0.32691925414E+03  0.32691925415E+03  0.25500000000E-02 0.  1.
         -2   -1    0    0    0  501 -0.00000000000E+00 -0.00000000000E+00 -0.37928149708E+03  0.37928149709E+03  0.25500000000E-02 0. -1.
    5000001    1    1    2    0    0 -0.12235247427E+03  0.25392079378E+03 -0.96713929395E+02  0.35833012936E+03  0.19900000000E+03 0.  0.
   -5000001    1    1    2    0    0  0.12235247427E+03 -0.25392079378E+03  0.44351686450E+02  0.34787062187E+03  0.19900000000E+03 0.  0.
<mgrwt>
<rscale>  0 0.70425684E+03</rscale>
<asrwt>0</asrwt>
<pdfrwt beam="1">  1        2 0.46702751E-01 0.70425684E+03</pdfrwt>
<pdfrwt beam="2">  1       -2 0.54183071E-01 0.70425684E+03</pdfrwt>
<totfact> 0.35049506E+02</totfact>
</mgrwt>
</event>
<event>
 4    1  0.4998754E-005  0.5659852E+03  0.7818608E-02  0.9978602E-01
          2   -1    0    0  501    0  0.00000000000E+00  0.00000000000E+00  0.15289301322E+04  0.15289301322E+04  0.25500000000E-02 0.  1.
         -2   -1    0    0    0  501 -0.00000000000E+00 -0.00000000000E+00 -0.52379647443E+02  0.52379647506E+02  0.25500000000E-02 0. -1.
    5000001    1    1    2    0    0  0.14233077302E+03  0.10133740884E+03  0.10170575749E+04  0.10509683297E+04  0.19900000000E+03 0.  0.
   -5000001    1    1    2    0    0 -0.14233077302E+03 -0.10133740884E+03  0.45949290983E+03  0.53034144998E+03  0.19900000000E+03 0.  0.
<mgrwt>
<rscale>  0 0.56598523E+03</rscale>
<asrwt>0</asrwt>
<pdfrwt beam="1">  1        2 0.21841855E+00 0.56598523E+03</pdfrwt>
<pdfrwt beam="2">  1       -2 0.74828082E-02 0.56598523E+03</pdfrwt>
<totfact> 0.15684523E+03</totfact>
</mgrwt>
</event>
<event>
 4    1  0.4998754E-005  0.4822795E+03  0.7818608E-02  0.1018511E+00
         -2   -1    0    0    0  501 -0.00000000000E+00  0.00000000000E+00  0.57640355366E+02  0.57640355422E+02  0.25500000000E-02 0. -1.
          2   -1    0    0  501    0  0.00000000000E+00 -0.00000000000E+00 -0.10088134934E+04  0.10088134934E+04  0.25500000000E-02 0.  1.
    5000001    1    1    2    0    0  0.50569530212E+02  0.12504625569E+03 -0.51716358095E+03  0.57030957638E+03  0.19900000000E+03 0.  0.
   -5000001    1    1    2    0    0 -0.50569530212E+02 -0.12504625569E+03 -0.43400955713E+03  0.49614427249E+03  0.19900000000E+03 0.  0.
<mgrwt>
<rscale>  0 0.48227946E+03</rscale>
<asrwt>0</asrwt>
<pdfrwt beam="1">  1        2 0.14411620E+00 0.48227946E+03</pdfrwt>
<pdfrwt beam="2">  1       -2 0.82343371E-02 0.48227946E+03</pdfrwt>
<totfact> 0.26083866E+03</totfact>
</mgrwt>
</event>
<event>
 4    1  0.4998754E-005  0.7536516E+03  0.7818608E-02  0.9629639E-01
         -2   -1    0    0    0  501 -0.00000000000E+00  0.00000000000E+00  0.75688332599E+03  0.75688332599E+03  0.25500000000E-02 0. -1.
          2   -1    0    0  501    0  0.00000000000E+00 -0.00000000000E+00 -0.18760839860E+03  0.18760839861E+03  0.25500000000E-02 0.  1.
    5000001    1    1    2    0    0  0.13315669490E+03  0.21026290654E+03  0.32570344275E+02  0.32031706572E+03  0.19900000000E+03 0.  0.
   -5000001    1    1    2    0    0 -0.13315669490E+03 -0.21026290654E+03  0.53670458312E+03  0.62417465889E+03  0.19900000000E+03 0.  0.
<mgrwt>
<rscale>  0 0.75365156E+03</rscale>
<asrwt>0</asrwt>
<pdfrwt beam="1">  1        2 0.26801200E-01 0.75365156E+03</pdfrwt>
<pdfrwt beam="2">  1       -2 0.10812619E+00 0.75365156E+03</pdfrwt>
<totfact> 0.13980770E+02</totfact>
</mgrwt>
</event>
<event>
 4    1  0.4998754E-005  0.5416493E+03  0.7818608E-02  0.1003445E+00
          2   -1    0    0  501    0  0.00000000000E+00  0.00000000000E+00  0.18461802472E+04  0.18461802472E+04  0.25500000000E-02 0.  1.
         -2   -1    0    0    0  501 -0.00000000000E+00 -0.00000000000E+00 -0.39728514247E+02  0.39728514329E+02  0.25500000000E-02 0. -1.
    5000001    1    1    2    0    0 -0.12471541117E+02 -0.17361017058E+03  0.69874765783E+03  0.74709123940E+03  0.19900000000E+03 0.  0.
   -5000001    1    1    2    0    0  0.12471541117E+02  0.17361017058E+03  0.11077040751E+04  0.11388175221E+04  0.19900000000E+03 0.  0.
<mgrwt>
<rscale>  0 0.54164933E+03</rscale>
<asrwt>0</asrwt>
<pdfrwt beam="1">  1        2 0.26374007E+00 0.54164933E+03</pdfrwt>
<pdfrwt beam="2">  1       -2 0.56755013E-02 0.54164933E+03</pdfrwt>
<totfact> 0.16716902E+03</totfact>
</mgrwt>
</event>
<event>
 4    1  0.4998754E-005  0.5822720E+03  0.7818608E-02  0.9942884E-01
         -2   -1    0    0    0  501 -0.00000000000E+00  0.00000000000E+00  0.19750860415E+03  0.19750860417E+03  0.25500000000E-02 0. -1.
          2   -1    0    0  501    0  0.00000000000E+00 -0.00000000000E+00 -0.42914673353E+03  0.42914673354E+03  0.25500000000E-02 0.  1.
    5000001    1    1    2    0    0  0.15902402469E+03  0.99277416455E+02 -0.81184848069E+01  0.27351701161E+03  0.19900000000E+03 0.  0.
   -5000001    1    1    2    0    0 -0.15902402469E+03 -0.99277416455E+02 -0.22351964457E+03  0.35313832609E+03  0.19900000000E+03 0.  0.
<mgrwt>
<rscale>  0 0.58227201E+03</rscale>
<asrwt>0</asrwt>
<pdfrwt beam="1">  1        2 0.61306676E-01 0.58227201E+03</pdfrwt>
<pdfrwt beam="2">  1       -2 0.28215515E-01 0.58227201E+03</pdfrwt>
<totfact> 0.92022881E+02</totfact>
</mgrwt>
</event>
<event>
 4    1  0.4998754E-005  0.5635262E+03  0.7818608E-02  0.9984107E-01
         -2   -1    0    0    0  501 -0.00000000000E+00  0.00000000000E+00  0.14692410716E+03  0.14692410719E+03  0.25500000000E-02 0.  1.
          2   -1    0    0  501    0  0.00000000000E+00 -0.00000000000E+00 -0.54034997330E+03  0.54034997330E+03  0.25500000000E-02 0. -1.
    5000001    1    1    2    0    0 -0.18347451475E+03 -0.71903444054E+02 -0.23443048557E+03  0.36522822371E+03  0.19900000000E+03 0.  0.
   -5000001    1    1    2    0    0  0.18347451475E+03  0.71903444054E+02 -0.15899538056E+03  0.32204585678E+03  0.19900000000E+03 0.  0.
<mgrwt>
<rscale>  0 0.56352617E+03</rscale>
<asrwt>0</asrwt>
<pdfrwt beam="1">  1        2 0.77192852E-01 0.56352617E+03</pdfrwt>
<pdfrwt beam="2">  1       -2 0.20989158E-01 0.56352617E+03</pdfrwt>
<totfact> 0.12034854E+03</totfact>
</mgrwt>
</event>
<event>
 4    1  0.4998754E-005  0.6443260E+03  0.7818608E-02  0.9817485E-01
          2   -1    0    0  501    0  0.00000000000E+00  0.00000000000E+00  0.17166130206E+04  0.17166130206E+04  0.25500000000E-02 0.  1.
         -2   -1    0    0    0  501 -0.00000000000E+00 -0.00000000000E+00 -0.60461503557E+02  0.60461503611E+02  0.25500000000E-02 0. -1.
    5000001    1    1    2    0    0  0.21189942258E+03  0.11950485304E+03  0.63295119101E+03  0.70669016223E+03  0.19900000000E+03 0.  0.
   -5000001    1    1    2    0    0 -0.21189942258E+03 -0.11950485304E+03  0.10232003261E+04  0.10703843620E+04  0.19900000000E+03 0.  0.
<mgrwt>
<rscale>  0 0.64432602E+03</rscale>
<asrwt>0</asrwt>
<pdfrwt beam="1">  1        2 0.24523043E+00 0.64432602E+03</pdfrwt>
<pdfrwt beam="2">  1       -2 0.86373577E-02 0.64432602E+03</pdfrwt>
<totfact> 0.99640327E+02</totfact>
</mgrwt>
</event>
<event>
 4    1  0.4998754E-005  0.6747137E+03  0.7818608E-02  0.9761480E-01
         -2   -1    0    0    0  501 -0.00000000000E+00  0.00000000000E+00  0.54264380118E+03  0.54264380119E+03  0.25500000000E-02 0. -1.
          2   -1    0    0  501    0  0.00000000000E+00 -0.00000000000E+00 -0.20973178084E+03  0.20973178085E+03  0.25500000000E-02 0.  1.
    5000001    1    1    2    0    0 -0.15118180690E+03 -0.21911493104E+03  0.10199802531E+03  0.34766634710E+03  0.19900000000E+03 0.  0.
   -5000001    1    1    2    0    0  0.15118180690E+03  0.21911493104E+03  0.23091399503E+03  0.40470923493E+03  0.19900000000E+03 0.  0.
<mgrwt>
<rscale>  0 0.67471372E+03</rscale>
<asrwt>0</asrwt>
<pdfrwt beam="1">  1        2 0.29961682E-01 0.67471372E+03</pdfrwt>
<pdfrwt beam="2">  1       -2 0.77520545E-01 0.67471372E+03</pdfrwt>
<totfact> 0.26696974E+02</totfact>
</mgrwt>
</event>
<event>
 4    1  0.4998754E-005  0.5187170E+03  0.7818608E-02  0.1009006E+00
         -2   -1    0    0    0  501 -0.00000000000E+00  0.00000000000E+00  0.15667444252E+03  0.15667444254E+03  0.25500000000E-02 0.  1.
          2   -1    0    0  501    0  0.00000000000E+00 -0.00000000000E+00 -0.42934150637E+03  0.42934150638E+03  0.25500000000E-02 0. -1.
    5000001    1    1    2    0    0 -0.71629975246E+02  0.60100783993E+02  0.19074185612E+02  0.22069839634E+03  0.19900000000E+03 0.  0.
   -5000001    1    1    2    0    0  0.71629975246E+02 -0.60100783993E+02 -0.29174124946E+03  0.36531755259E+03  0.19900000000E+03 0.  0.
<mgrwt>
<rscale>  0 0.51871704E+03</rscale>
<asrwt>0</asrwt>
<pdfrwt beam="1">  1        2 0.61334501E-01 0.51871704E+03</pdfrwt>
<pdfrwt beam="2">  1       -2 0.22382063E-01 0.51871704E+03</pdfrwt>
<totfact> 0.13939556E+03</totfact>
</mgrwt>
</event>
<event>
 4    1  0.4998754E-005  0.4166154E+03  0.7818608E-02  0.1038174E+00
         -2   -1    0    0    0  501 -0.00000000000E+00  0.00000000000E+00  0.22383803938E+02  0.22383804083E+02  0.25500000000E-02 0. -1.
          2   -1    0    0  501    0  0.00000000000E+00 -0.00000000000E+00 -0.19385484972E+04  0.19385484972E+04  0.25500000000E-02 0.  1.
    5000001    1    1    2    0    0 -0.56174111131E+02  0.36676949711E+01 -0.10754801106E+04  0.10951837522E+04  0.19900000000E+03 0.  0.
   -5000001    1    1    2    0    0  0.56174111131E+02 -0.36676949711E+01 -0.84068458266E+03  0.86574854910E+03  0.19900000000E+03 0.  0.
<mgrwt>
<rscale>  0 0.41661536E+03</rscale>
<asrwt>0</asrwt>
<pdfrwt beam="1">  1        2 0.27693539E+00 0.41661536E+03</pdfrwt>
<pdfrwt beam="2">  1       -2 0.31976875E-02 0.41661536E+03</pdfrwt>
<totfact> 0.36360840E+03</totfact>
</mgrwt>
</event>
<event>
 4    1  0.4998754E-005  0.4813248E+03  0.7818608E-02  0.1018772E+00
          2   -1    0    0  501    0  0.00000000000E+00  0.00000000000E+00  0.29861720793E+03  0.29861720794E+03  0.25500000000E-02 0.  1.
         -2   -1    0    0    0  501 -0.00000000000E+00 -0.00000000000E+00 -0.19395533352E+03  0.19395533353E+03  0.25500000000E-02 0. -1.
    5000001    1    1    2    0    0  0.11985741837E+03 -0.55386002648E+02  0.21904182479E+02  0.23982119014E+03  0.19900000000E+03 0.  0.
   -5000001    1    1    2    0    0 -0.11985741837E+03  0.55386002648E+02  0.82757691934E+02  0.25275135134E+03  0.19900000000E+03 0.  0.
<mgrwt>
<rscale>  0 0.48132484E+03</rscale>
<asrwt>0</asrwt>
<pdfrwt beam="1">  1        2 0.42659601E-01 0.48132484E+03</pdfrwt>
<pdfrwt beam="2">  1       -2 0.27707905E-01 0.48132484E+03</pdfrwt>
<totfact> 0.14192871E+03</totfact>
</mgrwt>
</event>
<event>
 4    1  0.4998754E-005  0.8348863E+03  0.7818608E-02  0.9510850E-01
         -2   -1    0    0    0  501 -0.00000000000E+00  0.00000000000E+00  0.11660397988E+04  0.11660397988E+04  0.25500000000E-02 0. -1.
          2   -1    0    0  501    0  0.00000000000E+00 -0.00000000000E+00 -0.14944496012E+03  0.14944496015E+03  0.25500000000E-02 0.  1.
    5000001    1    1    2    0    0  0.47044908542E+01  0.35225157952E+03  0.67017122881E+03  0.78283700950E+03  0.19900000000E+03 0.  0.
   -5000001    1    1    2    0    0 -0.47044908542E+01 -0.35225157952E+03  0.34642360982E+03  0.53264774941E+03  0.19900000000E+03 0.  0.
<mgrwt>
<rscale>  0 0.83488627E+03</rscale>
<asrwt>0</asrwt>
<pdfrwt beam="1">  1        2 0.21349280E-01 0.83488627E+03</pdfrwt>
<pdfrwt beam="2">  1       -2 0.16657712E+00 0.83488627E+03</pdfrwt>
<totfact> 0.59848767E+01</totfact>
</mgrwt>
</event>
<event>
 4    1  0.4998754E-005  0.4973467E+03  0.7818608E-02  0.1014474E+00
         -2   -1    0    0    0  501 -0.00000000000E+00  0.00000000000E+00  0.89672710275E+02  0.89672710311E+02  0.25500000000E-02 0. -1.
          2   -1    0    0  501    0  0.00000000000E+00 -0.00000000000E+00 -0.68960143914E+03  0.68960143915E+03  0.25500000000E-02 0.  1.
    5000001    1    1    2    0    0 -0.14304091345E+03 -0.54332984154E+01 -0.23447011721E+03  0.33921594821E+03  0.19900000000E+03 0.  0.
   -5000001    1    1    2    0    0  0.14304091345E+03  0.54332984154E+01 -0.36545861166E+03  0.44005820125E+03  0.19900000000E+03 0.  0.
<mgrwt>
<rscale>  0 0.49734668E+03</rscale>
<asrwt>0</asrwt>
<pdfrwt beam="1">  1        2 0.98514489E-01 0.49734668E+03</pdfrwt>
<pdfrwt beam="2">  1       -2 0.12810387E-01 0.49734668E+03</pdfrwt>
<totfact> 0.20874018E+03</totfact>
</mgrwt>
</event>
<event>
 4    1  0.4998754E-005  0.9687126E+03  0.7818608E-02  0.9343542E-01
          2   -1    0    0  501    0  0.00000000000E+00  0.00000000000E+00  0.17878530871E+04  0.17878530871E+04  0.25500000000E-02 0.  1.
         -2   -1    0    0    0  501 -0.00000000000E+00 -0.00000000000E+00 -0.13121941537E+03  0.13121941539E+03  0.25500000000E-02 0. -1.
    5000001    1    1    2    0    0  0.13147817876E+03  0.32969489653E+03  0.30788058199E+03  0.51027119167E+03  0.19900000000E+03 0.  0.
   -5000001    1    1    2    0    0 -0.13147817876E+03 -0.32969489653E+03  0.13487530898E+04  0.14088013108E+04  0.19900000000E+03 0.  0.
<mgrwt>
<rscale>  0 0.96871262E+03</rscale>
<asrwt>0</asrwt>
<pdfrwt beam="1">  1        2 0.25540757E+00 0.96871262E+03</pdfrwt>
<pdfrwt beam="2">  1       -2 0.18745632E-01 0.96871262E+03</pdfrwt>
<totfact> 0.24715012E+02</totfact>
</mgrwt>
</event>
<event>
 4    1  0.4998754E-005  0.7452394E+03  0.7818608E-02  0.9642849E-01
          2   -1    0    0  501    0  0.00000000000E+00  0.00000000000E+00  0.72783224619E+03  0.72783224619E+03  0.25500000000E-02 0.  1.
         -2   -1    0    0    0  501 -0.00000000000E+00 -0.00000000000E+00 -0.19076573836E+03  0.19076573837E+03  0.25500000000E-02 0. -1.
    5000001    1    1    2    0    0 -0.12212278504E+03 -0.27747346600E+03  0.37412909790E+03  0.52103654464E+03  0.19900000000E+03 0.  0.
   -5000001    1    1    2    0    0  0.12212278504E+03  0.27747346600E+03  0.16293740994E+03  0.39756143993E+03  0.19900000000E+03 0.  0.
<mgrwt>
<rscale>  0 0.74523944E+03</rscale>
<asrwt>0</asrwt>
<pdfrwt beam="1">  1        2 0.10397604E+00 0.74523944E+03</pdfrwt>
<pdfrwt beam="2">  1       -2 0.27252248E-01 0.74523944E+03</pdfrwt>
<totfact> 0.52689184E+02</totfact>
</mgrwt>
</event>
<event>
 4    1  0.4998754E-005  0.7267628E+03  0.7818608E-02  0.9672528E-01
         -2   -1    0    0    0  501 -0.00000000000E+00  0.00000000000E+00  0.13727212690E+03  0.13727212692E+03  0.25500000000E-02 0. -1.
          2   -1    0    0  501    0  0.00000000000E+00 -0.00000000000E+00 -0.96192890791E+03  0.96192890792E+03  0.25500000000E-02 0.  1.
    5000001    1    1    2    0    0  0.26431001691E+03 -0.90175277681E+02 -0.23049509856E+03  0.41318319932E+03  0.19900000000E+03 0.  0.
   -5000001    1    1    2    0    0 -0.26431001691E+03  0.90175277681E+02 -0.59416168246E+03  0.68601783552E+03  0.19900000000E+03 0.  0.
<mgrwt>
<rscale>  0 0.72676276E+03</rscale>
<asrwt>0</asrwt>
<pdfrwt beam="1">  1        2 0.13741841E+00 0.72676276E+03</pdfrwt>
<pdfrwt beam="2">  1       -2 0.19610304E-01 0.72676276E+03</pdfrwt>
<totfact> 0.65775266E+02</totfact>
</mgrwt>
</event>
<event>
 4    1  0.4998754E-005  0.8210222E+03  0.7818608E-02  0.9530077E-01
         -2   -1    0    0    0  501 -0.00000000000E+00  0.00000000000E+00  0.43392557758E+03  0.43392557758E+03  0.25500000000E-02 0. -1.
          2   -1    0    0  501    0  0.00000000000E+00 -0.00000000000E+00 -0.38836008014E+03  0.38836008015E+03  0.25500000000E-02 0.  1.
    5000001    1    1    2    0    0 -0.31748005441E+03 -0.51457896735E+02  0.18264313432E+03  0.42000120785E+03  0.19900000000E+03 0.  0.
   -5000001    1    1    2    0    0  0.31748005441E+03  0.51457896735E+02 -0.13707763688E+03  0.40228444988E+03  0.19900000000E+03 0.  0.
<mgrwt>
<rscale>  0 0.82102222E+03</rscale>
<asrwt>0</asrwt>
<pdfrwt beam="1">  1        2 0.55480011E-01 0.82102222E+03</pdfrwt>
<pdfrwt beam="2">  1       -2 0.61989368E-01 0.82102222E+03</pdfrwt>
<totfact> 0.21743324E+02</totfact>
</mgrwt>
</event>
<event>
 4    1  0.4998754E-005  0.5117088E+03  0.7818608E-02  0.1010767E+00
          2   -1    0    0  501    0  0.00000000000E+00  0.00000000000E+00  0.82325306056E+02  0.82325306095E+02  0.25500000000E-02 0.  1.
         -2   -1    0    0    0  501 -0.00000000000E+00 -0.00000000000E+00 -0.79515620027E+03  0.79515620028E+03  0.25500000000E-02 0. -1.
    5000001    1    1    2    0    0  0.45598535067E+02  0.12125955640E+03 -0.51979402860E+03  0.57146298094E+03  0.19900000000E+03 0.  0.
   -5000001    1    1    2    0    0 -0.45598535067E+02 -0.12125955640E+03 -0.19303686561E+03  0.30601852543E+03  0.19900000000E+03 0.  0.
<mgrwt>
<rscale>  0 0.51170881E+03</rscale>
<asrwt>0</asrwt>
<pdfrwt beam="1">  1        2 0.11760758E-01 0.51170881E+03</pdfrwt>
<pdfrwt beam="2">  1       -2 0.11359374E+00 0.51170881E+03</pdfrwt>
<totfact> 0.33303963E+02</totfact>
</mgrwt>
</event>
<event>
 4    1  0.4998754E-005  0.7337381E+03  0.7818608E-02  0.9661214E-01
         -2   -1    0    0    0  501 -0.00000000000E+00  0.00000000000E+00  0.12994632981E+04  0.12994632981E+04  0.25500000000E-02 0. -1.
          2   -1    0    0  501    0  0.00000000000E+00 -0.00000000000E+00 -0.10357575779E+03  0.10357575782E+03  0.25500000000E-02 0.  1.
    5000001    1    1    2    0    0  0.23593214788E+03  0.50684216016E+02  0.96455917012E+03  0.10140060457E+04  0.19900000000E+03 0.  0.
   -5000001    1    1    2    0    0 -0.23593214788E+03 -0.50684216016E+02  0.23132837021E+03  0.38903301020E+03  0.19900000000E+03 0.  0.
<mgrwt>
<rscale>  0 0.73373809E+03</rscale>
<asrwt>0</asrwt>
<pdfrwt beam="1">  1        2 0.14796536E-01 0.73373809E+03</pdfrwt>
<pdfrwt beam="2">  1       -2 0.18563762E+00 0.73373809E+03</pdfrwt>
<totfact> 0.68736512E+01</totfact>
</mgrwt>
</event>
<event>
 4    1  0.4998754E-005  0.8685823E+03  0.7818608E-02  0.9465730E-01
          2   -1    0    0  501    0  0.00000000000E+00  0.00000000000E+00  0.63193157989E+03  0.63193157990E+03  0.25500000000E-02 0.  1.
         -2   -1    0    0    0  501 -0.00000000000E+00 -0.00000000000E+00 -0.29846396552E+03  0.29846396553E+03  0.25500000000E-02 0. -1.
    5000001    1    1    2    0    0  0.22920608184E+03 -0.26756108614E+03 -0.22370767825E+01  0.40463609241E+03  0.19900000000E+03 0.  0.
   -5000001    1    1    2    0    0 -0.22920608184E+03  0.26756108614E+03  0.33570469116E+03  0.52575945301E+03  0.19900000000E+03 0.  0.
<mgrwt>
<rscale>  0 0.86858231E+03</rscale>
<asrwt>0</asrwt>
<pdfrwt beam="1">  1        2 0.90275938E-01 0.86858231E+03</pdfrwt>
<pdfrwt beam="2">  1       -2 0.42637710E-01 0.86858231E+03</pdfrwt>
<totfact> 0.26672720E+02</totfact>
</mgrwt>
</event>
<event>
 4    1  0.4998754E-005  0.5785789E+03  0.7818608E-02  0.9950872E-01
         -2   -1    0    0    0  501 -0.00000000000E+00  0.00000000000E+00  0.89630176763E+02  0.89630176799E+02  0.25500000000E-02 0. -1.
          2   -1    0    0  501    0  0.00000000000E+00 -0.00000000000E+00 -0.93370782883E+03  0.93370782883E+03  0.25500000000E-02 0.  1.
    5000001    1    1    2    0    0 -0.94691218543E+02 -0.16621521436E+03 -0.26893076145E+03  0.38538121232E+03  0.19900000000E+03 0.  0.
   -5000001    1    1    2    0    0  0.94691218543E+02  0.16621521436E+03 -0.57514689061E+03  0.63795679331E+03  0.19900000000E+03 0.  0.
<mgrwt>
<rscale>  0 0.57857894E+03</rscale>
<asrwt>0</asrwt>
<pdfrwt beam="1">  1        2 0.13338683E+00 0.57857894E+03</pdfrwt>
<pdfrwt beam="2">  1       -2 0.12804312E-01 0.57857894E+03</pdfrwt>
<totfact> 0.14179215E+03</totfact>
</mgrwt>
</event>
<event>
 4    1  0.4998754E-005  0.4979550E+03  0.7818608E-02  0.1014314E+00
          2   -1    0    0  501    0  0.00000000000E+00  0.00000000000E+00  0.27381260210E+03  0.27381260211E+03  0.25500000000E-02 0.  1.
         -2   -1    0    0    0  501 -0.00000000000E+00 -0.00000000000E+00 -0.22639500414E+03  0.22639500415E+03  0.25500000000E-02 0. -1.
    5000001    1    1    2    0    0  0.13740151606E+03 -0.57609163077E+02  0.98328071692E+01  0.24878841690E+03  0.19900000000E+03 0.  0.
   -5000001    1    1    2    0    0 -0.13740151606E+03  0.57609163077E+02  0.37584790794E+02  0.25141918937E+03  0.19900000000E+03 0.  0.
<mgrwt>
<rscale>  0 0.49795504E+03</rscale>
<asrwt>0</asrwt>
<pdfrwt beam="1">  1        2 0.39116086E-01 0.49795504E+03</pdfrwt>
<pdfrwt beam="2">  1       -2 0.32342143E-01 0.49795504E+03</pdfrwt>
<totfact> 0.11747950E+03</totfact>
</mgrwt>
</event>
<event>
 4    1  0.4998754E-005  0.4661495E+03  0.7818608E-02  0.1023013E+00
          2   -1    0    0  501    0  0.00000000000E+00  0.00000000000E+00  0.88978854143E+03  0.88978854144E+03  0.25500000000E-02 0.  1.
         -2   -1    0    0    0  501 -0.00000000000E+00 -0.00000000000E+00 -0.61052528409E+02  0.61052528462E+02  0.25500000000E-02 0. -1.
    5000001    1    1    2    0    0 -0.50440663911E+02  0.10717421069E+03  0.46803656143E+03  0.52219708430E+03  0.19900000000E+03 0.  0.
   -5000001    1    1    2    0    0  0.50440663911E+02 -0.10717421069E+03  0.36069945160E+03  0.42864398560E+03  0.19900000000E+03 0.  0.
<mgrwt>
<rscale>  0 0.46614950E+03</rscale>
<asrwt>0</asrwt>
<pdfrwt beam="1">  1        2 0.12711264E+00 0.46614950E+03</pdfrwt>
<pdfrwt beam="2">  1       -2 0.87217905E-02 0.46614950E+03</pdfrwt>
<totfact> 0.28219459E+03</totfact>
</mgrwt>
</event>
<event>
 4    1  0.4998754E-005  0.7587340E+03  0.7818608E-02  0.9621747E-01
         -2   -1    0    0    0  501 -0.00000000000E+00  0.00000000000E+00  0.71746716171E+02  0.71746716217E+02  0.25500000000E-02 0. -1.
          2   -1    0    0  501    0  0.00000000000E+00 -0.00000000000E+00 -0.20059357608E+04  0.20059357608E+04  0.25500000000E-02 0.  1.
    5000001    1    1    2    0    0 -0.31046459489E+03 -0.71940740212E+02 -0.82337476314E+03  0.90504736636E+03  0.19900000000E+03 0.  0.
   -5000001    1    1    2    0    0  0.31046459489E+03  0.71940740212E+02 -0.11108142815E+04  0.11726351107E+04  0.19900000000E+03 0.  0.
<mgrwt>
<rscale>  0 0.75873396E+03</rscale>
<asrwt>0</asrwt>
<pdfrwt beam="1">  1        2 0.28656222E+00 0.75873396E+03</pdfrwt>
<pdfrwt beam="2">  1       -2 0.10249532E-01 0.75873396E+03</pdfrwt>
<totfact> 0.53550242E+02</totfact>
</mgrwt>
</event>
<event>
 4    1  0.4998754E-005  0.1346598E+04  0.7818608E-02  0.8993407E-01
         -2   -1    0    0    0  501 -0.00000000000E+00  0.00000000000E+00  0.61373924610E+03  0.61373924611E+03  0.25500000000E-02 0. -1.
          2   -1    0    0  501    0  0.00000000000E+00 -0.00000000000E+00 -0.73863871178E+03  0.73863871178E+03  0.25500000000E-02 0.  1.
    5000001    1    1    2    0    0  0.15653116605E+03  0.91162103752E+02  0.55738494936E+03  0.61894387216E+03  0.19900000000E+03 0.  0.
   -5000001    1    1    2    0    0 -0.15653116605E+03 -0.91162103752E+02 -0.68228441504E+03  0.73343408573E+03  0.19900000000E+03 0.  0.
<mgrwt>
<rscale>  0 0.13465980E+04</rscale>
<asrwt>0</asrwt>
<pdfrwt beam="1">  1        2 0.10551982E+00 0.13465980E+04</pdfrwt>
<pdfrwt beam="2">  1       -2 0.87677036E-01 0.13465980E+04</pdfrwt>
<totfact> 0.46233456E+01</totfact>
</mgrwt>
</event>
<event>
 4    1  0.4998754E-005  0.4608810E+03  0.7818608E-02  0.1024526E+00
          2   -1    0    0  501    0  0.00000000000E+00  0.00000000000E+00  0.86105571810E+03  0.86105571810E+03  0.25500000000E-02 0.  1.
         -2   -1    0    0    0  501 -0.00000000000E+00 -0.00000000000E+00 -0.61671767835E+02  0.61671767888E+02  0.25500000000E-02 0. -1.
    5000001    1    1    2    0    0  0.10628906885E+02 -0.11526560536E+03  0.41998090445E+03  0.47894059501E+03  0.19900000000E+03 0.  0.
   -5000001    1    1    2    0    0 -0.10628906885E+02  0.11526560536E+03  0.37940304581E+03  0.44378689098E+03  0.19900000000E+03 0.  0.
<mgrwt>
<rscale>  0 0.46088102E+03</rscale>
<asrwt>0</asrwt>
<pdfrwt beam="1">  1        2 0.12300797E+00 0.46088102E+03</pdfrwt>
<pdfrwt beam="2">  1       -2 0.88102522E-02 0.46088102E+03</pdfrwt>
<totfact> 0.28987026E+03</totfact>
</mgrwt>
</event>
<event>
 4    1  0.4998754E-005  0.5870156E+03  0.7818608E-02  0.9932717E-01
          2   -1    0    0  501    0  0.00000000000E+00  0.00000000000E+00  0.10468125398E+04  0.10468125398E+04  0.25500000000E-02 0.  1.
         -2   -1    0    0    0  501 -0.00000000000E+00 -0.00000000000E+00 -0.82294426055E+02  0.82294426095E+02  0.25500000000E-02 0. -1.
    5000001    1    1    2    0    0 -0.32969880675E+02  0.21042740752E+03  0.41621004526E+03  0.50813237315E+03  0.19900000000E+03 0.  0.
   -5000001    1    1    2    0    0  0.32969880675E+02 -0.21042740752E+03  0.54830806847E+03  0.62097459273E+03  0.19900000000E+03 0.  0.
<mgrwt>
<rscale>  0 0.58701563E+03</rscale>
<asrwt>0</asrwt>
<pdfrwt beam="1">  1        2 0.14954465E+00 0.58701563E+03</pdfrwt>
<pdfrwt beam="2">  1       -2 0.11756347E-01 0.58701563E+03</pdfrwt>
<totfact> 0.13914380E+03</totfact>
</mgrwt>
</event>
<event>
 4    1  0.4998754E-005  0.4780821E+03  0.7818608E-02  0.1019664E+00
          2   -1    0    0  501    0  0.00000000000E+00  0.00000000000E+00  0.11491439141E+04  0.11491439141E+04  0.25500000000E-02 0.  1.
         -2   -1    0    0    0  501 -0.00000000000E+00 -0.00000000000E+00 -0.49724516928E+02  0.49724516993E+02  0.25500000000E-02 0. -1.
    5000001    1    1    2    0    0 -0.12266122752E+03  0.49572115492E+02  0.56485038904E+03  0.61331894914E+03  0.19900000000E+03 0.  0.
   -5000001    1    1    2    0    0  0.12266122752E+03 -0.49572115492E+02  0.53456900814E+03  0.58554948197E+03  0.19900000000E+03 0.  0.
<mgrwt>
<rscale>  0 0.47808211E+03</rscale>
<asrwt>0</asrwt>
<pdfrwt beam="1">  1        2 0.16416340E+00 0.47808211E+03</pdfrwt>
<pdfrwt beam="2">  1       -2 0.71035032E-02 0.47808211E+03</pdfrwt>
<totfact> 0.27292441E+03</totfact>
</mgrwt>
</event>
<event>
 4    1  0.4998754E-005  0.6267123E+03  0.7818608E-02  0.9851486E-01
         -2   -1    0    0    0  501 -0.00000000000E+00  0.00000000000E+00  0.20217653909E+04  0.20217653909E+04  0.25500000000E-02 0. -1.
          2   -1    0    0  501    0  0.00000000000E+00 -0.00000000000E+00 -0.48567492974E+02  0.48567493041E+02  0.25500000000E-02 0.  1.
    5000001    1    1    2    0    0 -0.18170576898E+03 -0.10191086083E+03  0.57947554759E+03  0.64714428089E+03  0.19900000000E+03 0.  0.
   -5000001    1    1    2    0    0  0.18170576898E+03  0.10191086083E+03  0.13937223504E+04  0.14231886031E+04  0.19900000000E+03 0.  0.
<mgrwt>
<rscale>  0 0.62671230E+03</rscale>
<asrwt>0</asrwt>
<pdfrwt beam="1">  1        2 0.69382131E-02 0.62671230E+03</pdfrwt>
<pdfrwt beam="2">  1       -2 0.28882363E+00 0.62671230E+03</pdfrwt>
<totfact> 0.41711900E+01</totfact>
</mgrwt>
</event>
<event>
 4    1  0.4998754E-005  0.6216932E+03  0.7818608E-02  0.9861394E-01
         -2   -1    0    0    0  501 -0.00000000000E+00  0.00000000000E+00  0.10904890988E+03  0.10904890991E+03  0.25500000000E-02 0. -1.
          2   -1    0    0  501    0  0.00000000000E+00 -0.00000000000E+00 -0.88607600450E+03  0.88607600450E+03  0.25500000000E-02 0.  1.
    5000001    1    1    2    0    0  0.22968683693E+03 -0.44276435611E+02 -0.46541525172E+03  0.55760990159E+03  0.19900000000E+03 0.  0.
   -5000001    1    1    2    0    0 -0.22968683693E+03  0.44276435611E+02 -0.31161184290E+03  0.43751501282E+03  0.19900000000E+03 0.  0.
<mgrwt>
<rscale>  0 0.62169324E+03</rscale>
<asrwt>0</asrwt>
<pdfrwt beam="1">  1        2 0.12658228E+00 0.62169324E+03</pdfrwt>
<pdfrwt beam="2">  1       -2 0.15578416E-01 0.62169324E+03</pdfrwt>
<totfact> 0.10948952E+03</totfact>
</mgrwt>
</event>
<event>
 4    1  0.4998754E-005  0.6136461E+03  0.7818608E-02  0.9877492E-01
         -2   -1    0    0    0  501 -0.00000000000E+00  0.00000000000E+00  0.46041757271E+03  0.46041757272E+03  0.25500000000E-02 0. -1.
          2   -1    0    0  501    0  0.00000000000E+00 -0.00000000000E+00 -0.20446737755E+03  0.20446737757E+03  0.25500000000E-02 0.  1.
    5000001    1    1    2    0    0 -0.17588459451E+03  0.14547294060E+03  0.18151362202E+03  0.35305235024E+03  0.19900000000E+03 0.  0.
   -5000001    1    1    2    0    0  0.17588459451E+03 -0.14547294060E+03  0.74436573136E+02  0.31183260004E+03  0.19900000000E+03 0.  0.
<mgrwt>
<rscale>  0 0.61364607E+03</rscale>
<asrwt>0</asrwt>
<pdfrwt beam="1">  1        2 0.29209625E-01 0.61364607E+03</pdfrwt>
<pdfrwt beam="2">  1       -2 0.65773939E-01 0.61364607E+03</pdfrwt>
<totfact> 0.39402067E+02</totfact>
</mgrwt>
</event>
<event>
 4    1  0.4998754E-005  0.6330062E+03  0.7818608E-02  0.9839200E-01
          2   -1    0    0  501    0  0.00000000000E+00  0.00000000000E+00  0.14369957460E+04  0.14369957460E+04  0.25500000000E-02 0.  1.
         -2   -1    0    0    0  501 -0.00000000000E+00 -0.00000000000E+00 -0.69710871797E+02  0.69710871844E+02  0.25500000000E-02 0. -1.
    5000001    1    1    2    0    0 -0.13016067635E+03  0.14527061184E+03  0.32638538914E+03  0.42915472103E+03  0.19900000000E+03 0.  0.
   -5000001    1    1    2    0    0  0.13016067635E+03 -0.14527061184E+03  0.10408994850E+04  0.10775518968E+04  0.19900000000E+03 0.  0.
<mgrwt>
<rscale>  0 0.63300624E+03</rscale>
<asrwt>0</asrwt>
<pdfrwt beam="1">  1        2 0.20528511E+00 0.63300624E+03</pdfrwt>
<pdfrwt beam="2">  1       -2 0.99586959E-02 0.63300624E+03</pdfrwt>
<totfact> 0.11054403E+03</totfact>
</mgrwt>
</event>
<event>
 4    1  0.4998754E-005  0.6689402E+03  0.7818608E-02  0.9771874E-01
         -2   -1    0    0    0  501 -0.00000000000E+00  0.00000000000E+00  0.48489077196E+02  0.48489077263E+02  0.25500000000E-02 0. -1.
          2   -1    0    0  501    0  0.00000000000E+00 -0.00000000000E+00 -0.23071223740E+04  0.23071223740E+04  0.25500000000E-02 0.  1.
    5000001    1    1    2    0    0  0.19001211685E+03  0.73489412618E+02 -0.17469593875E+04  0.17700207343E+04  0.19900000000E+03 0.  0.
   -5000001    1    1    2    0    0 -0.19001211685E+03 -0.73489412618E+02 -0.51167390929E+03  0.58559071694E+03  0.19900000000E+03 0.  0.
<mgrwt>
<rscale>  0 0.66894016E+03</rscale>
<asrwt>0</asrwt>
<pdfrwt beam="1">  1        2 0.32958884E+00 0.66894016E+03</pdfrwt>
<pdfrwt beam="2">  1       -2 0.69270125E-02 0.66894016E+03</pdfrwt>
<totfact> 0.71142709E+02</totfact>
</mgrwt>
</event>
<event>
 4    1  0.4998754E-005  0.1843597E+04  0.7818608E-02  0.8683452E-01
          2   -1    0    0  501    0  0.00000000000E+00  0.00000000000E+00  0.22679615600E+04  0.22679615600E+04  0.25500000000E-02 0.  1.
         -2   -1    0    0    0  501 -0.00000000000E+00 -0.00000000000E+00 -0.37465931138E+03  0.37465931139E+03  0.25500000000E-02 0. -1.
    5000001    1    1    2    0    0 -0.58418714877E+03  0.67606048223E+03  0.11022234976E+04  0.14327700580E+04  0.19900000000E+03 0.  0.
   -5000001    1    1    2    0    0  0.58418714877E+03 -0.67606048223E+03  0.79107875108E+03  0.12098508135E+04  0.19900000000E+03 0.  0.
<mgrwt>
<rscale>  0 0.18435975E+04</rscale>
<asrwt>0</asrwt>
<pdfrwt beam="1">  1        2 0.32399450E+00 0.18435975E+04</pdfrwt>
<pdfrwt beam="2">  1       -2 0.53522760E-01 0.18435975E+04</pdfrwt>
<totfact> 0.18102243E+01</totfact>
</mgrwt>
</event>
<event>
 4    1  0.4998754E-005  0.4953900E+03  0.7818608E-02  0.1014989E+00
          2   -1    0    0  501    0  0.00000000000E+00  0.00000000000E+00  0.13591003583E+04  0.13591003583E+04  0.25500000000E-02 0.  1.
         -2   -1    0    0    0  501 -0.00000000000E+00 -0.00000000000E+00 -0.45142230501E+02  0.45142230573E+02  0.25500000000E-02 0. -1.
    5000001    1    1    2    0    0 -0.12456586171E+03 -0.25285222117E+02  0.86902353326E+03  0.90053256338E+03  0.19900000000E+03 0.  0.
   -5000001    1    1    2    0    0  0.12456586171E+03  0.25285222117E+02  0.44493459456E+03  0.50371002551E+03  0.19900000000E+03 0.  0.
<mgrwt>
<rscale>  0 0.49539004E+03</rscale>
<asrwt>0</asrwt>
<pdfrwt beam="1">  1        2 0.19415721E+00 0.49539004E+03</pdfrwt>
<pdfrwt beam="2">  1       -2 0.64488896E-02 0.49539004E+03</pdfrwt>
<totfact> 0.24376187E+03</totfact>
</mgrwt>
</event>
<event>
 4    1  0.4998754E-005  0.5849821E+03  0.7818608E-02  0.9937063E-01
          2   -1    0    0  501    0  0.00000000000E+00  0.00000000000E+00  0.14995353416E+03  0.14995353418E+03  0.25500000000E-02 0.  1.
         -2   -1    0    0    0  501 -0.00000000000E+00 -0.00000000000E+00 -0.57051691042E+03  0.57051691042E+03  0.25500000000E-02 0. -1.
    5000001    1    1    2    0    0 -0.19321869355E+03 -0.88197963604E+02 -0.24592789591E+03  0.38104313970E+03  0.19900000000E+03 0.  0.
   -5000001    1    1    2    0    0  0.19321869355E+03  0.88197963604E+02 -0.17463548035E+03  0.33942730491E+03  0.19900000000E+03 0.  0.
<mgrwt>
<rscale>  0 0.58498214E+03</rscale>
<asrwt>0</asrwt>
<pdfrwt beam="1">  1        2 0.21421934E-01 0.58498214E+03</pdfrwt>
<pdfrwt beam="2">  1       -2 0.81502415E-01 0.58498214E+03</pdfrwt>
<totfact> 0.35105105E+02</totfact>
</mgrwt>
</event>
<event>
 4    1  0.4998754E-005  0.1041048E+04  0.7818608E-02  0.9264635E-01
          2   -1    0    0  501    0  0.00000000000E+00  0.00000000000E+00  0.18767412850E+04  0.18767412850E+04  0.25500000000E-02 0.  1.
         -2   -1    0    0    0  501 -0.00000000000E+00 -0.00000000000E+00 -0.14437006058E+03  0.14437006060E+03  0.25500000000E-02 0. -1.
    5000001    1    1    2    0    0  0.29172707721E+03 -0.38195245151E+03  0.90260419852E+03  0.10417714250E+04  0.19900000000E+03 0.  0.
   -5000001    1    1    2    0    0 -0.29172707721E+03  0.38195245151E+03  0.82976702588E+03  0.97933992058E+03  0.19900000000E+03 0.  0.
<mgrwt>
<rscale>  0 0.10410480E+04</rscale>
<asrwt>0</asrwt>
<pdfrwt beam="1">  1        2 0.26810590E+00 0.10410480E+04</pdfrwt>
<pdfrwt beam="2">  1       -2 0.20624294E-01 0.10410480E+04</pdfrwt>
<totfact> 0.18735700E+02</totfact>
</mgrwt>
</event>
<event>
 4    1  0.4998754E-005  0.5052383E+03  0.7818608E-02  0.1012421E+00
         -2   -1    0    0    0  501 -0.00000000000E+00  0.00000000000E+00  0.15909827301E+02  0.15909827505E+02  0.25500000000E-02 0.  1.
          2   -1    0    0  501    0  0.00000000000E+00 -0.00000000000E+00 -0.40111333641E+04  0.40111333641E+04  0.25500000000E-02 0. -1.
    5000001    1    1    2    0    0  0.70523270534E+02  0.10648519832E+03 -0.12890449882E+04  0.13105535513E+04  0.19900000000E+03 0.  0.
   -5000001    1    1    2    0    0 -0.70523270534E+02 -0.10648519832E+03 -0.27061785485E+04  0.27164896403E+04  0.19900000000E+03 0.  0.
<mgrwt>
<rscale>  0 0.50523832E+03</rscale>
<asrwt>0</asrwt>
<pdfrwt beam="1">  1        2 0.57301840E+00 0.50523832E+03</pdfrwt>
<pdfrwt beam="2">  1       -2 0.22728351E-02 0.50523832E+03</pdfrwt>
<totfact> 0.43411649E+02</totfact>
</mgrwt>
</event>
<event>
 4    1  0.4998754E-005  0.7107181E+03  0.7818608E-02  0.9699076E-01
          2   -1    0    0  501    0  0.00000000000E+00  0.00000000000E+00  0.16983187811E+03  0.16983187813E+03  0.25500000000E-02 0.  1.
         -2   -1    0    0    0  501 -0.00000000000E+00 -0.00000000000E+00 -0.74355909492E+03  0.74355909492E+03  0.25500000000E-02 0. -1.
    5000001    1    1    2    0    0 -0.13396297513E+03  0.73887073168E+02  0.36410441613E+02  0.25363773092E+03  0.19900000000E+03 0.  0.
   -5000001    1    1    2    0    0  0.13396297513E+03 -0.73887073168E+02 -0.61013765842E+03  0.65975324214E+03  0.19900000000E+03 0.  0.
<mgrwt>
<rscale>  0 0.71071805E+03</rscale>
<asrwt>0</asrwt>
<pdfrwt beam="1">  1        2 0.24261697E-01 0.71071805E+03</pdfrwt>
<pdfrwt beam="2">  1       -2 0.10622273E+00 0.71071805E+03</pdfrwt>
<totfact> 0.16381156E+02</totfact>
</mgrwt>
</event>
<event>
 4    1  0.4998754E-005  0.5062820E+03  0.7818608E-02  0.1012152E+00
         -2   -1    0    0    0  501 -0.00000000000E+00  0.00000000000E+00  0.16861552625E+02  0.16861552818E+02  0.25500000000E-02 0. -1.
          2   -1    0    0  501    0  0.00000000000E+00 -0.00000000000E+00 -0.38003835286E+04  0.38003835286E+04  0.25500000000E-02 0.  1.
    5000001    1    1    2    0    0 -0.40433254546E+02  0.13301666774E+03 -0.13506243715E+04  0.13722665466E+04  0.19900000000E+03 0.  0.
   -5000001    1    1    2    0    0  0.40433254546E+02 -0.13301666774E+03 -0.24328976045E+04  0.24449785348E+04  0.19900000000E+03 0.  0.
<mgrwt>
<rscale>  0 0.50628201E+03</rscale>
<asrwt>0</asrwt>
<pdfrwt beam="1">  1        2 0.54291139E+00 0.50628201E+03</pdfrwt>
<pdfrwt beam="2">  1       -2 0.24087957E-02 0.50628201E+03</pdfrwt>
<totfact> 0.54476818E+02</totfact>
</mgrwt>
</event>
<event>
 4    1  0.4998754E-005  0.4600490E+03  0.7818608E-02  0.1024767E+00
          2   -1    0    0  501    0  0.00000000000E+00  0.00000000000E+00  0.81683300917E+03  0.81683300918E+03  0.25500000000E-02 0.  1.
         -2   -1    0    0    0  501 -0.00000000000E+00 -0.00000000000E+00 -0.64776122024E+02  0.64776122074E+02  0.25500000000E-02 0. -1.
    5000001    1    1    2    0    0  0.59431173890E+02  0.81005654044E+02  0.48470850150E+03  0.53351411588E+03  0.19900000000E+03 0.  0.
   -5000001    1    1    2    0    0 -0.59431173890E+02 -0.81005654044E+02  0.26734838565E+03  0.34809501537E+03  0.19900000000E+03 0.  0.
<mgrwt>
<rscale>  0 0.46004902E+03</rscale>
<asrwt>0</asrwt>
<pdfrwt beam="1">  1        2 0.11669043E+00 0.46004902E+03</pdfrwt>
<pdfrwt beam="2">  1       -2 0.92537320E-02 0.46004902E+03</pdfrwt>
<totfact> 0.28681083E+03</totfact>
</mgrwt>
</event>
<event>
 4    1  0.4998754E-005  0.7311926E+03  0.7818608E-02  0.9665327E-01
          2   -1    0    0  501    0  0.00000000000E+00  0.00000000000E+00  0.82196676445E+03  0.82196676446E+03  0.25500000000E-02 0.  1.
         -2   -1    0    0    0  501 -0.00000000000E+00 -0.00000000000E+00 -0.16261076141E+03  0.16261076143E+03  0.25500000000E-02 0. -1.
    5000001    1    1    2    0    0 -0.13205208624E+03 -0.27383327308E+03  0.38416244698E+03  0.52877613467E+03  0.19900000000E+03 0.  0.
   -5000001    1    1    2    0    0  0.13205208624E+03  0.27383327308E+03  0.27519355607E+03  0.45580139121E+03  0.19900000000E+03 0.  0.
<mgrwt>
<rscale>  0 0.73119256E+03</rscale>
<asrwt>0</asrwt>
<pdfrwt beam="1">  1        2 0.11742383E+00 0.73119256E+03</pdfrwt>
<pdfrwt beam="2">  1       -2 0.23230108E-01 0.73119256E+03</pdfrwt>
<totfact> 0.60235988E+02</totfact>
</mgrwt>
</event>
<event>
 4    1  0.4998754E-005  0.7583558E+03  0.7818608E-02  0.9622332E-01
         -2   -1    0    0    0  501 -0.00000000000E+00  0.00000000000E+00  0.86993776661E+02  0.86993776698E+02  0.25500000000E-02 0. -1.
          2   -1    0    0  501    0  0.00000000000E+00 -0.00000000000E+00 -0.16527147192E+04  0.16527147192E+04  0.25500000000E-02 0.  1.
    5000001    1    1    2    0    0  0.28136383978E+03 -0.14053532779E+03 -0.61649644142E+03  0.72012821843E+03  0.19900000000E+03 0.  0.
   -5000001    1    1    2    0    0 -0.28136383978E+03  0.14053532779E+03 -0.94922450112E+03  0.10195802775E+04  0.19900000000E+03 0.  0.
<mgrwt>
<rscale>  0 0.75835584E+03</rscale>
<asrwt>0</asrwt>
<pdfrwt beam="1">  1        2 0.23610208E+00 0.75835584E+03</pdfrwt>
<pdfrwt beam="2">  1       -2 0.12427683E-01 0.75835584E+03</pdfrwt>
<totfact> 0.59009849E+02</totfact>
</mgrwt>
</event>
<event>
 4    1  0.4998754E-005  0.8452271E+03  0.7818608E-02  0.9496765E-01
          2   -1    0    0  501    0  0.00000000000E+00  0.00000000000E+00  0.54117135440E+03  0.54117135441E+03  0.25500000000E-02 0.  1.
         -2   -1    0    0    0  501 -0.00000000000E+00 -0.00000000000E+00 -0.33002895756E+03  0.33002895757E+03  0.25500000000E-02 0. -1.
    5000001    1    1    2    0    0  0.11104611573E+03 -0.34524580588E+03  0.16454465868E+02  0.41400199969E+03  0.19900000000E+03 0.  0.
   -5000001    1    1    2    0    0 -0.11104611573E+03  0.34524580588E+03  0.19468793097E+03  0.45719831229E+03  0.19900000000E+03 0.  0.
<mgrwt>
<rscale>  0 0.84522711E+03</rscale>
<asrwt>0</asrwt>
<pdfrwt beam="1">  1        2 0.77310193E-01 0.84522711E+03</pdfrwt>
<pdfrwt beam="2">  1       -2 0.47146994E-01 0.84522711E+03</pdfrwt>
<totfact> 0.26243141E+02</totfact>
</mgrwt>
</event>
<event>
 4    1  0.4998754E-005  0.7492703E+03  0.7818608E-02  0.9636496E-01
         -2   -1    0    0    0  501 -0.00000000000E+00  0.00000000000E+00  0.46484976926E+03  0.46484976927E+03  0.25500000000E-02 0. -1.
          2   -1    0    0  501    0  0.00000000000E+00 -0.00000000000E+00 -0.30192869213E+03  0.30192869214E+03  0.25500000000E-02 0.  1.
    5000001    1    1    2    0    0  0.24003609537E+03  0.84916893148E+02 -0.11249997966E+03  0.34217751423E+03  0.19900000000E+03 0.  0.
   -5000001    1    1    2    0    0 -0.24003609537E+03 -0.84916893148E+02  0.27542105679E+03  0.42460094718E+03  0.19900000000E+03 0.  0.
<mgrwt>
<rscale>  0 0.74927027E+03</rscale>
<asrwt>0</asrwt>
<pdfrwt beam="1">  1        2 0.43132671E-01 0.74927027E+03</pdfrwt>
<pdfrwt beam="2">  1       -2 0.66407109E-01 0.74927027E+03</pdfrwt>
<totfact> 0.24891443E+02</totfact>
</mgrwt>
</event>
<event>
 4    1  0.4998754E-005  0.5048404E+03  0.7818608E-02  0.1012523E+00
          2   -1    0    0  501    0  0.00000000000E+00  0.00000000000E+00  0.91538533225E+03  0.91538533226E+03  0.25500000000E-02 0.  1.
         -2   -1    0    0    0  501 -0.00000000000E+00 -0.00000000000E+00 -0.69605617735E+02  0.69605617781E+02  0.25500000000E-02 0. -1.
    5000001    1    1    2    0    0 -0.36966035805E+02  0.12501982555E+03  0.25827353836E+03  0.35114479236E+03  0.19900000000E+03 0.  0.
   -5000001    1    1    2    0    0  0.36966035805E+02 -0.12501982555E+03  0.58750617616E+03  0.63384615768E+03  0.19900000000E+03 0.  0.
<mgrwt>
<rscale>  0 0.50484042E+03</rscale>
<asrwt>0</asrwt>
<pdfrwt beam="1">  1        2 0.13076933E+00 0.50484042E+03</pdfrwt>
<pdfrwt beam="2">  1       -2 0.99436601E-02 0.50484042E+03</pdfrwt>
<totfact> 0.22026019E+03</totfact>
</mgrwt>
</event>
<event>
 4    1  0.4998754E-005  0.7018449E+03  0.7818608E-02  0.9714082E-01
         -2   -1    0    0    0  501 -0.00000000000E+00  0.00000000000E+00  0.27165021526E+03  0.27165021528E+03  0.25500000000E-02 0. -1.
          2   -1    0    0  501    0  0.00000000000E+00 -0.00000000000E+00 -0.45332771595E+03  0.45332771595E+03  0.25500000000E-02 0.  1.
    5000001    1    1    2    0    0 -0.27023082188E+03 -0.25613594101E+02  0.11756716966E+02  0.33677882014E+03  0.19900000000E+03 0.  0.
   -5000001    1    1    2    0    0  0.27023082188E+03  0.25613594101E+02 -0.19343421765E+03  0.38819911109E+03  0.19900000000E+03 0.  0.
<mgrwt>
<rscale>  0 0.70184492E+03</rscale>
<asrwt>0</asrwt>
<pdfrwt beam="1">  1        2 0.64761102E-01 0.70184492E+03</pdfrwt>
<pdfrwt beam="2">  1       -2 0.38807174E-01 0.70184492E+03</pdfrwt>
<totfact> 0.47418683E+02</totfact>
</mgrwt>
</event>
<event>
 4    1  0.4998754E-005  0.1238610E+04  0.7818608E-02  0.9079716E-01
          2   -1    0    0  501    0  0.00000000000E+00  0.00000000000E+00  0.15877495588E+04  0.15877495588E+04  0.25500000000E-02 0.  1.
         -2   -1    0    0    0  501 -0.00000000000E+00 -0.00000000000E+00 -0.24156138158E+03  0.24156138160E+03  0.25500000000E-02 0. -1.
    5000001    1    1    2    0    0  0.28077438721E+03 -0.25371395159E+03  0.13347955872E+04  0.14016009723E+04  0.19900000000E+03 0.  0.
   -5000001    1    1    2    0    0 -0.28077438721E+03  0.25371395159E+03  0.11392589985E+02  0.42770996814E+03  0.19900000000E+03 0.  0.
<mgrwt>
<rscale>  0 0.12386105E+04</rscale>
<asrwt>0</asrwt>
<pdfrwt beam="1">  1        2 0.22682136E+00 0.12386105E+04</pdfrwt>
<pdfrwt beam="2">  1       -2 0.34508770E-01 0.12386105E+04</pdfrwt>
<totfact> 0.10168847E+02</totfact>
</mgrwt>
</event>
<event>
 4    1  0.4998754E-005  0.6828502E+03  0.7818608E-02  0.9747019E-01
          2   -1    0    0  501    0  0.00000000000E+00  0.00000000000E+00  0.15548320700E+04  0.15548320700E+04  0.25500000000E-02 0.  1.
         -2   -1    0    0    0  501 -0.00000000000E+00 -0.00000000000E+00 -0.74973433072E+02  0.74973433116E+02  0.25500000000E-02 0. -1.
    5000001    1    1    2    0    0  0.26342719749E+03  0.87033768933E+02  0.73717380472E+03  0.81240075313E+03  0.19900000000E+03 0.  0.
   -5000001    1    1    2    0    0 -0.26342719749E+03 -0.87033768933E+02  0.74268483217E+03  0.81740474996E+03  0.19900000000E+03 0.  0.
<mgrwt>
<rscale>  0 0.68285020E+03</rscale>
<asrwt>0</asrwt>
<pdfrwt beam="1">  1        2 0.22211886E+00 0.68285020E+03</pdfrwt>
<pdfrwt beam="2">  1       -2 0.10710491E-01 0.68285020E+03</pdfrwt>
<totfact> 0.85013180E+02</totfact>
</mgrwt>
</event>
<event>
 4    1  0.4998754E-005  0.4875493E+03  0.7818608E-02  0.1017081E+00
         -2   -1    0    0    0  501 -0.00000000000E+00  0.00000000000E+00  0.76132476516E+02  0.76132476559E+02  0.25500000000E-02 0. -1.
          2   -1    0    0  501    0  0.00000000000E+00 -0.00000000000E+00 -0.78056154185E+03  0.78056154185E+03  0.25500000000E-02 0.  1.
    5000001    1    1    2    0    0  0.74151098295E+02  0.11567583233E+03 -0.40625346673E+03  0.47278130546E+03  0.19900000000E+03 0.  0.
   -5000001    1    1    2    0    0 -0.74151098295E+02 -0.11567583233E+03 -0.29817559860E+03  0.38391271295E+03  0.19900000000E+03 0.  0.
<mgrwt>
<rscale>  0 0.48754931E+03</rscale>
<asrwt>0</asrwt>
<pdfrwt beam="1">  1        2 0.11150879E+00 0.48754931E+03</pdfrwt>
<pdfrwt beam="2">  1       -2 0.10876069E-01 0.48754931E+03</pdfrwt>
<totfact> 0.23419334E+03</totfact>
</mgrwt>
</event>
<event>
 4    1  0.4998754E-005  0.5321787E+03  0.7818608E-02  0.1005705E+00
          2   -1    0    0  501    0  0.00000000000E+00  0.00000000000E+00  0.32521181640E+04  0.32521181640E+04  0.25500000000E-02 0.  1.
         -2   -1    0    0    0  501 -0.00000000000E+00 -0.00000000000E+00 -0.21771511933E+02  0.21771512082E+02  0.25500000000E-02 0. -1.
    5000001    1    1    2    0    0  0.15530235966E+03 -0.28870286060E+02  0.21015290268E+04  0.21168319647E+04  0.19900000000E+03 0.  0.
   -5000001    1    1    2    0    0 -0.15530235966E+03  0.28870286060E+02  0.11288176253E+04  0.11570577114E+04  0.19900000000E+03 0.  0.
<mgrwt>
<rscale>  0 0.53217865E+03</rscale>
<asrwt>0</asrwt>
<pdfrwt beam="1">  1        2 0.46458797E+00 0.53217865E+03</pdfrwt>
<pdfrwt beam="2">  1       -2 0.31102183E-02 0.53217865E+03</pdfrwt>
<totfact> 0.78298850E+02</totfact>
</mgrwt>
</event>
<event>
 4    1  0.4998754E-005  0.6967553E+03  0.7818608E-02  0.9722797E-01
          2   -1    0    0  501    0  0.00000000000E+00  0.00000000000E+00  0.54855699557E+03  0.54855699558E+03  0.25500000000E-02 0.  1.
         -2   -1    0    0    0  501 -0.00000000000E+00 -0.00000000000E+00 -0.22124771689E+03  0.22124771690E+03  0.25500000000E-02 0. -1.
    5000001    1    1    2    0    0  0.42527791255E+02  0.28276510477E+03  0.16241182377E+03  0.38437392993E+03  0.19900000000E+03 0.  0.
   -5000001    1    1    2    0    0 -0.42527791255E+02 -0.28276510477E+03  0.16489745491E+03  0.38543078256E+03  0.19900000000E+03 0.  0.
<mgrwt>
<rscale>  0 0.69675529E+03</rscale>
<asrwt>0</asrwt>
<pdfrwt beam="1">  1        2 0.78365285E-01 0.69675529E+03</pdfrwt>
<pdfrwt beam="2">  1       -2 0.31606817E-01 0.69675529E+03</pdfrwt>
<totfact> 0.56331219E+02</totfact>
</mgrwt>
</event>
<event>
 4    1  0.4998754E-005  0.6974251E+03  0.7818608E-02  0.9721646E-01
         -2   -1    0    0    0  501 -0.00000000000E+00  0.00000000000E+00  0.61121198573E+02  0.61121198627E+02  0.25500000000E-02 0. -1.
          2   -1    0    0  501    0  0.00000000000E+00 -0.00000000000E+00 -0.19894972550E+04  0.19894972550E+04  0.25500000000E-02 0.  1.
    5000001    1    1    2    0    0  0.21574620542E+03  0.10877942008E+03 -0.14160729470E+04  0.14502561769E+04  0.19900000000E+03 0.  0.
   -5000001    1    1    2    0    0 -0.21574620542E+03 -0.10877942008E+03 -0.51230310935E+03  0.60036227666E+03  0.19900000000E+03 0.  0.
<mgrwt>
<rscale>  0 0.69742514E+03</rscale>
<asrwt>0</asrwt>
<pdfrwt beam="1">  1        2 0.28421385E+00 0.69742514E+03</pdfrwt>
<pdfrwt beam="2">  1       -2 0.87316011E-02 0.69742514E+03</pdfrwt>
<totfact> 0.71038323E+02</totfact>
</mgrwt>
</event>
<event>
 4    1  0.4998754E-005  0.4905046E+03  0.7818608E-02  0.1016287E+00
         -2   -1    0    0    0  501 -0.00000000000E+00  0.00000000000E+00  0.69460045352E+02  0.69460045399E+02  0.25500000000E-02 0. -1.
          2   -1    0    0  501    0  0.00000000000E+00 -0.00000000000E+00 -0.86594660387E+03  0.86594660387E+03  0.25500000000E-02 0.  1.
    5000001    1    1    2    0    0  0.86902242844E+02  0.49593620248E+02 -0.20249470024E+03  0.30102596334E+03  0.19900000000E+03 0.  0.
   -5000001    1    1    2    0    0 -0.86902242844E+02 -0.49593620248E+02 -0.59399185827E+03  0.63438068593E+03  0.19900000000E+03 0.  0.
<mgrwt>
<rscale>  0 0.49050460E+03</rscale>
<asrwt>0</asrwt>
<pdfrwt beam="1">  1        2 0.12370665E+00 0.49050460E+03</pdfrwt>
<pdfrwt beam="2">  1       -2 0.99228641E-02 0.49050460E+03</pdfrwt>
<totfact> 0.23784186E+03</totfact>
</mgrwt>
</event>
<event>
 4    1  0.4998754E-005  0.6000491E+03  0.7818608E-02  0.9905304E-01
          2   -1    0    0  501    0  0.00000000000E+00  0.00000000000E+00  0.19713068422E+04  0.19713068422E+04  0.25500000000E-02 0.  1.
         -2   -1    0    0    0  501 -0.00000000000E+00 -0.00000000000E+00 -0.45662460676E+02  0.45662460747E+02  0.25500000000E-02 0. -1.
    5000001    1    1    2    0    0  0.17814458226E+03 -0.10343686769E+03  0.66256878836E+03  0.72182620977E+03  0.19900000000E+03 0.  0.
   -5000001    1    1    2    0    0 -0.17814458226E+03  0.10343686769E+03  0.12630755932E+04  0.12951430932E+04  0.19900000000E+03 0.  0.
<mgrwt>
<rscale>  0 0.60004907E+03</rscale>
<asrwt>0</asrwt>
<pdfrwt beam="1">  1        2 0.28161524E+00 0.60004907E+03</pdfrwt>
<pdfrwt beam="2">  1       -2 0.65232092E-02 0.60004907E+03</pdfrwt>
<totfact> 0.11600614E+03</totfact>
</mgrwt>
</event>
<event>
 4    1  0.4998754E-005  0.4625857E+03  0.7818608E-02  0.1024034E+00
         -2   -1    0    0    0  501 -0.00000000000E+00  0.00000000000E+00  0.78704467393E+02  0.78704467434E+02  0.25500000000E-02 0. -1.
          2   -1    0    0  501    0  0.00000000000E+00 -0.00000000000E+00 -0.67971204080E+03  0.67971204080E+03  0.25500000000E-02 0.  1.
    5000001    1    1    2    0    0  0.11087503507E+03 -0.15213573919E+02 -0.36120237160E+03  0.42730888065E+03  0.19900000000E+03 0.  0.
   -5000001    1    1    2    0    0 -0.11087503507E+03  0.15213573919E+02 -0.23980520180E+03  0.33110762758E+03  0.19900000000E+03 0.  0.
<mgrwt>
<rscale>  0 0.46258566E+03</rscale>
<asrwt>0</asrwt>
<pdfrwt beam="1">  1        2 0.97101717E-01 0.46258566E+03</pdfrwt>
<pdfrwt beam="2">  1       -2 0.11243496E-01 0.46258566E+03</pdfrwt>
<totfact> 0.26289973E+03</totfact>
</mgrwt>
</event>
<event>
 4    1  0.4998754E-005  0.7573516E+03  0.7818608E-02  0.9623887E-01
          2   -1    0    0  501    0  0.00000000000E+00  0.00000000000E+00  0.91024838830E+03  0.91024838831E+03  0.25500000000E-02 0.  1.
         -2   -1    0    0    0  501 -0.00000000000E+00 -0.00000000000E+00 -0.15753430962E+03  0.15753430964E+03  0.25500000000E-02 0. -1.
    5000001    1    1    2    0    0 -0.13281987453E+03  0.28883460274E+03  0.44999334282E+03  0.58579992778E+03  0.19900000000E+03 0.  0.
   -5000001    1    1    2    0    0  0.13281987453E+03 -0.28883460274E+03  0.30272073587E+03  0.48198277016E+03  0.19900000000E+03 0.  0.
<mgrwt>
<rscale>  0 0.75735157E+03</rscale>
<asrwt>0</asrwt>
<pdfrwt beam="1">  1        2 0.13003548E+00 0.75735157E+03</pdfrwt>
<pdfrwt beam="2">  1       -2 0.22504902E-01 0.75735157E+03</pdfrwt>
<totfact> 0.55621115E+02</totfact>
</mgrwt>
</event>
<event>
 4    1  0.4998754E-005  0.6887734E+03  0.7818608E-02  0.9736626E-01
         -2   -1    0    0    0  501 -0.00000000000E+00  0.00000000000E+00  0.10288842347E+03  0.10288842350E+03  0.25500000000E-02 0. -1.
          2   -1    0    0  501    0  0.00000000000E+00 -0.00000000000E+00 -0.11527264276E+04  0.11527264276E+04  0.25500000000E-02 0.  1.
    5000001    1    1    2    0    0 -0.15328525528E+03  0.23408683678E+03 -0.47640641739E+03  0.58724534155E+03  0.19900000000E+03 0.  0.
   -5000001    1    1    2    0    0  0.15328525528E+03 -0.23408683678E+03 -0.57343158676E+03  0.66836950958E+03  0.19900000000E+03 0.  0.
<mgrwt>
<rscale>  0 0.68877342E+03</rscale>
<asrwt>0</asrwt>
<pdfrwt beam="1">  1        2 0.16467520E+00 0.68877342E+03</pdfrwt>
<pdfrwt beam="2">  1       -2 0.14698347E-01 0.68877342E+03</pdfrwt>
<totfact> 0.83011076E+02</totfact>
</mgrwt>
</event>
<event>
 4    1  0.4998754E-005  0.5411881E+03  0.7818608E-02  0.1003554E+00
          2   -1    0    0  501    0  0.00000000000E+00  0.00000000000E+00  0.75507849970E+03  0.75507849970E+03  0.25500000000E-02 0.  1.
         -2   -1    0    0    0  501 -0.00000000000E+00 -0.00000000000E+00 -0.96971555852E+02  0.96971555885E+02  0.25500000000E-02 0. -1.
    5000001    1    1    2    0    0  0.86327413757E+02 -0.11451593420E+03  0.50893460412E+03  0.56496172686E+03  0.19900000000E+03 0.  0.
   -5000001    1    1    2    0    0 -0.86327413757E+02  0.11451593420E+03  0.14917233973E+03  0.28708832873E+03  0.19900000000E+03 0.  0.
<mgrwt>
<rscale>  0 0.54118809E+03</rscale>
<asrwt>0</asrwt>
<pdfrwt beam="1">  1        2 0.10786835E+00 0.54118809E+03</pdfrwt>
<pdfrwt beam="2">  1       -2 0.13853080E-01 0.54118809E+03</pdfrwt>
<totfact> 0.16400531E+03</totfact>
</mgrwt>
</event>
<event>
 4    1  0.4998754E-005  0.1463636E+04  0.7818608E-02  0.8909001E-01
          2   -1    0    0  501    0  0.00000000000E+00  0.00000000000E+00  0.39287909626E+04  0.39287909626E+04  0.25500000000E-02 0. -1.
         -2   -1    0    0    0  501 -0.00000000000E+00 -0.00000000000E+00 -0.13631607695E+03  0.13631607698E+03  0.25500000000E-02 0.  1.
    5000001    1    1    2    0    0  0.55996069318E+03  0.15044492559E+03  0.30063886765E+04  0.30682508906E+04  0.19900000000E+03 0.  0.
   -5000001    1    1    2    0    0 -0.55996069318E+03 -0.15044492559E+03  0.78608620916E+03  0.99685614899E+03  0.19900000000E+03 0.  0.
<mgrwt>
<rscale>  0 0.14636357E+04</rscale>
<asrwt>0</asrwt>
<pdfrwt beam="1">  1        2 0.56125578E+00 0.14636357E+04</pdfrwt>
<pdfrwt beam="2">  1       -2 0.19473728E-01 0.14636357E+04</pdfrwt>
<totfact> 0.14096573E+01</totfact>
</mgrwt>
</event>
<event>
 4    1  0.4998754E-005  0.6301707E+03  0.7818608E-02  0.9844716E-01
         -2   -1    0    0    0  501 -0.00000000000E+00  0.00000000000E+00  0.11261933080E+03  0.11261933083E+03  0.25500000000E-02 0. -1.
          2   -1    0    0  501    0  0.00000000000E+00 -0.00000000000E+00 -0.88154289566E+03  0.88154289567E+03  0.25500000000E-02 0.  1.
    5000001    1    1    2    0    0 -0.12431935960E+03  0.13099033766E+03 -0.12492730888E+03  0.29634710094E+03  0.19900000000E+03 0.  0.
   -5000001    1    1    2    0    0  0.12431935960E+03 -0.13099033766E+03 -0.64399625598E+03  0.69781512555E+03  0.19900000000E+03 0.  0.
<mgrwt>
<rscale>  0 0.63017068E+03</rscale>
<asrwt>0</asrwt>
<pdfrwt beam="1">  1        2 0.12593470E+00 0.63017068E+03</pdfrwt>
<pdfrwt beam="2">  1       -2 0.16088476E-01 0.63017068E+03</pdfrwt>
<totfact> 0.10436202E+03</totfact>
</mgrwt>
</event>
<event>
 4    1  0.4998754E-005  0.4610795E+03  0.7818608E-02  0.1024469E+00
         -2   -1    0    0    0  501 -0.00000000000E+00  0.00000000000E+00  0.22127537500E+02  0.22127537647E+02  0.25500000000E-02 0. -1.
          2   -1    0    0  501    0  0.00000000000E+00 -0.00000000000E+00 -0.24019197086E+04  0.24019197086E+04  0.25500000000E-02 0.  1.
    5000001    1    1    2    0    0 -0.32813550407E+02  0.75483845951E+02 -0.75722611876E+03  0.78725277708E+03  0.19900000000E+03 0.  0.
   -5000001    1    1    2    0    0  0.32813550407E+02 -0.75483845951E+02 -0.16225660524E+04  0.16367944692E+04  0.19900000000E+03 0.  0.
<mgrwt>
<rscale>  0 0.46107947E+03</rscale>
<asrwt>0</asrwt>
<pdfrwt beam="1">  1        2 0.34313122E+00 0.46107947E+03</pdfrwt>
<pdfrwt beam="2">  1       -2 0.31610783E-02 0.46107947E+03</pdfrwt>
<totfact> 0.21698990E+03</totfact>
</mgrwt>
</event>
<event>
 4    1  0.4998754E-005  0.7185338E+03  0.7818608E-02  0.9686051E-01
          2   -1    0    0  501    0  0.00000000000E+00  0.00000000000E+00  0.99432580080E+03  0.99432580080E+03  0.25500000000E-02 0.  1.
         -2   -1    0    0    0  501 -0.00000000000E+00 -0.00000000000E+00 -0.12980928544E+03  0.12980928546E+03  0.25500000000E-02 0. -1.
    5000001    1    1    2    0    0 -0.14001484888E+03  0.25096131932E+03  0.56208200844E+03  0.66190854800E+03  0.19900000000E+03 0.  0.
   -5000001    1    1    2    0    0  0.14001484888E+03 -0.25096131932E+03  0.30243450692E+03  0.46222653827E+03  0.19900000000E+03 0.  0.
<mgrwt>
<rscale>  0 0.71853385E+03</rscale>
<asrwt>0</asrwt>
<pdfrwt beam="1">  1        2 0.14204654E+00 0.71853385E+03</pdfrwt>
<pdfrwt beam="2">  1       -2 0.18544184E-01 0.71853385E+03</pdfrwt>
<totfact> 0.69224051E+02</totfact>
</mgrwt>
</event>
<event>
 4    1  0.4998754E-005  0.6184727E+03  0.7818608E-02  0.9867805E-01
         -2   -1    0    0    0  501 -0.00000000000E+00  0.00000000000E+00  0.25462963117E+03  0.25462963119E+03  0.25500000000E-02 0. -1.
          2   -1    0    0  501    0  0.00000000000E+00 -0.00000000000E+00 -0.37555379085E+03  0.37555379086E+03  0.25500000000E-02 0.  1.
    5000001    1    1    2    0    0  0.12535723379E+03  0.23165416461E+02 -0.26367522792E+03  0.35408572183E+03  0.19900000000E+03 0.  0.
   -5000001    1    1    2    0    0 -0.12535723379E+03 -0.23165416461E+02  0.14275106824E+03  0.27609770022E+03  0.19900000000E+03 0.  0.
<mgrwt>
<rscale>  0 0.61847271E+03</rscale>
<asrwt>0</asrwt>
<pdfrwt beam="1">  1        2 0.53650542E-01 0.61847271E+03</pdfrwt>
<pdfrwt beam="2">  1       -2 0.36375662E-01 0.61847271E+03</pdfrwt>
<totfact> 0.66387334E+02</totfact>
</mgrwt>
</event>
<event>
 4    1  0.4998754E-005  0.1134077E+04  0.7818608E-02  0.9172600E-01
          2   -1    0    0  501    0  0.00000000000E+00  0.00000000000E+00  0.23729167349E+03  0.23729167351E+03  0.25500000000E-02 0.  1.
         -2   -1    0    0    0  501 -0.00000000000E+00 -0.00000000000E+00 -0.13550097729E+04  0.13550097729E+04  0.25500000000E-02 0. -1.
    5000001    1    1    2    0    0  0.25483389553E+03 -0.46372448154E+03 -0.62087341017E+03  0.83968178529E+03  0.19900000000E+03 0.  0.
   -5000001    1    1    2    0    0 -0.25483389553E+03  0.46372448154E+03 -0.49684468926E+03  0.75261966114E+03  0.19900000000E+03 0.  0.
<mgrwt>
<rscale>  0 0.11340768E+04</rscale>
<asrwt>0</asrwt>
<pdfrwt beam="1">  1        2 0.33898811E-01 0.11340768E+04</pdfrwt>
<pdfrwt beam="2">  1       -2 0.19357282E+00 0.11340768E+04</pdfrwt>
<totfact> 0.22554096E+01</totfact>
</mgrwt>
</event>
<event>
 4    1  0.4998754E-005  0.6075371E+03  0.7818608E-02  0.9889891E-01
          2   -1    0    0  501    0  0.00000000000E+00  0.00000000000E+00  0.28663053554E+04  0.28663053554E+04  0.25500000000E-02 0.  1.
         -2   -1    0    0    0  501 -0.00000000000E+00 -0.00000000000E+00 -0.32193123733E+02  0.32193123834E+02  0.25500000000E-02 0. -1.
    5000001    1    1    2    0    0 -0.15510109207E+03 -0.59041164559E+02  0.21733921902E+04  0.21887843248E+04  0.19900000000E+03 0.  0.
   -5000001    1    1    2    0    0  0.15510109207E+03  0.59041164559E+02  0.66072004144E+03  0.70971415446E+03  0.19900000000E+03 0.  0.
<mgrwt>
<rscale>  0 0.60753707E+03</rscale>
<asrwt>0</asrwt>
<pdfrwt beam="1">  1        2 0.40947242E+00 0.60753707E+03</pdfrwt>
<pdfrwt beam="2">  1       -2 0.45990152E-02 0.60753707E+03</pdfrwt>
<totfact> 0.69505971E+02</totfact>
</mgrwt>
</event>
<event>
 4    1  0.4998754E-005  0.6775683E+03  0.7818608E-02  0.9756382E-01
         -2   -1    0    0    0  501 -0.00000000000E+00  0.00000000000E+00  0.10579712381E+04  0.10579712381E+04  0.25500000000E-02 0. -1.
          2   -1    0    0  501    0  0.00000000000E+00 -0.00000000000E+00 -0.10848563807E+03  0.10848563810E+03  0.25500000000E-02 0.  1.
    5000001    1    1    2    0    0  0.25507419147E+03 -0.70719037312E+01  0.64741902270E+03  0.72378535902E+03  0.19900000000E+03 0.  0.
   -5000001    1    1    2    0    0 -0.25507419147E+03  0.70719037312E+01  0.30206657734E+03  0.44267151718E+03  0.19900000000E+03 0.  0.
<mgrwt>
<rscale>  0 0.67756825E+03</rscale>
<asrwt>0</asrwt>
<pdfrwt beam="1">  1        2 0.15497948E-01 0.67756825E+03</pdfrwt>
<pdfrwt beam="2">  1       -2 0.15113875E+00 0.67756825E+03</pdfrwt>
<totfact> 0.11478660E+02</totfact>
</mgrwt>
</event>
<event>
 4    1  0.4998754E-005  0.6656020E+03  0.7818608E-02  0.9777936E-01
          2   -1    0    0  501    0  0.00000000000E+00  0.00000000000E+00  0.30352443381E+04  0.30352443381E+04  0.25500000000E-02 0.  1.
         -2   -1    0    0    0  501 -0.00000000000E+00 -0.00000000000E+00 -0.36490142192E+02  0.36490142281E+02  0.25500000000E-02 0. -1.
    5000001    1    1    2    0    0 -0.25894177993E+03 -0.63878905963E+02  0.15220504715E+04  0.15580019248E+04  0.19900000000E+03 0.  0.
   -5000001    1    1    2    0    0  0.25894177993E+03  0.63878905963E+02  0.14767037244E+04  0.15137325555E+04  0.19900000000E+03 0.  0.
<mgrwt>
<rscale>  0 0.66560198E+03</rscale>
<asrwt>0</asrwt>
<pdfrwt beam="1">  1        2 0.43360627E+00 0.66560198E+03</pdfrwt>
<pdfrwt beam="2">  1       -2 0.52128782E-02 0.66560198E+03</pdfrwt>
<totfact> 0.46110566E+02</totfact>
</mgrwt>
</event>
<event>
 4    1  0.4998754E-005  0.5144851E+03  0.7818608E-02  0.1010066E+00
          2   -1    0    0  501    0  0.00000000000E+00  0.00000000000E+00  0.27429046603E+03  0.27429046604E+03  0.25500000000E-02 0.  1.
         -2   -1    0    0    0  501 -0.00000000000E+00 -0.00000000000E+00 -0.24125416312E+03  0.24125416314E+03  0.25500000000E-02 0. -1.
    5000001    1    1    2    0    0  0.80267785855E+02  0.61301875815E+02 -0.11169801137E+03  0.24955617237E+03  0.19900000000E+03 0.  0.
   -5000001    1    1    2    0    0 -0.80267785855E+02 -0.61301875815E+02  0.14473431428E+03  0.26598845681E+03  0.19900000000E+03 0.  0.
<mgrwt>
<rscale>  0 0.51448505E+03</rscale>
<asrwt>0</asrwt>
<pdfrwt beam="1">  1        2 0.39184352E-01 0.51448505E+03</pdfrwt>
<pdfrwt beam="2">  1       -2 0.34464880E-01 0.51448505E+03</pdfrwt>
<totfact> 0.10408914E+03</totfact>
</mgrwt>
</event>
<event>
 4    1  0.4998754E-005  0.9131306E+03  0.7818608E-02  0.9409315E-01
         -2   -1    0    0    0  501 -0.00000000000E+00  0.00000000000E+00  0.78949582430E+02  0.78949582471E+02  0.25500000000E-02 0. -1.
          2   -1    0    0  501    0  0.00000000000E+00 -0.00000000000E+00 -0.26403165951E+04  0.26403165951E+04  0.25500000000E-02 0.  1.
    5000001    1    1    2    0    0  0.44539871825E+02  0.40849072518E+03 -0.12853161050E+04  0.13639966871E+04  0.19900000000E+03 0.  0.
   -5000001    1    1    2    0    0 -0.44539871825E+02 -0.40849072518E+03 -0.12760509076E+04  0.13552694904E+04  0.19900000000E+03 0.  0.
<mgrwt>
<rscale>  0 0.91313064E+03</rscale>
<asrwt>0</asrwt>
<pdfrwt beam="1">  1        2 0.37718803E+00 0.91313064E+03</pdfrwt>
<pdfrwt beam="2">  1       -2 0.11278513E-01 0.91313064E+03</pdfrwt>
<totfact> 0.21375221E+02</totfact>
</mgrwt>
</event>
<event>
 4    1  0.4998754E-005  0.4965132E+03  0.7818608E-02  0.1014693E+00
          2   -1    0    0  501    0  0.00000000000E+00  0.00000000000E+00  0.33083778766E+04  0.33083778766E+04  0.25500000000E-02 0.  1.
         -2   -1    0    0    0  501 -0.00000000000E+00 -0.00000000000E+00 -0.18628871823E+02  0.18628871998E+02  0.25500000000E-02 0. -1.
    5000001    1    1    2    0    0  0.95317710744E+02 -0.92534993588E+02  0.12012997647E+04  0.12248960428E+04  0.19900000000E+03 0.  0.
   -5000001    1    1    2    0    0 -0.95317710744E+02  0.92534993588E+02  0.20884492401E+04  0.21021107058E+04  0.19900000000E+03 0.  0.
<mgrwt>
<rscale>  0 0.49651323E+03</rscale>
<asrwt>0</asrwt>
<pdfrwt beam="1">  1        2 0.47262528E+00 0.49651323E+03</pdfrwt>
<pdfrwt beam="2">  1       -2 0.26612681E-02 0.49651323E+03</pdfrwt>
<totfact> 0.92451864E+02</totfact>
</mgrwt>
</event>
<event>
 4    1  0.4998754E-005  0.1252943E+04  0.7818608E-02  0.9067737E-01
         -2   -1    0    0    0  501 -0.00000000000E+00  0.00000000000E+00  0.17418625122E+03  0.17418625124E+03  0.25500000000E-02 0. -1.
          2   -1    0    0  501    0  0.00000000000E+00 -0.00000000000E+00 -0.22531429565E+04  0.22531429565E+04  0.25500000000E-02 0.  1.
    5000001    1    1    2    0    0 -0.39161968211E+03 -0.39474302169E+03 -0.63459842679E+03  0.86689341437E+03  0.19900000000E+03 0.  0.
   -5000001    1    1    2    0    0  0.39161968211E+03  0.39474302169E+03 -0.14443582785E+04  0.15604357934E+04  0.19900000000E+03 0.  0.
<mgrwt>
<rscale>  0 0.12529430E+04</rscale>
<asrwt>0</asrwt>
<pdfrwt beam="1">  1        2 0.32187755E+00 0.12529430E+04</pdfrwt>
<pdfrwt beam="2">  1       -2 0.24883751E-01 0.12529430E+04</pdfrwt>
<totfact> 0.84614216E+01</totfact>
</mgrwt>
</event>
<event>
 4    1  0.4998754E-005  0.4652550E+03  0.7818608E-02  0.1023268E+00
          2   -1    0    0  501    0  0.00000000000E+00  0.00000000000E+00  0.91268791362E+02  0.91268791398E+02  0.25500000000E-02 0.  1.
         -2   -1    0    0    0  501 -0.00000000000E+00 -0.00000000000E+00 -0.59292497080E+03  0.59292497080E+03  0.25500000000E-02 0. -1.
    5000001    1    1    2    0    0 -0.50756753713E+02 -0.91039622227E+02 -0.16198174600E+03  0.27695405196E+03  0.19900000000E+03 0.  0.
   -5000001    1    1    2    0    0  0.50756753713E+02  0.91039622227E+02 -0.33967443344E+03  0.40723971024E+03  0.19900000000E+03 0.  0.
<mgrwt>
<rscale>  0 0.46525496E+03</rscale>
<asrwt>0</asrwt>
<pdfrwt beam="1">  1        2 0.13038399E-01 0.46525496E+03</pdfrwt>
<pdfrwt beam="2">  1       -2 0.84703565E-01 0.46525496E+03</pdfrwt>
<totfact> 0.58268168E+02</totfact>
</mgrwt>
</event>
<event>
 4    1  0.4998754E-005  0.9659219E+03  0.7818608E-02  0.9346731E-01
          2   -1    0    0  501    0  0.00000000000E+00  0.00000000000E+00  0.18301416258E+04  0.18301416258E+04  0.25500000000E-02 0.  1.
         -2   -1    0    0    0  501 -0.00000000000E+00 -0.00000000000E+00 -0.12744985689E+03  0.12744985691E+03  0.25500000000E-02 0. -1.
    5000001    1    1    2    0    0  0.23792092295E+03  0.28594678986E+03  0.37485169924E+03  0.56434628433E+03  0.19900000000E+03 0.  0.
   -5000001    1    1    2    0    0 -0.23792092295E+03 -0.28594678986E+03  0.13278400697E+04  0.13932451984E+04  0.19900000000E+03 0.  0.
<mgrwt>
<rscale>  0 0.96592192E+03</rscale>
<asrwt>0</asrwt>
<pdfrwt beam="1">  1        2 0.26144880E+00 0.96592192E+03</pdfrwt>
<pdfrwt beam="2">  1       -2 0.18207123E-01 0.96592192E+03</pdfrwt>
<totfact> 0.24737304E+02</totfact>
</mgrwt>
</event>
<event>
 4    1  0.4998754E-005  0.7816351E+03  0.7818608E-02  0.9586987E-01
         -2   -1    0    0    0  501 -0.00000000000E+00  0.00000000000E+00  0.54081345830E+02  0.54081345890E+02  0.25500000000E-02 0. -1.
          2   -1    0    0  501    0  0.00000000000E+00 -0.00000000000E+00 -0.28242335502E+04  0.28242335502E+04  0.25500000000E-02 0.  1.
    5000001    1    1    2    0    0  0.11084838517E+03  0.31573029941E+03 -0.12594213773E+04  0.13182246364E+04  0.19900000000E+03 0.  0.
   -5000001    1    1    2    0    0 -0.11084838517E+03 -0.31573029941E+03 -0.15107308271E+04  0.15600902597E+04  0.19900000000E+03 0.  0.
<mgrwt>
<rscale>  0 0.78163508E+03</rscale>
<asrwt>0</asrwt>
<pdfrwt beam="1">  1        2 0.40346184E+00 0.78163508E+03</pdfrwt>
<pdfrwt beam="2">  1       -2 0.77259083E-02 0.78163508E+03</pdfrwt>
<totfact> 0.31906739E+02</totfact>
</mgrwt>
</event>
<event>
 4    1  0.4998754E-005  0.5120019E+03  0.7818608E-02  0.1010693E+00
          2   -1    0    0  501    0  0.00000000000E+00  0.00000000000E+00  0.28535825708E+03  0.28535825709E+03  0.25500000000E-02 0.  1.
         -2   -1    0    0    0  501 -0.00000000000E+00 -0.00000000000E+00 -0.22966388434E+03  0.22966388435E+03  0.25500000000E-02 0. -1.
    5000001    1    1    2    0    0 -0.14999280288E+03  0.58630239014E+02  0.27470930073E+02  0.25747038246E+03  0.19900000000E+03 0.  0.
   -5000001    1    1    2    0    0  0.14999280288E+03 -0.58630239014E+02  0.28223442673E+02  0.25755175899E+03  0.19900000000E+03 0.  0.
<mgrwt>
<rscale>  0 0.51200190E+03</rscale>
<asrwt>0</asrwt>
<pdfrwt beam="1">  1        2 0.40765465E-01 0.51200190E+03</pdfrwt>
<pdfrwt beam="2">  1       -2 0.32809126E-01 0.51200190E+03</pdfrwt>
<totfact> 0.10930123E+03</totfact>
</mgrwt>
</event>
<event>
 4    1  0.4998754E-005  0.5717818E+03  0.7818608E-02  0.9965743E-01
          2   -1    0    0  501    0  0.00000000000E+00  0.00000000000E+00  0.87352885479E+03  0.87352885479E+03  0.25500000000E-02 0.  1.
         -2   -1    0    0    0  501 -0.00000000000E+00 -0.00000000000E+00 -0.93567161763E+02  0.93567161798E+02  0.25500000000E-02 0. -1.
    5000001    1    1    2    0    0  0.20033867882E+03  0.30800811033E+02  0.44474422277E+03  0.52771460078E+03  0.19900000000E+03 0.  0.
   -5000001    1    1    2    0    0 -0.20033867882E+03 -0.30800811033E+02  0.33521747026E+03  0.43938141581E+03  0.19900000000E+03 0.  0.
<mgrwt>
<rscale>  0 0.57178183E+03</rscale>
<asrwt>0</asrwt>
<pdfrwt beam="1">  1        2 0.12478984E+00 0.57178183E+03</pdfrwt>
<pdfrwt beam="2">  1       -2 0.13366737E-01 0.57178183E+03</pdfrwt>
<totfact> 0.14435734E+03</totfact>
</mgrwt>
</event>
<event>
 4    1  0.4998754E-005  0.5120752E+03  0.7818608E-02  0.1010674E+00
          2   -1    0    0  501    0  0.00000000000E+00  0.00000000000E+00  0.35247301898E+03  0.35247301899E+03  0.25500000000E-02 0.  1.
         -2   -1    0    0    0  501 -0.00000000000E+00 -0.00000000000E+00 -0.18598655403E+03  0.18598655405E+03  0.25500000000E-02 0. -1.
    5000001    1    1    2    0    0 -0.18260800331E+02 -0.11450058060E+03 -0.34369687789E+02  0.23286501503E+03  0.19900000000E+03 0.  0.
   -5000001    1    1    2    0    0  0.18260800331E+02  0.11450058060E+03  0.20085615274E+03  0.30559455800E+03  0.19900000000E+03 0.  0.
<mgrwt>
<rscale>  0 0.51207516E+03</rscale>
<asrwt>0</asrwt>
<pdfrwt beam="1">  1        2 0.50353288E-01 0.51207516E+03</pdfrwt>
<pdfrwt beam="2">  1       -2 0.26569508E-01 0.51207516E+03</pdfrwt>
<totfact> 0.12767365E+03</totfact>
</mgrwt>
</event>
<event>
 4    1  0.4998754E-005  0.4335833E+03  0.7818608E-02  0.1032734E+00
         -2   -1    0    0    0  501 -0.00000000000E+00  0.00000000000E+00  0.21045536423E+04  0.21045536423E+04  0.25500000000E-02 0. -1.
          2   -1    0    0  501    0  0.00000000000E+00 -0.00000000000E+00 -0.22331866280E+02  0.22331866426E+02  0.25500000000E-02 0.  1.
    5000001    1    1    2    0    0  0.62519224484E+02  0.90352934442E+01  0.13274483120E+04  0.13437672087E+04  0.19900000000E+03 0.  0.
   -5000001    1    1    2    0    0 -0.62519224484E+02 -0.90352934442E+01  0.75477346398E+03  0.78311830006E+03  0.19900000000E+03 0.  0.
<mgrwt>
<rscale>  0 0.43358326E+03</rscale>
<asrwt>0</asrwt>
<pdfrwt beam="1">  1        2 0.31902663E-02 0.43358326E+03</pdfrwt>
<pdfrwt beam="2">  1       -2 0.30065055E+00 0.43358326E+03</pdfrwt>
<totfact> 0.10305180E+02</totfact>
</mgrwt>
</event>
<event>
 4    1  0.4998754E-005  0.4414996E+03  0.7818608E-02  0.1030288E+00
         -2   -1    0    0    0  501 -0.00000000000E+00  0.00000000000E+00  0.91019064376E+02  0.91019064412E+02  0.25500000000E-02 0. -1.
          2   -1    0    0  501    0  0.00000000000E+00 -0.00000000000E+00 -0.53538756608E+03  0.53538756608E+03  0.25500000000E-02 0.  1.
    5000001    1    1    2    0    0  0.36706274010E+02  0.85514422230E+02 -0.25292408022E+03  0.33500993615E+03  0.19900000000E+03 0.  0.
   -5000001    1    1    2    0    0 -0.36706274010E+02 -0.85514422230E+02 -0.19144442148E+03  0.29139669435E+03  0.19900000000E+03 0.  0.
<mgrwt>
<rscale>  0 0.44149961E+03</rscale>
<asrwt>0</asrwt>
<pdfrwt beam="1">  1        2 0.76483936E-01 0.44149961E+03</pdfrwt>
<pdfrwt beam="2">  1       -2 0.13002724E-01 0.44149961E+03</pdfrwt>
<totfact> 0.27371254E+03</totfact>
</mgrwt>
</event>
<event>
 4    1  0.4998754E-005  0.4735894E+03  0.7818608E-02  0.1020912E+00
         -2   -1    0    0    0  501 -0.00000000000E+00  0.00000000000E+00  0.41773543285E+02  0.41773543363E+02  0.25500000000E-02 0. -1.
          2   -1    0    0  501    0  0.00000000000E+00 -0.00000000000E+00 -0.13422783118E+04  0.13422783118E+04  0.25500000000E-02 0.  1.
    5000001    1    1    2    0    0 -0.80511176148E+02  0.24433520167E+02 -0.36703367068E+03  0.42590346536E+03  0.19900000000E+03 0.  0.
   -5000001    1    1    2    0    0  0.80511176148E+02 -0.24433520167E+02 -0.93347109781E+03  0.95814838978E+03  0.19900000000E+03 0.  0.
<mgrwt>
<rscale>  0 0.47358936E+03</rscale>
<asrwt>0</asrwt>
<pdfrwt beam="1">  1        2 0.19175402E+00 0.47358936E+03</pdfrwt>
<pdfrwt beam="2">  1       -2 0.59676499E-02 0.47358936E+03</pdfrwt>
<totfact> 0.28093374E+03</totfact>
</mgrwt>
</event>
<event>
 4    1  0.4998754E-005  0.5362557E+03  0.7818608E-02  0.1004726E+00
         -2   -1    0    0    0  501 -0.00000000000E+00  0.00000000000E+00  0.23467507991E+02  0.23467508129E+02  0.25500000000E-02 0. -1.
          2   -1    0    0  501    0  0.00000000000E+00 -0.00000000000E+00 -0.30634924355E+04  0.30634924355E+04  0.25500000000E-02 0.  1.
    5000001    1    1    2    0    0 -0.13410467329E+03  0.19347222982E+02 -0.84052126076E+03  0.87431994614E+03  0.19900000000E+03 0.  0.
   -5000001    1    1    2    0    0  0.13410467329E+03 -0.19347222982E+02 -0.21995036667E+04  0.22126399975E+04  0.19900000000E+03 0.  0.
<mgrwt>
<rscale>  0 0.53625566E+03</rscale>
<asrwt>0</asrwt>
<pdfrwt beam="1">  1        2 0.43764152E+00 0.53625566E+03</pdfrwt>
<pdfrwt beam="2">  1       -2 0.33525031E-02 0.53625566E+03</pdfrwt>
<totfact> 0.88896470E+02</totfact>
</mgrwt>
</event>
<event>
 4    1  0.4998754E-005  0.6499825E+03  0.7818608E-02  0.9806812E-01
          2   -1    0    0  501    0  0.00000000000E+00  0.00000000000E+00  0.44037244184E+04  0.44037244184E+04  0.25500000000E-02 0.  1.
         -2   -1    0    0    0  501 -0.00000000000E+00 -0.00000000000E+00 -0.23984089324E+02  0.23984089459E+02  0.25500000000E-02 0. -1.
    5000001    1    1    2    0    0 -0.37005360147E+01 -0.25645396139E+03  0.22945169345E+04  0.23173673189E+04  0.19900000000E+03 0.  0.
   -5000001    1    1    2    0    0  0.37005360147E+01  0.25645396139E+03  0.20852233946E+04  0.21103411889E+04  0.19900000000E+03 0.  0.
<mgrwt>
<rscale>  0 0.64998252E+03</rscale>
<asrwt>0</asrwt>
<pdfrwt beam="1">  1        2 0.62910332E+00 0.64998252E+03</pdfrwt>
<pdfrwt beam="2">  1       -2 0.34262994E-02 0.64998252E+03</pdfrwt>
<totfact> 0.12025452E+02</totfact>
</mgrwt>
</event>
<event>
 4    1  0.4998754E-005  0.4676383E+03  0.7818608E-02  0.1022589E+00
          2   -1    0    0  501    0  0.00000000000E+00  0.00000000000E+00  0.10552653974E+04  0.10552653974E+04  0.25500000000E-02 0.  1.
         -2   -1    0    0    0  501 -0.00000000000E+00 -0.00000000000E+00 -0.51808201190E+02  0.51808201252E+02  0.25500000000E-02 0. -1.
    5000001    1    1    2    0    0 -0.83783842850E+01 -0.12247438672E+03  0.50059491257E+03  0.55250922094E+03  0.19900000000E+03 0.  0.
   -5000001    1    1    2    0    0  0.83783842850E+01  0.12247438672E+03  0.50286228362E+03  0.55456437770E+03  0.19900000000E+03 0.  0.
<mgrwt>
<rscale>  0 0.46763833E+03</rscale>
<asrwt>0</asrwt>
<pdfrwt beam="1">  1        2 0.15075219E+00 0.46763833E+03</pdfrwt>
<pdfrwt beam="2">  1       -2 0.74011719E-02 0.46763833E+03</pdfrwt>
<totfact> 0.28976644E+03</totfact>
</mgrwt>
</event>
<event>
 4    1  0.4998754E-005  0.4257055E+03  0.7818608E-02  0.1035225E+00
         -2   -1    0    0    0  501 -0.00000000000E+00  0.00000000000E+00  0.14884959518E+03  0.14884959520E+03  0.25500000000E-02 0. -1.
          2   -1    0    0  501    0  0.00000000000E+00 -0.00000000000E+00 -0.30437639427E+03  0.30437639428E+03  0.25500000000E-02 0.  1.
    5000001    1    1    2    0    0 -0.36029563606E+02  0.61916404852E+02 -0.52266669361E+02  0.21786366234E+03  0.19900000000E+03 0.  0.
   -5000001    1    1    2    0    0  0.36029563606E+02 -0.61916404852E+02 -0.10326012973E+03  0.23536232714E+03  0.19900000000E+03 0.  0.
<mgrwt>
<rscale>  0 0.42570555E+03</rscale>
<asrwt>0</asrwt>
<pdfrwt beam="1">  1        2 0.43482342E-01 0.42570555E+03</pdfrwt>
<pdfrwt beam="2">  1       -2 0.21264228E-01 0.42570555E+03</pdfrwt>
<totfact> 0.22226802E+03</totfact>
</mgrwt>
</event>
<event>
 4    1  0.4998754E-005  0.5457774E+03  0.7818608E-02  0.1002476E+00
         -2   -1    0    0    0  501 -0.00000000000E+00  0.00000000000E+00  0.11860381375E+03  0.11860381378E+03  0.25500000000E-02 0. -1.
          2   -1    0    0  501    0  0.00000000000E+00 -0.00000000000E+00 -0.62787399750E+03  0.62787399751E+03  0.25500000000E-02 0.  1.
    5000001    1    1    2    0    0  0.14665686527E+03  0.35657780489E+02 -0.40500822331E+03  0.47582809332E+03  0.19900000000E+03 0.  0.
   -5000001    1    1    2    0    0 -0.14665686527E+03 -0.35657780489E+02 -0.10426196044E+03  0.27064971797E+03  0.19900000000E+03 0.  0.
<mgrwt>
<rscale>  0 0.54577743E+03</rscale>
<asrwt>0</asrwt>
<pdfrwt beam="1">  1        2 0.89696283E-01 0.54577743E+03</pdfrwt>
<pdfrwt beam="2">  1       -2 0.16943402E-01 0.54577743E+03</pdfrwt>
<totfact> 0.14618924E+03</totfact>
</mgrwt>
</event>
<event>
 4    1  0.4998754E-005  0.7456465E+03  0.7818608E-02  0.9642205E-01
         -2   -1    0    0    0  501 -0.00000000000E+00  0.00000000000E+00  0.84077371051E+02  0.84077371089E+02  0.25500000000E-02 0. -1.
          2   -1    0    0  501    0  0.00000000000E+00 -0.00000000000E+00 -0.16532056102E+04  0.16532056102E+04  0.25500000000E-02 0.  1.
    5000001    1    1    2    0    0 -0.10450473480E+03 -0.20170462724E+03 -0.12939031177E+04  0.13286806518E+04  0.19900000000E+03 0.  0.
   -5000001    1    1    2    0    0  0.10450473480E+03  0.20170462724E+03 -0.27522512140E+03  0.40860232953E+03  0.19900000000E+03 0.  0.
<mgrwt>
<rscale>  0 0.74564652E+03</rscale>
<asrwt>0</asrwt>
<pdfrwt beam="1">  1        2 0.23617221E+00 0.74564652E+03</pdfrwt>
<pdfrwt beam="2">  1       -2 0.12011054E-01 0.74564652E+03</pdfrwt>
<totfact> 0.62443601E+02</totfact>
</mgrwt>
</event>
<event>
 4    1  0.4998754E-005  0.6473016E+03  0.7818608E-02  0.9811856E-01
         -2   -1    0    0    0  501 -0.00000000000E+00  0.00000000000E+00  0.14745684599E+03  0.14745684601E+03  0.25500000000E-02 0. -1.
          2   -1    0    0  501    0  0.00000000000E+00 -0.00000000000E+00 -0.71037621989E+03  0.71037621989E+03  0.25500000000E-02 0.  1.
    5000001    1    1    2    0    0  0.26400643545E+02  0.13776828197E+03  0.11368996040E+01  0.24347358386E+03  0.19900000000E+03 0.  0.
   -5000001    1    1    2    0    0 -0.26400643545E+02 -0.13776828197E+03 -0.56405627350E+03  0.61435948204E+03  0.19900000000E+03 0.  0.
<mgrwt>
<rscale>  0 0.64730159E+03</rscale>
<asrwt>0</asrwt>
<pdfrwt beam="1">  1        2 0.10148231E+00 0.64730159E+03</pdfrwt>
<pdfrwt beam="2">  1       -2 0.21065264E-01 0.64730159E+03</pdfrwt>
<totfact> 0.86316412E+02</totfact>
</mgrwt>
</event>
<event>
 4    1  0.4998754E-005  0.9833562E+03  0.7818608E-02  0.9326990E-01
         -2   -1    0    0    0  501 -0.00000000000E+00  0.00000000000E+00  0.33492667001E+03  0.33492667002E+03  0.25500000000E-02 0. -1.
          2   -1    0    0  501    0  0.00000000000E+00 -0.00000000000E+00 -0.72179183039E+03  0.72179183039E+03  0.25500000000E-02 0.  1.
    5000001    1    1    2    0    0  0.41703745626E+03  0.60124168034E+02 -0.36201592845E+03  0.59007769654E+03  0.19900000000E+03 0.  0.
   -5000001    1    1    2    0    0 -0.41703745626E+03 -0.60124168034E+02 -0.24849231930E+02  0.46664080387E+03  0.19900000000E+03 0.  0.
<mgrwt>
<rscale>  0 0.98335616E+03</rscale>
<asrwt>0</asrwt>
<pdfrwt beam="1">  1        2 0.10311312E+00 0.98335616E+03</pdfrwt>
<pdfrwt beam="2">  1       -2 0.47846667E-01 0.98335616E+03</pdfrwt>
<totfact> 0.17908076E+02</totfact>
</mgrwt>
</event>
<event>
 4    1  0.4998754E-005  0.5521361E+03  0.7818608E-02  0.1001001E+00
         -2   -1    0    0    0  501 -0.00000000000E+00  0.00000000000E+00  0.55264719197E+02  0.55264719256E+02  0.25500000000E-02 0. -1.
          2   -1    0    0  501    0  0.00000000000E+00 -0.00000000000E+00 -0.13790636993E+04  0.13790636993E+04  0.25500000000E-02 0.  1.
    5000001    1    1    2    0    0 -0.15243042645E+02 -0.18300215847E+03 -0.52223579691E+03  0.58826300914E+03  0.19900000000E+03 0.  0.
   -5000001    1    1    2    0    0  0.15243042645E+02  0.18300215847E+03 -0.80156318316E+03  0.84606540938E+03  0.19900000000E+03 0.  0.
<mgrwt>
<rscale>  0 0.55213610E+03</rscale>
<asrwt>0</asrwt>
<pdfrwt beam="1">  1        2 0.19700908E+00 0.55213610E+03</pdfrwt>
<pdfrwt beam="2">  1       -2 0.78949607E-02 0.55213610E+03</pdfrwt>
<totfact> 0.17268891E+03</totfact>
</mgrwt>
</event>
<event>
 4    1  0.4998754E-005  0.9509065E+03  0.7818608E-02  0.9364092E-01
          2   -1    0    0  501    0  0.00000000000E+00  0.00000000000E+00  0.98127730514E+03  0.98127730514E+03  0.25500000000E-02 0. -1.
         -2   -1    0    0    0  501 -0.00000000000E+00 -0.00000000000E+00 -0.23036893546E+03  0.23036893547E+03  0.25500000000E-02 0.  1.
    5000001    1    1    2    0    0  0.33441154075E+02 -0.37362601981E+03  0.10294161561E+03  0.43693556698E+03  0.19900000000E+03 0.  0.
   -5000001    1    1    2    0    0 -0.33441154075E+02  0.37362601981E+03  0.64796675407E+03  0.77471067364E+03  0.19900000000E+03 0.  0.
<mgrwt>
<rscale>  0 0.95090653E+03</rscale>
<asrwt>0</asrwt>
<pdfrwt beam="1">  1        2 0.14018247E+00 0.95090653E+03</pdfrwt>
<pdfrwt beam="2">  1       -2 0.32909848E-01 0.95090653E+03</pdfrwt>
<totfact> 0.24802852E+02</totfact>
</mgrwt>
</event>
<event>
 4    1  0.4998754E-005  0.6404269E+03  0.7818608E-02  0.9824910E-01
          2   -1    0    0  501    0  0.00000000000E+00  0.00000000000E+00  0.20549537769E+04  0.20549537769E+04  0.25500000000E-02 0.  1.
         -2   -1    0    0    0  501 -0.00000000000E+00 -0.00000000000E+00 -0.49897306171E+02  0.49897306236E+02  0.25500000000E-02 0. -1.
    5000001    1    1    2    0    0  0.24571265152E+03  0.44809338159E+02  0.10798218109E+04  0.11260544956E+04  0.19900000000E+03 0.  0.
   -5000001    1    1    2    0    0 -0.24571265152E+03 -0.44809338159E+02  0.92523465986E+03  0.97879658750E+03  0.19900000000E+03 0.  0.
<mgrwt>
<rscale>  0 0.64042691E+03</rscale>
<asrwt>0</asrwt>
<pdfrwt beam="1">  1        2 0.29356473E+00 0.64042691E+03</pdfrwt>
<pdfrwt beam="2">  1       -2 0.71281889E-02 0.64042691E+03</pdfrwt>
<totfact> 0.91334098E+02</totfact>
</mgrwt>
</event>
<event>
 4    1  0.4998754E-005  0.8259713E+03  0.7818608E-02  0.9523167E-01
          2   -1    0    0  501    0  0.00000000000E+00  0.00000000000E+00  0.27946314315E+03  0.27946314317E+03  0.25500000000E-02 0.  1.
         -2   -1    0    0    0  501 -0.00000000000E+00 -0.00000000000E+00 -0.61030277088E+03  0.61030277089E+03  0.25500000000E-02 0. -1.
    5000001    1    1    2    0    0 -0.48026729514E+02 -0.35867440229E+03 -0.16703100228E+03  0.44548204153E+03  0.19900000000E+03 0.  0.
   -5000001    1    1    2    0    0  0.48026729514E+02  0.35867440229E+03 -0.16380862545E+03  0.44428387252E+03  0.19900000000E+03 0.  0.
<mgrwt>
<rscale>  0 0.82597126E+03</rscale>
<asrwt>0</asrwt>
<pdfrwt beam="1">  1        2 0.39923306E-01 0.82597126E+03</pdfrwt>
<pdfrwt beam="2">  1       -2 0.87186110E-01 0.82597126E+03</pdfrwt>
<totfact> 0.14770241E+02</totfact>
</mgrwt>
</event>
<event>
 4    1  0.4998754E-005  0.9325567E+03  0.7818608E-02  0.9385775E-01
          2   -1    0    0  501    0  0.00000000000E+00  0.00000000000E+00  0.14257410361E+04  0.14257410361E+04  0.25500000000E-02 0.  1.
         -2   -1    0    0    0  501 -0.00000000000E+00 -0.00000000000E+00 -0.15249298581E+03  0.15249298583E+03  0.25500000000E-02 0. -1.
    5000001    1    1    2    0    0 -0.14620133279E+03  0.39512258018E+03  0.66679503546E+03  0.81345762175E+03  0.19900000000E+03 0.  0.
   -5000001    1    1    2    0    0  0.14620133279E+03 -0.39512258018E+03  0.60645301484E+03  0.76477640018E+03  0.19900000000E+03 0.  0.
<mgrwt>
<rscale>  0 0.93255672E+03</rscale>
<asrwt>0</asrwt>
<pdfrwt beam="1">  1        2 0.20367730E+00 0.93255672E+03</pdfrwt>
<pdfrwt beam="2">  1       -2 0.21784711E-01 0.93255672E+03</pdfrwt>
<totfact> 0.29400426E+02</totfact>
</mgrwt>
</event>
<event>
 4    1  0.4998754E-005  0.1013119E+04  0.7818608E-02  0.9294272E-01
         -2   -1    0    0    0  501 -0.00000000000E+00  0.00000000000E+00  0.28768743979E+03  0.28768743981E+03  0.25500000000E-02 0. -1.
          2   -1    0    0  501    0  0.00000000000E+00 -0.00000000000E+00 -0.89194847991E+03  0.89194847991E+03  0.25500000000E-02 0.  1.
    5000001    1    1    2    0    0 -0.17420206732E+03 -0.42545490147E+03 -0.38959830224E+03  0.63462277815E+03  0.19900000000E+03 0.  0.
   -5000001    1    1    2    0    0  0.17420206732E+03  0.42545490147E+03 -0.21466273787E+03  0.54501314156E+03  0.19900000000E+03 0.  0.
<mgrwt>
<rscale>  0 0.10131187E+04</rscale>
<asrwt>0</asrwt>
<pdfrwt beam="1">  1        2 0.12742121E+00 0.10131187E+04</pdfrwt>
<pdfrwt beam="2">  1       -2 0.41098206E-01 0.10131187E+04</pdfrwt>
<totfact> 0.18390961E+02</totfact>
</mgrwt>
</event>
<event>
 4    1  0.4998754E-005  0.9455378E+03  0.7818608E-02  0.9370381E-01
         -2   -1    0    0    0  501 -0.00000000000E+00  0.00000000000E+00  0.82686389811E+02  0.82686389850E+02  0.25500000000E-02 0. -1.
          2   -1    0    0  501    0  0.00000000000E+00 -0.00000000000E+00 -0.27031100583E+04  0.27031100583E+04  0.25500000000E-02 0.  1.
    5000001    1    1    2    0    0  0.37404725890E+03  0.38297535752E+02 -0.70260152407E+03  0.82135738553E+03  0.19900000000E+03 0.  0.
   -5000001    1    1    2    0    0 -0.37404725890E+03 -0.38297535752E+02 -0.19178221444E+04  0.19644390626E+04  0.19900000000E+03 0.  0.
<mgrwt>
<rscale>  0 0.94553776E+03</rscale>
<asrwt>0</asrwt>
<pdfrwt beam="1">  1        2 0.38615852E+00 0.94553776E+03</pdfrwt>
<pdfrwt beam="2">  1       -2 0.11812343E-01 0.94553776E+03</pdfrwt>
<totfact> 0.18295413E+02</totfact>
</mgrwt>
</event>
<event>
 4    1  0.4998754E-005  0.1018881E+04  0.7818608E-02  0.9288075E-01
         -2   -1    0    0    0  501 -0.00000000000E+00  0.00000000000E+00  0.52321811284E+03  0.52321811285E+03  0.25500000000E-02 0. -1.
          2   -1    0    0  501    0  0.00000000000E+00 -0.00000000000E+00 -0.49602581283E+03  0.49602581284E+03  0.25500000000E-02 0.  1.
    5000001    1    1    2    0    0  0.45905742015E+03  0.95798157097E+02  0.17803336378E+02  0.50973420592E+03  0.19900000000E+03 0.  0.
   -5000001    1    1    2    0    0 -0.45905742015E+03 -0.95798157097E+02  0.93889636310E+01  0.50950971977E+03  0.19900000000E+03 0.  0.
<mgrwt>
<rscale>  0 0.10188811E+04</rscale>
<asrwt>0</asrwt>
<pdfrwt beam="1">  1        2 0.70860830E-01 0.10188811E+04</pdfrwt>
<pdfrwt beam="2">  1       -2 0.74745445E-01 0.10188811E+04</pdfrwt>
<totfact> 0.10884724E+02</totfact>
</mgrwt>
</event>
<event>
 4    1  0.4998754E-005  0.6707120E+03  0.7818608E-02  0.9768672E-01
          2   -1    0    0  501    0  0.00000000000E+00  0.00000000000E+00  0.57339795788E+03  0.57339795789E+03  0.25500000000E-02 0.  1.
         -2   -1    0    0    0  501 -0.00000000000E+00 -0.00000000000E+00 -0.19613542390E+03  0.19613542392E+03  0.25500000000E-02 0. -1.
    5000001    1    1    2    0    0 -0.15914274612E+03 -0.21278826519E+03  0.24314361364E+03  0.41149128338E+03  0.19900000000E+03 0.  0.
   -5000001    1    1    2    0    0  0.15914274612E+03  0.21278826519E+03  0.13411892034E+03  0.35804209842E+03  0.19900000000E+03 0.  0.
<mgrwt>
<rscale>  0 0.67071201E+03</rscale>
<asrwt>0</asrwt>
<pdfrwt beam="1">  1        2 0.81913994E-01 0.67071201E+03</pdfrwt>
<pdfrwt beam="2">  1       -2 0.28019346E-01 0.67071201E+03</pdfrwt>
<totfact> 0.66890300E+02</totfact>
</mgrwt>
</event>
<event>
 4    1  0.4998754E-005  0.1450489E+04  0.7818608E-02  0.8918061E-01
         -2   -1    0    0    0  501 -0.00000000000E+00  0.00000000000E+00  0.10911065755E+03  0.10911065758E+03  0.25500000000E-02 0. -1.
          2   -1    0    0  501    0  0.00000000000E+00 -0.00000000000E+00 -0.48206096994E+04  0.48206096994E+04  0.25500000000E-02 0.  1.
    5000001    1    1    2    0    0  0.52818632592E+02  0.68843097459E+03 -0.20218516415E+04  0.21457427794E+04  0.19900000000E+03 0.  0.
   -5000001    1    1    2    0    0 -0.52818632592E+02 -0.68843097459E+03 -0.26896474003E+04  0.27839775776E+04  0.19900000000E+03 0.  0.
<mgrwt>
<rscale>  0 0.14504894E+04</rscale>
<asrwt>0</asrwt>
<pdfrwt beam="1">  1        2 0.68865840E+00 0.14504894E+04</pdfrwt>
<pdfrwt beam="2">  1       -2 0.15587240E-01 0.14504894E+04</pdfrwt>
<totfact> 0.43098368E+00</totfact>
</mgrwt>
</event>
<event>
 4    1  0.4998754E-005  0.2115082E+04  0.7818608E-02  0.8554628E-01
         -2   -1    0    0    0  501 -0.00000000000E+00  0.00000000000E+00  0.40440531181E+03  0.40440531181E+03  0.25500000000E-02 0. -1.
          2   -1    0    0  501    0  0.00000000000E+00 -0.00000000000E+00 -0.27655257541E+04  0.27655257541E+04  0.25500000000E-02 0.  1.
    5000001    1    1    2    0    0 -0.79231801693E+03 -0.65820440442E+03 -0.13804671900E+04  0.17338660676E+04  0.19900000000E+03 0.  0.
   -5000001    1    1    2    0    0  0.79231801693E+03  0.65820440442E+03 -0.98065325231E+03  0.14360649983E+04  0.19900000000E+03 0.  0.
<mgrwt>
<rscale>  0 0.21150823E+04</rscale>
<asrwt>0</asrwt>
<pdfrwt beam="1">  1        2 0.39507510E+00 0.21150823E+04</pdfrwt>
<pdfrwt beam="2">  1       -2 0.57772189E-01 0.21150823E+04</pdfrwt>
<totfact> 0.82384568E+00</totfact>
</mgrwt>
</event>
<event>
 4    1  0.4998754E-005  0.7097963E+03  0.7818608E-02  0.9700624E-01
          2   -1    0    0  501    0  0.00000000000E+00  0.00000000000E+00  0.15224912065E+04  0.15224912065E+04  0.25500000000E-02 0.  1.
         -2   -1    0    0    0  501 -0.00000000000E+00 -0.00000000000E+00 -0.82728024081E+02  0.82728024120E+02  0.25500000000E-02 0. -1.
    5000001    1    1    2    0    0 -0.10897013505E+03  0.21594548890E+03  0.34250734693E+03  0.46413276895E+03  0.19900000000E+03 0.  0.
   -5000001    1    1    2    0    0  0.10897013505E+03 -0.21594548890E+03  0.10972558355E+04  0.11410864617E+04  0.19900000000E+03 0.  0.
<mgrwt>
<rscale>  0 0.70979628E+03</rscale>
<asrwt>0</asrwt>
<pdfrwt beam="1">  1        2 0.21749872E+00 0.70979628E+03</pdfrwt>
<pdfrwt beam="2">  1       -2 0.11818291E-01 0.70979628E+03</pdfrwt>
<totfact> 0.75095584E+02</totfact>
</mgrwt>
</event>
<event>
 4    1  0.4998754E-005  0.7214567E+03  0.7818608E-02  0.9681226E-01
          2   -1    0    0  501    0  0.00000000000E+00  0.00000000000E+00  0.42823620774E+03  0.42823620775E+03  0.25500000000E-02 0.  1.
         -2   -1    0    0    0  501 -0.00000000000E+00 -0.00000000000E+00 -0.30386255576E+03  0.30386255577E+03  0.25500000000E-02 0. -1.
    5000001    1    1    2    0    0  0.23925415165E+03  0.14203311089E+03 -0.53992144560E+02  0.34631215015E+03  0.19900000000E+03 0.  0.
   -5000001    1    1    2    0    0 -0.23925415165E+03 -0.14203311089E+03  0.17836579654E+03  0.38578661336E+03  0.19900000000E+03 0.  0.
<mgrwt>
<rscale>  0 0.72145672E+03</rscale>
<asrwt>0</asrwt>
<pdfrwt beam="1">  1        2 0.61176601E-01 0.72145672E+03</pdfrwt>
<pdfrwt beam="2">  1       -2 0.43408937E-01 0.72145672E+03</pdfrwt>
<totfact> 0.40584944E+02</totfact>
</mgrwt>
</event>
<event>
 4    1  0.4998754E-005  0.6327951E+03  0.7818608E-02  0.9839610E-01
         -2   -1    0    0    0  501 -0.00000000000E+00  0.00000000000E+00  0.41211793386E+03  0.41211793387E+03  0.25500000000E-02 0. -1.
          2   -1    0    0  501    0  0.00000000000E+00 -0.00000000000E+00 -0.24290961283E+03  0.24290961284E+03  0.25500000000E-02 0.  1.
    5000001    1    1    2    0    0 -0.13766726812E+03  0.14167756340E+03 -0.67111273656E+02  0.28832227061E+03  0.19900000000E+03 0.  0.
   -5000001    1    1    2    0    0  0.13766726812E+03 -0.14167756340E+03  0.23631959469E+03  0.36670527610E+03  0.19900000000E+03 0.  0.
<mgrwt>
<rscale>  0 0.63279509E+03</rscale>
<asrwt>0</asrwt>
<pdfrwt beam="1">  1        2 0.34701374E-01 0.63279509E+03</pdfrwt>
<pdfrwt beam="2">  1       -2 0.58873990E-01 0.63279509E+03</pdfrwt>
<totfact> 0.41072251E+02</totfact>
</mgrwt>
</event>
<event>
 4    1  0.4998754E-005  0.5584980E+03  0.7818608E-02  0.9995459E-01
         -2   -1    0    0    0  501 -0.00000000000E+00  0.00000000000E+00  0.61455734785E+02  0.61455734838E+02  0.25500000000E-02 0. -1.
          2   -1    0    0  501    0  0.00000000000E+00 -0.00000000000E+00 -0.12688806937E+04  0.12688806937E+04  0.25500000000E-02 0.  1.
    5000001    1    1    2    0    0 -0.11193591817E+02  0.18293002572E+03 -0.76857481597E+03  0.81479871045E+03  0.19900000000E+03 0.  0.
   -5000001    1    1    2    0    0  0.11193591817E+02 -0.18293002572E+03 -0.43885014291E+03  0.51553771805E+03  0.19900000000E+03 0.  0.
<mgrwt>
<rscale>  0 0.55849797E+03</rscale>
<asrwt>0</asrwt>
<pdfrwt beam="1">  1        2 0.18126865E+00 0.55849797E+03</pdfrwt>
<pdfrwt beam="2">  1       -2 0.87793915E-02 0.55849797E+03</pdfrwt>
<totfact> 0.16711796E+03</totfact>
</mgrwt>
</event>
<event>
 4    1  0.4998754E-005  0.4360620E+03  0.7818608E-02  0.1031962E+00
         -2   -1    0    0    0  501 -0.00000000000E+00  0.00000000000E+00  0.17609501475E+02  0.17609501660E+02  0.25500000000E-02 0. -1.
          2   -1    0    0  501    0  0.00000000000E+00 -0.00000000000E+00 -0.26995377138E+04  0.26995377138E+04  0.25500000000E-02 0.  1.
    5000001    1    1    2    0    0  0.47049392249E+02 -0.70563698643E+02 -0.11710442273E+04  0.11908561891E+04  0.19900000000E+03 0.  0.
   -5000001    1    1    2    0    0 -0.47049392249E+02  0.70563698643E+02 -0.15108839850E+04  0.15262910263E+04  0.19900000000E+03 0.  0.
<mgrwt>
<rscale>  0 0.43606198E+03</rscale>
<asrwt>0</asrwt>
<pdfrwt beam="1">  1        2 0.38564798E+00 0.43606198E+03</pdfrwt>
<pdfrwt beam="2">  1       -2 0.25156448E-02 0.43606198E+03</pdfrwt>
<totfact> 0.21604402E+03</totfact>
</mgrwt>
</event>
<event>
 4    1  0.4998754E-005  0.5019501E+03  0.7818608E-02  0.1013271E+00
          2   -1    0    0  501    0  0.00000000000E+00  0.00000000000E+00  0.13617388678E+04  0.13617388678E+04  0.25500000000E-02 0.  1.
         -2   -1    0    0    0  501 -0.00000000000E+00 -0.00000000000E+00 -0.46255919570E+02  0.46255919640E+02  0.25500000000E-02 0. -1.
    5000001    1    1    2    0    0  0.13219028658E+03 -0.53033235297E+02  0.81393732265E+03  0.84993044487E+03  0.19900000000E+03 0.  0.
   -5000001    1    1    2    0    0 -0.13219028658E+03  0.53033235297E+02  0.50154562558E+03  0.55806434257E+03  0.19900000000E+03 0.  0.
<mgrwt>
<rscale>  0 0.50195013E+03</rscale>
<asrwt>0</asrwt>
<pdfrwt beam="1">  1        2 0.19453412E+00 0.50195013E+03</pdfrwt>
<pdfrwt beam="2">  1       -2 0.66079888E-02 0.50195013E+03</pdfrwt>
<totfact> 0.23384837E+03</totfact>
</mgrwt>
</event>
<event>
 4    1  0.4998754E-005  0.4329554E+03  0.7818608E-02  0.1032930E+00
          2   -1    0    0  501    0  0.00000000000E+00  0.00000000000E+00  0.30541579149E+04  0.30541579149E+04  0.25500000000E-02 0.  1.
         -2   -1    0    0    0  501 -0.00000000000E+00 -0.00000000000E+00 -0.15343864499E+02  0.15343864711E+02  0.25500000000E-02 0. -1.
    5000001    1    1    2    0    0  0.81482303104E+02  0.20115381050E+01  0.13431363891E+04  0.13602425415E+04  0.19900000000E+03 0.  0.
   -5000001    1    1    2    0    0 -0.81482303104E+02 -0.20115381050E+01  0.16956776613E+04  0.17092592381E+04  0.19900000000E+03 0.  0.
<mgrwt>
<rscale>  0 0.43295536E+03</rscale>
<asrwt>0</asrwt>
<pdfrwt beam="1">  1        2 0.43630899E+00 0.43295536E+03</pdfrwt>
<pdfrwt beam="2">  1       -2 0.21919770E-02 0.43295536E+03</pdfrwt>
<totfact> 0.17234580E+03</totfact>
</mgrwt>
</event>
<event>
 4    1  0.4998754E-005  0.6635443E+03  0.7818608E-02  0.9781691E-01
          2   -1    0    0  501    0  0.00000000000E+00  0.00000000000E+00  0.37231156379E+03  0.37231156380E+03  0.25500000000E-02 0.  1.
         -2   -1    0    0    0  501 -0.00000000000E+00 -0.00000000000E+00 -0.29564692273E+03  0.29564692274E+03  0.25500000000E-02 0. -1.
    5000001    1    1    2    0    0  0.23456656486E+03 -0.11668357475E+03  0.81456987000E+02  0.33892885787E+03  0.19900000000E+03 0.  0.
   -5000001    1    1    2    0    0 -0.23456656486E+03  0.11668357475E+03 -0.47923459382E+01  0.32902962867E+03  0.19900000000E+03 0.  0.
<mgrwt>
<rscale>  0 0.66354433E+03</rscale>
<asrwt>0</asrwt>
<pdfrwt beam="1">  1        2 0.53187366E-01 0.66354433E+03</pdfrwt>
<pdfrwt beam="2">  1       -2 0.42235275E-01 0.66354433E+03</pdfrwt>
<totfact> 0.50152483E+02</totfact>
</mgrwt>
</event>
<event>
 4    1  0.4998754E-005  0.9530057E+03  0.7818608E-02  0.9361644E-01
         -2   -1    0    0    0  501 -0.00000000000E+00  0.00000000000E+00  0.20409151661E+03  0.20409151663E+03  0.25500000000E-02 0. -1.
          2   -1    0    0  501    0  0.00000000000E+00 -0.00000000000E+00 -0.11125154475E+04  0.11125154475E+04  0.25500000000E-02 0.  1.
    5000001    1    1    2    0    0  0.86675473533E+02  0.41746030938E+03 -0.35019985770E+03  0.58653788279E+03  0.19900000000E+03 0.  0.
   -5000001    1    1    2    0    0 -0.86675473533E+02 -0.41746030938E+03 -0.55822407315E+03  0.73006908130E+03  0.19900000000E+03 0.  0.
<mgrwt>
<rscale>  0 0.95300570E+03</rscale>
<asrwt>0</asrwt>
<pdfrwt beam="1">  1        2 0.15893078E+00 0.95300570E+03</pdfrwt>
<pdfrwt beam="2">  1       -2 0.29155931E-01 0.95300570E+03</pdfrwt>
<totfact> 0.25909650E+02</totfact>
</mgrwt>
</event>
<event>
 4    1  0.4998754E-005  0.4763835E+03  0.7818608E-02  0.1020134E+00
          2   -1    0    0  501    0  0.00000000000E+00  0.00000000000E+00  0.29433852124E+04  0.29433852124E+04  0.25500000000E-02 0.  1.
         -2   -1    0    0    0  501 -0.00000000000E+00 -0.00000000000E+00 -0.19275528703E+02  0.19275528871E+02  0.25500000000E-02 0. -1.
    5000001    1    1    2    0    0 -0.48621015166E+02  0.11450102383E+03  0.12086846226E+04  0.12312570830E+04  0.19900000000E+03 0.  0.
   -5000001    1    1    2    0    0  0.48621015166E+02 -0.11450102383E+03  0.17154250611E+04  0.17314036582E+04  0.19900000000E+03 0.  0.
<mgrwt>
<rscale>  0 0.47638349E+03</rscale>
<asrwt>0</asrwt>
<pdfrwt beam="1">  1        2 0.42048349E+00 0.47638349E+03</pdfrwt>
<pdfrwt beam="2">  1       -2 0.27536477E-02 0.47638349E+03</pdfrwt>
<totfact> 0.13988350E+03</totfact>
</mgrwt>
</event>
<event>
 4    1  0.4998754E-005  0.5442893E+03  0.7818608E-02  0.1002824E+00
          2   -1    0    0  501    0  0.00000000000E+00  0.00000000000E+00  0.73652278687E+03  0.73652278687E+03  0.25500000000E-02 0.  1.
         -2   -1    0    0    0  501 -0.00000000000E+00 -0.00000000000E+00 -0.10055725296E+03  0.10055725299E+03  0.25500000000E-02 0. -1.
    5000001    1    1    2    0    0  0.15146146113E+03  0.10532854551E+03  0.34976373704E+03  0.44268538315E+03  0.19900000000E+03 0.  0.
   -5000001    1    1    2    0    0 -0.15146146113E+03 -0.10532854551E+03  0.28620179687E+03  0.39439465671E+03  0.19900000000E+03 0.  0.
<mgrwt>
<rscale>  0 0.54428929E+03</rscale>
<asrwt>0</asrwt>
<pdfrwt beam="1">  1        2 0.10521754E+00 0.54428929E+03</pdfrwt>
<pdfrwt beam="2">  1       -2 0.14365322E-01 0.54428929E+03</pdfrwt>
<totfact> 0.15920805E+03</totfact>
</mgrwt>
</event>
<event>
 4    1  0.4998754E-005  0.7716024E+03  0.7818608E-02  0.9602056E-01
         -2   -1    0    0    0  501 -0.00000000000E+00  0.00000000000E+00  0.10294940439E+03  0.10294940442E+03  0.25500000000E-02 0. -1.
          2   -1    0    0  501    0  0.00000000000E+00 -0.00000000000E+00 -0.14457837475E+04  0.14457837475E+04  0.25500000000E-02 0.  1.
    5000001    1    1    2    0    0  0.18180043764E+03  0.18269567424E+03 -0.25611123531E+03  0.41427415242E+03  0.19900000000E+03 0.  0.
   -5000001    1    1    2    0    0 -0.18180043764E+03 -0.18269567424E+03 -0.10867231078E+04  0.11344589995E+04  0.19900000000E+03 0.  0.
<mgrwt>
<rscale>  0 0.77160243E+03</rscale>
<asrwt>0</asrwt>
<pdfrwt beam="1">  1        2 0.20654052E+00 0.77160243E+03</pdfrwt>
<pdfrwt beam="2">  1       -2 0.14707059E-01 0.77160243E+03</pdfrwt>
<totfact> 0.57054741E+02</totfact>
</mgrwt>
</event>
<event>
 4    1  0.4998754E-005  0.5656906E+03  0.7818608E-02  0.9979260E-01
         -2   -1    0    0    0  501 -0.00000000000E+00  0.00000000000E+00  0.22735888468E+02  0.22735888611E+02  0.25500000000E-02 0. -1.
          2   -1    0    0  501    0  0.00000000000E+00 -0.00000000000E+00 -0.35187307505E+04  0.35187307505E+04  0.25500000000E-02 0.  1.
    5000001    1    1    2    0    0  0.32510230604E+02 -0.13504138692E+03 -0.26575364361E+04  0.26685940119E+04  0.19900000000E+03 0.  0.
   -5000001    1    1    2    0    0 -0.32510230604E+02  0.13504138692E+03 -0.83845842593E+03  0.87287262719E+03  0.19900000000E+03 0.  0.
<mgrwt>
<rscale>  0 0.56569062E+03</rscale>
<asrwt>0</asrwt>
<pdfrwt beam="1">  1        2 0.50267547E+00 0.56569062E+03</pdfrwt>
<pdfrwt beam="2">  1       -2 0.32479863E-02 0.56569062E+03</pdfrwt>
<totfact> 0.51171577E+02</totfact>
</mgrwt>
</event>
<event>
 4    1  0.4998754E-005  0.8096469E+03  0.7818608E-02  0.9546158E-01
          2   -1    0    0  501    0  0.00000000000E+00  0.00000000000E+00  0.28353363558E+04  0.28353363558E+04  0.25500000000E-02 0.  1.
         -2   -1    0    0    0  501 -0.00000000000E+00 -0.00000000000E+00 -0.57799852746E+02  0.57799852802E+02  0.25500000000E-02 0. -1.
    5000001    1    1    2    0    0  0.31208736758E+03 -0.11084530767E+03  0.18204735967E+04  0.18610239986E+04  0.19900000000E+03 0.  0.
   -5000001    1    1    2    0    0 -0.31208736758E+03  0.11084530767E+03  0.95706290640E+03  0.10321122100E+04  0.19900000000E+03 0.  0.
<mgrwt>
<rscale>  0 0.80964690E+03</rscale>
<asrwt>0</asrwt>
<pdfrwt beam="1">  1        2 0.40504814E+00 0.80964690E+03</pdfrwt>
<pdfrwt beam="2">  1       -2 0.82571200E-02 0.80964690E+03</pdfrwt>
<totfact> 0.28220404E+02</totfact>
</mgrwt>
</event>
<event>
 4    1  0.4998754E-005  0.5726348E+03  0.7818608E-02  0.9963865E-01
         -2   -1    0    0    0  501 -0.00000000000E+00  0.00000000000E+00  0.83175618947E+02  0.83175618986E+02  0.25500000000E-02 0. -1.
          2   -1    0    0  501    0  0.00000000000E+00 -0.00000000000E+00 -0.98559723323E+03  0.98559723323E+03  0.25500000000E-02 0.  1.
    5000001    1    1    2    0    0 -0.16352619804E+03 -0.10245734634E+03 -0.58499932823E+03  0.64735117154E+03  0.19900000000E+03 0.  0.
   -5000001    1    1    2    0    0  0.16352619804E+03  0.10245734634E+03 -0.31742228605E+03  0.42142168068E+03  0.19900000000E+03 0.  0.
<mgrwt>
<rscale>  0 0.57263482E+03</rscale>
<asrwt>0</asrwt>
<pdfrwt beam="1">  1        2 0.14079960E+00 0.57263482E+03</pdfrwt>
<pdfrwt beam="2">  1       -2 0.11882232E-01 0.57263482E+03</pdfrwt>
<totfact> 0.14891454E+03</totfact>
</mgrwt>
</event>
<event>
 4    1  0.4998754E-005  0.7222616E+03  0.7818608E-02  0.9679901E-01
         -2   -1    0    0    0  501 -0.00000000000E+00  0.00000000000E+00  0.39823306121E+02  0.39823306203E+02  0.25500000000E-02 0. -1.
          2   -1    0    0  501    0  0.00000000000E+00 -0.00000000000E+00 -0.32748528510E+04  0.32748528510E+04  0.25500000000E-02 0.  1.
    5000001    1    1    2    0    0  0.80431257181E+02  0.28720374180E+03 -0.14196264012E+04  0.14642046630E+04  0.19900000000E+03 0.  0.
   -5000001    1    1    2    0    0 -0.80431257181E+02 -0.28720374180E+03 -0.18154031437E+04  0.18504714942E+04  0.19900000000E+03 0.  0.
<mgrwt>
<rscale>  0 0.72226164E+03</rscale>
<asrwt>0</asrwt>
<pdfrwt beam="1">  1        2 0.46783595E+00 0.72226164E+03</pdfrwt>
<pdfrwt beam="2">  1       -2 0.56890458E-02 0.72226164E+03</pdfrwt>
<totfact> 0.29362076E+02</totfact>
</mgrwt>
</event>
<event>
 4    1  0.4998754E-005  0.4511686E+03  0.7818608E-02  0.1027374E+00
         -2   -1    0    0    0  501 -0.00000000000E+00  0.00000000000E+00  0.45735105730E+02  0.45735105801E+02  0.25500000000E-02 0. -1.
          2   -1    0    0  501    0  0.00000000000E+00 -0.00000000000E+00 -0.11126742191E+04  0.11126742192E+04  0.25500000000E-02 0.  1.
    5000001    1    1    2    0    0 -0.10504469198E+03  0.99241669694E+01 -0.50156577294E+03  0.54982006237E+03  0.19900000000E+03 0.  0.
   -5000001    1    1    2    0    0  0.10504469198E+03 -0.99241669694E+01 -0.56537334048E+03  0.60858926258E+03  0.19900000000E+03 0.  0.
<mgrwt>
<rscale>  0 0.45116859E+03</rscale>
<asrwt>0</asrwt>
<pdfrwt beam="1">  1        2 0.15895344E+00 0.45116859E+03</pdfrwt>
<pdfrwt beam="2">  1       -2 0.65335872E-02 0.45116859E+03</pdfrwt>
<totfact> 0.32636922E+03</totfact>
</mgrwt>
</event>
<event>
 4    1  0.4998754E-005  0.5284041E+03  0.7818608E-02  0.1006620E+00
          2   -1    0    0  501    0  0.00000000000E+00  0.00000000000E+00  0.10017286923E+03  0.10017286926E+03  0.25500000000E-02 0.  1.
         -2   -1    0    0    0  501 -0.00000000000E+00 -0.00000000000E+00 -0.69682264600E+03  0.69682264601E+03  0.25500000000E-02 0. -1.
    5000001    1    1    2    0    0 -0.83080364093E+02 -0.64813230306E+02 -0.50676952005E+03  0.55454436087E+03  0.19900000000E+03 0.  0.
   -5000001    1    1    2    0    0  0.83080364093E+02  0.64813230306E+02 -0.89880256720E+02  0.24245115440E+03  0.19900000000E+03 0.  0.
<mgrwt>
<rscale>  0 0.52840410E+03</rscale>
<asrwt>0</asrwt>
<pdfrwt beam="1">  1        2 0.14310410E-01 0.52840410E+03</pdfrwt>
<pdfrwt beam="2">  1       -2 0.99546090E-01 0.52840410E+03</pdfrwt>
<totfact> 0.35856365E+02</totfact>
</mgrwt>
</event>
<event>
 4    1  0.4998754E-005  0.1154914E+04  0.7818608E-02  0.9153263E-01
         -2   -1    0    0    0  501 -0.00000000000E+00  0.00000000000E+00  0.17060781469E+03  0.17060781471E+03  0.25500000000E-02 0. -1.
          2   -1    0    0  501    0  0.00000000000E+00 -0.00000000000E+00 -0.19545196843E+04  0.19545196843E+04  0.25500000000E-02 0.  1.
    5000001    1    1    2    0    0  0.45715605720E+03  0.28447546728E+03 -0.10074179615E+04  0.11594869130E+04  0.19900000000E+03 0.  0.
   -5000001    1    1    2    0    0 -0.45715605720E+03 -0.28447546728E+03 -0.77649390807E+03  0.96564058603E+03  0.19900000000E+03 0.  0.
<mgrwt>
<rscale>  0 0.11549136E+04</rscale>
<asrwt>0</asrwt>
<pdfrwt beam="1">  1        2 0.27921708E+00 0.11549136E+04</pdfrwt>
<pdfrwt beam="2">  1       -2 0.24372546E-01 0.11549136E+04</pdfrwt>
<totfact> 0.12592127E+02</totfact>
</mgrwt>
</event>
<event>
 4    1  0.4998754E-005  0.6444466E+03  0.7818608E-02  0.9817256E-01
         -2   -1    0    0    0  501 -0.00000000000E+00  0.00000000000E+00  0.82438813817E+02  0.82438813856E+02  0.25500000000E-02 0. -1.
          2   -1    0    0  501    0  0.00000000000E+00 -0.00000000000E+00 -0.12594535611E+04  0.12594535611E+04  0.25500000000E-02 0.  1.
    5000001    1    1    2    0    0  0.19062563536E+03 -0.15106705709E+03 -0.44028072271E+03  0.54093206910E+03  0.19900000000E+03 0.  0.
   -5000001    1    1    2    0    0 -0.19062563536E+03  0.15106705709E+03 -0.73673402459E+03  0.80096030588E+03  0.19900000000E+03 0.  0.
<mgrwt>
<rscale>  0 0.64444661E+03</rscale>
<asrwt>0</asrwt>
<pdfrwt beam="1">  1        2 0.17992193E+00 0.64444661E+03</pdfrwt>
<pdfrwt beam="2">  1       -2 0.11776974E-01 0.64444661E+03</pdfrwt>
<totfact> 0.10472569E+03</totfact>
</mgrwt>
</event>
<event>
 4    1  0.4998754E-005  0.5409287E+03  0.7818608E-02  0.1003616E+00
          2   -1    0    0  501    0  0.00000000000E+00  0.00000000000E+00  0.45430419264E+04  0.45430419264E+04  0.25500000000E-02 0.  1.
         -2   -1    0    0    0  501 -0.00000000000E+00 -0.00000000000E+00 -0.16101757038E+02  0.16101757240E+02  0.25500000000E-02 0. -1.
    5000001    1    1    2    0    0 -0.11298921416E+02 -0.16467096626E+03  0.15941834278E+04  0.16150126917E+04  0.19900000000E+03 0.  0.
   -5000001    1    1    2    0    0  0.11298921416E+02  0.16467096626E+03  0.29327567415E+04  0.29441309919E+04  0.19900000000E+03 0.  0.
<mgrwt>
<rscale>  0 0.54092867E+03</rscale>
<asrwt>0</asrwt>
<pdfrwt beam="1">  1        2 0.64900632E+00 0.54092867E+03</pdfrwt>
<pdfrwt beam="2">  1       -2 0.23002498E-02 0.54092867E+03</pdfrwt>
<totfact> 0.17534001E+02</totfact>
</mgrwt>
</event>
<event>
 4    1  0.4998754E-005  0.8752621E+03  0.7818608E-02  0.9457045E-01
         -2   -1    0    0    0  501 -0.00000000000E+00  0.00000000000E+00  0.12043054791E+03  0.12043054794E+03  0.25500000000E-02 0.  1.
          2   -1    0    0  501    0  0.00000000000E+00 -0.00000000000E+00 -0.15903017839E+04  0.15903017839E+04  0.25500000000E-02 0. -1.
    5000001    1    1    2    0    0  0.37599522579E+02 -0.37239298429E+03 -0.52235188551E+03  0.67271297828E+03  0.19900000000E+03 0.  0.
   -5000001    1    1    2    0    0 -0.37599522579E+02  0.37239298429E+03 -0.94751935044E+03  0.10380193535E+04  0.19900000000E+03 0.  0.
<mgrwt>
<rscale>  0 0.87526205E+03</rscale>
<asrwt>0</asrwt>
<pdfrwt beam="1">  1        2 0.22718596E+00 0.87526205E+03</pdfrwt>
<pdfrwt beam="2">  1       -2 0.17204365E-01 0.87526205E+03</pdfrwt>
<totfact> 0.36467910E+02</totfact>
</mgrwt>
</event>
<event>
 4    1  0.4998754E-005  0.5197257E+03  0.7818608E-02  0.1008755E+00
         -2   -1    0    0    0  501 -0.00000000000E+00  0.00000000000E+00  0.14273968742E+03  0.14273968744E+03  0.25500000000E-02 0. -1.
          2   -1    0    0  501    0  0.00000000000E+00 -0.00000000000E+00 -0.47308985308E+03  0.47308985309E+03  0.25500000000E-02 0.  1.
    5000001    1    1    2    0    0 -0.64408858294E+02  0.15385417052E+03 -0.17749423993E+03  0.31452315021E+03  0.19900000000E+03 0.  0.
   -5000001    1    1    2    0    0  0.64408858294E+02 -0.15385417052E+03 -0.15285592574E+03  0.30130639032E+03  0.19900000000E+03 0.  0.
<mgrwt>
<rscale>  0 0.51972569E+03</rscale>
<asrwt>0</asrwt>
<pdfrwt beam="1">  1        2 0.67584264E-01 0.51972569E+03</pdfrwt>
<pdfrwt beam="2">  1       -2 0.20391384E-01 0.51972569E+03</pdfrwt>
<totfact> 0.14722964E+03</totfact>
</mgrwt>
</event>
<event>
 4    1  0.4998754E-005  0.9542593E+03  0.7818608E-02  0.9360186E-01
         -2   -1    0    0    0  501 -0.00000000000E+00  0.00000000000E+00  0.18961809445E+03  0.18961809447E+03  0.25500000000E-02 0. -1.
          2   -1    0    0  501    0  0.00000000000E+00 -0.00000000000E+00 -0.12005852450E+04  0.12005852450E+04  0.25500000000E-02 0.  1.
    5000001    1    1    2    0    0  0.10381984490E+03 -0.33116615711E+03 -0.12669921076E+03  0.41964660587E+03  0.19900000000E+03 0.  0.
   -5000001    1    1    2    0    0 -0.10381984490E+03  0.33116615711E+03 -0.88426793981E+03  0.97055673362E+03  0.19900000000E+03 0.  0.
<mgrwt>
<rscale>  0 0.95425927E+03</rscale>
<asrwt>0</asrwt>
<pdfrwt beam="1">  1        2 0.17151217E+00 0.95425927E+03</pdfrwt>
<pdfrwt beam="2">  1       -2 0.27088300E-01 0.95425927E+03</pdfrwt>
<totfact> 0.26386838E+02</totfact>
</mgrwt>
</event>
<event>
 4    1  0.4998754E-005  0.8093453E+03  0.7818608E-02  0.9546588E-01
         -2   -1    0    0    0  501 -0.00000000000E+00  0.00000000000E+00  0.63782286926E+02  0.63782286977E+02  0.25500000000E-02 0. -1.
          2   -1    0    0  501    0  0.00000000000E+00 -0.00000000000E+00 -0.25674832071E+04  0.25674832071E+04  0.25500000000E-02 0.  1.
    5000001    1    1    2    0    0  0.19659448097E+03 -0.24919948248E+03 -0.75442969242E+03  0.84232709372E+03  0.19900000000E+03 0.  0.
   -5000001    1    1    2    0    0 -0.19659448097E+03  0.24919948248E+03 -0.17492712277E+04  0.17889384003E+04  0.19900000000E+03 0.  0.
<mgrwt>
<rscale>  0 0.80934529E+03</rscale>
<asrwt>0</asrwt>
<pdfrwt beam="1">  1        2 0.36678325E+00 0.80934529E+03</pdfrwt>
<pdfrwt beam="2">  1       -2 0.91117569E-02 0.80934529E+03</pdfrwt>
<totfact> 0.33353154E+02</totfact>
</mgrwt>
</event>
<event>
 4    1  0.4998754E-005  0.8207401E+03  0.7818608E-02  0.9530473E-01
          2   -1    0    0  501    0  0.00000000000E+00  0.00000000000E+00  0.27708083954E+04  0.27708083954E+04  0.25500000000E-02 0.  1.
         -2   -1    0    0    0  501 -0.00000000000E+00 -0.00000000000E+00 -0.60777777672E+02  0.60777777725E+02  0.25500000000E-02 0. -1.
    5000001    1    1    2    0    0 -0.25102394699E+03 -0.19390736985E+03  0.19342675401E+04  0.19701789276E+04  0.19900000000E+03 0.  0.
   -5000001    1    1    2    0    0  0.25102394699E+03  0.19390736985E+03  0.77576307759E+03  0.86140724550E+03  0.19900000000E+03 0.  0.
<mgrwt>
<rscale>  0 0.82074010E+03</rscale>
<asrwt>0</asrwt>
<pdfrwt beam="1">  1        2 0.39582970E+00 0.82074010E+03</pdfrwt>
<pdfrwt beam="2">  1       -2 0.86825412E-02 0.82074010E+03</pdfrwt>
<totfact> 0.28152125E+02</totfact>
</mgrwt>
</event>
<event>
 4    1  0.4998754E-005  0.4268347E+03  0.7818608E-02  0.1034865E+00
          2   -1    0    0  501    0  0.00000000000E+00  0.00000000000E+00  0.38989872323E+03  0.38989872324E+03  0.25500000000E-02 0.  1.
         -2   -1    0    0    0  501 -0.00000000000E+00 -0.00000000000E+00 -0.11681744358E+03  0.11681744361E+03  0.25500000000E-02 0. -1.
    5000001    1    1    2    0    0  0.46603868865E+02  0.60967836833E+02  0.12757987959E+03  0.24852891863E+03  0.19900000000E+03 0.  0.
   -5000001    1    1    2    0    0 -0.46603868865E+02 -0.60967836833E+02  0.14550140006E+03  0.25818724821E+03  0.19900000000E+03 0.  0.
<mgrwt>
<rscale>  0 0.42683473E+03</rscale>
<asrwt>0</asrwt>
<pdfrwt beam="1">  1        2 0.55699817E-01 0.42683473E+03</pdfrwt>
<pdfrwt beam="2">  1       -2 0.16688206E-01 0.42683473E+03</pdfrwt>
<totfact> 0.25691959E+03</totfact>
</mgrwt>
</event>
<event>
 4    1  0.4998754E-005  0.4741178E+03  0.7818608E-02  0.1020764E+00
          2   -1    0    0  501    0  0.00000000000E+00  0.00000000000E+00  0.24649254454E+04  0.24649254454E+04  0.25500000000E-02 0.  1.
         -2   -1    0    0    0  501 -0.00000000000E+00 -0.00000000000E+00 -0.22798632935E+02  0.22798633078E+02  0.25500000000E-02 0. -1.
    5000001    1    1    2    0    0 -0.10597109429E+03 -0.73246558460E+02  0.12158177358E+04  0.12387125162E+04  0.19900000000E+03 0.  0.
   -5000001    1    1    2    0    0  0.10597109429E+03  0.73246558460E+02  0.12263090767E+04  0.12490115623E+04  0.19900000000E+03 0.  0.
<mgrwt>
<rscale>  0 0.47411784E+03</rscale>
<asrwt>0</asrwt>
<pdfrwt beam="1">  1        2 0.35213207E+00 0.47411784E+03</pdfrwt>
<pdfrwt beam="2">  1       -2 0.32569488E-02 0.47411784E+03</pdfrwt>
<totfact> 0.19255891E+03</totfact>
</mgrwt>
</event>
<event>
 4    1  0.4998754E-005  0.5502713E+03  0.7818608E-02  0.1001431E+00
         -2   -1    0    0    0  501 -0.00000000000E+00  0.00000000000E+00  0.11319461623E+03  0.11319461626E+03  0.25500000000E-02 0. -1.
          2   -1    0    0  501    0  0.00000000000E+00 -0.00000000000E+00 -0.66875639260E+03  0.66875639260E+03  0.25500000000E-02 0.  1.
    5000001    1    1    2    0    0  0.13666128756E+03  0.29539405247E+02 -0.46059018049E+03  0.52085813649E+03  0.19900000000E+03 0.  0.
   -5000001    1    1    2    0    0 -0.13666128756E+03 -0.29539405247E+02 -0.94971595874E+02  0.26109287237E+03  0.19900000000E+03 0.  0.
<mgrwt>
<rscale>  0 0.55027129E+03</rscale>
<asrwt>0</asrwt>
<pdfrwt beam="1">  1        2 0.95536625E-01 0.55027129E+03</pdfrwt>
<pdfrwt beam="2">  1       -2 0.16170660E-01 0.55027129E+03</pdfrwt>
<totfact> 0.14676033E+03</totfact>
</mgrwt>
</event>
<event>
 4    1  0.4998754E-005  0.7471031E+03  0.7818608E-02  0.9639906E-01
         -2   -1    0    0    0  501 -0.00000000000E+00  0.00000000000E+00  0.27059160645E+04  0.27059160645E+04  0.25500000000E-02 0. -1.
          2   -1    0    0  501    0  0.00000000000E+00 -0.00000000000E+00 -0.51568766764E+02  0.51568766828E+02  0.25500000000E-02 0.  1.
    5000001    1    1    2    0    0  0.22981975813E+03  0.20396783715E+03  0.16013894594E+04  0.16427017990E+04  0.19900000000E+03 0.  0.
   -5000001    1    1    2    0    0 -0.22981975813E+03 -0.20396783715E+03  0.10529578383E+04  0.11147830323E+04  0.19900000000E+03 0.  0.
<mgrwt>
<rscale>  0 0.74710308E+03</rscale>
<asrwt>0</asrwt>
<pdfrwt beam="1">  1        2 0.73669633E-02 0.74710308E+03</pdfrwt>
<pdfrwt beam="2">  1       -2 0.38655961E+00 0.74710308E+03</pdfrwt>
<totfact> 0.95311311E+00</totfact>
</mgrwt>
</event>
<event>
 4    1  0.4998754E-005  0.8312122E+03  0.7818608E-02  0.9515906E-01
          2   -1    0    0  501    0  0.00000000000E+00  0.00000000000E+00  0.33368344446E+04  0.33368344446E+04  0.25500000000E-02 0.  1.
         -2   -1    0    0    0  501 -0.00000000000E+00 -0.00000000000E+00 -0.51764164129E+02  0.51764164192E+02  0.25500000000E-02 0. -1.
    5000001    1    1    2    0    0 -0.17124749866E+03 -0.20857795011E+03  0.64148466496E+03  0.72383288295E+03  0.19900000000E+03 0.  0.
   -5000001    1    1    2    0    0  0.17124749866E+03  0.20857795011E+03  0.26435856155E+04  0.26647657259E+04  0.19900000000E+03 0.  0.
<mgrwt>
<rscale>  0 0.83121224E+03</rscale>
<asrwt>0</asrwt>
<pdfrwt beam="1">  1        2 0.47669064E+00 0.83121224E+03</pdfrwt>
<pdfrwt beam="2">  1       -2 0.73948806E-02 0.83121224E+03</pdfrwt>
<totfact> 0.17660417E+02</totfact>
</mgrwt>
</event>
<event>
 4    1  0.4998754E-005  0.5347099E+03  0.7818608E-02  0.1005096E+00
         -2   -1    0    0    0  501 -0.00000000000E+00  0.00000000000E+00  0.99126111620E+02  0.99126111652E+02  0.25500000000E-02 0. -1.
          2   -1    0    0  501    0  0.00000000000E+00 -0.00000000000E+00 -0.72108823356E+03  0.72108823357E+03  0.25500000000E-02 0.  1.
    5000001    1    1    2    0    0  0.15914674404E+03 -0.75594429532E+02 -0.35531887222E+03  0.44372818805E+03  0.19900000000E+03 0.  0.
   -5000001    1    1    2    0    0 -0.15914674404E+03  0.75594429532E+02 -0.26664324972E+03  0.37648615717E+03  0.19900000000E+03 0.  0.
<mgrwt>
<rscale>  0 0.53470991E+03</rscale>
<asrwt>0</asrwt>
<pdfrwt beam="1">  1        2 0.10301260E+00 0.53470991E+03</pdfrwt>
<pdfrwt beam="2">  1       -2 0.14160874E-01 0.53470991E+03</pdfrwt>
<totfact> 0.16739164E+03</totfact>
</mgrwt>
</event>
<event>
 4    1  0.4998754E-005  0.9625994E+03  0.7818608E-02  0.9350544E-01
          2   -1    0    0  501    0  0.00000000000E+00  0.00000000000E+00  0.69959545957E+03  0.69959545957E+03  0.25500000000E-02 0.  1.
         -2   -1    0    0    0  501 -0.00000000000E+00 -0.00000000000E+00 -0.33111908574E+03  0.33111908575E+03  0.25500000000E-02 0. -1.
    5000001    1    1    2    0    0  0.10821922984E+03  0.40163759757E+03  0.36549729500E+02  0.46255923319E+03  0.19900000000E+03 0.  0.
   -5000001    1    1    2    0    0 -0.10821922984E+03 -0.40163759757E+03  0.33192664432E+03  0.56815531213E+03  0.19900000000E+03 0.  0.
<mgrwt>
<rscale>  0 0.96259942E+03</rscale>
<asrwt>0</asrwt>
<pdfrwt beam="1">  1        2 0.99942208E-01 0.96259942E+03</pdfrwt>
<pdfrwt beam="2">  1       -2 0.47302727E-01 0.96259942E+03</pdfrwt>
<totfact> 0.19071601E+02</totfact>
</mgrwt>
</event>
<event>
 4    1  0.4998754E-005  0.6272227E+03  0.7818608E-02  0.9850483E-01
          2   -1    0    0  501    0  0.00000000000E+00  0.00000000000E+00  0.15807157730E+03  0.15807157732E+03  0.25500000000E-02 0.  1.
         -2   -1    0    0    0  501 -0.00000000000E+00 -0.00000000000E+00 -0.62219969462E+03  0.62219969462E+03  0.25500000000E-02 0. -1.
    5000001    1    1    2    0    0  0.66685831086E+02  0.23293894372E+03 -0.22385589691E+03  0.38525318188E+03  0.19900000000E+03 0.  0.
   -5000001    1    1    2    0    0 -0.66685831086E+02 -0.23293894372E+03 -0.24027222041E+03  0.39501809006E+03  0.19900000000E+03 0.  0.
<mgrwt>
<rscale>  0 0.62722273E+03</rscale>
<asrwt>0</asrwt>
<pdfrwt beam="1">  1        2 0.22581654E-01 0.62722273E+03</pdfrwt>
<pdfrwt beam="2">  1       -2 0.88885669E-01 0.62722273E+03</pdfrwt>
<totfact> 0.27099732E+02</totfact>
</mgrwt>
</event>
<event>
 4    1  0.4998754E-005  0.5281604E+03  0.7818608E-02  0.1006679E+00
          2   -1    0    0  501    0  0.00000000000E+00  0.00000000000E+00  0.36204578306E+04  0.36204578306E+04  0.25500000000E-02 0.  1.
         -2   -1    0    0    0  501 -0.00000000000E+00 -0.00000000000E+00 -0.19262299534E+02  0.19262299703E+02  0.25500000000E-02 0. -1.
    5000001    1    1    2    0    0  0.15984293113E+03  0.49198759450E+02  0.14797951189E+04  0.15024529525E+04  0.19900000000E+03 0.  0.
   -5000001    1    1    2    0    0 -0.15984293113E+03 -0.49198759450E+02  0.21214004121E+04  0.21372671778E+04  0.19900000000E+03 0.  0.
<mgrwt>
<rscale>  0 0.52816037E+03</rscale>
<asrwt>0</asrwt>
<pdfrwt beam="1">  1        2 0.51720831E+00 0.52816037E+03</pdfrwt>
<pdfrwt beam="2">  1       -2 0.27517568E-02 0.52816037E+03</pdfrwt>
<totfact> 0.57431268E+02</totfact>
</mgrwt>
</event>
<event>
 4    1  0.4998754E-005  0.5502139E+03  0.7818608E-02  0.1001444E+00
         -2   -1    0    0    0  501 -0.00000000000E+00  0.00000000000E+00  0.38769410136E+02  0.38769410220E+02  0.25500000000E-02 0. -1.
          2   -1    0    0  501    0  0.00000000000E+00 -0.00000000000E+00 -0.19521534748E+04  0.19521534748E+04  0.25500000000E-02 0.  1.
    5000001    1    1    2    0    0 -0.10041232037E+03 -0.54982966226E+02 -0.15051839945E+04  0.15225917437E+04  0.19900000000E+03 0.  0.
   -5000001    1    1    2    0    0  0.10041232037E+03  0.54982966226E+02 -0.40820007015E+03  0.46833114132E+03  0.19900000000E+03 0.  0.
<mgrwt>
<rscale>  0 0.55021392E+03</rscale>
<asrwt>0</asrwt>
<pdfrwt beam="1">  1        2 0.27887901E+00 0.55021392E+03</pdfrwt>
<pdfrwt beam="2">  1       -2 0.55384884E-02 0.55021392E+03</pdfrwt>
<totfact> 0.15359834E+03</totfact>
</mgrwt>
</event>
<event>
 4    1  0.4998754E-005  0.7341887E+03  0.7818608E-02  0.9660488E-01
         -2   -1    0    0    0  501 -0.00000000000E+00  0.00000000000E+00  0.15291336810E+04  0.15291336810E+04  0.25500000000E-02 0. -1.
          2   -1    0    0  501    0  0.00000000000E+00 -0.00000000000E+00 -0.88127196645E+02  0.88127196682E+02  0.25500000000E-02 0.  1.
    5000001    1    1    2    0    0 -0.22440818229E+03  0.96400117845E+02  0.11355706814E+04  0.11784624676E+04  0.19900000000E+03 0.  0.
   -5000001    1    1    2    0    0  0.22440818229E+03 -0.96400117845E+02  0.30543580295E+03  0.43879841012E+03  0.19900000000E+03 0.  0.
<mgrwt>
<rscale>  0 0.73418871E+03</rscale>
<asrwt>0</asrwt>
<pdfrwt beam="1">  1        2 0.12589600E-01 0.73418871E+03</pdfrwt>
<pdfrwt beam="2">  1       -2 0.21844766E+00 0.73418871E+03</pdfrwt>
<totfact> 0.51408399E+01</totfact>
</mgrwt>
</event>
<event>
 4    1  0.4998754E-005  0.5835546E+03  0.7818608E-02  0.9940125E-01
         -2   -1    0    0    0  501 -0.00000000000E+00  0.00000000000E+00  0.23333674558E+02  0.23333674698E+02  0.25500000000E-02 0.  1.
          2   -1    0    0  501    0  0.00000000000E+00 -0.00000000000E+00 -0.36485458562E+04  0.36485458562E+04  0.25500000000E-02 0. -1.
    5000001    1    1    2    0    0  0.43227100067E+02 -0.20895778768E+03 -0.18061810039E+04  0.18295963374E+04  0.19900000000E+03 0.  0.
   -5000001    1    1    2    0    0 -0.43227100067E+02  0.20895778768E+03 -0.18190311778E+04  0.18422831934E+04  0.19900000000E+03 0.  0.
<mgrwt>
<rscale>  0 0.58355456E+03</rscale>
<asrwt>0</asrwt>
<pdfrwt beam="1">  1        2 0.52122047E+00 0.58355456E+03</pdfrwt>
<pdfrwt beam="2">  1       -2 0.33333844E-02 0.58355456E+03</pdfrwt>
<totfact> 0.40975976E+02</totfact>
</mgrwt>
</event>
<event>
 4    1  0.4998754E-005  0.1340573E+04  0.7818608E-02  0.8997995E-01
         -2   -1    0    0    0  501 -0.00000000000E+00  0.00000000000E+00  0.61107415325E+03  0.61107415325E+03  0.25500000000E-02 0. -1.
          2   -1    0    0  501    0  0.00000000000E+00 -0.00000000000E+00 -0.73523613412E+03  0.73523613412E+03  0.25500000000E-02 0.  1.
    5000001    1    1    2    0    0 -0.11948973905E+03 -0.58935827751E+03 -0.28224934723E+03  0.69345992748E+03  0.19900000000E+03 0.  0.
   -5000001    1    1    2    0    0  0.11948973905E+03  0.58935827751E+03  0.15808736636E+03  0.65285035989E+03  0.19900000000E+03 0.  0.
<mgrwt>
<rscale>  0 0.13405727E+04</rscale>
<asrwt>0</asrwt>
<pdfrwt beam="1">  1        2 0.10503373E+00 0.13405727E+04</pdfrwt>
<pdfrwt beam="2">  1       -2 0.87296308E-01 0.13405727E+04</pdfrwt>
<totfact> 0.46988679E+01</totfact>
</mgrwt>
</event>
<event>
 4    1  0.4998754E-005  0.7315723E+03  0.7818608E-02  0.9664712E-01
          2   -1    0    0  501    0  0.00000000000E+00  0.00000000000E+00  0.11152549037E+04  0.11152549037E+04  0.25500000000E-02 0.  1.
         -2   -1    0    0    0  501 -0.00000000000E+00 -0.00000000000E+00 -0.11997213011E+03  0.11997213014E+03  0.25500000000E-02 0. -1.
    5000001    1    1    2    0    0 -0.16422078294E+03 -0.91607557895E+02  0.88080152960E+02  0.28761001992E+03  0.19900000000E+03 0.  0.
   -5000001    1    1    2    0    0  0.16422078294E+03  0.91607557895E+02  0.90720262062E+03  0.94761701392E+03  0.19900000000E+03 0.  0.
<mgrwt>
<rscale>  0 0.73157230E+03</rscale>
<asrwt>0</asrwt>
<pdfrwt beam="1">  1        2 0.15932212E+00 0.73157230E+03</pdfrwt>
<pdfrwt beam="2">  1       -2 0.17138876E-01 0.73157230E+03</pdfrwt>
<totfact> 0.67100521E+02</totfact>
</mgrwt>
</event>
<event>
 4    1  0.4998754E-005  0.4966506E+03  0.7818608E-02  0.1014657E+00
          2   -1    0    0  501    0  0.00000000000E+00  0.00000000000E+00  0.35300770656E+03  0.35300770656E+03  0.25500000000E-02 0.  1.
         -2   -1    0    0    0  501 -0.00000000000E+00 -0.00000000000E+00 -0.17468583183E+03  0.17468583185E+03  0.25500000000E-02 0. -1.
    5000001    1    1    2    0    0 -0.11577883169E+03 -0.90361576809E+02  0.65533823518E+02  0.25586253039E+03  0.19900000000E+03 0.  0.
   -5000001    1    1    2    0    0  0.11577883169E+03  0.90361576809E+02  0.11278805120E+03  0.27183100803E+03  0.19900000000E+03 0.  0.
<mgrwt>
<rscale>  0 0.49665056E+03</rscale>
<asrwt>0</asrwt>
<pdfrwt beam="1">  1        2 0.50429673E-01 0.49665056E+03</pdfrwt>
<pdfrwt beam="2">  1       -2 0.24955119E-01 0.49665056E+03</pdfrwt>
<totfact> 0.14264822E+03</totfact>
</mgrwt>
</event>
<event>
 4    1  0.4998754E-005  0.5028983E+03  0.7818608E-02  0.1013025E+00
          2   -1    0    0  501    0  0.00000000000E+00  0.00000000000E+00  0.48153954835E+03  0.48153954836E+03  0.25500000000E-02 0.  1.
         -2   -1    0    0    0  501 -0.00000000000E+00 -0.00000000000E+00 -0.13130109881E+03  0.13130109884E+03  0.25500000000E-02 0. -1.
    5000001    1    1    2    0    0 -0.15025695101E+03  0.81480559457E+01  0.13692903417E+03  0.28459462845E+03  0.19900000000E+03 0.  0.
   -5000001    1    1    2    0    0  0.15025695101E+03 -0.81480559457E+01  0.21330941537E+03  0.32824601875E+03  0.19900000000E+03 0.  0.
<mgrwt>
<rscale>  0 0.50289829E+03</rscale>
<asrwt>0</asrwt>
<pdfrwt beam="1">  1        2 0.68791364E-01 0.50289829E+03</pdfrwt>
<pdfrwt beam="2">  1       -2 0.18757300E-01 0.50289829E+03</pdfrwt>
<totfact> 0.16676655E+03</totfact>
</mgrwt>
</event>
<event>
 4    1  0.4998754E-005  0.6713357E+03  0.7818608E-02  0.9767548E-01
          2   -1    0    0  501    0  0.00000000000E+00  0.00000000000E+00  0.19325986684E+04  0.19325986684E+04  0.25500000000E-02 0.  1.
         -2   -1    0    0    0  501 -0.00000000000E+00 -0.00000000000E+00 -0.58301251800E+02  0.58301251856E+02  0.25500000000E-02 0. -1.
    5000001    1    1    2    0    0  0.25475150162E+03 -0.67817456544E+02  0.11144493963E+04  0.11623665480E+04  0.19900000000E+03 0.  0.
   -5000001    1    1    2    0    0 -0.25475150162E+03  0.67817456544E+02  0.75984802025E+03  0.82853337221E+03  0.19900000000E+03 0.  0.
<mgrwt>
<rscale>  0 0.67133575E+03</rscale>
<asrwt>0</asrwt>
<pdfrwt beam="1">  1        2 0.27608549E+00 0.67133575E+03</pdfrwt>
<pdfrwt beam="2">  1       -2 0.83287512E-02 0.67133575E+03</pdfrwt>
<totfact> 0.81997798E+02</totfact>
</mgrwt>
</event>
<event>
 4    1  0.4998754E-005  0.7439043E+03  0.7818608E-02  0.9644962E-01
          2   -1    0    0  501    0  0.00000000000E+00  0.00000000000E+00  0.16734019648E+03  0.16734019650E+03  0.25500000000E-02 0.  1.
         -2   -1    0    0    0  501 -0.00000000000E+00 -0.00000000000E+00 -0.82674927620E+03  0.82674927621E+03  0.25500000000E-02 0. -1.
    5000001    1    1    2    0    0  0.10903444311E+03 -0.13014653642E+03 -0.68305973960E+03  0.73143573784E+03  0.19900000000E+03 0.  0.
   -5000001    1    1    2    0    0 -0.10903444311E+03  0.13014653642E+03  0.23650659871E+02  0.26265373486E+03  0.19900000000E+03 0.  0.
<mgrwt>
<rscale>  0 0.74390426E+03</rscale>
<asrwt>0</asrwt>
<pdfrwt beam="1">  1        2 0.23905743E-01 0.74390426E+03</pdfrwt>
<pdfrwt beam="2">  1       -2 0.11810704E+00 0.74390426E+03</pdfrwt>
<totfact> 0.12866782E+02</totfact>
</mgrwt>
</event>
<event>
 4    1  0.4998754E-005  0.4719054E+03  0.7818608E-02  0.1021384E+00
         -2   -1    0    0    0  501 -0.00000000000E+00  0.00000000000E+00  0.33438443047E+02  0.33438443144E+02  0.25500000000E-02 0. -1.
          2   -1    0    0  501    0  0.00000000000E+00 -0.00000000000E+00 -0.16649601828E+04  0.16649601828E+04  0.25500000000E-02 0.  1.
    5000001    1    1    2    0    0  0.88699425519E+02  0.28591498613E+02 -0.11251013784E+04  0.11463590945E+04  0.19900000000E+03 0.  0.
   -5000001    1    1    2    0    0 -0.88699425519E+02 -0.28591498613E+02 -0.50642036136E+03  0.55203953145E+03  0.19900000000E+03 0.  0.
<mgrwt>
<rscale>  0 0.47190540E+03</rscale>
<asrwt>0</asrwt>
<pdfrwt beam="1">  1        2 0.23785140E+00 0.47190540E+03</pdfrwt>
<pdfrwt beam="2">  1       -2 0.47769215E-02 0.47190540E+03</pdfrwt>
<totfact> 0.26994260E+03</totfact>
</mgrwt>
</event>
<event>
 4    1  0.4998754E-005  0.1145635E+04  0.7818608E-02  0.9161820E-01
         -2   -1    0    0    0  501 -0.00000000000E+00  0.00000000000E+00  0.83472492554E+02  0.83472492593E+02  0.25500000000E-02 0. -1.
          2   -1    0    0  501    0  0.00000000000E+00 -0.00000000000E+00 -0.39308732957E+04  0.39308732957E+04  0.25500000000E-02 0.  1.
    5000001    1    1    2    0    0 -0.48259253809E+03  0.23463867634E+03 -0.20072057596E+04  0.20872055068E+04  0.19900000000E+03 0.  0.
   -5000001    1    1    2    0    0  0.48259253809E+03 -0.23463867634E+03 -0.18401950435E+04  0.19271402815E+04  0.19900000000E+03 0.  0.
<mgrwt>
<rscale>  0 0.11456348E+04</rscale>
<asrwt>0</asrwt>
<pdfrwt beam="1">  1        2 0.56155321E+00 0.11456348E+04</pdfrwt>
<pdfrwt beam="2">  1       -2 0.11924644E-01 0.11456348E+04</pdfrwt>
<totfact> 0.33566249E+01</totfact>
</mgrwt>
</event>
<event>
 4    1  0.4998754E-005  0.8436510E+03  0.7818608E-02  0.9498898E-01
         -2   -1    0    0    0  501 -0.00000000000E+00  0.00000000000E+00  0.30209200735E+03  0.30209200736E+03  0.25500000000E-02 0. -1.
          2   -1    0    0  501    0  0.00000000000E+00 -0.00000000000E+00 -0.58901503193E+03  0.58901503193E+03  0.25500000000E-02 0.  1.
    5000001    1    1    2    0    0  0.32138849393E+03  0.10440009045E+03 -0.30759144281E+03  0.49840088142E+03  0.19900000000E+03 0.  0.
   -5000001    1    1    2    0    0 -0.32138849393E+03 -0.10440009045E+03  0.20668418231E+02  0.39270615787E+03  0.19900000000E+03 0.  0.
<mgrwt>
<rscale>  0 0.84365095E+03</rscale>
<asrwt>0</asrwt>
<pdfrwt beam="1">  1        2 0.84145004E-01 0.84365095E+03</pdfrwt>
<pdfrwt beam="2">  1       -2 0.43156001E-01 0.84365095E+03</pdfrwt>
<totfact> 0.28349514E+02</totfact>
</mgrwt>
</event>
<event>
 4    1  0.4998754E-005  0.5585114E+03  0.7818608E-02  0.9995428E-01
         -2   -1    0    0    0  501 -0.00000000000E+00  0.00000000000E+00  0.13851789823E+03  0.13851789825E+03  0.25500000000E-02 0. -1.
          2   -1    0    0  501    0  0.00000000000E+00 -0.00000000000E+00 -0.56298683776E+03  0.56298683776E+03  0.25500000000E-02 0.  1.
    5000001    1    1    2    0    0  0.13469306345E+03  0.10858171475E+03 -0.96771994841E+02  0.28088792979E+03  0.19900000000E+03 0.  0.
   -5000001    1    1    2    0    0 -0.13469306345E+03 -0.10858171475E+03 -0.32769694469E+03  0.42061680622E+03  0.19900000000E+03 0.  0.
<mgrwt>
<rscale>  0 0.55851143E+03</rscale>
<asrwt>0</asrwt>
<pdfrwt beam="1">  1        2 0.80426690E-01 0.55851143E+03</pdfrwt>
<pdfrwt beam="2">  1       -2 0.19788272E-01 0.55851143E+03</pdfrwt>
<totfact> 0.12720070E+03</totfact>
</mgrwt>
</event>
<event>
 4    1  0.4998754E-005  0.4555582E+03  0.7818608E-02  0.1026077E+00
         -2   -1    0    0    0  501 -0.00000000000E+00  0.00000000000E+00  0.68428824413E+03  0.68428824413E+03  0.25500000000E-02 0. -1.
          2   -1    0    0  501    0  0.00000000000E+00 -0.00000000000E+00 -0.75820841260E+02  0.75820841303E+02  0.25500000000E-02 0.  1.
    5000001    1    1    2    0    0 -0.77438063094E+02  0.35818864289E+02  0.42224751104E+03  0.47452460973E+03  0.19900000000E+03 0.  0.
   -5000001    1    1    2    0    0  0.77438063094E+02 -0.35818864289E+02  0.18621989183E+03  0.28558447571E+03  0.19900000000E+03 0.  0.
<mgrwt>
<rscale>  0 0.45555816E+03</rscale>
<asrwt>0</asrwt>
<pdfrwt beam="1">  1        2 0.10831549E-01 0.45555816E+03</pdfrwt>
<pdfrwt beam="2">  1       -2 0.97755463E-01 0.45555816E+03</pdfrwt>
<totfact> 0.52771135E+02</totfact>
</mgrwt>
</event>
<event>
 4    1  0.4998754E-005  0.5811852E+03  0.7818608E-02  0.9945228E-01
         -2   -1    0    0    0  501 -0.00000000000E+00  0.00000000000E+00  0.42649104429E+03  0.42649104430E+03  0.25500000000E-02 0. -1.
          2   -1    0    0  501    0  0.00000000000E+00 -0.00000000000E+00 -0.19799723859E+03  0.19799723860E+03  0.25500000000E-02 0.  1.
    5000001    1    1    2    0    0 -0.13143655421E+03  0.14854625960E+03  0.34548441089E+02  0.28308329835E+03  0.19900000000E+03 0.  0.
   -5000001    1    1    2    0    0  0.13143655421E+03 -0.14854625960E+03  0.19394536461E+03  0.34140498455E+03  0.19900000000E+03 0.  0.
<mgrwt>
<rscale>  0 0.58118517E+03</rscale>
<asrwt>0</asrwt>
<pdfrwt beam="1">  1        2 0.28285320E-01 0.58118517E+03</pdfrwt>
<pdfrwt beam="2">  1       -2 0.60927291E-01 0.58118517E+03</pdfrwt>
<totfact> 0.48106667E+02</totfact>
</mgrwt>
</event>
<event>
 4    1  0.4998754E-005  0.1323491E+04  0.7818608E-02  0.9011141E-01
          2   -1    0    0  501    0  0.00000000000E+00  0.00000000000E+00  0.18935558245E+04  0.18935558245E+04  0.25500000000E-02 0.  1.
         -2   -1    0    0    0  501 -0.00000000000E+00 -0.00000000000E+00 -0.23126174061E+03  0.23126174063E+03  0.25500000000E-02 0. -1.
    5000001    1    1    2    0    0 -0.32121828607E+03  0.36560046988E+03  0.14762583991E+04  0.15670943659E+04  0.19900000000E+03 0.  0.
   -5000001    1    1    2    0    0  0.32121828607E+03 -0.36560046988E+03  0.18603568478E+03  0.55772319917E+03  0.19900000000E+03 0.  0.
<mgrwt>
<rscale>  0 0.13234909E+04</rscale>
<asrwt>0</asrwt>
<pdfrwt beam="1">  1        2 0.27050798E+00 0.13234909E+04</pdfrwt>
<pdfrwt beam="2">  1       -2 0.33037391E-01 0.13234909E+04</pdfrwt>
<totfact> 0.76225011E+01</totfact>
</mgrwt>
</event>
<event>
 4    1  0.4998754E-005  0.4243889E+03  0.7818608E-02  0.1035647E+00
          2   -1    0    0  501    0  0.00000000000E+00  0.00000000000E+00  0.24506193362E+04  0.24506193362E+04  0.25500000000E-02 0.  1.
         -2   -1    0    0    0  501 -0.00000000000E+00 -0.00000000000E+00 -0.18373508240E+02  0.18373508417E+02  0.25500000000E-02 0. -1.
    5000001    1    1    2    0    0  0.64850183386E+02 -0.31370480271E+02  0.11267825878E+04  0.11464857842E+04  0.19900000000E+03 0.  0.
   -5000001    1    1    2    0    0 -0.64850183386E+02  0.31370480271E+02  0.13054632402E+04  0.13225070604E+04  0.19900000000E+03 0.  0.
<mgrwt>
<rscale>  0 0.42438885E+03</rscale>
<asrwt>0</asrwt>
<pdfrwt beam="1">  1        2 0.35008862E+00 0.42438885E+03</pdfrwt>
<pdfrwt beam="2">  1       -2 0.26247859E-02 0.42438885E+03</pdfrwt>
<totfact> 0.27187494E+03</totfact>
</mgrwt>
</event>
<event>
 4    1  0.4998754E-005  0.5077891E+03  0.7818608E-02  0.1011766E+00
          2   -1    0    0  501    0  0.00000000000E+00  0.00000000000E+00  0.16956833954E+04  0.16956833954E+04  0.25500000000E-02 0.  1.
         -2   -1    0    0    0  501 -0.00000000000E+00 -0.00000000000E+00 -0.38015618258E+02  0.38015618344E+02  0.25500000000E-02 0. -1.
    5000001    1    1    2    0    0  0.64303616053E+02  0.14114477888E+03  0.92568253448E+03  0.95945086288E+03  0.19900000000E+03 0.  0.
   -5000001    1    1    2    0    0 -0.64303616053E+02 -0.14114477888E+03  0.73198524269E+03  0.77424815090E+03  0.19900000000E+03 0.  0.
<mgrwt>
<rscale>  0 0.50778914E+03</rscale>
<asrwt>0</asrwt>
<pdfrwt beam="1">  1        2 0.24224054E+00 0.50778914E+03</pdfrwt>
<pdfrwt beam="2">  1       -2 0.54308013E-02 0.50778914E+03</pdfrwt>
<totfact> 0.21341787E+03</totfact>
</mgrwt>
</event>
<event>
 4    1  0.4998754E-005  0.1414093E+04  0.7818608E-02  0.8943680E-01
          2   -1    0    0  501    0  0.00000000000E+00  0.00000000000E+00  0.74091148974E+03  0.74091148975E+03  0.25500000000E-02 0.  1.
         -2   -1    0    0    0  501 -0.00000000000E+00 -0.00000000000E+00 -0.67472924985E+03  0.67472924985E+03  0.25500000000E-02 0. -1.
    5000001    1    1    2    0    0  0.32520803804E+02  0.66214858393E+03 -0.11134190270E+03  0.70106802036E+03  0.19900000000E+03 0.  0.
   -5000001    1    1    2    0    0 -0.32520803804E+02 -0.66214858393E+03  0.17752414260E+03  0.71457271924E+03  0.19900000000E+03 0.  0.
<mgrwt>
<rscale>  0 0.14140929E+04</rscale>
<asrwt>0</asrwt>
<pdfrwt beam="1">  1        2 0.10584450E+00 0.14140929E+04</pdfrwt>
<pdfrwt beam="2">  1       -2 0.96389893E-01 0.14140929E+04</pdfrwt>
<totfact> 0.36792021E+01</totfact>
</mgrwt>
</event>
<event>
 4    1  0.4998754E-005  0.5193848E+03  0.7818608E-02  0.1008839E+00
         -2   -1    0    0    0  501 -0.00000000000E+00  0.00000000000E+00  0.57821893163E+02  0.57821893220E+02  0.25500000000E-02 0. -1.
          2   -1    0    0  501    0  0.00000000000E+00 -0.00000000000E+00 -0.11663428032E+04  0.11663428032E+04  0.25500000000E-02 0.  1.
    5000001    1    1    2    0    0  0.16718911087E+01  0.15644672748E+03 -0.69089808760E+03  0.73581216435E+03  0.19900000000E+03 0.  0.
   -5000001    1    1    2    0    0 -0.16718911087E+01 -0.15644672748E+03 -0.41762282243E+03  0.48835253207E+03  0.19900000000E+03 0.  0.
<mgrwt>
<rscale>  0 0.51938482E+03</rscale>
<asrwt>0</asrwt>
<pdfrwt beam="1">  1        2 0.16662039E+00 0.51938482E+03</pdfrwt>
<pdfrwt beam="2">  1       -2 0.82602712E-02 0.51938482E+03</pdfrwt>
<totfact> 0.21014185E+03</totfact>
</mgrwt>
</event>
<event>
 4    1  0.4998754E-005  0.6155072E+03  0.7818608E-02  0.9873746E-01
          2   -1    0    0  501    0  0.00000000000E+00  0.00000000000E+00  0.28317797980E+04  0.28317797980E+04  0.25500000000E-02 0.  1.
         -2   -1    0    0    0  501 -0.00000000000E+00 -0.00000000000E+00 -0.33446206054E+02  0.33446206151E+02  0.25500000000E-02 0. -1.
    5000001    1    1    2    0    0 -0.11799208237E+03  0.20294718772E+03  0.14050518287E+04  0.14383606411E+04  0.19900000000E+03 0.  0.
   -5000001    1    1    2    0    0  0.11799208237E+03 -0.20294718772E+03  0.13932817632E+04  0.14268653630E+04  0.19900000000E+03 0.  0.
<mgrwt>
<rscale>  0 0.61550724E+03</rscale>
<asrwt>0</asrwt>
<pdfrwt beam="1">  1        2 0.40454004E+00 0.61550724E+03</pdfrwt>
<pdfrwt beam="2">  1       -2 0.47780286E-02 0.61550724E+03</pdfrwt>
<totfact> 0.68306633E+02</totfact>
</mgrwt>
</event>
<event>
 4    1  0.4998754E-005  0.4745252E+03  0.7818608E-02  0.1020651E+00
          2   -1    0    0  501    0  0.00000000000E+00  0.00000000000E+00  0.15543324600E+04  0.15543324600E+04  0.25500000000E-02 0.  1.
         -2   -1    0    0    0  501 -0.00000000000E+00 -0.00000000000E+00 -0.36217188861E+02  0.36217188951E+02  0.25500000000E-02 0. -1.
    5000001    1    1    2    0    0 -0.10519596342E+03 -0.69636365314E+02  0.66561672854E+03  0.70608926023E+03  0.19900000000E+03 0.  0.
   -5000001    1    1    2    0    0  0.10519596342E+03  0.69636365314E+02  0.85249854260E+03  0.88446038872E+03  0.19900000000E+03 0.  0.
<mgrwt>
<rscale>  0 0.47452525E+03</rscale>
<asrwt>0</asrwt>
<pdfrwt beam="1">  1        2 0.22204746E+00 0.47452525E+03</pdfrwt>
<pdfrwt beam="2">  1       -2 0.51738849E-02 0.47452525E+03</pdfrwt>
<totfact> 0.27169265E+03</totfact>
</mgrwt>
</event>
<event>
 4    1  0.4998754E-005  0.4891251E+03  0.7818608E-02  0.1016657E+00
          2   -1    0    0  501    0  0.00000000000E+00  0.00000000000E+00  0.83818873367E+03  0.83818873367E+03  0.25500000000E-02 0.  1.
         -2   -1    0    0    0  501 -0.00000000000E+00 -0.00000000000E+00 -0.71357244390E+02  0.71357244436E+02  0.25500000000E-02 0. -1.
    5000001    1    1    2    0    0 -0.82942941748E+02 -0.38232544550E+02  0.18083223769E+03  0.28397633218E+03  0.19900000000E+03 0.  0.
   -5000001    1    1    2    0    0  0.82942941748E+02  0.38232544550E+02  0.58599925159E+03  0.62556964593E+03  0.19900000000E+03 0.  0.
<mgrwt>
<rscale>  0 0.48912509E+03</rscale>
<asrwt>0</asrwt>
<pdfrwt beam="1">  1        2 0.11974124E+00 0.48912509E+03</pdfrwt>
<pdfrwt beam="2">  1       -2 0.10193893E-01 0.48912509E+03</pdfrwt>
<totfact> 0.23755748E+03</totfact>
</mgrwt>
</event>
<event>
 4    1  0.4998754E-005  0.5203276E+03  0.7818608E-02  0.1008605E+00
          2   -1    0    0  501    0  0.00000000000E+00  0.00000000000E+00  0.36335642596E+03  0.36335642597E+03  0.25500000000E-02 0.  1.
         -2   -1    0    0    0  501 -0.00000000000E+00 -0.00000000000E+00 -0.18627773988E+03  0.18627773989E+03  0.25500000000E-02 0. -1.
    5000001    1    1    2    0    0 -0.11007705948E+03  0.12515084144E+03  0.10697276320E+03  0.28075588009E+03  0.19900000000E+03 0.  0.
   -5000001    1    1    2    0    0  0.11007705948E+03 -0.12515084144E+03  0.70105922881E+02  0.26887828577E+03  0.19900000000E+03 0.  0.
<mgrwt>
<rscale>  0 0.52032764E+03</rscale>
<asrwt>0</asrwt>
<pdfrwt beam="1">  1        2 0.51908061E-01 0.52032764E+03</pdfrwt>
<pdfrwt beam="2">  1       -2 0.26611105E-01 0.52032764E+03</pdfrwt>
<totfact> 0.12312226E+03</totfact>
</mgrwt>
</event>
<event>
 4    1  0.4998754E-005  0.7428531E+03  0.7818608E-02  0.9646630E-01
         -2   -1    0    0    0  501 -0.00000000000E+00  0.00000000000E+00  0.11825092629E+03  0.11825092631E+03  0.25500000000E-02 0. -1.
          2   -1    0    0  501    0  0.00000000000E+00 -0.00000000000E+00 -0.11666521557E+04  0.11666521557E+04  0.25500000000E-02 0.  1.
    5000001    1    1    2    0    0  0.29979657287E+03 -0.87295715071E+02 -0.47353021251E+03  0.60110763523E+03  0.19900000000E+03 0.  0.
   -5000001    1    1    2    0    0 -0.29979657287E+03  0.87295715071E+02 -0.57487101694E+03  0.68379544682E+03  0.19900000000E+03 0.  0.
<mgrwt>
<rscale>  0 0.74285314E+03</rscale>
<asrwt>0</asrwt>
<pdfrwt beam="1">  1        2 0.16666459E+00 0.74285314E+03</pdfrwt>
<pdfrwt beam="2">  1       -2 0.16892990E-01 0.74285314E+03</pdfrwt>
<totfact> 0.64218218E+02</totfact>
</mgrwt>
</event>
<event>
 4    1  0.4998754E-005  0.7107600E+03  0.7818608E-02  0.9699006E-01
         -2   -1    0    0    0  501 -0.00000000000E+00  0.00000000000E+00  0.13753927542E+03  0.13753927545E+03  0.25500000000E-02 0. -1.
          2   -1    0    0  501    0  0.00000000000E+00 -0.00000000000E+00 -0.91824651231E+03  0.91824651232E+03  0.25500000000E-02 0.  1.
    5000001    1    1    2    0    0 -0.14294703562E+03 -0.14713839171E+03 -0.76612920547E+02  0.29589542224E+03  0.19900000000E+03 0.  0.
   -5000001    1    1    2    0    0  0.14294703562E+03  0.14713839171E+03 -0.70409431634E+03  0.75989036552E+03  0.19900000000E+03 0.  0.
<mgrwt>
<rscale>  0 0.71076004E+03</rscale>
<asrwt>0</asrwt>
<pdfrwt beam="1">  1        2 0.13117807E+00 0.71076004E+03</pdfrwt>
<pdfrwt beam="2">  1       -2 0.19648469E-01 0.71076004E+03</pdfrwt>
<totfact> 0.69904257E+02</totfact>
</mgrwt>
</event>
<event>
 4    1  0.4998754E-005  0.4722763E+03  0.7818608E-02  0.1021280E+00
          2   -1    0    0  501    0  0.00000000000E+00  0.00000000000E+00  0.84250406583E+02  0.84250406622E+02  0.25500000000E-02 0.  1.
         -2   -1    0    0    0  501 -0.00000000000E+00 -0.00000000000E+00 -0.66185118999E+03  0.66185118999E+03  0.25500000000E-02 0. -1.
    5000001    1    1    2    0    0 -0.45565766188E+02  0.76145277484E+02 -0.43260452321E+03  0.48437796795E+03  0.19900000000E+03 0.  0.
   -5000001    1    1    2    0    0  0.45565766188E+02 -0.76145277484E+02 -0.14499626019E+03  0.26172362866E+03  0.19900000000E+03 0.  0.
<mgrwt>
<rscale>  0 0.47227633E+03</rscale>
<asrwt>0</asrwt>
<pdfrwt beam="1">  1        2 0.12035773E-01 0.47227633E+03</pdfrwt>
<pdfrwt beam="2">  1       -2 0.94550167E-01 0.47227633E+03</pdfrwt>
<totfact> 0.50013678E+02</totfact>
</mgrwt>
</event>
<event>
 4    1  0.4998754E-005  0.7581726E+03  0.7818608E-02  0.9622615E-01
         -2   -1    0    0    0  501 -0.00000000000E+00  0.00000000000E+00  0.36425791562E+02  0.36425791651E+02  0.25500000000E-02 0.  1.
          2   -1    0    0  501    0  0.00000000000E+00 -0.00000000000E+00 -0.39451828631E+04  0.39451828631E+04  0.25500000000E-02 0. -1.
    5000001    1    1    2    0    0  0.24851346973E+03  0.12786951050E+03 -0.28011038416E+04  0.28220370812E+04  0.19900000000E+03 0.  0.
   -5000001    1    1    2    0    0 -0.24851346973E+03 -0.12786951050E+03 -0.11076532299E+04  0.11595715735E+04  0.19900000000E+03 0.  0.
<mgrwt>
<rscale>  0 0.75817256E+03</rscale>
<asrwt>0</asrwt>
<pdfrwt beam="1">  1        2 0.56359728E+00 0.75817256E+03</pdfrwt>
<pdfrwt beam="2">  1       -2 0.52036870E-02 0.75817256E+03</pdfrwt>
<totfact> 0.13050581E+02</totfact>
</mgrwt>
</event>
<event>
 4    1  0.4998754E-005  0.7823209E+03  0.7818608E-02  0.9585965E-01
          2   -1    0    0  501    0  0.00000000000E+00  0.00000000000E+00  0.38304850808E+03  0.38304850809E+03  0.25500000000E-02 0.  1.
         -2   -1    0    0    0  501 -0.00000000000E+00 -0.00000000000E+00 -0.39944421718E+03  0.39944421718E+03  0.25500000000E-02 0. -1.
    5000001    1    1    2    0    0 -0.29532415672E+03  0.20335983419E+02 -0.16878092672E+03  0.39461108828E+03  0.19900000000E+03 0.  0.
   -5000001    1    1    2    0    0  0.29532415672E+03 -0.20335983419E+02  0.15238521763E+03  0.38788163700E+03  0.19900000000E+03 0.  0.
<mgrwt>
<rscale>  0 0.78232094E+03</rscale>
<asrwt>0</asrwt>
<pdfrwt beam="1">  1        2 0.54721216E-01 0.78232094E+03</pdfrwt>
<pdfrwt beam="2">  1       -2 0.57063459E-01 0.78232094E+03</pdfrwt>
<totfact> 0.26325993E+02</totfact>
</mgrwt>
</event>
<event>
 4    1  0.4998754E-005  0.1299109E+04  0.7818608E-02  0.9030272E-01
          2   -1    0    0  501    0  0.00000000000E+00  0.00000000000E+00  0.90893817504E+03  0.90893817504E+03  0.25500000000E-02 0.  1.
         -2   -1    0    0    0  501 -0.00000000000E+00 -0.00000000000E+00 -0.46419080717E+03  0.46419080717E+03  0.25500000000E-02 0. -1.
    5000001    1    1    2    0    0 -0.46821215632E+03  0.18332227270E+03  0.60272430062E+03  0.80975753257E+03  0.19900000000E+03 0.  0.
   -5000001    1    1    2    0    0  0.46821215632E+03 -0.18332227270E+03 -0.15797693275E+03  0.56337144965E+03  0.19900000000E+03 0.  0.
<mgrwt>
<rscale>  0 0.12991085E+04</rscale>
<asrwt>0</asrwt>
<pdfrwt beam="1">  1        2 0.12984831E+00 0.12991085E+04</pdfrwt>
<pdfrwt beam="2">  1       -2 0.66312973E-01 0.12991085E+04</pdfrwt>
<totfact> 0.65840785E+01</totfact>
</mgrwt>
</event>
<event>
 4    1  0.4998754E-005  0.4962801E+03  0.7818608E-02  0.1014754E+00
          2   -1    0    0  501    0  0.00000000000E+00  0.00000000000E+00  0.37849574166E+03  0.37849574167E+03  0.25500000000E-02 0.  1.
         -2   -1    0    0    0  501 -0.00000000000E+00 -0.00000000000E+00 -0.16267947158E+03  0.16267947160E+03  0.25500000000E-02 0. -1.
    5000001    1    1    2    0    0 -0.11364611581E+03  0.25832179735E+02  0.80265478393E+01  0.23075564266E+03  0.19900000000E+03 0.  0.
   -5000001    1    1    2    0    0  0.11364611581E+03 -0.25832179735E+02  0.20778972225E+03  0.31041957061E+03  0.19900000000E+03 0.  0.
<mgrwt>
<rscale>  0 0.49628011E+03</rscale>
<asrwt>0</asrwt>
<pdfrwt beam="1">  1        2 0.54070820E-01 0.49628011E+03</pdfrwt>
<pdfrwt beam="2">  1       -2 0.23239925E-01 0.49628011E+03</pdfrwt>
<totfact> 0.14995003E+03</totfact>
</mgrwt>
</event>
<event>
 4    1  0.4998754E-005  0.5022221E+03  0.7818608E-02  0.1013201E+00
          2   -1    0    0  501    0  0.00000000000E+00  0.00000000000E+00  0.49011677708E+03  0.49011677709E+03  0.25500000000E-02 0.  1.
         -2   -1    0    0    0  501 -0.00000000000E+00 -0.00000000000E+00 -0.12865660331E+03  0.12865660334E+03  0.25500000000E-02 0. -1.
    5000001    1    1    2    0    0 -0.11329342681E+03 -0.97987102274E+02  0.22005781088E+03  0.33236021558E+03  0.19900000000E+03 0.  0.
   -5000001    1    1    2    0    0  0.11329342681E+03  0.97987102274E+02  0.14140236289E+03  0.28641316485E+03  0.19900000000E+03 0.  0.
<mgrwt>
<rscale>  0 0.50222210E+03</rscale>
<asrwt>0</asrwt>
<pdfrwt beam="1">  1        2 0.70016683E-01 0.50222210E+03</pdfrwt>
<pdfrwt beam="2">  1       -2 0.18379515E-01 0.50222210E+03</pdfrwt>
<totfact> 0.16929689E+03</totfact>
</mgrwt>
</event>
<event>
 4    1  0.4998754E-005  0.4839078E+03  0.7818608E-02  0.1018067E+00
          2   -1    0    0  501    0  0.00000000000E+00  0.00000000000E+00  0.91404662724E+03  0.91404662724E+03  0.25500000000E-02 0.  1.
         -2   -1    0    0    0  501 -0.00000000000E+00 -0.00000000000E+00 -0.64046716963E+02  0.64046717014E+02  0.25500000000E-02 0. -1.
    5000001    1    1    2    0    0 -0.11552466223E+03 -0.69885157434E+02  0.47888798091E+03  0.53587739369E+03  0.19900000000E+03 0.  0.
   -5000001    1    1    2    0    0  0.11552466223E+03  0.69885157434E+02  0.37111192937E+03  0.44221595056E+03  0.19900000000E+03 0.  0.
<mgrwt>
<rscale>  0 0.48390778E+03</rscale>
<asrwt>0</asrwt>
<pdfrwt beam="1">  1        2 0.13057807E+00 0.48390778E+03</pdfrwt>
<pdfrwt beam="2">  1       -2 0.91495325E-02 0.48390778E+03</pdfrwt>
<totfact> 0.25228027E+03</totfact>
</mgrwt>
</event>
<event>
 4    1  0.4998754E-005  0.4868503E+03  0.7818608E-02  0.1017269E+00
          2   -1    0    0  501    0  0.00000000000E+00  0.00000000000E+00  0.19945370786E+04  0.19945370786E+04  0.25500000000E-02 0.  1.
         -2   -1    0    0    0  501 -0.00000000000E+00 -0.00000000000E+00 -0.29709056812E+02  0.29709056921E+02  0.25500000000E-02 0. -1.
    5000001    1    1    2    0    0 -0.11277320421E+02  0.13739177233E+03  0.10885113518E+04  0.11151061116E+04  0.19900000000E+03 0.  0.
   -5000001    1    1    2    0    0  0.11277320421E+02 -0.13739177233E+03  0.87631667001E+03  0.90914002397E+03  0.19900000000E+03 0.  0.
<mgrwt>
<rscale>  0 0.48685035E+03</rscale>
<asrwt>0</asrwt>
<pdfrwt beam="1">  1        2 0.28493388E+00 0.48685035E+03</pdfrwt>
<pdfrwt beam="2">  1       -2 0.42441508E-02 0.48685035E+03</pdfrwt>
<totfact> 0.22125758E+03</totfact>
</mgrwt>
</event>
<event>
 4    1  0.4998754E-005  0.5107738E+03  0.7818608E-02  0.1011004E+00
          2   -1    0    0  501    0  0.00000000000E+00  0.00000000000E+00  0.91642818033E+03  0.91642818033E+03  0.25500000000E-02 0.  1.
         -2   -1    0    0    0  501 -0.00000000000E+00 -0.00000000000E+00 -0.71170300558E+02  0.71170300604E+02  0.25500000000E-02 0. -1.
    5000001    1    1    2    0    0  0.10803191693E+03  0.11708510486E+03  0.39257183272E+03  0.46807420427E+03  0.19900000000E+03 0.  0.
   -5000001    1    1    2    0    0 -0.10803191693E+03 -0.11708510486E+03  0.45268604704E+03  0.51952427666E+03  0.19900000000E+03 0.  0.
<mgrwt>
<rscale>  0 0.51077380E+03</rscale>
<asrwt>0</asrwt>
<pdfrwt beam="1">  1        2 0.13091831E+00 0.51077380E+03</pdfrwt>
<pdfrwt beam="2">  1       -2 0.10167186E-01 0.51077380E+03</pdfrwt>
<totfact> 0.21216387E+03</totfact>
</mgrwt>
</event>
<event>
 4    1  0.4998754E-005  0.7022034E+03  0.7818608E-02  0.9713471E-01
         -2   -1    0    0    0  501 -0.00000000000E+00  0.00000000000E+00  0.13689965769E+03  0.13689965772E+03  0.25500000000E-02 0.  1.
          2   -1    0    0  501    0  0.00000000000E+00 -0.00000000000E+00 -0.90045816231E+03  0.90045816231E+03  0.25500000000E-02 0. -1.
    5000001    1    1    2    0    0 -0.26685665466E+03  0.51160926581E+02 -0.23522572368E+03  0.41080659151E+03  0.19900000000E+03 0.  0.
   -5000001    1    1    2    0    0  0.26685665466E+03 -0.51160926581E+02 -0.52833278094E+03  0.62655122852E+03  0.19900000000E+03 0.  0.
<mgrwt>
<rscale>  0 0.70220343E+03</rscale>
<asrwt>0</asrwt>
<pdfrwt beam="1">  1        2 0.12863688E+00 0.70220343E+03</pdfrwt>
<pdfrwt beam="2">  1       -2 0.19557094E-01 0.70220343E+03</pdfrwt>
<totfact> 0.72380945E+02</totfact>
</mgrwt>
</event>
<event>
 4    1  0.4998754E-005  0.1475455E+04  0.7818608E-02  0.8900941E-01
          2   -1    0    0  501    0  0.00000000000E+00  0.00000000000E+00  0.31185432039E+03  0.31185432040E+03  0.25500000000E-02 0.  1.
         -2   -1    0    0    0  501 -0.00000000000E+00 -0.00000000000E+00 -0.17451805323E+04  0.17451805323E+04  0.25500000000E-02 0. -1.
    5000001    1    1    2    0    0 -0.74091578209E+02  0.69971742597E+03 -0.58044017917E+03  0.93359832892E+03  0.19900000000E+03 0.  0.
   -5000001    1    1    2    0    0  0.74091578209E+02 -0.69971742597E+03 -0.85288603276E+03  0.11234365238E+04  0.19900000000E+03 0.  0.
<mgrwt>
<rscale>  0 0.14754553E+04</rscale>
<asrwt>0</asrwt>
<pdfrwt beam="1">  1        2 0.44550618E-01 0.14754553E+04</pdfrwt>
<pdfrwt beam="2">  1       -2 0.24931150E+00 0.14754553E+04</pdfrwt>
<totfact> 0.71936249E+00</totfact>
</mgrwt>
</event>
<event>
 4    1  0.4998754E-005  0.7214944E+03  0.7818608E-02  0.9681164E-01
          2   -1    0    0  501    0  0.00000000000E+00  0.00000000000E+00  0.13068323326E+04  0.13068323326E+04  0.25500000000E-02 0.  1.
         -2   -1    0    0    0  501 -0.00000000000E+00 -0.00000000000E+00 -0.99583196079E+02  0.99583196112E+02  0.25500000000E-02 0. -1.
    5000001    1    1    2    0    0 -0.25262050598E+02 -0.15022376286E+03  0.11094399857E+04  0.11373932618E+04  0.19900000000E+03 0.  0.
   -5000001    1    1    2    0    0  0.25262050598E+02  0.15022376286E+03  0.97809150883E+02  0.26902226697E+03  0.19900000000E+03 0.  0.
<mgrwt>
<rscale>  0 0.72149439E+03</rscale>
<asrwt>0</asrwt>
<pdfrwt beam="1">  1        2 0.18669032E+00 0.72149439E+03</pdfrwt>
<pdfrwt beam="2">  1       -2 0.14226172E-01 0.72149439E+03</pdfrwt>
<totfact> 0.71838830E+02</totfact>
</mgrwt>
</event>
<event>
 4    1  0.4998754E-005  0.8764847E+03  0.7818608E-02  0.9455464E-01
         -2   -1    0    0    0  501 -0.00000000000E+00  0.00000000000E+00  0.14530183211E+03  0.14530183213E+03  0.25500000000E-02 0. -1.
          2   -1    0    0  501    0  0.00000000000E+00 -0.00000000000E+00 -0.13217751197E+04  0.13217751197E+04  0.25500000000E-02 0.  1.
    5000001    1    1    2    0    0  0.64593049791E+02  0.38275042547E+03 -0.65895815819E+03  0.79025122874E+03  0.19900000000E+03 0.  0.
   -5000001    1    1    2    0    0 -0.64593049791E+02 -0.38275042547E+03 -0.51751512941E+03  0.67682572310E+03  0.19900000000E+03 0.  0.
<mgrwt>
<rscale>  0 0.87648468E+03</rscale>
<asrwt>0</asrwt>
<pdfrwt beam="1">  1        2 0.18882501E+00 0.87648468E+03</pdfrwt>
<pdfrwt beam="2">  1       -2 0.20757405E-01 0.87648468E+03</pdfrwt>
<totfact> 0.36560891E+02</totfact>
</mgrwt>
</event>
<event>
 4    1  0.4998754E-005  0.6394385E+03  0.7818608E-02  0.9826801E-01
         -2   -1    0    0    0  501 -0.00000000000E+00  0.00000000000E+00  0.42607618259E+02  0.42607618335E+02  0.25500000000E-02 0. -1.
          2   -1    0    0  501    0  0.00000000000E+00 -0.00000000000E+00 -0.23991110730E+04  0.23991110730E+04  0.25500000000E-02 0.  1.
    5000001    1    1    2    0    0  0.97680410080E+02  0.17503116445E+03 -0.60620965661E+03  0.66878136847E+03  0.19900000000E+03 0.  0.
   -5000001    1    1    2    0    0 -0.97680410080E+02 -0.17503116445E+03 -0.17502937981E+04  0.17729373228E+04  0.19900000000E+03 0.  0.
<mgrwt>
<rscale>  0 0.63943853E+03</rscale>
<asrwt>0</asrwt>
<pdfrwt beam="1">  1        2 0.34273007E+00 0.63943853E+03</pdfrwt>
<pdfrwt beam="2">  1       -2 0.60868041E-02 0.63943853E+03</pdfrwt>
<totfact> 0.78472927E+02</totfact>
</mgrwt>
</event>
<event>
 4    1  0.4998754E-005  0.1306248E+04  0.7818608E-02  0.9024625E-01
         -2   -1    0    0    0  501 -0.00000000000E+00  0.00000000000E+00  0.49503446295E+03  0.49503446296E+03  0.25500000000E-02 0. -1.
          2   -1    0    0  501    0  0.00000000000E+00 -0.00000000000E+00 -0.86169923244E+03  0.86169923244E+03  0.25500000000E-02 0.  1.
    5000001    1    1    2    0    0  0.37090426946E+03  0.76307438284E+02  0.32927776000E+03  0.53983112681E+03  0.19900000000E+03 0.  0.
   -5000001    1    1    2    0    0 -0.37090426946E+03 -0.76307438284E+02 -0.69594252948E+03  0.81690256860E+03  0.19900000000E+03 0.  0.
<mgrwt>
<rscale>  0 0.13062478E+04</rscale>
<asrwt>0</asrwt>
<pdfrwt beam="1">  1        2 0.12309989E+00 0.13062478E+04</pdfrwt>
<pdfrwt beam="2">  1       -2 0.70719210E-01 0.13062478E+04</pdfrwt>
<totfact> 0.61488512E+01</totfact>
</mgrwt>
</event>
<event>
 4    1  0.4998754E-005  0.4917027E+03  0.7818608E-02  0.1015968E+00
          2   -1    0    0  501    0  0.00000000000E+00  0.00000000000E+00  0.13190708204E+04  0.13190708204E+04  0.25500000000E-02 0.  1.
         -2   -1    0    0    0  501 -0.00000000000E+00 -0.00000000000E+00 -0.45822326181E+02  0.45822326252E+02  0.25500000000E-02 0. -1.
    5000001    1    1    2    0    0  0.72745167449E+02  0.12265530218E+03  0.57420087996E+03  0.62421457295E+03  0.19900000000E+03 0.  0.
   -5000001    1    1    2    0    0 -0.72745167449E+02 -0.12265530218E+03  0.69904761427E+03  0.74067857371E+03  0.19900000000E+03 0.  0.
<mgrwt>
<rscale>  0 0.49170273E+03</rscale>
<asrwt>0</asrwt>
<pdfrwt beam="1">  1        2 0.18843868E+00 0.49170273E+03</pdfrwt>
<pdfrwt beam="2">  1       -2 0.65460470E-02 0.49170273E+03</pdfrwt>
<totfact> 0.25015640E+03</totfact>
</mgrwt>
</event>
<event>
 4    1  0.4998754E-005  0.6456898E+03  0.7818608E-02  0.9814901E-01
         -2   -1    0    0    0  501 -0.00000000000E+00  0.00000000000E+00  0.15890719822E+03  0.15890719824E+03  0.25500000000E-02 0. -1.
          2   -1    0    0  501    0  0.00000000000E+00 -0.00000000000E+00 -0.65590998933E+03  0.65590998933E+03  0.25500000000E-02 0.  1.
    5000001    1    1    2    0    0  0.16737230493E+03  0.17712986291E+03 -0.15715852662E+03  0.35169344504E+03  0.19900000000E+03 0.  0.
   -5000001    1    1    2    0    0 -0.16737230493E+03 -0.17712986291E+03 -0.33984426449E+03  0.46312374253E+03  0.19900000000E+03 0.  0.
<mgrwt>
<rscale>  0 0.64568977E+03</rscale>
<asrwt>0</asrwt>
<pdfrwt beam="1">  1        2 0.93701426E-01 0.64568977E+03</pdfrwt>
<pdfrwt beam="2">  1       -2 0.22701029E-01 0.64568977E+03</pdfrwt>
<totfact> 0.83367085E+02</totfact>
</mgrwt>
</event>
<event>
 4    1  0.4998754E-005  0.7813701E+03  0.7818608E-02  0.9587382E-01
         -2   -1    0    0    0  501 -0.00000000000E+00  0.00000000000E+00  0.79062258731E+02  0.79062258772E+02  0.25500000000E-02 0. -1.
          2   -1    0    0  501    0  0.00000000000E+00 -0.00000000000E+00 -0.19305648098E+04  0.19305648098E+04  0.25500000000E-02 0.  1.
    5000001    1    1    2    0    0 -0.25801780168E+03  0.16611329578E+03 -0.57247854377E+03  0.67933754210E+03  0.19900000000E+03 0.  0.
   -5000001    1    1    2    0    0  0.25801780168E+03 -0.16611329578E+03 -0.12790240073E+04  0.13302895265E+04  0.19900000000E+03 0.  0.
<mgrwt>
<rscale>  0 0.78137012E+03</rscale>
<asrwt>0</asrwt>
<pdfrwt beam="1">  1        2 0.27579494E+00 0.78137012E+03</pdfrwt>
<pdfrwt beam="2">  1       -2 0.11294610E-01 0.78137012E+03</pdfrwt>
<totfact> 0.49799935E+02</totfact>
</mgrwt>
</event>
<event>
 4    1  0.4998754E-005  0.8036975E+03  0.7818608E-02  0.9554680E-01
         -2   -1    0    0    0  501 -0.00000000000E+00  0.00000000000E+00  0.52507920982E+02  0.52507921044E+02  0.25500000000E-02 0. -1.
          2   -1    0    0  501    0  0.00000000000E+00 -0.00000000000E+00 -0.30753915959E+04  0.30753915959E+04  0.25500000000E-02 0.  1.
    5000001    1    1    2    0    0 -0.32235958666E+03 -0.10197905535E+03 -0.18499685959E+04  0.18911108473E+04  0.19900000000E+03 0.  0.
   -5000001    1    1    2    0    0  0.32235958666E+03  0.10197905535E+03 -0.11729150790E+04  0.12367886696E+04  0.19900000000E+03 0.  0.
<mgrwt>
<rscale>  0 0.80369750E+03</rscale>
<asrwt>0</asrwt>
<pdfrwt beam="1">  1        2 0.43934154E+00 0.80369750E+03</pdfrwt>
<pdfrwt beam="2">  1       -2 0.75011335E-02 0.80369750E+03</pdfrwt>
<totfact> 0.24358632E+02</totfact>
</mgrwt>
</event>
<event>
 4    1  0.4998754E-005  0.6638714E+03  0.7818608E-02  0.9781093E-01
          2   -1    0    0  501    0  0.00000000000E+00  0.00000000000E+00  0.11517377008E+04  0.11517377008E+04  0.25500000000E-02 0.  1.
         -2   -1    0    0    0  501 -0.00000000000E+00 -0.00000000000E+00 -0.95665289815E+02  0.95665289849E+02  0.25500000000E-02 0. -1.
    5000001    1    1    2    0    0 -0.24372280624E+03 -0.65788176578E+02  0.68356593852E+03  0.75537559052E+03  0.19900000000E+03 0.  0.
   -5000001    1    1    2    0    0  0.24372280624E+03  0.65788176578E+02  0.37250647251E+03  0.49202740017E+03  0.19900000000E+03 0.  0.
<mgrwt>
<rscale>  0 0.66387144E+03</rscale>
<asrwt>0</asrwt>
<pdfrwt beam="1">  1        2 0.16453395E+00 0.66387144E+03</pdfrwt>
<pdfrwt beam="2">  1       -2 0.13666470E-01 0.66387144E+03</pdfrwt>
<totfact> 0.93993373E+02</totfact>
</mgrwt>
</event>
<event>
 4    1  0.4998754E-005  0.9194668E+03  0.7818608E-02  0.9401569E-01
         -2   -1    0    0    0  501 -0.00000000000E+00  0.00000000000E+00  0.58344662270E+02  0.58344662326E+02  0.25500000000E-02 0. -1.
          2   -1    0    0  501    0  0.00000000000E+00 -0.00000000000E+00 -0.36225214642E+04  0.36225214642E+04  0.25500000000E-02 0.  1.
    5000001    1    1    2    0    0  0.15749846450E+03  0.37188779587E+03 -0.21543592878E+04  0.22009023695E+04  0.19900000000E+03 0.  0.
   -5000001    1    1    2    0    0 -0.15749846450E+03 -0.37188779587E+03 -0.14098175141E+04  0.14799637571E+04  0.19900000000E+03 0.  0.
<mgrwt>
<rscale>  0 0.91946678E+03</rscale>
<asrwt>0</asrwt>
<pdfrwt beam="1">  1        2 0.51750292E+00 0.91946678E+03</pdfrwt>
<pdfrwt beam="2">  1       -2 0.83349541E-02 0.91946678E+03</pdfrwt>
<totfact> 0.97439976E+01</totfact>
</mgrwt>
</event>
<event>
 4    1  0.4998754E-005  0.5726784E+03  0.7818608E-02  0.9963769E-01
          2   -1    0    0  501    0  0.00000000000E+00  0.00000000000E+00  0.25754983168E+03  0.25754983170E+03  0.25500000000E-02 0.  1.
         -2   -1    0    0    0  501 -0.00000000000E+00 -0.00000000000E+00 -0.31834664219E+03  0.31834664220E+03  0.25500000000E-02 0. -1.
    5000001    1    1    2    0    0 -0.12243218634E+03  0.79682603046E+02 -0.17630046430E+03  0.30335097032E+03  0.19900000000E+03 0.  0.
   -5000001    1    1    2    0    0  0.12243218634E+03 -0.79682603046E+02  0.11550365379E+03  0.27254550358E+03  0.19900000000E+03 0.  0.
<mgrwt>
<rscale>  0 0.57267835E+03</rscale>
<asrwt>0</asrwt>
<pdfrwt beam="1">  1        2 0.36792833E-01 0.57267835E+03</pdfrwt>
<pdfrwt beam="2">  1       -2 0.45478092E-01 0.57267835E+03</pdfrwt>
<totfact> 0.65244086E+02</totfact>
</mgrwt>
</event>
<event>
 4    1  0.4998754E-005  0.6841076E+03  0.7818608E-02  0.9744803E-01
         -2   -1    0    0    0  501 -0.00000000000E+00  0.00000000000E+00  0.54504215758E+02  0.54504215818E+02  0.25500000000E-02 0. -1.
          2   -1    0    0  501    0  0.00000000000E+00 -0.00000000000E+00 -0.21466374392E+04  0.21466374392E+04  0.25500000000E-02 0.  1.
    5000001    1    1    2    0    0  0.27148225646E+02 -0.27310715446E+03 -0.89949211323E+03  0.96125522403E+03  0.19900000000E+03 0.  0.
   -5000001    1    1    2    0    0 -0.27148225646E+02  0.27310715446E+03 -0.11926411102E+04  0.12398864310E+04  0.19900000000E+03 0.  0.
<mgrwt>
<rscale>  0 0.68410757E+03</rscale>
<asrwt>0</asrwt>
<pdfrwt beam="1">  1        2 0.30666244E+00 0.68410757E+03</pdfrwt>
<pdfrwt beam="2">  1       -2 0.77863179E-02 0.68410757E+03</pdfrwt>
<totfact> 0.71163219E+02</totfact>
</mgrwt>
</event>
<event>
 4    1  0.4998754E-005  0.5405459E+03  0.7818608E-02  0.1003706E+00
          2   -1    0    0  501    0  0.00000000000E+00  0.00000000000E+00  0.44924241616E+03  0.44924241616E+03  0.25500000000E-02 0.  1.
         -2   -1    0    0    0  501 -0.00000000000E+00 -0.00000000000E+00 -0.16260144291E+03  0.16260144293E+03  0.25500000000E-02 0. -1.
    5000001    1    1    2    0    0 -0.58187975396E+02  0.17209086017E+03  0.16720761055E+03  0.31711273967E+03  0.19900000000E+03 0.  0.
   -5000001    1    1    2    0    0  0.58187975396E+02 -0.17209086017E+03  0.11943336270E+03  0.29473111943E+03  0.19900000000E+03 0.  0.
<mgrwt>
<rscale>  0 0.54054589E+03</rscale>
<asrwt>0</asrwt>
<pdfrwt beam="1">  1        2 0.64177489E-01 0.54054589E+03</pdfrwt>
<pdfrwt beam="2">  1       -2 0.23228777E-01 0.54054589E+03</pdfrwt>
<totfact> 0.12410665E+03</totfact>
</mgrwt>
</event>
<event>
 4    1  0.4998754E-005  0.1809138E+04  0.7818608E-02  0.8701455E-01
         -2   -1    0    0    0  501 -0.00000000000E+00  0.00000000000E+00  0.59950684888E+03  0.59950684888E+03  0.25500000000E-02 0. -1.
          2   -1    0    0  501    0  0.00000000000E+00 -0.00000000000E+00 -0.13648642946E+04  0.13648642946E+04  0.25500000000E-02 0.  1.
    5000001    1    1    2    0    0  0.65047661157E+03 -0.40264810057E+03  0.94827516285E+02  0.79613979485E+03  0.19900000000E+03 0.  0.
   -5000001    1    1    2    0    0 -0.65047661157E+03  0.40264810057E+03 -0.86018496205E+03  0.11682313487E+04  0.19900000000E+03 0.  0.
<mgrwt>
<rscale>  0 0.18091385E+04</rscale>
<asrwt>0</asrwt>
<pdfrwt beam="1">  1        2 0.19498061E+00 0.18091385E+04</pdfrwt>
<pdfrwt beam="2">  1       -2 0.85643836E-01 0.18091385E+04</pdfrwt>
<totfact> 0.19381619E+01</totfact>
</mgrwt>
</event>
<event>
 4    1  0.4998754E-005  0.5733534E+03  0.7818608E-02  0.9962285E-01
         -2   -1    0    0    0  501 -0.00000000000E+00  0.00000000000E+00  0.12289674161E+03  0.12289674164E+03  0.25500000000E-02 0. -1.
          2   -1    0    0  501    0  0.00000000000E+00 -0.00000000000E+00 -0.66872010813E+03  0.66872010813E+03  0.25500000000E-02 0.  1.
    5000001    1    1    2    0    0  0.87124487652E+02  0.56712548446E+02 -0.51902724773E+03  0.56550620986E+03  0.19900000000E+03 0.  0.
   -5000001    1    1    2    0    0 -0.87124487652E+02 -0.56712548446E+02 -0.26796118788E+02  0.22611063991E+03  0.19900000000E+03 0.  0.
<mgrwt>
<rscale>  0 0.57335337E+03</rscale>
<asrwt>0</asrwt>
<pdfrwt beam="1">  1        2 0.95531442E-01 0.57335337E+03</pdfrwt>
<pdfrwt beam="2">  1       -2 0.17556678E-01 0.57335337E+03</pdfrwt>
<totfact> 0.12757225E+03</totfact>
</mgrwt>
</event>
<event>
 4    1  0.4998754E-005  0.7986949E+03  0.7818608E-02  0.9561908E-01
         -2   -1    0    0    0  501 -0.00000000000E+00  0.00000000000E+00  0.80806459143E+02  0.80806459183E+02  0.25500000000E-02 0. -1.
          2   -1    0    0  501    0  0.00000000000E+00 -0.00000000000E+00 -0.19735848411E+04  0.19735848411E+04  0.25500000000E-02 0.  1.
    5000001    1    1    2    0    0 -0.32559936255E+03 -0.11382429194E+03 -0.86894597266E+03  0.95584466192E+03  0.19900000000E+03 0.  0.
   -5000001    1    1    2    0    0  0.32559936255E+03  0.11382429194E+03 -0.10238324093E+04  0.10985466384E+04  0.19900000000E+03 0.  0.
<mgrwt>
<rscale>  0 0.79869494E+03</rscale>
<asrwt>0</asrwt>
<pdfrwt beam="1">  1        2 0.28194066E+00 0.79869494E+03</pdfrwt>
<pdfrwt beam="2">  1       -2 0.11543781E-01 0.79869494E+03</pdfrwt>
<totfact> 0.45638490E+02</totfact>
</mgrwt>
</event>
<event>
 4    1  0.4998754E-005  0.8174764E+03  0.7818608E-02  0.9535060E-01
          2   -1    0    0  501    0  0.00000000000E+00  0.00000000000E+00  0.71817142334E+03  0.71817142335E+03  0.25500000000E-02 0.  1.
         -2   -1    0    0    0  501 -0.00000000000E+00 -0.00000000000E+00 -0.23262818485E+03  0.23262818487E+03  0.25500000000E-02 0. -1.
    5000001    1    1    2    0    0  0.21690411651E+03 -0.27541592556E+03  0.16419116981E+03  0.43527125802E+03  0.19900000000E+03 0.  0.
   -5000001    1    1    2    0    0 -0.21690411651E+03  0.27541592556E+03  0.32135206868E+03  0.51552835020E+03  0.19900000000E+03 0.  0.
<mgrwt>
<rscale>  0 0.81747640E+03</rscale>
<asrwt>0</asrwt>
<pdfrwt beam="1">  1        2 0.10259592E+00 0.81747640E+03</pdfrwt>
<pdfrwt beam="2">  1       -2 0.33232598E-01 0.81747640E+03</pdfrwt>
<totfact> 0.36973488E+02</totfact>
</mgrwt>
</event>
<event>
 4    1  0.4998754E-005  0.6213518E+03  0.7818608E-02  0.9862072E-01
          2   -1    0    0  501    0  0.00000000000E+00  0.00000000000E+00  0.19443695976E+04  0.19443695976E+04  0.25500000000E-02 0.  1.
         -2   -1    0    0    0  501 -0.00000000000E+00 -0.00000000000E+00 -0.49640517127E+02  0.49640517193E+02  0.25500000000E-02 0. -1.
    5000001    1    1    2    0    0 -0.71070097365E+02  0.19309812019E+03  0.55985844647E+03  0.62879275031E+03  0.19900000000E+03 0.  0.
   -5000001    1    1    2    0    0  0.71070097365E+02 -0.19309812019E+03  0.13348706340E+04  0.13652173645E+04  0.19900000000E+03 0.  0.
<mgrwt>
<rscale>  0 0.62135179E+03</rscale>
<asrwt>0</asrwt>
<pdfrwt beam="1">  1        2 0.27776707E+00 0.62135179E+03</pdfrwt>
<pdfrwt beam="2">  1       -2 0.70915028E-02 0.62135179E+03</pdfrwt>
<totfact> 0.10478003E+03</totfact>
</mgrwt>
</event>
<event>
 4    1  0.4998754E-005  0.7724338E+03  0.7818608E-02  0.9600798E-01
         -2   -1    0    0    0  501 -0.00000000000E+00  0.00000000000E+00  0.30240222036E+03  0.30240222037E+03  0.25500000000E-02 0. -1.
          2   -1    0    0  501    0  0.00000000000E+00 -0.00000000000E+00 -0.49326191822E+03  0.49326191823E+03  0.25500000000E-02 0.  1.
    5000001    1    1    2    0    0 -0.24742041644E+03  0.17306976743E+03 -0.23512740234E+03  0.43134197825E+03  0.19900000000E+03 0.  0.
   -5000001    1    1    2    0    0  0.24742041644E+03 -0.17306976743E+03  0.44267704476E+02  0.36432216036E+03  0.19900000000E+03 0.  0.
<mgrwt>
<rscale>  0 0.77243381E+03</rscale>
<asrwt>0</asrwt>
<pdfrwt beam="1">  1        2 0.70465988E-01 0.77243381E+03</pdfrwt>
<pdfrwt beam="2">  1       -2 0.43200318E-01 0.77243381E+03</pdfrwt>
<totfact> 0.34857347E+02</totfact>
</mgrwt>
</event>
<event>
 4    1  0.4998754E-005  0.4783760E+03  0.7818608E-02  0.1019582E+00
         -2   -1    0    0    0  501 -0.00000000000E+00  0.00000000000E+00  0.20264301356E+02  0.20264301517E+02  0.25500000000E-02 0. -1.
          2   -1    0    0  501    0  0.00000000000E+00 -0.00000000000E+00 -0.28232354688E+04  0.28232354688E+04  0.25500000000E-02 0.  1.
    5000001    1    1    2    0    0  0.10253225160E+02  0.13164874124E+03 -0.13232189037E+04  0.13445987457E+04  0.19900000000E+03 0.  0.
   -5000001    1    1    2    0    0 -0.10253225160E+02 -0.13164874124E+03 -0.14797522638E+04  0.14989010247E+04  0.19900000000E+03 0.  0.
<mgrwt>
<rscale>  0 0.47837598E+03</rscale>
<asrwt>0</asrwt>
<pdfrwt beam="1">  1        2 0.40331910E+00 0.47837598E+03</pdfrwt>
<pdfrwt beam="2">  1       -2 0.28949020E-02 0.47837598E+03</pdfrwt>
<totfact> 0.15022955E+03</totfact>
</mgrwt>
</event>
<event>
 4    1  0.4998754E-005  0.1119030E+04  0.7818608E-02  0.9186840E-01
         -2   -1    0    0    0  501 -0.00000000000E+00  0.00000000000E+00  0.10683320928E+04  0.10683320928E+04  0.25500000000E-02 0.  1.
          2   -1    0    0  501    0  0.00000000000E+00 -0.00000000000E+00 -0.29303340069E+03  0.29303340070E+03  0.25500000000E-02 0. -1.
    5000001    1    1    2    0    0  0.31573804272E+03  0.35110818669E+03  0.66100580813E+03  0.83635946145E+03  0.19900000000E+03 0.  0.
   -5000001    1    1    2    0    0 -0.31573804272E+03 -0.35110818669E+03  0.11429288400E+03  0.52500603208E+03  0.19900000000E+03 0.  0.
<mgrwt>
<rscale>  0 0.11190299E+04</rscale>
<asrwt>0</asrwt>
<pdfrwt beam="1">  1        2 0.41861915E-01 0.11190299E+04</pdfrwt>
<pdfrwt beam="2">  1       -2 0.15261887E+00 0.11190299E+04</pdfrwt>
<totfact> 0.34736102E+01</totfact>
</mgrwt>
</event>
<event>
 4    1  0.4998754E-005  0.5260079E+03  0.7818608E-02  0.1007205E+00
          2   -1    0    0  501    0  0.00000000000E+00  0.00000000000E+00  0.15220880248E+04  0.15220880248E+04  0.25500000000E-02 0. -1.
         -2   -1    0    0    0  501 -0.00000000000E+00 -0.00000000000E+00 -0.45444868154E+02  0.45444868225E+02  0.25500000000E-02 0.  1.
    5000001    1    1    2    0    0  0.51185249807E+02  0.14531923938E+03  0.96591040300E+03  0.99815906435E+03  0.19900000000E+03 0.  0.
   -5000001    1    1    2    0    0 -0.51185249807E+02 -0.14531923938E+03  0.51073275365E+03  0.56937382868E+03  0.19900000000E+03 0.  0.
<mgrwt>
<rscale>  0 0.52600795E+03</rscale>
<asrwt>0</asrwt>
<pdfrwt beam="1">  1        2 0.21744116E+00 0.52600795E+03</pdfrwt>
<pdfrwt beam="2">  1       -2 0.64921236E-02 0.52600795E+03</pdfrwt>
<totfact> 0.19804458E+03</totfact>
</mgrwt>
</event>
<event>
 4    1  0.4998754E-005  0.5448362E+03  0.7818608E-02  0.1002696E+00
         -2   -1    0    0    0  501 -0.00000000000E+00  0.00000000000E+00  0.10107783675E+04  0.10107783675E+04  0.25500000000E-02 0. -1.
          2   -1    0    0  501    0  0.00000000000E+00 -0.00000000000E+00 -0.73420266379E+02  0.73420266424E+02  0.25500000000E-02 0.  1.
    5000001    1    1    2    0    0 -0.89879535148E+01 -0.16712843712E+03  0.30703995579E+03  0.40235212471E+03  0.19900000000E+03 0.  0.
   -5000001    1    1    2    0    0  0.89879535148E+01  0.16712843712E+03  0.63031814528E+03  0.68184650917E+03  0.19900000000E+03 0.  0.
<mgrwt>
<rscale>  0 0.54483618E+03</rscale>
<asrwt>0</asrwt>
<pdfrwt beam="1">  1        2 0.10488610E-01 0.54483618E+03</pdfrwt>
<pdfrwt beam="2">  1       -2 0.14439690E+00 0.54483618E+03</pdfrwt>
<totfact> 0.21058810E+02</totfact>
</mgrwt>
</event>
<event>
 4    1  0.4998754E-005  0.6133735E+03  0.7818608E-02  0.9878042E-01
          2   -1    0    0  501    0  0.00000000000E+00  0.00000000000E+00  0.61615406926E+03  0.61615406927E+03  0.25500000000E-02 0.  1.
         -2   -1    0    0    0  501 -0.00000000000E+00 -0.00000000000E+00 -0.15265135391E+03  0.15265135394E+03  0.25500000000E-02 0. -1.
    5000001    1    1    2    0    0 -0.99820438730E+02 -0.11363354116E+03  0.90150629953E+01  0.25011791824E+03  0.19900000000E+03 0.  0.
   -5000001    1    1    2    0    0  0.99820438730E+02  0.11363354116E+03  0.45448765235E+03  0.51868750496E+03  0.19900000000E+03 0.  0.
<mgrwt>
<rscale>  0 0.61337347E+03</rscale>
<asrwt>0</asrwt>
<pdfrwt beam="1">  1        2 0.88022011E-01 0.61337347E+03</pdfrwt>
<pdfrwt beam="2">  1       -2 0.21807336E-01 0.61337347E+03</pdfrwt>
<totfact> 0.96499819E+02</totfact>
</mgrwt>
</event>
<event>
 4    1  0.4998754E-005  0.6498134E+03  0.7818608E-02  0.9807129E-01
          2   -1    0    0  501    0  0.00000000000E+00  0.00000000000E+00  0.38440481755E+04  0.38440481755E+04  0.25500000000E-02 0.  1.
         -2   -1    0    0    0  501 -0.00000000000E+00 -0.00000000000E+00 -0.27461772705E+02  0.27461772823E+02  0.25500000000E-02 0. -1.
    5000001    1    1    2    0    0  0.25158270724E+03  0.26899830955E+02  0.21711105056E+04  0.21948437956E+04  0.19900000000E+03 0.  0.
   -5000001    1    1    2    0    0 -0.25158270724E+03 -0.26899830955E+02  0.16454758972E+04  0.16766661527E+04  0.19900000000E+03 0.  0.
<mgrwt>
<rscale>  0 0.64981344E+03</rscale>
<asrwt>0</asrwt>
<pdfrwt beam="1">  1        2 0.54914899E+00 0.64981344E+03</pdfrwt>
<pdfrwt beam="2">  1       -2 0.39231157E-02 0.64981344E+03</pdfrwt>
<totfact> 0.23872718E+02</totfact>
</mgrwt>
</event>
<event>
 4    1  0.4998754E-005  0.5417213E+03  0.7818608E-02  0.1003428E+00
         -2   -1    0    0    0  501 -0.00000000000E+00  0.00000000000E+00  0.28736424223E+02  0.28736424336E+02  0.25500000000E-02 0. -1.
          2   -1    0    0  501    0  0.00000000000E+00 -0.00000000000E+00 -0.25530487494E+04  0.25530487494E+04  0.25500000000E-02 0.  1.
    5000001    1    1    2    0    0  0.16647228711E+03 -0.52790827636E+02 -0.98984900387E+03  0.10246472292E+04  0.19900000000E+03 0.  0.
   -5000001    1    1    2    0    0 -0.16647228711E+03  0.52790827636E+02 -0.15344633213E+04  0.15571379446E+04  0.19900000000E+03 0.  0.
<mgrwt>
<rscale>  0 0.54172130E+03</rscale>
<asrwt>0</asrwt>
<pdfrwt beam="1">  1        2 0.36472111E+00 0.54172130E+03</pdfrwt>
<pdfrwt beam="2">  1       -2 0.41052051E-02 0.54172130E+03</pdfrwt>
<totfact> 0.12142673E+03</totfact>
</mgrwt>
</event>
<event>
 4    1  0.4998754E-005  0.6078464E+03  0.7818608E-02  0.9889260E-01
          2   -1    0    0  501    0  0.00000000000E+00  0.00000000000E+00  0.21468183264E+04  0.21468183264E+04  0.25500000000E-02 0.  1.
         -2   -1    0    0    0  501 -0.00000000000E+00 -0.00000000000E+00 -0.43026142157E+02  0.43026142233E+02  0.25500000000E-02 0. -1.
    5000001    1    1    2    0    0 -0.18327656101E+03 -0.72227073342E+02  0.62621753631E+03  0.68597117339E+03  0.19900000000E+03 0.  0.
   -5000001    1    1    2    0    0  0.18327656101E+03  0.72227073342E+02  0.14775746480E+04  0.15038732953E+04  0.19900000000E+03 0.  0.
<mgrwt>
<rscale>  0 0.60784640E+03</rscale>
<asrwt>0</asrwt>
<pdfrwt beam="1">  1        2 0.30668833E+00 0.60784640E+03</pdfrwt>
<pdfrwt beam="2">  1       -2 0.61465919E-02 0.60784640E+03</pdfrwt>
<totfact> 0.10391650E+03</totfact>
</mgrwt>
</event>
<event>
 4    1  0.4998754E-005  0.5896470E+03  0.7818608E-02  0.9927121E-01
          2   -1    0    0  501    0  0.00000000000E+00  0.00000000000E+00  0.85480668566E+03  0.85480668566E+03  0.25500000000E-02 0.  1.
         -2   -1    0    0    0  501 -0.00000000000E+00 -0.00000000000E+00 -0.10168484047E+03  0.10168484050E+03  0.25500000000E-02 0. -1.
    5000001    1    1    2    0    0  0.18557526907E+03  0.40148248158E+02  0.54876663107E+03  0.61383701232E+03  0.19900000000E+03 0.  0.
   -5000001    1    1    2    0    0 -0.18557526907E+03 -0.40148248158E+02  0.20435521412E+03  0.34265451384E+03  0.19900000000E+03 0.  0.
<mgrwt>
<rscale>  0 0.58964695E+03</rscale>
<asrwt>0</asrwt>
<pdfrwt beam="1">  1        2 0.12211524E+00 0.58964695E+03</pdfrwt>
<pdfrwt beam="2">  1       -2 0.14526406E-01 0.58964695E+03</pdfrwt>
<totfact> 0.12923259E+03</totfact>
</mgrwt>
</event>
<event>
 4    1  0.4998754E-005  0.7937821E+03  0.7818608E-02  0.9569061E-01
         -2   -1    0    0    0  501 -0.00000000000E+00  0.00000000000E+00  0.14032456812E+03  0.14032456814E+03  0.25500000000E-02 0. -1.
          2   -1    0    0  501    0  0.00000000000E+00 -0.00000000000E+00 -0.11225584005E+04  0.11225584005E+04  0.25500000000E-02 0.  1.
    5000001    1    1    2    0    0  0.77545584278E+01  0.32590046166E+03 -0.66284049786E+03  0.76500311744E+03  0.19900000000E+03 0.  0.
   -5000001    1    1    2    0    0 -0.77545584278E+01 -0.32590046166E+03 -0.31939333450E+03  0.49787985118E+03  0.19900000000E+03 0.  0.
<mgrwt>
<rscale>  0 0.79378214E+03</rscale>
<asrwt>0</asrwt>
<pdfrwt beam="1">  1        2 0.16036548E+00 0.79378214E+03</pdfrwt>
<pdfrwt beam="2">  1       -2 0.20046368E-01 0.79378214E+03</pdfrwt>
<totfact> 0.50523124E+02</totfact>
</mgrwt>
</event>
<event>
 4    1  0.4998754E-005  0.1272074E+04  0.7818608E-02  0.9052009E-01
         -2   -1    0    0    0  501 -0.00000000000E+00  0.00000000000E+00  0.26414097230E+03  0.26414097231E+03  0.25500000000E-02 0. -1.
          2   -1    0    0  501    0  0.00000000000E+00 -0.00000000000E+00 -0.15315419054E+04  0.15315419054E+04  0.25500000000E-02 0.  1.
    5000001    1    1    2    0    0  0.44591890211E+03 -0.14617225863E+03 -0.96669218251E+02  0.51880240382E+03  0.19900000000E+03 0.  0.
   -5000001    1    1    2    0    0 -0.44591890211E+03  0.14617225863E+03 -0.11707317148E+04  0.12768804739E+04  0.19900000000E+03 0.  0.
<mgrwt>
<rscale>  0 0.12720738E+04</rscale>
<asrwt>0</asrwt>
<pdfrwt beam="1">  1        2 0.21879169E+00 0.12720738E+04</pdfrwt>
<pdfrwt beam="2">  1       -2 0.37734426E-01 0.12720738E+04</pdfrwt>
<totfact> 0.91494941E+01</totfact>
</mgrwt>
</event>
<event>
 4    1  0.4998754E-005  0.7580050E+03  0.7818608E-02  0.9622875E-01
          2   -1    0    0  501    0  0.00000000000E+00  0.00000000000E+00  0.12372782513E+04  0.12372782513E+04  0.25500000000E-02 0.  1.
         -2   -1    0    0    0  501 -0.00000000000E+00 -0.00000000000E+00 -0.11609588142E+03  0.11609588144E+03  0.25500000000E-02 0. -1.
    5000001    1    1    2    0    0  0.14044843804E+03  0.29011867048E+03  0.58226077864E+03  0.69463891415E+03  0.19900000000E+03 0.  0.
   -5000001    1    1    2    0    0 -0.14044843804E+03 -0.29011867048E+03  0.53892159123E+03  0.65873521858E+03  0.19900000000E+03 0.  0.
<mgrwt>
<rscale>  0 0.75800504E+03</rscale>
<asrwt>0</asrwt>
<pdfrwt beam="1">  1        2 0.17675404E+00 0.75800504E+03</pdfrwt>
<pdfrwt beam="2">  1       -2 0.16585125E-01 0.75800504E+03</pdfrwt>
<totfact> 0.60420665E+02</totfact>
</mgrwt>
</event>
<event>
 4    1  0.4998754E-005  0.5641470E+03  0.7818608E-02  0.9982715E-01
         -2   -1    0    0    0  501 -0.00000000000E+00  0.00000000000E+00  0.40082646905E+02  0.40082646986E+02  0.25500000000E-02 0. -1.
          2   -1    0    0  501    0  0.00000000000E+00 -0.00000000000E+00 -0.19850351456E+04  0.19850351456E+04  0.25500000000E-02 0.  1.
    5000001    1    1    2    0    0  0.85519018853E+02  0.85461704961E+02 -0.40096671027E+03  0.46367284624E+03  0.19900000000E+03 0.  0.
   -5000001    1    1    2    0    0 -0.85519018853E+02 -0.85461704961E+02 -0.15439857884E+04  0.15614449464E+04  0.19900000000E+03 0.  0.
<mgrwt>
<rscale>  0 0.56414701E+03</rscale>
<asrwt>0</asrwt>
<pdfrwt beam="1">  1        2 0.28357639E+00 0.56414701E+03</pdfrwt>
<pdfrwt beam="2">  1       -2 0.57260937E-02 0.56414701E+03</pdfrwt>
<totfact> 0.14030691E+03</totfact>
</mgrwt>
</event>
<event>
 4    1  0.4998754E-005  0.6190638E+03  0.7818608E-02  0.9866625E-01
          2   -1    0    0  501    0  0.00000000000E+00  0.00000000000E+00  0.25718737042E+03  0.25718737044E+03  0.25500000000E-02 0.  1.
         -2   -1    0    0    0  501 -0.00000000000E+00 -0.00000000000E+00 -0.37252995886E+03  0.37252995887E+03  0.25500000000E-02 0. -1.
    5000001    1    1    2    0    0 -0.10548837186E+03  0.20679449527E+03 -0.87051623356E+01  0.30588975093E+03  0.19900000000E+03 0.  0.
   -5000001    1    1    2    0    0  0.10548837186E+03 -0.20679449527E+03 -0.10663742610E+03  0.32382757838E+03  0.19900000000E+03 0.  0.
<mgrwt>
<rscale>  0 0.61906381E+03</rscale>
<asrwt>0</asrwt>
<pdfrwt beam="1">  1        2 0.36741053E-01 0.61906381E+03</pdfrwt>
<pdfrwt beam="2">  1       -2 0.53218565E-01 0.61906381E+03</pdfrwt>
<totfact> 0.47539495E+02</totfact>
</mgrwt>
</event>
<event>
 4    1  0.4998754E-005  0.9491642E+03  0.7818608E-02  0.9366128E-01
         -2   -1    0    0    0  501 -0.00000000000E+00  0.00000000000E+00  0.17018636177E+03  0.17018636179E+03  0.25500000000E-02 0. -1.
          2   -1    0    0  501    0  0.00000000000E+00 -0.00000000000E+00 -0.13234207465E+04  0.13234207465E+04  0.25500000000E-02 0.  1.
    5000001    1    1    2    0    0 -0.36534338524E+03 -0.21996629093E+03 -0.48004614743E+03  0.67223973548E+03  0.19900000000E+03 0.  0.
   -5000001    1    1    2    0    0  0.36534338524E+03  0.21996629093E+03 -0.67318823725E+03  0.82136737277E+03  0.19900000000E+03 0.  0.
<mgrwt>
<rscale>  0 0.94916418E+03</rscale>
<asrwt>0</asrwt>
<pdfrwt beam="1">  1        2 0.18906010E+00 0.94916418E+03</pdfrwt>
<pdfrwt beam="2">  1       -2 0.24312338E-01 0.94916418E+03</pdfrwt>
<totfact> 0.27428236E+02</totfact>
</mgrwt>
</event>
<event>
 4    1  0.4998754E-005  0.7569662E+03  0.7818608E-02  0.9624484E-01
          2   -1    0    0  501    0  0.00000000000E+00  0.00000000000E+00  0.11585634586E+04  0.11585634586E+04  0.25500000000E-02 0.  1.
         -2   -1    0    0    0  501 -0.00000000000E+00 -0.00000000000E+00 -0.12364404336E+03  0.12364404338E+03  0.25500000000E-02 0. -1.
    5000001    1    1    2    0    0  0.14039355928E+03  0.28613446928E+03  0.44048266245E+03  0.57897259168E+03  0.19900000000E+03 0.  0.
   -5000001    1    1    2    0    0 -0.14039355928E+03 -0.28613446928E+03  0.59443675277E+03  0.70323491028E+03  0.19900000000E+03 0.  0.
<mgrwt>
<rscale>  0 0.75696624E+03</rscale>
<asrwt>0</asrwt>
<pdfrwt beam="1">  1        2 0.16550906E+00 0.75696624E+03</pdfrwt>
<pdfrwt beam="2">  1       -2 0.17663435E-01 0.75696624E+03</pdfrwt>
<totfact> 0.60087222E+02</totfact>
</mgrwt>
</event>
<event>
 4    1  0.4998754E-005  0.5327745E+03  0.7818608E-02  0.1005561E+00
         -2   -1    0    0    0  501 -0.00000000000E+00  0.00000000000E+00  0.50112555944E+03  0.50112555944E+03  0.25500000000E-02 0. -1.
          2   -1    0    0  501    0  0.00000000000E+00 -0.00000000000E+00 -0.14160556938E+03  0.14160556941E+03  0.25500000000E-02 0.  1.
    5000001    1    1    2    0    0 -0.17101882268E+03 -0.24117368388E+02  0.13253984886E+03  0.29495236345E+03  0.19900000000E+03 0.  0.
   -5000001    1    1    2    0    0  0.17101882268E+03  0.24117368388E+02  0.22698014120E+03  0.34777876540E+03  0.19900000000E+03 0.  0.
<mgrwt>
<rscale>  0 0.53277451E+03</rscale>
<asrwt>0</asrwt>
<pdfrwt beam="1">  1        2 0.20229367E-01 0.53277451E+03</pdfrwt>
<pdfrwt beam="2">  1       -2 0.71589366E-01 0.53277451E+03</pdfrwt>
<totfact> 0.50039835E+02</totfact>
</mgrwt>
</event>
<event>
 4    1  0.4998754E-005  0.5694099E+03  0.7818608E-02  0.9970985E-01
          2   -1    0    0  501    0  0.00000000000E+00  0.00000000000E+00  0.51165863827E+03  0.51165863827E+03  0.25500000000E-02 0.  1.
         -2   -1    0    0    0  501 -0.00000000000E+00 -0.00000000000E+00 -0.15841992061E+03  0.15841992063E+03  0.25500000000E-02 0. -1.
    5000001    1    1    2    0    0  0.17806839430E+03  0.89087477983E+02  0.12654001945E+03  0.30863944710E+03  0.19900000000E+03 0.  0.
   -5000001    1    1    2    0    0 -0.17806839430E+03 -0.89087477983E+02  0.22669869820E+03  0.36143911181E+03  0.19900000000E+03 0.  0.
<mgrwt>
<rscale>  0 0.56940994E+03</rscale>
<asrwt>0</asrwt>
<pdfrwt beam="1">  1        2 0.73094091E-01 0.56940994E+03</pdfrwt>
<pdfrwt beam="2">  1       -2 0.22631417E-01 0.56940994E+03</pdfrwt>
<totfact> 0.11220096E+03</totfact>
</mgrwt>
</event>
<event>
 4    1  0.4998754E-005  0.4894186E+03  0.7818608E-02  0.1016578E+00
         -2   -1    0    0    0  501 -0.00000000000E+00  0.00000000000E+00  0.25157424332E+02  0.25157424461E+02  0.25500000000E-02 0. -1.
          2   -1    0    0  501    0  0.00000000000E+00 -0.00000000000E+00 -0.23803165841E+04  0.23803165841E+04  0.25500000000E-02 0.  1.
    5000001    1    1    2    0    0 -0.11485996300E+03  0.83247444128E+02 -0.12394937631E+04  0.12633561402E+04  0.19900000000E+03 0.  0.
   -5000001    1    1    2    0    0  0.11485996300E+03 -0.83247444128E+02 -0.11156653966E+04  0.11421178684E+04  0.19900000000E+03 0.  0.
<mgrwt>
<rscale>  0 0.48941857E+03</rscale>
<asrwt>0</asrwt>
<pdfrwt beam="1">  1        2 0.34004508E+00 0.48941857E+03</pdfrwt>
<pdfrwt beam="2">  1       -2 0.35939193E-02 0.48941857E+03</pdfrwt>
<totfact> 0.18282627E+03</totfact>
</mgrwt>
</event>
<event>
 4    1  0.4998754E-005  0.6709151E+03  0.7818608E-02  0.9768306E-01
          2   -1    0    0  501    0  0.00000000000E+00  0.00000000000E+00  0.11529152529E+04  0.11529152529E+04  0.25500000000E-02 0.  1.
         -2   -1    0    0    0  501 -0.00000000000E+00 -0.00000000000E+00 -0.97606274412E+02  0.97606274445E+02  0.25500000000E-02 0. -1.
    5000001    1    1    2    0    0  0.24546711360E+03 -0.10371165961E+02  0.73662050667E+03  0.80160616003E+03  0.19900000000E+03 0.  0.
   -5000001    1    1    2    0    0 -0.24546711360E+03  0.10371165961E+02  0.31868847178E+03  0.44891536729E+03  0.19900000000E+03 0.  0.
<mgrwt>
<rscale>  0 0.67091508E+03</rscale>
<asrwt>0</asrwt>
<pdfrwt beam="1">  1        2 0.16470218E+00 0.67091508E+03</pdfrwt>
<pdfrwt beam="2">  1       -2 0.13943754E-01 0.67091508E+03</pdfrwt>
<totfact> 0.90726029E+02</totfact>
</mgrwt>
</event>
<event>
 4    1  0.4998754E-005  0.5601417E+03  0.7818608E-02  0.9991734E-01
         -2   -1    0    0    0  501 -0.00000000000E+00  0.00000000000E+00  0.42665286366E+03  0.42665286367E+03  0.25500000000E-02 0. -1.
          2   -1    0    0  501    0  0.00000000000E+00 -0.00000000000E+00 -0.18384893565E+03  0.18384893567E+03  0.25500000000E-02 0.  1.
    5000001    1    1    2    0    0 -0.15340714345E+02 -0.19600178298E+03  0.10651213861E+03  0.29932903655E+03  0.19900000000E+03 0.  0.
   -5000001    1    1    2    0    0  0.15340714345E+02  0.19600178298E+03  0.13629178940E+03  0.31117276279E+03  0.19900000000E+03 0.  0.
<mgrwt>
<rscale>  0 0.56014168E+03</rscale>
<asrwt>0</asrwt>
<pdfrwt beam="1">  1        2 0.26264134E-01 0.56014168E+03</pdfrwt>
<pdfrwt beam="2">  1       -2 0.60950408E-01 0.56014168E+03</pdfrwt>
<totfact> 0.52292398E+02</totfact>
</mgrwt>
</event>
<event>
 4    1  0.4998754E-005  0.4685485E+03  0.7818608E-02  0.1022331E+00
          2   -1    0    0  501    0  0.00000000000E+00  0.00000000000E+00  0.12711323373E+04  0.12711323373E+04  0.25500000000E-02 0.  1.
         -2   -1    0    0    0  501 -0.00000000000E+00 -0.00000000000E+00 -0.43177585457E+02  0.43177585533E+02  0.25500000000E-02 0. -1.
    5000001    1    1    2    0    0 -0.60044087353E+02  0.88748040510E+02  0.44101780195E+03  0.49555949063E+03  0.19900000000E+03 0.  0.
   -5000001    1    1    2    0    0  0.60044087353E+02 -0.88748040510E+02  0.78693694985E+03  0.81875043216E+03  0.19900000000E+03 0.  0.
<mgrwt>
<rscale>  0 0.46854850E+03</rscale>
<asrwt>0</asrwt>
<pdfrwt beam="1">  1        2 0.18159032E+00 0.46854850E+03</pdfrwt>
<pdfrwt beam="2">  1       -2 0.61682268E-02 0.46854850E+03</pdfrwt>
<totfact> 0.29142373E+03</totfact>
</mgrwt>
</event>
<event>
 4    1  0.4998754E-005  0.6139502E+03  0.7818608E-02  0.9876879E-01
          2   -1    0    0  501    0  0.00000000000E+00  0.00000000000E+00  0.88028258019E+03  0.88028258020E+03  0.25500000000E-02 0.  1.
         -2   -1    0    0    0  501 -0.00000000000E+00 -0.00000000000E+00 -0.10704938047E+03  0.10704938050E+03  0.25500000000E-02 0. -1.
    5000001    1    1    2    0    0 -0.16511497885E+03  0.12302402910E+03  0.20873576509E+03  0.35435785246E+03  0.19900000000E+03 0.  0.
   -5000001    1    1    2    0    0  0.16511497885E+03 -0.12302402910E+03  0.56449743464E+03  0.63297410823E+03  0.19900000000E+03 0.  0.
<mgrwt>
<rscale>  0 0.61395018E+03</rscale>
<asrwt>0</asrwt>
<pdfrwt beam="1">  1        2 0.12575464E+00 0.61395018E+03</pdfrwt>
<pdfrwt beam="2">  1       -2 0.15292770E-01 0.61395018E+03</pdfrwt>
<totfact> 0.11397452E+03</totfact>
</mgrwt>
</event>
<event>
 4    1  0.4998754E-005  0.6417621E+03  0.7818608E-02  0.9822361E-01
         -2   -1    0    0    0  501 -0.00000000000E+00  0.00000000000E+00  0.31715359445E+02  0.31715359547E+02  0.25500000000E-02 0. -1.
          2   -1    0    0  501    0  0.00000000000E+00 -0.00000000000E+00 -0.32465235819E+04  0.32465235819E+04  0.25500000000E-02 0.  1.
    5000001    1    1    2    0    0 -0.17763933595E+03  0.14899975973E+03 -0.21080843082E+04  0.21301119953E+04  0.19900000000E+03 0.  0.
   -5000001    1    1    2    0    0  0.17763933595E+03 -0.14899975973E+03 -0.11067239143E+04  0.11481269462E+04  0.19900000000E+03 0.  0.
<mgrwt>
<rscale>  0 0.64176214E+03</rscale>
<asrwt>0</asrwt>
<pdfrwt beam="1">  1        2 0.46378887E+00 0.64176214E+03</pdfrwt>
<pdfrwt beam="2">  1       -2 0.45307677E-02 0.64176214E+03</pdfrwt>
<totfact> 0.43811560E+02</totfact>
</mgrwt>
</event>
<event>
 4    1  0.4998754E-005  0.7057130E+03  0.7818608E-02  0.9707512E-01
         -2   -1    0    0    0  501 -0.00000000000E+00  0.00000000000E+00  0.53407509169E+03  0.53407509170E+03  0.25500000000E-02 0. -1.
          2   -1    0    0  501    0  0.00000000000E+00 -0.00000000000E+00 -0.23312774909E+03  0.23312774911E+03  0.25500000000E-02 0.  1.
    5000001    1    1    2    0    0  0.48607332915E+02 -0.17718451059E+03  0.39634257600E+03  0.48004735303E+03  0.19900000000E+03 0.  0.
   -5000001    1    1    2    0    0 -0.48607332915E+02  0.17718451059E+03 -0.95395233394E+02  0.28715548777E+03  0.19900000000E+03 0.  0.
<mgrwt>
<rscale>  0 0.70571304E+03</rscale>
<asrwt>0</asrwt>
<pdfrwt beam="1">  1        2 0.33303965E-01 0.70571304E+03</pdfrwt>
<pdfrwt beam="2">  1       -2 0.76296440E-01 0.70571304E+03</pdfrwt>
<totfact> 0.24538241E+02</totfact>
</mgrwt>
</event>
<event>
 4    1  0.4998754E-005  0.7985019E+03  0.7818608E-02  0.9562188E-01
          2   -1    0    0  501    0  0.00000000000E+00  0.00000000000E+00  0.23303574572E+04  0.23303574572E+04  0.25500000000E-02 0.  1.
         -2   -1    0    0    0  501 -0.00000000000E+00 -0.00000000000E+00 -0.68402090036E+02  0.68402090084E+02  0.25500000000E-02 0. -1.
    5000001    1    1    2    0    0 -0.19219795763E+03 -0.17278788296E+03  0.18225977703E+04  0.18515559240E+04  0.19900000000E+03 0.  0.
   -5000001    1    1    2    0    0  0.19219795763E+03  0.17278788296E+03  0.43935759689E+03  0.54720362330E+03  0.19900000000E+03 0.  0.
<mgrwt>
<rscale>  0 0.79850190E+03</rscale>
<asrwt>0</asrwt>
<pdfrwt beam="1">  1        2 0.33290809E+00 0.79850190E+03</pdfrwt>
<pdfrwt beam="2">  1       -2 0.97717307E-02 0.79850190E+03</pdfrwt>
<totfact> 0.39496604E+02</totfact>
</mgrwt>
</event>
<event>
 4    1  0.4998754E-005  0.5221945E+03  0.7818608E-02  0.1008143E+00
         -2   -1    0    0    0  501 -0.00000000000E+00  0.00000000000E+00  0.14353723781E+03  0.14353723783E+03  0.25500000000E-02 0. -1.
          2   -1    0    0  501    0  0.00000000000E+00 -0.00000000000E+00 -0.47494138936E+03  0.47494138937E+03  0.25500000000E-02 0.  1.
    5000001    1    1    2    0    0 -0.16447208295E+03 -0.37914459545E+02 -0.17644038318E+03  0.31499330331E+03  0.19900000000E+03 0.  0.
   -5000001    1    1    2    0    0  0.16447208295E+03  0.37914459545E+02 -0.15496376837E+03  0.30348532390E+03  0.19900000000E+03 0.  0.
<mgrwt>
<rscale>  0 0.52219450E+03</rscale>
<asrwt>0</asrwt>
<pdfrwt beam="1">  1        2 0.67848769E-01 0.52219450E+03</pdfrwt>
<pdfrwt beam="2">  1       -2 0.20505320E-01 0.52219450E+03</pdfrwt>
<totfact> 0.14516956E+03</totfact>
</mgrwt>
</event>
<event>
 4    1  0.4998754E-005  0.4499065E+03  0.7818608E-02  0.1027750E+00
          2   -1    0    0  501    0  0.00000000000E+00  0.00000000000E+00  0.85862616195E+02  0.85862616233E+02  0.25500000000E-02 0.  1.
         -2   -1    0    0    0  501 -0.00000000000E+00 -0.00000000000E+00 -0.58935967840E+03  0.58935967840E+03  0.25500000000E-02 0. -1.
    5000001    1    1    2    0    0  0.68156320878E+02  0.75466438875E+02 -0.29037778088E+03  0.36641605191E+03  0.19900000000E+03 0.  0.
   -5000001    1    1    2    0    0 -0.68156320878E+02 -0.75466438875E+02 -0.21311928132E+03  0.30880624272E+03  0.19900000000E+03 0.  0.
<mgrwt>
<rscale>  0 0.44990650E+03</rscale>
<asrwt>0</asrwt>
<pdfrwt beam="1">  1        2 0.12266088E-01 0.44990650E+03</pdfrwt>
<pdfrwt beam="2">  1       -2 0.84194237E-01 0.44990650E+03</pdfrwt>
<totfact> 0.63663615E+02</totfact>
</mgrwt>
</event>
<event>
 4    1  0.4998754E-005  0.5279410E+03  0.7818608E-02  0.1006733E+00
         -2   -1    0    0    0  501 -0.00000000000E+00  0.00000000000E+00  0.17953221633E+03  0.17953221635E+03  0.25500000000E-02 0. -1.
          2   -1    0    0  501    0  0.00000000000E+00 -0.00000000000E+00 -0.38812218323E+03  0.38812218323E+03  0.25500000000E-02 0.  1.
    5000001    1    1    2    0    0  0.31690188900E+02 -0.12582519065E+03  0.19440674974E+02  0.23835936423E+03  0.19900000000E+03 0.  0.
   -5000001    1    1    2    0    0 -0.31690188900E+02  0.12582519065E+03 -0.22803064187E+03  0.32929503535E+03  0.19900000000E+03 0.  0.
<mgrwt>
<rscale>  0 0.52794104E+03</rscale>
<asrwt>0</asrwt>
<pdfrwt beam="1">  1        2 0.55446026E-01 0.52794104E+03</pdfrwt>
<pdfrwt beam="2">  1       -2 0.25647460E-01 0.52794104E+03</pdfrwt>
<totfact> 0.12234627E+03</totfact>
</mgrwt>
</event>
<event>
 4    1  0.4998754E-005  0.6414855E+03  0.7818608E-02  0.9822888E-01
         -2   -1    0    0    0  501 -0.00000000000E+00  0.00000000000E+00  0.98038956844E+02  0.98038956877E+02  0.25500000000E-02 0. -1.
          2   -1    0    0  501    0  0.00000000000E+00 -0.00000000000E+00 -0.10493372120E+04  0.10493372120E+04  0.25500000000E-02 0.  1.
    5000001    1    1    2    0    0 -0.18809666158E+03  0.16272474505E+03 -0.54293630316E+03  0.62947639037E+03  0.19900000000E+03 0.  0.
   -5000001    1    1    2    0    0  0.18809666158E+03 -0.16272474505E+03 -0.40836195203E+03  0.51789977854E+03  0.19900000000E+03 0.  0.
<mgrwt>
<rscale>  0 0.64148554E+03</rscale>
<asrwt>0</asrwt>
<pdfrwt beam="1">  1        2 0.14990531E+00 0.64148554E+03</pdfrwt>
<pdfrwt beam="2">  1       -2 0.14005566E-01 0.64148554E+03</pdfrwt>
<totfact> 0.10359876E+03</totfact>
</mgrwt>
</event>
<event>
 4    1  0.4998754E-005  0.5084177E+03  0.7818608E-02  0.1011605E+00
         -2   -1    0    0    0  501 -0.00000000000E+00  0.00000000000E+00  0.16126282084E+03  0.16126282086E+03  0.25500000000E-02 0. -1.
          2   -1    0    0  501    0  0.00000000000E+00 -0.00000000000E+00 -0.40072557989E+03  0.40072557989E+03  0.25500000000E-02 0.  1.
    5000001    1    1    2    0    0  0.66114264853E+02 -0.13853696193E+03 -0.77530776065E+02  0.26301256068E+03  0.19900000000E+03 0.  0.
   -5000001    1    1    2    0    0 -0.66114264853E+02  0.13853696193E+03 -0.16193198298E+03  0.29897584008E+03  0.19900000000E+03 0.  0.
<mgrwt>
<rscale>  0 0.50841769E+03</rscale>
<asrwt>0</asrwt>
<pdfrwt beam="1">  1        2 0.57246511E-01 0.50841769E+03</pdfrwt>
<pdfrwt beam="2">  1       -2 0.23037546E-01 0.50841769E+03</pdfrwt>
<totfact> 0.14299230E+03</totfact>
</mgrwt>
</event>
<event>
 4    1  0.4998754E-005  0.7895367E+03  0.7818608E-02  0.9575287E-01
         -2   -1    0    0    0  501 -0.00000000000E+00  0.00000000000E+00  0.11437556571E+03  0.11437556573E+03  0.25500000000E-02 0. -1.
          2   -1    0    0  501    0  0.00000000000E+00 -0.00000000000E+00 -0.13625465711E+04  0.13625465711E+04  0.25500000000E-02 0.  1.
    5000001    1    1    2    0    0  0.25389725960E+03  0.19200077633E+03 -0.39564841273E+03  0.54540515495E+03  0.19900000000E+03 0.  0.
   -5000001    1    1    2    0    0 -0.25389725960E+03 -0.19200077633E+03 -0.85252259269E+03  0.93151698191E+03  0.19900000000E+03 0.  0.
<mgrwt>
<rscale>  0 0.78953666E+03</rscale>
<asrwt>0</asrwt>
<pdfrwt beam="1">  1        2 0.19464950E+00 0.78953666E+03</pdfrwt>
<pdfrwt beam="2">  1       -2 0.16339367E-01 0.78953666E+03</pdfrwt>
<totfact> 0.52831114E+02</totfact>
</mgrwt>
</event>
<event>
 4    1  0.4998754E-005  0.5828927E+03  0.7818608E-02  0.9941548E-01
          2   -1    0    0  501    0  0.00000000000E+00  0.00000000000E+00  0.79604837828E+03  0.79604837829E+03  0.25500000000E-02 0.  1.
         -2   -1    0    0    0  501 -0.00000000000E+00 -0.00000000000E+00 -0.10670327544E+03  0.10670327547E+03  0.25500000000E-02 0. -1.
    5000001    1    1    2    0    0 -0.94373425030E+02 -0.19081542646E+03  0.35211604608E+03  0.45705971189E+03  0.19900000000E+03 0.  0.
   -5000001    1    1    2    0    0  0.94373425030E+02  0.19081542646E+03  0.33722905676E+03  0.44569194187E+03  0.19900000000E+03 0.  0.
<mgrwt>
<rscale>  0 0.58289268E+03</rscale>
<asrwt>0</asrwt>
<pdfrwt beam="1">  1        2 0.11372120E+00 0.58289268E+03</pdfrwt>
<pdfrwt beam="2">  1       -2 0.15243325E-01 0.58289268E+03</pdfrwt>
<totfact> 0.13066945E+03</totfact>
</mgrwt>
</event>
<event>
 4    1  0.4998754E-005  0.6957603E+03  0.7818608E-02  0.9724510E-01
         -2   -1    0    0    0  501 -0.00000000000E+00  0.00000000000E+00  0.66920943528E+02  0.66920943577E+02  0.25500000000E-02 0. -1.
          2   -1    0    0  501    0  0.00000000000E+00 -0.00000000000E+00 -0.18084116162E+04  0.18084116162E+04  0.25500000000E-02 0.  1.
    5000001    1    1    2    0    0 -0.15446552935E+03 -0.23584936007E+03 -0.75217682823E+03  0.82755996842E+03  0.19900000000E+03 0.  0.
   -5000001    1    1    2    0    0  0.15446552935E+03  0.23584936007E+03 -0.98931384446E+03  0.10477725914E+04  0.19900000000E+03 0.  0.
<mgrwt>
<rscale>  0 0.69576034E+03</rscale>
<asrwt>0</asrwt>
<pdfrwt beam="1">  1        2 0.25834449E+00 0.69576034E+03</pdfrwt>
<pdfrwt beam="2">  1       -2 0.95601359E-02 0.69576034E+03</pdfrwt>
<totfact> 0.75779847E+02</totfact>
</mgrwt>
</event>
<event>
 4    1  0.4998754E-005  0.5734556E+03  0.7818608E-02  0.9962061E-01
         -2   -1    0    0    0  501 -0.00000000000E+00  0.00000000000E+00  0.39680395119E+02  0.39680395201E+02  0.25500000000E-02 0. -1.
          2   -1    0    0  501    0  0.00000000000E+00 -0.00000000000E+00 -0.20718751629E+04  0.20718751629E+04  0.25500000000E-02 0.  1.
    5000001    1    1    2    0    0  0.18759297188E+03 -0.86119406482E+02 -0.10085963270E+04  0.10485586422E+04  0.19900000000E+03 0.  0.
   -5000001    1    1    2    0    0 -0.18759297188E+03  0.86119406482E+02 -0.10235984408E+04  0.10629969159E+04  0.19900000000E+03 0.  0.
<mgrwt>
<rscale>  0 0.57345558E+03</rscale>
<asrwt>0</asrwt>
<pdfrwt beam="1">  1        2 0.29598210E+00 0.57345558E+03</pdfrwt>
<pdfrwt beam="2">  1       -2 0.56686292E-02 0.57345558E+03</pdfrwt>
<totfact> 0.12887624E+03</totfact>
</mgrwt>
</event>
<event>
 4    1  0.4998754E-005  0.9387272E+03  0.7818608E-02  0.9378425E-01
          2   -1    0    0  501    0  0.00000000000E+00  0.00000000000E+00  0.21355298476E+04  0.21355298476E+04  0.25500000000E-02 0.  1.
         -2   -1    0    0    0  501 -0.00000000000E+00 -0.00000000000E+00 -0.10316042958E+03  0.10316042961E+03  0.25500000000E-02 0. -1.
    5000001    1    1    2    0    0  0.11486367536E+02  0.37959581191E+03  0.14716547033E+04  0.15328383746E+04  0.19900000000E+03 0.  0.
   -5000001    1    1    2    0    0 -0.11486367536E+02 -0.37959581191E+03  0.56071471477E+03  0.70585190260E+03  0.19900000000E+03 0.  0.
<mgrwt>
<rscale>  0 0.93872717E+03</rscale>
<asrwt>0</asrwt>
<pdfrwt beam="1">  1        2 0.30507568E+00 0.93872717E+03</pdfrwt>
<pdfrwt beam="2">  1       -2 0.14737205E-01 0.93872717E+03</pdfrwt>
<totfact> 0.24871280E+02</totfact>
</mgrwt>
</event>
<event>
 4    1  0.4998754E-005  0.6367994E+03  0.7818608E-02  0.9831869E-01
          2   -1    0    0  501    0  0.00000000000E+00  0.00000000000E+00  0.13136887480E+04  0.13136887480E+04  0.25500000000E-02 0.  1.
         -2   -1    0    0    0  501 -0.00000000000E+00 -0.00000000000E+00 -0.77170768601E+02  0.77170768643E+02  0.25500000000E-02 0. -1.
    5000001    1    1    2    0    0 -0.14434223188E+03  0.20230520788E+03  0.60971752576E+03  0.68783612748E+03  0.19900000000E+03 0.  0.
   -5000001    1    1    2    0    0  0.14434223188E+03 -0.20230520788E+03  0.62680045364E+03  0.70302338918E+03  0.19900000000E+03 0.  0.
<mgrwt>
<rscale>  0 0.63679940E+03</rscale>
<asrwt>0</asrwt>
<pdfrwt beam="1">  1        2 0.18766982E+00 0.63679940E+03</pdfrwt>
<pdfrwt beam="2">  1       -2 0.11024396E-01 0.63679940E+03</pdfrwt>
<totfact> 0.10903011E+03</totfact>
</mgrwt>
</event>
<event>
 4    1  0.4998754E-005  0.9714082E+03  0.7818608E-02  0.9340472E-01
          2   -1    0    0  501    0  0.00000000000E+00  0.00000000000E+00  0.15418376421E+04  0.15418376421E+04  0.25500000000E-02 0.  1.
         -2   -1    0    0    0  501 -0.00000000000E+00 -0.00000000000E+00 -0.15300475489E+03  0.15300475491E+03  0.25500000000E-02 0. -1.
    5000001    1    1    2    0    0  0.42511899273E+03 -0.88759913910E+02  0.54128732757E+03  0.72194006072E+03  0.19900000000E+03 0.  0.
   -5000001    1    1    2    0    0 -0.42511899273E+03  0.88759913910E+02  0.84754555965E+03  0.97290233630E+03  0.19900000000E+03 0.  0.
<mgrwt>
<rscale>  0 0.97140824E+03</rscale>
<asrwt>0</asrwt>
<pdfrwt beam="1">  1        2 0.22026253E+00 0.97140824E+03</pdfrwt>
<pdfrwt beam="2">  1       -2 0.21857821E-01 0.97140824E+03</pdfrwt>
<totfact> 0.25305099E+02</totfact>
</mgrwt>
</event>
<event>
 4    1  0.4998754E-005  0.4855411E+03  0.7818608E-02  0.1017623E+00
          2   -1    0    0  501    0  0.00000000000E+00  0.00000000000E+00  0.41879624662E+03  0.41879624662E+03  0.25500000000E-02 0.  1.
         -2   -1    0    0    0  501 -0.00000000000E+00 -0.00000000000E+00 -0.14073081373E+03  0.14073081375E+03  0.25500000000E-02 0. -1.
    5000001    1    1    2    0    0 -0.11011299130E+02  0.78767067335E+02  0.27047983342E+03  0.34508816249E+03  0.19900000000E+03 0.  0.
   -5000001    1    1    2    0    0  0.11011299130E+02 -0.78767067335E+02  0.75855994671E+01  0.21443889788E+03  0.19900000000E+03 0.  0.
<mgrwt>
<rscale>  0 0.48554109E+03</rscale>
<asrwt>0</asrwt>
<pdfrwt beam="1">  1        2 0.59828036E-01 0.48554109E+03</pdfrwt>
<pdfrwt beam="2">  1       -2 0.20104402E-01 0.48554109E+03</pdfrwt>
<totfact> 0.17283673E+03</totfact>
</mgrwt>
</event>
<event>
 4    1  0.4998754E-005  0.3999407E+03  0.7818608E-02  0.1043800E+00
          2   -1    0    0  501    0  0.00000000000E+00  0.00000000000E+00  0.50772394860E+03  0.50772394861E+03  0.25500000000E-02 0.  1.
         -2   -1    0    0    0  501 -0.00000000000E+00 -0.00000000000E+00 -0.78759604304E+02  0.78759604345E+02  0.25500000000E-02 0. -1.
    5000001    1    1    2    0    0 -0.93827132726E+00  0.17964524961E+02  0.22617068401E+03  0.30179095881E+03  0.19900000000E+03 0.  0.
   -5000001    1    1    2    0    0  0.93827132726E+00 -0.17964524961E+02  0.20279366028E+03  0.28469259414E+03  0.19900000000E+03 0.  0.
<mgrwt>
<rscale>  0 0.39994068E+03</rscale>
<asrwt>0</asrwt>
<pdfrwt beam="1">  1        2 0.72531995E-01 0.39994068E+03</pdfrwt>
<pdfrwt beam="2">  1       -2 0.11251372E-01 0.39994068E+03</pdfrwt>
<totfact> 0.36761469E+03</totfact>
</mgrwt>
</event>
<event>
 4    1  0.4998754E-005  0.1036143E+04  0.7818608E-02  0.9269769E-01
          2   -1    0    0  501    0  0.00000000000E+00  0.00000000000E+00  0.23052006975E+04  0.23052006975E+04  0.25500000000E-02 0.  1.
         -2   -1    0    0    0  501 -0.00000000000E+00 -0.00000000000E+00 -0.11643152170E+03  0.11643152173E+03  0.25500000000E-02 0. -1.
    5000001    1    1    2    0    0  0.44841654624E+03 -0.14052648192E+03  0.13030595677E+04  0.13994249990E+04  0.19900000000E+03 0.  0.
   -5000001    1    1    2    0    0 -0.44841654624E+03  0.14052648192E+03  0.88570960812E+03  0.10222072202E+04  0.19900000000E+03 0.  0.
<mgrwt>
<rscale>  0 0.10361429E+04</rscale>
<asrwt>0</asrwt>
<pdfrwt beam="1">  1        2 0.32931438E+00 0.10361429E+04</pdfrwt>
<pdfrwt beam="2">  1       -2 0.16633075E-01 0.10361429E+04</pdfrwt>
<totfact> 0.16447004E+02</totfact>
</mgrwt>
</event>
<event>
 4    1  0.4998754E-005  0.6475218E+03  0.7818608E-02  0.9811440E-01
         -2   -1    0    0    0  501 -0.00000000000E+00  0.00000000000E+00  0.13160060811E+03  0.13160060814E+03  0.25500000000E-02 0. -1.
          2   -1    0    0  501    0  0.00000000000E+00 -0.00000000000E+00 -0.79650941586E+03  0.79650941587E+03  0.25500000000E-02 0.  1.
    5000001    1    1    2    0    0  0.24406758752E+03 -0.73344836299E+02 -0.35607913518E+03  0.48098004408E+03  0.19900000000E+03 0.  0.
   -5000001    1    1    2    0    0 -0.24406758752E+03  0.73344836299E+02 -0.30882967257E+03  0.44712997993E+03  0.19900000000E+03 0.  0.
<mgrwt>
<rscale>  0 0.64752181E+03</rscale>
<asrwt>0</asrwt>
<pdfrwt beam="1">  1        2 0.11378706E+00 0.64752181E+03</pdfrwt>
<pdfrwt beam="2">  1       -2 0.18800087E-01 0.64752181E+03</pdfrwt>
<totfact> 0.91171320E+02</totfact>
</mgrwt>
</event>
<event>
 4    1  0.4998754E-005  0.7866959E+03  0.7818608E-02  0.9579476E-01
          2   -1    0    0  501    0  0.00000000000E+00  0.00000000000E+00  0.48731656069E+03  0.48731656069E+03  0.25500000000E-02 0.  1.
         -2   -1    0    0    0  501 -0.00000000000E+00 -0.00000000000E+00 -0.31749916973E+03  0.31749916974E+03  0.25500000000E-02 0. -1.
    5000001    1    1    2    0    0 -0.26541847510E+03  0.20589850362E+03  0.13376258671E+03  0.41271611347E+03  0.19900000000E+03 0.  0.
   -5000001    1    1    2    0    0  0.26541847510E+03 -0.20589850362E+03  0.36054804240E+02  0.39209961697E+03  0.19900000000E+03 0.  0.
<mgrwt>
<rscale>  0 0.78669588E+03</rscale>
<asrwt>0</asrwt>
<pdfrwt beam="1">  1        2 0.69616651E-01 0.78669588E+03</pdfrwt>
<pdfrwt beam="2">  1       -2 0.45357025E-01 0.78669588E+03</pdfrwt>
<totfact> 0.32068512E+02</totfact>
</mgrwt>
</event>
<event>
 4    1  0.4998754E-005  0.5455149E+03  0.7818608E-02  0.1002537E+00
         -2   -1    0    0    0  501 -0.00000000000E+00  0.00000000000E+00  0.14099635971E+03  0.14099635973E+03  0.25500000000E-02 0. -1.
          2   -1    0    0  501    0  0.00000000000E+00 -0.00000000000E+00 -0.52764928239E+03  0.52764928239E+03  0.25500000000E-02 0.  1.
    5000001    1    1    2    0    0  0.13430792246E+03  0.59907547672E+02 -0.33398007169E+03  0.41565757613E+03  0.19900000000E+03 0.  0.
   -5000001    1    1    2    0    0 -0.13430792246E+03 -0.59907547672E+02 -0.52672850990E+02  0.25298806599E+03  0.19900000000E+03 0.  0.
<mgrwt>
<rscale>  0 0.54551491E+03</rscale>
<asrwt>0</asrwt>
<pdfrwt beam="1">  1        2 0.75378468E-01 0.54551491E+03</pdfrwt>
<pdfrwt beam="2">  1       -2 0.20142337E-01 0.54551491E+03</pdfrwt>
<totfact> 0.13290359E+03</totfact>
</mgrwt>
</event>
<event>
 4    1  0.4998754E-005  0.8789304E+03  0.7818608E-02  0.9452310E-01
          2   -1    0    0  501    0  0.00000000000E+00  0.00000000000E+00  0.13989474463E+04  0.13989474463E+04  0.25500000000E-02 0.  1.
         -2   -1    0    0    0  501 -0.00000000000E+00 -0.00000000000E+00 -0.13805355020E+03  0.13805355023E+03  0.25500000000E-02 0. -1.
    5000001    1    1    2    0    0 -0.35499522904E+02 -0.39010198935E+03  0.64693349772E+03  0.78202540156E+03  0.19900000000E+03 0.  0.
   -5000001    1    1    2    0    0  0.35499522904E+02  0.39010198935E+03  0.61396039838E+03  0.75497559497E+03  0.19900000000E+03 0.  0.
<mgrwt>
<rscale>  0 0.87893040E+03</rscale>
<asrwt>0</asrwt>
<pdfrwt beam="1">  1        2 0.19984964E+00 0.87893040E+03</pdfrwt>
<pdfrwt beam="2">  1       -2 0.19721936E-01 0.87893040E+03</pdfrwt>
<totfact> 0.36316580E+02</totfact>
</mgrwt>
</event>
<event>
 4    1  0.4998754E-005  0.7519020E+03  0.7818608E-02  0.9632371E-01
          2   -1    0    0  501    0  0.00000000000E+00  0.00000000000E+00  0.74658276614E+03  0.74658276614E+03  0.25500000000E-02 0.  1.
         -2   -1    0    0    0  501 -0.00000000000E+00 -0.00000000000E+00 -0.18931478219E+03  0.18931478221E+03  0.25500000000E-02 0. -1.
    5000001    1    1    2    0    0  0.30259141073E+03  0.77212609767E+02  0.19782572286E+03  0.41983254469E+03  0.19900000000E+03 0.  0.
   -5000001    1    1    2    0    0 -0.30259141073E+03 -0.77212609767E+02  0.35944226109E+03  0.51606500367E+03  0.19900000000E+03 0.  0.
<mgrwt>
<rscale>  0 0.75190200E+03</rscale>
<asrwt>0</asrwt>
<pdfrwt beam="1">  1        2 0.10665468E+00 0.75190200E+03</pdfrwt>
<pdfrwt beam="2">  1       -2 0.27044969E-01 0.75190200E+03</pdfrwt>
<totfact> 0.51742852E+02</totfact>
</mgrwt>
</event>
<event>
 4    1  0.4998754E-005  0.6114728E+03  0.7818608E-02  0.9881885E-01
         -2   -1    0    0    0  501 -0.00000000000E+00  0.00000000000E+00  0.22446830655E+03  0.22446830656E+03  0.25500000000E-02 0.  1.
          2   -1    0    0  501    0  0.00000000000E+00 -0.00000000000E+00 -0.41642740416E+03  0.41642740417E+03  0.25500000000E-02 0. -1.
    5000001    1    1    2    0    0 -0.12715492549E+03 -0.17038872211E+03  0.16309297319E+01  0.29121186726E+03  0.19900000000E+03 0.  0.
   -5000001    1    1    2    0    0  0.12715492549E+03  0.17038872211E+03 -0.19359002734E+03  0.34968384347E+03  0.19900000000E+03 0.  0.
<mgrwt>
<rscale>  0 0.61147283E+03</rscale>
<asrwt>0</asrwt>
<pdfrwt beam="1">  1        2 0.59489629E-01 0.61147283E+03</pdfrwt>
<pdfrwt beam="2">  1       -2 0.32066901E-01 0.61147283E+03</pdfrwt>
<totfact> 0.75098023E+02</totfact>
</mgrwt>
</event>
<event>
 4    1  0.4998754E-005  0.6948664E+03  0.7818608E-02  0.9726052E-01
         -2   -1    0    0    0  501 -0.00000000000E+00  0.00000000000E+00  0.22960731498E+03  0.22960731499E+03  0.25500000000E-02 0. -1.
          2   -1    0    0  501    0  0.00000000000E+00 -0.00000000000E+00 -0.52572286957E+03  0.52572286958E+03  0.25500000000E-02 0.  1.
    5000001    1    1    2    0    0 -0.98843166086E+02  0.18082861945E+03 -0.36173257239E+03  0.46143300166E+03  0.19900000000E+03 0.  0.
   -5000001    1    1    2    0    0  0.98843166086E+02 -0.18082861945E+03  0.65617017804E+02  0.29389718291E+03  0.19900000000E+03 0.  0.
<mgrwt>
<rscale>  0 0.69486637E+03</rscale>
<asrwt>0</asrwt>
<pdfrwt beam="1">  1        2 0.75103267E-01 0.69486637E+03</pdfrwt>
<pdfrwt beam="2">  1       -2 0.32801045E-01 0.69486637E+03</pdfrwt>
<totfact> 0.55200852E+02</totfact>
</mgrwt>
</event>
<event>
 4    1  0.4998754E-005  0.1071864E+04  0.7818608E-02  0.9233058E-01
          2   -1    0    0  501    0  0.00000000000E+00  0.00000000000E+00  0.23414398302E+03  0.23414398303E+03  0.25500000000E-02 0.  1.
         -2   -1    0    0    0  501 -0.00000000000E+00 -0.00000000000E+00 -0.12266939051E+04  0.12266939051E+04  0.25500000000E-02 0. -1.
    5000001    1    1    2    0    0  0.16140150076E+03 -0.39970231115E+03 -0.15743826158E+03  0.50020014814E+03  0.19900000000E+03 0.  0.
   -5000001    1    1    2    0    0 -0.16140150076E+03  0.39970231115E+03 -0.83511166046E+03  0.96063773995E+03  0.19900000000E+03 0.  0.
<mgrwt>
<rscale>  0 0.10718638E+04</rscale>
<asrwt>0</asrwt>
<pdfrwt beam="1">  1        2 0.33449141E-01 0.10718638E+04</pdfrwt>
<pdfrwt beam="2">  1       -2 0.17524198E+00 0.10718638E+04</pdfrwt>
<totfact> 0.30642874E+01</totfact>
</mgrwt>
</event>
<event>
 4    1  0.4998754E-005  0.5686815E+03  0.7818608E-02  0.9972601E-01
         -2   -1    0    0    0  501 -0.00000000000E+00  0.00000000000E+00  0.73077252245E+02  0.73077252290E+02  0.25500000000E-02 0. -1.
          2   -1    0    0  501    0  0.00000000000E+00 -0.00000000000E+00 -0.11063586517E+04  0.11063586517E+04  0.25500000000E-02 0.  1.
    5000001    1    1    2    0    0 -0.12498755652E+03  0.15406948674E+03 -0.42649147951E+03  0.51073993199E+03  0.19900000000E+03 0.  0.
   -5000001    1    1    2    0    0  0.12498755652E+03 -0.15406948674E+03 -0.60678991990E+03  0.66869597196E+03  0.19900000000E+03 0.  0.
<mgrwt>
<rscale>  0 0.56868146E+03</rscale>
<asrwt>0</asrwt>
<pdfrwt beam="1">  1        2 0.15805123E+00 0.56868146E+03</pdfrwt>
<pdfrwt beam="2">  1       -2 0.10439608E-01 0.56868146E+03</pdfrwt>
<totfact> 0.15593007E+03</totfact>
</mgrwt>
</event>
<event>
 4    1  0.4998754E-005  0.6613558E+03  0.7818608E-02  0.9785701E-01
         -2   -1    0    0    0  501 -0.00000000000E+00  0.00000000000E+00  0.53204106511E+02  0.53204106572E+02  0.25500000000E-02 0. -1.
          2   -1    0    0  501    0  0.00000000000E+00 -0.00000000000E+00 -0.20552525892E+04  0.20552525892E+04  0.25500000000E-02 0.  1.
    5000001    1    1    2    0    0  0.19346878554E+03 -0.14180149733E+03 -0.13532898995E+04  0.13887160933E+04  0.19900000000E+03 0.  0.
   -5000001    1    1    2    0    0 -0.19346878554E+03  0.14180149733E+03 -0.64875858314E+03  0.71974060245E+03  0.19900000000E+03 0.  0.
<mgrwt>
<rscale>  0 0.66135581E+03</rscale>
<asrwt>0</asrwt>
<pdfrwt beam="1">  1        2 0.29360746E+00 0.66135581E+03</pdfrwt>
<pdfrwt beam="2">  1       -2 0.76005879E-02 0.66135581E+03</pdfrwt>
<totfact> 0.82353842E+02</totfact>
</mgrwt>
</event>
<event>
 4    1  0.4998754E-005  0.4803192E+03  0.7818608E-02  0.1019047E+00
         -2   -1    0    0    0  501 -0.00000000000E+00  0.00000000000E+00  0.22695372482E+02  0.22695372625E+02  0.25500000000E-02 0. -1.
          2   -1    0    0  501    0  0.00000000000E+00 -0.00000000000E+00 -0.25413386085E+04  0.25413386085E+04  0.25500000000E-02 0.  1.
    5000001    1    1    2    0    0 -0.12868706575E+03  0.23620477527E+02 -0.10941533352E+04  0.11197726595E+04  0.19900000000E+03 0.  0.
   -5000001    1    1    2    0    0  0.12868706575E+03 -0.23620477527E+02 -0.14244899008E+04  0.14442613217E+04  0.19900000000E+03 0.  0.
<mgrwt>
<rscale>  0 0.48031917E+03</rscale>
<asrwt>0</asrwt>
<pdfrwt beam="1">  1        2 0.36304819E+00 0.48031917E+03</pdfrwt>
<pdfrwt beam="2">  1       -2 0.32421977E-02 0.48031917E+03</pdfrwt>
<totfact> 0.17719684E+03</totfact>
</mgrwt>
</event>
<event>
 4    1  0.4998754E-005  0.5411307E+03  0.7818608E-02  0.1003568E+00
         -2   -1    0    0    0  501 -0.00000000000E+00  0.00000000000E+00  0.75931247091E+02  0.75931247134E+02  0.25500000000E-02 0. -1.
          2   -1    0    0  501    0  0.00000000000E+00 -0.00000000000E+00 -0.96410370520E+03  0.96410370521E+03  0.25500000000E-02 0.  1.
    5000001    1    1    2    0    0 -0.94837312842E+02  0.10042830657E+03 -0.67571815901E+03  0.71782727106E+03  0.19900000000E+03 0.  0.
   -5000001    1    1    2    0    0  0.94837312842E+02 -0.10042830657E+03 -0.21245429910E+03  0.32220768128E+03  0.19900000000E+03 0.  0.
<mgrwt>
<rscale>  0 0.54113066E+03</rscale>
<asrwt>0</asrwt>
<pdfrwt beam="1">  1        2 0.13772909E+00 0.54113066E+03</pdfrwt>
<pdfrwt beam="2">  1       -2 0.10847322E-01 0.54113066E+03</pdfrwt>
<totfact> 0.17826847E+03</totfact>
</mgrwt>
</event>
<event>
 4    1  0.4998754E-005  0.6175251E+03  0.7818608E-02  0.9869700E-01
          2   -1    0    0  501    0  0.00000000000E+00  0.00000000000E+00  0.12265817329E+03  0.12265817331E+03  0.25500000000E-02 0. -1.
         -2   -1    0    0    0  501 -0.00000000000E+00 -0.00000000000E+00 -0.77723582778E+03  0.77723582778E+03  0.25500000000E-02 0.  1.
    5000001    1    1    2    0    0  0.17204085617E+02  0.20876203480E+03 -0.48596122787E+03  0.56536438049E+03  0.19900000000E+03 0.  0.
   -5000001    1    1    2    0    0 -0.17204085617E+02 -0.20876203480E+03 -0.16861642662E+03  0.33452962060E+03  0.19900000000E+03 0.  0.
<mgrwt>
<rscale>  0 0.61752515E+03</rscale>
<asrwt>0</asrwt>
<pdfrwt beam="1">  1        2 0.17522597E-01 0.61752515E+03</pdfrwt>
<pdfrwt beam="2">  1       -2 0.11103369E+00 0.61752515E+03</pdfrwt>
<totfact> 0.21612191E+02</totfact>
</mgrwt>
</event>
<event>
 4    1  0.4998754E-005  0.7062536E+03  0.7818608E-02  0.9706597E-01
         -2   -1    0    0    0  501 -0.00000000000E+00  0.00000000000E+00  0.57354164439E+03  0.57354164440E+03  0.25500000000E-02 0. -1.
          2   -1    0    0  501    0  0.00000000000E+00 -0.00000000000E+00 -0.21741844698E+03  0.21741844700E+03  0.25500000000E-02 0.  1.
    5000001    1    1    2    0    0  0.20577915974E+03  0.58037024714E+02 -0.44195058187E+02  0.29541083594E+03  0.19900000000E+03 0.  0.
   -5000001    1    1    2    0    0 -0.20577915974E+03 -0.58037024714E+02  0.40031825560E+03  0.49554925546E+03  0.19900000000E+03 0.  0.
<mgrwt>
<rscale>  0 0.70625359E+03</rscale>
<asrwt>0</asrwt>
<pdfrwt beam="1">  1        2 0.31059778E-01 0.70625359E+03</pdfrwt>
<pdfrwt beam="2">  1       -2 0.81934520E-01 0.70625359E+03</pdfrwt>
<totfact> 0.22622734E+02</totfact>
</mgrwt>
</event>
<event>
 4    1  0.4998754E-005  0.8907042E+03  0.7818608E-02  0.9437277E-01
          2   -1    0    0  501    0  0.00000000000E+00  0.00000000000E+00  0.19654569293E+04  0.19654569293E+04  0.25500000000E-02 0.  1.
         -2   -1    0    0    0  501 -0.00000000000E+00 -0.00000000000E+00 -0.10091215900E+03  0.10091215903E+03  0.25500000000E-02 0. -1.
    5000001    1    1    2    0    0 -0.34369685461E+03  0.10354839642E+03  0.13333428324E+04  0.13950820431E+04  0.19900000000E+03 0.  0.
   -5000001    1    1    2    0    0  0.34369685461E+03 -0.10354839642E+03  0.53120193788E+03  0.67128704521E+03  0.19900000000E+03 0.  0.
<mgrwt>
<rscale>  0 0.89070422E+03</rscale>
<asrwt>0</asrwt>
<pdfrwt beam="1">  1        2 0.28077955E+00 0.89070422E+03</pdfrwt>
<pdfrwt beam="2">  1       -2 0.14416023E-01 0.89070422E+03</pdfrwt>
<totfact> 0.31613720E+02</totfact>
</mgrwt>
</event>
<event>
 4    1  0.4998754E-005  0.4367602E+03  0.7818608E-02  0.1031745E+00
         -2   -1    0    0    0  501 -0.00000000000E+00  0.00000000000E+00  0.33718816851E+03  0.33718816852E+03  0.25500000000E-02 0. -1.
          2   -1    0    0  501    0  0.00000000000E+00 -0.00000000000E+00 -0.14143400140E+03  0.14143400142E+03  0.25500000000E-02 0.  1.
    5000001    1    1    2    0    0  0.89407342315E+02  0.76906179164E+01  0.91297126018E+02  0.23661991396E+03  0.19900000000E+03 0.  0.
   -5000001    1    1    2    0    0 -0.89407342315E+02 -0.76906179164E+01  0.10445704109E+03  0.24200225598E+03  0.19900000000E+03 0.  0.
<mgrwt>
<rscale>  0 0.43676022E+03</rscale>
<asrwt>0</asrwt>
<pdfrwt beam="1">  1        2 0.20204857E-01 0.43676022E+03</pdfrwt>
<pdfrwt beam="2">  1       -2 0.48169739E-01 0.43676022E+03</pdfrwt>
<totfact> 0.11453584E+03</totfact>
</mgrwt>
</event>
<event>
 4    1  0.4998754E-005  0.4793673E+03  0.7818608E-02  0.1019309E+00
          2   -1    0    0  501    0  0.00000000000E+00  0.00000000000E+00  0.60414586471E+03  0.60414586472E+03  0.25500000000E-02 0.  1.
         -2   -1    0    0    0  501 -0.00000000000E+00 -0.00000000000E+00 -0.95090027188E+02  0.95090027222E+02  0.25500000000E-02 0. -1.
    5000001    1    1    2    0    0 -0.27571755512E+02  0.12886426284E+03  0.28652047791E+03  0.37290908302E+03  0.19900000000E+03 0.  0.
   -5000001    1    1    2    0    0  0.27571755512E+02 -0.12886426284E+03  0.22253535961E+03  0.32632680892E+03  0.19900000000E+03 0.  0.
<mgrwt>
<rscale>  0 0.47936728E+03</rscale>
<asrwt>0</asrwt>
<pdfrwt beam="1">  1        2 0.86306554E-01 0.47936728E+03</pdfrwt>
<pdfrwt beam="2">  1       -2 0.13584289E-01 0.47936728E+03</pdfrwt>
<totfact> 0.22166598E+03</totfact>
</mgrwt>
</event>
<event>
 4    1  0.4998754E-005  0.7017271E+03  0.7818608E-02  0.9714283E-01
         -2   -1    0    0    0  501 -0.00000000000E+00  0.00000000000E+00  0.10205492509E+03  0.10205492512E+03  0.25500000000E-02 0. -1.
          2   -1    0    0  501    0  0.00000000000E+00 -0.00000000000E+00 -0.12062644942E+04  0.12062644942E+04  0.25500000000E-02 0.  1.
    5000001    1    1    2    0    0 -0.19917586129E+03 -0.94382362138E+02 -0.20367533617E+03  0.36008845658E+03  0.19900000000E+03 0.  0.
   -5000001    1    1    2    0    0  0.19917586129E+03  0.94382362138E+02 -0.90053423295E+03  0.94823096275E+03  0.19900000000E+03 0.  0.
<mgrwt>
<rscale>  0 0.70172711E+03</rscale>
<asrwt>0</asrwt>
<pdfrwt beam="1">  1        2 0.17232349E+00 0.70172711E+03</pdfrwt>
<pdfrwt beam="2">  1       -2 0.14579276E-01 0.70172711E+03</pdfrwt>
<totfact> 0.78434323E+02</totfact>
</mgrwt>
</event>
<event>
 4    1  0.4998754E-005  0.5804476E+03  0.7818608E-02  0.9946822E-01
         -2   -1    0    0    0  501 -0.00000000000E+00  0.00000000000E+00  0.11652129867E+03  0.11652129870E+03  0.25500000000E-02 0. -1.
          2   -1    0    0  501    0  0.00000000000E+00 -0.00000000000E+00 -0.72287088032E+03  0.72287088033E+03  0.25500000000E-02 0.  1.
    5000001    1    1    2    0    0  0.89089857897E+02 -0.50643631268E+02 -0.36027100438E+02  0.22671729562E+03  0.19900000000E+03 0.  0.
   -5000001    1    1    2    0    0 -0.89089857897E+02  0.50643631268E+02 -0.57032248122E+03  0.61267488340E+03  0.19900000000E+03 0.  0.
<mgrwt>
<rscale>  0 0.58044760E+03</rscale>
<asrwt>0</asrwt>
<pdfrwt beam="1">  1        2 0.10326727E+00 0.58044760E+03</pdfrwt>
<pdfrwt beam="2">  1       -2 0.16645900E-01 0.58044760E+03</pdfrwt>
<totfact> 0.12704307E+03</totfact>
</mgrwt>
</event>
<event>
 4    1  0.4998754E-005  0.6098274E+03  0.7818608E-02  0.9885225E-01
         -2   -1    0    0    0  501 -0.00000000000E+00  0.00000000000E+00  0.87956877825E+02  0.87956877862E+02  0.25500000000E-02 0.  1.
          2   -1    0    0  501    0  0.00000000000E+00 -0.00000000000E+00 -0.10570221015E+04  0.10570221015E+04  0.25500000000E-02 0. -1.
    5000001    1    1    2    0    0  0.18648044829E+03 -0.24923747525E+02 -0.23280688422E+03  0.35943872374E+03  0.19900000000E+03 0.  0.
   -5000001    1    1    2    0    0 -0.18648044829E+03  0.24923747525E+02 -0.73625833942E+03  0.78554025559E+03  0.19900000000E+03 0.  0.
<mgrwt>
<rscale>  0 0.60982740E+03</rscale>
<asrwt>0</asrwt>
<pdfrwt beam="1">  1        2 0.15100315E+00 0.60982740E+03</pdfrwt>
<pdfrwt beam="2">  1       -2 0.12565269E-01 0.60982740E+03</pdfrwt>
<totfact> 0.12290073E+03</totfact>
</mgrwt>
</event>
<event>
 4    1  0.4998754E-005  0.1526837E+04  0.7818608E-02  0.8866800E-01
         -2   -1    0    0    0  501 -0.00000000000E+00  0.00000000000E+00  0.28144646988E+03  0.28144646989E+03  0.25500000000E-02 0. -1.
          2   -1    0    0  501    0  0.00000000000E+00 -0.00000000000E+00 -0.20707581441E+04  0.20707581441E+04  0.25500000000E-02 0.  1.
    5000001    1    1    2    0    0  0.10074695378E+03 -0.47103455046E+03 -0.17540462266E+04  0.18298367855E+04  0.19900000000E+03 0.  0.
   -5000001    1    1    2    0    0 -0.10074695378E+03  0.47103455046E+03 -0.35265447575E+02  0.52236782847E+03  0.19900000000E+03 0.  0.
<mgrwt>
<rscale>  0 0.15268367E+04</rscale>
<asrwt>0</asrwt>
<pdfrwt beam="1">  1        2 0.29582258E+00 0.15268367E+04</pdfrwt>
<pdfrwt beam="2">  1       -2 0.40206640E-01 0.15268367E+04</pdfrwt>
<totfact> 0.41709939E+01</totfact>
</mgrwt>
</event>
<event>
 4    1  0.4998754E-005  0.9739501E+03  0.7818608E-02  0.9337587E-01
         -2   -1    0    0    0  501 -0.00000000000E+00  0.00000000000E+00  0.12264066344E+03  0.12264066347E+03  0.25500000000E-02 0. -1.
          2   -1    0    0  501    0  0.00000000000E+00 -0.00000000000E+00 -0.19336545979E+04  0.19336545979E+04  0.25500000000E-02 0.  1.
    5000001    1    1    2    0    0 -0.12786153065E+03 -0.42090840611E+03 -0.10395571237E+04  0.11462078654E+04  0.19900000000E+03 0.  0.
   -5000001    1    1    2    0    0  0.12786153065E+03  0.42090840611E+03 -0.77145681073E+03  0.91008739590E+03  0.19900000000E+03 0.  0.
<mgrwt>
<rscale>  0 0.97395007E+03</rscale>
<asrwt>0</asrwt>
<pdfrwt beam="1">  1        2 0.27623635E+00 0.97395007E+03</pdfrwt>
<pdfrwt beam="2">  1       -2 0.17520096E-01 0.97395007E+03</pdfrwt>
<totfact> 0.23395404E+02</totfact>
</mgrwt>
</event>
<event>
 4    1  0.4998754E-005  0.5453943E+03  0.7818608E-02  0.1002566E+00
          2   -1    0    0  501    0  0.00000000000E+00  0.00000000000E+00  0.19233134110E+04  0.19233134111E+04  0.25500000000E-02 0.  1.
         -2   -1    0    0    0  501 -0.00000000000E+00 -0.00000000000E+00 -0.38664394342E+02  0.38664394426E+02  0.25500000000E-02 0. -1.
    5000001    1    1    2    0    0 -0.43891395371E+02 -0.16916025208E+03  0.70860421534E+03  0.75648038935E+03  0.19900000000E+03 0.  0.
   -5000001    1    1    2    0    0  0.43891395371E+02  0.16916025208E+03  0.11760448014E+04  0.12054974161E+04  0.19900000000E+03 0.  0.
<mgrwt>
<rscale>  0 0.54539435E+03</rscale>
<asrwt>0</asrwt>
<pdfrwt beam="1">  1        2 0.27475906E+00 0.54539435E+03</pdfrwt>
<pdfrwt beam="2">  1       -2 0.55234849E-02 0.54539435E+03</pdfrwt>
<totfact> 0.15950043E+03</totfact>
</mgrwt>
</event>
<event>
 4    1  0.4998754E-005  0.5159658E+03  0.7818608E-02  0.1009694E+00
          2   -1    0    0  501    0  0.00000000000E+00  0.00000000000E+00  0.17351534672E+03  0.17351534674E+03  0.25500000000E-02 0.  1.
         -2   -1    0    0    0  501 -0.00000000000E+00 -0.00000000000E+00 -0.38356937516E+03  0.38356937517E+03  0.25500000000E-02 0. -1.
    5000001    1    1    2    0    0  0.14904641450E+03  0.64059559442E+02 -0.77804348523E+02  0.26827779908E+03  0.19900000000E+03 0.  0.
   -5000001    1    1    2    0    0 -0.14904641450E+03 -0.64059559442E+02 -0.13224967992E+03  0.28880692282E+03  0.19900000000E+03 0.  0.
<mgrwt>
<rscale>  0 0.51596579E+03</rscale>
<asrwt>0</asrwt>
<pdfrwt beam="1">  1        2 0.24787907E-01 0.51596579E+03</pdfrwt>
<pdfrwt beam="2">  1       -2 0.54795624E-01 0.51596579E+03</pdfrwt>
<totfact> 0.69739867E+02</totfact>
</mgrwt>
</event>
<event>
 4    1  0.4998754E-005  0.5387639E+03  0.7818608E-02  0.1004129E+00
          2   -1    0    0  501    0  0.00000000000E+00  0.00000000000E+00  0.31485631822E+04  0.31485631822E+04  0.25500000000E-02 0.  1.
         -2   -1    0    0    0  501 -0.00000000000E+00 -0.00000000000E+00 -0.23047535381E+02  0.23047535522E+02  0.25500000000E-02 0. -1.
    5000001    1    1    2    0    0 -0.13598884053E+03 -0.53462438077E+02  0.21971828069E+04  0.22110098336E+04  0.19900000000E+03 0.  0.
   -5000001    1    1    2    0    0  0.13598884053E+03  0.53462438077E+02  0.92833283986E+03  0.96060088413E+03  0.19900000000E+03 0.  0.
<mgrwt>
<rscale>  0 0.53876385E+03</rscale>
<asrwt>0</asrwt>
<pdfrwt beam="1">  1        2 0.44979445E+00 0.53876385E+03</pdfrwt>
<pdfrwt beam="2">  1       -2 0.32925072E-02 0.53876385E+03</pdfrwt>
<totfact> 0.82002592E+02</totfact>
</mgrwt>
</event>
<event>
 4    1  0.4998754E-005  0.5572732E+03  0.7818608E-02  0.9998244E-01
         -2   -1    0    0    0  501 -0.00000000000E+00  0.00000000000E+00  0.38932606596E+02  0.38932606679E+02  0.25500000000E-02 0. -1.
          2   -1    0    0  501    0  0.00000000000E+00 -0.00000000000E+00 -0.19941728481E+04  0.19941728481E+04  0.25500000000E-02 0.  1.
    5000001    1    1    2    0    0  0.19305408995E+03 -0.99836730132E+01 -0.88334170523E+03  0.92588504879E+03  0.19900000000E+03 0.  0.
   -5000001    1    1    2    0    0 -0.19305408995E+03  0.99836730132E+01 -0.10718985362E+04  0.11072204059E+04  0.19900000000E+03 0.  0.
<mgrwt>
<rscale>  0 0.55727317E+03</rscale>
<asrwt>0</asrwt>
<pdfrwt beam="1">  1        2 0.28488177E+00 0.55727317E+03</pdfrwt>
<pdfrwt beam="2">  1       -2 0.55618022E-02 0.55727317E+03</pdfrwt>
<totfact> 0.14532933E+03</totfact>
</mgrwt>
</event>
<event>
 4    1  0.4998754E-005  0.7212498E+03  0.7818608E-02  0.9681567E-01
          2   -1    0    0  501    0  0.00000000000E+00  0.00000000000E+00  0.34071004844E+04  0.34071004844E+04  0.25500000000E-02 0.  1.
         -2   -1    0    0    0  501 -0.00000000000E+00 -0.00000000000E+00 -0.38170380520E+02  0.38170380606E+02  0.25500000000E-02 0. -1.
    5000001    1    1    2    0    0 -0.26821267189E+03  0.11653749717E+03  0.13490564636E+04  0.13946588714E+04  0.19900000000E+03 0.  0.
   -5000001    1    1    2    0    0  0.26821267189E+03 -0.11653749717E+03  0.20198736403E+04  0.20506119936E+04  0.19900000000E+03 0.  0.
<mgrwt>
<rscale>  0 0.72124981E+03</rscale>
<asrwt>0</asrwt>
<pdfrwt beam="1">  1        2 0.48672870E+00 0.72124981E+03</pdfrwt>
<pdfrwt beam="2">  1       -2 0.54529108E-02 0.72124981E+03</pdfrwt>
<totfact> 0.26308908E+02</totfact>
</mgrwt>
</event>
<event>
 4    1  0.4998754E-005  0.9777375E+03  0.7818608E-02  0.9333305E-01
         -2   -1    0    0    0  501 -0.00000000000E+00  0.00000000000E+00  0.25179106060E+03  0.25179106061E+03  0.25500000000E-02 0. -1.
          2   -1    0    0  501    0  0.00000000000E+00 -0.00000000000E+00 -0.94917058059E+03  0.94917058060E+03  0.25500000000E-02 0.  1.
    5000001    1    1    2    0    0 -0.92931649970E+02 -0.30658595413E+03  0.33391505614E+02  0.37861224424E+03  0.19900000000E+03 0.  0.
   -5000001    1    1    2    0    0  0.92931649970E+02  0.30658595413E+03 -0.73077102561E+03  0.82234939697E+03  0.19900000000E+03 0.  0.
<mgrwt>
<rscale>  0 0.97773753E+03</rscale>
<asrwt>0</asrwt>
<pdfrwt beam="1">  1        2 0.13559579E+00 0.97773753E+03</pdfrwt>
<pdfrwt beam="2">  1       -2 0.35970152E-01 0.97773753E+03</pdfrwt>
<totfact> 0.21911781E+02</totfact>
</mgrwt>
</event>
<event>
 4    1  0.4998754E-005  0.7954912E+03  0.7818608E-02  0.9566566E-01
         -2   -1    0    0    0  501 -0.00000000000E+00  0.00000000000E+00  0.63304780428E+02  0.63304780480E+02  0.25500000000E-02 0.  1.
          2   -1    0    0  501    0  0.00000000000E+00 -0.00000000000E+00 -0.24990458486E+04  0.24990458486E+04  0.25500000000E-02 0. -1.
    5000001    1    1    2    0    0  0.55106996385E+02 -0.53001394482E+02 -0.13626134222E+03  0.25301004377E+03  0.19900000000E+03 0.  0.
   -5000001    1    1    2    0    0 -0.55106996385E+02  0.53001394482E+02 -0.22994797259E+04  0.23093405853E+04  0.19900000000E+03 0.  0.
<mgrwt>
<rscale>  0 0.79549117E+03</rscale>
<asrwt>0</asrwt>
<pdfrwt beam="1">  1        2 0.35700649E+00 0.79549117E+03</pdfrwt>
<pdfrwt beam="2">  1       -2 0.90435416E-02 0.79549117E+03</pdfrwt>
<totfact> 0.36680774E+02</totfact>
</mgrwt>
</event>
<event>
 4    1  0.4998754E-005  0.1647940E+04  0.7818608E-02  0.8791626E-01
          2   -1    0    0  501    0  0.00000000000E+00  0.00000000000E+00  0.18772039756E+04  0.18772039756E+04  0.25500000000E-02 0.  1.
         -2   -1    0    0    0  501 -0.00000000000E+00 -0.00000000000E+00 -0.36166906171E+03  0.36166906172E+03  0.25500000000E-02 0. -1.
    5000001    1    1    2    0    0  0.75532042742E+03  0.13278461232E+03  0.10651356925E+04  0.13274998097E+04  0.19900000000E+03 0.  0.
   -5000001    1    1    2    0    0 -0.75532042742E+03 -0.13278461232E+03  0.45039922132E+03  0.91137322756E+03  0.19900000000E+03 0.  0.
<mgrwt>
<rscale>  0 0.16479400E+04</rscale>
<asrwt>0</asrwt>
<pdfrwt beam="1">  1        2 0.26817200E+00 0.16479400E+04</pdfrwt>
<pdfrwt beam="2">  1       -2 0.51667008E-01 0.16479400E+04</pdfrwt>
<totfact> 0.31445215E+01</totfact>
</mgrwt>
</event>
<event>
 4    1  0.4998754E-005  0.5975685E+03  0.7818608E-02  0.9910464E-01
          2   -1    0    0  501    0  0.00000000000E+00  0.00000000000E+00  0.37344129444E+04  0.37344129444E+04  0.25500000000E-02 0.  1.
         -2   -1    0    0    0  501 -0.00000000000E+00 -0.00000000000E+00 -0.23905235796E+02  0.23905235932E+02  0.25500000000E-02 0. -1.
    5000001    1    1    2    0    0  0.14018343956E+03 -0.16875750457E+03  0.16083994004E+04  0.16354449312E+04  0.19900000000E+03 0.  0.
   -5000001    1    1    2    0    0 -0.14018343956E+03  0.16875750457E+03  0.21021083083E+04  0.21228732491E+04  0.19900000000E+03 0.  0.
<mgrwt>
<rscale>  0 0.59756848E+03</rscale>
<asrwt>0</asrwt>
<pdfrwt beam="1">  1        2 0.53348758E+00 0.59756848E+03</pdfrwt>
<pdfrwt beam="2">  1       -2 0.34150336E-02 0.59756848E+03</pdfrwt>
<totfact> 0.34880954E+02</totfact>
</mgrwt>
</event>
<event>
 4    1  0.4998754E-005  0.7406725E+03  0.7818608E-02  0.9650098E-01
          2   -1    0    0  501    0  0.00000000000E+00  0.00000000000E+00  0.17404976747E+04  0.17404976747E+04  0.25500000000E-02 0.  1.
         -2   -1    0    0    0  501 -0.00000000000E+00 -0.00000000000E+00 -0.78798694621E+02  0.78798694662E+02  0.25500000000E-02 0. -1.
    5000001    1    1    2    0    0  0.25011154445E+03 -0.10750020214E+03  0.45482361450E+03  0.56619572449E+03  0.19900000000E+03 0.  0.
   -5000001    1    1    2    0    0 -0.25011154445E+03  0.10750020214E+03  0.12068753655E+04  0.12531006448E+04  0.19900000000E+03 0.  0.
<mgrwt>
<rscale>  0 0.74067252E+03</rscale>
<asrwt>0</asrwt>
<pdfrwt beam="1">  1        2 0.24864257E+00 0.74067252E+03</pdfrwt>
<pdfrwt beam="2">  1       -2 0.11256954E-01 0.74067252E+03</pdfrwt>
<totfact> 0.62701549E+02</totfact>
</mgrwt>
</event>
<event>
 4    1  0.4998754E-005  0.9456836E+03  0.7818608E-02  0.9370210E-01
         -2   -1    0    0    0  501 -0.00000000000E+00  0.00000000000E+00  0.45729359750E+03  0.45729359751E+03  0.25500000000E-02 0. -1.
          2   -1    0    0  501    0  0.00000000000E+00 -0.00000000000E+00 -0.48891861954E+03  0.48891861955E+03  0.25500000000E-02 0.  1.
    5000001    1    1    2    0    0 -0.40056715579E+03 -0.14376707887E+03  0.37652696006E+02  0.47131915385E+03  0.19900000000E+03 0.  0.
   -5000001    1    1    2    0    0  0.40056715579E+03  0.14376707887E+03 -0.69277718049E+02  0.47489306321E+03  0.19900000000E+03 0.  0.
<mgrwt>
<rscale>  0 0.94568357E+03</rscale>
<asrwt>0</asrwt>
<pdfrwt beam="1">  1        2 0.69845517E-01 0.94568357E+03</pdfrwt>
<pdfrwt beam="2">  1       -2 0.65327656E-01 0.94568357E+03</pdfrwt>
<totfact> 0.14904937E+02</totfact>
</mgrwt>
</event>
<event>
 4    1  0.4998754E-005  0.8188112E+03  0.7818608E-02  0.9533181E-01
         -2   -1    0    0    0  501 -0.00000000000E+00  0.00000000000E+00  0.77066843262E+02  0.77066843305E+02  0.25500000000E-02 0. -1.
          2   -1    0    0  501    0  0.00000000000E+00 -0.00000000000E+00 -0.21749034549E+04  0.21749034549E+04  0.25500000000E-02 0.  1.
    5000001    1    1    2    0    0 -0.21920942848E+03  0.16293844623E+03 -0.41330771971E+03  0.53387824639E+03  0.19900000000E+03 0.  0.
   -5000001    1    1    2    0    0  0.21920942848E+03 -0.16293844623E+03 -0.16845288919E+04  0.17180920518E+04  0.19900000000E+03 0.  0.
<mgrwt>
<rscale>  0 0.81881120E+03</rscale>
<asrwt>0</asrwt>
<pdfrwt beam="1">  1        2 0.31070045E+00 0.81881120E+03</pdfrwt>
<pdfrwt beam="2">  1       -2 0.11009550E-01 0.81881120E+03</pdfrwt>
<totfact> 0.38948013E+02</totfact>
</mgrwt>
</event>
<event>
 4    1  0.4998754E-005  0.8419289E+03  0.7818608E-02  0.9501234E-01
          2   -1    0    0  501    0  0.00000000000E+00  0.00000000000E+00  0.10159154231E+04  0.10159154231E+04  0.25500000000E-02 0.  1.
         -2   -1    0    0    0  501 -0.00000000000E+00 -0.00000000000E+00 -0.17443486254E+03  0.17443486256E+03  0.25500000000E-02 0. -1.
    5000001    1    1    2    0    0  0.28802253868E+03 -0.20843687663E+03  0.27106605727E+03  0.48936767540E+03  0.19900000000E+03 0.  0.
   -5000001    1    1    2    0    0 -0.28802253868E+03  0.20843687663E+03  0.57041450332E+03  0.70098261029E+03  0.19900000000E+03 0.  0.
<mgrwt>
<rscale>  0 0.84192890E+03</rscale>
<asrwt>0</asrwt>
<pdfrwt beam="1">  1        2 0.14513077E+00 0.84192890E+03</pdfrwt>
<pdfrwt beam="2">  1       -2 0.24919267E-01 0.84192890E+03</pdfrwt>
<totfact> 0.39645923E+02</totfact>
</mgrwt>
</event>
<event>
 4    1  0.4998754E-005  0.5834688E+03  0.7818608E-02  0.9940309E-01
          2   -1    0    0  501    0  0.00000000000E+00  0.00000000000E+00  0.10508413712E+04  0.10508413712E+04  0.25500000000E-02 0.  1.
         -2   -1    0    0    0  501 -0.00000000000E+00 -0.00000000000E+00 -0.80991259299E+02  0.80991259339E+02  0.25500000000E-02 0. -1.
    5000001    1    1    2    0    0 -0.14500962494E+03 -0.10768939202E+03  0.26474604406E+03  0.37724827942E+03  0.19900000000E+03 0.  0.
   -5000001    1    1    2    0    0  0.14500962494E+03  0.10768939202E+03  0.70510406784E+03  0.75458435112E+03  0.19900000000E+03 0.  0.
<mgrwt>
<rscale>  0 0.58346882E+03</rscale>
<asrwt>0</asrwt>
<pdfrwt beam="1">  1        2 0.15012020E+00 0.58346882E+03</pdfrwt>
<pdfrwt beam="2">  1       -2 0.11570179E-01 0.58346882E+03</pdfrwt>
<totfact> 0.14206103E+03</totfact>
</mgrwt>
</event>
<event>
 4    1  0.4998754E-005  0.5393003E+03  0.7818608E-02  0.1004001E+00
          2   -1    0    0  501    0  0.00000000000E+00  0.00000000000E+00  0.26695396109E+03  0.26695396110E+03  0.25500000000E-02 0.  1.
         -2   -1    0    0    0  501 -0.00000000000E+00 -0.00000000000E+00 -0.27237359984E+03  0.27237359985E+03  0.25500000000E-02 0. -1.
    5000001    1    1    2    0    0  0.16463220025E+03 -0.40358391625E+02 -0.68876973963E+02  0.27032868637E+03  0.19900000000E+03 0.  0.
   -5000001    1    1    2    0    0 -0.16463220025E+03  0.40358391625E+02  0.63457335214E+02  0.26899887458E+03  0.19900000000E+03 0.  0.
<mgrwt>
<rscale>  0 0.53930033E+03</rscale>
<asrwt>0</asrwt>
<pdfrwt beam="1">  1        2 0.38136280E-01 0.53930033E+03</pdfrwt>
<pdfrwt beam="2">  1       -2 0.38910514E-01 0.53930033E+03</pdfrwt>
<totfact> 0.85106591E+02</totfact>
</mgrwt>
</event>
<event>
 4    1  0.4998754E-005  0.5599300E+03  0.7818608E-02  0.9992213E-01
          2   -1    0    0  501    0  0.00000000000E+00  0.00000000000E+00  0.19492773701E+03  0.19492773703E+03  0.25500000000E-02 0.  1.
         -2   -1    0    0    0  501 -0.00000000000E+00 -0.00000000000E+00 -0.40209983385E+03  0.40209983386E+03  0.25500000000E-02 0. -1.
    5000001    1    1    2    0    0  0.19250791118E+03 -0.40557613819E+02 -0.94340036797E+02  0.29530536475E+03  0.19900000000E+03 0.  0.
   -5000001    1    1    2    0    0 -0.19250791118E+03  0.40557613819E+02 -0.11283206004E+03  0.30172220614E+03  0.19900000000E+03 0.  0.
<mgrwt>
<rscale>  0 0.55993003E+03</rscale>
<asrwt>0</asrwt>
<pdfrwt beam="1">  1        2 0.27846820E-01 0.55993003E+03</pdfrwt>
<pdfrwt beam="2">  1       -2 0.57442833E-01 0.55993003E+03</pdfrwt>
<totfact> 0.55405333E+02</totfact>
</mgrwt>
</event>
<event>
 4    1  0.4998754E-005  0.1258296E+04  0.7818608E-02  0.9063307E-01
          2   -1    0    0  501    0  0.00000000000E+00  0.00000000000E+00  0.39591694506E+03  0.39591694507E+03  0.25500000000E-02 0.  1.
         -2   -1    0    0    0  501 -0.00000000000E+00 -0.00000000000E+00 -0.99977269305E+03  0.99977269306E+03  0.25500000000E-02 0. -1.
    5000001    1    1    2    0    0 -0.10582520076E+03  0.49826788845E+03  0.43092967593E+02  0.54856892514E+03  0.19900000000E+03 0.  0.
   -5000001    1    1    2    0    0  0.10582520076E+03 -0.49826788845E+03 -0.64694871558E+03  0.84712071298E+03  0.19900000000E+03 0.  0.
<mgrwt>
<rscale>  0 0.12582956E+04</rscale>
<asrwt>0</asrwt>
<pdfrwt beam="1">  1        2 0.56559564E-01 0.12582956E+04</pdfrwt>
<pdfrwt beam="2">  1       -2 0.14282467E+00 0.12582956E+04</pdfrwt>
<totfact> 0.29328344E+01</totfact>
</mgrwt>
</event>
<event>
 4    1  0.4998754E-005  0.8799762E+03  0.7818608E-02  0.9450964E-01
         -2   -1    0    0    0  501 -0.00000000000E+00  0.00000000000E+00  0.55152065302E+02  0.55152065361E+02  0.25500000000E-02 0. -1.
          2   -1    0    0  501    0  0.00000000000E+00 -0.00000000000E+00 -0.35101050842E+04  0.35101050842E+04  0.25500000000E-02 0.  1.
    5000001    1    1    2    0    0  0.34271202430E+03 -0.34352466208E+02 -0.24893048695E+04  0.25208870178E+04  0.19900000000E+03 0.  0.
   -5000001    1    1    2    0    0 -0.34271202430E+03  0.34352466208E+02 -0.96564814938E+03  0.10443701317E+04  0.19900000000E+03 0.  0.
<mgrwt>
<rscale>  0 0.87997624E+03</rscale>
<asrwt>0</asrwt>
<pdfrwt beam="1">  1        2 0.50144344E+00 0.87997624E+03</pdfrwt>
<pdfrwt beam="2">  1       -2 0.78788687E-02 0.87997624E+03</pdfrwt>
<totfact> 0.12540393E+02</totfact>
</mgrwt>
</event>
<event>
 4    1  0.4998754E-005  0.8417626E+03  0.7818608E-02  0.9501460E-01
          2   -1    0    0  501    0  0.00000000000E+00  0.00000000000E+00  0.20668341769E+03  0.20668341770E+03  0.25500000000E-02 0.  1.
         -2   -1    0    0    0  501 -0.00000000000E+00 -0.00000000000E+00 -0.85706483391E+03  0.85706483392E+03  0.25500000000E-02 0. -1.
    5000001    1    1    2    0    0 -0.32916888175E+03  0.54978469674E+02 -0.52960539818E+03  0.65685436941E+03  0.19900000000E+03 0.  0.
   -5000001    1    1    2    0    0  0.32916888175E+03 -0.54978469674E+02 -0.12077601805E+03  0.40689388221E+03  0.19900000000E+03 0.  0.
<mgrwt>
<rscale>  0 0.84176265E+03</rscale>
<asrwt>0</asrwt>
<pdfrwt beam="1">  1        2 0.29526203E-01 0.84176265E+03</pdfrwt>
<pdfrwt beam="2">  1       -2 0.12243783E+00 0.84176265E+03</pdfrwt>
<totfact> 0.92043573E+01</totfact>
</mgrwt>
</event>
<event>
 4    1  0.4998754E-005  0.7179352E+03  0.7818608E-02  0.9687043E-01
          2   -1    0    0  501    0  0.00000000000E+00  0.00000000000E+00  0.10124711817E+04  0.10124711817E+04  0.25500000000E-02 0.  1.
         -2   -1    0    0    0  501 -0.00000000000E+00 -0.00000000000E+00 -0.12727051834E+03  0.12727051837E+03  0.25500000000E-02 0. -1.
    5000001    1    1    2    0    0 -0.56530062437E+02  0.27405646370E+03  0.60875414834E+03  0.69891716704E+03  0.19900000000E+03 0.  0.
   -5000001    1    1    2    0    0  0.56530062437E+02 -0.27405646370E+03  0.27644651499E+03  0.44082453301E+03  0.19900000000E+03 0.  0.
<mgrwt>
<rscale>  0 0.71793518E+03</rscale>
<asrwt>0</asrwt>
<pdfrwt beam="1">  1        2 0.14463873E+00 0.71793518E+03</pdfrwt>
<pdfrwt beam="2">  1       -2 0.18181504E-01 0.71793518E+03</pdfrwt>
<totfact> 0.69820487E+02</totfact>
</mgrwt>
</event>
<event>
 4    1  0.4998754E-005  0.5206630E+03  0.7818608E-02  0.1008522E+00
          2   -1    0    0  501    0  0.00000000000E+00  0.00000000000E+00  0.69212265168E+03  0.69212265169E+03  0.25500000000E-02 0.  1.
         -2   -1    0    0    0  501 -0.00000000000E+00 -0.00000000000E+00 -0.97919759742E+02  0.97919759775E+02  0.25500000000E-02 0. -1.
    5000001    1    1    2    0    0  0.98945845077E+02  0.76220696105E+02  0.12696821808E+03  0.26706142210E+03  0.19900000000E+03 0.  0.
   -5000001    1    1    2    0    0 -0.98945845077E+02 -0.76220696105E+02  0.46723467386E+03  0.52298098936E+03  0.19900000000E+03 0.  0.
<mgrwt>
<rscale>  0 0.52066298E+03</rscale>
<asrwt>0</asrwt>
<pdfrwt beam="1">  1        2 0.98874664E-01 0.52066298E+03</pdfrwt>
<pdfrwt beam="2">  1       -2 0.13988537E-01 0.52066298E+03</pdfrwt>
<totfact> 0.17962327E+03</totfact>
</mgrwt>
</event>
<event>
 4    1  0.4998754E-005  0.6445822E+03  0.7818608E-02  0.9816999E-01
         -2   -1    0    0    0  501 -0.00000000000E+00  0.00000000000E+00  0.45500712737E+03  0.45500712738E+03  0.25500000000E-02 0. -1.
          2   -1    0    0  501    0  0.00000000000E+00 -0.00000000000E+00 -0.22828557854E+03  0.22828557855E+03  0.25500000000E-02 0.  1.
    5000001    1    1    2    0    0 -0.13863070102E+03 -0.19770555884E+03  0.31491803115E+02  0.31448162573E+03  0.19900000000E+03 0.  0.
   -5000001    1    1    2    0    0  0.13863070102E+03  0.19770555884E+03  0.19522974572E+03  0.36881108019E+03  0.19900000000E+03 0.  0.
<mgrwt>
<rscale>  0 0.64458224E+03</rscale>
<asrwt>0</asrwt>
<pdfrwt beam="1">  1        2 0.32612226E-01 0.64458224E+03</pdfrwt>
<pdfrwt beam="2">  1       -2 0.65001018E-01 0.64458224E+03</pdfrwt>
<totfact> 0.35684435E+02</totfact>
</mgrwt>
</event>
<event>
 4    1  0.4998754E-005  0.4466946E+03  0.7818608E-02  0.1028712E+00
          2   -1    0    0  501    0  0.00000000000E+00  0.00000000000E+00  0.76558367160E+03  0.76558367160E+03  0.25500000000E-02 0.  1.
         -2   -1    0    0    0  501 -0.00000000000E+00 -0.00000000000E+00 -0.65158145794E+02  0.65158145844E+02  0.25500000000E-02 0. -1.
    5000001    1    1    2    0    0 -0.94943033749E+02 -0.31215891088E+02  0.38212263237E+03  0.44227516060E+03  0.19900000000E+03 0.  0.
   -5000001    1    1    2    0    0  0.94943033749E+02  0.31215891088E+02  0.31830289343E+03  0.38846665685E+03  0.19900000000E+03 0.  0.
<mgrwt>
<rscale>  0 0.44669458E+03</rscale>
<asrwt>0</asrwt>
<pdfrwt beam="1">  1        2 0.10936908E+00 0.44669458E+03</pdfrwt>
<pdfrwt beam="2">  1       -2 0.93083075E-02 0.44669458E+03</pdfrwt>
<totfact> 0.30820613E+03</totfact>
</mgrwt>
</event>
<event>
 4    1  0.4998754E-005  0.7446643E+03  0.7818608E-02  0.9643759E-01
         -2   -1    0    0    0  501 -0.00000000000E+00  0.00000000000E+00  0.10091151456E+03  0.10091151459E+03  0.25500000000E-02 0.  1.
          2   -1    0    0  501    0  0.00000000000E+00 -0.00000000000E+00 -0.13737899696E+04  0.13737899696E+04  0.25500000000E-02 0. -1.
    5000001    1    1    2    0    0 -0.30233753890E+03 -0.78311870316E+02 -0.56000948477E+03  0.67138093471E+03  0.19900000000E+03 0.  0.
   -5000001    1    1    2    0    0  0.30233753890E+03  0.78311870316E+02 -0.71286897031E+03  0.80332054953E+03  0.19900000000E+03 0.  0.
<mgrwt>
<rscale>  0 0.74466429E+03</rscale>
<asrwt>0</asrwt>
<pdfrwt beam="1">  1        2 0.19625570E+00 0.74466429E+03</pdfrwt>
<pdfrwt beam="2">  1       -2 0.14415932E-01 0.74466429E+03</pdfrwt>
<totfact> 0.64557105E+02</totfact>
</mgrwt>
</event>
<event>
 4    1  0.4998754E-005  0.5529549E+03  0.7818608E-02  0.1000812E+00
          2   -1    0    0  501    0  0.00000000000E+00  0.00000000000E+00  0.22244097254E+04  0.22244097254E+04  0.25500000000E-02 0.  1.
         -2   -1    0    0    0  501 -0.00000000000E+00 -0.00000000000E+00 -0.34364077504E+02  0.34364077599E+02  0.25500000000E-02 0. -1.
    5000001    1    1    2    0    0  0.21251277056E+02 -0.18482039815E+03  0.12878633415E+04  0.13163598227E+04  0.19900000000E+03 0.  0.
   -5000001    1    1    2    0    0 -0.21251277056E+02  0.18482039815E+03  0.90218230632E+03  0.94241398026E+03  0.19900000000E+03 0.  0.
<mgrwt>
<rscale>  0 0.55295493E+03</rscale>
<asrwt>0</asrwt>
<pdfrwt beam="1">  1        2 0.31777280E+00 0.55295493E+03</pdfrwt>
<pdfrwt beam="2">  1       -2 0.49091542E-02 0.55295493E+03</pdfrwt>
<totfact> 0.13525304E+03</totfact>
</mgrwt>
</event>
<event>
 4    1  0.4998754E-005  0.7178889E+03  0.7818608E-02  0.9687120E-01
          2   -1    0    0  501    0  0.00000000000E+00  0.00000000000E+00  0.18922396430E+04  0.18922396430E+04  0.25500000000E-02 0.  1.
         -2   -1    0    0    0  501 -0.00000000000E+00 -0.00000000000E+00 -0.68089216290E+02  0.68089216337E+02  0.25500000000E-02 0. -1.
    5000001    1    1    2    0    0 -0.25317947410E+03  0.15800875632E+03  0.87610666271E+03  0.94669451124E+03  0.19900000000E+03 0.  0.
   -5000001    1    1    2    0    0  0.25317947410E+03 -0.15800875632E+03  0.94804376403E+03  0.10136343481E+04  0.19900000000E+03 0.  0.
<mgrwt>
<rscale>  0 0.71788889E+03</rscale>
<asrwt>0</asrwt>
<pdfrwt beam="1">  1        2 0.27031993E+00 0.71788889E+03</pdfrwt>
<pdfrwt beam="2">  1       -2 0.97270316E-02 0.71788889E+03</pdfrwt>
<totfact> 0.66733416E+02</totfact>
</mgrwt>
</event>
<event>
 4    1  0.4998754E-005  0.4875910E+03  0.7818608E-02  0.1017070E+00
         -2   -1    0    0    0  501 -0.00000000000E+00  0.00000000000E+00  0.30982412934E+02  0.30982413039E+02  0.25500000000E-02 0. -1.
          2   -1    0    0  501    0  0.00000000000E+00 -0.00000000000E+00 -0.19183869109E+04  0.19183869109E+04  0.25500000000E-02 0.  1.
    5000001    1    1    2    0    0 -0.12479998319E+03  0.65170639032E+02 -0.95812128313E+03  0.98864535663E+03  0.19900000000E+03 0.  0.
   -5000001    1    1    2    0    0  0.12479998319E+03 -0.65170639032E+02 -0.92928321486E+03  0.96072396734E+03  0.19900000000E+03 0.  0.
<mgrwt>
<rscale>  0 0.48759104E+03</rscale>
<asrwt>0</asrwt>
<pdfrwt beam="1">  1        2 0.27405520E+00 0.48759104E+03</pdfrwt>
<pdfrwt beam="2">  1       -2 0.44260602E-02 0.48759104E+03</pdfrwt>
<totfact> 0.22641193E+03</totfact>
</mgrwt>
</event>
<event>
 4    1  0.4998754E-005  0.4500958E+03  0.7818608E-02  0.1027693E+00
          2   -1    0    0  501    0  0.00000000000E+00  0.00000000000E+00  0.74495921333E+02  0.74495921376E+02  0.25500000000E-02 0. -1.
         -2   -1    0    0    0  501 -0.00000000000E+00 -0.00000000000E+00 -0.67985680745E+03  0.67985680746E+03  0.25500000000E-02 0.  1.
    5000001    1    1    2    0    0  0.86953792665E+02  0.12982038756E+02 -0.39919235974E+03  0.45462625910E+03  0.19900000000E+03 0.  0.
   -5000001    1    1    2    0    0 -0.86953792665E+02 -0.12982038756E+02 -0.20616852638E+03  0.29972646973E+03  0.19900000000E+03 0.  0.
<mgrwt>
<rscale>  0 0.45009581E+03</rscale>
<asrwt>0</asrwt>
<pdfrwt beam="1">  1        2 0.10642275E-01 0.45009581E+03</pdfrwt>
<pdfrwt beam="2">  1       -2 0.97122397E-01 0.45009581E+03</pdfrwt>
<totfact> 0.54770352E+02</totfact>
</mgrwt>
</event>
<event>
 4    1  0.4998754E-005  0.6229090E+03  0.7818608E-02  0.9858985E-01
         -2   -1    0    0    0  501 -0.00000000000E+00  0.00000000000E+00  0.14764197107E+03  0.14764197109E+03  0.25500000000E-02 0. -1.
          2   -1    0    0  501    0  0.00000000000E+00 -0.00000000000E+00 -0.65702115446E+03  0.65702115447E+03  0.25500000000E-02 0.  1.
    5000001    1    1    2    0    0  0.64698894658E+02  0.13433885521E+03 -0.12432868613E+02  0.24897480036E+03  0.19900000000E+03 0.  0.
   -5000001    1    1    2    0    0 -0.64698894658E+02 -0.13433885521E+03 -0.49694631478E+03  0.55568832520E+03  0.19900000000E+03 0.  0.
<mgrwt>
<rscale>  0 0.62290898E+03</rscale>
<asrwt>0</asrwt>
<pdfrwt beam="1">  1        2 0.93860163E-01 0.62290898E+03</pdfrwt>
<pdfrwt beam="2">  1       -2 0.21091711E-01 0.62290898E+03</pdfrwt>
<totfact> 0.94762866E+02</totfact>
</mgrwt>
</event>
<event>
 4    1  0.4998754E-005  0.7512917E+03  0.7818608E-02  0.9633326E-01
         -2   -1    0    0    0  501 -0.00000000000E+00  0.00000000000E+00  0.24348229980E+03  0.24348229981E+03  0.25500000000E-02 0. -1.
          2   -1    0    0  501    0  0.00000000000E+00 -0.00000000000E+00 -0.57954847499E+03  0.57954847499E+03  0.25500000000E-02 0.  1.
    5000001    1    1    2    0    0 -0.21798153089E+03 -0.77502404148E+02  0.71941796788E+02  0.31352702050E+03  0.19900000000E+03 0.  0.
   -5000001    1    1    2    0    0  0.21798153089E+03  0.77502404148E+02 -0.40800797198E+03  0.50950375431E+03  0.19900000000E+03 0.  0.
<mgrwt>
<rscale>  0 0.75129168E+03</rscale>
<asrwt>0</asrwt>
<pdfrwt beam="1">  1        2 0.82792639E-01 0.75129168E+03</pdfrwt>
<pdfrwt beam="2">  1       -2 0.34783186E-01 0.75129168E+03</pdfrwt>
<totfact> 0.44039607E+02</totfact>
</mgrwt>
</event>
<event>
 4    1  0.4998754E-005  0.6031381E+03  0.7818608E-02  0.9898917E-01
          2   -1    0    0  501    0  0.00000000000E+00  0.00000000000E+00  0.69484605300E+03  0.69484605300E+03  0.25500000000E-02 0.  1.
         -2   -1    0    0    0  501 -0.00000000000E+00 -0.00000000000E+00 -0.13088350375E+03  0.13088350378E+03  0.25500000000E-02 0. -1.
    5000001    1    1    2    0    0 -0.10701598675E+03 -0.30761097186E+01  0.85777479695E+01  0.22613372511E+03  0.19900000000E+03 0.  0.
   -5000001    1    1    2    0    0  0.10701598675E+03  0.30761097186E+01  0.55538480128E+03  0.59959583167E+03  0.19900000000E+03 0.  0.
<mgrwt>
<rscale>  0 0.60313808E+03</rscale>
<asrwt>0</asrwt>
<pdfrwt beam="1">  1        2 0.99263721E-01 0.60313808E+03</pdfrwt>
<pdfrwt beam="2">  1       -2 0.18697643E-01 0.60313808E+03</pdfrwt>
<totfact> 0.10924454E+03</totfact>
</mgrwt>
</event>
<event>
 4    1  0.4998754E-005  0.6377125E+03  0.7818608E-02  0.9830113E-01
         -2   -1    0    0    0  501 -0.00000000000E+00  0.00000000000E+00  0.53274370407E+03  0.53274370408E+03  0.25500000000E-02 0. -1.
          2   -1    0    0  501    0  0.00000000000E+00 -0.00000000000E+00 -0.19084091747E+03  0.19084091749E+03  0.25500000000E-02 0.  1.
    5000001    1    1    2    0    0  0.24600254621E+02  0.24505589789E+03  0.21356876155E+03  0.38192955047E+03  0.19900000000E+03 0.  0.
   -5000001    1    1    2    0    0 -0.24600254621E+02 -0.24505589789E+03  0.12833402505E+03  0.34165507109E+03  0.19900000000E+03 0.  0.
<mgrwt>
<rscale>  0 0.63771247E+03</rscale>
<asrwt>0</asrwt>
<pdfrwt beam="1">  1        2 0.27262988E-01 0.63771247E+03</pdfrwt>
<pdfrwt beam="2">  1       -2 0.76106243E-01 0.63771247E+03</pdfrwt>
<totfact> 0.30974741E+02</totfact>
</mgrwt>
</event>
<event>
 4    1  0.4998754E-005  0.4703280E+03  0.7818608E-02  0.1021828E+00
          2   -1    0    0  501    0  0.00000000000E+00  0.00000000000E+00  0.28523793285E+03  0.28523793286E+03  0.25500000000E-02 0.  1.
         -2   -1    0    0    0  501 -0.00000000000E+00 -0.00000000000E+00 -0.19388059903E+03  0.19388059904E+03  0.25500000000E-02 0. -1.
    5000001    1    1    2    0    0 -0.66072629357E+02 -0.57590960108E+02 -0.45542701751E+02  0.22216536346E+03  0.19900000000E+03 0.  0.
   -5000001    1    1    2    0    0  0.66072629357E+02  0.57590960108E+02  0.13690003557E+03  0.25695316845E+03  0.19900000000E+03 0.  0.
<mgrwt>
<rscale>  0 0.47032798E+03</rscale>
<asrwt>0</asrwt>
<pdfrwt beam="1">  1        2 0.40748276E-01 0.47032798E+03</pdfrwt>
<pdfrwt beam="2">  1       -2 0.27697229E-01 0.47032798E+03</pdfrwt>
<totfact> 0.14932833E+03</totfact>
</mgrwt>
</event>
<event>
 4    1  0.4998754E-005  0.5829752E+03  0.7818608E-02  0.9941371E-01
         -2   -1    0    0    0  501 -0.00000000000E+00  0.00000000000E+00  0.16910828036E+03  0.16910828038E+03  0.25500000000E-02 0. -1.
          2   -1    0    0  501    0  0.00000000000E+00 -0.00000000000E+00 -0.50242963953E+03  0.50242963954E+03  0.25500000000E-02 0.  1.
    5000001    1    1    2    0    0  0.17234070819E+03  0.10976902308E+03 -0.23590461802E+03  0.37013855100E+03  0.19900000000E+03 0.  0.
   -5000001    1    1    2    0    0 -0.17234070819E+03 -0.10976902308E+03 -0.97416741150E+02  0.30139936892E+03  0.19900000000E+03 0.  0.
<mgrwt>
<rscale>  0 0.58297517E+03</rscale>
<asrwt>0</asrwt>
<pdfrwt beam="1">  1        2 0.71775662E-01 0.58297517E+03</pdfrwt>
<pdfrwt beam="2">  1       -2 0.24158326E-01 0.58297517E+03</pdfrwt>
<totfact> 0.10199227E+03</totfact>
</mgrwt>
</event>
<event>
 4    1  0.4998754E-005  0.8157414E+03  0.7818608E-02  0.9537507E-01
         -2   -1    0    0    0  501 -0.00000000000E+00  0.00000000000E+00  0.93975915312E+03  0.93975915313E+03  0.25500000000E-02 0. -1.
          2   -1    0    0  501    0  0.00000000000E+00 -0.00000000000E+00 -0.17702249322E+03  0.17702249324E+03  0.25500000000E-02 0.  1.
    5000001    1    1    2    0    0 -0.55261122147E+02 -0.24583798741E+03  0.37013832553E+02  0.32320447317E+03  0.19900000000E+03 0.  0.
   -5000001    1    1    2    0    0  0.55261122147E+02  0.24583798741E+03  0.72572282735E+03  0.79357717319E+03  0.19900000000E+03 0.  0.
<mgrwt>
<rscale>  0 0.81574140E+03</rscale>
<asrwt>0</asrwt>
<pdfrwt beam="1">  1        2 0.25288928E-01 0.81574140E+03</pdfrwt>
<pdfrwt beam="2">  1       -2 0.13425130E+00 0.81574140E+03</pdfrwt>
<totfact> 0.87167889E+01</totfact>
</mgrwt>
</event>
<event>
 4    1  0.4998754E-005  0.6546241E+03  0.7818608E-02  0.9798141E-01
         -2   -1    0    0    0  501 -0.00000000000E+00  0.00000000000E+00  0.71383522283E+02  0.71383522328E+02  0.25500000000E-02 0. -1.
          2   -1    0    0  501    0  0.00000000000E+00 -0.00000000000E+00 -0.15008108708E+04  0.15008108708E+04  0.25500000000E-02 0.  1.
    5000001    1    1    2    0    0 -0.46799219890E+02  0.24326278344E+03 -0.90329056812E+03  0.95754989387E+03  0.19900000000E+03 0.  0.
   -5000001    1    1    2    0    0  0.46799219890E+02 -0.24326278344E+03 -0.52613678041E+03  0.61464449928E+03  0.19900000000E+03 0.  0.
<mgrwt>
<rscale>  0 0.65462406E+03</rscale>
<asrwt>0</asrwt>
<pdfrwt beam="1">  1        2 0.21440153E+00 0.65462406E+03</pdfrwt>
<pdfrwt beam="2">  1       -2 0.10197647E-01 0.65462406E+03</pdfrwt>
<totfact> 0.98380470E+02</totfact>
</mgrwt>
</event>
<event>
 4    1  0.4998754E-005  0.6334257E+03  0.7818608E-02  0.9838386E-01
          2   -1    0    0  501    0  0.00000000000E+00  0.00000000000E+00  0.70912311029E+03  0.70912311029E+03  0.25500000000E-02 0.  1.
         -2   -1    0    0    0  501 -0.00000000000E+00 -0.00000000000E+00 -0.14145222194E+03  0.14145222196E+03  0.25500000000E-02 0. -1.
    5000001    1    1    2    0    0  0.22207467782E+03 -0.64128623721E+02  0.39838021425E+03  0.50173442977E+03  0.19900000000E+03 0.  0.
   -5000001    1    1    2    0    0 -0.22207467782E+03  0.64128623721E+02  0.16929067410E+03  0.34884090249E+03  0.19900000000E+03 0.  0.
<mgrwt>
<rscale>  0 0.63342573E+03</rscale>
<asrwt>0</asrwt>
<pdfrwt beam="1">  1        2 0.10130330E+00 0.63342573E+03</pdfrwt>
<pdfrwt beam="2">  1       -2 0.20207461E-01 0.63342573E+03</pdfrwt>
<totfact> 0.93062491E+02</totfact>
</mgrwt>
</event>
<event>
 4    1  0.4998754E-005  0.9857953E+03  0.7818608E-02  0.9324263E-01
         -2   -1    0    0    0  501 -0.00000000000E+00  0.00000000000E+00  0.24492034836E+03  0.24492034837E+03  0.25500000000E-02 0. -1.
          2   -1    0    0  501    0  0.00000000000E+00 -0.00000000000E+00 -0.99194735958E+03  0.99194735959E+03  0.25500000000E-02 0.  1.
    5000001    1    1    2    0    0 -0.16487104716E+03 -0.34444575055E+03 -0.72592451351E+02  0.43668753274E+03  0.19900000000E+03 0.  0.
   -5000001    1    1    2    0    0  0.16487104716E+03  0.34444575055E+03 -0.67443455987E+03  0.80018017522E+03  0.19900000000E+03 0.  0.
<mgrwt>
<rscale>  0 0.98579530E+03</rscale>
<asrwt>0</asrwt>
<pdfrwt beam="1">  1        2 0.14170676E+00 0.98579530E+03</pdfrwt>
<pdfrwt beam="2">  1       -2 0.34988622E-01 0.98579530E+03</pdfrwt>
<totfact> 0.21707876E+02</totfact>
</mgrwt>
</event>
<event>
 4    1  0.4998754E-005  0.4803655E+03  0.7818608E-02  0.1019035E+00
          2   -1    0    0  501    0  0.00000000000E+00  0.00000000000E+00  0.21992842040E+03  0.21992842042E+03  0.25500000000E-02 0.  1.
         -2   -1    0    0    0  501 -0.00000000000E+00 -0.00000000000E+00 -0.26230240367E+03  0.26230240369E+03  0.25500000000E-02 0. -1.
    5000001    1    1    2    0    0 -0.13379940256E+03  0.89266700362E+00 -0.75816403032E+01  0.23991989965E+03  0.19900000000E+03 0.  0.
   -5000001    1    1    2    0    0  0.13379940256E+03 -0.89266700362E+00 -0.34792342969E+02  0.24231092445E+03  0.19900000000E+03 0.  0.
<mgrwt>
<rscale>  0 0.48036550E+03</rscale>
<asrwt>0</asrwt>
<pdfrwt beam="1">  1        2 0.31418346E-01 0.48036550E+03</pdfrwt>
<pdfrwt beam="2">  1       -2 0.37471772E-01 0.48036550E+03</pdfrwt>
<totfact> 0.11340683E+03</totfact>
</mgrwt>
</event>
<event>
 4    1  0.4998754E-005  0.5173905E+03  0.7818608E-02  0.1009337E+00
          2   -1    0    0  501    0  0.00000000000E+00  0.00000000000E+00  0.88151560485E+03  0.88151560485E+03  0.25500000000E-02 0.  1.
         -2   -1    0    0    0  501 -0.00000000000E+00 -0.00000000000E+00 -0.75918372829E+02  0.75918372872E+02  0.25500000000E-02 0. -1.
    5000001    1    1    2    0    0 -0.12024357960E+03 -0.42334632936E+02  0.20808629058E+03  0.31488354023E+03  0.19900000000E+03 0.  0.
   -5000001    1    1    2    0    0  0.12024357960E+03  0.42334632936E+02  0.59751094144E+03  0.64255043749E+03  0.19900000000E+03 0.  0.
<mgrwt>
<rscale>  0 0.51739049E+03</rscale>
<asrwt>0</asrwt>
<pdfrwt beam="1">  1        2 0.12593079E+00 0.51739049E+03</pdfrwt>
<pdfrwt beam="2">  1       -2 0.10845483E-01 0.51739049E+03</pdfrwt>
<totfact> 0.20118932E+03</totfact>
</mgrwt>
</event>
<event>
 4    1  0.4998754E-005  0.5658243E+03  0.7818608E-02  0.9978962E-01
          2   -1    0    0  501    0  0.00000000000E+00  0.00000000000E+00  0.21869981211E+03  0.21869981212E+03  0.25500000000E-02 0.  1.
         -2   -1    0    0    0  501 -0.00000000000E+00 -0.00000000000E+00 -0.36597789725E+03  0.36597789726E+03  0.25500000000E-02 0. -1.
    5000001    1    1    2    0    0 -0.11003065872E+03  0.13945480839E+03  0.23756017971E+02  0.26780541039E+03  0.19900000000E+03 0.  0.
   -5000001    1    1    2    0    0  0.11003065872E+03 -0.13945480839E+03 -0.17103410312E+03  0.31687229900E+03  0.19900000000E+03 0.  0.
<mgrwt>
<rscale>  0 0.56582435E+03</rscale>
<asrwt>0</asrwt>
<pdfrwt beam="1">  1        2 0.31242831E-01 0.56582435E+03</pdfrwt>
<pdfrwt beam="2">  1       -2 0.52282556E-01 0.56582435E+03</pdfrwt>
<totfact> 0.59109507E+02</totfact>
</mgrwt>
</event>
<event>
 4    1  0.4998754E-005  0.5115617E+03  0.7818608E-02  0.1010804E+00
          2   -1    0    0  501    0  0.00000000000E+00  0.00000000000E+00  0.20954504434E+04  0.20954504434E+04  0.25500000000E-02 0. -1.
         -2   -1    0    0    0  501 -0.00000000000E+00 -0.00000000000E+00 -0.31221850372E+02  0.31221850476E+02  0.25500000000E-02 0.  1.
    5000001    1    1    2    0    0  0.73681722787E+02  0.12002807849E+03  0.13537846062E+04  0.13755615202E+04  0.19900000000E+03 0.  0.
   -5000001    1    1    2    0    0 -0.73681722787E+02 -0.12002807849E+03  0.71044398682E+03  0.75111077366E+03  0.19900000000E+03 0.  0.
<mgrwt>
<rscale>  0 0.51156169E+03</rscale>
<asrwt>0</asrwt>
<pdfrwt beam="1">  1        2 0.29935008E+00 0.51156169E+03</pdfrwt>
<pdfrwt beam="2">  1       -2 0.44602641E-02 0.51156169E+03</pdfrwt>
<totfact> 0.18237649E+03</totfact>
</mgrwt>
</event>
<event>
 4    1  0.4998754E-005  0.6758812E+03  0.7818608E-02  0.9759391E-01
          2   -1    0    0  501    0  0.00000000000E+00  0.00000000000E+00  0.10709446349E+04  0.10709446349E+04  0.25500000000E-02 0.  1.
         -2   -1    0    0    0  501 -0.00000000000E+00 -0.00000000000E+00 -0.10663842223E+03  0.10663842226E+03  0.25500000000E-02 0. -1.
    5000001    1    1    2    0    0  0.18310792083E+03 -0.19992717482E+03  0.42427696889E+03  0.54139757317E+03  0.19900000000E+03 0.  0.
   -5000001    1    1    2    0    0 -0.18310792083E+03  0.19992717482E+03  0.54002924375E+03  0.63618548396E+03  0.19900000000E+03 0.  0.
<mgrwt>
<rscale>  0 0.67588119E+03</rscale>
<asrwt>0</asrwt>
<pdfrwt beam="1">  1        2 0.15299209E+00 0.67588119E+03</pdfrwt>
<pdfrwt beam="2">  1       -2 0.15234060E-01 0.67588119E+03</pdfrwt>
<totfact> 0.87229779E+02</totfact>
</mgrwt>
</event>
<event>
 4    1  0.4998754E-005  0.7515693E+03  0.7818608E-02  0.9632892E-01
          2   -1    0    0  501    0  0.00000000000E+00  0.00000000000E+00  0.20072708044E+04  0.20072708044E+04  0.25500000000E-02 0.  1.
         -2   -1    0    0    0  501 -0.00000000000E+00 -0.00000000000E+00 -0.70351287205E+02  0.70351287251E+02  0.25500000000E-02 0. -1.
    5000001    1    1    2    0    0  0.78743359905E+02  0.30541097043E+03  0.84067764437E+03  0.91968270579E+03  0.19900000000E+03 0.  0.
   -5000001    1    1    2    0    0 -0.78743359905E+02 -0.30541097043E+03  0.10962418728E+04  0.11579393858E+04  0.19900000000E+03 0.  0.
<mgrwt>
<rscale>  0 0.75156925E+03</rscale>
<asrwt>0</asrwt>
<pdfrwt beam="1">  1        2 0.28675297E+00 0.75156925E+03</pdfrwt>
<pdfrwt beam="2">  1       -2 0.10050184E-01 0.75156925E+03</pdfrwt>
<totfact> 0.55231519E+02</totfact>
</mgrwt>
</event>
<event>
 4    1  0.4998754E-005  0.6264152E+03  0.7818608E-02  0.9852069E-01
          2   -1    0    0  501    0  0.00000000000E+00  0.00000000000E+00  0.11680287486E+04  0.11680287486E+04  0.25500000000E-02 0.  1.
         -2   -1    0    0    0  501 -0.00000000000E+00 -0.00000000000E+00 -0.83986797018E+02  0.83986797057E+02  0.25500000000E-02 0. -1.
    5000001    1    1    2    0    0 -0.23311784138E+03 -0.28238802711E+02  0.65781857134E+03  0.72626966806E+03  0.19900000000E+03 0.  0.
   -5000001    1    1    2    0    0  0.23311784138E+03  0.28238802711E+02  0.42622338026E+03  0.52574587761E+03  0.19900000000E+03 0.  0.
<mgrwt>
<rscale>  0 0.62641518E+03</rscale>
<asrwt>0</asrwt>
<pdfrwt beam="1">  1        2 0.16686125E+00 0.62641518E+03</pdfrwt>
<pdfrwt beam="2">  1       -2 0.11998114E-01 0.62641518E+03</pdfrwt>
<totfact> 0.11431927E+03</totfact>
</mgrwt>
</event>
<event>
 4    1  0.4998754E-005  0.4451660E+03  0.7818608E-02  0.1029173E+00
         -2   -1    0    0    0  501 -0.00000000000E+00  0.00000000000E+00  0.64320037098E+02  0.64320037149E+02  0.25500000000E-02 0. -1.
          2   -1    0    0  501    0  0.00000000000E+00 -0.00000000000E+00 -0.77026047144E+03  0.77026047145E+03  0.25500000000E-02 0.  1.
    5000001    1    1    2    0    0 -0.61220987911E+02 -0.57672843502E+02 -0.45337099312E+03  0.50221551513E+03  0.19900000000E+03 0.  0.
   -5000001    1    1    2    0    0  0.61220987911E+02  0.57672843502E+02 -0.25256944123E+03  0.33236499346E+03  0.19900000000E+03 0.  0.
<mgrwt>
<rscale>  0 0.44516596E+03</rscale>
<asrwt>0</asrwt>
<pdfrwt beam="1">  1        2 0.11003721E+00 0.44516596E+03</pdfrwt>
<pdfrwt beam="2">  1       -2 0.91885772E-02 0.44516596E+03</pdfrwt>
<totfact> 0.31226791E+03</totfact>
</mgrwt>
</event>
<event>
 4    1  0.4998754E-005  0.5396338E+03  0.7818608E-02  0.1003922E+00
          2   -1    0    0  501    0  0.00000000000E+00  0.00000000000E+00  0.24660733389E+04  0.24660733389E+04  0.25500000000E-02 0.  1.
         -2   -1    0    0    0  501 -0.00000000000E+00 -0.00000000000E+00 -0.29521088387E+02  0.29521088497E+02  0.25500000000E-02 0. -1.
    5000001    1    1    2    0    0  0.12323361701E+03  0.13159137023E+03  0.10961518143E+04  0.11285621884E+04  0.19900000000E+03 0.  0.
   -5000001    1    1    2    0    0 -0.12323361701E+03 -0.13159137023E+03  0.13404004362E+04  0.13670322390E+04  0.19900000000E+03 0.  0.
<mgrwt>
<rscale>  0 0.53963384E+03</rscale>
<asrwt>0</asrwt>
<pdfrwt beam="1">  1        2 0.35229632E+00 0.53963384E+03</pdfrwt>
<pdfrwt beam="2">  1       -2 0.42172968E-02 0.53963384E+03</pdfrwt>
<totfact> 0.12910298E+03</totfact>
</mgrwt>
</event>
<event>
 4    1  0.4998754E-005  0.4288309E+03  0.7818608E-02  0.1034230E+00
          2   -1    0    0  501    0  0.00000000000E+00  0.00000000000E+00  0.29806744947E+04  0.29806744947E+04  0.25500000000E-02 0.  1.
         -2   -1    0    0    0  501 -0.00000000000E+00 -0.00000000000E+00 -0.15424023890E+02  0.15424024101E+02  0.25500000000E-02 0. -1.
    5000001    1    1    2    0    0 -0.72023963731E+02 -0.21814611913E+02  0.16687469565E+04  0.16822546577E+04  0.19900000000E+03 0.  0.
   -5000001    1    1    2    0    0  0.72023963731E+02  0.21814611913E+02  0.12965035144E+04  0.13138438611E+04  0.19900000000E+03 0.  0.
<mgrwt>
<rscale>  0 0.42883095E+03</rscale>
<asrwt>0</asrwt>
<pdfrwt beam="1">  1        2 0.42581076E+00 0.42883095E+03</pdfrwt>
<pdfrwt beam="2">  1       -2 0.22034314E-02 0.42883095E+03</pdfrwt>
<totfact> 0.18742894E+03</totfact>
</mgrwt>
</event>
<event>
 4    1  0.4998754E-005  0.5762247E+03  0.7818608E-02  0.9955998E-01
          2   -1    0    0  501    0  0.00000000000E+00  0.00000000000E+00  0.57933180526E+03  0.57933180527E+03  0.25500000000E-02 0.  1.
         -2   -1    0    0    0  501 -0.00000000000E+00 -0.00000000000E+00 -0.14328358202E+03  0.14328358204E+03  0.25500000000E-02 0. -1.
    5000001    1    1    2    0    0  0.12689199323E+03 -0.90918247176E+02  0.44983066352E+02  0.25688943511E+03  0.19900000000E+03 0.  0.
   -5000001    1    1    2    0    0 -0.12689199323E+03  0.90918247176E+02  0.39106515689E+03  0.46572595220E+03  0.19900000000E+03 0.  0.
<mgrwt>
<rscale>  0 0.57622473E+03</rscale>
<asrwt>0</asrwt>
<pdfrwt beam="1">  1        2 0.82761686E-01 0.57622473E+03</pdfrwt>
<pdfrwt beam="2">  1       -2 0.20469083E-01 0.57622473E+03</pdfrwt>
<totfact> 0.11598725E+03</totfact>
</mgrwt>
</event>
<event>
 4    1  0.4998754E-005  0.4374828E+03  0.7818608E-02  0.1031522E+00
         -2   -1    0    0    0  501 -0.00000000000E+00  0.00000000000E+00  0.33976715718E+02  0.33976715813E+02  0.25500000000E-02 0. -1.
          2   -1    0    0  501    0  0.00000000000E+00 -0.00000000000E+00 -0.14082527680E+04  0.14082527680E+04  0.25500000000E-02 0.  1.
    5000001    1    1    2    0    0  0.39558071518E+02  0.74365052205E+02 -0.79902055798E+03  0.82772571186E+03  0.19900000000E+03 0.  0.
   -5000001    1    1    2    0    0 -0.39558071518E+02 -0.74365052205E+02 -0.57525549427E+03  0.61450377192E+03  0.19900000000E+03 0.  0.
<mgrwt>
<rscale>  0 0.43748282E+03</rscale>
<asrwt>0</asrwt>
<pdfrwt beam="1">  1        2 0.20117893E+00 0.43748282E+03</pdfrwt>
<pdfrwt beam="2">  1       -2 0.48538174E-02 0.43748282E+03</pdfrwt>
<totfact> 0.35692886E+03</totfact>
</mgrwt>
</event>
<event>
 4    1  0.4998754E-005  0.8087900E+03  0.7818608E-02  0.9547380E-01
          2   -1    0    0  501    0  0.00000000000E+00  0.00000000000E+00  0.20674724792E+04  0.20674724792E+04  0.25500000000E-02 0. -1.
         -2   -1    0    0    0  501 -0.00000000000E+00 -0.00000000000E+00 -0.79099148718E+02  0.79099148760E+02  0.25500000000E-02 0.  1.
    5000001    1    1    2    0    0  0.23530183007E+03 -0.24914226178E+03  0.78028421841E+03  0.87514757575E+03  0.19900000000E+03 0.  0.
   -5000001    1    1    2    0    0 -0.23530183007E+03  0.24914226178E+03  0.12080891120E+04  0.12714240522E+04  0.19900000000E+03 0.  0.
<mgrwt>
<rscale>  0 0.80878999E+03</rscale>
<asrwt>0</asrwt>
<pdfrwt beam="1">  1        2 0.29535321E+00 0.80878999E+03</pdfrwt>
<pdfrwt beam="2">  1       -2 0.11299878E-01 0.80878999E+03</pdfrwt>
<totfact> 0.42337914E+02</totfact>
</mgrwt>
</event>
<event>
 4    1  0.4998754E-005  0.4409915E+03  0.7818608E-02  0.1030443E+00
         -2   -1    0    0    0  501 -0.00000000000E+00  0.00000000000E+00  0.38867725762E+02  0.38867725846E+02  0.25500000000E-02 0. -1.
          2   -1    0    0  501    0  0.00000000000E+00 -0.00000000000E+00 -0.12508677963E+04  0.12508677963E+04  0.25500000000E-02 0.  1.
    5000001    1    1    2    0    0 -0.87784096665E+02  0.24546971969E+02 -0.52813765533E+03  0.57169833342E+03  0.19900000000E+03 0.  0.
   -5000001    1    1    2    0    0  0.87784096665E+02 -0.24546971969E+02 -0.68386241522E+03  0.71803718874E+03  0.19900000000E+03 0.  0.
<mgrwt>
<rscale>  0 0.44099155E+03</rscale>
<asrwt>0</asrwt>
<pdfrwt beam="1">  1        2 0.17869537E+00 0.44099155E+03</pdfrwt>
<pdfrwt beam="2">  1       -2 0.55525330E-02 0.44099155E+03</pdfrwt>
<totfact> 0.35194553E+03</totfact>
</mgrwt>
</event>
<event>
 4    1  0.4998754E-005  0.4850225E+03  0.7818608E-02  0.1017764E+00
         -2   -1    0    0    0  501 -0.00000000000E+00  0.00000000000E+00  0.40304312312E+02  0.40304312393E+02  0.25500000000E-02 0. -1.
          2   -1    0    0  501    0  0.00000000000E+00 -0.00000000000E+00 -0.14591911987E+04  0.14591911987E+04  0.25500000000E-02 0.  1.
    5000001    1    1    2    0    0 -0.28207369356E+02 -0.84264982891E+02 -0.10382951741E+04  0.10609213504E+04  0.19900000000E+03 0.  0.
   -5000001    1    1    2    0    0  0.28207369356E+02  0.84264982891E+02 -0.38059171227E+03  0.43857416075E+03  0.19900000000E+03 0.  0.
<mgrwt>
<rscale>  0 0.48502246E+03</rscale>
<asrwt>0</asrwt>
<pdfrwt beam="1">  1        2 0.20845585E+00 0.48502246E+03</pdfrwt>
<pdfrwt beam="2">  1       -2 0.57577598E-02 0.48502246E+03</pdfrwt>
<totfact> 0.25773103E+03</totfact>
</mgrwt>
</event>
<event>
 4    1  0.4998754E-005  0.6999464E+03  0.7818608E-02  0.9717324E-01
         -2   -1    0    0    0  501 -0.00000000000E+00  0.00000000000E+00  0.12791672175E+03  0.12791672178E+03  0.25500000000E-02 0. -1.
          2   -1    0    0  501    0  0.00000000000E+00 -0.00000000000E+00 -0.95750765406E+03  0.95750765406E+03  0.25500000000E-02 0.  1.
    5000001    1    1    2    0    0  0.60577392876E+02 -0.25626130237E+03 -0.23434567628E+03  0.40479423367E+03  0.19900000000E+03 0.  0.
   -5000001    1    1    2    0    0 -0.60577392876E+02  0.25626130237E+03 -0.59524525602E+03  0.68063014217E+03  0.19900000000E+03 0.  0.
<mgrwt>
<rscale>  0 0.69994640E+03</rscale>
<asrwt>0</asrwt>
<pdfrwt beam="1">  1        2 0.13678680E+00 0.69994640E+03</pdfrwt>
<pdfrwt beam="2">  1       -2 0.18273818E-01 0.69994640E+03</pdfrwt>
<totfact> 0.74885849E+02</totfact>
</mgrwt>
</event>
<event>
 4    1  0.4998754E-005  0.8058231E+03  0.7818608E-02  0.9551626E-01
          2   -1    0    0  501    0  0.00000000000E+00  0.00000000000E+00  0.36460528045E+03  0.36460528046E+03  0.25500000000E-02 0.  1.
         -2   -1    0    0    0  501 -0.00000000000E+00 -0.00000000000E+00 -0.44524238496E+03  0.44524238496E+03  0.25500000000E-02 0. -1.
    5000001    1    1    2    0    0 -0.23649263651E+03 -0.25505724244E+03 -0.82405629359E+02  0.40911447273E+03  0.19900000000E+03 0.  0.
   -5000001    1    1    2    0    0  0.23649263651E+03  0.25505724244E+03  0.17685248527E+01  0.40073319269E+03  0.19900000000E+03 0.  0.
<mgrwt>
<rscale>  0 0.80582312E+03</rscale>
<asrwt>0</asrwt>
<pdfrwt beam="1">  1        2 0.52086469E-01 0.80582312E+03</pdfrwt>
<pdfrwt beam="2">  1       -2 0.63606054E-01 0.80582312E+03</pdfrwt>
<totfact> 0.22097485E+02</totfact>
</mgrwt>
</event>
<event>
 4    1  0.4998754E-005  0.5207193E+03  0.7818608E-02  0.1008508E+00
          2   -1    0    0  501    0  0.00000000000E+00  0.00000000000E+00  0.21670437877E+03  0.21670437878E+03  0.25500000000E-02 0.  1.
         -2   -1    0    0    0  501 -0.00000000000E+00 -0.00000000000E+00 -0.31280927587E+03  0.31280927588E+03  0.25500000000E-02 0. -1.
    5000001    1    1    2    0    0  0.10756607821E+02 -0.16101619855E+03 -0.96468290861E+00  0.25621056071E+03  0.19900000000E+03 0.  0.
   -5000001    1    1    2    0    0 -0.10756607821E+02  0.16101619855E+03 -0.95140214195E+02  0.27330309395E+03  0.19900000000E+03 0.  0.
<mgrwt>
<rscale>  0 0.52071927E+03</rscale>
<asrwt>0</asrwt>
<pdfrwt beam="1">  1        2 0.30957768E-01 0.52071927E+03</pdfrwt>
<pdfrwt beam="2">  1       -2 0.44687040E-01 0.52071927E+03</pdfrwt>
<totfact> 0.81890895E+02</totfact>
</mgrwt>
</event>
<event>
 4    1  0.4998754E-005  0.7783386E+03  0.7818608E-02  0.9591911E-01
         -2   -1    0    0    0  501 -0.00000000000E+00  0.00000000000E+00  0.16639403327E+03  0.16639403329E+03  0.25500000000E-02 0. -1.
          2   -1    0    0  501    0  0.00000000000E+00 -0.00000000000E+00 -0.91020536494E+03  0.91020536495E+03  0.25500000000E-02 0.  1.
    5000001    1    1    2    0    0 -0.16942692645E+03  0.20802534559E+03 -0.95709261953E+02  0.34747847507E+03  0.19900000000E+03 0.  0.
   -5000001    1    1    2    0    0  0.16942692645E+03 -0.20802534559E+03 -0.64810206972E+03  0.72912092316E+03  0.19900000000E+03 0.  0.
<mgrwt>
<rscale>  0 0.77833859E+03</rscale>
<asrwt>0</asrwt>
<pdfrwt beam="1">  1        2 0.13002934E+00 0.77833859E+03</pdfrwt>
<pdfrwt beam="2">  1       -2 0.23770577E-01 0.77833859E+03</pdfrwt>
<totfact> 0.50414248E+02</totfact>
</mgrwt>
</event>
<event>
 4    1  0.4998754E-005  0.7391979E+03  0.7818608E-02  0.9652451E-01
         -2   -1    0    0    0  501 -0.00000000000E+00  0.00000000000E+00  0.14411016618E+03  0.14411016620E+03  0.25500000000E-02 0. -1.
          2   -1    0    0  501    0  0.00000000000E+00 -0.00000000000E+00 -0.94790939381E+03  0.94790939381E+03  0.25500000000E-02 0.  1.
    5000001    1    1    2    0    0 -0.10269849837E+03 -0.29036789586E+03 -0.47026993938E+03  0.59633489953E+03  0.19900000000E+03 0.  0.
   -5000001    1    1    2    0    0  0.10269849837E+03  0.29036789586E+03 -0.33352928824E+03  0.49568466048E+03  0.19900000000E+03 0.  0.
<mgrwt>
<rscale>  0 0.73919789E+03</rscale>
<asrwt>0</asrwt>
<pdfrwt beam="1">  1        2 0.13541562E+00 0.73919789E+03</pdfrwt>
<pdfrwt beam="2">  1       -2 0.20587167E-01 0.73919789E+03</pdfrwt>
<totfact> 0.61625267E+02</totfact>
</mgrwt>
</event>
<event>
 4    1  0.4998754E-005  0.4549083E+03  0.7818608E-02  0.1026268E+00
          2   -1    0    0  501    0  0.00000000000E+00  0.00000000000E+00  0.63112471398E+02  0.63112471450E+02  0.25500000000E-02 0.  1.
         -2   -1    0    0    0  501 -0.00000000000E+00 -0.00000000000E+00 -0.81973331719E+03  0.81973331719E+03  0.25500000000E-02 0. -1.
    5000001    1    1    2    0    0 -0.85643439120E+02  0.55437106146E+02 -0.45894515381E+03  0.51052886854E+03  0.19900000000E+03 0.  0.
   -5000001    1    1    2    0    0  0.85643439120E+02 -0.55437106146E+02 -0.29767569198E+03  0.37231692011E+03  0.19900000000E+03 0.  0.
<mgrwt>
<rscale>  0 0.45490832E+03</rscale>
<asrwt>0</asrwt>
<pdfrwt beam="1">  1        2 0.90160678E-02 0.45490832E+03</pdfrwt>
<pdfrwt beam="2">  1       -2 0.11710475E+00 0.45490832E+03</pdfrwt>
<totfact> 0.43254935E+02</totfact>
</mgrwt>
</event>
<event>
 4    1  0.4998754E-005  0.5816700E+03  0.7818608E-02  0.9944182E-01
          2   -1    0    0  501    0  0.00000000000E+00  0.00000000000E+00  0.20280035894E+04  0.20280035894E+04  0.25500000000E-02 0.  1.
         -2   -1    0    0    0  501 -0.00000000000E+00 -0.00000000000E+00 -0.41708501911E+02  0.41708501989E+02  0.25500000000E-02 0. -1.
    5000001    1    1    2    0    0 -0.17440798135E+03 -0.51531437923E+02  0.13814728601E+04  0.14075304246E+04  0.19900000000E+03 0.  0.
   -5000001    1    1    2    0    0  0.17440798135E+03  0.51531437923E+02  0.60482222735E+03  0.66218166673E+03  0.19900000000E+03 0.  0.
<mgrwt>
<rscale>  0 0.58166998E+03</rscale>
<asrwt>0</asrwt>
<pdfrwt beam="1">  1        2 0.28971488E+00 0.58166998E+03</pdfrwt>
<pdfrwt beam="2">  1       -2 0.59583558E-02 0.58166998E+03</pdfrwt>
<totfact> 0.12536281E+03</totfact>
</mgrwt>
</event>
<event>
 4    1  0.4998754E-005  0.7589622E+03  0.7818608E-02  0.9621394E-01
          2   -1    0    0  501    0  0.00000000000E+00  0.00000000000E+00  0.22823721322E+03  0.22823721323E+03  0.25500000000E-02 0.  1.
         -2   -1    0    0    0  501 -0.00000000000E+00 -0.00000000000E+00 -0.63094835969E+03  0.63094835970E+03  0.25500000000E-02 0. -1.
    5000001    1    1    2    0    0 -0.17095224555E+03 -0.23322820889E+03 -0.36456305283E+03  0.50609019668E+03  0.19900000000E+03 0.  0.
   -5000001    1    1    2    0    0  0.17095224555E+03  0.23322820889E+03 -0.38148093637E+02  0.35309537625E+03  0.19900000000E+03 0.  0.
<mgrwt>
<rscale>  0 0.75896217E+03</rscale>
<asrwt>0</asrwt>
<pdfrwt beam="1">  1        2 0.32605316E-01 0.75896217E+03</pdfrwt>
<pdfrwt beam="2">  1       -2 0.90135479E-01 0.75896217E+03</pdfrwt>
<totfact> 0.17203011E+02</totfact>
</mgrwt>
</event>
<event>
 4    1  0.4998754E-005  0.6119883E+03  0.7818608E-02  0.9880842E-01
         -2   -1    0    0    0  501 -0.00000000000E+00  0.00000000000E+00  0.37967878533E+03  0.37967878534E+03  0.25500000000E-02 0. -1.
          2   -1    0    0  501    0  0.00000000000E+00 -0.00000000000E+00 -0.24660954026E+03  0.24660954027E+03  0.25500000000E-02 0.  1.
    5000001    1    1    2    0    0  0.58944948798E+02 -0.18599783290E+03  0.19582640545E+03  0.34061515219E+03  0.19900000000E+03 0.  0.
   -5000001    1    1    2    0    0 -0.58944948798E+02  0.18599783290E+03 -0.62757160376E+02  0.28567317342E+03  0.19900000000E+03 0.  0.
<mgrwt>
<rscale>  0 0.61198827E+03</rscale>
<asrwt>0</asrwt>
<pdfrwt beam="1">  1        2 0.35229935E-01 0.61198827E+03</pdfrwt>
<pdfrwt beam="2">  1       -2 0.54239826E-01 0.61198827E+03</pdfrwt>
<totfact> 0.47908988E+02</totfact>
</mgrwt>
</event>
<event>
 4    1  0.4998754E-005  0.5035724E+03  0.7818608E-02  0.1012851E+00
          2   -1    0    0  501    0  0.00000000000E+00  0.00000000000E+00  0.11788561184E+03  0.11788561186E+03  0.25500000000E-02 0.  1.
         -2   -1    0    0    0  501 -0.00000000000E+00 -0.00000000000E+00 -0.53777791470E+03  0.53777791471E+03  0.25500000000E-02 0. -1.
    5000001    1    1    2    0    0  0.39064673071E+02  0.12757754477E+03 -0.31074336561E+03  0.39238312640E+03  0.19900000000E+03 0.  0.
   -5000001    1    1    2    0    0 -0.39064673071E+02 -0.12757754477E+03 -0.10914893726E+03  0.26328040017E+03  0.19900000000E+03 0.  0.
<mgrwt>
<rscale>  0 0.50357235E+03</rscale>
<asrwt>0</asrwt>
<pdfrwt beam="1">  1        2 0.16840802E-01 0.50357235E+03</pdfrwt>
<pdfrwt beam="2">  1       -2 0.76825415E-01 0.50357235E+03</pdfrwt>
<totfact> 0.53202096E+02</totfact>
</mgrwt>
</event>
<event>
 4    1  0.4998754E-005  0.5412511E+03  0.7818608E-02  0.1003539E+00
         -2   -1    0    0    0  501 -0.00000000000E+00  0.00000000000E+00  0.10995898017E+03  0.10995898020E+03  0.25500000000E-02 0. -1.
          2   -1    0    0  501    0  0.00000000000E+00 -0.00000000000E+00 -0.66605001220E+03  0.66605001220E+03  0.25500000000E-02 0.  1.
    5000001    1    1    2    0    0 -0.12120090120E+03  0.11129175128E+03 -0.39418371958E+03  0.47122958007E+03  0.19900000000E+03 0.  0.
   -5000001    1    1    2    0    0  0.12120090120E+03 -0.11129175128E+03 -0.16190731245E+03  0.30477941233E+03  0.19900000000E+03 0.  0.
<mgrwt>
<rscale>  0 0.54125107E+03</rscale>
<asrwt>0</asrwt>
<pdfrwt beam="1">  1        2 0.95150000E-01 0.54125107E+03</pdfrwt>
<pdfrwt beam="2">  1       -2 0.15708426E-01 0.54125107E+03</pdfrwt>
<totfact> 0.15489715E+03</totfact>
</mgrwt>
</event>
<event>
 4    1  0.4998754E-005  0.4442864E+03  0.7818608E-02  0.1029440E+00
         -2   -1    0    0    0  501 -0.00000000000E+00  0.00000000000E+00  0.30906352082E+02  0.30906352187E+02  0.25500000000E-02 0. -1.
          2   -1    0    0  501    0  0.00000000000E+00 -0.00000000000E+00 -0.15966814973E+04  0.15966814973E+04  0.25500000000E-02 0.  1.
    5000001    1    1    2    0    0 -0.82462305401E+01  0.85563210177E+02 -0.96076085277E+03  0.98491191457E+03  0.19900000000E+03 0.  0.
   -5000001    1    1    2    0    0  0.82462305401E+01 -0.85563210177E+02 -0.60501429245E+03  0.64267593492E+03  0.19900000000E+03 0.  0.
<mgrwt>
<rscale>  0 0.44428640E+03</rscale>
<asrwt>0</asrwt>
<pdfrwt beam="1">  1        2 0.22809730E+00 0.44428640E+03</pdfrwt>
<pdfrwt beam="2">  1       -2 0.44151942E-02 0.44428640E+03</pdfrwt>
<totfact> 0.33005248E+03</totfact>
</mgrwt>
</event>
<event>
 4    1  0.4998754E-005  0.7208831E+03  0.7818608E-02  0.9682171E-01
         -2   -1    0    0    0  501 -0.00000000000E+00  0.00000000000E+00  0.20375883244E+03  0.20375883246E+03  0.25500000000E-02 0. -1.
          2   -1    0    0  501    0  0.00000000000E+00 -0.00000000000E+00 -0.63760727812E+03  0.63760727812E+03  0.25500000000E-02 0.  1.
    5000001    1    1    2    0    0 -0.23225488036E+03 -0.19022335144E+03 -0.23300617682E+03  0.42897567684E+03  0.19900000000E+03 0.  0.
   -5000001    1    1    2    0    0  0.23225488036E+03  0.19022335144E+03 -0.20084226886E+03  0.41239043374E+03  0.19900000000E+03 0.  0.
<mgrwt>
<rscale>  0 0.72088311E+03</rscale>
<asrwt>0</asrwt>
<pdfrwt beam="1">  1        2 0.91086753E-01 0.72088311E+03</pdfrwt>
<pdfrwt beam="2">  1       -2 0.29108405E-01 0.72088311E+03</pdfrwt>
<totfact> 0.54927709E+02</totfact>
</mgrwt>
</event>
<event>
 4    1  0.4998754E-005  0.6150171E+03  0.7818608E-02  0.9874731E-01
          2   -1    0    0  501    0  0.00000000000E+00  0.00000000000E+00  0.17271911936E+04  0.17271911936E+04  0.25500000000E-02 0.  1.
         -2   -1    0    0    0  501 -0.00000000000E+00 -0.00000000000E+00 -0.54748727882E+02  0.54748727942E+02  0.25500000000E-02 0. -1.
    5000001    1    1    2    0    0  0.18149175035E+03 -0.14179440506E+03  0.70940945008E+03  0.77195056617E+03  0.19900000000E+03 0.  0.
   -5000001    1    1    2    0    0 -0.18149175035E+03  0.14179440506E+03  0.96303301565E+03  0.10099893554E+04  0.19900000000E+03 0.  0.
<mgrwt>
<rscale>  0 0.61501714E+03</rscale>
<asrwt>0</asrwt>
<pdfrwt beam="1">  1        2 0.24674160E+00 0.61501714E+03</pdfrwt>
<pdfrwt beam="2">  1       -2 0.78212468E-02 0.61501714E+03</pdfrwt>
<totfact> 0.11549180E+03</totfact>
</mgrwt>
</event>
<event>
 4    1  0.4998754E-005  0.4927240E+03  0.7818608E-02  0.1015696E+00
         -2   -1    0    0    0  501 -0.00000000000E+00  0.00000000000E+00  0.21253553717E+03  0.21253553718E+03  0.25500000000E-02 0. -1.
          2   -1    0    0  501    0  0.00000000000E+00 -0.00000000000E+00 -0.28557222791E+03  0.28557222792E+03  0.25500000000E-02 0.  1.
    5000001    1    1    2    0    0 -0.25264014374E+02  0.12529392415E+03 -0.10623862974E+03  0.25927684875E+03  0.19900000000E+03 0.  0.
   -5000001    1    1    2    0    0  0.25264014374E+02 -0.12529392415E+03  0.33201938998E+02  0.23883091635E+03  0.19900000000E+03 0.  0.
<mgrwt>
<rscale>  0 0.49272405E+03</rscale>
<asrwt>0</asrwt>
<pdfrwt beam="1">  1        2 0.40796033E-01 0.49272405E+03</pdfrwt>
<pdfrwt beam="2">  1       -2 0.30362219E-01 0.49272405E+03</pdfrwt>
<totfact> 0.12610083E+03</totfact>
</mgrwt>
</event>
<event>
 4    1  0.4998754E-005  0.7590917E+03  0.7818608E-02  0.9621194E-01
         -2   -1    0    0    0  501 -0.00000000000E+00  0.00000000000E+00  0.10791996256E+03  0.10791996259E+03  0.25500000000E-02 0. -1.
          2   -1    0    0  501    0  0.00000000000E+00 -0.00000000000E+00 -0.13348323156E+04  0.13348323156E+04  0.25500000000E-02 0.  1.
    5000001    1    1    2    0    0 -0.10701802135E+03  0.26809266398E+03 -0.33719377260E+03  0.48644339203E+03  0.19900000000E+03 0.  0.
   -5000001    1    1    2    0    0  0.10701802135E+03 -0.26809266398E+03 -0.88971858043E+03  0.95630888615E+03  0.19900000000E+03 0.  0.
<mgrwt>
<rscale>  0 0.75909170E+03</rscale>
<asrwt>0</asrwt>
<pdfrwt beam="1">  1        2 0.19069032E+00 0.75909170E+03</pdfrwt>
<pdfrwt beam="2">  1       -2 0.15417138E-01 0.75909170E+03</pdfrwt>
<totfact> 0.60458459E+02</totfact>
</mgrwt>
</event>
<event>
 4    1  0.4998754E-005  0.4656722E+03  0.7818608E-02  0.1023149E+00
         -2   -1    0    0    0  501 -0.00000000000E+00  0.00000000000E+00  0.77040184174E+02  0.77040184216E+02  0.25500000000E-02 0. -1.
          2   -1    0    0  501    0  0.00000000000E+00 -0.00000000000E+00 -0.70369321374E+03  0.70369321374E+03  0.25500000000E-02 0.  1.
    5000001    1    1    2    0    0 -0.56743850372E+02 -0.82353303780E+02 -0.19949569388E+03  0.29900077437E+03  0.19900000000E+03 0.  0.
   -5000001    1    1    2    0    0  0.56743850372E+02  0.82353303780E+02 -0.42715733569E+03  0.48173262359E+03  0.19900000000E+03 0.  0.
<mgrwt>
<rscale>  0 0.46567222E+03</rscale>
<asrwt>0</asrwt>
<pdfrwt beam="1">  1        2 0.10052760E+00 0.46567222E+03</pdfrwt>
<pdfrwt beam="2">  1       -2 0.11005741E-01 0.46567222E+03</pdfrwt>
<totfact> 0.26103934E+03</totfact>
</mgrwt>
</event>
<event>
 4    1  0.4998754E-005  0.4316492E+03  0.7818608E-02  0.1033340E+00
         -2   -1    0    0    0  501 -0.00000000000E+00  0.00000000000E+00  0.24191156641E+02  0.24191156776E+02  0.25500000000E-02 0. -1.
          2   -1    0    0  501    0  0.00000000000E+00 -0.00000000000E+00 -0.19255080830E+04  0.19255080830E+04  0.25500000000E-02 0.  1.
    5000001    1    1    2    0    0  0.32053213143E+01 -0.83134983746E+02 -0.91638737723E+03  0.94142898020E+03  0.19900000000E+03 0.  0.
   -5000001    1    1    2    0    0 -0.32053213143E+01  0.83134983746E+02 -0.98492954909E+03  0.10082702595E+04  0.19900000000E+03 0.  0.
<mgrwt>
<rscale>  0 0.43164925E+03</rscale>
<asrwt>0</asrwt>
<pdfrwt beam="1">  1        2 0.27507249E+00 0.43164925E+03</pdfrwt>
<pdfrwt beam="2">  1       -2 0.34558808E-02 0.43164925E+03</pdfrwt>
<totfact> 0.32806527E+03</totfact>
</mgrwt>
</event>
<event>
 4    1  0.4998754E-005  0.9606764E+03  0.7818608E-02  0.9352758E-01
          2   -1    0    0  501    0  0.00000000000E+00  0.00000000000E+00  0.62012883777E+03  0.62012883778E+03  0.25500000000E-02 0.  1.
         -2   -1    0    0    0  501 -0.00000000000E+00 -0.00000000000E+00 -0.37205941851E+03  0.37205941852E+03  0.25500000000E-02 0. -1.
    5000001    1    1    2    0    0  0.15716441359E+02 -0.31349740471E+03 -0.19024288870E+03  0.41751764752E+03  0.19900000000E+03 0.  0.
   -5000001    1    1    2    0    0 -0.15716441359E+02  0.31349740471E+03  0.43831230796E+03  0.57467060878E+03  0.19900000000E+03 0.  0.
<mgrwt>
<rscale>  0 0.96067638E+03</rscale>
<asrwt>0</asrwt>
<pdfrwt beam="1">  1        2 0.88589833E-01 0.96067638E+03</pdfrwt>
<pdfrwt beam="2">  1       -2 0.53151346E-01 0.96067638E+03</pdfrwt>
<totfact> 0.17416551E+02</totfact>
</mgrwt>
</event>
<event>
 4    1  0.4998754E-005  0.4703797E+03  0.7818608E-02  0.1021813E+00
         -2   -1    0    0    0  501 -0.00000000000E+00  0.00000000000E+00  0.45438121347E+02  0.45438121418E+02  0.25500000000E-02 0. -1.
          2   -1    0    0  501    0  0.00000000000E+00 -0.00000000000E+00 -0.12173535304E+04  0.12173535304E+04  0.25500000000E-02 0.  1.
    5000001    1    1    2    0    0  0.37373828055E+02 -0.77918274309E+02 -0.34218578283E+03  0.40516684275E+03  0.19900000000E+03 0.  0.
   -5000001    1    1    2    0    0 -0.37373828055E+02  0.77918274309E+02 -0.82972962619E+03  0.85762480903E+03  0.19900000000E+03 0.  0.
<mgrwt>
<rscale>  0 0.47037967E+03</rscale>
<asrwt>0</asrwt>
<pdfrwt beam="1">  1        2 0.17390763E+00 0.47037967E+03</pdfrwt>
<pdfrwt beam="2">  1       -2 0.64911609E-02 0.47037967E+03</pdfrwt>
<totfact> 0.28797299E+03</totfact>
</mgrwt>
</event>
<event>
 4    1  0.4998754E-005  0.4413869E+03  0.7818608E-02  0.1030322E+00
          2   -1    0    0  501    0  0.00000000000E+00  0.00000000000E+00  0.15080777019E+04  0.15080777019E+04  0.25500000000E-02 0.  1.
         -2   -1    0    0    0  501 -0.00000000000E+00 -0.00000000000E+00 -0.32296474434E+02  0.32296474535E+02  0.25500000000E-02 0. -1.
    5000001    1    1    2    0    0 -0.49538218980E+02 -0.81535848027E+02  0.73241324912E+03  0.76493940749E+03  0.19900000000E+03 0.  0.
   -5000001    1    1    2    0    0  0.49538218980E+02  0.81535848027E+02  0.74336797835E+03  0.77543476895E+03  0.19900000000E+03 0.  0.
<mgrwt>
<rscale>  0 0.44138687E+03</rscale>
<asrwt>0</asrwt>
<pdfrwt beam="1">  1        2 0.21543971E+00 0.44138687E+03</pdfrwt>
<pdfrwt beam="2">  1       -2 0.46137813E-02 0.44138687E+03</pdfrwt>
<totfact> 0.34245611E+03</totfact>
</mgrwt>
</event>
<event>
 4    1  0.4998754E-005  0.6477320E+03  0.7818608E-02  0.9811044E-01
          2   -1    0    0  501    0  0.00000000000E+00  0.00000000000E+00  0.12481847112E+04  0.12481847112E+04  0.25500000000E-02 0.  1.
         -2   -1    0    0    0  501 -0.00000000000E+00 -0.00000000000E+00 -0.84033392494E+02  0.84033392532E+02  0.25500000000E-02 0. -1.
    5000001    1    1    2    0    0  0.14851645561E+03 -0.90440644926E+02  0.96714022735E+03  0.10025955651E+04  0.19900000000E+03 0.  0.
   -5000001    1    1    2    0    0 -0.14851645561E+03  0.90440644926E+02  0.19701109135E+03  0.32962253860E+03  0.19900000000E+03 0.  0.
<mgrwt>
<rscale>  0 0.64773203E+03</rscale>
<asrwt>0</asrwt>
<pdfrwt beam="1">  1        2 0.17831208E+00 0.64773203E+03</pdfrwt>
<pdfrwt beam="2">  1       -2 0.12004772E-01 0.64773203E+03</pdfrwt>
<totfact> 0.10292600E+03</totfact>
</mgrwt>
</event>
<event>
 4    1  0.4998754E-005  0.1309669E+04  0.7818608E-02  0.9021933E-01
         -2   -1    0    0    0  501 -0.00000000000E+00  0.00000000000E+00  0.38749702359E+03  0.38749702360E+03  0.25500000000E-02 0. -1.
          2   -1    0    0  501    0  0.00000000000E+00 -0.00000000000E+00 -0.11066095238E+04  0.11066095238E+04  0.25500000000E-02 0.  1.
    5000001    1    1    2    0    0  0.54892382817E+03 -0.79466231411E+02 -0.33721211683E+02  0.59022908365E+03  0.19900000000E+03 0.  0.
   -5000001    1    1    2    0    0 -0.54892382817E+03  0.79466231411E+02 -0.68539128852E+03  0.90387746374E+03  0.19900000000E+03 0.  0.
<mgrwt>
<rscale>  0 0.13096685E+04</rscale>
<asrwt>0</asrwt>
<pdfrwt beam="1">  1        2 0.15808707E+00 0.13096685E+04</pdfrwt>
<pdfrwt beam="2">  1       -2 0.55356718E-01 0.13096685E+04</pdfrwt>
<totfact> 0.72802114E+01</totfact>
</mgrwt>
</event>
<event>
 4    1  0.4998754E-005  0.6373280E+03  0.7818608E-02  0.9830852E-01
          2   -1    0    0  501    0  0.00000000000E+00  0.00000000000E+00  0.82617389695E+03  0.82617389695E+03  0.25500000000E-02 0.  1.
         -2   -1    0    0    0  501 -0.00000000000E+00 -0.00000000000E+00 -0.12291205793E+03  0.12291205796E+03  0.25500000000E-02 0. -1.
    5000001    1    1    2    0    0  0.24303124462E+03 -0.53591369783E+02  0.34703783854E+03  0.47113955698E+03  0.19900000000E+03 0.  0.
   -5000001    1    1    2    0    0 -0.24303124462E+03  0.53591369783E+02  0.35622400047E+03  0.47794639793E+03  0.19900000000E+03 0.  0.
<mgrwt>
<rscale>  0 0.63732797E+03</rscale>
<asrwt>0</asrwt>
<pdfrwt beam="1">  1        2 0.11802484E+00 0.63732797E+03</pdfrwt>
<pdfrwt beam="2">  1       -2 0.17558865E-01 0.63732797E+03</pdfrwt>
<totfact> 0.97862328E+02</totfact>
</mgrwt>
</event>
<event>
 4    1  0.4998754E-005  0.5605526E+03  0.7818608E-02  0.9990805E-01
          2   -1    0    0  501    0  0.00000000000E+00  0.00000000000E+00  0.12397234166E+04  0.12397234166E+04  0.25500000000E-02 0.  1.
         -2   -1    0    0    0  501 -0.00000000000E+00 -0.00000000000E+00 -0.63364789274E+02  0.63364789325E+02  0.25500000000E-02 0. -1.
    5000001    1    1    2    0    0  0.17682818531E+03  0.52035161709E+02  0.42416468214E+03  0.50348042936E+03  0.19900000000E+03 0.  0.
   -5000001    1    1    2    0    0 -0.17682818531E+03 -0.52035161709E+02  0.75219394517E+03  0.79960777655E+03  0.19900000000E+03 0.  0.
<mgrwt>
<rscale>  0 0.56055263E+03</rscale>
<asrwt>0</asrwt>
<pdfrwt beam="1">  1        2 0.17710335E+00 0.56055263E+03</pdfrwt>
<pdfrwt beam="2">  1       -2 0.90521126E-02 0.56055263E+03</pdfrwt>
<totfact> 0.16508830E+03</totfact>
</mgrwt>
</event>
<event>
 4    1  0.4998754E-005  0.5616994E+03  0.7818608E-02  0.9988217E-01
          2   -1    0    0  501    0  0.00000000000E+00  0.00000000000E+00  0.30163295771E+04  0.30163295771E+04  0.25500000000E-02 0.  1.
         -2   -1    0    0    0  501 -0.00000000000E+00 -0.00000000000E+00 -0.26149846420E+02  0.26149846544E+02  0.25500000000E-02 0. -1.
    5000001    1    1    2    0    0  0.12292764674E+03 -0.81208797277E+02  0.22130546508E+04  0.22268628073E+04  0.19900000000E+03 0.  0.
   -5000001    1    1    2    0    0 -0.12292764674E+03  0.81208797277E+02  0.77712507990E+03  0.81561661637E+03  0.19900000000E+03 0.  0.
<mgrwt>
<rscale>  0 0.56169940E+03</rscale>
<asrwt>0</asrwt>
<pdfrwt beam="1">  1        2 0.43090389E+00 0.56169940E+03</pdfrwt>
<pdfrwt beam="2">  1       -2 0.37356952E-02 0.56169940E+03</pdfrwt>
<totfact> 0.79770113E+02</totfact>
</mgrwt>
</event>
<event>
 4    1  0.4998754E-005  0.5003333E+03  0.7818608E-02  0.1013692E+00
          2   -1    0    0  501    0  0.00000000000E+00  0.00000000000E+00  0.58611486260E+03  0.58611486261E+03  0.25500000000E-02 0.  1.
         -2   -1    0    0    0  501 -0.00000000000E+00 -0.00000000000E+00 -0.10677661697E+03  0.10677661700E+03  0.25500000000E-02 0. -1.
    5000001    1    1    2    0    0  0.51453082976E+02  0.13643651045E+03  0.18223464694E+03  0.30671290758E+03  0.19900000000E+03 0.  0.
   -5000001    1    1    2    0    0 -0.51453082976E+02 -0.13643651045E+03  0.29710359869E+03  0.38617857202E+03  0.19900000000E+03 0.  0.
<mgrwt>
<rscale>  0 0.50033334E+03</rscale>
<asrwt>0</asrwt>
<pdfrwt beam="1">  1        2 0.83730695E-01 0.50033334E+03</pdfrwt>
<pdfrwt beam="2">  1       -2 0.15253802E-01 0.50033334E+03</pdfrwt>
<totfact> 0.18929356E+03</totfact>
</mgrwt>
</event>
<event>
 4    1  0.4998754E-005  0.8869758E+03  0.7818608E-02  0.9442010E-01
          2   -1    0    0  501    0  0.00000000000E+00  0.00000000000E+00  0.19860721029E+04  0.19860721029E+04  0.25500000000E-02 0.  1.
         -2   -1    0    0    0  501 -0.00000000000E+00 -0.00000000000E+00 -0.99030392733E+02  0.99030392766E+02  0.25500000000E-02 0. -1.
    5000001    1    1    2    0    0  0.22423399226E+03  0.32613867132E+03  0.99244823361E+03  0.10868310874E+04  0.19900000000E+03 0.  0.
   -5000001    1    1    2    0    0 -0.22423399226E+03 -0.32613867132E+03  0.89459347660E+03  0.99827140828E+03  0.19900000000E+03 0.  0.
<mgrwt>
<rscale>  0 0.88697576E+03</rscale>
<asrwt>0</asrwt>
<pdfrwt beam="1">  1        2 0.28372458E+00 0.88697576E+03</pdfrwt>
<pdfrwt beam="2">  1       -2 0.14147199E-01 0.88697576E+03</pdfrwt>
<totfact> 0.31862760E+02</totfact>
</mgrwt>
</event>
<event>
 4    1  0.4998754E-005  0.6485646E+03  0.7818608E-02  0.9809476E-01
          2   -1    0    0  501    0  0.00000000000E+00  0.00000000000E+00  0.18727462793E+04  0.18727462793E+04  0.25500000000E-02 0.  1.
         -2   -1    0    0    0  501 -0.00000000000E+00 -0.00000000000E+00 -0.56152291917E+02  0.56152291975E+02  0.25500000000E-02 0. -1.
    5000001    1    1    2    0    0 -0.24300952052E+03  0.68527670606E+02  0.78182490872E+03  0.84534067488E+03  0.19900000000E+03 0.  0.
   -5000001    1    1    2    0    0  0.24300952052E+03 -0.68527670606E+02  0.10347690787E+04  0.10835578964E+04  0.19900000000E+03 0.  0.
<mgrwt>
<rscale>  0 0.64856456E+03</rscale>
<asrwt>0</asrwt>
<pdfrwt beam="1">  1        2 0.26753519E+00 0.64856456E+03</pdfrwt>
<pdfrwt beam="2">  1       -2 0.80217559E-02 0.64856456E+03</pdfrwt>
<totfact> 0.93462140E+02</totfact>
</mgrwt>
</event>
<event>
 4    1  0.4998754E-005  0.6267831E+03  0.7818608E-02  0.9851346E-01
         -2   -1    0    0    0  501 -0.00000000000E+00  0.00000000000E+00  0.34423740121E+03  0.34423740122E+03  0.25500000000E-02 0. -1.
          2   -1    0    0  501    0  0.00000000000E+00 -0.00000000000E+00 -0.28530969502E+03  0.28530969503E+03  0.25500000000E-02 0.  1.
    5000001    1    1    2    0    0  0.86887704165E+02 -0.17682051425E+03  0.17079077301E+03  0.32800221881E+03  0.19900000000E+03 0.  0.
   -5000001    1    1    2    0    0 -0.86887704165E+02  0.17682051425E+03 -0.11186306682E+03  0.30154487745E+03  0.19900000000E+03 0.  0.
<mgrwt>
<rscale>  0 0.62678311E+03</rscale>
<asrwt>0</asrwt>
<pdfrwt beam="1">  1        2 0.40758528E-01 0.62678311E+03</pdfrwt>
<pdfrwt beam="2">  1       -2 0.49176772E-01 0.62678311E+03</pdfrwt>
<totfact> 0.49762208E+02</totfact>
</mgrwt>
</event>
<event>
 4    1  0.4998754E-005  0.7960752E+03  0.7818608E-02  0.9565715E-01
          2   -1    0    0  501    0  0.00000000000E+00  0.00000000000E+00  0.26193349083E+04  0.26193349083E+04  0.25500000000E-02 0.  1.
         -2   -1    0    0    0  501 -0.00000000000E+00 -0.00000000000E+00 -0.60486327184E+02  0.60486327238E+02  0.25500000000E-02 0. -1.
    5000001    1    1    2    0    0  0.19479759360E+03  0.14702701522E+03  0.20989617572E+04  0.21224524739E+04  0.19900000000E+03 0.  0.
   -5000001    1    1    2    0    0 -0.19479759360E+03 -0.14702701522E+03  0.45988682398E+03  0.55736876172E+03  0.19900000000E+03 0.  0.
<mgrwt>
<rscale>  0 0.79607524E+03</rscale>
<asrwt>0</asrwt>
<pdfrwt beam="1">  1        2 0.37419073E+00 0.79607524E+03</pdfrwt>
<pdfrwt beam="2">  1       -2 0.86409032E-02 0.79607524E+03</pdfrwt>
<totfact> 0.34177851E+02</totfact>
</mgrwt>
</event>
<event>
 4    1  0.4998754E-005  0.4159841E+03  0.7818608E-02  0.1038381E+00
          2   -1    0    0  501    0  0.00000000000E+00  0.00000000000E+00  0.15845617149E+04  0.15845617149E+04  0.25500000000E-02 0.  1.
         -2   -1    0    0    0  501 -0.00000000000E+00 -0.00000000000E+00 -0.27301363224E+02  0.27301363343E+02  0.25500000000E-02 0. -1.
    5000001    1    1    2    0    0 -0.42741385872E+02 -0.40088654797E+02  0.72040868950E+03  0.74968233687E+03  0.19900000000E+03 0.  0.
   -5000001    1    1    2    0    0  0.42741385872E+02  0.40088654797E+02  0.83685166218E+03  0.86218074137E+03  0.19900000000E+03 0.  0.
<mgrwt>
<rscale>  0 0.41598411E+03</rscale>
<asrwt>0</asrwt>
<pdfrwt beam="1">  1        2 0.22636599E+00 0.41598411E+03</pdfrwt>
<pdfrwt beam="2">  1       -2 0.39001942E-02 0.41598411E+03</pdfrwt>
<totfact> 0.40458109E+03</totfact>
</mgrwt>
</event>
<event>
 4    1  0.4998754E-005  0.5187654E+03  0.7818608E-02  0.1008994E+00
         -2   -1    0    0    0  501 -0.00000000000E+00  0.00000000000E+00  0.78772719572E+02  0.78772719613E+02  0.25500000000E-02 0. -1.
          2   -1    0    0  501    0  0.00000000000E+00 -0.00000000000E+00 -0.85409512457E+03  0.85409512458E+03  0.25500000000E-02 0.  1.
    5000001    1    1    2    0    0 -0.78032844137E+02  0.13144181108E+03 -0.50574889648E+03  0.56457862230E+03  0.19900000000E+03 0.  0.
   -5000001    1    1    2    0    0  0.78032844137E+02 -0.13144181108E+03 -0.26957350852E+03  0.36828922189E+03  0.19900000000E+03 0.  0.
<mgrwt>
<rscale>  0 0.51876544E+03</rscale>
<asrwt>0</asrwt>
<pdfrwt beam="1">  1        2 0.12201358E+00 0.51876544E+03</pdfrwt>
<pdfrwt beam="2">  1       -2 0.11253246E-01 0.51876544E+03</pdfrwt>
<totfact> 0.19746182E+03</totfact>
</mgrwt>
</event>
<event>
 4    1  0.4998754E-005  0.5080319E+03  0.7818608E-02  0.1011703E+00
         -2   -1    0    0    0  501 -0.00000000000E+00  0.00000000000E+00  0.29902725829E+03  0.29902725831E+03  0.25500000000E-02 0. -1.
          2   -1    0    0  501    0  0.00000000000E+00 -0.00000000000E+00 -0.21578004184E+03  0.21578004186E+03  0.25500000000E-02 0.  1.
    5000001    1    1    2    0    0  0.14926277085E+03 -0.51316001689E+02  0.38354514529E+02  0.25687501937E+03  0.19900000000E+03 0.  0.
   -5000001    1    1    2    0    0 -0.14926277085E+03  0.51316001689E+02  0.44892701924E+02  0.25793228079E+03  0.19900000000E+03 0.  0.
<mgrwt>
<rscale>  0 0.50803195E+03</rscale>
<asrwt>0</asrwt>
<pdfrwt beam="1">  1        2 0.30825720E-01 0.50803195E+03</pdfrwt>
<pdfrwt beam="2">  1       -2 0.42718180E-01 0.50803195E+03</pdfrwt>
<totfact> 0.89915119E+02</totfact>
</mgrwt>
</event>
<event>
 4    1  0.4998754E-005  0.4906359E+03  0.7818608E-02  0.1016252E+00
         -2   -1    0    0    0  501 -0.00000000000E+00  0.00000000000E+00  0.54636662081E+02  0.54636662140E+02  0.25500000000E-02 0.  1.
          2   -1    0    0  501    0  0.00000000000E+00 -0.00000000000E+00 -0.11014745832E+04  0.11014745832E+04  0.25500000000E-02 0. -1.
    5000001    1    1    2    0    0  0.11474475977E+03 -0.86034386728E+02 -0.51538693097E+03  0.57078276446E+03  0.19900000000E+03 0.  0.
   -5000001    1    1    2    0    0 -0.11474475977E+03  0.86034386728E+02 -0.53145099013E+03  0.58532848086E+03  0.19900000000E+03 0.  0.
<mgrwt>
<rscale>  0 0.49063589E+03</rscale>
<asrwt>0</asrwt>
<pdfrwt beam="1">  1        2 0.15735350E+00 0.49063589E+03</pdfrwt>
<pdfrwt beam="2">  1       -2 0.78052381E-02 0.49063589E+03</pdfrwt>
<totfact> 0.25042777E+03</totfact>
</mgrwt>
</event>
<event>
 4    1  0.4998754E-005  0.1184816E+04  0.7818608E-02  0.9126252E-01
         -2   -1    0    0    0  501 -0.00000000000E+00  0.00000000000E+00  0.99916872114E+02  0.99916872146E+02  0.25500000000E-02 0. -1.
          2   -1    0    0  501    0  0.00000000000E+00 -0.00000000000E+00 -0.35123894761E+04  0.35123894761E+04  0.25500000000E-02 0.  1.
    5000001    1    1    2    0    0 -0.32301205077E+03 -0.37404952216E+02 -0.32376538325E+03  0.50016091289E+03  0.19900000000E+03 0.  0.
   -5000001    1    1    2    0    0  0.32301205077E+03  0.37404952216E+02 -0.30887072207E+04  0.31121454353E+04  0.19900000000E+03 0.  0.
<mgrwt>
<rscale>  0 0.11848155E+04</rscale>
<asrwt>0</asrwt>
<pdfrwt beam="1">  1        2 0.50176985E+00 0.11848155E+04</pdfrwt>
<pdfrwt beam="2">  1       -2 0.14273841E-01 0.11848155E+04</pdfrwt>
<totfact> 0.45560573E+01</totfact>
</mgrwt>
</event>
<event>
 4    1  0.4998754E-005  0.5788978E+03  0.7818608E-02  0.9950180E-01
          2   -1    0    0  501    0  0.00000000000E+00  0.00000000000E+00  0.34036302478E+03  0.34036302479E+03  0.25500000000E-02 0.  1.
         -2   -1    0    0    0  501 -0.00000000000E+00 -0.00000000000E+00 -0.24615092518E+03  0.24615092519E+03  0.25500000000E-02 0. -1.
    5000001    1    1    2    0    0  0.20884473263E+02 -0.10445268469E+03 -0.13647704844E+03  0.26376790804E+03  0.19900000000E+03 0.  0.
   -5000001    1    1    2    0    0 -0.20884473263E+02  0.10445268469E+03  0.23068914804E+03  0.32274604193E+03  0.19900000000E+03 0.  0.
<mgrwt>
<rscale>  0 0.57889783E+03</rscale>
<asrwt>0</asrwt>
<pdfrwt beam="1">  1        2 0.48623289E-01 0.57889783E+03</pdfrwt>
<pdfrwt beam="2">  1       -2 0.35164418E-01 0.57889783E+03</pdfrwt>
<totfact> 0.78987949E+02</totfact>
</mgrwt>
</event>
<event>
 4    1  0.4998754E-005  0.5358707E+03  0.7818608E-02  0.1004818E+00
         -2   -1    0    0    0  501 -0.00000000000E+00  0.00000000000E+00  0.47318452842E+02  0.47318452911E+02  0.25500000000E-02 0. -1.
          2   -1    0    0  501    0  0.00000000000E+00 -0.00000000000E+00 -0.15171536020E+04  0.15171536020E+04  0.25500000000E-02 0.  1.
    5000001    1    1    2    0    0  0.75129189283E+00  0.16730124730E+03 -0.54575569819E+03  0.60451679373E+03  0.19900000000E+03 0.  0.
   -5000001    1    1    2    0    0 -0.75129189283E+00 -0.16730124730E+03 -0.92407945098E+03  0.95995526120E+03  0.19900000000E+03 0.  0.
<mgrwt>
<rscale>  0 0.53587074E+03</rscale>
<asrwt>0</asrwt>
<pdfrwt beam="1">  1        2 0.21673620E+00 0.53587074E+03</pdfrwt>
<pdfrwt beam="2">  1       -2 0.67597799E-02 0.53587074E+03</pdfrwt>
<totfact> 0.18691356E+03</totfact>
</mgrwt>
</event>
<event>
 4    1  0.4998754E-005  0.4545299E+03  0.7818608E-02  0.1026380E+00
          2   -1    0    0  501    0  0.00000000000E+00  0.00000000000E+00  0.23657146929E+04  0.23657146929E+04  0.25500000000E-02 0.  1.
         -2   -1    0    0    0  501 -0.00000000000E+00 -0.00000000000E+00 -0.21832452216E+02  0.21832452365E+02  0.25500000000E-02 0. -1.
    5000001    1    1    2    0    0  0.73997671133E+02  0.63059679536E+02  0.90429776261E+03  0.93102503832E+03  0.19900000000E+03 0.  0.
   -5000001    1    1    2    0    0 -0.73997671133E+02 -0.63059679536E+02  0.14395844781E+04  0.14565221070E+04  0.19900000000E+03 0.  0.
<mgrwt>
<rscale>  0 0.45452988E+03</rscale>
<asrwt>0</asrwt>
<pdfrwt beam="1">  1        2 0.33795938E+00 0.45452988E+03</pdfrwt>
<pdfrwt beam="2">  1       -2 0.31189204E-02 0.45452988E+03</pdfrwt>
<totfact> 0.23102416E+03</totfact>
</mgrwt>
</event>
<event>
 4    1  0.4998754E-005  0.8134624E+03  0.7818608E-02  0.9540733E-01
         -2   -1    0    0    0  501 -0.00000000000E+00  0.00000000000E+00  0.83740672760E+02  0.83740672799E+02  0.25500000000E-02 0. -1.
          2   -1    0    0  501    0  0.00000000000E+00 -0.00000000000E+00 -0.19755066656E+04  0.19755066656E+04  0.25500000000E-02 0.  1.
    5000001    1    1    2    0    0 -0.18867594364E+03 -0.28677515864E+03 -0.71959464086E+03  0.82173964884E+03  0.19900000000E+03 0.  0.
   -5000001    1    1    2    0    0  0.18867594364E+03  0.28677515864E+03 -0.11721713520E+04  0.12375076896E+04  0.19900000000E+03 0.  0.
<mgrwt>
<rscale>  0 0.81346237E+03</rscale>
<asrwt>0</asrwt>
<pdfrwt beam="1">  1        2 0.28221521E+00 0.81346237E+03</pdfrwt>
<pdfrwt beam="2">  1       -2 0.11962954E-01 0.81346237E+03</pdfrwt>
<totfact> 0.42889560E+02</totfact>
</mgrwt>
</event>
<event>
 4    1  0.4998754E-005  0.4893324E+03  0.7818608E-02  0.1016601E+00
         -2   -1    0    0    0  501 -0.00000000000E+00  0.00000000000E+00  0.38380018192E+03  0.38380018193E+03  0.25500000000E-02 0.  1.
          2   -1    0    0  501    0  0.00000000000E+00 -0.00000000000E+00 -0.15597060281E+03  0.15597060283E+03  0.25500000000E-02 0. -1.
    5000001    1    1    2    0    0 -0.19578002466E+02 -0.14005425372E+03  0.13177145893E+03  0.27742243881E+03  0.19900000000E+03 0.  0.
   -5000001    1    1    2    0    0  0.19578002466E+02  0.14005425372E+03  0.96058120187E+02  0.26234834595E+03  0.19900000000E+03 0.  0.
<mgrwt>
<rscale>  0 0.48933238E+03</rscale>
<asrwt>0</asrwt>
<pdfrwt beam="1">  1        2 0.22281515E-01 0.48933238E+03</pdfrwt>
<pdfrwt beam="2">  1       -2 0.54828597E-01 0.48933238E+03</pdfrwt>
<totfact> 0.78705926E+02</totfact>
</mgrwt>
</event>
<event>
 4    1  0.4998754E-005  0.5730938E+03  0.7818608E-02  0.9962856E-01
         -2   -1    0    0    0  501 -0.00000000000E+00  0.00000000000E+00  0.42012097511E+02  0.42012097588E+02  0.25500000000E-02 0. -1.
          2   -1    0    0  501    0  0.00000000000E+00 -0.00000000000E+00 -0.19544165794E+04  0.19544165794E+04  0.25500000000E-02 0.  1.
    5000001    1    1    2    0    0 -0.10273303445E+03 -0.14203754002E+03 -0.13342874193E+04  0.13603869510E+04  0.19900000000E+03 0.  0.
   -5000001    1    1    2    0    0  0.10273303445E+03  0.14203754002E+03 -0.57811706252E+03  0.63604172593E+03  0.19900000000E+03 0.  0.
<mgrwt>
<rscale>  0 0.57309385E+03</rscale>
<asrwt>0</asrwt>
<pdfrwt beam="1">  1        2 0.27920231E+00 0.57309385E+03</pdfrwt>
<pdfrwt beam="2">  1       -2 0.60017294E-02 0.57309385E+03</pdfrwt>
<totfact> 0.13500235E+03</totfact>
</mgrwt>
</event>
<event>
 4    1  0.4998754E-005  0.8283476E+03  0.7818608E-02  0.9519868E-01
          2   -1    0    0  501    0  0.00000000000E+00  0.00000000000E+00  0.79556432500E+03  0.79556432501E+03  0.25500000000E-02 0. -1.
         -2   -1    0    0    0  501 -0.00000000000E+00 -0.00000000000E+00 -0.21562044451E+03  0.21562044452E+03  0.25500000000E-02 0.  1.
    5000001    1    1    2    0    0 -0.25337158992E+03  0.25313444174E+03  0.21607293130E+03  0.46320915342E+03  0.19900000000E+03 0.  0.
   -5000001    1    1    2    0    0  0.25337158992E+03 -0.25313444174E+03  0.36387094920E+03  0.54797561610E+03  0.19900000000E+03 0.  0.
<mgrwt>
<rscale>  0 0.82834759E+03</rscale>
<asrwt>0</asrwt>
<pdfrwt beam="1">  1        2 0.11365205E+00 0.82834759E+03</pdfrwt>
<pdfrwt beam="2">  1       -2 0.30802920E-01 0.82834759E+03</pdfrwt>
<totfact> 0.37439516E+02</totfact>
</mgrwt>
</event>
<event>
 4    1  0.4998754E-005  0.4279851E+03  0.7818608E-02  0.1034498E+00
          2   -1    0    0  501    0  0.00000000000E+00  0.00000000000E+00  0.18461882566E+04  0.18461882566E+04  0.25500000000E-02 0.  1.
         -2   -1    0    0    0  501 -0.00000000000E+00 -0.00000000000E+00 -0.24803980165E+02  0.24803980296E+02  0.25500000000E-02 0. -1.
    5000001    1    1    2    0    0  0.42689419394E+02 -0.49148764068E+02  0.71745676110E+03  0.74738423290E+03  0.19900000000E+03 0.  0.
   -5000001    1    1    2    0    0 -0.42689419394E+02  0.49148764068E+02  0.11039275153E+04  0.11236080040E+04  0.19900000000E+03 0.  0.
<mgrwt>
<rscale>  0 0.42798513E+03</rscale>
<asrwt>0</asrwt>
<pdfrwt beam="1">  1        2 0.26374116E+00 0.42798513E+03</pdfrwt>
<pdfrwt beam="2">  1       -2 0.35434261E-02 0.42798513E+03</pdfrwt>
<totfact> 0.34589821E+03</totfact>
</mgrwt>
</event>
<event>
 4    1  0.4998754E-005  0.4712000E+03  0.7818608E-02  0.1021582E+00
         -2   -1    0    0    0  501 -0.00000000000E+00  0.00000000000E+00  0.35891802432E+03  0.35891802433E+03  0.25500000000E-02 0. -1.
          2   -1    0    0  501    0  0.00000000000E+00 -0.00000000000E+00 -0.15465190668E+03  0.15465190670E+03  0.25500000000E-02 0.  1.
    5000001    1    1    2    0    0 -0.59609491874E+02  0.51682947355E+02  0.20937766853E+03  0.29944018877E+03  0.19900000000E+03 0.  0.
   -5000001    1    1    2    0    0  0.59609491874E+02 -0.51682947355E+02 -0.51115508896E+01  0.21412974226E+03  0.19900000000E+03 0.  0.
<mgrwt>
<rscale>  0 0.47119999E+03</rscale>
<asrwt>0</asrwt>
<pdfrwt beam="1">  1        2 0.22093129E-01 0.47119999E+03</pdfrwt>
<pdfrwt beam="2">  1       -2 0.51274004E-01 0.47119999E+03</pdfrwt>
<totfact> 0.91130525E+02</totfact>
</mgrwt>
</event>
<event>
 4    1  0.4998754E-005  0.8159698E+03  0.7818608E-02  0.9537185E-01
         -2   -1    0    0    0  501 -0.00000000000E+00  0.00000000000E+00  0.75844846349E+02  0.75844846392E+02  0.25500000000E-02 0. -1.
          2   -1    0    0  501    0  0.00000000000E+00 -0.00000000000E+00 -0.21946341626E+04  0.21946341626E+04  0.25500000000E-02 0.  1.
    5000001    1    1    2    0    0  0.89779481087E+02  0.95217549513E+02 -0.13768505066E+03  0.27510890595E+03  0.19900000000E+03 0.  0.
   -5000001    1    1    2    0    0 -0.89779481087E+02 -0.95217549513E+02 -0.19811042656E+04  0.19953701031E+04  0.19900000000E+03 0.  0.
<mgrwt>
<rscale>  0 0.81596983E+03</rscale>
<asrwt>0</asrwt>
<pdfrwt beam="1">  1        2 0.31351913E+00 0.81596983E+03</pdfrwt>
<pdfrwt beam="2">  1       -2 0.10834979E-01 0.81596983E+03</pdfrwt>
<totfact> 0.39078452E+02</totfact>
</mgrwt>
</event>
<event>
 4    1  0.4998754E-005  0.5571717E+03  0.7818608E-02  0.9998475E-01
         -2   -1    0    0    0  501 -0.00000000000E+00  0.00000000000E+00  0.32040177003E+03  0.32040177004E+03  0.25500000000E-02 0. -1.
          2   -1    0    0  501    0  0.00000000000E+00 -0.00000000000E+00 -0.24222739867E+03  0.24222739868E+03  0.25500000000E-02 0.  1.
    5000001    1    1    2    0    0 -0.73101821640E+01 -0.19383337172E+03  0.19292307505E+02  0.27856418988E+03  0.19900000000E+03 0.  0.
   -5000001    1    1    2    0    0  0.73101821640E+01  0.19383337172E+03  0.58882063859E+02  0.28406497884E+03  0.19900000000E+03 0.  0.
<mgrwt>
<rscale>  0 0.55717174E+03</rscale>
<asrwt>0</asrwt>
<pdfrwt beam="1">  1        2 0.34603914E-01 0.55717174E+03</pdfrwt>
<pdfrwt beam="2">  1       -2 0.45771681E-01 0.55717174E+03</pdfrwt>
<totfact> 0.68963243E+02</totfact>
</mgrwt>
</event>
<event>
 4    1  0.4998754E-005  0.5613569E+03  0.7818608E-02  0.9988989E-01
         -2   -1    0    0    0  501 -0.00000000000E+00  0.00000000000E+00  0.39884435916E+02  0.39884435998E+02  0.25500000000E-02 0. -1.
          2   -1    0    0  501    0  0.00000000000E+00 -0.00000000000E+00 -0.19752163854E+04  0.19752163854E+04  0.25500000000E-02 0.  1.
    5000001    1    1    2    0    0 -0.16504958358E+03 -0.93041816178E+02 -0.11732915679E+04  0.12050362019E+04  0.19900000000E+03 0.  0.
   -5000001    1    1    2    0    0  0.16504958358E+03  0.93041816178E+02 -0.76204038165E+03  0.81006461956E+03  0.19900000000E+03 0.  0.
<mgrwt>
<rscale>  0 0.56135690E+03</rscale>
<asrwt>0</asrwt>
<pdfrwt beam="1">  1        2 0.28217371E+00 0.56135690E+03</pdfrwt>
<pdfrwt beam="2">  1       -2 0.56977778E-02 0.56135690E+03</pdfrwt>
<totfact> 0.14302672E+03</totfact>
</mgrwt>
</event>
<event>
 4    1  0.4998754E-005  0.6042259E+03  0.7818608E-02  0.9896677E-01
         -2   -1    0    0    0  501 -0.00000000000E+00  0.00000000000E+00  0.82983517072E+02  0.82983517111E+02  0.25500000000E-02 0. -1.
          2   -1    0    0  501    0  0.00000000000E+00 -0.00000000000E+00 -0.10998837404E+04  0.10998837404E+04  0.25500000000E-02 0.  1.
    5000001    1    1    2    0    0  0.16824220411E+03  0.15276712377E+03 -0.51880680788E+03  0.60033718630E+03  0.19900000000E+03 0.  0.
   -5000001    1    1    2    0    0 -0.16824220411E+03 -0.15276712377E+03 -0.49809341540E+03  0.58253007117E+03  0.19900000000E+03 0.  0.
<mgrwt>
<rscale>  0 0.60422586E+03</rscale>
<asrwt>0</asrwt>
<pdfrwt beam="1">  1        2 0.15712624E+00 0.60422586E+03</pdfrwt>
<pdfrwt beam="2">  1       -2 0.11854789E-01 0.60422586E+03</pdfrwt>
<totfact> 0.12767961E+03</totfact>
</mgrwt>
</event>
<event>
 4    1  0.4998754E-005  0.4778689E+03  0.7818608E-02  0.1019723E+00
          2   -1    0    0  501    0  0.00000000000E+00  0.00000000000E+00  0.11083194991E+04  0.11083194991E+04  0.25500000000E-02 0.  1.
         -2   -1    0    0    0  501 -0.00000000000E+00 -0.00000000000E+00 -0.51510120663E+02  0.51510120726E+02  0.25500000000E-02 0. -1.
    5000001    1    1    2    0    0  0.87087219016E+02 -0.87480308565E+02  0.41323477058E+03  0.47497469798E+03  0.19900000000E+03 0.  0.
   -5000001    1    1    2    0    0 -0.87087219016E+02  0.87480308565E+02  0.64357460781E+03  0.68485492180E+03  0.19900000000E+03 0.  0.
<mgrwt>
<rscale>  0 0.47786890E+03</rscale>
<asrwt>0</asrwt>
<pdfrwt beam="1">  1        2 0.15833135E+00 0.47786890E+03</pdfrwt>
<pdfrwt beam="2">  1       -2 0.73585891E-02 0.47786890E+03</pdfrwt>
<totfact> 0.27238668E+03</totfact>
</mgrwt>
</event>
<event>
 4    1  0.4998754E-005  0.6877592E+03  0.7818608E-02  0.9738398E-01
          2   -1    0    0  501    0  0.00000000000E+00  0.00000000000E+00  0.19292165273E+03  0.19292165275E+03  0.25500000000E-02 0.  1.
         -2   -1    0    0    0  501 -0.00000000000E+00 -0.00000000000E+00 -0.61295967041E+03  0.61295967041E+03  0.25500000000E-02 0. -1.
    5000001    1    1    2    0    0 -0.23761721078E+02  0.27897641655E+03 -0.19113485015E+03  0.39309794113E+03  0.19900000000E+03 0.  0.
   -5000001    1    1    2    0    0  0.23761721078E+02 -0.27897641655E+03 -0.22890316753E+03  0.41278338203E+03  0.19900000000E+03 0.  0.
<mgrwt>
<rscale>  0 0.68775924E+03</rscale>
<asrwt>0</asrwt>
<pdfrwt beam="1">  1        2 0.27560236E-01 0.68775924E+03</pdfrwt>
<pdfrwt beam="2">  1       -2 0.87565667E-01 0.68775924E+03</pdfrwt>
<totfact> 0.22279810E+02</totfact>
</mgrwt>
</event>
<event>
 4    1  0.4998754E-005  0.5362292E+03  0.7818608E-02  0.1004733E+00
          2   -1    0    0  501    0  0.00000000000E+00  0.00000000000E+00  0.20251443197E+03  0.20251443199E+03  0.25500000000E-02 0.  1.
         -2   -1    0    0    0  501 -0.00000000000E+00 -0.00000000000E+00 -0.35496448256E+03  0.35496448257E+03  0.25500000000E-02 0. -1.
    5000001    1    1    2    0    0 -0.14474631150E+03  0.10226595561E+03 -0.45479262076E+02  0.27033161792E+03  0.19900000000E+03 0.  0.
   -5000001    1    1    2    0    0  0.14474631150E+03 -0.10226595561E+03 -0.10697078851E+03  0.28714729663E+03  0.19900000000E+03 0.  0.
<mgrwt>
<rscale>  0 0.53622917E+03</rscale>
<asrwt>0</asrwt>
<pdfrwt beam="1">  1        2 0.28930633E-01 0.53622917E+03</pdfrwt>
<pdfrwt beam="2">  1       -2 0.50709212E-01 0.53622917E+03</pdfrwt>
<totfact> 0.68584775E+02</totfact>
</mgrwt>
</event>
<event>
 4    1  0.4998754E-005  0.5415006E+03  0.7818608E-02  0.1003481E+00
         -2   -1    0    0    0  501 -0.00000000000E+00  0.00000000000E+00  0.10500982174E+03  0.10500982177E+03  0.25500000000E-02 0.  1.
          2   -1    0    0  501    0  0.00000000000E+00 -0.00000000000E+00 -0.69808457150E+03  0.69808457150E+03  0.25500000000E-02 0. -1.
    5000001    1    1    2    0    0 -0.17148802913E+03 -0.35733869683E+02 -0.21503912470E+03  0.34136180034E+03  0.19900000000E+03 0.  0.
   -5000001    1    1    2    0    0  0.17148802913E+03  0.35733869683E+02 -0.37803562505E+03  0.46173259294E+03  0.19900000000E+03 0.  0.
<mgrwt>
<rscale>  0 0.54150064E+03</rscale>
<asrwt>0</asrwt>
<pdfrwt beam="1">  1        2 0.99726365E-01 0.54150064E+03</pdfrwt>
<pdfrwt beam="2">  1       -2 0.15001403E-01 0.54150064E+03</pdfrwt>
<totfact> 0.15813482E+03</totfact>
</mgrwt>
</event>
<event>
 4    1  0.4998754E-005  0.5080505E+03  0.7818608E-02  0.1011699E+00
         -2   -1    0    0    0  501 -0.00000000000E+00  0.00000000000E+00  0.27352503068E+03  0.27352503069E+03  0.25500000000E-02 0. -1.
          2   -1    0    0  501    0  0.00000000000E+00 -0.00000000000E+00 -0.23591565318E+03  0.23591565319E+03  0.25500000000E-02 0.  1.
    5000001    1    1    2    0    0  0.11632592615E+03 -0.73994130945E+02 -0.58353788464E+02  0.24902412963E+03  0.19900000000E+03 0.  0.
   -5000001    1    1    2    0    0 -0.11632592615E+03  0.73994130945E+02  0.95963165962E+02  0.26041655426E+03  0.19900000000E+03 0.  0.
<mgrwt>
<rscale>  0 0.50805053E+03</rscale>
<asrwt>0</asrwt>
<pdfrwt beam="1">  1        2 0.33702236E-01 0.50805053E+03</pdfrwt>
<pdfrwt beam="2">  1       -2 0.39075005E-01 0.50805053E+03</pdfrwt>
<totfact> 0.96808125E+02</totfact>
</mgrwt>
</event>
<event>
 4    1  0.4998754E-005  0.6018893E+03  0.7818608E-02  0.9901494E-01
         -2   -1    0    0    0  501 -0.00000000000E+00  0.00000000000E+00  0.15693137996E+03  0.15693137998E+03  0.25500000000E-02 0. -1.
          2   -1    0    0  501    0  0.00000000000E+00 -0.00000000000E+00 -0.57711644561E+03  0.57711644562E+03  0.25500000000E-02 0.  1.
    5000001    1    1    2    0    0  0.73412564059E+02  0.21337033928E+03 -0.20143666072E+03  0.36206910187E+03  0.19900000000E+03 0.  0.
   -5000001    1    1    2    0    0 -0.73412564059E+02 -0.21337033928E+03 -0.21874840493E+03  0.37197872373E+03  0.19900000000E+03 0.  0.
<mgrwt>
<rscale>  0 0.60188929E+03</rscale>
<asrwt>0</asrwt>
<pdfrwt beam="1">  1        2 0.82445206E-01 0.60188929E+03</pdfrwt>
<pdfrwt beam="2">  1       -2 0.22418769E-01 0.60188929E+03</pdfrwt>
<totfact> 0.99270096E+02</totfact>
</mgrwt>
</event>
<event>
 4    1  0.4998754E-005  0.6055346E+03  0.7818608E-02  0.9893990E-01
          2   -1    0    0  501    0  0.00000000000E+00  0.00000000000E+00  0.13645830485E+04  0.13645830485E+04  0.25500000000E-02 0. -1.
         -2   -1    0    0    0  501 -0.00000000000E+00 -0.00000000000E+00 -0.67176593128E+02  0.67176593177E+02  0.25500000000E-02 0.  1.
    5000001    1    1    2    0    0  0.18021824051E+03  0.11543505572E+03  0.83582675057E+03  0.88544408252E+03  0.19900000000E+03 0.  0.
   -5000001    1    1    2    0    0 -0.18021824051E+03 -0.11543505572E+03  0.46157970483E+03  0.54631555919E+03  0.19900000000E+03 0.  0.
<mgrwt>
<rscale>  0 0.60553461E+03</rscale>
<asrwt>0</asrwt>
<pdfrwt beam="1">  1        2 0.19494044E+00 0.60553461E+03</pdfrwt>
<pdfrwt beam="2">  1       -2 0.95966561E-02 0.60553461E+03</pdfrwt>
<totfact> 0.12837799E+03</totfact>
</mgrwt>
</event>
<event>
 4    1  0.4998754E-005  0.7038148E+03  0.7818608E-02  0.9710731E-01
          2   -1    0    0  501    0  0.00000000000E+00  0.00000000000E+00  0.20595815389E+03  0.20595815390E+03  0.25500000000E-02 0. -1.
         -2   -1    0    0    0  501 -0.00000000000E+00 -0.00000000000E+00 -0.60128146357E+03  0.60128146358E+03  0.25500000000E-02 0.  1.
    5000001    1    1    2    0    0  0.93792403260E+02 -0.25233967206E+03 -0.32206990309E+03  0.46454531262E+03  0.19900000000E+03 0.  0.
   -5000001    1    1    2    0    0 -0.93792403260E+02  0.25233967206E+03 -0.73253406599E+02  0.34269430486E+03  0.19900000000E+03 0.  0.
<mgrwt>
<rscale>  0 0.70381481E+03</rscale>
<asrwt>0</asrwt>
<pdfrwt beam="1">  1        2 0.29422594E-01 0.70381481E+03</pdfrwt>
<pdfrwt beam="2">  1       -2 0.85897351E-01 0.70381481E+03</pdfrwt>
<totfact> 0.21607387E+02</totfact>
</mgrwt>
</event>
<event>
 4    1  0.4998754E-005  0.4058883E+03  0.7818608E-02  0.1041760E+00
         -2   -1    0    0    0  501 -0.00000000000E+00  0.00000000000E+00  0.19705137781E+02  0.19705137946E+02  0.25500000000E-02 0. -1.
          2   -1    0    0  501    0  0.00000000000E+00 -0.00000000000E+00 -0.20901310380E+04  0.20901310380E+04  0.25500000000E-02 0.  1.
    5000001    1    1    2    0    0  0.33827165543E+02  0.20129843225E+02 -0.10663287567E+04  0.10854526729E+04  0.19900000000E+03 0.  0.
   -5000001    1    1    2    0    0 -0.33827165543E+02 -0.20129843225E+02 -0.10040971435E+04  0.10243835031E+04  0.19900000000E+03 0.  0.
<mgrwt>
<rscale>  0 0.40588826E+03</rscale>
<asrwt>0</asrwt>
<pdfrwt beam="1">  1        2 0.29859001E+00 0.40588826E+03</pdfrwt>
<pdfrwt beam="2">  1       -2 0.28150210E-02 0.40588826E+03</pdfrwt>
<totfact> 0.37069350E+03</totfact>
</mgrwt>
</event>
<event>
 4    1  0.4998754E-005  0.5336948E+03  0.7818608E-02  0.1005340E+00
         -2   -1    0    0    0  501 -0.00000000000E+00  0.00000000000E+00  0.19304326336E+02  0.19304326504E+02  0.25500000000E-02 0. -1.
          2   -1    0    0  501    0  0.00000000000E+00 -0.00000000000E+00 -0.36886821033E+04  0.36886821033E+04  0.25500000000E-02 0.  1.
    5000001    1    1    2    0    0  0.24183293391E+02  0.11099883770E+03 -0.88457201430E+03  0.91376923900E+03  0.19900000000E+03 0.  0.
   -5000001    1    1    2    0    0 -0.24183293391E+02 -0.11099883770E+03 -0.27848057627E+04  0.27942171908E+04  0.19900000000E+03 0.  0.
<mgrwt>
<rscale>  0 0.53369476E+03</rscale>
<asrwt>0</asrwt>
<pdfrwt beam="1">  1        2 0.52695414E+00 0.53369476E+03</pdfrwt>
<pdfrwt beam="2">  1       -2 0.27577633E-02 0.53369476E+03</pdfrwt>
<totfact> 0.51963286E+02</totfact>
</mgrwt>
</event>
<event>
 4    1  0.4998754E-005  0.6366109E+03  0.7818608E-02  0.9832232E-01
          2   -1    0    0  501    0  0.00000000000E+00  0.00000000000E+00  0.71876822144E+03  0.71876822145E+03  0.25500000000E-02 0.  1.
         -2   -1    0    0    0  501 -0.00000000000E+00 -0.00000000000E+00 -0.14096107902E+03  0.14096107904E+03  0.25500000000E-02 0. -1.
    5000001    1    1    2    0    0  0.21524494751E+03  0.10966349712E+03  0.36719492615E+03  0.48248272904E+03  0.19900000000E+03 0.  0.
   -5000001    1    1    2    0    0 -0.21524494751E+03 -0.10966349712E+03  0.21061221627E+03  0.37724657145E+03  0.19900000000E+03 0.  0.
<mgrwt>
<rscale>  0 0.63661085E+03</rscale>
<asrwt>0</asrwt>
<pdfrwt beam="1">  1        2 0.10268117E+00 0.63661085E+03</pdfrwt>
<pdfrwt beam="2">  1       -2 0.20137297E-01 0.63661085E+03</pdfrwt>
<totfact> 0.92076251E+02</totfact>
</mgrwt>
</event>
<event>
 4    1  0.4998754E-005  0.1409442E+04  0.7818608E-02  0.8947012E-01
          2   -1    0    0  501    0  0.00000000000E+00  0.00000000000E+00  0.10167665430E+04  0.10167665430E+04  0.25500000000E-02 0.  1.
         -2   -1    0    0    0  501 -0.00000000000E+00 -0.00000000000E+00 -0.48844197387E+03  0.48844197388E+03  0.25500000000E-02 0. -1.
    5000001    1    1    2    0    0  0.45348434972E+03 -0.49377892982E+03  0.17127688997E+03  0.72000170834E+03  0.19900000000E+03 0.  0.
   -5000001    1    1    2    0    0 -0.45348434972E+03  0.49377892982E+03  0.35704767916E+03  0.78520680854E+03  0.19900000000E+03 0.  0.
<mgrwt>
<rscale>  0 0.14094417E+04</rscale>
<asrwt>0</asrwt>
<pdfrwt beam="1">  1        2 0.14525236E+00 0.14094417E+04</pdfrwt>
<pdfrwt beam="2">  1       -2 0.69777425E-01 0.14094417E+04</pdfrwt>
<totfact> 0.50010936E+01</totfact>
</mgrwt>
</event>
<event>
 4    1  0.4998754E-005  0.7126660E+03  0.7818608E-02  0.9695813E-01
         -2   -1    0    0    0  501 -0.00000000000E+00  0.00000000000E+00  0.41809510033E+02  0.41809510111E+02  0.25500000000E-02 0. -1.
          2   -1    0    0  501    0  0.00000000000E+00 -0.00000000000E+00 -0.30369456776E+04  0.30369456776E+04  0.25500000000E-02 0.  1.
    5000001    1    1    2    0    0  0.18637638033E+03  0.35239352745E+02 -0.24769370765E+04  0.24921469154E+04  0.19900000000E+03 0.  0.
   -5000001    1    1    2    0    0 -0.18637638033E+03 -0.35239352745E+02 -0.51819909102E+03  0.58660827224E+03  0.19900000000E+03 0.  0.
<mgrwt>
<rscale>  0 0.71266601E+03</rscale>
<asrwt>0</asrwt>
<pdfrwt beam="1">  1        2 0.43384924E+00 0.71266601E+03</pdfrwt>
<pdfrwt beam="2">  1       -2 0.59727891E-02 0.71266601E+03</pdfrwt>
<totfact> 0.37016830E+02</totfact>
</mgrwt>
</event>
<event>
 4    1  0.4998754E-005  0.6503472E+03  0.7818608E-02  0.9806128E-01
         -2   -1    0    0    0  501 -0.00000000000E+00  0.00000000000E+00  0.10927245136E+03  0.10927245139E+03  0.25500000000E-02 0. -1.
          2   -1    0    0  501    0  0.00000000000E+00 -0.00000000000E+00 -0.96765344521E+03  0.96765344521E+03  0.25500000000E-02 0.  1.
    5000001    1    1    2    0    0  0.20238229689E+03 -0.15726487891E+03 -0.39421841172E+03  0.51058788898E+03  0.19900000000E+03 0.  0.
   -5000001    1    1    2    0    0 -0.20238229689E+03  0.15726487891E+03 -0.46416258212E+03  0.56633800762E+03  0.19900000000E+03 0.  0.
<mgrwt>
<rscale>  0 0.65034718E+03</rscale>
<asrwt>0</asrwt>
<pdfrwt beam="1">  1        2 0.13823620E+00 0.65034718E+03</pdfrwt>
<pdfrwt beam="2">  1       -2 0.15610351E-01 0.65034718E+03</pdfrwt>
<totfact> 0.96749854E+02</totfact>
</mgrwt>
</event>
<event>
 4    1  0.4998754E-005  0.4984746E+03  0.7818608E-02  0.1014178E+00
         -2   -1    0    0    0  501 -0.00000000000E+00  0.00000000000E+00  0.12229114313E+03  0.12229114316E+03  0.25500000000E-02 0. -1.
          2   -1    0    0  501    0  0.00000000000E+00 -0.00000000000E+00 -0.50796177506E+03  0.50796177506E+03  0.25500000000E-02 0.  1.
    5000001    1    1    2    0    0  0.75053683374E+02  0.10006514741E+03 -0.88021687292E+02  0.25098786136E+03  0.19900000000E+03 0.  0.
   -5000001    1    1    2    0    0 -0.75053683374E+02 -0.10006514741E+03 -0.29764894464E+03  0.37926505686E+03  0.19900000000E+03 0.  0.
<mgrwt>
<rscale>  0 0.49847458E+03</rscale>
<asrwt>0</asrwt>
<pdfrwt beam="1">  1        2 0.72565967E-01 0.49847458E+03</pdfrwt>
<pdfrwt beam="2">  1       -2 0.17470164E-01 0.49847458E+03</pdfrwt>
<totfact> 0.17732466E+03</totfact>
</mgrwt>
</event>
<event>
 4    1  0.4998754E-005  0.5024498E+03  0.7818608E-02  0.1013141E+00
          2   -1    0    0  501    0  0.00000000000E+00  0.00000000000E+00  0.98203788203E+02  0.98203788237E+02  0.25500000000E-02 0.  1.
         -2   -1    0    0    0  501 -0.00000000000E+00 -0.00000000000E+00 -0.64268349150E+03  0.64268349151E+03  0.25500000000E-02 0. -1.
    5000001    1    1    2    0    0  0.84347107508E+02 -0.10901001137E+03 -0.17315562948E+03  0.29762642548E+03  0.19900000000E+03 0.  0.
   -5000001    1    1    2    0    0 -0.84347107508E+02  0.10901001137E+03 -0.37132407382E+03  0.44326085427E+03  0.19900000000E+03 0.  0.
<mgrwt>
<rscale>  0 0.50244981E+03</rscale>
<asrwt>0</asrwt>
<pdfrwt beam="1">  1        2 0.14029113E-01 0.50244981E+03</pdfrwt>
<pdfrwt beam="2">  1       -2 0.91811925E-01 0.50244981E+03</pdfrwt>
<totfact> 0.44343672E+02</totfact>
</mgrwt>
</event>
<event>
 4    1  0.4998754E-005  0.4385306E+03  0.7818608E-02  0.1031199E+00
         -2   -1    0    0    0  501 -0.00000000000E+00  0.00000000000E+00  0.39644331601E+02  0.39644331683E+02  0.25500000000E-02 0. -1.
          2   -1    0    0  501    0  0.00000000000E+00 -0.00000000000E+00 -0.12127149990E+04  0.12127149990E+04  0.25500000000E-02 0.  1.
    5000001    1    1    2    0    0  0.86997436109E+02 -0.86580751033E+01 -0.50412364333E+03  0.54898557715E+03  0.19900000000E+03 0.  0.
   -5000001    1    1    2    0    0 -0.86997436109E+02  0.86580751033E+01 -0.66894702408E+03  0.70337375355E+03  0.19900000000E+03 0.  0.
<mgrwt>
<rscale>  0 0.43853062E+03</rscale>
<asrwt>0</asrwt>
<pdfrwt beam="1">  1        2 0.17324498E+00 0.43853062E+03</pdfrwt>
<pdfrwt beam="2">  1       -2 0.56634767E-02 0.43853062E+03</pdfrwt>
<totfact> 0.35815764E+03</totfact>
</mgrwt>
</event>
<event>
 4    1  0.4998754E-005  0.5535610E+03  0.7818608E-02  0.1000673E+00
          2   -1    0    0  501    0  0.00000000000E+00  0.00000000000E+00  0.13037581307E+04  0.13037581307E+04  0.25500000000E-02 0. -1.
         -2   -1    0    0    0  501 -0.00000000000E+00 -0.00000000000E+00 -0.58758938066E+02  0.58758938122E+02  0.25500000000E-02 0.  1.
    5000001    1    1    2    0    0 -0.18671516938E+03  0.37851740496E+02  0.55686204617E+03  0.62128226050E+03  0.19900000000E+03 0.  0.
   -5000001    1    1    2    0    0  0.18671516938E+03 -0.37851740496E+02  0.68813714642E+03  0.74123480829E+03  0.19900000000E+03 0.  0.
<mgrwt>
<rscale>  0 0.55356099E+03</rscale>
<asrwt>0</asrwt>
<pdfrwt beam="1">  1        2 0.18625115E+00 0.55356099E+03</pdfrwt>
<pdfrwt beam="2">  1       -2 0.83941345E-02 0.55356099E+03</pdfrwt>
<totfact> 0.17188856E+03</totfact>
</mgrwt>
</event>
<event>
 4    1  0.4998754E-005  0.5014755E+03  0.7818608E-02  0.1013394E+00
          2   -1    0    0  501    0  0.00000000000E+00  0.00000000000E+00  0.13196892246E+04  0.13196892246E+04  0.25500000000E-02 0.  1.
         -2   -1    0    0    0  501 -0.00000000000E+00 -0.00000000000E+00 -0.47639572117E+02  0.47639572185E+02  0.25500000000E-02 0. -1.
    5000001    1    1    2    0    0  0.13230229796E+03  0.63184539828E+02  0.52123981127E+03  0.57687791167E+03  0.19900000000E+03 0.  0.
   -5000001    1    1    2    0    0 -0.13230229796E+03 -0.63184539828E+02  0.75080984119E+03  0.79045088510E+03  0.19900000000E+03 0.  0.
<mgrwt>
<rscale>  0 0.50147554E+03</rscale>
<asrwt>0</asrwt>
<pdfrwt beam="1">  1        2 0.18852699E+00 0.50147554E+03</pdfrwt>
<pdfrwt beam="2">  1       -2 0.68056548E-02 0.50147554E+03</pdfrwt>
<totfact> 0.23514006E+03</totfact>
</mgrwt>
</event>
<event>
 4    1  0.4998754E-005  0.6956922E+03  0.7818608E-02  0.9724628E-01
         -2   -1    0    0    0  501 -0.00000000000E+00  0.00000000000E+00  0.55608271692E+03  0.55608271693E+03  0.25500000000E-02 0. -1.
          2   -1    0    0  501    0  0.00000000000E+00 -0.00000000000E+00 -0.21758797151E+03  0.21758797153E+03  0.25500000000E-02 0.  1.
    5000001    1    1    2    0    0  0.13219062281E+03  0.24516339267E+03  0.23794937485E+03  0.41689369731E+03  0.19900000000E+03 0.  0.
   -5000001    1    1    2    0    0 -0.13219062281E+03 -0.24516339267E+03  0.10054537056E+03  0.35677699114E+03  0.19900000000E+03 0.  0.
<mgrwt>
<rscale>  0 0.69569220E+03</rscale>
<asrwt>0</asrwt>
<pdfrwt beam="1">  1        2 0.31083996E-01 0.69569220E+03</pdfrwt>
<pdfrwt beam="2">  1       -2 0.79440388E-01 0.69569220E+03</pdfrwt>
<totfact> 0.24237384E+02</totfact>
</mgrwt>
</event>
<event>
 4    1  0.4998754E-005  0.4693704E+03  0.7818608E-02  0.1022098E+00
         -2   -1    0    0    0  501 -0.00000000000E+00  0.00000000000E+00  0.18771039519E+03  0.18771039520E+03  0.25500000000E-02 0. -1.
          2   -1    0    0  501    0  0.00000000000E+00 -0.00000000000E+00 -0.29341555671E+03  0.29341555672E+03  0.25500000000E-02 0.  1.
    5000001    1    1    2    0    0 -0.78896303433E+02 -0.96148882186E+02 -0.55548249044E+02  0.24115522431E+03  0.19900000000E+03 0.  0.
   -5000001    1    1    2    0    0  0.78896303433E+02  0.96148882186E+02 -0.50156912477E+02  0.23997072761E+03  0.19900000000E+03 0.  0.
<mgrwt>
<rscale>  0 0.46937043E+03</rscale>
<asrwt>0</asrwt>
<pdfrwt beam="1">  1        2 0.41916508E-01 0.46937043E+03</pdfrwt>
<pdfrwt beam="2">  1       -2 0.26815771E-01 0.46937043E+03</pdfrwt>
<totfact> 0.15349756E+03</totfact>
</mgrwt>
</event>
<event>
 4    1  0.4998754E-005  0.5479084E+03  0.7818608E-02  0.1001979E+00
         -2   -1    0    0    0  501 -0.00000000000E+00  0.00000000000E+00  0.31877620085E+03  0.31877620086E+03  0.25500000000E-02 0. -1.
          2   -1    0    0  501    0  0.00000000000E+00 -0.00000000000E+00 -0.23543445730E+03  0.23543445732E+03  0.25500000000E-02 0.  1.
    5000001    1    1    2    0    0  0.49588728270E+02 -0.18053489995E+03  0.21491214104E+02  0.27407072874E+03  0.19900000000E+03 0.  0.
   -5000001    1    1    2    0    0 -0.49588728270E+02  0.18053489995E+03  0.61850529440E+02  0.28013992943E+03  0.19900000000E+03 0.  0.
<mgrwt>
<rscale>  0 0.54790839E+03</rscale>
<asrwt>0</asrwt>
<pdfrwt beam="1">  1        2 0.33633494E-01 0.54790839E+03</pdfrwt>
<pdfrwt beam="2">  1       -2 0.45539457E-01 0.54790839E+03</pdfrwt>
<totfact> 0.71907805E+02</totfact>
</mgrwt>
</event>
<event>
 4    1  0.4998754E-005  0.4680789E+03  0.7818608E-02  0.1022464E+00
          2   -1    0    0  501    0  0.00000000000E+00  0.00000000000E+00  0.27054354676E+04  0.27054354676E+04  0.25500000000E-02 0.  1.
         -2   -1    0    0    0  501 -0.00000000000E+00 -0.00000000000E+00 -0.20246081884E+02  0.20246082045E+02  0.25500000000E-02 0. -1.
    5000001    1    1    2    0    0  0.11169068602E+03  0.51946007714E+02  0.13456270173E+04  0.13658280517E+04  0.19900000000E+03 0.  0.
   -5000001    1    1    2    0    0 -0.11169068602E+03 -0.51946007714E+02  0.13395623685E+04  0.13598534980E+04  0.19900000000E+03 0.  0.
<mgrwt>
<rscale>  0 0.46807892E+03</rscale>
<asrwt>0</asrwt>
<pdfrwt beam="1">  1        2 0.38649061E+00 0.46807892E+03</pdfrwt>
<pdfrwt beam="2">  1       -2 0.28922987E-02 0.46807892E+03</pdfrwt>
<totfact> 0.17351175E+03</totfact>
</mgrwt>
</event>
<event>
 4    1  0.4998754E-005  0.8587019E+03  0.7818608E-02  0.9478731E-01
          2   -1    0    0  501    0  0.00000000000E+00  0.00000000000E+00  0.12894623786E+04  0.12894623786E+04  0.25500000000E-02 0.  1.
         -2   -1    0    0    0  501 -0.00000000000E+00 -0.00000000000E+00 -0.14296053647E+03  0.14296053649E+03  0.25500000000E-02 0. -1.
    5000001    1    1    2    0    0  0.15512910533E+03  0.12741165811E+03  0.34153324878E+02  0.28472130153E+03  0.19900000000E+03 0.  0.
   -5000001    1    1    2    0    0 -0.15512910533E+03 -0.12741165811E+03  0.11123485173E+04  0.11477016136E+04  0.19900000000E+03 0.  0.
<mgrwt>
<rscale>  0 0.85870189E+03</rscale>
<asrwt>0</asrwt>
<pdfrwt beam="1">  1        2 0.18420891E+00 0.85870189E+03</pdfrwt>
<pdfrwt beam="2">  1       -2 0.20422934E-01 0.85870189E+03</pdfrwt>
<totfact> 0.39226398E+02</totfact>
</mgrwt>
</event>
<event>
 4    1  0.4998754E-005  0.6262432E+03  0.7818608E-02  0.9852407E-01
         -2   -1    0    0    0  501 -0.00000000000E+00  0.00000000000E+00  0.84717068082E+02  0.84717068121E+02  0.25500000000E-02 0. -1.
          2   -1    0    0  501    0  0.00000000000E+00 -0.00000000000E+00 -0.11573244900E+04  0.11573244901E+04  0.25500000000E-02 0.  1.
    5000001    1    1    2    0    0  0.64829599557E+02  0.12900911642E+03 -0.15173411587E+03  0.28891256639E+03  0.19900000000E+03 0.  0.
   -5000001    1    1    2    0    0 -0.64829599557E+02 -0.12900911642E+03 -0.92087330610E+03  0.95312899179E+03  0.19900000000E+03 0.  0.
<mgrwt>
<rscale>  0 0.62624320E+03</rscale>
<asrwt>0</asrwt>
<pdfrwt beam="1">  1        2 0.16533206E+00 0.62624320E+03</pdfrwt>
<pdfrwt beam="2">  1       -2 0.12102439E-01 0.62624320E+03</pdfrwt>
<totfact> 0.11429083E+03</totfact>
</mgrwt>
</event>
<event>
 4    1  0.4998754E-005  0.7652872E+03  0.7818608E-02  0.9611668E-01
          2   -1    0    0  501    0  0.00000000000E+00  0.00000000000E+00  0.14737756772E+04  0.14737756772E+04  0.25500000000E-02 0.  1.
         -2   -1    0    0    0  501 -0.00000000000E+00 -0.00000000000E+00 -0.99347624001E+02  0.99347624034E+02  0.25500000000E-02 0. -1.
    5000001    1    1    2    0    0  0.18850234161E+03  0.26562634635E+03  0.63187972261E+03  0.73821641306E+03  0.19900000000E+03 0.  0.
   -5000001    1    1    2    0    0 -0.18850234161E+03 -0.26562634635E+03  0.74254833058E+03  0.83490688816E+03  0.19900000000E+03 0.  0.
<mgrwt>
<rscale>  0 0.76528717E+03</rscale>
<asrwt>0</asrwt>
<pdfrwt beam="1">  1        2 0.21053938E+00 0.76528717E+03</pdfrwt>
<pdfrwt beam="2">  1       -2 0.14192518E-01 0.76528717E+03</pdfrwt>
<totfact> 0.58568310E+02</totfact>
</mgrwt>
</event>
<event>
 4    1  0.4998754E-005  0.6644742E+03  0.7818608E-02  0.9779992E-01
         -2   -1    0    0    0  501 -0.00000000000E+00  0.00000000000E+00  0.21299899784E+03  0.21299899785E+03  0.25500000000E-02 0. -1.
          2   -1    0    0  501    0  0.00000000000E+00 -0.00000000000E+00 -0.51822534937E+03  0.51822534938E+03  0.25500000000E-02 0.  1.
    5000001    1    1    2    0    0 -0.23556293762E+03 -0.96552232336E+02 -0.23762826317E+03  0.40109901845E+03  0.19900000000E+03 0.  0.
   -5000001    1    1    2    0    0  0.23556293762E+03  0.96552232336E+02 -0.67598088370E+02  0.33012532878E+03  0.19900000000E+03 0.  0.
<mgrwt>
<rscale>  0 0.66447417E+03</rscale>
<asrwt>0</asrwt>
<pdfrwt beam="1">  1        2 0.74032192E-01 0.66447417E+03</pdfrwt>
<pdfrwt beam="2">  1       -2 0.30428428E-01 0.66447417E+03</pdfrwt>
<totfact> 0.64610546E+02</totfact>
</mgrwt>
</event>
<event>
 4    1  0.4998754E-005  0.4666310E+03  0.7818608E-02  0.1022875E+00
          2   -1    0    0  501    0  0.00000000000E+00  0.00000000000E+00  0.47955033840E+02  0.47955033907E+02  0.25500000000E-02 0.  1.
         -2   -1    0    0    0  501 -0.00000000000E+00 -0.00000000000E+00 -0.11351491142E+04  0.11351491142E+04  0.25500000000E-02 0. -1.
    5000001    1    1    2    0    0  0.37561532001E+02  0.34743145503E+02 -0.26335418901E+03  0.33402751940E+03  0.19900000000E+03 0.  0.
   -5000001    1    1    2    0    0 -0.37561532001E+02 -0.34743145503E+02 -0.82383989135E+03  0.84907662871E+03  0.19900000000E+03 0.  0.
<mgrwt>
<rscale>  0 0.46663096E+03</rscale>
<asrwt>0</asrwt>
<pdfrwt beam="1">  1        2 0.68507198E-02 0.46663096E+03</pdfrwt>
<pdfrwt beam="2">  1       -2 0.16216414E+00 0.46663096E+03</pdfrwt>
<totfact> 0.26857530E+02</totfact>
</mgrwt>
</event>
<event>
 4    1  0.4998754E-005  0.6403847E+03  0.7818608E-02  0.9824991E-01
         -2   -1    0    0    0  501 -0.00000000000E+00  0.00000000000E+00  0.23143857157E+03  0.23143857159E+03  0.25500000000E-02 0. -1.
          2   -1    0    0  501    0  0.00000000000E+00 -0.00000000000E+00 -0.44298204212E+03  0.44298204213E+03  0.25500000000E-02 0.  1.
    5000001    1    1    2    0    0  0.15299044474E+03 -0.16983152817E+03  0.30308986469E+01  0.30308251432E+03  0.19900000000E+03 0.  0.
   -5000001    1    1    2    0    0 -0.15299044474E+03  0.16983152817E+03 -0.21457436919E+03  0.37133809939E+03  0.19900000000E+03 0.  0.
<mgrwt>
<rscale>  0 0.64038467E+03</rscale>
<asrwt>0</asrwt>
<pdfrwt beam="1">  1        2 0.63283149E-01 0.64038467E+03</pdfrwt>
<pdfrwt beam="2">  1       -2 0.33062653E-01 0.64038467E+03</pdfrwt>
<totfact> 0.66144438E+02</totfact>
</mgrwt>
</event>
<event>
 4    1  0.4998754E-005  0.6457578E+03  0.7818608E-02  0.9814772E-01
         -2   -1    0    0    0  501 -0.00000000000E+00  0.00000000000E+00  0.85932814847E+02  0.85932814884E+02  0.25500000000E-02 0. -1.
          2   -1    0    0  501    0  0.00000000000E+00 -0.00000000000E+00 -0.12131662521E+04  0.12131662521E+04  0.25500000000E-02 0.  1.
    5000001    1    1    2    0    0  0.15689638528E+03 -0.19124369699E+03 -0.44529672252E+03  0.54688280137E+03  0.19900000000E+03 0.  0.
   -5000001    1    1    2    0    0 -0.15689638528E+03  0.19124369699E+03 -0.68193671478E+03  0.75221626566E+03  0.19900000000E+03 0.  0.
<mgrwt>
<rscale>  0 0.64575782E+03</rscale>
<asrwt>0</asrwt>
<pdfrwt beam="1">  1        2 0.17330945E+00 0.64575782E+03</pdfrwt>
<pdfrwt beam="2">  1       -2 0.12276117E-01 0.64575782E+03</pdfrwt>
<totfact> 0.10375675E+03</totfact>
</mgrwt>
</event>
<event>
 4    1  0.4998754E-005  0.5324609E+03  0.7818608E-02  0.1005637E+00
          2   -1    0    0  501    0  0.00000000000E+00  0.00000000000E+00  0.15395687177E+03  0.15395687179E+03  0.25500000000E-02 0.  1.
         -2   -1    0    0    0  501 -0.00000000000E+00 -0.00000000000E+00 -0.46037994957E+03  0.46037994958E+03  0.25500000000E-02 0. -1.
    5000001    1    1    2    0    0 -0.17963484603E+01 -0.16909513289E+03 -0.93468299872E+02  0.27736927356E+03  0.19900000000E+03 0.  0.
   -5000001    1    1    2    0    0  0.17963484603E+01  0.16909513289E+03 -0.21295477793E+03  0.33696754781E+03  0.19900000000E+03 0.  0.
<mgrwt>
<rscale>  0 0.53246092E+03</rscale>
<asrwt>0</asrwt>
<pdfrwt beam="1">  1        2 0.21993839E-01 0.53246092E+03</pdfrwt>
<pdfrwt beam="2">  1       -2 0.65768564E-01 0.53246092E+03</pdfrwt>
<totfact> 0.54537828E+02</totfact>
</mgrwt>
</event>
<event>
 4    1  0.4998754E-005  0.5103887E+03  0.7818608E-02  0.1011102E+00
          2   -1    0    0  501    0  0.00000000000E+00  0.00000000000E+00  0.18623446858E+04  0.18623446858E+04  0.25500000000E-02 0.  1.
         -2   -1    0    0    0  501 -0.00000000000E+00 -0.00000000000E+00 -0.34968912251E+02  0.34968912344E+02  0.25500000000E-02 0. -1.
    5000001    1    1    2    0    0  0.16639281894E+01  0.15057867803E+03  0.71535686345E+03  0.75763655470E+03  0.19900000000E+03 0.  0.
   -5000001    1    1    2    0    0 -0.16639281894E+01 -0.15057867803E+03  0.11120189101E+04  0.11396770434E+04  0.19900000000E+03 0.  0.
<mgrwt>
<rscale>  0 0.51038875E+03</rscale>
<asrwt>0</asrwt>
<pdfrwt beam="1">  1        2 0.26604926E+00 0.51038875E+03</pdfrwt>
<pdfrwt beam="2">  1       -2 0.49955586E-02 0.51038875E+03</pdfrwt>
<totfact> 0.20024912E+03</totfact>
</mgrwt>
</event>
<event>
 4    1  0.4998754E-005  0.8261087E+03  0.7818608E-02  0.9522976E-01
         -2   -1    0    0    0  501 -0.00000000000E+00  0.00000000000E+00  0.72442154934E+02  0.72442154979E+02  0.25500000000E-02 0. -1.
          2   -1    0    0  501    0  0.00000000000E+00 -0.00000000000E+00 -0.23551740193E+04  0.23551740193E+04  0.25500000000E-02 0.  1.
    5000001    1    1    2    0    0 -0.17599320542E+03  0.31628969681E+03 -0.11404338753E+04  0.12129316570E+04  0.19900000000E+03 0.  0.
   -5000001    1    1    2    0    0  0.17599320542E+03 -0.31628969681E+03 -0.11422979891E+04  0.12146845173E+04  0.19900000000E+03 0.  0.
<mgrwt>
<rscale>  0 0.82610866E+03</rscale>
<asrwt>0</asrwt>
<pdfrwt beam="1">  1        2 0.33645338E+00 0.82610866E+03</pdfrwt>
<pdfrwt beam="2">  1       -2 0.10348881E-01 0.82610866E+03</pdfrwt>
<totfact> 0.34858043E+02</totfact>
</mgrwt>
</event>
<event>
 4    1  0.4998754E-005  0.5038791E+03  0.7818608E-02  0.1012771E+00
          2   -1    0    0  501    0  0.00000000000E+00  0.00000000000E+00  0.74603737915E+03  0.74603737916E+03  0.25500000000E-02 0.  1.
         -2   -1    0    0    0  501 -0.00000000000E+00 -0.00000000000E+00 -0.85080908496E+02  0.85080908535E+02  0.25500000000E-02 0. -1.
    5000001    1    1    2    0    0  0.13443383681E+03  0.75820713804E+02  0.31866418213E+03  0.40616388083E+03  0.19900000000E+03 0.  0.
   -5000001    1    1    2    0    0 -0.13443383681E+03 -0.75820713804E+02  0.34229228853E+03  0.42495440686E+03  0.19900000000E+03 0.  0.
<mgrwt>
<rscale>  0 0.50387910E+03</rscale>
<asrwt>0</asrwt>
<pdfrwt beam="1">  1        2 0.10657677E+00 0.50387910E+03</pdfrwt>
<pdfrwt beam="2">  1       -2 0.12154416E-01 0.50387910E+03</pdfrwt>
<totfact> 0.20669644E+03</totfact>
</mgrwt>
</event>
<event>
 4    1  0.4998754E-005  0.7878803E+03  0.7818608E-02  0.9577727E-01
          2   -1    0    0  501    0  0.00000000000E+00  0.00000000000E+00  0.43685623747E+03  0.43685623747E+03  0.25500000000E-02 0.  1.
         -2   -1    0    0    0  501 -0.00000000000E+00 -0.00000000000E+00 -0.35524010560E+03  0.35524010561E+03  0.25500000000E-02 0. -1.
    5000001    1    1    2    0    0  0.16889921732E+03  0.88824576230E+02 -0.24207118938E+03  0.36690081996E+03  0.19900000000E+03 0.  0.
   -5000001    1    1    2    0    0 -0.16889921732E+03 -0.88824576230E+02  0.32368732125E+03  0.42519552313E+03  0.19900000000E+03 0.  0.
<mgrwt>
<rscale>  0 0.78788034E+03</rscale>
<asrwt>0</asrwt>
<pdfrwt beam="1">  1        2 0.62408034E-01 0.78788034E+03</pdfrwt>
<pdfrwt beam="2">  1       -2 0.50748586E-01 0.78788034E+03</pdfrwt>
<totfact> 0.28937994E+02</totfact>
</mgrwt>
</event>
<event>
 4    1  0.4998754E-005  0.7839130E+03  0.7818608E-02  0.9583599E-01
          2   -1    0    0  501    0  0.00000000000E+00  0.00000000000E+00  0.22138990085E+04  0.22138990085E+04  0.25500000000E-02 0.  1.
         -2   -1    0    0    0  501 -0.00000000000E+00 -0.00000000000E+00 -0.69393370305E+02  0.69393370351E+02  0.25500000000E-02 0. -1.
    5000001    1    1    2    0    0  0.20524978642E+03  0.15270283580E+03  0.43024980520E+03  0.53866643275E+03  0.19900000000E+03 0.  0.
   -5000001    1    1    2    0    0 -0.20524978642E+03 -0.15270283580E+03  0.17142558330E+04  0.17446259461E+04  0.19900000000E+03 0.  0.
<mgrwt>
<rscale>  0 0.78391304E+03</rscale>
<asrwt>0</asrwt>
<pdfrwt beam="1">  1        2 0.31627121E+00 0.78391304E+03</pdfrwt>
<pdfrwt beam="2">  1       -2 0.99133411E-02 0.78391304E+03</pdfrwt>
<totfact> 0.44282050E+02</totfact>
</mgrwt>
</event>
<event>
 4    1  0.4998754E-005  0.8952642E+03  0.7818608E-02  0.9431521E-01
          2   -1    0    0  501    0  0.00000000000E+00  0.00000000000E+00  0.15348525677E+04  0.15348525677E+04  0.25500000000E-02 0.  1.
         -2   -1    0    0    0  501 -0.00000000000E+00 -0.00000000000E+00 -0.13054967494E+03  0.13054967496E+03  0.25500000000E-02 0. -1.
    5000001    1    1    2    0    0 -0.39188059985E+03 -0.41686982181E+02  0.56462864336E+03  0.71673894405E+03  0.19900000000E+03 0.  0.
   -5000001    1    1    2    0    0  0.39188059985E+03  0.41686982181E+02  0.83967424943E+03  0.94866329864E+03  0.19900000000E+03 0.  0.
<mgrwt>
<rscale>  0 0.89526422E+03</rscale>
<asrwt>0</asrwt>
<pdfrwt beam="1">  1        2 0.21926464E+00 0.89526422E+03</pdfrwt>
<pdfrwt beam="2">  1       -2 0.18649955E-01 0.89526422E+03</pdfrwt>
<totfact> 0.33873175E+02</totfact>
</mgrwt>
</event>
<event>
 4    1  0.4998754E-005  0.5942415E+03  0.7818608E-02  0.9917426E-01
          2   -1    0    0  501    0  0.00000000000E+00  0.00000000000E+00  0.33658890899E+03  0.33658890900E+03  0.25500000000E-02 0.  1.
         -2   -1    0    0    0  501 -0.00000000000E+00 -0.00000000000E+00 -0.26228061808E+03  0.26228061810E+03  0.25500000000E-02 0. -1.
    5000001    1    1    2    0    0  0.15600297211E+02  0.20299327214E+03 -0.48538125127E+02  0.28880198649E+03  0.19900000000E+03 0.  0.
   -5000001    1    1    2    0    0 -0.15600297211E+02 -0.20299327214E+03  0.12284641603E+03  0.31006754061E+03  0.19900000000E+03 0.  0.
<mgrwt>
<rscale>  0 0.59424152E+03</rscale>
<asrwt>0</asrwt>
<pdfrwt beam="1">  1        2 0.48084130E-01 0.59424152E+03</pdfrwt>
<pdfrwt beam="2">  1       -2 0.37468660E-01 0.59424152E+03</pdfrwt>
<totfact> 0.70840305E+02</totfact>
</mgrwt>
</event>
<event>
 4    1  0.4998754E-005  0.5653326E+03  0.7818608E-02  0.9980060E-01
          2   -1    0    0  501    0  0.00000000000E+00  0.00000000000E+00  0.12092006376E+04  0.12092006376E+04  0.25500000000E-02 0.  1.
         -2   -1    0    0    0  501 -0.00000000000E+00 -0.00000000000E+00 -0.66076905097E+02  0.66076905146E+02  0.25500000000E-02 0. -1.
    5000001    1    1    2    0    0 -0.80538761870E+02  0.17592586881E+03  0.69225946837E+03  0.74582878399E+03  0.19900000000E+03 0.  0.
   -5000001    1    1    2    0    0  0.80538761870E+02 -0.17592586881E+03  0.45086426414E+03  0.52944875876E+03  0.19900000000E+03 0.  0.
<mgrwt>
<rscale>  0 0.56533260E+03</rscale>
<asrwt>0</asrwt>
<pdfrwt beam="1">  1        2 0.17274294E+00 0.56533260E+03</pdfrwt>
<pdfrwt beam="2">  1       -2 0.94395581E-02 0.56533260E+03</pdfrwt>
<totfact> 0.16044256E+03</totfact>
</mgrwt>
</event>
<event>
 4    1  0.4998754E-005  0.4306975E+03  0.7818608E-02  0.1033640E+00
          2   -1    0    0  501    0  0.00000000000E+00  0.00000000000E+00  0.24009696280E+04  0.24009696280E+04  0.25500000000E-02 0.  1.
         -2   -1    0    0    0  501 -0.00000000000E+00 -0.00000000000E+00 -0.19315144229E+02  0.19315144397E+02  0.25500000000E-02 0. -1.
    5000001    1    1    2    0    0 -0.65005526516E+02  0.27373008971E+02  0.14291792233E+04  0.14446900195E+04  0.19900000000E+03 0.  0.
   -5000001    1    1    2    0    0  0.65005526516E+02 -0.27373008971E+02  0.95247526051E+03  0.97559475295E+03  0.19900000000E+03 0.  0.
<mgrwt>
<rscale>  0 0.43069746E+03</rscale>
<asrwt>0</asrwt>
<pdfrwt beam="1">  1        2 0.34299582E+00 0.43069746E+03</pdfrwt>
<pdfrwt beam="2">  1       -2 0.27593050E-02 0.43069746E+03</pdfrwt>
<totfact> 0.26709215E+03</totfact>
</mgrwt>
</event>
<event>
 4    1  0.4998754E-005  0.8180374E+03  0.7818608E-02  0.9534270E-01
         -2   -1    0    0    0  501 -0.00000000000E+00  0.00000000000E+00  0.95616146011E+02  0.95616146045E+02  0.25500000000E-02 0. -1.
          2   -1    0    0  501    0  0.00000000000E+00 -0.00000000000E+00 -0.17496657103E+04  0.17496657103E+04  0.25500000000E-02 0.  1.
    5000001    1    1    2    0    0 -0.31908777214E+03  0.13658869696E+03 -0.10187206252E+04  0.10944707354E+04  0.19900000000E+03 0.  0.
   -5000001    1    1    2    0    0  0.31908777214E+03 -0.13658869696E+03 -0.63532893906E+03  0.75081112090E+03  0.19900000000E+03 0.  0.
<mgrwt>
<rscale>  0 0.81803739E+03</rscale>
<asrwt>0</asrwt>
<pdfrwt beam="1">  1        2 0.24995223E+00 0.81803739E+03</pdfrwt>
<pdfrwt beam="2">  1       -2 0.13659450E-01 0.81803739E+03</pdfrwt>
<totfact> 0.44797121E+02</totfact>
</mgrwt>
</event>
<event>
 4    1  0.4998754E-005  0.7169187E+03  0.7818608E-02  0.9688729E-01
         -2   -1    0    0    0  501 -0.00000000000E+00  0.00000000000E+00  0.39376912908E+02  0.39376912990E+02  0.25500000000E-02 0. -1.
          2   -1    0    0  501    0  0.00000000000E+00 -0.00000000000E+00 -0.32631581652E+04  0.32631581652E+04  0.25500000000E-02 0.  1.
    5000001    1    1    2    0    0  0.21517759309E+03  0.13801085872E+03 -0.90506071680E+03  0.96129303274E+03  0.19900000000E+03 0.  0.
   -5000001    1    1    2    0    0 -0.21517759309E+03 -0.13801085872E+03 -0.23187205355E+04  0.23412420454E+04  0.19900000000E+03 0.  0.
<mgrwt>
<rscale>  0 0.71691867E+03</rscale>
<asrwt>0</asrwt>
<pdfrwt beam="1">  1        2 0.46616528E+00 0.71691867E+03</pdfrwt>
<pdfrwt beam="2">  1       -2 0.56252753E-02 0.71691867E+03</pdfrwt>
<totfact> 0.30365762E+02</totfact>
</mgrwt>
</event>
<event>
 4    1  0.4998754E-005  0.5047374E+03  0.7818608E-02  0.1012550E+00
         -2   -1    0    0    0  501 -0.00000000000E+00  0.00000000000E+00  0.20838464069E+02  0.20838464225E+02  0.25500000000E-02 0. -1.
          2   -1    0    0  501    0  0.00000000000E+00 -0.00000000000E+00 -0.30563658721E+04  0.30563658721E+04  0.25500000000E-02 0.  1.
    5000001    1    1    2    0    0 -0.92316761742E+02  0.96651521403E+01 -0.22761325401E+04  0.22866998360E+04  0.19900000000E+03 0.  0.
   -5000001    1    1    2    0    0  0.92316761742E+02 -0.96651521403E+01 -0.75939486795E+03  0.79050450039E+03  0.19900000000E+03 0.  0.
<mgrwt>
<rscale>  0 0.50473744E+03</rscale>
<asrwt>0</asrwt>
<pdfrwt beam="1">  1        2 0.43662341E+00 0.50473744E+03</pdfrwt>
<pdfrwt beam="2">  1       -2 0.29769254E-02 0.50473744E+03</pdfrwt>
<totfact> 0.10774630E+03</totfact>
</mgrwt>
</event>
<event>
 4    1  0.4998754E-005  0.5993678E+03  0.7818608E-02  0.9906718E-01
          2   -1    0    0  501    0  0.00000000000E+00  0.00000000000E+00  0.19036220980E+03  0.19036220981E+03  0.25500000000E-02 0.  1.
         -2   -1    0    0    0  501 -0.00000000000E+00 -0.00000000000E+00 -0.47178716889E+03  0.47178716890E+03  0.25500000000E-02 0. -1.
    5000001    1    1    2    0    0 -0.71291890886E+02 -0.21242542369E+03 -0.13901760446E+03  0.33035433808E+03  0.19900000000E+03 0.  0.
   -5000001    1    1    2    0    0  0.71291890886E+02  0.21242542369E+03 -0.14240735463E+03  0.33179504064E+03  0.19900000000E+03 0.  0.
<mgrwt>
<rscale>  0 0.59936783E+03</rscale>
<asrwt>0</asrwt>
<pdfrwt beam="1">  1        2 0.27194602E-01 0.59936783E+03</pdfrwt>
<pdfrwt beam="2">  1       -2 0.67398166E-01 0.59936783E+03</pdfrwt>
<totfact> 0.40546287E+02</totfact>
</mgrwt>
</event>
<event>
 4    1  0.4998754E-005  0.4523085E+03  0.7818608E-02  0.1027036E+00
         -2   -1    0    0    0  501 -0.00000000000E+00  0.00000000000E+00  0.34355098845E+02  0.34355098939E+02  0.25500000000E-02 0. -1.
          2   -1    0    0  501    0  0.00000000000E+00 -0.00000000000E+00 -0.14887378345E+04  0.14887378345E+04  0.25500000000E-02 0.  1.
    5000001    1    1    2    0    0 -0.10185710476E+03 -0.20596605653E+02 -0.81914267680E+03  0.84934964232E+03  0.19900000000E+03 0.  0.
   -5000001    1    1    2    0    0  0.10185710476E+03  0.20596605653E+02 -0.63524005882E+03  0.67374329108E+03  0.19900000000E+03 0.  0.
<mgrwt>
<rscale>  0 0.45230846E+03</rscale>
<asrwt>0</asrwt>
<pdfrwt beam="1">  1        2 0.21267679E+00 0.45230846E+03</pdfrwt>
<pdfrwt beam="2">  1       -2 0.49078722E-02 0.45230846E+03</pdfrwt>
<totfact> 0.31863998E+03</totfact>
</mgrwt>
</event>
<event>
 4    1  0.4998754E-005  0.5102836E+03  0.7818608E-02  0.1011129E+00
          2   -1    0    0  501    0  0.00000000000E+00  0.00000000000E+00  0.74179585260E+03  0.74179585261E+03  0.25500000000E-02 0.  1.
         -2   -1    0    0    0  501 -0.00000000000E+00 -0.00000000000E+00 -0.87756400794E+02  0.87756400831E+02  0.25500000000E-02 0. -1.
    5000001    1    1    2    0    0  0.12723867564E+03 -0.89588150602E+02  0.26884400724E+03  0.36890895562E+03  0.19900000000E+03 0.  0.
   -5000001    1    1    2    0    0 -0.12723867564E+03  0.89588150602E+02  0.38519544457E+03  0.46064329782E+03  0.19900000000E+03 0.  0.
<mgrwt>
<rscale>  0 0.51028358E+03</rscale>
<asrwt>0</asrwt>
<pdfrwt beam="1">  1        2 0.10597085E+00 0.51028358E+03</pdfrwt>
<pdfrwt beam="2">  1       -2 0.12536627E-01 0.51028358E+03</pdfrwt>
<totfact> 0.19783245E+03</totfact>
</mgrwt>
</event>
<event>
 4    1  0.4998754E-005  0.5391495E+03  0.7818608E-02  0.1004037E+00
         -2   -1    0    0    0  501 -0.00000000000E+00  0.00000000000E+00  0.71582120715E+03  0.71582120716E+03  0.25500000000E-02 0. -1.
          2   -1    0    0  501    0  0.00000000000E+00 -0.00000000000E+00 -0.10152053935E+03  0.10152053938E+03  0.25500000000E-02 0.  1.
    5000001    1    1    2    0    0  0.16608119581E+03  0.22803284567E+02  0.20031273685E+03  0.32837348543E+03  0.19900000000E+03 0.  0.
   -5000001    1    1    2    0    0 -0.16608119581E+03 -0.22803284567E+02  0.41398793096E+03  0.48896826110E+03  0.19900000000E+03 0.  0.
<mgrwt>
<rscale>  0 0.53914953E+03</rscale>
<asrwt>0</asrwt>
<pdfrwt beam="1">  1        2 0.14502934E-01 0.53914953E+03</pdfrwt>
<pdfrwt beam="2">  1       -2 0.10226018E+00 0.53914953E+03</pdfrwt>
<totfact> 0.33100786E+02</totfact>
</mgrwt>
</event>
<event>
 4    1  0.4998754E-005  0.7402735E+03  0.7818608E-02  0.9650734E-01
         -2   -1    0    0    0  501 -0.00000000000E+00  0.00000000000E+00  0.93779361190E+02  0.93779361224E+02  0.25500000000E-02 0. -1.
          2   -1    0    0  501    0  0.00000000000E+00 -0.00000000000E+00 -0.14608887964E+04  0.14608887964E+04  0.25500000000E-02 0.  1.
    5000001    1    1    2    0    0  0.22342698971E+03 -0.20828533761E+03 -0.81799262650E+03  0.89555309089E+03  0.19900000000E+03 0.  0.
   -5000001    1    1    2    0    0 -0.22342698971E+03  0.20828533761E+03 -0.54911680873E+03  0.65911506676E+03  0.19900000000E+03 0.  0.
<mgrwt>
<rscale>  0 0.74027351E+03</rscale>
<asrwt>0</asrwt>
<pdfrwt beam="1">  1        2 0.20869839E+00 0.74027351E+03</pdfrwt>
<pdfrwt beam="2">  1       -2 0.13397052E-01 0.74027351E+03</pdfrwt>
<totfact> 0.65611488E+02</totfact>
</mgrwt>
</event>
<event>
 4    1  0.4998754E-005  0.4490232E+03  0.7818608E-02  0.1028014E+00
         -2   -1    0    0    0  501 -0.00000000000E+00  0.00000000000E+00  0.16109734813E+02  0.16109735015E+02  0.25500000000E-02 0. -1.
          2   -1    0    0  501    0  0.00000000000E+00 -0.00000000000E+00 -0.31288824313E+04  0.31288824313E+04  0.25500000000E-02 0.  1.
    5000001    1    1    2    0    0 -0.45506548496E+02 -0.81137998714E+02 -0.18811704801E+04  0.18939529022E+04  0.19900000000E+03 0.  0.
   -5000001    1    1    2    0    0  0.45506548496E+02  0.81137998714E+02 -0.12316022164E+04  0.12510392641E+04  0.19900000000E+03 0.  0.
<mgrwt>
<rscale>  0 0.44902324E+03</rscale>
<asrwt>0</asrwt>
<pdfrwt beam="1">  1        2 0.44698282E+00 0.44902324E+03</pdfrwt>
<pdfrwt beam="2">  1       -2 0.23013927E-02 0.44902324E+03</pdfrwt>
<totfact> 0.14564186E+03</totfact>
</mgrwt>
</event>
<event>
 4    1  0.4998754E-005  0.4826835E+03  0.7818608E-02  0.1018400E+00
          2   -1    0    0  501    0  0.00000000000E+00  0.00000000000E+00  0.19636961789E+03  0.19636961791E+03  0.25500000000E-02 0.  1.
         -2   -1    0    0    0  501 -0.00000000000E+00 -0.00000000000E+00 -0.29661330938E+03  0.29661330939E+03  0.25500000000E-02 0. -1.
    5000001    1    1    2    0    0  0.96833511768E+02  0.96243865906E+02 -0.47785792650E+02  0.24601644804E+03  0.19900000000E+03 0.  0.
   -5000001    1    1    2    0    0 -0.96833511768E+02 -0.96243865906E+02 -0.52457898839E+02  0.24696647926E+03  0.19900000000E+03 0.  0.
<mgrwt>
<rscale>  0 0.48268351E+03</rscale>
<asrwt>0</asrwt>
<pdfrwt beam="1">  1        2 0.28052803E-01 0.48268351E+03</pdfrwt>
<pdfrwt beam="2">  1       -2 0.42373330E-01 0.48268351E+03</pdfrwt>
<totfact> 0.10151757E+03</totfact>
</mgrwt>
</event>
<event>
 4    1  0.4998754E-005  0.5037010E+03  0.7818608E-02  0.1012817E+00
         -2   -1    0    0    0  501 -0.00000000000E+00  0.00000000000E+00  0.10403581973E+03  0.10403581976E+03  0.25500000000E-02 0. -1.
          2   -1    0    0  501    0  0.00000000000E+00 -0.00000000000E+00 -0.60968099668E+03  0.60968099669E+03  0.25500000000E-02 0.  1.
    5000001    1    1    2    0    0 -0.73491785220E+02  0.11783201618E+03 -0.34831920684E+03  0.42451465980E+03  0.19900000000E+03 0.  0.
   -5000001    1    1    2    0    0  0.73491785220E+02 -0.11783201618E+03 -0.15732597012E+03  0.28920215664E+03  0.19900000000E+03 0.  0.
<mgrwt>
<rscale>  0 0.50370095E+03</rscale>
<asrwt>0</asrwt>
<pdfrwt beam="1">  1        2 0.87097283E-01 0.50370095E+03</pdfrwt>
<pdfrwt beam="2">  1       -2 0.14862260E-01 0.50370095E+03</pdfrwt>
<totfact> 0.18883654E+03</totfact>
</mgrwt>
</event>
<event>
 4    1  0.4998754E-005  0.6544087E+03  0.7818608E-02  0.9798541E-01
          2   -1    0    0  501    0  0.00000000000E+00  0.00000000000E+00  0.89230963191E+03  0.89230963191E+03  0.25500000000E-02 0.  1.
         -2   -1    0    0    0  501 -0.00000000000E+00 -0.00000000000E+00 -0.11998380014E+03  0.11998380017E+03  0.25500000000E-02 0. -1.
    5000001    1    1    2    0    0 -0.14664934209E+03  0.19509214460E+03  0.52360693968E+03  0.61100916662E+03  0.19900000000E+03 0.  0.
   -5000001    1    1    2    0    0  0.14664934209E+03 -0.19509214460E+03  0.24871889209E+03  0.40128426546E+03  0.19900000000E+03 0.  0.
<mgrwt>
<rscale>  0 0.65440874E+03</rscale>
<asrwt>0</asrwt>
<pdfrwt beam="1">  1        2 0.12747280E+00 0.65440874E+03</pdfrwt>
<pdfrwt beam="2">  1       -2 0.17140544E-01 0.65440874E+03</pdfrwt>
<totfact> 0.92124000E+02</totfact>
</mgrwt>
</event>
<event>
 4    1  0.4998754E-005  0.6902594E+03  0.7818608E-02  0.9734036E-01
          2   -1    0    0  501    0  0.00000000000E+00  0.00000000000E+00  0.30517652045E+04  0.30517652045E+04  0.25500000000E-02 0.  1.
         -2   -1    0    0    0  501 -0.00000000000E+00 -0.00000000000E+00 -0.39031347314E+02  0.39031347397E+02  0.25500000000E-02 0. -1.
    5000001    1    1    2    0    0  0.42504104387E+02 -0.25582258190E+03  0.10105358897E+04  0.10620901924E+04  0.19900000000E+03 0.  0.
   -5000001    1    1    2    0    0 -0.42504104387E+02  0.25582258190E+03  0.20021979674E+04  0.20287063595E+04  0.19900000000E+03 0.  0.
<mgrwt>
<rscale>  0 0.69025939E+03</rscale>
<asrwt>0</asrwt>
<pdfrwt beam="1">  1        2 0.43596644E+00 0.69025939E+03</pdfrwt>
<pdfrwt beam="2">  1       -2 0.55759070E-02 0.69025939E+03</pdfrwt>
<totfact> 0.40552960E+02</totfact>
</mgrwt>
</event>
<event>
 4    1  0.4998754E-005  0.6472438E+03  0.7818608E-02  0.9811965E-01
         -2   -1    0    0    0  501 -0.00000000000E+00  0.00000000000E+00  0.63291149263E+02  0.63291149314E+02  0.25500000000E-02 0. -1.
          2   -1    0    0  501    0  0.00000000000E+00 -0.00000000000E+00 -0.16547517659E+04  0.16547517659E+04  0.25500000000E-02 0.  1.
    5000001    1    1    2    0    0 -0.23358366782E+01  0.25352805026E+03 -0.71842337100E+03  0.78741035579E+03  0.19900000000E+03 0.  0.
   -5000001    1    1    2    0    0  0.23358366782E+01 -0.25352805026E+03 -0.87303724561E+03  0.93063255940E+03  0.19900000000E+03 0.  0.
<mgrwt>
<rscale>  0 0.64724382E+03</rscale>
<asrwt>0</asrwt>
<pdfrwt beam="1">  1        2 0.23639308E+00 0.64724382E+03</pdfrwt>
<pdfrwt beam="2">  1       -2 0.90415938E-02 0.64724382E+03</pdfrwt>
<totfact> 0.99547009E+02</totfact>
</mgrwt>
</event>
<event>
 4    1  0.4998754E-005  0.5799555E+03  0.7818608E-02  0.9947887E-01
         -2   -1    0    0    0  501 -0.00000000000E+00  0.00000000000E+00  0.47452547860E+02  0.47452547928E+02  0.25500000000E-02 0. -1.
          2   -1    0    0  501    0  0.00000000000E+00 -0.00000000000E+00 -0.17720250263E+04  0.17720250263E+04  0.25500000000E-02 0.  1.
    5000001    1    1    2    0    0  0.12043154751E+03  0.16250765032E+03 -0.10498312421E+04  0.10875013246E+04  0.19900000000E+03 0.  0.
   -5000001    1    1    2    0    0 -0.12043154751E+03 -0.16250765032E+03 -0.67474123634E+03  0.73197624966E+03  0.19900000000E+03 0.  0.
<mgrwt>
<rscale>  0 0.57995552E+03</rscale>
<asrwt>0</asrwt>
<pdfrwt beam="1">  1        2 0.25314639E+00 0.57995552E+03</pdfrwt>
<pdfrwt beam="2">  1       -2 0.67789365E-02 0.57995552E+03</pdfrwt>
<totfact> 0.13769305E+03</totfact>
</mgrwt>
</event>
<event>
 4    1  0.4998754E-005  0.5522421E+03  0.7818608E-02  0.1000976E+00
         -2   -1    0    0    0  501 -0.00000000000E+00  0.00000000000E+00  0.55417802000E+03  0.55417802001E+03  0.25500000000E-02 0. -1.
          2   -1    0    0  501    0  0.00000000000E+00 -0.00000000000E+00 -0.13757823287E+03  0.13757823290E+03  0.25500000000E-02 0.  1.
    5000001    1    1    2    0    0 -0.16081036198E+03  0.93346501586E+02  0.15133210139E+03  0.31157013141E+03  0.19900000000E+03 0.  0.
   -5000001    1    1    2    0    0  0.16081036198E+03 -0.93346501586E+02  0.26526768574E+03  0.38018612149E+03  0.19900000000E+03 0.  0.
<mgrwt>
<rscale>  0 0.55224209E+03</rscale>
<asrwt>0</asrwt>
<pdfrwt beam="1">  1        2 0.19654033E-01 0.55224209E+03</pdfrwt>
<pdfrwt beam="2">  1       -2 0.79168288E-01 0.55224209E+03</pdfrwt>
<totfact> 0.41446529E+02</totfact>
</mgrwt>
</event>
<event>
 4    1  0.4998754E-005  0.5085169E+03  0.7818608E-02  0.1011579E+00
         -2   -1    0    0    0  501 -0.00000000000E+00  0.00000000000E+00  0.25649368735E+02  0.25649368862E+02  0.25500000000E-02 0. -1.
          2   -1    0    0  501    0  0.00000000000E+00 -0.00000000000E+00 -0.25204268143E+04  0.25204268143E+04  0.25500000000E-02 0.  1.
    5000001    1    1    2    0    0  0.19212239888E+02  0.15521399123E+03 -0.11261994188E+04  0.11542905285E+04  0.19900000000E+03 0.  0.
   -5000001    1    1    2    0    0 -0.19212239888E+02 -0.15521399123E+03 -0.13685780268E+04  0.13917856547E+04  0.19900000000E+03 0.  0.
<mgrwt>
<rscale>  0 0.50851689E+03</rscale>
<asrwt>0</asrwt>
<pdfrwt beam="1">  1        2 0.36006082E+00 0.50851689E+03</pdfrwt>
<pdfrwt beam="2">  1       -2 0.36641971E-02 0.50851689E+03</pdfrwt>
<totfact> 0.15049666E+03</totfact>
</mgrwt>
</event>
<event>
 4    1  0.4998754E-005  0.5274283E+03  0.7818608E-02  0.1006858E+00
         -2   -1    0    0    0  501 -0.00000000000E+00  0.00000000000E+00  0.28920522148E+03  0.28920522149E+03  0.25500000000E-02 0. -1.
          2   -1    0    0  501    0  0.00000000000E+00 -0.00000000000E+00 -0.24046989335E+03  0.24046989336E+03  0.25500000000E-02 0.  1.
    5000001    1    1    2    0    0 -0.50417477363E+02 -0.15524664767E+03 -0.33328842486E+02  0.25952891048E+03  0.19900000000E+03 0.  0.
   -5000001    1    1    2    0    0  0.50417477363E+02  0.15524664767E+03  0.82064170620E+02  0.27014620437E+03  0.19900000000E+03 0.  0.
<mgrwt>
<rscale>  0 0.52742828E+03</rscale>
<asrwt>0</asrwt>
<pdfrwt beam="1">  1        2 0.34352842E-01 0.52742828E+03</pdfrwt>
<pdfrwt beam="2">  1       -2 0.41315032E-01 0.52742828E+03</pdfrwt>
<totfact> 0.85069627E+02</totfact>
</mgrwt>
</event>
<event>
 4    1  0.4998754E-005  0.1216318E+04  0.7818608E-02  0.9098692E-01
         -2   -1    0    0    0  501 -0.00000000000E+00  0.00000000000E+00  0.26024321855E+03  0.26024321856E+03  0.25500000000E-02 0. -1.
          2   -1    0    0  501    0  0.00000000000E+00 -0.00000000000E+00 -0.14211979572E+04  0.14211979572E+04  0.25500000000E-02 0.  1.
    5000001    1    1    2    0    0  0.29788240251E+03  0.48309620271E+03 -0.45575225118E+03  0.75460385717E+03  0.19900000000E+03 0.  0.
   -5000001    1    1    2    0    0 -0.29788240251E+03 -0.48309620271E+03 -0.70520248745E+03  0.92683731858E+03  0.19900000000E+03 0.  0.
<mgrwt>
<rscale>  0 0.12163176E+04</rscale>
<asrwt>0</asrwt>
<pdfrwt beam="1">  1        2 0.20302828E+00 0.12163176E+04</pdfrwt>
<pdfrwt beam="2">  1       -2 0.37177603E-01 0.12163176E+04</pdfrwt>
<totfact> 0.10824649E+02</totfact>
</mgrwt>
</event>
<event>
 4    1  0.4998754E-005  0.1118189E+04  0.7818608E-02  0.9187643E-01
         -2   -1    0    0    0  501 -0.00000000000E+00  0.00000000000E+00  0.17567300226E+03  0.17567300228E+03  0.25500000000E-02 0. -1.
          2   -1    0    0  501    0  0.00000000000E+00 -0.00000000000E+00 -0.17793653409E+04  0.17793653409E+04  0.25500000000E-02 0.  1.
    5000001    1    1    2    0    0 -0.28649334306E+03  0.41289070756E+03 -0.55195201047E+03  0.77253426712E+03  0.19900000000E+03 0.  0.
   -5000001    1    1    2    0    0  0.28649334306E+03 -0.41289070756E+03 -0.10517403282E+04  0.11825040761E+04  0.19900000000E+03 0.  0.
<mgrwt>
<rscale>  0 0.11181886E+04</rscale>
<asrwt>0</asrwt>
<pdfrwt beam="1">  1        2 0.25419504E+00 0.11181886E+04</pdfrwt>
<pdfrwt beam="2">  1       -2 0.25096144E-01 0.11181886E+04</pdfrwt>
<totfact> 0.14727549E+02</totfact>
</mgrwt>
</event>
<event>
 4    1  0.4998754E-005  0.7075398E+03  0.7818608E-02  0.9704424E-01
         -2   -1    0    0    0  501 -0.00000000000E+00  0.00000000000E+00  0.90341856731E+02  0.90341856767E+02  0.25500000000E-02 0. -1.
          2   -1    0    0  501    0  0.00000000000E+00 -0.00000000000E+00 -0.13853282438E+04  0.13853282438E+04  0.25500000000E-02 0.  1.
    5000001    1    1    2    0    0 -0.11601796026E+03 -0.26265525206E+03 -0.76369468052E+03  0.83980861724E+03  0.19900000000E+03 0.  0.
   -5000001    1    1    2    0    0  0.11601796026E+03  0.26265525206E+03 -0.53129170655E+03  0.63586148333E+03  0.19900000000E+03 0.  0.
<mgrwt>
<rscale>  0 0.70753975E+03</rscale>
<asrwt>0</asrwt>
<pdfrwt beam="1">  1        2 0.19790402E+00 0.70753975E+03</pdfrwt>
<pdfrwt beam="2">  1       -2 0.12905980E-01 0.70753975E+03</pdfrwt>
<totfact> 0.76711892E+02</totfact>
</mgrwt>
</event>
<event>
 4    1  0.4998754E-005  0.1496370E+04  0.7818608E-02  0.8886870E-01
          2   -1    0    0  501    0  0.00000000000E+00  0.00000000000E+00  0.20115659579E+04  0.20115659579E+04  0.25500000000E-02 0.  1.
         -2   -1    0    0    0  501 -0.00000000000E+00 -0.00000000000E+00 -0.27828111278E+03  0.27828111279E+03  0.25500000000E-02 0. -1.
    5000001    1    1    2    0    0  0.34487248150E+03  0.48466052439E+03  0.24251263005E+03  0.67249254876E+03  0.19900000000E+03 0.  0.
   -5000001    1    1    2    0    0 -0.34487248150E+03 -0.48466052439E+03  0.14907722151E+04  0.16173545219E+04  0.19900000000E+03 0.  0.
<mgrwt>
<rscale>  0 0.14963700E+04</rscale>
<asrwt>0</asrwt>
<pdfrwt beam="1">  1        2 0.28736657E+00 0.14963700E+04</pdfrwt>
<pdfrwt beam="2">  1       -2 0.39754444E-01 0.14963700E+04</pdfrwt>
<totfact> 0.45846489E+01</totfact>
</mgrwt>
</event>
<event>
 4    1  0.4998754E-005  0.5589801E+03  0.7818608E-02  0.9994365E-01
         -2   -1    0    0    0  501 -0.00000000000E+00  0.00000000000E+00  0.36186673999E+02  0.36186674089E+02  0.25500000000E-02 0. -1.
          2   -1    0    0  501    0  0.00000000000E+00 -0.00000000000E+00 -0.21586590503E+04  0.21586590503E+04  0.25500000000E-02 0.  1.
    5000001    1    1    2    0    0 -0.17754386251E+03  0.40328350068E+02 -0.77362058784E+03  0.81929116489E+03  0.19900000000E+03 0.  0.
   -5000001    1    1    2    0    0  0.17754386251E+03 -0.40328350068E+02 -0.13488517884E+04  0.13755545595E+04  0.19900000000E+03 0.  0.
<mgrwt>
<rscale>  0 0.55898011E+03</rscale>
<asrwt>0</asrwt>
<pdfrwt beam="1">  1        2 0.30837978E+00 0.55898011E+03</pdfrwt>
<pdfrwt beam="2">  1       -2 0.51695262E-02 0.55898011E+03</pdfrwt>
<totfact> 0.13466417E+03</totfact>
</mgrwt>
</event>
<event>
 4    1  0.4998754E-005  0.5111568E+03  0.7818608E-02  0.1010907E+00
         -2   -1    0    0    0  501 -0.00000000000E+00  0.00000000000E+00  0.95440015513E+02  0.95440015547E+02  0.25500000000E-02 0. -1.
          2   -1    0    0  501    0  0.00000000000E+00 -0.00000000000E+00 -0.68441220318E+03  0.68441220318E+03  0.25500000000E-02 0.  1.
    5000001    1    1    2    0    0 -0.83979303651E+02 -0.93900545385E+02 -0.44589964465E+03  0.50427901896E+03  0.19900000000E+03 0.  0.
   -5000001    1    1    2    0    0  0.83979303651E+02  0.93900545385E+02 -0.14307254301E+03  0.27557319977E+03  0.19900000000E+03 0.  0.
<mgrwt>
<rscale>  0 0.51115677E+03</rscale>
<asrwt>0</asrwt>
<pdfrwt beam="1">  1        2 0.97773169E-01 0.51115677E+03</pdfrwt>
<pdfrwt beam="2">  1       -2 0.13634288E-01 0.51115677E+03</pdfrwt>
<totfact> 0.19001335E+03</totfact>
</mgrwt>
</event>
<event>
 4    1  0.4998754E-005  0.4357125E+03  0.7818608E-02  0.1032070E+00
         -2   -1    0    0    0  501 -0.00000000000E+00  0.00000000000E+00  0.19547204504E+02  0.19547204670E+02  0.25500000000E-02 0. -1.
          2   -1    0    0  501    0  0.00000000000E+00 -0.00000000000E+00 -0.24280378559E+04  0.24280378559E+04  0.25500000000E-02 0.  1.
    5000001    1    1    2    0    0 -0.60784924194E+02 -0.55515808730E+02 -0.10193353445E+04  0.10418360507E+04  0.19900000000E+03 0.  0.
   -5000001    1    1    2    0    0  0.60784924194E+02  0.55515808730E+02 -0.13891553069E+04  0.14057490099E+04  0.19900000000E+03 0.  0.
<mgrwt>
<rscale>  0 0.43571253E+03</rscale>
<asrwt>0</asrwt>
<pdfrwt beam="1">  1        2 0.34686236E+00 0.43571253E+03</pdfrwt>
<pdfrwt beam="2">  1       -2 0.27924594E-02 0.43571253E+03</pdfrwt>
<totfact> 0.25416031E+03</totfact>
</mgrwt>
</event>
<event>
 4    1  0.4998754E-005  0.5267908E+03  0.7818608E-02  0.1007013E+00
          2   -1    0    0  501    0  0.00000000000E+00  0.00000000000E+00  0.17288038885E+04  0.17288038885E+04  0.25500000000E-02 0.  1.
         -2   -1    0    0    0  501 -0.00000000000E+00 -0.00000000000E+00 -0.40130141144E+02  0.40130141225E+02  0.25500000000E-02 0. -1.
    5000001    1    1    2    0    0 -0.53507521813E+02  0.67091171255E+02  0.13470409662E+04  0.13643623583E+04  0.19900000000E+03 0.  0.
   -5000001    1    1    2    0    0  0.53507521813E+02 -0.67091171255E+02  0.34163278113E+03  0.40457167140E+03  0.19900000000E+03 0.  0.
<mgrwt>
<rscale>  0 0.52679083E+03</rscale>
<asrwt>0</asrwt>
<pdfrwt beam="1">  1        2 0.24697190E+00 0.52679083E+03</pdfrwt>
<pdfrwt beam="2">  1       -2 0.57328792E-02 0.52679083E+03</pdfrwt>
<totfact> 0.18866136E+03</totfact>
</mgrwt>
</event>
<event>
 4    1  0.4998754E-005  0.5250903E+03  0.7818608E-02  0.1007430E+00
         -2   -1    0    0    0  501 -0.00000000000E+00  0.00000000000E+00  0.45220795446E+02  0.45220795518E+02  0.25500000000E-02 0. -1.
          2   -1    0    0  501    0  0.00000000000E+00 -0.00000000000E+00 -0.15242978801E+04  0.15242978801E+04  0.25500000000E-02 0.  1.
    5000001    1    1    2    0    0  0.69030785450E+02  0.15259291812E+03 -0.84644088297E+03  0.88550156203E+03  0.19900000000E+03 0.  0.
   -5000001    1    1    2    0    0 -0.69030785450E+02 -0.15259291812E+03 -0.63263620171E+03  0.68401711361E+03  0.19900000000E+03 0.  0.
<mgrwt>
<rscale>  0 0.52509033E+03</rscale>
<asrwt>0</asrwt>
<pdfrwt beam="1">  1        2 0.21775681E+00 0.52509033E+03</pdfrwt>
<pdfrwt beam="2">  1       -2 0.64601146E-02 0.52509033E+03</pdfrwt>
<totfact> 0.19906635E+03</totfact>
</mgrwt>
</event>
<event>
 4    1  0.4998754E-005  0.6657957E+03  0.7818608E-02  0.9777583E-01
         -2   -1    0    0    0  501 -0.00000000000E+00  0.00000000000E+00  0.18699725560E+03  0.18699725562E+03  0.25500000000E-02 0. -1.
          2   -1    0    0  501    0  0.00000000000E+00 -0.00000000000E+00 -0.59263424724E+03  0.59263424725E+03  0.25500000000E-02 0.  1.
    5000001    1    1    2    0    0  0.15407756869E+03 -0.14577121187E+03 -0.39246919497E+03  0.48848972598E+03  0.19900000000E+03 0.  0.
   -5000001    1    1    2    0    0 -0.15407756869E+03  0.14577121187E+03 -0.13167796666E+02  0.29114177689E+03  0.19900000000E+03 0.  0.
<mgrwt>
<rscale>  0 0.66579570E+03</rscale>
<asrwt>0</asrwt>
<pdfrwt beam="1">  1        2 0.84662034E-01 0.66579570E+03</pdfrwt>
<pdfrwt beam="2">  1       -2 0.26713894E-01 0.66579570E+03</pdfrwt>
<totfact> 0.70208520E+02</totfact>
</mgrwt>
</event>
<event>
 4    1  0.4998754E-005  0.7448140E+03  0.7818608E-02  0.9643522E-01
          2   -1    0    0  501    0  0.00000000000E+00  0.00000000000E+00  0.14359208624E+04  0.14359208624E+04  0.25500000000E-02 0.  1.
         -2   -1    0    0    0  501 -0.00000000000E+00 -0.00000000000E+00 -0.96583984702E+02  0.96583984736E+02  0.25500000000E-02 0. -1.
    5000001    1    1    2    0    0  0.46080775504E+02 -0.28799773920E+03  0.42604149682E+03  0.55333397931E+03  0.19900000000E+03 0.  0.
   -5000001    1    1    2    0    0 -0.46080775504E+02  0.28799773920E+03  0.91329538088E+03  0.97917086782E+03  0.19900000000E+03 0.  0.
<mgrwt>
<rscale>  0 0.74481396E+03</rscale>
<asrwt>0</asrwt>
<pdfrwt beam="1">  1        2 0.20513155E+00 0.74481396E+03</pdfrwt>
<pdfrwt beam="2">  1       -2 0.13797712E-01 0.74481396E+03</pdfrwt>
<totfact> 0.64372750E+02</totfact>
</mgrwt>
</event>
<event>
 4    1  0.4998754E-005  0.4924727E+03  0.7818608E-02  0.1015763E+00
         -2   -1    0    0    0  501 -0.00000000000E+00  0.00000000000E+00  0.46146862253E+02  0.46146862323E+02  0.25500000000E-02 0. -1.
          2   -1    0    0  501    0  0.00000000000E+00 -0.00000000000E+00 -0.13138997092E+04  0.13138997092E+04  0.25500000000E-02 0.  1.
    5000001    1    1    2    0    0  0.95625804619E+02  0.73745470299E+02 -0.41210461961E+03  0.47330107374E+03  0.19900000000E+03 0.  0.
   -5000001    1    1    2    0    0 -0.95625804619E+02 -0.73745470299E+02 -0.85564822735E+03  0.88674549779E+03  0.19900000000E+03 0.  0.
<mgrwt>
<rscale>  0 0.49247274E+03</rscale>
<asrwt>0</asrwt>
<pdfrwt beam="1">  1        2 0.18769993E+00 0.49247274E+03</pdfrwt>
<pdfrwt beam="2">  1       -2 0.65924098E-02 0.49247274E+03</pdfrwt>
<totfact> 0.24899147E+03</totfact>
</mgrwt>
</event>
<event>
 4    1  0.4998754E-005  0.5716592E+03  0.7818608E-02  0.9966014E-01
         -2   -1    0    0    0  501 -0.00000000000E+00  0.00000000000E+00  0.33288486349E+02  0.33288486447E+02  0.25500000000E-02 0. -1.
          2   -1    0    0  501    0  0.00000000000E+00 -0.00000000000E+00 -0.24542585290E+04  0.24542585290E+04  0.25500000000E-02 0.  1.
    5000001    1    1    2    0    0  0.46873924470E+02  0.11306023528E+02 -0.20782975186E+04  0.20883597790E+04  0.19900000000E+03 0.  0.
   -5000001    1    1    2    0    0 -0.46873924470E+02 -0.11306023528E+02 -0.34267252409E+03  0.39918723643E+03  0.19900000000E+03 0.  0.
<mgrwt>
<rscale>  0 0.57165917E+03</rscale>
<asrwt>0</asrwt>
<pdfrwt beam="1">  1        2 0.35060825E+00 0.57165917E+03</pdfrwt>
<pdfrwt beam="2">  1       -2 0.47554996E-02 0.57165917E+03</pdfrwt>
<totfact> 0.10854531E+03</totfact>
</mgrwt>
</event>
<event>
 4    1  0.4998754E-005  0.8593844E+03  0.7818608E-02  0.9477827E-01
          2   -1    0    0  501    0  0.00000000000E+00  0.00000000000E+00  0.37957000524E+04  0.37957000524E+04  0.25500000000E-02 0.  1.
         -2   -1    0    0    0  501 -0.00000000000E+00 -0.00000000000E+00 -0.48643302234E+02  0.48643302301E+02  0.25500000000E-02 0. -1.
    5000001    1    1    2    0    0 -0.70830565618E+02 -0.26737297904E+03  0.30445697476E+04  0.30635781738E+04  0.19900000000E+03 0.  0.
   -5000001    1    1    2    0    0  0.70830565618E+02  0.26737297904E+03  0.70248700258E+03  0.78076518092E+03  0.19900000000E+03 0.  0.
<mgrwt>
<rscale>  0 0.85938440E+03</rscale>
<asrwt>0</asrwt>
<pdfrwt beam="1">  1        2 0.54224267E+00 0.85938440E+03</pdfrwt>
<pdfrwt beam="2">  1       -2 0.69490456E-02 0.85938440E+03</pdfrwt>
<totfact> 0.10218946E+02</totfact>
</mgrwt>
</event>
<event>
 4    1  0.4998754E-005  0.9426768E+03  0.7818608E-02  0.9373751E-01
          2   -1    0    0  501    0  0.00000000000E+00  0.00000000000E+00  0.22613166790E+04  0.22613166790E+04  0.25500000000E-02 0.  1.
         -2   -1    0    0    0  501 -0.00000000000E+00 -0.00000000000E+00 -0.98243604288E+02  0.98243604321E+02  0.25500000000E-02 0. -1.
    5000001    1    1    2    0    0 -0.35202082122E+03 -0.57060025752E+02  0.49247325003E+03  0.63976980790E+03  0.19900000000E+03 0.  0.
   -5000001    1    1    2    0    0  0.35202082122E+03  0.57060025752E+02  0.16705998246E+04  0.17197904754E+04  0.19900000000E+03 0.  0.
<mgrwt>
<rscale>  0 0.94267683E+03</rscale>
<asrwt>0</asrwt>
<pdfrwt beam="1">  1        2 0.32304523E+00 0.94267683E+03</pdfrwt>
<pdfrwt beam="2">  1       -2 0.14034801E-01 0.94267683E+03</pdfrwt>
<totfact> 0.23287876E+02</totfact>
</mgrwt>
</event>
<event>
 4    1  0.4998754E-005  0.5416526E+03  0.7818608E-02  0.1003445E+00
          2   -1    0    0  501    0  0.00000000000E+00  0.00000000000E+00  0.22015461751E+03  0.22015461752E+03  0.25500000000E-02 0.  1.
         -2   -1    0    0    0  501 -0.00000000000E+00 -0.00000000000E+00 -0.33316083379E+03  0.33316083380E+03  0.25500000000E-02 0. -1.
    5000001    1    1    2    0    0  0.14045997840E+03  0.11812517028E+03 -0.64632766332E+02  0.27831808398E+03  0.19900000000E+03 0.  0.
   -5000001    1    1    2    0    0 -0.14045997840E+03 -0.11812517028E+03 -0.48373449948E+02  0.27499736734E+03  0.19900000000E+03 0.  0.
<mgrwt>
<rscale>  0 0.54165264E+03</rscale>
<asrwt>0</asrwt>
<pdfrwt beam="1">  1        2 0.31450660E-01 0.54165264E+03</pdfrwt>
<pdfrwt beam="2">  1       -2 0.47594405E-01 0.54165264E+03</pdfrwt>
<totfact> 0.70966564E+02</totfact>
</mgrwt>
</event>
<event>
 4    1  0.4998754E-005  0.9182785E+03  0.7818608E-02  0.9403016E-01
         -2   -1    0    0    0  501 -0.00000000000E+00  0.00000000000E+00  0.14336164769E+03  0.14336164771E+03  0.25500000000E-02 0. -1.
          2   -1    0    0  501    0  0.00000000000E+00 -0.00000000000E+00 -0.14704689752E+04  0.14704689752E+04  0.25500000000E-02 0.  1.
    5000001    1    1    2    0    0 -0.30598307218E+03 -0.50220878946E+02 -0.11450445125E+04  0.12028614686E+04  0.19900000000E+03 0.  0.
   -5000001    1    1    2    0    0  0.30598307218E+03  0.50220878946E+02 -0.18206281500E+03  0.41096915426E+03  0.19900000000E+03 0.  0.
<mgrwt>
<rscale>  0 0.91827851E+03</rscale>
<asrwt>0</asrwt>
<pdfrwt beam="1">  1        2 0.21006699E+00 0.91827851E+03</pdfrwt>
<pdfrwt beam="2">  1       -2 0.20480236E-01 0.91827851E+03</pdfrwt>
<totfact> 0.31060488E+02</totfact>
</mgrwt>
</event>
<event>
 4    1  0.4998754E-005  0.4641013E+03  0.7818608E-02  0.1023598E+00
          2   -1    0    0  501    0  0.00000000000E+00  0.00000000000E+00  0.18217997978E+04  0.18217997978E+04  0.25500000000E-02 0.  1.
         -2   -1    0    0    0  501 -0.00000000000E+00 -0.00000000000E+00 -0.29557309266E+02  0.29557309376E+02  0.25500000000E-02 0. -1.
    5000001    1    1    2    0    0  0.36626225137E+02 -0.11359099865E+03  0.90190864138E+03  0.93128115666E+03  0.19900000000E+03 0.  0.
   -5000001    1    1    2    0    0 -0.36626225137E+02  0.11359099865E+03  0.89033384711E+03  0.92007595048E+03  0.19900000000E+03 0.  0.
<mgrwt>
<rscale>  0 0.46410128E+03</rscale>
<asrwt>0</asrwt>
<pdfrwt beam="1">  1        2 0.26025714E+00 0.46410128E+03</pdfrwt>
<pdfrwt beam="2">  1       -2 0.42224723E-02 0.46410128E+03</pdfrwt>
<totfact> 0.27213849E+03</totfact>
</mgrwt>
</event>
<event>
 4    1  0.4998754E-005  0.5138369E+03  0.7818608E-02  0.1010229E+00
         -2   -1    0    0    0  501 -0.00000000000E+00  0.00000000000E+00  0.40112307290E+03  0.40112307291E+03  0.25500000000E-02 0. -1.
          2   -1    0    0  501    0  0.00000000000E+00 -0.00000000000E+00 -0.16455572177E+03  0.16455572179E+03  0.25500000000E-02 0.  1.
    5000001    1    1    2    0    0  0.67923162960E+02  0.14121546779E+03  0.70923162459E+02  0.26303319065E+03  0.19900000000E+03 0.  0.
   -5000001    1    1    2    0    0 -0.67923162960E+02 -0.14121546779E+03  0.16564418867E+03  0.30264560405E+03  0.19900000000E+03 0.  0.
<mgrwt>
<rscale>  0 0.51383693E+03</rscale>
<asrwt>0</asrwt>
<pdfrwt beam="1">  1        2 0.23507960E-01 0.51383693E+03</pdfrwt>
<pdfrwt beam="2">  1       -2 0.57303296E-01 0.51383693E+03</pdfrwt>
<totfact> 0.67548098E+02</totfact>
</mgrwt>
</event>
<event>
 4    1  0.4998754E-005  0.4797587E+03  0.7818608E-02  0.1019202E+00
         -2   -1    0    0    0  501 -0.00000000000E+00  0.00000000000E+00  0.55331142076E+02  0.55331142135E+02  0.25500000000E-02 0. -1.
          2   -1    0    0  501    0  0.00000000000E+00 -0.00000000000E+00 -0.10399586034E+04  0.10399586034E+04  0.25500000000E-02 0.  1.
    5000001    1    1    2    0    0 -0.11504991480E+03 -0.27858929078E-01 -0.33572223852E+03  0.40687455697E+03  0.19900000000E+03 0.  0.
   -5000001    1    1    2    0    0  0.11504991480E+03  0.27858929078E-01 -0.64890522280E+03  0.68841518857E+03  0.19900000000E+03 0.  0.
<mgrwt>
<rscale>  0 0.47975868E+03</rscale>
<asrwt>0</asrwt>
<pdfrwt beam="1">  1        2 0.14856550E+00 0.47975868E+03</pdfrwt>
<pdfrwt beam="2">  1       -2 0.79044495E-02 0.47975868E+03</pdfrwt>
<totfact> 0.26665412E+03</totfact>
</mgrwt>
</event>
<event>
 4    1  0.4998754E-005  0.4700745E+03  0.7818608E-02  0.1021899E+00
         -2   -1    0    0    0  501 -0.00000000000E+00  0.00000000000E+00  0.32485255721E+02  0.32485255821E+02  0.25500000000E-02 0. -1.
          2   -1    0    0  501    0  0.00000000000E+00 -0.00000000000E+00 -0.17005410997E+04  0.17005410997E+04  0.25500000000E-02 0.  1.
    5000001    1    1    2    0    0 -0.18962533300E+02 -0.12019648925E+03 -0.72751218383E+03  0.76399067489E+03  0.19900000000E+03 0.  0.
   -5000001    1    1    2    0    0  0.18962533300E+02  0.12019648925E+03 -0.94054366018E+03  0.96903568067E+03  0.19900000000E+03 0.  0.
<mgrwt>
<rscale>  0 0.47007452E+03</rscale>
<asrwt>0</asrwt>
<pdfrwt beam="1">  1        2 0.24293439E+00 0.47007452E+03</pdfrwt>
<pdfrwt beam="2">  1       -2 0.46407519E-02 0.47007452E+03</pdfrwt>
<totfact> 0.27079775E+03</totfact>
</mgrwt>
</event>
<event>
 4    1  0.4998754E-005  0.5954819E+03  0.7818608E-02  0.9914824E-01
         -2   -1    0    0    0  501 -0.00000000000E+00  0.00000000000E+00  0.23250106034E+03  0.23250106035E+03  0.25500000000E-02 0. -1.
          2   -1    0    0  501    0  0.00000000000E+00 -0.00000000000E+00 -0.38128713101E+03  0.38128713101E+03  0.25500000000E-02 0.  1.
    5000001    1    1    2    0    0  0.12922371861E+03  0.17933454447E+03 -0.88563919148E+02  0.31032920596E+03  0.19900000000E+03 0.  0.
   -5000001    1    1    2    0    0 -0.12922371861E+03 -0.17933454447E+03 -0.60222151519E+02  0.30345898541E+03  0.19900000000E+03 0.  0.
<mgrwt>
<rscale>  0 0.59548186E+03</rscale>
<asrwt>0</asrwt>
<pdfrwt beam="1">  1        2 0.54469590E-01 0.59548186E+03</pdfrwt>
<pdfrwt beam="2">  1       -2 0.33214437E-01 0.59548186E+03</pdfrwt>
<totfact> 0.77571117E+02</totfact>
</mgrwt>
</event>
<event>
 4    1  0.4998754E-005  0.7002327E+03  0.7818608E-02  0.9716834E-01
         -2   -1    0    0    0  501 -0.00000000000E+00  0.00000000000E+00  0.45174703337E+02  0.45174703409E+02  0.25500000000E-02 0. -1.
          2   -1    0    0  501    0  0.00000000000E+00 -0.00000000000E+00 -0.27134976566E+04  0.27134976566E+04  0.25500000000E-02 0.  1.
    5000001    1    1    2    0    0  0.24276850682E+03 -0.44154505900E+02 -0.19197569464E+04  0.19457527853E+04  0.19900000000E+03 0.  0.
   -5000001    1    1    2    0    0 -0.24276850682E+03  0.44154505900E+02 -0.74856600683E+03  0.81291957467E+03  0.19900000000E+03 0.  0.
<mgrwt>
<rscale>  0 0.70023268E+03</rscale>
<asrwt>0</asrwt>
<pdfrwt beam="1">  1        2 0.38764242E+00 0.70023268E+03</pdfrwt>
<pdfrwt beam="2">  1       -2 0.64535308E-02 0.70023268E+03</pdfrwt>
<totfact> 0.48961238E+02</totfact>
</mgrwt>
</event>
<event>
 4    1  0.4998754E-005  0.7638707E+03  0.7818608E-02  0.9613837E-01
          2   -1    0    0  501    0  0.00000000000E+00  0.00000000000E+00  0.96753346128E+03  0.96753346129E+03  0.25500000000E-02 0. -1.
         -2   -1    0    0    0  501 -0.00000000000E+00 -0.00000000000E+00 -0.15076957684E+03  0.15076957686E+03  0.25500000000E-02 0.  1.
    5000001    1    1    2    0    0 -0.88599927487E+02  0.29603134335E+03  0.25631584234E+03  0.44808851183E+03  0.19900000000E+03 0.  0.
   -5000001    1    1    2    0    0  0.88599927487E+02 -0.29603134335E+03  0.56044804211E+03  0.67021452633E+03  0.19900000000E+03 0.  0.
<mgrwt>
<rscale>  0 0.76387070E+03</rscale>
<asrwt>0</asrwt>
<pdfrwt beam="1">  1        2 0.13821907E+00 0.76387070E+03</pdfrwt>
<pdfrwt beam="2">  1       -2 0.21538511E-01 0.76387070E+03</pdfrwt>
<totfact> 0.55271635E+02</totfact>
</mgrwt>
</event>
<event>
 4    1  0.4998754E-005  0.5306786E+03  0.7818608E-02  0.1006068E+00
         -2   -1    0    0    0  501 -0.00000000000E+00  0.00000000000E+00  0.25349568461E+02  0.25349568589E+02  0.25500000000E-02 0. -1.
          2   -1    0    0  501    0  0.00000000000E+00 -0.00000000000E+00 -0.27773626010E+04  0.27773626010E+04  0.25500000000E-02 0.  1.
    5000001    1    1    2    0    0  0.15990957153E+03 -0.72295329746E+02 -0.13892181950E+04  0.14143287733E+04  0.19900000000E+03 0.  0.
   -5000001    1    1    2    0    0 -0.15990957153E+03  0.72295329746E+02 -0.13627948376E+04  0.13883833963E+04  0.19900000000E+03 0.  0.
<mgrwt>
<rscale>  0 0.53067860E+03</rscale>
<asrwt>0</asrwt>
<pdfrwt beam="1">  1        2 0.39676589E+00 0.53067860E+03</pdfrwt>
<pdfrwt beam="2">  1       -2 0.36213687E-02 0.53067860E+03</pdfrwt>
<totfact> 0.11257865E+03</totfact>
</mgrwt>
</event>
<event>
 4    1  0.4998754E-005  0.6632187E+03  0.7818608E-02  0.9782287E-01
         -2   -1    0    0    0  501 -0.00000000000E+00  0.00000000000E+00  0.58260195747E+02  0.58260195802E+02  0.25500000000E-02 0. -1.
          2   -1    0    0  501    0  0.00000000000E+00 -0.00000000000E+00 -0.18874765355E+04  0.18874765355E+04  0.25500000000E-02 0.  1.
    5000001    1    1    2    0    0  0.26436493492E+03  0.10143224661E+02 -0.85801979729E+03  0.91966878623E+03  0.19900000000E+03 0.  0.
   -5000001    1    1    2    0    0 -0.26436493492E+03 -0.10143224661E+02 -0.97119654249E+03  0.10260679451E+04  0.19900000000E+03 0.  0.
<mgrwt>
<rscale>  0 0.66321867E+03</rscale>
<asrwt>0</asrwt>
<pdfrwt beam="1">  1        2 0.26963947E+00 0.66321867E+03</pdfrwt>
<pdfrwt beam="2">  1       -2 0.83228863E-02 0.66321867E+03</pdfrwt>
<totfact> 0.86548836E+02</totfact>
</mgrwt>
</event>
<event>
 4    1  0.4998754E-005  0.6390887E+03  0.7818608E-02  0.9827472E-01
         -2   -1    0    0    0  501 -0.00000000000E+00  0.00000000000E+00  0.41874165990E+02  0.41874166068E+02  0.25500000000E-02 0. -1.
          2   -1    0    0  501    0  0.00000000000E+00 -0.00000000000E+00 -0.24384627816E+04  0.24384627816E+04  0.25500000000E-02 0.  1.
    5000001    1    1    2    0    0 -0.17575728612E+03  0.17685235273E+03 -0.12698802252E+04  0.13093372998E+04  0.19900000000E+03 0.  0.
   -5000001    1    1    2    0    0  0.17575728612E+03 -0.17685235273E+03 -0.11267083904E+04  0.11709996478E+04  0.19900000000E+03 0.  0.
<mgrwt>
<rscale>  0 0.63908871E+03</rscale>
<asrwt>0</asrwt>
<pdfrwt beam="1">  1        2 0.34835174E+00 0.63908871E+03</pdfrwt>
<pdfrwt beam="2">  1       -2 0.59820252E-02 0.63908871E+03</pdfrwt>
<totfact> 0.76993228E+02</totfact>
</mgrwt>
</event>
<event>
 4    1  0.4998754E-005  0.6371523E+03  0.7818608E-02  0.9831190E-01
          2   -1    0    0  501    0  0.00000000000E+00  0.00000000000E+00  0.61033393542E+03  0.61033393543E+03  0.25500000000E-02 0.  1.
         -2   -1    0    0    0  501 -0.00000000000E+00 -0.00000000000E+00 -0.16628729176E+03  0.16628729178E+03  0.25500000000E-02 0. -1.
    5000001    1    1    2    0    0  0.64606748897E+02  0.20120819564E+03  0.38202380866E+03  0.47979366438E+03  0.19900000000E+03 0.  0.
   -5000001    1    1    2    0    0 -0.64606748897E+02 -0.20120819564E+03  0.62022835002E+02  0.29682756283E+03  0.19900000000E+03 0.  0.
<mgrwt>
<rscale>  0 0.63715234E+03</rscale>
<asrwt>0</asrwt>
<pdfrwt beam="1">  1        2 0.87190563E-01 0.63715234E+03</pdfrwt>
<pdfrwt beam="2">  1       -2 0.23755327E-01 0.63715234E+03</pdfrwt>
<totfact> 0.83817269E+02</totfact>
</mgrwt>
</event>
<event>
 4    1  0.4998754E-005  0.5079796E+03  0.7818608E-02  0.1011717E+00
         -2   -1    0    0    0  501 -0.00000000000E+00  0.00000000000E+00  0.11230537275E+03  0.11230537278E+03  0.25500000000E-02 0. -1.
          2   -1    0    0  501    0  0.00000000000E+00 -0.00000000000E+00 -0.57442317477E+03  0.57442317478E+03  0.25500000000E-02 0.  1.
    5000001    1    1    2    0    0 -0.50630209380E+01 -0.15655840969E+03 -0.25719043661E+03  0.36094887520E+03  0.19900000000E+03 0.  0.
   -5000001    1    1    2    0    0  0.50630209380E+01  0.15655840969E+03 -0.20492736542E+03  0.32577967236E+03  0.19900000000E+03 0.  0.
<mgrwt>
<rscale>  0 0.50797956E+03</rscale>
<asrwt>0</asrwt>
<pdfrwt beam="1">  1        2 0.82060452E-01 0.50797956E+03</pdfrwt>
<pdfrwt beam="2">  1       -2 0.16043625E-01 0.50797956E+03</pdfrwt>
<totfact> 0.17798451E+03</totfact>
</mgrwt>
</event>
<event>
 4    1  0.4998754E-005  0.5614405E+03  0.7818608E-02  0.9988801E-01
          2   -1    0    0  501    0  0.00000000000E+00  0.00000000000E+00  0.50686895093E+03  0.50686895094E+03  0.25500000000E-02 0.  1.
         -2   -1    0    0    0  501 -0.00000000000E+00 -0.00000000000E+00 -0.15547185279E+03  0.15547185281E+03  0.25500000000E-02 0. -1.
    5000001    1    1    2    0    0  0.36090604648E+02  0.74874244791E+02  0.38770049713E+03  0.44364553390E+03  0.19900000000E+03 0.  0.
   -5000001    1    1    2    0    0 -0.36090604648E+02 -0.74874244791E+02 -0.36303398990E+02  0.21869526985E+03  0.19900000000E+03 0.  0.
<mgrwt>
<rscale>  0 0.56144049E+03</rscale>
<asrwt>0</asrwt>
<pdfrwt beam="1">  1        2 0.72409850E-01 0.56144049E+03</pdfrwt>
<pdfrwt beam="2">  1       -2 0.22210265E-01 0.56144049E+03</pdfrwt>
<totfact> 0.11724050E+03</totfact>
</mgrwt>
</event>
<event>
 4    1  0.4998754E-005  0.1098920E+04  0.7818608E-02  0.9206246E-01
          2   -1    0    0  501    0  0.00000000000E+00  0.00000000000E+00  0.29158433436E+04  0.29158433436E+04  0.25500000000E-02 0.  1.
         -2   -1    0    0    0  501 -0.00000000000E+00 -0.00000000000E+00 -0.10353986631E+03  0.10353986635E+03  0.25500000000E-02 0. -1.
    5000001    1    1    2    0    0 -0.44779664982E+03  0.10976810496E+03  0.20188966480E+04  0.20804123514E+04  0.19900000000E+03 0.  0.
   -5000001    1    1    2    0    0  0.44779664982E+03 -0.10976810496E+03  0.79340682921E+03  0.93897085849E+03  0.19900000000E+03 0.  0.
<mgrwt>
<rscale>  0 0.10989195E+04</rscale>
<asrwt>0</asrwt>
<pdfrwt beam="1">  1        2 0.41654895E+00 0.10989195E+04</pdfrwt>
<pdfrwt beam="2">  1       -2 0.14791413E-01 0.10989195E+04</pdfrwt>
<totfact> 0.95116719E+01</totfact>
</mgrwt>
</event>
<event>
 4    1  0.4998754E-005  0.5916928E+03  0.7818608E-02  0.9922792E-01
         -2   -1    0    0    0  501 -0.00000000000E+00  0.00000000000E+00  0.42186126609E+02  0.42186126686E+02  0.25500000000E-02 0. -1.
          2   -1    0    0  501    0  0.00000000000E+00 -0.00000000000E+00 -0.20747365559E+04  0.20747365559E+04  0.25500000000E-02 0.  1.
    5000001    1    1    2    0    0 -0.36081753669E+02 -0.13435790670E+03 -0.41154032678E+03  0.47782881936E+03  0.19900000000E+03 0.  0.
   -5000001    1    1    2    0    0  0.36081753669E+02  0.13435790670E+03 -0.16210101025E+04  0.16390938632E+04  0.19900000000E+03 0.  0.
<mgrwt>
<rscale>  0 0.59169282E+03</rscale>
<asrwt>0</asrwt>
<pdfrwt beam="1">  1        2 0.29639087E+00 0.59169282E+03</pdfrwt>
<pdfrwt beam="2">  1       -2 0.60265908E-02 0.59169282E+03</pdfrwt>
<totfact> 0.11661048E+03</totfact>
</mgrwt>
</event>
<event>
 4    1  0.4998754E-005  0.5355855E+03  0.7818608E-02  0.1004886E+00
         -2   -1    0    0    0  501 -0.00000000000E+00  0.00000000000E+00  0.28753012348E+03  0.28753012349E+03  0.25500000000E-02 0. -1.
          2   -1    0    0  501    0  0.00000000000E+00 -0.00000000000E+00 -0.24941026762E+03  0.24941026764E+03  0.25500000000E-02 0.  1.
    5000001    1    1    2    0    0  0.16964273599E+03 -0.55784987312E+02  0.41447129359E+01  0.26741129619E+03  0.19900000000E+03 0.  0.
   -5000001    1    1    2    0    0 -0.16964273599E+03  0.55784987312E+02  0.33975142919E+02  0.26952909494E+03  0.19900000000E+03 0.  0.
<mgrwt>
<rscale>  0 0.53558553E+03</rscale>
<asrwt>0</asrwt>
<pdfrwt beam="1">  1        2 0.35630038E-01 0.53558553E+03</pdfrwt>
<pdfrwt beam="2">  1       -2 0.41075732E-01 0.53558553E+03</pdfrwt>
<totfact> 0.82620593E+02</totfact>
</mgrwt>
</event>
<event>
 4    1  0.4998754E-005  0.9297509E+03  0.7818608E-02  0.9389137E-01
          2   -1    0    0  501    0  0.00000000000E+00  0.00000000000E+00  0.20753924198E+04  0.20753924198E+04  0.25500000000E-02 0. -1.
         -2   -1    0    0    0  501 -0.00000000000E+00 -0.00000000000E+00 -0.10412931264E+03  0.10412931268E+03  0.25500000000E-02 0.  1.
    5000001    1    1    2    0    0 -0.19094086125E+03  0.36854612698E+03  0.83328515978E+03  0.95197154249E+03  0.19900000000E+03 0.  0.
   -5000001    1    1    2    0    0  0.19094086125E+03 -0.36854612698E+03  0.11379779473E+04  0.12275501899E+04  0.19900000000E+03 0.  0.
<mgrwt>
<rscale>  0 0.92975090E+03</rscale>
<asrwt>0</asrwt>
<pdfrwt beam="1">  1        2 0.29648463E+00 0.92975090E+03</pdfrwt>
<pdfrwt beam="2">  1       -2 0.14875616E-01 0.92975090E+03</pdfrwt>
<totfact> 0.26286766E+02</totfact>
</mgrwt>
</event>
<event>
 4    1  0.4998754E-005  0.5212321E+03  0.7818608E-02  0.1008381E+00
          2   -1    0    0  501    0  0.00000000000E+00  0.00000000000E+00  0.18316576236E+04  0.18316576236E+04  0.25500000000E-02 0.  1.
         -2   -1    0    0    0  501 -0.00000000000E+00 -0.00000000000E+00 -0.37081566385E+02  0.37081566472E+02  0.25500000000E-02 0. -1.
    5000001    1    1    2    0    0  0.76845983336E+02 -0.14435210802E+03  0.10396582825E+04  0.10710897164E+04  0.19900000000E+03 0.  0.
   -5000001    1    1    2    0    0 -0.76845983336E+02  0.14435210802E+03  0.75491777474E+03  0.79764947368E+03  0.19900000000E+03 0.  0.
<mgrwt>
<rscale>  0 0.52123213E+03</rscale>
<asrwt>0</asrwt>
<pdfrwt beam="1">  1        2 0.26166544E+00 0.52123213E+03</pdfrwt>
<pdfrwt beam="2">  1       -2 0.52973653E-02 0.52123213E+03</pdfrwt>
<totfact> 0.18937984E+03</totfact>
</mgrwt>
</event>
<event>
 4    1  0.4998754E-005  0.4314284E+03  0.7818608E-02  0.1033410E+00
         -2   -1    0    0    0  501 -0.00000000000E+00  0.00000000000E+00  0.23712971102E+02  0.23712971239E+02  0.25500000000E-02 0. -1.
          2   -1    0    0  501    0  0.00000000000E+00 -0.00000000000E+00 -0.19623279814E+04  0.19623279814E+04  0.25500000000E-02 0.  1.
    5000001    1    1    2    0    0  0.84982653597E+01 -0.65242771400E+02 -0.12041619280E+04  0.12222666602E+04  0.19900000000E+03 0.  0.
   -5000001    1    1    2    0    0 -0.84982653597E+01  0.65242771400E+02 -0.73445308230E+03  0.76377429247E+03  0.19900000000E+03 0.  0.
<mgrwt>
<rscale>  0 0.43142845E+03</rscale>
<asrwt>0</asrwt>
<pdfrwt beam="1">  1        2 0.28033247E+00 0.43142845E+03</pdfrwt>
<pdfrwt beam="2">  1       -2 0.33875685E-02 0.43142845E+03</pdfrwt>
<totfact> 0.32420389E+03</totfact>
</mgrwt>
</event>
<event>
 4    1  0.4998754E-005  0.6090295E+03  0.7818608E-02  0.9886848E-01
         -2   -1    0    0    0  501 -0.00000000000E+00  0.00000000000E+00  0.48325906586E+02  0.48325906653E+02  0.25500000000E-02 0. -1.
          2   -1    0    0  501    0  0.00000000000E+00 -0.00000000000E+00 -0.19188308792E+04  0.19188308792E+04  0.25500000000E-02 0.  1.
    5000001    1    1    2    0    0  0.13139579431E+03 -0.78616982217E+02 -0.37876840546E+03  0.45443590267E+03  0.19900000000E+03 0.  0.
   -5000001    1    1    2    0    0 -0.13139579431E+03  0.78616982217E+02 -0.14917365672E+04  0.15127208832E+04  0.19900000000E+03 0.  0.
<mgrwt>
<rscale>  0 0.60902953E+03</rscale>
<asrwt>0</asrwt>
<pdfrwt beam="1">  1        2 0.27411865E+00 0.60902953E+03</pdfrwt>
<pdfrwt beam="2">  1       -2 0.69037022E-02 0.60902953E+03</pdfrwt>
<totfact> 0.11267724E+03</totfact>
</mgrwt>
</event>
<event>
 4    1  0.4998754E-005  0.4892075E+03  0.7818608E-02  0.1016635E+00
          2   -1    0    0  501    0  0.00000000000E+00  0.00000000000E+00  0.97114921274E+03  0.97114921274E+03  0.25500000000E-02 0.  1.
         -2   -1    0    0    0  501 -0.00000000000E+00 -0.00000000000E+00 -0.61608440875E+02  0.61608440928E+02  0.25500000000E-02 0. -1.
    5000001    1    1    2    0    0 -0.25747526926E+02  0.13281901227E+03  0.36211899674E+03  0.43478154625E+03  0.19900000000E+03 0.  0.
   -5000001    1    1    2    0    0  0.25747526926E+02 -0.13281901227E+03  0.54742177513E+03  0.59797610742E+03  0.19900000000E+03 0.  0.
<mgrwt>
<rscale>  0 0.48920748E+03</rscale>
<asrwt>0</asrwt>
<pdfrwt beam="1">  1        2 0.13873559E+00 0.48920748E+03</pdfrwt>
<pdfrwt beam="2">  1       -2 0.88012065E-02 0.48920748E+03</pdfrwt>
<totfact> 0.24729531E+03</totfact>
</mgrwt>
</event>
<event>
 4    1  0.4998754E-005  0.5745086E+03  0.7818608E-02  0.9959751E-01
          2   -1    0    0  501    0  0.00000000000E+00  0.00000000000E+00  0.13564780153E+04  0.13564780153E+04  0.25500000000E-02 0.  1.
         -2   -1    0    0    0  501 -0.00000000000E+00 -0.00000000000E+00 -0.60830340364E+02  0.60830340417E+02  0.25500000000E-02 0. -1.
    5000001    1    1    2    0    0 -0.17476056968E+03  0.58829405194E+02  0.88071452261E+03  0.92155370216E+03  0.19900000000E+03 0.  0.
   -5000001    1    1    2    0    0  0.17476056968E+03 -0.58829405194E+02  0.41493315235E+03  0.49575465358E+03  0.19900000000E+03 0.  0.
<mgrwt>
<rscale>  0 0.57450855E+03</rscale>
<asrwt>0</asrwt>
<pdfrwt beam="1">  1        2 0.19378260E+00 0.57450855E+03</pdfrwt>
<pdfrwt beam="2">  1       -2 0.86900472E-02 0.57450855E+03</pdfrwt>
<totfact> 0.15225507E+03</totfact>
</mgrwt>
</event>
<event>
 4    1  0.4998754E-005  0.1038530E+04  0.7818608E-02  0.9267267E-01
         -2   -1    0    0    0  501 -0.00000000000E+00  0.00000000000E+00  0.38102611391E+03  0.38102611392E+03  0.25500000000E-02 0. -1.
          2   -1    0    0  501    0  0.00000000000E+00 -0.00000000000E+00 -0.70765761588E+03  0.70765761589E+03  0.25500000000E-02 0.  1.
    5000001    1    1    2    0    0 -0.24447841835E+03 -0.13511827624E+03  0.24539545679E+03  0.42171859791E+03  0.19900000000E+03 0.  0.
   -5000001    1    1    2    0    0  0.24447841835E+03  0.13511827624E+03 -0.57202695876E+03  0.66696513190E+03  0.19900000000E+03 0.  0.
<mgrwt>
<rscale>  0 0.10385298E+04</rscale>
<asrwt>0</asrwt>
<pdfrwt beam="1">  1        2 0.10109394E+00 0.10385298E+04</pdfrwt>
<pdfrwt beam="2">  1       -2 0.54432302E-01 0.10385298E+04</pdfrwt>
<totfact> 0.14057599E+02</totfact>
</mgrwt>
</event>
<event>
 4    1  0.4998754E-005  0.5420592E+03  0.7818608E-02  0.1003349E+00
          2   -1    0    0  501    0  0.00000000000E+00  0.00000000000E+00  0.24137752141E+03  0.24137752142E+03  0.25500000000E-02 0.  1.
         -2   -1    0    0    0  501 -0.00000000000E+00 -0.00000000000E+00 -0.30432426579E+03  0.30432426580E+03  0.25500000000E-02 0. -1.
    5000001    1    1    2    0    0 -0.13485666489E+03  0.11166076058E+03  0.25489467869E+02  0.26628022550E+03  0.19900000000E+03 0.  0.
   -5000001    1    1    2    0    0  0.13485666489E+03 -0.11166076058E+03 -0.88436212244E+02  0.27942156172E+03  0.19900000000E+03 0.  0.
<mgrwt>
<rscale>  0 0.54205917E+03</rscale>
<asrwt>0</asrwt>
<pdfrwt beam="1">  1        2 0.34482503E-01 0.54205917E+03</pdfrwt>
<pdfrwt beam="2">  1       -2 0.43474895E-01 0.54205917E+03</pdfrwt>
<totfact> 0.76664357E+02</totfact>
</mgrwt>
</event>
<event>
 4    1  0.4998754E-005  0.5249586E+03  0.7818608E-02  0.1007462E+00
          2   -1    0    0  501    0  0.00000000000E+00  0.00000000000E+00  0.19884902461E+04  0.19884902461E+04  0.25500000000E-02 0.  1.
         -2   -1    0    0    0  501 -0.00000000000E+00 -0.00000000000E+00 -0.34647084971E+02  0.34647085065E+02  0.25500000000E-02 0. -1.
    5000001    1    1    2    0    0 -0.99122225331E+01 -0.12025195991E+03  0.14447474836E+04  0.14633711346E+04  0.19900000000E+03 0.  0.
   -5000001    1    1    2    0    0  0.99122225331E+01  0.12025195991E+03  0.50909567755E+03  0.55976619665E+03  0.19900000000E+03 0.  0.
<mgrwt>
<rscale>  0 0.52495863E+03</rscale>
<asrwt>0</asrwt>
<pdfrwt beam="1">  1        2 0.28407010E+00 0.52495863E+03</pdfrwt>
<pdfrwt beam="2">  1       -2 0.49495825E-02 0.52495863E+03</pdfrwt>
<totfact> 0.17556414E+03</totfact>
</mgrwt>
</event>
<event>
 4    1  0.4998754E-005  0.1060257E+04  0.7818608E-02  0.9244818E-01
          2   -1    0    0  501    0  0.00000000000E+00  0.00000000000E+00  0.23969395671E+04  0.23969395671E+04  0.25500000000E-02 0.  1.
         -2   -1    0    0    0  501 -0.00000000000E+00 -0.00000000000E+00 -0.11724801490E+03  0.11724801493E+03  0.25500000000E-02 0. -1.
    5000001    1    1    2    0    0  0.16951816448E+03 -0.38380359479E+03  0.17462394650E+04  0.18069296823E+04  0.19900000000E+03 0.  0.
   -5000001    1    1    2    0    0 -0.16951816448E+03  0.38380359479E+03  0.53345208721E+03  0.70725789979E+03  0.19900000000E+03 0.  0.
<mgrwt>
<rscale>  0 0.10602573E+04</rscale>
<asrwt>0</asrwt>
<pdfrwt beam="1">  1        2 0.34241995E+00 0.10602573E+04</pdfrwt>
<pdfrwt beam="2">  1       -2 0.16749716E-01 0.10602573E+04</pdfrwt>
<totfact> 0.14545252E+02</totfact>
</mgrwt>
</event>
<event>
 4    1  0.4998754E-005  0.5950118E+03  0.7818608E-02  0.9915809E-01
          2   -1    0    0  501    0  0.00000000000E+00  0.00000000000E+00  0.22801156247E+04  0.22801156247E+04  0.25500000000E-02 0.  1.
         -2   -1    0    0    0  501 -0.00000000000E+00 -0.00000000000E+00 -0.38818103044E+02  0.38818103127E+02  0.25500000000E-02 0. -1.
    5000001    1    1    2    0    0 -0.16985755628E+03  0.12799877357E+03  0.88443670520E+03  0.93116301525E+03  0.19900000000E+03 0.  0.
   -5000001    1    1    2    0    0  0.16985755628E+03 -0.12799877357E+03  0.13568608165E+04  0.13877707126E+04  0.19900000000E+03 0.  0.
<mgrwt>
<rscale>  0 0.59501181E+03</rscale>
<asrwt>0</asrwt>
<pdfrwt beam="1">  1        2 0.32573088E+00 0.59501181E+03</pdfrwt>
<pdfrwt beam="2">  1       -2 0.55454420E-02 0.59501181E+03</pdfrwt>
<totfact> 0.10464457E+03</totfact>
</mgrwt>
</event>
<event>
 4    1  0.4998754E-005  0.1280202E+04  0.7818608E-02  0.9045414E-01
         -2   -1    0    0    0  501 -0.00000000000E+00  0.00000000000E+00  0.10693704985E+04  0.10693704985E+04  0.25500000000E-02 0.  1.
          2   -1    0    0  501    0  0.00000000000E+00 -0.00000000000E+00 -0.38315008519E+03  0.38315008519E+03  0.25500000000E-02 0. -1.
    5000001    1    1    2    0    0 -0.56342285464E+03  0.15488032392E+03  0.15091252881E+03  0.63545953390E+03  0.19900000000E+03 0.  0.
   -5000001    1    1    2    0    0  0.56342285464E+03 -0.15488032392E+03  0.53530788446E+03  0.81706104976E+03  0.19900000000E+03 0.  0.
<mgrwt>
<rscale>  0 0.12802022E+04</rscale>
<asrwt>0</asrwt>
<pdfrwt beam="1">  1        2 0.54735726E-01 0.12802022E+04</pdfrwt>
<pdfrwt beam="2">  1       -2 0.15276721E+00 0.12802022E+04</pdfrwt>
<totfact> 0.25430682E+01</totfact>
</mgrwt>
</event>
<event>
 4    1  0.4998754E-005  0.5499380E+03  0.7818608E-02  0.1001508E+00
         -2   -1    0    0    0  501 -0.00000000000E+00  0.00000000000E+00  0.28451460785E+03  0.28451460786E+03  0.25500000000E-02 0. -1.
          2   -1    0    0  501    0  0.00000000000E+00 -0.00000000000E+00 -0.26574368747E+03  0.26574368749E+03  0.25500000000E-02 0.  1.
    5000001    1    1    2    0    0 -0.15783852881E+03 -0.34329259802E+02  0.10901986071E+03  0.27852796858E+03  0.19900000000E+03 0.  0.
   -5000001    1    1    2    0    0  0.15783852881E+03  0.34329259802E+02 -0.90248940329E+02  0.27173032677E+03  0.19900000000E+03 0.  0.
<mgrwt>
<rscale>  0 0.54993804E+03</rscale>
<asrwt>0</asrwt>
<pdfrwt beam="1">  1        2 0.37963384E-01 0.54993804E+03</pdfrwt>
<pdfrwt beam="2">  1       -2 0.40644944E-01 0.54993804E+03</pdfrwt>
<totfact> 0.78606674E+02</totfact>
</mgrwt>
</event>
<event>
 4    1  0.4998754E-005  0.7091918E+03  0.7818608E-02  0.9701641E-01
         -2   -1    0    0    0  501 -0.00000000000E+00  0.00000000000E+00  0.72007619136E+02  0.72007619181E+02  0.25500000000E-02 0. -1.
          2   -1    0    0  501    0  0.00000000000E+00 -0.00000000000E+00 -0.17461800619E+04  0.17461800619E+04  0.25500000000E-02 0.  1.
    5000001    1    1    2    0    0  0.17133164822E+03 -0.21564918046E+03 -0.57717035336E+03  0.66976542125E+03  0.19900000000E+03 0.  0.
   -5000001    1    1    2    0    0 -0.17133164822E+03  0.21564918046E+03 -0.10970020894E+04  0.11484222599E+04  0.19900000000E+03 0.  0.
<mgrwt>
<rscale>  0 0.70919185E+03</rscale>
<asrwt>0</asrwt>
<pdfrwt beam="1">  1        2 0.24945427E+00 0.70919185E+03</pdfrwt>
<pdfrwt beam="2">  1       -2 0.10286804E-01 0.70919185E+03</pdfrwt>
<totfact> 0.72307246E+02</totfact>
</mgrwt>
</event>
<event>
 4    1  0.4998754E-005  0.6120241E+03  0.7818608E-02  0.9880769E-01
          2   -1    0    0  501    0  0.00000000000E+00  0.00000000000E+00  0.13986595518E+04  0.13986595518E+04  0.25500000000E-02 0.  1.
         -2   -1    0    0    0  501 -0.00000000000E+00 -0.00000000000E+00 -0.66952232162E+02  0.66952232210E+02  0.25500000000E-02 0. -1.
    5000001    1    1    2    0    0  0.17400343864E+02 -0.20828244892E+03  0.42213489602E+03  0.51135430078E+03  0.19900000000E+03 0.  0.
   -5000001    1    1    2    0    0 -0.17400343864E+02  0.20828244892E+03  0.90957242366E+03  0.95425748327E+03  0.19900000000E+03 0.  0.
<mgrwt>
<rscale>  0 0.61202411E+03</rscale>
<asrwt>0</asrwt>
<pdfrwt beam="1">  1        2 0.19980851E+00 0.61202411E+03</pdfrwt>
<pdfrwt beam="2">  1       -2 0.95646047E-02 0.61202411E+03</pdfrwt>
<totfact> 0.12375588E+03</totfact>
</mgrwt>
</event>
<event>
 4    1  0.4998754E-005  0.5484538E+03  0.7818608E-02  0.1001852E+00
         -2   -1    0    0    0  501 -0.00000000000E+00  0.00000000000E+00  0.22701871210E+03  0.22701871211E+03  0.25500000000E-02 0. -1.
          2   -1    0    0  501    0  0.00000000000E+00 -0.00000000000E+00 -0.33125197757E+03  0.33125197758E+03  0.25500000000E-02 0.  1.
    5000001    1    1    2    0    0  0.28099915056E+02  0.18119999165E+03 -0.97368578397E+02  0.28758421768E+03  0.19900000000E+03 0.  0.
   -5000001    1    1    2    0    0 -0.28099915056E+02 -0.18119999165E+03 -0.68646870798E+01  0.27068647201E+03  0.19900000000E+03 0.  0.
<mgrwt>
<rscale>  0 0.54845382E+03</rscale>
<asrwt>0</asrwt>
<pdfrwt beam="1">  1        2 0.47321711E-01 0.54845382E+03</pdfrwt>
<pdfrwt beam="2">  1       -2 0.32431245E-01 0.54845382E+03</pdfrwt>
<totfact> 0.94789462E+02</totfact>
</mgrwt>
</event>
<event>
 4    1  0.4998754E-005  0.4281357E+03  0.7818608E-02  0.1034450E+00
          2   -1    0    0  501    0  0.00000000000E+00  0.00000000000E+00  0.21862105325E+04  0.21862105325E+04  0.25500000000E-02 0.  1.
         -2   -1    0    0    0  501 -0.00000000000E+00 -0.00000000000E+00 -0.20960950701E+02  0.20960950856E+02  0.25500000000E-02 0. -1.
    5000001    1    1    2    0    0 -0.63044839382E+02 -0.14555853320E+02  0.13153300819E+04  0.13318711458E+04  0.19900000000E+03 0.  0.
   -5000001    1    1    2    0    0  0.63044839382E+02  0.14555853320E+02  0.84991949992E+03  0.87530033759E+03  0.19900000000E+03 0.  0.
<mgrwt>
<rscale>  0 0.42813573E+03</rscale>
<asrwt>0</asrwt>
<pdfrwt beam="1">  1        2 0.31231577E+00 0.42813573E+03</pdfrwt>
<pdfrwt beam="2">  1       -2 0.29944217E-02 0.42813573E+03</pdfrwt>
<totfact> 0.30245110E+03</totfact>
</mgrwt>
</event>
<event>
 4    1  0.4998754E-005  0.2026671E+04  0.7818608E-02  0.8594252E-01
          2   -1    0    0  501    0  0.00000000000E+00  0.00000000000E+00  0.40956159075E+04  0.40956159075E+04  0.25500000000E-02 0.  1.
         -2   -1    0    0    0  501 -0.00000000000E+00 -0.00000000000E+00 -0.25071892563E+03  0.25071892564E+03  0.25500000000E-02 0. -1.
    5000001    1    1    2    0    0 -0.80975325841E+03 -0.10851905377E+03  0.70973182487E+03  0.11003622075E+04  0.19900000000E+03 0.  0.
   -5000001    1    1    2    0    0  0.80975325841E+03  0.10851905377E+03  0.31351651570E+04  0.32459726256E+04  0.19900000000E+03 0.  0.
<mgrwt>
<rscale>  0 0.20266706E+04</rscale>
<asrwt>0</asrwt>
<pdfrwt beam="1">  1        2 0.58508802E+00 0.20266706E+04</pdfrwt>
<pdfrwt beam="2">  1       -2 0.35816987E-01 0.20266706E+04</pdfrwt>
<totfact> 0.33543983E+00</totfact>
</mgrwt>
</event>
<event>
 4    1  0.4998754E-005  0.6788695E+03  0.7818608E-02  0.9754066E-01
          2   -1    0    0  501    0  0.00000000000E+00  0.00000000000E+00  0.29945469786E+03  0.29945469788E+03  0.25500000000E-02 0.  1.
         -2   -1    0    0    0  501 -0.00000000000E+00 -0.00000000000E+00 -0.38475256417E+03  0.38475256417E+03  0.25500000000E-02 0. -1.
    5000001    1    1    2    0    0 -0.80992528760E+02 -0.25313665269E+03 -0.11375154194E+03  0.35096775913E+03  0.19900000000E+03 0.  0.
   -5000001    1    1    2    0    0  0.80992528760E+02  0.25313665269E+03  0.28453675639E+02  0.33323950292E+03  0.19900000000E+03 0.  0.
<mgrwt>
<rscale>  0 0.67886954E+03</rscale>
<asrwt>0</asrwt>
<pdfrwt beam="1">  1        2 0.42779243E-01 0.67886954E+03</pdfrwt>
<pdfrwt beam="2">  1       -2 0.54964652E-01 0.67886954E+03</pdfrwt>
<totfact> 0.37524790E+02</totfact>
</mgrwt>
</event>
<event>
 4    1  0.4998754E-005  0.5128774E+03  0.7818608E-02  0.1010471E+00
          2   -1    0    0  501    0  0.00000000000E+00  0.00000000000E+00  0.22499806000E+03  0.22499806001E+03  0.25500000000E-02 0.  1.
         -2   -1    0    0    0  501 -0.00000000000E+00 -0.00000000000E+00 -0.29227274980E+03  0.29227274981E+03  0.25500000000E-02 0. -1.
    5000001    1    1    2    0    0  0.76405051247E+02 -0.14070211389E+03 -0.56746170252E+02  0.26164086942E+03  0.19900000000E+03 0.  0.
   -5000001    1    1    2    0    0 -0.76405051247E+02  0.14070211389E+03 -0.10528519555E+02  0.25562994041E+03  0.19900000000E+03 0.  0.
<mgrwt>
<rscale>  0 0.51287738E+03</rscale>
<asrwt>0</asrwt>
<pdfrwt beam="1">  1        2 0.32142580E-01 0.51287738E+03</pdfrwt>
<pdfrwt beam="2">  1       -2 0.41753250E-01 0.51287738E+03</pdfrwt>
<totfact> 0.89736375E+02</totfact>
</mgrwt>
</event>
<event>
 4    1  0.4998754E-005  0.4761152E+03  0.7818608E-02  0.1020208E+00
         -2   -1    0    0    0  501 -0.00000000000E+00  0.00000000000E+00  0.22901330107E+02  0.22901330249E+02  0.25500000000E-02 0. -1.
          2   -1    0    0  501    0  0.00000000000E+00 -0.00000000000E+00 -0.24745906719E+04  0.24745906719E+04  0.25500000000E-02 0.  1.
    5000001    1    1    2    0    0 -0.68145036649E+02  0.21124444134E+02 -0.17999985077E+04  0.18123701653E+04  0.19900000000E+03 0.  0.
   -5000001    1    1    2    0    0  0.68145036649E+02 -0.21124444134E+02 -0.65169083409E+03  0.68512183690E+03  0.19900000000E+03 0.  0.
<mgrwt>
<rscale>  0 0.47611519E+03</rscale>
<asrwt>0</asrwt>
<pdfrwt beam="1">  1        2 0.35351278E+00 0.47611519E+03</pdfrwt>
<pdfrwt beam="2">  1       -2 0.32716202E-02 0.47611519E+03</pdfrwt>
<totfact> 0.18907827E+03</totfact>
</mgrwt>
</event>
<event>
 4    1  0.4998754E-005  0.5398282E+03  0.7818608E-02  0.1003876E+00
         -2   -1    0    0    0  501 -0.00000000000E+00  0.00000000000E+00  0.11886663184E+04  0.11886663184E+04  0.25500000000E-02 0. -1.
          2   -1    0    0  501    0  0.00000000000E+00 -0.00000000000E+00 -0.61290216539E+02  0.61290216592E+02  0.25500000000E-02 0.  1.
    5000001    1    1    2    0    0 -0.85182935588E+02  0.87954546176E+02  0.25079532247E+03  0.34277022695E+03  0.19900000000E+03 0.  0.
   -5000001    1    1    2    0    0  0.85182935588E+02 -0.87954546176E+02  0.87658077934E+03  0.90718630800E+03  0.19900000000E+03 0.  0.
<mgrwt>
<rscale>  0 0.53982818E+03</rscale>
<asrwt>0</asrwt>
<pdfrwt beam="1">  1        2 0.87557450E-02 0.53982818E+03</pdfrwt>
<pdfrwt beam="2">  1       -2 0.16980948E+00 0.53982818E+03</pdfrwt>
<totfact> 0.17197377E+02</totfact>
</mgrwt>
</event>
<event>
 4    1  0.4998754E-005  0.9221639E+03  0.7818608E-02  0.9398292E-01
         -2   -1    0    0    0  501 -0.00000000000E+00  0.00000000000E+00  0.92683330299E+03  0.92683330299E+03  0.25500000000E-02 0. -1.
          2   -1    0    0  501    0  0.00000000000E+00 -0.00000000000E+00 -0.22937950985E+03  0.22937950986E+03  0.25500000000E-02 0.  1.
    5000001    1    1    2    0    0  0.34857978414E+03  0.14885952485E+03  0.56344809062E+03  0.70763110083E+03  0.19900000000E+03 0.  0.
   -5000001    1    1    2    0    0 -0.34857978414E+03 -0.14885952485E+03  0.13400570252E+03  0.44858171202E+03  0.19900000000E+03 0.  0.
<mgrwt>
<rscale>  0 0.92216391E+03</rscale>
<asrwt>0</asrwt>
<pdfrwt beam="1">  1        2 0.32768502E-01 0.92216391E+03</pdfrwt>
<pdfrwt beam="2">  1       -2 0.13240476E+00 0.92216391E+03</pdfrwt>
<totfact> 0.66920457E+01</totfact>
</mgrwt>
</event>
<event>
 4    1  0.4998754E-005  0.5580632E+03  0.7818608E-02  0.9996447E-01
         -2   -1    0    0    0  501 -0.00000000000E+00  0.00000000000E+00  0.30479260933E+03  0.30479260934E+03  0.25500000000E-02 0. -1.
          2   -1    0    0  501    0  0.00000000000E+00 -0.00000000000E+00 -0.25544788944E+03  0.25544788945E+03  0.25500000000E-02 0.  1.
    5000001    1    1    2    0    0  0.12300793829E+03  0.14935447281E+03  0.53418276867E+02  0.28265212494E+03  0.19900000000E+03 0.  0.
   -5000001    1    1    2    0    0 -0.12300793829E+03 -0.14935447281E+03 -0.40735569737E+01  0.27758837385E+03  0.19900000000E+03 0.  0.
<mgrwt>
<rscale>  0 0.55806318E+03</rscale>
<asrwt>0</asrwt>
<pdfrwt beam="1">  1        2 0.36492556E-01 0.55806318E+03</pdfrwt>
<pdfrwt beam="2">  1       -2 0.43541801E-01 0.55806318E+03</pdfrwt>
<totfact> 0.71767746E+02</totfact>
</mgrwt>
</event>
<event>
 4    1  0.4998754E-005  0.4216459E+03  0.7818608E-02  0.1036532E+00
         -2   -1    0    0    0  501 -0.00000000000E+00  0.00000000000E+00  0.13109478473E+02  0.13109478721E+02  0.25500000000E-02 0. -1.
          2   -1    0    0  501    0  0.00000000000E+00 -0.00000000000E+00 -0.33903958608E+04  0.33903958608E+04  0.25500000000E-02 0.  1.
    5000001    1    1    2    0    0 -0.22524367534E+02 -0.24716683748E+02 -0.21814330268E+04  0.21907462911E+04  0.19900000000E+03 0.  0.
   -5000001    1    1    2    0    0  0.22524367534E+02  0.24716683748E+02 -0.11958533555E+04  0.12127590484E+04  0.19900000000E+03 0.  0.
<mgrwt>
<rscale>  0 0.42164593E+03</rscale>
<asrwt>0</asrwt>
<pdfrwt beam="1">  1        2 0.48434171E+00 0.42164593E+03</pdfrwt>
<pdfrwt beam="2">  1       -2 0.18727848E-02 0.42164593E+03</pdfrwt>
<totfact> 0.14161260E+03</totfact>
</mgrwt>
</event>
<event>
 4    1  0.4998754E-005  0.4605458E+03  0.7818608E-02  0.1024623E+00
          2   -1    0    0  501    0  0.00000000000E+00  0.00000000000E+00  0.68449829547E+03  0.68449829547E+03  0.25500000000E-02 0. -1.
         -2   -1    0    0    0  501 -0.00000000000E+00 -0.00000000000E+00 -0.77466379482E+02  0.77466379524E+02  0.25500000000E-02 0.  1.
    5000001    1    1    2    0    0 -0.65884825284E+02 -0.92657147384E+02  0.26657809497E+03  0.35155517046E+03  0.19900000000E+03 0.  0.
   -5000001    1    1    2    0    0  0.65884825284E+02  0.92657147384E+02  0.34045382102E+03  0.41040950454E+03  0.19900000000E+03 0.  0.
<mgrwt>
<rscale>  0 0.46054578E+03</rscale>
<asrwt>0</asrwt>
<pdfrwt beam="1">  1        2 0.97785477E-01 0.46054578E+03</pdfrwt>
<pdfrwt beam="2">  1       -2 0.11066625E-01 0.46054578E+03</pdfrwt>
<totfact> 0.26748667E+03</totfact>
</mgrwt>
</event>
<event>
 4    1  0.4998754E-005  0.4342045E+03  0.7818608E-02  0.1032540E+00
         -2   -1    0    0    0  501 -0.00000000000E+00  0.00000000000E+00  0.88312049408E+02  0.88312049444E+02  0.25500000000E-02 0. -1.
          2   -1    0    0  501    0  0.00000000000E+00 -0.00000000000E+00 -0.53371413926E+03  0.53371413926E+03  0.25500000000E-02 0.  1.
    5000001    1    1    2    0    0 -0.86679790980E+02  0.10169554684E+01 -0.21662840776E+03  0.30666478019E+03  0.19900000000E+03 0.  0.
   -5000001    1    1    2    0    0  0.86679790980E+02 -0.10169554684E+01 -0.22877368209E+03  0.31536140851E+03  0.19900000000E+03 0.  0.
<mgrwt>
<rscale>  0 0.43420451E+03</rscale>
<asrwt>0</asrwt>
<pdfrwt beam="1">  1        2 0.76244875E-01 0.43420451E+03</pdfrwt>
<pdfrwt beam="2">  1       -2 0.12616007E-01 0.43420451E+03</pdfrwt>
<totfact> 0.28861347E+03</totfact>
</mgrwt>
</event>
<event>
 4    1  0.4998754E-005  0.8895631E+03  0.7818608E-02  0.9438723E-01
          2   -1    0    0  501    0  0.00000000000E+00  0.00000000000E+00  0.21582839776E+04  0.21582839776E+04  0.25500000000E-02 0.  1.
         -2   -1    0    0    0  501 -0.00000000000E+00 -0.00000000000E+00 -0.91661070317E+02  0.91661070353E+02  0.25500000000E-02 0. -1.
    5000001    1    1    2    0    0 -0.50155042210E+02 -0.36709157749E+03  0.66715332588E+03  0.78864841011E+03  0.19900000000E+03 0.  0.
   -5000001    1    1    2    0    0  0.50155042210E+02  0.36709157749E+03  0.13994695814E+04  0.14612966379E+04  0.19900000000E+03 0.  0.
<mgrwt>
<rscale>  0 0.88956308E+03</rscale>
<asrwt>0</asrwt>
<pdfrwt beam="1">  1        2 0.30832626E+00 0.88956308E+03</pdfrwt>
<pdfrwt beam="2">  1       -2 0.13094440E-01 0.88956308E+03</pdfrwt>
<totfact> 0.29646065E+02</totfact>
</mgrwt>
</event>
<event>
 4    1  0.4998754E-005  0.4866682E+03  0.7818608E-02  0.1017318E+00
         -2   -1    0    0    0  501 -0.00000000000E+00  0.00000000000E+00  0.98407492478E+02  0.98407492511E+02  0.25500000000E-02 0. -1.
          2   -1    0    0  501    0  0.00000000000E+00 -0.00000000000E+00 -0.60169700957E+03  0.60169700957E+03  0.25500000000E-02 0.  1.
    5000001    1    1    2    0    0 -0.10112822970E+03  0.22911013707E+01 -0.11233147540E+03  0.24990303790E+03  0.19900000000E+03 0.  0.
   -5000001    1    1    2    0    0  0.10112822970E+03 -0.22911013707E+01 -0.39095804169E+03  0.45020146418E+03  0.19900000000E+03 0.  0.
<mgrwt>
<rscale>  0 0.48666824E+03</rscale>
<asrwt>0</asrwt>
<pdfrwt beam="1">  1        2 0.85956714E-01 0.48666824E+03</pdfrwt>
<pdfrwt beam="2">  1       -2 0.14058214E-01 0.48666824E+03</pdfrwt>
<totfact> 0.21040820E+03</totfact>
</mgrwt>
</event>
<event>
 4    1  0.4998754E-005  0.5994258E+03  0.7818608E-02  0.9906598E-01
          2   -1    0    0  501    0  0.00000000000E+00  0.00000000000E+00  0.59855236144E+03  0.59855236145E+03  0.25500000000E-02 0.  1.
         -2   -1    0    0    0  501 -0.00000000000E+00 -0.00000000000E+00 -0.15007511695E+03  0.15007511697E+03  0.25500000000E-02 0. -1.
    5000001    1    1    2    0    0  0.14962748181E+03  0.15391289555E+03  0.30468663177E+03  0.42250740385E+03  0.19900000000E+03 0.  0.
   -5000001    1    1    2    0    0 -0.14962748181E+03 -0.15391289555E+03  0.14379061273E+03  0.32612007457E+03  0.19900000000E+03 0.  0.
<mgrwt>
<rscale>  0 0.59942578E+03</rscale>
<asrwt>0</asrwt>
<pdfrwt beam="1">  1        2 0.85507482E-01 0.59942578E+03</pdfrwt>
<pdfrwt beam="2">  1       -2 0.21439302E-01 0.59942578E+03</pdfrwt>
<totfact> 0.10291571E+03</totfact>
</mgrwt>
</event>
<event>
 4    1  0.4998754E-005  0.6248427E+03  0.7818608E-02  0.9855165E-01
         -2   -1    0    0    0  501 -0.00000000000E+00  0.00000000000E+00  0.10743359777E+04  0.10743359777E+04  0.25500000000E-02 0.  1.
          2   -1    0    0  501    0  0.00000000000E+00 -0.00000000000E+00 -0.90853430828E+02  0.90853430864E+02  0.25500000000E-02 0. -1.
    5000001    1    1    2    0    0  0.91990862889E+01 -0.16552854496E+03  0.81752604956E+03  0.85757458224E+03  0.19900000000E+03 0.  0.
   -5000001    1    1    2    0    0 -0.91990862889E+01  0.16552854496E+03  0.16595649733E+03  0.30761482635E+03  0.19900000000E+03 0.  0.
<mgrwt>
<rscale>  0 0.62484273E+03</rscale>
<asrwt>0</asrwt>
<pdfrwt beam="1">  1        2 0.12979061E-01 0.62484273E+03</pdfrwt>
<pdfrwt beam="2">  1       -2 0.15347657E+00 0.62484273E+03</pdfrwt>
<totfact> 0.13719984E+02</totfact>
</mgrwt>
</event>
<event>
 4    1  0.4998754E-005  0.5036607E+03  0.7818608E-02  0.1012828E+00
         -2   -1    0    0    0  501 -0.00000000000E+00  0.00000000000E+00  0.64262392987E+03  0.64262392987E+03  0.25500000000E-02 0. -1.
          2   -1    0    0  501    0  0.00000000000E+00 -0.00000000000E+00 -0.98686842456E+02  0.98686842489E+02  0.25500000000E-02 0.  1.
    5000001    1    1    2    0    0  0.13738736736E+03  0.64872643308E+02  0.23209869582E+03  0.34140086872E+03  0.19900000000E+03 0.  0.
   -5000001    1    1    2    0    0 -0.13738736736E+03 -0.64872643308E+02  0.31183839160E+03  0.39990990365E+03  0.19900000000E+03 0.  0.
<mgrwt>
<rscale>  0 0.50366071E+03</rscale>
<asrwt>0</asrwt>
<pdfrwt beam="1">  1        2 0.14098121E-01 0.50366071E+03</pdfrwt>
<pdfrwt beam="2">  1       -2 0.91803417E-01 0.50366071E+03</pdfrwt>
<totfact> 0.44088696E+02</totfact>
</mgrwt>
</event>
<event>
 4    1  0.4998754E-005  0.5071573E+03  0.7818608E-02  0.1011927E+00
         -2   -1    0    0    0  501 -0.00000000000E+00  0.00000000000E+00  0.69546326613E+02  0.69546326659E+02  0.25500000000E-02 0. -1.
          2   -1    0    0  501    0  0.00000000000E+00 -0.00000000000E+00 -0.92459410436E+03  0.92459410436E+03  0.25500000000E-02 0.  1.
    5000001    1    1    2    0    0 -0.10755162346E+03 -0.89769352188E+02 -0.28787638621E+03  0.37696114129E+03  0.19900000000E+03 0.  0.
   -5000001    1    1    2    0    0  0.10755162346E+03  0.89769352188E+02 -0.56717139153E+03  0.61717928973E+03  0.19900000000E+03 0.  0.
<mgrwt>
<rscale>  0 0.50715727E+03</rscale>
<asrwt>0</asrwt>
<pdfrwt beam="1">  1        2 0.13208486E+00 0.50715727E+03</pdfrwt>
<pdfrwt beam="2">  1       -2 0.99351901E-02 0.50715727E+03</pdfrwt>
<totfact> 0.21761945E+03</totfact>
</mgrwt>
</event>
<event>
 4    1  0.4998754E-005  0.4507179E+03  0.7818608E-02  0.1027508E+00
         -2   -1    0    0    0  501 -0.00000000000E+00  0.00000000000E+00  0.82410295899E+02  0.82410295938E+02  0.25500000000E-02 0. -1.
          2   -1    0    0  501    0  0.00000000000E+00 -0.00000000000E+00 -0.61626583673E+03  0.61626583673E+03  0.25500000000E-02 0.  1.
    5000001    1    1    2    0    0  0.28968512003E+02 -0.10060151731E+03 -0.24363384320E+03  0.33153927297E+03  0.19900000000E+03 0.  0.
   -5000001    1    1    2    0    0 -0.28968512003E+02  0.10060151731E+03 -0.29022169763E+03  0.36713685970E+03  0.19900000000E+03 0.  0.
<mgrwt>
<rscale>  0 0.45071787E+03</rscale>
<asrwt>0</asrwt>
<pdfrwt beam="1">  1        2 0.88037974E-01 0.45071787E+03</pdfrwt>
<pdfrwt beam="2">  1       -2 0.11772900E-01 0.45071787E+03</pdfrwt>
<totfact> 0.27391508E+03</totfact>
</mgrwt>
</event>
<event>
 4    1  0.4998754E-005  0.6989311E+03  0.7818608E-02  0.9719062E-01
          2   -1    0    0  501    0  0.00000000000E+00  0.00000000000E+00  0.10193447346E+04  0.10193447346E+04  0.25500000000E-02 0.  1.
         -2   -1    0    0    0  501 -0.00000000000E+00 -0.00000000000E+00 -0.11980849439E+03  0.11980849442E+03  0.25500000000E-02 0. -1.
    5000001    1    1    2    0    0  0.18926770508E+03  0.21566691120E+03  0.42726218080E+03  0.55180472263E+03  0.19900000000E+03 0.  0.
   -5000001    1    1    2    0    0 -0.18926770508E+03 -0.21566691120E+03  0.47227405940E+03  0.58734850639E+03  0.19900000000E+03 0.  0.
<mgrwt>
<rscale>  0 0.69893106E+03</rscale>
<asrwt>0</asrwt>
<pdfrwt beam="1">  1        2 0.14562066E+00 0.69893106E+03</pdfrwt>
<pdfrwt beam="2">  1       -2 0.17115501E-01 0.69893106E+03</pdfrwt>
<totfact> 0.76771365E+02</totfact>
</mgrwt>
</event>
<event>
 4    1  0.4998754E-005  0.5441535E+03  0.7818608E-02  0.1002856E+00
          2   -1    0    0  501    0  0.00000000000E+00  0.00000000000E+00  0.12581393696E+04  0.12581393696E+04  0.25500000000E-02 0.  1.
         -2   -1    0    0    0  501 -0.00000000000E+00 -0.00000000000E+00 -0.58837481327E+02  0.58837481383E+02  0.25500000000E-02 0. -1.
    5000001    1    1    2    0    0 -0.76014898198E+02  0.16805000454E+03  0.64839819161E+03  0.70287999236E+03  0.19900000000E+03 0.  0.
   -5000001    1    1    2    0    0  0.76014898198E+02 -0.16805000454E+03  0.55090369663E+03  0.61409685859E+03  0.19900000000E+03 0.  0.
<mgrwt>
<rscale>  0 0.54415348E+03</rscale>
<asrwt>0</asrwt>
<pdfrwt beam="1">  1        2 0.17973418E+00 0.54415348E+03</pdfrwt>
<pdfrwt beam="2">  1       -2 0.84053554E-02 0.54415348E+03</pdfrwt>
<totfact> 0.18166307E+03</totfact>
</mgrwt>
</event>
<event>
 4    1  0.4998754E-005  0.4732426E+03  0.7818608E-02  0.1021009E+00
         -2   -1    0    0    0  501 -0.00000000000E+00  0.00000000000E+00  0.11573835296E+02  0.11573835577E+02  0.25500000000E-02 0. -1.
          2   -1    0    0  501    0  0.00000000000E+00 -0.00000000000E+00 -0.48376048641E+04  0.48376048641E+04  0.25500000000E-02 0.  1.
    5000001    1    1    2    0    0 -0.83734983216E+02 -0.89185715789E+02 -0.20264818731E+04  0.20399008362E+04  0.19900000000E+03 0.  0.
   -5000001    1    1    2    0    0  0.83734983216E+02  0.89185715789E+02 -0.27995491557E+04  0.28092778635E+04  0.19900000000E+03 0.  0.
<mgrwt>
<rscale>  0 0.47324261E+03</rscale>
<asrwt>0</asrwt>
<pdfrwt beam="1">  1        2 0.69108512E+00 0.47324261E+03</pdfrwt>
<pdfrwt beam="2">  1       -2 0.16534081E-02 0.47324261E+03</pdfrwt>
<totfact> 0.16639082E+02</totfact>
</mgrwt>
</event>
<event>
 4    1  0.4998754E-005  0.6138181E+03  0.7818608E-02  0.9877145E-01
          2   -1    0    0  501    0  0.00000000000E+00  0.00000000000E+00  0.16409935045E+03  0.16409935046E+03  0.25500000000E-02 0.  1.
         -2   -1    0    0    0  501 -0.00000000000E+00 -0.00000000000E+00 -0.57400087828E+03  0.57400087829E+03  0.25500000000E-02 0. -1.
    5000001    1    1    2    0    0 -0.22136896009E+03  0.67405422609E+02 -0.24381251195E+03  0.39063185798E+03  0.19900000000E+03 0.  0.
   -5000001    1    1    2    0    0  0.22136896009E+03 -0.67405422609E+02 -0.16608901589E+03  0.34746837077E+03  0.19900000000E+03 0.  0.
<mgrwt>
<rscale>  0 0.61381812E+03</rscale>
<asrwt>0</asrwt>
<pdfrwt beam="1">  1        2 0.23442765E-01 0.61381812E+03</pdfrwt>
<pdfrwt beam="2">  1       -2 0.82000124E-01 0.61381812E+03</pdfrwt>
<totfact> 0.31179746E+02</totfact>
</mgrwt>
</event>
<event>
 4    1  0.4998754E-005  0.6130804E+03  0.7818608E-02  0.9878634E-01
          2   -1    0    0  501    0  0.00000000000E+00  0.00000000000E+00  0.17922997618E+04  0.17922997618E+04  0.25500000000E-02 0.  1.
         -2   -1    0    0    0  501 -0.00000000000E+00 -0.00000000000E+00 -0.52428120732E+02  0.52428120794E+02  0.25500000000E-02 0. -1.
    5000001    1    1    2    0    0  0.18206707008E+03  0.84048897186E+02  0.12279030683E+04  0.12599839604E+04  0.19900000000E+03 0.  0.
   -5000001    1    1    2    0    0 -0.18206707008E+03 -0.84048897186E+02  0.51196857269E+03  0.58474392220E+03  0.19900000000E+03 0.  0.
<mgrwt>
<rscale>  0 0.61308045E+03</rscale>
<asrwt>0</asrwt>
<pdfrwt beam="1">  1        2 0.25604272E+00 0.61308045E+03</pdfrwt>
<pdfrwt beam="2">  1       -2 0.74897347E-02 0.61308045E+03</pdfrwt>
<totfact> 0.11468456E+03</totfact>
</mgrwt>
</event>
<event>
 4    1  0.4998754E-005  0.1035946E+04  0.7818608E-02  0.9269976E-01
          2   -1    0    0  501    0  0.00000000000E+00  0.00000000000E+00  0.23455619147E+04  0.23455619147E+04  0.25500000000E-02 0.  1.
         -2   -1    0    0    0  501 -0.00000000000E+00 -0.00000000000E+00 -0.11438446622E+03  0.11438446624E+03  0.25500000000E-02 0. -1.
    5000001    1    1    2    0    0 -0.38009923540E+03  0.14125910956E+03  0.51361590605E+03  0.68398235630E+03  0.19900000000E+03 0.  0.
   -5000001    1    1    2    0    0  0.38009923540E+03 -0.14125910956E+03  0.17175615424E+04  0.17759640246E+04  0.19900000000E+03 0.  0.
<mgrwt>
<rscale>  0 0.10359457E+04</rscale>
<asrwt>0</asrwt>
<pdfrwt beam="1">  1        2 0.33508026E+00 0.10359457E+04</pdfrwt>
<pdfrwt beam="2">  1       -2 0.16340639E-01 0.10359457E+04</pdfrwt>
<totfact> 0.16162824E+02</totfact>
</mgrwt>
</event>
<event>
 4    1  0.4998754E-005  0.5521092E+03  0.7818608E-02  0.1001007E+00
          2   -1    0    0  501    0  0.00000000000E+00  0.00000000000E+00  0.66985052701E+03  0.66985052701E+03  0.25500000000E-02 0.  1.
         -2   -1    0    0    0  501 -0.00000000000E+00 -0.00000000000E+00 -0.11376589420E+03  0.11376589422E+03  0.25500000000E-02 0. -1.
    5000001    1    1    2    0    0 -0.16911118252E+03  0.36728272278E+02  0.39384988308E+03  0.47398975563E+03  0.19900000000E+03 0.  0.
   -5000001    1    1    2    0    0  0.16911118252E+03 -0.36728272278E+02  0.16223474973E+03  0.30962666561E+03  0.19900000000E+03 0.  0.
<mgrwt>
<rscale>  0 0.55210921E+03</rscale>
<asrwt>0</asrwt>
<pdfrwt beam="1">  1        2 0.95692932E-01 0.55210921E+03</pdfrwt>
<pdfrwt beam="2">  1       -2 0.16252271E-01 0.55210921E+03</pdfrwt>
<totfact> 0.14522594E+03</totfact>
</mgrwt>
</event>
<event>
 4    1  0.4998754E-005  0.7422174E+03  0.7818608E-02  0.9647640E-01
          2   -1    0    0  501    0  0.00000000000E+00  0.00000000000E+00  0.14755637125E+04  0.14755637125E+04  0.25500000000E-02 0.  1.
         -2   -1    0    0    0  501 -0.00000000000E+00 -0.00000000000E+00 -0.93334962304E+02  0.93334962339E+02  0.25500000000E-02 0. -1.
    5000001    1    1    2    0    0 -0.16055331223E+03 -0.26523089246E+03  0.78554919623E+03  0.86764816146E+03  0.19900000000E+03 0.  0.
   -5000001    1    1    2    0    0  0.16055331223E+03  0.26523089246E+03  0.59667955392E+03  0.70125051333E+03  0.19900000000E+03 0.  0.
<mgrwt>
<rscale>  0 0.74221744E+03</rscale>
<asrwt>0</asrwt>
<pdfrwt beam="1">  1        2 0.21079480E+00 0.74221744E+03</pdfrwt>
<pdfrwt beam="2">  1       -2 0.13333567E-01 0.74221744E+03</pdfrwt>
<totfact> 0.64958876E+02</totfact>
</mgrwt>
</event>
<event>
 4    1  0.4998754E-005  0.6039219E+03  0.7818608E-02  0.9897303E-01
          2   -1    0    0  501    0  0.00000000000E+00  0.00000000000E+00  0.70825801971E+03  0.70825801971E+03  0.25500000000E-02 0.  1.
         -2   -1    0    0    0  501 -0.00000000000E+00 -0.00000000000E+00 -0.12873897095E+03  0.12873897098E+03  0.25500000000E-02 0. -1.
    5000001    1    1    2    0    0 -0.14812959833E+03 -0.13019587993E+03  0.13365820429E+03  0.31041723635E+03  0.19900000000E+03 0.  0.
   -5000001    1    1    2    0    0  0.14812959833E+03  0.13019587993E+03  0.44586084446E+03  0.52657975434E+03  0.19900000000E+03 0.  0.
<mgrwt>
<rscale>  0 0.60392188E+03</rscale>
<asrwt>0</asrwt>
<pdfrwt beam="1">  1        2 0.10117972E+00 0.60392188E+03</pdfrwt>
<pdfrwt beam="2">  1       -2 0.18391281E-01 0.60392188E+03</pdfrwt>
<totfact> 0.10979889E+03</totfact>
</mgrwt>
</event>
<event>
 4    1  0.4998754E-005  0.4882177E+03  0.7818608E-02  0.1016901E+00
         -2   -1    0    0    0  501 -0.00000000000E+00  0.00000000000E+00  0.59026111208E+02  0.59026111263E+02  0.25500000000E-02 0. -1.
          2   -1    0    0  501    0  0.00000000000E+00 -0.00000000000E+00 -0.10095384178E+04  0.10095384178E+04  0.25500000000E-02 0.  1.
    5000001    1    1    2    0    0 -0.11405268238E+03  0.15258572661E+02 -0.29547180158E+03  0.37436001913E+03  0.19900000000E+03 0.  0.
   -5000001    1    1    2    0    0  0.11405268238E+03 -0.15258572661E+02 -0.65504050501E+03  0.69420450993E+03  0.19900000000E+03 0.  0.
<mgrwt>
<rscale>  0 0.48821768E+03</rscale>
<asrwt>0</asrwt>
<pdfrwt beam="1">  1        2 0.14421976E+00 0.48821768E+03</pdfrwt>
<pdfrwt beam="2">  1       -2 0.84323022E-02 0.48821768E+03</pdfrwt>
<totfact> 0.25091834E+03</totfact>
</mgrwt>
</event>
<event>
 4    1  0.4998754E-005  0.5196988E+03  0.7818608E-02  0.1008761E+00
         -2   -1    0    0    0  501 -0.00000000000E+00  0.00000000000E+00  0.16079277378E+02  0.16079277580E+02  0.25500000000E-02 0. -1.
          2   -1    0    0  501    0  0.00000000000E+00 -0.00000000000E+00 -0.41993007790E+04  0.41993007790E+04  0.25500000000E-02 0.  1.
    5000001    1    1    2    0    0 -0.42497186014E+02 -0.81003326180E+02 -0.95740040731E+03  0.98213241958E+03  0.19900000000E+03 0.  0.
   -5000001    1    1    2    0    0  0.42497186014E+02  0.81003326180E+02 -0.32258210943E+04  0.32332476370E+04  0.19900000000E+03 0.  0.
<mgrwt>
<rscale>  0 0.51969885E+03</rscale>
<asrwt>0</asrwt>
<pdfrwt beam="1">  1        2 0.59989941E+00 0.51969885E+03</pdfrwt>
<pdfrwt beam="2">  1       -2 0.22970423E-02 0.51969885E+03</pdfrwt>
<totfact> 0.31704396E+02</totfact>
</mgrwt>
</event>
<event>
 4    1  0.4998754E-005  0.4489091E+03  0.7818608E-02  0.1028048E+00
         -2   -1    0    0    0  501 -0.00000000000E+00  0.00000000000E+00  0.37265903191E+02  0.37265903279E+02  0.25500000000E-02 0. -1.
          2   -1    0    0  501    0  0.00000000000E+00 -0.00000000000E+00 -0.13519015888E+04  0.13519015888E+04  0.25500000000E-02 0.  1.
    5000001    1    1    2    0    0  0.22396043424E+02  0.94480843204E+02 -0.54359098280E+03  0.58695857526E+03  0.19900000000E+03 0.  0.
   -5000001    1    1    2    0    0 -0.22396043424E+02 -0.94480843204E+02 -0.77104470282E+03  0.80220891683E+03  0.19900000000E+03 0.  0.
<mgrwt>
<rscale>  0 0.44890905E+03</rscale>
<asrwt>0</asrwt>
<pdfrwt beam="1">  1        2 0.19312877E+00 0.44890905E+03</pdfrwt>
<pdfrwt beam="2">  1       -2 0.53237013E-02 0.44890905E+03</pdfrwt>
<totfact> 0.33146322E+03</totfact>
</mgrwt>
</event>
<event>
 4    1  0.4998754E-005  0.6928602E+03  0.7818608E-02  0.9729521E-01
         -2   -1    0    0    0  501 -0.00000000000E+00  0.00000000000E+00  0.46473689692E+02  0.46473689762E+02  0.25500000000E-02 0. -1.
          2   -1    0    0  501    0  0.00000000000E+00 -0.00000000000E+00 -0.25824030343E+04  0.25824030343E+04  0.25500000000E-02 0.  1.
    5000001    1    1    2    0    0 -0.83165381903E+00 -0.27438208750E+03 -0.15396325735E+04  0.15765010888E+04  0.19900000000E+03 0.  0.
   -5000001    1    1    2    0    0  0.83165381903E+00  0.27438208750E+03 -0.99629677110E+03  0.10523756353E+04  0.19900000000E+03 0.  0.
<mgrwt>
<rscale>  0 0.69286015E+03</rscale>
<asrwt>0</asrwt>
<pdfrwt beam="1">  1        2 0.36891463E+00 0.69286015E+03</pdfrwt>
<pdfrwt beam="2">  1       -2 0.66391002E-02 0.69286015E+03</pdfrwt>
<totfact> 0.54856342E+02</totfact>
</mgrwt>
</event>
<event>
 4    1  0.4998754E-005  0.9082062E+03  0.7818608E-02  0.9415381E-01
         -2   -1    0    0    0  501 -0.00000000000E+00  0.00000000000E+00  0.96060282078E+02  0.96060282112E+02  0.25500000000E-02 0. -1.
          2   -1    0    0  501    0  0.00000000000E+00 -0.00000000000E+00 -0.21466689514E+04  0.21466689514E+04  0.25500000000E-02 0.  1.
    5000001    1    1    2    0    0  0.32138340544E+03 -0.24328788367E+03 -0.11840457579E+04  0.12665076567E+04  0.19900000000E+03 0.  0.
   -5000001    1    1    2    0    0 -0.32138340544E+03  0.24328788367E+03 -0.86656291149E+03  0.97622157690E+03  0.19900000000E+03 0.  0.
<mgrwt>
<rscale>  0 0.90820620E+03</rscale>
<asrwt>0</asrwt>
<pdfrwt beam="1">  1        2 0.30666696E+00 0.90820620E+03</pdfrwt>
<pdfrwt beam="2">  1       -2 0.13722899E-01 0.90820620E+03</pdfrwt>
<totfact> 0.27745394E+02</totfact>
</mgrwt>
</event>
<event>
 4    1  0.4998754E-005  0.4846008E+03  0.7818608E-02  0.1017878E+00
         -2   -1    0    0    0  501 -0.00000000000E+00  0.00000000000E+00  0.19003334232E+03  0.19003334234E+03  0.25500000000E-02 0. -1.
          2   -1    0    0  501    0  0.00000000000E+00 -0.00000000000E+00 -0.30894301540E+03  0.30894301541E+03  0.25500000000E-02 0.  1.
    5000001    1    1    2    0    0  0.11881931041E+03  0.49488481771E+02 -0.75477233010E+01  0.23711833856E+03  0.19900000000E+03 0.  0.
   -5000001    1    1    2    0    0 -0.11881931041E+03 -0.49488481771E+02 -0.11136194978E+03  0.26185801919E+03  0.19900000000E+03 0.  0.
<mgrwt>
<rscale>  0 0.48460076E+03</rscale>
<asrwt>0</asrwt>
<pdfrwt beam="1">  1        2 0.44134717E-01 0.48460076E+03</pdfrwt>
<pdfrwt beam="2">  1       -2 0.27147620E-01 0.48460076E+03</pdfrwt>
<totfact> 0.14190090E+03</totfact>
</mgrwt>
</event>
<event>
 4    1  0.4998754E-005  0.4986620E+03  0.7818608E-02  0.1014129E+00
         -2   -1    0    0    0  501 -0.00000000000E+00  0.00000000000E+00  0.19287180601E+02  0.19287180770E+02  0.25500000000E-02 0. -1.
          2   -1    0    0  501    0  0.00000000000E+00 -0.00000000000E+00 -0.32231749371E+04  0.32231749371E+04  0.25500000000E-02 0.  1.
    5000001    1    1    2    0    0  0.94023471977E+02 -0.97647411145E+02 -0.20228169210E+04  0.20370971322E+04  0.19900000000E+03 0.  0.
   -5000001    1    1    2    0    0 -0.94023471977E+02  0.97647411145E+02 -0.11810708355E+04  0.12053649857E+04  0.19900000000E+03 0.  0.
<mgrwt>
<rscale>  0 0.49866204E+03</rscale>
<asrwt>0</asrwt>
<pdfrwt beam="1">  1        2 0.46045322E+00 0.49866204E+03</pdfrwt>
<pdfrwt beam="2">  1       -2 0.27553136E-02 0.49866204E+03</pdfrwt>
<totfact> 0.97992419E+02</totfact>
</mgrwt>
</event>
<event>
 4    1  0.4998754E-005  0.6608301E+03  0.7818608E-02  0.9786667E-01
          2   -1    0    0  501    0  0.00000000000E+00  0.00000000000E+00  0.36592620353E+04  0.36592620353E+04  0.25500000000E-02 0.  1.
         -2   -1    0    0    0  501 -0.00000000000E+00 -0.00000000000E+00 -0.29835005543E+02  0.29835005652E+02  0.25500000000E-02 0. -1.
    5000001    1    1    2    0    0 -0.19913512131E+03  0.16800302250E+03  0.20444320789E+04  0.20705514573E+04  0.19900000000E+03 0.  0.
   -5000001    1    1    2    0    0  0.19913512131E+03 -0.16800302250E+03  0.15849949509E+04  0.16185455837E+04  0.19900000000E+03 0.  0.
<mgrwt>
<rscale>  0 0.66083009E+03</rscale>
<asrwt>0</asrwt>
<pdfrwt beam="1">  1        2 0.52275229E+00 0.66083009E+03</pdfrwt>
<pdfrwt beam="2">  1       -2 0.42621390E-02 0.66083009E+03</pdfrwt>
<totfact> 0.27418262E+02</totfact>
</mgrwt>
</event>
<event>
 4    1  0.4998754E-005  0.6117538E+03  0.7818608E-02  0.9881316E-01
         -2   -1    0    0    0  501 -0.00000000000E+00  0.00000000000E+00  0.39177588291E+03  0.39177588292E+03  0.25500000000E-02 0. -1.
          2   -1    0    0  501    0  0.00000000000E+00 -0.00000000000E+00 -0.23881174636E+03  0.23881174638E+03  0.25500000000E-02 0.  1.
    5000001    1    1    2    0    0  0.10886114132E+03  0.31612944138E+02  0.28547911788E+03  0.36599105600E+03  0.19900000000E+03 0.  0.
   -5000001    1    1    2    0    0 -0.10886114132E+03 -0.31612944138E+02 -0.13251498133E+03  0.26459657330E+03  0.19900000000E+03 0.  0.
<mgrwt>
<rscale>  0 0.61175382E+03</rscale>
<asrwt>0</asrwt>
<pdfrwt beam="1">  1        2 0.34115964E-01 0.61175382E+03</pdfrwt>
<pdfrwt beam="2">  1       -2 0.55967983E-01 0.61175382E+03</pdfrwt>
<totfact> 0.46537589E+02</totfact>
</mgrwt>
</event>
<event>
 4    1  0.4998754E-005  0.5365584E+03  0.7818608E-02  0.1004654E+00
         -2   -1    0    0    0  501 -0.00000000000E+00  0.00000000000E+00  0.67329513419E+03  0.67329513419E+03  0.25500000000E-02 0. -1.
          2   -1    0    0  501    0  0.00000000000E+00 -0.00000000000E+00 -0.10689774999E+03  0.10689775002E+03  0.25500000000E-02 0.  1.
    5000001    1    1    2    0    0 -0.62659227786E+02 -0.11542207460E+03  0.10437600259E+03  0.26027636091E+03  0.19900000000E+03 0.  0.
   -5000001    1    1    2    0    0  0.62659227786E+02  0.11542207460E+03  0.46202138161E+03  0.51991652330E+03  0.19900000000E+03 0.  0.
<mgrwt>
<rscale>  0 0.53655842E+03</rscale>
<asrwt>0</asrwt>
<pdfrwt beam="1">  1        2 0.15271107E-01 0.53655842E+03</pdfrwt>
<pdfrwt beam="2">  1       -2 0.96185023E-01 0.53655842E+03</pdfrwt>
<totfact> 0.35911016E+02</totfact>
</mgrwt>
</event>
<event>
 4    1  0.4998754E-005  0.4752098E+03  0.7818608E-02  0.1020460E+00
          2   -1    0    0  501    0  0.00000000000E+00  0.00000000000E+00  0.57012479639E+03  0.57012479639E+03  0.25500000000E-02 0.  1.
         -2   -1    0    0    0  501 -0.00000000000E+00 -0.00000000000E+00 -0.99024089908E+02  0.99024089941E+02  0.25500000000E-02 0. -1.
    5000001    1    1    2    0    0  0.73706552610E+02 -0.10653439809E+03  0.24756933709E+03  0.34303616506E+03  0.19900000000E+03 0.  0.
   -5000001    1    1    2    0    0 -0.73706552610E+02  0.10653439809E+03  0.22353136939E+03  0.32611272127E+03  0.19900000000E+03 0.  0.
<mgrwt>
<rscale>  0 0.47520980E+03</rscale>
<asrwt>0</asrwt>
<pdfrwt beam="1">  1        2 0.81446398E-01 0.47520980E+03</pdfrwt>
<pdfrwt beam="2">  1       -2 0.14146299E-01 0.47520980E+03</pdfrwt>
<totfact> 0.22165071E+03</totfact>
</mgrwt>
</event>
<event>
 4    1  0.4998754E-005  0.6141209E+03  0.7818608E-02  0.9876535E-01
         -2   -1    0    0    0  501 -0.00000000000E+00  0.00000000000E+00  0.69669958378E+02  0.69669958425E+02  0.25500000000E-02 0. -1.
          2   -1    0    0  501    0  0.00000000000E+00 -0.00000000000E+00 -0.13533252286E+04  0.13533252286E+04  0.25500000000E-02 0.  1.
    5000001    1    1    2    0    0  0.31704910582E+02 -0.19269464995E+03 -0.93990657172E+03  0.98038859288E+03  0.19900000000E+03 0.  0.
   -5000001    1    1    2    0    0 -0.31704910582E+02  0.19269464995E+03 -0.34374869854E+03  0.44260659419E+03  0.19900000000E+03 0.  0.
<mgrwt>
<rscale>  0 0.61412088E+03</rscale>
<asrwt>0</asrwt>
<pdfrwt beam="1">  1        2 0.19333216E+00 0.61412088E+03</pdfrwt>
<pdfrwt beam="2">  1       -2 0.99528521E-02 0.61412088E+03</pdfrwt>
<totfact> 0.12268396E+03</totfact>
</mgrwt>
</event>
<event>
 4    1  0.4998754E-005  0.5264854E+03  0.7818608E-02  0.1007088E+00
          2   -1    0    0  501    0  0.00000000000E+00  0.00000000000E+00  0.19751238335E+03  0.19751238336E+03  0.25500000000E-02 0.  1.
         -2   -1    0    0    0  501 -0.00000000000E+00 -0.00000000000E+00 -0.35084745322E+03  0.35084745323E+03  0.25500000000E-02 0. -1.
    5000001    1    1    2    0    0 -0.16916587372E+03  0.28193543697E+02 -0.94212224076E+02  0.27908585042E+03  0.19900000000E+03 0.  0.
   -5000001    1    1    2    0    0  0.16916587372E+03 -0.28193543697E+02 -0.59122845801E+02  0.26927398618E+03  0.19900000000E+03 0.  0.
<mgrwt>
<rscale>  0 0.52648539E+03</rscale>
<asrwt>0</asrwt>
<pdfrwt beam="1">  1        2 0.28216055E-01 0.52648539E+03</pdfrwt>
<pdfrwt beam="2">  1       -2 0.50121065E-01 0.52648539E+03</pdfrwt>
<totfact> 0.72232686E+02</totfact>
</mgrwt>
</event>
<event>
 4    1  0.4998754E-005  0.4323205E+03  0.7818608E-02  0.1033129E+00
          2   -1    0    0  501    0  0.00000000000E+00  0.00000000000E+00  0.72786025947E+03  0.72786025947E+03  0.25500000000E-02 0.  1.
         -2   -1    0    0    0  501 -0.00000000000E+00 -0.00000000000E+00 -0.64195362000E+02  0.64195362050E+02  0.25500000000E-02 0. -1.
    5000001    1    1    2    0    0  0.30066599573E+02  0.75809213606E+02  0.29197776428E+03  0.36263349557E+03  0.19900000000E+03 0.  0.
   -5000001    1    1    2    0    0 -0.30066599573E+02 -0.75809213606E+02  0.37168713318E+03  0.42942212595E+03  0.19900000000E+03 0.  0.
<mgrwt>
<rscale>  0 0.43232050E+03</rscale>
<asrwt>0</asrwt>
<pdfrwt beam="1">  1        2 0.10398004E+00 0.43232050E+03</pdfrwt>
<pdfrwt beam="2">  1       -2 0.91707658E-02 0.43232050E+03</pdfrwt>
<totfact> 0.33582258E+03</totfact>
</mgrwt>
</event>
<event>
 4    1  0.4998754E-005  0.1162711E+04  0.7818608E-02  0.9146137E-01
         -2   -1    0    0    0  501 -0.00000000000E+00  0.00000000000E+00  0.12423078886E+03  0.12423078889E+03  0.25500000000E-02 0. -1.
          2   -1    0    0  501    0  0.00000000000E+00 -0.00000000000E+00 -0.27205327440E+04  0.27205327440E+04  0.25500000000E-02 0.  1.
    5000001    1    1    2    0    0 -0.43069960657E+03 -0.22194419984E+03 -0.19152325325E+04  0.19855674334E+04  0.19900000000E+03 0.  0.
   -5000001    1    1    2    0    0  0.43069960657E+03  0.22194419984E+03 -0.68106942258E+03  0.85919609945E+03  0.19900000000E+03 0.  0.
<mgrwt>
<rscale>  0 0.11627105E+04</rscale>
<asrwt>0</asrwt>
<pdfrwt beam="1">  1        2 0.38864750E+00 0.11627105E+04</pdfrwt>
<pdfrwt beam="2">  1       -2 0.17747257E-01 0.11627105E+04</pdfrwt>
<totfact> 0.88261567E+01</totfact>
</mgrwt>
</event>
<event>
 4    1  0.4998754E-005  0.6618559E+03  0.7818608E-02  0.9784783E-01
          2   -1    0    0  501    0  0.00000000000E+00  0.00000000000E+00  0.77756743281E+03  0.77756743281E+03  0.25500000000E-02 0.  1.
         -2   -1    0    0    0  501 -0.00000000000E+00 -0.00000000000E+00 -0.14084091899E+03  0.14084091902E+03  0.25500000000E-02 0. -1.
    5000001    1    1    2    0    0 -0.88492840972E+02  0.24636256000E+03  0.26668806471E+03  0.42337810256E+03  0.19900000000E+03 0.  0.
   -5000001    1    1    2    0    0  0.88492840972E+02 -0.24636256000E+03  0.37003844911E+03  0.49503024927E+03  0.19900000000E+03 0.  0.
<mgrwt>
<rscale>  0 0.66185591E+03</rscale>
<asrwt>0</asrwt>
<pdfrwt beam="1">  1        2 0.11108106E+00 0.66185591E+03</pdfrwt>
<pdfrwt beam="2">  1       -2 0.20120131E-01 0.66185591E+03</pdfrwt>
<totfact> 0.83520552E+02</totfact>
</mgrwt>
</event>
<event>
 4    1  0.4998754E-005  0.1629317E+04  0.7818608E-02  0.8802737E-01
         -2   -1    0    0    0  501 -0.00000000000E+00  0.00000000000E+00  0.68430164154E+03  0.68430164155E+03  0.25500000000E-02 0. -1.
          2   -1    0    0  501    0  0.00000000000E+00 -0.00000000000E+00 -0.96984838883E+03  0.96984838884E+03  0.25500000000E-02 0.  1.
    5000001    1    1    2    0    0 -0.74689000428E+03 -0.24707495403E+03 -0.21582230259E+03  0.83968504673E+03  0.19900000000E+03 0.  0.
   -5000001    1    1    2    0    0  0.74689000428E+03  0.24707495403E+03 -0.69724444698E+02  0.81446498365E+03  0.19900000000E+03 0.  0.
<mgrwt>
<rscale>  0 0.16293175E+04</rscale>
<asrwt>0</asrwt>
<pdfrwt beam="1">  1        2 0.13854977E+00 0.16293175E+04</pdfrwt>
<pdfrwt beam="2">  1       -2 0.97757377E-01 0.16293175E+04</pdfrwt>
<totfact> 0.24519320E+01</totfact>
</mgrwt>
</event>
<event>
 4    1  0.4998754E-005  0.9299383E+03  0.7818608E-02  0.9388912E-01
         -2   -1    0    0    0  501 -0.00000000000E+00  0.00000000000E+00  0.73941842116E+03  0.73941842117E+03  0.25500000000E-02 0. -1.
          2   -1    0    0  501    0  0.00000000000E+00 -0.00000000000E+00 -0.29238695743E+03  0.29238695744E+03  0.25500000000E-02 0.  1.
    5000001    1    1    2    0    0 -0.14466928059E+03  0.33749303041E+03  0.45026588851E+03  0.61414258660E+03  0.19900000000E+03 0.  0.
   -5000001    1    1    2    0    0  0.14466928059E+03 -0.33749303041E+03 -0.32344247740E+01  0.41766279200E+03  0.19900000000E+03 0.  0.
<mgrwt>
<rscale>  0 0.92993828E+03</rscale>
<asrwt>0</asrwt>
<pdfrwt beam="1">  1        2 0.41769565E-01 0.92993828E+03</pdfrwt>
<pdfrwt beam="2">  1       -2 0.10563120E+00 0.92993828E+03</pdfrwt>
<totfact> 0.89116423E+01</totfact>
</mgrwt>
</event>
<event>
 4    1  0.4998754E-005  0.4928463E+03  0.7818608E-02  0.1015663E+00
         -2   -1    0    0    0  501 -0.00000000000E+00  0.00000000000E+00  0.17018729362E+03  0.17018729364E+03  0.25500000000E-02 0. -1.
          2   -1    0    0  501    0  0.00000000000E+00 -0.00000000000E+00 -0.35680910042E+03  0.35680910043E+03  0.25500000000E-02 0.  1.
    5000001    1    1    2    0    0 -0.53041884891E+02  0.88394227488E+02  0.16240056106E+02  0.22470362798E+03  0.19900000000E+03 0.  0.
   -5000001    1    1    2    0    0  0.53041884891E+02 -0.88394227488E+02 -0.20286186291E+03  0.30229276609E+03  0.19900000000E+03 0.  0.
<mgrwt>
<rscale>  0 0.49284633E+03</rscale>
<asrwt>0</asrwt>
<pdfrwt beam="1">  1        2 0.50972728E-01 0.49284633E+03</pdfrwt>
<pdfrwt beam="2">  1       -2 0.24312471E-01 0.49284633E+03</pdfrwt>
<totfact> 0.14769245E+03</totfact>
</mgrwt>
</event>
<event>
 4    1  0.4998754E-005  0.4920562E+03  0.7818608E-02  0.1015873E+00
         -2   -1    0    0    0  501 -0.00000000000E+00  0.00000000000E+00  0.37068685164E+02  0.37068685252E+02  0.25500000000E-02 0. -1.
          2   -1    0    0  501    0  0.00000000000E+00 -0.00000000000E+00 -0.16329101126E+04  0.16329101126E+04  0.25500000000E-02 0.  1.
    5000001    1    1    2    0    0 -0.66522612878E+02 -0.12825853846E+03 -0.82270304946E+03  0.85867154273E+03  0.19900000000E+03 0.  0.
   -5000001    1    1    2    0    0  0.66522612878E+02  0.12825853846E+03 -0.77313837800E+03  0.81130725515E+03  0.19900000000E+03 0.  0.
<mgrwt>
<rscale>  0 0.49205622E+03</rscale>
<asrwt>0</asrwt>
<pdfrwt beam="1">  1        2 0.23327283E+00 0.49205622E+03</pdfrwt>
<pdfrwt beam="2">  1       -2 0.52955275E-02 0.49205622E+03</pdfrwt>
<totfact> 0.23890046E+03</totfact>
</mgrwt>
</event>
<event>
 4    1  0.4998754E-005  0.6376710E+03  0.7818608E-02  0.9830193E-01
         -2   -1    0    0    0  501 -0.00000000000E+00  0.00000000000E+00  0.22918491466E+03  0.22918491467E+03  0.25500000000E-02 0. -1.
          2   -1    0    0  501    0  0.00000000000E+00 -0.00000000000E+00 -0.44355477075E+03  0.44355477075E+03  0.25500000000E-02 0.  1.
    5000001    1    1    2    0    0  0.16042523498E+03 -0.11341357432E+03 -0.26876170362E+03  0.38785660777E+03  0.19900000000E+03 0.  0.
   -5000001    1    1    2    0    0 -0.16042523498E+03  0.11341357432E+03  0.54391847530E+02  0.28488307766E+03  0.19900000000E+03 0.  0.
<mgrwt>
<rscale>  0 0.63767096E+03</rscale>
<asrwt>0</asrwt>
<pdfrwt beam="1">  1        2 0.63364967E-01 0.63767096E+03</pdfrwt>
<pdfrwt beam="2">  1       -2 0.32740702E-01 0.63767096E+03</pdfrwt>
<totfact> 0.67276654E+02</totfact>
</mgrwt>
</event>
<event>
 4    1  0.4998754E-005  0.5582670E+03  0.7818608E-02  0.9995984E-01
          2   -1    0    0  501    0  0.00000000000E+00  0.00000000000E+00  0.50071446166E+03  0.50071446166E+03  0.25500000000E-02 0. -1.
         -2   -1    0    0    0  501 -0.00000000000E+00 -0.00000000000E+00 -0.15560866554E+03  0.15560866556E+03  0.25500000000E-02 0.  1.
    5000001    1    1    2    0    0  0.77978763278E+02 -0.12659447062E+03  0.22882491911E+02  0.24946233373E+03  0.19900000000E+03 0.  0.
   -5000001    1    1    2    0    0 -0.77978763278E+02  0.12659447062E+03  0.32222330420E+03  0.40686079350E+03  0.19900000000E+03 0.  0.
<mgrwt>
<rscale>  0 0.55826699E+03</rscale>
<asrwt>0</asrwt>
<pdfrwt beam="1">  1        2 0.71530637E-01 0.55826699E+03</pdfrwt>
<pdfrwt beam="2">  1       -2 0.22229810E-01 0.55826699E+03</pdfrwt>
<totfact> 0.11869780E+03</totfact>
</mgrwt>
</event>
<event>
 4    1  0.4998754E-005  0.4785027E+03  0.7818608E-02  0.1019547E+00
         -2   -1    0    0    0  501 -0.00000000000E+00  0.00000000000E+00  0.43451754276E+02  0.43451754351E+02  0.25500000000E-02 0. -1.
          2   -1    0    0  501    0  0.00000000000E+00 -0.00000000000E+00 -0.13173509693E+04  0.13173509693E+04  0.25500000000E-02 0.  1.
    5000001    1    1    2    0    0 -0.46580071500E+02 -0.11964982162E+03 -0.73357564183E+03  0.77085666966E+03  0.19900000000E+03 0.  0.
   -5000001    1    1    2    0    0  0.46580071500E+02  0.11964982162E+03 -0.54032357319E+03  0.58994605399E+03  0.19900000000E+03 0.  0.
<mgrwt>
<rscale>  0 0.47850271E+03</rscale>
<asrwt>0</asrwt>
<pdfrwt beam="1">  1        2 0.18819297E+00 0.47850271E+03</pdfrwt>
<pdfrwt beam="2">  1       -2 0.62073944E-02 0.47850271E+03</pdfrwt>
<totfact> 0.27243466E+03</totfact>
</mgrwt>
</event>
<event>
 4    1  0.4998754E-005  0.4951464E+03  0.7818608E-02  0.1015054E+00
          2   -1    0    0  501    0  0.00000000000E+00  0.00000000000E+00  0.96509483121E+03  0.96509483121E+03  0.25500000000E-02 0.  1.
         -2   -1    0    0    0  501 -0.00000000000E+00 -0.00000000000E+00 -0.63509288874E+02  0.63509288925E+02  0.25500000000E-02 0. -1.
    5000001    1    1    2    0    0 -0.44591483991E+02  0.14002374234E+03  0.43039241179E+03  0.49642086680E+03  0.19900000000E+03 0.  0.
   -5000001    1    1    2    0    0  0.44591483991E+02 -0.14002374234E+03  0.47119313055E+03  0.53218325334E+03  0.19900000000E+03 0.  0.
<mgrwt>
<rscale>  0 0.49514639E+03</rscale>
<asrwt>0</asrwt>
<pdfrwt beam="1">  1        2 0.13787068E+00 0.49514639E+03</pdfrwt>
<pdfrwt beam="2">  1       -2 0.90727561E-02 0.49514639E+03</pdfrwt>
<totfact> 0.23759553E+03</totfact>
</mgrwt>
</event>
<event>
 4    1  0.4998754E-005  0.2430040E+04  0.7818608E-02  0.8428342E-01
         -2   -1    0    0    0  501 -0.00000000000E+00  0.00000000000E+00  0.64575395675E+03  0.64575395676E+03  0.25500000000E-02 0. -1.
          2   -1    0    0  501    0  0.00000000000E+00 -0.00000000000E+00 -0.22861247921E+04  0.22861247921E+04  0.25500000000E-02 0.  1.
    5000001    1    1    2    0    0  0.60133919685E+03 -0.10281066800E+04 -0.65804067901E+03  0.13752202407E+04  0.19900000000E+03 0.  0.
   -5000001    1    1    2    0    0 -0.60133919685E+03  0.10281066800E+04 -0.98233015636E+03  0.15566585082E+04  0.19900000000E+03 0.  0.
<mgrwt>
<rscale>  0 0.24300404E+04</rscale>
<asrwt>0</asrwt>
<pdfrwt beam="1">  1        2 0.32658925E+00 0.24300404E+04</pdfrwt>
<pdfrwt beam="2">  1       -2 0.92250567E-01 0.24300404E+04</pdfrwt>
<totfact> 0.51358724E+00</totfact>
</mgrwt>
</event>
<event>
 4    1  0.4998754E-005  0.5940058E+03  0.7818608E-02  0.9917921E-01
         -2   -1    0    0    0  501 -0.00000000000E+00  0.00000000000E+00  0.23639280899E+03  0.23639280900E+03  0.25500000000E-02 0. -1.
          2   -1    0    0  501    0  0.00000000000E+00 -0.00000000000E+00 -0.37315318201E+03  0.37315318202E+03  0.25500000000E-02 0.  1.
    5000001    1    1    2    0    0 -0.13096534665E+03 -0.17661681089E+03 -0.85063093684E+02  0.30851604467E+03  0.19900000000E+03 0.  0.
   -5000001    1    1    2    0    0  0.13096534665E+03  0.17661681089E+03 -0.51697279342E+02  0.30102994635E+03  0.19900000000E+03 0.  0.
<mgrwt>
<rscale>  0 0.59400582E+03</rscale>
<asrwt>0</asrwt>
<pdfrwt beam="1">  1        2 0.53307597E-01 0.59400582E+03</pdfrwt>
<pdfrwt beam="2">  1       -2 0.33770402E-01 0.59400582E+03</pdfrwt>
<totfact> 0.77006855E+02</totfact>
</mgrwt>
</event>
<event>
 4    1  0.4998754E-005  0.6083300E+03  0.7818608E-02  0.9888273E-01
         -2   -1    0    0    0  501 -0.00000000000E+00  0.00000000000E+00  0.19375211050E+03  0.19375211051E+03  0.25500000000E-02 0. -1.
          2   -1    0    0  501    0  0.00000000000E+00 -0.00000000000E+00 -0.47749855130E+03  0.47749855131E+03  0.25500000000E-02 0.  1.
    5000001    1    1    2    0    0  0.18120679815E+03 -0.13620596564E+03 -0.18499726647E+03  0.35385442964E+03  0.19900000000E+03 0.  0.
   -5000001    1    1    2    0    0 -0.18120679815E+03  0.13620596564E+03 -0.98749174332E+02  0.31739623218E+03  0.19900000000E+03 0.  0.
<mgrwt>
<rscale>  0 0.60833002E+03</rscale>
<asrwt>0</asrwt>
<pdfrwt beam="1">  1        2 0.68214078E-01 0.60833002E+03</pdfrwt>
<pdfrwt beam="2">  1       -2 0.27678873E-01 0.60833002E+03</pdfrwt>
<totfact> 0.84510050E+02</totfact>
</mgrwt>
</event>
