<event>
 4    1  0.3352993E-004  0.2000509E+03  0.7818608E-02  0.1149696E+00
          1   -1    0    0  501    0  0.00000000000E+00  0.00000000000E+00  0.36773595258E+02  0.36773595603E+02  0.50400000000E-02 0.  1.
         -1   -1    0    0    0  501 -0.00000000000E+00 -0.00000000000E+00 -0.27207272704E+03  0.27207272709E+03  0.50400000000E-02 0. -1.
    5000001    1    1    2    0    0  0.35649724588E+02 -0.29855880991E+02 -0.18518815247E+03  0.20587843090E+03  0.77000000000E+02 0.  0.
   -5000001    1    1    2    0    0 -0.35649724588E+02  0.29855880991E+02 -0.50110979314E+02  0.10296789180E+03  0.77000000000E+02 0.  0.
<mgrwt>
<rscale>  0 0.20005092E+03</rscale>
<asrwt>0</asrwt>
<pdfrwt beam="1">  1        1 0.52533709E-02 0.20005092E+03</pdfrwt>
<pdfrwt beam="2">  1       -1 0.38867531E-01 0.20005092E+03</pdfrwt>
<totfact> 0.98074062E+03</totfact>
</mgrwt>
</event>
<event>
 4    1  0.3352993E-004  0.3046289E+03  0.7818608E-02  0.1082949E+00
          1   -1    0    0  501    0  0.00000000000E+00  0.00000000000E+00  0.57284837117E+03  0.57284837119E+03  0.50400000000E-02 0. -1.
         -1   -1    0    0    0  501 -0.00000000000E+00 -0.00000000000E+00 -0.40498829698E+02  0.40498830012E+02  0.50400000000E-02 0.  1.
    5000001    1    1    2    0    0  0.29637050542E+02  0.71936021814E+02  0.52927157290E+02  0.12158712916E+03  0.77000000000E+02 0.  0.
   -5000001    1    1    2    0    0 -0.29637050542E+02 -0.71936021814E+02  0.47942238418E+03  0.49176007204E+03  0.77000000000E+02 0.  0.
<mgrwt>
<rscale>  0 0.30462888E+03</rscale>
<asrwt>0</asrwt>
<pdfrwt beam="1">  1        1 0.81835475E-01 0.30462888E+03</pdfrwt>
<pdfrwt beam="2">  1       -1 0.57855476E-02 0.30462888E+03</pdfrwt>
<totfact> 0.58624349E+03</totfact>
</mgrwt>
</event>
<event>
 4    1  0.3352993E-004  0.2622627E+03  0.7818608E-02  0.1105791E+00
          1   -1    0    0  501    0  0.00000000000E+00  0.00000000000E+00  0.19571297152E+04  0.19571297152E+04  0.50400000000E-02 0. -1.
         -1   -1    0    0    0  501 -0.00000000000E+00 -0.00000000000E+00 -0.87860468167E+01  0.87860482622E+01  0.50400000000E-02 0.  1.
    5000001    1    1    2    0    0 -0.65972939353E+02 -0.80801776221E+02  0.82707503368E+03  0.83717588779E+03  0.77000000000E+02 0.  0.
   -5000001    1    1    2    0    0  0.65972939353E+02  0.80801776221E+02  0.11212686347E+04  0.11287398756E+04  0.77000000000E+02 0.  0.
<mgrwt>
<rscale>  0 0.26226273E+03</rscale>
<asrwt>0</asrwt>
<pdfrwt beam="1">  1        1 0.27959024E+00 0.26226273E+03</pdfrwt>
<pdfrwt beam="2">  1       -1 0.12551484E-02 0.26226273E+03</pdfrwt>
<totfact> 0.59955775E+03</totfact>
</mgrwt>
</event>
<event>
 4    1  0.3352993E-004  0.2302989E+03  0.7818608E-02  0.1126430E+00
         -1   -1    0    0    0  501 -0.00000000000E+00  0.00000000000E+00  0.62066165898E+01  0.62066186362E+01  0.50400000000E-02 0. -1.
          1   -1    0    0  501    0  0.00000000000E+00 -0.00000000000E+00 -0.21363315655E+04  0.21363315655E+04  0.50400000000E-02 0.  1.
    5000001    1    1    2    0    0  0.20168275989E+02  0.72569476514E+02 -0.14437996646E+04  0.14478119905E+04  0.77000000000E+02 0.  0.
   -5000001    1    1    2    0    0 -0.20168275989E+02 -0.72569476514E+02 -0.68632528435E+03  0.69472619370E+03  0.77000000000E+02 0.  0.
<mgrwt>
<rscale>  0 0.23029888E+03</rscale>
<asrwt>0</asrwt>
<pdfrwt beam="1">  1        1 0.30518975E+00 0.23029888E+03</pdfrwt>
<pdfrwt beam="2">  1       -1 0.88666103E-03 0.23029888E+03</pdfrwt>
<totfact> 0.77145009E+03</totfact>
</mgrwt>
</event>
<event>
 4    1  0.3352993E-004  0.5557367E+03  0.7818608E-02  0.1000175E+00
         -1   -1    0    0    0  501 -0.00000000000E+00  0.00000000000E+00  0.13922144203E+03  0.13922144212E+03  0.50400000000E-02 0. -1.
          1   -1    0    0  501    0  0.00000000000E+00 -0.00000000000E+00 -0.55458990618E+03  0.55458990620E+03  0.50400000000E-02 0.  1.
    5000001    1    1    2    0    0  0.36208956198E+02 -0.25994538679E+03 -0.14653404481E+03  0.31029650161E+03  0.77000000000E+02 0.  0.
   -5000001    1    1    2    0    0 -0.36208956198E+02  0.25994538679E+03 -0.26883441935E+03  0.38351484671E+03  0.77000000000E+02 0.  0.
<mgrwt>
<rscale>  0 0.55573665E+03</rscale>
<asrwt>0</asrwt>
<pdfrwt beam="1">  1        1 0.79227128E-01 0.55573665E+03</pdfrwt>
<pdfrwt beam="2">  1       -1 0.19888778E-01 0.55573665E+03</pdfrwt>
<totfact> 0.88252906E+02</totfact>
</mgrwt>
</event>
<event>
 4    1  0.3352993E-004  0.5489619E+03  0.7818608E-02  0.1001735E+00
         -1   -1    0    0    0  501 -0.00000000000E+00  0.00000000000E+00  0.18299069744E+03  0.18299069751E+03  0.50400000000E-02 0. -1.
          1   -1    0    0  501    0  0.00000000000E+00 -0.00000000000E+00 -0.41171371570E+03  0.41171371573E+03  0.50400000000E-02 0.  1.
    5000001    1    1    2    0    0  0.53249788813E+02  0.21120951442E+03 -0.27491964481E+03  0.35910278486E+03  0.77000000000E+02 0.  0.
   -5000001    1    1    2    0    0 -0.53249788813E+02 -0.21120951442E+03  0.46196626554E+02  0.23560162838E+03  0.77000000000E+02 0.  0.
<mgrwt>
<rscale>  0 0.54896186E+03</rscale>
<asrwt>0</asrwt>
<pdfrwt beam="1">  1        1 0.58816245E-01 0.54896186E+03</pdfrwt>
<pdfrwt beam="2">  1       -1 0.26141528E-01 0.54896186E+03</pdfrwt>
<totfact> 0.83045097E+02</totfact>
</mgrwt>
</event>
<event>
 4    1  0.3352993E-004  0.1880188E+03  0.7818608E-02  0.1160260E+00
         -1   -1    0    0    0  501 -0.00000000000E+00  0.00000000000E+00  0.17316776360E+03  0.17316776367E+03  0.50400000000E-02 0.  1.
          1   -1    0    0  501    0  0.00000000000E+00 -0.00000000000E+00 -0.51035873604E+02  0.51035873853E+02  0.50400000000E-02 0. -1.
    5000001    1    1    2    0    0 -0.14895037107E+02  0.51774863985E+02  0.58080174358E+02  0.11047536071E+03  0.77000000000E+02 0.  0.
   -5000001    1    1    2    0    0  0.14895037107E+02 -0.51774863985E+02  0.64051715638E+02  0.11372827681E+03  0.77000000000E+02 0.  0.
<mgrwt>
<rscale>  0 0.18801881E+03</rscale>
<asrwt>0</asrwt>
<pdfrwt beam="1">  1        1 0.72908391E-02 0.18801881E+03</pdfrwt>
<pdfrwt beam="2">  1       -1 0.24738252E-01 0.18801881E+03</pdfrwt>
<totfact> 0.13452368E+04</totfact>
</mgrwt>
</event>
<event>
 4    1  0.3352993E-004  0.1782043E+03  0.7818608E-02  0.1169552E+00
          1   -1    0    0  501    0  0.00000000000E+00  0.00000000000E+00  0.13578950317E+04  0.13578950317E+04  0.50400000000E-02 0.  1.
         -1   -1    0    0    0  501 -0.00000000000E+00 -0.00000000000E+00 -0.58466909911E+01  0.58466931634E+01  0.50400000000E-02 0. -1.
    5000001    1    1    2    0    0  0.80719322242E+01  0.41879166803E+02  0.57021393195E+03  0.57696789243E+03  0.77000000000E+02 0.  0.
   -5000001    1    1    2    0    0 -0.80719322242E+01 -0.41879166803E+02  0.78183440877E+03  0.78677383246E+03  0.77000000000E+02 0.  0.
<mgrwt>
<rscale>  0 0.17820431E+03</rscale>
<asrwt>0</asrwt>
<pdfrwt beam="1">  1        1 0.19398521E+00 0.17820431E+03</pdfrwt>
<pdfrwt beam="2">  1       -1 0.83524084E-03 0.17820431E+03</pdfrwt>
<totfact> 0.24703437E+04</totfact>
</mgrwt>
</event>
<event>
 4    1  0.3352993E-004  0.2970308E+03  0.7818608E-02  0.1086734E+00
         -1   -1    0    0    0  501 -0.00000000000E+00  0.00000000000E+00  0.43475047901E+02  0.43475048193E+02  0.50400000000E-02 0. -1.
          1   -1    0    0  501    0  0.00000000000E+00 -0.00000000000E+00 -0.50734456964E+03  0.50734456967E+03  0.50400000000E-02 0.  1.
    5000001    1    1    2    0    0  0.95472183223E+02  0.82918830163E+02 -0.21020089226E+03  0.25710675851E+03  0.77000000000E+02 0.  0.
   -5000001    1    1    2    0    0 -0.95472183223E+02 -0.82918830163E+02 -0.25366862948E+03  0.29371285935E+03  0.77000000000E+02 0.  0.
<mgrwt>
<rscale>  0 0.29703084E+03</rscale>
<asrwt>0</asrwt>
<pdfrwt beam="1">  1        1 0.72477792E-01 0.29703084E+03</pdfrwt>
<pdfrwt beam="2">  1       -1 0.62107214E-02 0.29703084E+03</pdfrwt>
<totfact> 0.61878768E+03</totfact>
</mgrwt>
</event>
<event>
 4    1  0.3352993E-004  0.2032022E+03  0.7818608E-02  0.1147065E+00
          1   -1    0    0  501    0  0.00000000000E+00  0.00000000000E+00  0.74662440756E+02  0.74662440927E+02  0.50400000000E-02 0.  1.
         -1   -1    0    0    0  501 -0.00000000000E+00 -0.00000000000E+00 -0.13825934255E+03  0.13825934264E+03  0.50400000000E-02 0. -1.
    5000001    1    1    2    0    0  0.34255499860E+02  0.53425466447E+02 -0.51846312621E+02  0.11244892115E+03  0.77000000000E+02 0.  0.
   -5000001    1    1    2    0    0 -0.34255499860E+02 -0.53425466447E+02 -0.11750589170E+02  0.10047286241E+03  0.77000000000E+02 0.  0.
<mgrwt>
<rscale>  0 0.20320217E+03</rscale>
<asrwt>0</asrwt>
<pdfrwt beam="1">  1        1 0.10666063E-01 0.20320217E+03</pdfrwt>
<pdfrwt beam="2">  1       -1 0.19751335E-01 0.20320217E+03</pdfrwt>
<totfact> 0.11714884E+04</totfact>
</mgrwt>
</event>
<event>
 4    1  0.3352993E-004  0.2001415E+03  0.7818608E-02  0.1149620E+00
         -1   -1    0    0    0  501 -0.00000000000E+00  0.00000000000E+00  0.15924965145E+02  0.15924965943E+02  0.50400000000E-02 0.  1.
          1   -1    0    0  501    0  0.00000000000E+00 -0.00000000000E+00 -0.62883340452E+03  0.62883340454E+03  0.50400000000E-02 0. -1.
    5000001    1    1    2    0    0  0.41099928526E+02 -0.40783488747E+02 -0.39365275211E+03  0.40527026331E+03  0.77000000000E+02 0.  0.
   -5000001    1    1    2    0    0 -0.41099928526E+02  0.40783488747E+02 -0.21925568727E+03  0.23948810717E+03  0.77000000000E+02 0.  0.
<mgrwt>
<rscale>  0 0.20014145E+03</rscale>
<asrwt>0</asrwt>
<pdfrwt beam="1">  1        1 0.89833328E-01 0.20014145E+03</pdfrwt>
<pdfrwt beam="2">  1       -1 0.22749955E-02 0.20014145E+03</pdfrwt>
<totfact> 0.20185915E+04</totfact>
</mgrwt>
</event>
<event>
 4    1  0.3352993E-004  0.2655623E+03  0.7818608E-02  0.1103847E+00
          1   -1    0    0  501    0  0.00000000000E+00  0.00000000000E+00  0.16737588787E+03  0.16737588794E+03  0.50400000000E-02 0.  1.
         -1   -1    0    0    0  501 -0.00000000000E+00 -0.00000000000E+00 -0.10533673766E+03  0.10533673778E+03  0.50400000000E-02 0. -1.
    5000001    1    1    2    0    0  0.94930090079E+02  0.47886595096E+02  0.10558695900E+02  0.13170168583E+03  0.77000000000E+02 0.  0.
   -5000001    1    1    2    0    0 -0.94930090079E+02 -0.47886595096E+02  0.51480454308E+02  0.14101093989E+03  0.77000000000E+02 0.  0.
<mgrwt>
<rscale>  0 0.26556227E+03</rscale>
<asrwt>0</asrwt>
<pdfrwt beam="1">  1        1 0.23910841E-01 0.26556227E+03</pdfrwt>
<pdfrwt beam="2">  1       -1 0.15048105E-01 0.26556227E+03</pdfrwt>
<totfact> 0.64132796E+03</totfact>
</mgrwt>
</event>
<event>
 4    1  0.3352993E-004  0.1742642E+03  0.7818608E-02  0.1173473E+00
          1   -1    0    0  501    0  0.00000000000E+00  0.00000000000E+00  0.70557642019E+02  0.70557642199E+02  0.50400000000E-02 0. -1.
         -1   -1    0    0    0  501 -0.00000000000E+00 -0.00000000000E+00 -0.10759996667E+03  0.10759996679E+03  0.50400000000E-02 0.  1.
    5000001    1    1    2    0    0  0.37938373956E+02  0.56357120356E+01 -0.43581808278E+01  0.86134053711E+02  0.77000000000E+02 0.  0.
   -5000001    1    1    2    0    0 -0.37938373956E+02 -0.56357120356E+01 -0.32684143826E+02  0.92023555279E+02  0.77000000000E+02 0.  0.
<mgrwt>
<rscale>  0 0.17426417E+03</rscale>
<asrwt>0</asrwt>
<pdfrwt beam="1">  1        1 0.10079663E-01 0.17426417E+03</pdfrwt>
<pdfrwt beam="2">  1       -1 0.15371424E-01 0.17426417E+03</pdfrwt>
<totfact> 0.18622149E+04</totfact>
</mgrwt>
</event>
<event>
 4    1  0.3352993E-004  0.2572797E+03  0.7818608E-02  0.1108789E+00
         -1   -1    0    0    0  501 -0.00000000000E+00  0.00000000000E+00  0.37962119084E+03  0.37962119088E+03  0.50400000000E-02 0.  1.
          1   -1    0    0  501    0  0.00000000000E+00 -0.00000000000E+00 -0.43591372796E+02  0.43591373087E+02  0.50400000000E-02 0. -1.
    5000001    1    1    2    0    0 -0.42383722639E+02  0.81885824032E+02  0.24371021558E+03  0.27170818408E+03  0.77000000000E+02 0.  0.
   -5000001    1    1    2    0    0  0.42383722639E+02 -0.81885824032E+02  0.92319602471E+02  0.15150437988E+03  0.77000000000E+02 0.  0.
<mgrwt>
<rscale>  0 0.25727968E+03</rscale>
<asrwt>0</asrwt>
<pdfrwt beam="1">  1        1 0.62273388E-02 0.25727968E+03</pdfrwt>
<pdfrwt beam="2">  1       -1 0.54231600E-01 0.25727968E+03</pdfrwt>
<totfact> 0.42974922E+03</totfact>
</mgrwt>
</event>
<event>
 4    1  0.3352993E-004  0.2348624E+03  0.7818608E-02  0.1123263E+00
         -1   -1    0    0    0  501 -0.00000000000E+00  0.00000000000E+00  0.89129315312E+02  0.89129315454E+02  0.50400000000E-02 0.  1.
          1   -1    0    0  501    0  0.00000000000E+00 -0.00000000000E+00 -0.15472002466E+03  0.15472002474E+03  0.50400000000E-02 0. -1.
    5000001    1    1    2    0    0  0.29601822624E+02 -0.82101207404E+02 -0.16570041831E+02  0.11756037788E+03  0.77000000000E+02 0.  0.
   -5000001    1    1    2    0    0 -0.29601822624E+02  0.82101207404E+02 -0.49020667515E+02  0.12628896232E+03  0.77000000000E+02 0.  0.
<mgrwt>
<rscale>  0 0.23486243E+03</rscale>
<asrwt>0</asrwt>
<pdfrwt beam="1">  1        1 0.22102860E-01 0.23486243E+03</pdfrwt>
<pdfrwt beam="2">  1       -1 0.12732759E-01 0.23486243E+03</pdfrwt>
<totfact> 0.91728632E+03</totfact>
</mgrwt>
</event>
<event>
 4    1  0.3352993E-004  0.2293360E+03  0.7818608E-02  0.1127108E+00
          1   -1    0    0  501    0  0.00000000000E+00  0.00000000000E+00  0.54324029828E+02  0.54324030062E+02  0.50400000000E-02 0. -1.
         -1   -1    0    0    0  501 -0.00000000000E+00 -0.00000000000E+00 -0.24204302722E+03  0.24204302727E+03  0.50400000000E-02 0.  1.
    5000001    1    1    2    0    0 -0.35622314672E+02 -0.65242297144E+02 -0.40667550995E+02  0.11449173046E+03  0.77000000000E+02 0.  0.
   -5000001    1    1    2    0    0  0.35622314672E+02  0.65242297144E+02 -0.14705144640E+03  0.18187532688E+03  0.77000000000E+02 0.  0.
<mgrwt>
<rscale>  0 0.22933602E+03</rscale>
<asrwt>0</asrwt>
<pdfrwt beam="1">  1        1 0.77605759E-02 0.22933602E+03</pdfrwt>
<pdfrwt beam="2">  1       -1 0.34577575E-01 0.22933602E+03</pdfrwt>
<totfact> 0.71127579E+03</totfact>
</mgrwt>
</event>
<event>
 4    1  0.3352993E-004  0.3365803E+03  0.7818608E-02  0.1068262E+00
          1   -1    0    0  501    0  0.00000000000E+00  0.00000000000E+00  0.90678527607E+03  0.90678527609E+03  0.50400000000E-02 0.  1.
         -1   -1    0    0    0  501 -0.00000000000E+00 -0.00000000000E+00 -0.31232946249E+02  0.31232946656E+02  0.50400000000E-02 0. -1.
    5000001    1    1    2    0    0 -0.13844755880E+03  0.60945268249E+01  0.28042798837E+03  0.32213929667E+03  0.77000000000E+02 0.  0.
   -5000001    1    1    2    0    0  0.13844755880E+03 -0.60945268249E+01  0.59512434145E+03  0.61587892607E+03  0.77000000000E+02 0.  0.
<mgrwt>
<rscale>  0 0.33658031E+03</rscale>
<asrwt>0</asrwt>
<pdfrwt beam="1">  1        1 0.12954077E+00 0.33658031E+03</pdfrwt>
<pdfrwt beam="2">  1       -1 0.44618491E-02 0.33658031E+03</pdfrwt>
<totfact> 0.44563924E+03</totfact>
</mgrwt>
</event>
<event>
 4    1  0.3352993E-004  0.2583383E+03  0.7818608E-02  0.1108146E+00
          1   -1    0    0  501    0  0.00000000000E+00  0.00000000000E+00  0.28832332067E+03  0.28832332071E+03  0.50400000000E-02 0. -1.
         -1   -1    0    0    0  501 -0.00000000000E+00 -0.00000000000E+00 -0.57867910298E+02  0.57867910517E+02  0.50400000000E-02 0.  1.
    5000001    1    1    2    0    0 -0.89817596351E+02 -0.22890690782E+01  0.18464313899E+03  0.21930464935E+03  0.77000000000E+02 0.  0.
   -5000001    1    1    2    0    0  0.89817596351E+02  0.22890690782E+01  0.45812271383E+02  0.12688658188E+03  0.77000000000E+02 0.  0.
<mgrwt>
<rscale>  0 0.25833829E+03</rscale>
<asrwt>0</asrwt>
<pdfrwt beam="1">  1        1 0.41189047E-01 0.25833829E+03</pdfrwt>
<pdfrwt beam="2">  1       -1 0.82668442E-02 0.25833829E+03</pdfrwt>
<totfact> 0.81910237E+03</totfact>
</mgrwt>
</event>
<event>
 4    1  0.3352993E-004  0.2265438E+03  0.7818608E-02  0.1129096E+00
          1   -1    0    0  501    0  0.00000000000E+00  0.00000000000E+00  0.30879359077E+02  0.30879359488E+02  0.50400000000E-02 0.  1.
         -1   -1    0    0    0  501 -0.00000000000E+00 -0.00000000000E+00 -0.41550497768E+03  0.41550497771E+03  0.50400000000E-02 0. -1.
    5000001    1    1    2    0    0  0.26910343666E+02  0.75865774550E+02 -0.15184760394E+03  0.18832545544E+03  0.77000000000E+02 0.  0.
   -5000001    1    1    2    0    0 -0.26910343666E+02 -0.75865774550E+02 -0.23277801467E+03  0.25805888176E+03  0.77000000000E+02 0.  0.
<mgrwt>
<rscale>  0 0.22654384E+03</rscale>
<asrwt>0</asrwt>
<pdfrwt beam="1">  1        1 0.44113373E-02 0.22654384E+03</pdfrwt>
<pdfrwt beam="2">  1       -1 0.59357851E-01 0.22654384E+03</pdfrwt>
<totfact> 0.57958384E+03</totfact>
</mgrwt>
</event>
<event>
 4    1  0.3352993E-004  0.3356488E+03  0.7818608E-02  0.1068664E+00
         -1   -1    0    0    0  501 -0.00000000000E+00  0.00000000000E+00  0.60954735109E+02  0.60954735317E+02  0.50400000000E-02 0. -1.
          1   -1    0    0  501    0  0.00000000000E+00 -0.00000000000E+00 -0.46206473726E+03  0.46206473729E+03  0.50400000000E-02 0.  1.
    5000001    1    1    2    0    0  0.14030561492E+03 -0.23560842807E+02 -0.13095136773E+03  0.20812986236E+03  0.77000000000E+02 0.  0.
   -5000001    1    1    2    0    0 -0.14030561492E+03  0.23560842807E+02 -0.27015863442E+03  0.31488961025E+03  0.77000000000E+02 0.  0.
<mgrwt>
<rscale>  0 0.33564883E+03</rscale>
<asrwt>0</asrwt>
<pdfrwt beam="1">  1        1 0.66009246E-01 0.33564883E+03</pdfrwt>
<pdfrwt beam="2">  1       -1 0.87078196E-02 0.33564883E+03</pdfrwt>
<totfact> 0.41872945E+03</totfact>
</mgrwt>
</event>
<event>
 4    1  0.3352993E-004  0.3034420E+03  0.7818608E-02  0.1083533E+00
          1   -1    0    0  501    0  0.00000000000E+00  0.00000000000E+00  0.15502352094E+03  0.15502352102E+03  0.50400000000E-02 0.  1.
         -1   -1    0    0    0  501 -0.00000000000E+00 -0.00000000000E+00 -0.14848885941E+03  0.14848885950E+03  0.50400000000E-02 0. -1.
    5000001    1    1    2    0    0 -0.12928810134E+03 -0.80639603232E+01  0.20873264760E+02  0.15213524834E+03  0.77000000000E+02 0.  0.
   -5000001    1    1    2    0    0  0.12928810134E+03  0.80639603232E+01 -0.14338603236E+02  0.15137713218E+03  0.77000000000E+02 0.  0.
<mgrwt>
<rscale>  0 0.30344203E+03</rscale>
<asrwt>0</asrwt>
<pdfrwt beam="1">  1        1 0.22146217E-01 0.30344203E+03</pdfrwt>
<pdfrwt beam="2">  1       -1 0.21212694E-01 0.30344203E+03</pdfrwt>
<totfact> 0.40864569E+03</totfact>
</mgrwt>
</event>
<event>
 4    1  0.3352993E-004  0.1768601E+03  0.7818608E-02  0.1170877E+00
          1   -1    0    0  501    0  0.00000000000E+00  0.00000000000E+00  0.64634350822E+02  0.64634351019E+02  0.50400000000E-02 0.  1.
         -1   -1    0    0    0  501 -0.00000000000E+00 -0.00000000000E+00 -0.12098628854E+03  0.12098628865E+03  0.50400000000E-02 0. -1.
    5000001    1    1    2    0    0  0.38792207930E+02  0.92114649805E+01 -0.46390259973E+02  0.98339934429E+02  0.77000000000E+02 0.  0.
   -5000001    1    1    2    0    0 -0.38792207930E+02 -0.92114649805E+01 -0.99616777481E+01  0.87280705238E+02  0.77000000000E+02 0.  0.
<mgrwt>
<rscale>  0 0.17686006E+03</rscale>
<asrwt>0</asrwt>
<pdfrwt beam="1">  1        1 0.92334788E-02 0.17686006E+03</pdfrwt>
<pdfrwt beam="2">  1       -1 0.17283755E-01 0.17686006E+03</pdfrwt>
<totfact> 0.17407259E+04</totfact>
</mgrwt>
</event>
<event>
 4    1  0.3352993E-004  0.1849284E+03  0.7818608E-02  0.1163117E+00
         -1   -1    0    0    0  501 -0.00000000000E+00  0.00000000000E+00  0.37688690482E+02  0.37688690819E+02  0.50400000000E-02 0. -1.
          1   -1    0    0  501    0  0.00000000000E+00 -0.00000000000E+00 -0.22684869717E+03  0.22684869723E+03  0.50400000000E-02 0.  1.
    5000001    1    1    2    0    0 -0.13182307154E+02  0.36395930105E+02 -0.46659953891E+02  0.98003001216E+02  0.77000000000E+02 0.  0.
   -5000001    1    1    2    0    0  0.13182307154E+02 -0.36395930105E+02 -0.14250005280E+03  0.16653438683E+03  0.77000000000E+02 0.  0.
<mgrwt>
<rscale>  0 0.18492842E+03</rscale>
<asrwt>0</asrwt>
<pdfrwt beam="1">  1        1 0.32406956E-01 0.18492842E+03</pdfrwt>
<pdfrwt beam="2">  1       -1 0.53840988E-02 0.18492842E+03</pdfrwt>
<totfact> 0.20684935E+04</totfact>
</mgrwt>
</event>
<event>
 4    1  0.3352993E-004  0.2500271E+03  0.7818608E-02  0.1113288E+00
         -1   -1    0    0    0  501 -0.00000000000E+00  0.00000000000E+00  0.83285826835E+01  0.83285842084E+01  0.50400000000E-02 0.  1.
          1   -1    0    0  501    0  0.00000000000E+00 -0.00000000000E+00 -0.18764764448E+04  0.18764764448E+04  0.50400000000E-02 0. -1.
    5000001    1    1    2    0    0  0.72743202155E+00  0.95375442730E+02 -0.74905468866E+03  0.75901839954E+03  0.77000000000E+02 0.  0.
   -5000001    1    1    2    0    0 -0.72743202155E+00 -0.95375442730E+02 -0.11190931734E+04  0.11257866295E+04  0.77000000000E+02 0.  0.
<mgrwt>
<rscale>  0 0.25002712E+03</rscale>
<asrwt>0</asrwt>
<pdfrwt beam="1">  1        1 0.26806779E+00 0.25002712E+03</pdfrwt>
<pdfrwt beam="2">  1       -1 0.11897988E-02 0.25002712E+03</pdfrwt>
<totfact> 0.72409635E+03</totfact>
</mgrwt>
</event>
<event>
 4    1  0.3352993E-004  0.5696346E+03  0.7818608E-02  0.9970488E-01
         -1   -1    0    0    0  501 -0.00000000000E+00  0.00000000000E+00  0.27609483225E+03  0.27609483230E+03  0.50400000000E-02 0. -1.
          1   -1    0    0  501    0  0.00000000000E+00 -0.00000000000E+00 -0.29381528284E+03  0.29381528289E+03  0.50400000000E-02 0.  1.
    5000001    1    1    2    0    0  0.59295385095E+02  0.26181879428E+03 -0.64805586999E+02  0.28669458983E+03  0.77000000000E+02 0.  0.
   -5000001    1    1    2    0    0 -0.59295385095E+02 -0.26181879428E+03  0.47085136407E+02  0.28321552536E+03  0.77000000000E+02 0.  0.
<mgrwt>
<rscale>  0 0.56963455E+03</rscale>
<asrwt>0</asrwt>
<pdfrwt beam="1">  1        1 0.41973612E-01 0.56963455E+03</pdfrwt>
<pdfrwt beam="2">  1       -1 0.39442119E-01 0.56963455E+03</pdfrwt>
<totfact> 0.62526697E+02</totfact>
</mgrwt>
</event>
<event>
 4    1  0.3352993E-004  0.2026092E+03  0.7818608E-02  0.1147556E+00
         -1   -1    0    0    0  501 -0.00000000000E+00  0.00000000000E+00  0.17353738188E+03  0.17353738195E+03  0.50400000000E-02 0. -1.
          1   -1    0    0  501    0  0.00000000000E+00 -0.00000000000E+00 -0.59137834948E+02  0.59137835163E+02  0.50400000000E-02 0.  1.
    5000001    1    1    2    0    0  0.26839994679E+02  0.58483677344E+02  0.73149607577E+02  0.12417967192E+03  0.77000000000E+02 0.  0.
   -5000001    1    1    2    0    0 -0.26839994679E+02 -0.58483677344E+02  0.41249939355E+02  0.10849554519E+03  0.77000000000E+02 0.  0.
<mgrwt>
<rscale>  0 0.20260923E+03</rscale>
<asrwt>0</asrwt>
<pdfrwt beam="1">  1        1 0.84482622E-02 0.20260923E+03</pdfrwt>
<pdfrwt beam="2">  1       -1 0.24791054E-01 0.20260923E+03</pdfrwt>
<totfact> 0.11042650E+04</totfact>
</mgrwt>
</event>
<event>
 4    1  0.3352993E-004  0.2880373E+03  0.7818608E-02  0.1091378E+00
          1   -1    0    0  501    0  0.00000000000E+00  0.00000000000E+00  0.28445795007E+02  0.28445795453E+02  0.50400000000E-02 0.  1.
         -1   -1    0    0    0  501 -0.00000000000E+00 -0.00000000000E+00 -0.72915435264E+03  0.72915435266E+03  0.50400000000E-02 0. -1.
    5000001    1    1    2    0    0 -0.11636606345E+03  0.17282552080E+02 -0.43238276239E+03  0.45466867117E+03  0.77000000000E+02 0.  0.
   -5000001    1    1    2    0    0  0.11636606345E+03 -0.17282552080E+02 -0.26832579524E+03  0.30293147694E+03  0.77000000000E+02 0.  0.
<mgrwt>
<rscale>  0 0.28803733E+03</rscale>
<asrwt>0</asrwt>
<pdfrwt beam="1">  1        1 0.40636855E-02 0.28803733E+03</pdfrwt>
<pdfrwt beam="2">  1       -1 0.10416490E+00 0.28803733E+03</pdfrwt>
<totfact> 0.20457096E+03</totfact>
</mgrwt>
</event>
<event>
 4    1  0.3352993E-004  0.3411513E+03  0.7818608E-02  0.1066307E+00
         -1   -1    0    0    0  501 -0.00000000000E+00  0.00000000000E+00  0.47819265863E+02  0.47819266129E+02  0.50400000000E-02 0. -1.
          1   -1    0    0  501    0  0.00000000000E+00 -0.00000000000E+00 -0.60845888904E+03  0.60845888906E+03  0.50400000000E-02 0.  1.
    5000001    1    1    2    0    0  0.14975878781E+02 -0.14811613020E+03 -0.21935312235E+03  0.27605698190E+03  0.77000000000E+02 0.  0.
   -5000001    1    1    2    0    0 -0.14975878781E+02  0.14811613020E+03 -0.34128650083E+03  0.38022117329E+03  0.77000000000E+02 0.  0.
<mgrwt>
<rscale>  0 0.34115133E+03</rscale>
<asrwt>0</asrwt>
<pdfrwt beam="1">  1        1 0.86922694E-01 0.34115133E+03</pdfrwt>
<pdfrwt beam="2">  1       -1 0.68313241E-02 0.34115133E+03</pdfrwt>
<totfact> 0.42068473E+03</totfact>
</mgrwt>
</event>
<event>
 4    1  0.3352993E-004  0.2777311E+03  0.7818608E-02  0.1096935E+00
         -1   -1    0    0    0  501 -0.00000000000E+00  0.00000000000E+00  0.22775831997E+02  0.22775832554E+02  0.50400000000E-02 0. -1.
          1   -1    0    0  501    0  0.00000000000E+00 -0.00000000000E+00 -0.84667099412E+03  0.84667099414E+03  0.50400000000E-02 0.  1.
    5000001    1    1    2    0    0  0.10815170013E+03  0.96736721270E+01 -0.53576276855E+03  0.55205173157E+03  0.77000000000E+02 0.  0.
   -5000001    1    1    2    0    0 -0.10815170013E+03 -0.96736721270E+01 -0.28813239358E+03  0.31739509512E+03  0.77000000000E+02 0.  0.
<mgrwt>
<rscale>  0 0.27773107E+03</rscale>
<asrwt>0</asrwt>
<pdfrwt beam="1">  1        1 0.12095298E+00 0.27773107E+03</pdfrwt>
<pdfrwt beam="2">  1       -1 0.32536909E-02 0.27773107E+03</pdfrwt>
<totfact> 0.79038031E+03</totfact>
</mgrwt>
</event>
<event>
 4    1  0.3352993E-004  0.3414815E+03  0.7818608E-02  0.1066167E+00
          1   -1    0    0  501    0  0.00000000000E+00  0.00000000000E+00  0.33733692554E+04  0.33733692554E+04  0.50400000000E-02 0. -1.
         -1   -1    0    0    0  501 -0.00000000000E+00 -0.00000000000E+00 -0.86419222181E+01  0.86419236877E+01  0.50400000000E-02 0.  1.
    5000001    1    1    2    0    0  0.14812017352E+03  0.25679542642E+02  0.14348895466E+04  0.14447961917E+04  0.77000000000E+02 0.  0.
   -5000001    1    1    2    0    0 -0.14812017352E+03 -0.25679542642E+02  0.19298377865E+04  0.19372149873E+04  0.77000000000E+02 0.  0.
<mgrwt>
<rscale>  0 0.34148146E+03</rscale>
<asrwt>0</asrwt>
<pdfrwt beam="1">  1        1 0.48190824E+00 0.34148146E+03</pdfrwt>
<pdfrwt beam="2">  1       -1 0.12345647E-02 0.34148146E+03</pdfrwt>
<totfact> 0.80137433E+02</totfact>
</mgrwt>
</event>
<event>
 4    1  0.3352993E-004  0.3781493E+03  0.7818608E-02  0.1051620E+00
         -1   -1    0    0    0  501 -0.00000000000E+00  0.00000000000E+00  0.81197523398E+03  0.81197523400E+03  0.50400000000E-02 0.  1.
          1   -1    0    0  501    0  0.00000000000E+00 -0.00000000000E+00 -0.44027489475E+02  0.44027489764E+02  0.50400000000E-02 0. -1.
    5000001    1    1    2    0    0 -0.36241780232E+02  0.16833392531E+03  0.35441991818E+03  0.40148755329E+03  0.77000000000E+02 0.  0.
   -5000001    1    1    2    0    0  0.36241780232E+02 -0.16833392531E+03  0.41352782633E+03  0.45451517047E+03  0.77000000000E+02 0.  0.
<mgrwt>
<rscale>  0 0.37814934E+03</rscale>
<asrwt>0</asrwt>
<pdfrwt beam="1">  1        1 0.62896419E-02 0.37814934E+03</pdfrwt>
<pdfrwt beam="2">  1       -1 0.11599645E+00 0.37814934E+03</pdfrwt>
<totfact> 0.87053107E+02</totfact>
</mgrwt>
</event>
<event>
 4    1  0.3352993E-004  0.2753760E+03  0.7818608E-02  0.1098242E+00
          1   -1    0    0  501    0  0.00000000000E+00  0.00000000000E+00  0.16493458672E+03  0.16493458680E+03  0.50400000000E-02 0.  1.
         -1   -1    0    0    0  501 -0.00000000000E+00 -0.00000000000E+00 -0.11494243733E+03  0.11494243744E+03  0.50400000000E-02 0. -1.
    5000001    1    1    2    0    0 -0.11040965017E+03 -0.26010575254E+02  0.37937725531E+02  0.14225017362E+03  0.77000000000E+02 0.  0.
   -5000001    1    1    2    0    0  0.11040965017E+03  0.26010575254E+02  0.12054423858E+02  0.13762685062E+03  0.77000000000E+02 0.  0.
<mgrwt>
<rscale>  0 0.27537599E+03</rscale>
<asrwt>0</asrwt>
<pdfrwt beam="1">  1        1 0.23562084E-01 0.27537599E+03</pdfrwt>
<pdfrwt beam="2">  1       -1 0.16420348E-01 0.27537599E+03</pdfrwt>
<totfact> 0.56949531E+03</totfact>
</mgrwt>
</event>
<event>
 4    1  0.3352993E-004  0.3287383E+03  0.7818608E-02  0.1071696E+00
         -1   -1    0    0    0  501 -0.00000000000E+00  0.00000000000E+00  0.13834092695E+03  0.13834092704E+03  0.50400000000E-02 0. -1.
          1   -1    0    0  501    0  0.00000000000E+00 -0.00000000000E+00 -0.19529448242E+03  0.19529448248E+03  0.50400000000E-02 0.  1.
    5000001    1    1    2    0    0 -0.61170528129E+02  0.12181869213E+03 -0.79288472511E+02  0.17549156429E+03  0.77000000000E+02 0.  0.
   -5000001    1    1    2    0    0  0.61170528129E+02 -0.12181869213E+03  0.22334917041E+02  0.15814384523E+03  0.77000000000E+02 0.  0.
<mgrwt>
<rscale>  0 0.32873831E+03</rscale>
<asrwt>0</asrwt>
<pdfrwt beam="1">  1        1 0.27899212E-01 0.32873831E+03</pdfrwt>
<pdfrwt beam="2">  1       -1 0.19762990E-01 0.32873831E+03</pdfrwt>
<totfact> 0.34219264E+03</totfact>
</mgrwt>
</event>
<event>
 4    1  0.3352993E-004  0.2063494E+03  0.7818608E-02  0.1144490E+00
          1   -1    0    0  501    0  0.00000000000E+00  0.00000000000E+00  0.37796650148E+02  0.37796650484E+02  0.50400000000E-02 0. -1.
         -1   -1    0    0    0  501 -0.00000000000E+00 -0.00000000000E+00 -0.28163915989E+03  0.28163915993E+03  0.50400000000E-02 0.  1.
    5000001    1    1    2    0    0 -0.10452871682E+02  0.67865461033E+02 -0.12349502542E+03  0.16091924879E+03  0.77000000000E+02 0.  0.
   -5000001    1    1    2    0    0  0.10452871682E+02 -0.67865461033E+02 -0.12034748432E+03  0.15851656162E+03  0.77000000000E+02 0.  0.
<mgrwt>
<rscale>  0 0.20634938E+03</rscale>
<asrwt>0</asrwt>
<pdfrwt beam="1">  1        1 0.53995216E-02 0.20634938E+03</pdfrwt>
<pdfrwt beam="2">  1       -1 0.40234165E-01 0.20634938E+03</pdfrwt>
<totfact> 0.89039857E+03</totfact>
</mgrwt>
</event>
<event>
 4    1  0.3352993E-004  0.2478316E+03  0.7818608E-02  0.1114683E+00
          1   -1    0    0  501    0  0.00000000000E+00  0.00000000000E+00  0.76358299027E+03  0.76358299029E+03  0.50400000000E-02 0. -1.
         -1   -1    0    0    0  501 -0.00000000000E+00 -0.00000000000E+00 -0.20109313291E+02  0.20109313923E+02  0.50400000000E-02 0.  1.
    5000001    1    1    2    0    0  0.73326469957E+00 -0.95935308184E+02  0.32462023993E+03  0.34714754962E+03  0.77000000000E+02 0.  0.
   -5000001    1    1    2    0    0 -0.73326469957E+00  0.95935308184E+02  0.41885343704E+03  0.43654475459E+03  0.77000000000E+02 0.  0.
<mgrwt>
<rscale>  0 0.24783164E+03</rscale>
<asrwt>0</asrwt>
<pdfrwt beam="1">  1        1 0.10908326E+00 0.24783164E+03</pdfrwt>
<pdfrwt beam="2">  1       -1 0.28727596E-02 0.24783164E+03</pdfrwt>
<totfact> 0.11036473E+04</totfact>
</mgrwt>
</event>
<event>
 4    1  0.3352993E-004  0.1877563E+03  0.7818608E-02  0.1160501E+00
          1   -1    0    0  501    0  0.00000000000E+00  0.00000000000E+00  0.10942362610E+04  0.10942362611E+04  0.50400000000E-02 0.  1.
         -1   -1    0    0    0  501 -0.00000000000E+00 -0.00000000000E+00 -0.80541120993E+01  0.80541136762E+01  0.50400000000E-02 0. -1.
    5000001    1    1    2    0    0  0.23163774429E+02  0.47341151030E+02  0.60363706421E+03  0.61080639348E+03  0.77000000000E+02 0.  0.
   -5000001    1    1    2    0    0 -0.23163774429E+02 -0.47341151030E+02  0.48254508474E+03  0.49148398126E+03  0.77000000000E+02 0.  0.
<mgrwt>
<rscale>  0 0.18775625E+03</rscale>
<asrwt>0</asrwt>
<pdfrwt beam="1">  1        1 0.15631931E+00 0.18775625E+03</pdfrwt>
<pdfrwt beam="2">  1       -1 0.11505887E-02 0.18775625E+03</pdfrwt>
<totfact> 0.23294750E+04</totfact>
</mgrwt>
</event>
<event>
 4    1  0.3352993E-004  0.2863544E+03  0.7818608E-02  0.1092268E+00
         -1   -1    0    0    0  501 -0.00000000000E+00  0.00000000000E+00  0.46325524532E+03  0.46325524534E+03  0.50400000000E-02 0. -1.
          1   -1    0    0  501    0  0.00000000000E+00 -0.00000000000E+00 -0.44251433112E+02  0.44251433399E+02  0.50400000000E-02 0.  1.
    5000001    1    1    2    0    0 -0.11995385384E+03  0.95503160440E+01  0.22636888425E+03  0.26767892585E+03  0.77000000000E+02 0.  0.
   -5000001    1    1    2    0    0  0.11995385384E+03 -0.95503160440E+01  0.19263492795E+03  0.23982775289E+03  0.77000000000E+02 0.  0.
<mgrwt>
<rscale>  0 0.28635439E+03</rscale>
<asrwt>0</asrwt>
<pdfrwt beam="1">  1        1 0.63216331E-02 0.28635439E+03</pdfrwt>
<pdfrwt beam="2">  1       -1 0.66179323E-01 0.28635439E+03</pdfrwt>
<totfact> 0.28797406E+03</totfact>
</mgrwt>
</event>
<event>
 4    1  0.3352993E-004  0.6160636E+03  0.7818608E-02  0.9872628E-01
         -1   -1    0    0    0  501 -0.00000000000E+00  0.00000000000E+00  0.69856338984E+02  0.69856339166E+02  0.50400000000E-02 0. -1.
          1   -1    0    0  501    0  0.00000000000E+00 -0.00000000000E+00 -0.13582675974E+04  0.13582675974E+04  0.50400000000E-02 0.  1.
    5000001    1    1    2    0    0 -0.17941839371E+03 -0.23780030022E+03 -0.67816932450E+03  0.74470301160E+03  0.77000000000E+02 0.  0.
   -5000001    1    1    2    0    0  0.17941839371E+03  0.23780030022E+03 -0.61024193387E+03  0.68342092493E+03  0.77000000000E+02 0.  0.
<mgrwt>
<rscale>  0 0.61606364E+03</rscale>
<asrwt>0</asrwt>
<pdfrwt beam="1">  1        1 0.19403821E+00 0.61606364E+03</pdfrwt>
<pdfrwt beam="2">  1       -1 0.99794778E-02 0.61606364E+03</pdfrwt>
<totfact> 0.62205632E+02</totfact>
</mgrwt>
</event>
<event>
 4    1  0.3352993E-004  0.1627960E+03  0.7818608E-02  0.1185576E+00
          1   -1    0    0  501    0  0.00000000000E+00  0.00000000000E+00  0.15164111536E+04  0.15164111536E+04  0.50400000000E-02 0. -1.
         -1   -1    0    0    0  501 -0.00000000000E+00 -0.00000000000E+00 -0.43692824256E+01  0.43692853325E+01  0.50400000000E-02 0.  1.
    5000001    1    1    2    0    0 -0.11628304177E+02  0.23382652426E+02  0.72024731723E+03  0.72482216016E+03  0.77000000000E+02 0.  0.
   -5000001    1    1    2    0    0  0.11628304177E+02 -0.23382652426E+02  0.79179455398E+03  0.79595827881E+03  0.77000000000E+02 0.  0.
<mgrwt>
<rscale>  0 0.16279596E+03</rscale>
<asrwt>0</asrwt>
<pdfrwt beam="1">  1        1 0.21663033E+00 0.16279596E+03</pdfrwt>
<pdfrwt beam="2">  1       -1 0.62418294E-03 0.16279596E+03</pdfrwt>
<totfact> 0.29648547E+04</totfact>
</mgrwt>
</event>
<event>
 4    1  0.3352993E-004  0.2749900E+03  0.7818608E-02  0.1098457E+00
         -1   -1    0    0    0  501 -0.00000000000E+00  0.00000000000E+00  0.81486902230E+01  0.81486917817E+01  0.50400000000E-02 0. -1.
          1   -1    0    0  501    0  0.00000000000E+00 -0.00000000000E+00 -0.23199891328E+04  0.23199891329E+04  0.50400000000E-02 0.  1.
    5000001    1    1    2    0    0 -0.62339948299E+02 -0.85319441936E+02 -0.15161294722E+04  0.15217566339E+04  0.77000000000E+02 0.  0.
   -5000001    1    1    2    0    0  0.62339948299E+02  0.85319441936E+02 -0.79571097038E+03  0.80638119070E+03  0.77000000000E+02 0.  0.
<mgrwt>
<rscale>  0 0.27499000E+03</rscale>
<asrwt>0</asrwt>
<pdfrwt beam="1">  1        1 0.33142660E+00 0.27499000E+03</pdfrwt>
<pdfrwt beam="2">  1       -1 0.11641002E-02 0.27499000E+03</pdfrwt>
<totfact> 0.40413782E+03</totfact>
</mgrwt>
</event>
<event>
 4    1  0.3352993E-004  0.2892618E+03  0.7818608E-02  0.1090735E+00
         -1   -1    0    0    0  501 -0.00000000000E+00  0.00000000000E+00  0.33259074162E+02  0.33259074544E+02  0.50400000000E-02 0.  1.
          1   -1    0    0  501    0  0.00000000000E+00 -0.00000000000E+00 -0.62894413069E+03  0.62894413071E+03  0.50400000000E-02 0. -1.
    5000001    1    1    2    0    0 -0.12177622427E+03 -0.66065453839E+01 -0.27318569126E+03  0.30892153882E+03  0.77000000000E+02 0.  0.
   -5000001    1    1    2    0    0  0.12177622427E+03  0.66065453839E+01 -0.32249936527E+03  0.35328166644E+03  0.77000000000E+02 0.  0.
<mgrwt>
<rscale>  0 0.28926182E+03</rscale>
<asrwt>0</asrwt>
<pdfrwt beam="1">  1        1 0.89849154E-01 0.28926182E+03</pdfrwt>
<pdfrwt beam="2">  1       -1 0.47512967E-02 0.28926182E+03</pdfrwt>
<totfact> 0.69286604E+03</totfact>
</mgrwt>
</event>
<event>
 4    1  0.3352993E-004  0.1983232E+03  0.7818608E-02  0.1151161E+00
          1   -1    0    0  501    0  0.00000000000E+00  0.00000000000E+00  0.72712839407E+02  0.72712839582E+02  0.50400000000E-02 0.  1.
         -1   -1    0    0    0  501 -0.00000000000E+00 -0.00000000000E+00 -0.13523092439E+03  0.13523092449E+03  0.50400000000E-02 0. -1.
    5000001    1    1    2    0    0  0.54487634544E+02 -0.23926828317E+01  0.70583467371E+00  0.94361673639E+02  0.77000000000E+02 0.  0.
   -5000001    1    1    2    0    0 -0.54487634544E+02  0.23926828317E+01 -0.63223919659E+02  0.11358209043E+03  0.77000000000E+02 0.  0.
<mgrwt>
<rscale>  0 0.19832322E+03</rscale>
<asrwt>0</asrwt>
<pdfrwt beam="1">  1        1 0.10387549E-01 0.19832322E+03</pdfrwt>
<pdfrwt beam="2">  1       -1 0.19318703E-01 0.19832322E+03</pdfrwt>
<totfact> 0.12556001E+04</totfact>
</mgrwt>
</event>
<event>
 4    1  0.3352993E-004  0.3171421E+03  0.7818608E-02  0.1076972E+00
         -1   -1    0    0    0  501 -0.00000000000E+00  0.00000000000E+00  0.52963539575E+03  0.52963539577E+03  0.50400000000E-02 0. -1.
          1   -1    0    0  501    0  0.00000000000E+00 -0.00000000000E+00 -0.47475650756E+02  0.47475651024E+02  0.50400000000E-02 0.  1.
    5000001    1    1    2    0    0  0.65332253227E+02 -0.43307279111E+02  0.44913374605E+03  0.46237857388E+03  0.77000000000E+02 0.  0.
   -5000001    1    1    2    0    0 -0.65332253227E+02  0.43307279111E+02  0.33025998935E+02  0.11473247292E+03  0.77000000000E+02 0.  0.
<mgrwt>
<rscale>  0 0.31714215E+03</rscale>
<asrwt>0</asrwt>
<pdfrwt beam="1">  1        1 0.67822356E-02 0.31714215E+03</pdfrwt>
<pdfrwt beam="2">  1       -1 0.75662202E-01 0.31714215E+03</pdfrwt>
<totfact> 0.20017518E+03</totfact>
</mgrwt>
</event>
<event>
 4    1  0.3352993E-004  0.3285005E+03  0.7818608E-02  0.1071802E+00
         -1   -1    0    0    0  501 -0.00000000000E+00  0.00000000000E+00  0.77664932457E+03  0.77664932458E+03  0.50400000000E-02 0.  1.
          1   -1    0    0  501    0  0.00000000000E+00 -0.00000000000E+00 -0.34736577527E+02  0.34736577893E+02  0.50400000000E-02 0. -1.
    5000001    1    1    2    0    0 -0.90415159087E+02  0.85806796229E+02  0.18758830779E+03  0.23802537783E+03  0.77000000000E+02 0.  0.
   -5000001    1    1    2    0    0  0.90415159087E+02 -0.85806796229E+02  0.55432443925E+03  0.57336052464E+03  0.77000000000E+02 0.  0.
<mgrwt>
<rscale>  0 0.32850047E+03</rscale>
<asrwt>0</asrwt>
<pdfrwt beam="1">  1        1 0.49623682E-02 0.32850047E+03</pdfrwt>
<pdfrwt beam="2">  1       -1 0.11094990E+00 0.32850047E+03</pdfrwt>
<totfact> 0.13422368E+03</totfact>
</mgrwt>
</event>
<event>
 4    1  0.3352993E-004  0.1908234E+03  0.7818608E-02  0.1157721E+00
         -1   -1    0    0    0  501 -0.00000000000E+00  0.00000000000E+00  0.31385216891E+02  0.31385217296E+02  0.50400000000E-02 0.  1.
          1   -1    0    0  501    0  0.00000000000E+00 -0.00000000000E+00 -0.29005350471E+03  0.29005350475E+03  0.50400000000E-02 0. -1.
    5000001    1    1    2    0    0  0.29000945576E+02 -0.48237872630E+02 -0.12505773774E+03  0.15727804987E+03  0.77000000000E+02 0.  0.
   -5000001    1    1    2    0    0 -0.29000945576E+02  0.48237872630E+02 -0.13361055007E+03  0.16416067218E+03  0.77000000000E+02 0.  0.
<mgrwt>
<rscale>  0 0.19082340E+03</rscale>
<asrwt>0</asrwt>
<pdfrwt beam="1">  1        1 0.41436213E-01 0.19082340E+03</pdfrwt>
<pdfrwt beam="2">  1       -1 0.44836026E-02 0.19082340E+03</pdfrwt>
<totfact> 0.20041188E+04</totfact>
</mgrwt>
</event>
<event>
 4    1  0.3352993E-004  0.3962947E+03  0.7818608E-02  0.1045070E+00
          1   -1    0    0  501    0  0.00000000000E+00  0.00000000000E+00  0.30462369656E+04  0.30462369656E+04  0.50400000000E-02 0.  1.
         -1   -1    0    0    0  501 -0.00000000000E+00 -0.00000000000E+00 -0.12888812603E+02  0.12888813588E+02  0.50400000000E-02 0. -1.
    5000001    1    1    2    0    0  0.18116336509E+03  0.93727423359E+01  0.13574677595E+04  0.13716981196E+04  0.77000000000E+02 0.  0.
   -5000001    1    1    2    0    0 -0.18116336509E+03 -0.93727423359E+01  0.16758803935E+04  0.16874276597E+04  0.77000000000E+02 0.  0.
<mgrwt>
<rscale>  0 0.39629473E+03</rscale>
<asrwt>0</asrwt>
<pdfrwt beam="1">  1        1 0.43517736E+00 0.39629473E+03</pdfrwt>
<pdfrwt beam="2">  1       -1 0.18412563E-02 0.39629473E+03</pdfrwt>
<totfact> 0.72469900E+02</totfact>
</mgrwt>
</event>
<event>
 4    1  0.3352993E-004  0.6058374E+03  0.7818608E-02  0.9893369E-01
          1   -1    0    0  501    0  0.00000000000E+00  0.00000000000E+00  0.21196318286E+04  0.21196318286E+04  0.50400000000E-02 0.  1.
         -1   -1    0    0    0  501 -0.00000000000E+00 -0.00000000000E+00 -0.43290416625E+02  0.43290416918E+02  0.50400000000E-02 0. -1.
    5000001    1    1    2    0    0  0.12299635892E+03 -0.22700132559E+03  0.54382554019E+03  0.60690437821E+03  0.77000000000E+02 0.  0.
   -5000001    1    1    2    0    0 -0.12299635892E+03  0.22700132559E+03  0.15325158718E+04  0.15560178673E+04  0.77000000000E+02 0.  0.
<mgrwt>
<rscale>  0 0.60583742E+03</rscale>
<asrwt>0</asrwt>
<pdfrwt beam="1">  1        1 0.30280456E+00 0.60583742E+03</pdfrwt>
<pdfrwt beam="2">  1       -1 0.61843449E-02 0.60583742E+03</pdfrwt>
<totfact> 0.43559830E+02</totfact>
</mgrwt>
</event>
<event>
 4    1  0.3352993E-004  0.1694926E+03  0.7818608E-02  0.1178378E+00
          1   -1    0    0  501    0  0.00000000000E+00  0.00000000000E+00  0.22841629673E+02  0.22841630229E+02  0.50400000000E-02 0.  1.
         -1   -1    0    0    0  501 -0.00000000000E+00 -0.00000000000E+00 -0.31442299954E+03  0.31442299958E+03  0.50400000000E-02 0. -1.
    5000001    1    1    2    0    0 -0.39321673020E+00 -0.35324556455E+02 -0.14136135598E+03  0.16480294862E+03  0.77000000000E+02 0.  0.
   -5000001    1    1    2    0    0  0.39321673020E+00  0.35324556455E+02 -0.15022001389E+03  0.17246168119E+03  0.77000000000E+02 0.  0.
<mgrwt>
<rscale>  0 0.16949258E+03</rscale>
<asrwt>0</asrwt>
<pdfrwt beam="1">  1        1 0.32630902E-02 0.16949258E+03</pdfrwt>
<pdfrwt beam="2">  1       -1 0.44917569E-01 0.16949258E+03</pdfrwt>
<totfact> 0.14467881E+04</totfact>
</mgrwt>
</event>
<event>
 4    1  0.3352993E-004  0.2019251E+03  0.7818608E-02  0.1148125E+00
         -1   -1    0    0    0  501 -0.00000000000E+00  0.00000000000E+00  0.84704072960E+02  0.84704073110E+02  0.50400000000E-02 0.  1.
          1   -1    0    0  501    0  0.00000000000E+00 -0.00000000000E+00 -0.12034175953E+03  0.12034175963E+03  0.50400000000E-02 0. -1.
    5000001    1    1    2    0    0  0.62361139169E+02  0.15548695566E+02 -0.29563209589E+02  0.10456412852E+03  0.77000000000E+02 0.  0.
   -5000001    1    1    2    0    0 -0.62361139169E+02 -0.15548695566E+02 -0.60744769763E+01  0.10048170422E+03  0.77000000000E+02 0.  0.
<mgrwt>
<rscale>  0 0.20192511E+03</rscale>
<asrwt>0</asrwt>
<pdfrwt beam="1">  1        1 0.17191680E-01 0.20192511E+03</pdfrwt>
<pdfrwt beam="2">  1       -1 0.12100582E-01 0.20192511E+03</pdfrwt>
<totfact> 0.13590162E+04</totfact>
</mgrwt>
</event>
<event>
 4    1  0.3352993E-004  0.1648089E+03  0.7818608E-02  0.1183372E+00
          1   -1    0    0  501    0  0.00000000000E+00  0.00000000000E+00  0.13252609932E+03  0.13252609942E+03  0.50400000000E-02 0.  1.
         -1   -1    0    0    0  501 -0.00000000000E+00 -0.00000000000E+00 -0.51238905412E+02  0.51238905659E+02  0.50400000000E-02 0. -1.
    5000001    1    1    2    0    0  0.26793661002E+02  0.11737016600E+02  0.37950308207E+02  0.90691144670E+02  0.77000000000E+02 0.  0.
   -5000001    1    1    2    0    0 -0.26793661002E+02 -0.11737016600E+02  0.43336885702E+02  0.93073860406E+02  0.77000000000E+02 0.  0.
<mgrwt>
<rscale>  0 0.16480889E+03</rscale>
<asrwt>0</asrwt>
<pdfrwt beam="1">  1        1 0.18932299E-01 0.16480889E+03</pdfrwt>
<pdfrwt beam="2">  1       -1 0.73198438E-02 0.16480889E+03</pdfrwt>
<totfact> 0.25472843E+04</totfact>
</mgrwt>
</event>
<event>
 4    1  0.3352993E-004  0.3965656E+03  0.7818608E-02  0.1044975E+00
         -1   -1    0    0    0  501 -0.00000000000E+00  0.00000000000E+00  0.14433937161E+02  0.14433938041E+02  0.50400000000E-02 0.  1.
          1   -1    0    0  501    0  0.00000000000E+00 -0.00000000000E+00 -0.27238635356E+04  0.27238635356E+04  0.50400000000E-02 0. -1.
    5000001    1    1    2    0    0 -0.10809979634E+03  0.14611310730E+03 -0.12250784584E+04  0.12408790575E+04  0.77000000000E+02 0.  0.
   -5000001    1    1    2    0    0  0.10809979634E+03 -0.14611310730E+03 -0.14843511401E+04  0.14974184162E+04  0.77000000000E+02 0.  0.
<mgrwt>
<rscale>  0 0.39656564E+03</rscale>
<asrwt>0</asrwt>
<pdfrwt beam="1">  1        1 0.38912303E+00 0.39656564E+03</pdfrwt>
<pdfrwt beam="2">  1       -1 0.20619928E-02 0.39656564E+03</pdfrwt>
<totfact> 0.98133241E+02</totfact>
</mgrwt>
</event>
<event>
 4    1  0.3352993E-004  0.3077487E+03  0.7818608E-02  0.1081430E+00
         -1   -1    0    0    0  501 -0.00000000000E+00  0.00000000000E+00  0.46956007391E+02  0.46956007661E+02  0.50400000000E-02 0.  1.
          1   -1    0    0  501    0  0.00000000000E+00 -0.00000000000E+00 -0.50424477168E+03  0.50424477170E+03  0.50400000000E-02 0. -1.
    5000001    1    1    2    0    0 -0.10501104334E+03 -0.38571413679E+02 -0.35821281529E+03  0.38309332311E+03  0.77000000000E+02 0.  0.
   -5000001    1    1    2    0    0  0.10501104334E+03  0.38571413679E+02 -0.99075949001E+02  0.16810745625E+03  0.77000000000E+02 0.  0.
<mgrwt>
<rscale>  0 0.30774874E+03</rscale>
<asrwt>0</asrwt>
<pdfrwt beam="1">  1        1 0.72034964E-01 0.30774874E+03</pdfrwt>
<pdfrwt beam="2">  1       -1 0.67080014E-02 0.30774874E+03</pdfrwt>
<totfact> 0.55557234E+03</totfact>
</mgrwt>
</event>
<event>
 4    1  0.3352993E-004  0.2425321E+03  0.7818608E-02  0.1118117E+00
         -1   -1    0    0    0  501 -0.00000000000E+00  0.00000000000E+00  0.55216871544E+03  0.55216871546E+03  0.50400000000E-02 0. -1.
          1   -1    0    0  501    0  0.00000000000E+00 -0.00000000000E+00 -0.26632171753E+02  0.26632172230E+02  0.50400000000E-02 0.  1.
    5000001    1    1    2    0    0 -0.49700295435E+02 -0.70155899035E+02  0.17397015340E+03  0.20877400175E+03  0.77000000000E+02 0.  0.
   -5000001    1    1    2    0    0  0.49700295435E+02  0.70155899035E+02  0.35156639029E+03  0.37002688594E+03  0.77000000000E+02 0.  0.
<mgrwt>
<rscale>  0 0.24253208E+03</rscale>
<asrwt>0</asrwt>
<pdfrwt beam="1">  1        1 0.38045964E-02 0.24253208E+03</pdfrwt>
<pdfrwt beam="2">  1       -1 0.78881236E-01 0.24253208E+03</pdfrwt>
<totfact> 0.40631473E+03</totfact>
</mgrwt>
</event>
<event>
 4    1  0.3352993E-004  0.1709849E+03  0.7818608E-02  0.1176825E+00
         -1   -1    0    0    0  501 -0.00000000000E+00  0.00000000000E+00  0.12598910219E+02  0.12598911227E+02  0.50400000000E-02 0. -1.
          1   -1    0    0  501    0  0.00000000000E+00 -0.00000000000E+00 -0.58012625628E+03  0.58012625630E+03  0.50400000000E-02 0.  1.
    5000001    1    1    2    0    0 -0.89155083215E+01 -0.35934698557E+02 -0.27326626569E+03  0.28631144024E+03  0.77000000000E+02 0.  0.
   -5000001    1    1    2    0    0  0.89155083215E+01  0.35934698557E+02 -0.29426108037E+03  0.30641372729E+03  0.77000000000E+02 0.  0.
<mgrwt>
<rscale>  0 0.17098490E+03</rscale>
<asrwt>0</asrwt>
<pdfrwt beam="1">  1        1 0.82875163E-01 0.17098490E+03</pdfrwt>
<pdfrwt beam="2">  1       -1 0.17998448E-02 0.17098490E+03</pdfrwt>
<totfact> 0.31236069E+04</totfact>
</mgrwt>
</event>
<event>
 4    1  0.3352993E-004  0.3052923E+03  0.7818608E-02  0.1082625E+00
         -1   -1    0    0    0  501 -0.00000000000E+00  0.00000000000E+00  0.11761567710E+02  0.11761568790E+02  0.50400000000E-02 0. -1.
          1   -1    0    0  501    0  0.00000000000E+00 -0.00000000000E+00 -0.19810997765E+04  0.19810997765E+04  0.50400000000E-02 0.  1.
    5000001    1    1    2    0    0 -0.69215900543E+02 -0.87849550639E+02 -0.14399021537E+04  0.14462902878E+04  0.77000000000E+02 0.  0.
   -5000001    1    1    2    0    0  0.69215900543E+02  0.87849550639E+02 -0.52943605514E+03  0.54657105752E+03  0.77000000000E+02 0.  0.
<mgrwt>
<rscale>  0 0.30529226E+03</rscale>
<asrwt>0</asrwt>
<pdfrwt beam="1">  1        1 0.28301404E+00 0.30529226E+03</pdfrwt>
<pdfrwt beam="2">  1       -1 0.16802253E-02 0.30529226E+03</pdfrwt>
<totfact> 0.37951823E+03</totfact>
</mgrwt>
</event>
<event>
 4    1  0.3352993E-004  0.2077295E+03  0.7818608E-02  0.1143377E+00
         -1   -1    0    0    0  501 -0.00000000000E+00  0.00000000000E+00  0.16068720296E+03  0.16068720304E+03  0.50400000000E-02 0.  1.
          1   -1    0    0  501    0  0.00000000000E+00 -0.00000000000E+00 -0.67135923531E+02  0.67135923720E+02  0.50400000000E-02 0. -1.
    5000001    1    1    2    0    0 -0.55509130083E+02  0.37007616576E+02  0.68930034085E+02  0.12300884849E+03  0.77000000000E+02 0.  0.
   -5000001    1    1    2    0    0  0.55509130083E+02 -0.37007616576E+02  0.24621245342E+02  0.10481427827E+03  0.77000000000E+02 0.  0.
<mgrwt>
<rscale>  0 0.20772948E+03</rscale>
<asrwt>0</asrwt>
<pdfrwt beam="1">  1        1 0.95908462E-02 0.20772948E+03</pdfrwt>
<pdfrwt beam="2">  1       -1 0.22955315E-01 0.20772948E+03</pdfrwt>
<totfact> 0.10586436E+04</totfact>
</mgrwt>
</event>
<event>
 4    1  0.3352993E-004  0.1836756E+03  0.7818608E-02  0.1164292E+00
         -1   -1    0    0    0  501 -0.00000000000E+00  0.00000000000E+00  0.50667153148E+01  0.50667178215E+01  0.50400000000E-02 0.  1.
          1   -1    0    0  501    0  0.00000000000E+00 -0.00000000000E+00 -0.16646242240E+04  0.16646242240E+04  0.50400000000E-02 0. -1.
    5000001    1    1    2    0    0  0.14649745493E+01 -0.37550744015E+02 -0.52924744487E+03  0.53613810014E+03  0.77000000000E+02 0.  0.
   -5000001    1    1    2    0    0 -0.14649745493E+01  0.37550744015E+02 -0.11303100638E+04  0.11335528417E+04  0.77000000000E+02 0.  0.
<mgrwt>
<rscale>  0 0.18367557E+03</rscale>
<asrwt>0</asrwt>
<pdfrwt beam="1">  1        1 0.23780311E+00 0.18367557E+03</pdfrwt>
<pdfrwt beam="2">  1       -1 0.72381772E-03 0.18367557E+03</pdfrwt>
<totfact> 0.19648636E+04</totfact>
</mgrwt>
</event>
<event>
 4    1  0.3352993E-004  0.2102947E+03  0.7818608E-02  0.1141333E+00
         -1   -1    0    0    0  501 -0.00000000000E+00  0.00000000000E+00  0.59408173463E+01  0.59408194841E+01  0.50400000000E-02 0. -1.
          1   -1    0    0  501    0  0.00000000000E+00 -0.00000000000E+00 -0.18610173516E+04  0.18610173516E+04  0.50400000000E-02 0.  1.
    5000001    1    1    2    0    0  0.58349367545E+02 -0.37097778254E+02 -0.76238404722E+03  0.76937593497E+03  0.77000000000E+02 0.  0.
   -5000001    1    1    2    0    0 -0.58349367545E+02  0.37097778254E+02 -0.10926924870E+04  0.10975822361E+04  0.77000000000E+02 0.  0.
<mgrwt>
<rscale>  0 0.21029471E+03</rscale>
<asrwt>0</asrwt>
<pdfrwt beam="1">  1        1 0.26585925E+00 0.21029471E+03</pdfrwt>
<pdfrwt beam="2">  1       -1 0.84868954E-03 0.21029471E+03</pdfrwt>
<totfact> 0.11984844E+04</totfact>
</mgrwt>
</event>
<event>
 4    1  0.3352993E-004  0.2283577E+03  0.7818608E-02  0.1127801E+00
          1   -1    0    0  501    0  0.00000000000E+00  0.00000000000E+00  0.14816309141E+03  0.14816309149E+03  0.50400000000E-02 0.  1.
         -1   -1    0    0    0  501 -0.00000000000E+00 -0.00000000000E+00 -0.87989597988E+02  0.87989598133E+02  0.50400000000E-02 0. -1.
    5000001    1    1    2    0    0 -0.81225098404E+02  0.20724827276E+02  0.39381071672E+02  0.12044460919E+03  0.77000000000E+02 0.  0.
   -5000001    1    1    2    0    0  0.81225098404E+02 -0.20724827276E+02  0.20792421746E+02  0.11570808044E+03  0.77000000000E+02 0.  0.
<mgrwt>
<rscale>  0 0.22835771E+03</rscale>
<asrwt>0</asrwt>
<pdfrwt beam="1">  1        1 0.21166156E-01 0.22835771E+03</pdfrwt>
<pdfrwt beam="2">  1       -1 0.12569943E-01 0.22835771E+03</pdfrwt>
<totfact> 0.98768270E+03</totfact>
</mgrwt>
</event>
<event>
 4    1  0.3352993E-004  0.2788059E+03  0.7818608E-02  0.1096343E+00
          1   -1    0    0  501    0  0.00000000000E+00  0.00000000000E+00  0.69122749132E+03  0.69122749134E+03  0.50400000000E-02 0. -1.
         -1   -1    0    0    0  501 -0.00000000000E+00 -0.00000000000E+00 -0.28114011159E+02  0.28114011611E+02  0.50400000000E-02 0.  1.
    5000001    1    1    2    0    0 -0.11574013165E+03  0.10353609718E+02  0.33438574305E+03  0.36227862270E+03  0.77000000000E+02 0.  0.
   -5000001    1    1    2    0    0  0.11574013165E+03 -0.10353609718E+02  0.32872773711E+03  0.35706288025E+03  0.77000000000E+02 0.  0.
<mgrwt>
<rscale>  0 0.27880586E+03</rscale>
<asrwt>0</asrwt>
<pdfrwt beam="1">  1        1 0.98746789E-01 0.27880586E+03</pdfrwt>
<pdfrwt beam="2">  1       -1 0.40162871E-02 0.27880586E+03</pdfrwt>
<totfact> 0.77936027E+03</totfact>
</mgrwt>
</event>
<event>
 4    1  0.3352993E-004  0.1668705E+03  0.7818608E-02  0.1181151E+00
         -1   -1    0    0    0  501 -0.00000000000E+00  0.00000000000E+00  0.99584492770E+01  0.99584505523E+01  0.50400000000E-02 0. -1.
          1   -1    0    0  501    0  0.00000000000E+00 -0.00000000000E+00 -0.69904865974E+03  0.69904865976E+03  0.50400000000E-02 0.  1.
    5000001    1    1    2    0    0 -0.93372168922E+01  0.28278675949E+02 -0.29328106319E+03  0.30467958441E+03  0.77000000000E+02 0.  0.
   -5000001    1    1    2    0    0  0.93372168922E+01 -0.28278675949E+02 -0.39580914727E+03  0.40432752590E+03  0.77000000000E+02 0.  0.
<mgrwt>
<rscale>  0 0.16687050E+03</rscale>
<asrwt>0</asrwt>
<pdfrwt beam="1">  1        1 0.99864063E-01 0.16687050E+03</pdfrwt>
<pdfrwt beam="2">  1       -1 0.14226361E-02 0.16687050E+03</pdfrwt>
<totfact> 0.33919704E+04</totfact>
</mgrwt>
</event>
<event>
 4    1  0.3352993E-004  0.3704995E+03  0.7818608E-02  0.1054502E+00
         -1   -1    0    0    0  501 -0.00000000000E+00  0.00000000000E+00  0.20225685022E+02  0.20225685650E+02  0.50400000000E-02 0.  1.
          1   -1    0    0  501    0  0.00000000000E+00 -0.00000000000E+00 -0.16967272835E+04  0.16967272835E+04  0.50400000000E-02 0. -1.
    5000001    1    1    2    0    0 -0.13002884381E+03  0.99400354456E+02 -0.10236484483E+04  0.10395061695E+04  0.77000000000E+02 0.  0.
   -5000001    1    1    2    0    0  0.13002884381E+03 -0.99400354456E+02 -0.65285315013E+03  0.67744679962E+03  0.77000000000E+02 0.  0.
<mgrwt>
<rscale>  0 0.37049951E+03</rscale>
<asrwt>0</asrwt>
<pdfrwt beam="1">  1        1 0.24238952E+00 0.37049951E+03</pdfrwt>
<pdfrwt beam="2">  1       -1 0.28893847E-02 0.37049951E+03</pdfrwt>
<totfact> 0.25430124E+03</totfact>
</mgrwt>
</event>
<event>
 4    1  0.3352993E-004  0.2089765E+03  0.7818608E-02  0.1142379E+00
         -1   -1    0    0    0  501 -0.00000000000E+00  0.00000000000E+00  0.13491422878E+02  0.13491423819E+02  0.50400000000E-02 0. -1.
          1   -1    0    0  501    0  0.00000000000E+00 -0.00000000000E+00 -0.80923937150E+03  0.80923937152E+03  0.50400000000E-02 0.  1.
    5000001    1    1    2    0    0 -0.45432594637E+02  0.53242713888E+02 -0.36054888072E+03  0.37526444360E+03  0.77000000000E+02 0.  0.
   -5000001    1    1    2    0    0  0.45432594637E+02 -0.53242713888E+02 -0.43519906790E+03  0.44746635174E+03  0.77000000000E+02 0.  0.
<mgrwt>
<rscale>  0 0.20897647E+03</rscale>
<asrwt>0</asrwt>
<pdfrwt beam="1">  1        1 0.11560559E+00 0.20897647E+03</pdfrwt>
<pdfrwt beam="2">  1       -1 0.19273467E-02 0.20897647E+03</pdfrwt>
<totfact> 0.17998059E+04</totfact>
</mgrwt>
</event>
<event>
 4    1  0.3352993E-004  0.5490384E+03  0.7818608E-02  0.1001717E+00
         -1   -1    0    0    0  501 -0.00000000000E+00  0.00000000000E+00  0.10338589469E+03  0.10338589481E+03  0.50400000000E-02 0. -1.
          1   -1    0    0  501    0  0.00000000000E+00 -0.00000000000E+00 -0.72892717367E+03  0.72892717369E+03  0.50400000000E-02 0.  1.
    5000001    1    1    2    0    0  0.24360934744E+03  0.59364120694E+02 -0.18996794129E+03  0.32386174782E+03  0.77000000000E+02 0.  0.
   -5000001    1    1    2    0    0 -0.24360934744E+03 -0.59364120694E+02 -0.43557333770E+03  0.50845132068E+03  0.77000000000E+02 0.  0.
<mgrwt>
<rscale>  0 0.54903839E+03</rscale>
<asrwt>0</asrwt>
<pdfrwt beam="1">  1        1 0.10413245E+00 0.54903839E+03</pdfrwt>
<pdfrwt beam="2">  1       -1 0.14769414E-01 0.54903839E+03</pdfrwt>
<totfact> 0.97334025E+02</totfact>
</mgrwt>
</event>
<event>
 4    1  0.3352993E-004  0.1821669E+03  0.7818608E-02  0.1165722E+00
          1   -1    0    0  501    0  0.00000000000E+00  0.00000000000E+00  0.17597845278E+03  0.17597845285E+03  0.50400000000E-02 0. -1.
         -1   -1    0    0    0  501 -0.00000000000E+00 -0.00000000000E+00 -0.47143258714E+02  0.47143258984E+02  0.50400000000E-02 0.  1.
    5000001    1    1    2    0    0  0.66873019063E+01 -0.44091885627E+02  0.40592300425E+02  0.97803625898E+02  0.77000000000E+02 0.  0.
   -5000001    1    1    2    0    0 -0.66873019063E+01  0.44091885627E+02  0.88242893637E+02  0.12531808593E+03  0.77000000000E+02 0.  0.
<mgrwt>
<rscale>  0 0.18216693E+03</rscale>
<asrwt>0</asrwt>
<pdfrwt beam="1">  1        1 0.25139779E-01 0.18216693E+03</pdfrwt>
<pdfrwt beam="2">  1       -1 0.67347511E-02 0.18216693E+03</pdfrwt>
<totfact> 0.20317335E+04</totfact>
</mgrwt>
</event>
<event>
 4    1  0.3352993E-004  0.1791387E+03  0.7818608E-02  0.1168639E+00
         -1   -1    0    0    0  501 -0.00000000000E+00  0.00000000000E+00  0.30242193394E+03  0.30242193399E+03  0.50400000000E-02 0.  1.
          1   -1    0    0  501    0  0.00000000000E+00 -0.00000000000E+00 -0.26528078518E+02  0.26528078997E+02  0.50400000000E-02 0. -1.
    5000001    1    1    2    0    0 -0.31380643685E+02 -0.28936889498E+02  0.16820859680E+03  0.18985578846E+03  0.77000000000E+02 0.  0.
   -5000001    1    1    2    0    0  0.31380643685E+02  0.28936889498E+02  0.10768525862E+03  0.13909422453E+03  0.77000000000E+02 0.  0.
<mgrwt>
<rscale>  0 0.17913875E+03</rscale>
<asrwt>0</asrwt>
<pdfrwt beam="1">  1        1 0.37897257E-02 0.17913875E+03</pdfrwt>
<pdfrwt beam="2">  1       -1 0.43203131E-01 0.17913875E+03</pdfrwt>
<totfact> 0.12662142E+04</totfact>
</mgrwt>
</event>
<event>
 4    1  0.3352993E-004  0.2043808E+03  0.7818608E-02  0.1146095E+00
          1   -1    0    0  501    0  0.00000000000E+00  0.00000000000E+00  0.24674915230E+03  0.24674915235E+03  0.50400000000E-02 0.  1.
         -1   -1    0    0    0  501 -0.00000000000E+00 -0.00000000000E+00 -0.42321820564E+02  0.42321820864E+02  0.50400000000E-02 0. -1.
    5000001    1    1    2    0    0 -0.50612258687E+02  0.23015889018E+02  0.15555906370E+03  0.18226067644E+03  0.77000000000E+02 0.  0.
   -5000001    1    1    2    0    0  0.50612258687E+02 -0.23015889018E+02  0.48868268034E+02  0.10681029678E+03  0.77000000000E+02 0.  0.
<mgrwt>
<rscale>  0 0.20438076E+03</rscale>
<asrwt>0</asrwt>
<pdfrwt beam="1">  1        1 0.35249879E-01 0.20438076E+03</pdfrwt>
<pdfrwt beam="2">  1       -1 0.60459743E-02 0.20438076E+03</pdfrwt>
<totfact> 0.15774891E+04</totfact>
</mgrwt>
</event>
<event>
 4    1  0.3352993E-004  0.6759049E+03  0.7818608E-02  0.9759349E-01
         -1   -1    0    0    0  501 -0.00000000000E+00  0.00000000000E+00  0.27233989555E+03  0.27233989560E+03  0.50400000000E-02 0. -1.
          1   -1    0    0  501    0  0.00000000000E+00 -0.00000000000E+00 -0.41937248972E+03  0.41937248975E+03  0.50400000000E-02 0.  1.
    5000001    1    1    2    0    0 -0.28102046425E+03 -0.16294416041E+03 -0.12727636669E+03  0.35728360480E+03  0.77000000000E+02 0.  0.
   -5000001    1    1    2    0    0  0.28102046425E+03  0.16294416041E+03 -0.19756227482E+02  0.33442878055E+03  0.77000000000E+02 0.  0.
<mgrwt>
<rscale>  0 0.67590490E+03</rscale>
<asrwt>0</asrwt>
<pdfrwt beam="1">  1        1 0.59910356E-01 0.67590490E+03</pdfrwt>
<pdfrwt beam="2">  1       -1 0.38905699E-01 0.67590490E+03</pdfrwt>
<totfact> 0.40272631E+02</totfact>
</mgrwt>
</event>
<event>
 4    1  0.3352993E-004  0.2753290E+03  0.7818608E-02  0.1098268E+00
          1   -1    0    0  501    0  0.00000000000E+00  0.00000000000E+00  0.11308855072E+03  0.11308855083E+03  0.50400000000E-02 0.  1.
         -1   -1    0    0    0  501 -0.00000000000E+00 -0.00000000000E+00 -0.16758115075E+03  0.16758115082E+03  0.50400000000E-02 0. -1.
    5000001    1    1    2    0    0 -0.61813203442E+02 -0.61827470496E+01  0.70336262163E+02  0.12138899561E+03  0.77000000000E+02 0.  0.
   -5000001    1    1    2    0    0  0.61813203442E+02  0.61827470496E+01 -0.12482886219E+03  0.15928070604E+03  0.77000000000E+02 0.  0.
<mgrwt>
<rscale>  0 0.27532896E+03</rscale>
<asrwt>0</asrwt>
<pdfrwt beam="1">  1        1 0.16155507E-01 0.27532896E+03</pdfrwt>
<pdfrwt beam="2">  1       -1 0.23940164E-01 0.27532896E+03</pdfrwt>
<totfact> 0.50229794E+03</totfact>
</mgrwt>
</event>
<event>
 4    1  0.3352993E-004  0.2357551E+03  0.7818608E-02  0.1122653E+00
          1   -1    0    0  501    0  0.00000000000E+00  0.00000000000E+00  0.26853763906E+03  0.26853763911E+03  0.50400000000E-02 0.  1.
         -1   -1    0    0    0  501 -0.00000000000E+00 -0.00000000000E+00 -0.51743638441E+02  0.51743638687E+02  0.50400000000E-02 0. -1.
    5000001    1    1    2    0    0 -0.15366066371E+02 -0.87873582873E+02  0.10449917071E+03  0.15750225154E+03  0.77000000000E+02 0.  0.
   -5000001    1    1    2    0    0  0.15366066371E+02  0.87873582873E+02  0.11229482991E+03  0.16277902625E+03  0.77000000000E+02 0.  0.
<mgrwt>
<rscale>  0 0.23575508E+03</rscale>
<asrwt>0</asrwt>
<pdfrwt beam="1">  1        1 0.38362520E-01 0.23575508E+03</pdfrwt>
<pdfrwt beam="2">  1       -1 0.73919483E-02 0.23575508E+03</pdfrwt>
<totfact> 0.10570268E+04</totfact>
</mgrwt>
</event>
<event>
 4    1  0.3352993E-004  0.2278101E+03  0.7818608E-02  0.1128191E+00
          1   -1    0    0  501    0  0.00000000000E+00  0.00000000000E+00  0.27724738365E+03  0.27724738369E+03  0.50400000000E-02 0.  1.
         -1   -1    0    0    0  501 -0.00000000000E+00 -0.00000000000E+00 -0.46797049515E+02  0.46797049786E+02  0.50400000000E-02 0. -1.
    5000001    1    1    2    0    0  0.39967678068E+02 -0.40069034386E+02  0.27052527959E+02  0.99316575030E+02  0.77000000000E+02 0.  0.
   -5000001    1    1    2    0    0 -0.39967678068E+02  0.40069034386E+02  0.20339780617E+03  0.22472785845E+03  0.77000000000E+02 0.  0.
<mgrwt>
<rscale>  0 0.22781009E+03</rscale>
<asrwt>0</asrwt>
<pdfrwt beam="1">  1        1 0.39606768E-01 0.22781009E+03</pdfrwt>
<pdfrwt beam="2">  1       -1 0.66852930E-02 0.22781009E+03</pdfrwt>
<totfact> 0.11802797E+04</totfact>
</mgrwt>
</event>
<event>
 4    1  0.3352993E-004  0.6609077E+03  0.7818608E-02  0.9786524E-01
         -1   -1    0    0    0  501 -0.00000000000E+00  0.00000000000E+00  0.16959453236E+03  0.16959453244E+03  0.50400000000E-02 0.  1.
          1   -1    0    0  501    0  0.00000000000E+00 -0.00000000000E+00 -0.64388724647E+03  0.64388724649E+03  0.50400000000E-02 0. -1.
    5000001    1    1    2    0    0  0.26863944973E+03  0.10919374300E+03 -0.40761127966E+03  0.50612882033E+03  0.77000000000E+02 0.  0.
   -5000001    1    1    2    0    0 -0.26863944973E+03 -0.10919374300E+03 -0.66681434443E+02  0.30735295860E+03  0.77000000000E+02 0.  0.
<mgrwt>
<rscale>  0 0.66090773E+03</rscale>
<asrwt>0</asrwt>
<pdfrwt beam="1">  1        1 0.91983891E-01 0.66090773E+03</pdfrwt>
<pdfrwt beam="2">  1       -1 0.24227791E-01 0.66090773E+03</pdfrwt>
<totfact> 0.51317204E+02</totfact>
</mgrwt>
</event>
<event>
 4    1  0.3352993E-004  0.2137293E+03  0.7818608E-02  0.1138646E+00
          1   -1    0    0  501    0  0.00000000000E+00  0.00000000000E+00  0.72727012785E+03  0.72727012786E+03  0.50400000000E-02 0.  1.
         -1   -1    0    0    0  501 -0.00000000000E+00 -0.00000000000E+00 -0.15702633250E+02  0.15702634059E+02  0.50400000000E-02 0. -1.
    5000001    1    1    2    0    0  0.42514349223E+01  0.73686164931E+02  0.37866643903E+03  0.39340182721E+03  0.77000000000E+02 0.  0.
   -5000001    1    1    2    0    0 -0.42514349223E+01 -0.73686164931E+02  0.33290105556E+03  0.34957093471E+03  0.77000000000E+02 0.  0.
<mgrwt>
<rscale>  0 0.21372933E+03</rscale>
<asrwt>0</asrwt>
<pdfrwt beam="1">  1        1 0.10389573E+00 0.21372933E+03</pdfrwt>
<pdfrwt beam="2">  1       -1 0.22432333E-02 0.21372933E+03</pdfrwt>
<totfact> 0.16884616E+04</totfact>
</mgrwt>
</event>
<event>
 4    1  0.3352993E-004  0.3888846E+03  0.7818608E-02  0.1047698E+00
          1   -1    0    0  501    0  0.00000000000E+00  0.00000000000E+00  0.13949429100E+04  0.13949429100E+04  0.50400000000E-02 0.  1.
         -1   -1    0    0    0  501 -0.00000000000E+00 -0.00000000000E+00 -0.27103481972E+02  0.27103482441E+02  0.50400000000E-02 0. -1.
    5000001    1    1    2    0    0 -0.43237451750E+02 -0.14662732270E+03  0.10212471746E+04  0.10354920766E+04  0.77000000000E+02 0.  0.
   -5000001    1    1    2    0    0  0.43237451750E+02  0.14662732270E+03  0.34659225343E+03  0.38655431589E+03  0.77000000000E+02 0.  0.
<mgrwt>
<rscale>  0 0.38888461E+03</rscale>
<asrwt>0</asrwt>
<pdfrwt beam="1">  1        1 0.19927765E+00 0.38888461E+03</pdfrwt>
<pdfrwt beam="2">  1       -1 0.38719242E-02 0.38888461E+03</pdfrwt>
<totfact> 0.25413314E+03</totfact>
</mgrwt>
</event>
<event>
 4    1  0.3352993E-004  0.2403333E+03  0.7818608E-02  0.1119571E+00
          1   -1    0    0  501    0  0.00000000000E+00  0.00000000000E+00  0.12602033124E+03  0.12602033134E+03  0.50400000000E-02 0.  1.
         -1   -1    0    0    0  501 -0.00000000000E+00 -0.00000000000E+00 -0.11458489083E+03  0.11458489094E+03  0.50400000000E-02 0. -1.
    5000001    1    1    2    0    0 -0.20121331473E+02  0.50023506873E+02  0.80660990497E+02  0.12386450100E+03  0.77000000000E+02 0.  0.
   -5000001    1    1    2    0    0  0.20121331473E+02 -0.50023506873E+02 -0.69225550091E+02  0.11674072128E+03  0.77000000000E+02 0.  0.
<mgrwt>
<rscale>  0 0.24033332E+03</rscale>
<asrwt>0</asrwt>
<pdfrwt beam="1">  1        1 0.18002905E-01 0.24033332E+03</pdfrwt>
<pdfrwt beam="2">  1       -1 0.16369270E-01 0.24033332E+03</pdfrwt>
<totfact> 0.80412901E+03</totfact>
</mgrwt>
</event>
<event>
 4    1  0.3352993E-004  0.2254271E+03  0.7818608E-02  0.1129900E+00
         -1   -1    0    0    0  501 -0.00000000000E+00  0.00000000000E+00  0.25889163654E+02  0.25889164144E+02  0.50400000000E-02 0.  1.
          1   -1    0    0  501    0  0.00000000000E+00 -0.00000000000E+00 -0.49072067259E+03  0.49072067262E+03  0.50400000000E-02 0. -1.
    5000001    1    1    2    0    0 -0.70306372800E+02 -0.28052330004E+02 -0.15831823204E+03  0.19163397891E+03  0.77000000000E+02 0.  0.
   -5000001    1    1    2    0    0  0.70306372800E+02  0.28052330004E+02 -0.30651327690E+03  0.32497585786E+03  0.77000000000E+02 0.  0.
<mgrwt>
<rscale>  0 0.22542713E+03</rscale>
<asrwt>0</asrwt>
<pdfrwt beam="1">  1        1 0.70102947E-01 0.22542713E+03</pdfrwt>
<pdfrwt beam="2">  1       -1 0.36984523E-02 0.22542713E+03</pdfrwt>
<totfact> 0.13865145E+04</totfact>
</mgrwt>
</event>
<event>
 4    1  0.3352993E-004  0.2104679E+03  0.7818608E-02  0.1141196E+00
          1   -1    0    0  501    0  0.00000000000E+00  0.00000000000E+00  0.14811212413E+03  0.14811212421E+03  0.50400000000E-02 0.  1.
         -1   -1    0    0    0  501 -0.00000000000E+00 -0.00000000000E+00 -0.74768904074E+02  0.74768904244E+02  0.50400000000E-02 0. -1.
    5000001    1    1    2    0    0  0.29910222453E+02 -0.29049181775E+02 -0.25137793027E+02  0.91100960518E+02  0.77000000000E+02 0.  0.
   -5000001    1    1    2    0    0 -0.29910222453E+02  0.29049181775E+02  0.98481013080E+02  0.13178006794E+03  0.77000000000E+02 0.  0.
<mgrwt>
<rscale>  0 0.21046787E+03</rscale>
<asrwt>0</asrwt>
<pdfrwt beam="1">  1        1 0.21158875E-01 0.21046787E+03</pdfrwt>
<pdfrwt beam="2">  1       -1 0.10681272E-01 0.21046787E+03</pdfrwt>
<totfact> 0.12660146E+04</totfact>
</mgrwt>
</event>
<event>
 4    1  0.3352993E-004  0.2466284E+03  0.7818608E-02  0.1115454E+00
          1   -1    0    0  501    0  0.00000000000E+00  0.00000000000E+00  0.33114524876E+03  0.33114524880E+03  0.50400000000E-02 0. -1.
         -1   -1    0    0    0  501 -0.00000000000E+00 -0.00000000000E+00 -0.45920615909E+02  0.45920616186E+02  0.50400000000E-02 0.  1.
    5000001    1    1    2    0    0  0.54497458802E+02 -0.67313086341E+02  0.20705011966E+03  0.23727573972E+03  0.77000000000E+02 0.  0.
   -5000001    1    1    2    0    0 -0.54497458802E+02  0.67313086341E+02  0.78174513189E+02  0.13979012526E+03  0.77000000000E+02 0.  0.
<mgrwt>
<rscale>  0 0.24662842E+03</rscale>
<asrwt>0</asrwt>
<pdfrwt beam="1">  1        1 0.47306462E-01 0.24662842E+03</pdfrwt>
<pdfrwt beam="2">  1       -1 0.65600883E-02 0.24662842E+03</pdfrwt>
<totfact> 0.97636338E+03</totfact>
</mgrwt>
</event>
<event>
 4    1  0.3352993E-004  0.1710337E+03  0.7818608E-02  0.1176774E+00
         -1   -1    0    0    0  501 -0.00000000000E+00  0.00000000000E+00  0.43768786814E+02  0.43768787104E+02  0.50400000000E-02 0. -1.
          1   -1    0    0  501    0  0.00000000000E+00 -0.00000000000E+00 -0.16708551462E+03  0.16708551470E+03  0.50400000000E-02 0.  1.
    5000001    1    1    2    0    0 -0.20066197529E+02 -0.14515278540E+02 -0.27431480083E+02  0.85409786874E+02  0.77000000000E+02 0.  0.
   -5000001    1    1    2    0    0  0.20066197529E+02  0.14515278540E+02 -0.95885247726E+02  0.12544451493E+03  0.77000000000E+02 0.  0.
<mgrwt>
<rscale>  0 0.17103368E+03</rscale>
<asrwt>0</asrwt>
<pdfrwt beam="1">  1        1 0.23869359E-01 0.17103368E+03</pdfrwt>
<pdfrwt beam="2">  1       -1 0.62526839E-02 0.17103368E+03</pdfrwt>
<totfact> 0.24120484E+04</totfact>
</mgrwt>
</event>
<event>
 4    1  0.3352993E-004  0.5241793E+03  0.7818608E-02  0.1007654E+00
         -1   -1    0    0    0  501 -0.00000000000E+00  0.00000000000E+00  0.78261115928E+02  0.78261116091E+02  0.50400000000E-02 0. -1.
          1   -1    0    0  501    0  0.00000000000E+00 -0.00000000000E+00 -0.87771527255E+03  0.87771527256E+03  0.50400000000E-02 0.  1.
    5000001    1    1    2    0    0  0.13400786212E+03  0.20357218210E+03 -0.50547733825E+03  0.56642394010E+03  0.77000000000E+02 0.  0.
   -5000001    1    1    2    0    0 -0.13400786212E+03 -0.20357218210E+03 -0.29397681837E+03  0.38955244855E+03  0.77000000000E+02 0.  0.
<mgrwt>
<rscale>  0 0.52417927E+03</rscale>
<asrwt>0</asrwt>
<pdfrwt beam="1">  1        1 0.12538789E+00 0.52417927E+03</pdfrwt>
<pdfrwt beam="2">  1       -1 0.11180160E-01 0.52417927E+03</pdfrwt>
<totfact> 0.11431858E+03</totfact>
</mgrwt>
</event>
<event>
 4    1  0.3352993E-004  0.2725276E+03  0.7818608E-02  0.1099842E+00
         -1   -1    0    0    0  501 -0.00000000000E+00  0.00000000000E+00  0.54328801111E+02  0.54328801345E+02  0.50400000000E-02 0. -1.
          1   -1    0    0  501    0  0.00000000000E+00 -0.00000000000E+00 -0.34176758506E+03  0.34176758509E+03  0.50400000000E-02 0.  1.
    5000001    1    1    2    0    0 -0.71803329892E+02  0.82613293500E+02 -0.18100596099E+03  0.22510626903E+03  0.77000000000E+02 0.  0.
   -5000001    1    1    2    0    0  0.71803329892E+02 -0.82613293500E+02 -0.10643282296E+03  0.17099011740E+03  0.77000000000E+02 0.  0.
<mgrwt>
<rscale>  0 0.27252760E+03</rscale>
<asrwt>0</asrwt>
<pdfrwt beam="1">  1        1 0.48823939E-01 0.27252760E+03</pdfrwt>
<pdfrwt beam="2">  1       -1 0.77612575E-02 0.27252760E+03</pdfrwt>
<totfact> 0.73010083E+03</totfact>
</mgrwt>
</event>
<event>
 4    1  0.3352993E-004  0.4599382E+03  0.7818608E-02  0.1024799E+00
          1   -1    0    0  501    0  0.00000000000E+00  0.00000000000E+00  0.21757837523E+04  0.21757837523E+04  0.50400000000E-02 0.  1.
         -1   -1    0    0    0  501 -0.00000000000E+00 -0.00000000000E+00 -0.24306547339E+02  0.24306547861E+02  0.50400000000E-02 0. -1.
    5000001    1    1    2    0    0  0.20490111565E+03 -0.47049382074E+02  0.13269802628E+04  0.13457353861E+04  0.77000000000E+02 0.  0.
   -5000001    1    1    2    0    0 -0.20490111565E+03  0.47049382074E+02  0.82449694214E+03  0.85435491404E+03  0.77000000000E+02 0.  0.
<mgrwt>
<rscale>  0 0.45993822E+03</rscale>
<asrwt>0</asrwt>
<pdfrwt beam="1">  1        1 0.31082651E+00 0.45993822E+03</pdfrwt>
<pdfrwt beam="2">  1       -1 0.34723610E-02 0.45993822E+03</pdfrwt>
<totfact> 0.97869518E+02</totfact>
</mgrwt>
</event>
<event>
 4    1  0.3352993E-004  0.2365487E+03  0.7818608E-02  0.1122114E+00
         -1   -1    0    0    0  501 -0.00000000000E+00  0.00000000000E+00  0.83498499481E+01  0.83498514692E+01  0.50400000000E-02 0. -1.
          1   -1    0    0  501    0  0.00000000000E+00 -0.00000000000E+00 -0.16753376648E+04  0.16753376648E+04  0.50400000000E-02 0.  1.
    5000001    1    1    2    0    0 -0.34401280643E+02  0.24090467102E+02 -0.13982670522E+04  0.14010151848E+04  0.77000000000E+02 0.  0.
   -5000001    1    1    2    0    0  0.34401280643E+02 -0.24090467102E+02 -0.26872076270E+03  0.28267233154E+03  0.77000000000E+02 0.  0.
<mgrwt>
<rscale>  0 0.23654868E+03</rscale>
<asrwt>0</asrwt>
<pdfrwt beam="1">  1        1 0.23933374E+00 0.23654868E+03</pdfrwt>
<pdfrwt beam="2">  1       -1 0.11928369E-02 0.23654868E+03</pdfrwt>
<totfact> 0.95389523E+03</totfact>
</mgrwt>
</event>
<event>
 4    1  0.3352993E-004  0.1638859E+03  0.7818608E-02  0.1184378E+00
          1   -1    0    0  501    0  0.00000000000E+00  0.00000000000E+00  0.67221545903E+01  0.67221564797E+01  0.50400000000E-02 0.  1.
         -1   -1    0    0    0  501 -0.00000000000E+00 -0.00000000000E+00 -0.99888327783E+03  0.99888327785E+03  0.50400000000E-02 0. -1.
    5000001    1    1    2    0    0  0.12883342439E+02  0.17505448326E+02 -0.60467708741E+03  0.60994737583E+03  0.77000000000E+02 0.  0.
   -5000001    1    1    2    0    0 -0.12883342439E+02 -0.17505448326E+02 -0.38748403583E+03  0.39565805850E+03  0.77000000000E+02 0.  0.
<mgrwt>
<rscale>  0 0.16388592E+03</rscale>
<asrwt>0</asrwt>
<pdfrwt beam="1">  1        1 0.96030857E-03 0.16388592E+03</pdfrwt>
<pdfrwt beam="2">  1       -1 0.14269752E+00 0.16388592E+03</pdfrwt>
<totfact> 0.71273322E+03</totfact>
</mgrwt>
</event>
<event>
 4    1  0.3352993E-004  0.2109789E+03  0.7818608E-02  0.1140793E+00
          1   -1    0    0  501    0  0.00000000000E+00  0.00000000000E+00  0.10309142872E+03  0.10309142884E+03  0.50400000000E-02 0.  1.
         -1   -1    0    0    0  501 -0.00000000000E+00 -0.00000000000E+00 -0.10794327346E+03  0.10794327358E+03  0.50400000000E-02 0. -1.
    5000001    1    1    2    0    0 -0.33864597098E+02  0.50991148422E+02 -0.40542665564E+02  0.10639368348E+03  0.77000000000E+02 0.  0.
   -5000001    1    1    2    0    0  0.33864597098E+02 -0.50991148422E+02  0.35690820820E+02  0.10464101894E+03  0.77000000000E+02 0.  0.
<mgrwt>
<rscale>  0 0.21097892E+03</rscale>
<asrwt>0</asrwt>
<pdfrwt beam="1">  1        1 0.14727347E-01 0.21097892E+03</pdfrwt>
<pdfrwt beam="2">  1       -1 0.15420468E-01 0.21097892E+03</pdfrwt>
<totfact> 0.11395363E+04</totfact>
</mgrwt>
</event>
<event>
 4    1  0.3352993E-004  0.3248629E+03  0.7818608E-02  0.1073433E+00
          1   -1    0    0  501    0  0.00000000000E+00  0.00000000000E+00  0.12254795622E+03  0.12254795633E+03  0.50400000000E-02 0.  1.
         -1   -1    0    0    0  501 -0.00000000000E+00 -0.00000000000E+00 -0.21529517504E+03  0.21529517510E+03  0.50400000000E-02 0. -1.
    5000001    1    1    2    0    0 -0.50696774613E+02 -0.12076638433E+03 -0.10611725224E+03  0.18532283660E+03  0.77000000000E+02 0.  0.
   -5000001    1    1    2    0    0  0.50696774613E+02  0.12076638433E+03  0.13370033424E+02  0.15252029483E+03  0.77000000000E+02 0.  0.
<mgrwt>
<rscale>  0 0.32486295E+03</rscale>
<asrwt>0</asrwt>
<pdfrwt beam="1">  1        1 0.17506851E-01 0.32486295E+03</pdfrwt>
<pdfrwt beam="2">  1       -1 0.30756453E-01 0.32486295E+03</pdfrwt>
<totfact> 0.29795908E+03</totfact>
</mgrwt>
</event>
<event>
 4    1  0.3352993E-004  0.2779765E+03  0.7818608E-02  0.1096799E+00
         -1   -1    0    0    0  501 -0.00000000000E+00  0.00000000000E+00  0.29564223367E+02  0.29564223796E+02  0.50400000000E-02 0. -1.
          1   -1    0    0  501    0  0.00000000000E+00 -0.00000000000E+00 -0.65341598195E+03  0.65341598197E+03  0.50400000000E-02 0.  1.
    5000001    1    1    2    0    0  0.86287493293E+02  0.26004688047E+02 -0.13361409210E+03  0.17861551138E+03  0.77000000000E+02 0.  0.
   -5000001    1    1    2    0    0 -0.86287493293E+02 -0.26004688047E+02 -0.49023766648E+03  0.50436469438E+03  0.77000000000E+02 0.  0.
<mgrwt>
<rscale>  0 0.27797652E+03</rscale>
<asrwt>0</asrwt>
<pdfrwt beam="1">  1        1 0.93345132E-01 0.27797652E+03</pdfrwt>
<pdfrwt beam="2">  1       -1 0.42234609E-02 0.27797652E+03</pdfrwt>
<totfact> 0.78255789E+03</totfact>
</mgrwt>
</event>
<event>
 4    1  0.3352993E-004  0.3293435E+03  0.7818608E-02  0.1071428E+00
          1   -1    0    0  501    0  0.00000000000E+00  0.00000000000E+00  0.20234585062E+04  0.20234585062E+04  0.50400000000E-02 0.  1.
         -1   -1    0    0    0  501 -0.00000000000E+00 -0.00000000000E+00 -0.13401209987E+02  0.13401210935E+02  0.50400000000E-02 0. -1.
    5000001    1    1    2    0    0  0.10074611214E+03 -0.34564072520E+02  0.16186255827E+04  0.16239526567E+04  0.77000000000E+02 0.  0.
   -5000001    1    1    2    0    0 -0.10074611214E+03  0.34564072520E+02  0.39143171350E+03  0.41290706044E+03  0.77000000000E+02 0.  0.
<mgrwt>
<rscale>  0 0.32934355E+03</rscale>
<asrwt>0</asrwt>
<pdfrwt beam="1">  1        1 0.28906571E+00 0.32934355E+03</pdfrwt>
<pdfrwt beam="2">  1       -1 0.19144572E-02 0.32934355E+03</pdfrwt>
<totfact> 0.29536279E+03</totfact>
</mgrwt>
</event>
<event>
 4    1  0.3352993E-004  0.2246123E+03  0.7818608E-02  0.1130490E+00
         -1   -1    0    0    0  501 -0.00000000000E+00  0.00000000000E+00  0.18887846156E+02  0.18887846829E+02  0.50400000000E-02 0. -1.
          1   -1    0    0  501    0  0.00000000000E+00 -0.00000000000E+00 -0.66776637266E+03  0.66776637268E+03  0.50400000000E-02 0.  1.
    5000001    1    1    2    0    0 -0.59535175692E+02 -0.47884141428E+02 -0.23550334530E+03  0.25928392506E+03  0.77000000000E+02 0.  0.
   -5000001    1    1    2    0    0  0.59535175692E+02  0.47884141428E+02 -0.41337518120E+03  0.42737029445E+03  0.77000000000E+02 0.  0.
<mgrwt>
<rscale>  0 0.22461228E+03</rscale>
<asrwt>0</asrwt>
<pdfrwt beam="1">  1        1 0.95395182E-01 0.22461228E+03</pdfrwt>
<pdfrwt beam="2">  1       -1 0.26982642E-02 0.22461228E+03</pdfrwt>
<totfact> 0.14582187E+04</totfact>
</mgrwt>
</event>
<event>
 4    1  0.3352993E-004  0.2648031E+03  0.7818608E-02  0.1104291E+00
          1   -1    0    0  501    0  0.00000000000E+00  0.00000000000E+00  0.17019763522E+04  0.17019763522E+04  0.50400000000E-02 0.  1.
         -1   -1    0    0    0  501 -0.00000000000E+00 -0.00000000000E+00 -0.10299889706E+02  0.10299890939E+02  0.50400000000E-02 0. -1.
    5000001    1    1    2    0    0  0.17876205663E+02  0.72466427095E+02  0.34370653032E+03  0.36004738684E+03  0.77000000000E+02 0.  0.
   -5000001    1    1    2    0    0 -0.17876205663E+02 -0.72466427095E+02  0.13479699322E+04  0.13522288563E+04  0.77000000000E+02 0.  0.
<mgrwt>
<rscale>  0 0.26480309E+03</rscale>
<asrwt>0</asrwt>
<pdfrwt beam="1">  1        1 0.24313953E+00 0.26480309E+03</pdfrwt>
<pdfrwt beam="2">  1       -1 0.14714126E-02 0.26480309E+03</pdfrwt>
<totfact> 0.67951522E+03</totfact>
</mgrwt>
</event>
<event>
 4    1  0.3352993E-004  0.2371168E+03  0.7818608E-02  0.1121729E+00
          1   -1    0    0  501    0  0.00000000000E+00  0.00000000000E+00  0.35440736516E+03  0.35440736520E+03  0.50400000000E-02 0.  1.
         -1   -1    0    0    0  501 -0.00000000000E+00 -0.00000000000E+00 -0.39660849994E+02  0.39660850314E+02  0.50400000000E-02 0. -1.
    5000001    1    1    2    0    0 -0.59243617485E+02 -0.57485607874E+02  0.97160137966E+02  0.14894124256E+03  0.77000000000E+02 0.  0.
   -5000001    1    1    2    0    0  0.59243617485E+02  0.57485607874E+02  0.21758637720E+03  0.24512697295E+03  0.77000000000E+02 0.  0.
<mgrwt>
<rscale>  0 0.23711683E+03</rscale>
<asrwt>0</asrwt>
<pdfrwt beam="1">  1        1 0.50629625E-01 0.23711683E+03</pdfrwt>
<pdfrwt beam="2">  1       -1 0.56658356E-02 0.23711683E+03</pdfrwt>
<totfact> 0.11156999E+04</totfact>
</mgrwt>
</event>
<event>
 4    1  0.3352993E-004  0.1712361E+03  0.7818608E-02  0.1176565E+00
          1   -1    0    0  501    0  0.00000000000E+00  0.00000000000E+00  0.55952078713E+02  0.55952078940E+02  0.50400000000E-02 0.  1.
         -1   -1    0    0    0  501 -0.00000000000E+00 -0.00000000000E+00 -0.13101295047E+03  0.13101295057E+03  0.50400000000E-02 0. -1.
    5000001    1    1    2    0    0 -0.30982125087E+02 -0.16227612548E+02 -0.52106582409E+02  0.99334401967E+02  0.77000000000E+02 0.  0.
   -5000001    1    1    2    0    0  0.30982125087E+02  0.16227612548E+02 -0.22954289350E+02  0.87630627542E+02  0.77000000000E+02 0.  0.
<mgrwt>
<rscale>  0 0.17123606E+03</rscale>
<asrwt>0</asrwt>
<pdfrwt beam="1">  1        1 0.79931542E-02 0.17123606E+03</pdfrwt>
<pdfrwt beam="2">  1       -1 0.18716136E-01 0.17123606E+03</pdfrwt>
<totfact> 0.18553620E+04</totfact>
</mgrwt>
</event>
<event>
 4    1  0.3352993E-004  0.1928087E+03  0.7818608E-02  0.1155952E+00
         -1   -1    0    0    0  501 -0.00000000000E+00  0.00000000000E+00  0.14014802867E+02  0.14014803773E+02  0.50400000000E-02 0. -1.
          1   -1    0    0  501    0  0.00000000000E+00 -0.00000000000E+00 -0.66314151354E+03  0.66314151356E+03  0.50400000000E-02 0.  1.
    5000001    1    1    2    0    0  0.17254740339E+02  0.44455240487E+02 -0.44055736830E+03  0.44977081857E+03  0.77000000000E+02 0.  0.
   -5000001    1    1    2    0    0 -0.17254740339E+02 -0.44455240487E+02 -0.20856934237E+03  0.22738549876E+03  0.77000000000E+02 0.  0.
<mgrwt>
<rscale>  0 0.19280869E+03</rscale>
<asrwt>0</asrwt>
<pdfrwt beam="1">  1        1 0.94734482E-01 0.19280869E+03</pdfrwt>
<pdfrwt beam="2">  1       -1 0.20021152E-02 0.19280869E+03</pdfrwt>
<totfact> 0.22537042E+04</totfact>
</mgrwt>
</event>
<event>
 4    1  0.3352993E-004  0.2161385E+03  0.7818608E-02  0.1136795E+00
          1   -1    0    0  501    0  0.00000000000E+00  0.00000000000E+00  0.22448619949E+03  0.22448619955E+03  0.50400000000E-02 0. -1.
         -1   -1    0    0    0  501 -0.00000000000E+00 -0.00000000000E+00 -0.52025321847E+02  0.52025322091E+02  0.50400000000E-02 0.  1.
    5000001    1    1    2    0    0 -0.72983663133E+02 -0.42325594825E+01  0.60470619747E+02  0.12218930189E+03  0.77000000000E+02 0.  0.
   -5000001    1    1    2    0    0  0.72983663133E+02  0.42325594825E+01  0.11199025790E+03  0.15432221975E+03  0.77000000000E+02 0.  0.
<mgrwt>
<rscale>  0 0.21613854E+03</rscale>
<asrwt>0</asrwt>
<pdfrwt beam="1">  1        1 0.32069456E-01 0.21613854E+03</pdfrwt>
<pdfrwt beam="2">  1       -1 0.74321890E-02 0.21613854E+03</pdfrwt>
<totfact> 0.13053167E+04</totfact>
</mgrwt>
</event>
<event>
 4    1  0.3352993E-004  0.2077069E+03  0.7818608E-02  0.1143395E+00
         -1   -1    0    0    0  501 -0.00000000000E+00  0.00000000000E+00  0.15194960896E+02  0.15194961732E+02  0.50400000000E-02 0. -1.
          1   -1    0    0  501    0  0.00000000000E+00 -0.00000000000E+00 -0.70981033023E+03  0.70981033025E+03  0.50400000000E-02 0.  1.
    5000001    1    1    2    0    0 -0.57158298300E+02  0.19627228480E+02 -0.22617900234E+03  0.24645129389E+03  0.77000000000E+02 0.  0.
   -5000001    1    1    2    0    0  0.57158298300E+02 -0.19627228480E+02 -0.46843636699E+03  0.47855399809E+03  0.77000000000E+02 0.  0.
<mgrwt>
<rscale>  0 0.20770691E+03</rscale>
<asrwt>0</asrwt>
<pdfrwt beam="1">  1        1 0.10140146E+00 0.20770691E+03</pdfrwt>
<pdfrwt beam="2">  1       -1 0.21707092E-02 0.20770691E+03</pdfrwt>
<totfact> 0.18305420E+04</totfact>
</mgrwt>
</event>
<event>
 4    1  0.3352993E-004  0.2188008E+03  0.7818608E-02  0.1134780E+00
         -1   -1    0    0    0  501 -0.00000000000E+00  0.00000000000E+00  0.28812540536E+03  0.28812540540E+03  0.50400000000E-02 0.  1.
          1   -1    0    0  501    0  0.00000000000E+00 -0.00000000000E+00 -0.41539013679E+02  0.41539013985E+02  0.50400000000E-02 0. -1.
    5000001    1    1    2    0    0  0.39072188776E+02 -0.30881577698E+02  0.33406463677E+02  0.97597641325E+02  0.77000000000E+02 0.  0.
   -5000001    1    1    2    0    0 -0.39072188776E+02  0.30881577698E+02  0.21317992800E+03  0.23206677806E+03  0.77000000000E+02 0.  0.
<mgrwt>
<rscale>  0 0.21880078E+03</rscale>
<asrwt>0</asrwt>
<pdfrwt beam="1">  1        1 0.59341451E-02 0.21880078E+03</pdfrwt>
<pdfrwt beam="2">  1       -1 0.41160770E-01 0.21880078E+03</pdfrwt>
<totfact> 0.75384647E+03</totfact>
</mgrwt>
</event>
<event>
 4    1  0.3352993E-004  0.2806189E+03  0.7818608E-02  0.1095351E+00
          1   -1    0    0  501    0  0.00000000000E+00  0.00000000000E+00  0.84656605836E+02  0.84656605986E+02  0.50400000000E-02 0. -1.
         -1   -1    0    0    0  501 -0.00000000000E+00 -0.00000000000E+00 -0.23254826889E+03  0.23254826894E+03  0.50400000000E-02 0.  1.
    5000001    1    1    2    0    0  0.32544023253E+02 -0.92778353664E+02 -0.16476168434E+01  0.12489455953E+03  0.77000000000E+02 0.  0.
   -5000001    1    1    2    0    0 -0.32544023253E+02  0.92778353664E+02 -0.14624404621E+03  0.19231031540E+03  0.77000000000E+02 0.  0.
<mgrwt>
<rscale>  0 0.28061894E+03</rscale>
<asrwt>0</asrwt>
<pdfrwt beam="1">  1        1 0.12093801E-01 0.28061894E+03</pdfrwt>
<pdfrwt beam="2">  1       -1 0.33221181E-01 0.28061894E+03</pdfrwt>
<totfact> 0.42335998E+03</totfact>
</mgrwt>
</event>
<event>
 4    1  0.3352993E-004  0.4708741E+03  0.7818608E-02  0.1021674E+00
         -1   -1    0    0    0  501 -0.00000000000E+00  0.00000000000E+00  0.92102474696E+02  0.92102474834E+02  0.50400000000E-02 0. -1.
          1   -1    0    0  501    0  0.00000000000E+00 -0.00000000000E+00 -0.60183624589E+03  0.60183624591E+03  0.50400000000E-02 0.  1.
    5000001    1    1    2    0    0  0.98143636336E+02 -0.83839903281E+02 -0.52193368156E+03  0.54314369248E+03  0.77000000000E+02 0.  0.
   -5000001    1    1    2    0    0 -0.98143636336E+02  0.83839903281E+02  0.12199910369E+02  0.15079502826E+03  0.77000000000E+02 0.  0.
<mgrwt>
<rscale>  0 0.47087411E+03</rscale>
<asrwt>0</asrwt>
<pdfrwt beam="1">  1        1 0.85976604E-01 0.47087411E+03</pdfrwt>
<pdfrwt beam="2">  1       -1 0.13157497E-01 0.47087411E+03</pdfrwt>
<totfact> 0.15429608E+03</totfact>
</mgrwt>
</event>
<event>
 4    1  0.3352993E-004  0.1906320E+03  0.7818608E-02  0.1157893E+00
         -1   -1    0    0    0  501 -0.00000000000E+00  0.00000000000E+00  0.97697457230E+01  0.97697470230E+01  0.50400000000E-02 0. -1.
          1   -1    0    0  501    0  0.00000000000E+00 -0.00000000000E+00 -0.92992582483E+03  0.92992582484E+03  0.50400000000E-02 0.  1.
    5000001    1    1    2    0    0  0.18000483350E+02 -0.21019468359E+02 -0.70107854641E+03  0.70583706596E+03  0.77000000000E+02 0.  0.
   -5000001    1    1    2    0    0 -0.18000483350E+02  0.21019468359E+02 -0.21907753270E+03  0.23385850590E+03  0.77000000000E+02 0.  0.
<mgrwt>
<rscale>  0 0.19063200E+03</rscale>
<asrwt>0</asrwt>
<pdfrwt beam="1">  1        1 0.13284649E+00 0.19063200E+03</pdfrwt>
<pdfrwt beam="2">  1       -1 0.13956786E-02 0.19063200E+03</pdfrwt>
<totfact> 0.23077816E+04</totfact>
</mgrwt>
</event>
<event>
 4    1  0.3352993E-004  0.2588532E+03  0.7818608E-02  0.1107834E+00
          1   -1    0    0  501    0  0.00000000000E+00  0.00000000000E+00  0.32974507208E+02  0.32974507594E+02  0.50400000000E-02 0.  1.
         -1   -1    0    0    0  501 -0.00000000000E+00 -0.00000000000E+00 -0.50800603201E+03  0.50800603204E+03  0.50400000000E-02 0. -1.
    5000001    1    1    2    0    0  0.95519437163E+02 -0.37308751605E+02 -0.20093675380E+03  0.23837047814E+03  0.77000000000E+02 0.  0.
   -5000001    1    1    2    0    0 -0.95519437163E+02  0.37308751605E+02 -0.27409477100E+03  0.30261006149E+03  0.77000000000E+02 0.  0.
<mgrwt>
<rscale>  0 0.25885323E+03</rscale>
<asrwt>0</asrwt>
<pdfrwt beam="1">  1        1 0.47106442E-02 0.25885323E+03</pdfrwt>
<pdfrwt beam="2">  1       -1 0.72572285E-01 0.25885323E+03</pdfrwt>
<totfact> 0.35865700E+03</totfact>
</mgrwt>
</event>
<event>
 4    1  0.3352993E-004  0.2108194E+03  0.7818608E-02  0.1140919E+00
          1   -1    0    0  501    0  0.00000000000E+00  0.00000000000E+00  0.23120103414E+03  0.23120103420E+03  0.50400000000E-02 0.  1.
         -1   -1    0    0    0  501 -0.00000000000E+00 -0.00000000000E+00 -0.48058650919E+02  0.48058651183E+02  0.50400000000E-02 0. -1.
    5000001    1    1    2    0    0 -0.61526524995E+01 -0.71202717718E+02  0.80135658538E+02  0.13213026115E+03  0.77000000000E+02 0.  0.
   -5000001    1    1    2    0    0  0.61526524995E+01  0.71202717718E+02  0.10300672469E+03  0.14712942423E+03  0.77000000000E+02 0.  0.
<mgrwt>
<rscale>  0 0.21081945E+03</rscale>
<asrwt>0</asrwt>
<pdfrwt beam="1">  1        1 0.33028719E-01 0.21081945E+03</pdfrwt>
<pdfrwt beam="2">  1       -1 0.68655217E-02 0.21081945E+03</pdfrwt>
<totfact> 0.14161117E+04</totfact>
</mgrwt>
</event>
<event>
 4    1  0.3352993E-004  0.2389551E+03  0.7818608E-02  0.1120491E+00
         -1   -1    0    0    0  501 -0.00000000000E+00  0.00000000000E+00  0.78205163224E+01  0.78205179465E+01  0.50400000000E-02 0. -1.
          1   -1    0    0  501    0  0.00000000000E+00 -0.00000000000E+00 -0.18253113910E+04  0.18253113910E+04  0.50400000000E-02 0.  1.
    5000001    1    1    2    0    0  0.11335613531E+02 -0.60701626113E+02 -0.39226274276E+03  0.40449010236E+03  0.77000000000E+02 0.  0.
   -5000001    1    1    2    0    0 -0.11335613531E+02  0.60701626113E+02 -0.14252281319E+04  0.14286418065E+04  0.77000000000E+02 0.  0.
<mgrwt>
<rscale>  0 0.23895505E+03</rscale>
<asrwt>0</asrwt>
<pdfrwt beam="1">  1        1 0.26075850E+00 0.23895505E+03</pdfrwt>
<pdfrwt beam="2">  1       -1 0.11172179E-02 0.23895505E+03</pdfrwt>
<totfact> 0.85072818E+03</totfact>
</mgrwt>
</event>
<event>
 4    1  0.3352993E-004  0.2115238E+03  0.7818608E-02  0.1140365E+00
          1   -1    0    0  501    0  0.00000000000E+00  0.00000000000E+00  0.46900902780E+03  0.46900902783E+03  0.50400000000E-02 0. -1.
         -1   -1    0    0    0  501 -0.00000000000E+00 -0.00000000000E+00 -0.23849399029E+02  0.23849399561E+02  0.50400000000E-02 0.  1.
    5000001    1    1    2    0    0  0.67830335525E+02  0.25341059574E+02  0.23112818488E+03  0.25415027359E+03  0.77000000000E+02 0.  0.
   -5000001    1    1    2    0    0 -0.67830335525E+02 -0.25341059574E+02  0.21403144389E+03  0.23870815380E+03  0.77000000000E+02 0.  0.
<mgrwt>
<rscale>  0 0.21152384E+03</rscale>
<asrwt>0</asrwt>
<pdfrwt beam="1">  1        1 0.67001297E-01 0.21152384E+03</pdfrwt>
<pdfrwt beam="2">  1       -1 0.34070567E-02 0.21152384E+03</pdfrwt>
<totfact> 0.16530019E+04</totfact>
</mgrwt>
</event>
<event>
 4    1  0.3352993E-004  0.5243008E+03  0.7818608E-02  0.1007624E+00
          1   -1    0    0  501    0  0.00000000000E+00  0.00000000000E+00  0.32117637192E+03  0.32117637196E+03  0.50400000000E-02 0.  1.
         -1   -1    0    0    0  501 -0.00000000000E+00 -0.00000000000E+00 -0.21397224981E+03  0.21397224987E+03  0.50400000000E-02 0. -1.
    5000001    1    1    2    0    0  0.23692975120E+03  0.70478628199E+02  0.95573240310E+02  0.27598222461E+03  0.77000000000E+02 0.  0.
   -5000001    1    1    2    0    0 -0.23692975120E+03 -0.70478628199E+02  0.11630881797E+02  0.25916639722E+03  0.77000000000E+02 0.  0.
<mgrwt>
<rscale>  0 0.52430080E+03</rscale>
<asrwt>0</asrwt>
<pdfrwt beam="1">  1        1 0.45882339E-01 0.52430080E+03</pdfrwt>
<pdfrwt beam="2">  1       -1 0.30567464E-01 0.52430080E+03</pdfrwt>
<totfact> 0.87570413E+02</totfact>
</mgrwt>
</event>
<event>
 4    1  0.3352993E-004  0.7990174E+03  0.7818608E-02  0.9561440E-01
          1   -1    0    0  501    0  0.00000000000E+00  0.00000000000E+00  0.11661492163E+04  0.11661492163E+04  0.50400000000E-02 0.  1.
         -1   -1    0    0    0  501 -0.00000000000E+00 -0.00000000000E+00 -0.13686687082E+03  0.13686687092E+03  0.50400000000E-02 0. -1.
    5000001    1    1    2    0    0  0.19853042219E+03  0.32339719408E+03  0.67507245843E+03  0.77823640226E+03  0.77000000000E+02 0.  0.
   -5000001    1    1    2    0    0 -0.19853042219E+03 -0.32339719408E+03  0.35420988704E+03  0.52477968496E+03  0.77000000000E+02 0.  0.
<mgrwt>
<rscale>  0 0.79901738E+03</rscale>
<asrwt>0</asrwt>
<pdfrwt beam="1">  1        1 0.16659274E+00 0.79901738E+03</pdfrwt>
<pdfrwt beam="2">  1       -1 0.19552410E-01 0.79901738E+03</pdfrwt>
<totfact> 0.28000376E+02</totfact>
</mgrwt>
</event>
<event>
 4    1  0.3352993E-004  0.3293772E+03  0.7818608E-02  0.1071413E+00
         -1   -1    0    0    0  501 -0.00000000000E+00  0.00000000000E+00  0.30997083172E+02  0.30997083581E+02  0.50400000000E-02 0.  1.
          1   -1    0    0  501    0  0.00000000000E+00 -0.00000000000E+00 -0.87499619957E+03  0.87499619959E+03  0.50400000000E-02 0. -1.
    5000001    1    1    2    0    0  0.90249777593E+02  0.87679353121E+02 -0.62339041874E+03  0.64060698208E+03  0.77000000000E+02 0.  0.
   -5000001    1    1    2    0    0 -0.90249777593E+02 -0.87679353121E+02 -0.22060869766E+03  0.26538630109E+03  0.77000000000E+02 0.  0.
<mgrwt>
<rscale>  0 0.32937717E+03</rscale>
<asrwt>0</asrwt>
<pdfrwt beam="1">  1        1 0.12499944E+00 0.32937717E+03</pdfrwt>
<pdfrwt beam="2">  1       -1 0.44281553E-02 0.32937717E+03</pdfrwt>
<totfact> 0.47661852E+03</totfact>
</mgrwt>
</event>
<event>
 4    1  0.3352993E-004  0.1806858E+03  0.7818608E-02  0.1167141E+00
          1   -1    0    0  501    0  0.00000000000E+00  0.00000000000E+00  0.71659734109E+02  0.71659734286E+02  0.50400000000E-02 0. -1.
         -1   -1    0    0    0  501 -0.00000000000E+00 -0.00000000000E+00 -0.11389716747E+03  0.11389716758E+03  0.50400000000E-02 0.  1.
    5000001    1    1    2    0    0  0.29712237005E+02 -0.30432325566E+01 -0.58722278292E+02  0.10133797048E+03  0.77000000000E+02 0.  0.
   -5000001    1    1    2    0    0 -0.29712237005E+02  0.30432325566E+01  0.16484844932E+02  0.84218931391E+02  0.77000000000E+02 0.  0.
<mgrwt>
<rscale>  0 0.18068581E+03</rscale>
<asrwt>0</asrwt>
<pdfrwt beam="1">  1        1 0.10237105E-01 0.18068581E+03</pdfrwt>
<pdfrwt beam="2">  1       -1 0.16271024E-01 0.18068581E+03</pdfrwt>
<totfact> 0.16723876E+04</totfact>
</mgrwt>
</event>
<event>
 4    1  0.3352993E-004  0.2108151E+03  0.7818608E-02  0.1140922E+00
         -1   -1    0    0    0  501 -0.00000000000E+00  0.00000000000E+00  0.12767722758E+03  0.12767722768E+03  0.50400000000E-02 0.  1.
          1   -1    0    0  501    0  0.00000000000E+00 -0.00000000000E+00 -0.87022152894E+02  0.87022153040E+02  0.50400000000E-02 0. -1.
    5000001    1    1    2    0    0  0.60494232141E+02 -0.38816981960E+02  0.16326145253E+02  0.10659199421E+03  0.77000000000E+02 0.  0.
   -5000001    1    1    2    0    0 -0.60494232141E+02  0.38816981960E+02  0.24328929434E+02  0.10810738651E+03  0.77000000000E+02 0.  0.
<mgrwt>
<rscale>  0 0.21081506E+03</rscale>
<asrwt>0</asrwt>
<pdfrwt beam="1">  1        1 0.12431736E-01 0.21081506E+03</pdfrwt>
<pdfrwt beam="2">  1       -1 0.18239604E-01 0.21081506E+03</pdfrwt>
<totfact> 0.10894781E+04</totfact>
</mgrwt>
</event>
<event>
 4    1  0.3352993E-004  0.1598972E+03  0.7818608E-02  0.1188813E+00
         -1   -1    0    0    0  501 -0.00000000000E+00  0.00000000000E+00  0.99156883613E+01  0.99156896422E+01  0.50400000000E-02 0.  1.
          1   -1    0    0  501    0  0.00000000000E+00 -0.00000000000E+00 -0.64461264232E+03  0.64461264234E+03  0.50400000000E-02 0. -1.
    5000001    1    1    2    0    0 -0.19747788034E+02 -0.84551082696E+01 -0.31265526718E+03  0.32271315449E+03  0.77000000000E+02 0.  0.
   -5000001    1    1    2    0    0  0.19747788034E+02  0.84551082696E+01 -0.32204168678E+03  0.33181517749E+03  0.77000000000E+02 0.  0.
<mgrwt>
<rscale>  0 0.15989720E+03</rscale>
<asrwt>0</asrwt>
<pdfrwt beam="1">  1        1 0.92087494E-01 0.15989720E+03</pdfrwt>
<pdfrwt beam="2">  1       -1 0.14165274E-02 0.15989720E+03</pdfrwt>
<totfact> 0.38036968E+04</totfact>
</mgrwt>
</event>
<event>
 4    1  0.3352993E-004  0.2286772E+03  0.7818608E-02  0.1127574E+00
          1   -1    0    0  501    0  0.00000000000E+00  0.00000000000E+00  0.54438211546E+03  0.54438211549E+03  0.50400000000E-02 0. -1.
         -1   -1    0    0    0  501 -0.00000000000E+00 -0.00000000000E+00 -0.24014961071E+02  0.24014961600E+02  0.50400000000E-02 0.  1.
    5000001    1    1    2    0    0 -0.40994366689E+02 -0.72778886910E+02  0.29230549688E+03  0.31360613512E+03  0.77000000000E+02 0.  0.
   -5000001    1    1    2    0    0  0.40994366689E+02  0.72778886910E+02  0.22806165752E+03  0.25479094197E+03  0.77000000000E+02 0.  0.
<mgrwt>
<rscale>  0 0.22867720E+03</rscale>
<asrwt>0</asrwt>
<pdfrwt beam="1">  1        1 0.77768883E-01 0.22867720E+03</pdfrwt>
<pdfrwt beam="2">  1       -1 0.34307084E-02 0.22867720E+03</pdfrwt>
<totfact> 0.13531111E+04</totfact>
</mgrwt>
</event>
<event>
 4    1  0.3352993E-004  0.1710854E+03  0.7818608E-02  0.1176721E+00
         -1   -1    0    0    0  501 -0.00000000000E+00  0.00000000000E+00  0.21798721592E+03  0.21798721597E+03  0.50400000000E-02 0. -1.
          1   -1    0    0  501    0  0.00000000000E+00 -0.00000000000E+00 -0.33568736243E+02  0.33568736621E+02  0.50400000000E-02 0.  1.
    5000001    1    1    2    0    0  0.31408373468E+02 -0.11464683871E+02  0.11639779741E+03  0.14351087813E+03  0.77000000000E+02 0.  0.
   -5000001    1    1    2    0    0 -0.31408373468E+02  0.11464683871E+02  0.68020682260E+02  0.10804507446E+03  0.77000000000E+02 0.  0.
<mgrwt>
<rscale>  0 0.17108542E+03</rscale>
<asrwt>0</asrwt>
<pdfrwt beam="1">  1        1 0.47955339E-02 0.17108542E+03</pdfrwt>
<pdfrwt beam="2">  1       -1 0.31141030E-01 0.17108542E+03</pdfrwt>
<totfact> 0.16099161E+04</totfact>
</mgrwt>
</event>
<event>
 4    1  0.3352993E-004  0.2585731E+03  0.7818608E-02  0.1108004E+00
         -1   -1    0    0    0  501 -0.00000000000E+00  0.00000000000E+00  0.19264093496E+02  0.19264094155E+02  0.50400000000E-02 0. -1.
          1   -1    0    0  501    0  0.00000000000E+00 -0.00000000000E+00 -0.86767730825E+03  0.86767730826E+03  0.50400000000E-02 0.  1.
    5000001    1    1    2    0    0  0.73066394382E+02 -0.73753135811E+02 -0.41463040368E+03  0.43431048190E+03  0.77000000000E+02 0.  0.
   -5000001    1    1    2    0    0 -0.73066394382E+02  0.73753135811E+02 -0.43378281107E+03  0.45263092052E+03  0.77000000000E+02 0.  0.
<mgrwt>
<rscale>  0 0.25857314E+03</rscale>
<asrwt>0</asrwt>
<pdfrwt beam="1">  1        1 0.12395388E+00 0.25857314E+03</pdfrwt>
<pdfrwt beam="2">  1       -1 0.27520139E-02 0.25857314E+03</pdfrwt>
<totfact> 0.97208492E+03</totfact>
</mgrwt>
</event>
<event>
 4    1  0.3352993E-004  0.2398795E+03  0.7818608E-02  0.1119873E+00
         -1   -1    0    0    0  501 -0.00000000000E+00  0.00000000000E+00  0.32061659753E+04  0.32061659753E+04  0.50400000000E-02 0.  1.
          1   -1    0    0  501    0  0.00000000000E+00 -0.00000000000E+00 -0.44868344346E+01  0.44868372653E+01  0.50400000000E-02 0. -1.
    5000001    1    1    2    0    0  0.74709312716E+02  0.20447617932E+02  0.93740397664E+03  0.94374509372E+03  0.77000000000E+02 0.  0.
   -5000001    1    1    2    0    0 -0.74709312716E+02 -0.20447617932E+02  0.22642751642E+04  0.22669077188E+04  0.77000000000E+02 0.  0.
<mgrwt>
<rscale>  0 0.23987947E+03</rscale>
<asrwt>0</asrwt>
<pdfrwt beam="1">  1        1 0.64097651E-03 0.23987947E+03</pdfrwt>
<pdfrwt beam="2">  1       -1 0.45802374E+00 0.23987947E+03</pdfrwt>
<totfact> 0.10844172E+02</totfact>
</mgrwt>
</event>
<event>
 4    1  0.3352993E-004  0.3204333E+03  0.7818608E-02  0.1075450E+00
         -1   -1    0    0    0  501 -0.00000000000E+00  0.00000000000E+00  0.12968227121E+03  0.12968227131E+03  0.50400000000E-02 0.  1.
          1   -1    0    0  501    0  0.00000000000E+00 -0.00000000000E+00 -0.19794055383E+03  0.19794055390E+03  0.50400000000E-02 0. -1.
    5000001    1    1    2    0    0  0.12477345850E+03  0.16977284766E+02 -0.97847024171E+02  0.17708665755E+03  0.77000000000E+02 0.  0.
   -5000001    1    1    2    0    0 -0.12477345850E+03 -0.16977284766E+02  0.29588741546E+02  0.15053616765E+03  0.77000000000E+02 0.  0.
<mgrwt>
<rscale>  0 0.32043334E+03</rscale>
<asrwt>0</asrwt>
<pdfrwt beam="1">  1        1 0.28277222E-01 0.32043334E+03</pdfrwt>
<pdfrwt beam="2">  1       -1 0.18526039E-01 0.32043334E+03</pdfrwt>
<totfact> 0.37343652E+03</totfact>
</mgrwt>
</event>
<event>
 4    1  0.3352993E-004  0.3462587E+03  0.7818608E-02  0.1064161E+00
          1   -1    0    0  501    0  0.00000000000E+00  0.00000000000E+00  0.95636425193E+03  0.95636425194E+03  0.50400000000E-02 0.  1.
         -1   -1    0    0    0  501 -0.00000000000E+00 -0.00000000000E+00 -0.31341380629E+02  0.31341381034E+02  0.50400000000E-02 0. -1.
    5000001    1    1    2    0    0 -0.20638592043E+02 -0.13299827137E+03  0.68217831061E+03  0.69957897276E+03  0.77000000000E+02 0.  0.
   -5000001    1    1    2    0    0  0.20638592043E+02  0.13299827137E+03  0.24284456070E+03  0.28812666022E+03  0.77000000000E+02 0.  0.
<mgrwt>
<rscale>  0 0.34625873E+03</rscale>
<asrwt>0</asrwt>
<pdfrwt beam="1">  1        1 0.13662343E+00 0.34625873E+03</pdfrwt>
<pdfrwt beam="2">  1       -1 0.44773413E-02 0.34625873E+03</pdfrwt>
<totfact> 0.40708408E+03</totfact>
</mgrwt>
</event>
<event>
 4    1  0.3352993E-004  0.1950808E+03  0.7818608E-02  0.1153957E+00
          1   -1    0    0  501    0  0.00000000000E+00  0.00000000000E+00  0.56637404098E+03  0.56637404100E+03  0.50400000000E-02 0.  1.
         -1   -1    0    0    0  501 -0.00000000000E+00 -0.00000000000E+00 -0.16798320822E+02  0.16798321578E+02  0.50400000000E-02 0. -1.
    5000001    1    1    2    0    0 -0.19120520767E+02  0.43578997131E+02  0.16616113371E+03  0.18921745602E+03  0.77000000000E+02 0.  0.
   -5000001    1    1    2    0    0  0.19120520767E+02 -0.43578997131E+02  0.38341458645E+03  0.39395490656E+03  0.77000000000E+02 0.  0.
<mgrwt>
<rscale>  0 0.19508084E+03</rscale>
<asrwt>0</asrwt>
<pdfrwt beam="1">  1        1 0.80910570E-01 0.19508084E+03</pdfrwt>
<pdfrwt beam="2">  1       -1 0.23997604E-02 0.19508084E+03</pdfrwt>
<totfact> 0.21465642E+04</totfact>
</mgrwt>
</event>
<event>
 4    1  0.3352993E-004  0.2566354E+03  0.7818608E-02  0.1109182E+00
         -1   -1    0    0    0  501 -0.00000000000E+00  0.00000000000E+00  0.24782051311E+02  0.24782051824E+02  0.50400000000E-02 0.  1.
          1   -1    0    0  501    0  0.00000000000E+00 -0.00000000000E+00 -0.66440952995E+03  0.66440952996E+03  0.50400000000E-02 0. -1.
    5000001    1    1    2    0    0  0.38048425013E+02  0.93723074153E+02 -0.36669333413E+03  0.38810397907E+03  0.77000000000E+02 0.  0.
   -5000001    1    1    2    0    0 -0.38048425013E+02 -0.93723074153E+02 -0.27293414451E+03  0.30108760272E+03  0.77000000000E+02 0.  0.
<mgrwt>
<rscale>  0 0.25663539E+03</rscale>
<asrwt>0</asrwt>
<pdfrwt beam="1">  1        1 0.94915637E-01 0.25663539E+03</pdfrwt>
<pdfrwt beam="2">  1       -1 0.35402935E-02 0.25663539E+03</pdfrwt>
<totfact> 0.99061323E+03</totfact>
</mgrwt>
</event>
<event>
 4    1  0.3352993E-004  0.3537964E+03  0.7818608E-02  0.1061068E+00
         -1   -1    0    0    0  501 -0.00000000000E+00  0.00000000000E+00  0.50306174610E+02  0.50306174863E+02  0.50400000000E-02 0.  1.
          1   -1    0    0  501    0  0.00000000000E+00 -0.00000000000E+00 -0.62205032885E+03  0.62205032887E+03  0.50400000000E-02 0. -1.
    5000001    1    1    2    0    0 -0.11720351495E+03 -0.10542628622E+03 -0.24284534228E+03  0.29959009665E+03  0.77000000000E+02 0.  0.
   -5000001    1    1    2    0    0  0.11720351495E+03  0.10542628622E+03 -0.32889881196E+03  0.37276640708E+03  0.77000000000E+02 0.  0.
<mgrwt>
<rscale>  0 0.35379640E+03</rscale>
<asrwt>0</asrwt>
<pdfrwt beam="1">  1        1 0.88864328E-01 0.35379640E+03</pdfrwt>
<pdfrwt beam="2">  1       -1 0.71865968E-02 0.35379640E+03</pdfrwt>
<totfact> 0.37784760E+03</totfact>
</mgrwt>
</event>
<event>
 4    1  0.3352993E-004  0.2908481E+03  0.7818608E-02  0.1089907E+00
          1   -1    0    0  501    0  0.00000000000E+00  0.00000000000E+00  0.79489995757E+03  0.79489995759E+03  0.50400000000E-02 0. -1.
         -1   -1    0    0    0  501 -0.00000000000E+00 -0.00000000000E+00 -0.26604793839E+02  0.26604794316E+02  0.50400000000E-02 0.  1.
    5000001    1    1    2    0    0  0.97759424938E+02 -0.75030758304E+02  0.40028192809E+03  0.42584168632E+03  0.77000000000E+02 0.  0.
   -5000001    1    1    2    0    0 -0.97759424938E+02  0.75030758304E+02  0.36801323565E+03  0.39566306558E+03  0.77000000000E+02 0.  0.
<mgrwt>
<rscale>  0 0.29084807E+03</rscale>
<asrwt>0</asrwt>
<pdfrwt beam="1">  1        1 0.11355715E+00 0.29084807E+03</pdfrwt>
<pdfrwt beam="2">  1       -1 0.38006845E-02 0.29084807E+03</pdfrwt>
<totfact> 0.69133639E+03</totfact>
</mgrwt>
</event>
<event>
 4    1  0.3352993E-004  0.1934914E+03  0.7818608E-02  0.1155349E+00
          1   -1    0    0  501    0  0.00000000000E+00  0.00000000000E+00  0.28819647466E+03  0.28819647471E+03  0.50400000000E-02 0.  1.
         -1   -1    0    0    0  501 -0.00000000000E+00 -0.00000000000E+00 -0.32476913530E+02  0.32476913921E+02  0.50400000000E-02 0. -1.
    5000001    1    1    2    0    0 -0.17533766647E+02  0.55153415811E+02  0.14281224952E+03  0.17226047388E+03  0.77000000000E+02 0.  0.
   -5000001    1    1    2    0    0  0.17533766647E+02 -0.55153415811E+02  0.11290731161E+03  0.14841291475E+03  0.77000000000E+02 0.  0.
<mgrwt>
<rscale>  0 0.19349142E+03</rscale>
<asrwt>0</asrwt>
<pdfrwt beam="1">  1        1 0.41170927E-01 0.19349142E+03</pdfrwt>
<pdfrwt beam="2">  1       -1 0.46395589E-02 0.19349142E+03</pdfrwt>
<totfact> 0.19223291E+04</totfact>
</mgrwt>
</event>
<event>
 4    1  0.3352993E-004  0.4849718E+03  0.7818608E-02  0.1017778E+00
          1   -1    0    0  501    0  0.00000000000E+00  0.00000000000E+00  0.55317863690E+03  0.55317863693E+03  0.50400000000E-02 0.  1.
         -1   -1    0    0    0  501 -0.00000000000E+00 -0.00000000000E+00 -0.10629369187E+03  0.10629369199E+03  0.50400000000E-02 0. -1.
    5000001    1    1    2    0    0  0.15397146010E+03 -0.12045032639E+03  0.58826609240E+02  0.21818584190E+03  0.77000000000E+02 0.  0.
   -5000001    1    1    2    0    0 -0.15397146010E+03  0.12045032639E+03  0.38805833579E+03  0.44128648702E+03  0.77000000000E+02 0.  0.
<mgrwt>
<rscale>  0 0.48497175E+03</rscale>
<asrwt>0</asrwt>
<pdfrwt beam="1">  1        1 0.79025520E-01 0.48497175E+03</pdfrwt>
<pdfrwt beam="2">  1       -1 0.15184813E-01 0.48497175E+03</pdfrwt>
<totfact> 0.13770733E+03</totfact>
</mgrwt>
</event>
<event>
 4    1  0.3352993E-004  0.1850367E+03  0.7818608E-02  0.1163016E+00
          1   -1    0    0  501    0  0.00000000000E+00  0.00000000000E+00  0.37752997919E+02  0.37752998255E+02  0.50400000000E-02 0. -1.
         -1   -1    0    0    0  501 -0.00000000000E+00 -0.00000000000E+00 -0.22672748937E+03  0.22672748942E+03  0.50400000000E-02 0.  1.
    5000001    1    1    2    0    0  0.50624579427E+02  0.77868715037E+01 -0.90662836861E+02  0.12950765768E+03  0.77000000000E+02 0.  0.
   -5000001    1    1    2    0    0 -0.50624579427E+02 -0.77868715037E+01 -0.98311654586E+02  0.13497283000E+03  0.77000000000E+02 0.  0.
<mgrwt>
<rscale>  0 0.18503667E+03</rscale>
<asrwt>0</asrwt>
<pdfrwt beam="1">  1        1 0.53932855E-02 0.18503667E+03</pdfrwt>
<pdfrwt beam="2">  1       -1 0.32389641E-01 0.18503667E+03</pdfrwt>
<totfact> 0.12896971E+04</totfact>
</mgrwt>
</event>
<event>
 4    1  0.3352993E-004  0.1840425E+03  0.7818608E-02  0.1163947E+00
          1   -1    0    0  501    0  0.00000000000E+00  0.00000000000E+00  0.64000788594E+02  0.64000788793E+02  0.50400000000E-02 0. -1.
         -1   -1    0    0    0  501 -0.00000000000E+00 -0.00000000000E+00 -0.13230944785E+03  0.13230944795E+03  0.50400000000E-02 0.  1.
    5000001    1    1    2    0    0 -0.13055358881E+02 -0.41132839516E+02 -0.64098373537E+01  0.88501067208E+02  0.77000000000E+02 0.  0.
   -5000001    1    1    2    0    0  0.13055358881E+02  0.41132839516E+02 -0.61898821905E+02  0.10780916953E+03  0.77000000000E+02 0.  0.
<mgrwt>
<rscale>  0 0.18404248E+03</rscale>
<asrwt>0</asrwt>
<pdfrwt beam="1">  1        1 0.91429698E-02 0.18404248E+03</pdfrwt>
<pdfrwt beam="2">  1       -1 0.18901350E-01 0.18404248E+03</pdfrwt>
<totfact> 0.15337550E+04</totfact>
</mgrwt>
</event>
<event>
 4    1  0.3352993E-004  0.1924960E+03  0.7818608E-02  0.1156229E+00
          1   -1    0    0  501    0  0.00000000000E+00  0.00000000000E+00  0.21558337002E+03  0.21558337008E+03  0.50400000000E-02 0. -1.
         -1   -1    0    0    0  501 -0.00000000000E+00 -0.00000000000E+00 -0.42970296840E+02  0.42970297135E+02  0.50400000000E-02 0.  1.
    5000001    1    1    2    0    0  0.71670570075E+01 -0.54694380406E+02  0.63360856584E+02  0.11395806291E+03  0.77000000000E+02 0.  0.
   -5000001    1    1    2    0    0 -0.71670570075E+01  0.54694380406E+02  0.10925221660E+03  0.14459560431E+03  0.77000000000E+02 0.  0.
<mgrwt>
<rscale>  0 0.19249604E+03</rscale>
<asrwt>0</asrwt>
<pdfrwt beam="1">  1        1 0.30797624E-01 0.19249604E+03</pdfrwt>
<pdfrwt beam="2">  1       -1 0.61386139E-02 0.19249604E+03</pdfrwt>
<totfact> 0.18176240E+04</totfact>
</mgrwt>
</event>
<event>
 4    1  0.3352993E-004  0.3395921E+03  0.7818608E-02  0.1066970E+00
         -1   -1    0    0    0  501 -0.00000000000E+00  0.00000000000E+00  0.62756858840E+02  0.62756859042E+02  0.50400000000E-02 0. -1.
          1   -1    0    0  501    0  0.00000000000E+00 -0.00000000000E+00 -0.45940310707E+03  0.45940310709E+03  0.50400000000E-02 0.  1.
    5000001    1    1    2    0    0  0.80113646204E+02 -0.11282766988E+03 -0.10412128152E+03  0.18952182108E+03  0.77000000000E+02 0.  0.
   -5000001    1    1    2    0    0 -0.80113646204E+02  0.11282766988E+03 -0.29252496671E+03  0.33263814506E+03  0.77000000000E+02 0.  0.
<mgrwt>
<rscale>  0 0.33959208E+03</rscale>
<asrwt>0</asrwt>
<pdfrwt beam="1">  1        1 0.65629013E-01 0.33959208E+03</pdfrwt>
<pdfrwt beam="2">  1       -1 0.89652658E-02 0.33959208E+03</pdfrwt>
<totfact> 0.40344612E+03</totfact>
</mgrwt>
</event>
<event>
 4    1  0.3352993E-004  0.4624820E+03  0.7818608E-02  0.1024064E+00
         -1   -1    0    0    0  501 -0.00000000000E+00  0.00000000000E+00  0.13703046235E+04  0.13703046235E+04  0.50400000000E-02 0. -1.
          1   -1    0    0  501    0  0.00000000000E+00 -0.00000000000E+00 -0.39022266167E+02  0.39022266493E+02  0.50400000000E-02 0.  1.
    5000001    1    1    2    0    0 -0.17529344406E+03  0.23137592723E+02  0.27682215833E+03  0.33737612107E+03  0.77000000000E+02 0.  0.
   -5000001    1    1    2    0    0  0.17529344406E+03 -0.23137592723E+02  0.10544601990E+04  0.10719507689E+04  0.77000000000E+02 0.  0.
<mgrwt>
<rscale>  0 0.46248196E+03</rscale>
<asrwt>0</asrwt>
<pdfrwt beam="1">  1        1 0.55746079E-02 0.46248196E+03</pdfrwt>
<pdfrwt beam="2">  1       -1 0.19575786E+00 0.46248196E+03</pdfrwt>
<totfact> 0.25306656E+02</totfact>
</mgrwt>
</event>
<event>
 4    1  0.3352993E-004  0.1895988E+03  0.7818608E-02  0.1158824E+00
          1   -1    0    0  501    0  0.00000000000E+00  0.00000000000E+00  0.88330204689E+02  0.88330204833E+02  0.50400000000E-02 0. -1.
         -1   -1    0    0    0  501 -0.00000000000E+00 -0.00000000000E+00 -0.10174240475E+03  0.10174240488E+03  0.50400000000E-02 0.  1.
    5000001    1    1    2    0    0  0.53365141517E+02 -0.97214616521E+01 -0.17483887659E+02  0.95796823921E+02  0.77000000000E+02 0.  0.
   -5000001    1    1    2    0    0 -0.53365141517E+02  0.97214616521E+01  0.40716875968E+01  0.94275785787E+02  0.77000000000E+02 0.  0.
<mgrwt>
<rscale>  0 0.18959881E+03</rscale>
<asrwt>0</asrwt>
<pdfrwt beam="1">  1        1 0.12618601E-01 0.18959881E+03</pdfrwt>
<pdfrwt beam="2">  1       -1 0.14534629E-01 0.18959881E+03</pdfrwt>
<totfact> 0.15208756E+04</totfact>
</mgrwt>
</event>
<event>
 4    1  0.3352993E-004  0.2049178E+03  0.7818608E-02  0.1145655E+00
          1   -1    0    0  501    0  0.00000000000E+00  0.00000000000E+00  0.68717280032E+03  0.68717280034E+03  0.50400000000E-02 0. -1.
         -1   -1    0    0    0  501 -0.00000000000E+00 -0.00000000000E+00 -0.15276841726E+02  0.15276842558E+02  0.50400000000E-02 0.  1.
    5000001    1    1    2    0    0 -0.17479387827E+02 -0.54880753171E+02  0.21468331954E+03  0.23523467804E+03  0.77000000000E+02 0.  0.
   -5000001    1    1    2    0    0  0.17479387827E+02  0.54880753171E+02  0.45721263906E+03  0.46721496485E+03  0.77000000000E+02 0.  0.
<mgrwt>
<rscale>  0 0.20491784E+03</rscale>
<asrwt>0</asrwt>
<pdfrwt beam="1">  1        1 0.98167542E-01 0.20491784E+03</pdfrwt>
<pdfrwt beam="2">  1       -1 0.21824060E-02 0.20491784E+03</pdfrwt>
<totfact> 0.18996281E+04</totfact>
</mgrwt>
</event>
<event>
 4    1  0.3352993E-004  0.2074282E+03  0.7818608E-02  0.1143619E+00
          1   -1    0    0  501    0  0.00000000000E+00  0.00000000000E+00  0.78513703387E+02  0.78513703549E+02  0.50400000000E-02 0.  1.
         -1   -1    0    0    0  501 -0.00000000000E+00 -0.00000000000E+00 -0.13700298102E+03  0.13700298111E+03  0.50400000000E-02 0. -1.
    5000001    1    1    2    0    0 -0.48127224861E+01 -0.41750515206E+02  0.28242302449E+02  0.92156906770E+02  0.77000000000E+02 0.  0.
   -5000001    1    1    2    0    0  0.48127224861E+01  0.41750515206E+02 -0.86731580081E+02  0.12335977789E+03  0.77000000000E+02 0.  0.
<mgrwt>
<rscale>  0 0.20742817E+03</rscale>
<asrwt>0</asrwt>
<pdfrwt beam="1">  1        1 0.11216243E-01 0.20742817E+03</pdfrwt>
<pdfrwt beam="2">  1       -1 0.19571854E-01 0.20742817E+03</pdfrwt>
<totfact> 0.11134647E+04</totfact>
</mgrwt>
</event>
<event>
 4    1  0.3352993E-004  0.2046298E+03  0.7818608E-02  0.1145891E+00
         -1   -1    0    0    0  501 -0.00000000000E+00  0.00000000000E+00  0.86317565297E+02  0.86317565444E+02  0.50400000000E-02 0. -1.
          1   -1    0    0  501    0  0.00000000000E+00 -0.00000000000E+00 -0.12127706096E+03  0.12127706107E+03  0.50400000000E-02 0.  1.
    5000001    1    1    2    0    0 -0.21708315150E+02  0.63744340597E+02 -0.19690483639E+02  0.10416960714E+03  0.77000000000E+02 0.  0.
   -5000001    1    1    2    0    0  0.21708315150E+02 -0.63744340597E+02 -0.15269012028E+02  0.10342501938E+03  0.77000000000E+02 0.  0.
<mgrwt>
<rscale>  0 0.20462982E+03</rscale>
<asrwt>0</asrwt>
<pdfrwt beam="1">  1        1 0.17325295E-01 0.20462982E+03</pdfrwt>
<pdfrwt beam="2">  1       -1 0.12331081E-01 0.20462982E+03</pdfrwt>
<totfact> 0.13077308E+04</totfact>
</mgrwt>
</event>
<event>
 4    1  0.3352993E-004  0.4725083E+03  0.7818608E-02  0.1021215E+00
          1   -1    0    0  501    0  0.00000000000E+00  0.00000000000E+00  0.61297944364E+03  0.61297944366E+03  0.50400000000E-02 0.  1.
         -1   -1    0    0    0  501 -0.00000000000E+00 -0.00000000000E+00 -0.91056938877E+02  0.91056939016E+02  0.50400000000E-02 0. -1.
    5000001    1    1    2    0    0  0.15462481147E+03  0.14874590261E+03  0.16847503596E+03  0.28345548788E+03  0.77000000000E+02 0.  0.
   -5000001    1    1    2    0    0 -0.15462481147E+03 -0.14874590261E+03  0.35344746880E+03  0.42058089480E+03  0.77000000000E+02 0.  0.
<mgrwt>
<rscale>  0 0.47250834E+03</rscale>
<asrwt>0</asrwt>
<pdfrwt beam="1">  1        1 0.87568492E-01 0.47250834E+03</pdfrwt>
<pdfrwt beam="2">  1       -1 0.13008134E-01 0.47250834E+03</pdfrwt>
<totfact> 0.15316384E+03</totfact>
</mgrwt>
</event>
<event>
 4    1  0.3352993E-004  0.1833370E+03  0.7818608E-02  0.1164612E+00
          1   -1    0    0  501    0  0.00000000000E+00  0.00000000000E+00  0.96217808082E+03  0.96217808083E+03  0.50400000000E-02 0. -1.
         -1   -1    0    0    0  501 -0.00000000000E+00 -0.00000000000E+00 -0.87334300625E+01  0.87334315167E+01  0.50400000000E-02 0.  1.
    5000001    1    1    2    0    0  0.16566949058E+02 -0.39162391240E+02  0.34005860794E+03  0.35125064203E+03  0.77000000000E+02 0.  0.
   -5000001    1    1    2    0    0 -0.16566949058E+02  0.39162391240E+02  0.61338604281E+03  0.61966087032E+03  0.77000000000E+02 0.  0.
<mgrwt>
<rscale>  0 0.18333702E+03</rscale>
<asrwt>0</asrwt>
<pdfrwt beam="1">  1        1 0.13745403E+00 0.18333702E+03</pdfrwt>
<pdfrwt beam="2">  1       -1 0.12476328E-02 0.18333702E+03</pdfrwt>
<totfact> 0.25622663E+04</totfact>
</mgrwt>
</event>
<event>
 4    1  0.3352993E-004  0.3747746E+03  0.7818608E-02  0.1052882E+00
         -1   -1    0    0    0  501 -0.00000000000E+00  0.00000000000E+00  0.10989199152E+04  0.10989199152E+04  0.50400000000E-02 0. -1.
          1   -1    0    0  501    0  0.00000000000E+00 -0.00000000000E+00 -0.31953188330E+02  0.31953188728E+02  0.50400000000E-02 0.  1.
    5000001    1    1    2    0    0 -0.81847993630E+02  0.34775196115E+02  0.93339412604E+02  0.15016542302E+03  0.77000000000E+02 0.  0.
   -5000001    1    1    2    0    0  0.81847993630E+02 -0.34775196115E+02  0.97362731427E+03  0.98070768092E+03  0.77000000000E+02 0.  0.
<mgrwt>
<rscale>  0 0.37477457E+03</rscale>
<asrwt>0</asrwt>
<pdfrwt beam="1">  1        1 0.45647417E-02 0.37477457E+03</pdfrwt>
<pdfrwt beam="2">  1       -1 0.15698854E+00 0.37477457E+03</pdfrwt>
<totfact> 0.63412671E+02</totfact>
</mgrwt>
</event>
<event>
 4    1  0.3352993E-004  0.2026549E+03  0.7818608E-02  0.1147518E+00
          1   -1    0    0  501    0  0.00000000000E+00  0.00000000000E+00  0.19250734754E+02  0.19250735413E+02  0.50400000000E-02 0. -1.
         -1   -1    0    0    0  501 -0.00000000000E+00 -0.00000000000E+00 -0.53334352529E+03  0.53334352531E+03  0.50400000000E-02 0.  1.
    5000001    1    1    2    0    0 -0.65332132521E+02 -0.42354688215E+00 -0.23426713787E+03  0.25510499567E+03  0.77000000000E+02 0.  0.
   -5000001    1    1    2    0    0  0.65332132521E+02  0.42354688215E+00 -0.27982565267E+03  0.29748926505E+03  0.77000000000E+02 0.  0.
<mgrwt>
<rscale>  0 0.20265493E+03</rscale>
<asrwt>0</asrwt>
<pdfrwt beam="1">  1        1 0.27501053E-02 0.20265493E+03</pdfrwt>
<pdfrwt beam="2">  1       -1 0.76191923E-01 0.20265493E+03</pdfrwt>
<totfact> 0.68015899E+03</totfact>
</mgrwt>
</event>
<event>
 4    1  0.3352993E-004  0.2340740E+03  0.7818608E-02  0.1123805E+00
         -1   -1    0    0    0  501 -0.00000000000E+00  0.00000000000E+00  0.17620364727E+03  0.17620364735E+03  0.50400000000E-02 0.  1.
          1   -1    0    0  501    0  0.00000000000E+00 -0.00000000000E+00 -0.77737659336E+02  0.77737659499E+02  0.50400000000E-02 0. -1.
    5000001    1    1    2    0    0 -0.20600492585E+02 -0.77378270199E+02  0.89195364345E+02  0.14246610128E+03  0.77000000000E+02 0.  0.
   -5000001    1    1    2    0    0  0.20600492585E+02  0.77378270199E+02  0.92706235941E+01  0.11147520556E+03  0.77000000000E+02 0.  0.
<mgrwt>
<rscale>  0 0.23407400E+03</rscale>
<asrwt>0</asrwt>
<pdfrwt beam="1">  1        1 0.11105380E-01 0.23407400E+03</pdfrwt>
<pdfrwt beam="2">  1       -1 0.25171950E-01 0.23407400E+03</pdfrwt>
<totfact> 0.75272706E+03</totfact>
</mgrwt>
</event>
<event>
 4    1  0.3352993E-004  0.2186803E+03  0.7818608E-02  0.1134871E+00
         -1   -1    0    0    0  501 -0.00000000000E+00  0.00000000000E+00  0.13016852684E+03  0.13016852694E+03  0.50400000000E-02 0.  1.
          1   -1    0    0  501    0  0.00000000000E+00 -0.00000000000E+00 -0.91844498664E+02  0.91844498802E+02  0.50400000000E-02 0. -1.
    5000001    1    1    2    0    0  0.65425813875E+02 -0.35212598619E+02 -0.36707152186E+01  0.10706511277E+03  0.77000000000E+02 0.  0.
   -5000001    1    1    2    0    0 -0.65425813875E+02  0.35212598619E+02  0.41994743395E+02  0.11494791297E+03  0.77000000000E+02 0.  0.
<mgrwt>
<rscale>  0 0.21868025E+03</rscale>
<asrwt>0</asrwt>
<pdfrwt beam="1">  1        1 0.13120643E-01 0.21868025E+03</pdfrwt>
<pdfrwt beam="2">  1       -1 0.18595504E-01 0.21868025E+03</pdfrwt>
<totfact> 0.98587354E+03</totfact>
</mgrwt>
</event>
<event>
 4    1  0.3352993E-004  0.3086139E+03  0.7818608E-02  0.1081012E+00
          1   -1    0    0  501    0  0.00000000000E+00  0.00000000000E+00  0.41279277490E+03  0.41279277493E+03  0.50400000000E-02 0.  1.
         -1   -1    0    0    0  501 -0.00000000000E+00 -0.00000000000E+00 -0.57681813568E+02  0.57681813788E+02  0.50400000000E-02 0. -1.
    5000001    1    1    2    0    0  0.12461359649E+03 -0.24515776619E+02  0.11374446058E+03  0.18707317831E+03  0.77000000000E+02 0.  0.
   -5000001    1    1    2    0    0 -0.12461359649E+03  0.24515776619E+02  0.24136650075E+03  0.28340141040E+03  0.77000000000E+02 0.  0.
<mgrwt>
<rscale>  0 0.30861391E+03</rscale>
<asrwt>0</asrwt>
<pdfrwt beam="1">  1        1 0.58970393E-01 0.30861391E+03</pdfrwt>
<pdfrwt beam="2">  1       -1 0.82402596E-02 0.30861391E+03</pdfrwt>
<totfact> 0.52621800E+03</totfact>
</mgrwt>
</event>
<event>
 4    1  0.3352993E-004  0.2265355E+03  0.7818608E-02  0.1129102E+00
          1   -1    0    0  501    0  0.00000000000E+00  0.00000000000E+00  0.10075846769E+04  0.10075846769E+04  0.50400000000E-02 0.  1.
         -1   -1    0    0    0  501 -0.00000000000E+00 -0.00000000000E+00 -0.12733008532E+02  0.12733009529E+02  0.50400000000E-02 0. -1.
    5000001    1    1    2    0    0 -0.34329151049E+02  0.73989167523E+02  0.42653995388E+03  0.44104219728E+03  0.77000000000E+02 0.  0.
   -5000001    1    1    2    0    0  0.34329151049E+02 -0.73989167523E+02  0.56831171447E+03  0.57927548914E+03  0.77000000000E+02 0.  0.
<mgrwt>
<rscale>  0 0.22653551E+03</rscale>
<asrwt>0</asrwt>
<pdfrwt beam="1">  1        1 0.14394066E+00 0.22653551E+03</pdfrwt>
<pdfrwt beam="2">  1       -1 0.18190014E-02 0.22653551E+03</pdfrwt>
<totfact> 0.13952902E+04</totfact>
</mgrwt>
</event>
<event>
 4    1  0.3352993E-004  0.1696272E+03  0.7818608E-02  0.1178237E+00
          1   -1    0    0  501    0  0.00000000000E+00  0.00000000000E+00  0.15205611452E+03  0.15205611460E+03  0.50400000000E-02 0.  1.
         -1   -1    0    0    0  501 -0.00000000000E+00 -0.00000000000E+00 -0.47307191167E+02  0.47307191435E+02  0.50400000000E-02 0. -1.
    5000001    1    1    2    0    0 -0.59420349203E+01 -0.34977894521E+02  0.49596460791E+02  0.98222043387E+02  0.77000000000E+02 0.  0.
   -5000001    1    1    2    0    0  0.59420349203E+01  0.34977894521E+02  0.55152462563E+02  0.10114126265E+03  0.77000000000E+02 0.  0.
<mgrwt>
<rscale>  0 0.16962721E+03</rscale>
<asrwt>0</asrwt>
<pdfrwt beam="1">  1        1 0.21722302E-01 0.16962721E+03</pdfrwt>
<pdfrwt beam="2">  1       -1 0.67581703E-02 0.16962721E+03</pdfrwt>
<totfact> 0.24169807E+04</totfact>
</mgrwt>
</event>
<event>
 4    1  0.3352993E-004  0.4014248E+03  0.7818608E-02  0.1043287E+00
          1   -1    0    0  501    0  0.00000000000E+00  0.00000000000E+00  0.21880580508E+04  0.21880580508E+04  0.50400000000E-02 0.  1.
         -1   -1    0    0    0  501 -0.00000000000E+00 -0.00000000000E+00 -0.18411513147E+02  0.18411513837E+02  0.50400000000E-02 0. -1.
    5000001    1    1    2    0    0 -0.15635614089E+03 -0.77305476762E+02  0.14295382950E+04  0.14421969756E+04  0.77000000000E+02 0.  0.
   -5000001    1    1    2    0    0  0.15635614089E+03  0.77305476762E+02  0.74010824262E+03  0.76427258902E+03  0.77000000000E+02 0.  0.
<mgrwt>
<rscale>  0 0.40142476E+03</rscale>
<asrwt>0</asrwt>
<pdfrwt beam="1">  1        1 0.31257942E+00 0.40142476E+03</pdfrwt>
<pdfrwt beam="2">  1       -1 0.26302188E-02 0.40142476E+03</pdfrwt>
<totfact> 0.14624079E+03</totfact>
</mgrwt>
</event>
<event>
 4    1  0.3352993E-004  0.1606436E+03  0.7818608E-02  0.1187972E+00
          1   -1    0    0  501    0  0.00000000000E+00  0.00000000000E+00  0.27098146672E+03  0.27098146677E+03  0.50400000000E-02 0. -1.
         -1   -1    0    0    0  501 -0.00000000000E+00 -0.00000000000E+00 -0.23808233199E+02  0.23808233733E+02  0.50400000000E-02 0.  1.
    5000001    1    1    2    0    0 -0.22103011031E+02  0.28857823762E+01  0.11428030350E+03  0.13959175694E+03  0.77000000000E+02 0.  0.
   -5000001    1    1    2    0    0  0.22103011031E+02 -0.28857823762E+01  0.13289293002E+03  0.15519794356E+03  0.77000000000E+02 0.  0.
<mgrwt>
<rscale>  0 0.16064358E+03</rscale>
<asrwt>0</asrwt>
<pdfrwt beam="1">  1        1 0.38711637E-01 0.16064358E+03</pdfrwt>
<pdfrwt beam="2">  1       -1 0.34011763E-02 0.16064358E+03</pdfrwt>
<totfact> 0.32282929E+04</totfact>
</mgrwt>
</event>
<event>
 4    1  0.3352993E-004  0.2224478E+03  0.7818608E-02  0.1132071E+00
         -1   -1    0    0    0  501 -0.00000000000E+00  0.00000000000E+00  0.23705636543E+02  0.23705637079E+02  0.50400000000E-02 0.  1.
          1   -1    0    0  501    0  0.00000000000E+00 -0.00000000000E+00 -0.52184865929E+03  0.52184865931E+03  0.50400000000E-02 0. -1.
    5000001    1    1    2    0    0 -0.64177234075E+02 -0.18488295108E+02 -0.35823471628E+03  0.37245354929E+03  0.77000000000E+02 0.  0.
   -5000001    1    1    2    0    0  0.64177234075E+02  0.18488295108E+02 -0.13990830646E+03  0.17310074710E+03  0.77000000000E+02 0.  0.
<mgrwt>
<rscale>  0 0.22244779E+03</rscale>
<asrwt>0</asrwt>
<pdfrwt beam="1">  1        1 0.74549802E-01 0.22244779E+03</pdfrwt>
<pdfrwt beam="2">  1       -1 0.33865199E-02 0.22244779E+03</pdfrwt>
<totfact> 0.14560524E+04</totfact>
</mgrwt>
</event>
<event>
 4    1  0.3352993E-004  0.5562206E+03  0.7818608E-02  0.1000064E+00
          1   -1    0    0  501    0  0.00000000000E+00  0.00000000000E+00  0.87854495904E+03  0.87854495905E+03  0.50400000000E-02 0.  1.
         -1   -1    0    0    0  501 -0.00000000000E+00 -0.00000000000E+00 -0.88038007574E+02  0.88038007719E+02  0.50400000000E-02 0. -1.
    5000001    1    1    2    0    0 -0.12880224970E+03 -0.21729758232E+03  0.24367768710E+03  0.35932725196E+03  0.77000000000E+02 0.  0.
   -5000001    1    1    2    0    0  0.12880224970E+03  0.21729758232E+03  0.54682926436E+03  0.60725571481E+03  0.77000000000E+02 0.  0.
<mgrwt>
<rscale>  0 0.55622063E+03</rscale>
<asrwt>0</asrwt>
<pdfrwt beam="1">  1        1 0.12550642E+00 0.55622063E+03</pdfrwt>
<pdfrwt beam="2">  1       -1 0.12576858E-01 0.55622063E+03</pdfrwt>
<totfact> 0.94598383E+02</totfact>
</mgrwt>
</event>
<event>
 4    1  0.3352993E-004  0.1572731E+03  0.7818608E-02  0.1191810E+00
          1   -1    0    0  501    0  0.00000000000E+00  0.00000000000E+00  0.31689989252E+02  0.31689989652E+02  0.50400000000E-02 0. -1.
         -1   -1    0    0    0  501 -0.00000000000E+00 -0.00000000000E+00 -0.19513120016E+03  0.19513120022E+03  0.50400000000E-02 0.  1.
    5000001    1    1    2    0    0 -0.80376862890E+01  0.13771011754E+02 -0.80741893629E+02  0.11270536168E+03  0.77000000000E+02 0.  0.
   -5000001    1    1    2    0    0  0.80376862890E+01 -0.13771011754E+02 -0.82699317278E+02  0.11411582819E+03  0.77000000000E+02 0.  0.
<mgrwt>
<rscale>  0 0.15727308E+03</rscale>
<asrwt>0</asrwt>
<pdfrwt beam="1">  1        1 0.45271414E-02 0.15727308E+03</pdfrwt>
<pdfrwt beam="2">  1       -1 0.27875885E-01 0.15727308E+03</pdfrwt>
<totfact> 0.20833671E+04</totfact>
</mgrwt>
</event>
<event>
 4    1  0.3352993E-004  0.5079985E+03  0.7818608E-02  0.1011712E+00
          1   -1    0    0  501    0  0.00000000000E+00  0.00000000000E+00  0.76383611464E+02  0.76383611631E+02  0.50400000000E-02 0.  1.
         -1   -1    0    0    0  501 -0.00000000000E+00 -0.00000000000E+00 -0.84462634918E+03  0.84462634919E+03  0.50400000000E-02 0. -1.
    5000001    1    1    2    0    0 -0.16777092853E+03 -0.15868239942E+03 -0.25263795867E+03  0.35083062367E+03  0.77000000000E+02 0.  0.
   -5000001    1    1    2    0    0  0.16777092853E+03  0.15868239942E+03 -0.51560477904E+03  0.57017933715E+03  0.77000000000E+02 0.  0.
<mgrwt>
<rscale>  0 0.50799847E+03</rscale>
<asrwt>0</asrwt>
<pdfrwt beam="1">  1        1 0.10911945E-01 0.50799847E+03</pdfrwt>
<pdfrwt beam="2">  1       -1 0.12066090E+00 0.50799847E+03</pdfrwt>
<totfact> 0.37028967E+02</totfact>
</mgrwt>
</event>
<event>
 4    1  0.3352993E-004  0.2896081E+03  0.7818608E-02  0.1090554E+00
         -1   -1    0    0    0  501 -0.00000000000E+00  0.00000000000E+00  0.17923728016E+03  0.17923728023E+03  0.50400000000E-02 0. -1.
          1   -1    0    0  501    0  0.00000000000E+00 -0.00000000000E+00 -0.11698575403E+03  0.11698575414E+03  0.50400000000E-02 0.  1.
    5000001    1    1    2    0    0  0.81990520047E+02  0.84058643493E+02 -0.50502550179E+01  0.14050909579E+03  0.77000000000E+02 0.  0.
   -5000001    1    1    2    0    0 -0.81990520047E+02 -0.84058643493E+02  0.67301781140E+02  0.15571393858E+03  0.77000000000E+02 0.  0.
<mgrwt>
<rscale>  0 0.28960807E+03</rscale>
<asrwt>0</asrwt>
<pdfrwt beam="1">  1        1 0.16712250E-01 0.28960807E+03</pdfrwt>
<pdfrwt beam="2">  1       -1 0.25605326E-01 0.28960807E+03</pdfrwt>
<totfact> 0.43041594E+03</totfact>
</mgrwt>
</event>
<event>
 4    1  0.3352993E-004  0.2965805E+03  0.7818608E-02  0.1086963E+00
          1   -1    0    0  501    0  0.00000000000E+00  0.00000000000E+00  0.24897911490E+03  0.24897911495E+03  0.50400000000E-02 0.  1.
         -1   -1    0    0    0  501 -0.00000000000E+00 -0.00000000000E+00 -0.88320632102E+02  0.88320632246E+02  0.50400000000E-02 0. -1.
    5000001    1    1    2    0    0  0.99088157055E+02  0.78639143589E+02  0.89021565632E+02  0.17279009497E+03  0.77000000000E+02 0.  0.
   -5000001    1    1    2    0    0 -0.99088157055E+02 -0.78639143589E+02  0.71636917162E+02  0.16450965222E+03  0.77000000000E+02 0.  0.
<mgrwt>
<rscale>  0 0.29658046E+03</rscale>
<asrwt>0</asrwt>
<pdfrwt beam="1">  1        1 0.35568445E-01 0.29658046E+03</pdfrwt>
<pdfrwt beam="2">  1       -1 0.12617233E-01 0.29658046E+03</pdfrwt>
<totfact> 0.51438228E+03</totfact>
</mgrwt>
</event>
<event>
 4    1  0.3352993E-004  0.2268358E+03  0.7818608E-02  0.1128887E+00
          1   -1    0    0  501    0  0.00000000000E+00  0.00000000000E+00  0.67375863464E+03  0.67375863466E+03  0.50400000000E-02 0.  1.
         -1   -1    0    0    0  501 -0.00000000000E+00 -0.00000000000E+00 -0.19092326524E+02  0.19092327189E+02  0.50400000000E-02 0. -1.
    5000001    1    1    2    0    0 -0.72230215333E+02  0.14391387022E+02  0.20863050232E+03  0.23426481282E+03  0.77000000000E+02 0.  0.
   -5000001    1    1    2    0    0  0.72230215333E+02 -0.14391387022E+02  0.44603580580E+03  0.45858614903E+03  0.77000000000E+02 0.  0.
<mgrwt>
<rscale>  0 0.22683580E+03</rscale>
<asrwt>0</asrwt>
<pdfrwt beam="1">  1        1 0.96251227E-01 0.22683580E+03</pdfrwt>
<pdfrwt beam="2">  1       -1 0.27274755E-02 0.22683580E+03</pdfrwt>
<totfact> 0.14183485E+04</totfact>
</mgrwt>
</event>
<event>
 4    1  0.3352993E-004  0.2889956E+03  0.7818608E-02  0.1090875E+00
          1   -1    0    0  501    0  0.00000000000E+00  0.00000000000E+00  0.92974452040E+03  0.92974452042E+03  0.50400000000E-02 0.  1.
         -1   -1    0    0    0  501 -0.00000000000E+00 -0.00000000000E+00 -0.22457362934E+02  0.22457363500E+02  0.50400000000E-02 0. -1.
    5000001    1    1    2    0    0  0.45548185179E+02  0.10484737398E+03  0.31066757073E+03  0.33986901669E+03  0.77000000000E+02 0.  0.
   -5000001    1    1    2    0    0 -0.45548185179E+02 -0.10484737398E+03  0.59661958674E+03  0.61233286723E+03  0.77000000000E+02 0.  0.
<mgrwt>
<rscale>  0 0.28899557E+03</rscale>
<asrwt>0</asrwt>
<pdfrwt beam="1">  1        1 0.13282064E+00 0.28899557E+03</pdfrwt>
<pdfrwt beam="2">  1       -1 0.32081948E-02 0.28899557E+03</pdfrwt>
<totfact> 0.69796244E+03</totfact>
</mgrwt>
</event>
<event>
 4    1  0.3352993E-004  0.2174490E+03  0.7818608E-02  0.1135799E+00
         -1   -1    0    0    0  501 -0.00000000000E+00  0.00000000000E+00  0.94555686390E+01  0.94555699822E+01  0.50400000000E-02 0.  1.
          1   -1    0    0  501    0  0.00000000000E+00 -0.00000000000E+00 -0.12501640296E+04  0.12501640296E+04  0.50400000000E-02 0. -1.
    5000001    1    1    2    0    0 -0.62119507793E+02  0.30693046243E+02 -0.42900901978E+03  0.44133732607E+03  0.77000000000E+02 0.  0.
   -5000001    1    1    2    0    0  0.62119507793E+02 -0.30693046243E+02 -0.81169944118E+03  0.81828227352E+03  0.77000000000E+02 0.  0.
<mgrwt>
<rscale>  0 0.21744896E+03</rscale>
<asrwt>0</asrwt>
<pdfrwt beam="1">  1        1 0.17859476E+00 0.21744896E+03</pdfrwt>
<pdfrwt beam="2">  1       -1 0.13507964E-02 0.21744896E+03</pdfrwt>
<totfact> 0.14672087E+04</totfact>
</mgrwt>
</event>
<event>
 4    1  0.3352993E-004  0.2039776E+03  0.7818608E-02  0.1146426E+00
          1   -1    0    0  501    0  0.00000000000E+00  0.00000000000E+00  0.28461380788E+03  0.28461380793E+03  0.50400000000E-02 0.  1.
         -1   -1    0    0    0  501 -0.00000000000E+00 -0.00000000000E+00 -0.36546780872E+02  0.36546781219E+02  0.50400000000E-02 0. -1.
    5000001    1    1    2    0    0 -0.22425944917E+02 -0.29514328880E+02  0.36388046039E+02  0.92882229243E+02  0.77000000000E+02 0.  0.
   -5000001    1    1    2    0    0  0.22425944917E+02  0.29514328880E+02  0.21167898097E+03  0.22827835991E+03  0.77000000000E+02 0.  0.
<mgrwt>
<rscale>  0 0.20397763E+03</rscale>
<asrwt>0</asrwt>
<pdfrwt beam="1">  1        1 0.40659116E-01 0.20397763E+03</pdfrwt>
<pdfrwt beam="2">  1       -1 0.52209686E-02 0.20397763E+03</pdfrwt>
<totfact> 0.16439886E+04</totfact>
</mgrwt>
</event>
<event>
 4    1  0.3352993E-004  0.2093142E+03  0.7818608E-02  0.1142110E+00
          1   -1    0    0  501    0  0.00000000000E+00  0.00000000000E+00  0.11253572265E+03  0.11253572276E+03  0.50400000000E-02 0. -1.
         -1   -1    0    0    0  501 -0.00000000000E+00 -0.00000000000E+00 -0.97330049250E+02  0.97330049380E+02  0.50400000000E-02 0.  1.
    5000001    1    1    2    0    0 -0.57124574861E+02  0.41622875349E+02  0.22571220931E+01  0.10454556617E+03  0.77000000000E+02 0.  0.
   -5000001    1    1    2    0    0  0.57124574861E+02 -0.41622875349E+02  0.12948551307E+02  0.10532020597E+03  0.77000000000E+02 0.  0.
<mgrwt>
<rscale>  0 0.20931419E+03</rscale>
<asrwt>0</asrwt>
<pdfrwt beam="1">  1        1 0.16076532E-01 0.20931419E+03</pdfrwt>
<pdfrwt beam="2">  1       -1 0.13904293E-01 0.20931419E+03</pdfrwt>
<totfact> 0.11960521E+04</totfact>
</mgrwt>
</event>
<event>
 4    1  0.3352993E-004  0.2787240E+03  0.7818608E-02  0.1096388E+00
         -1   -1    0    0    0  501 -0.00000000000E+00  0.00000000000E+00  0.59144279370E+02  0.59144279584E+02  0.50400000000E-02 0.  1.
          1   -1    0    0  501    0  0.00000000000E+00 -0.00000000000E+00 -0.32837938044E+03  0.32837938048E+03  0.50400000000E-02 0. -1.
    5000001    1    1    2    0    0 -0.83703510909E+02 -0.71600349154E+02 -0.18588872557E+03  0.22938288086E+03  0.77000000000E+02 0.  0.
   -5000001    1    1    2    0    0  0.83703510909E+02  0.71600349154E+02 -0.83346375496E+02  0.15814077920E+03  0.77000000000E+02 0.  0.
<mgrwt>
<rscale>  0 0.27872396E+03</rscale>
<asrwt>0</asrwt>
<pdfrwt beam="1">  1        1 0.46911339E-01 0.27872396E+03</pdfrwt>
<pdfrwt beam="2">  1       -1 0.84491830E-02 0.27872396E+03</pdfrwt>
<totfact> 0.67489682E+03</totfact>
</mgrwt>
</event>
<event>
 4    1  0.3352993E-004  0.3119862E+03  0.7818608E-02  0.1079398E+00
         -1   -1    0    0    0  501 -0.00000000000E+00  0.00000000000E+00  0.31462592285E+02  0.31462592689E+02  0.50400000000E-02 0. -1.
          1   -1    0    0  501    0  0.00000000000E+00 -0.00000000000E+00 -0.77342179094E+03  0.77342179096E+03  0.50400000000E-02 0.  1.
    5000001    1    1    2    0    0  0.13225574856E+03  0.26694334696E+02 -0.33443236270E+03  0.36875218745E+03  0.77000000000E+02 0.  0.
   -5000001    1    1    2    0    0 -0.13225574856E+03 -0.26694334696E+02 -0.40752683596E+03  0.43613219620E+03  0.77000000000E+02 0.  0.
<mgrwt>
<rscale>  0 0.31198625E+03</rscale>
<asrwt>0</asrwt>
<pdfrwt beam="1">  1        1 0.11048882E+00 0.31198625E+03</pdfrwt>
<pdfrwt beam="2">  1       -1 0.44946565E-02 0.31198625E+03</pdfrwt>
<totfact> 0.56157296E+03</totfact>
</mgrwt>
</event>
<event>
 4    1  0.3352993E-004  0.2543446E+03  0.7818608E-02  0.1110590E+00
         -1   -1    0    0    0  501 -0.00000000000E+00  0.00000000000E+00  0.73149817785E+02  0.73149817959E+02  0.50400000000E-02 0. -1.
          1   -1    0    0  501    0  0.00000000000E+00 -0.00000000000E+00 -0.22109137456E+03  0.22109137462E+03  0.50400000000E-02 0.  1.
    5000001    1    1    2    0    0  0.58840839695E+02  0.80489007196E+02 -0.53831134705E+02  0.13699458296E+03  0.77000000000E+02 0.  0.
   -5000001    1    1    2    0    0 -0.58840839695E+02 -0.80489007196E+02 -0.94110422073E+02  0.15724660962E+03  0.77000000000E+02 0.  0.
<mgrwt>
<rscale>  0 0.25434460E+03</rscale>
<asrwt>0</asrwt>
<pdfrwt beam="1">  1        1 0.31584482E-01 0.25434460E+03</pdfrwt>
<pdfrwt beam="2">  1       -1 0.10449974E-01 0.25434460E+03</pdfrwt>
<totfact> 0.79661146E+03</totfact>
</mgrwt>
</event>
<event>
 4    1  0.3352993E-004  0.1915857E+03  0.7818608E-02  0.1157039E+00
         -1   -1    0    0    0  501 -0.00000000000E+00  0.00000000000E+00  0.53544599983E+01  0.53544623703E+01  0.50400000000E-02 0.  1.
          1   -1    0    0  501    0  0.00000000000E+00 -0.00000000000E+00 -0.17137611797E+04  0.17137611797E+04  0.50400000000E-02 0. -1.
    5000001    1    1    2    0    0 -0.57094388889E+01 -0.56560547915E+02 -0.88961520048E+03  0.89474906996E+03  0.77000000000E+02 0.  0.
   -5000001    1    1    2    0    0  0.57094388889E+01  0.56560547915E+02 -0.81879151925E+03  0.82436657215E+03  0.77000000000E+02 0.  0.
<mgrwt>
<rscale>  0 0.19158568E+03</rscale>
<asrwt>0</asrwt>
<pdfrwt beam="1">  1        1 0.24482268E+00 0.19158568E+03</pdfrwt>
<pdfrwt beam="2">  1       -1 0.76492412E-03 0.19158568E+03</pdfrwt>
<totfact> 0.16992253E+04</totfact>
</mgrwt>
</event>
<event>
 4    1  0.3352993E-004  0.2316989E+03  0.7818608E-02  0.1125450E+00
         -1   -1    0    0    0  501 -0.00000000000E+00  0.00000000000E+00  0.67030332258E+02  0.67030332447E+02  0.50400000000E-02 0. -1.
          1   -1    0    0  501    0  0.00000000000E+00 -0.00000000000E+00 -0.20022424700E+03  0.20022424707E+03  0.50400000000E-02 0.  1.
    5000001    1    1    2    0    0  0.72019433843E+02 -0.32222754745E+02 -0.25539858613E+02  0.11316531780E+03  0.77000000000E+02 0.  0.
   -5000001    1    1    2    0    0 -0.72019433843E+02  0.32222754745E+02 -0.10765405613E+03  0.15408926171E+03  0.77000000000E+02 0.  0.
<mgrwt>
<rscale>  0 0.23169892E+03</rscale>
<asrwt>0</asrwt>
<pdfrwt beam="1">  1        1 0.28603464E-01 0.23169892E+03</pdfrwt>
<pdfrwt beam="2">  1       -1 0.95757619E-02 0.23169892E+03</pdfrwt>
<totfact> 0.10279384E+04</totfact>
</mgrwt>
</event>
<event>
 4    1  0.3352993E-004  0.1780664E+03  0.7818608E-02  0.1169688E+00
         -1   -1    0    0    0  501 -0.00000000000E+00  0.00000000000E+00  0.84551757608E+01  0.84551772629E+01  0.50400000000E-02 0. -1.
          1   -1    0    0  501    0  0.00000000000E+00 -0.00000000000E+00 -0.93752161049E+03  0.93752161051E+03  0.50400000000E-02 0.  1.
    5000001    1    1    2    0    0  0.82163094227E+01  0.37631215146E+02 -0.58501031354E+03  0.59131183232E+03  0.77000000000E+02 0.  0.
   -5000001    1    1    2    0    0 -0.82163094227E+01 -0.37631215146E+02 -0.34405612119E+03  0.35466495545E+03  0.77000000000E+02 0.  0.
<mgrwt>
<rscale>  0 0.17806640E+03</rscale>
<asrwt>0</asrwt>
<pdfrwt beam="1">  1        1 0.13393159E+00 0.17806640E+03</pdfrwt>
<pdfrwt beam="2">  1       -1 0.12078830E-02 0.17806640E+03</pdfrwt>
<totfact> 0.27916150E+04</totfact>
</mgrwt>
</event>
<event>
 4    1  0.3352993E-004  0.2547283E+03  0.7818608E-02  0.1110353E+00
         -1   -1    0    0    0  501 -0.00000000000E+00  0.00000000000E+00  0.67178028654E+02  0.67178028844E+02  0.50400000000E-02 0. -1.
          1   -1    0    0  501    0  0.00000000000E+00 -0.00000000000E+00 -0.24147222638E+03  0.24147222643E+03  0.50400000000E-02 0.  1.
    5000001    1    1    2    0    0 -0.82900047534E+01  0.90724595956E+02 -0.33054504771E+02  0.12377914516E+03  0.77000000000E+02 0.  0.
   -5000001    1    1    2    0    0  0.82900047534E+01 -0.90724595956E+02 -0.14123969295E+03  0.18487111011E+03  0.77000000000E+02 0.  0.
<mgrwt>
<rscale>  0 0.25472831E+03</rscale>
<asrwt>0</asrwt>
<pdfrwt beam="1">  1        1 0.34496032E-01 0.25472831E+03</pdfrwt>
<pdfrwt beam="2">  1       -1 0.95968614E-02 0.25472831E+03</pdfrwt>
<totfact> 0.81329714E+03</totfact>
</mgrwt>
</event>
<event>
 4    1  0.3352993E-004  0.1940810E+03  0.7818608E-02  0.1154831E+00
         -1   -1    0    0    0  501 -0.00000000000E+00  0.00000000000E+00  0.74048535836E+01  0.74048552988E+01  0.50400000000E-02 0.  1.
          1   -1    0    0  501    0  0.00000000000E+00 -0.00000000000E+00 -0.12717141075E+04  0.12717141075E+04  0.50400000000E-02 0. -1.
    5000001    1    1    2    0    0 -0.80892052365E+00 -0.40620424276E+02 -0.91464544606E+03  0.91877960644E+03  0.77000000000E+02 0.  0.
   -5000001    1    1    2    0    0  0.80892052365E+00  0.40620424276E+02 -0.34966380789E+03  0.36033935640E+03  0.77000000000E+02 0.  0.
<mgrwt>
<rscale>  0 0.19408099E+03</rscale>
<asrwt>0</asrwt>
<pdfrwt beam="1">  1        1 0.18167330E+00 0.19408099E+03</pdfrwt>
<pdfrwt beam="2">  1       -1 0.10578372E-02 0.19408099E+03</pdfrwt>
<totfact> 0.20089286E+04</totfact>
</mgrwt>
</event>
<event>
 4    1  0.3352993E-004  0.2239746E+03  0.7818608E-02  0.1130954E+00
          1   -1    0    0  501    0  0.00000000000E+00  0.00000000000E+00  0.21732393668E+03  0.21732393674E+03  0.50400000000E-02 0.  1.
         -1   -1    0    0    0  501 -0.00000000000E+00 -0.00000000000E+00 -0.57707182534E+02  0.57707182754E+02  0.50400000000E-02 0. -1.
    5000001    1    1    2    0    0 -0.58020126377E+01  0.78622102412E+02  0.10427690219E+03  0.15171608573E+03  0.77000000000E+02 0.  0.
   -5000001    1    1    2    0    0  0.58020126377E+01 -0.78622102412E+02  0.55339851959E+02  0.12331503377E+03  0.77000000000E+02 0.  0.
<mgrwt>
<rscale>  0 0.22397457E+03</rscale>
<asrwt>0</asrwt>
<pdfrwt beam="1">  1        1 0.31046278E-01 0.22397457E+03</pdfrwt>
<pdfrwt beam="2">  1       -1 0.82438830E-02 0.22397457E+03</pdfrwt>
<totfact> 0.11638730E+04</totfact>
</mgrwt>
</event>
<event>
 4    1  0.3352993E-004  0.2037982E+03  0.7818608E-02  0.1146573E+00
          1   -1    0    0  501    0  0.00000000000E+00  0.00000000000E+00  0.34965653823E+03  0.34965653826E+03  0.50400000000E-02 0. -1.
         -1   -1    0    0    0  501 -0.00000000000E+00 -0.00000000000E+00 -0.29696076559E+02  0.29696076987E+02  0.50400000000E-02 0.  1.
    5000001    1    1    2    0    0  0.40481834013E+02  0.31751969208E+02  0.80843667429E+02  0.12292951231E+03  0.77000000000E+02 0.  0.
   -5000001    1    1    2    0    0 -0.40481834013E+02 -0.31751969208E+02  0.23911679424E+03  0.25642310294E+03  0.77000000000E+02 0.  0.
<mgrwt>
<rscale>  0 0.20379821E+03</rscale>
<asrwt>0</asrwt>
<pdfrwt beam="1">  1        1 0.49950930E-01 0.20379821E+03</pdfrwt>
<pdfrwt beam="2">  1       -1 0.42422970E-02 0.20379821E+03</pdfrwt>
<totfact> 0.17309821E+04</totfact>
</mgrwt>
</event>
<event>
 4    1  0.3352993E-004  0.2344556E+03  0.7818608E-02  0.1123542E+00
          1   -1    0    0  501    0  0.00000000000E+00  0.00000000000E+00  0.92635603071E+03  0.92635603072E+03  0.50400000000E-02 0.  1.
         -1   -1    0    0    0  501 -0.00000000000E+00 -0.00000000000E+00 -0.14834859084E+02  0.14834859940E+02  0.50400000000E-02 0. -1.
    5000001    1    1    2    0    0  0.74900911994E+02 -0.46897362190E+02  0.46363978498E+03  0.47822626382E+03  0.77000000000E+02 0.  0.
   -5000001    1    1    2    0    0 -0.74900911994E+02  0.46897362190E+02  0.44788138665E+03  0.46296462684E+03  0.77000000000E+02 0.  0.
<mgrwt>
<rscale>  0 0.23445564E+03</rscale>
<asrwt>0</asrwt>
<pdfrwt beam="1">  1        1 0.13233656E+00 0.23445564E+03</pdfrwt>
<pdfrwt beam="2">  1       -1 0.21192659E-02 0.23445564E+03</pdfrwt>
<totfact> 0.12816286E+04</totfact>
</mgrwt>
</event>
<event>
 4    1  0.3352993E-004  0.2426712E+03  0.7818608E-02  0.1118026E+00
          1   -1    0    0  501    0  0.00000000000E+00  0.00000000000E+00  0.24659596942E+02  0.24659597457E+02  0.50400000000E-02 0.  1.
         -1   -1    0    0    0  501 -0.00000000000E+00 -0.00000000000E+00 -0.59702239919E+03  0.59702239921E+03  0.50400000000E-02 0. -1.
    5000001    1    1    2    0    0  0.57093602661E+02  0.74355034936E+02 -0.28046375248E+03  0.30557694144E+03  0.77000000000E+02 0.  0.
   -5000001    1    1    2    0    0 -0.57093602661E+02 -0.74355034936E+02 -0.29189904977E+03  0.31610505523E+03  0.77000000000E+02 0.  0.
<mgrwt>
<rscale>  0 0.24267123E+03</rscale>
<asrwt>0</asrwt>
<pdfrwt beam="1">  1        1 0.35228000E-02 0.24267123E+03</pdfrwt>
<pdfrwt beam="2">  1       -1 0.85288905E-01 0.24267123E+03</pdfrwt>
<totfact> 0.38441434E+03</totfact>
</mgrwt>
</event>
<event>
 4    1  0.3352993E-004  0.1917183E+03  0.7818608E-02  0.1156921E+00
          1   -1    0    0  501    0  0.00000000000E+00  0.00000000000E+00  0.19576076255E+04  0.19576076255E+04  0.50400000000E-02 0. -1.
         -1   -1    0    0    0  501 -0.00000000000E+00 -0.00000000000E+00 -0.46939823299E+01  0.46939850356E+01  0.50400000000E-02 0.  1.
    5000001    1    1    2    0    0 -0.32906948003E+02  0.27396746968E+01  0.49970483539E+03  0.50667967746E+03  0.77000000000E+02 0.  0.
   -5000001    1    1    2    0    0  0.32906948003E+02 -0.27396746968E+01  0.14532088078E+04  0.14556219331E+04  0.77000000000E+02 0.  0.
<mgrwt>
<rscale>  0 0.19171832E+03</rscale>
<asrwt>0</asrwt>
<pdfrwt beam="1">  1        1 0.27965838E+00 0.19171832E+03</pdfrwt>
<pdfrwt beam="2">  1       -1 0.67056874E-03 0.19171832E+03</pdfrwt>
<totfact> 0.14648476E+04</totfact>
</mgrwt>
</event>
<event>
 4    1  0.3352993E-004  0.1897810E+03  0.7818608E-02  0.1158659E+00
         -1   -1    0    0    0  501 -0.00000000000E+00  0.00000000000E+00  0.37915280686E+01  0.37915314183E+01  0.50400000000E-02 0. -1.
          1   -1    0    0  501    0  0.00000000000E+00 -0.00000000000E+00 -0.23748205998E+04  0.23748205998E+04  0.50400000000E-02 0.  1.
    5000001    1    1    2    0    0 -0.41923567530E+02 -0.30804767623E+02 -0.94485782200E+03  0.94941656980E+03  0.77000000000E+02 0.  0.
   -5000001    1    1    2    0    0  0.41923567530E+02  0.30804767623E+02 -0.14261712497E+04  0.14291955614E+04  0.77000000000E+02 0.  0.
<mgrwt>
<rscale>  0 0.18978096E+03</rscale>
<asrwt>0</asrwt>
<pdfrwt beam="1">  1        1 0.33925913E+00 0.18978096E+03</pdfrwt>
<pdfrwt beam="2">  1       -1 0.54164863E-03 0.18978096E+03</pdfrwt>
<totfact> 0.11187151E+04</totfact>
</mgrwt>
</event>
<event>
 4    1  0.3352993E-004  0.1872619E+03  0.7818608E-02  0.1160954E+00
          1   -1    0    0  501    0  0.00000000000E+00  0.00000000000E+00  0.31957770022E+02  0.31957770419E+02  0.50400000000E-02 0.  1.
         -1   -1    0    0    0  501 -0.00000000000E+00 -0.00000000000E+00 -0.27432309304E+03  0.27432309308E+03  0.50400000000E-02 0. -1.
    5000001    1    1    2    0    0 -0.18384249213E+02 -0.32311777781E+02 -0.58779040984E+02  0.10375937192E+03  0.77000000000E+02 0.  0.
   -5000001    1    1    2    0    0  0.18384249213E+02  0.32311777781E+02 -0.18358628203E+03  0.20252149158E+03  0.77000000000E+02 0.  0.
<mgrwt>
<rscale>  0 0.18726190E+03</rscale>
<asrwt>0</asrwt>
<pdfrwt beam="1">  1        1 0.45653959E-02 0.18726190E+03</pdfrwt>
<pdfrwt beam="2">  1       -1 0.39189012E-01 0.18726190E+03</pdfrwt>
<totfact> 0.11673664E+04</totfact>
</mgrwt>
</event>
<event>
 4    1  0.3352993E-004  0.2706394E+03  0.7818608E-02  0.1100914E+00
          1   -1    0    0  501    0  0.00000000000E+00  0.00000000000E+00  0.36184879004E+03  0.36184879008E+03  0.50400000000E-02 0.  1.
         -1   -1    0    0    0  501 -0.00000000000E+00 -0.00000000000E+00 -0.50605162877E+02  0.50605163128E+02  0.50400000000E-02 0. -1.
    5000001    1    1    2    0    0 -0.10316434210E+03 -0.15896587736E+02  0.96857218896E+02  0.16188237654E+03  0.77000000000E+02 0.  0.
   -5000001    1    1    2    0    0  0.10316434210E+03  0.15896587736E+02  0.21438640827E+03  0.25057157666E+03  0.77000000000E+02 0.  0.
<mgrwt>
<rscale>  0 0.27063937E+03</rscale>
<asrwt>0</asrwt>
<pdfrwt beam="1">  1        1 0.51692685E-01 0.27063937E+03</pdfrwt>
<pdfrwt beam="2">  1       -1 0.72293088E-02 0.27063937E+03</pdfrwt>
<totfact> 0.75668227E+03</totfact>
</mgrwt>
</event>
<event>
 4    1  0.3352993E-004  0.2542228E+03  0.7818608E-02  0.1110665E+00
         -1   -1    0    0    0  501 -0.00000000000E+00  0.00000000000E+00  0.42412197419E+01  0.42412227365E+01  0.50400000000E-02 0. -1.
          1   -1    0    0  501    0  0.00000000000E+00 -0.00000000000E+00 -0.38095896518E+04  0.38095896518E+04  0.50400000000E-02 0.  1.
    5000001    1    1    2    0    0  0.85362017386E+02 -0.22206908554E+02 -0.11603456136E+04  0.11662378676E+04  0.77000000000E+02 0.  0.
   -5000001    1    1    2    0    0 -0.85362017386E+02  0.22206908554E+02 -0.26450028185E+04  0.26475930070E+04  0.77000000000E+02 0.  0.
<mgrwt>
<rscale>  0 0.25422284E+03</rscale>
<asrwt>0</asrwt>
<pdfrwt beam="1">  1        1 0.54422490E+00 0.25422284E+03</pdfrwt>
<pdfrwt beam="2">  1       -1 0.60589119E-03 0.25422284E+03</pdfrwt>
<totfact> 0.11426080E+03</totfact>
</mgrwt>
</event>
<event>
 4    1  0.3352993E-004  0.2439995E+03  0.7818608E-02  0.1117157E+00
          1   -1    0    0  501    0  0.00000000000E+00  0.00000000000E+00  0.31084483566E+03  0.31084483570E+03  0.50400000000E-02 0.  1.
         -1   -1    0    0    0  501 -0.00000000000E+00 -0.00000000000E+00 -0.47882225746E+02  0.47882226012E+02  0.50400000000E-02 0. -1.
    5000001    1    1    2    0    0 -0.61012792770E+02 -0.62180448321E+02  0.18581838612E+03  0.21919498547E+03  0.77000000000E+02 0.  0.
   -5000001    1    1    2    0    0  0.61012792770E+02  0.62180448321E+02  0.77144223784E+02  0.13953207623E+03  0.77000000000E+02 0.  0.
<mgrwt>
<rscale>  0 0.24399953E+03</rscale>
<asrwt>0</asrwt>
<pdfrwt beam="1">  1        1 0.44406408E-01 0.24399953E+03</pdfrwt>
<pdfrwt beam="2">  1       -1 0.68403176E-02 0.24399953E+03</pdfrwt>
<totfact> 0.99168747E+03</totfact>
</mgrwt>
</event>
<event>
 4    1  0.3352993E-004  0.4112829E+03  0.7818608E-02  0.1039941E+00
          1   -1    0    0  501    0  0.00000000000E+00  0.00000000000E+00  0.29146535885E+03  0.29146535889E+03  0.50400000000E-02 0. -1.
         -1   -1    0    0    0  501 -0.00000000000E+00 -0.00000000000E+00 -0.14508895336E+03  0.14508895345E+03  0.50400000000E-02 0.  1.
    5000001    1    1    2    0    0  0.54375397694E+02 -0.11960794155E+03  0.21987004363E+03  0.26745949159E+03  0.77000000000E+02 0.  0.
   -5000001    1    1    2    0    0 -0.54375397694E+02  0.11960794155E+03 -0.73493638147E+02  0.16909482075E+03  0.77000000000E+02 0.  0.
<mgrwt>
<rscale>  0 0.41128289E+03</rscale>
<asrwt>0</asrwt>
<pdfrwt beam="1">  1        1 0.41637909E-01 0.41128289E+03</pdfrwt>
<pdfrwt beam="2">  1       -1 0.20726993E-01 0.41128289E+03</pdfrwt>
<totfact> 0.19100572E+03</totfact>
</mgrwt>
</event>
<event>
 4    1  0.3352993E-004  0.2177603E+03  0.7818608E-02  0.1135564E+00
          1   -1    0    0  501    0  0.00000000000E+00  0.00000000000E+00  0.23979255941E+03  0.23979255946E+03  0.50400000000E-02 0.  1.
         -1   -1    0    0    0  501 -0.00000000000E+00 -0.00000000000E+00 -0.49438103052E+02  0.49438103309E+02  0.50400000000E-02 0. -1.
    5000001    1    1    2    0    0  0.73761561954E+02  0.21985285097E+02  0.93410900691E+02  0.14345283947E+03  0.77000000000E+02 0.  0.
   -5000001    1    1    2    0    0 -0.73761561954E+02 -0.21985285097E+02  0.96943555667E+02  0.14577782331E+03  0.77000000000E+02 0.  0.
<mgrwt>
<rscale>  0 0.21776032E+03</rscale>
<asrwt>0</asrwt>
<pdfrwt beam="1">  1        1 0.34256080E-01 0.21776032E+03</pdfrwt>
<pdfrwt beam="2">  1       -1 0.70625862E-02 0.21776032E+03</pdfrwt>
<totfact> 0.12989576E+04</totfact>
</mgrwt>
</event>
<event>
 4    1  0.3352993E-004  0.3003021E+03  0.7818608E-02  0.1085090E+00
         -1   -1    0    0    0  501 -0.00000000000E+00  0.00000000000E+00  0.53983807668E+02  0.53983807903E+02  0.50400000000E-02 0. -1.
          1   -1    0    0  501    0  0.00000000000E+00 -0.00000000000E+00 -0.41763159125E+03  0.41763159128E+03  0.50400000000E-02 0.  1.
    5000001    1    1    2    0    0  0.94858216561E+02 -0.44826227896E+02 -0.29944013458E+03  0.32649788078E+03  0.77000000000E+02 0.  0.
   -5000001    1    1    2    0    0 -0.94858216561E+02  0.44826227896E+02 -0.64207648996E+02  0.14511751840E+03  0.77000000000E+02 0.  0.
<mgrwt>
<rscale>  0 0.30030214E+03</rscale>
<asrwt>0</asrwt>
<pdfrwt beam="1">  1        1 0.59661654E-01 0.30030214E+03</pdfrwt>
<pdfrwt beam="2">  1       -1 0.77119728E-02 0.30030214E+03</pdfrwt>
<totfact> 0.57332623E+03</totfact>
</mgrwt>
</event>
<event>
 4    1  0.3352993E-004  0.3269775E+03  0.7818608E-02  0.1072482E+00
         -1   -1    0    0    0  501 -0.00000000000E+00  0.00000000000E+00  0.68169663286E+02  0.68169663472E+02  0.50400000000E-02 0. -1.
          1   -1    0    0  501    0  0.00000000000E+00 -0.00000000000E+00 -0.39208903265E+03  0.39208903269E+03  0.50400000000E-02 0.  1.
    5000001    1    1    2    0    0 -0.91072844790E+02  0.11180664077E+03 -0.16497520579E+03  0.23225160172E+03  0.77000000000E+02 0.  0.
   -5000001    1    1    2    0    0  0.91072844790E+02 -0.11180664077E+03 -0.15894416358E+03  0.22800709444E+03  0.77000000000E+02 0.  0.
<mgrwt>
<rscale>  0 0.32697754E+03</rscale>
<asrwt>0</asrwt>
<pdfrwt beam="1">  1        1 0.56012717E-01 0.32697754E+03</pdfrwt>
<pdfrwt beam="2">  1       -1 0.97385236E-02 0.32697754E+03</pdfrwt>
<totfact> 0.43506853E+03</totfact>
</mgrwt>
</event>
<event>
 4    1  0.3352993E-004  0.3102171E+03  0.7818608E-02  0.1080242E+00
         -1   -1    0    0    0  501 -0.00000000000E+00  0.00000000000E+00  0.67381021364E+02  0.67381021553E+02  0.50400000000E-02 0. -1.
          1   -1    0    0  501    0  0.00000000000E+00 -0.00000000000E+00 -0.35705391865E+03  0.35705391869E+03  0.50400000000E-02 0.  1.
    5000001    1    1    2    0    0 -0.43234846570E+02  0.12722998607E+03 -0.13315174333E+03  0.20424276747E+03  0.77000000000E+02 0.  0.
   -5000001    1    1    2    0    0  0.43234846570E+02 -0.12722998607E+03 -0.15652115396E+03  0.22019217277E+03  0.77000000000E+02 0.  0.
<mgrwt>
<rscale>  0 0.31021707E+03</rscale>
<asrwt>0</asrwt>
<pdfrwt beam="1">  1        1 0.51007702E-01 0.31021707E+03</pdfrwt>
<pdfrwt beam="2">  1       -1 0.96258604E-02 0.31021707E+03</pdfrwt>
<totfact> 0.49839076E+03</totfact>
</mgrwt>
</event>
<event>
 4    1  0.3352993E-004  0.4253947E+03  0.7818608E-02  0.1035325E+00
          1   -1    0    0  501    0  0.00000000000E+00  0.00000000000E+00  0.24220635078E+03  0.24220635083E+03  0.50400000000E-02 0. -1.
         -1   -1    0    0    0  501 -0.00000000000E+00 -0.00000000000E+00 -0.18678357531E+03  0.18678357538E+03  0.50400000000E-02 0.  1.
    5000001    1    1    2    0    0  0.12881601821E+03  0.13472165858E+03  0.95867161833E+02  0.22330025650E+03  0.77000000000E+02 0.  0.
   -5000001    1    1    2    0    0 -0.12881601821E+03 -0.13472165858E+03 -0.40444386363E+02  0.20568966971E+03  0.77000000000E+02 0.  0.
<mgrwt>
<rscale>  0 0.42539473E+03</rscale>
<asrwt>0</asrwt>
<pdfrwt beam="1">  1        1 0.34600907E-01 0.42539473E+03</pdfrwt>
<pdfrwt beam="2">  1       -1 0.26683368E-01 0.42539473E+03</pdfrwt>
<totfact> 0.15853917E+03</totfact>
</mgrwt>
</event>
<event>
 4    1  0.3352993E-004  0.6435151E+03  0.7818608E-02  0.9819024E-01
          1   -1    0    0  501    0  0.00000000000E+00  0.00000000000E+00  0.17648124414E+04  0.17648124414E+04  0.50400000000E-02 0. -1.
         -1   -1    0    0    0  501 -0.00000000000E+00 -0.00000000000E+00 -0.58662277487E+02  0.58662277704E+02  0.50400000000E-02 0.  1.
    5000001    1    1    2    0    0 -0.96438071229E+02 -0.23714381743E+03  0.13604540105E+04  0.13864709180E+04  0.77000000000E+02 0.  0.
   -5000001    1    1    2    0    0  0.96438071229E+02  0.23714381743E+03  0.34569615348E+03  0.43700380120E+03  0.77000000000E+02 0.  0.
<mgrwt>
<rscale>  0 0.64351509E+03</rscale>
<asrwt>0</asrwt>
<pdfrwt beam="1">  1        1 0.25211601E+00 0.64351509E+03</pdfrwt>
<pdfrwt beam="2">  1       -1 0.83803272E-02 0.64351509E+03</pdfrwt>
<totfact> 0.44959996E+02</totfact>
</mgrwt>
</event>
<event>
 4    1  0.3352993E-004  0.2997838E+03  0.7818608E-02  0.1085349E+00
         -1   -1    0    0    0  501 -0.00000000000E+00  0.00000000000E+00  0.24606123932E+03  0.24606123937E+03  0.50400000000E-02 0. -1.
          1   -1    0    0  501    0  0.00000000000E+00 -0.00000000000E+00 -0.91308926354E+02  0.91308926493E+02  0.50400000000E-02 0.  1.
    5000001    1    1    2    0    0 -0.34316967257E+02 -0.12295890011E+03  0.59867853598E+02  0.16065399233E+03  0.77000000000E+02 0.  0.
   -5000001    1    1    2    0    0  0.34316967257E+02  0.12295890011E+03  0.94884459371E+02  0.17671617353E+03  0.77000000000E+02 0.  0.
<mgrwt>
<rscale>  0 0.29978384E+03</rscale>
<asrwt>0</asrwt>
<pdfrwt beam="1">  1        1 0.13044132E-01 0.29978384E+03</pdfrwt>
<pdfrwt beam="2">  1       -1 0.35151605E-01 0.29978384E+03</pdfrwt>
<totfact> 0.34778800E+03</totfact>
</mgrwt>
</event>
<event>
 4    1  0.3352993E-004  0.2124543E+03  0.7818608E-02  0.1139637E+00
         -1   -1    0    0    0  501 -0.00000000000E+00  0.00000000000E+00  0.84644494882E+01  0.84644509887E+01  0.50400000000E-02 0. -1.
          1   -1    0    0  501    0  0.00000000000E+00 -0.00000000000E+00 -0.13331299465E+04  0.13331299465E+04  0.50400000000E-02 0.  1.
    5000001    1    1    2    0    0  0.57109852235E+02 -0.44045836444E+02 -0.58406020790E+03  0.59351233970E+03  0.77000000000E+02 0.  0.
   -5000001    1    1    2    0    0 -0.57109852235E+02  0.44045836444E+02 -0.74060528907E+03  0.74808205775E+03  0.77000000000E+02 0.  0.
<mgrwt>
<rscale>  0 0.21245434E+03</rscale>
<asrwt>0</asrwt>
<pdfrwt beam="1">  1        1 0.19044700E+00 0.21245434E+03</pdfrwt>
<pdfrwt beam="2">  1       -1 0.12092080E-02 0.21245434E+03</pdfrwt>
<totfact> 0.15203263E+04</totfact>
</mgrwt>
</event>
<event>
 4    1  0.3352993E-004  0.3013289E+03  0.7818608E-02  0.1084578E+00
         -1   -1    0    0    0  501 -0.00000000000E+00  0.00000000000E+00  0.83010781076E+02  0.83010781229E+02  0.50400000000E-02 0.  1.
          1   -1    0    0  501    0  0.00000000000E+00 -0.00000000000E+00 -0.27345584752E+03  0.27345584756E+03  0.50400000000E-02 0. -1.
    5000001    1    1    2    0    0 -0.12590847499E+03  0.25541705790E+01 -0.59510675413E+02  0.15915397685E+03  0.77000000000E+02 0.  0.
   -5000001    1    1    2    0    0  0.12590847499E+03 -0.25541705790E+01 -0.13093439103E+03  0.19731265194E+03  0.77000000000E+02 0.  0.
<mgrwt>
<rscale>  0 0.30132895E+03</rscale>
<asrwt>0</asrwt>
<pdfrwt beam="1">  1        1 0.39065121E-01 0.30132895E+03</pdfrwt>
<pdfrwt beam="2">  1       -1 0.11858683E-01 0.30132895E+03</pdfrwt>
<totfact> 0.50398907E+03</totfact>
</mgrwt>
</event>
<event>
 4    1  0.3352993E-004  0.3129493E+03  0.7818608E-02  0.1078941E+00
          1   -1    0    0  501    0  0.00000000000E+00  0.00000000000E+00  0.11747260514E+04  0.11747260514E+04  0.50400000000E-02 0.  1.
         -1   -1    0    0    0  501 -0.00000000000E+00 -0.00000000000E+00 -0.20842573363E+02  0.20842573972E+02  0.50400000000E-02 0. -1.
    5000001    1    1    2    0    0 -0.51520738351E+02 -0.12278262940E+03  0.46718767847E+03  0.49185697868E+03  0.77000000000E+02 0.  0.
   -5000001    1    1    2    0    0  0.51520738351E+02  0.12278262940E+03  0.68669579958E+03  0.70371164671E+03  0.77000000000E+02 0.  0.
<mgrwt>
<rscale>  0 0.31294929E+03</rscale>
<asrwt>0</asrwt>
<pdfrwt beam="1">  1        1 0.16781803E+00 0.31294929E+03</pdfrwt>
<pdfrwt beam="2">  1       -1 0.29775102E-02 0.31294929E+03</pdfrwt>
<totfact> 0.52406719E+03</totfact>
</mgrwt>
</event>
<event>
 4    1  0.3352993E-004  0.2701483E+03  0.7818608E-02  0.1101195E+00
         -1   -1    0    0    0  501 -0.00000000000E+00  0.00000000000E+00  0.53352926003E+02  0.53352926241E+02  0.50400000000E-02 0. -1.
          1   -1    0    0  501    0  0.00000000000E+00 -0.00000000000E+00 -0.34196860124E+03  0.34196860128E+03  0.50400000000E-02 0.  1.
    5000001    1    1    2    0    0  0.15372976144E+02  0.10974426580E+03 -0.13554076341E+03  0.19126011298E+03  0.77000000000E+02 0.  0.
   -5000001    1    1    2    0    0 -0.15372976144E+02 -0.10974426580E+03 -0.15307491183E+03  0.20406141454E+03  0.77000000000E+02 0.  0.
<mgrwt>
<rscale>  0 0.27014830E+03</rscale>
<asrwt>0</asrwt>
<pdfrwt beam="1">  1        1 0.48852656E-01 0.27014830E+03</pdfrwt>
<pdfrwt beam="2">  1       -1 0.76218468E-02 0.27014830E+03</pdfrwt>
<totfact> 0.74974155E+03</totfact>
</mgrwt>
</event>
<event>
 4    1  0.3352993E-004  0.3116132E+03  0.7818608E-02  0.1079575E+00
          1   -1    0    0  501    0  0.00000000000E+00  0.00000000000E+00  0.83054320353E+02  0.83054320506E+02  0.50400000000E-02 0.  1.
         -1   -1    0    0    0  501 -0.00000000000E+00 -0.00000000000E+00 -0.29228706907E+03  0.29228706911E+03  0.50400000000E-02 0. -1.
    5000001    1    1    2    0    0 -0.13440201166E+03 -0.14490640537E+02 -0.94337410969E+02  0.18194072251E+03  0.77000000000E+02 0.  0.
   -5000001    1    1    2    0    0  0.13440201166E+03  0.14490640537E+02 -0.11489533774E+03  0.19340066710E+03  0.77000000000E+02 0.  0.
<mgrwt>
<rscale>  0 0.31161325E+03</rscale>
<asrwt>0</asrwt>
<pdfrwt beam="1">  1        1 0.11864903E-01 0.31161325E+03</pdfrwt>
<pdfrwt beam="2">  1       -1 0.41755295E-01 0.31161325E+03</pdfrwt>
<totfact> 0.29131051E+03</totfact>
</mgrwt>
</event>
<event>
 4    1  0.3352993E-004  0.2731534E+03  0.7818608E-02  0.1099488E+00
         -1   -1    0    0    0  501 -0.00000000000E+00  0.00000000000E+00  0.51091406368E+02  0.51091406616E+02  0.50400000000E-02 0. -1.
          1   -1    0    0  501    0  0.00000000000E+00 -0.00000000000E+00 -0.36509448728E+03  0.36509448732E+03  0.50400000000E-02 0.  1.
    5000001    1    1    2    0    0 -0.36218024494E+02  0.83377100551E+02 -0.55240267914E+02  0.13131631046E+03  0.77000000000E+02 0.  0.
   -5000001    1    1    2    0    0  0.36218024494E+02 -0.83377100551E+02 -0.25876281300E+03  0.28486958347E+03  0.77000000000E+02 0.  0.
<mgrwt>
<rscale>  0 0.27315337E+03</rscale>
<asrwt>0</asrwt>
<pdfrwt beam="1">  1        1 0.52156354E-01 0.27315337E+03</pdfrwt>
<pdfrwt beam="2">  1       -1 0.72987726E-02 0.27315337E+03</pdfrwt>
<totfact> 0.73764934E+03</totfact>
</mgrwt>
</event>
<event>
 4    1  0.3352993E-004  0.2460858E+03  0.7818608E-02  0.1115804E+00
          1   -1    0    0  501    0  0.00000000000E+00  0.00000000000E+00  0.31194539903E+03  0.31194539907E+03  0.50400000000E-02 0.  1.
         -1   -1    0    0    0  501 -0.00000000000E+00 -0.00000000000E+00 -0.48532702957E+02  0.48532703218E+02  0.50400000000E-02 0. -1.
    5000001    1    1    2    0    0  0.56914919748E+02  0.67827143500E+02  0.18593981417E+03  0.21986915195E+03  0.77000000000E+02 0.  0.
   -5000001    1    1    2    0    0 -0.56914919748E+02 -0.67827143500E+02  0.77472881903E+02  0.14060895034E+03  0.77000000000E+02 0.  0.
<mgrwt>
<rscale>  0 0.24608579E+03</rscale>
<asrwt>0</asrwt>
<pdfrwt beam="1">  1        1 0.44563629E-01 0.24608579E+03</pdfrwt>
<pdfrwt beam="2">  1       -1 0.69332432E-02 0.24608579E+03</pdfrwt>
<totfact> 0.96773652E+03</totfact>
</mgrwt>
</event>
<event>
 4    1  0.3352993E-004  0.1976390E+03  0.7818608E-02  0.1151746E+00
         -1   -1    0    0    0  501 -0.00000000000E+00  0.00000000000E+00  0.12431463055E+02  0.12431464077E+02  0.50400000000E-02 0. -1.
          1   -1    0    0  501    0  0.00000000000E+00 -0.00000000000E+00 -0.78553068122E+03  0.78553068123E+03  0.50400000000E-02 0.  1.
    5000001    1    1    2    0    0 -0.51811513757E+02  0.18820358365E+02 -0.27251997419E+03  0.28850437636E+03  0.77000000000E+02 0.  0.
   -5000001    1    1    2    0    0  0.51811513757E+02 -0.18820358365E+02 -0.50057924397E+03  0.50945776895E+03  0.77000000000E+02 0.  0.
<mgrwt>
<rscale>  0 0.19763903E+03</rscale>
<asrwt>0</asrwt>
<pdfrwt beam="1">  1        1 0.11221864E+00 0.19763903E+03</pdfrwt>
<pdfrwt beam="2">  1       -1 0.17759239E-02 0.19763903E+03</pdfrwt>
<totfact> 0.21103300E+04</totfact>
</mgrwt>
</event>
<event>
 4    1  0.3352993E-004  0.5858087E+03  0.7818608E-02  0.9935294E-01
         -1   -1    0    0    0  501 -0.00000000000E+00  0.00000000000E+00  0.95209164813E+02  0.95209164947E+02  0.50400000000E-02 0. -1.
          1   -1    0    0  501    0  0.00000000000E+00 -0.00000000000E+00 -0.90109965263E+03  0.90109965265E+03  0.50400000000E-02 0.  1.
    5000001    1    1    2    0    0 -0.27604867111E+03 -0.10935180937E+02 -0.30173331198E+03  0.41628648616E+03  0.77000000000E+02 0.  0.
   -5000001    1    1    2    0    0  0.27604867111E+03  0.10935180937E+02 -0.50415717584E+03  0.58002233143E+03  0.77000000000E+02 0.  0.
<mgrwt>
<rscale>  0 0.58580866E+03</rscale>
<asrwt>0</asrwt>
<pdfrwt beam="1">  1        1 0.12872852E+00 0.58580866E+03</pdfrwt>
<pdfrwt beam="2">  1       -1 0.13601310E-01 0.58580866E+03</pdfrwt>
<totfact> 0.80053623E+02</totfact>
</mgrwt>
</event>
<event>
 4    1  0.3352993E-004  0.3727533E+03  0.7818608E-02  0.1053645E+00
          1   -1    0    0  501    0  0.00000000000E+00  0.00000000000E+00  0.45528161682E+02  0.45528161961E+02  0.50400000000E-02 0. -1.
         -1   -1    0    0    0  501 -0.00000000000E+00 -0.00000000000E+00 -0.76296197587E+03  0.76296197589E+03  0.50400000000E-02 0.  1.
    5000001    1    1    2    0    0  0.39105484252E+01  0.15667125586E+03 -0.21738266669E+03  0.27882861865E+03  0.77000000000E+02 0.  0.
   -5000001    1    1    2    0    0 -0.39105484252E+01 -0.15667125586E+03 -0.50005114750E+03  0.52966151920E+03  0.77000000000E+02 0.  0.
<mgrwt>
<rscale>  0 0.37275330E+03</rscale>
<asrwt>0</asrwt>
<pdfrwt beam="1">  1        1 0.65040236E-02 0.37275330E+03</pdfrwt>
<pdfrwt beam="2">  1       -1 0.10899456E+00 0.37275330E+03</pdfrwt>
<totfact> 0.96119092E+02</totfact>
</mgrwt>
</event>
<event>
 4    1  0.3352993E-004  0.1989395E+03  0.7818608E-02  0.1150637E+00
         -1   -1    0    0    0  501 -0.00000000000E+00  0.00000000000E+00  0.48186589122E+02  0.48186589385E+02  0.50400000000E-02 0.  1.
          1   -1    0    0  501    0  0.00000000000E+00 -0.00000000000E+00 -0.20533158571E+03  0.20533158577E+03  0.50400000000E-02 0. -1.
    5000001    1    1    2    0    0  0.33856133852E+02  0.49436210140E+02 -0.10325186119E+03  0.14205676158E+03  0.77000000000E+02 0.  0.
   -5000001    1    1    2    0    0 -0.33856133852E+02 -0.49436210140E+02 -0.53893135394E+02  0.11146141357E+03  0.77000000000E+02 0.  0.
<mgrwt>
<rscale>  0 0.19893948E+03</rscale>
<asrwt>0</asrwt>
<pdfrwt beam="1">  1        1 0.29333083E-01 0.19893948E+03</pdfrwt>
<pdfrwt beam="2">  1       -1 0.68837986E-02 0.19893948E+03</pdfrwt>
<totfact> 0.16300707E+04</totfact>
</mgrwt>
</event>
<event>
 4    1  0.3352993E-004  0.2538430E+03  0.7818608E-02  0.1110900E+00
         -1   -1    0    0    0  501 -0.00000000000E+00  0.00000000000E+00  0.81741995587E+03  0.81741995589E+03  0.50400000000E-02 0. -1.
          1   -1    0    0  501    0  0.00000000000E+00 -0.00000000000E+00 -0.19707208010E+02  0.19707208655E+02  0.50400000000E-02 0.  1.
    5000001    1    1    2    0    0  0.66332848924E+02 -0.55081466078E+02  0.57167101634E+03  0.58324160146E+03  0.77000000000E+02 0.  0.
   -5000001    1    1    2    0    0 -0.66332848924E+02  0.55081466078E+02  0.22604173152E+03  0.25388556308E+03  0.77000000000E+02 0.  0.
<mgrwt>
<rscale>  0 0.25384299E+03</rscale>
<asrwt>0</asrwt>
<pdfrwt beam="1">  1        1 0.28153164E-02 0.25384299E+03</pdfrwt>
<pdfrwt beam="2">  1       -1 0.11677424E+00 0.25384299E+03</pdfrwt>
<totfact> 0.26200008E+03</totfact>
</mgrwt>
</event>
<event>
 4    1  0.3352993E-004  0.2312267E+03  0.7818608E-02  0.1125779E+00
          1   -1    0    0  501    0  0.00000000000E+00  0.00000000000E+00  0.52529947150E+03  0.52529947153E+03  0.50400000000E-02 0. -1.
         -1   -1    0    0    0  501 -0.00000000000E+00 -0.00000000000E+00 -0.25445386562E+02  0.25445387062E+02  0.50400000000E-02 0.  1.
    5000001    1    1    2    0    0 -0.72037946700E+02  0.37037944379E+02  0.17942407125E+03  0.21138418207E+03  0.77000000000E+02 0.  0.
   -5000001    1    1    2    0    0  0.72037946700E+02 -0.37037944379E+02  0.32043001370E+03  0.33936067652E+03  0.77000000000E+02 0.  0.
<mgrwt>
<rscale>  0 0.23122671E+03</rscale>
<asrwt>0</asrwt>
<pdfrwt beam="1">  1        1 0.75042775E-01 0.23122671E+03</pdfrwt>
<pdfrwt beam="2">  1       -1 0.36350556E-02 0.23122671E+03</pdfrwt>
<totfact> 0.13030513E+04</totfact>
</mgrwt>
</event>
<event>
 4    1  0.3352993E-004  0.4025784E+03  0.7818608E-02  0.1042890E+00
          1   -1    0    0  501    0  0.00000000000E+00  0.00000000000E+00  0.64264568892E+03  0.64264568894E+03  0.50400000000E-02 0.  1.
         -1   -1    0    0    0  501 -0.00000000000E+00 -0.00000000000E+00 -0.63047726439E+02  0.63047726641E+02  0.50400000000E-02 0. -1.
    5000001    1    1    2    0    0  0.14591564656E+03  0.11458138634E+03  0.31252498846E+03  0.37151196268E+03  0.77000000000E+02 0.  0.
   -5000001    1    1    2    0    0 -0.14591564656E+03 -0.11458138634E+03  0.26707297403E+03  0.33418145290E+03  0.77000000000E+02 0.  0.
<mgrwt>
<rscale>  0 0.40257844E+03</rscale>
<asrwt>0</asrwt>
<pdfrwt beam="1">  1        1 0.91806524E-01 0.40257844E+03</pdfrwt>
<pdfrwt beam="2">  1       -1 0.90068183E-02 0.40257844E+03</pdfrwt>
<totfact> 0.25535009E+03</totfact>
</mgrwt>
</event>
<event>
 4    1  0.3352993E-004  0.2203159E+03  0.7818608E-02  0.1133648E+00
         -1   -1    0    0    0  501 -0.00000000000E+00  0.00000000000E+00  0.15410567342E+02  0.15410568166E+02  0.50400000000E-02 0. -1.
          1   -1    0    0  501    0  0.00000000000E+00 -0.00000000000E+00 -0.78743211562E+03  0.78743211563E+03  0.50400000000E-02 0.  1.
    5000001    1    1    2    0    0  0.34526123460E+02  0.70794385254E+02 -0.38101722947E+03  0.39661949944E+03  0.77000000000E+02 0.  0.
   -5000001    1    1    2    0    0 -0.34526123460E+02 -0.70794385254E+02 -0.39100431881E+03  0.40622318436E+03  0.77000000000E+02 0.  0.
<mgrwt>
<rscale>  0 0.22031592E+03</rscale>
<asrwt>0</asrwt>
<pdfrwt beam="1">  1        1 0.11249028E+00 0.22031592E+03</pdfrwt>
<pdfrwt beam="2">  1       -1 0.22015102E-02 0.22031592E+03</pdfrwt>
<totfact> 0.15488615E+04</totfact>
</mgrwt>
</event>
<event>
 4    1  0.3352993E-004  0.2429260E+03  0.7818608E-02  0.1117859E+00
         -1   -1    0    0    0  501 -0.00000000000E+00  0.00000000000E+00  0.90627299230E+02  0.90627299370E+02  0.50400000000E-02 0.  1.
          1   -1    0    0  501    0  0.00000000000E+00 -0.00000000000E+00 -0.16279045006E+03  0.16279045014E+03  0.50400000000E-02 0. -1.
    5000001    1    1    2    0    0  0.46970995738E+02  0.54435446515E+02  0.26984074453E+02  0.10875032208E+03  0.77000000000E+02 0.  0.
   -5000001    1    1    2    0    0 -0.46970995738E+02 -0.54435446515E+02 -0.99147225283E+02  0.14466742743E+03  0.77000000000E+02 0.  0.
<mgrwt>
<rscale>  0 0.24292599E+03</rscale>
<asrwt>0</asrwt>
<pdfrwt beam="1">  1        1 0.23255779E-01 0.24292599E+03</pdfrwt>
<pdfrwt beam="2">  1       -1 0.12946757E-01 0.24292599E+03</pdfrwt>
<totfact> 0.83892591E+03</totfact>
</mgrwt>
</event>
<event>
 4    1  0.3352993E-004  0.2191484E+03  0.7818608E-02  0.1134520E+00
          1   -1    0    0  501    0  0.00000000000E+00  0.00000000000E+00  0.12341444853E+04  0.12341444853E+04  0.50400000000E-02 0. -1.
         -1   -1    0    0    0  501 -0.00000000000E+00 -0.00000000000E+00 -0.97286038816E+01  0.97286051871E+01  0.50400000000E-02 0.  1.
    5000001    1    1    2    0    0  0.75812428040E+02  0.84825163236E+01  0.52103419396E+03  0.53218897829E+03  0.77000000000E+02 0.  0.
   -5000001    1    1    2    0    0 -0.75812428040E+02 -0.84825163236E+01  0.70338168743E+03  0.71168411218E+03  0.77000000000E+02 0.  0.
<mgrwt>
<rscale>  0 0.21914838E+03</rscale>
<asrwt>0</asrwt>
<pdfrwt beam="1">  1        1 0.17630622E+00 0.21914838E+03</pdfrwt>
<pdfrwt beam="2">  1       -1 0.13898017E-02 0.21914838E+03</pdfrwt>
<totfact> 0.14429209E+04</totfact>
</mgrwt>
</event>
<event>
 4    1  0.3352993E-004  0.2047930E+03  0.7818608E-02  0.1145757E+00
         -1   -1    0    0    0  501 -0.00000000000E+00  0.00000000000E+00  0.84340313072E+02  0.84340313223E+02  0.50400000000E-02 0. -1.
          1   -1    0    0  501    0  0.00000000000E+00 -0.00000000000E+00 -0.12431825847E+03  0.12431825857E+03  0.50400000000E-02 0.  1.
    5000001    1    1    2    0    0  0.36831672774E+01  0.63639791305E+02  0.26211631332E+01  0.99997296237E+02  0.77000000000E+02 0.  0.
   -5000001    1    1    2    0    0 -0.36831672774E+01 -0.63639791305E+02 -0.42599108532E+02  0.10866127556E+03  0.77000000000E+02 0.  0.
<mgrwt>
<rscale>  0 0.20479298E+03</rscale>
<asrwt>0</asrwt>
<pdfrwt beam="1">  1        1 0.17759751E-01 0.20479298E+03</pdfrwt>
<pdfrwt beam="2">  1       -1 0.12048616E-01 0.20479298E+03</pdfrwt>
<totfact> 0.13131005E+04</totfact>
</mgrwt>
</event>
<event>
 4    1  0.3352993E-004  0.2442459E+03  0.7818608E-02  0.1116996E+00
          1   -1    0    0  501    0  0.00000000000E+00  0.00000000000E+00  0.12535094055E+04  0.12535094055E+04  0.50400000000E-02 0.  1.
         -1   -1    0    0    0  501 -0.00000000000E+00 -0.00000000000E+00 -0.11897811080E+02  0.11897812147E+02  0.50400000000E-02 0. -1.
    5000001    1    1    2    0    0  0.83034608656E+02  0.21644719925E+02  0.82944636546E+03  0.83742075046E+03  0.77000000000E+02 0.  0.
   -5000001    1    1    2    0    0 -0.83034608656E+02 -0.21644719925E+02  0.41216522894E+03  0.42798646717E+03  0.77000000000E+02 0.  0.
<mgrwt>
<rscale>  0 0.24424593E+03</rscale>
<asrwt>0</asrwt>
<pdfrwt beam="1">  1        1 0.17907282E+00 0.24424593E+03</pdfrwt>
<pdfrwt beam="2">  1       -1 0.16996870E-02 0.24424593E+03</pdfrwt>
<totfact> 0.10511205E+04</totfact>
</mgrwt>
</event>
<event>
 4    1  0.3352993E-004  0.5105307E+03  0.7818608E-02  0.1011066E+00
          1   -1    0    0  501    0  0.00000000000E+00  0.00000000000E+00  0.99735657668E+02  0.99735657795E+02  0.50400000000E-02 0.  1.
         -1   -1    0    0    0  501 -0.00000000000E+00 -0.00000000000E+00 -0.65333099171E+03  0.65333099173E+03  0.50400000000E-02 0. -1.
    5000001    1    1    2    0    0  0.20453230198E+03  0.46315305775E+02 -0.45897180375E+03  0.51045341290E+03  0.77000000000E+02 0.  0.
   -5000001    1    1    2    0    0 -0.20453230198E+03 -0.46315305775E+02 -0.94623530290E+02  0.24261323662E+03  0.77000000000E+02 0.  0.
<mgrwt>
<rscale>  0 0.51053069E+03</rscale>
<asrwt>0</asrwt>
<pdfrwt beam="1">  1        1 0.14247951E-01 0.51053069E+03</pdfrwt>
<pdfrwt beam="2">  1       -1 0.93332997E-01 0.51053069E+03</pdfrwt>
<totfact> 0.46726610E+02</totfact>
</mgrwt>
</event>
<event>
 4    1  0.3352993E-004  0.1684751E+03  0.7818608E-02  0.1179447E+00
          1   -1    0    0  501    0  0.00000000000E+00  0.00000000000E+00  0.17268728431E+03  0.17268728438E+03  0.50400000000E-02 0. -1.
         -1   -1    0    0    0  501 -0.00000000000E+00 -0.00000000000E+00 -0.41091400555E+02  0.41091400864E+02  0.50400000000E-02 0.  1.
    5000001    1    1    2    0    0  0.18564297901E+02 -0.27854618224E+02  0.57149870482E+02  0.10156584371E+03  0.77000000000E+02 0.  0.
   -5000001    1    1    2    0    0 -0.18564297901E+02  0.27854618224E+02  0.74446013273E+02  0.11221284153E+03  0.77000000000E+02 0.  0.
<mgrwt>
<rscale>  0 0.16847507E+03</rscale>
<asrwt>0</asrwt>
<pdfrwt beam="1">  1        1 0.24669612E-01 0.16847507E+03</pdfrwt>
<pdfrwt beam="2">  1       -1 0.58702000E-02 0.16847507E+03</pdfrwt>
<totfact> 0.25393578E+04</totfact>
</mgrwt>
</event>
<event>
 4    1  0.3352993E-004  0.3300474E+03  0.7818608E-02  0.1071116E+00
          1   -1    0    0  501    0  0.00000000000E+00  0.00000000000E+00  0.41767265440E+02  0.41767265745E+02  0.50400000000E-02 0. -1.
         -1   -1    0    0    0  501 -0.00000000000E+00 -0.00000000000E+00 -0.65201359403E+03  0.65201359405E+03  0.50400000000E-02 0.  1.
    5000001    1    1    2    0    0 -0.12404547509E+03  0.23899373147E+02 -0.45880928755E+03  0.48207200942E+03  0.77000000000E+02 0.  0.
   -5000001    1    1    2    0    0  0.12404547509E+03 -0.23899373147E+02 -0.15143704104E+03  0.21170885037E+03  0.77000000000E+02 0.  0.
<mgrwt>
<rscale>  0 0.33004742E+03</rscale>
<asrwt>0</asrwt>
<pdfrwt beam="1">  1        1 0.59667526E-02 0.33004742E+03</pdfrwt>
<pdfrwt beam="2">  1       -1 0.93144793E-01 0.33004742E+03</pdfrwt>
<totfact> 0.15406424E+03</totfact>
</mgrwt>
</event>
<event>
 4    1  0.3352993E-004  0.2627268E+03  0.7818608E-02  0.1105516E+00
          1   -1    0    0  501    0  0.00000000000E+00  0.00000000000E+00  0.91082749270E+03  0.91082749271E+03  0.50400000000E-02 0.  1.
         -1   -1    0    0    0  501 -0.00000000000E+00 -0.00000000000E+00 -0.18945785473E+02  0.18945786143E+02  0.50400000000E-02 0. -1.
    5000001    1    1    2    0    0 -0.77163968376E+02  0.13664573628E+02  0.19107987414E+03  0.22041215232E+03  0.77000000000E+02 0.  0.
   -5000001    1    1    2    0    0  0.77163968376E+02 -0.13664573628E+02  0.70080183309E+03  0.70936112654E+03  0.77000000000E+02 0.  0.
<mgrwt>
<rscale>  0 0.26272680E+03</rscale>
<asrwt>0</asrwt>
<pdfrwt beam="1">  1        1 0.13011822E+00 0.26272680E+03</pdfrwt>
<pdfrwt beam="2">  1       -1 0.27065408E-02 0.26272680E+03</pdfrwt>
<totfact> 0.92409215E+03</totfact>
</mgrwt>
</event>
<event>
 4    1  0.3352993E-004  0.2192556E+03  0.7818608E-02  0.1134439E+00
         -1   -1    0    0    0  501 -0.00000000000E+00  0.00000000000E+00  0.16760590820E+02  0.16760591577E+02  0.50400000000E-02 0. -1.
          1   -1    0    0  501    0  0.00000000000E+00 -0.00000000000E+00 -0.71705410486E+03  0.71705410487E+03  0.50400000000E-02 0.  1.
    5000001    1    1    2    0    0  0.55706892178E+02  0.54120456765E+02 -0.37540803321E+03  0.39101467117E+03  0.77000000000E+02 0.  0.
   -5000001    1    1    2    0    0 -0.55706892178E+02 -0.54120456765E+02 -0.32488548083E+03  0.34280002528E+03  0.77000000000E+02 0.  0.
<mgrwt>
<rscale>  0 0.21925557E+03</rscale>
<asrwt>0</asrwt>
<pdfrwt beam="1">  1        1 0.10243628E+00 0.21925557E+03</pdfrwt>
<pdfrwt beam="2">  1       -1 0.23943706E-02 0.21925557E+03</pdfrwt>
<totfact> 0.15688301E+04</totfact>
</mgrwt>
</event>
<event>
 4    1  0.3352993E-004  0.2075898E+03  0.7818608E-02  0.1143489E+00
          1   -1    0    0  501    0  0.00000000000E+00  0.00000000000E+00  0.41370011816E+03  0.41370011819E+03  0.50400000000E-02 0.  1.
         -1   -1    0    0    0  501 -0.00000000000E+00 -0.00000000000E+00 -0.26041517112E+02  0.26041517600E+02  0.50400000000E-02 0. -1.
    5000001    1    1    2    0    0  0.38681715045E+02 -0.25145992573E+02  0.30422169233E+03  0.31718832593E+03  0.77000000000E+02 0.  0.
   -5000001    1    1    2    0    0 -0.38681715045E+02  0.25145992573E+02  0.83436908713E+02  0.12255330986E+03  0.77000000000E+02 0.  0.
<mgrwt>
<rscale>  0 0.20758978E+03</rscale>
<asrwt>0</asrwt>
<pdfrwt beam="1">  1        1 0.59100013E-01 0.20758978E+03</pdfrwt>
<pdfrwt beam="2">  1       -1 0.37202170E-02 0.20758978E+03</pdfrwt>
<totfact> 0.17024911E+04</totfact>
</mgrwt>
</event>
<event>
 4    1  0.3352993E-004  0.2167304E+03  0.7818608E-02  0.1136344E+00
         -1   -1    0    0    0  501 -0.00000000000E+00  0.00000000000E+00  0.31738460947E+02  0.31738461347E+02  0.50400000000E-02 0.  1.
          1   -1    0    0  501    0  0.00000000000E+00 -0.00000000000E+00 -0.36999325095E+03  0.36999325098E+03  0.50400000000E-02 0. -1.
    5000001    1    1    2    0    0  0.38842109239E+02 -0.48492453180E+02 -0.87195101440E+02  0.13187954042E+03  0.77000000000E+02 0.  0.
   -5000001    1    1    2    0    0 -0.38842109239E+02  0.48492453180E+02 -0.25105968856E+03  0.26985217191E+03  0.77000000000E+02 0.  0.
<mgrwt>
<rscale>  0 0.21673040E+03</rscale>
<asrwt>0</asrwt>
<pdfrwt beam="1">  1        1 0.52856176E-01 0.21673040E+03</pdfrwt>
<pdfrwt beam="2">  1       -1 0.45340661E-02 0.21673040E+03</pdfrwt>
<totfact> 0.14666113E+04</totfact>
</mgrwt>
</event>
<event>
 4    1  0.3352993E-004  0.3034457E+03  0.7818608E-02  0.1083531E+00
         -1   -1    0    0    0  501 -0.00000000000E+00  0.00000000000E+00  0.17221502724E+03  0.17221502731E+03  0.50400000000E-02 0. -1.
          1   -1    0    0  501    0  0.00000000000E+00 -0.00000000000E+00 -0.13366911780E+03  0.13366911790E+03  0.50400000000E-02 0.  1.
    5000001    1    1    2    0    0 -0.65318118018E+02  0.97799285335E+02 -0.38279386376E+02  0.14568962961E+03  0.77000000000E+02 0.  0.
   -5000001    1    1    2    0    0  0.65318118018E+02 -0.97799285335E+02  0.76825295806E+02  0.16019451560E+03  0.77000000000E+02 0.  0.
<mgrwt>
<rscale>  0 0.30344575E+03</rscale>
<asrwt>0</asrwt>
<pdfrwt beam="1">  1        1 0.19095588E-01 0.30344575E+03</pdfrwt>
<pdfrwt beam="2">  1       -1 0.24602147E-01 0.30344575E+03</pdfrwt>
<totfact> 0.38732470E+03</totfact>
</mgrwt>
</event>
<event>
 4    1  0.3352993E-004  0.4561552E+03  0.7818608E-02  0.1025902E+00
          1   -1    0    0  501    0  0.00000000000E+00  0.00000000000E+00  0.12039650654E+04  0.12039650654E+04  0.50400000000E-02 0.  1.
         -1   -1    0    0    0  501 -0.00000000000E+00 -0.00000000000E+00 -0.43206735599E+02  0.43206735893E+02  0.50400000000E-02 0. -1.
    5000001    1    1    2    0    0 -0.83027735754E+01  0.13939426338E+03  0.10262186532E+04  0.10385342656E+04  0.77000000000E+02 0.  0.
   -5000001    1    1    2    0    0  0.83027735754E+01 -0.13939426338E+03  0.13453967660E+03  0.20863753567E+03  0.77000000000E+02 0.  0.
<mgrwt>
<rscale>  0 0.45615524E+03</rscale>
<asrwt>0</asrwt>
<pdfrwt beam="1">  1        1 0.17199500E+00 0.45615524E+03</pdfrwt>
<pdfrwt beam="2">  1       -1 0.61723913E-02 0.45615524E+03</pdfrwt>
<totfact> 0.16734824E+03</totfact>
</mgrwt>
</event>
<event>
 4    1  0.3352993E-004  0.2804829E+03  0.7818608E-02  0.1095425E+00
          1   -1    0    0  501    0  0.00000000000E+00  0.00000000000E+00  0.36465816243E+04  0.36465816243E+04  0.50400000000E-02 0.  1.
         -1   -1    0    0    0  501 -0.00000000000E+00 -0.00000000000E+00 -0.53934513225E+01  0.53934536773E+01  0.50400000000E-02 0. -1.
    5000001    1    1    2    0    0  0.63279297503E+02  0.93769451942E+02  0.22201469785E+04  0.22243602644E+04  0.77000000000E+02 0.  0.
   -5000001    1    1    2    0    0 -0.63279297503E+02 -0.93769451942E+02  0.14210411944E+04  0.14276148136E+04  0.77000000000E+02 0.  0.
<mgrwt>
<rscale>  0 0.28048290E+03</rscale>
<asrwt>0</asrwt>
<pdfrwt beam="1">  1        1 0.52093999E+00 0.28048290E+03</pdfrwt>
<pdfrwt beam="2">  1       -1 0.77049358E-03 0.28048290E+03</pdfrwt>
<totfact> 0.10461737E+03</totfact>
</mgrwt>
</event>
<event>
 4    1  0.3352993E-004  0.2067664E+03  0.7818608E-02  0.1144153E+00
          1   -1    0    0  501    0  0.00000000000E+00  0.00000000000E+00  0.21725990000E+03  0.21725990006E+03  0.50400000000E-02 0.  1.
         -1   -1    0    0    0  501 -0.00000000000E+00 -0.00000000000E+00 -0.49194945815E+02  0.49194946073E+02  0.50400000000E-02 0. -1.
    5000001    1    1    2    0    0  0.66125750064E+02  0.17545331296E+02  0.72604926865E+02  0.12601955752E+03  0.77000000000E+02 0.  0.
   -5000001    1    1    2    0    0 -0.66125750064E+02 -0.17545331296E+02  0.95460027319E+02  0.14043528861E+03  0.77000000000E+02 0.  0.
<mgrwt>
<rscale>  0 0.20676643E+03</rscale>
<asrwt>0</asrwt>
<pdfrwt beam="1">  1        1 0.31037129E-01 0.20676643E+03</pdfrwt>
<pdfrwt beam="2">  1       -1 0.70278493E-02 0.20676643E+03</pdfrwt>
<totfact> 0.14758222E+04</totfact>
</mgrwt>
</event>
<event>
 4    1  0.3352993E-004  0.2125001E+03  0.7818608E-02  0.1139601E+00
         -1   -1    0    0    0  501 -0.00000000000E+00  0.00000000000E+00  0.21023172453E+02  0.21023173057E+02  0.50400000000E-02 0. -1.
          1   -1    0    0  501    0  0.00000000000E+00 -0.00000000000E+00 -0.53698222165E+03  0.53698222168E+03  0.50400000000E-02 0.  1.
    5000001    1    1    2    0    0  0.69836259701E+02 -0.19152239123E+02 -0.28628073364E+03  0.30517137790E+03  0.77000000000E+02 0.  0.
   -5000001    1    1    2    0    0 -0.69836259701E+02  0.19152239123E+02 -0.22967831556E+03  0.25283401684E+03  0.77000000000E+02 0.  0.
<mgrwt>
<rscale>  0 0.21250007E+03</rscale>
<asrwt>0</asrwt>
<pdfrwt beam="1">  1        1 0.76711737E-01 0.21250007E+03</pdfrwt>
<pdfrwt beam="2">  1       -1 0.30033107E-02 0.21250007E+03</pdfrwt>
<totfact> 0.16686217E+04</totfact>
</mgrwt>
</event>
<event>
 4    1  0.3352993E-004  0.2653685E+03  0.7818608E-02  0.1103960E+00
          1   -1    0    0  501    0  0.00000000000E+00  0.00000000000E+00  0.37901304777E+03  0.37901304780E+03  0.50400000000E-02 0.  1.
         -1   -1    0    0    0  501 -0.00000000000E+00 -0.00000000000E+00 -0.46449887743E+02  0.46449888017E+02  0.50400000000E-02 0. -1.
    5000001    1    1    2    0    0 -0.27737936640E+02 -0.10148659690E+03  0.12677449179E+03  0.18185074717E+03  0.77000000000E+02 0.  0.
   -5000001    1    1    2    0    0  0.27737936640E+02  0.10148659690E+03  0.20578866824E+03  0.24361218864E+03  0.77000000000E+02 0.  0.
<mgrwt>
<rscale>  0 0.26536853E+03</rscale>
<asrwt>0</asrwt>
<pdfrwt beam="1">  1        1 0.54144720E-01 0.26536853E+03</pdfrwt>
<pdfrwt beam="2">  1       -1 0.66356984E-02 0.26536853E+03</pdfrwt>
<totfact> 0.81196215E+03</totfact>
</mgrwt>
</event>
<event>
 4    1  0.3352993E-004  0.1996267E+03  0.7818608E-02  0.1150054E+00
          1   -1    0    0  501    0  0.00000000000E+00  0.00000000000E+00  0.32744927528E+04  0.32744927528E+04  0.50400000000E-02 0.  1.
         -1   -1    0    0    0  501 -0.00000000000E+00 -0.00000000000E+00 -0.30425155337E+01  0.30425197082E+01  0.50400000000E-02 0. -1.
    5000001    1    1    2    0    0  0.51715056862E+02 -0.95562843608E+01  0.22203493772E+04  0.22223064879E+04  0.77000000000E+02 0.  0.
   -5000001    1    1    2    0    0 -0.51715056862E+02  0.95562843608E+01  0.10511008601E+04  0.10552287846E+04  0.77000000000E+02 0.  0.
<mgrwt>
<rscale>  0 0.19962667E+03</rscale>
<asrwt>0</asrwt>
<pdfrwt beam="1">  1        1 0.46778877E+00 0.19962667E+03</pdfrwt>
<pdfrwt beam="2">  1       -1 0.43464157E-03 0.19962667E+03</pdfrwt>
<totfact> 0.42372914E+03</totfact>
</mgrwt>
</event>
<event>
 4    1  0.3352993E-004  0.2164952E+03  0.7818608E-02  0.1136523E+00
         -1   -1    0    0    0  501 -0.00000000000E+00  0.00000000000E+00  0.16534857728E+03  0.16534857735E+03  0.50400000000E-02 0.  1.
          1   -1    0    0  501    0  0.00000000000E+00 -0.00000000000E+00 -0.70865726576E+02  0.70865726755E+02  0.50400000000E-02 0. -1.
    5000001    1    1    2    0    0 -0.61520381720E+02  0.38493909126E+02  0.22312893021E+02  0.10813604210E+03  0.77000000000E+02 0.  0.
   -5000001    1    1    2    0    0  0.61520381720E+02 -0.38493909126E+02  0.72169957680E+02  0.12807826201E+03  0.77000000000E+02 0.  0.
<mgrwt>
<rscale>  0 0.21649524E+03</rscale>
<asrwt>0</asrwt>
<pdfrwt beam="1">  1        1 0.10123675E-01 0.21649524E+03</pdfrwt>
<pdfrwt beam="2">  1       -1 0.23621225E-01 0.21649524E+03</pdfrwt>
<totfact> 0.94194901E+03</totfact>
</mgrwt>
</event>
<event>
 4    1  0.3352993E-004  0.1680753E+03  0.7818608E-02  0.1179870E+00
         -1   -1    0    0    0  501 -0.00000000000E+00  0.00000000000E+00  0.90033012801E+02  0.90033012942E+02  0.50400000000E-02 0.  1.
          1   -1    0    0  501    0  0.00000000000E+00 -0.00000000000E+00 -0.78441554392E+02  0.78441554554E+02  0.50400000000E-02 0. -1.
    5000001    1    1    2    0    0  0.28689267798E+02  0.10354498686E+02 -0.84873195627E+01  0.83254575389E+02  0.77000000000E+02 0.  0.
   -5000001    1    1    2    0    0 -0.28689267798E+02 -0.10354498686E+02  0.20078777972E+02  0.85219992107E+02  0.77000000000E+02 0.  0.
<mgrwt>
<rscale>  0 0.16807533E+03</rscale>
<asrwt>0</asrwt>
<pdfrwt beam="1">  1        1 0.11205936E-01 0.16807533E+03</pdfrwt>
<pdfrwt beam="2">  1       -1 0.12861859E-01 0.16807533E+03</pdfrwt>
<totfact> 0.21322222E+04</totfact>
</mgrwt>
</event>
<event>
 4    1  0.3352993E-004  0.2683417E+03  0.7818608E-02  0.1102232E+00
         -1   -1    0    0    0  501 -0.00000000000E+00  0.00000000000E+00  0.19752338567E+02  0.19752339210E+02  0.50400000000E-02 0.  1.
          1   -1    0    0  501    0  0.00000000000E+00 -0.00000000000E+00 -0.91137628933E+03  0.91137628935E+03  0.50400000000E-02 0. -1.
    5000001    1    1    2    0    0  0.69396174312E+02 -0.43609107631E+02 -0.19188395714E+03  0.22240961374E+03  0.77000000000E+02 0.  0.
   -5000001    1    1    2    0    0 -0.69396174312E+02  0.43609107631E+02 -0.69973999363E+03  0.70871901482E+03  0.77000000000E+02 0.  0.
<mgrwt>
<rscale>  0 0.26834167E+03</rscale>
<asrwt>0</asrwt>
<pdfrwt beam="1">  1        1 0.13019659E+00 0.26834167E+03</pdfrwt>
<pdfrwt beam="2">  1       -1 0.28217633E-02 0.26834167E+03</pdfrwt>
<totfact> 0.86889257E+03</totfact>
</mgrwt>
</event>
<event>
 4    1  0.3352993E-004  0.3397406E+03  0.7818608E-02  0.1066906E+00
          1   -1    0    0  501    0  0.00000000000E+00  0.00000000000E+00  0.23817021223E+04  0.23817021223E+04  0.50400000000E-02 0.  1.
         -1   -1    0    0    0  501 -0.00000000000E+00 -0.00000000000E+00 -0.12115671152E+02  0.12115672200E+02  0.50400000000E-02 0. -1.
    5000001    1    1    2    0    0  0.12110307706E+03  0.73663651719E+02  0.15599320177E+04  0.15682503591E+04  0.77000000000E+02 0.  0.
   -5000001    1    1    2    0    0 -0.12110307706E+03 -0.73663651719E+02  0.80965443339E+03  0.82556743538E+03  0.77000000000E+02 0.  0.
<mgrwt>
<rscale>  0 0.33974061E+03</rscale>
<asrwt>0</asrwt>
<pdfrwt beam="1">  1        1 0.34024330E+00 0.33974061E+03</pdfrwt>
<pdfrwt beam="2">  1       -1 0.17308095E-02 0.33974061E+03</pdfrwt>
<totfact> 0.20740968E+03</totfact>
</mgrwt>
</event>
<event>
 4    1  0.3352993E-004  0.1764008E+03  0.7818608E-02  0.1171333E+00
         -1   -1    0    0    0  501 -0.00000000000E+00  0.00000000000E+00  0.43498782396E+03  0.43498782398E+03  0.50400000000E-02 0. -1.
          1   -1    0    0  501    0  0.00000000000E+00 -0.00000000000E+00 -0.17883974306E+02  0.17883975016E+02  0.50400000000E-02 0.  1.
    5000001    1    1    2    0    0 -0.45873605531E+01 -0.42769631494E+02  0.20813812538E+03  0.22605478206E+03  0.77000000000E+02 0.  0.
   -5000001    1    1    2    0    0  0.45873605531E+01  0.42769631494E+02  0.20896572427E+03  0.22681701694E+03  0.77000000000E+02 0.  0.
<mgrwt>
<rscale>  0 0.17640081E+03</rscale>
<asrwt>0</asrwt>
<pdfrwt beam="1">  1        1 0.25548539E-02 0.17640081E+03</pdfrwt>
<pdfrwt beam="2">  1       -1 0.62141108E-01 0.17640081E+03</pdfrwt>
<totfact> 0.11172707E+04</totfact>
</mgrwt>
</event>
<event>
 4    1  0.3352993E-004  0.6796694E+03  0.7818608E-02  0.9752646E-01
          1   -1    0    0  501    0  0.00000000000E+00  0.00000000000E+00  0.13688941707E+03  0.13688941716E+03  0.50400000000E-02 0. -1.
         -1   -1    0    0    0  501 -0.00000000000E+00 -0.00000000000E+00 -0.84365628776E+03  0.84365628777E+03  0.50400000000E-02 0.  1.
    5000001    1    1    2    0    0  0.34374163484E+02 -0.22227994385E+03 -0.30506612725E+01  0.23775673090E+03  0.77000000000E+02 0.  0.
   -5000001    1    1    2    0    0 -0.34374163484E+02  0.22227994385E+03 -0.70371620942E+03  0.74278897404E+03  0.77000000000E+02 0.  0.
<mgrwt>
<rscale>  0 0.67966938E+03</rscale>
<asrwt>0</asrwt>
<pdfrwt beam="1">  1        1 0.19555631E-01 0.67966938E+03</pdfrwt>
<pdfrwt beam="2">  1       -1 0.12052232E+00 0.67966938E+03</pdfrwt>
<totfact> 0.16832153E+02</totfact>
</mgrwt>
</event>
<event>
 4    1  0.3352993E-004  0.2379213E+03  0.7818608E-02  0.1121185E+00
         -1   -1    0    0    0  501 -0.00000000000E+00  0.00000000000E+00  0.96936222910E+02  0.96936223041E+02  0.50400000000E-02 0. -1.
          1   -1    0    0  501    0  0.00000000000E+00 -0.00000000000E+00 -0.14598914225E+03  0.14598914234E+03  0.50400000000E-02 0.  1.
    5000001    1    1    2    0    0 -0.84832178952E+02  0.16636943235E+02  0.34235383967E+01  0.11581885460E+03  0.77000000000E+02 0.  0.
   -5000001    1    1    2    0    0  0.84832178952E+02 -0.16636943235E+02 -0.52476457741E+02  0.12710651078E+03  0.77000000000E+02 0.  0.
<mgrwt>
<rscale>  0 0.23792130E+03</rscale>
<asrwt>0</asrwt>
<pdfrwt beam="1">  1        1 0.20855592E-01 0.23792130E+03</pdfrwt>
<pdfrwt beam="2">  1       -1 0.13848032E-01 0.23792130E+03</pdfrwt>
<totfact> 0.86668700E+03</totfact>
</mgrwt>
</event>
<event>
 4    1  0.3352993E-004  0.2443507E+03  0.7818608E-02  0.1116928E+00
         -1   -1    0    0    0  501 -0.00000000000E+00  0.00000000000E+00  0.51148620977E+03  0.51148620979E+03  0.50400000000E-02 0. -1.
          1   -1    0    0  501    0  0.00000000000E+00 -0.00000000000E+00 -0.29183234357E+02  0.29183234792E+02  0.50400000000E-02 0.  1.
    5000001    1    1    2    0    0 -0.56932833462E+02 -0.52668077901E+02  0.36199181174E+03  0.37813006456E+03  0.77000000000E+02 0.  0.
   -5000001    1    1    2    0    0  0.56932833462E+02  0.52668077901E+02  0.12031116367E+03  0.16253938003E+03  0.77000000000E+02 0.  0.
<mgrwt>
<rscale>  0 0.24435075E+03</rscale>
<asrwt>0</asrwt>
<pdfrwt beam="1">  1        1 0.41690338E-02 0.24435075E+03</pdfrwt>
<pdfrwt beam="2">  1       -1 0.73069453E-01 0.24435075E+03</pdfrwt>
<totfact> 0.41825910E+03</totfact>
</mgrwt>
</event>
<event>
 4    1  0.3352993E-004  0.2093750E+03  0.7818608E-02  0.1142062E+00
          1   -1    0    0  501    0  0.00000000000E+00  0.00000000000E+00  0.17290623901E+04  0.17290623901E+04  0.50400000000E-02 0.  1.
         -1   -1    0    0    0  501 -0.00000000000E+00 -0.00000000000E+00 -0.63383890379E+01  0.63383910416E+01  0.50400000000E-02 0. -1.
    5000001    1    1    2    0    0 -0.60103306337E+02  0.37041557827E+02  0.80515447933E+03  0.81190345487E+03  0.77000000000E+02 0.  0.
   -5000001    1    1    2    0    0  0.60103306337E+02 -0.37041557827E+02  0.91756952169E+03  0.92349732624E+03  0.77000000000E+02 0.  0.
<mgrwt>
<rscale>  0 0.20937499E+03</rscale>
<asrwt>0</asrwt>
<pdfrwt beam="1">  1        1 0.24700920E+00 0.20937499E+03</pdfrwt>
<pdfrwt beam="2">  1       -1 0.90548325E-03 0.20937499E+03</pdfrwt>
<totfact> 0.13111070E+04</totfact>
</mgrwt>
</event>
<event>
 4    1  0.3352993E-004  0.2003222E+03  0.7818608E-02  0.1149467E+00
         -1   -1    0    0    0  501 -0.00000000000E+00  0.00000000000E+00  0.20459690336E+02  0.20459690957E+02  0.50400000000E-02 0. -1.
          1   -1    0    0  501    0  0.00000000000E+00 -0.00000000000E+00 -0.49034200363E+03  0.49034200366E+03  0.50400000000E-02 0.  1.
    5000001    1    1    2    0    0  0.36757148104E+02  0.23078540341E+02 -0.11481028732E+03  0.14489344027E+03  0.77000000000E+02 0.  0.
   -5000001    1    1    2    0    0 -0.36757148104E+02 -0.23078540341E+02 -0.35507202598E+03  0.36590825434E+03  0.77000000000E+02 0.  0.
<mgrwt>
<rscale>  0 0.20032220E+03</rscale>
<asrwt>0</asrwt>
<pdfrwt beam="1">  1        1 0.70048850E-01 0.20032220E+03</pdfrwt>
<pdfrwt beam="2">  1       -1 0.29228133E-02 0.20032220E+03</pdfrwt>
<totfact> 0.19478702E+04</totfact>
</mgrwt>
</event>
<event>
 4    1  0.3352993E-004  0.2190113E+03  0.7818608E-02  0.1134622E+00
          1   -1    0    0  501    0  0.00000000000E+00  0.00000000000E+00  0.63834741427E+03  0.63834741429E+03  0.50400000000E-02 0. -1.
         -1   -1    0    0    0  501 -0.00000000000E+00 -0.00000000000E+00 -0.18785209241E+02  0.18785209917E+02  0.50400000000E-02 0.  1.
    5000001    1    1    2    0    0  0.27884225471E+02 -0.58522461823E+02  0.43918651296E+03  0.45057319243E+03  0.77000000000E+02 0.  0.
   -5000001    1    1    2    0    0 -0.27884225471E+02  0.58522461823E+02  0.18037569207E+03  0.20655943178E+03  0.77000000000E+02 0.  0.
<mgrwt>
<rscale>  0 0.21901132E+03</rscale>
<asrwt>0</asrwt>
<pdfrwt beam="1">  1        1 0.91192487E-01 0.21901132E+03</pdfrwt>
<pdfrwt beam="2">  1       -1 0.26836014E-02 0.21901132E+03</pdfrwt>
<totfact> 0.15623097E+04</totfact>
</mgrwt>
</event>
<event>
 4    1  0.3352993E-004  0.1764572E+03  0.7818608E-02  0.1171276E+00
         -1   -1    0    0    0  501 -0.00000000000E+00  0.00000000000E+00  0.54575219252E+01  0.54575242524E+01  0.50400000000E-02 0.  1.
          1   -1    0    0  501    0  0.00000000000E+00 -0.00000000000E+00 -0.14263404712E+04  0.14263404712E+04  0.50400000000E-02 0. -1.
    5000001    1    1    2    0    0  0.29646622111E+02 -0.20766011823E+02 -0.89989166149E+03  0.90390494626E+03  0.77000000000E+02 0.  0.
   -5000001    1    1    2    0    0 -0.29646622111E+02  0.20766011823E+02 -0.52099128776E+03  0.52789304918E+03  0.77000000000E+02 0.  0.
<mgrwt>
<rscale>  0 0.17645720E+03</rscale>
<asrwt>0</asrwt>
<pdfrwt beam="1">  1        1 0.20376269E+00 0.17645720E+03</pdfrwt>
<pdfrwt beam="2">  1       -1 0.77964707E-03 0.17645720E+03</pdfrwt>
<totfact> 0.24677893E+04</totfact>
</mgrwt>
</event>
<event>
 4    1  0.3352993E-004  0.2224954E+03  0.7818608E-02  0.1132036E+00
          1   -1    0    0  501    0  0.00000000000E+00  0.00000000000E+00  0.24884604246E+03  0.24884604251E+03  0.50400000000E-02 0.  1.
         -1   -1    0    0    0  501 -0.00000000000E+00 -0.00000000000E+00 -0.49733750995E+02  0.49733751251E+02  0.50400000000E-02 0. -1.
    5000001    1    1    2    0    0 -0.13963093468E+01 -0.72521758294E+02  0.14576502066E+03  0.18010495927E+03  0.77000000000E+02 0.  0.
   -5000001    1    1    2    0    0  0.13963093468E+01  0.72521758294E+02  0.53347270809E+02  0.11847483450E+03  0.77000000000E+02 0.  0.
<mgrwt>
<rscale>  0 0.22249537E+03</rscale>
<asrwt>0</asrwt>
<pdfrwt beam="1">  1        1 0.35549435E-01 0.22249537E+03</pdfrwt>
<pdfrwt beam="2">  1       -1 0.71048216E-02 0.22249537E+03</pdfrwt>
<totfact> 0.12305912E+04</totfact>
</mgrwt>
</event>
<event>
 4    1  0.3352993E-004  0.3487158E+03  0.7818608E-02  0.1063143E+00
         -1   -1    0    0    0  501 -0.00000000000E+00  0.00000000000E+00  0.64461937719E+02  0.64461937916E+02  0.50400000000E-02 0. -1.
          1   -1    0    0  501    0  0.00000000000E+00 -0.00000000000E+00 -0.47160672357E+03  0.47160672360E+03  0.50400000000E-02 0.  1.
    5000001    1    1    2    0    0 -0.41518960251E+02 -0.13351697174E+03 -0.31141213817E+03  0.34993874550E+03  0.77000000000E+02 0.  0.
   -5000001    1    1    2    0    0  0.41518960251E+02  0.13351697174E+03 -0.95732647686E+02  0.18612991602E+03  0.77000000000E+02 0.  0.
<mgrwt>
<rscale>  0 0.34871583E+03</rscale>
<asrwt>0</asrwt>
<pdfrwt beam="1">  1        1 0.67372387E-01 0.34871583E+03</pdfrwt>
<pdfrwt beam="2">  1       -1 0.92088486E-02 0.34871583E+03</pdfrwt>
<totfact> 0.37421898E+03</totfact>
</mgrwt>
</event>
<event>
 4    1  0.3352993E-004  0.3394328E+03  0.7818608E-02  0.1067038E+00
          1   -1    0    0  501    0  0.00000000000E+00  0.00000000000E+00  0.88172841292E+03  0.88172841293E+03  0.50400000000E-02 0.  1.
         -1   -1    0    0    0  501 -0.00000000000E+00 -0.00000000000E+00 -0.32667266173E+02  0.32667266561E+02  0.50400000000E-02 0. -1.
    5000001    1    1    2    0    0  0.37412366070E+02 -0.14614830398E+03  0.45350026539E+03  0.48409761681E+03  0.77000000000E+02 0.  0.
   -5000001    1    1    2    0    0 -0.37412366070E+02  0.14614830398E+03  0.39556088136E+03  0.43029806269E+03  0.77000000000E+02 0.  0.
<mgrwt>
<rscale>  0 0.33943280E+03</rscale>
<asrwt>0</asrwt>
<pdfrwt beam="1">  1        1 0.12596121E+00 0.33943280E+03</pdfrwt>
<pdfrwt beam="2">  1       -1 0.46667522E-02 0.33943280E+03</pdfrwt>
<totfact> 0.43546430E+03</totfact>
</mgrwt>
</event>
<event>
 4    1  0.3352993E-004  0.3932272E+03  0.7818608E-02  0.1046150E+00
          1   -1    0    0  501    0  0.00000000000E+00  0.00000000000E+00  0.38146263073E+02  0.38146263406E+02  0.50400000000E-02 0. -1.
         -1   -1    0    0    0  501 -0.00000000000E+00 -0.00000000000E+00 -0.10133864099E+04  0.10133864099E+04  0.50400000000E-02 0.  1.
    5000001    1    1    2    0    0 -0.16012966226E+03 -0.62031551043E+02 -0.33544271939E+03  0.38463000410E+03  0.77000000000E+02 0.  0.
   -5000001    1    1    2    0    0  0.16012966226E+03  0.62031551043E+02 -0.63979742740E+03  0.66690266918E+03  0.77000000000E+02 0.  0.
<mgrwt>
<rscale>  0 0.39322719E+03</rscale>
<asrwt>0</asrwt>
<pdfrwt beam="1">  1        1 0.54494668E-02 0.39322719E+03</pdfrwt>
<pdfrwt beam="2">  1       -1 0.14476947E+00 0.39322719E+03</pdfrwt>
<totfact> 0.61333425E+02</totfact>
</mgrwt>
</event>
<event>
 4    1  0.3352993E-004  0.1698590E+03  0.7818608E-02  0.1177995E+00
         -1   -1    0    0    0  501 -0.00000000000E+00  0.00000000000E+00  0.81342974007E+01  0.81342989621E+01  0.50400000000E-02 0.  1.
          1   -1    0    0  501    0  0.00000000000E+00 -0.00000000000E+00 -0.88674108739E+03  0.88674108741E+03  0.50400000000E-02 0. -1.
    5000001    1    1    2    0    0  0.11981939117E+02 -0.31421026322E+02 -0.37410167187E+03  0.38342132003E+03  0.77000000000E+02 0.  0.
   -5000001    1    1    2    0    0 -0.11981939117E+02  0.31421026322E+02 -0.50450511813E+03  0.51145406634E+03  0.77000000000E+02 0.  0.
<mgrwt>
<rscale>  0 0.16985896E+03</rscale>
<asrwt>0</asrwt>
<pdfrwt beam="1">  1        1 0.12667724E+00 0.16985896E+03</pdfrwt>
<pdfrwt beam="2">  1       -1 0.11620432E-02 0.16985896E+03</pdfrwt>
<totfact> 0.32068101E+04</totfact>
</mgrwt>
</event>
<event>
 4    1  0.3352993E-004  0.2208400E+03  0.7818608E-02  0.1133258E+00
          1   -1    0    0  501    0  0.00000000000E+00  0.00000000000E+00  0.14211680728E+04  0.14211680728E+04  0.50400000000E-02 0. -1.
         -1   -1    0    0    0  501 -0.00000000000E+00 -0.00000000000E+00 -0.85792617065E+01  0.85792631869E+01  0.50400000000E-02 0.  1.
    5000001    1    1    2    0    0  0.40945250184E+02 -0.77537578798E+01  0.27069833535E+03  0.28450522497E+03  0.77000000000E+02 0.  0.
   -5000001    1    1    2    0    0 -0.40945250184E+02  0.77537578798E+01  0.11418904757E+04  0.11452421110E+04  0.77000000000E+02 0.  0.
<mgrwt>
<rscale>  0 0.22083998E+03</rscale>
<asrwt>0</asrwt>
<pdfrwt beam="1">  1        1 0.20302401E+00 0.22083998E+03</pdfrwt>
<pdfrwt beam="2">  1       -1 0.12256089E-02 0.22083998E+03</pdfrwt>
<totfact> 0.13136306E+04</totfact>
</mgrwt>
</event>
<event>
 4    1  0.3352993E-004  0.2389170E+03  0.7818608E-02  0.1120516E+00
         -1   -1    0    0    0  501 -0.00000000000E+00  0.00000000000E+00  0.17830367321E+03  0.17830367328E+03  0.50400000000E-02 0. -1.
          1   -1    0    0  501    0  0.00000000000E+00 -0.00000000000E+00 -0.80033891979E+02  0.80033892138E+02  0.50400000000E-02 0.  1.
    5000001    1    1    2    0    0  0.64588269532E+02 -0.47279631660E+02  0.15788593228E+01  0.11107880503E+03  0.77000000000E+02 0.  0.
   -5000001    1    1    2    0    0 -0.64588269532E+02  0.47279631660E+02  0.96690921911E+02  0.14725876039E+03  0.77000000000E+02 0.  0.
<mgrwt>
<rscale>  0 0.23891703E+03</rscale>
<asrwt>0</asrwt>
<pdfrwt beam="1">  1        1 0.11433413E-01 0.23891703E+03</pdfrwt>
<pdfrwt beam="2">  1       -1 0.25471953E-01 0.23891703E+03</pdfrwt>
<totfact> 0.71070036E+03</totfact>
</mgrwt>
</event>
<event>
 4    1  0.3352993E-004  0.2257758E+03  0.7818608E-02  0.1129649E+00
         -1   -1    0    0    0  501 -0.00000000000E+00  0.00000000000E+00  0.65110602682E+03  0.65110602684E+03  0.50400000000E-02 0.  1.
          1   -1    0    0  501    0  0.00000000000E+00 -0.00000000000E+00 -0.19572348580E+02  0.19572349229E+02  0.50400000000E-02 0. -1.
    5000001    1    1    2    0    0 -0.55405679455E+02  0.43324914373E+02  0.44414952060E+03  0.45622870818E+03  0.77000000000E+02 0.  0.
   -5000001    1    1    2    0    0  0.55405679455E+02 -0.43324914373E+02  0.18738415764E+03  0.21444966789E+03  0.77000000000E+02 0.  0.
<mgrwt>
<rscale>  0 0.22577577E+03</rscale>
<asrwt>0</asrwt>
<pdfrwt beam="1">  1        1 0.27960498E-02 0.22577577E+03</pdfrwt>
<pdfrwt beam="2">  1       -1 0.93015147E-01 0.22577577E+03</pdfrwt>
<totfact> 0.43992038E+03</totfact>
</mgrwt>
</event>
<event>
 4    1  0.3352993E-004  0.2426039E+03  0.7818608E-02  0.1118070E+00
          1   -1    0    0  501    0  0.00000000000E+00  0.00000000000E+00  0.11381227301E+04  0.11381227302E+04  0.50400000000E-02 0.  1.
         -1   -1    0    0    0  501 -0.00000000000E+00 -0.00000000000E+00 -0.12928451868E+02  0.12928452850E+02  0.50400000000E-02 0. -1.
    5000001    1    1    2    0    0 -0.26686101957E+02 -0.85443936244E+02  0.69445445855E+03  0.70442090350E+03  0.77000000000E+02 0.  0.
   -5000001    1    1    2    0    0  0.26686101957E+02  0.85443936244E+02  0.43073981972E+03  0.44663027950E+03  0.77000000000E+02 0.  0.
<mgrwt>
<rscale>  0 0.24260392E+03</rscale>
<asrwt>0</asrwt>
<pdfrwt beam="1">  1        1 0.16258888E+00 0.24260392E+03</pdfrwt>
<pdfrwt beam="2">  1       -1 0.18469226E-02 0.24260392E+03</pdfrwt>
<totfact> 0.11111253E+04</totfact>
</mgrwt>
</event>
<event>
 4    1  0.3352993E-004  0.2207562E+03  0.7818608E-02  0.1133321E+00
         -1   -1    0    0    0  501 -0.00000000000E+00  0.00000000000E+00  0.27565836320E+03  0.27565836324E+03  0.50400000000E-02 0. -1.
          1   -1    0    0  501    0  0.00000000000E+00 -0.00000000000E+00 -0.44197206597E+02  0.44197206884E+02  0.50400000000E-02 0.  1.
    5000001    1    1    2    0    0 -0.45327725157E+01 -0.73316576278E+02  0.15818293361E+03  0.19064812317E+03  0.77000000000E+02 0.  0.
   -5000001    1    1    2    0    0  0.45327725157E+01  0.73316576278E+02  0.73278222990E+02  0.12920744695E+03  0.77000000000E+02 0.  0.
<mgrwt>
<rscale>  0 0.22075624E+03</rscale>
<asrwt>0</asrwt>
<pdfrwt beam="1">  1        1 0.63138865E-02 0.22075624E+03</pdfrwt>
<pdfrwt beam="2">  1       -1 0.39379767E-01 0.22075624E+03</pdfrwt>
<totfact> 0.74923486E+03</totfact>
</mgrwt>
</event>
<event>
 4    1  0.3352993E-004  0.3251259E+03  0.7818608E-02  0.1073314E+00
          1   -1    0    0  501    0  0.00000000000E+00  0.00000000000E+00  0.14410653815E+03  0.14410653824E+03  0.50400000000E-02 0. -1.
         -1   -1    0    0    0  501 -0.00000000000E+00 -0.00000000000E+00 -0.18338316179E+03  0.18338316186E+03  0.50400000000E-02 0.  1.
    5000001    1    1    2    0    0  0.92888905275E+02 -0.10894636374E+03 -0.19404828500E+02  0.16371684783E+03  0.77000000000E+02 0.  0.
   -5000001    1    1    2    0    0 -0.92888905275E+02  0.10894636374E+03 -0.19871795137E+02  0.16377285226E+03  0.77000000000E+02 0.  0.
<mgrwt>
<rscale>  0 0.32512590E+03</rscale>
<asrwt>0</asrwt>
<pdfrwt beam="1">  1        1 0.20586648E-01 0.32512590E+03</pdfrwt>
<pdfrwt beam="2">  1       -1 0.26197595E-01 0.32512590E+03</pdfrwt>
<totfact> 0.31690073E+03</totfact>
</mgrwt>
</event>
<event>
 4    1  0.3352993E-004  0.3496893E+03  0.7818608E-02  0.1062743E+00
          1   -1    0    0  501    0  0.00000000000E+00  0.00000000000E+00  0.48068999029E+03  0.48068999031E+03  0.50400000000E-02 0.  1.
         -1   -1    0    0    0  501 -0.00000000000E+00 -0.00000000000E+00 -0.63597431931E+02  0.63597432131E+02  0.50400000000E-02 0. -1.
    5000001    1    1    2    0    0 -0.20399598757E+02  0.12738678191E+03  0.34774644286E+03  0.37881410264E+03  0.77000000000E+02 0.  0.
   -5000001    1    1    2    0    0  0.20399598757E+02 -0.12738678191E+03  0.69346115494E+02  0.16547331981E+03  0.77000000000E+02 0.  0.
<mgrwt>
<rscale>  0 0.34968928E+03</rscale>
<asrwt>0</asrwt>
<pdfrwt beam="1">  1        1 0.68669998E-01 0.34968928E+03</pdfrwt>
<pdfrwt beam="2">  1       -1 0.90853475E-02 0.34968928E+03</pdfrwt>
<totfact> 0.37270105E+03</totfact>
</mgrwt>
</event>
<event>
 4    1  0.3352993E-004  0.2028930E+03  0.7818608E-02  0.1147321E+00
          1   -1    0    0  501    0  0.00000000000E+00  0.00000000000E+00  0.50917278853E+03  0.50917278856E+03  0.50400000000E-02 0.  1.
         -1   -1    0    0    0  501 -0.00000000000E+00 -0.00000000000E+00 -0.20211992183E+02  0.20211992812E+02  0.50400000000E-02 0. -1.
    5000001    1    1    2    0    0 -0.57177660530E+02  0.29885136072E+01  0.33039264924E+03  0.34404435579E+03  0.77000000000E+02 0.  0.
   -5000001    1    1    2    0    0  0.57177660530E+02 -0.29885136072E+01  0.15856814711E+03  0.18534042559E+03  0.77000000000E+02 0.  0.
<mgrwt>
<rscale>  0 0.20289304E+03</rscale>
<asrwt>0</asrwt>
<pdfrwt beam="1">  1        1 0.72738968E-01 0.20289304E+03</pdfrwt>
<pdfrwt beam="2">  1       -1 0.28874276E-02 0.20289304E+03</pdfrwt>
<totfact> 0.18897788E+04</totfact>
</mgrwt>
</event>
<event>
 4    1  0.3352993E-004  0.1769690E+03  0.7818608E-02  0.1170769E+00
          1   -1    0    0  501    0  0.00000000000E+00  0.00000000000E+00  0.52363065596E+02  0.52363065839E+02  0.50400000000E-02 0.  1.
         -1   -1    0    0    0  501 -0.00000000000E+00 -0.00000000000E+00 -0.14952352176E+03  0.14952352185E+03  0.50400000000E-02 0. -1.
    5000001    1    1    2    0    0 -0.42717375129E+02  0.57492974877E+01 -0.56033204930E+02  0.10453013257E+03  0.77000000000E+02 0.  0.
   -5000001    1    1    2    0    0  0.42717375129E+02 -0.57492974877E+01 -0.41127251237E+02  0.97356455121E+02  0.77000000000E+02 0.  0.
<mgrwt>
<rscale>  0 0.17696904E+03</rscale>
<asrwt>0</asrwt>
<pdfrwt beam="1">  1        1 0.74804381E-02 0.17696904E+03</pdfrwt>
<pdfrwt beam="2">  1       -1 0.21360503E-01 0.17696904E+03</pdfrwt>
<totfact> 0.16441425E+04</totfact>
</mgrwt>
</event>
<event>
 4    1  0.3352993E-004  0.2217282E+03  0.7818608E-02  0.1132601E+00
         -1   -1    0    0    0  501 -0.00000000000E+00  0.00000000000E+00  0.70036651042E+02  0.70036651223E+02  0.50400000000E-02 0. -1.
          1   -1    0    0  501    0  0.00000000000E+00 -0.00000000000E+00 -0.17549167184E+03  0.17549167191E+03  0.50400000000E-02 0.  1.
    5000001    1    1    2    0    0 -0.67602791802E+02  0.19162703656E+02 -0.94521347351E+02  0.14071471769E+03  0.77000000000E+02 0.  0.
   -5000001    1    1    2    0    0  0.67602791802E+02 -0.19162703656E+02 -0.10933673449E+02  0.10481360544E+03  0.77000000000E+02 0.  0.
<mgrwt>
<rscale>  0 0.22172820E+03</rscale>
<asrwt>0</asrwt>
<pdfrwt beam="1">  1        1 0.25070239E-01 0.22172820E+03</pdfrwt>
<pdfrwt beam="2">  1       -1 0.10005236E-01 0.22172820E+03</pdfrwt>
<totfact> 0.11321274E+04</totfact>
</mgrwt>
</event>
<event>
 4    1  0.3352993E-004  0.3003754E+03  0.7818608E-02  0.1085053E+00
          1   -1    0    0  501    0  0.00000000000E+00  0.00000000000E+00  0.75656612000E+03  0.75656612002E+03  0.50400000000E-02 0.  1.
         -1   -1    0    0    0  501 -0.00000000000E+00 -0.00000000000E+00 -0.29814114644E+02  0.29814115070E+02  0.50400000000E-02 0. -1.
    5000001    1    1    2    0    0 -0.95867666462E+02 -0.85610901943E+02  0.39052158090E+03  0.41827734955E+03  0.77000000000E+02 0.  0.
   -5000001    1    1    2    0    0  0.95867666462E+02  0.85610901943E+02  0.33623042446E+03  0.36810288553E+03  0.77000000000E+02 0.  0.
<mgrwt>
<rscale>  0 0.30037543E+03</rscale>
<asrwt>0</asrwt>
<pdfrwt beam="1">  1        1 0.10808086E+00 0.30037543E+03</pdfrwt>
<pdfrwt beam="2">  1       -1 0.42591597E-02 0.30037543E+03</pdfrwt>
<totfact> 0.62817122E+03</totfact>
</mgrwt>
</event>
<event>
 4    1  0.3352993E-004  0.3149961E+03  0.7818608E-02  0.1077976E+00
          1   -1    0    0  501    0  0.00000000000E+00  0.00000000000E+00  0.26699765518E+03  0.26699765523E+03  0.50400000000E-02 0. -1.
         -1   -1    0    0    0  501 -0.00000000000E+00 -0.00000000000E+00 -0.92905822032E+02  0.92905822168E+02  0.50400000000E-02 0.  1.
    5000001    1    1    2    0    0  0.42959009463E+02  0.12361391359E+03  0.39238614799E+02  0.15682648060E+03  0.77000000000E+02 0.  0.
   -5000001    1    1    2    0    0 -0.42959009463E+02 -0.12361391359E+03  0.13485321835E+03  0.20307699680E+03  0.77000000000E+02 0.  0.
<mgrwt>
<rscale>  0 0.31499611E+03</rscale>
<asrwt>0</asrwt>
<pdfrwt beam="1">  1        1 0.38142523E-01 0.31499611E+03</pdfrwt>
<pdfrwt beam="2">  1       -1 0.13272260E-01 0.31499611E+03</pdfrwt>
<totfact> 0.43569874E+03</totfact>
</mgrwt>
</event>
<event>
 4    1  0.3352993E-004  0.2142137E+03  0.7818608E-02  0.1138272E+00
          1   -1    0    0  501    0  0.00000000000E+00  0.00000000000E+00  0.33287962867E+02  0.33287963249E+02  0.50400000000E-02 0. -1.
         -1   -1    0    0    0  501 -0.00000000000E+00 -0.00000000000E+00 -0.34462543762E+03  0.34462543766E+03  0.50400000000E-02 0.  1.
    5000001    1    1    2    0    0 -0.42704385066E+02 -0.60574373067E+02 -0.16813840323E+03  0.19922962083E+03  0.77000000000E+02 0.  0.
   -5000001    1    1    2    0    0  0.42704385066E+02  0.60574373067E+02 -0.14319907152E+03  0.17868378007E+03  0.77000000000E+02 0.  0.
<mgrwt>
<rscale>  0 0.21421371E+03</rscale>
<asrwt>0</asrwt>
<pdfrwt beam="1">  1        1 0.47554235E-02 0.21421371E+03</pdfrwt>
<pdfrwt beam="2">  1       -1 0.49232203E-01 0.21421371E+03</pdfrwt>
<totfact> 0.73915970E+03</totfact>
</mgrwt>
</event>
<event>
 4    1  0.3352993E-004  0.1639847E+03  0.7818608E-02  0.1184270E+00
         -1   -1    0    0    0  501 -0.00000000000E+00  0.00000000000E+00  0.39908599258E+02  0.39908599576E+02  0.50400000000E-02 0.  1.
          1   -1    0    0  501    0  0.00000000000E+00 -0.00000000000E+00 -0.16845355653E+03  0.16845355661E+03  0.50400000000E-02 0. -1.
    5000001    1    1    2    0    0  0.30618146942E+01  0.27087873766E+02 -0.55232495786E+02  0.98604037469E+02  0.77000000000E+02 0.  0.
   -5000001    1    1    2    0    0 -0.30618146942E+01 -0.27087873766E+02 -0.73312461491E+02  0.10975811872E+03  0.77000000000E+02 0.  0.
<mgrwt>
<rscale>  0 0.16398470E+03</rscale>
<asrwt>0</asrwt>
<pdfrwt beam="1">  1        1 0.24064793E-01 0.16398470E+03</pdfrwt>
<pdfrwt beam="2">  1       -1 0.57012286E-02 0.16398470E+03</pdfrwt>
<totfact> 0.27301174E+04</totfact>
</mgrwt>
</event>
<event>
 4    1  0.3352993E-004  0.2522134E+03  0.7818608E-02  0.1111914E+00
         -1   -1    0    0    0  501 -0.00000000000E+00  0.00000000000E+00  0.59082699988E+01  0.59082721485E+01  0.50400000000E-02 0. -1.
          1   -1    0    0  501    0  0.00000000000E+00 -0.00000000000E+00 -0.26916325796E+04  0.26916325796E+04  0.50400000000E-02 0.  1.
    5000001    1    1    2    0    0  0.80131470749E+02 -0.59604530739E+02 -0.13388284654E+04  0.13447544060E+04  0.77000000000E+02 0.  0.
   -5000001    1    1    2    0    0 -0.80131470749E+02  0.59604530739E+02 -0.13468958441E+04  0.13527864457E+04  0.77000000000E+02 0.  0.
<mgrwt>
<rscale>  0 0.25221336E+03</rscale>
<asrwt>0</asrwt>
<pdfrwt beam="1">  1        1 0.38451816E+00 0.25221336E+03</pdfrwt>
<pdfrwt beam="2">  1       -1 0.84404045E-03 0.25221336E+03</pdfrwt>
<totfact> 0.38174597E+03</totfact>
</mgrwt>
</event>
<event>
 4    1  0.3352993E-004  0.1742727E+03  0.7818608E-02  0.1173464E+00
         -1   -1    0    0    0  501 -0.00000000000E+00  0.00000000000E+00  0.11056517219E+03  0.11056517231E+03  0.50400000000E-02 0.  1.
          1   -1    0    0  501    0  0.00000000000E+00 -0.00000000000E+00 -0.68672141915E+02  0.68672142100E+02  0.50400000000E-02 0. -1.
    5000001    1    1    2    0    0 -0.12248382240E+01 -0.36416037693E+02  0.20906867248E+01  0.85211495709E+02  0.77000000000E+02 0.  0.
   -5000001    1    1    2    0    0  0.12248382240E+01  0.36416037693E+02  0.39802343555E+02  0.94025818701E+02  0.77000000000E+02 0.  0.
<mgrwt>
<rscale>  0 0.17427274E+03</rscale>
<asrwt>0</asrwt>
<pdfrwt beam="1">  1        1 0.98103061E-02 0.17427274E+03</pdfrwt>
<pdfrwt beam="2">  1       -1 0.15795024E-01 0.17427274E+03</pdfrwt>
<totfact> 0.18495739E+04</totfact>
</mgrwt>
</event>
<event>
 4    1  0.3352993E-004  0.2363281E+03  0.7818608E-02  0.1122263E+00
         -1   -1    0    0    0  501 -0.00000000000E+00  0.00000000000E+00  0.20832665521E+02  0.20832666131E+02  0.50400000000E-02 0.  1.
          1   -1    0    0  501    0  0.00000000000E+00 -0.00000000000E+00 -0.67023298725E+03  0.67023298726E+03  0.50400000000E-02 0. -1.
    5000001    1    1    2    0    0 -0.74873167949E+02  0.47357969641E+02 -0.36447021275E+03  0.38290508556E+03  0.77000000000E+02 0.  0.
   -5000001    1    1    2    0    0  0.74873167949E+02 -0.47357969641E+02 -0.28493010897E+03  0.30816056783E+03  0.77000000000E+02 0.  0.
<mgrwt>
<rscale>  0 0.23632808E+03</rscale>
<asrwt>0</asrwt>
<pdfrwt beam="1">  1        1 0.95747556E-01 0.23632808E+03</pdfrwt>
<pdfrwt beam="2">  1       -1 0.29760955E-02 0.23632808E+03</pdfrwt>
<totfact> 0.12596515E+04</totfact>
</mgrwt>
</event>
<event>
 4    1  0.3352993E-004  0.2839870E+03  0.7818608E-02  0.1093531E+00
          1   -1    0    0  501    0  0.00000000000E+00  0.00000000000E+00  0.38500836482E+02  0.38500836812E+02  0.50400000000E-02 0. -1.
         -1   -1    0    0    0  501 -0.00000000000E+00 -0.00000000000E+00 -0.52368075214E+03  0.52368075216E+03  0.50400000000E-02 0.  1.
    5000001    1    1    2    0    0  0.10810012944E+02 -0.11455380509E+03 -0.18018638198E+03  0.22723459880E+03  0.77000000000E+02 0.  0.
   -5000001    1    1    2    0    0 -0.10810012944E+02  0.11455380509E+03 -0.30499353368E+03  0.33494699018E+03  0.77000000000E+02 0.  0.
<mgrwt>
<rscale>  0 0.28398695E+03</rscale>
<asrwt>0</asrwt>
<pdfrwt beam="1">  1        1 0.55001198E-02 0.28398695E+03</pdfrwt>
<pdfrwt beam="2">  1       -1 0.74811532E-01 0.28398695E+03</pdfrwt>
<totfact> 0.27287373E+03</totfact>
</mgrwt>
</event>
<event>
 4    1  0.3352993E-004  0.3582319E+03  0.7818608E-02  0.1059286E+00
          1   -1    0    0  501    0  0.00000000000E+00  0.00000000000E+00  0.69634266961E+03  0.69634266963E+03  0.50400000000E-02 0.  1.
         -1   -1    0    0    0  501 -0.00000000000E+00 -0.00000000000E+00 -0.46072908244E+02  0.46072908520E+02  0.50400000000E-02 0. -1.
    5000001    1    1    2    0    0 -0.51435773297E+02 -0.13673936115E+03  0.46887107822E+03  0.49710399280E+03  0.77000000000E+02 0.  0.
   -5000001    1    1    2    0    0  0.51435773297E+02  0.13673936115E+03  0.18139868315E+03  0.24531158535E+03  0.77000000000E+02 0.  0.
<mgrwt>
<rscale>  0 0.35823195E+03</rscale>
<asrwt>0</asrwt>
<pdfrwt beam="1">  1        1 0.99477523E-01 0.35823195E+03</pdfrwt>
<pdfrwt beam="2">  1       -1 0.65818441E-02 0.35823195E+03</pdfrwt>
<totfact> 0.36866364E+03</totfact>
</mgrwt>
</event>
<event>
 4    1  0.3352993E-004  0.2892220E+03  0.7818608E-02  0.1090756E+00
          1   -1    0    0  501    0  0.00000000000E+00  0.00000000000E+00  0.13171514782E+03  0.13171514792E+03  0.50400000000E-02 0.  1.
         -1   -1    0    0    0  501 -0.00000000000E+00 -0.00000000000E+00 -0.15876942068E+03  0.15876942076E+03  0.50400000000E-02 0. -1.
    5000001    1    1    2    0    0  0.92315599896E+02  0.35789659885E+02  0.58761143816E+02  0.13850971721E+03  0.77000000000E+02 0.  0.
   -5000001    1    1    2    0    0 -0.92315599896E+02 -0.35789659885E+02 -0.85815416674E+02  0.15197485147E+03  0.77000000000E+02 0.  0.
<mgrwt>
<rscale>  0 0.28922198E+03</rscale>
<asrwt>0</asrwt>
<pdfrwt beam="1">  1        1 0.18816450E-01 0.28922198E+03</pdfrwt>
<pdfrwt beam="2">  1       -1 0.22681346E-01 0.28922198E+03</pdfrwt>
<totfact> 0.45107728E+03</totfact>
</mgrwt>
</event>
<event>
 4    1  0.3352993E-004  0.2797504E+03  0.7818608E-02  0.1095825E+00
         -1   -1    0    0    0  501 -0.00000000000E+00  0.00000000000E+00  0.25701853718E+03  0.25701853723E+03  0.50400000000E-02 0. -1.
          1   -1    0    0  501    0  0.00000000000E+00 -0.00000000000E+00 -0.76123210927E+02  0.76123211094E+02  0.50400000000E-02 0.  1.
    5000001    1    1    2    0    0 -0.38907109628E+01 -0.11289190406E+03  0.12570087995E+03  0.18571330284E+03  0.77000000000E+02 0.  0.
   -5000001    1    1    2    0    0  0.38907109628E+01  0.11289190406E+03  0.55194446300E+02  0.14742844548E+03  0.77000000000E+02 0.  0.
<mgrwt>
<rscale>  0 0.27975043E+03</rscale>
<asrwt>0</asrwt>
<pdfrwt beam="1">  1        1 0.10874745E-01 0.27975043E+03</pdfrwt>
<pdfrwt beam="2">  1       -1 0.36716933E-01 0.27975043E+03</pdfrwt>
<totfact> 0.40993357E+03</totfact>
</mgrwt>
</event>
<event>
 4    1  0.3352993E-004  0.1932343E+03  0.7818608E-02  0.1155576E+00
          1   -1    0    0  501    0  0.00000000000E+00  0.00000000000E+00  0.22920882387E+02  0.22920882941E+02  0.50400000000E-02 0. -1.
         -1   -1    0    0    0  501 -0.00000000000E+00 -0.00000000000E+00 -0.40726489715E+03  0.40726489718E+03  0.50400000000E-02 0.  1.
    5000001    1    1    2    0    0 -0.30421017764E+02  0.47061679294E+02 -0.22845567978E+03  0.24751007576E+03  0.77000000000E+02 0.  0.
   -5000001    1    1    2    0    0  0.30421017764E+02 -0.47061679294E+02 -0.15588833498E+03  0.18267570436E+03  0.77000000000E+02 0.  0.
<mgrwt>
<rscale>  0 0.19323427E+03</rscale>
<asrwt>0</asrwt>
<pdfrwt beam="1">  1        1 0.32744121E-02 0.19323427E+03</pdfrwt>
<pdfrwt beam="2">  1       -1 0.58180695E-01 0.19323427E+03</pdfrwt>
<totfact> 0.90256868E+03</totfact>
</mgrwt>
</event>
<event>
 4    1  0.3352993E-004  0.2273785E+03  0.7818608E-02  0.1128499E+00
          1   -1    0    0  501    0  0.00000000000E+00  0.00000000000E+00  0.23253029922E+03  0.23253029928E+03  0.50400000000E-02 0. -1.
         -1   -1    0    0    0  501 -0.00000000000E+00 -0.00000000000E+00 -0.55585194453E+02  0.55585194682E+02  0.50400000000E-02 0.  1.
    5000001    1    1    2    0    0 -0.50000703314E+02 -0.40933438604E+02  0.15576866371E+03  0.18538741414E+03  0.77000000000E+02 0.  0.
   -5000001    1    1    2    0    0  0.50000703314E+02  0.40933438604E+02  0.21176441064E+02  0.10272807982E+03  0.77000000000E+02 0.  0.
<mgrwt>
<rscale>  0 0.22737847E+03</rscale>
<asrwt>0</asrwt>
<pdfrwt beam="1">  1        1 0.33218615E-01 0.22737847E+03</pdfrwt>
<pdfrwt beam="2">  1       -1 0.79407419E-02 0.22737847E+03</pdfrwt>
<totfact> 0.11330126E+04</totfact>
</mgrwt>
</event>
<event>
 4    1  0.3352993E-004  0.2690408E+03  0.7818608E-02  0.1101830E+00
          1   -1    0    0  501    0  0.00000000000E+00  0.00000000000E+00  0.11828854053E+03  0.11828854064E+03  0.50400000000E-02 0.  1.
         -1   -1    0    0    0  501 -0.00000000000E+00 -0.00000000000E+00 -0.15297961313E+03  0.15297961321E+03  0.50400000000E-02 0. -1.
    5000001    1    1    2    0    0 -0.50871434364E+02  0.81202064448E+02 -0.72433538239E+02  0.14267899483E+03  0.77000000000E+02 0.  0.
   -5000001    1    1    2    0    0  0.50871434364E+02 -0.81202064448E+02  0.37742465640E+02  0.12858915902E+03  0.77000000000E+02 0.  0.
<mgrwt>
<rscale>  0 0.26904078E+03</rscale>
<asrwt>0</asrwt>
<pdfrwt beam="1">  1        1 0.16898363E-01 0.26904078E+03</pdfrwt>
<pdfrwt beam="2">  1       -1 0.21854231E-01 0.26904078E+03</pdfrwt>
<totfact> 0.54998988E+03</totfact>
</mgrwt>
</event>
<event>
 4    1  0.3352993E-004  0.6464188E+03  0.7818608E-02  0.9813522E-01
         -1   -1    0    0    0  501 -0.00000000000E+00  0.00000000000E+00  0.64608918114E+03  0.64608918116E+03  0.50400000000E-02 0. -1.
          1   -1    0    0  501    0  0.00000000000E+00 -0.00000000000E+00 -0.16168713823E+03  0.16168713830E+03  0.50400000000E-02 0.  1.
    5000001    1    1    2    0    0  0.27380484140E+03 -0.90353610429E+01  0.43370092784E+03  0.51872557652E+03  0.77000000000E+02 0.  0.
   -5000001    1    1    2    0    0 -0.27380484140E+03  0.90353610429E+01  0.50701115068E+02  0.28905074294E+03  0.77000000000E+02 0.  0.
<mgrwt>
<rscale>  0 0.64641878E+03</rscale>
<asrwt>0</asrwt>
<pdfrwt beam="1">  1        1 0.23098162E-01 0.64641878E+03</pdfrwt>
<pdfrwt beam="2">  1       -1 0.92298455E-01 0.64641878E+03</pdfrwt>
<totfact> 0.25126802E+02</totfact>
</mgrwt>
</event>
<event>
 4    1  0.3352993E-004  0.2961076E+03  0.7818608E-02  0.1087203E+00
         -1   -1    0    0    0  501 -0.00000000000E+00  0.00000000000E+00  0.52066125711E+02  0.52066125955E+02  0.50400000000E-02 0.  1.
          1   -1    0    0  501    0  0.00000000000E+00 -0.00000000000E+00 -0.42100156780E+03  0.42100156783E+03  0.50400000000E-02 0. -1.
    5000001    1    1    2    0    0  0.11487033202E+03  0.29071228756E-01 -0.26894135071E+03  0.30241303567E+03  0.77000000000E+02 0.  0.
   -5000001    1    1    2    0    0 -0.11487033202E+03 -0.29071228756E-01 -0.99994091377E+02  0.17065465811E+03  0.77000000000E+02 0.  0.
<mgrwt>
<rscale>  0 0.29610755E+03</rscale>
<asrwt>0</asrwt>
<pdfrwt beam="1">  1        1 0.60143079E-01 0.29610755E+03</pdfrwt>
<pdfrwt beam="2">  1       -1 0.74380183E-02 0.29610755E+03</pdfrwt>
<totfact> 0.59941438E+03</totfact>
</mgrwt>
</event>
<event>
 4    1  0.3352993E-004  0.2596833E+03  0.7818608E-02  0.1107334E+00
          1   -1    0    0  501    0  0.00000000000E+00  0.00000000000E+00  0.10728323977E+04  0.10728323977E+04  0.50400000000E-02 0. -1.
         -1   -1    0    0    0  501 -0.00000000000E+00 -0.00000000000E+00 -0.15714338938E+02  0.15714339746E+02  0.50400000000E-02 0.  1.
    5000001    1    1    2    0    0 -0.26561147372E+02  0.92168510783E+02  0.35424144668E+03  0.37498870847E+03  0.77000000000E+02 0.  0.
   -5000001    1    1    2    0    0  0.26561147372E+02 -0.92168510783E+02  0.70287661205E+03  0.71355802897E+03  0.77000000000E+02 0.  0.
<mgrwt>
<rscale>  0 0.25968329E+03</rscale>
<asrwt>0</asrwt>
<pdfrwt beam="1">  1        1 0.15326175E+00 0.25968329E+03</pdfrwt>
<pdfrwt beam="2">  1       -1 0.22449059E-02 0.25968329E+03</pdfrwt>
<totfact> 0.92857340E+03</totfact>
</mgrwt>
</event>
<event>
 4    1  0.3352993E-004  0.3256380E+03  0.7818608E-02  0.1073083E+00
          1   -1    0    0  501    0  0.00000000000E+00  0.00000000000E+00  0.17126514486E+04  0.17126514486E+04  0.50400000000E-02 0.  1.
         -1   -1    0    0    0  501 -0.00000000000E+00 -0.00000000000E+00 -0.15478934919E+02  0.15478935739E+02  0.50400000000E-02 0. -1.
    5000001    1    1    2    0    0  0.37775478160E+02 -0.29069635428E+02  0.13050486137E+03  0.15884756622E+03  0.77000000000E+02 0.  0.
   -5000001    1    1    2    0    0 -0.37775478160E+02  0.29069635428E+02  0.15666676523E+04  0.15692828182E+04  0.77000000000E+02 0.  0.
<mgrwt>
<rscale>  0 0.32563796E+03</rscale>
<asrwt>0</asrwt>
<pdfrwt beam="1">  1        1 0.24466452E+00 0.32563796E+03</pdfrwt>
<pdfrwt beam="2">  1       -1 0.22112762E-02 0.32563796E+03</pdfrwt>
<totfact> 0.36949337E+03</totfact>
</mgrwt>
</event>
<event>
 4    1  0.3352993E-004  0.7824720E+03  0.7818608E-02  0.9585741E-01
          1   -1    0    0  501    0  0.00000000000E+00  0.00000000000E+00  0.21826345918E+04  0.21826345919E+04  0.50400000000E-02 0. -1.
         -1   -1    0    0    0  501 -0.00000000000E+00 -0.00000000000E+00 -0.70128829695E+02  0.70128829876E+02  0.50400000000E-02 0.  1.
    5000001    1    1    2    0    0 -0.27726461449E+03  0.25451993771E+03  0.84311598473E+03  0.92651477529E+03  0.77000000000E+02 0.  0.
   -5000001    1    1    2    0    0  0.27726461449E+03 -0.25451993771E+03  0.12693897774E+04  0.13262486464E+04  0.77000000000E+02 0.  0.
<mgrwt>
<rscale>  0 0.78247201E+03</rscale>
<asrwt>0</asrwt>
<pdfrwt beam="1">  1        1 0.31180500E+00 0.78247201E+03</pdfrwt>
<pdfrwt beam="2">  1       -1 0.10018402E-01 0.78247201E+03</pdfrwt>
<totfact> 0.18471267E+02</totfact>
</mgrwt>
</event>
<event>
 4    1  0.3352993E-004  0.2410780E+03  0.7818608E-02  0.1119077E+00
         -1   -1    0    0    0  501 -0.00000000000E+00  0.00000000000E+00  0.40977909344E+03  0.40977909347E+03  0.50400000000E-02 0. -1.
          1   -1    0    0  501    0  0.00000000000E+00 -0.00000000000E+00 -0.35457290665E+02  0.35457291024E+02  0.50400000000E-02 0.  1.
    5000001    1    1    2    0    0  0.84856698566E+02 -0.14630087030E+02  0.12355936731E+03  0.16914672917E+03  0.77000000000E+02 0.  0.
   -5000001    1    1    2    0    0 -0.84856698566E+02  0.14630087030E+02  0.25076243547E+03  0.27608965533E+03  0.77000000000E+02 0.  0.
<mgrwt>
<rscale>  0 0.24107805E+03</rscale>
<asrwt>0</asrwt>
<pdfrwt beam="1">  1        1 0.50653270E-02 0.24107805E+03</pdfrwt>
<pdfrwt beam="2">  1       -1 0.58539873E-01 0.24107805E+03</pdfrwt>
<totfact> 0.49294781E+03</totfact>
</mgrwt>
</event>
<event>
 4    1  0.3352993E-004  0.1990823E+03  0.7818608E-02  0.1150516E+00
         -1   -1    0    0    0  501 -0.00000000000E+00  0.00000000000E+00  0.89076543643E+01  0.89076557901E+01  0.50400000000E-02 0. -1.
          1   -1    0    0  501    0  0.00000000000E+00 -0.00000000000E+00 -0.11123511873E+04  0.11123511873E+04  0.50400000000E-02 0.  1.
    5000001    1    1    2    0    0 -0.49858145688E+02  0.34429062910E+02 -0.65060478289E+03  0.65794131849E+03  0.77000000000E+02 0.  0.
   -5000001    1    1    2    0    0  0.49858145688E+02 -0.34429062910E+02 -0.45283875005E+03  0.46331752461E+03  0.77000000000E+02 0.  0.
<mgrwt>
<rscale>  0 0.19908230E+03</rscale>
<asrwt>0</asrwt>
<pdfrwt beam="1">  1        1 0.15890722E+00 0.19908230E+03</pdfrwt>
<pdfrwt beam="2">  1       -1 0.12725229E-02 0.19908230E+03</pdfrwt>
<totfact> 0.19657343E+04</totfact>
</mgrwt>
</event>
<event>
 4    1  0.3352993E-004  0.3760459E+03  0.7818608E-02  0.1052405E+00
          1   -1    0    0  501    0  0.00000000000E+00  0.00000000000E+00  0.12660969688E+04  0.12660969688E+04  0.50400000000E-02 0.  1.
         -1   -1    0    0    0  501 -0.00000000000E+00 -0.00000000000E+00 -0.27922535073E+02  0.27922535528E+02  0.50400000000E-02 0. -1.
    5000001    1    1    2    0    0  0.83230976419E+02  0.14907481037E+03  0.56223652753E+03  0.59261252721E+03  0.77000000000E+02 0.  0.
   -5000001    1    1    2    0    0 -0.83230976419E+02 -0.14907481037E+03  0.67593790618E+03  0.70140697710E+03  0.77000000000E+02 0.  0.
<mgrwt>
<rscale>  0 0.37604594E+03</rscale>
<asrwt>0</asrwt>
<pdfrwt beam="1">  1        1 0.18087098E+00 0.37604594E+03</pdfrwt>
<pdfrwt beam="2">  1       -1 0.39889339E-02 0.37604594E+03</pdfrwt>
<totfact> 0.29491517E+03</totfact>
</mgrwt>
</event>
<event>
 4    1  0.3352993E-004  0.1947685E+03  0.7818608E-02  0.1154229E+00
         -1   -1    0    0    0  501 -0.00000000000E+00  0.00000000000E+00  0.71290116411E+01  0.71290134227E+01  0.50400000000E-02 0. -1.
          1   -1    0    0  501    0  0.00000000000E+00 -0.00000000000E+00 -0.13302946558E+04  0.13302946558E+04  0.50400000000E-02 0.  1.
    5000001    1    1    2    0    0  0.26692705331E+02  0.46023068220E+02 -0.84635597179E+03  0.85151515213E+03  0.77000000000E+02 0.  0.
   -5000001    1    1    2    0    0 -0.26692705331E+02 -0.46023068220E+02 -0.47680967239E+03  0.48590851713E+03  0.77000000000E+02 0.  0.
<mgrwt>
<rscale>  0 0.19476845E+03</rscale>
<asrwt>0</asrwt>
<pdfrwt beam="1">  1        1 0.19004194E+00 0.19476845E+03</pdfrwt>
<pdfrwt beam="2">  1       -1 0.10184312E-02 0.19476845E+03</pdfrwt>
<totfact> 0.19460565E+04</totfact>
</mgrwt>
</event>
<event>
 4    1  0.3352993E-004  0.1635791E+03  0.7818608E-02  0.1184714E+00
         -1   -1    0    0    0  501 -0.00000000000E+00  0.00000000000E+00  0.62914968828E+02  0.62914969030E+02  0.50400000000E-02 0. -1.
          1   -1    0    0  501    0  0.00000000000E+00 -0.00000000000E+00 -0.10632659500E+03  0.10632659512E+03  0.50400000000E-02 0.  1.
    5000001    1    1    2    0    0 -0.15109024527E+02 -0.21526970251E+02 -0.13121533971E+02  0.82418855392E+02  0.77000000000E+02 0.  0.
   -5000001    1    1    2    0    0  0.15109024527E+02  0.21526970251E+02 -0.30290092200E+02  0.86822708757E+02  0.77000000000E+02 0.  0.
<mgrwt>
<rscale>  0 0.16357915E+03</rscale>
<asrwt>0</asrwt>
<pdfrwt beam="1">  1        1 0.15189513E-01 0.16357915E+03</pdfrwt>
<pdfrwt beam="2">  1       -1 0.89878528E-02 0.16357915E+03</pdfrwt>
<totfact> 0.24778364E+04</totfact>
</mgrwt>
</event>
<event>
 4    1  0.3352993E-004  0.1635706E+03  0.7818608E-02  0.1184724E+00
          1   -1    0    0  501    0  0.00000000000E+00  0.00000000000E+00  0.26077955864E+03  0.26077955869E+03  0.50400000000E-02 0.  1.
         -1   -1    0    0    0  501 -0.00000000000E+00 -0.00000000000E+00 -0.25649378146E+02  0.25649378641E+02  0.50400000000E-02 0. -1.
    5000001    1    1    2    0    0 -0.49407039058E+01 -0.14605859158E+02  0.15757662254E+03  0.17606002854E+03  0.77000000000E+02 0.  0.
   -5000001    1    1    2    0    0  0.49407039058E+01  0.14605859158E+02  0.77553557948E+02  0.11036890879E+03  0.77000000000E+02 0.  0.
<mgrwt>
<rscale>  0 0.16357058E+03</rscale>
<asrwt>0</asrwt>
<pdfrwt beam="1">  1        1 0.37254220E-01 0.16357058E+03</pdfrwt>
<pdfrwt beam="2">  1       -1 0.36641972E-02 0.16357058E+03</pdfrwt>
<totfact> 0.30404977E+04</totfact>
</mgrwt>
</event>
<event>
 4    1  0.3352993E-004  0.2054609E+03  0.7818608E-02  0.1145212E+00
         -1   -1    0    0    0  501 -0.00000000000E+00  0.00000000000E+00  0.66551364168E+02  0.66551364359E+02  0.50400000000E-02 0. -1.
          1   -1    0    0  501    0  0.00000000000E+00 -0.00000000000E+00 -0.15857738319E+03  0.15857738327E+03  0.50400000000E-02 0.  1.
    5000001    1    1    2    0    0  0.22625160496E+02 -0.62114128208E+02 -0.63492441475E+02  0.11970945215E+03  0.77000000000E+02 0.  0.
   -5000001    1    1    2    0    0 -0.22625160496E+02  0.62114128208E+02 -0.28533577545E+02  0.10541929547E+03  0.77000000000E+02 0.  0.
<mgrwt>
<rscale>  0 0.20546086E+03</rscale>
<asrwt>0</asrwt>
<pdfrwt beam="1">  1        1 0.22653912E-01 0.20546086E+03</pdfrwt>
<pdfrwt beam="2">  1       -1 0.95073378E-02 0.20546086E+03</pdfrwt>
<totfact> 0.13859133E+04</totfact>
</mgrwt>
</event>
<event>
 4    1  0.3352993E-004  0.2592713E+03  0.7818608E-02  0.1107582E+00
          1   -1    0    0  501    0  0.00000000000E+00  0.00000000000E+00  0.18375017402E+04  0.18375017402E+04  0.50400000000E-02 0.  1.
         -1   -1    0    0    0  501 -0.00000000000E+00 -0.00000000000E+00 -0.91457867022E+01  0.91457880909E+01  0.50400000000E-02 0. -1.
    5000001    1    1    2    0    0  0.50662398511E+01  0.93726968869E+02  0.59044006330E+03  0.60279256783E+03  0.77000000000E+02 0.  0.
   -5000001    1    1    2    0    0 -0.50662398511E+01 -0.93726968869E+02  0.12379158902E+04  0.12438549605E+04  0.77000000000E+02 0.  0.
<mgrwt>
<rscale>  0 0.25927129E+03</rscale>
<asrwt>0</asrwt>
<pdfrwt beam="1">  1        1 0.26249995E+00 0.25927129E+03</pdfrwt>
<pdfrwt beam="2">  1       -1 0.13065426E-02 0.25927129E+03</pdfrwt>
<totfact> 0.66788078E+03</totfact>
</mgrwt>
</event>
<event>
 4    1  0.3352993E-004  0.1946301E+03  0.7818608E-02  0.1154350E+00
          1   -1    0    0  501    0  0.00000000000E+00  0.00000000000E+00  0.93191303623E+03  0.93191303624E+03  0.50400000000E-02 0.  1.
         -1   -1    0    0    0  501 -0.00000000000E+00 -0.00000000000E+00 -0.10162128136E+02  0.10162129385E+02  0.50400000000E-02 0. -1.
    5000001    1    1    2    0    0  0.37729520035E+02 -0.45996867057E+02  0.46770670894E+03  0.47772146074E+03  0.77000000000E+02 0.  0.
   -5000001    1    1    2    0    0 -0.37729520035E+02  0.45996867057E+02  0.45404419915E+03  0.46435370489E+03  0.77000000000E+02 0.  0.
<mgrwt>
<rscale>  0 0.19463011E+03</rscale>
<asrwt>0</asrwt>
<pdfrwt beam="1">  1        1 0.13313037E+00 0.19463011E+03</pdfrwt>
<pdfrwt beam="2">  1       -1 0.14517334E-02 0.19463011E+03</pdfrwt>
<totfact> 0.21759527E+04</totfact>
</mgrwt>
</event>
<event>
 4    1  0.3352993E-004  0.1750454E+03  0.7818608E-02  0.1172686E+00
         -1   -1    0    0    0  501 -0.00000000000E+00  0.00000000000E+00  0.93521312362E+03  0.93521312363E+03  0.50400000000E-02 0.  1.
          1   -1    0    0  501    0  0.00000000000E+00 -0.00000000000E+00 -0.81908813440E+01  0.81908828946E+01  0.50400000000E-02 0. -1.
    5000001    1    1    2    0    0 -0.11797649016E+02 -0.32468146854E+02  0.58850243857E+03  0.59452290560E+03  0.77000000000E+02 0.  0.
   -5000001    1    1    2    0    0  0.11797649016E+02  0.32468146854E+02  0.33851980371E+03  0.34888110093E+03  0.77000000000E+02 0.  0.
<mgrwt>
<rscale>  0 0.17504537E+03</rscale>
<asrwt>0</asrwt>
<pdfrwt beam="1">  1        1 0.11701264E-02 0.17504537E+03</pdfrwt>
<pdfrwt beam="2">  1       -1 0.13360183E+00 0.17504537E+03</pdfrwt>
<totfact> 0.63956653E+03</totfact>
</mgrwt>
</event>
<event>
 4    1  0.3352993E-004  0.3641508E+03  0.7818608E-02  0.1056952E+00
          1   -1    0    0  501    0  0.00000000000E+00  0.00000000000E+00  0.12200343718E+04  0.12200343718E+04  0.50400000000E-02 0.  1.
         -1   -1    0    0    0  501 -0.00000000000E+00 -0.00000000000E+00 -0.27172559922E+02  0.27172560390E+02  0.50400000000E-02 0. -1.
    5000001    1    1    2    0    0 -0.39667108647E+02  0.96866024797E+02  0.15961651380E+03  0.20582258803E+03  0.77000000000E+02 0.  0.
   -5000001    1    1    2    0    0  0.39667108647E+02 -0.96866024797E+02  0.10332452981E+04  0.10413843442E+04  0.77000000000E+02 0.  0.
<mgrwt>
<rscale>  0 0.36415083E+03</rscale>
<asrwt>0</asrwt>
<pdfrwt beam="1">  1        1 0.17429063E+00 0.36415083E+03</pdfrwt>
<pdfrwt beam="2">  1       -1 0.38817942E-02 0.36415083E+03</pdfrwt>
<totfact> 0.32963709E+03</totfact>
</mgrwt>
</event>
<event>
 4    1  0.3352993E-004  0.2539562E+03  0.7818608E-02  0.1110830E+00
         -1   -1    0    0    0  501 -0.00000000000E+00  0.00000000000E+00  0.80794568290E+02  0.80794568447E+02  0.50400000000E-02 0. -1.
          1   -1    0    0  501    0  0.00000000000E+00 -0.00000000000E+00 -0.19956095175E+03  0.19956095181E+03  0.50400000000E-02 0.  1.
    5000001    1    1    2    0    0 -0.84664327979E+02  0.31125676260E+02 -0.93072501803E+01  0.11896420075E+03  0.77000000000E+02 0.  0.
   -5000001    1    1    2    0    0  0.84664327979E+02 -0.31125676260E+02 -0.10945913328E+03  0.16139131951E+03  0.77000000000E+02 0.  0.
<mgrwt>
<rscale>  0 0.25395622E+03</rscale>
<asrwt>0</asrwt>
<pdfrwt beam="1">  1        1 0.28508707E-01 0.25395622E+03</pdfrwt>
<pdfrwt beam="2">  1       -1 0.11542081E-01 0.25395622E+03</pdfrwt>
<totfact> 0.77677889E+03</totfact>
</mgrwt>
</event>
<event>
 4    1  0.3352993E-004  0.2116279E+03  0.7818608E-02  0.1140283E+00
         -1   -1    0    0    0  501 -0.00000000000E+00  0.00000000000E+00  0.15390744902E+02  0.15390745728E+02  0.50400000000E-02 0.  1.
          1   -1    0    0  501    0  0.00000000000E+00 -0.00000000000E+00 -0.72748871047E+03  0.72748871049E+03  0.50400000000E-02 0. -1.
    5000001    1    1    2    0    0 -0.20973558647E+02 -0.60513999893E+02 -0.23619573408E+03  0.25655264400E+03  0.77000000000E+02 0.  0.
   -5000001    1    1    2    0    0  0.20973558647E+02  0.60513999893E+02 -0.47590223149E+03  0.48632681222E+03  0.77000000000E+02 0.  0.
<mgrwt>
<rscale>  0 0.21162791E+03</rscale>
<asrwt>0</asrwt>
<pdfrwt beam="1">  1        1 0.10392694E+00 0.21162791E+03</pdfrwt>
<pdfrwt beam="2">  1       -1 0.21986784E-02 0.21162791E+03</pdfrwt>
<totfact> 0.17368058E+04</totfact>
</mgrwt>
</event>
<event>
 4    1  0.3352993E-004  0.1942728E+03  0.7818608E-02  0.1154663E+00
         -1   -1    0    0    0  501 -0.00000000000E+00  0.00000000000E+00  0.40210445584E+02  0.40210445900E+02  0.50400000000E-02 0. -1.
          1   -1    0    0  501    0  0.00000000000E+00 -0.00000000000E+00 -0.23465241567E+03  0.23465241572E+03  0.50400000000E-02 0.  1.
    5000001    1    1    2    0    0  0.58672349267E+02 -0.25584650887E+01 -0.86493635180E+02  0.12984274812E+03  0.77000000000E+02 0.  0.
   -5000001    1    1    2    0    0 -0.58672349267E+02  0.25584650887E+01 -0.10794833490E+03  0.14502011350E+03  0.77000000000E+02 0.  0.
<mgrwt>
<rscale>  0 0.19427278E+03</rscale>
<asrwt>0</asrwt>
<pdfrwt beam="1">  1        1 0.33521773E-01 0.19427278E+03</pdfrwt>
<pdfrwt beam="2">  1       -1 0.57443495E-02 0.19427278E+03</pdfrwt>
<totfact> 0.18070813E+04</totfact>
</mgrwt>
</event>
<event>
 4    1  0.3352993E-004  0.2533868E+03  0.7818608E-02  0.1111183E+00
         -1   -1    0    0    0  501 -0.00000000000E+00  0.00000000000E+00  0.38421617553E+02  0.38421617883E+02  0.50400000000E-02 0. -1.
          1   -1    0    0  501    0  0.00000000000E+00 -0.00000000000E+00 -0.41776538429E+03  0.41776538432E+03  0.50400000000E-02 0.  1.
    5000001    1    1    2    0    0 -0.64738669135E+02 -0.41401382809E+02 -0.30658502924E+03  0.32531300302E+03  0.77000000000E+02 0.  0.
   -5000001    1    1    2    0    0  0.64738669135E+02  0.41401382809E+02 -0.72758737496E+02  0.13087399918E+03  0.77000000000E+02 0.  0.
<mgrwt>
<rscale>  0 0.25338683E+03</rscale>
<asrwt>0</asrwt>
<pdfrwt beam="1">  1        1 0.59680767E-01 0.25338683E+03</pdfrwt>
<pdfrwt beam="2">  1       -1 0.54888028E-02 0.25338683E+03</pdfrwt>
<totfact> 0.95306327E+03</totfact>
</mgrwt>
</event>
<event>
 4    1  0.3352993E-004  0.2701941E+03  0.7818608E-02  0.1101169E+00
          1   -1    0    0  501    0  0.00000000000E+00  0.00000000000E+00  0.12993554650E+03  0.12993554660E+03  0.50400000000E-02 0.  1.
         -1   -1    0    0    0  501 -0.00000000000E+00 -0.00000000000E+00 -0.14046358709E+03  0.14046358718E+03  0.50400000000E-02 0. -1.
    5000001    1    1    2    0    0 -0.10846151800E+01  0.93473391893E+02  0.54645934153E+02  0.13286696166E+03  0.77000000000E+02 0.  0.
   -5000001    1    1    2    0    0  0.10846151800E+01 -0.93473391893E+02 -0.65173974746E+02  0.13753217211E+03  0.77000000000E+02 0.  0.
<mgrwt>
<rscale>  0 0.27019410E+03</rscale>
<asrwt>0</asrwt>
<pdfrwt beam="1">  1        1 0.18562221E-01 0.27019410E+03</pdfrwt>
<pdfrwt beam="2">  1       -1 0.20066227E-01 0.27019410E+03</pdfrwt>
<totfact> 0.55974497E+03</totfact>
</mgrwt>
</event>
<event>
 4    1  0.3352993E-004  0.2570053E+03  0.7818608E-02  0.1108956E+00
         -1   -1    0    0    0  501 -0.00000000000E+00  0.00000000000E+00  0.12597877470E+02  0.12597878478E+02  0.50400000000E-02 0. -1.
          1   -1    0    0  501    0  0.00000000000E+00 -0.00000000000E+00 -0.13107707553E+04  0.13107707554E+04  0.50400000000E-02 0.  1.
    5000001    1    1    2    0    0  0.58058016115E+02  0.84243581744E+02 -0.70459644146E+03  0.71613745860E+03  0.77000000000E+02 0.  0.
   -5000001    1    1    2    0    0 -0.58058016115E+02 -0.84243581744E+02 -0.59357643642E+03  0.60723117523E+03  0.77000000000E+02 0.  0.
<mgrwt>
<rscale>  0 0.25700529E+03</rscale>
<asrwt>0</asrwt>
<pdfrwt beam="1">  1        1 0.18725288E+00 0.25700529E+03</pdfrwt>
<pdfrwt beam="2">  1       -1 0.17996977E-02 0.25700529E+03</pdfrwt>
<totfact> 0.88916434E+03</totfact>
</mgrwt>
</event>
<event>
 4    1  0.3352993E-004  0.1800310E+03  0.7818608E-02  0.1167773E+00
         -1   -1    0    0    0  501 -0.00000000000E+00  0.00000000000E+00  0.19409494556E+02  0.19409495211E+02  0.50400000000E-02 0.  1.
          1   -1    0    0  501    0  0.00000000000E+00 -0.00000000000E+00 -0.41746543180E+03  0.41746543183E+03  0.50400000000E-02 0. -1.
    5000001    1    1    2    0    0  0.36636889738E+02  0.37109887235E+01 -0.26842209182E+03  0.28166549754E+03  0.77000000000E+02 0.  0.
   -5000001    1    1    2    0    0 -0.36636889738E+02 -0.37109887235E+01 -0.12963384542E+03  0.15520942950E+03  0.77000000000E+02 0.  0.
<mgrwt>
<rscale>  0 0.18003103E+03</rscale>
<asrwt>0</asrwt>
<pdfrwt beam="1">  1        1 0.59637914E-01 0.18003103E+03</pdfrwt>
<pdfrwt beam="2">  1       -1 0.27727852E-02 0.18003103E+03</pdfrwt>
<totfact> 0.25639002E+04</totfact>
</mgrwt>
</event>
<event>
 4    1  0.3352993E-004  0.1958791E+03  0.7818608E-02  0.1153263E+00
          1   -1    0    0  501    0  0.00000000000E+00  0.00000000000E+00  0.23551738481E+04  0.23551738481E+04  0.50400000000E-02 0.  1.
         -1   -1    0    0    0  501 -0.00000000000E+00 -0.00000000000E+00 -0.40727986329E+01  0.40728017514E+01  0.50400000000E-02 0. -1.
    5000001    1    1    2    0    0  0.19677575947E+02 -0.51602440409E+02  0.87731258266E+03  0.88241508744E+03  0.77000000000E+02 0.  0.
   -5000001    1    1    2    0    0 -0.19677575947E+02  0.51602440409E+02  0.14737884668E+04  0.14768315624E+04  0.77000000000E+02 0.  0.
<mgrwt>
<rscale>  0 0.19587907E+03</rscale>
<asrwt>0</asrwt>
<pdfrwt beam="1">  1        1 0.33645356E+00 0.19587907E+03</pdfrwt>
<pdfrwt beam="2">  1       -1 0.58182833E-03 0.19587907E+03</pdfrwt>
<totfact> 0.10389498E+04</totfact>
</mgrwt>
</event>
<event>
 4    1  0.3352993E-004  0.2048514E+03  0.7818608E-02  0.1145709E+00
          1   -1    0    0  501    0  0.00000000000E+00  0.00000000000E+00  0.15879725272E+03  0.15879725280E+03  0.50400000000E-02 0. -1.
         -1   -1    0    0    0  501 -0.00000000000E+00 -0.00000000000E+00 -0.66065517825E+02  0.66065518017E+02  0.50400000000E-02 0.  1.
    5000001    1    1    2    0    0  0.27923076939E+02  0.51176443998E+02  0.83804828322E+02  0.12787093452E+03  0.77000000000E+02 0.  0.
   -5000001    1    1    2    0    0 -0.27923076939E+02 -0.51176443998E+02  0.89269065706E+01  0.96991836291E+02  0.77000000000E+02 0.  0.
<mgrwt>
<rscale>  0 0.20485139E+03</rscale>
<asrwt>0</asrwt>
<pdfrwt beam="1">  1        1 0.22685322E-01 0.20485139E+03</pdfrwt>
<pdfrwt beam="2">  1       -1 0.94379310E-02 0.20485139E+03</pdfrwt>
<totfact> 0.13988189E+04</totfact>
</mgrwt>
</event>
<event>
 4    1  0.3352993E-004  0.2312373E+03  0.7818608E-02  0.1125772E+00
          1   -1    0    0  501    0  0.00000000000E+00  0.00000000000E+00  0.34234817753E+02  0.34234818124E+02  0.50400000000E-02 0.  1.
         -1   -1    0    0    0  501 -0.00000000000E+00 -0.00000000000E+00 -0.39047021767E+03  0.39047021770E+03  0.50400000000E-02 0. -1.
    5000001    1    1    2    0    0 -0.28468220893E+02  0.49295364769E+02 -0.59113790899E+02  0.11253405201E+03  0.77000000000E+02 0.  0.
   -5000001    1    1    2    0    0  0.28468220893E+02 -0.49295364769E+02 -0.29712160902E+03  0.31217098381E+03  0.77000000000E+02 0.  0.
<mgrwt>
<rscale>  0 0.23123734E+03</rscale>
<asrwt>0</asrwt>
<pdfrwt beam="1">  1        1 0.48906885E-02 0.23123734E+03</pdfrwt>
<pdfrwt beam="2">  1       -1 0.55781457E-01 0.23123734E+03</pdfrwt>
<totfact> 0.56599430E+03</totfact>
</mgrwt>
</event>
<event>
 4    1  0.3352993E-004  0.2123544E+03  0.7818608E-02  0.1139715E+00
         -1   -1    0    0    0  501 -0.00000000000E+00  0.00000000000E+00  0.11992947689E+03  0.11992947699E+03  0.50400000000E-02 0. -1.
          1   -1    0    0  501    0  0.00000000000E+00 -0.00000000000E+00 -0.94001850195E+02  0.94001850330E+02  0.50400000000E-02 0.  1.
    5000001    1    1    2    0    0  0.18315346659E+02 -0.70750501578E+02  0.11077113833E+02  0.10673700318E+03  0.77000000000E+02 0.  0.
   -5000001    1    1    2    0    0 -0.18315346659E+02  0.70750501578E+02  0.14850512860E+02  0.10719432415E+03  0.77000000000E+02 0.  0.
<mgrwt>
<rscale>  0 0.21235435E+03</rscale>
<asrwt>0</asrwt>
<pdfrwt beam="1">  1        1 0.13428836E-01 0.21235435E+03</pdfrwt>
<pdfrwt beam="2">  1       -1 0.17132782E-01 0.21235435E+03</pdfrwt>
<totfact> 0.10883622E+04</totfact>
</mgrwt>
</event>
<event>
 4    1  0.3352993E-004  0.2871954E+03  0.7818608E-02  0.1091823E+00
          1   -1    0    0  501    0  0.00000000000E+00  0.00000000000E+00  0.55561808023E+02  0.55561808252E+02  0.50400000000E-02 0.  1.
         -1   -1    0    0    0  501 -0.00000000000E+00 -0.00000000000E+00 -0.37112360972E+03  0.37112360976E+03  0.50400000000E-02 0. -1.
    5000001    1    1    2    0    0 -0.11587858467E+03 -0.10752651973E+02 -0.20811585333E+03  0.25056870179E+03  0.77000000000E+02 0.  0.
   -5000001    1    1    2    0    0  0.11587858467E+03  0.10752651973E+02 -0.10744594837E+03  0.17611671622E+03  0.77000000000E+02 0.  0.
<mgrwt>
<rscale>  0 0.28719540E+03</rscale>
<asrwt>0</asrwt>
<pdfrwt beam="1">  1        1 0.79374013E-02 0.28719540E+03</pdfrwt>
<pdfrwt beam="2">  1       -1 0.53017657E-01 0.28719540E+03</pdfrwt>
<totfact> 0.32290697E+03</totfact>
</mgrwt>
</event>
<event>
 4    1  0.3352993E-004  0.1808545E+03  0.7818608E-02  0.1166979E+00
         -1   -1    0    0    0  501 -0.00000000000E+00  0.00000000000E+00  0.13219221923E+02  0.13219222884E+02  0.50400000000E-02 0.  1.
          1   -1    0    0  501    0  0.00000000000E+00 -0.00000000000E+00 -0.61857531924E+03  0.61857531926E+03  0.50400000000E-02 0. -1.
    5000001    1    1    2    0    0 -0.75396732379E+01  0.46143923656E+02 -0.27517633934E+03  0.28954641440E+03  0.77000000000E+02 0.  0.
   -5000001    1    1    2    0    0  0.75396732379E+01 -0.46143923656E+02 -0.33017975798E+03  0.34224812774E+03  0.77000000000E+02 0.  0.
<mgrwt>
<rscale>  0 0.18085447E+03</rscale>
<asrwt>0</asrwt>
<pdfrwt beam="1">  1        1 0.88367885E-01 0.18085447E+03</pdfrwt>
<pdfrwt beam="2">  1       -1 0.18884607E-02 0.18085447E+03</pdfrwt>
<totfact> 0.26853415E+04</totfact>
</mgrwt>
</event>
<event>
 4    1  0.3352993E-004  0.1684756E+03  0.7818608E-02  0.1179447E+00
          1   -1    0    0  501    0  0.00000000000E+00  0.00000000000E+00  0.91446513741E+03  0.91446513743E+03  0.50400000000E-02 0. -1.
         -1   -1    0    0    0  501 -0.00000000000E+00 -0.00000000000E+00 -0.77597367116E+01  0.77597383484E+01  0.50400000000E-02 0.  1.
    5000001    1    1    2    0    0  0.99674794750E+01 -0.21430046365E+02  0.31833254513E+03  0.32836444208E+03  0.77000000000E+02 0.  0.
   -5000001    1    1    2    0    0 -0.99674794750E+01  0.21430046365E+02  0.58837285557E+03  0.59386043369E+03  0.77000000000E+02 0.  0.
<mgrwt>
<rscale>  0 0.16847563E+03</rscale>
<asrwt>0</asrwt>
<pdfrwt beam="1">  1        1 0.13063786E+00 0.16847563E+03</pdfrwt>
<pdfrwt beam="2">  1       -1 0.11085341E-02 0.16847563E+03</pdfrwt>
<totfact> 0.32693018E+04</totfact>
</mgrwt>
</event>
<event>
 4    1  0.3352993E-004  0.2653589E+03  0.7818608E-02  0.1103966E+00
          1   -1    0    0  501    0  0.00000000000E+00  0.00000000000E+00  0.35755870837E+04  0.35755870837E+04  0.50400000000E-02 0.  1.
         -1   -1    0    0    0  501 -0.00000000000E+00 -0.00000000000E+00 -0.49233393944E+01  0.49233419741E+01  0.50400000000E-02 0. -1.
    5000001    1    1    2    0    0 -0.41792785886E+02 -0.83607664909E+02  0.25166963728E+04  0.25196084044E+04  0.77000000000E+02 0.  0.
   -5000001    1    1    2    0    0  0.41792785886E+02  0.83607664909E+02  0.10539673715E+04  0.10609020213E+04  0.77000000000E+02 0.  0.
<mgrwt>
<rscale>  0 0.26535888E+03</rscale>
<asrwt>0</asrwt>
<pdfrwt beam="1">  1        1 0.51080066E+00 0.26535888E+03</pdfrwt>
<pdfrwt beam="2">  1       -1 0.70333093E-03 0.26535888E+03</pdfrwt>
<totfact> 0.13370842E+03</totfact>
</mgrwt>
</event>
<event>
 4    1  0.3352993E-004  0.2011817E+03  0.7818608E-02  0.1148746E+00
          1   -1    0    0  501    0  0.00000000000E+00  0.00000000000E+00  0.34548513131E+03  0.34548513135E+03  0.50400000000E-02 0.  1.
         -1   -1    0    0    0  501 -0.00000000000E+00 -0.00000000000E+00 -0.29287856243E+02  0.29287856676E+02  0.50400000000E-02 0. -1.
    5000001    1    1    2    0    0  0.19356318849E+02 -0.61713481229E+02  0.15342360434E+03  0.18344215222E+03  0.77000000000E+02 0.  0.
   -5000001    1    1    2    0    0 -0.19356318849E+02  0.61713481229E+02  0.16277367073E+03  0.19133083580E+03  0.77000000000E+02 0.  0.
<mgrwt>
<rscale>  0 0.20118170E+03</rscale>
<asrwt>0</asrwt>
<pdfrwt beam="1">  1        1 0.49355019E-01 0.20118170E+03</pdfrwt>
<pdfrwt beam="2">  1       -1 0.41839795E-02 0.20118170E+03</pdfrwt>
<totfact> 0.17920069E+04</totfact>
</mgrwt>
</event>
<event>
 4    1  0.3352993E-004  0.3845305E+03  0.7818608E-02  0.1049272E+00
          1   -1    0    0  501    0  0.00000000000E+00  0.00000000000E+00  0.21818715368E+02  0.21818715950E+02  0.50400000000E-02 0. -1.
         -1   -1    0    0    0  501 -0.00000000000E+00 -0.00000000000E+00 -0.16942297794E+04  0.16942297794E+04  0.50400000000E-02 0.  1.
    5000001    1    1    2    0    0  0.25633939918E+02  0.16731712141E+03 -0.61827163695E+03  0.64563219797E+03  0.77000000000E+02 0.  0.
   -5000001    1    1    2    0    0 -0.25633939918E+02 -0.16731712141E+03 -0.10541394271E+04  0.10704162974E+04  0.77000000000E+02 0.  0.
<mgrwt>
<rscale>  0 0.38453046E+03</rscale>
<asrwt>0</asrwt>
<pdfrwt beam="1">  1        1 0.31169604E-02 0.38453046E+03</pdfrwt>
<pdfrwt beam="2">  1       -1 0.24203274E+00 0.38453046E+03</pdfrwt>
<totfact> 0.28648366E+02</totfact>
</mgrwt>
</event>
<event>
 4    1  0.3352993E-004  0.2151133E+03  0.7818608E-02  0.1137580E+00
         -1   -1    0    0    0  501 -0.00000000000E+00  0.00000000000E+00  0.79315067421E+02  0.79315067581E+02  0.50400000000E-02 0. -1.
          1   -1    0    0  501    0  0.00000000000E+00 -0.00000000000E+00 -0.14585411036E+03  0.14585411045E+03  0.50400000000E-02 0.  1.
    5000001    1    1    2    0    0 -0.29791279486E+02 -0.68054652921E+02 -0.44758614227E+02  0.11597969506E+03  0.77000000000E+02 0.  0.
   -5000001    1    1    2    0    0  0.29791279486E+02  0.68054652921E+02 -0.21780428716E+02  0.10918948298E+03  0.77000000000E+02 0.  0.
<mgrwt>
<rscale>  0 0.21511326E+03</rscale>
<asrwt>0</asrwt>
<pdfrwt beam="1">  1        1 0.20836302E-01 0.21511326E+03</pdfrwt>
<pdfrwt beam="2">  1       -1 0.11330724E-01 0.21511326E+03</pdfrwt>
<totfact> 0.11801030E+04</totfact>
</mgrwt>
</event>
<event>
 4    1  0.3352993E-004  0.4024867E+03  0.7818608E-02  0.1042922E+00
          1   -1    0    0  501    0  0.00000000000E+00  0.00000000000E+00  0.54987388941E+03  0.54987388943E+03  0.50400000000E-02 0.  1.
         -1   -1    0    0    0  501 -0.00000000000E+00 -0.00000000000E+00 -0.73651208926E+02  0.73651209099E+02  0.50400000000E-02 0. -1.
    5000001    1    1    2    0    0 -0.17034388022E+03  0.59307343394E+00  0.35354866405E+03  0.39992880256E+03  0.77000000000E+02 0.  0.
   -5000001    1    1    2    0    0  0.17034388022E+03 -0.59307343394E+00  0.12267401643E+03  0.22359629597E+03  0.77000000000E+02 0.  0.
<mgrwt>
<rscale>  0 0.40248665E+03</rscale>
<asrwt>0</asrwt>
<pdfrwt beam="1">  1        1 0.78553413E-01 0.40248665E+03</pdfrwt>
<pdfrwt beam="2">  1       -1 0.10521601E-01 0.40248665E+03</pdfrwt>
<totfact> 0.24843508E+03</totfact>
</mgrwt>
</event>
<event>
 4    1  0.3352993E-004  0.2510140E+03  0.7818608E-02  0.1112666E+00
          1   -1    0    0  501    0  0.00000000000E+00  0.00000000000E+00  0.92158859956E+03  0.92158859958E+03  0.50400000000E-02 0.  1.
         -1   -1    0    0    0  501 -0.00000000000E+00 -0.00000000000E+00 -0.17092233237E+02  0.17092233980E+02  0.50400000000E-02 0. -1.
    5000001    1    1    2    0    0 -0.41095761382E+02 -0.66649364681E+02  0.67947068010E+03  0.68828802440E+03  0.77000000000E+02 0.  0.
   -5000001    1    1    2    0    0  0.41095761382E+02  0.66649364681E+02  0.22502568622E+03  0.25039280915E+03  0.77000000000E+02 0.  0.
<mgrwt>
<rscale>  0 0.25101400E+03</rscale>
<asrwt>0</asrwt>
<pdfrwt beam="1">  1        1 0.13165555E+00 0.25101400E+03</pdfrwt>
<pdfrwt beam="2">  1       -1 0.24417470E-02 0.25101400E+03</pdfrwt>
<totfact> 0.10533565E+04</totfact>
</mgrwt>
</event>
<event>
 4    1  0.3352993E-004  0.2361398E+03  0.7818608E-02  0.1122391E+00
          1   -1    0    0  501    0  0.00000000000E+00  0.00000000000E+00  0.63748422740E+02  0.63748422939E+02  0.50400000000E-02 0.  1.
         -1   -1    0    0    0  501 -0.00000000000E+00 -0.00000000000E+00 -0.21867987081E+03  0.21867987087E+03  0.50400000000E-02 0. -1.
    5000001    1    1    2    0    0 -0.70075797431E+02 -0.54271839974E+02 -0.92377524805E+02  0.14939430072E+03  0.77000000000E+02 0.  0.
   -5000001    1    1    2    0    0  0.70075797431E+02  0.54271839974E+02 -0.62553923265E+02  0.13303399308E+03  0.77000000000E+02 0.  0.
<mgrwt>
<rscale>  0 0.23613976E+03</rscale>
<asrwt>0</asrwt>
<pdfrwt beam="1">  1        1 0.91069177E-02 0.23613976E+03</pdfrwt>
<pdfrwt beam="2">  1       -1 0.31239981E-01 0.23613976E+03</pdfrwt>
<totfact> 0.68306120E+03</totfact>
</mgrwt>
</event>
<event>
 4    1  0.3352993E-004  0.8329073E+03  0.7818608E-02  0.9513570E-01
         -1   -1    0    0    0  501 -0.00000000000E+00  0.00000000000E+00  0.47937796979E+03  0.47937796981E+03  0.50400000000E-02 0.  1.
          1   -1    0    0  501    0  0.00000000000E+00 -0.00000000000E+00 -0.36178889045E+03  0.36178889049E+03  0.50400000000E-02 0. -1.
    5000001    1    1    2    0    0 -0.36030097489E+03  0.16199463417E+03  0.16683942648E+03  0.43568732852E+03  0.77000000000E+02 0.  0.
   -5000001    1    1    2    0    0  0.36030097489E+03 -0.16199463417E+03 -0.49250347143E+02  0.40547953179E+03  0.77000000000E+02 0.  0.
<mgrwt>
<rscale>  0 0.83290725E+03</rscale>
<asrwt>0</asrwt>
<pdfrwt beam="1">  1        1 0.51684127E-01 0.83290725E+03</pdfrwt>
<pdfrwt beam="2">  1       -1 0.68482567E-01 0.83290725E+03</pdfrwt>
<totfact> 0.16482293E+02</totfact>
</mgrwt>
</event>
<event>
 4    1  0.3352993E-004  0.1042930E+04  0.7818608E-02  0.9262674E-01
         -1   -1    0    0    0  501 -0.00000000000E+00  0.00000000000E+00  0.10331593478E+03  0.10331593491E+03  0.50400000000E-02 0. -1.
          1   -1    0    0  501    0  0.00000000000E+00 -0.00000000000E+00 -0.26319845071E+04  0.26319845071E+04  0.50400000000E-02 0.  1.
    5000001    1    1    2    0    0  0.28133810033E+02 -0.48022843247E+03 -0.17520877919E+04  0.18185575298E+04  0.77000000000E+02 0.  0.
   -5000001    1    1    2    0    0 -0.28133810033E+02  0.48022843247E+03 -0.77658078046E+03  0.91674291227E+03  0.77000000000E+02 0.  0.
<mgrwt>
<rscale>  0 0.10429304E+04</rscale>
<asrwt>0</asrwt>
<pdfrwt beam="1">  1        1 0.37599774E+00 0.10429304E+04</pdfrwt>
<pdfrwt beam="2">  1       -1 0.14759421E-01 0.10429304E+04</pdfrwt>
<totfact> 0.50584581E+01</totfact>
</mgrwt>
</event>
<event>
 4    1  0.3352993E-004  0.2224072E+03  0.7818608E-02  0.1132101E+00
          1   -1    0    0  501    0  0.00000000000E+00  0.00000000000E+00  0.25421779189E+03  0.25421779194E+03  0.50400000000E-02 0. -1.
         -1   -1    0    0    0  501 -0.00000000000E+00 -0.00000000000E+00 -0.48644275483E+02  0.48644275744E+02  0.50400000000E-02 0.  1.
    5000001    1    1    2    0    0  0.52255973929E+02 -0.31712502606E+02  0.32016962188E+02  0.10339465896E+03  0.77000000000E+02 0.  0.
   -5000001    1    1    2    0    0 -0.52255973929E+02  0.31712502606E+02  0.17355655422E+03  0.19946740873E+03  0.77000000000E+02 0.  0.
<mgrwt>
<rscale>  0 0.22240720E+03</rscale>
<asrwt>0</asrwt>
<pdfrwt beam="1">  1        1 0.36316827E-01 0.22240720E+03</pdfrwt>
<pdfrwt beam="2">  1       -1 0.69491823E-02 0.22240720E+03</pdfrwt>
<totfact> 0.12389509E+04</totfact>
</mgrwt>
</event>
<event>
 4    1  0.3352993E-004  0.2606468E+03  0.7818608E-02  0.1106755E+00
          1   -1    0    0  501    0  0.00000000000E+00  0.00000000000E+00  0.28050940263E+03  0.28050940267E+03  0.50400000000E-02 0.  1.
         -1   -1    0    0    0  501 -0.00000000000E+00 -0.00000000000E+00 -0.60547643042E+02  0.60547643252E+02  0.50400000000E-02 0. -1.
    5000001    1    1    2    0    0 -0.34242692712E+02 -0.85793068558E+02  0.17569548866E+03  0.21291058535E+03  0.77000000000E+02 0.  0.
   -5000001    1    1    2    0    0  0.34242692712E+02  0.85793068558E+02  0.44266270922E+02  0.12814646058E+03  0.77000000000E+02 0.  0.
<mgrwt>
<rscale>  0 0.26064676E+03</rscale>
<asrwt>0</asrwt>
<pdfrwt beam="1">  1        1 0.40072771E-01 0.26064676E+03</pdfrwt>
<pdfrwt beam="2">  1       -1 0.86496635E-02 0.26064676E+03</pdfrwt>
<totfact> 0.79136105E+03</totfact>
</mgrwt>
</event>
<event>
 4    1  0.3352993E-004  0.2932967E+03  0.7818608E-02  0.1088640E+00
         -1   -1    0    0    0  501 -0.00000000000E+00  0.00000000000E+00  0.13633572576E+02  0.13633573508E+02  0.50400000000E-02 0. -1.
          1   -1    0    0  501    0  0.00000000000E+00 -0.00000000000E+00 -0.15774105427E+04  0.15774105427E+04  0.50400000000E-02 0.  1.
    5000001    1    1    2    0    0  0.11761996893E+03  0.34124476416E+02 -0.91228488932E+03  0.92368374256E+03  0.77000000000E+02 0.  0.
   -5000001    1    1    2    0    0 -0.11761996893E+03 -0.34124476416E+02 -0.65149208083E+03  0.66736037369E+03  0.77000000000E+02 0.  0.
<mgrwt>
<rscale>  0 0.29329672E+03</rscale>
<asrwt>0</asrwt>
<pdfrwt beam="1">  1        1 0.22534425E+00 0.29329672E+03</pdfrwt>
<pdfrwt beam="2">  1       -1 0.19476543E-02 0.29329672E+03</pdfrwt>
<totfact> 0.53913471E+03</totfact>
</mgrwt>
</event>
<event>
 4    1  0.3352993E-004  0.2285292E+03  0.7818608E-02  0.1127679E+00
         -1   -1    0    0    0  501 -0.00000000000E+00  0.00000000000E+00  0.24404821278E+03  0.24404821284E+03  0.50400000000E-02 0. -1.
          1   -1    0    0  501    0  0.00000000000E+00 -0.00000000000E+00 -0.53499282407E+02  0.53499282645E+02  0.50400000000E-02 0.  1.
    5000001    1    1    2    0    0  0.59420761915E+02  0.48360239997E+02  0.14145207457E+03  0.17834581341E+03  0.77000000000E+02 0.  0.
   -5000001    1    1    2    0    0 -0.59420761915E+02 -0.48360239997E+02  0.49096855804E+02  0.11920168207E+03  0.77000000000E+02 0.  0.
<mgrwt>
<rscale>  0 0.22852925E+03</rscale>
<asrwt>0</asrwt>
<pdfrwt beam="1">  1        1 0.76427546E-02 0.22852925E+03</pdfrwt>
<pdfrwt beam="2">  1       -1 0.34864031E-01 0.22852925E+03</pdfrwt>
<totfact> 0.71577122E+03</totfact>
</mgrwt>
</event>
<event>
 4    1  0.3352993E-004  0.5656868E+03  0.7818608E-02  0.9979269E-01
          1   -1    0    0  501    0  0.00000000000E+00  0.00000000000E+00  0.90817932221E+03  0.90817932222E+03  0.50400000000E-02 0.  1.
         -1   -1    0    0    0  501 -0.00000000000E+00 -0.00000000000E+00 -0.88088768213E+02  0.88088768358E+02  0.50400000000E-02 0. -1.
    5000001    1    1    2    0    0 -0.24498534532E+03 -0.11697316296E+03  0.44396120863E+03  0.52605236911E+03  0.77000000000E+02 0.  0.
   -5000001    1    1    2    0    0  0.24498534532E+03  0.11697316296E+03  0.37612934537E+03  0.47021572147E+03  0.77000000000E+02 0.  0.
<mgrwt>
<rscale>  0 0.56568683E+03</rscale>
<asrwt>0</asrwt>
<pdfrwt beam="1">  1        1 0.12973990E+00 0.56568683E+03</pdfrwt>
<pdfrwt beam="2">  1       -1 0.12584110E-01 0.56568683E+03</pdfrwt>
<totfact> 0.89582435E+02</totfact>
</mgrwt>
</event>
<event>
 4    1  0.3352993E-004  0.2896687E+03  0.7818608E-02  0.1090522E+00
          1   -1    0    0  501    0  0.00000000000E+00  0.00000000000E+00  0.10189099111E+03  0.10189099124E+03  0.50400000000E-02 0. -1.
         -1   -1    0    0    0  501 -0.00000000000E+00 -0.00000000000E+00 -0.20587678502E+03  0.20587678509E+03  0.50400000000E-02 0.  1.
    5000001    1    1    2    0    0 -0.85985801135E+02  0.86951117559E+02 -0.62290472003E+02  0.15736313972E+03  0.77000000000E+02 0.  0.
   -5000001    1    1    2    0    0  0.85985801135E+02 -0.86951117559E+02 -0.41695321907E+02  0.15040463660E+03  0.77000000000E+02 0.  0.
<mgrwt>
<rscale>  0 0.28966871E+03</rscale>
<asrwt>0</asrwt>
<pdfrwt beam="1">  1        1 0.14555856E-01 0.28966871E+03</pdfrwt>
<pdfrwt beam="2">  1       -1 0.29410969E-01 0.28966871E+03</pdfrwt>
<totfact> 0.40849375E+03</totfact>
</mgrwt>
</event>
<event>
 4    1  0.3352993E-004  0.2295330E+03  0.7818608E-02  0.1126969E+00
         -1   -1    0    0    0  501 -0.00000000000E+00  0.00000000000E+00  0.62243395055E+01  0.62243415460E+01  0.50400000000E-02 0. -1.
          1   -1    0    0  501    0  0.00000000000E+00 -0.00000000000E+00 -0.21161041275E+04  0.21161041275E+04  0.50400000000E-02 0.  1.
    5000001    1    1    2    0    0 -0.75475482041E+02 -0.32471156026E+02 -0.12599132954E+04  0.12649353487E+04  0.77000000000E+02 0.  0.
   -5000001    1    1    2    0    0  0.75475482041E+02  0.32471156026E+02 -0.84996649258E+03  0.85739312038E+03  0.77000000000E+02 0.  0.
<mgrwt>
<rscale>  0 0.22953303E+03</rscale>
<asrwt>0</asrwt>
<pdfrwt beam="1">  1        1 0.30230013E+00 0.22953303E+03</pdfrwt>
<pdfrwt beam="2">  1       -1 0.88919286E-03 0.22953303E+03</pdfrwt>
<totfact> 0.79000670E+03</totfact>
</mgrwt>
</event>
<event>
 4    1  0.3352993E-004  0.2009810E+03  0.7818608E-02  0.1148914E+00
         -1   -1    0    0    0  501 -0.00000000000E+00  0.00000000000E+00  0.10311469352E+02  0.10311470584E+02  0.50400000000E-02 0. -1.
          1   -1    0    0  501    0  0.00000000000E+00 -0.00000000000E+00 -0.97933086430E+03  0.97933086432E+03  0.50400000000E-02 0.  1.
    5000001    1    1    2    0    0  0.48611200041E+02 -0.24787793443E+02 -0.31451499227E+03  0.32836894469E+03  0.77000000000E+02 0.  0.
   -5000001    1    1    2    0    0 -0.48611200041E+02  0.24787793443E+02 -0.65450440268E+03  0.66127339021E+03  0.77000000000E+02 0.  0.
<mgrwt>
<rscale>  0 0.20098100E+03</rscale>
<asrwt>0</asrwt>
<pdfrwt beam="1">  1        1 0.13990435E+00 0.20098100E+03</pdfrwt>
<pdfrwt beam="2">  1       -1 0.14730678E-02 0.20098100E+03</pdfrwt>
<totfact> 0.19718292E+04</totfact>
</mgrwt>
</event>
<event>
 4    1  0.3352993E-004  0.4315752E+03  0.7818608E-02  0.1033364E+00
          1   -1    0    0  501    0  0.00000000000E+00  0.00000000000E+00  0.25428810042E+04  0.25428810042E+04  0.50400000000E-02 0.  1.
         -1   -1    0    0    0  501 -0.00000000000E+00 -0.00000000000E+00 -0.18311626152E+02  0.18311626845E+02  0.50400000000E-02 0. -1.
    5000001    1    1    2    0    0  0.19473197372E+03  0.18614830394E+02  0.97348411891E+03  0.99592539041E+03  0.77000000000E+02 0.  0.
   -5000001    1    1    2    0    0 -0.19473197372E+03 -0.18614830394E+02  0.15510852591E+04  0.15652672406E+04  0.77000000000E+02 0.  0.
<mgrwt>
<rscale>  0 0.43157519E+03</rscale>
<asrwt>0</asrwt>
<pdfrwt beam="1">  1        1 0.36326893E+00 0.43157519E+03</pdfrwt>
<pdfrwt beam="2">  1       -1 0.26159451E-02 0.43157519E+03</pdfrwt>
<totfact> 0.89073787E+02</totfact>
</mgrwt>
</event>
<event>
 4    1  0.3352993E-004  0.3143667E+03  0.7818608E-02  0.1078272E+00
          1   -1    0    0  501    0  0.00000000000E+00  0.00000000000E+00  0.13190860271E+04  0.13190860271E+04  0.50400000000E-02 0. -1.
         -1   -1    0    0    0  501 -0.00000000000E+00 -0.00000000000E+00 -0.18730088245E+02  0.18730088923E+02  0.50400000000E-02 0.  1.
    5000001    1    1    2    0    0 -0.11376921365E+03 -0.42080243504E+02  0.92145040306E+03  0.93258459465E+03  0.77000000000E+02 0.  0.
   -5000001    1    1    2    0    0  0.11376921365E+03  0.42080243504E+02  0.37890553578E+03  0.40523152137E+03  0.77000000000E+02 0.  0.
<mgrwt>
<rscale>  0 0.31436665E+03</rscale>
<asrwt>0</asrwt>
<pdfrwt beam="1">  1        1 0.18844086E+00 0.31436665E+03</pdfrwt>
<pdfrwt beam="2">  1       -1 0.26757270E-02 0.31436665E+03</pdfrwt>
<totfact> 0.49274443E+03</totfact>
</mgrwt>
</event>
<event>
 4    1  0.3352993E-004  0.4320116E+03  0.7818608E-02  0.1033226E+00
          1   -1    0    0  501    0  0.00000000000E+00  0.00000000000E+00  0.20316197076E+04  0.20316197077E+04  0.50400000000E-02 0.  1.
         -1   -1    0    0    0  501 -0.00000000000E+00 -0.00000000000E+00 -0.22966164561E+02  0.22966165114E+02  0.50400000000E-02 0. -1.
    5000001    1    1    2    0    0 -0.16431931331E+03 -0.11528258942E+03  0.11039277586E+04  0.11246672434E+04  0.77000000000E+02 0.  0.
   -5000001    1    1    2    0    0  0.16431931331E+03  0.11528258942E+03  0.90472578450E+03  0.92991862940E+03  0.77000000000E+02 0.  0.
<mgrwt>
<rscale>  0 0.43201163E+03</rscale>
<asrwt>0</asrwt>
<pdfrwt beam="1">  1        1 0.29023138E+00 0.43201163E+03</pdfrwt>
<pdfrwt beam="2">  1       -1 0.32808808E-02 0.43201163E+03</pdfrwt>
<totfact> 0.13078933E+03</totfact>
</mgrwt>
</event>
<event>
 4    1  0.3352993E-004  0.2287257E+03  0.7818608E-02  0.1127540E+00
          1   -1    0    0  501    0  0.00000000000E+00  0.00000000000E+00  0.19332247385E+04  0.19332247385E+04  0.50400000000E-02 0. -1.
         -1   -1    0    0    0  501 -0.00000000000E+00 -0.00000000000E+00 -0.67653070732E+01  0.67653089505E+01  0.50400000000E-02 0.  1.
    5000001    1    1    2    0    0  0.57650943489E+02  0.10506908218E+01  0.43865494870E+03  0.44907894546E+03  0.77000000000E+02 0.  0.
   -5000001    1    1    2    0    0 -0.57650943489E+02 -0.10506908218E+01  0.14878044827E+04  0.14909111020E+04  0.77000000000E+02 0.  0.
<mgrwt>
<rscale>  0 0.22872569E+03</rscale>
<asrwt>0</asrwt>
<pdfrwt beam="1">  1        1 0.27617526E+00 0.22872569E+03</pdfrwt>
<pdfrwt beam="2">  1       -1 0.96647155E-03 0.22872569E+03</pdfrwt>
<totfact> 0.90195248E+03</totfact>
</mgrwt>
</event>
<event>
 4    1  0.3352993E-004  0.3114031E+03  0.7818608E-02  0.1079675E+00
         -1   -1    0    0    0  501 -0.00000000000E+00  0.00000000000E+00  0.85819368559E+01  0.85819383359E+01  0.50400000000E-02 0. -1.
          1   -1    0    0  501    0  0.00000000000E+00 -0.00000000000E+00 -0.28248838029E+04  0.28248838029E+04  0.50400000000E-02 0.  1.
    5000001    1    1    2    0    0 -0.11344355686E+03 -0.63316446823E+02 -0.17529024635E+04  0.17593960496E+04  0.77000000000E+02 0.  0.
   -5000001    1    1    2    0    0  0.11344355686E+03  0.63316446823E+02 -0.10633994025E+04  0.10740696916E+04  0.77000000000E+02 0.  0.
<mgrwt>
<rscale>  0 0.31140312E+03</rscale>
<asrwt>0</asrwt>
<pdfrwt beam="1">  1        1 0.40355423E+00 0.31140312E+03</pdfrwt>
<pdfrwt beam="2">  1       -1 0.12259929E-02 0.31140312E+03</pdfrwt>
<totfact> 0.18320772E+03</totfact>
</mgrwt>
</event>
<event>
 4    1  0.3352993E-004  0.2687921E+03  0.7818608E-02  0.1101973E+00
         -1   -1    0    0    0  501 -0.00000000000E+00  0.00000000000E+00  0.65153890716E+03  0.65153890718E+03  0.50400000000E-02 0. -1.
          1   -1    0    0  501    0  0.00000000000E+00 -0.00000000000E+00 -0.27722508425E+02  0.27722508883E+02  0.50400000000E-02 0.  1.
    5000001    1    1    2    0    0  0.40799820719E+01 -0.11006780660E+03  0.30858942563E+03  0.33658283069E+03  0.77000000000E+02 0.  0.
   -5000001    1    1    2    0    0 -0.40799820719E+01  0.11006780660E+03  0.31522697310E+03  0.34267858537E+03  0.77000000000E+02 0.  0.
<mgrwt>
<rscale>  0 0.26879206E+03</rscale>
<asrwt>0</asrwt>
<pdfrwt beam="1">  1        1 0.39603589E-02 0.26879206E+03</pdfrwt>
<pdfrwt beam="2">  1       -1 0.93076975E-01 0.26879206E+03</pdfrwt>
<totfact> 0.27171126E+03</totfact>
</mgrwt>
</event>
<event>
 4    1  0.3352993E-004  0.3314804E+03  0.7818608E-02  0.1070484E+00
         -1   -1    0    0    0  501 -0.00000000000E+00  0.00000000000E+00  0.80958649840E+02  0.80958649997E+02  0.50400000000E-02 0. -1.
          1   -1    0    0  501    0  0.00000000000E+00 -0.00000000000E+00 -0.33930664150E+03  0.33930664154E+03  0.50400000000E-02 0.  1.
    5000001    1    1    2    0    0 -0.13466920311E+03  0.45746345623E+02 -0.17510223945E+03  0.23836593017E+03  0.77000000000E+02 0.  0.
   -5000001    1    1    2    0    0  0.13466920311E+03 -0.45746345623E+02 -0.83245752210E+02  0.18189936137E+03  0.77000000000E+02 0.  0.
<mgrwt>
<rscale>  0 0.33148036E+03</rscale>
<asrwt>0</asrwt>
<pdfrwt beam="1">  1        1 0.48472377E-01 0.33148036E+03</pdfrwt>
<pdfrwt beam="2">  1       -1 0.11565522E-01 0.33148036E+03</pdfrwt>
<totfact> 0.40022534E+03</totfact>
</mgrwt>
</event>
<event>
 4    1  0.3352993E-004  0.3866567E+03  0.7818608E-02  0.1048500E+00
         -1   -1    0    0    0  501 -0.00000000000E+00  0.00000000000E+00  0.11929199147E+03  0.11929199157E+03  0.50400000000E-02 0. -1.
          1   -1    0    0  501    0  0.00000000000E+00 -0.00000000000E+00 -0.31331400356E+03  0.31331400360E+03  0.50400000000E-02 0.  1.
    5000001    1    1    2    0    0 -0.69233001759E+01 -0.16734733360E+03 -0.16219026673E+03  0.24553562831E+03  0.77000000000E+02 0.  0.
   -5000001    1    1    2    0    0  0.69233001759E+01  0.16734733360E+03 -0.31831745368E+02  0.18707036687E+03  0.77000000000E+02 0.  0.
<mgrwt>
<rscale>  0 0.38665670E+03</rscale>
<asrwt>0</asrwt>
<pdfrwt beam="1">  1        1 0.44759143E-01 0.38665670E+03</pdfrwt>
<pdfrwt beam="2">  1       -1 0.17041713E-01 0.38665670E+03</pdfrwt>
<totfact> 0.23968861E+03</totfact>
</mgrwt>
</event>
<event>
 4    1  0.3352993E-004  0.2241771E+03  0.7818608E-02  0.1130807E+00
          1   -1    0    0  501    0  0.00000000000E+00  0.00000000000E+00  0.82488640281E+03  0.82488640282E+03  0.50400000000E-02 0.  1.
         -1   -1    0    0    0  501 -0.00000000000E+00 -0.00000000000E+00 -0.15231002642E+02  0.15231003476E+02  0.50400000000E-02 0. -1.
    5000001    1    1    2    0    0  0.30686587615E+02  0.53566132648E+02  0.20568266551E+03  0.22813451321E+03  0.77000000000E+02 0.  0.
   -5000001    1    1    2    0    0 -0.30686587615E+02 -0.53566132648E+02  0.60397273465E+03  0.61198289309E+03  0.77000000000E+02 0.  0.
<mgrwt>
<rscale>  0 0.22417714E+03</rscale>
<asrwt>0</asrwt>
<pdfrwt beam="1">  1        1 0.11784093E+00 0.22417714E+03</pdfrwt>
<pdfrwt beam="2">  1       -1 0.21758572E-02 0.22417714E+03</pdfrwt>
<totfact> 0.14717106E+04</totfact>
</mgrwt>
</event>
<event>
 4    1  0.3352993E-004  0.2191866E+03  0.7818608E-02  0.1134491E+00
          1   -1    0    0  501    0  0.00000000000E+00  0.00000000000E+00  0.68779828602E+02  0.68779828787E+02  0.50400000000E-02 0.  1.
         -1   -1    0    0    0  501 -0.00000000000E+00 -0.00000000000E+00 -0.17462526171E+03  0.17462526178E+03  0.50400000000E-02 0. -1.
    5000001    1    1    2    0    0  0.21317860618E+02 -0.69245564928E+02 -0.84959914594E+02  0.13563401687E+03  0.77000000000E+02 0.  0.
   -5000001    1    1    2    0    0 -0.21317860618E+02  0.69245564928E+02 -0.20885518515E+02  0.10777107370E+03  0.77000000000E+02 0.  0.
<mgrwt>
<rscale>  0 0.21918664E+03</rscale>
<asrwt>0</asrwt>
<pdfrwt beam="1">  1        1 0.98256899E-02 0.21918664E+03</pdfrwt>
<pdfrwt beam="2">  1       -1 0.24946466E-01 0.21918664E+03</pdfrwt>
<totfact> 0.89652809E+03</totfact>
</mgrwt>
</event>
<event>
 4    1  0.3352993E-004  0.3002804E+03  0.7818608E-02  0.1085101E+00
         -1   -1    0    0    0  501 -0.00000000000E+00  0.00000000000E+00  0.20676488919E+03  0.20676488925E+03  0.50400000000E-02 0. -1.
          1   -1    0    0  501    0  0.00000000000E+00 -0.00000000000E+00 -0.10902273018E+03  0.10902273030E+03  0.50400000000E-02 0.  1.
    5000001    1    1    2    0    0 -0.41471623653E+02  0.83687176934E+02  0.14228177328E+03  0.18680616199E+03  0.77000000000E+02 0.  0.
   -5000001    1    1    2    0    0  0.41471623653E+02 -0.83687176934E+02 -0.44539614272E+02  0.12898145755E+03  0.77000000000E+02 0.  0.
<mgrwt>
<rscale>  0 0.30028035E+03</rscale>
<asrwt>0</asrwt>
<pdfrwt beam="1">  1        1 0.15574676E-01 0.30028035E+03</pdfrwt>
<pdfrwt beam="2">  1       -1 0.29537841E-01 0.30028035E+03</pdfrwt>
<totfact> 0.37137380E+03</totfact>
</mgrwt>
</event>
<event>
 4    1  0.3352993E-004  0.4798775E+03  0.7818608E-02  0.1019169E+00
         -1   -1    0    0    0  501 -0.00000000000E+00  0.00000000000E+00  0.59296240174E+02  0.59296240388E+02  0.50400000000E-02 0. -1.
          1   -1    0    0  501    0  0.00000000000E+00 -0.00000000000E+00 -0.97089795767E+03  0.97089795768E+03  0.50400000000E-02 0.  1.
    5000001    1    1    2    0    0  0.22617751481E+03  0.21182360229E+02 -0.46879521214E+03  0.52659558630E+03  0.77000000000E+02 0.  0.
   -5000001    1    1    2    0    0 -0.22617751481E+03 -0.21182360229E+02 -0.44280650536E+03  0.50359861177E+03  0.77000000000E+02 0.  0.
<mgrwt>
<rscale>  0 0.47987748E+03</rscale>
<asrwt>0</asrwt>
<pdfrwt beam="1">  1        1 0.13869970E+00 0.47987748E+03</pdfrwt>
<pdfrwt beam="2">  1       -1 0.84708921E-02 0.47987748E+03</pdfrwt>
<totfact> 0.15005786E+03</totfact>
</mgrwt>
</event>
<event>
 4    1  0.3352993E-004  0.3205913E+03  0.7818608E-02  0.1075377E+00
          1   -1    0    0  501    0  0.00000000000E+00  0.00000000000E+00  0.13212223947E+03  0.13212223956E+03  0.50400000000E-02 0.  1.
         -1   -1    0    0    0  501 -0.00000000000E+00 -0.00000000000E+00 -0.19447666920E+03  0.19447666927E+03  0.50400000000E-02 0. -1.
    5000001    1    1    2    0    0  0.62062337122E+02  0.12596736391E+03 -0.24254087479E+02  0.16197768741E+03  0.77000000000E+02 0.  0.
   -5000001    1    1    2    0    0 -0.62062337122E+02 -0.12596736391E+03 -0.38100342259E+02  0.16462122142E+03  0.77000000000E+02 0.  0.
<mgrwt>
<rscale>  0 0.32059129E+03</rscale>
<asrwt>0</asrwt>
<pdfrwt beam="1">  1        1 0.18874606E-01 0.32059129E+03</pdfrwt>
<pdfrwt beam="2">  1       -1 0.27782381E-01 0.32059129E+03</pdfrwt>
<totfact> 0.32111619E+03</totfact>
</mgrwt>
</event>
<event>
 4    1  0.3352993E-004  0.1883062E+03  0.7818608E-02  0.1159998E+00
         -1   -1    0    0    0  501 -0.00000000000E+00  0.00000000000E+00  0.98200753529E+01  0.98200766463E+01  0.50400000000E-02 0. -1.
          1   -1    0    0  501    0  0.00000000000E+00 -0.00000000000E+00 -0.90272308710E+03  0.90272308711E+03  0.50400000000E-02 0.  1.
    5000001    1    1    2    0    0 -0.41923586692E+02 -0.28561649823E+02 -0.35419109325E+03  0.36599683810E+03  0.77000000000E+02 0.  0.
   -5000001    1    1    2    0    0  0.41923586692E+02  0.28561649823E+02 -0.53871191849E+03  0.54654632566E+03  0.77000000000E+02 0.  0.
<mgrwt>
<rscale>  0 0.18830623E+03</rscale>
<asrwt>0</asrwt>
<pdfrwt beam="1">  1        1 0.12896039E+00 0.18830623E+03</pdfrwt>
<pdfrwt beam="2">  1       -1 0.14028686E-02 0.18830623E+03</pdfrwt>
<totfact> 0.23977326E+04</totfact>
</mgrwt>
</event>
<event>
 4    1  0.3352993E-004  0.4132799E+03  0.7818608E-02  0.1039276E+00
         -1   -1    0    0    0  501 -0.00000000000E+00  0.00000000000E+00  0.41326276537E+02  0.41326276844E+02  0.50400000000E-02 0. -1.
          1   -1    0    0  501    0  0.00000000000E+00 -0.00000000000E+00 -0.10332426481E+04  0.10332426481E+04  0.50400000000E-02 0.  1.
    5000001    1    1    2    0    0  0.88295070099E+02  0.16661995327E+03 -0.40540737671E+03  0.45369854455E+03  0.77000000000E+02 0.  0.
   -5000001    1    1    2    0    0 -0.88295070099E+02 -0.16661995327E+03 -0.58650899488E+03  0.62087038044E+03  0.77000000000E+02 0.  0.
<mgrwt>
<rscale>  0 0.41327991E+03</rscale>
<asrwt>0</asrwt>
<pdfrwt beam="1">  1        1 0.14760608E+00 0.41327991E+03</pdfrwt>
<pdfrwt beam="2">  1       -1 0.59037544E-02 0.41327991E+03</pdfrwt>
<totfact> 0.23567312E+03</totfact>
</mgrwt>
</event>
<event>
 4    1  0.3352993E-004  0.2080343E+03  0.7818608E-02  0.1143132E+00
         -1   -1    0    0    0  501 -0.00000000000E+00  0.00000000000E+00  0.32866969636E+02  0.32866970023E+02  0.50400000000E-02 0.  1.
          1   -1    0    0  501    0  0.00000000000E+00 -0.00000000000E+00 -0.32919281430E+03  0.32919281433E+03  0.50400000000E-02 0. -1.
    5000001    1    1    2    0    0  0.53611020132E+02 -0.44375808372E+02 -0.13620400122E+03  0.17124217879E+03  0.77000000000E+02 0.  0.
   -5000001    1    1    2    0    0 -0.53611020132E+02  0.44375808372E+02 -0.16012184344E+03  0.19081760557E+03  0.77000000000E+02 0.  0.
<mgrwt>
<rscale>  0 0.20803433E+03</rscale>
<asrwt>0</asrwt>
<pdfrwt beam="1">  1        1 0.47027543E-01 0.20803433E+03</pdfrwt>
<pdfrwt beam="2">  1       -1 0.46952816E-02 0.20803433E+03</pdfrwt>
<totfact> 0.16079638E+04</totfact>
</mgrwt>
</event>
<event>
 4    1  0.3352993E-004  0.2755505E+03  0.7818608E-02  0.1098144E+00
          1   -1    0    0  501    0  0.00000000000E+00  0.00000000000E+00  0.89037521787E+02  0.89037521929E+02  0.50400000000E-02 0.  1.
         -1   -1    0    0    0  501 -0.00000000000E+00 -0.00000000000E+00 -0.21319121621E+03  0.21319121627E+03  0.50400000000E-02 0. -1.
    5000001    1    1    2    0    0 -0.70326810377E+02 -0.88020480272E+02 -0.41279130290E+02  0.14257079576E+03  0.77000000000E+02 0.  0.
   -5000001    1    1    2    0    0  0.70326810377E+02  0.88020480272E+02 -0.82874564136E+02  0.15965794244E+03  0.77000000000E+02 0.  0.
<mgrwt>
<rscale>  0 0.27555049E+03</rscale>
<asrwt>0</asrwt>
<pdfrwt beam="1">  1        1 0.12719646E-01 0.27555049E+03</pdfrwt>
<pdfrwt beam="2">  1       -1 0.30455888E-01 0.27555049E+03</pdfrwt>
<totfact> 0.45928061E+03</totfact>
</mgrwt>
</event>
<event>
 4    1  0.3352993E-004  0.2157459E+03  0.7818608E-02  0.1137095E+00
         -1   -1    0    0    0  501 -0.00000000000E+00  0.00000000000E+00  0.68309953672E+03  0.68309953674E+03  0.50400000000E-02 0. -1.
          1   -1    0    0  501    0  0.00000000000E+00 -0.00000000000E+00 -0.17034963556E+02  0.17034964301E+02  0.50400000000E-02 0.  1.
    5000001    1    1    2    0    0 -0.52549551910E+02  0.53762737883E+02  0.30881519468E+03  0.32702861015E+03  0.77000000000E+02 0.  0.
   -5000001    1    1    2    0    0  0.52549551910E+02 -0.53762737883E+02  0.35724937848E+03  0.37310589089E+03  0.77000000000E+02 0.  0.
<mgrwt>
<rscale>  0 0.21574592E+03</rscale>
<asrwt>0</asrwt>
<pdfrwt beam="1">  1        1 0.24335662E-02 0.21574592E+03</pdfrwt>
<pdfrwt beam="2">  1       -1 0.97585650E-01 0.21574592E+03</pdfrwt>
<totfact> 0.48031409E+03</totfact>
</mgrwt>
</event>
<event>
 4    1  0.3352993E-004  0.9704778E+03  0.7818608E-02  0.9341530E-01
         -1   -1    0    0    0  501 -0.00000000000E+00  0.00000000000E+00  0.17490130372E+03  0.17490130379E+03  0.50400000000E-02 0. -1.
          1   -1    0    0  501    0  0.00000000000E+00 -0.00000000000E+00 -0.13462267074E+04  0.13462267074E+04  0.50400000000E-02 0.  1.
    5000001    1    1    2    0    0 -0.19354689427E+03 -0.33908359004E+03 -0.10208521852E+04  0.10956761681E+04  0.77000000000E+02 0.  0.
   -5000001    1    1    2    0    0  0.19354689427E+03  0.33908359004E+03 -0.15047321849E+03  0.42545184310E+03  0.77000000000E+02 0.  0.
<mgrwt>
<rscale>  0 0.97047783E+03</rscale>
<asrwt>0</asrwt>
<pdfrwt beam="1">  1        1 0.19231809E+00 0.97047783E+03</pdfrwt>
<pdfrwt beam="2">  1       -1 0.24985901E-01 0.97047783E+03</pdfrwt>
<totfact> 0.13809876E+02</totfact>
</mgrwt>
</event>
<event>
 4    1  0.3352993E-004  0.3341388E+03  0.7818608E-02  0.1069320E+00
          1   -1    0    0  501    0  0.00000000000E+00  0.00000000000E+00  0.26882359560E+03  0.26882359565E+03  0.50400000000E-02 0.  1.
         -1   -1    0    0    0  501 -0.00000000000E+00 -0.00000000000E+00 -0.10383084123E+03  0.10383084136E+03  0.50400000000E-02 0. -1.
    5000001    1    1    2    0    0 -0.72174404944E+02 -0.12595538620E+03  0.48866343617E+02  0.17143752092E+03  0.77000000000E+02 0.  0.
   -5000001    1    1    2    0    0  0.72174404944E+02  0.12595538620E+03  0.11612641075E+03  0.20121691608E+03  0.77000000000E+02 0.  0.
<mgrwt>
<rscale>  0 0.33413877E+03</rscale>
<asrwt>0</asrwt>
<pdfrwt beam="1">  1        1 0.38403370E-01 0.33413877E+03</pdfrwt>
<pdfrwt beam="2">  1       -1 0.14832977E-01 0.33413877E+03</pdfrwt>
<totfact> 0.36267692E+03</totfact>
</mgrwt>
</event>
<event>
 4    1  0.3352993E-004  0.2630420E+03  0.7818608E-02  0.1105329E+00
          1   -1    0    0  501    0  0.00000000000E+00  0.00000000000E+00  0.30443380733E+02  0.30443381151E+02  0.50400000000E-02 0. -1.
         -1   -1    0    0    0  501 -0.00000000000E+00 -0.00000000000E+00 -0.56819467538E+03  0.56819467541E+03  0.50400000000E-02 0.  1.
    5000001    1    1    2    0    0  0.90993308993E+02  0.14773702170E+02 -0.39081247867E+03  0.40885381011E+03  0.77000000000E+02 0.  0.
   -5000001    1    1    2    0    0 -0.90993308993E+02 -0.14773702170E+02 -0.14693881598E+03  0.18978424644E+03  0.77000000000E+02 0.  0.
<mgrwt>
<rscale>  0 0.26304195E+03</rscale>
<asrwt>0</asrwt>
<pdfrwt beam="1">  1        1 0.43490548E-02 0.26304195E+03</pdfrwt>
<pdfrwt beam="2">  1       -1 0.81170662E-01 0.26304195E+03</pdfrwt>
<totfact> 0.31880339E+03</totfact>
</mgrwt>
</event>
<event>
 4    1  0.3352993E-004  0.1816013E+03  0.7818608E-02  0.1166262E+00
         -1   -1    0    0    0  501 -0.00000000000E+00  0.00000000000E+00  0.13864311808E+02  0.13864312724E+02  0.50400000000E-02 0. -1.
          1   -1    0    0  501    0  0.00000000000E+00 -0.00000000000E+00 -0.59467504543E+03  0.59467504546E+03  0.50400000000E-02 0.  1.
    5000001    1    1    2    0    0  0.16174343619E+02 -0.44001189079E+02 -0.25399741692E+03  0.26952068906E+03  0.77000000000E+02 0.  0.
   -5000001    1    1    2    0    0 -0.16174343619E+02  0.44001189079E+02 -0.32681331671E+03  0.33901866912E+03  0.77000000000E+02 0.  0.
<mgrwt>
<rscale>  0 0.18160133E+03</rscale>
<asrwt>0</asrwt>
<pdfrwt beam="1">  1        1 0.84953562E-01 0.18160133E+03</pdfrwt>
<pdfrwt beam="2">  1       -1 0.19806164E-02 0.18160133E+03</pdfrwt>
<totfact> 0.26440029E+04</totfact>
</mgrwt>
</event>
<event>
 4    1  0.3352993E-004  0.2095594E+03  0.7818608E-02  0.1141915E+00
          1   -1    0    0  501    0  0.00000000000E+00  0.00000000000E+00  0.22379743084E+03  0.22379743089E+03  0.50400000000E-02 0. -1.
         -1   -1    0    0    0  501 -0.00000000000E+00 -0.00000000000E+00 -0.49056782197E+02  0.49056782455E+02  0.50400000000E-02 0.  1.
    5000001    1    1    2    0    0  0.60506062464E+02 -0.56711846945E+01  0.39412966417E+02  0.10571436919E+03  0.77000000000E+02 0.  0.
   -5000001    1    1    2    0    0 -0.60506062464E+02  0.56711846945E+01  0.13532768222E+03  0.16713984416E+03  0.77000000000E+02 0.  0.
<mgrwt>
<rscale>  0 0.20955936E+03</rscale>
<asrwt>0</asrwt>
<pdfrwt beam="1">  1        1 0.31971062E-01 0.20955936E+03</pdfrwt>
<pdfrwt beam="2">  1       -1 0.70081118E-02 0.20955936E+03</pdfrwt>
<totfact> 0.14293462E+04</totfact>
</mgrwt>
</event>
<event>
 4    1  0.3352993E-004  0.1835480E+03  0.7818608E-02  0.1164413E+00
         -1   -1    0    0    0  501 -0.00000000000E+00  0.00000000000E+00  0.24072923908E+02  0.24072924436E+02  0.50400000000E-02 0.  1.
          1   -1    0    0  501    0  0.00000000000E+00 -0.00000000000E+00 -0.34987319226E+03  0.34987319230E+03  0.50400000000E-02 0. -1.
    5000001    1    1    2    0    0  0.40573925523E+00  0.44817566325E+02 -0.11804706315E+03  0.14789485452E+03  0.77000000000E+02 0.  0.
   -5000001    1    1    2    0    0 -0.40573925523E+00 -0.44817566325E+02 -0.20775320520E+03  0.22605126221E+03  0.77000000000E+02 0.  0.
<mgrwt>
<rscale>  0 0.18354804E+03</rscale>
<asrwt>0</asrwt>
<pdfrwt beam="1">  1        1 0.49981881E-01 0.18354804E+03</pdfrwt>
<pdfrwt beam="2">  1       -1 0.34389894E-02 0.18354804E+03</pdfrwt>
<totfact> 0.23391512E+04</totfact>
</mgrwt>
</event>
<event>
 4    1  0.3352993E-004  0.3218425E+03  0.7818608E-02  0.1074804E+00
         -1   -1    0    0    0  501 -0.00000000000E+00  0.00000000000E+00  0.15375940504E+03  0.15375940512E+03  0.50400000000E-02 0. -1.
          1   -1    0    0  501    0  0.00000000000E+00 -0.00000000000E+00 -0.16841668568E+03  0.16841668575E+03  0.50400000000E-02 0.  1.
    5000001    1    1    2    0    0  0.73308662191E+02  0.85245259627E+02  0.78350582018E+02  0.15719010129E+03  0.77000000000E+02 0.  0.
   -5000001    1    1    2    0    0 -0.73308662191E+02 -0.85245259627E+02 -0.93007862658E+02  0.16498598958E+03  0.77000000000E+02 0.  0.
<mgrwt>
<rscale>  0 0.32184250E+03</rscale>
<asrwt>0</asrwt>
<pdfrwt beam="1">  1        1 0.24059526E-01 0.32184250E+03</pdfrwt>
<pdfrwt beam="2">  1       -1 0.21965629E-01 0.32184250E+03</pdfrwt>
<totfact> 0.34748540E+03</totfact>
</mgrwt>
</event>
<event>
 4    1  0.3352993E-004  0.3041249E+03  0.7818608E-02  0.1083197E+00
         -1   -1    0    0    0  501 -0.00000000000E+00  0.00000000000E+00  0.55804620486E+03  0.55804620488E+03  0.50400000000E-02 0. -1.
          1   -1    0    0  501    0  0.00000000000E+00 -0.00000000000E+00 -0.41435619288E+02  0.41435619595E+02  0.50400000000E-02 0.  1.
    5000001    1    1    2    0    0  0.10311490118E+03  0.26513215037E+02  0.10743215055E+03  0.16972418917E+03  0.77000000000E+02 0.  0.
   -5000001    1    1    2    0    0 -0.10311490118E+03 -0.26513215037E+02  0.40917843502E+03  0.42975763530E+03  0.77000000000E+02 0.  0.
<mgrwt>
<rscale>  0 0.30412491E+03</rscale>
<asrwt>0</asrwt>
<pdfrwt beam="1">  1        1 0.59193740E-02 0.30412491E+03</pdfrwt>
<pdfrwt beam="2">  1       -1 0.79720890E-01 0.30412491E+03</pdfrwt>
<totfact> 0.21665093E+03</totfact>
</mgrwt>
</event>
<event>
 4    1  0.3352993E-004  0.1788147E+03  0.7818608E-02  0.1168955E+00
          1   -1    0    0  501    0  0.00000000000E+00  0.00000000000E+00  0.73366866125E+03  0.73366866126E+03  0.50400000000E-02 0.  1.
         -1   -1    0    0    0  501 -0.00000000000E+00 -0.00000000000E+00 -0.10895483077E+02  0.10895484243E+02  0.50400000000E-02 0. -1.
    5000001    1    1    2    0    0 -0.21975526006E+02 -0.36280023978E+02  0.42923507710E+03  0.43814485652E+03  0.77000000000E+02 0.  0.
   -5000001    1    1    2    0    0  0.21975526006E+02  0.36280023978E+02  0.29353810107E+03  0.30641928899E+03  0.77000000000E+02 0.  0.
<mgrwt>
<rscale>  0 0.17881471E+03</rscale>
<asrwt>0</asrwt>
<pdfrwt beam="1">  1        1 0.10480986E+00 0.17881471E+03</pdfrwt>
<pdfrwt beam="2">  1       -1 0.15564969E-02 0.17881471E+03</pdfrwt>
<totfact> 0.27986745E+04</totfact>
</mgrwt>
</event>
<event>
 4    1  0.3352993E-004  0.2825473E+03  0.7818608E-02  0.1094306E+00
         -1   -1    0    0    0  501 -0.00000000000E+00  0.00000000000E+00  0.67373078901E+01  0.67373097753E+01  0.50400000000E-02 0. -1.
          1   -1    0    0  501    0  0.00000000000E+00 -0.00000000000E+00 -0.29623459002E+04  0.29623459002E+04  0.50400000000E-02 0.  1.
    5000001    1    1    2    0    0 -0.88877945530E+02  0.10554208825E+02 -0.66257925490E+03  0.67301630704E+03  0.77000000000E+02 0.  0.
   -5000001    1    1    2    0    0  0.88877945530E+02 -0.10554208825E+02 -0.22930293374E+04  0.22960669029E+04  0.77000000000E+02 0.  0.
<mgrwt>
<rscale>  0 0.28254726E+03</rscale>
<asrwt>0</asrwt>
<pdfrwt beam="1">  1        1 0.42319144E+00 0.28254726E+03</pdfrwt>
<pdfrwt beam="2">  1       -1 0.96247458E-03 0.28254726E+03</pdfrwt>
<totfact> 0.21374744E+03</totfact>
</mgrwt>
</event>
<event>
 4    1  0.3352993E-004  0.1715976E+03  0.7818608E-02  0.1176192E+00
          1   -1    0    0  501    0  0.00000000000E+00  0.00000000000E+00  0.38958133774E+03  0.38958133777E+03  0.50400000000E-02 0. -1.
         -1   -1    0    0    0  501 -0.00000000000E+00 -0.00000000000E+00 -0.18895766981E+02  0.18895767654E+02  0.50400000000E-02 0.  1.
    5000001    1    1    2    0    0  0.32469020151E+02 -0.15876888571E+02  0.15860916540E+03  0.17997827705E+03  0.77000000000E+02 0.  0.
   -5000001    1    1    2    0    0 -0.32469020151E+02  0.15876888571E+02  0.21207640535E+03  0.22849882837E+03  0.77000000000E+02 0.  0.
<mgrwt>
<rscale>  0 0.17159765E+03</rscale>
<asrwt>0</asrwt>
<pdfrwt beam="1">  1        1 0.55654475E-01 0.17159765E+03</pdfrwt>
<pdfrwt beam="2">  1       -1 0.26993954E-02 0.17159765E+03</pdfrwt>
<totfact> 0.28971745E+04</totfact>
</mgrwt>
</event>
<event>
 4    1  0.3352993E-004  0.1605633E+03  0.7818608E-02  0.1188062E+00
         -1   -1    0    0    0  501 -0.00000000000E+00  0.00000000000E+00  0.21473687969E+01  0.21473747115E+01  0.50400000000E-02 0.  1.
          1   -1    0    0  501    0  0.00000000000E+00 -0.00000000000E+00 -0.30014101249E+04  0.30014101249E+04  0.50400000000E-02 0. -1.
    5000001    1    1    2    0    0 -0.17718659260E+02  0.12237908885E+02 -0.16350764420E+04  0.16370301428E+04  0.77000000000E+02 0.  0.
   -5000001    1    1    2    0    0  0.17718659260E+02 -0.12237908885E+02 -0.13641863141E+04  0.13665273568E+04  0.77000000000E+02 0.  0.
<mgrwt>
<rscale>  0 0.16056330E+03</rscale>
<asrwt>0</asrwt>
<pdfrwt beam="1">  1        1 0.42877019E+00 0.16056330E+03</pdfrwt>
<pdfrwt beam="2">  1       -1 0.30676932E-03 0.16056330E+03</pdfrwt>
<totfact> 0.10325928E+04</totfact>
</mgrwt>
</event>
<event>
 4    1  0.3352993E-004  0.2094910E+03  0.7818608E-02  0.1141970E+00
         -1   -1    0    0    0  501 -0.00000000000E+00  0.00000000000E+00  0.25755307306E+02  0.25755307799E+02  0.50400000000E-02 0.  1.
          1   -1    0    0  501    0  0.00000000000E+00 -0.00000000000E+00 -0.42599456972E+03  0.42599456975E+03  0.50400000000E-02 0. -1.
    5000001    1    1    2    0    0  0.38690177027E+02 -0.21066254965E+02 -0.32022069152E+03  0.33228151946E+03  0.77000000000E+02 0.  0.
   -5000001    1    1    2    0    0 -0.38690177027E+02  0.21066254965E+02 -0.80018570894E+02  0.11946835809E+03  0.77000000000E+02 0.  0.
<mgrwt>
<rscale>  0 0.20949101E+03</rscale>
<asrwt>0</asrwt>
<pdfrwt beam="1">  1        1 0.60856363E-01 0.20949101E+03</pdfrwt>
<pdfrwt beam="2">  1       -1 0.36793299E-02 0.20949101E+03</pdfrwt>
<totfact> 0.16682736E+04</totfact>
</mgrwt>
</event>
<event>
 4    1  0.3352993E-004  0.2974935E+03  0.7818608E-02  0.1086500E+00
          1   -1    0    0  501    0  0.00000000000E+00  0.00000000000E+00  0.10492712310E+04  0.10492712310E+04  0.50400000000E-02 0.  1.
         -1   -1    0    0    0  501 -0.00000000000E+00 -0.00000000000E+00 -0.21086629453E+02  0.21086630055E+02  0.50400000000E-02 0. -1.
    5000001    1    1    2    0    0 -0.61073485207E+02 -0.11071021559E+03  0.46196943171E+03  0.48510975899E+03  0.77000000000E+02 0.  0.
   -5000001    1    1    2    0    0  0.61073485207E+02  0.11071021559E+03  0.56621516986E+03  0.58524810210E+03  0.77000000000E+02 0.  0.
<mgrwt>
<rscale>  0 0.29749349E+03</rscale>
<asrwt>0</asrwt>
<pdfrwt beam="1">  1        1 0.14989593E+00 0.29749349E+03</pdfrwt>
<pdfrwt beam="2">  1       -1 0.30123749E-02 0.29749349E+03</pdfrwt>
<totfact> 0.62800874E+03</totfact>
</mgrwt>
</event>
<event>
 4    1  0.3352993E-004  0.2801161E+03  0.7818608E-02  0.1095626E+00
          1   -1    0    0  501    0  0.00000000000E+00  0.00000000000E+00  0.90376759774E+03  0.90376759775E+03  0.50400000000E-02 0.  1.
         -1   -1    0    0    0  501 -0.00000000000E+00 -0.00000000000E+00 -0.21704976147E+02  0.21704976732E+02  0.50400000000E-02 0. -1.
    5000001    1    1    2    0    0 -0.97397716423E+02  0.64410105470E+02  0.46491950068E+03  0.48550398450E+03  0.77000000000E+02 0.  0.
   -5000001    1    1    2    0    0  0.97397716423E+02 -0.64410105470E+02  0.41714312091E+03  0.43996858999E+03  0.77000000000E+02 0.  0.
<mgrwt>
<rscale>  0 0.28011608E+03</rscale>
<asrwt>0</asrwt>
<pdfrwt beam="1">  1        1 0.12910966E+00 0.28011608E+03</pdfrwt>
<pdfrwt beam="2">  1       -1 0.31007108E-02 0.28011608E+03</pdfrwt>
<totfact> 0.76715951E+03</totfact>
</mgrwt>
</event>
<event>
 4    1  0.3352993E-004  0.1955692E+03  0.7818608E-02  0.1153532E+00
         -1   -1    0    0    0  501 -0.00000000000E+00  0.00000000000E+00  0.11187469093E+02  0.11187470228E+02  0.50400000000E-02 0. -1.
          1   -1    0    0  501    0  0.00000000000E+00 -0.00000000000E+00 -0.85469096452E+03  0.85469096454E+03  0.50400000000E-02 0.  1.
    5000001    1    1    2    0    0 -0.79001571177E+01  0.55557516192E+02 -0.32436945085E+03  0.33807335111E+03  0.77000000000E+02 0.  0.
   -5000001    1    1    2    0    0  0.79001571177E+01 -0.55557516192E+02 -0.51913404458E+03  0.52780508366E+03  0.77000000000E+02 0.  0.
<mgrwt>
<rscale>  0 0.19556921E+03</rscale>
<asrwt>0</asrwt>
<pdfrwt beam="1">  1        1 0.12209867E+00 0.19556921E+03</pdfrwt>
<pdfrwt beam="2">  1       -1 0.15982105E-02 0.19556921E+03</pdfrwt>
<totfact> 0.21659288E+04</totfact>
</mgrwt>
</event>
<event>
 4    1  0.3352993E-004  0.2282601E+03  0.7818608E-02  0.1127870E+00
         -1   -1    0    0    0  501 -0.00000000000E+00  0.00000000000E+00  0.98556665809E+01  0.98556678696E+01  0.50400000000E-02 0. -1.
          1   -1    0    0  501    0  0.00000000000E+00 -0.00000000000E+00 -0.13216427367E+04  0.13216427367E+04  0.50400000000E-02 0.  1.
    5000001    1    1    2    0    0  0.67908266640E+02  0.64888753443E+01 -0.94421385694E+03  0.94980126649E+03  0.77000000000E+02 0.  0.
   -5000001    1    1    2    0    0 -0.67908266640E+02 -0.64888753443E+01 -0.36757321317E+03  0.38169713808E+03  0.77000000000E+02 0.  0.
<mgrwt>
<rscale>  0 0.22826012E+03</rscale>
<asrwt>0</asrwt>
<pdfrwt beam="1">  1        1 0.18880599E+00 0.22826012E+03</pdfrwt>
<pdfrwt beam="2">  1       -1 0.14079533E-02 0.22826012E+03</pdfrwt>
<totfact> 0.12448778E+04</totfact>
</mgrwt>
</event>
<event>
 4    1  0.3352993E-004  0.2308810E+03  0.7818608E-02  0.1126021E+00
          1   -1    0    0  501    0  0.00000000000E+00  0.00000000000E+00  0.51994532594E+01  0.51994557021E+01  0.50400000000E-02 0.  1.
         -1   -1    0    0    0  501 -0.00000000000E+00 -0.00000000000E+00 -0.25630601351E+04  0.25630601351E+04  0.50400000000E-02 0. -1.
    5000001    1    1    2    0    0  0.71882460240E+02 -0.35481525691E+02 -0.16256426828E+04  0.16294382955E+04  0.77000000000E+02 0.  0.
   -5000001    1    1    2    0    0 -0.71882460240E+02  0.35481525691E+02 -0.93221799908E+03  0.93882129533E+03  0.77000000000E+02 0.  0.
<mgrwt>
<rscale>  0 0.23088105E+03</rscale>
<asrwt>0</asrwt>
<pdfrwt beam="1">  1        1 0.74278086E-03 0.23088105E+03</pdfrwt>
<pdfrwt beam="2">  1       -1 0.36615064E+00 0.23088105E+03</pdfrwt>
<totfact> 0.36361367E+02</totfact>
</mgrwt>
</event>
<event>
 4    1  0.3352993E-004  0.3933851E+03  0.7818608E-02  0.1046095E+00
         -1   -1    0    0    0  501 -0.00000000000E+00  0.00000000000E+00  0.23954639436E+03  0.23954639441E+03  0.50400000000E-02 0. -1.
          1   -1    0    0  501    0  0.00000000000E+00 -0.00000000000E+00 -0.16150509951E+03  0.16150509959E+03  0.50400000000E-02 0.  1.
    5000001    1    1    2    0    0  0.14577147432E+03  0.10054514970E+03  0.77170686416E+02  0.20794942821E+03  0.77000000000E+02 0.  0.
   -5000001    1    1    2    0    0 -0.14577147432E+03 -0.10054514970E+03  0.87060843340E+00  0.19310206579E+03  0.77000000000E+02 0.  0.
<mgrwt>
<rscale>  0 0.39338513E+03</rscale>
<asrwt>0</asrwt>
<pdfrwt beam="1">  1        1 0.23072157E-01 0.39338513E+03</pdfrwt>
<pdfrwt beam="2">  1       -1 0.34220913E-01 0.39338513E+03</pdfrwt>
<totfact> 0.17357468E+03</totfact>
</mgrwt>
</event>
<event>
 4    1  0.3352993E-004  0.1822731E+03  0.7818608E-02  0.1165621E+00
          1   -1    0    0  501    0  0.00000000000E+00  0.00000000000E+00  0.48569887626E+03  0.48569887629E+03  0.50400000000E-02 0.  1.
         -1   -1    0    0    0  501 -0.00000000000E+00 -0.00000000000E+00 -0.17100867828E+02  0.17100868570E+02  0.50400000000E-02 0. -1.
    5000001    1    1    2    0    0  0.19836733513E+02 -0.39317441738E+02  0.29199810242E+03  0.30517412905E+03  0.77000000000E+02 0.  0.
   -5000001    1    1    2    0    0 -0.19836733513E+02  0.39317441738E+02  0.17659990601E+03  0.19762561581E+03  0.77000000000E+02 0.  0.
<mgrwt>
<rscale>  0 0.18227312E+03</rscale>
<asrwt>0</asrwt>
<pdfrwt beam="1">  1        1 0.69385562E-01 0.18227312E+03</pdfrwt>
<pdfrwt beam="2">  1       -1 0.24429809E-02 0.18227312E+03</pdfrwt>
<totfact> 0.25443992E+04</totfact>
</mgrwt>
</event>
<event>
 4    1  0.3352993E-004  0.2748415E+03  0.7818608E-02  0.1098540E+00
         -1   -1    0    0    0  501 -0.00000000000E+00  0.00000000000E+00  0.68722173615E+02  0.68722173800E+02  0.50400000000E-02 0.  1.
          1   -1    0    0  501    0  0.00000000000E+00 -0.00000000000E+00 -0.27479437202E+03  0.27479437207E+03  0.50400000000E-02 0. -1.
    5000001    1    1    2    0    0 -0.64366114754E+02 -0.93149427889E+02 -0.88478776633E+02  0.16302547825E+03  0.77000000000E+02 0.  0.
   -5000001    1    1    2    0    0  0.64366114754E+02  0.93149427889E+02 -0.11759342177E+03  0.18049106762E+03  0.77000000000E+02 0.  0.
<mgrwt>
<rscale>  0 0.27484153E+03</rscale>
<asrwt>0</asrwt>
<pdfrwt beam="1">  1        1 0.39256338E-01 0.27484153E+03</pdfrwt>
<pdfrwt beam="2">  1       -1 0.98174536E-02 0.27484153E+03</pdfrwt>
<totfact> 0.66977899E+03</totfact>
</mgrwt>
</event>
<event>
 4    1  0.3352993E-004  0.2859833E+03  0.7818608E-02  0.1092465E+00
         -1   -1    0    0    0  501 -0.00000000000E+00  0.00000000000E+00  0.42786996112E+03  0.42786996115E+03  0.50400000000E-02 0. -1.
          1   -1    0    0  501    0  0.00000000000E+00 -0.00000000000E+00 -0.47786962474E+02  0.47786962740E+02  0.50400000000E-02 0.  1.
    5000001    1    1    2    0    0  0.21636463613E+02  0.18958521199E+02 -0.45642348833E+01  0.82324931362E+02  0.77000000000E+02 0.  0.
   -5000001    1    1    2    0    0 -0.21636463613E+02 -0.18958521199E+02  0.38464723353E+03  0.39333199253E+03  0.77000000000E+02 0.  0.
<mgrwt>
<rscale>  0 0.28598326E+03</rscale>
<asrwt>0</asrwt>
<pdfrwt beam="1">  1        1 0.68267093E-02 0.28598326E+03</pdfrwt>
<pdfrwt beam="2">  1       -1 0.61124277E-01 0.28598326E+03</pdfrwt>
<totfact> 0.30262022E+03</totfact>
</mgrwt>
</event>
<event>
 4    1  0.3352993E-004  0.2253701E+03  0.7818608E-02  0.1129942E+00
         -1   -1    0    0    0  501 -0.00000000000E+00  0.00000000000E+00  0.86474073605E+03  0.86474073607E+03  0.50400000000E-02 0. -1.
          1   -1    0    0  501    0  0.00000000000E+00 -0.00000000000E+00 -0.14684076961E+02  0.14684077826E+02  0.50400000000E-02 0.  1.
    5000001    1    1    2    0    0 -0.49751296228E+02 -0.43407343979E+02  0.61657238573E+03  0.62485990097E+03  0.77000000000E+02 0.  0.
   -5000001    1    1    2    0    0  0.49751296228E+02  0.43407343979E+02  0.23348427336E+03  0.25456491293E+03  0.77000000000E+02 0.  0.
<mgrwt>
<rscale>  0 0.22537009E+03</rscale>
<asrwt>0</asrwt>
<pdfrwt beam="1">  1        1 0.20977242E-02 0.22537009E+03</pdfrwt>
<pdfrwt beam="2">  1       -1 0.12353446E+00 0.22537009E+03</pdfrwt>
<totfact> 0.34510413E+03</totfact>
</mgrwt>
</event>
<event>
 4    1  0.3352993E-004  0.2561935E+03  0.7818608E-02  0.1109452E+00
         -1   -1    0    0    0  501 -0.00000000000E+00  0.00000000000E+00  0.11808190352E+03  0.11808190362E+03  0.50400000000E-02 0.  1.
          1   -1    0    0  501    0  0.00000000000E+00 -0.00000000000E+00 -0.13896093941E+03  0.13896093950E+03  0.50400000000E-02 0. -1.
    5000001    1    1    2    0    0 -0.22102677448E+02 -0.99108285653E+02  0.25955389135E+01  0.12746261200E+03  0.77000000000E+02 0.  0.
   -5000001    1    1    2    0    0  0.22102677448E+02  0.99108285653E+02 -0.23474574803E+02  0.12958023112E+03  0.77000000000E+02 0.  0.
<mgrwt>
<rscale>  0 0.25619346E+03</rscale>
<asrwt>0</asrwt>
<pdfrwt beam="1">  1        1 0.19851563E-01 0.25619346E+03</pdfrwt>
<pdfrwt beam="2">  1       -1 0.16868843E-01 0.25619346E+03</pdfrwt>
<totfact> 0.67755862E+03</totfact>
</mgrwt>
</event>
<event>
 4    1  0.3352993E-004  0.1807918E+03  0.7818608E-02  0.1167039E+00
         -1   -1    0    0    0  501 -0.00000000000E+00  0.00000000000E+00  0.19025818538E+02  0.19025819205E+02  0.50400000000E-02 0.  1.
          1   -1    0    0  501    0  0.00000000000E+00 -0.00000000000E+00 -0.42949114609E+03  0.42949114612E+03  0.50400000000E-02 0. -1.
    5000001    1    1    2    0    0 -0.18778986859E+02 -0.28139751175E+02 -0.12302990476E+03  0.14902970646E+03  0.77000000000E+02 0.  0.
   -5000001    1    1    2    0    0  0.18778986859E+02  0.28139751175E+02 -0.28743542279E+03  0.29948725886E+03  0.77000000000E+02 0.  0.
<mgrwt>
<rscale>  0 0.18079182E+03</rscale>
<asrwt>0</asrwt>
<pdfrwt beam="1">  1        1 0.61355872E-01 0.18079182E+03</pdfrwt>
<pdfrwt beam="2">  1       -1 0.27179744E-02 0.18079182E+03</pdfrwt>
<totfact> 0.25473159E+04</totfact>
</mgrwt>
</event>
<event>
 4    1  0.3352993E-004  0.1759453E+03  0.7818608E-02  0.1171786E+00
          1   -1    0    0  501    0  0.00000000000E+00  0.00000000000E+00  0.19358641395E+03  0.19358641402E+03  0.50400000000E-02 0.  1.
         -1   -1    0    0    0  501 -0.00000000000E+00 -0.00000000000E+00 -0.39977952884E+02  0.39977953202E+02  0.50400000000E-02 0. -1.
    5000001    1    1    2    0    0 -0.30366391084E+02  0.12469511987E+02  0.11273421599E+03  0.14041228540E+03  0.77000000000E+02 0.  0.
   -5000001    1    1    2    0    0  0.30366391084E+02 -0.12469511987E+02  0.40874245083E+02  0.93152081822E+02  0.77000000000E+02 0.  0.
<mgrwt>
<rscale>  0 0.17594532E+03</rscale>
<asrwt>0</asrwt>
<pdfrwt beam="1">  1        1 0.27655202E-01 0.17594532E+03</pdfrwt>
<pdfrwt beam="2">  1       -1 0.57111362E-02 0.17594532E+03</pdfrwt>
<totfact> 0.23002934E+04</totfact>
</mgrwt>
</event>
<event>
 4    1  0.3352993E-004  0.1993464E+03  0.7818608E-02  0.1150292E+00
          1   -1    0    0  501    0  0.00000000000E+00  0.00000000000E+00  0.19053472703E+03  0.19053472710E+03  0.50400000000E-02 0.  1.
         -1   -1    0    0    0  501 -0.00000000000E+00 -0.00000000000E+00 -0.52141376973E+02  0.52141377216E+02  0.50400000000E-02 0. -1.
    5000001    1    1    2    0    0 -0.56729376391E+02 -0.24869349982E+02  0.53369305042E+02  0.11231201821E+03  0.77000000000E+02 0.  0.
   -5000001    1    1    2    0    0  0.56729376391E+02  0.24869349982E+02  0.85024045017E+02  0.13036408610E+03  0.77000000000E+02 0.  0.
<mgrwt>
<rscale>  0 0.19934636E+03</rscale>
<asrwt>0</asrwt>
<pdfrwt beam="1">  1        1 0.27219247E-01 0.19934636E+03</pdfrwt>
<pdfrwt beam="2">  1       -1 0.74487681E-02 0.19934636E+03</pdfrwt>
<totfact> 0.15897288E+04</totfact>
</mgrwt>
</event>
<event>
 4    1  0.3352993E-004  0.2573116E+03  0.7818608E-02  0.1108769E+00
         -1   -1    0    0    0  501 -0.00000000000E+00  0.00000000000E+00  0.22798366052E+02  0.22798366609E+02  0.50400000000E-02 0. -1.
          1   -1    0    0  501    0  0.00000000000E+00 -0.00000000000E+00 -0.72603091884E+03  0.72603091886E+03  0.50400000000E-02 0.  1.
    5000001    1    1    2    0    0  0.10255817959E+03 -0.82076222372E+01 -0.36950245692E+03  0.39121172137E+03  0.77000000000E+02 0.  0.
   -5000001    1    1    2    0    0 -0.10255817959E+03  0.82076222372E+01 -0.33373009587E+03  0.35761756410E+03  0.77000000000E+02 0.  0.
<mgrwt>
<rscale>  0 0.25731163E+03</rscale>
<asrwt>0</asrwt>
<pdfrwt beam="1">  1        1 0.10371869E+00 0.25731163E+03</pdfrwt>
<pdfrwt beam="2">  1       -1 0.32569099E-02 0.25731163E+03</pdfrwt>
<totfact> 0.98837293E+03</totfact>
</mgrwt>
</event>
<event>
 4    1  0.3352993E-004  0.2009893E+03  0.7818608E-02  0.1148907E+00
         -1   -1    0    0    0  501 -0.00000000000E+00  0.00000000000E+00  0.93835107570E+01  0.93835121105E+01  0.50400000000E-02 0. -1.
          1   -1    0    0  501    0  0.00000000000E+00 -0.00000000000E+00 -0.10762686201E+04  0.10762686201E+04  0.50400000000E-02 0.  1.
    5000001    1    1    2    0    0  0.54501627114E+02 -0.18675554513E+02 -0.69101349181E+03  0.69767316815E+03  0.77000000000E+02 0.  0.
   -5000001    1    1    2    0    0 -0.54501627114E+02  0.18675554513E+02 -0.37587161752E+03  0.38797896405E+03  0.77000000000E+02 0.  0.
<mgrwt>
<rscale>  0 0.20098934E+03</rscale>
<asrwt>0</asrwt>
<pdfrwt beam="1">  1        1 0.15375258E+00 0.20098934E+03</pdfrwt>
<pdfrwt beam="2">  1       -1 0.13405023E-02 0.20098934E+03</pdfrwt>
<totfact> 0.19312742E+04</totfact>
</mgrwt>
</event>
<event>
 4    1  0.3352993E-004  0.1719700E+03  0.7818608E-02  0.1175809E+00
          1   -1    0    0  501    0  0.00000000000E+00  0.00000000000E+00  0.28106273965E+03  0.28106273969E+03  0.50400000000E-02 0.  1.
         -1   -1    0    0    0  501 -0.00000000000E+00 -0.00000000000E+00 -0.26305226238E+02  0.26305226721E+02  0.50400000000E-02 0. -1.
    5000001    1    1    2    0    0 -0.25186570037E+02 -0.23654628339E+02  0.15677562371E+03  0.17804915316E+03  0.77000000000E+02 0.  0.
   -5000001    1    1    2    0    0  0.25186570037E+02  0.23654628339E+02  0.97981889705E+02  0.12931881326E+03  0.77000000000E+02 0.  0.
<mgrwt>
<rscale>  0 0.17196999E+03</rscale>
<asrwt>0</asrwt>
<pdfrwt beam="1">  1        1 0.40151823E-01 0.17196999E+03</pdfrwt>
<pdfrwt beam="2">  1       -1 0.37578893E-02 0.17196999E+03</pdfrwt>
<totfact> 0.26816676E+04</totfact>
</mgrwt>
</event>
<event>
 4    1  0.3352993E-004  0.1840457E+03  0.7818608E-02  0.1163944E+00
          1   -1    0    0  501    0  0.00000000000E+00  0.00000000000E+00  0.48234920260E+03  0.48234920263E+03  0.50400000000E-02 0.  1.
         -1   -1    0    0    0  501 -0.00000000000E+00 -0.00000000000E+00 -0.17556178036E+02  0.17556178759E+02  0.50400000000E-02 0. -1.
    5000001    1    1    2    0    0 -0.22055000993E+02 -0.43884161223E+02  0.26300245352E+03  0.27840893166E+03  0.77000000000E+02 0.  0.
   -5000001    1    1    2    0    0  0.22055000993E+02  0.43884161223E+02  0.20179057105E+03  0.22149644972E+03  0.77000000000E+02 0.  0.
<mgrwt>
<rscale>  0 0.18404574E+03</rscale>
<asrwt>0</asrwt>
<pdfrwt beam="1">  1        1 0.68907030E-01 0.18404574E+03</pdfrwt>
<pdfrwt beam="2">  1       -1 0.25080254E-02 0.18404574E+03</pdfrwt>
<totfact> 0.24727176E+04</totfact>
</mgrwt>
</event>
<event>
 4    1  0.3352993E-004  0.2453727E+03  0.7818608E-02  0.1116265E+00
         -1   -1    0    0    0  501 -0.00000000000E+00  0.00000000000E+00  0.17081524945E+03  0.17081524952E+03  0.50400000000E-02 0.  1.
          1   -1    0    0  501    0  0.00000000000E+00 -0.00000000000E+00 -0.88118267499E+02  0.88118267643E+02  0.50400000000E-02 0. -1.
    5000001    1    1    2    0    0  0.82391739003E+02 -0.11651787097E+01  0.92321093402E+02  0.14574615118E+03  0.77000000000E+02 0.  0.
   -5000001    1    1    2    0    0 -0.82391739003E+02  0.11651787097E+01 -0.96241114513E+01  0.11318736599E+03  0.77000000000E+02 0.  0.
<mgrwt>
<rscale>  0 0.24537273E+03</rscale>
<asrwt>0</asrwt>
<pdfrwt beam="1">  1        1 0.12588324E-01 0.24537273E+03</pdfrwt>
<pdfrwt beam="2">  1       -1 0.24402179E-01 0.24537273E+03</pdfrwt>
<totfact> 0.67248005E+03</totfact>
</mgrwt>
</event>
<event>
 4    1  0.3352993E-004  0.2046079E+03  0.7818608E-02  0.1145909E+00
         -1   -1    0    0    0  501 -0.00000000000E+00  0.00000000000E+00  0.38263021872E+02  0.38263022204E+02  0.50400000000E-02 0. -1.
          1   -1    0    0  501    0  0.00000000000E+00 -0.00000000000E+00 -0.27353040753E+03  0.27353040757E+03  0.50400000000E-02 0.  1.
    5000001    1    1    2    0    0  0.81740386520E+01  0.60808617840E+02 -0.15999029011E+03  0.18785738165E+03  0.77000000000E+02 0.  0.
   -5000001    1    1    2    0    0 -0.81740386520E+01 -0.60808617840E+02 -0.75277095547E+02  0.12393604813E+03  0.77000000000E+02 0.  0.
<mgrwt>
<rscale>  0 0.20460792E+03</rscale>
<asrwt>0</asrwt>
<pdfrwt beam="1">  1        1 0.39075772E-01 0.20460792E+03</pdfrwt>
<pdfrwt beam="2">  1       -1 0.54661461E-02 0.20460792E+03</pdfrwt>
<totfact> 0.16133398E+04</totfact>
</mgrwt>
</event>
<event>
 4    1  0.3352993E-004  0.2414672E+03  0.7818608E-02  0.1118819E+00
         -1   -1    0    0    0  501 -0.00000000000E+00  0.00000000000E+00  0.12055974138E+03  0.12055974148E+03  0.50400000000E-02 0. -1.
          1   -1    0    0  501    0  0.00000000000E+00 -0.00000000000E+00 -0.12090769018E+03  0.12090769028E+03  0.50400000000E-02 0.  1.
    5000001    1    1    2    0    0 -0.92545703726E+02  0.19382376752E+01 -0.90698163888E+01  0.12074653458E+03  0.77000000000E+02 0.  0.
   -5000001    1    1    2    0    0  0.92545703726E+02 -0.19382376752E+01  0.87218675912E+01  0.12072089719E+03  0.77000000000E+02 0.  0.
<mgrwt>
<rscale>  0 0.24146718E+03</rscale>
<asrwt>0</asrwt>
<pdfrwt beam="1">  1        1 0.17272527E-01 0.24146718E+03</pdfrwt>
<pdfrwt beam="2">  1       -1 0.17222820E-01 0.24146718E+03</pdfrwt>
<totfact> 0.78248726E+03</totfact>
</mgrwt>
</event>
<event>
 4    1  0.3352993E-004  0.2515881E+03  0.7818608E-02  0.1112305E+00
         -1   -1    0    0    0  501 -0.00000000000E+00  0.00000000000E+00  0.22968398001E+02  0.22968398554E+02  0.50400000000E-02 0. -1.
          1   -1    0    0  501    0  0.00000000000E+00 -0.00000000000E+00 -0.68895283772E+03  0.68895283774E+03  0.50400000000E-02 0.  1.
    5000001    1    1    2    0    0 -0.14613657860E+02 -0.90806409868E+02 -0.22576974742E+03  0.25565668761E+03  0.77000000000E+02 0.  0.
   -5000001    1    1    2    0    0  0.14613657860E+02  0.90806409868E+02 -0.44021469230E+03  0.45626454869E+03  0.77000000000E+02 0.  0.
<mgrwt>
<rscale>  0 0.25158810E+03</rscale>
<asrwt>0</asrwt>
<pdfrwt beam="1">  1        1 0.98421821E-01 0.25158810E+03</pdfrwt>
<pdfrwt beam="2">  1       -1 0.32812002E-02 0.25158810E+03</pdfrwt>
<totfact> 0.10524598E+04</totfact>
</mgrwt>
</event>
<event>
 4    1  0.3352993E-004  0.2844298E+03  0.7818608E-02  0.1093294E+00
         -1   -1    0    0    0  501 -0.00000000000E+00  0.00000000000E+00  0.16454166467E+03  0.16454166475E+03  0.50400000000E-02 0. -1.
          1   -1    0    0  501    0  0.00000000000E+00 -0.00000000000E+00 -0.12291764872E+03  0.12291764883E+03  0.50400000000E-02 0.  1.
    5000001    1    1    2    0    0  0.67375356750E+02 -0.98583263196E+02  0.14583895949E+02  0.14282782817E+03  0.77000000000E+02 0.  0.
   -5000001    1    1    2    0    0 -0.67375356750E+02  0.98583263196E+02  0.27040119999E+02  0.14463148540E+03  0.77000000000E+02 0.  0.
<mgrwt>
<rscale>  0 0.28442978E+03</rscale>
<asrwt>0</asrwt>
<pdfrwt beam="1">  1        1 0.17559664E-01 0.28442978E+03</pdfrwt>
<pdfrwt beam="2">  1       -1 0.23505952E-01 0.28442978E+03</pdfrwt>
<totfact> 0.46494792E+03</totfact>
</mgrwt>
</event>
<event>
 4    1  0.3352993E-004  0.1794835E+03  0.7818608E-02  0.1168304E+00
          1   -1    0    0  501    0  0.00000000000E+00  0.00000000000E+00  0.67749651318E+01  0.67749670065E+01  0.50400000000E-02 0.  1.
         -1   -1    0    0    0  501 -0.00000000000E+00 -0.00000000000E+00 -0.11887265925E+04  0.11887265925E+04  0.50400000000E-02 0. -1.
    5000001    1    1    2    0    0  0.23684148214E+02 -0.21023520495E+02 -0.36789857607E+03  0.37720192147E+03  0.77000000000E+02 0.  0.
   -5000001    1    1    2    0    0 -0.23684148214E+02  0.21023520495E+02 -0.81405305126E+03  0.81829963800E+03  0.77000000000E+02 0.  0.
<mgrwt>
<rscale>  0 0.17948351E+03</rscale>
<asrwt>0</asrwt>
<pdfrwt beam="1">  1        1 0.96785306E-03 0.17948351E+03</pdfrwt>
<pdfrwt beam="2">  1       -1 0.16981795E+00 0.17948351E+03</pdfrwt>
<totfact> 0.44723499E+03</totfact>
</mgrwt>
</event>
<event>
 4    1  0.3352993E-004  0.1899481E+03  0.7818608E-02  0.1158508E+00
         -1   -1    0    0    0  501 -0.00000000000E+00  0.00000000000E+00  0.11154380030E+02  0.11154381168E+02  0.50400000000E-02 0.  1.
          1   -1    0    0  501    0  0.00000000000E+00 -0.00000000000E+00 -0.80865755178E+03  0.80865755180E+03  0.50400000000E-02 0. -1.
    5000001    1    1    2    0    0  0.42980277478E+02 -0.33488435547E+02 -0.35102254113E+03  0.36347572677E+03  0.77000000000E+02 0.  0.
   -5000001    1    1    2    0    0 -0.42980277478E+02  0.33488435547E+02 -0.44648063062E+03  0.45633620620E+03  0.77000000000E+02 0.  0.
<mgrwt>
<rscale>  0 0.18994814E+03</rscale>
<asrwt>0</asrwt>
<pdfrwt beam="1">  1        1 0.11552247E+00 0.18994814E+03</pdfrwt>
<pdfrwt beam="2">  1       -1 0.15934835E-02 0.18994814E+03</pdfrwt>
<totfact> 0.23589619E+04</totfact>
</mgrwt>
</event>
<event>
 4    1  0.3352993E-004  0.7967268E+03  0.7818608E-02  0.9564767E-01
         -1   -1    0    0    0  501 -0.00000000000E+00  0.00000000000E+00  0.76396880400E+02  0.76396880566E+02  0.50400000000E-02 0. -1.
          1   -1    0    0  501    0  0.00000000000E+00 -0.00000000000E+00 -0.20772234122E+04  0.20772234122E+04  0.50400000000E-02 0.  1.
    5000001    1    1    2    0    0 -0.21208573945E+03 -0.29748550322E+03 -0.62502098022E+03  0.72805096746E+03  0.77000000000E+02 0.  0.
   -5000001    1    1    2    0    0  0.21208573945E+03  0.29748550322E+03 -0.13758055516E+04  0.14255693253E+04  0.77000000000E+02 0.  0.
<mgrwt>
<rscale>  0 0.79672678E+03</rscale>
<asrwt>0</asrwt>
<pdfrwt beam="1">  1        1 0.29674617E+00 0.79672678E+03</pdfrwt>
<pdfrwt beam="2">  1       -1 0.10913841E-01 0.79672678E+03</pdfrwt>
<totfact> 0.18723790E+02</totfact>
</mgrwt>
</event>
<event>
 4    1  0.3352993E-004  0.2275018E+03  0.7818608E-02  0.1128411E+00
         -1   -1    0    0    0  501 -0.00000000000E+00  0.00000000000E+00  0.27512846976E+02  0.27512847437E+02  0.50400000000E-02 0. -1.
          1   -1    0    0  501    0  0.00000000000E+00 -0.00000000000E+00 -0.47029907211E+03  0.47029907214E+03  0.50400000000E-02 0.  1.
    5000001    1    1    2    0    0  0.61768826580E+02 -0.15518882128E+02 -0.34032241296E+03  0.35468939708E+03  0.77000000000E+02 0.  0.
   -5000001    1    1    2    0    0 -0.61768826580E+02  0.15518882128E+02 -0.10246381218E+03  0.14312252250E+03  0.77000000000E+02 0.  0.
<mgrwt>
<rscale>  0 0.22750179E+03</rscale>
<asrwt>0</asrwt>
<pdfrwt beam="1">  1        1 0.67185577E-01 0.22750179E+03</pdfrwt>
<pdfrwt beam="2">  1       -1 0.39304070E-02 0.22750179E+03</pdfrwt>
<totfact> 0.13396312E+04</totfact>
</mgrwt>
</event>
<event>
 4    1  0.3352993E-004  0.1804922E+03  0.7818608E-02  0.1167328E+00
          1   -1    0    0  501    0  0.00000000000E+00  0.00000000000E+00  0.32625202213E+02  0.32625202603E+02  0.50400000000E-02 0.  1.
         -1   -1    0    0    0  501 -0.00000000000E+00 -0.00000000000E+00 -0.24963383317E+03  0.24963383322E+03  0.50400000000E-02 0. -1.
    5000001    1    1    2    0    0 -0.26664327655E+02  0.38774136581E+02 -0.10699272072E+03  0.13996736164E+03  0.77000000000E+02 0.  0.
   -5000001    1    1    2    0    0  0.26664327655E+02 -0.38774136581E+02 -0.11001591023E+03  0.14229167418E+03  0.77000000000E+02 0.  0.
<mgrwt>
<rscale>  0 0.18049215E+03</rscale>
<asrwt>0</asrwt>
<pdfrwt beam="1">  1        1 0.46607434E-02 0.18049215E+03</pdfrwt>
<pdfrwt beam="2">  1       -1 0.35661975E-01 0.18049215E+03</pdfrwt>
<totfact> 0.13334438E+04</totfact>
</mgrwt>
</event>
<event>
 4    1  0.3352993E-004  0.2490211E+03  0.7818608E-02  0.1113925E+00
         -1   -1    0    0    0  501 -0.00000000000E+00  0.00000000000E+00  0.11795176786E+03  0.11795176797E+03  0.50400000000E-02 0. -1.
          1   -1    0    0  501    0  0.00000000000E+00 -0.00000000000E+00 -0.13143407243E+03  0.13143407253E+03  0.50400000000E-02 0.  1.
    5000001    1    1    2    0    0 -0.96588535579E+02  0.75170150805E+01  0.69913519652E+01  0.12395051320E+03  0.77000000000E+02 0.  0.
   -5000001    1    1    2    0    0  0.96588535579E+02 -0.75170150805E+01 -0.20473656540E+02  0.12543532729E+03  0.77000000000E+02 0.  0.
<mgrwt>
<rscale>  0 0.24902113E+03</rscale>
<asrwt>0</asrwt>
<pdfrwt beam="1">  1        1 0.18776296E-01 0.24902113E+03</pdfrwt>
<pdfrwt beam="2">  1       -1 0.16850253E-01 0.24902113E+03</pdfrwt>
<totfact> 0.72837342E+03</totfact>
</mgrwt>
</event>
<event>
 4    1  0.3352993E-004  0.2137335E+03  0.7818608E-02  0.1138643E+00
         -1   -1    0    0    0  501 -0.00000000000E+00  0.00000000000E+00  0.97919285070E+02  0.97919285200E+02  0.50400000000E-02 0. -1.
          1   -1    0    0  501    0  0.00000000000E+00 -0.00000000000E+00 -0.11663179072E+03  0.11663179083E+03  0.50400000000E-02 0.  1.
    5000001    1    1    2    0    0  0.38898902233E+02 -0.47638395958E+02  0.32141453170E+02  0.10365623173E+03  0.77000000000E+02 0.  0.
   -5000001    1    1    2    0    0 -0.38898902233E+02  0.47638395958E+02 -0.50853958818E+02  0.11089484430E+03  0.77000000000E+02 0.  0.
<mgrwt>
<rscale>  0 0.21373349E+03</rscale>
<asrwt>0</asrwt>
<pdfrwt beam="1">  1        1 0.16661684E-01 0.21373349E+03</pdfrwt>
<pdfrwt beam="2">  1       -1 0.13988469E-01 0.21373349E+03</pdfrwt>
<totfact> 0.11325228E+04</totfact>
</mgrwt>
</event>
<event>
 4    1  0.3352993E-004  0.1939604E+03  0.7818608E-02  0.1154937E+00
         -1   -1    0    0    0  501 -0.00000000000E+00  0.00000000000E+00  0.10688507224E+02  0.10688508412E+02  0.50400000000E-02 0.  1.
          1   -1    0    0  501    0  0.00000000000E+00 -0.00000000000E+00 -0.87993199407E+03  0.87993199408E+03  0.50400000000E-02 0. -1.
    5000001    1    1    2    0    0 -0.41049927011E+02 -0.42225560355E+02 -0.42158116807E+03  0.43258268080E+03  0.77000000000E+02 0.  0.
   -5000001    1    1    2    0    0  0.41049927011E+02  0.42225560355E+02 -0.44766231878E+03  0.45803782170E+03  0.77000000000E+02 0.  0.
<mgrwt>
<rscale>  0 0.19396041E+03</rscale>
<asrwt>0</asrwt>
<pdfrwt beam="1">  1        1 0.12570452E+00 0.19396041E+03</pdfrwt>
<pdfrwt beam="2">  1       -1 0.15269302E-02 0.19396041E+03</pdfrwt>
<totfact> 0.22117135E+04</totfact>
</mgrwt>
</event>
<event>
 4    1  0.3352993E-004  0.1680007E+03  0.7818608E-02  0.1179949E+00
          1   -1    0    0  501    0  0.00000000000E+00  0.00000000000E+00  0.69694355928E+03  0.69694355930E+03  0.50400000000E-02 0.  1.
         -1   -1    0    0    0  501 -0.00000000000E+00 -0.00000000000E+00 -0.10124292706E+02  0.10124293960E+02  0.50400000000E-02 0. -1.
    5000001    1    1    2    0    0 -0.49605556966E+01 -0.23043263332E+02  0.44402019878E+03  0.45126326687E+03  0.77000000000E+02 0.  0.
   -5000001    1    1    2    0    0  0.49605556966E+01  0.23043263332E+02  0.24279906779E+03  0.25580458639E+03  0.77000000000E+02 0.  0.
<mgrwt>
<rscale>  0 0.16800073E+03</rscale>
<asrwt>0</asrwt>
<pdfrwt beam="1">  1        1 0.99563369E-01 0.16800073E+03</pdfrwt>
<pdfrwt beam="2">  1       -1 0.14463276E-02 0.16800073E+03</pdfrwt>
<totfact> 0.33282606E+04</totfact>
</mgrwt>
</event>
<event>
 4    1  0.3352993E-004  0.3066805E+03  0.7818608E-02  0.1081948E+00
         -1   -1    0    0    0  501 -0.00000000000E+00  0.00000000000E+00  0.16165251328E+03  0.16165251336E+03  0.50400000000E-02 0.  1.
          1   -1    0    0  501    0  0.00000000000E+00 -0.00000000000E+00 -0.14545545126E+03  0.14545545135E+03  0.50400000000E-02 0. -1.
    5000001    1    1    2    0    0  0.11270338643E+03  0.22661025348E+02  0.74286517528E+02  0.15704477727E+03  0.77000000000E+02 0.  0.
   -5000001    1    1    2    0    0 -0.11270338643E+03 -0.22661025348E+02 -0.58089455503E+02  0.15006318743E+03  0.77000000000E+02 0.  0.
<mgrwt>
<rscale>  0 0.30668055E+03</rscale>
<asrwt>0</asrwt>
<pdfrwt beam="1">  1        1 0.20779350E-01 0.30668055E+03</pdfrwt>
<pdfrwt beam="2">  1       -1 0.23093216E-01 0.30668055E+03</pdfrwt>
<totfact> 0.38579362E+03</totfact>
</mgrwt>
</event>
<event>
 4    1  0.3352993E-004  0.4720996E+03  0.7818608E-02  0.1021329E+00
          1   -1    0    0  501    0  0.00000000000E+00  0.00000000000E+00  0.28634394038E+03  0.28634394042E+03  0.50400000000E-02 0.  1.
         -1   -1    0    0    0  501 -0.00000000000E+00 -0.00000000000E+00 -0.19458942479E+03  0.19458942486E+03  0.50400000000E-02 0. -1.
    5000001    1    1    2    0    0  0.80660460891E+02 -0.14109357022E+03  0.20163357090E+03  0.27018253538E+03  0.77000000000E+02 0.  0.
   -5000001    1    1    2    0    0 -0.80660460891E+02  0.14109357022E+03 -0.10987905531E+03  0.21075082990E+03  0.77000000000E+02 0.  0.
<mgrwt>
<rscale>  0 0.47209958E+03</rscale>
<asrwt>0</asrwt>
<pdfrwt beam="1">  1        1 0.40906277E-01 0.47209958E+03</pdfrwt>
<pdfrwt beam="2">  1       -1 0.27798489E-01 0.47209958E+03</pdfrwt>
<totfact> 0.11947912E+03</totfact>
</mgrwt>
</event>
<event>
 4    1  0.3352993E-004  0.4122652E+03  0.7818608E-02  0.1039614E+00
         -1   -1    0    0    0  501 -0.00000000000E+00  0.00000000000E+00  0.54110437728E+02  0.54110437963E+02  0.50400000000E-02 0. -1.
          1   -1    0    0  501    0  0.00000000000E+00 -0.00000000000E+00 -0.78525784744E+03  0.78525784746E+03  0.50400000000E-02 0.  1.
    5000001    1    1    2    0    0 -0.11664067207E+03  0.37780550886E+02 -0.66431147685E+03  0.67990525419E+03  0.77000000000E+02 0.  0.
   -5000001    1    1    2    0    0  0.11664067207E+03 -0.37780550886E+02 -0.66835932865E+02  0.15946303123E+03  0.77000000000E+02 0.  0.
<mgrwt>
<rscale>  0 0.41226519E+03</rscale>
<asrwt>0</asrwt>
<pdfrwt beam="1">  1        1 0.11217969E+00 0.41226519E+03</pdfrwt>
<pdfrwt beam="2">  1       -1 0.77300630E-02 0.41226519E+03</pdfrwt>
<totfact> 0.24180919E+03</totfact>
</mgrwt>
</event>
<event>
 4    1  0.3352993E-004  0.1922988E+03  0.7818608E-02  0.1156404E+00
         -1   -1    0    0    0  501 -0.00000000000E+00  0.00000000000E+00  0.79569828923E+01  0.79569844885E+01  0.50400000000E-02 0.  1.
          1   -1    0    0  501    0  0.00000000000E+00 -0.00000000000E+00 -0.11618360161E+04  0.11618360161E+04  0.50400000000E-02 0. -1.
    5000001    1    1    2    0    0  0.43418932388E+02 -0.16824609820E+02 -0.37087786071E+03  0.38163812539E+03  0.77000000000E+02 0.  0.
   -5000001    1    1    2    0    0 -0.43418932388E+02  0.16824609820E+02 -0.78300117245E+03  0.78815487517E+03  0.77000000000E+02 0.  0.
<mgrwt>
<rscale>  0 0.19229883E+03</rscale>
<asrwt>0</asrwt>
<pdfrwt beam="1">  1        1 0.16597647E+00 0.19229883E+03</pdfrwt>
<pdfrwt beam="2">  1       -1 0.11367127E-02 0.19229883E+03</pdfrwt>
<totfact> 0.21374920E+04</totfact>
</mgrwt>
</event>
<event>
 4    1  0.3352993E-004  0.1849411E+03  0.7818608E-02  0.1163105E+00
         -1   -1    0    0    0  501 -0.00000000000E+00  0.00000000000E+00  0.55585965318E+01  0.55585988167E+01  0.50400000000E-02 0. -1.
          1   -1    0    0  501    0  0.00000000000E+00 -0.00000000000E+00 -0.15383021360E+04  0.15383021360E+04  0.50400000000E-02 0.  1.
    5000001    1    1    2    0    0  0.35019342838E+02  0.36347554710E+02 -0.69441369101E+03  0.70049045202E+03  0.77000000000E+02 0.  0.
   -5000001    1    1    2    0    0 -0.35019342838E+02 -0.36347554710E+02 -0.83832984845E+03  0.84337028280E+03  0.77000000000E+02 0.  0.
<mgrwt>
<rscale>  0 0.18494110E+03</rscale>
<asrwt>0</asrwt>
<pdfrwt beam="1">  1        1 0.21975718E+00 0.18494110E+03</pdfrwt>
<pdfrwt beam="2">  1       -1 0.79408637E-03 0.18494110E+03</pdfrwt>
<totfact> 0.20555174E+04</totfact>
</mgrwt>
</event>
<event>
 4    1  0.3352993E-004  0.2180770E+03  0.7818608E-02  0.1135325E+00
          1   -1    0    0  501    0  0.00000000000E+00  0.00000000000E+00  0.27104362497E+02  0.27104362966E+02  0.50400000000E-02 0.  1.
         -1   -1    0    0    0  501 -0.00000000000E+00 -0.00000000000E+00 -0.43865242149E+03  0.43865242152E+03  0.50400000000E-02 0. -1.
    5000001    1    1    2    0    0  0.49632441232E+02 -0.48684570385E+02 -0.27746725060E+03  0.29622734812E+03  0.77000000000E+02 0.  0.
   -5000001    1    1    2    0    0 -0.49632441232E+02  0.48684570385E+02 -0.13408080839E+03  0.16952943637E+03  0.77000000000E+02 0.  0.
<mgrwt>
<rscale>  0 0.21807700E+03</rscale>
<asrwt>0</asrwt>
<pdfrwt beam="1">  1        1 0.38720521E-02 0.21807700E+03</pdfrwt>
<pdfrwt beam="2">  1       -1 0.62664627E-01 0.21807700E+03</pdfrwt>
<totfact> 0.62451139E+03</totfact>
</mgrwt>
</event>
<event>
 4    1  0.3352993E-004  0.3479207E+03  0.7818608E-02  0.1063472E+00
         -1   -1    0    0    0  501 -0.00000000000E+00  0.00000000000E+00  0.17097345118E+04  0.17097345118E+04  0.50400000000E-02 0. -1.
          1   -1    0    0  501    0  0.00000000000E+00 -0.00000000000E+00 -0.17699938098E+02  0.17699938816E+02  0.50400000000E-02 0.  1.
    5000001    1    1    2    0    0 -0.27755072189E+02  0.11936616834E+03  0.36683279232E+03  0.39435253733E+03  0.77000000000E+02 0.  0.
   -5000001    1    1    2    0    0  0.27755072189E+02 -0.11936616834E+03  0.13252017814E+04  0.13330819133E+04  0.77000000000E+02 0.  0.
<mgrwt>
<rscale>  0 0.34792066E+03</rscale>
<asrwt>0</asrwt>
<pdfrwt beam="1">  1        1 0.25285628E-02 0.34792066E+03</pdfrwt>
<pdfrwt beam="2">  1       -1 0.24424777E+00 0.34792066E+03</pdfrwt>
<totfact> 0.37378203E+02</totfact>
</mgrwt>
</event>
<event>
 4    1  0.3352993E-004  0.3483064E+03  0.7818608E-02  0.1063312E+00
         -1   -1    0    0    0  501 -0.00000000000E+00  0.00000000000E+00  0.27746077016E+03  0.27746077020E+03  0.50400000000E-02 0. -1.
          1   -1    0    0  501    0  0.00000000000E+00 -0.00000000000E+00 -0.10931036782E+03  0.10931036794E+03  0.50400000000E-02 0.  1.
    5000001    1    1    2    0    0  0.38348494344E+02  0.14384570640E+03  0.13660874059E+03  0.21622474945E+03  0.77000000000E+02 0.  0.
   -5000001    1    1    2    0    0 -0.38348494344E+02 -0.14384570640E+03  0.31541661745E+02  0.17054638869E+03  0.77000000000E+02 0.  0.
<mgrwt>
<rscale>  0 0.34830641E+03</rscale>
<asrwt>0</asrwt>
<pdfrwt beam="1">  1        1 0.15615767E-01 0.34830641E+03</pdfrwt>
<pdfrwt beam="2">  1       -1 0.39637253E-01 0.34830641E+03</pdfrwt>
<totfact> 0.22253941E+03</totfact>
</mgrwt>
</event>
<event>
 4    1  0.3352993E-004  0.1817502E+03  0.7818608E-02  0.1166120E+00
         -1   -1    0    0    0  501 -0.00000000000E+00  0.00000000000E+00  0.12598102289E+03  0.12598102299E+03  0.50400000000E-02 0.  1.
          1   -1    0    0  501    0  0.00000000000E+00 -0.00000000000E+00 -0.65551839501E+02  0.65551839695E+02  0.50400000000E-02 0. -1.
    5000001    1    1    2    0    0  0.45060751014E+02  0.38336401619E+01  0.47977701584E+02  0.10137074493E+03  0.77000000000E+02 0.  0.
   -5000001    1    1    2    0    0 -0.45060751014E+02 -0.38336401619E+01  0.12451481806E+02  0.90162117755E+02  0.77000000000E+02 0.  0.
<mgrwt>
<rscale>  0 0.18175024E+03</rscale>
<asrwt>0</asrwt>
<pdfrwt beam="1">  1        1 0.93645486E-02 0.18175024E+03</pdfrwt>
<pdfrwt beam="2">  1       -1 0.17997289E-01 0.18175024E+03</pdfrwt>
<totfact> 0.16050627E+04</totfact>
</mgrwt>
</event>
<event>
 4    1  0.3352993E-004  0.2614161E+03  0.7818608E-02  0.1106295E+00
         -1   -1    0    0    0  501 -0.00000000000E+00  0.00000000000E+00  0.22358897883E+02  0.22358898451E+02  0.50400000000E-02 0. -1.
          1   -1    0    0  501    0  0.00000000000E+00 -0.00000000000E+00 -0.76410693309E+03  0.76410693311E+03  0.50400000000E-02 0.  1.
    5000001    1    1    2    0    0  0.70320761725E+02 -0.70864148967E+02 -0.47460571563E+03  0.49106651529E+03  0.77000000000E+02 0.  0.
   -5000001    1    1    2    0    0 -0.70320761725E+02  0.70864148967E+02 -0.26714231958E+03  0.29539931627E+03  0.77000000000E+02 0.  0.
<mgrwt>
<rscale>  0 0.26141606E+03</rscale>
<asrwt>0</asrwt>
<pdfrwt beam="1">  1        1 0.10915812E+00 0.26141606E+03</pdfrwt>
<pdfrwt beam="2">  1       -1 0.31941288E-02 0.26141606E+03</pdfrwt>
<totfact> 0.94503620E+03</totfact>
</mgrwt>
</event>
<event>
 4    1  0.3352993E-004  0.2080691E+03  0.7818608E-02  0.1143104E+00
          1   -1    0    0  501    0  0.00000000000E+00  0.00000000000E+00  0.15727075085E+02  0.15727075892E+02  0.50400000000E-02 0.  1.
         -1   -1    0    0    0  501 -0.00000000000E+00 -0.00000000000E+00 -0.68818800594E+03  0.68818800596E+03  0.50400000000E-02 0. -1.
    5000001    1    1    2    0    0 -0.45727237995E+02  0.13484651616E+02 -0.50944199080E+03  0.51742918174E+03  0.77000000000E+02 0.  0.
   -5000001    1    1    2    0    0  0.45727237995E+02 -0.13484651616E+02 -0.16301894005E+03  0.18648590011E+03  0.77000000000E+02 0.  0.
<mgrwt>
<rscale>  0 0.20806907E+03</rscale>
<asrwt>0</asrwt>
<pdfrwt beam="1">  1        1 0.22467255E-02 0.20806907E+03</pdfrwt>
<pdfrwt beam="2">  1       -1 0.98312554E-01 0.20806907E+03</pdfrwt>
<totfact> 0.52759360E+03</totfact>
</mgrwt>
</event>
<event>
 4    1  0.3352993E-004  0.2121200E+03  0.7818608E-02  0.1139898E+00
          1   -1    0    0  501    0  0.00000000000E+00  0.00000000000E+00  0.17140736332E+03  0.17140736339E+03  0.50400000000E-02 0.  1.
         -1   -1    0    0    0  501 -0.00000000000E+00 -0.00000000000E+00 -0.65625695710E+02  0.65625695904E+02  0.50400000000E-02 0. -1.
    5000001    1    1    2    0    0  0.49491917498E+02  0.35087997297E+02  0.98131738841E+02  0.13870636474E+03  0.77000000000E+02 0.  0.
   -5000001    1    1    2    0    0 -0.49491917498E+02 -0.35087997297E+02  0.76499287673E+01  0.98326694555E+02  0.77000000000E+02 0.  0.
<mgrwt>
<rscale>  0 0.21212004E+03</rscale>
<asrwt>0</asrwt>
<pdfrwt beam="1">  1        1 0.24486766E-01 0.21212004E+03</pdfrwt>
<pdfrwt beam="2">  1       -1 0.93750995E-02 0.21212004E+03</pdfrwt>
<totfact> 0.12854701E+04</totfact>
</mgrwt>
</event>
<event>
 4    1  0.3352993E-004  0.2039729E+03  0.7818608E-02  0.1146430E+00
         -1   -1    0    0    0  501 -0.00000000000E+00  0.00000000000E+00  0.10687032071E+02  0.10687033260E+02  0.50400000000E-02 0. -1.
          1   -1    0    0  501    0  0.00000000000E+00 -0.00000000000E+00 -0.97325787253E+03  0.97325787254E+03  0.50400000000E-02 0.  1.
    5000001    1    1    2    0    0 -0.14149949294E+02 -0.38332265382E+02 -0.22590765689E+03  0.24214221663E+03  0.77000000000E+02 0.  0.
   -5000001    1    1    2    0    0  0.14149949294E+02  0.38332265382E+02 -0.73666318357E+03  0.74180268917E+03  0.77000000000E+02 0.  0.
<mgrwt>
<rscale>  0 0.20397293E+03</rscale>
<asrwt>0</asrwt>
<pdfrwt beam="1">  1        1 0.13903678E+00 0.20397293E+03</pdfrwt>
<pdfrwt beam="2">  1       -1 0.15267196E-02 0.20397293E+03</pdfrwt>
<totfact> 0.18930545E+04</totfact>
</mgrwt>
</event>
<event>
 4    1  0.3352993E-004  0.3173144E+03  0.7818608E-02  0.1076892E+00
         -1   -1    0    0    0  501 -0.00000000000E+00  0.00000000000E+00  0.80716100588E+02  0.80716100746E+02  0.50400000000E-02 0.  1.
          1   -1    0    0  501    0  0.00000000000E+00 -0.00000000000E+00 -0.31185971290E+03  0.31185971294E+03  0.50400000000E-02 0. -1.
    5000001    1    1    2    0    0  0.12539002335E+03 -0.50822653854E+02 -0.15345263156E+03  0.21859165179E+03  0.77000000000E+02 0.  0.
   -5000001    1    1    2    0    0 -0.12539002335E+03  0.50822653854E+02 -0.77690980754E+02  0.17398416190E+03  0.77000000000E+02 0.  0.
<mgrwt>
<rscale>  0 0.31731436E+03</rscale>
<asrwt>0</asrwt>
<pdfrwt beam="1">  1        1 0.44551387E-01 0.31731436E+03</pdfrwt>
<pdfrwt beam="2">  1       -1 0.11530872E-01 0.31731436E+03</pdfrwt>
<totfact> 0.44689016E+03</totfact>
</mgrwt>
</event>
<event>
 4    1  0.3352993E-004  0.2280319E+03  0.7818608E-02  0.1128033E+00
         -1   -1    0    0    0  501 -0.00000000000E+00  0.00000000000E+00  0.58488011796E+01  0.58488033511E+01  0.50400000000E-02 0. -1.
          1   -1    0    0  501    0  0.00000000000E+00 -0.00000000000E+00 -0.22226145952E+04  0.22226145952E+04  0.50400000000E-02 0.  1.
    5000001    1    1    2    0    0  0.30526175853E+02  0.67834251698E+02 -0.72521483930E+03  0.73307495951E+03  0.77000000000E+02 0.  0.
   -5000001    1    1    2    0    0 -0.30526175853E+02 -0.67834251698E+02 -0.14915509547E+04  0.14953884390E+04  0.77000000000E+02 0.  0.
<mgrwt>
<rscale>  0 0.22803187E+03</rscale>
<asrwt>0</asrwt>
<pdfrwt beam="1">  1        1 0.31751583E+00 0.22803187E+03</pdfrwt>
<pdfrwt beam="2">  1       -1 0.83554460E-03 0.22803187E+03</pdfrwt>
<totfact> 0.74567337E+03</totfact>
</mgrwt>
</event>
<event>
 4    1  0.3352993E-004  0.2092943E+03  0.7818608E-02  0.1142126E+00
          1   -1    0    0  501    0  0.00000000000E+00  0.00000000000E+00  0.36942347728E+03  0.36942347732E+03  0.50400000000E-02 0.  1.
         -1   -1    0    0    0  501 -0.00000000000E+00 -0.00000000000E+00 -0.29643570783E+02  0.29643571212E+02  0.50400000000E-02 0. -1.
    5000001    1    1    2    0    0  0.19669676321E+02  0.67292169983E+02  0.18960395302E+03  0.21631872621E+03  0.77000000000E+02 0.  0.
   -5000001    1    1    2    0    0 -0.19669676321E+02 -0.67292169983E+02  0.15017595348E+03  0.18274832232E+03  0.77000000000E+02 0.  0.
<mgrwt>
<rscale>  0 0.20929435E+03</rscale>
<asrwt>0</asrwt>
<pdfrwt beam="1">  1        1 0.52774787E-01 0.20929435E+03</pdfrwt>
<pdfrwt beam="2">  1       -1 0.42347955E-02 0.20929435E+03</pdfrwt>
<totfact> 0.16226025E+04</totfact>
</mgrwt>
</event>
<event>
 4    1  0.3352993E-004  0.2162651E+03  0.7818608E-02  0.1136699E+00
          1   -1    0    0  501    0  0.00000000000E+00  0.00000000000E+00  0.12604229055E+04  0.12604229055E+04  0.50400000000E-02 0. -1.
         -1   -1    0    0    0  501 -0.00000000000E+00 -0.00000000000E+00 -0.92767673901E+01  0.92767687592E+01  0.50400000000E-02 0.  1.
    5000001    1    1    2    0    0 -0.33076462077E+02 -0.56003525931E+02  0.39568604842E+03  0.40832204958E+03  0.77000000000E+02 0.  0.
   -5000001    1    1    2    0    0  0.33076462077E+02  0.56003525931E+02  0.85546008970E+03  0.86137762469E+03  0.77000000000E+02 0.  0.
<mgrwt>
<rscale>  0 0.21626512E+03</rscale>
<asrwt>0</asrwt>
<pdfrwt beam="1">  1        1 0.18006055E+00 0.21626512E+03</pdfrwt>
<pdfrwt beam="2">  1       -1 0.13252516E-02 0.21626512E+03</pdfrwt>
<totfact> 0.14848523E+04</totfact>
</mgrwt>
</event>
<event>
 4    1  0.3352993E-004  0.1686423E+03  0.7818608E-02  0.1179271E+00
          1   -1    0    0  501    0  0.00000000000E+00  0.00000000000E+00  0.35591728763E+04  0.35591728763E+04  0.50400000000E-02 0. -1.
         -1   -1    0    0    0  501 -0.00000000000E+00 -0.00000000000E+00 -0.19976679733E+01  0.19976743311E+01  0.50400000000E-02 0.  1.
    5000001    1    1    2    0    0  0.22587718729E+02  0.23519649020E+02  0.15495145544E+04  0.15517692268E+04  0.77000000000E+02 0.  0.
   -5000001    1    1    2    0    0 -0.22587718729E+02 -0.23519649020E+02  0.20076606539E+04  0.20094013238E+04  0.77000000000E+02 0.  0.
<mgrwt>
<rscale>  0 0.16864231E+03</rscale>
<asrwt>0</asrwt>
<pdfrwt beam="1">  1        1 0.50845035E+00 0.16864231E+03</pdfrwt>
<pdfrwt beam="2">  1       -1 0.28538323E-03 0.16864231E+03</pdfrwt>
<totfact> 0.49905548E+03</totfact>
</mgrwt>
</event>
<event>
 4    1  0.3352993E-004  0.2226525E+03  0.7818608E-02  0.1131921E+00
          1   -1    0    0  501    0  0.00000000000E+00  0.00000000000E+00  0.32579719931E+03  0.32579719935E+03  0.50400000000E-02 0. -1.
         -1   -1    0    0    0  501 -0.00000000000E+00 -0.00000000000E+00 -0.38040623849E+02  0.38040624183E+02  0.50400000000E-02 0.  1.
    5000001    1    1    2    0    0 -0.79166868235E+02  0.70232972483E+00  0.16679324420E+03  0.20004217706E+03  0.77000000000E+02 0.  0.
   -5000001    1    1    2    0    0  0.79166868235E+02 -0.70232972483E+00  0.12096333127E+03  0.16379564648E+03  0.77000000000E+02 0.  0.
<mgrwt>
<rscale>  0 0.22265245E+03</rscale>
<asrwt>0</asrwt>
<pdfrwt beam="1">  1        1 0.46542458E-01 0.22265245E+03</pdfrwt>
<pdfrwt beam="2">  1       -1 0.54343748E-02 0.22265245E+03</pdfrwt>
<totfact> 0.13153758E+04</totfact>
</mgrwt>
</event>
<event>
 4    1  0.3352993E-004  0.1964585E+03  0.7818608E-02  0.1152762E+00
          1   -1    0    0  501    0  0.00000000000E+00  0.00000000000E+00  0.55086542504E+03  0.55086542506E+03  0.50400000000E-02 0. -1.
         -1   -1    0    0    0  501 -0.00000000000E+00 -0.00000000000E+00 -0.17516046960E+02  0.17516047685E+02  0.50400000000E-02 0.  1.
    5000001    1    1    2    0    0  0.25185112667E+02 -0.15837571027E+02  0.11263402004E+03  0.13964433761E+03  0.77000000000E+02 0.  0.
   -5000001    1    1    2    0    0 -0.25185112667E+02  0.15837571027E+02  0.42071535804E+03  0.42873713514E+03  0.77000000000E+02 0.  0.
<mgrwt>
<rscale>  0 0.19645849E+03</rscale>
<asrwt>0</asrwt>
<pdfrwt beam="1">  1        1 0.78695060E-01 0.19645849E+03</pdfrwt>
<pdfrwt beam="2">  1       -1 0.25022925E-02 0.19645849E+03</pdfrwt>
<totfact> 0.20963248E+04</totfact>
</mgrwt>
</event>
<event>
 4    1  0.3352993E-004  0.1684437E+03  0.7818608E-02  0.1179481E+00
          1   -1    0    0  501    0  0.00000000000E+00  0.00000000000E+00  0.13766288390E+04  0.13766288390E+04  0.50400000000E-02 0.  1.
         -1   -1    0    0    0  501 -0.00000000000E+00 -0.00000000000E+00 -0.51526747639E+01  0.51526772288E+01  0.50400000000E-02 0. -1.
    5000001    1    1    2    0    0  0.29363851719E+02 -0.16489766680E+02  0.73079924298E+03  0.73561585201E+03  0.77000000000E+02 0.  0.
   -5000001    1    1    2    0    0 -0.29363851719E+02  0.16489766680E+02  0.64067692126E+03  0.64616566422E+03  0.77000000000E+02 0.  0.
<mgrwt>
<rscale>  0 0.16844373E+03</rscale>
<asrwt>0</asrwt>
<pdfrwt beam="1">  1        1 0.19666142E+00 0.16844373E+03</pdfrwt>
<pdfrwt beam="2">  1       -1 0.73609597E-03 0.16844373E+03</pdfrwt>
<totfact> 0.28687252E+04</totfact>
</mgrwt>
</event>
<event>
 4    1  0.3352993E-004  0.3839583E+03  0.7818608E-02  0.1049480E+00
         -1   -1    0    0    0  501 -0.00000000000E+00  0.00000000000E+00  0.57066920795E+03  0.57066920797E+03  0.50400000000E-02 0.  1.
          1   -1    0    0  501    0  0.00000000000E+00 -0.00000000000E+00 -0.64583817071E+02  0.64583817268E+02  0.50400000000E-02 0. -1.
    5000001    1    1    2    0    0 -0.39164300603E+02 -0.16991403986E+03  0.29085671034E+03  0.34775170644E+03  0.77000000000E+02 0.  0.
   -5000001    1    1    2    0    0  0.39164300603E+02  0.16991403986E+03  0.21522868054E+03  0.28750131880E+03  0.77000000000E+02 0.  0.
<mgrwt>
<rscale>  0 0.38395831E+03</rscale>
<asrwt>0</asrwt>
<pdfrwt beam="1">  1        1 0.92262594E-02 0.38395831E+03</pdfrwt>
<pdfrwt beam="2">  1       -1 0.81524174E-01 0.38395831E+03</pdfrwt>
<totfact> 0.11270880E+03</totfact>
</mgrwt>
</event>
<event>
 4    1  0.3352993E-004  0.1900518E+03  0.7818608E-02  0.1158415E+00
         -1   -1    0    0    0  501 -0.00000000000E+00  0.00000000000E+00  0.67684199248E+02  0.67684199435E+02  0.50400000000E-02 0.  1.
          1   -1    0    0  501    0  0.00000000000E+00 -0.00000000000E+00 -0.13341255064E+03  0.13341255074E+03  0.50400000000E-02 0. -1.
    5000001    1    1    2    0    0 -0.24876099191E+02 -0.49254732636E+02 -0.24940827135E+02  0.97958633393E+02  0.77000000000E+02 0.  0.
   -5000001    1    1    2    0    0  0.24876099191E+02  0.49254732636E+02 -0.40787524261E+02  0.10313811678E+03  0.77000000000E+02 0.  0.
<mgrwt>
<rscale>  0 0.19005180E+03</rscale>
<asrwt>0</asrwt>
<pdfrwt beam="1">  1        1 0.19058936E-01 0.19005180E+03</pdfrwt>
<pdfrwt beam="2">  1       -1 0.96691713E-02 0.19005180E+03</pdfrwt>
<totfact> 0.16747784E+04</totfact>
</mgrwt>
</event>
<event>
 4    1  0.3352993E-004  0.1636204E+03  0.7818608E-02  0.1184669E+00
         -1   -1    0    0    0  501 -0.00000000000E+00  0.00000000000E+00  0.93429589932E+01  0.93429603526E+01  0.50400000000E-02 0.  1.
          1   -1    0    0  501    0  0.00000000000E+00 -0.00000000000E+00 -0.71635874298E+03  0.71635874300E+03  0.50400000000E-02 0. -1.
    5000001    1    1    2    0    0  0.15788468818E+02 -0.22026586328E+02 -0.32943263389E+03  0.33939550162E+03  0.77000000000E+02 0.  0.
   -5000001    1    1    2    0    0 -0.15788468818E+02  0.22026586328E+02 -0.37758315010E+03  0.38630620173E+03  0.77000000000E+02 0.  0.
<mgrwt>
<rscale>  0 0.16362042E+03</rscale>
<asrwt>0</asrwt>
<pdfrwt beam="1">  1        1 0.10233693E+00 0.16362042E+03</pdfrwt>
<pdfrwt beam="2">  1       -1 0.13347090E-02 0.16362042E+03</pdfrwt>
<totfact> 0.35858132E+04</totfact>
</mgrwt>
</event>
<event>
 4    1  0.3352993E-004  0.2300535E+03  0.7818608E-02  0.1126602E+00
         -1   -1    0    0    0  501 -0.00000000000E+00  0.00000000000E+00  0.16124455334E+02  0.16124456122E+02  0.50400000000E-02 0. -1.
          1   -1    0    0  501    0  0.00000000000E+00 -0.00000000000E+00 -0.82056464812E+03  0.82056464813E+03  0.50400000000E-02 0.  1.
    5000001    1    1    2    0    0 -0.68536872922E+02  0.34710955383E+02 -0.26613831858E+03  0.28750783988E+03  0.77000000000E+02 0.  0.
   -5000001    1    1    2    0    0  0.68536872922E+02 -0.34710955383E+02 -0.53830187420E+03  0.54918126438E+03  0.77000000000E+02 0.  0.
<mgrwt>
<rscale>  0 0.23005354E+03</rscale>
<asrwt>0</asrwt>
<pdfrwt beam="1">  1        1 0.11722350E+00 0.23005354E+03</pdfrwt>
<pdfrwt beam="2">  1       -1 0.23034942E-02 0.23005354E+03</pdfrwt>
<totfact> 0.13667130E+04</totfact>
</mgrwt>
</event>
<event>
 4    1  0.3352993E-004  0.1676653E+03  0.7818608E-02  0.1180305E+00
          1   -1    0    0  501    0  0.00000000000E+00  0.00000000000E+00  0.49881115612E+03  0.49881115615E+03  0.50400000000E-02 0.  1.
         -1   -1    0    0    0  501 -0.00000000000E+00 -0.00000000000E+00 -0.14089331892E+02  0.14089332793E+02  0.50400000000E-02 0. -1.
    5000001    1    1    2    0    0  0.20109734197E+02  0.26350097943E+02  0.24368410368E+03  0.25770074012E+03  0.77000000000E+02 0.  0.
   -5000001    1    1    2    0    0 -0.20109734197E+02 -0.26350097943E+02  0.24103772056E+03  0.25519974883E+03  0.77000000000E+02 0.  0.
<mgrwt>
<rscale>  0 0.16766534E+03</rscale>
<asrwt>0</asrwt>
<pdfrwt beam="1">  1        1 0.71258722E-01 0.16766534E+03</pdfrwt>
<pdfrwt beam="2">  1       -1 0.20127622E-02 0.16766534E+03</pdfrwt>
<totfact> 0.32338546E+04</totfact>
</mgrwt>
</event>
<event>
 4    1  0.3352993E-004  0.2382369E+03  0.7818608E-02  0.1120973E+00
         -1   -1    0    0    0  501 -0.00000000000E+00  0.00000000000E+00  0.34025561151E+01  0.34025598479E+01  0.50400000000E-02 0. -1.
          1   -1    0    0  501    0  0.00000000000E+00 -0.00000000000E+00 -0.41701568177E+04  0.41701568177E+04  0.50400000000E-02 0.  1.
    5000001    1    1    2    0    0  0.70781170833E+02  0.10255307150E+02 -0.11009241921E+04  0.11059286696E+04  0.77000000000E+02 0.  0.
   -5000001    1    1    2    0    0 -0.70781170833E+02 -0.10255307150E+02 -0.30658300695E+04  0.30676307080E+04  0.77000000000E+02 0.  0.
<mgrwt>
<rscale>  0 0.23823686E+03</rscale>
<asrwt>0</asrwt>
<pdfrwt beam="1">  1        1 0.59573341E+00 0.23823686E+03</pdfrwt>
<pdfrwt beam="2">  1       -1 0.48608239E-03 0.23823686E+03</pdfrwt>
<totfact> 0.85710411E+02</totfact>
</mgrwt>
</event>
<event>
 4    1  0.3352993E-004  0.2443697E+03  0.7818608E-02  0.1116916E+00
         -1   -1    0    0    0  501 -0.00000000000E+00  0.00000000000E+00  0.37916618504E+02  0.37916618839E+02  0.50400000000E-02 0. -1.
          1   -1    0    0  501    0  0.00000000000E+00 -0.00000000000E+00 -0.39373594035E+03  0.39373594039E+03  0.50400000000E-02 0.  1.
    5000001    1    1    2    0    0 -0.87306303771E+02  0.34813787288E+02 -0.20065054202E+03  0.23457201554E+03  0.77000000000E+02 0.  0.
   -5000001    1    1    2    0    0  0.87306303771E+02 -0.34813787288E+02 -0.15516877983E+03  0.19708054368E+03  0.77000000000E+02 0.  0.
<mgrwt>
<rscale>  0 0.24436968E+03</rscale>
<asrwt>0</asrwt>
<pdfrwt beam="1">  1        1 0.56247989E-01 0.24436968E+03</pdfrwt>
<pdfrwt beam="2">  1       -1 0.54166600E-02 0.24436968E+03</pdfrwt>
<totfact> 0.10465091E+04</totfact>
</mgrwt>
</event>
<event>
 4    1  0.3352993E-004  0.2516134E+03  0.7818608E-02  0.1112289E+00
          1   -1    0    0  501    0  0.00000000000E+00  0.00000000000E+00  0.11680329619E+04  0.11680329619E+04  0.50400000000E-02 0. -1.
         -1   -1    0    0    0  501 -0.00000000000E+00 -0.00000000000E+00 -0.13550407613E+02  0.13550408550E+02  0.50400000000E-02 0.  1.
    5000001    1    1    2    0    0  0.58329778647E+02  0.36752112831E+02  0.24039359866E+03  0.26166995080E+03  0.77000000000E+02 0.  0.
   -5000001    1    1    2    0    0 -0.58329778647E+02 -0.36752112831E+02  0.91408895560E+03  0.91991341964E+03  0.77000000000E+02 0.  0.
<mgrwt>
<rscale>  0 0.25161338E+03</rscale>
<asrwt>0</asrwt>
<pdfrwt beam="1">  1        1 0.16686184E+00 0.25161338E+03</pdfrwt>
<pdfrwt beam="2">  1       -1 0.19357727E-02 0.25161338E+03</pdfrwt>
<totfact> 0.99177775E+03</totfact>
</mgrwt>
</event>
<event>
 4    1  0.3352993E-004  0.2506625E+03  0.7818608E-02  0.1112887E+00
          1   -1    0    0  501    0  0.00000000000E+00  0.00000000000E+00  0.28338814520E+04  0.28338814520E+04  0.50400000000E-02 0. -1.
         -1   -1    0    0    0  501 -0.00000000000E+00 -0.00000000000E+00 -0.55429010995E+01  0.55429033909E+01  0.50400000000E-02 0.  1.
    5000001    1    1    2    0    0 -0.16186791408E+01  0.92444778983E+02  0.18114899643E+04  0.18154816297E+04  0.77000000000E+02 0.  0.
   -5000001    1    1    2    0    0  0.16186791408E+01 -0.92444778983E+02  0.10168485866E+04  0.10239427256E+04  0.77000000000E+02 0.  0.
<mgrwt>
<rscale>  0 0.25066255E+03</rscale>
<asrwt>0</asrwt>
<pdfrwt beam="1">  1        1 0.40483843E+00 0.25066255E+03</pdfrwt>
<pdfrwt beam="2">  1       -1 0.79184666E-03 0.25066255E+03</pdfrwt>
<totfact> 0.34166545E+03</totfact>
</mgrwt>
</event>
<event>
 4    1  0.3352993E-004  0.1807844E+03  0.7818608E-02  0.1167046E+00
         -1   -1    0    0    0  501 -0.00000000000E+00  0.00000000000E+00  0.13571576721E+03  0.13571576730E+03  0.50400000000E-02 0. -1.
          1   -1    0    0  501    0  0.00000000000E+00 -0.00000000000E+00 -0.60204871906E+02  0.60204872117E+02  0.50400000000E-02 0.  1.
    5000001    1    1    2    0    0  0.47030566620E+02 -0.23805298402E+01  0.32423200621E+02  0.95905187854E+02  0.77000000000E+02 0.  0.
   -5000001    1    1    2    0    0 -0.47030566620E+02  0.23805298402E+01  0.43087694683E+02  0.10001545157E+03  0.77000000000E+02 0.  0.
<mgrwt>
<rscale>  0 0.18078441E+03</rscale>
<asrwt>0</asrwt>
<pdfrwt beam="1">  1        1 0.86006961E-02 0.18078441E+03</pdfrwt>
<pdfrwt beam="2">  1       -1 0.19387967E-01 0.18078441E+03</pdfrwt>
<totfact> 0.15959322E+04</totfact>
</mgrwt>
</event>
<event>
 4    1  0.3352993E-004  0.2445560E+03  0.7818608E-02  0.1116794E+00
         -1   -1    0    0    0  501 -0.00000000000E+00  0.00000000000E+00  0.59606124456E+02  0.59606124669E+02  0.50400000000E-02 0.  1.
          1   -1    0    0  501    0  0.00000000000E+00 -0.00000000000E+00 -0.25084522616E+03  0.25084522621E+03  0.50400000000E-02 0. -1.
    5000001    1    1    2    0    0  0.75924912281E+02 -0.56483769331E+02 -0.10608024878E+03  0.16166950140E+03  0.77000000000E+02 0.  0.
   -5000001    1    1    2    0    0 -0.75924912281E+02  0.56483769331E+02 -0.85158852925E+02  0.14878184948E+03  0.77000000000E+02 0.  0.
<mgrwt>
<rscale>  0 0.24455602E+03</rscale>
<asrwt>0</asrwt>
<pdfrwt beam="1">  1        1 0.35835032E-01 0.24455602E+03</pdfrwt>
<pdfrwt beam="2">  1       -1 0.85151608E-02 0.24455602E+03</pdfrwt>
<totfact> 0.92976451E+03</totfact>
</mgrwt>
</event>
<event>
 4    1  0.3352993E-004  0.3159492E+03  0.7818608E-02  0.1077529E+00
         -1   -1    0    0    0  501 -0.00000000000E+00  0.00000000000E+00  0.51951131198E+03  0.51951131200E+03  0.50400000000E-02 0. -1.
          1   -1    0    0  501    0  0.00000000000E+00 -0.00000000000E+00 -0.48037404068E+02  0.48037404333E+02  0.50400000000E-02 0.  1.
    5000001    1    1    2    0    0 -0.25575503472E+02  0.12502237856E+03  0.14166909624E+03  0.20563033421E+03  0.77000000000E+02 0.  0.
   -5000001    1    1    2    0    0  0.25575503472E+02 -0.12502237856E+03  0.32980481167E+03  0.36191838212E+03  0.77000000000E+02 0.  0.
<mgrwt>
<rscale>  0 0.31594920E+03</rscale>
<asrwt>0</asrwt>
<pdfrwt beam="1">  1        1 0.68624866E-02 0.31594920E+03</pdfrwt>
<pdfrwt beam="2">  1       -1 0.74215899E-01 0.31594920E+03</pdfrwt>
<totfact> 0.20486873E+03</totfact>
</mgrwt>
</event>
<event>
 4    1  0.3352993E-004  0.1747653E+03  0.7818608E-02  0.1172968E+00
         -1   -1    0    0    0  501 -0.00000000000E+00  0.00000000000E+00  0.95005310720E+02  0.95005310853E+02  0.50400000000E-02 0. -1.
          1   -1    0    0  501    0  0.00000000000E+00 -0.00000000000E+00 -0.80371582299E+02  0.80371582457E+02  0.50400000000E-02 0.  1.
    5000001    1    1    2    0    0  0.16861975579E+02 -0.30567545794E+02  0.29485486273E+02  0.89538231930E+02  0.77000000000E+02 0.  0.
   -5000001    1    1    2    0    0 -0.16861975579E+02  0.30567545794E+02 -0.14851757852E+02  0.85838661381E+02  0.77000000000E+02 0.  0.
<mgrwt>
<rscale>  0 0.17476530E+03</rscale>
<asrwt>0</asrwt>
<pdfrwt beam="1">  1        1 0.11481655E-01 0.17476530E+03</pdfrwt>
<pdfrwt beam="2">  1       -1 0.13572187E-01 0.17476530E+03</pdfrwt>
<totfact> 0.19052616E+04</totfact>
</mgrwt>
</event>
<event>
 4    1  0.3352993E-004  0.2666581E+03  0.7818608E-02  0.1103208E+00
          1   -1    0    0  501    0  0.00000000000E+00  0.00000000000E+00  0.17468114431E+04  0.17468114431E+04  0.50400000000E-02 0.  1.
         -1   -1    0    0    0  501 -0.00000000000E+00 -0.00000000000E+00 -0.10176618159E+02  0.10176619407E+02  0.50400000000E-02 0. -1.
    5000001    1    1    2    0    0 -0.32687571662E+02 -0.98465781957E+02  0.65141824576E+03  0.66410746003E+03  0.77000000000E+02 0.  0.
   -5000001    1    1    2    0    0  0.32687571662E+02  0.98465781957E+02  0.10852165792E+04  0.10928806025E+04  0.77000000000E+02 0.  0.
<mgrwt>
<rscale>  0 0.26665809E+03</rscale>
<asrwt>0</asrwt>
<pdfrwt beam="1">  1        1 0.24954457E+00 0.26665809E+03</pdfrwt>
<pdfrwt beam="2">  1       -1 0.14538023E-02 0.26665809E+03</pdfrwt>
<totfact> 0.64942715E+03</totfact>
</mgrwt>
</event>
<event>
 4    1  0.3352993E-004  0.2089887E+03  0.7818608E-02  0.1142369E+00
         -1   -1    0    0    0  501 -0.00000000000E+00  0.00000000000E+00  0.51325979409E+01  0.51326004154E+01  0.50400000000E-02 0. -1.
          1   -1    0    0  501    0  0.00000000000E+00 -0.00000000000E+00 -0.21273962899E+04  0.21273962899E+04  0.50400000000E-02 0.  1.
    5000001    1    1    2    0    0  0.45927569383E+02  0.13064081586E+02 -0.52992757856E+03  0.53761719687E+03  0.77000000000E+02 0.  0.
   -5000001    1    1    2    0    0 -0.45927569383E+02 -0.13064081586E+02 -0.15923361134E+04  0.15949116935E+04  0.77000000000E+02 0.  0.
<mgrwt>
<rscale>  0 0.20898873E+03</rscale>
<asrwt>0</asrwt>
<pdfrwt beam="1">  1        1 0.30391319E+00 0.20898873E+03</pdfrwt>
<pdfrwt beam="2">  1       -1 0.73322982E-03 0.20898873E+03</pdfrwt>
<totfact> 0.10237242E+04</totfact>
</mgrwt>
</event>
<event>
 4    1  0.3352993E-004  0.1716968E+03  0.7818608E-02  0.1176090E+00
          1   -1    0    0  501    0  0.00000000000E+00  0.00000000000E+00  0.19564753744E+02  0.19564754393E+02  0.50400000000E-02 0.  1.
         -1   -1    0    0    0  501 -0.00000000000E+00 -0.00000000000E+00 -0.37669507101E+03  0.37669507104E+03  0.50400000000E-02 0. -1.
    5000001    1    1    2    0    0 -0.92111032512E-01 -0.37917217287E+02 -0.17442210974E+03  0.19439597789E+03  0.77000000000E+02 0.  0.
   -5000001    1    1    2    0    0  0.92111032512E-01  0.37917217287E+02 -0.18270820752E+03  0.20186384754E+03  0.77000000000E+02 0.  0.
<mgrwt>
<rscale>  0 0.17169678E+03</rscale>
<asrwt>0</asrwt>
<pdfrwt beam="1">  1        1 0.27949651E-02 0.17169678E+03</pdfrwt>
<pdfrwt beam="2">  1       -1 0.53813577E-01 0.17169678E+03</pdfrwt>
<totfact> 0.12913089E+04</totfact>
</mgrwt>
</event>
<event>
 4    1  0.3352993E-004  0.2021529E+03  0.7818608E-02  0.1147935E+00
          1   -1    0    0  501    0  0.00000000000E+00  0.00000000000E+00  0.78823949408E+02  0.78823949569E+02  0.50400000000E-02 0. -1.
         -1   -1    0    0    0  501 -0.00000000000E+00 -0.00000000000E+00 -0.12961101573E+03  0.12961101583E+03  0.50400000000E-02 0.  1.
    5000001    1    1    2    0    0 -0.16071330433E+02 -0.50292321139E+02  0.14537817229E+02  0.94487847669E+02  0.77000000000E+02 0.  0.
   -5000001    1    1    2    0    0  0.16071330433E+02  0.50292321139E+02 -0.65324883553E+02  0.11394711773E+03  0.77000000000E+02 0.  0.
<mgrwt>
<rscale>  0 0.20215293E+03</rscale>
<asrwt>0</asrwt>
<pdfrwt beam="1">  1        1 0.11260564E-01 0.20215293E+03</pdfrwt>
<pdfrwt beam="2">  1       -1 0.18515859E-01 0.20215293E+03</pdfrwt>
<totfact> 0.12090649E+04</totfact>
</mgrwt>
</event>
<event>
 4    1  0.3352993E-004  0.2100350E+03  0.7818608E-02  0.1141538E+00
         -1   -1    0    0    0  501 -0.00000000000E+00  0.00000000000E+00  0.65287685853E+01  0.65287705307E+01  0.50400000000E-02 0. -1.
          1   -1    0    0  501    0  0.00000000000E+00 -0.00000000000E+00 -0.16892419709E+04  0.16892419710E+04  0.50400000000E-02 0.  1.
    5000001    1    1    2    0    0 -0.22709370078E+02  0.67430975281E+02 -0.89048037310E+03  0.89663088660E+03  0.77000000000E+02 0.  0.
   -5000001    1    1    2    0    0  0.22709370078E+02 -0.67430975281E+02 -0.79223282926E+03  0.79913985489E+03  0.77000000000E+02 0.  0.
<mgrwt>
<rscale>  0 0.21003496E+03</rscale>
<asrwt>0</asrwt>
<pdfrwt beam="1">  1        1 0.24132000E+00 0.21003496E+03</pdfrwt>
<pdfrwt beam="2">  1       -1 0.93268244E-03 0.21003496E+03</pdfrwt>
<totfact> 0.13284332E+04</totfact>
</mgrwt>
</event>
<event>
 4    1  0.3352993E-004  0.1866222E+03  0.7818608E-02  0.1161544E+00
          1   -1    0    0  501    0  0.00000000000E+00  0.00000000000E+00  0.60652092682E+02  0.60652092892E+02  0.50400000000E-02 0. -1.
         -1   -1    0    0    0  501 -0.00000000000E+00 -0.00000000000E+00 -0.14355575699E+03  0.14355575708E+03  0.50400000000E-02 0.  1.
    5000001    1    1    2    0    0  0.51708940968E+02  0.15676213989E+01 -0.30417707507E+02  0.97624325569E+02  0.77000000000E+02 0.  0.
   -5000001    1    1    2    0    0 -0.51708940968E+02 -0.15676213989E+01 -0.52485956804E+02  0.10658352440E+03  0.77000000000E+02 0.  0.
<mgrwt>
<rscale>  0 0.18662215E+03</rscale>
<asrwt>0</asrwt>
<pdfrwt beam="1">  1        1 0.86645847E-02 0.18662215E+03</pdfrwt>
<pdfrwt beam="2">  1       -1 0.20507965E-01 0.18662215E+03</pdfrwt>
<totfact> 0.14468913E+04</totfact>
</mgrwt>
</event>
<event>
 4    1  0.3352993E-004  0.2082198E+03  0.7818608E-02  0.1142984E+00
          1   -1    0    0  501    0  0.00000000000E+00  0.00000000000E+00  0.22160605658E+02  0.22160606231E+02  0.50400000000E-02 0. -1.
         -1   -1    0    0    0  501 -0.00000000000E+00 -0.00000000000E+00 -0.48910528610E+03  0.48910528612E+03  0.50400000000E-02 0.  1.
    5000001    1    1    2    0    0  0.39339816546E+02  0.31818803227E+02 -0.35249822014E+03  0.36434057228E+03  0.77000000000E+02 0.  0.
   -5000001    1    1    2    0    0 -0.39339816546E+02 -0.31818803227E+02 -0.11444646029E+03  0.14692532007E+03  0.77000000000E+02 0.  0.
<mgrwt>
<rscale>  0 0.20821978E+03</rscale>
<asrwt>0</asrwt>
<pdfrwt beam="1">  1        1 0.31658012E-02 0.20821978E+03</pdfrwt>
<pdfrwt beam="2">  1       -1 0.69872177E-01 0.20821978E+03</pdfrwt>
<totfact> 0.66602508E+03</totfact>
</mgrwt>
</event>
<event>
 4    1  0.3352993E-004  0.2347339E+03  0.7818608E-02  0.1123351E+00
          1   -1    0    0  501    0  0.00000000000E+00  0.00000000000E+00  0.14090637525E+03  0.14090637534E+03  0.50400000000E-02 0.  1.
         -1   -1    0    0    0  501 -0.00000000000E+00 -0.00000000000E+00 -0.97759996411E+02  0.97759996540E+02  0.50400000000E-02 0. -1.
    5000001    1    1    2    0    0  0.52552433625E+02  0.70946668219E+02  0.14325036813E+02  0.11802285665E+03  0.77000000000E+02 0.  0.
   -5000001    1    1    2    0    0 -0.52552433625E+02 -0.70946668219E+02  0.28821342023E+02  0.12064351523E+03  0.77000000000E+02 0.  0.
<mgrwt>
<rscale>  0 0.23473395E+03</rscale>
<asrwt>0</asrwt>
<pdfrwt beam="1">  1        1 0.20129482E-01 0.23473395E+03</pdfrwt>
<pdfrwt beam="2">  1       -1 0.13965714E-01 0.23473395E+03</pdfrwt>
<totfact> 0.89439959E+03</totfact>
</mgrwt>
</event>
<event>
 4    1  0.3352993E-004  0.1911697E+03  0.7818608E-02  0.1157411E+00
          1   -1    0    0  501    0  0.00000000000E+00  0.00000000000E+00  0.31230334225E+03  0.31230334229E+03  0.50400000000E-02 0.  1.
         -1   -1    0    0    0  501 -0.00000000000E+00 -0.00000000000E+00 -0.29255085370E+02  0.29255085804E+02  0.50400000000E-02 0. -1.
    5000001    1    1    2    0    0  0.40521025736E+02  0.39557843203E+02  0.14004589297E+03  0.16955420556E+03  0.77000000000E+02 0.  0.
   -5000001    1    1    2    0    0 -0.40521025736E+02 -0.39557843203E+02  0.14300236392E+03  0.17200422254E+03  0.77000000000E+02 0.  0.
<mgrwt>
<rscale>  0 0.19116967E+03</rscale>
<asrwt>0</asrwt>
<pdfrwt beam="1">  1        1 0.44614764E-01 0.19116967E+03</pdfrwt>
<pdfrwt beam="2">  1       -1 0.41792979E-02 0.19116967E+03</pdfrwt>
<totfact> 0.20287045E+04</totfact>
</mgrwt>
</event>
<event>
 4    1  0.3352993E-004  0.6355257E+03  0.7818608E-02  0.9834325E-01
          1   -1    0    0  501    0  0.00000000000E+00  0.00000000000E+00  0.18507581138E+04  0.18507581138E+04  0.50400000000E-02 0.  1.
         -1   -1    0    0    0  501 -0.00000000000E+00 -0.00000000000E+00 -0.54557760847E+02  0.54557761080E+02  0.50400000000E-02 0. -1.
    5000001    1    1    2    0    0 -0.15786809103E+02 -0.10487207936E+03  0.30244083287E+02  0.13450308898E+03  0.77000000000E+02 0.  0.
   -5000001    1    1    2    0    0  0.15786809103E+02  0.10487207936E+03  0.17659562697E+04  0.17708127859E+04  0.77000000000E+02 0.  0.
<mgrwt>
<rscale>  0 0.63552567E+03</rscale>
<asrwt>0</asrwt>
<pdfrwt beam="1">  1        1 0.26439397E+00 0.63552567E+03</pdfrwt>
<pdfrwt beam="2">  1       -1 0.77939673E-02 0.63552567E+03</pdfrwt>
<totfact> 0.44536482E+02</totfact>
</mgrwt>
</event>
<event>
 4    1  0.3352993E-004  0.2278752E+03  0.7818608E-02  0.1128144E+00
          1   -1    0    0  501    0  0.00000000000E+00  0.00000000000E+00  0.28860950329E+04  0.28860950329E+04  0.50400000000E-02 0. -1.
         -1   -1    0    0    0  501 -0.00000000000E+00 -0.00000000000E+00 -0.44980396654E+01  0.44980424890E+01  0.50400000000E-02 0.  1.
    5000001    1    1    2    0    0  0.83077213088E+02  0.73416988412E+01  0.15657633943E+04  0.15698725206E+04  0.77000000000E+02 0.  0.
   -5000001    1    1    2    0    0 -0.83077213088E+02 -0.73416988412E+01  0.13158335989E+04  0.13207205548E+04  0.77000000000E+02 0.  0.
<mgrwt>
<rscale>  0 0.22787518E+03</rscale>
<asrwt>0</asrwt>
<pdfrwt beam="1">  1        1 0.41230101E+00 0.22787518E+03</pdfrwt>
<pdfrwt beam="2">  1       -1 0.64257462E-03 0.22787518E+03</pdfrwt>
<totfact> 0.42802458E+03</totfact>
</mgrwt>
</event>
<event>
 4    1  0.3352993E-004  0.2451758E+03  0.7818608E-02  0.1116392E+00
          1   -1    0    0  501    0  0.00000000000E+00  0.00000000000E+00  0.58963841642E+02  0.58963841857E+02  0.50400000000E-02 0.  1.
         -1   -1    0    0    0  501 -0.00000000000E+00 -0.00000000000E+00 -0.25486465167E+03  0.25486465172E+03  0.50400000000E-02 0. -1.
    5000001    1    1    2    0    0  0.21961130831E+02 -0.51167866638E+02 -0.19708628096E+03  0.21879772390E+03  0.77000000000E+02 0.  0.
   -5000001    1    1    2    0    0 -0.21961130831E+02  0.51167866638E+02  0.11854709277E+01  0.95030769675E+02  0.77000000000E+02 0.  0.
<mgrwt>
<rscale>  0 0.24517585E+03</rscale>
<asrwt>0</asrwt>
<pdfrwt beam="1">  1        1 0.84234061E-02 0.24517585E+03</pdfrwt>
<pdfrwt beam="2">  1       -1 0.36409235E-01 0.24517585E+03</pdfrwt>
<totfact> 0.58377821E+03</totfact>
</mgrwt>
</event>
<event>
 4    1  0.3352993E-004  0.2337802E+03  0.7818608E-02  0.1124007E+00
          1   -1    0    0  501    0  0.00000000000E+00  0.00000000000E+00  0.21520534935E+03  0.21520534940E+03  0.50400000000E-02 0.  1.
         -1   -1    0    0    0  501 -0.00000000000E+00 -0.00000000000E+00 -0.63489549870E+02  0.63489550070E+02  0.50400000000E-02 0. -1.
    5000001    1    1    2    0    0  0.69498343067E+01 -0.86877549286E+02  0.61839312763E+02  0.13171601789E+03  0.77000000000E+02 0.  0.
   -5000001    1    1    2    0    0 -0.69498343067E+01  0.86877549286E+02  0.89876486712E+02  0.14697888158E+03  0.77000000000E+02 0.  0.
<mgrwt>
<rscale>  0 0.23378016E+03</rscale>
<asrwt>0</asrwt>
<pdfrwt beam="1">  1        1 0.30743622E-01 0.23378016E+03</pdfrwt>
<pdfrwt beam="2">  1       -1 0.90699354E-02 0.23378016E+03</pdfrwt>
<totfact> 0.10207754E+04</totfact>
</mgrwt>
</event>
<event>
 4    1  0.3352993E-004  0.3172739E+03  0.7818608E-02  0.1076911E+00
          1   -1    0    0  501    0  0.00000000000E+00  0.00000000000E+00  0.11765486735E+03  0.11765486746E+03  0.50400000000E-02 0.  1.
         -1   -1    0    0    0  501 -0.00000000000E+00 -0.00000000000E+00 -0.21389405561E+03  0.21389405567E+03  0.50400000000E-02 0. -1.
    5000001    1    1    2    0    0 -0.76831212329E+02 -0.48370017005E+02 -0.15768938939E+03  0.19757944544E+03  0.77000000000E+02 0.  0.
   -5000001    1    1    2    0    0  0.76831212329E+02  0.48370017005E+02  0.61450201137E+02  0.13396947769E+03  0.77000000000E+02 0.  0.
<mgrwt>
<rscale>  0 0.31727387E+03</rscale>
<asrwt>0</asrwt>
<pdfrwt beam="1">  1        1 0.16807838E-01 0.31727387E+03</pdfrwt>
<pdfrwt beam="2">  1       -1 0.30556294E-01 0.31727387E+03</pdfrwt>
<totfact> 0.31762469E+03</totfact>
</mgrwt>
</event>
<event>
 4    1  0.3352993E-004  0.2060063E+03  0.7818608E-02  0.1144768E+00
         -1   -1    0    0    0  501 -0.00000000000E+00  0.00000000000E+00  0.18315220768E+03  0.18315220775E+03  0.50400000000E-02 0. -1.
          1   -1    0    0  501    0  0.00000000000E+00 -0.00000000000E+00 -0.57928030348E+02  0.57928030567E+02  0.50400000000E-02 0.  1.
    5000001    1    1    2    0    0  0.37291838267E+02 -0.48147600879E+02  0.26131335574E+02  0.10159094138E+03  0.77000000000E+02 0.  0.
   -5000001    1    1    2    0    0 -0.37291838267E+02  0.48147600879E+02  0.99092841754E+02  0.13948929693E+03  0.77000000000E+02 0.  0.
<mgrwt>
<rscale>  0 0.20600628E+03</rscale>
<asrwt>0</asrwt>
<pdfrwt beam="1">  1        1 0.82754328E-02 0.20600628E+03</pdfrwt>
<pdfrwt beam="2">  1       -1 0.26164602E-01 0.20600628E+03</pdfrwt>
<totfact> 0.10394841E+04</totfact>
</mgrwt>
</event>
<event>
 4    1  0.3352993E-004  0.2459967E+03  0.7818608E-02  0.1115861E+00
          1   -1    0    0  501    0  0.00000000000E+00  0.00000000000E+00  0.50180610071E+02  0.50180610324E+02  0.50400000000E-02 0.  1.
         -1   -1    0    0    0  501 -0.00000000000E+00 -0.00000000000E+00 -0.30148291302E+03  0.30148291306E+03  0.50400000000E-02 0. -1.
    5000001    1    1    2    0    0 -0.91685507889E+02 -0.28498766760E+01 -0.16571013059E+03  0.20445831246E+03  0.77000000000E+02 0.  0.
   -5000001    1    1    2    0    0  0.91685507889E+02  0.28498766760E+01 -0.85592172350E+02  0.14720521092E+03  0.77000000000E+02 0.  0.
<mgrwt>
<rscale>  0 0.24599672E+03</rscale>
<asrwt>0</asrwt>
<pdfrwt beam="1">  1        1 0.71686587E-02 0.24599672E+03</pdfrwt>
<pdfrwt beam="2">  1       -1 0.43068987E-01 0.24599672E+03</pdfrwt>
<totfact> 0.54002532E+03</totfact>
</mgrwt>
</event>
<event>
 4    1  0.3352993E-004  0.1920082E+03  0.7818608E-02  0.1156662E+00
         -1   -1    0    0    0  501 -0.00000000000E+00  0.00000000000E+00  0.23970536491E+02  0.23970537021E+02  0.50400000000E-02 0. -1.
          1   -1    0    0  501    0  0.00000000000E+00 -0.00000000000E+00 -0.38450477447E+03  0.38450477451E+03  0.50400000000E-02 0.  1.
    5000001    1    1    2    0    0 -0.38219963624E+02  0.41655794807E+02 -0.15988248841E+03  0.18624548575E+03  0.77000000000E+02 0.  0.
   -5000001    1    1    2    0    0  0.38219963624E+02 -0.41655794807E+02 -0.20065174957E+03  0.22222982578E+03  0.77000000000E+02 0.  0.
<mgrwt>
<rscale>  0 0.19200819E+03</rscale>
<asrwt>0</asrwt>
<pdfrwt beam="1">  1        1 0.54929250E-01 0.19200819E+03</pdfrwt>
<pdfrwt beam="2">  1       -1 0.34243626E-02 0.19200819E+03</pdfrwt>
<totfact> 0.20984580E+04</totfact>
</mgrwt>
</event>
<event>
 4    1  0.3352993E-004  0.3639923E+03  0.7818608E-02  0.1057014E+00
          1   -1    0    0  501    0  0.00000000000E+00  0.00000000000E+00  0.79329933585E+03  0.79329933586E+03  0.50400000000E-02 0. -1.
         -1   -1    0    0    0  501 -0.00000000000E+00 -0.00000000000E+00 -0.41752970243E+02  0.41752970547E+02  0.50400000000E-02 0.  1.
    5000001    1    1    2    0    0  0.42088240655E+01 -0.14544460468E+03  0.19774734272E+03  0.25730304854E+03  0.77000000000E+02 0.  0.
   -5000001    1    1    2    0    0 -0.42088240655E+01  0.14544460468E+03  0.55379902288E+03  0.57774925787E+03  0.77000000000E+02 0.  0.
<mgrwt>
<rscale>  0 0.36399233E+03</rscale>
<asrwt>0</asrwt>
<pdfrwt beam="1">  1        1 0.11332847E+00 0.36399233E+03</pdfrwt>
<pdfrwt beam="2">  1       -1 0.59647104E-02 0.36399233E+03</pdfrwt>
<totfact> 0.35376391E+03</totfact>
</mgrwt>
</event>
<event>
 4    1  0.3352993E-004  0.2907490E+03  0.7818608E-02  0.1089959E+00
          1   -1    0    0  501    0  0.00000000000E+00  0.00000000000E+00  0.14748282010E+02  0.14748282871E+02  0.50400000000E-02 0.  1.
         -1   -1    0    0    0  501 -0.00000000000E+00 -0.00000000000E+00 -0.14329633558E+04  0.14329633558E+04  0.50400000000E-02 0. -1.
    5000001    1    1    2    0    0  0.12297681979E+03  0.90186437726E+01 -0.71078997595E+03  0.72550397935E+03  0.77000000000E+02 0.  0.
   -5000001    1    1    2    0    0 -0.12297681979E+03 -0.90186437726E+01 -0.70742509785E+03  0.72220765934E+03  0.77000000000E+02 0.  0.
<mgrwt>
<rscale>  0 0.29074902E+03</rscale>
<asrwt>0</asrwt>
<pdfrwt beam="1">  1        1 0.21068984E-02 0.29074902E+03</pdfrwt>
<pdfrwt beam="2">  1       -1 0.20470896E+00 0.29074902E+03</pdfrwt>
<totfact> 0.87364669E+02</totfact>
</mgrwt>
</event>
<event>
 4    1  0.3352993E-004  0.3318844E+03  0.7818608E-02  0.1070306E+00
         -1   -1    0    0    0  501 -0.00000000000E+00  0.00000000000E+00  0.21383079784E+02  0.21383080378E+02  0.50400000000E-02 0. -1.
          1   -1    0    0  501    0  0.00000000000E+00 -0.00000000000E+00 -0.12877850376E+04  0.12877850377E+04  0.50400000000E-02 0.  1.
    5000001    1    1    2    0    0  0.12998175972E+03 -0.14793120291E+02 -0.89763140999E+03  0.91037642899E+03  0.77000000000E+02 0.  0.
   -5000001    1    1    2    0    0 -0.12998175972E+03  0.14793120291E+02 -0.36877054787E+03  0.39879168904E+03  0.77000000000E+02 0.  0.
<mgrwt>
<rscale>  0 0.33188438E+03</rscale>
<asrwt>0</asrwt>
<pdfrwt beam="1">  1        1 0.18396924E+00 0.33188438E+03</pdfrwt>
<pdfrwt beam="2">  1       -1 0.30547265E-02 0.33188438E+03</pdfrwt>
<totfact> 0.42470502E+03</totfact>
</mgrwt>
</event>
<event>
 4    1  0.3352993E-004  0.1962666E+03  0.7818608E-02  0.1152928E+00
          1   -1    0    0  501    0  0.00000000000E+00  0.00000000000E+00  0.12786001264E+03  0.12786001274E+03  0.50400000000E-02 0.  1.
         -1   -1    0    0    0  501 -0.00000000000E+00 -0.00000000000E+00 -0.75317848535E+02  0.75317848704E+02  0.50400000000E-02 0. -1.
    5000001    1    1    2    0    0  0.68068062355E+01  0.43816644570E+02  0.69390069790E+02  0.11273957929E+03  0.77000000000E+02 0.  0.
   -5000001    1    1    2    0    0 -0.68068062355E+01 -0.43816644570E+02 -0.16847905689E+02  0.90438282152E+02  0.77000000000E+02 0.  0.
<mgrwt>
<rscale>  0 0.19626656E+03</rscale>
<asrwt>0</asrwt>
<pdfrwt beam="1">  1        1 0.18265716E-01 0.19626656E+03</pdfrwt>
<pdfrwt beam="2">  1       -1 0.10759693E-01 0.19626656E+03</pdfrwt>
<totfact> 0.15044544E+04</totfact>
</mgrwt>
</event>
<event>
 4    1  0.3352993E-004  0.1915826E+03  0.7818608E-02  0.1157042E+00
         -1   -1    0    0    0  501 -0.00000000000E+00  0.00000000000E+00  0.54411658017E+01  0.54411681359E+01  0.50400000000E-02 0. -1.
          1   -1    0    0  501    0  0.00000000000E+00 -0.00000000000E+00 -0.16863986897E+04  0.16863986897E+04  0.50400000000E-02 0.  1.
    5000001    1    1    2    0    0  0.16428075514E+02 -0.37299225225E+02 -0.48880826596E+03  0.49651146486E+03  0.77000000000E+02 0.  0.
   -5000001    1    1    2    0    0 -0.16428075514E+02  0.37299225225E+02 -0.11921492579E+04  0.11953283930E+04  0.77000000000E+02 0.  0.
<mgrwt>
<rscale>  0 0.19158264E+03</rscale>
<asrwt>0</asrwt>
<pdfrwt beam="1">  1        1 0.24091376E+00 0.19158264E+03</pdfrwt>
<pdfrwt beam="2">  1       -1 0.77731065E-03 0.19158264E+03</pdfrwt>
<totfact> 0.17250511E+04</totfact>
</mgrwt>
</event>
<event>
 4    1  0.3352993E-004  0.2008985E+03  0.7818608E-02  0.1148983E+00
         -1   -1    0    0    0  501 -0.00000000000E+00  0.00000000000E+00  0.32984722040E+02  0.32984722425E+02  0.50400000000E-02 0.  1.
          1   -1    0    0  501    0  0.00000000000E+00 -0.00000000000E+00 -0.30590062912E+03  0.30590062916E+03  0.50400000000E-02 0. -1.
    5000001    1    1    2    0    0  0.57043255524E+02 -0.28676244161E+02 -0.15199046358E+03  0.18195153475E+03  0.77000000000E+02 0.  0.
   -5000001    1    1    2    0    0 -0.57043255524E+02  0.28676244161E+02 -0.12092544350E+03  0.15693381683E+03  0.77000000000E+02 0.  0.
<mgrwt>
<rscale>  0 0.20089845E+03</rscale>
<asrwt>0</asrwt>
<pdfrwt beam="1">  1        1 0.43700088E-01 0.20089845E+03</pdfrwt>
<pdfrwt beam="2">  1       -1 0.47121034E-02 0.20089845E+03</pdfrwt>
<totfact> 0.17487564E+04</totfact>
</mgrwt>
</event>
<event>
 4    1  0.3352993E-004  0.1651212E+03  0.7818608E-02  0.1183033E+00
          1   -1    0    0  501    0  0.00000000000E+00  0.00000000000E+00  0.29823710846E+04  0.29823710846E+04  0.50400000000E-02 0.  1.
         -1   -1    0    0    0  501 -0.00000000000E+00 -0.00000000000E+00 -0.22855129171E+01  0.22855184742E+01  0.50400000000E-02 0. -1.
    5000001    1    1    2    0    0 -0.17127992386E+02 -0.12345840689E+02  0.18698306305E+04  0.18715344973E+04  0.77000000000E+02 0.  0.
   -5000001    1    1    2    0    0  0.17127992386E+02  0.12345840689E+02  0.11102549412E+04  0.11131221057E+04  0.77000000000E+02 0.  0.
<mgrwt>
<rscale>  0 0.16512124E+03</rscale>
<asrwt>0</asrwt>
<pdfrwt beam="1">  1        1 0.42605280E+00 0.16512124E+03</pdfrwt>
<pdfrwt beam="2">  1       -1 0.32650240E-03 0.16512124E+03</pdfrwt>
<totfact> 0.97264729E+03</totfact>
</mgrwt>
</event>
<event>
 4    1  0.3352993E-004  0.2657709E+03  0.7818608E-02  0.1103725E+00
         -1   -1    0    0    0  501 -0.00000000000E+00  0.00000000000E+00  0.31004036232E+03  0.31004036236E+03  0.50400000000E-02 0. -1.
          1   -1    0    0  501    0  0.00000000000E+00 -0.00000000000E+00 -0.56955605258E+02  0.56955605481E+02  0.50400000000E-02 0.  1.
    5000001    1    1    2    0    0 -0.26057582111E+01 -0.10821698427E+03  0.12179271969E+03  0.18022256305E+03  0.77000000000E+02 0.  0.
   -5000001    1    1    2    0    0  0.26057582111E+01  0.10821698427E+03  0.13129203736E+03  0.18677340479E+03  0.77000000000E+02 0.  0.
<mgrwt>
<rscale>  0 0.26577085E+03</rscale>
<asrwt>0</asrwt>
<pdfrwt beam="1">  1        1 0.81365151E-02 0.26577085E+03</pdfrwt>
<pdfrwt beam="2">  1       -1 0.44291480E-01 0.26577085E+03</pdfrwt>
<totfact> 0.43350790E+03</totfact>
</mgrwt>
</event>
<event>
 4    1  0.3352993E-004  0.2162210E+03  0.7818608E-02  0.1136732E+00
         -1   -1    0    0    0  501 -0.00000000000E+00  0.00000000000E+00  0.27449920471E+02  0.27449920934E+02  0.50400000000E-02 0.  1.
          1   -1    0    0  501    0  0.00000000000E+00 -0.00000000000E+00 -0.42578933756E+03  0.42578933759E+03  0.50400000000E-02 0. -1.
    5000001    1    1    2    0    0 -0.28411668911E+02 -0.29841099982E+01 -0.34654143126E+03  0.35614055009E+03  0.77000000000E+02 0.  0.
   -5000001    1    1    2    0    0  0.28411668911E+02  0.29841099982E+01 -0.51797985832E+02  0.97098708431E+02  0.77000000000E+02 0.  0.
<mgrwt>
<rscale>  0 0.21622103E+03</rscale>
<asrwt>0</asrwt>
<pdfrwt beam="1">  1        1 0.60827044E-01 0.21622103E+03</pdfrwt>
<pdfrwt beam="2">  1       -1 0.39214175E-02 0.21622103E+03</pdfrwt>
<totfact> 0.15223471E+04</totfact>
</mgrwt>
</event>
<event>
 4    1  0.3352993E-004  0.2499461E+03  0.7818608E-02  0.1113339E+00
          1   -1    0    0  501    0  0.00000000000E+00  0.00000000000E+00  0.16006212492E+04  0.16006212492E+04  0.50400000000E-02 0.  1.
         -1   -1    0    0    0  501 -0.00000000000E+00 -0.00000000000E+00 -0.97576274164E+01  0.97576287181E+01  0.50400000000E-02 0. -1.
    5000001    1    1    2    0    0 -0.77925099055E+02  0.55889572354E+02  0.65233239559E+03  0.66382416324E+03  0.77000000000E+02 0.  0.
   -5000001    1    1    2    0    0  0.77925099055E+02 -0.55889572354E+02  0.93853122622E+03  0.94655471471E+03  0.77000000000E+02 0.  0.
<mgrwt>
<rscale>  0 0.24994613E+03</rscale>
<asrwt>0</asrwt>
<pdfrwt beam="1">  1        1 0.22865996E+00 0.24994613E+03</pdfrwt>
<pdfrwt beam="2">  1       -1 0.13939482E-02 0.24994613E+03</pdfrwt>
<totfact> 0.84698856E+03</totfact>
</mgrwt>
</event>
<event>
 4    1  0.3352993E-004  0.1629826E+03  0.7818608E-02  0.1185370E+00
          1   -1    0    0  501    0  0.00000000000E+00  0.00000000000E+00  0.77625819529E+03  0.77625819531E+03  0.50400000000E-02 0.  1.
         -1   -1    0    0    0  501 -0.00000000000E+00 -0.00000000000E+00 -0.85549305917E+01  0.85549320763E+01  0.50400000000E-02 0. -1.
    5000001    1    1    2    0    0  0.24611750273E+02 -0.34380973308E+01  0.43060655366E+03  0.43814217192E+03  0.77000000000E+02 0.  0.
   -5000001    1    1    2    0    0 -0.24611750273E+02  0.34380973308E+01  0.33709671105E+03  0.34667095546E+03  0.77000000000E+02 0.  0.
<mgrwt>
<rscale>  0 0.16298264E+03</rscale>
<asrwt>0</asrwt>
<pdfrwt beam="1">  1        1 0.11089398E+00 0.16298264E+03</pdfrwt>
<pdfrwt beam="2">  1       -1 0.12221336E-02 0.16298264E+03</pdfrwt>
<totfact> 0.36260248E+04</totfact>
</mgrwt>
</event>
<event>
 4    1  0.3352993E-004  0.2317571E+03  0.7818608E-02  0.1125409E+00
         -1   -1    0    0    0  501 -0.00000000000E+00  0.00000000000E+00  0.28556716467E+03  0.28556716471E+03  0.50400000000E-02 0. -1.
          1   -1    0    0  501    0  0.00000000000E+00 -0.00000000000E+00 -0.47021657940E+02  0.47021658210E+02  0.50400000000E-02 0.  1.
    5000001    1    1    2    0    0  0.48133785098E+02  0.56190430175E+02  0.54700510875E+02  0.11998071345E+03  0.77000000000E+02 0.  0.
   -5000001    1    1    2    0    0 -0.48133785098E+02 -0.56190430175E+02  0.18384499585E+03  0.21260810947E+03  0.77000000000E+02 0.  0.
<mgrwt>
<rscale>  0 0.23175713E+03</rscale>
<asrwt>0</asrwt>
<pdfrwt beam="1">  1        1 0.67173798E-02 0.23175713E+03</pdfrwt>
<pdfrwt beam="2">  1       -1 0.40795309E-01 0.23175713E+03</pdfrwt>
<totfact> 0.64837699E+03</totfact>
</mgrwt>
</event>
<event>
 4    1  0.3352993E-004  0.2599280E+03  0.7818608E-02  0.1107186E+00
          1   -1    0    0  501    0  0.00000000000E+00  0.00000000000E+00  0.38678171415E+03  0.38678171418E+03  0.50400000000E-02 0.  1.
         -1   -1    0    0    0  501 -0.00000000000E+00 -0.00000000000E+00 -0.43669703127E+02  0.43669703418E+02  0.50400000000E-02 0. -1.
    5000001    1    1    2    0    0 -0.67317187112E+02  0.24965872809E+02  0.29774962797E+03  0.31581440664E+03  0.77000000000E+02 0.  0.
   -5000001    1    1    2    0    0  0.67317187112E+02 -0.24965872809E+02  0.45362383054E+02  0.11463701096E+03  0.77000000000E+02 0.  0.
<mgrwt>
<rscale>  0 0.25992801E+03</rscale>
<asrwt>0</asrwt>
<pdfrwt beam="1">  1        1 0.55254531E-01 0.25992801E+03</pdfrwt>
<pdfrwt beam="2">  1       -1 0.62385290E-02 0.25992801E+03</pdfrwt>
<totfact> 0.86796270E+03</totfact>
</mgrwt>
</event>
<event>
 4    1  0.3352993E-004  0.2084792E+03  0.7818608E-02  0.1142776E+00
          1   -1    0    0  501    0  0.00000000000E+00  0.00000000000E+00  0.10693554995E+03  0.10693555007E+03  0.50400000000E-02 0.  1.
         -1   -1    0    0    0  501 -0.00000000000E+00 -0.00000000000E+00 -0.10161160846E+03  0.10161160858E+03  0.50400000000E-02 0. -1.
    5000001    1    1    2    0    0  0.35143362092E+02 -0.27274055128E+02 -0.51742921336E+02  0.10288469221E+03  0.77000000000E+02 0.  0.
   -5000001    1    1    2    0    0 -0.35143362092E+02  0.27274055128E+02  0.57066862825E+02  0.10566246644E+03  0.77000000000E+02 0.  0.
<mgrwt>
<rscale>  0 0.20847919E+03</rscale>
<asrwt>0</asrwt>
<pdfrwt beam="1">  1        1 0.15276507E-01 0.20847919E+03</pdfrwt>
<pdfrwt beam="2">  1       -1 0.14515944E-01 0.20847919E+03</pdfrwt>
<totfact> 0.11942353E+04</totfact>
</mgrwt>
</event>
<event>
 4    1  0.3352993E-004  0.2315488E+03  0.7818608E-02  0.1125554E+00
          1   -1    0    0  501    0  0.00000000000E+00  0.00000000000E+00  0.14146059256E+04  0.14146059256E+04  0.50400000000E-02 0.  1.
         -1   -1    0    0    0  501 -0.00000000000E+00 -0.00000000000E+00 -0.94752278592E+01  0.94752291996E+01  0.50400000000E-02 0. -1.
    5000001    1    1    2    0    0 -0.37049645227E+02  0.73558493431E+02  0.86425778769E+03  0.87158135120E+03  0.77000000000E+02 0.  0.
   -5000001    1    1    2    0    0  0.37049645227E+02 -0.73558493431E+02  0.54087291008E+03  0.55249980364E+03  0.77000000000E+02 0.  0.
<mgrwt>
<rscale>  0 0.23154882E+03</rscale>
<asrwt>0</asrwt>
<pdfrwt beam="1">  1        1 0.20208665E+00 0.23154882E+03</pdfrwt>
<pdfrwt beam="2">  1       -1 0.13536035E-02 0.23154882E+03</pdfrwt>
<totfact> 0.11508559E+04</totfact>
</mgrwt>
</event>
<event>
 4    1  0.3352993E-004  0.2705487E+03  0.7818608E-02  0.1100966E+00
          1   -1    0    0  501    0  0.00000000000E+00  0.00000000000E+00  0.18321363435E+03  0.18321363442E+03  0.50400000000E-02 0.  1.
         -1   -1    0    0    0  501 -0.00000000000E+00 -0.00000000000E+00 -0.99878743398E+02  0.99878743526E+02  0.50400000000E-02 0. -1.
    5000001    1    1    2    0    0 -0.32231063560E+02  0.10626802070E+03  0.48152700472E+02  0.14345527611E+03  0.77000000000E+02 0.  0.
   -5000001    1    1    2    0    0  0.32231063560E+02 -0.10626802070E+03  0.35182190483E+02  0.13963710184E+03  0.77000000000E+02 0.  0.
<mgrwt>
<rscale>  0 0.27054868E+03</rscale>
<asrwt>0</asrwt>
<pdfrwt beam="1">  1        1 0.26173376E-01 0.27054868E+03</pdfrwt>
<pdfrwt beam="2">  1       -1 0.14268392E-01 0.27054868E+03</pdfrwt>
<totfact> 0.62233941E+03</totfact>
</mgrwt>
</event>
<event>
 4    1  0.3352993E-004  0.4991797E+03  0.7818608E-02  0.1013993E+00
          1   -1    0    0  501    0  0.00000000000E+00  0.00000000000E+00  0.48184439149E+03  0.48184439152E+03  0.50400000000E-02 0.  1.
         -1   -1    0    0    0  501 -0.00000000000E+00 -0.00000000000E+00 -0.12928467296E+03  0.12928467306E+03  0.50400000000E-02 0. -1.
    5000001    1    1    2    0    0  0.17788427723E+03 -0.77076429855E+02  0.34406470993E+03  0.40235943725E+03  0.77000000000E+02 0.  0.
   -5000001    1    1    2    0    0 -0.17788427723E+03  0.77076429855E+02  0.84950085922E+01  0.20876962733E+03  0.77000000000E+02 0.  0.
<mgrwt>
<rscale>  0 0.49917971E+03</rscale>
<asrwt>0</asrwt>
<pdfrwt beam="1">  1        1 0.68834914E-01 0.49917971E+03</pdfrwt>
<pdfrwt beam="2">  1       -1 0.18469239E-01 0.49917971E+03</pdfrwt>
<totfact> 0.12061913E+03</totfact>
</mgrwt>
</event>
<event>
 4    1  0.3352993E-004  0.5597370E+03  0.7818608E-02  0.9992650E-01
         -1   -1    0    0    0  501 -0.00000000000E+00  0.00000000000E+00  0.13038740764E+04  0.13038740764E+04  0.50400000000E-02 0. -1.
          1   -1    0    0  501    0  0.00000000000E+00 -0.00000000000E+00 -0.60072038298E+02  0.60072038509E+02  0.50400000000E-02 0.  1.
    5000001    1    1    2    0    0  0.69277745086E+02  0.25755915883E+03  0.70844031156E+03  0.76088948034E+03  0.77000000000E+02 0.  0.
   -5000001    1    1    2    0    0 -0.69277745086E+02 -0.25755915883E+03  0.53536172658E+03  0.60305663460E+03  0.77000000000E+02 0.  0.
<mgrwt>
<rscale>  0 0.55973699E+03</rscale>
<asrwt>0</asrwt>
<pdfrwt beam="1">  1        1 0.85817202E-02 0.55973699E+03</pdfrwt>
<pdfrwt beam="2">  1       -1 0.18626772E+00 0.55973699E+03</pdfrwt>
<totfact> 0.16045963E+02</totfact>
</mgrwt>
</event>
<event>
 4    1  0.3352993E-004  0.1860473E+03  0.7818608E-02  0.1162076E+00
         -1   -1    0    0    0  501 -0.00000000000E+00  0.00000000000E+00  0.10047518556E+02  0.10047519820E+02  0.50400000000E-02 0. -1.
          1   -1    0    0  501    0  0.00000000000E+00 -0.00000000000E+00 -0.86124726421E+03  0.86124726422E+03  0.50400000000E-02 0.  1.
    5000001    1    1    2    0    0  0.33545966249E+02  0.36168249769E+01 -0.23909450886E+03  0.25344347977E+03  0.77000000000E+02 0.  0.
   -5000001    1    1    2    0    0 -0.33545966249E+02 -0.36168249769E+01 -0.61210523679E+03  0.61785130427E+03  0.77000000000E+02 0.  0.
<mgrwt>
<rscale>  0 0.18604729E+03</rscale>
<asrwt>0</asrwt>
<pdfrwt beam="1">  1        1 0.12303528E+00 0.18604729E+03</pdfrwt>
<pdfrwt beam="2">  1       -1 0.14353604E-02 0.18604729E+03</pdfrwt>
<totfact> 0.24917724E+04</totfact>
</mgrwt>
</event>
<event>
 4    1  0.3352993E-004  0.1671476E+03  0.7818608E-02  0.1180855E+00
         -1   -1    0    0    0  501 -0.00000000000E+00  0.00000000000E+00  0.65309397143E+02  0.65309397338E+02  0.50400000000E-02 0. -1.
          1   -1    0    0  501    0  0.00000000000E+00 -0.00000000000E+00 -0.10694603794E+03  0.10694603806E+03  0.50400000000E-02 0.  1.
    5000001    1    1    2    0    0 -0.10800250355E+02 -0.29000076094E+02 -0.31016763783E+02  0.88592829601E+02  0.77000000000E+02 0.  0.
   -5000001    1    1    2    0    0  0.10800250355E+02  0.29000076094E+02 -0.10619877017E+02  0.83662605799E+02  0.77000000000E+02 0.  0.
<mgrwt>
<rscale>  0 0.16714761E+03</rscale>
<asrwt>0</asrwt>
<pdfrwt beam="1">  1        1 0.15278005E-01 0.16714761E+03</pdfrwt>
<pdfrwt beam="2">  1       -1 0.93299140E-02 0.16714761E+03</pdfrwt>
<totfact> 0.23277278E+04</totfact>
</mgrwt>
</event>
<event>
 4    1  0.3352993E-004  0.1886987E+03  0.7818608E-02  0.1159640E+00
          1   -1    0    0  501    0  0.00000000000E+00  0.00000000000E+00  0.35958229032E+02  0.35958229386E+02  0.50400000000E-02 0. -1.
         -1   -1    0    0    0  501 -0.00000000000E+00 -0.00000000000E+00 -0.24755958375E+03  0.24755958381E+03  0.50400000000E-02 0.  1.
    5000001    1    1    2    0    0 -0.41131699565E+02 -0.34622825030E+02 -0.11942681625E+03  0.15192867129E+03  0.77000000000E+02 0.  0.
   -5000001    1    1    2    0    0  0.41131699565E+02  0.34622825030E+02 -0.92174538475E+02  0.13158914190E+03  0.77000000000E+02 0.  0.
<mgrwt>
<rscale>  0 0.18869875E+03</rscale>
<asrwt>0</asrwt>
<pdfrwt beam="1">  1        1 0.51368900E-02 0.18869875E+03</pdfrwt>
<pdfrwt beam="2">  1       -1 0.35365654E-01 0.18869875E+03</pdfrwt>
<totfact> 0.11874328E+04</totfact>
</mgrwt>
</event>
<event>
 4    1  0.3352993E-004  0.2727090E+03  0.7818608E-02  0.1099739E+00
         -1   -1    0    0    0  501 -0.00000000000E+00  0.00000000000E+00  0.74046601269E+02  0.74046601440E+02  0.50400000000E-02 0. -1.
          1   -1    0    0  501    0  0.00000000000E+00 -0.00000000000E+00 -0.25109259952E+03  0.25109259957E+03  0.50400000000E-02 0.  1.
    5000001    1    1    2    0    0 -0.11176844921E+03  0.12355474468E+02 -0.93680063954E+02  0.16537774449E+03  0.77000000000E+02 0.  0.
   -5000001    1    1    2    0    0  0.11176844921E+03 -0.12355474468E+02 -0.83365934293E+02  0.15976145652E+03  0.77000000000E+02 0.  0.
<mgrwt>
<rscale>  0 0.27270903E+03</rscale>
<asrwt>0</asrwt>
<pdfrwt beam="1">  1        1 0.35870371E-01 0.27270903E+03</pdfrwt>
<pdfrwt beam="2">  1       -1 0.10578086E-01 0.27270903E+03</pdfrwt>
<totfact> 0.66812991E+03</totfact>
</mgrwt>
</event>
<event>
 4    1  0.3352993E-004  0.1902745E+03  0.7818608E-02  0.1158214E+00
          1   -1    0    0  501    0  0.00000000000E+00  0.00000000000E+00  0.60408476440E+02  0.60408476650E+02  0.50400000000E-02 0. -1.
         -1   -1    0    0    0  501 -0.00000000000E+00 -0.00000000000E+00 -0.14983158670E+03  0.14983158679E+03  0.50400000000E-02 0.  1.
    5000001    1    1    2    0    0 -0.50397935861E+01  0.55291203274E+02 -0.51663070387E+02  0.10807677605E+03  0.77000000000E+02 0.  0.
   -5000001    1    1    2    0    0  0.50397935861E+01 -0.55291203274E+02 -0.37760039876E+02  0.10216328739E+03  0.77000000000E+02 0.  0.
<mgrwt>
<rscale>  0 0.19027452E+03</rscale>
<asrwt>0</asrwt>
<pdfrwt beam="1">  1        1 0.86297824E-02 0.19027452E+03</pdfrwt>
<pdfrwt beam="2">  1       -1 0.21404512E-01 0.19027452E+03</pdfrwt>
<totfact> 0.13592251E+04</totfact>
</mgrwt>
</event>
<event>
 4    1  0.3352993E-004  0.1709136E+03  0.7818608E-02  0.1176898E+00
          1   -1    0    0  501    0  0.00000000000E+00  0.00000000000E+00  0.56990397796E+03  0.56990397798E+03  0.50400000000E-02 0. -1.
         -1   -1    0    0    0  501 -0.00000000000E+00 -0.00000000000E+00 -0.12814198146E+02  0.12814199137E+02  0.50400000000E-02 0.  1.
    5000001    1    1    2    0    0  0.22718205897E+02  0.21436687292E+02  0.21050862658E+03  0.22631511285E+03  0.77000000000E+02 0.  0.
   -5000001    1    1    2    0    0 -0.22718205897E+02 -0.21436687292E+02  0.34658115324E+03  0.35640306427E+03  0.77000000000E+02 0.  0.
<mgrwt>
<rscale>  0 0.17091358E+03</rscale>
<asrwt>0</asrwt>
<pdfrwt beam="1">  1        1 0.81414862E-01 0.17091358E+03</pdfrwt>
<pdfrwt beam="2">  1       -1 0.18305996E-02 0.17091358E+03</pdfrwt>
<totfact> 0.31208726E+04</totfact>
</mgrwt>
</event>
<event>
 4    1  0.3352993E-004  0.3386306E+03  0.7818608E-02  0.1067381E+00
          1   -1    0    0  501    0  0.00000000000E+00  0.00000000000E+00  0.10757150826E+04  0.10757150826E+04  0.50400000000E-02 0.  1.
         -1   -1    0    0    0  501 -0.00000000000E+00 -0.00000000000E+00 -0.26649866473E+02  0.26649866950E+02  0.50400000000E-02 0. -1.
    5000001    1    1    2    0    0  0.47538302141E+02  0.79111463188E+02  0.91272885873E+03  0.92060930005E+03  0.77000000000E+02 0.  0.
   -5000001    1    1    2    0    0 -0.47538302141E+02 -0.79111463188E+02  0.13633635736E+03  0.18175564947E+03  0.77000000000E+02 0.  0.
<mgrwt>
<rscale>  0 0.33863056E+03</rscale>
<asrwt>0</asrwt>
<pdfrwt beam="1">  1        1 0.15367355E+00 0.33863056E+03</pdfrwt>
<pdfrwt beam="2">  1       -1 0.38071248E-02 0.33863056E+03</pdfrwt>
<totfact> 0.42574239E+03</totfact>
</mgrwt>
</event>
<event>
 4    1  0.3352993E-004  0.2840371E+03  0.7818608E-02  0.1093504E+00
          1   -1    0    0  501    0  0.00000000000E+00  0.00000000000E+00  0.10392468254E+03  0.10392468266E+03  0.50400000000E-02 0.  1.
         -1   -1    0    0    0  501 -0.00000000000E+00 -0.00000000000E+00 -0.19407578410E+03  0.19407578416E+03  0.50400000000E-02 0. -1.
    5000001    1    1    2    0    0 -0.28674903247E+02 -0.10994534477E+03 -0.83338065977E+02  0.16057540955E+03  0.77000000000E+02 0.  0.
   -5000001    1    1    2    0    0  0.28674903247E+02  0.10994534477E+03 -0.68130355800E+01  0.13742505727E+03  0.77000000000E+02 0.  0.
<mgrwt>
<rscale>  0 0.28403707E+03</rscale>
<asrwt>0</asrwt>
<pdfrwt beam="1">  1        1 0.14846383E-01 0.28403707E+03</pdfrwt>
<pdfrwt beam="2">  1       -1 0.27725112E-01 0.28403707E+03</pdfrwt>
<totfact> 0.43957545E+03</totfact>
</mgrwt>
</event>
<event>
 4    1  0.3352993E-004  0.2926492E+03  0.7818608E-02  0.1088974E+00
          1   -1    0    0  501    0  0.00000000000E+00  0.00000000000E+00  0.60447605266E+03  0.60447605268E+03  0.50400000000E-02 0.  1.
         -1   -1    0    0    0  501 -0.00000000000E+00 -0.00000000000E+00 -0.35420578650E+02  0.35420579008E+02  0.50400000000E-02 0. -1.
    5000001    1    1    2    0    0  0.12089858338E+03 -0.48963904848E+00  0.22021206519E+03  0.26275285130E+03  0.77000000000E+02 0.  0.
   -5000001    1    1    2    0    0 -0.12089858338E+03  0.48963904848E+00  0.34884340883E+03  0.37714378040E+03  0.77000000000E+02 0.  0.
<mgrwt>
<rscale>  0 0.29264922E+03</rscale>
<asrwt>0</asrwt>
<pdfrwt beam="1">  1        1 0.86353717E-01 0.29264922E+03</pdfrwt>
<pdfrwt beam="2">  1       -1 0.50600830E-02 0.29264922E+03</pdfrwt>
<totfact> 0.66600334E+03</totfact>
</mgrwt>
</event>
<event>
 4    1  0.3352993E-004  0.5169082E+03  0.7818608E-02  0.1009457E+00
          1   -1    0    0  501    0  0.00000000000E+00  0.00000000000E+00  0.45512862730E+03  0.45512862733E+03  0.50400000000E-02 0.  1.
         -1   -1    0    0    0  501 -0.00000000000E+00 -0.00000000000E+00 -0.14676843458E+03  0.14676843467E+03  0.50400000000E-02 0. -1.
    5000001    1    1    2    0    0  0.24562328349E+03 -0.21278528809E+02  0.16497488430E+03  0.30647885021E+03  0.77000000000E+02 0.  0.
   -5000001    1    1    2    0    0 -0.24562328349E+03  0.21278528809E+02  0.14338530842E+03  0.29541821178E+03  0.77000000000E+02 0.  0.
<mgrwt>
<rscale>  0 0.51690818E+03</rscale>
<asrwt>0</asrwt>
<pdfrwt beam="1">  1        1 0.65018376E-01 0.51690818E+03</pdfrwt>
<pdfrwt beam="2">  1       -1 0.20966919E-01 0.51690818E+03</pdfrwt>
<totfact> 0.10551049E+03</totfact>
</mgrwt>
</event>
<event>
 4    1  0.3352993E-004  0.8595521E+03  0.7818608E-02  0.9477605E-01
          1   -1    0    0  501    0  0.00000000000E+00  0.00000000000E+00  0.13371700338E+04  0.13371700338E+04  0.50400000000E-02 0.  1.
         -1   -1    0    0    0  501 -0.00000000000E+00 -0.00000000000E+00 -0.13813311705E+03  0.13813311714E+03  0.50400000000E-02 0. -1.
    5000001    1    1    2    0    0  0.18497348729E+03 -0.37896875710E+03  0.54672935417E+03  0.69474779349E+03  0.77000000000E+02 0.  0.
   -5000001    1    1    2    0    0 -0.18497348729E+03  0.37896875710E+03  0.65230756259E+03  0.78055535746E+03  0.77000000000E+02 0.  0.
<mgrwt>
<rscale>  0 0.85955213E+03</rscale>
<asrwt>0</asrwt>
<pdfrwt beam="1">  1        1 0.19102429E+00 0.85955213E+03</pdfrwt>
<pdfrwt beam="2">  1       -1 0.19733302E-01 0.85955213E+03</pdfrwt>
<totfact> 0.21007528E+02</totfact>
</mgrwt>
</event>
<event>
 4    1  0.3352993E-004  0.3429719E+03  0.7818608E-02  0.1065537E+00
          1   -1    0    0  501    0  0.00000000000E+00  0.00000000000E+00  0.35907674826E+02  0.35907675180E+02  0.50400000000E-02 0. -1.
         -1   -1    0    0    0  501 -0.00000000000E+00 -0.00000000000E+00 -0.81897321103E+03  0.81897321105E+03  0.50400000000E-02 0.  1.
    5000001    1    1    2    0    0  0.12691947278E+03 -0.80000661303E+02 -0.31391154315E+03  0.35633988733E+03  0.77000000000E+02 0.  0.
   -5000001    1    1    2    0    0 -0.12691947278E+03  0.80000661303E+02 -0.46915399306E+03  0.49854099890E+03  0.77000000000E+02 0.  0.
<mgrwt>
<rscale>  0 0.34297186E+03</rscale>
<asrwt>0</asrwt>
<pdfrwt beam="1">  1        1 0.51296684E-02 0.34297186E+03</pdfrwt>
<pdfrwt beam="2">  1       -1 0.11699616E+00 0.34297186E+03</pdfrwt>
<totfact> 0.11322859E+03</totfact>
</mgrwt>
</event>
<event>
 4    1  0.3352993E-004  0.3343131E+03  0.7818608E-02  0.1069244E+00
          1   -1    0    0  501    0  0.00000000000E+00  0.00000000000E+00  0.84334073027E+02  0.84334073177E+02  0.50400000000E-02 0.  1.
         -1   -1    0    0    0  501 -0.00000000000E+00 -0.00000000000E+00 -0.33131690632E+03  0.33131690636E+03  0.50400000000E-02 0. -1.
    5000001    1    1    2    0    0 -0.77950046136E+02 -0.64963799306E+02 -0.25806550220E+03  0.28779038958E+03  0.77000000000E+02 0.  0.
   -5000001    1    1    2    0    0  0.77950046136E+02  0.64963799306E+02  0.11082668903E+02  0.12786058995E+03  0.77000000000E+02 0.  0.
<mgrwt>
<rscale>  0 0.33431305E+03</rscale>
<asrwt>0</asrwt>
<pdfrwt beam="1">  1        1 0.12047725E-01 0.33431305E+03</pdfrwt>
<pdfrwt beam="2">  1       -1 0.47330986E-01 0.33431305E+03</pdfrwt>
<totfact> 0.22764071E+03</totfact>
</mgrwt>
</event>
<event>
 4    1  0.3352993E-004  0.2135639E+03  0.7818608E-02  0.1138774E+00
         -1   -1    0    0    0  501 -0.00000000000E+00  0.00000000000E+00  0.30279010424E+03  0.30279010428E+03  0.50400000000E-02 0. -1.
          1   -1    0    0  501    0  0.00000000000E+00 -0.00000000000E+00 -0.37657732805E+02  0.37657733142E+02  0.50400000000E-02 0.  1.
    5000001    1    1    2    0    0  0.42092421066E+02  0.53998065808E+02  0.17725366154E+03  0.20502542172E+03  0.77000000000E+02 0.  0.
   -5000001    1    1    2    0    0 -0.42092421066E+02 -0.53998065808E+02  0.87878709893E+02  0.13542241570E+03  0.77000000000E+02 0.  0.
<mgrwt>
<rscale>  0 0.21356394E+03</rscale>
<asrwt>0</asrwt>
<pdfrwt beam="1">  1        1 0.53796764E-02 0.21356394E+03</pdfrwt>
<pdfrwt beam="2">  1       -1 0.43255728E-01 0.21356394E+03</pdfrwt>
<totfact> 0.78834155E+03</totfact>
</mgrwt>
</event>
<event>
 4    1  0.3352993E-004  0.2969171E+03  0.7818608E-02  0.1086792E+00
         -1   -1    0    0    0  501 -0.00000000000E+00  0.00000000000E+00  0.57806176677E+02  0.57806176896E+02  0.50400000000E-02 0. -1.
          1   -1    0    0  501    0  0.00000000000E+00 -0.00000000000E+00 -0.38127308942E+03  0.38127308946E+03  0.50400000000E-02 0.  1.
    5000001    1    1    2    0    0  0.11189808468E+03 -0.59711895281E+02 -0.15445156517E+03  0.21417511007E+03  0.77000000000E+02 0.  0.
   -5000001    1    1    2    0    0 -0.11189808468E+03  0.59711895281E+02 -0.16901534758E+03  0.22490415628E+03  0.77000000000E+02 0.  0.
<mgrwt>
<rscale>  0 0.29691709E+03</rscale>
<asrwt>0</asrwt>
<pdfrwt beam="1">  1        1 0.54467583E-01 0.29691709E+03</pdfrwt>
<pdfrwt beam="2">  1       -1 0.82580255E-02 0.29691709E+03</pdfrwt>
<totfact> 0.57983547E+03</totfact>
</mgrwt>
</event>
<event>
 4    1  0.3352993E-004  0.3459352E+03  0.7818608E-02  0.1064296E+00
         -1   -1    0    0    0  501 -0.00000000000E+00  0.00000000000E+00  0.24767859366E+03  0.24767859371E+03  0.50400000000E-02 0. -1.
          1   -1    0    0  501    0  0.00000000000E+00 -0.00000000000E+00 -0.12079276445E+03  0.12079276456E+03  0.50400000000E-02 0.  1.
    5000001    1    1    2    0    0  0.12095173709E+03 -0.48402348154E+02  0.15266546467E+03  0.21496012215E+03  0.77000000000E+02 0.  0.
   -5000001    1    1    2    0    0 -0.12095173709E+03  0.48402348154E+02 -0.25779635457E+02  0.15351123612E+03  0.77000000000E+02 0.  0.
<mgrwt>
<rscale>  0 0.34593515E+03</rscale>
<asrwt>0</asrwt>
<pdfrwt beam="1">  1        1 0.17256109E-01 0.34593515E+03</pdfrwt>
<pdfrwt beam="2">  1       -1 0.35382656E-01 0.34593515E+03</pdfrwt>
<totfact> 0.23849146E+03</totfact>
</mgrwt>
</event>
<event>
 4    1  0.3352993E-004  0.2222403E+03  0.7818608E-02  0.1132224E+00
          1   -1    0    0  501    0  0.00000000000E+00  0.00000000000E+00  0.93779685323E+03  0.93779685325E+03  0.50400000000E-02 0.  1.
         -1   -1    0    0    0  501 -0.00000000000E+00 -0.00000000000E+00 -0.13166702170E+02  0.13166703135E+02  0.50400000000E-02 0. -1.
    5000001    1    1    2    0    0 -0.77562246269E+01  0.79107976888E+02  0.41942662312E+03  0.43378096225E+03  0.77000000000E+02 0.  0.
   -5000001    1    1    2    0    0  0.77562246269E+01 -0.79107976888E+02  0.50520352794E+03  0.51718259413E+03  0.77000000000E+02 0.  0.
<mgrwt>
<rscale>  0 0.22224034E+03</rscale>
<asrwt>0</asrwt>
<pdfrwt beam="1">  1        1 0.13397097E+00 0.22224034E+03</pdfrwt>
<pdfrwt beam="2">  1       -1 0.18809577E-02 0.22224034E+03</pdfrwt>
<totfact> 0.14915628E+04</totfact>
</mgrwt>
</event>
<event>
 4    1  0.3352993E-004  0.2249423E+03  0.7818608E-02  0.1130251E+00
         -1   -1    0    0    0  501 -0.00000000000E+00  0.00000000000E+00  0.26623270436E+02  0.26623270913E+02  0.50400000000E-02 0. -1.
          1   -1    0    0  501    0  0.00000000000E+00 -0.00000000000E+00 -0.47513930601E+03  0.47513930604E+03  0.50400000000E-02 0.  1.
    5000001    1    1    2    0    0 -0.21101088209E+01 -0.63007205541E+02 -0.10735946627E+03  0.14638789399E+03  0.77000000000E+02 0.  0.
   -5000001    1    1    2    0    0  0.21101088209E+01  0.63007205541E+02 -0.34115656930E+03  0.35537468296E+03  0.77000000000E+02 0.  0.
<mgrwt>
<rscale>  0 0.22494232E+03</rscale>
<asrwt>0</asrwt>
<pdfrwt beam="1">  1        1 0.67877039E-01 0.22494232E+03</pdfrwt>
<pdfrwt beam="2">  1       -1 0.38033247E-02 0.22494232E+03</pdfrwt>
<totfact> 0.13870226E+04</totfact>
</mgrwt>
</event>
<event>
 4    1  0.3352993E-004  0.1894848E+03  0.7818608E-02  0.1158927E+00
          1   -1    0    0  501    0  0.00000000000E+00  0.00000000000E+00  0.80587552927E+02  0.80587553085E+02  0.50400000000E-02 0. -1.
         -1   -1    0    0    0  501 -0.00000000000E+00 -0.00000000000E+00 -0.11138343865E+03  0.11138343876E+03  0.50400000000E-02 0.  1.
    5000001    1    1    2    0    0 -0.28143238190E+02  0.36458397017E+02 -0.46225172510E+02  0.10093078392E+03  0.77000000000E+02 0.  0.
   -5000001    1    1    2    0    0  0.28143238190E+02 -0.36458397017E+02  0.15429286789E+02  0.91040207929E+02  0.77000000000E+02 0.  0.
<mgrwt>
<rscale>  0 0.18948476E+03</rscale>
<asrwt>0</asrwt>
<pdfrwt beam="1">  1        1 0.11512508E-01 0.18948476E+03</pdfrwt>
<pdfrwt beam="2">  1       -1 0.15911920E-01 0.18948476E+03</pdfrwt>
<totfact> 0.14881075E+04</totfact>
</mgrwt>
</event>
<event>
 4    1  0.3352993E-004  0.2174051E+03  0.7818608E-02  0.1135833E+00
         -1   -1    0    0    0  501 -0.00000000000E+00  0.00000000000E+00  0.28251163783E+04  0.28251163783E+04  0.50400000000E-02 0. -1.
          1   -1    0    0  501    0  0.00000000000E+00 -0.00000000000E+00 -0.41825687158E+01  0.41825717524E+01  0.50400000000E-02 0.  1.
    5000001    1    1    2    0    0 -0.74193305786E+02 -0.83415203576E+01  0.11802192781E+04  0.11850826014E+04  0.77000000000E+02 0.  0.
   -5000001    1    1    2    0    0  0.74193305786E+02  0.83415203576E+01  0.16407145315E+04  0.16442163487E+04  0.77000000000E+02 0.  0.
<mgrwt>
<rscale>  0 0.21740513E+03</rscale>
<asrwt>0</asrwt>
<pdfrwt beam="1">  1        1 0.59750871E-03 0.21740513E+03</pdfrwt>
<pdfrwt beam="2">  1       -1 0.40358895E+00 0.21740513E+03</pdfrwt>
<totfact> 0.28102140E+02</totfact>
</mgrwt>
</event>
<event>
 4    1  0.3352993E-004  0.1761473E+03  0.7818608E-02  0.1171585E+00
         -1   -1    0    0    0  501 -0.00000000000E+00  0.00000000000E+00  0.53406929554E+02  0.53406929792E+02  0.50400000000E-02 0. -1.
          1   -1    0    0  501    0  0.00000000000E+00 -0.00000000000E+00 -0.14524267475E+03  0.14524267484E+03  0.50400000000E-02 0.  1.
    5000001    1    1    2    0    0 -0.39501477158E+02 -0.15259571582E+02 -0.52565281149E+02  0.10239790039E+03  0.77000000000E+02 0.  0.
   -5000001    1    1    2    0    0  0.39501477158E+02  0.15259571582E+02 -0.39270464052E+02  0.96251704242E+02  0.77000000000E+02 0.  0.
<mgrwt>
<rscale>  0 0.17614727E+03</rscale>
<asrwt>0</asrwt>
<pdfrwt beam="1">  1        1 0.20748953E-01 0.17614727E+03</pdfrwt>
<pdfrwt beam="2">  1       -1 0.76295614E-02 0.17614727E+03</pdfrwt>
<totfact> 0.21411716E+04</totfact>
</mgrwt>
</event>
<event>
 4    1  0.3352993E-004  0.2750553E+03  0.7818608E-02  0.1098421E+00
         -1   -1    0    0    0  501 -0.00000000000E+00  0.00000000000E+00  0.15428973009E+02  0.15428973833E+02  0.50400000000E-02 0.  1.
          1   -1    0    0  501    0  0.00000000000E+00 -0.00000000000E+00 -0.12258660042E+04  0.12258660042E+04  0.50400000000E-02 0. -1.
    5000001    1    1    2    0    0  0.21877872719E+02 -0.10362702706E+03 -0.79495609932E+03  0.80566829521E+03  0.77000000000E+02 0.  0.
   -5000001    1    1    2    0    0 -0.21877872719E+02  0.10362702706E+03 -0.41548093186E+03  0.43562668283E+03  0.77000000000E+02 0.  0.
<mgrwt>
<rscale>  0 0.27505530E+03</rscale>
<asrwt>0</asrwt>
<pdfrwt beam="1">  1        1 0.17512365E+00 0.27505530E+03</pdfrwt>
<pdfrwt beam="2">  1       -1 0.22041399E-02 0.27505530E+03</pdfrwt>
<totfact> 0.75256289E+03</totfact>
</mgrwt>
</event>
<event>
 4    1  0.3352993E-004  0.2667134E+03  0.7818608E-02  0.1103175E+00
          1   -1    0    0  501    0  0.00000000000E+00  0.00000000000E+00  0.13363524752E+03  0.13363524762E+03  0.50400000000E-02 0.  1.
         -1   -1    0    0    0  501 -0.00000000000E+00 -0.00000000000E+00 -0.13307870979E+03  0.13307870988E+03  0.50400000000E-02 0. -1.
    5000001    1    1    2    0    0 -0.58186390952E+02  0.82049579723E+02 -0.41401753778E+02  0.13327000728E+03  0.77000000000E+02 0.  0.
   -5000001    1    1    2    0    0  0.58186390952E+02 -0.82049579723E+02  0.41958291513E+02  0.13344395022E+03  0.77000000000E+02 0.  0.
<mgrwt>
<rscale>  0 0.26671338E+03</rscale>
<asrwt>0</asrwt>
<pdfrwt beam="1">  1        1 0.19090750E-01 0.26671338E+03</pdfrwt>
<pdfrwt beam="2">  1       -1 0.19011244E-01 0.26671338E+03</pdfrwt>
<totfact> 0.58890532E+03</totfact>
</mgrwt>
</event>
<event>
 4    1  0.3352993E-004  0.3398050E+03  0.7818608E-02  0.1066879E+00
          1   -1    0    0  501    0  0.00000000000E+00  0.00000000000E+00  0.65312600054E+03  0.65312600056E+03  0.50400000000E-02 0. -1.
         -1   -1    0    0    0  501 -0.00000000000E+00 -0.00000000000E+00 -0.44197985593E+02  0.44197985881E+02  0.50400000000E-02 0.  1.
    5000001    1    1    2    0    0 -0.17860999500E+01 -0.12694916120E+03  0.47391794386E+03  0.49663517515E+03  0.77000000000E+02 0.  0.
   -5000001    1    1    2    0    0  0.17860999500E+01  0.12694916120E+03  0.13501007109E+03  0.20068881129E+03  0.77000000000E+02 0.  0.
<mgrwt>
<rscale>  0 0.33980497E+03</rscale>
<asrwt>0</asrwt>
<pdfrwt beam="1">  1        1 0.93303718E-01 0.33980497E+03</pdfrwt>
<pdfrwt beam="2">  1       -1 0.63139977E-02 0.33980497E+03</pdfrwt>
<totfact> 0.42976346E+03</totfact>
</mgrwt>
</event>
<event>
 4    1  0.3352993E-004  0.4935090E+03  0.7818608E-02  0.1015487E+00
         -1   -1    0    0    0  501 -0.00000000000E+00  0.00000000000E+00  0.17728038121E+03  0.17728038128E+03  0.50400000000E-02 0.  1.
          1   -1    0    0  501    0  0.00000000000E+00 -0.00000000000E+00 -0.34345476939E+03  0.34345476943E+03  0.50400000000E-02 0. -1.
    5000001    1    1    2    0    0 -0.22101906035E+03  0.58061227525E+02 -0.27871920488E+02  0.24274755432E+03  0.77000000000E+02 0.  0.
   -5000001    1    1    2    0    0  0.22101906035E+03 -0.58061227525E+02 -0.13830246769E+03  0.27798759639E+03  0.77000000000E+02 0.  0.
<mgrwt>
<rscale>  0 0.49350904E+03</rscale>
<asrwt>0</asrwt>
<pdfrwt beam="1">  1        1 0.49064967E-01 0.49350904E+03</pdfrwt>
<pdfrwt beam="2">  1       -1 0.25325769E-01 0.49350904E+03</pdfrwt>
<totfact> 0.11090134E+03</totfact>
</mgrwt>
</event>
<event>
 4    1  0.3352993E-004  0.1903067E+03  0.7818608E-02  0.1158185E+00
          1   -1    0    0  501    0  0.00000000000E+00  0.00000000000E+00  0.12134676693E+04  0.12134676693E+04  0.50400000000E-02 0.  1.
         -1   -1    0    0    0  501 -0.00000000000E+00 -0.00000000000E+00 -0.74613926470E+01  0.74613943492E+01  0.50400000000E-02 0. -1.
    5000001    1    1    2    0    0 -0.41051467600E+02 -0.35939305052E+02  0.52487426739E+03  0.53329058984E+03  0.77000000000E+02 0.  0.
   -5000001    1    1    2    0    0  0.41051467600E+02  0.35939305052E+02  0.68113200928E+03  0.68763847384E+03  0.77000000000E+02 0.  0.
<mgrwt>
<rscale>  0 0.19030670E+03</rscale>
<asrwt>0</asrwt>
<pdfrwt beam="1">  1        1 0.17335265E+00 0.19030670E+03</pdfrwt>
<pdfrwt beam="2">  1       -1 0.10659126E-02 0.19030670E+03</pdfrwt>
<totfact> 0.21658473E+04</totfact>
</mgrwt>
</event>
<event>
 4    1  0.3352993E-004  0.2114230E+03  0.7818608E-02  0.1140444E+00
         -1   -1    0    0    0  501 -0.00000000000E+00  0.00000000000E+00  0.56183708636E+02  0.56183708862E+02  0.50400000000E-02 0.  1.
          1   -1    0    0  501    0  0.00000000000E+00 -0.00000000000E+00 -0.19889966537E+03  0.19889966544E+03  0.50400000000E-02 0. -1.
    5000001    1    1    2    0    0  0.57622563371E+02  0.36693461043E+02 -0.10039324584E+03  0.14378655606E+03  0.77000000000E+02 0.  0.
   -5000001    1    1    2    0    0 -0.57622563371E+02 -0.36693461043E+02 -0.42322710897E+02  0.11129681824E+03  0.77000000000E+02 0.  0.
<mgrwt>
<rscale>  0 0.21142300E+03</rscale>
<asrwt>0</asrwt>
<pdfrwt beam="1">  1        1 0.28414238E-01 0.21142300E+03</pdfrwt>
<pdfrwt beam="2">  1       -1 0.80262442E-02 0.21142300E+03</pdfrwt>
<totfact> 0.13501256E+04</totfact>
</mgrwt>
</event>
<event>
 4    1  0.3352993E-004  0.2650800E+03  0.7818608E-02  0.1104129E+00
          1   -1    0    0  501    0  0.00000000000E+00  0.00000000000E+00  0.32409221573E+02  0.32409221965E+02  0.50400000000E-02 0. -1.
         -1   -1    0    0    0  501 -0.00000000000E+00 -0.00000000000E+00 -0.54203247532E+03  0.54203247534E+03  0.50400000000E-02 0.  1.
    5000001    1    1    2    0    0 -0.26810485369E+02 -0.95528075887E+02 -0.16303927470E+03  0.20580383986E+03  0.77000000000E+02 0.  0.
   -5000001    1    1    2    0    0  0.26810485369E+02  0.95528075887E+02 -0.34658397905E+03  0.36863785745E+03  0.77000000000E+02 0.  0.
<mgrwt>
<rscale>  0 0.26507999E+03</rscale>
<asrwt>0</asrwt>
<pdfrwt beam="1">  1        1 0.46298892E-02 0.26507999E+03</pdfrwt>
<pdfrwt beam="2">  1       -1 0.77433205E-01 0.26507999E+03</pdfrwt>
<totfact> 0.32223275E+03</totfact>
</mgrwt>
</event>
<event>
 4    1  0.3352993E-004  0.3054966E+03  0.7818608E-02  0.1082525E+00
         -1   -1    0    0    0  501 -0.00000000000E+00  0.00000000000E+00  0.13299466254E+03  0.13299466263E+03  0.50400000000E-02 0. -1.
          1   -1    0    0  501    0  0.00000000000E+00 -0.00000000000E+00 -0.17543593749E+03  0.17543593756E+03  0.50400000000E-02 0.  1.
    5000001    1    1    2    0    0 -0.81458657572E+02 -0.10139110925E+03  0.10679213599E+01  0.15114830592E+03  0.77000000000E+02 0.  0.
   -5000001    1    1    2    0    0  0.81458657572E+02  0.10139110925E+03 -0.43509196310E+02  0.15728229427E+03  0.77000000000E+02 0.  0.
<mgrwt>
<rscale>  0 0.30549660E+03</rscale>
<asrwt>0</asrwt>
<pdfrwt beam="1">  1        1 0.25062277E-01 0.30549660E+03</pdfrwt>
<pdfrwt beam="2">  1       -1 0.18999238E-01 0.30549660E+03</pdfrwt>
<totfact> 0.41751806E+03</totfact>
</mgrwt>
</event>
<event>
 4    1  0.3352993E-004  0.2789049E+03  0.7818608E-02  0.1096289E+00
          1   -1    0    0  501    0  0.00000000000E+00  0.00000000000E+00  0.26846389771E+03  0.26846389776E+03  0.50400000000E-02 0.  1.
         -1   -1    0    0    0  501 -0.00000000000E+00 -0.00000000000E+00 -0.72437997586E+02  0.72437997762E+02  0.50400000000E-02 0. -1.
    5000001    1    1    2    0    0  0.23386970632E+02 -0.11268212544E+03  0.77788790369E+02  0.15882162226E+03  0.77000000000E+02 0.  0.
   -5000001    1    1    2    0    0 -0.23386970632E+02  0.11268212544E+03  0.11823710976E+03  0.18208027327E+03  0.77000000000E+02 0.  0.
<mgrwt>
<rscale>  0 0.27890491E+03</rscale>
<asrwt>0</asrwt>
<pdfrwt beam="1">  1        1 0.38351986E-01 0.27890491E+03</pdfrwt>
<pdfrwt beam="2">  1       -1 0.10348285E-01 0.27890491E+03</pdfrwt>
<totfact> 0.63608863E+03</totfact>
</mgrwt>
</event>
<event>
 4    1  0.3352993E-004  0.2313255E+03  0.7818608E-02  0.1125710E+00
          1   -1    0    0  501    0  0.00000000000E+00  0.00000000000E+00  0.20646337297E+03  0.20646337303E+03  0.50400000000E-02 0.  1.
         -1   -1    0    0    0  501 -0.00000000000E+00 -0.00000000000E+00 -0.64795348735E+02  0.64795348931E+02  0.50400000000E-02 0. -1.
    5000001    1    1    2    0    0 -0.66839316039E+02 -0.51835376994E+02  0.90956317201E+02  0.14613846898E+03  0.77000000000E+02 0.  0.
   -5000001    1    1    2    0    0  0.66839316039E+02  0.51835376994E+02  0.50711707035E+02  0.12512025299E+03  0.77000000000E+02 0.  0.
<mgrwt>
<rscale>  0 0.23132545E+03</rscale>
<asrwt>0</asrwt>
<pdfrwt beam="1">  1        1 0.29494768E-01 0.23132545E+03</pdfrwt>
<pdfrwt beam="2">  1       -1 0.92564783E-02 0.23132545E+03</pdfrwt>
<totfact> 0.10417556E+04</totfact>
</mgrwt>
</event>
<event>
 4    1  0.3352993E-004  0.1757949E+03  0.7818608E-02  0.1171936E+00
         -1   -1    0    0    0  501 -0.00000000000E+00  0.00000000000E+00  0.66103993311E+03  0.66103993313E+03  0.50400000000E-02 0. -1.
          1   -1    0    0  501    0  0.00000000000E+00 -0.00000000000E+00 -0.11687591955E+02  0.11687593041E+02  0.50400000000E-02 0.  1.
    5000001    1    1    2    0    0  0.13079237341E+02 -0.40289432095E+02  0.31843420125E+03  0.33033868274E+03  0.77000000000E+02 0.  0.
   -5000001    1    1    2    0    0 -0.13079237341E+02  0.40289432095E+02  0.33091813991E+03  0.34238884344E+03  0.77000000000E+02 0.  0.
<mgrwt>
<rscale>  0 0.17579494E+03</rscale>
<asrwt>0</asrwt>
<pdfrwt beam="1">  1        1 0.16696560E-02 0.17579494E+03</pdfrwt>
<pdfrwt beam="2">  1       -1 0.94434280E-01 0.17579494E+03</pdfrwt>
<totfact> 0.86445697E+03</totfact>
</mgrwt>
</event>
<event>
 4    1  0.3352993E-004  0.1865546E+03  0.7818608E-02  0.1161606E+00
         -1   -1    0    0    0  501 -0.00000000000E+00  0.00000000000E+00  0.89120687928E+01  0.89120702179E+01  0.50400000000E-02 0.  1.
          1   -1    0    0  501    0  0.00000000000E+00 -0.00000000000E+00 -0.97627804936E+03  0.97627804937E+03  0.50400000000E-02 0. -1.
    5000001    1    1    2    0    0 -0.20721883191E+02  0.44085447611E+02 -0.58913528358E+03  0.59613950171E+03  0.77000000000E+02 0.  0.
   -5000001    1    1    2    0    0  0.20721883191E+02 -0.44085447611E+02 -0.37823069698E+03  0.38905061788E+03  0.77000000000E+02 0.  0.
<mgrwt>
<rscale>  0 0.18655463E+03</rscale>
<asrwt>0</asrwt>
<pdfrwt beam="1">  1        1 0.13946822E+00 0.18655463E+03</pdfrwt>
<pdfrwt beam="2">  1       -1 0.12731534E-02 0.18655463E+03</pdfrwt>
<totfact> 0.24340793E+04</totfact>
</mgrwt>
</event>
<event>
 4    1  0.3352993E-004  0.3617346E+03  0.7818608E-02  0.1057899E+00
          1   -1    0    0  501    0  0.00000000000E+00  0.00000000000E+00  0.17371174621E+04  0.17371174621E+04  0.50400000000E-02 0.  1.
         -1   -1    0    0    0  501 -0.00000000000E+00 -0.00000000000E+00 -0.18831763813E+02  0.18831764487E+02  0.50400000000E-02 0. -1.
    5000001    1    1    2    0    0  0.91860449838E+00  0.16256443458E+03  0.76755990220E+03  0.78835603803E+03  0.77000000000E+02 0.  0.
   -5000001    1    1    2    0    0 -0.91860449838E+00 -0.16256443458E+03  0.95072579613E+03  0.96759318861E+03  0.77000000000E+02 0.  0.
<mgrwt>
<rscale>  0 0.36173463E+03</rscale>
<asrwt>0</asrwt>
<pdfrwt beam="1">  1        1 0.24815956E+00 0.36173463E+03</pdfrwt>
<pdfrwt beam="2">  1       -1 0.26902529E-02 0.36173463E+03</pdfrwt>
<totfact> 0.26704784E+03</totfact>
</mgrwt>
</event>
<event>
 4    1  0.3352993E-004  0.1999378E+03  0.7818608E-02  0.1149791E+00
         -1   -1    0    0    0  501 -0.00000000000E+00  0.00000000000E+00  0.52387491118E+01  0.52387515362E+01  0.50400000000E-02 0.  1.
          1   -1    0    0  501    0  0.00000000000E+00 -0.00000000000E+00 -0.19076656411E+04  0.19076656411E+04  0.50400000000E-02 0. -1.
    5000001    1    1    2    0    0  0.56016472571E+02  0.26055368159E+02 -0.80052717634E+03  0.80659127658E+03  0.77000000000E+02 0.  0.
   -5000001    1    1    2    0    0 -0.56016472571E+02 -0.26055368159E+02 -0.11018997157E+04  0.11063131161E+04  0.77000000000E+02 0.  0.
<mgrwt>
<rscale>  0 0.19993783E+03</rscale>
<asrwt>0</asrwt>
<pdfrwt beam="1">  1        1 0.27252322E+00 0.19993783E+03</pdfrwt>
<pdfrwt beam="2">  1       -1 0.74839412E-03 0.19993783E+03</pdfrwt>
<totfact> 0.13432969E+04</totfact>
</mgrwt>
</event>
<event>
 4    1  0.3352993E-004  0.1806187E+03  0.7818608E-02  0.1167206E+00
          1   -1    0    0  501    0  0.00000000000E+00  0.00000000000E+00  0.33668501446E+03  0.33668501450E+03  0.50400000000E-02 0.  1.
         -1   -1    0    0    0  501 -0.00000000000E+00 -0.00000000000E+00 -0.24223774545E+02  0.24223775069E+02  0.50400000000E-02 0. -1.
    5000001    1    1    2    0    0 -0.41050168568E+02  0.21819537172E+02  0.14004986985E+03  0.16644571063E+03  0.77000000000E+02 0.  0.
   -5000001    1    1    2    0    0  0.41050168568E+02 -0.21819537172E+02  0.17241137007E+03  0.19446307894E+03  0.77000000000E+02 0.  0.
<mgrwt>
<rscale>  0 0.18061874E+03</rscale>
<asrwt>0</asrwt>
<pdfrwt beam="1">  1        1 0.48097859E-01 0.18061874E+03</pdfrwt>
<pdfrwt beam="2">  1       -1 0.34605393E-02 0.18061874E+03</pdfrwt>
<totfact> 0.24284972E+04</totfact>
</mgrwt>
</event>
<event>
 4    1  0.3352993E-004  0.2043785E+03  0.7818608E-02  0.1146097E+00
          1   -1    0    0  501    0  0.00000000000E+00  0.00000000000E+00  0.17492595356E+04  0.17492595357E+04  0.50400000000E-02 0.  1.
         -1   -1    0    0    0  501 -0.00000000000E+00 -0.00000000000E+00 -0.59697479086E+01  0.59697500361E+01  0.50400000000E-02 0. -1.
    5000001    1    1    2    0    0  0.12030813758E+02  0.62572433831E+02  0.10545520153E+04  0.10592775854E+04  0.77000000000E+02 0.  0.
   -5000001    1    1    2    0    0 -0.12030813758E+02 -0.62572433831E+02  0.68873777245E+03  0.69595170030E+03  0.77000000000E+02 0.  0.
<mgrwt>
<rscale>  0 0.20437848E+03</rscale>
<asrwt>0</asrwt>
<pdfrwt beam="1">  1        1 0.24989424E+00 0.20437848E+03</pdfrwt>
<pdfrwt beam="2">  1       -1 0.85282122E-03 0.20437848E+03</pdfrwt>
<totfact> 0.13879855E+04</totfact>
</mgrwt>
</event>
<event>
 4    1  0.3352993E-004  0.2950232E+03  0.7818608E-02  0.1087755E+00
         -1   -1    0    0    0  501 -0.00000000000E+00  0.00000000000E+00  0.68289241602E+02  0.68289241788E+02  0.50400000000E-02 0. -1.
          1   -1    0    0  501    0  0.00000000000E+00 -0.00000000000E+00 -0.31863978653E+03  0.31863978657E+03  0.50400000000E-02 0.  1.
    5000001    1    1    2    0    0 -0.84295749946E+02  0.92452438442E+02 -0.10770482257E+03  0.18216079610E+03  0.77000000000E+02 0.  0.
   -5000001    1    1    2    0    0  0.84295749946E+02 -0.92452438442E+02 -0.14264572236E+03  0.20476823225E+03  0.77000000000E+02 0.  0.
<mgrwt>
<rscale>  0 0.29502318E+03</rscale>
<asrwt>0</asrwt>
<pdfrwt beam="1">  1        1 0.45519969E-01 0.29502318E+03</pdfrwt>
<pdfrwt beam="2">  1       -1 0.97556062E-02 0.29502318E+03</pdfrwt>
<totfact> 0.56288663E+03</totfact>
</mgrwt>
</event>
<event>
 4    1  0.3352993E-004  0.4742749E+03  0.7818608E-02  0.1020721E+00
          1   -1    0    0  501    0  0.00000000000E+00  0.00000000000E+00  0.43821596572E+03  0.43821596575E+03  0.50400000000E-02 0.  1.
         -1   -1    0    0    0  501 -0.00000000000E+00 -0.00000000000E+00 -0.12832525792E+03  0.12832525801E+03  0.50400000000E-02 0. -1.
    5000001    1    1    2    0    0 -0.16615257197E+03  0.14703639763E+03  0.11571056619E+03  0.26180969143E+03  0.77000000000E+02 0.  0.
   -5000001    1    1    2    0    0  0.16615257197E+03 -0.14703639763E+03  0.19418014161E+03  0.30473153233E+03  0.77000000000E+02 0.  0.
<mgrwt>
<rscale>  0 0.47427493E+03</rscale>
<asrwt>0</asrwt>
<pdfrwt beam="1">  1        1 0.62602281E-01 0.47427493E+03</pdfrwt>
<pdfrwt beam="2">  1       -1 0.18332180E-01 0.47427493E+03</pdfrwt>
<totfact> 0.13839931E+03</totfact>
</mgrwt>
</event>
<event>
 4    1  0.3352993E-004  0.2379640E+03  0.7818608E-02  0.1121157E+00
         -1   -1    0    0    0  501 -0.00000000000E+00  0.00000000000E+00  0.55905698975E+03  0.55905698978E+03  0.50400000000E-02 0. -1.
          1   -1    0    0  501    0  0.00000000000E+00 -0.00000000000E+00 -0.25322490205E+02  0.25322490706E+02  0.50400000000E-02 0.  1.
    5000001    1    1    2    0    0  0.27955821158E+02  0.69352539105E+02  0.39296008480E+03  0.40735479727E+03  0.77000000000E+02 0.  0.
   -5000001    1    1    2    0    0 -0.27955821158E+02 -0.69352539105E+02  0.14077441475E+03  0.17702468321E+03  0.77000000000E+02 0.  0.
<mgrwt>
<rscale>  0 0.23796399E+03</rscale>
<asrwt>0</asrwt>
<pdfrwt beam="1">  1        1 0.36174991E-02 0.23796399E+03</pdfrwt>
<pdfrwt beam="2">  1       -1 0.79865273E-01 0.23796399E+03</pdfrwt>
<totfact> 0.42457334E+03</totfact>
</mgrwt>
</event>
<event>
 4    1  0.3352993E-004  0.2086427E+03  0.7818608E-02  0.1142645E+00
         -1   -1    0    0    0  501 -0.00000000000E+00  0.00000000000E+00  0.35964499686E+03  0.35964499689E+03  0.50400000000E-02 0.  1.
          1   -1    0    0  501    0  0.00000000000E+00 -0.00000000000E+00 -0.30260231611E+02  0.30260232031E+02  0.50400000000E-02 0. -1.
    5000001    1    1    2    0    0 -0.64599660111E+02  0.22367018960E+02  0.19599310652E+03  0.22139489024E+03  0.77000000000E+02 0.  0.
   -5000001    1    1    2    0    0  0.64599660111E+02 -0.22367018960E+02  0.13339165873E+03  0.16851033868E+03  0.77000000000E+02 0.  0.
<mgrwt>
<rscale>  0 0.20864267E+03</rscale>
<asrwt>0</asrwt>
<pdfrwt beam="1">  1        1 0.43228906E-02 0.20864267E+03</pdfrwt>
<pdfrwt beam="2">  1       -1 0.51377852E-01 0.20864267E+03</pdfrwt>
<totfact> 0.77841308E+03</totfact>
</mgrwt>
</event>
<event>
 4    1  0.3352993E-004  0.1768979E+03  0.7818608E-02  0.1170839E+00
         -1   -1    0    0    0  501 -0.00000000000E+00  0.00000000000E+00  0.11702467974E+04  0.11702467974E+04  0.50400000000E-02 0. -1.
          1   -1    0    0  501    0  0.00000000000E+00 -0.00000000000E+00 -0.66851023738E+01  0.66851042736E+01  0.50400000000E-02 0.  1.
    5000001    1    1    2    0    0 -0.40034366323E+02 -0.11895632903E+02  0.66325546718E+03  0.66901500081E+03  0.77000000000E+02 0.  0.
   -5000001    1    1    2    0    0  0.40034366323E+02  0.11895632903E+02  0.50030622785E+03  0.50791690088E+03  0.77000000000E+02 0.  0.
<mgrwt>
<rscale>  0 0.17689795E+03</rscale>
<asrwt>0</asrwt>
<pdfrwt beam="1">  1        1 0.95501412E-03 0.17689795E+03</pdfrwt>
<pdfrwt beam="2">  1       -1 0.16717823E+00 0.17689795E+03</pdfrwt>
<totfact> 0.47542893E+03</totfact>
</mgrwt>
</event>
<event>
 4    1  0.3352993E-004  0.1982240E+03  0.7818608E-02  0.1151246E+00
          1   -1    0    0  501    0  0.00000000000E+00  0.00000000000E+00  0.43119423816E+04  0.43119423816E+04  0.50400000000E-02 0.  1.
         -1   -1    0    0    0  501 -0.00000000000E+00 -0.00000000000E+00 -0.22781335446E+01  0.22781391197E+01  0.50400000000E-02 0. -1.
    5000001    1    1    2    0    0  0.28193284991E+02  0.53834662744E+02  0.24635183433E+04  0.24654704744E+04  0.77000000000E+02 0.  0.
   -5000001    1    1    2    0    0 -0.28193284991E+02 -0.53834662744E+02  0.18461459047E+04  0.18487500463E+04  0.77000000000E+02 0.  0.
<mgrwt>
<rscale>  0 0.19822404E+03</rscale>
<asrwt>0</asrwt>
<pdfrwt beam="1">  1        1 0.61599146E+00 0.19822404E+03</pdfrwt>
<pdfrwt beam="2">  1       -1 0.32544821E-03 0.19822404E+03</pdfrwt>
<totfact> 0.11898111E+03</totfact>
</mgrwt>
</event>
<event>
 4    1  0.3352993E-004  0.1904551E+03  0.7818608E-02  0.1158052E+00
         -1   -1    0    0    0  501 -0.00000000000E+00  0.00000000000E+00  0.17209523246E+02  0.17209523984E+02  0.50400000000E-02 0.  1.
          1   -1    0    0  501    0  0.00000000000E+00 -0.00000000000E+00 -0.52693399829E+03  0.52693399832E+03  0.50400000000E-02 0. -1.
    5000001    1    1    2    0    0  0.21571458225E+02  0.48742626411E+02 -0.20553231707E+03  0.22586213671E+03  0.77000000000E+02 0.  0.
   -5000001    1    1    2    0    0 -0.21571458225E+02 -0.48742626411E+02 -0.30419215797E+03  0.31828138559E+03  0.77000000000E+02 0.  0.
<mgrwt>
<rscale>  0 0.19045507E+03</rscale>
<asrwt>0</asrwt>
<pdfrwt beam="1">  1        1 0.75276275E-01 0.19045507E+03</pdfrwt>
<pdfrwt beam="2">  1       -1 0.24585037E-02 0.19045507E+03</pdfrwt>
<totfact> 0.22754111E+04</totfact>
</mgrwt>
</event>
<event>
 4    1  0.3352993E-004  0.2405286E+03  0.7818608E-02  0.1119441E+00
         -1   -1    0    0    0  501 -0.00000000000E+00  0.00000000000E+00  0.43862511893E+01  0.43862540848E+01  0.50400000000E-02 0.  1.
          1   -1    0    0  501    0  0.00000000000E+00 -0.00000000000E+00 -0.32974615973E+04  0.32974615973E+04  0.50400000000E-02 0. -1.
    5000001    1    1    2    0    0 -0.88448129332E+02  0.26444171911E+02 -0.16943554417E+04  0.16986146499E+04  0.77000000000E+02 0.  0.
   -5000001    1    1    2    0    0  0.88448129332E+02 -0.26444171911E+02 -0.15987199044E+04  0.16032332016E+04  0.77000000000E+02 0.  0.
<mgrwt>
<rscale>  0 0.24052858E+03</rscale>
<asrwt>0</asrwt>
<pdfrwt beam="1">  1        1 0.47106436E+00 0.24052858E+03</pdfrwt>
<pdfrwt beam="2">  1       -1 0.62660963E-03 0.24052858E+03</pdfrwt>
<totfact> 0.24241178E+03</totfact>
</mgrwt>
</event>
<event>
 4    1  0.3352993E-004  0.1996101E+03  0.7818608E-02  0.1150068E+00
          1   -1    0    0  501    0  0.00000000000E+00  0.00000000000E+00  0.13440884648E+03  0.13440884657E+03  0.50400000000E-02 0.  1.
         -1   -1    0    0    0  501 -0.00000000000E+00 -0.00000000000E+00 -0.74110084840E+02  0.74110085011E+02  0.50400000000E-02 0. -1.
    5000001    1    1    2    0    0 -0.33657470738E+02 -0.48454691880E+02  0.56201514359E+01  0.97166190642E+02  0.77000000000E+02 0.  0.
   -5000001    1    1    2    0    0  0.33657470738E+02  0.48454691880E+02  0.54678610202E+02  0.11135274094E+03  0.77000000000E+02 0.  0.
<mgrwt>
<rscale>  0 0.19961013E+03</rscale>
<asrwt>0</asrwt>
<pdfrwt beam="1">  1        1 0.19201264E-01 0.19961013E+03</pdfrwt>
<pdfrwt beam="2">  1       -1 0.10587155E-01 0.19961013E+03</pdfrwt>
<totfact> 0.14481929E+04</totfact>
</mgrwt>
</event>
<event>
 4    1  0.3352993E-004  0.2859654E+03  0.7818608E-02  0.1092475E+00
          1   -1    0    0  501    0  0.00000000000E+00  0.00000000000E+00  0.11952104202E+03  0.11952104212E+03  0.50400000000E-02 0.  1.
         -1   -1    0    0    0  501 -0.00000000000E+00 -0.00000000000E+00 -0.17104981657E+03  0.17104981664E+03  0.50400000000E-02 0. -1.
    5000001    1    1    2    0    0 -0.58387760981E+02  0.19751605805E+02  0.79419879343E+02  0.12663243581E+03  0.77000000000E+02 0.  0.
   -5000001    1    1    2    0    0  0.58387760981E+02 -0.19751605805E+02 -0.13094865389E+03  0.16393842295E+03  0.77000000000E+02 0.  0.
<mgrwt>
<rscale>  0 0.28596540E+03</rscale>
<asrwt>0</asrwt>
<pdfrwt beam="1">  1        1 0.17074435E-01 0.28596540E+03</pdfrwt>
<pdfrwt beam="2">  1       -1 0.24435688E-01 0.28596540E+03</pdfrwt>
<totfact> 0.45227223E+03</totfact>
</mgrwt>
</event>
<event>
 4    1  0.3352993E-004  0.1900816E+03  0.7818608E-02  0.1158388E+00
         -1   -1    0    0    0  501 -0.00000000000E+00  0.00000000000E+00  0.22056980764E+02  0.22056981340E+02  0.50400000000E-02 0. -1.
          1   -1    0    0  501    0  0.00000000000E+00 -0.00000000000E+00 -0.40951891932E+03  0.40951891935E+03  0.50400000000E-02 0.  1.
    5000001    1    1    2    0    0  0.99879614055E+01  0.50471732524E+02 -0.14521517197E+03  0.17223124376E+03  0.77000000000E+02 0.  0.
   -5000001    1    1    2    0    0 -0.99879614055E+01 -0.50471732524E+02 -0.24224676659E+03  0.25934465693E+03  0.77000000000E+02 0.  0.
<mgrwt>
<rscale>  0 0.19008157E+03</rscale>
<asrwt>0</asrwt>
<pdfrwt beam="1">  1        1 0.58502698E-01 0.19008157E+03</pdfrwt>
<pdfrwt beam="2">  1       -1 0.31509976E-02 0.19008157E+03</pdfrwt>
<totfact> 0.21881585E+04</totfact>
</mgrwt>
</event>
<event>
 4    1  0.3352993E-004  0.3496178E+03  0.7818608E-02  0.1062772E+00
          1   -1    0    0  501    0  0.00000000000E+00  0.00000000000E+00  0.17103810722E+03  0.17103810730E+03  0.50400000000E-02 0.  1.
         -1   -1    0    0    0  501 -0.00000000000E+00 -0.00000000000E+00 -0.17866279004E+03  0.17866279011E+03  0.50400000000E-02 0. -1.
    5000001    1    1    2    0    0 -0.54462826923E+02  0.58763894879E+02 -0.13878793720E+03  0.17779338112E+03  0.77000000000E+02 0.  0.
   -5000001    1    1    2    0    0  0.54462826923E+02 -0.58763894879E+02  0.13116325438E+03  0.17190751629E+03  0.77000000000E+02 0.  0.
<mgrwt>
<rscale>  0 0.34961777E+03</rscale>
<asrwt>0</asrwt>
<pdfrwt beam="1">  1        1 0.24434015E-01 0.34961777E+03</pdfrwt>
<pdfrwt beam="2">  1       -1 0.25523256E-01 0.34961777E+03</pdfrwt>
<totfact> 0.26589848E+03</totfact>
</mgrwt>
</event>
<event>
 4    1  0.3352993E-004  0.2255133E+03  0.7818608E-02  0.1129838E+00
         -1   -1    0    0    0  501 -0.00000000000E+00  0.00000000000E+00  0.22175963965E+02  0.22175964537E+02  0.50400000000E-02 0.  1.
          1   -1    0    0  501    0  0.00000000000E+00 -0.00000000000E+00 -0.57332645579E+03  0.57332645582E+03  0.50400000000E-02 0. -1.
    5000001    1    1    2    0    0 -0.79566106921E+02 -0.15420001239E+02 -0.31443190917E+03  0.33371390039E+03  0.77000000000E+02 0.  0.
   -5000001    1    1    2    0    0  0.79566106921E+02  0.15420001239E+02 -0.23671858266E+03  0.26178851996E+03  0.77000000000E+02 0.  0.
<mgrwt>
<rscale>  0 0.22551334E+03</rscale>
<asrwt>0</asrwt>
<pdfrwt beam="1">  1        1 0.81903770E-01 0.22551334E+03</pdfrwt>
<pdfrwt beam="2">  1       -1 0.31679952E-02 0.22551334E+03</pdfrwt>
<totfact> 0.14190700E+04</totfact>
</mgrwt>
</event>
<event>
 4    1  0.3352993E-004  0.1887545E+03  0.7818608E-02  0.1159590E+00
          1   -1    0    0  501    0  0.00000000000E+00  0.00000000000E+00  0.31052412007E+03  0.31052412011E+03  0.50400000000E-02 0.  1.
         -1   -1    0    0    0  501 -0.00000000000E+00 -0.00000000000E+00 -0.28683963095E+02  0.28683963538E+02  0.50400000000E-02 0. -1.
    5000001    1    1    2    0    0 -0.46917859940E+01 -0.31412208745E+02  0.22066947388E+03  0.23586597130E+03  0.77000000000E+02 0.  0.
   -5000001    1    1    2    0    0  0.46917859940E+01  0.31412208745E+02  0.61170683086E+02  0.10334211234E+03  0.77000000000E+02 0.  0.
<mgrwt>
<rscale>  0 0.18875447E+03</rscale>
<asrwt>0</asrwt>
<pdfrwt beam="1">  1        1 0.44360592E-01 0.18875447E+03</pdfrwt>
<pdfrwt beam="2">  1       -1 0.40977088E-02 0.18875447E+03</pdfrwt>
<totfact> 0.21015260E+04</totfact>
</mgrwt>
</event>
<event>
 4    1  0.3352993E-004  0.2678681E+03  0.7818608E-02  0.1102506E+00
          1   -1    0    0  501    0  0.00000000000E+00  0.00000000000E+00  0.23438832827E+03  0.23438832832E+03  0.50400000000E-02 0.  1.
         -1   -1    0    0    0  501 -0.00000000000E+00 -0.00000000000E+00 -0.76532539603E+02  0.76532539769E+02  0.50400000000E-02 0. -1.
    5000001    1    1    2    0    0 -0.27329040359E+02 -0.54118640164E+02  0.18488886785E+03  0.20925725105E+03  0.77000000000E+02 0.  0.
   -5000001    1    1    2    0    0  0.27329040359E+02  0.54118640164E+02 -0.27033079188E+02  0.10166361704E+03  0.77000000000E+02 0.  0.
<mgrwt>
<rscale>  0 0.26786813E+03</rscale>
<asrwt>0</asrwt>
<pdfrwt beam="1">  1        1 0.33484047E-01 0.26786813E+03</pdfrwt>
<pdfrwt beam="2">  1       -1 0.10933220E-01 0.26786813E+03</pdfrwt>
<totfact> 0.69163480E+03</totfact>
</mgrwt>
</event>
<event>
 4    1  0.3352993E-004  0.3267375E+03  0.7818608E-02  0.1072590E+00
         -1   -1    0    0    0  501 -0.00000000000E+00  0.00000000000E+00  0.13201050589E+03  0.13201050598E+03  0.50400000000E-02 0.  1.
          1   -1    0    0  501    0  0.00000000000E+00 -0.00000000000E+00 -0.20217589627E+03  0.20217589633E+03  0.50400000000E-02 0. -1.
    5000001    1    1    2    0    0 -0.57314665531E+02 -0.11569605380E+03 -0.10049215953E+03  0.18082649661E+03  0.77000000000E+02 0.  0.
   -5000001    1    1    2    0    0  0.57314665531E+02  0.11569605380E+03  0.30326769147E+02  0.15335990570E+03  0.77000000000E+02 0.  0.
<mgrwt>
<rscale>  0 0.32673746E+03</rscale>
<asrwt>0</asrwt>
<pdfrwt beam="1">  1        1 0.28882271E-01 0.32673746E+03</pdfrwt>
<pdfrwt beam="2">  1       -1 0.18858644E-01 0.32673746E+03</pdfrwt>
<totfact> 0.35334990E+03</totfact>
</mgrwt>
</event>
<event>
 4    1  0.3352993E-004  0.3336538E+03  0.7818608E-02  0.1069532E+00
         -1   -1    0    0    0  501 -0.00000000000E+00  0.00000000000E+00  0.21531727717E+02  0.21531728307E+02  0.50400000000E-02 0.  1.
          1   -1    0    0  501    0  0.00000000000E+00 -0.00000000000E+00 -0.12925679209E+04  0.12925679209E+04  0.50400000000E-02 0. -1.
    5000001    1    1    2    0    0  0.13052056415E+03  0.50867066892E+02 -0.82354419291E+03  0.83891424701E+03  0.77000000000E+02 0.  0.
   -5000001    1    1    2    0    0 -0.13052056415E+03 -0.50867066892E+02 -0.44749200024E+03  0.47518540218E+03  0.77000000000E+02 0.  0.
<mgrwt>
<rscale>  0 0.33365384E+03</rscale>
<asrwt>0</asrwt>
<pdfrwt beam="1">  1        1 0.18465251E+00 0.33365384E+03</pdfrwt>
<pdfrwt beam="2">  1       -1 0.30759620E-02 0.33365384E+03</pdfrwt>
<totfact> 0.41735810E+03</totfact>
</mgrwt>
</event>
<event>
 4    1  0.3352993E-004  0.7440292E+03  0.7818608E-02  0.9644764E-01
         -1   -1    0    0    0  501 -0.00000000000E+00  0.00000000000E+00  0.10850489711E+03  0.10850489723E+03  0.50400000000E-02 0. -1.
          1   -1    0    0  501    0  0.00000000000E+00 -0.00000000000E+00 -0.12754709642E+04  0.12754709642E+04  0.50400000000E-02 0.  1.
    5000001    1    1    2    0    0  0.57367668128E+02  0.34029705204E+03 -0.79858695174E+03  0.87336318474E+03  0.77000000000E+02 0.  0.
   -5000001    1    1    2    0    0 -0.57367668128E+02 -0.34029705204E+03 -0.36837911533E+03  0.51061267668E+03  0.77000000000E+02 0.  0.
<mgrwt>
<rscale>  0 0.74402915E+03</rscale>
<asrwt>0</asrwt>
<pdfrwt beam="1">  1        1 0.18221013E+00 0.74402915E+03</pdfrwt>
<pdfrwt beam="2">  1       -1 0.15500700E-01 0.74402915E+03</pdfrwt>
<totfact> 0.34638060E+02</totfact>
</mgrwt>
</event>
<event>
 4    1  0.3352993E-004  0.1985633E+03  0.7818608E-02  0.1150957E+00
         -1   -1    0    0    0  501 -0.00000000000E+00  0.00000000000E+00  0.98918788905E+01  0.98918801745E+01  0.50400000000E-02 0.  1.
          1   -1    0    0  501    0  0.00000000000E+00 -0.00000000000E+00 -0.99645853781E+03  0.99645853782E+03  0.50400000000E-02 0. -1.
    5000001    1    1    2    0    0 -0.60440908049E+02 -0.60588863516E+01 -0.57147671800E+03  0.57983140022E+03  0.77000000000E+02 0.  0.
   -5000001    1    1    2    0    0  0.60440908049E+02  0.60588863516E+01 -0.41508994092E+03  0.42651901778E+03  0.77000000000E+02 0.  0.
<mgrwt>
<rscale>  0 0.19856332E+03</rscale>
<asrwt>0</asrwt>
<pdfrwt beam="1">  1        1 0.14235116E+00 0.19856332E+03</pdfrwt>
<pdfrwt beam="2">  1       -1 0.14131263E-02 0.19856332E+03</pdfrwt>
<totfact> 0.20339925E+04</totfact>
</mgrwt>
</event>
<event>
 4    1  0.3352993E-004  0.2839222E+03  0.7818608E-02  0.1093566E+00
          1   -1    0    0  501    0  0.00000000000E+00  0.00000000000E+00  0.19783870710E+04  0.19783870710E+04  0.50400000000E-02 0.  1.
         -1   -1    0    0    0  501 -0.00000000000E+00 -0.00000000000E+00 -0.10186556122E+02  0.10186557369E+02  0.50400000000E-02 0. -1.
    5000001    1    1    2    0    0  0.79591354627E+02 -0.72487776651E+02  0.13436070998E+04  0.13501104770E+04  0.77000000000E+02 0.  0.
   -5000001    1    1    2    0    0 -0.79591354627E+02  0.72487776651E+02  0.62459341509E+03  0.63846315138E+03  0.77000000000E+02 0.  0.
<mgrwt>
<rscale>  0 0.28392219E+03</rscale>
<asrwt>0</asrwt>
<pdfrwt beam="1">  1        1 0.28262677E+00 0.28392219E+03</pdfrwt>
<pdfrwt beam="2">  1       -1 0.14552222E-02 0.28392219E+03</pdfrwt>
<totfact> 0.46981591E+03</totfact>
</mgrwt>
</event>
<event>
 4    1  0.3352993E-004  0.6625077E+03  0.7818608E-02  0.9783588E-01
          1   -1    0    0  501    0  0.00000000000E+00  0.00000000000E+00  0.16491129903E+04  0.16491129903E+04  0.50400000000E-02 0.  1.
         -1   -1    0    0    0  501 -0.00000000000E+00 -0.00000000000E+00 -0.66538268613E+02  0.66538268804E+02  0.50400000000E-02 0. -1.
    5000001    1    1    2    0    0 -0.21196804754E+03 -0.23622320768E+03  0.93473208698E+03  0.99014389432E+03  0.77000000000E+02 0.  0.
   -5000001    1    1    2    0    0  0.21196804754E+03  0.23622320768E+03  0.64784263473E+03  0.72550736482E+03  0.77000000000E+02 0.  0.
<mgrwt>
<rscale>  0 0.66250773E+03</rscale>
<asrwt>0</asrwt>
<pdfrwt beam="1">  1        1 0.23558753E+00 0.66250773E+03</pdfrwt>
<pdfrwt beam="2">  1       -1 0.95054684E-02 0.66250773E+03</pdfrwt>
<totfact> 0.43552623E+02</totfact>
</mgrwt>
</event>
<event>
 4    1  0.3352993E-004  0.2331636E+03  0.7818608E-02  0.1124433E+00
         -1   -1    0    0    0  501 -0.00000000000E+00  0.00000000000E+00  0.12085283887E+02  0.12085284938E+02  0.50400000000E-02 0.  1.
          1   -1    0    0  501    0  0.00000000000E+00 -0.00000000000E+00 -0.11246171589E+04  0.11246171589E+04  0.50400000000E-02 0. -1.
    5000001    1    1    2    0    0 -0.68486404865E+02  0.17227912264E+02 -0.80841561815E+03  0.81513925208E+03  0.77000000000E+02 0.  0.
   -5000001    1    1    2    0    0  0.68486404865E+02 -0.17227912264E+02 -0.30411625685E+03  0.32156319175E+03  0.77000000000E+02 0.  0.
<mgrwt>
<rscale>  0 0.23316362E+03</rscale>
<asrwt>0</asrwt>
<pdfrwt beam="1">  1        1 0.16065953E+00 0.23316362E+03</pdfrwt>
<pdfrwt beam="2">  1       -1 0.17264699E-02 0.23316362E+03</pdfrwt>
<totfact> 0.12498590E+04</totfact>
</mgrwt>
</event>
<event>
 4    1  0.3352993E-004  0.2437445E+03  0.7818608E-02  0.1117323E+00
         -1   -1    0    0    0  501 -0.00000000000E+00  0.00000000000E+00  0.20068739310E+02  0.20068739942E+02  0.50400000000E-02 0. -1.
          1   -1    0    0  501    0  0.00000000000E+00 -0.00000000000E+00 -0.74009841370E+03  0.74009841371E+03  0.50400000000E-02 0.  1.
    5000001    1    1    2    0    0 -0.23489287973E+02  0.88958542869E+02 -0.29323714918E+03  0.31683180815E+03  0.77000000000E+02 0.  0.
   -5000001    1    1    2    0    0  0.23489287973E+02 -0.88958542869E+02 -0.42679252521E+03  0.44333534551E+03  0.77000000000E+02 0.  0.
<mgrwt>
<rscale>  0 0.24374448E+03</rscale>
<asrwt>0</asrwt>
<pdfrwt beam="1">  1        1 0.10572833E+00 0.24374448E+03</pdfrwt>
<pdfrwt beam="2">  1       -1 0.28669633E-02 0.24374448E+03</pdfrwt>
<totfact> 0.11575251E+04</totfact>
</mgrwt>
</event>
<event>
 4    1  0.3352993E-004  0.2354962E+03  0.7818608E-02  0.1122830E+00
          1   -1    0    0  501    0  0.00000000000E+00  0.00000000000E+00  0.23369808912E+02  0.23369809456E+02  0.50400000000E-02 0.  1.
         -1   -1    0    0    0  501 -0.00000000000E+00 -0.00000000000E+00 -0.59327015193E+03  0.59327015195E+03  0.50400000000E-02 0. -1.
    5000001    1    1    2    0    0 -0.75705183425E+01  0.69126283146E+02 -0.43073706813E+03  0.44305663027E+03  0.77000000000E+02 0.  0.
   -5000001    1    1    2    0    0  0.75705183425E+01 -0.69126283146E+02 -0.13916327489E+03  0.17358333113E+03  0.77000000000E+02 0.  0.
<mgrwt>
<rscale>  0 0.23549616E+03</rscale>
<asrwt>0</asrwt>
<pdfrwt beam="1">  1        1 0.33385445E-02 0.23549616E+03</pdfrwt>
<pdfrwt beam="2">  1       -1 0.84752870E-01 0.23549616E+03</pdfrwt>
<totfact> 0.41940397E+03</totfact>
</mgrwt>
</event>
<event>
 4    1  0.3352993E-004  0.2262695E+03  0.7818608E-02  0.1129293E+00
         -1   -1    0    0    0  501 -0.00000000000E+00  0.00000000000E+00  0.18335291954E+03  0.18335291961E+03  0.50400000000E-02 0.  1.
          1   -1    0    0  501    0  0.00000000000E+00 -0.00000000000E+00 -0.69807816240E+02  0.69807816422E+02  0.50400000000E-02 0. -1.
    5000001    1    1    2    0    0 -0.63861171428E+02  0.13936384934E+02  0.11380073798E+03  0.15215807572E+03  0.77000000000E+02 0.  0.
   -5000001    1    1    2    0    0  0.63861171428E+02 -0.13936384934E+02 -0.25563468008E+00  0.10100266031E+03  0.77000000000E+02 0.  0.
<mgrwt>
<rscale>  0 0.22626946E+03</rscale>
<asrwt>0</asrwt>
<pdfrwt beam="1">  1        1 0.99725453E-02 0.22626946E+03</pdfrwt>
<pdfrwt beam="2">  1       -1 0.26193274E-01 0.22626946E+03</pdfrwt>
<totfact> 0.81195620E+03</totfact>
</mgrwt>
</event>
<event>
 4    1  0.3352993E-004  0.1705234E+03  0.7818608E-02  0.1177303E+00
         -1   -1    0    0    0  501 -0.00000000000E+00  0.00000000000E+00  0.17417180796E+03  0.17417180803E+03  0.50400000000E-02 0.  1.
          1   -1    0    0  501    0  0.00000000000E+00 -0.00000000000E+00 -0.41737875877E+02  0.41737876181E+02  0.50400000000E-02 0. -1.
    5000001    1    1    2    0    0 -0.19938473638E+02 -0.24411372898E+02  0.42627532579E+02  0.93485637354E+02  0.77000000000E+02 0.  0.
   -5000001    1    1    2    0    0  0.19938473638E+02  0.24411372898E+02  0.89806399506E+02  0.12242404686E+03  0.77000000000E+02 0.  0.
<mgrwt>
<rscale>  0 0.17052345E+03</rscale>
<asrwt>0</asrwt>
<pdfrwt beam="1">  1        1 0.59625537E-02 0.17052345E+03</pdfrwt>
<pdfrwt beam="2">  1       -1 0.24881687E-01 0.17052345E+03</pdfrwt>
<totfact> 0.17376759E+04</totfact>
</mgrwt>
</event>
<event>
 4    1  0.3352993E-004  0.3826309E+03  0.7818608E-02  0.1049966E+00
         -1   -1    0    0    0  501 -0.00000000000E+00  0.00000000000E+00  0.83886362740E+02  0.83886362891E+02  0.50400000000E-02 0. -1.
          1   -1    0    0  501    0  0.00000000000E+00 -0.00000000000E+00 -0.43632362285E+03  0.43632362288E+03  0.50400000000E-02 0.  1.
    5000001    1    1    2    0    0 -0.13262368650E+03  0.11412675020E+03 -0.16580716212E+03  0.25305132353E+03  0.77000000000E+02 0.  0.
   -5000001    1    1    2    0    0  0.13262368650E+03 -0.11412675020E+03 -0.18663009799E+03  0.26715866223E+03  0.77000000000E+02 0.  0.
<mgrwt>
<rscale>  0 0.38263090E+03</rscale>
<asrwt>0</asrwt>
<pdfrwt beam="1">  1        1 0.62331945E-01 0.38263090E+03</pdfrwt>
<pdfrwt beam="2">  1       -1 0.11983766E-01 0.38263090E+03</pdfrwt>
<totfact> 0.27490097E+03</totfact>
</mgrwt>
</event>
<event>
 4    1  0.3352993E-004  0.2040106E+03  0.7818608E-02  0.1146399E+00
         -1   -1    0    0    0  501 -0.00000000000E+00  0.00000000000E+00  0.25350010892E+02  0.25350011393E+02  0.50400000000E-02 0. -1.
          1   -1    0    0  501    0  0.00000000000E+00 -0.00000000000E+00 -0.41045669114E+03  0.41045669117E+03  0.50400000000E-02 0.  1.
    5000001    1    1    2    0    0 -0.39955354064E+02 -0.39747981749E+02 -0.11553911251E+03  0.14984865328E+03  0.77000000000E+02 0.  0.
   -5000001    1    1    2    0    0  0.39955354064E+02  0.39747981749E+02 -0.26956756774E+03  0.28595804928E+03  0.77000000000E+02 0.  0.
<mgrwt>
<rscale>  0 0.20401060E+03</rscale>
<asrwt>0</asrwt>
<pdfrwt beam="1">  1        1 0.58636666E-01 0.20401060E+03</pdfrwt>
<pdfrwt beam="2">  1       -1 0.36214304E-02 0.20401060E+03</pdfrwt>
<totfact> 0.17871305E+04</totfact>
</mgrwt>
</event>
<event>
 4    1  0.3352993E-004  0.4017544E+03  0.7818608E-02  0.1043174E+00
         -1   -1    0    0    0  501 -0.00000000000E+00  0.00000000000E+00  0.85988026417E+02  0.85988026565E+02  0.50400000000E-02 0. -1.
          1   -1    0    0  501    0  0.00000000000E+00 -0.00000000000E+00 -0.46927058677E+03  0.46927058679E+03  0.50400000000E-02 0.  1.
    5000001    1    1    2    0    0 -0.77913380958E+02 -0.15930631424E+03 -0.26700805641E+03  0.32965330102E+03  0.77000000000E+02 0.  0.
   -5000001    1    1    2    0    0  0.77913380958E+02  0.15930631424E+03 -0.11627450394E+03  0.22560531234E+03  0.77000000000E+02 0.  0.
<mgrwt>
<rscale>  0 0.40175441E+03</rscale>
<asrwt>0</asrwt>
<pdfrwt beam="1">  1        1 0.67038654E-01 0.40175441E+03</pdfrwt>
<pdfrwt beam="2">  1       -1 0.12284004E-01 0.40175441E+03</pdfrwt>
<totfact> 0.24052179E+03</totfact>
</mgrwt>
</event>
<event>
 4    1  0.3352993E-004  0.2146456E+03  0.7818608E-02  0.1137939E+00
          1   -1    0    0  501    0  0.00000000000E+00  0.00000000000E+00  0.13789131656E+04  0.13789131657E+04  0.50400000000E-02 0.  1.
         -1   -1    0    0    0  501 -0.00000000000E+00 -0.00000000000E+00 -0.83530852747E+01  0.83530867952E+01  0.50400000000E-02 0. -1.
    5000001    1    1    2    0    0  0.44139917148E+02  0.58284705973E+02  0.58437746313E+03  0.59394566978E+03  0.77000000000E+02 0.  0.
   -5000001    1    1    2    0    0 -0.44139917148E+02 -0.58284705973E+02  0.78618261724E+03  0.79332058267E+03  0.77000000000E+02 0.  0.
<mgrwt>
<rscale>  0 0.21464557E+03</rscale>
<asrwt>0</asrwt>
<pdfrwt beam="1">  1        1 0.19698765E+00 0.21464557E+03</pdfrwt>
<pdfrwt beam="2">  1       -1 0.11932977E-02 0.21464557E+03</pdfrwt>
<totfact> 0.14498921E+04</totfact>
</mgrwt>
</event>
<event>
 4    1  0.3352993E-004  0.1928851E+03  0.7818608E-02  0.1155885E+00
          1   -1    0    0  501    0  0.00000000000E+00  0.00000000000E+00  0.89636387440E+03  0.89636387441E+03  0.50400000000E-02 0.  1.
         -1   -1    0    0    0  501 -0.00000000000E+00 -0.00000000000E+00 -0.10376546280E+02  0.10376547504E+02  0.50400000000E-02 0. -1.
    5000001    1    1    2    0    0  0.58023850899E+02 -0.23224094290E+01  0.44313698042E+03  0.45351024716E+03  0.77000000000E+02 0.  0.
   -5000001    1    1    2    0    0 -0.58023850899E+02  0.23224094290E+01  0.44285034770E+03  0.45323017476E+03  0.77000000000E+02 0.  0.
<mgrwt>
<rscale>  0 0.19288506E+03</rscale>
<asrwt>0</asrwt>
<pdfrwt beam="1">  1        1 0.12805199E+00 0.19288506E+03</pdfrwt>
<pdfrwt beam="2">  1       -1 0.14823638E-02 0.19288506E+03</pdfrwt>
<totfact> 0.22425368E+04</totfact>
</mgrwt>
</event>
<event>
 4    1  0.3352993E-004  0.2652175E+03  0.7818608E-02  0.1104048E+00
         -1   -1    0    0    0  501 -0.00000000000E+00  0.00000000000E+00  0.57364664529E+02  0.57364664750E+02  0.50400000000E-02 0. -1.
          1   -1    0    0  501    0  0.00000000000E+00 -0.00000000000E+00 -0.30654891685E+03  0.30654891689E+03  0.50400000000E-02 0.  1.
    5000001    1    1    2    0    0 -0.19668267857E+02 -0.97431939554E+02 -0.18242149637E+03  0.22155456652E+03  0.77000000000E+02 0.  0.
   -5000001    1    1    2    0    0  0.19668267857E+02  0.97431939554E+02 -0.66762755951E+02  0.14235901513E+03  0.77000000000E+02 0.  0.
<mgrwt>
<rscale>  0 0.26521746E+03</rscale>
<asrwt>0</asrwt>
<pdfrwt beam="1">  1        1 0.43792702E-01 0.26521746E+03</pdfrwt>
<pdfrwt beam="2">  1       -1 0.81949522E-02 0.26521746E+03</pdfrwt>
<totfact> 0.76956296E+03</totfact>
</mgrwt>
</event>
<event>
 4    1  0.3352993E-004  0.2756408E+03  0.7818608E-02  0.1098094E+00
          1   -1    0    0  501    0  0.00000000000E+00  0.00000000000E+00  0.13205966184E+03  0.13205966194E+03  0.50400000000E-02 0.  1.
         -1   -1    0    0    0  501 -0.00000000000E+00 -0.00000000000E+00 -0.14383238771E+03  0.14383238780E+03  0.50400000000E-02 0. -1.
    5000001    1    1    2    0    0  0.87684403130E+02  0.73322062227E+02 -0.50039998904E+01  0.13790837312E+03  0.77000000000E+02 0.  0.
   -5000001    1    1    2    0    0 -0.87684403130E+02 -0.73322062227E+02 -0.67687259829E+01  0.13798367662E+03  0.77000000000E+02 0.  0.
<mgrwt>
<rscale>  0 0.27564076E+03</rscale>
<asrwt>0</asrwt>
<pdfrwt beam="1">  1        1 0.18865666E-01 0.27564076E+03</pdfrwt>
<pdfrwt beam="2">  1       -1 0.20547484E-01 0.27564076E+03</pdfrwt>
<totfact> 0.52776242E+03</totfact>
</mgrwt>
</event>
<event>
 4    1  0.3352993E-004  0.2581072E+03  0.7818608E-02  0.1108286E+00
          1   -1    0    0  501    0  0.00000000000E+00  0.00000000000E+00  0.13493738575E+04  0.13493738576E+04  0.50400000000E-02 0.  1.
         -1   -1    0    0    0  501 -0.00000000000E+00 -0.00000000000E+00 -0.12342635689E+02  0.12342636718E+02  0.50400000000E-02 0. -1.
    5000001    1    1    2    0    0  0.61106343570E+02 -0.80809213943E+02  0.55515185611E+03  0.56954955678E+03  0.77000000000E+02 0.  0.
   -5000001    1    1    2    0    0 -0.61106343570E+02  0.80809213943E+02  0.78187936574E+03  0.79216693749E+03  0.77000000000E+02 0.  0.
<mgrwt>
<rscale>  0 0.25810719E+03</rscale>
<asrwt>0</asrwt>
<pdfrwt beam="1">  1        1 0.19276767E+00 0.25810719E+03</pdfrwt>
<pdfrwt beam="2">  1       -1 0.17632340E-02 0.25810719E+03</pdfrwt>
<totfact> 0.86530188E+03</totfact>
</mgrwt>
</event>
<event>
 4    1  0.3352993E-004  0.2322970E+03  0.7818608E-02  0.1125033E+00
          1   -1    0    0  501    0  0.00000000000E+00  0.00000000000E+00  0.10170812662E+03  0.10170812675E+03  0.50400000000E-02 0.  1.
         -1   -1    0    0    0  501 -0.00000000000E+00 -0.00000000000E+00 -0.13263905169E+03  0.13263905179E+03  0.50400000000E-02 0. -1.
    5000001    1    1    2    0    0  0.39118025808E+02 -0.45535642736E+02 -0.78931391729E+02  0.12555030586E+03  0.77000000000E+02 0.  0.
   -5000001    1    1    2    0    0 -0.39118025808E+02  0.45535642736E+02  0.48000466660E+02  0.10879687267E+03  0.77000000000E+02 0.  0.
<mgrwt>
<rscale>  0 0.23229696E+03</rscale>
<asrwt>0</asrwt>
<pdfrwt beam="1">  1        1 0.14529732E-01 0.23229696E+03</pdfrwt>
<pdfrwt beam="2">  1       -1 0.18948436E-01 0.23229696E+03</pdfrwt>
<totfact> 0.83938069E+03</totfact>
</mgrwt>
</event>
<event>
 4    1  0.3352993E-004  0.3290745E+03  0.7818608E-02  0.1071547E+00
         -1   -1    0    0    0  501 -0.00000000000E+00  0.00000000000E+00  0.48946647576E+02  0.48946647836E+02  0.50400000000E-02 0.  1.
          1   -1    0    0  501    0  0.00000000000E+00 -0.00000000000E+00 -0.55310221796E+03  0.55310221798E+03  0.50400000000E-02 0. -1.
    5000001    1    1    2    0    0  0.94393872087E+02 -0.86884721321E+02 -0.12686120276E+03  0.19616809795E+03  0.77000000000E+02 0.  0.
   -5000001    1    1    2    0    0 -0.94393872087E+02  0.86884721321E+02 -0.37729436763E+03  0.40588076787E+03  0.77000000000E+02 0.  0.
<mgrwt>
<rscale>  0 0.32907446E+03</rscale>
<asrwt>0</asrwt>
<pdfrwt beam="1">  1        1 0.79014599E-01 0.32907446E+03</pdfrwt>
<pdfrwt beam="2">  1       -1 0.69923786E-02 0.32907446E+03</pdfrwt>
<totfact> 0.46191061E+03</totfact>
</mgrwt>
</event>
<event>
 4    1  0.3352993E-004  0.1842360E+03  0.7818608E-02  0.1163765E+00
          1   -1    0    0  501    0  0.00000000000E+00  0.00000000000E+00  0.88371786319E+02  0.88371786463E+02  0.50400000000E-02 0. -1.
         -1   -1    0    0    0  501 -0.00000000000E+00 -0.00000000000E+00 -0.96023019588E+02  0.96023019721E+02  0.50400000000E-02 0.  1.
    5000001    1    1    2    0    0  0.26850081667E+02  0.36427833292E+02  0.18750685518E+02  0.91260627498E+02  0.77000000000E+02 0.  0.
   -5000001    1    1    2    0    0 -0.26850081667E+02 -0.36427833292E+02 -0.26401918787E+02  0.93134178686E+02  0.77000000000E+02 0.  0.
<mgrwt>
<rscale>  0 0.18423600E+03</rscale>
<asrwt>0</asrwt>
<pdfrwt beam="1">  1        1 0.12624541E-01 0.18423600E+03</pdfrwt>
<pdfrwt beam="2">  1       -1 0.13717574E-01 0.18423600E+03</pdfrwt>
<totfact> 0.16605903E+04</totfact>
</mgrwt>
</event>
<event>
 4    1  0.3352993E-004  0.2044255E+03  0.7818608E-02  0.1146058E+00
          1   -1    0    0  501    0  0.00000000000E+00  0.00000000000E+00  0.24321692277E+03  0.24321692282E+03  0.50400000000E-02 0. -1.
         -1   -1    0    0    0  501 -0.00000000000E+00 -0.00000000000E+00 -0.42955254055E+02  0.42955254351E+02  0.50400000000E-02 0.  1.
    5000001    1    1    2    0    0 -0.26821808040E+02  0.56328592027E+02  0.13515944600E+03  0.16759891261E+03  0.77000000000E+02 0.  0.
   -5000001    1    1    2    0    0  0.26821808040E+02 -0.56328592027E+02  0.65102222720E+02  0.11857326456E+03  0.77000000000E+02 0.  0.
<mgrwt>
<rscale>  0 0.20442549E+03</rscale>
<asrwt>0</asrwt>
<pdfrwt beam="1">  1        1 0.34745274E-01 0.20442549E+03</pdfrwt>
<pdfrwt beam="2">  1       -1 0.61364650E-02 0.20442549E+03</pdfrwt>
<totfact> 0.15707559E+04</totfact>
</mgrwt>
</event>
<event>
 4    1  0.3352993E-004  0.2408832E+03  0.7818608E-02  0.1119206E+00
          1   -1    0    0  501    0  0.00000000000E+00  0.00000000000E+00  0.41451787344E+02  0.41451787650E+02  0.50400000000E-02 0. -1.
         -1   -1    0    0    0  501 -0.00000000000E+00 -0.00000000000E+00 -0.34995308611E+03  0.34995308614E+03  0.50400000000E-02 0.  1.
    5000001    1    1    2    0    0  0.69512400842E+02 -0.57438116111E+02 -0.11993271363E+03  0.16865339265E+03  0.77000000000E+02 0.  0.
   -5000001    1    1    2    0    0 -0.69512400842E+02  0.57438116111E+02 -0.18856858513E+03  0.22275148114E+03  0.77000000000E+02 0.  0.
<mgrwt>
<rscale>  0 0.24088322E+03</rscale>
<asrwt>0</asrwt>
<pdfrwt beam="1">  1        1 0.59216841E-02 0.24088322E+03</pdfrwt>
<pdfrwt beam="2">  1       -1 0.49993297E-01 0.24088322E+03</pdfrwt>
<totfact> 0.53438044E+03</totfact>
</mgrwt>
</event>
<event>
 4    1  0.3352993E-004  0.1805059E+03  0.7818608E-02  0.1167314E+00
         -1   -1    0    0    0  501 -0.00000000000E+00  0.00000000000E+00  0.18679435870E+03  0.18679435877E+03  0.50400000000E-02 0. -1.
          1   -1    0    0  501    0  0.00000000000E+00 -0.00000000000E+00 -0.43607292268E+02  0.43607292559E+02  0.50400000000E-02 0.  1.
    5000001    1    1    2    0    0  0.84329302415E+01  0.40927919653E+02  0.99277094195E+02  0.13240525047E+03  0.77000000000E+02 0.  0.
   -5000001    1    1    2    0    0 -0.84329302415E+01 -0.40927919653E+02  0.43909972238E+02  0.97996400860E+02  0.77000000000E+02 0.  0.
<mgrwt>
<rscale>  0 0.18050591E+03</rscale>
<asrwt>0</asrwt>
<pdfrwt beam="1">  1        1 0.62296130E-02 0.18050591E+03</pdfrwt>
<pdfrwt beam="2">  1       -1 0.26684909E-01 0.18050591E+03</pdfrwt>
<totfact> 0.14647807E+04</totfact>
</mgrwt>
</event>
<event>
 4    1  0.3352993E-004  0.2654518E+03  0.7818608E-02  0.1103911E+00
          1   -1    0    0  501    0  0.00000000000E+00  0.00000000000E+00  0.56030762373E+03  0.56030762376E+03  0.50400000000E-02 0.  1.
         -1   -1    0    0    0  501 -0.00000000000E+00 -0.00000000000E+00 -0.31440158728E+02  0.31440159132E+02  0.50400000000E-02 0. -1.
    5000001    1    1    2    0    0 -0.77612059453E+02  0.74403589722E+02  0.28961836348E+03  0.31838235253E+03  0.77000000000E+02 0.  0.
   -5000001    1    1    2    0    0  0.77612059453E+02 -0.74403589722E+02  0.23924910152E+03  0.27336543036E+03  0.77000000000E+02 0.  0.
<mgrwt>
<rscale>  0 0.26545177E+03</rscale>
<asrwt>0</asrwt>
<pdfrwt beam="1">  1        1 0.80043941E-01 0.26545177E+03</pdfrwt>
<pdfrwt beam="2">  1       -1 0.44914516E-02 0.26545177E+03</pdfrwt>
<totfact> 0.87920251E+03</totfact>
</mgrwt>
</event>
<event>
 4    1  0.3352993E-004  0.2265737E+03  0.7818608E-02  0.1129075E+00
          1   -1    0    0  501    0  0.00000000000E+00  0.00000000000E+00  0.11343119909E+03  0.11343119920E+03  0.50400000000E-02 0.  1.
         -1   -1    0    0    0  501 -0.00000000000E+00 -0.00000000000E+00 -0.11314271588E+03  0.11314271599E+03  0.50400000000E-02 0. -1.
    5000001    1    1    2    0    0  0.13928362033E+02 -0.58413272111E+02 -0.57291023487E+02  0.11321382866E+03  0.77000000000E+02 0.  0.
   -5000001    1    1    2    0    0 -0.13928362033E+02  0.58413272111E+02  0.57579506693E+02  0.11336008653E+03  0.77000000000E+02 0.  0.
<mgrwt>
<rscale>  0 0.22657373E+03</rscale>
<asrwt>0</asrwt>
<pdfrwt beam="1">  1        1 0.16204457E-01 0.22657373E+03</pdfrwt>
<pdfrwt beam="2">  1       -1 0.16163245E-01 0.22657373E+03</pdfrwt>
<totfact> 0.93767094E+03</totfact>
</mgrwt>
</event>
<event>
 4    1  0.3352993E-004  0.2299030E+03  0.7818608E-02  0.1126708E+00
         -1   -1    0    0    0  501 -0.00000000000E+00  0.00000000000E+00  0.76205091135E+01  0.76205107802E+01  0.50400000000E-02 0. -1.
          1   -1    0    0  501    0  0.00000000000E+00 -0.00000000000E+00 -0.17339847422E+04  0.17339847422E+04  0.50400000000E-02 0.  1.
    5000001    1    1    2    0    0 -0.37842560912E+02  0.31245997053E+02 -0.33417911849E+03  0.34642900425E+03  0.77000000000E+02 0.  0.
   -5000001    1    1    2    0    0  0.37842560912E+02 -0.31245997053E+02 -0.13921851146E+04  0.13951762487E+04  0.77000000000E+02 0.  0.
<mgrwt>
<rscale>  0 0.22990301E+03</rscale>
<asrwt>0</asrwt>
<pdfrwt beam="1">  1        1 0.24771186E+00 0.22990301E+03</pdfrwt>
<pdfrwt beam="2">  1       -1 0.10886454E-02 0.22990301E+03</pdfrwt>
<totfact> 0.10019206E+04</totfact>
</mgrwt>
</event>
<event>
 4    1  0.3352993E-004  0.4585775E+03  0.7818608E-02  0.1025195E+00
          1   -1    0    0  501    0  0.00000000000E+00  0.00000000000E+00  0.57123140254E+03  0.57123140256E+03  0.50400000000E-02 0.  1.
         -1   -1    0    0    0  501 -0.00000000000E+00 -0.00000000000E+00 -0.92035095860E+02  0.92035095998E+02  0.50400000000E-02 0. -1.
    5000001    1    1    2    0    0 -0.13747843055E+03 -0.14841810709E+03  0.13024669509E+03  0.25262908574E+03  0.77000000000E+02 0.  0.
   -5000001    1    1    2    0    0  0.13747843055E+03  0.14841810709E+03  0.34894961159E+03  0.41063741282E+03  0.77000000000E+02 0.  0.
<mgrwt>
<rscale>  0 0.45857753E+03</rscale>
<asrwt>0</asrwt>
<pdfrwt beam="1">  1        1 0.81604483E-01 0.45857753E+03</pdfrwt>
<pdfrwt beam="2">  1       -1 0.13147871E-01 0.45857753E+03</pdfrwt>
<totfact> 0.16601370E+03</totfact>
</mgrwt>
</event>
<event>
 4    1  0.3352993E-004  0.2140089E+03  0.7818608E-02  0.1138430E+00
          1   -1    0    0  501    0  0.00000000000E+00  0.00000000000E+00  0.11379081151E+04  0.11379081151E+04  0.50400000000E-02 0.  1.
         -1   -1    0    0    0  501 -0.00000000000E+00 -0.00000000000E+00 -0.10062280689E+02  0.10062281951E+02  0.50400000000E-02 0. -1.
    5000001    1    1    2    0    0 -0.22701432407E+02  0.70535920654E+02  0.53440538737E+03  0.54498512749E+03  0.77000000000E+02 0.  0.
   -5000001    1    1    2    0    0  0.22701432407E+02 -0.70535920654E+02  0.59344044700E+03  0.60298526953E+03  0.77000000000E+02 0.  0.
<mgrwt>
<rscale>  0 0.21400889E+03</rscale>
<asrwt>0</asrwt>
<pdfrwt beam="1">  1        1 0.16255827E+00 0.21400889E+03</pdfrwt>
<pdfrwt beam="2">  1       -1 0.14374690E-02 0.21400889E+03</pdfrwt>
<totfact> 0.15903816E+04</totfact>
</mgrwt>
</event>
<event>
 4    1  0.3352993E-004  0.2381308E+03  0.7818608E-02  0.1121044E+00
         -1   -1    0    0    0  501 -0.00000000000E+00  0.00000000000E+00  0.10477903866E+04  0.10477903866E+04  0.50400000000E-02 0. -1.
          1   -1    0    0  501    0  0.00000000000E+00 -0.00000000000E+00 -0.13529968335E+02  0.13529969274E+02  0.50400000000E-02 0.  1.
    5000001    1    1    2    0    0  0.81608881072E+02  0.14733312581E+02  0.35213587336E+03  0.36987261764E+03  0.77000000000E+02 0.  0.
   -5000001    1    1    2    0    0 -0.81608881072E+02 -0.14733312581E+02  0.68212454486E+03  0.69144773821E+03  0.77000000000E+02 0.  0.
<mgrwt>
<rscale>  0 0.23813081E+03</rscale>
<asrwt>0</asrwt>
<pdfrwt beam="1">  1        1 0.19328533E-02 0.23813081E+03</pdfrwt>
<pdfrwt beam="2">  1       -1 0.14968430E+00 0.23813081E+03</pdfrwt>
<totfact> 0.23997470E+03</totfact>
</mgrwt>
</event>
<event>
 4    1  0.3352993E-004  0.1700658E+03  0.7818608E-02  0.1177779E+00
         -1   -1    0    0    0  501 -0.00000000000E+00  0.00000000000E+00  0.38400197132E+02  0.38400197462E+02  0.50400000000E-02 0. -1.
          1   -1    0    0  501    0  0.00000000000E+00 -0.00000000000E+00 -0.18829578525E+03  0.18829578531E+03  0.50400000000E-02 0.  1.
    5000001    1    1    2    0    0  0.80787170087E+01  0.34826535241E+02 -0.68493853121E+02  0.10908052595E+03  0.77000000000E+02 0.  0.
   -5000001    1    1    2    0    0 -0.80787170087E+01 -0.34826535241E+02 -0.81401734995E+02  0.11761545683E+03  0.77000000000E+02 0.  0.
<mgrwt>
<rscale>  0 0.17006581E+03</rscale>
<asrwt>0</asrwt>
<pdfrwt beam="1">  1        1 0.26899397E-01 0.17006581E+03</pdfrwt>
<pdfrwt beam="2">  1       -1 0.54857426E-02 0.17006581E+03</pdfrwt>
<totfact> 0.25216020E+04</totfact>
</mgrwt>
</event>
<event>
 4    1  0.3352993E-004  0.2088339E+03  0.7818608E-02  0.1142493E+00
         -1   -1    0    0    0  501 -0.00000000000E+00  0.00000000000E+00  0.57151412410E+02  0.57151412632E+02  0.50400000000E-02 0.  1.
          1   -1    0    0  501    0  0.00000000000E+00 -0.00000000000E+00 -0.19077220344E+03  0.19077220351E+03  0.50400000000E-02 0. -1.
    5000001    1    1    2    0    0  0.37905553691E+02  0.51204881125E+02 -0.10272394084E+03  0.14331775491E+03  0.77000000000E+02 0.  0.
   -5000001    1    1    2    0    0 -0.37905553691E+02 -0.51204881125E+02 -0.30896850195E+02  0.10460586123E+03  0.77000000000E+02 0.  0.
<mgrwt>
<rscale>  0 0.20883391E+03</rscale>
<asrwt>0</asrwt>
<pdfrwt beam="1">  1        1 0.27253172E-01 0.20883391E+03</pdfrwt>
<pdfrwt beam="2">  1       -1 0.81644876E-02 0.20883391E+03</pdfrwt>
<totfact> 0.13853231E+04</totfact>
</mgrwt>
</event>
<event>
 4    1  0.3352993E-004  0.3097125E+03  0.7818608E-02  0.1080484E+00
         -1   -1    0    0    0  501 -0.00000000000E+00  0.00000000000E+00  0.97214939690E+01  0.97214952755E+01  0.50400000000E-02 0. -1.
          1   -1    0    0  501    0  0.00000000000E+00 -0.00000000000E+00 -0.24667461608E+04  0.24667461608E+04  0.50400000000E-02 0.  1.
    5000001    1    1    2    0    0  0.59806542985E+02 -0.11580514390E+03 -0.14893108112E+04  0.14969847516E+04  0.77000000000E+02 0.  0.
   -5000001    1    1    2    0    0 -0.59806542985E+02  0.11580514390E+03 -0.96771385562E+03  0.97948290455E+03  0.77000000000E+02 0.  0.
<mgrwt>
<rscale>  0 0.30971251E+03</rscale>
<asrwt>0</asrwt>
<pdfrwt beam="1">  1        1 0.35239191E+00 0.30971251E+03</pdfrwt>
<pdfrwt beam="2">  1       -1 0.13887865E-02 0.30971251E+03</pdfrwt>
<totfact> 0.25434974E+03</totfact>
</mgrwt>
</event>
<event>
 4    1  0.3352993E-004  0.2605526E+03  0.7818608E-02  0.1106812E+00
         -1   -1    0    0    0  501 -0.00000000000E+00  0.00000000000E+00  0.27717727423E+03  0.27717727427E+03  0.50400000000E-02 0.  1.
          1   -1    0    0  501    0  0.00000000000E+00 -0.00000000000E+00 -0.61231275892E+02  0.61231276100E+02  0.50400000000E-02 0. -1.
    5000001    1    1    2    0    0  0.30456335712E+02  0.90761485022E+02  0.16425337164E+03  0.20511802857E+03  0.77000000000E+02 0.  0.
   -5000001    1    1    2    0    0 -0.30456335712E+02 -0.90761485022E+02  0.51692626694E+02  0.13329052180E+03  0.77000000000E+02 0.  0.
<mgrwt>
<rscale>  0 0.26055263E+03</rscale>
<asrwt>0</asrwt>
<pdfrwt beam="1">  1        1 0.87473251E-02 0.26055263E+03</pdfrwt>
<pdfrwt beam="2">  1       -1 0.39596754E-01 0.26055263E+03</pdfrwt>
<totfact> 0.47985373E+03</totfact>
</mgrwt>
</event>
<event>
 4    1  0.3352993E-004  0.2544905E+03  0.7818608E-02  0.1110499E+00
         -1   -1    0    0    0  501 -0.00000000000E+00  0.00000000000E+00  0.31661613379E+02  0.31661613780E+02  0.50400000000E-02 0.  1.
          1   -1    0    0  501    0  0.00000000000E+00 -0.00000000000E+00 -0.51138757505E+03  0.51138757508E+03  0.50400000000E-02 0. -1.
    5000001    1    1    2    0    0 -0.99490249497E+01  0.27099668514E+02 -0.32658120547E+02  0.88481229471E+02  0.77000000000E+02 0.  0.
   -5000001    1    1    2    0    0  0.99490249497E+01 -0.27099668514E+02 -0.44706784113E+03  0.45456795939E+03  0.77000000000E+02 0.  0.
<mgrwt>
<rscale>  0 0.25449052E+03</rscale>
<asrwt>0</asrwt>
<pdfrwt beam="1">  1        1 0.73055363E-01 0.25449052E+03</pdfrwt>
<pdfrwt beam="2">  1       -1 0.45230880E-02 0.25449052E+03</pdfrwt>
<totfact> 0.98034890E+03</totfact>
</mgrwt>
</event>
<event>
 4    1  0.3352993E-004  0.2617779E+03  0.7818608E-02  0.1106080E+00
         -1   -1    0    0    0  501 -0.00000000000E+00  0.00000000000E+00  0.16434220180E+02  0.16434220953E+02  0.50400000000E-02 0. -1.
          1   -1    0    0  501    0  0.00000000000E+00 -0.00000000000E+00 -0.10424538761E+04  0.10424538761E+04  0.50400000000E-02 0.  1.
    5000001    1    1    2    0    0 -0.27015957516E+02  0.10882435985E+02 -0.10140133033E+03  0.13061209426E+03  0.77000000000E+02 0.  0.
   -5000001    1    1    2    0    0  0.27015957516E+02 -0.10882435985E+02 -0.92461832557E+03  0.92827600279E+03  0.77000000000E+02 0.  0.
<mgrwt>
<rscale>  0 0.26177790E+03</rscale>
<asrwt>0</asrwt>
<pdfrwt beam="1">  1        1 0.14892194E+00 0.26177790E+03</pdfrwt>
<pdfrwt beam="2">  1       -1 0.23477465E-02 0.26177790E+03</pdfrwt>
<totfact> 0.91344509E+03</totfact>
</mgrwt>
</event>
<event>
 4    1  0.3352993E-004  0.1715613E+03  0.7818608E-02  0.1176229E+00
          1   -1    0    0  501    0  0.00000000000E+00  0.00000000000E+00  0.13813112271E+04  0.13813112272E+04  0.50400000000E-02 0.  1.
         -1   -1    0    0    0  501 -0.00000000000E+00 -0.00000000000E+00 -0.53270504233E+01  0.53270528075E+01  0.50400000000E-02 0. -1.
    5000001    1    1    2    0    0  0.30267849552E+01  0.35170742937E+02  0.79738153940E+03  0.80186810758E+03  0.77000000000E+02 0.  0.
   -5000001    1    1    2    0    0 -0.30267849552E+01 -0.35170742937E+02  0.57860263732E+03  0.58477017238E+03  0.77000000000E+02 0.  0.
<mgrwt>
<rscale>  0 0.17156126E+03</rscale>
<asrwt>0</asrwt>
<pdfrwt beam="1">  1        1 0.19733026E+00 0.17156126E+03</pdfrwt>
<pdfrwt beam="2">  1       -1 0.76100705E-03 0.17156126E+03</pdfrwt>
<totfact> 0.27206635E+04</totfact>
</mgrwt>
</event>
<event>
 4    1  0.3352993E-004  0.2081506E+03  0.7818608E-02  0.1143039E+00
         -1   -1    0    0    0  501 -0.00000000000E+00  0.00000000000E+00  0.80790437682E+03  0.80790437683E+03  0.50400000000E-02 0. -1.
          1   -1    0    0  501    0  0.00000000000E+00 -0.00000000000E+00 -0.13407115423E+02  0.13407116370E+02  0.50400000000E-02 0.  1.
    5000001    1    1    2    0    0  0.39980967066E+02 -0.55743705302E+02  0.34189131471E+03  0.35710573992E+03  0.77000000000E+02 0.  0.
   -5000001    1    1    2    0    0 -0.39980967066E+02  0.55743705302E+02  0.45260594668E+03  0.46420575328E+03  0.77000000000E+02 0.  0.
<mgrwt>
<rscale>  0 0.20815060E+03</rscale>
<asrwt>0</asrwt>
<pdfrwt beam="1">  1        1 0.19153025E-02 0.20815060E+03</pdfrwt>
<pdfrwt beam="2">  1       -1 0.11541490E+00 0.20815060E+03</pdfrwt>
<totfact> 0.45898121E+03</totfact>
</mgrwt>
</event>
<event>
 4    1  0.3352993E-004  0.2209981E+03  0.7818608E-02  0.1133141E+00
          1   -1    0    0  501    0  0.00000000000E+00  0.00000000000E+00  0.10926818578E+03  0.10926818590E+03  0.50400000000E-02 0.  1.
         -1   -1    0    0    0  501 -0.00000000000E+00 -0.00000000000E+00 -0.11174378107E+03  0.11174378119E+03  0.50400000000E-02 0. -1.
    5000001    1    1    2    0    0 -0.62570720336E+02  0.42074085897E+02  0.23171038044E+02  0.11023257573E+03  0.77000000000E+02 0.  0.
   -5000001    1    1    2    0    0  0.62570720336E+02 -0.42074085897E+02 -0.25646633335E+02  0.11077939135E+03  0.77000000000E+02 0.  0.
<mgrwt>
<rscale>  0 0.22099810E+03</rscale>
<asrwt>0</asrwt>
<pdfrwt beam="1">  1        1 0.15609741E-01 0.22099810E+03</pdfrwt>
<pdfrwt beam="2">  1       -1 0.15963397E-01 0.22099810E+03</pdfrwt>
<totfact> 0.10026655E+04</totfact>
</mgrwt>
</event>
<event>
 4    1  0.3352993E-004  0.5518490E+03  0.7818608E-02  0.1001067E+00
         -1   -1    0    0    0  501 -0.00000000000E+00  0.00000000000E+00  0.26667485402E+02  0.26667485878E+02  0.50400000000E-02 0. -1.
          1   -1    0    0  501    0  0.00000000000E+00 -0.00000000000E+00 -0.28549496424E+04  0.28549496424E+04  0.50400000000E-02 0.  1.
    5000001    1    1    2    0    0 -0.12565798582E+03  0.45537619987E+02 -0.26087892789E+04  0.26133453859E+04  0.77000000000E+02 0.  0.
   -5000001    1    1    2    0    0  0.12565798582E+03 -0.45537619987E+02 -0.21949287811E+03  0.26827174240E+03  0.77000000000E+02 0.  0.
<mgrwt>
<rscale>  0 0.55184900E+03</rscale>
<asrwt>0</asrwt>
<pdfrwt beam="1">  1        1 0.40784976E+00 0.55184900E+03</pdfrwt>
<pdfrwt beam="2">  1       -1 0.38096426E-02 0.55184900E+03</pdfrwt>
<totfact> 0.31894107E+02</totfact>
</mgrwt>
</event>
<event>
 4    1  0.3352993E-004  0.1809469E+03  0.7818608E-02  0.1166890E+00
         -1   -1    0    0    0  501 -0.00000000000E+00  0.00000000000E+00  0.12632647141E+03  0.12632647151E+03  0.50400000000E-02 0.  1.
          1   -1    0    0  501    0  0.00000000000E+00 -0.00000000000E+00 -0.64795966222E+02  0.64795966418E+02  0.50400000000E-02 0. -1.
    5000001    1    1    2    0    0  0.25929635060E+02  0.34196243005E+02  0.92554550373E+01  0.88636293119E+02  0.77000000000E+02 0.  0.
   -5000001    1    1    2    0    0 -0.25929635060E+02 -0.34196243005E+02  0.52275050155E+02  0.10248614481E+03  0.77000000000E+02 0.  0.
<mgrwt>
<rscale>  0 0.18094691E+03</rscale>
<asrwt>0</asrwt>
<pdfrwt beam="1">  1        1 0.92565666E-02 0.18094691E+03</pdfrwt>
<pdfrwt beam="2">  1       -1 0.18046639E-01 0.18094691E+03</pdfrwt>
<totfact> 0.16224657E+04</totfact>
</mgrwt>
</event>
<event>
 4    1  0.3352993E-004  0.2382088E+03  0.7818608E-02  0.1120992E+00
         -1   -1    0    0    0  501 -0.00000000000E+00  0.00000000000E+00  0.83828848852E+03  0.83828848853E+03  0.50400000000E-02 0.  1.
          1   -1    0    0  501    0  0.00000000000E+00 -0.00000000000E+00 -0.16922399809E+02  0.16922400559E+02  0.50400000000E-02 0. -1.
    5000001    1    1    2    0    0  0.55976689683E+02 -0.71512854824E+02  0.42167571638E+03  0.43816308377E+03  0.77000000000E+02 0.  0.
   -5000001    1    1    2    0    0 -0.55976689683E+02  0.71512854824E+02  0.39969037232E+03  0.41704780532E+03  0.77000000000E+02 0.  0.
<mgrwt>
<rscale>  0 0.23820876E+03</rscale>
<asrwt>0</asrwt>
<pdfrwt beam="1">  1        1 0.24174861E-02 0.23820876E+03</pdfrwt>
<pdfrwt beam="2">  1       -1 0.11975548E+00 0.23820876E+03</pdfrwt>
<totfact> 0.30513171E+03</totfact>
</mgrwt>
</event>
<event>
 4    1  0.3352993E-004  0.4659646E+03  0.7818608E-02  0.1023065E+00
         -1   -1    0    0    0  501 -0.00000000000E+00  0.00000000000E+00  0.57256366548E+03  0.57256366550E+03  0.50400000000E-02 0. -1.
          1   -1    0    0  501    0  0.00000000000E+00 -0.00000000000E+00 -0.94803005909E+02  0.94803006043E+02  0.50400000000E-02 0.  1.
    5000001    1    1    2    0    0 -0.20828458155E+03  0.45204676278E+02  0.16140991346E+03  0.27822309363E+03  0.77000000000E+02 0.  0.
   -5000001    1    1    2    0    0  0.20828458155E+03 -0.45204676278E+02  0.31635074611E+03  0.38914357791E+03  0.77000000000E+02 0.  0.
<mgrwt>
<rscale>  0 0.46596462E+03</rscale>
<asrwt>0</asrwt>
<pdfrwt beam="1">  1        1 0.13543286E-01 0.46596462E+03</pdfrwt>
<pdfrwt beam="2">  1       -1 0.81794813E-01 0.46596462E+03</pdfrwt>
<totfact> 0.66569462E+02</totfact>
</mgrwt>
</event>
<event>
 4    1  0.3352993E-004  0.2777908E+03  0.7818608E-02  0.1096902E+00
         -1   -1    0    0    0  501 -0.00000000000E+00  0.00000000000E+00  0.95111647655E+02  0.95111647788E+02  0.50400000000E-02 0. -1.
          1   -1    0    0  501    0  0.00000000000E+00 -0.00000000000E+00 -0.20283461607E+03  0.20283461613E+03  0.50400000000E-02 0.  1.
    5000001    1    1    2    0    0 -0.94385238281E+02  0.66645498792E+02 -0.57689600954E+02  0.15035719395E+03  0.77000000000E+02 0.  0.
   -5000001    1    1    2    0    0  0.94385238281E+02 -0.66645498792E+02 -0.50033367460E+02  0.14758906997E+03  0.77000000000E+02 0.  0.
<mgrwt>
<rscale>  0 0.27779082E+03</rscale>
<asrwt>0</asrwt>
<pdfrwt beam="1">  1        1 0.28976374E-01 0.27779082E+03</pdfrwt>
<pdfrwt beam="2">  1       -1 0.13587378E-01 0.27779082E+03</pdfrwt>
<totfact> 0.59158453E+03</totfact>
</mgrwt>
</event>
<event>
 4    1  0.3352993E-004  0.1627553E+03  0.7818608E-02  0.1185621E+00
          1   -1    0    0  501    0  0.00000000000E+00  0.00000000000E+00  0.16074904294E+04  0.16074904295E+04  0.50400000000E-02 0. -1.
         -1   -1    0    0    0  501 -0.00000000000E+00 -0.00000000000E+00 -0.41196647016E+01  0.41196677846E+01  0.50400000000E-02 0.  1.
    5000001    1    1    2    0    0  0.13928503302E+02  0.22323119378E+02  0.79178726217E+03  0.79595753241E+03  0.77000000000E+02 0.  0.
   -5000001    1    1    2    0    0 -0.13928503302E+02 -0.22323119378E+02  0.81158350258E+03  0.81565256483E+03  0.77000000000E+02 0.  0.
<mgrwt>
<rscale>  0 0.16275533E+03</rscale>
<asrwt>0</asrwt>
<pdfrwt beam="1">  1        1 0.22964139E+00 0.16275533E+03</pdfrwt>
<pdfrwt beam="2">  1       -1 0.58852401E-03 0.16275533E+03</pdfrwt>
<totfact> 0.28367795E+04</totfact>
</mgrwt>
</event>
<event>
 4    1  0.3352993E-004  0.2928881E+03  0.7818608E-02  0.1088851E+00
         -1   -1    0    0    0  501 -0.00000000000E+00  0.00000000000E+00  0.10087371298E+02  0.10087372558E+02  0.50400000000E-02 0. -1.
          1   -1    0    0  501    0  0.00000000000E+00 -0.00000000000E+00 -0.21260104718E+04  0.21260104718E+04  0.50400000000E-02 0.  1.
    5000001    1    1    2    0    0 -0.10247711224E+03 -0.64471092153E+02 -0.12716888072E+04  0.12797575952E+04  0.77000000000E+02 0.  0.
   -5000001    1    1    2    0    0  0.10247711224E+03  0.64471092153E+02 -0.84423429330E+03  0.85634024910E+03  0.77000000000E+02 0.  0.
<mgrwt>
<rscale>  0 0.29288809E+03</rscale>
<asrwt>0</asrwt>
<pdfrwt beam="1">  1        1 0.30371550E+00 0.29288809E+03</pdfrwt>
<pdfrwt beam="2">  1       -1 0.14410545E-02 0.29288809E+03</pdfrwt>
<totfact> 0.38815984E+03</totfact>
</mgrwt>
</event>
<event>
 4    1  0.3352993E-004  0.2172881E+03  0.7818608E-02  0.1135921E+00
          1   -1    0    0  501    0  0.00000000000E+00  0.00000000000E+00  0.22529909049E+03  0.22529909054E+03  0.50400000000E-02 0. -1.
         -1   -1    0    0    0  501 -0.00000000000E+00 -0.00000000000E+00 -0.52390503119E+02  0.52390503361E+02  0.50400000000E-02 0.  1.
    5000001    1    1    2    0    0 -0.62099723238E+02  0.44851961955E+02  0.83206460613E+02  0.13682247332E+03  0.77000000000E+02 0.  0.
   -5000001    1    1    2    0    0  0.62099723238E+02 -0.44851961955E+02  0.89702126756E+02  0.14086712059E+03  0.77000000000E+02 0.  0.
<mgrwt>
<rscale>  0 0.21728813E+03</rscale>
<asrwt>0</asrwt>
<pdfrwt beam="1">  1        1 0.32185584E-01 0.21728813E+03</pdfrwt>
<pdfrwt beam="2">  1       -1 0.74843576E-02 0.21728813E+03</pdfrwt>
<totfact> 0.12861388E+04</totfact>
</mgrwt>
</event>
<event>
 4    1  0.3352993E-004  0.2553277E+03  0.7818608E-02  0.1109983E+00
          1   -1    0    0  501    0  0.00000000000E+00  0.00000000000E+00  0.82851311229E+03  0.82851311230E+03  0.50400000000E-02 0.  1.
         -1   -1    0    0    0  501 -0.00000000000E+00 -0.00000000000E+00 -0.19671449501E+02  0.19671450147E+02  0.50400000000E-02 0. -1.
    5000001    1    1    2    0    0 -0.60782723982E+02  0.41867809679E+02  0.17137266198E+03  0.20185401234E+03  0.77000000000E+02 0.  0.
   -5000001    1    1    2    0    0  0.60782723982E+02 -0.41867809679E+02  0.63746900080E+03  0.64633055011E+03  0.77000000000E+02 0.  0.
<mgrwt>
<rscale>  0 0.25532767E+03</rscale>
<asrwt>0</asrwt>
<pdfrwt beam="1">  1        1 0.11835899E+00 0.25532767E+03</pdfrwt>
<pdfrwt beam="2">  1       -1 0.28102078E-02 0.25532767E+03</pdfrwt>
<totfact> 0.10110214E+04</totfact>
</mgrwt>
</event>
<event>
 4    1  0.3352993E-004  0.1847255E+03  0.7818608E-02  0.1163306E+00
         -1   -1    0    0    0  501 -0.00000000000E+00  0.00000000000E+00  0.79969066900E+03  0.79969066902E+03  0.50400000000E-02 0. -1.
          1   -1    0    0  501    0  0.00000000000E+00 -0.00000000000E+00 -0.10667719845E+02  0.10667721035E+02  0.50400000000E-02 0.  1.
    5000001    1    1    2    0    0 -0.45239274791E+02 -0.14561048337E+02  0.31323550500E+03  0.32604309179E+03  0.77000000000E+02 0.  0.
   -5000001    1    1    2    0    0  0.45239274791E+02  0.14561048337E+02  0.47578744416E+03  0.48431529827E+03  0.77000000000E+02 0.  0.
<mgrwt>
<rscale>  0 0.18472549E+03</rscale>
<asrwt>0</asrwt>
<pdfrwt beam="1">  1        1 0.15239598E-02 0.18472549E+03</pdfrwt>
<pdfrwt beam="2">  1       -1 0.11424154E+00 0.18472549E+03</pdfrwt>
<totfact> 0.64366375E+03</totfact>
</mgrwt>
</event>
<event>
 4    1  0.3352993E-004  0.3693682E+03  0.7818608E-02  0.1054935E+00
         -1   -1    0    0    0  501 -0.00000000000E+00  0.00000000000E+00  0.71548127419E+02  0.71548127597E+02  0.50400000000E-02 0. -1.
          1   -1    0    0  501    0  0.00000000000E+00 -0.00000000000E+00 -0.47671707127E+03  0.47671707129E+03  0.50400000000E-02 0.  1.
    5000001    1    1    2    0    0  0.74208821213E+02 -0.15047407090E+03 -0.19447905764E+03  0.26814268407E+03  0.77000000000E+02 0.  0.
   -5000001    1    1    2    0    0 -0.74208821213E+02  0.15047407090E+03 -0.21068988621E+03  0.28012251482E+03  0.77000000000E+02 0.  0.
<mgrwt>
<rscale>  0 0.36936818E+03</rscale>
<asrwt>0</asrwt>
<pdfrwt beam="1">  1        1 0.68102437E-01 0.36936818E+03</pdfrwt>
<pdfrwt beam="2">  1       -1 0.10221161E-01 0.36936818E+03</pdfrwt>
<totfact> 0.31406568E+03</totfact>
</mgrwt>
</event>
<event>
 4    1  0.3352993E-004  0.1965203E+03  0.7818608E-02  0.1152709E+00
          1   -1    0    0  501    0  0.00000000000E+00  0.00000000000E+00  0.47227185622E+03  0.47227185625E+03  0.50400000000E-02 0.  1.
         -1   -1    0    0    0  501 -0.00000000000E+00 -0.00000000000E+00 -0.20443843748E+02  0.20443844369E+02  0.50400000000E-02 0. -1.
    5000001    1    1    2    0    0  0.12644816412E+02 -0.44519898148E+02  0.32570372575E+03  0.33786658562E+03  0.77000000000E+02 0.  0.
   -5000001    1    1    2    0    0 -0.12644816412E+02  0.44519898148E+02  0.12612428673E+03  0.15484911500E+03  0.77000000000E+02 0.  0.
<mgrwt>
<rscale>  0 0.19652025E+03</rscale>
<asrwt>0</asrwt>
<pdfrwt beam="1">  1        1 0.67467402E-01 0.19652025E+03</pdfrwt>
<pdfrwt beam="2">  1       -1 0.29205494E-02 0.19652025E+03</pdfrwt>
<totfact> 0.20442558E+04</totfact>
</mgrwt>
</event>
<event>
 4    1  0.3352993E-004  0.2121047E+03  0.7818608E-02  0.1139910E+00
         -1   -1    0    0    0  501 -0.00000000000E+00  0.00000000000E+00  0.24823475347E+02  0.24823475859E+02  0.50400000000E-02 0.  1.
          1   -1    0    0  501    0  0.00000000000E+00 -0.00000000000E+00 -0.45308341951E+03  0.45308341954E+03  0.50400000000E-02 0. -1.
    5000001    1    1    2    0    0  0.18759996720E+02 -0.60982598336E+02 -0.13455495878E+03  0.16764501695E+03  0.77000000000E+02 0.  0.
   -5000001    1    1    2    0    0 -0.18759996720E+02  0.60982598336E+02 -0.29370498539E+03  0.31026187845E+03  0.77000000000E+02 0.  0.
<mgrwt>
<rscale>  0 0.21210474E+03</rscale>
<asrwt>0</asrwt>
<pdfrwt beam="1">  1        1 0.64726198E-01 0.21210474E+03</pdfrwt>
<pdfrwt beam="2">  1       -1 0.35462111E-02 0.21210474E+03</pdfrwt>
<totfact> 0.16293589E+04</totfact>
</mgrwt>
</event>
<event>
 4    1  0.3352993E-004  0.2548501E+03  0.7818608E-02  0.1110277E+00
          1   -1    0    0  501    0  0.00000000000E+00  0.00000000000E+00  0.25457602809E+04  0.25457602809E+04  0.50400000000E-02 0. -1.
         -1   -1    0    0    0  501 -0.00000000000E+00 -0.00000000000E+00 -0.63781087667E+01  0.63781107580E+01  0.50400000000E-02 0.  1.
    5000001    1    1    2    0    0  0.86895665712E+02  0.52507369124E+02  0.12646046512E+04  0.12710081842E+04  0.77000000000E+02 0.  0.
   -5000001    1    1    2    0    0 -0.86895665712E+02 -0.52507369124E+02  0.12747775210E+04  0.12811302075E+04  0.77000000000E+02 0.  0.
<mgrwt>
<rscale>  0 0.25485006E+03</rscale>
<asrwt>0</asrwt>
<pdfrwt beam="1">  1        1 0.36367949E+00 0.25485006E+03</pdfrwt>
<pdfrwt beam="2">  1       -1 0.91115992E-03 0.25485006E+03</pdfrwt>
<totfact> 0.42004845E+03</totfact>
</mgrwt>
</event>
<event>
 4    1  0.3352993E-004  0.2191547E+03  0.7818608E-02  0.1134515E+00
          1   -1    0    0  501    0  0.00000000000E+00  0.00000000000E+00  0.71639065569E+03  0.71639065571E+03  0.50400000000E-02 0. -1.
         -1   -1    0    0    0  501 -0.00000000000E+00 -0.00000000000E+00 -0.16760678381E+02  0.16760679139E+02  0.50400000000E-02 0.  1.
    5000001    1    1    2    0    0  0.50839895531E+02  0.52505424241E+02  0.25901578221E+03  0.27992800858E+03  0.77000000000E+02 0.  0.
   -5000001    1    1    2    0    0 -0.50839895531E+02 -0.52505424241E+02  0.44061419510E+03  0.45322332627E+03  0.77000000000E+02 0.  0.
<mgrwt>
<rscale>  0 0.21915468E+03</rscale>
<asrwt>0</asrwt>
<pdfrwt beam="1">  1        1 0.10234152E+00 0.21915468E+03</pdfrwt>
<pdfrwt beam="2">  1       -1 0.23943826E-02 0.21915468E+03</pdfrwt>
<totfact> 0.15708486E+04</totfact>
</mgrwt>
</event>
<event>
 4    1  0.3352993E-004  0.2147020E+03  0.7818608E-02  0.1137896E+00
          1   -1    0    0  501    0  0.00000000000E+00  0.00000000000E+00  0.51288747843E+03  0.51288747846E+03  0.50400000000E-02 0.  1.
         -1   -1    0    0    0  501 -0.00000000000E+00 -0.00000000000E+00 -0.22469335248E+02  0.22469335813E+02  0.50400000000E-02 0. -1.
    5000001    1    1    2    0    0 -0.60511391779E+02  0.43326048471E+02  0.22647207018E+03  0.25051421833E+03  0.77000000000E+02 0.  0.
   -5000001    1    1    2    0    0  0.60511391779E+02 -0.43326048471E+02  0.26394607300E+03  0.28484259594E+03  0.77000000000E+02 0.  0.
<mgrwt>
<rscale>  0 0.21470203E+03</rscale>
<asrwt>0</asrwt>
<pdfrwt beam="1">  1        1 0.73269639E-01 0.21470203E+03</pdfrwt>
<pdfrwt beam="2">  1       -1 0.32099051E-02 0.21470203E+03</pdfrwt>
<totfact> 0.16082968E+04</totfact>
</mgrwt>
</event>
<event>
 4    1  0.3352993E-004  0.1781502E+03  0.7818608E-02  0.1169605E+00
         -1   -1    0    0    0  501 -0.00000000000E+00  0.00000000000E+00  0.27363007182E+03  0.27363007186E+03  0.50400000000E-02 0. -1.
          1   -1    0    0  501    0  0.00000000000E+00 -0.00000000000E+00 -0.28996728925E+02  0.28996729363E+02  0.50400000000E-02 0.  1.
    5000001    1    1    2    0    0 -0.61722519294E+01  0.27890697471E+02  0.63732134229E+02  0.10395562819E+03  0.77000000000E+02 0.  0.
   -5000001    1    1    2    0    0  0.61722519294E+01 -0.27890697471E+02  0.18090120866E+03  0.19867117303E+03  0.77000000000E+02 0.  0.
<mgrwt>
<rscale>  0 0.17815024E+03</rscale>
<asrwt>0</asrwt>
<pdfrwt beam="1">  1        1 0.41423900E-02 0.17815024E+03</pdfrwt>
<pdfrwt beam="2">  1       -1 0.39090009E-01 0.17815024E+03</pdfrwt>
<totfact> 0.13358252E+04</totfact>
</mgrwt>
</event>
<event>
 4    1  0.3352993E-004  0.3293973E+03  0.7818608E-02  0.1071404E+00
          1   -1    0    0  501    0  0.00000000000E+00  0.00000000000E+00  0.12226428588E+04  0.12226428588E+04  0.50400000000E-02 0.  1.
         -1   -1    0    0    0  501 -0.00000000000E+00 -0.00000000000E+00 -0.22186071458E+02  0.22186072031E+02  0.50400000000E-02 0. -1.
    5000001    1    1    2    0    0  0.86392648303E+02 -0.64529565080E+02  0.96990365876E+03  0.97891259147E+03  0.77000000000E+02 0.  0.
   -5000001    1    1    2    0    0 -0.86392648303E+02  0.64529565080E+02  0.23055312860E+03  0.26591633939E+03  0.77000000000E+02 0.  0.
<mgrwt>
<rscale>  0 0.32939728E+03</rscale>
<asrwt>0</asrwt>
<pdfrwt beam="1">  1        1 0.17466327E+00 0.32939728E+03</pdfrwt>
<pdfrwt beam="2">  1       -1 0.31694387E-02 0.32939728E+03</pdfrwt>
<totfact> 0.44392684E+03</totfact>
</mgrwt>
</event>
<event>
 4    1  0.3352993E-004  0.3663280E+03  0.7818608E-02  0.1056106E+00
         -1   -1    0    0    0  501 -0.00000000000E+00  0.00000000000E+00  0.53591289140E+02  0.53591289377E+02  0.50400000000E-02 0. -1.
          1   -1    0    0  501    0  0.00000000000E+00 -0.00000000000E+00 -0.62601682813E+03  0.62601682815E+03  0.50400000000E-02 0.  1.
    5000001    1    1    2    0    0  0.13240570193E+03  0.84012820432E+02 -0.38834305792E+03  0.42582714161E+03  0.77000000000E+02 0.  0.
   -5000001    1    1    2    0    0 -0.13240570193E+03 -0.84012820432E+02 -0.18408248107E+03  0.25378097591E+03  0.77000000000E+02 0.  0.
<mgrwt>
<rscale>  0 0.36632799E+03</rscale>
<asrwt>0</asrwt>
<pdfrwt beam="1">  1        1 0.89430971E-01 0.36632799E+03</pdfrwt>
<pdfrwt beam="2">  1       -1 0.76558988E-02 0.36632799E+03</pdfrwt>
<totfact> 0.34008043E+03</totfact>
</mgrwt>
</event>
<event>
 4    1  0.3352993E-004  0.2889274E+03  0.7818608E-02  0.1090910E+00
          1   -1    0    0  501    0  0.00000000000E+00  0.00000000000E+00  0.38222431243E+04  0.38222431243E+04  0.50400000000E-02 0.  1.
         -1   -1    0    0    0  501 -0.00000000000E+00 -0.00000000000E+00 -0.54600819740E+01  0.54600843001E+01  0.50400000000E-02 0. -1.
    5000001    1    1    2    0    0  0.17197819310E+02 -0.77799412508E+02  0.31364045459E+04  0.31383611948E+04  0.77000000000E+02 0.  0.
   -5000001    1    1    2    0    0 -0.17197819310E+02  0.77799412508E+02  0.68037849643E+03  0.68934201379E+03  0.77000000000E+02 0.  0.
<mgrwt>
<rscale>  0 0.28892743E+03</rscale>
<asrwt>0</asrwt>
<pdfrwt beam="1">  1        1 0.54603430E+00 0.28892743E+03</pdfrwt>
<pdfrwt beam="2">  1       -1 0.78001250E-03 0.28892743E+03</pdfrwt>
<totfact> 0.77386926E+02</totfact>
</mgrwt>
</event>
<event>
 4    1  0.3352993E-004  0.1938820E+03  0.7818608E-02  0.1155006E+00
          1   -1    0    0  501    0  0.00000000000E+00  0.00000000000E+00  0.28240240798E+03  0.28240240802E+03  0.50400000000E-02 0.  1.
         -1   -1    0    0    0  501 -0.00000000000E+00 -0.00000000000E+00 -0.33277183001E+02  0.33277183382E+02  0.50400000000E-02 0. -1.
    5000001    1    1    2    0    0  0.21888879826E+02  0.50050236755E+02  0.88727033476E+02  0.12955939074E+03  0.77000000000E+02 0.  0.
   -5000001    1    1    2    0    0 -0.21888879826E+02 -0.50050236755E+02  0.16039819150E+03  0.18612020067E+03  0.77000000000E+02 0.  0.
<mgrwt>
<rscale>  0 0.19388199E+03</rscale>
<asrwt>0</asrwt>
<pdfrwt beam="1">  1        1 0.40343201E-01 0.19388199E+03</pdfrwt>
<pdfrwt beam="2">  1       -1 0.47538833E-02 0.19388199E+03</pdfrwt>
<totfact> 0.19018158E+04</totfact>
</mgrwt>
</event>
<event>
 4    1  0.3352993E-004  0.2013367E+03  0.7818608E-02  0.1148616E+00
         -1   -1    0    0    0  501 -0.00000000000E+00  0.00000000000E+00  0.39419314389E+01  0.39419346609E+01  0.50400000000E-02 0. -1.
          1   -1    0    0  501    0  0.00000000000E+00 -0.00000000000E+00 -0.25708496694E+04  0.25708496694E+04  0.50400000000E-02 0.  1.
    5000001    1    1    2    0    0  0.22106791199E+02  0.60378589371E+02 -0.13910847767E+04  0.13946971500E+04  0.77000000000E+02 0.  0.
   -5000001    1    1    2    0    0 -0.22106791199E+02 -0.60378589371E+02 -0.11758229613E+04  0.11800944541E+04  0.77000000000E+02 0.  0.
<mgrwt>
<rscale>  0 0.20133671E+03</rscale>
<asrwt>0</asrwt>
<pdfrwt beam="1">  1        1 0.36726316E+00 0.20133671E+03</pdfrwt>
<pdfrwt beam="2">  1       -1 0.56313494E-03 0.20133671E+03</pdfrwt>
<totfact> 0.80714284E+03</totfact>
</mgrwt>
</event>
<event>
 4    1  0.3352993E-004  0.1790519E+03  0.7818608E-02  0.1168724E+00
          1   -1    0    0  501    0  0.00000000000E+00  0.00000000000E+00  0.19420931017E+04  0.19420931017E+04  0.50400000000E-02 0.  1.
         -1   -1    0    0    0  501 -0.00000000000E+00 -0.00000000000E+00 -0.41269348701E+01  0.41269379476E+01  0.50400000000E-02 0. -1.
    5000001    1    1    2    0    0  0.31277477726E+02 -0.26732103250E+02  0.11844666538E+04  0.11876797295E+04  0.77000000000E+02 0.  0.
   -5000001    1    1    2    0    0 -0.31277477726E+02  0.26732103250E+02  0.75349951309E+03  0.75854031019E+03  0.77000000000E+02 0.  0.
<mgrwt>
<rscale>  0 0.17905189E+03</rscale>
<asrwt>0</asrwt>
<pdfrwt beam="1">  1        1 0.27744233E+00 0.17905189E+03</pdfrwt>
<pdfrwt beam="2">  1       -1 0.58956137E-03 0.17905189E+03</pdfrwt>
<totfact> 0.17926797E+04</totfact>
</mgrwt>
</event>
<event>
 4    1  0.3352993E-004  0.1970481E+03  0.7818608E-02  0.1152254E+00
         -1   -1    0    0    0  501 -0.00000000000E+00  0.00000000000E+00  0.42573469732E+02  0.42573470030E+02  0.50400000000E-02 0.  1.
          1   -1    0    0  501    0  0.00000000000E+00 -0.00000000000E+00 -0.22800549597E+03  0.22800549603E+03  0.50400000000E-02 0. -1.
    5000001    1    1    2    0    0  0.21961989570E+02  0.57186124115E+02 -0.85795036703E+02  0.13054642891E+03  0.77000000000E+02 0.  0.
   -5000001    1    1    2    0    0 -0.21961989570E+02 -0.57186124115E+02 -0.99636989540E+02  0.14003253715E+03  0.77000000000E+02 0.  0.
<mgrwt>
<rscale>  0 0.19704807E+03</rscale>
<asrwt>0</asrwt>
<pdfrwt beam="1">  1        1 0.32572213E-01 0.19704807E+03</pdfrwt>
<pdfrwt beam="2">  1       -1 0.60819244E-02 0.19704807E+03</pdfrwt>
<totfact> 0.17213138E+04</totfact>
</mgrwt>
</event>
<event>
 4    1  0.3352993E-004  0.2451308E+03  0.7818608E-02  0.1116421E+00
          1   -1    0    0  501    0  0.00000000000E+00  0.00000000000E+00  0.14731499570E+04  0.14731499570E+04  0.50400000000E-02 0.  1.
         -1   -1    0    0    0  501 -0.00000000000E+00 -0.00000000000E+00 -0.10197381419E+02  0.10197382665E+02  0.50400000000E-02 0. -1.
    5000001    1    1    2    0    0  0.77905224338E+02  0.52347224721E+02  0.62953168198E+03  0.64113071563E+03  0.77000000000E+02 0.  0.
   -5000001    1    1    2    0    0 -0.77905224338E+02 -0.52347224721E+02  0.83342089361E+03  0.84221662404E+03  0.77000000000E+02 0.  0.
<mgrwt>
<rscale>  0 0.24513076E+03</rscale>
<asrwt>0</asrwt>
<pdfrwt beam="1">  1        1 0.21045000E+00 0.24513076E+03</pdfrwt>
<pdfrwt beam="2">  1       -1 0.14567688E-02 0.24513076E+03</pdfrwt>
<totfact> 0.95249146E+03</totfact>
</mgrwt>
</event>
<event>
 4    1  0.3352993E-004  0.2988883E+03  0.7818608E-02  0.1085798E+00
         -1   -1    0    0    0  501 -0.00000000000E+00  0.00000000000E+00  0.28738536951E+03  0.28738536956E+03  0.50400000000E-02 0.  1.
          1   -1    0    0  501    0  0.00000000000E+00 -0.00000000000E+00 -0.77712910817E+02  0.77712910980E+02  0.50400000000E-02 0. -1.
    5000001    1    1    2    0    0  0.88241618932E+02  0.91383609432E+02  0.12479627752E+03  0.19401200547E+03  0.77000000000E+02 0.  0.
   -5000001    1    1    2    0    0 -0.88241618932E+02 -0.91383609432E+02  0.84876181173E+02  0.17108627506E+03  0.77000000000E+02 0.  0.
<mgrwt>
<rscale>  0 0.29888830E+03</rscale>
<asrwt>0</asrwt>
<pdfrwt beam="1">  1        1 0.11101844E-01 0.29888830E+03</pdfrwt>
<pdfrwt beam="2">  1       -1 0.41055054E-01 0.29888830E+03</pdfrwt>
<totfact> 0.32786744E+03</totfact>
</mgrwt>
</event>
<event>
 4    1  0.3352993E-004  0.2169266E+03  0.7818608E-02  0.1136195E+00
          1   -1    0    0  501    0  0.00000000000E+00  0.00000000000E+00  0.22230329132E+03  0.22230329137E+03  0.50400000000E-02 0.  1.
         -1   -1    0    0    0  501 -0.00000000000E+00 -0.00000000000E+00 -0.52919971475E+02  0.52919971715E+02  0.50400000000E-02 0. -1.
    5000001    1    1    2    0    0  0.64313170772E+02  0.41108690004E+02  0.88534819274E+02  0.13997686435E+03  0.77000000000E+02 0.  0.
   -5000001    1    1    2    0    0 -0.64313170772E+02 -0.41108690004E+02  0.80848500568E+02  0.13524639874E+03  0.77000000000E+02 0.  0.
<mgrwt>
<rscale>  0 0.21692657E+03</rscale>
<asrwt>0</asrwt>
<pdfrwt beam="1">  1        1 0.31757613E-01 0.21692657E+03</pdfrwt>
<pdfrwt beam="2">  1       -1 0.75599958E-02 0.21692657E+03</pdfrwt>
<totfact> 0.12879676E+04</totfact>
</mgrwt>
</event>
<event>
 4    1  0.3352993E-004  0.3001860E+03  0.7818608E-02  0.1085148E+00
         -1   -1    0    0    0  501 -0.00000000000E+00  0.00000000000E+00  0.53462700967E+02  0.53462701205E+02  0.50400000000E-02 0. -1.
          1   -1    0    0  501    0  0.00000000000E+00 -0.00000000000E+00 -0.42137609987E+03  0.42137609990E+03  0.50400000000E-02 0.  1.
    5000001    1    1    2    0    0  0.42485808486E+02 -0.99855149710E+02 -0.74105231150E+02  0.15230456372E+03  0.77000000000E+02 0.  0.
   -5000001    1    1    2    0    0 -0.42485808486E+02  0.99855149710E+02 -0.29380816775E+03  0.32253423738E+03  0.77000000000E+02 0.  0.
<mgrwt>
<rscale>  0 0.30018597E+03</rscale>
<asrwt>0</asrwt>
<pdfrwt beam="1">  1        1 0.60196584E-01 0.30018597E+03</pdfrwt>
<pdfrwt beam="2">  1       -1 0.76375290E-02 0.30018597E+03</pdfrwt>
<totfact> 0.57525478E+03</totfact>
</mgrwt>
</event>
<event>
 4    1  0.3352993E-004  0.3072488E+03  0.7818608E-02  0.1081672E+00
         -1   -1    0    0    0  501 -0.00000000000E+00  0.00000000000E+00  0.92756306689E+02  0.92756306826E+02  0.50400000000E-02 0.  1.
          1   -1    0    0  501    0  0.00000000000E+00 -0.00000000000E+00 -0.25443503289E+03  0.25443503294E+03  0.50400000000E-02 0. -1.
    5000001    1    1    2    0    0  0.10120489331E+03 -0.83984492598E+02 -0.10274006357E+03  0.18379430375E+03  0.77000000000E+02 0.  0.
   -5000001    1    1    2    0    0 -0.10120489331E+03  0.83984492598E+02 -0.58938662632E+02  0.16339703602E+03  0.77000000000E+02 0.  0.
<mgrwt>
<rscale>  0 0.30724879E+03</rscale>
<asrwt>0</asrwt>
<pdfrwt beam="1">  1        1 0.36347862E-01 0.30724879E+03</pdfrwt>
<pdfrwt beam="2">  1       -1 0.13250901E-01 0.30724879E+03</pdfrwt>
<totfact> 0.46385305E+03</totfact>
</mgrwt>
</event>
<event>
 4    1  0.3352993E-004  0.1902493E+03  0.7818608E-02  0.1158237E+00
         -1   -1    0    0    0  501 -0.00000000000E+00  0.00000000000E+00  0.10470845426E+02  0.10470846638E+02  0.50400000000E-02 0. -1.
          1   -1    0    0  501    0  0.00000000000E+00 -0.00000000000E+00 -0.86418073178E+03  0.86418073180E+03  0.50400000000E-02 0.  1.
    5000001    1    1    2    0    0 -0.66031048631E+01  0.43404179795E+02 -0.58559361849E+03  0.59226380088E+03  0.77000000000E+02 0.  0.
   -5000001    1    1    2    0    0  0.66031048631E+01 -0.43404179795E+02 -0.26811626787E+03  0.28238777756E+03  0.77000000000E+02 0.  0.
<mgrwt>
<rscale>  0 0.19024935E+03</rscale>
<asrwt>0</asrwt>
<pdfrwt beam="1">  1        1 0.12345434E+00 0.19024935E+03</pdfrwt>
<pdfrwt beam="2">  1       -1 0.14958357E-02 0.19024935E+03</pdfrwt>
<totfact> 0.23392711E+04</totfact>
</mgrwt>
</event>
<event>
 4    1  0.3352993E-004  0.2234286E+03  0.7818608E-02  0.1131352E+00
         -1   -1    0    0    0  501 -0.00000000000E+00  0.00000000000E+00  0.12159473923E+03  0.12159473934E+03  0.50400000000E-02 0. -1.
          1   -1    0    0  501    0  0.00000000000E+00 -0.00000000000E+00 -0.10263673337E+03  0.10263673349E+03  0.50400000000E-02 0.  1.
    5000001    1    1    2    0    0 -0.64602137192E+02  0.17658791743E+02  0.55093593135E+02  0.11597229436E+03  0.77000000000E+02 0.  0.
   -5000001    1    1    2    0    0  0.64602137192E+02 -0.17658791743E+02 -0.36135587272E+02  0.10825917847E+03  0.77000000000E+02 0.  0.
<mgrwt>
<rscale>  0 0.22342862E+03</rscale>
<asrwt>0</asrwt>
<pdfrwt beam="1">  1        1 0.14662391E-01 0.22342862E+03</pdfrwt>
<pdfrwt beam="2">  1       -1 0.17370677E-01 0.22342862E+03</pdfrwt>
<totfact> 0.95164513E+03</totfact>
</mgrwt>
</event>
<event>
 4    1  0.3352993E-004  0.2480997E+03  0.7818608E-02  0.1114512E+00
          1   -1    0    0  501    0  0.00000000000E+00  0.00000000000E+00  0.32580550190E+02  0.32580550580E+02  0.50400000000E-02 0.  1.
         -1   -1    0    0    0  501 -0.00000000000E+00 -0.00000000000E+00 -0.47231771952E+03  0.47231771954E+03  0.50400000000E-02 0. -1.
    5000001    1    1    2    0    0  0.61102166272E+02 -0.36761700640E+02 -0.35446716358E+03  0.36967670662E+03  0.77000000000E+02 0.  0.
   -5000001    1    1    2    0    0 -0.61102166272E+02  0.36761700640E+02 -0.85270005742E+02  0.13522156350E+03  0.77000000000E+02 0.  0.
<mgrwt>
<rscale>  0 0.24809975E+03</rscale>
<asrwt>0</asrwt>
<pdfrwt beam="1">  1        1 0.46543646E-02 0.24809975E+03</pdfrwt>
<pdfrwt beam="2">  1       -1 0.67473956E-01 0.24809975E+03</pdfrwt>
<totfact> 0.42109416E+03</totfact>
</mgrwt>
</event>
<event>
 4    1  0.3352993E-004  0.1637230E+03  0.7818608E-02  0.1184556E+00
         -1   -1    0    0    0  501 -0.00000000000E+00  0.00000000000E+00  0.25841499007E+03  0.25841499012E+03  0.50400000000E-02 0. -1.
          1   -1    0    0  501    0  0.00000000000E+00 -0.00000000000E+00 -0.25932341299E+02  0.25932341789E+02  0.50400000000E-02 0.  1.
    5000001    1    1    2    0    0 -0.18345196403E+02  0.43757229120E+01  0.15169046011E+03  0.17115691301E+03  0.77000000000E+02 0.  0.
   -5000001    1    1    2    0    0  0.18345196403E+02 -0.43757229120E+01  0.80792188659E+02  0.11319041890E+03  0.77000000000E+02 0.  0.
<mgrwt>
<rscale>  0 0.16372301E+03</rscale>
<asrwt>0</asrwt>
<pdfrwt beam="1">  1        1 0.37046201E-02 0.16372301E+03</pdfrwt>
<pdfrwt beam="2">  1       -1 0.36916428E-01 0.16372301E+03</pdfrwt>
<totfact> 0.17102493E+04</totfact>
</mgrwt>
</event>
<event>
 4    1  0.3352993E-004  0.2204724E+03  0.7818608E-02  0.1133531E+00
          1   -1    0    0  501    0  0.00000000000E+00  0.00000000000E+00  0.19796902078E+04  0.19796902078E+04  0.50400000000E-02 0.  1.
         -1   -1    0    0    0  501 -0.00000000000E+00 -0.00000000000E+00 -0.61383447933E+01  0.61383468624E+01  0.50400000000E-02 0. -1.
    5000001    1    1    2    0    0  0.61473034302E+02 -0.28405406991E+02  0.62232316282E+03  0.63071461064E+03  0.77000000000E+02 0.  0.
   -5000001    1    1    2    0    0 -0.61473034302E+02  0.28405406991E+02  0.13512287002E+04  0.13551139440E+04  0.77000000000E+02 0.  0.
<mgrwt>
<rscale>  0 0.22047243E+03</rscale>
<asrwt>0</asrwt>
<pdfrwt beam="1">  1        1 0.28281299E+00 0.22047243E+03</pdfrwt>
<pdfrwt beam="2">  1       -1 0.87690622E-03 0.22047243E+03</pdfrwt>
<totfact> 0.97204030E+03</totfact>
</mgrwt>
</event>
<event>
 4    1  0.3352993E-004  0.2650083E+03  0.7818608E-02  0.1104171E+00
         -1   -1    0    0    0  501 -0.00000000000E+00  0.00000000000E+00  0.28270979504E+02  0.28270979953E+02  0.50400000000E-02 0.  1.
          1   -1    0    0  501    0  0.00000000000E+00 -0.00000000000E+00 -0.62103801590E+03  0.62103801592E+03  0.50400000000E-02 0. -1.
    5000001    1    1    2    0    0  0.49832040571E+02  0.95565428259E+02 -0.28776616920E+03  0.31678754945E+03  0.77000000000E+02 0.  0.
   -5000001    1    1    2    0    0 -0.49832040571E+02 -0.95565428259E+02 -0.30500086719E+03  0.33252144643E+03  0.77000000000E+02 0.  0.
<mgrwt>
<rscale>  0 0.26500833E+03</rscale>
<asrwt>0</asrwt>
<pdfrwt beam="1">  1        1 0.88719709E-01 0.26500833E+03</pdfrwt>
<pdfrwt beam="2">  1       -1 0.40387118E-02 0.26500833E+03</pdfrwt>
<totfact> 0.89579776E+03</totfact>
</mgrwt>
</event>
<event>
 4    1  0.3352993E-004  0.1991734E+03  0.7818608E-02  0.1150438E+00
          1   -1    0    0  501    0  0.00000000000E+00  0.00000000000E+00  0.45774541949E+02  0.45774542226E+02  0.50400000000E-02 0.  1.
         -1   -1    0    0    0  501 -0.00000000000E+00 -0.00000000000E+00 -0.21665986247E+03  0.21665986253E+03  0.50400000000E-02 0. -1.
    5000001    1    1    2    0    0 -0.11160178674E+00  0.54677347197E+02 -0.43799232519E+02  0.10410090067E+03  0.77000000000E+02 0.  0.
   -5000001    1    1    2    0    0  0.11160178674E+00 -0.54677347197E+02 -0.12708608800E+03  0.15833350408E+03  0.77000000000E+02 0.  0.
<mgrwt>
<rscale>  0 0.19917335E+03</rscale>
<asrwt>0</asrwt>
<pdfrwt beam="1">  1        1 0.65392204E-02 0.19917335E+03</pdfrwt>
<pdfrwt beam="2">  1       -1 0.30951408E-01 0.19917335E+03</pdfrwt>
<totfact> 0.10763821E+04</totfact>
</mgrwt>
</event>
<event>
 4    1  0.3352993E-004  0.2532751E+03  0.7818608E-02  0.1111252E+00
         -1   -1    0    0    0  501 -0.00000000000E+00  0.00000000000E+00  0.42025504383E+03  0.42025504386E+03  0.50400000000E-02 0. -1.
          1   -1    0    0  501    0  0.00000000000E+00 -0.00000000000E+00 -0.38160327476E+02  0.38160327809E+02  0.50400000000E-02 0.  1.
    5000001    1    1    2    0    0  0.30190261148E+02 -0.94063930455E+02  0.22484041076E+03  0.25737460091E+03  0.77000000000E+02 0.  0.
   -5000001    1    1    2    0    0 -0.30190261148E+02  0.94063930455E+02  0.15725430559E+03  0.20104077076E+03  0.77000000000E+02 0.  0.
<mgrwt>
<rscale>  0 0.25327511E+03</rscale>
<asrwt>0</asrwt>
<pdfrwt beam="1">  1        1 0.54514758E-02 0.25327511E+03</pdfrwt>
<pdfrwt beam="2">  1       -1 0.60036430E-01 0.25327511E+03</pdfrwt>
<totfact> 0.42521576E+03</totfact>
</mgrwt>
</event>
<event>
 4    1  0.3352993E-004  0.2583078E+03  0.7818608E-02  0.1108164E+00
         -1   -1    0    0    0  501 -0.00000000000E+00  0.00000000000E+00  0.61759612112E+02  0.61759612317E+02  0.50400000000E-02 0.  1.
          1   -1    0    0  501    0  0.00000000000E+00 -0.00000000000E+00 -0.27009127690E+03  0.27009127695E+03  0.50400000000E-02 0. -1.
    5000001    1    1    2    0    0  0.59866042733E+02 -0.82966728348E+02 -0.12582803472E+03  0.17952469303E+03  0.77000000000E+02 0.  0.
   -5000001    1    1    2    0    0 -0.59866042733E+02  0.82966728348E+02 -0.82503630067E+02  0.15232619623E+03  0.77000000000E+02 0.  0.
<mgrwt>
<rscale>  0 0.25830782E+03</rscale>
<asrwt>0</asrwt>
<pdfrwt beam="1">  1        1 0.38584468E-01 0.25830782E+03</pdfrwt>
<pdfrwt beam="2">  1       -1 0.88228019E-02 0.25830782E+03</pdfrwt>
<totfact> 0.80467245E+03</totfact>
</mgrwt>
</event>
<event>
 4    1  0.3352993E-004  0.2963593E+03  0.7818608E-02  0.1087075E+00
          1   -1    0    0  501    0  0.00000000000E+00  0.00000000000E+00  0.15425059392E+04  0.15425059392E+04  0.50400000000E-02 0.  1.
         -1   -1    0    0    0  501 -0.00000000000E+00 -0.00000000000E+00 -0.14234760764E+02  0.14234761656E+02  0.50400000000E-02 0. -1.
    5000001    1    1    2    0    0  0.88660423134E+02 -0.45363446308E+02  0.35354651754E+03  0.37529009174E+03  0.77000000000E+02 0.  0.
   -5000001    1    1    2    0    0 -0.88660423134E+02  0.45363446308E+02  0.11747246608E+04  0.11814506091E+04  0.77000000000E+02 0.  0.
<mgrwt>
<rscale>  0 0.29635927E+03</rscale>
<asrwt>0</asrwt>
<pdfrwt beam="1">  1        1 0.22035800E+00 0.29635927E+03</pdfrwt>
<pdfrwt beam="2">  1       -1 0.20335373E-02 0.29635927E+03</pdfrwt>
<totfact> 0.53206832E+03</totfact>
</mgrwt>
</event>
<event>
 4    1  0.3352993E-004  0.2312586E+03  0.7818608E-02  0.1125757E+00
         -1   -1    0    0    0  501 -0.00000000000E+00  0.00000000000E+00  0.36192200163E+02  0.36192200514E+02  0.50400000000E-02 0. -1.
          1   -1    0    0  501    0  0.00000000000E+00 -0.00000000000E+00 -0.36942029769E+03  0.36942029772E+03  0.50400000000E-02 0.  1.
    5000001    1    1    2    0    0  0.76054298876E+02 -0.40350579598E+02 -0.17601156978E+03  0.21052671647E+03  0.77000000000E+02 0.  0.
   -5000001    1    1    2    0    0 -0.76054298876E+02  0.40350579598E+02 -0.15721652775E+03  0.19508578177E+03  0.77000000000E+02 0.  0.
<mgrwt>
<rscale>  0 0.23125859E+03</rscale>
<asrwt>0</asrwt>
<pdfrwt beam="1">  1        1 0.52774326E-01 0.23125859E+03</pdfrwt>
<pdfrwt beam="2">  1       -1 0.51703145E-02 0.23125859E+03</pdfrwt>
<totfact> 0.12128576E+04</totfact>
</mgrwt>
</event>
<event>
 4    1  0.3352993E-004  0.2611735E+03  0.7818608E-02  0.1106440E+00
         -1   -1    0    0    0  501 -0.00000000000E+00  0.00000000000E+00  0.25881427691E+03  0.25881427696E+03  0.50400000000E-02 0. -1.
          1   -1    0    0  501    0  0.00000000000E+00 -0.00000000000E+00 -0.65888570733E+02  0.65888570926E+02  0.50400000000E-02 0.  1.
    5000001    1    1    2    0    0 -0.67044728441E+02  0.72374422139E+02  0.50097120293E+02  0.13480272272E+03  0.77000000000E+02 0.  0.
   -5000001    1    1    2    0    0  0.67044728441E+02 -0.72374422139E+02  0.14282858589E+03  0.18990012517E+03  0.77000000000E+02 0.  0.
<mgrwt>
<rscale>  0 0.26117353E+03</rscale>
<asrwt>0</asrwt>
<pdfrwt beam="1">  1        1 0.94126529E-02 0.26117353E+03</pdfrwt>
<pdfrwt beam="2">  1       -1 0.36973469E-01 0.26117353E+03</pdfrwt>
<totfact> 0.49043346E+03</totfact>
</mgrwt>
</event>
<event>
 4    1  0.3352993E-004  0.2344743E+03  0.7818608E-02  0.1123530E+00
         -1   -1    0    0    0  501 -0.00000000000E+00  0.00000000000E+00  0.59017843128E+02  0.59017843343E+02  0.50400000000E-02 0. -1.
          1   -1    0    0  501    0  0.00000000000E+00 -0.00000000000E+00 -0.23288810087E+03  0.23288810092E+03  0.50400000000E-02 0.  1.
    5000001    1    1    2    0    0  0.32619944770E+01 -0.85432455689E+02 -0.11494507531E+03  0.16263675916E+03  0.77000000000E+02 0.  0.
   -5000001    1    1    2    0    0 -0.32619944770E+01  0.85432455689E+02 -0.58925182435E+02  0.12926918511E+03  0.77000000000E+02 0.  0.
<mgrwt>
<rscale>  0 0.23447433E+03</rscale>
<asrwt>0</asrwt>
<pdfrwt beam="1">  1        1 0.33269728E-01 0.23447433E+03</pdfrwt>
<pdfrwt beam="2">  1       -1 0.84311206E-02 0.23447433E+03</pdfrwt>
<totfact> 0.10338930E+04</totfact>
</mgrwt>
</event>
<event>
 4    1  0.3352993E-004  0.2520301E+03  0.7818608E-02  0.1112029E+00
         -1   -1    0    0    0  501 -0.00000000000E+00  0.00000000000E+00  0.77780070305E+02  0.77780070468E+02  0.50400000000E-02 0.  1.
          1   -1    0    0  501    0  0.00000000000E+00 -0.00000000000E+00 -0.20416272532E+03  0.20416272538E+03  0.50400000000E-02 0. -1.
    5000001    1    1    2    0    0 -0.94918530377E+02  0.30667007722E+02 -0.64190903637E+02  0.14141946429E+03  0.77000000000E+02 0.  0.
   -5000001    1    1    2    0    0  0.94918530377E+02 -0.30667007722E+02 -0.62191751374E+02  0.14052333155E+03  0.77000000000E+02 0.  0.
<mgrwt>
<rscale>  0 0.25203009E+03</rscale>
<asrwt>0</asrwt>
<pdfrwt beam="1">  1        1 0.29166104E-01 0.25203009E+03</pdfrwt>
<pdfrwt beam="2">  1       -1 0.11111439E-01 0.25203009E+03</pdfrwt>
<totfact> 0.80043359E+03</totfact>
</mgrwt>
</event>
<event>
 4    1  0.3352993E-004  0.1862129E+03  0.7818608E-02  0.1161922E+00
         -1   -1    0    0    0  501 -0.00000000000E+00  0.00000000000E+00  0.38686034763E+02  0.38686035091E+02  0.50400000000E-02 0.  1.
          1   -1    0    0  501    0  0.00000000000E+00 -0.00000000000E+00 -0.22408116527E+03  0.22408116533E+03  0.50400000000E-02 0. -1.
    5000001    1    1    2    0    0  0.30394337250E+02  0.42609737651E+02 -0.93597053883E+02  0.13201823350E+03  0.77000000000E+02 0.  0.
   -5000001    1    1    2    0    0 -0.30394337250E+02 -0.42609737651E+02 -0.91798076628E+02  0.13074896693E+03  0.77000000000E+02 0.  0.
<mgrwt>
<rscale>  0 0.18621291E+03</rscale>
<asrwt>0</asrwt>
<pdfrwt beam="1">  1        1 0.32011594E-01 0.18621291E+03</pdfrwt>
<pdfrwt beam="2">  1       -1 0.55265765E-02 0.18621291E+03</pdfrwt>
<totfact> 0.20212946E+04</totfact>
</mgrwt>
</event>
<event>
 4    1  0.3352993E-004  0.2190549E+03  0.7818608E-02  0.1134590E+00
          1   -1    0    0  501    0  0.00000000000E+00  0.00000000000E+00  0.15308006045E+03  0.15308006053E+03  0.50400000000E-02 0.  1.
         -1   -1    0    0    0  501 -0.00000000000E+00 -0.00000000000E+00 -0.78365921843E+02  0.78365922005E+02  0.50400000000E-02 0. -1.
    5000001    1    1    2    0    0 -0.87942913797E+01 -0.26403483743E+01  0.11908196368E+03  0.14210497906E+03  0.77000000000E+02 0.  0.
   -5000001    1    1    2    0    0  0.87942913797E+01  0.26403483743E+01 -0.44367825073E+02  0.89341003476E+02  0.77000000000E+02 0.  0.
<mgrwt>
<rscale>  0 0.21905488E+03</rscale>
<asrwt>0</asrwt>
<pdfrwt beam="1">  1        1 0.21868580E-01 0.21905488E+03</pdfrwt>
<pdfrwt beam="2">  1       -1 0.11195132E-01 0.21905488E+03</pdfrwt>
<totfact> 0.11315481E+04</totfact>
</mgrwt>
</event>
<event>
 4    1  0.3352993E-004  0.2099530E+03  0.7818608E-02  0.1141603E+00
         -1   -1    0    0    0  501 -0.00000000000E+00  0.00000000000E+00  0.35546672024E+02  0.35546672381E+02  0.50400000000E-02 0. -1.
          1   -1    0    0  501    0  0.00000000000E+00 -0.00000000000E+00 -0.31001667334E+03  0.31001667338E+03  0.50400000000E-02 0.  1.
    5000001    1    1    2    0    0  0.26069129963E+02  0.25909825751E+02 -0.36576664675E+02  0.92831950352E+02  0.77000000000E+02 0.  0.
   -5000001    1    1    2    0    0 -0.26069129963E+02 -0.25909825751E+02 -0.23789333664E+03  0.25273139541E+03  0.77000000000E+02 0.  0.
<mgrwt>
<rscale>  0 0.20995296E+03</rscale>
<asrwt>0</asrwt>
<pdfrwt beam="1">  1        1 0.44288095E-01 0.20995296E+03</pdfrwt>
<pdfrwt beam="2">  1       -1 0.50780962E-02 0.20995296E+03</pdfrwt>
<totfact> 0.15431534E+04</totfact>
</mgrwt>
</event>
<event>
 4    1  0.3352993E-004  0.2555945E+03  0.7818608E-02  0.1109819E+00
         -1   -1    0    0    0  501 -0.00000000000E+00  0.00000000000E+00  0.19357400481E+03  0.19357400488E+03  0.50400000000E-02 0.  1.
          1   -1    0    0  501    0  0.00000000000E+00 -0.00000000000E+00 -0.84371530638E+02  0.84371530788E+02  0.50400000000E-02 0. -1.
    5000001    1    1    2    0    0 -0.74557193756E+01  0.96521616766E+02  0.89520402286E+02  0.15269221552E+03  0.77000000000E+02 0.  0.
   -5000001    1    1    2    0    0  0.74557193756E+01 -0.96521616766E+02  0.19682071891E+02  0.12525332015E+03  0.77000000000E+02 0.  0.
<mgrwt>
<rscale>  0 0.25559448E+03</rscale>
<asrwt>0</asrwt>
<pdfrwt beam="1">  1        1 0.12053076E-01 0.25559448E+03</pdfrwt>
<pdfrwt beam="2">  1       -1 0.27653430E-01 0.25559448E+03</pdfrwt>
<totfact> 0.57922182E+03</totfact>
</mgrwt>
</event>
<event>
 4    1  0.3352993E-004  0.2352250E+03  0.7818608E-02  0.1123015E+00
          1   -1    0    0  501    0  0.00000000000E+00  0.00000000000E+00  0.97017460588E+01  0.97017473680E+01  0.50400000000E-02 0.  1.
         -1   -1    0    0    0  501 -0.00000000000E+00 -0.00000000000E+00 -0.14257950265E+04  0.14257950265E+04  0.50400000000E-02 0. -1.
    5000001    1    1    2    0    0 -0.64582872643E+02  0.14846737974E+02 -0.10697198294E+04  0.10745328689E+04  0.77000000000E+02 0.  0.
   -5000001    1    1    2    0    0  0.64582872643E+02 -0.14846737974E+02 -0.34637345111E+03  0.36096390498E+03  0.77000000000E+02 0.  0.
<mgrwt>
<rscale>  0 0.23522502E+03</rscale>
<asrwt>0</asrwt>
<pdfrwt beam="1">  1        1 0.13859647E-02 0.23522502E+03</pdfrwt>
<pdfrwt beam="2">  1       -1 0.20368487E+00 0.23522502E+03</pdfrwt>
<totfact> 0.15999397E+03</totfact>
</mgrwt>
</event>
<event>
 4    1  0.3352993E-004  0.4448162E+03  0.7818608E-02  0.1029279E+00
         -1   -1    0    0    0  501 -0.00000000000E+00  0.00000000000E+00  0.42709977804E+03  0.42709977807E+03  0.50400000000E-02 0. -1.
          1   -1    0    0  501    0  0.00000000000E+00 -0.00000000000E+00 -0.11581685844E+03  0.11581685855E+03  0.50400000000E-02 0.  1.
    5000001    1    1    2    0    0  0.75349225212E+02  0.10747071746E+03 -0.42330592075E+02  0.15795043487E+03  0.77000000000E+02 0.  0.
   -5000001    1    1    2    0    0 -0.75349225212E+02 -0.10747071746E+03  0.35361351167E+03  0.38496620175E+03  0.77000000000E+02 0.  0.
<mgrwt>
<rscale>  0 0.44481616E+03</rscale>
<asrwt>0</asrwt>
<pdfrwt beam="1">  1        1 0.16545265E-01 0.44481616E+03</pdfrwt>
<pdfrwt beam="2">  1       -1 0.61014254E-01 0.44481616E+03</pdfrwt>
<totfact> 0.92466356E+02</totfact>
</mgrwt>
</event>
<event>
 4    1  0.3352993E-004  0.2021097E+03  0.7818608E-02  0.1147971E+00
         -1   -1    0    0    0  501 -0.00000000000E+00  0.00000000000E+00  0.29001040221E+03  0.29001040225E+03  0.50400000000E-02 0. -1.
          1   -1    0    0  501    0  0.00000000000E+00 -0.00000000000E+00 -0.35212826579E+02  0.35212826939E+02  0.50400000000E-02 0.  1.
    5000001    1    1    2    0    0 -0.12847148031E+02  0.29242901103E+02  0.21931571935E+03  0.23462434067E+03  0.77000000000E+02 0.  0.
   -5000001    1    1    2    0    0  0.12847148031E+02 -0.29242901103E+02  0.35481856279E+02  0.90598888528E+02  0.77000000000E+02 0.  0.
<mgrwt>
<rscale>  0 0.20210973E+03</rscale>
<asrwt>0</asrwt>
<pdfrwt beam="1">  1        1 0.50304040E-02 0.20210973E+03</pdfrwt>
<pdfrwt beam="2">  1       -1 0.41430056E-01 0.20210973E+03</pdfrwt>
<totfact> 0.93063146E+03</totfact>
</mgrwt>
</event>
<event>
 4    1  0.3352993E-004  0.2676796E+03  0.7818608E-02  0.1102615E+00
         -1   -1    0    0    0  501 -0.00000000000E+00  0.00000000000E+00  0.20073794793E+02  0.20073795425E+02  0.50400000000E-02 0.  1.
          1   -1    0    0  501    0  0.00000000000E+00 -0.00000000000E+00 -0.89236182175E+03  0.89236182177E+03  0.50400000000E-02 0. -1.
    5000001    1    1    2    0    0  0.40897208295E+02 -0.98870018282E+02 -0.35721057452E+03  0.38075747755E+03  0.77000000000E+02 0.  0.
   -5000001    1    1    2    0    0 -0.40897208295E+02  0.98870018282E+02 -0.51507745244E+03  0.53167813964E+03  0.77000000000E+02 0.  0.
<mgrwt>
<rscale>  0 0.26767957E+03</rscale>
<asrwt>0</asrwt>
<pdfrwt beam="1">  1        1 0.12748024E+00 0.26767957E+03</pdfrwt>
<pdfrwt beam="2">  1       -1 0.28676856E-02 0.26767957E+03</pdfrwt>
<totfact> 0.87698505E+03</totfact>
</mgrwt>
</event>
<event>
 4    1  0.3352993E-004  0.2382374E+03  0.7818608E-02  0.1120973E+00
          1   -1    0    0  501    0  0.00000000000E+00  0.00000000000E+00  0.55692361093E+03  0.55692361095E+03  0.50400000000E-02 0. -1.
         -1   -1    0    0    0  501 -0.00000000000E+00 -0.00000000000E+00 -0.25477945066E+02  0.25477945565E+02  0.50400000000E-02 0.  1.
    5000001    1    1    2    0    0  0.53038243010E+02  0.69368126295E+02  0.32733892250E+03  0.34742590915E+03  0.77000000000E+02 0.  0.
   -5000001    1    1    2    0    0 -0.53038243010E+02 -0.69368126295E+02  0.20410674336E+03  0.23497564736E+03  0.77000000000E+02 0.  0.
<mgrwt>
<rscale>  0 0.23823744E+03</rscale>
<asrwt>0</asrwt>
<pdfrwt beam="1">  1        1 0.79560511E-01 0.23823744E+03</pdfrwt>
<pdfrwt beam="2">  1       -1 0.36397067E-02 0.23823744E+03</pdfrwt>
<totfact> 0.12055142E+04</totfact>
</mgrwt>
</event>
<event>
 4    1  0.3352993E-004  0.2694215E+03  0.7818608E-02  0.1101611E+00
         -1   -1    0    0    0  501 -0.00000000000E+00  0.00000000000E+00  0.16175415429E+02  0.16175416215E+02  0.50400000000E-02 0. -1.
          1   -1    0    0  501    0  0.00000000000E+00 -0.00000000000E+00 -0.11218869461E+04  0.11218869461E+04  0.50400000000E-02 0.  1.
    5000001    1    1    2    0    0 -0.25904294507E+02  0.28062762187E+02 -0.99101155986E+03  0.99473185476E+03  0.77000000000E+02 0.  0.
   -5000001    1    1    2    0    0  0.25904294507E+02 -0.28062762187E+02 -0.11469997081E+03  0.14333050757E+03  0.77000000000E+02 0.  0.
<mgrwt>
<rscale>  0 0.26942151E+03</rscale>
<asrwt>0</asrwt>
<pdfrwt beam="1">  1        1 0.16026951E+00 0.26942151E+03</pdfrwt>
<pdfrwt beam="2">  1       -1 0.23107744E-02 0.26942151E+03</pdfrwt>
<totfact> 0.82430755E+03</totfact>
</mgrwt>
</event>
<event>
 4    1  0.3352993E-004  0.1914410E+03  0.7818608E-02  0.1157168E+00
         -1   -1    0    0    0  501 -0.00000000000E+00  0.00000000000E+00  0.33538077158E+01  0.33538115028E+01  0.50400000000E-02 0. -1.
          1   -1    0    0  501    0  0.00000000000E+00 -0.00000000000E+00 -0.27319424069E+04  0.27319424069E+04  0.50400000000E-02 0.  1.
    5000001    1    1    2    0    0  0.54168205427E+02  0.11486213535E+01 -0.16109012449E+04  0.16136503136E+04  0.77000000000E+02 0.  0.
   -5000001    1    1    2    0    0 -0.54168205427E+02 -0.11486213535E+01 -0.11176873543E+04  0.11216459048E+04  0.77000000000E+02 0.  0.
<mgrwt>
<rscale>  0 0.19144101E+03</rscale>
<asrwt>0</asrwt>
<pdfrwt beam="1">  1        1 0.39027606E+00 0.19144101E+03</pdfrwt>
<pdfrwt beam="2">  1       -1 0.47911741E-03 0.19144101E+03</pdfrwt>
<totfact> 0.80945450E+03</totfact>
</mgrwt>
</event>
<event>
 4    1  0.3352993E-004  0.2267439E+03  0.7818608E-02  0.1128953E+00
          1   -1    0    0  501    0  0.00000000000E+00  0.00000000000E+00  0.98092268216E+03  0.98092268217E+03  0.50400000000E-02 0.  1.
         -1   -1    0    0    0  501 -0.00000000000E+00 -0.00000000000E+00 -0.13103172711E+02  0.13103173680E+02  0.50400000000E-02 0. -1.
    5000001    1    1    2    0    0 -0.41457344686E+02  0.43047101765E+02  0.73773935483E+03  0.74415060308E+03  0.77000000000E+02 0.  0.
   -5000001    1    1    2    0    0  0.41457344686E+02 -0.43047101765E+02  0.23008015462E+03  0.24987525277E+03  0.77000000000E+02 0.  0.
<mgrwt>
<rscale>  0 0.22674391E+03</rscale>
<asrwt>0</asrwt>
<pdfrwt beam="1">  1        1 0.14013187E+00 0.22674391E+03</pdfrwt>
<pdfrwt beam="2">  1       -1 0.18718812E-02 0.22674391E+03</pdfrwt>
<totfact> 0.13985927E+04</totfact>
</mgrwt>
</event>
<event>
 4    1  0.3352993E-004  0.1898273E+03  0.7818608E-02  0.1158617E+00
         -1   -1    0    0    0  501 -0.00000000000E+00  0.00000000000E+00  0.10771763353E+03  0.10771763365E+03  0.50400000000E-02 0. -1.
          1   -1    0    0  501    0  0.00000000000E+00 -0.00000000000E+00 -0.83631612153E+02  0.83631612304E+02  0.50400000000E-02 0.  1.
    5000001    1    1    2    0    0 -0.34183174740E+02 -0.95391074368E+01  0.55047874934E+02  0.10108784566E+03  0.77000000000E+02 0.  0.
   -5000001    1    1    2    0    0  0.34183174740E+02  0.95391074368E+01 -0.30961853559E+02  0.90261400287E+02  0.77000000000E+02 0.  0.
<mgrwt>
<rscale>  0 0.18982728E+03</rscale>
<asrwt>0</asrwt>
<pdfrwt beam="1">  1        1 0.11947373E-01 0.18982728E+03</pdfrwt>
<pdfrwt beam="2">  1       -1 0.15388233E-01 0.18982728E+03</pdfrwt>
<totfact> 0.14941129E+04</totfact>
</mgrwt>
</event>
<event>
 4    1  0.3352993E-004  0.2458826E+03  0.7818608E-02  0.1115935E+00
          1   -1    0    0  501    0  0.00000000000E+00  0.00000000000E+00  0.35848299470E+03  0.35848299473E+03  0.50400000000E-02 0.  1.
         -1   -1    0    0    0  501 -0.00000000000E+00 -0.00000000000E+00 -0.42162570199E+02  0.42162570500E+02  0.50400000000E-02 0. -1.
    5000001    1    1    2    0    0  0.91874234162E+02  0.27018533828E+02  0.15191538950E+03  0.19539232748E+03  0.77000000000E+02 0.  0.
   -5000001    1    1    2    0    0 -0.91874234162E+02 -0.27018533828E+02  0.16440503500E+03  0.20525323775E+03  0.77000000000E+02 0.  0.
<mgrwt>
<rscale>  0 0.24588261E+03</rscale>
<asrwt>0</asrwt>
<pdfrwt beam="1">  1        1 0.51211855E-01 0.24588261E+03</pdfrwt>
<pdfrwt beam="2">  1       -1 0.60232245E-02 0.24588261E+03</pdfrwt>
<totfact> 0.10049343E+04</totfact>
</mgrwt>
</event>
<event>
 4    1  0.3352993E-004  0.2389279E+03  0.7818608E-02  0.1120509E+00
          1   -1    0    0  501    0  0.00000000000E+00  0.00000000000E+00  0.21006265114E+03  0.21006265120E+03  0.50400000000E-02 0.  1.
         -1   -1    0    0    0  501 -0.00000000000E+00 -0.00000000000E+00 -0.67939909836E+02  0.67939910023E+02  0.50400000000E-02 0. -1.
    5000001    1    1    2    0    0  0.34339027981E+02 -0.83627519003E+02  0.55894802452E+02  0.13124770367E+03  0.77000000000E+02 0.  0.
   -5000001    1    1    2    0    0 -0.34339027981E+02  0.83627519003E+02  0.86227938854E+02  0.14675485756E+03  0.77000000000E+02 0.  0.
<mgrwt>
<rscale>  0 0.23892792E+03</rscale>
<asrwt>0</asrwt>
<pdfrwt beam="1">  1        1 0.30008950E-01 0.23892792E+03</pdfrwt>
<pdfrwt beam="2">  1       -1 0.97057014E-02 0.23892792E+03</pdfrwt>
<totfact> 0.94935989E+03</totfact>
</mgrwt>
</event>
<event>
 4    1  0.3352993E-004  0.2182142E+03  0.7818608E-02  0.1135221E+00
          1   -1    0    0  501    0  0.00000000000E+00  0.00000000000E+00  0.14677270592E+03  0.14677270600E+03  0.50400000000E-02 0. -1.
         -1   -1    0    0    0  501 -0.00000000000E+00 -0.00000000000E+00 -0.81107446908E+02  0.81107447065E+02  0.50400000000E-02 0.  1.
    5000001    1    1    2    0    0 -0.70749367074E+02 -0.30672767922E+02  0.27202350420E+02  0.11231767226E+03  0.77000000000E+02 0.  0.
   -5000001    1    1    2    0    0  0.70749367074E+02  0.30672767922E+02  0.38462908588E+02  0.11556248081E+03  0.77000000000E+02 0.  0.
<mgrwt>
<rscale>  0 0.21821420E+03</rscale>
<asrwt>0</asrwt>
<pdfrwt beam="1">  1        1 0.20967530E-01 0.21821420E+03</pdfrwt>
<pdfrwt beam="2">  1       -1 0.11586778E-01 0.21821420E+03</pdfrwt>
<totfact> 0.11317813E+04</totfact>
</mgrwt>
</event>
<event>
 4    1  0.3352993E-004  0.6187808E+03  0.7818608E-02  0.9867190E-01
         -1   -1    0    0    0  501 -0.00000000000E+00  0.00000000000E+00  0.79674053235E+02  0.79674053395E+02  0.50400000000E-02 0. -1.
          1   -1    0    0  501    0  0.00000000000E+00 -0.00000000000E+00 -0.12014253390E+04  0.12014253390E+04  0.50400000000E-02 0.  1.
    5000001    1    1    2    0    0  0.24084131917E+03  0.87072456827E+02 -0.88299654886E+03  0.92260395569E+03  0.77000000000E+02 0.  0.
   -5000001    1    1    2    0    0 -0.24084131917E+03 -0.87072456827E+02 -0.23875473692E+03  0.35849543673E+03  0.77000000000E+02 0.  0.
<mgrwt>
<rscale>  0 0.61878082E+03</rscale>
<asrwt>0</asrwt>
<pdfrwt beam="1">  1        1 0.17163218E+00 0.61878082E+03</pdfrwt>
<pdfrwt beam="2">  1       -1 0.11382008E-01 0.61878082E+03</pdfrwt>
<totfact> 0.64348072E+02</totfact>
</mgrwt>
</event>
<event>
 4    1  0.3352993E-004  0.1863047E+03  0.7818608E-02  0.1161837E+00
         -1   -1    0    0    0  501 -0.00000000000E+00  0.00000000000E+00  0.18720776052E+02  0.18720776730E+02  0.50400000000E-02 0. -1.
          1   -1    0    0  501    0  0.00000000000E+00 -0.00000000000E+00 -0.46351504256E+03  0.46351504258E+03  0.50400000000E-02 0.  1.
    5000001    1    1    2    0    0  0.38066406799E+02  0.27616871952E+02 -0.28235807703E+03  0.29642339079E+03  0.77000000000E+02 0.  0.
   -5000001    1    1    2    0    0 -0.38066406799E+02 -0.27616871952E+02 -0.16243618948E+03  0.18581242852E+03  0.77000000000E+02 0.  0.
<mgrwt>
<rscale>  0 0.18630471E+03</rscale>
<asrwt>0</asrwt>
<pdfrwt beam="1">  1        1 0.66216428E-01 0.18630471E+03</pdfrwt>
<pdfrwt beam="2">  1       -1 0.26743969E-02 0.18630471E+03</pdfrwt>
<totfact> 0.23721885E+04</totfact>
</mgrwt>
</event>
<event>
 4    1  0.3352993E-004  0.2136622E+03  0.7818608E-02  0.1138698E+00
         -1   -1    0    0    0  501 -0.00000000000E+00  0.00000000000E+00  0.23012398794E+03  0.23012398800E+03  0.50400000000E-02 0. -1.
          1   -1    0    0  501    0  0.00000000000E+00 -0.00000000000E+00 -0.49594481781E+02  0.49594482037E+02  0.50400000000E-02 0.  1.
    5000001    1    1    2    0    0  0.62650255236E+02 -0.22882258694E+02  0.13238699434E+03  0.16704480990E+03  0.77000000000E+02 0.  0.
   -5000001    1    1    2    0    0 -0.62650255236E+02  0.22882258694E+02  0.48142511825E+02  0.11267366014E+03  0.77000000000E+02 0.  0.
<mgrwt>
<rscale>  0 0.21366216E+03</rscale>
<asrwt>0</asrwt>
<pdfrwt beam="1">  1        1 0.70849260E-02 0.21366216E+03</pdfrwt>
<pdfrwt beam="2">  1       -1 0.32874856E-01 0.21366216E+03</pdfrwt>
<totfact> 0.87459898E+03</totfact>
</mgrwt>
</event>
<event>
 4    1  0.3352993E-004  0.4212298E+03  0.7818608E-02  0.1036667E+00
          1   -1    0    0  501    0  0.00000000000E+00  0.00000000000E+00  0.49162454874E+03  0.49162454877E+03  0.50400000000E-02 0.  1.
         -1   -1    0    0    0  501 -0.00000000000E+00 -0.00000000000E+00 -0.90228682239E+02  0.90228682380E+02  0.50400000000E-02 0. -1.
    5000001    1    1    2    0    0 -0.17680374190E+03 -0.69250695690E+02  0.13338902928E+03  0.24449305744E+03  0.77000000000E+02 0.  0.
   -5000001    1    1    2    0    0  0.17680374190E+03  0.69250695690E+02  0.26800683722E+03  0.33736017371E+03  0.77000000000E+02 0.  0.
<mgrwt>
<rscale>  0 0.42122980E+03</rscale>
<asrwt>0</asrwt>
<pdfrwt beam="1">  1        1 0.70232077E-01 0.42122980E+03</pdfrwt>
<pdfrwt beam="2">  1       -1 0.12889812E-01 0.42122980E+03</pdfrwt>
<totfact> 0.20966382E+03</totfact>
</mgrwt>
</event>
<event>
 4    1  0.3352993E-004  0.1691876E+03  0.7818608E-02  0.1178698E+00
          1   -1    0    0  501    0  0.00000000000E+00  0.00000000000E+00  0.67615125145E+02  0.67615125333E+02  0.50400000000E-02 0.  1.
         -1   -1    0    0    0  501 -0.00000000000E+00 -0.00000000000E+00 -0.10583600929E+03  0.10583600941E+03  0.50400000000E-02 0. -1.
    5000001    1    1    2    0    0  0.53520729325E+01 -0.25538380567E+02 -0.43071653916E+02  0.92005548407E+02  0.77000000000E+02 0.  0.
   -5000001    1    1    2    0    0 -0.53520729325E+01  0.25538380567E+02  0.48507697683E+01  0.81445586338E+02  0.77000000000E+02 0.  0.
<mgrwt>
<rscale>  0 0.16918765E+03</rscale>
<asrwt>0</asrwt>
<pdfrwt beam="1">  1        1 0.96593036E-02 0.16918765E+03</pdfrwt>
<pdfrwt beam="2">  1       -1 0.15119430E-01 0.16918765E+03</pdfrwt>
<totfact> 0.20177963E+04</totfact>
</mgrwt>
</event>
<event>
 4    1  0.3352993E-004  0.3271708E+03  0.7818608E-02  0.1072396E+00
         -1   -1    0    0    0  501 -0.00000000000E+00  0.00000000000E+00  0.11497553388E+03  0.11497553399E+03  0.50400000000E-02 0. -1.
          1   -1    0    0  501    0  0.00000000000E+00 -0.00000000000E+00 -0.23274678762E+03  0.23274678767E+03  0.50400000000E-02 0.  1.
    5000001    1    1    2    0    0  0.22804605417E+02  0.13760960323E+03 -0.98292069399E+02  0.18720786265E+03  0.77000000000E+02 0.  0.
   -5000001    1    1    2    0    0 -0.22804605417E+02 -0.13760960323E+03 -0.19479184340E+02  0.16051445901E+03  0.77000000000E+02 0.  0.
<mgrwt>
<rscale>  0 0.32717082E+03</rscale>
<asrwt>0</asrwt>
<pdfrwt beam="1">  1        1 0.33249541E-01 0.32717082E+03</pdfrwt>
<pdfrwt beam="2">  1       -1 0.16425076E-01 0.32717082E+03</pdfrwt>
<totfact> 0.36947261E+03</totfact>
</mgrwt>
</event>
<event>
 4    1  0.3352993E-004  0.1987064E+03  0.7818608E-02  0.1150835E+00
         -1   -1    0    0    0  501 -0.00000000000E+00  0.00000000000E+00  0.47946840915E+01  0.47946867405E+01  0.50400000000E-02 0. -1.
          1   -1    0    0  501    0  0.00000000000E+00 -0.00000000000E+00 -0.20587505689E+04  0.20587505689E+04  0.50400000000E-02 0.  1.
    5000001    1    1    2    0    0 -0.47513639222E+02  0.37860237718E+02 -0.86241166310E+03  0.86797109408E+03  0.77000000000E+02 0.  0.
   -5000001    1    1    2    0    0  0.47513639222E+02 -0.37860237718E+02 -0.11915442217E+04  0.11955741615E+04  0.77000000000E+02 0.  0.
<mgrwt>
<rscale>  0 0.19870643E+03</rscale>
<asrwt>0</asrwt>
<pdfrwt beam="1">  1        1 0.29410666E+00 0.19870643E+03</pdfrwt>
<pdfrwt beam="2">  1       -1 0.68495638E-03 0.19870643E+03</pdfrwt>
<totfact> 0.12383399E+04</totfact>
</mgrwt>
</event>
<event>
 4    1  0.3352993E-004  0.6910139E+03  0.7818608E-02  0.9732724E-01
         -1   -1    0    0    0  501 -0.00000000000E+00  0.00000000000E+00  0.54745458562E+03  0.54745458565E+03  0.50400000000E-02 0.  1.
          1   -1    0    0  501    0  0.00000000000E+00 -0.00000000000E+00 -0.21805469881E+03  0.21805469886E+03  0.50400000000E-02 0. -1.
    5000001    1    1    2    0    0  0.20406229902E+03 -0.22718816444E+03  0.32211040142E+03  0.45048861767E+03  0.77000000000E+02 0.  0.
   -5000001    1    1    2    0    0 -0.20406229902E+03  0.22718816444E+03  0.72894853962E+01  0.31502066685E+03  0.77000000000E+02 0.  0.
<mgrwt>
<rscale>  0 0.69101388E+03</rscale>
<asrwt>0</asrwt>
<pdfrwt beam="1">  1        1 0.31150672E-01 0.69101388E+03</pdfrwt>
<pdfrwt beam="2">  1       -1 0.78207797E-01 0.69101388E+03</pdfrwt>
<totfact> 0.24285318E+02</totfact>
</mgrwt>
</event>
<event>
 4    1  0.3352993E-004  0.2781701E+03  0.7818608E-02  0.1096693E+00
          1   -1    0    0  501    0  0.00000000000E+00  0.00000000000E+00  0.22700543310E+04  0.22700543310E+04  0.50400000000E-02 0.  1.
         -1   -1    0    0    0  501 -0.00000000000E+00 -0.00000000000E+00 -0.85216671797E+01  0.85216686701E+01  0.50400000000E-02 0. -1.
    5000001    1    1    2    0    0 -0.22988036630E+02  0.54321634416E+02  0.31424649609E+03  0.32887558453E+03  0.77000000000E+02 0.  0.
   -5000001    1    1    2    0    0  0.22988036630E+02 -0.54321634416E+02  0.19472861677E+04  0.19497004151E+04  0.77000000000E+02 0.  0.
<mgrwt>
<rscale>  0 0.27817009E+03</rscale>
<asrwt>0</asrwt>
<pdfrwt beam="1">  1        1 0.32429378E+00 0.27817009E+03</pdfrwt>
<pdfrwt beam="2">  1       -1 0.12173800E-02 0.27817009E+03</pdfrwt>
<totfact> 0.40600128E+03</totfact>
</mgrwt>
</event>
<event>
 4    1  0.3352993E-004  0.2101244E+03  0.7818608E-02  0.1141468E+00
         -1   -1    0    0    0  501 -0.00000000000E+00  0.00000000000E+00  0.22045086852E+03  0.22045086858E+03  0.50400000000E-02 0.  1.
          1   -1    0    0  501    0  0.00000000000E+00 -0.00000000000E+00 -0.50070399598E+02  0.50070399851E+02  0.50400000000E-02 0. -1.
    5000001    1    1    2    0    0 -0.69223852585E+01  0.56260527964E+02  0.14124755273E+03  0.17056681265E+03  0.77000000000E+02 0.  0.
   -5000001    1    1    2    0    0  0.69223852585E+01 -0.56260527964E+02  0.29132916189E+02  0.99954455779E+02  0.77000000000E+02 0.  0.
<mgrwt>
<rscale>  0 0.21012437E+03</rscale>
<asrwt>0</asrwt>
<pdfrwt beam="1">  1        1 0.71529142E-02 0.21012437E+03</pdfrwt>
<pdfrwt beam="2">  1       -1 0.31492981E-01 0.21012437E+03</pdfrwt>
<totfact> 0.92812306E+03</totfact>
</mgrwt>
</event>
<event>
 4    1  0.3352993E-004  0.4245016E+03  0.7818608E-02  0.1035611E+00
          1   -1    0    0  501    0  0.00000000000E+00  0.00000000000E+00  0.14586451561E+04  0.14586451561E+04  0.50400000000E-02 0. -1.
         -1   -1    0    0    0  501 -0.00000000000E+00 -0.00000000000E+00 -0.30885104071E+02  0.30885104482E+02  0.50400000000E-02 0.  1.
    5000001    1    1    2    0    0  0.99547808666E+02 -0.17018780885E+03  0.65864966042E+03  0.69182514529E+03  0.77000000000E+02 0.  0.
   -5000001    1    1    2    0    0 -0.99547808666E+02  0.17018780885E+03  0.76911039165E+03  0.79770511534E+03  0.77000000000E+02 0.  0.
<mgrwt>
<rscale>  0 0.42450163E+03</rscale>
<asrwt>0</asrwt>
<pdfrwt beam="1">  1        1 0.20837793E+00 0.42450163E+03</pdfrwt>
<pdfrwt beam="2">  1       -1 0.44121567E-02 0.42450163E+03</pdfrwt>
<totfact> 0.18992324E+03</totfact>
</mgrwt>
</event>
<event>
 4    1  0.3352993E-004  0.2151746E+03  0.7818608E-02  0.1137533E+00
         -1   -1    0    0    0  501 -0.00000000000E+00  0.00000000000E+00  0.46293441129E+03  0.46293441132E+03  0.50400000000E-02 0.  1.
          1   -1    0    0  501    0  0.00000000000E+00 -0.00000000000E+00 -0.25003590660E+02  0.25003591168E+02  0.50400000000E-02 0. -1.
    5000001    1    1    2    0    0  0.62486061062E+02 -0.33844638387E+02  0.27432807594E+03  0.29365772699E+03  0.77000000000E+02 0.  0.
   -5000001    1    1    2    0    0 -0.62486061062E+02  0.33844638387E+02  0.16360274469E+03  0.19428027549E+03  0.77000000000E+02 0.  0.
<mgrwt>
<rscale>  0 0.21517456E+03</rscale>
<asrwt>0</asrwt>
<pdfrwt beam="1">  1        1 0.35719415E-02 0.21517456E+03</pdfrwt>
<pdfrwt beam="2">  1       -1 0.66133489E-01 0.21517456E+03</pdfrwt>
<totfact> 0.62859837E+03</totfact>
</mgrwt>
</event>
<event>
 4    1  0.3352993E-004  0.2512437E+03  0.7818608E-02  0.1112521E+00
          1   -1    0    0  501    0  0.00000000000E+00  0.00000000000E+00  0.22762165934E+03  0.22762165939E+03  0.50400000000E-02 0. -1.
         -1   -1    0    0    0  501 -0.00000000000E+00 -0.00000000000E+00 -0.69329316985E+02  0.69329317168E+02  0.50400000000E-02 0.  1.
    5000001    1    1    2    0    0 -0.56492631389E+02 -0.79582294651E+02  0.57770164129E+02  0.13708081881E+03  0.77000000000E+02 0.  0.
   -5000001    1    1    2    0    0  0.56492631389E+02  0.79582294651E+02  0.10052217822E+03  0.15987015775E+03  0.77000000000E+02 0.  0.
<mgrwt>
<rscale>  0 0.25124374E+03</rscale>
<asrwt>0</asrwt>
<pdfrwt beam="1">  1        1 0.32517380E-01 0.25124374E+03</pdfrwt>
<pdfrwt beam="2">  1       -1 0.99041881E-02 0.25124374E+03</pdfrwt>
<totfact> 0.83386872E+03</totfact>
</mgrwt>
</event>
<event>
 4    1  0.3352993E-004  0.3586111E+03  0.7818608E-02  0.1059135E+00
          1   -1    0    0  501    0  0.00000000000E+00  0.00000000000E+00  0.38040226485E+02  0.38040226819E+02  0.50400000000E-02 0. -1.
         -1   -1    0    0    0  501 -0.00000000000E+00 -0.00000000000E+00 -0.84517057433E+03  0.84517057435E+03  0.50400000000E-02 0.  1.
    5000001    1    1    2    0    0  0.48000634527E+02 -0.37173481872E+02 -0.77328670232E+03  0.77947883400E+03  0.77000000000E+02 0.  0.
   -5000001    1    1    2    0    0 -0.48000634527E+02  0.37173481872E+02 -0.33843645526E+02  0.10373196717E+03  0.77000000000E+02 0.  0.
<mgrwt>
<rscale>  0 0.35861110E+03</rscale>
<asrwt>0</asrwt>
<pdfrwt beam="1">  1        1 0.54343186E-02 0.35861110E+03</pdfrwt>
<pdfrwt beam="2">  1       -1 0.12073864E+00 0.35861110E+03</pdfrwt>
<totfact> 0.96937396E+02</totfact>
</mgrwt>
</event>
<event>
 4    1  0.3352993E-004  0.2268225E+03  0.7818608E-02  0.1128896E+00
          1   -1    0    0  501    0  0.00000000000E+00  0.00000000000E+00  0.33041165536E+04  0.33041165536E+04  0.50400000000E-02 0.  1.
         -1   -1    0    0    0  501 -0.00000000000E+00 -0.00000000000E+00 -0.38927518782E+01  0.38927551409E+01  0.50400000000E-02 0. -1.
    5000001    1    1    2    0    0 -0.52303245861E+02 -0.29061895650E+02  0.24945933612E+04  0.24964986002E+04  0.77000000000E+02 0.  0.
   -5000001    1    1    2    0    0  0.52303245861E+02  0.29061895650E+02  0.80563044049E+03  0.81151070847E+03  0.77000000000E+02 0.  0.
<mgrwt>
<rscale>  0 0.22682250E+03</rscale>
<asrwt>0</asrwt>
<pdfrwt beam="1">  1        1 0.47201726E+00 0.22682250E+03</pdfrwt>
<pdfrwt beam="2">  1       -1 0.55610693E-03 0.22682250E+03</pdfrwt>
<totfact> 0.28497783E+03</totfact>
</mgrwt>
</event>
<event>
 4    1  0.3352993E-004  0.2209843E+03  0.7818608E-02  0.1133151E+00
          1   -1    0    0  501    0  0.00000000000E+00  0.00000000000E+00  0.12902632475E+04  0.12902632475E+04  0.50400000000E-02 0. -1.
         -1   -1    0    0    0  501 -0.00000000000E+00 -0.00000000000E+00 -0.94620335457E+01  0.94620348880E+01  0.50400000000E-02 0.  1.
    5000001    1    1    2    0    0 -0.60585205097E+02 -0.46808247515E+02  0.52016170878E+03  0.53137442769E+03  0.77000000000E+02 0.  0.
   -5000001    1    1    2    0    0  0.60585205097E+02  0.46808247515E+02  0.76063950512E+03  0.76835085467E+03  0.77000000000E+02 0.  0.
<mgrwt>
<rscale>  0 0.22098430E+03</rscale>
<asrwt>0</asrwt>
<pdfrwt beam="1">  1        1 0.18432333E+00 0.22098430E+03</pdfrwt>
<pdfrwt beam="2">  1       -1 0.13517191E-02 0.22098430E+03</pdfrwt>
<totfact> 0.13815163E+04</totfact>
</mgrwt>
</event>
<event>
 4    1  0.3352993E-004  0.2787702E+03  0.7818608E-02  0.1096363E+00
          1   -1    0    0  501    0  0.00000000000E+00  0.00000000000E+00  0.14839570920E+04  0.14839570921E+04  0.50400000000E-02 0.  1.
         -1   -1    0    0    0  501 -0.00000000000E+00 -0.00000000000E+00 -0.13092158152E+02  0.13092159122E+02  0.50400000000E-02 0. -1.
    5000001    1    1    2    0    0  0.22226870453E+02  0.10119508717E+03  0.10178005099E+04  0.10259538769E+04  0.77000000000E+02 0.  0.
   -5000001    1    1    2    0    0 -0.22226870453E+02 -0.10119508717E+03  0.45306442398E+03  0.47109537433E+03  0.77000000000E+02 0.  0.
<mgrwt>
<rscale>  0 0.27877017E+03</rscale>
<asrwt>0</asrwt>
<pdfrwt beam="1">  1        1 0.21199386E+00 0.27877017E+03</pdfrwt>
<pdfrwt beam="2">  1       -1 0.18703085E-02 0.27877017E+03</pdfrwt>
<totfact> 0.65365789E+03</totfact>
</mgrwt>
</event>
<event>
 4    1  0.3352993E-004  0.2889563E+03  0.7818608E-02  0.1090895E+00
         -1   -1    0    0    0  501 -0.00000000000E+00  0.00000000000E+00  0.29201681575E+02  0.29201682010E+02  0.50400000000E-02 0. -1.
          1   -1    0    0  501    0  0.00000000000E+00 -0.00000000000E+00 -0.71481982465E+03  0.71481982467E+03  0.50400000000E-02 0.  1.
    5000001    1    1    2    0    0 -0.10827495869E+03 -0.52838808537E+02 -0.28944457743E+03  0.32283520528E+03  0.77000000000E+02 0.  0.
   -5000001    1    1    2    0    0  0.10827495869E+03  0.52838808537E+02 -0.39617356564E+03  0.42118630139E+03  0.77000000000E+02 0.  0.
<mgrwt>
<rscale>  0 0.28895634E+03</rscale>
<asrwt>0</asrwt>
<pdfrwt beam="1">  1        1 0.10211711E+00 0.28895634E+03</pdfrwt>
<pdfrwt beam="2">  1       -1 0.41716693E-02 0.28895634E+03</pdfrwt>
<totfact> 0.70282938E+03</totfact>
</mgrwt>
</event>
<event>
 4    1  0.3352993E-004  0.2398600E+03  0.7818608E-02  0.1119886E+00
          1   -1    0    0  501    0  0.00000000000E+00  0.00000000000E+00  0.53669373239E+02  0.53669373476E+02  0.50400000000E-02 0.  1.
         -1   -1    0    0    0  501 -0.00000000000E+00 -0.00000000000E+00 -0.26799647999E+03  0.26799648004E+03  0.50400000000E-02 0. -1.
    5000001    1    1    2    0    0  0.73465761161E+02  0.51090384109E+02 -0.78818113358E+02  0.14194625886E+03  0.77000000000E+02 0.  0.
   -5000001    1    1    2    0    0 -0.73465761161E+02 -0.51090384109E+02 -0.13550899339E+03  0.17971959465E+03  0.77000000000E+02 0.  0.
<mgrwt>
<rscale>  0 0.23985999E+03</rscale>
<asrwt>0</asrwt>
<pdfrwt beam="1">  1        1 0.76670535E-02 0.23985999E+03</pdfrwt>
<pdfrwt beam="2">  1       -1 0.38285211E-01 0.23985999E+03</pdfrwt>
<totfact> 0.60676590E+03</totfact>
</mgrwt>
</event>
<event>
 4    1  0.3352993E-004  0.5281760E+03  0.7818608E-02  0.1006675E+00
         -1   -1    0    0    0  501 -0.00000000000E+00  0.00000000000E+00  0.43663589055E+03  0.43663589058E+03  0.50400000000E-02 0. -1.
          1   -1    0    0  501    0  0.00000000000E+00 -0.00000000000E+00 -0.15972685777E+03  0.15972685785E+03  0.50400000000E-02 0.  1.
    5000001    1    1    2    0    0 -0.16613183916E+03 -0.10344035123E+03  0.31880581112E+03  0.38192386604E+03  0.77000000000E+02 0.  0.
   -5000001    1    1    2    0    0  0.16613183916E+03  0.10344035123E+03 -0.41896778347E+02  0.21443888239E+03  0.77000000000E+02 0.  0.
<mgrwt>
<rscale>  0 0.52817603E+03</rscale>
<asrwt>0</asrwt>
<pdfrwt beam="1">  1        1 0.22818123E-01 0.52817603E+03</pdfrwt>
<pdfrwt beam="2">  1       -1 0.62376555E-01 0.52817603E+03</pdfrwt>
<totfact> 0.57983832E+02</totfact>
</mgrwt>
</event>
<event>
 4    1  0.3352993E-004  0.1761737E+03  0.7818608E-02  0.1171558E+00
         -1   -1    0    0    0  501 -0.00000000000E+00  0.00000000000E+00  0.29257990189E+02  0.29257990623E+02  0.50400000000E-02 0. -1.
          1   -1    0    0  501    0  0.00000000000E+00 -0.00000000000E+00 -0.26520268130E+03  0.26520268134E+03  0.50400000000E-02 0.  1.
    5000001    1    1    2    0    0  0.52709016140E+01  0.42224559101E+02 -0.12537237124E+03  0.15315980956E+03  0.77000000000E+02 0.  0.
   -5000001    1    1    2    0    0 -0.52709016140E+01 -0.42224559101E+02 -0.11057231987E+03  0.14130086241E+03  0.77000000000E+02 0.  0.
<mgrwt>
<rscale>  0 0.17617375E+03</rscale>
<asrwt>0</asrwt>
<pdfrwt beam="1">  1        1 0.37886096E-01 0.17617375E+03</pdfrwt>
<pdfrwt beam="2">  1       -1 0.41797131E-02 0.17617375E+03</pdfrwt>
<totfact> 0.24692568E+04</totfact>
</mgrwt>
</event>
<event>
 4    1  0.3352993E-004  0.2581602E+03  0.7818608E-02  0.1108254E+00
          1   -1    0    0  501    0  0.00000000000E+00  0.00000000000E+00  0.34081034368E+03  0.34081034371E+03  0.50400000000E-02 0. -1.
         -1   -1    0    0    0  501 -0.00000000000E+00 -0.00000000000E+00 -0.48888405947E+02  0.48888406207E+02  0.50400000000E-02 0.  1.
    5000001    1    1    2    0    0 -0.22862199088E+02  0.98659262794E+02  0.11301516272E+03  0.17016978958E+03  0.77000000000E+02 0.  0.
   -5000001    1    1    2    0    0  0.22862199088E+02 -0.98659262794E+02  0.17890677501E+03  0.21952896034E+03  0.77000000000E+02 0.  0.
<mgrwt>
<rscale>  0 0.25816022E+03</rscale>
<asrwt>0</asrwt>
<pdfrwt beam="1">  1        1 0.48687192E-01 0.25816022E+03</pdfrwt>
<pdfrwt beam="2">  1       -1 0.69840580E-02 0.25816022E+03</pdfrwt>
<totfact> 0.85829383E+03</totfact>
</mgrwt>
</event>
<event>
 4    1  0.3352993E-004  0.3330671E+03  0.7818608E-02  0.1069788E+00
         -1   -1    0    0    0  501 -0.00000000000E+00  0.00000000000E+00  0.69868237364E+02  0.69868237546E+02  0.50400000000E-02 0. -1.
          1   -1    0    0  501    0  0.00000000000E+00 -0.00000000000E+00 -0.39693888699E+03  0.39693888702E+03  0.50400000000E-02 0.  1.
    5000001    1    1    2    0    0 -0.96724244460E+02 -0.50917579724E+02 -0.24392306404E+02  0.13591233941E+03  0.77000000000E+02 0.  0.
   -5000001    1    1    2    0    0  0.96724244460E+02  0.50917579724E+02 -0.30267834322E+03  0.33089478516E+03  0.77000000000E+02 0.  0.
<mgrwt>
<rscale>  0 0.33306708E+03</rscale>
<asrwt>0</asrwt>
<pdfrwt beam="1">  1        1 0.56705554E-01 0.33306708E+03</pdfrwt>
<pdfrwt beam="2">  1       -1 0.99811770E-02 0.33306708E+03</pdfrwt>
<totfact> 0.41240854E+03</totfact>
</mgrwt>
</event>
<event>
 4    1  0.3352993E-004  0.1848204E+03  0.7818608E-02  0.1163218E+00
         -1   -1    0    0    0  501 -0.00000000000E+00  0.00000000000E+00  0.28148692302E+02  0.28148692754E+02  0.50400000000E-02 0. -1.
          1   -1    0    0  501    0  0.00000000000E+00 -0.00000000000E+00 -0.30337629316E+03  0.30337629320E+03  0.50400000000E-02 0.  1.
    5000001    1    1    2    0    0  0.20760722857E+01 -0.34516336298E+02 -0.20508806828E+03  0.22177872598E+03  0.77000000000E+02 0.  0.
   -5000001    1    1    2    0    0 -0.20760722857E+01  0.34516336298E+02 -0.70139532573E+02  0.10974625997E+03  0.77000000000E+02 0.  0.
<mgrwt>
<rscale>  0 0.18482041E+03</rscale>
<asrwt>0</asrwt>
<pdfrwt beam="1">  1        1 0.43339468E-01 0.18482041E+03</pdfrwt>
<pdfrwt beam="2">  1       -1 0.40212420E-02 0.18482041E+03</pdfrwt>
<totfact> 0.22206277E+04</totfact>
</mgrwt>
</event>
<event>
 4    1  0.3352993E-004  0.2861384E+03  0.7818608E-02  0.1092383E+00
         -1   -1    0    0    0  501 -0.00000000000E+00  0.00000000000E+00  0.11048689207E+03  0.11048689219E+03  0.50400000000E-02 0. -1.
          1   -1    0    0  501    0  0.00000000000E+00 -0.00000000000E+00 -0.18525993141E+03  0.18525993148E+03  0.50400000000E-02 0.  1.
    5000001    1    1    2    0    0 -0.11164680147E+03  0.45196290088E+02 -0.31532300327E+02  0.14639330203E+03  0.77000000000E+02 0.  0.
   -5000001    1    1    2    0    0  0.11164680147E+03 -0.45196290088E+02 -0.43240739017E+02  0.14935352164E+03  0.77000000000E+02 0.  0.
<mgrwt>
<rscale>  0 0.28613839E+03</rscale>
<asrwt>0</asrwt>
<pdfrwt beam="1">  1        1 0.26465704E-01 0.28613839E+03</pdfrwt>
<pdfrwt beam="2">  1       -1 0.15783842E-01 0.28613839E+03</pdfrwt>
<totfact> 0.52381546E+03</totfact>
</mgrwt>
</event>
<event>
 4    1  0.3352993E-004  0.2377552E+03  0.7818608E-02  0.1121297E+00
         -1   -1    0    0    0  501 -0.00000000000E+00  0.00000000000E+00  0.11816027244E+02  0.11816028319E+02  0.50400000000E-02 0. -1.
          1   -1    0    0  501    0  0.00000000000E+00 -0.00000000000E+00 -0.11959924275E+04  0.11959924275E+04  0.50400000000E-02 0.  1.
    5000001    1    1    2    0    0 -0.49344104480E+02  0.54581975275E+02 -0.86036335535E+03  0.86693029472E+03  0.77000000000E+02 0.  0.
   -5000001    1    1    2    0    0  0.49344104480E+02 -0.54581975275E+02 -0.32381304491E+03  0.34087816112E+03  0.77000000000E+02 0.  0.
<mgrwt>
<rscale>  0 0.23775517E+03</rscale>
<asrwt>0</asrwt>
<pdfrwt beam="1">  1        1 0.17085599E+00 0.23775517E+03</pdfrwt>
<pdfrwt beam="2">  1       -1 0.16880047E-02 0.23775517E+03</pdfrwt>
<totfact> 0.11574041E+04</totfact>
</mgrwt>
</event>
<event>
 4    1  0.3352993E-004  0.4036942E+03  0.7818608E-02  0.1042508E+00
         -1   -1    0    0    0  501 -0.00000000000E+00  0.00000000000E+00  0.30705906001E+02  0.30705906414E+02  0.50400000000E-02 0.  1.
          1   -1    0    0  501    0  0.00000000000E+00 -0.00000000000E+00 -0.13268539387E+04  0.13268539387E+04  0.50400000000E-02 0. -1.
    5000001    1    1    2    0    0  0.51928454399E+02 -0.17126358194E+03 -0.47059132612E+03  0.50932600080E+03  0.77000000000E+02 0.  0.
   -5000001    1    1    2    0    0 -0.51928454399E+02  0.17126358194E+03 -0.82555670661E+03  0.84823384435E+03  0.77000000000E+02 0.  0.
<mgrwt>
<rscale>  0 0.40369420E+03</rscale>
<asrwt>0</asrwt>
<pdfrwt beam="1">  1        1 0.18955053E+00 0.40369420E+03</pdfrwt>
<pdfrwt beam="2">  1       -1 0.43865589E-02 0.40369420E+03</pdfrwt>
<totfact> 0.23314305E+03</totfact>
</mgrwt>
</event>
<event>
 4    1  0.3352993E-004  0.3785518E+03  0.7818608E-02  0.1051470E+00
          1   -1    0    0  501    0  0.00000000000E+00  0.00000000000E+00  0.11008626116E+04  0.11008626116E+04  0.50400000000E-02 0. -1.
         -1   -1    0    0    0  501 -0.00000000000E+00 -0.00000000000E+00 -0.32542987514E+02  0.32542987904E+02  0.50400000000E-02 0.  1.
    5000001    1    1    2    0    0 -0.10348314323E+03  0.45495606705E+02  0.92588670809E+03  0.93593472389E+03  0.77000000000E+02 0.  0.
   -5000001    1    1    2    0    0  0.10348314323E+03 -0.45495606705E+02  0.14243291600E+03  0.19747087563E+03  0.77000000000E+02 0.  0.
<mgrwt>
<rscale>  0 0.37855176E+03</rscale>
<asrwt>0</asrwt>
<pdfrwt beam="1">  1        1 0.15726607E+00 0.37855176E+03</pdfrwt>
<pdfrwt beam="2">  1       -1 0.46489987E-02 0.37855176E+03</pdfrwt>
<totfact> 0.30319008E+03</totfact>
</mgrwt>
</event>
<event>
 4    1  0.3352993E-004  0.1985751E+03  0.7818608E-02  0.1150947E+00
         -1   -1    0    0    0  501 -0.00000000000E+00  0.00000000000E+00  0.22162472727E+02  0.22162473300E+02  0.50400000000E-02 0.  1.
          1   -1    0    0  501    0  0.00000000000E+00 -0.00000000000E+00 -0.44480660652E+03  0.44480660655E+03  0.50400000000E-02 0. -1.
    5000001    1    1    2    0    0  0.51635712939E+02  0.16513778957E+02 -0.28531576779E+03  0.30045472054E+03  0.77000000000E+02 0.  0.
   -5000001    1    1    2    0    0 -0.51635712939E+02 -0.16513778957E+02 -0.13732836601E+03  0.16651435931E+03  0.77000000000E+02 0.  0.
<mgrwt>
<rscale>  0 0.19857507E+03</rscale>
<asrwt>0</asrwt>
<pdfrwt beam="1">  1        1 0.63543795E-01 0.19857507E+03</pdfrwt>
<pdfrwt beam="2">  1       -1 0.31660679E-02 0.19857507E+03</pdfrwt>
<totfact> 0.19625136E+04</totfact>
</mgrwt>
</event>
<event>
 4    1  0.3352993E-004  0.2406077E+03  0.7818608E-02  0.1119389E+00
          1   -1    0    0  501    0  0.00000000000E+00  0.00000000000E+00  0.37267322190E+03  0.37267322193E+03  0.50400000000E-02 0.  1.
         -1   -1    0    0    0  501 -0.00000000000E+00 -0.00000000000E+00 -0.38835664452E+02  0.38835664779E+02  0.50400000000E-02 0. -1.
    5000001    1    1    2    0    0  0.86352064924E+02  0.17511187252E+02  0.11913181075E+03  0.16698715258E+03  0.77000000000E+02 0.  0.
   -5000001    1    1    2    0    0 -0.86352064924E+02 -0.17511187252E+02  0.21470574669E+03  0.24452173412E+03  0.77000000000E+02 0.  0.
<mgrwt>
<rscale>  0 0.24060767E+03</rscale>
<asrwt>0</asrwt>
<pdfrwt beam="1">  1        1 0.53239032E-01 0.24060767E+03</pdfrwt>
<pdfrwt beam="2">  1       -1 0.55479521E-02 0.24060767E+03</pdfrwt>
<totfact> 0.10815508E+04</totfact>
</mgrwt>
</event>
<event>
 4    1  0.3352993E-004  0.1676824E+03  0.7818608E-02  0.1180286E+00
          1   -1    0    0  501    0  0.00000000000E+00  0.00000000000E+00  0.21364780847E+03  0.21364780853E+03  0.50400000000E-02 0. -1.
         -1   -1    0    0    0  501 -0.00000000000E+00 -0.00000000000E+00 -0.32901570760E+02  0.32901571146E+02  0.50400000000E-02 0.  1.
    5000001    1    1    2    0    0 -0.28594884884E+02 -0.11552605380E+02  0.72412239969E+02  0.11010750488E+03  0.77000000000E+02 0.  0.
   -5000001    1    1    2    0    0  0.28594884884E+02  0.11552605380E+02  0.10833399774E+03  0.13644187480E+03  0.77000000000E+02 0.  0.
<mgrwt>
<rscale>  0 0.16768242E+03</rscale>
<asrwt>0</asrwt>
<pdfrwt beam="1">  1        1 0.30521116E-01 0.16768242E+03</pdfrwt>
<pdfrwt beam="2">  1       -1 0.47002244E-02 0.16768242E+03</pdfrwt>
<totfact> 0.27050757E+04</totfact>
</mgrwt>
</event>
<event>
 4    1  0.3352993E-004  0.2823045E+03  0.7818608E-02  0.1094437E+00
          1   -1    0    0  501    0  0.00000000000E+00  0.00000000000E+00  0.81564994211E+03  0.81564994212E+03  0.50400000000E-02 0. -1.
         -1   -1    0    0    0  501 -0.00000000000E+00 -0.00000000000E+00 -0.24427099731E+02  0.24427100251E+02  0.50400000000E-02 0.  1.
    5000001    1    1    2    0    0  0.32180771739E+02  0.43031065083E+02  0.81984670609E+02  0.12465055494E+03  0.77000000000E+02 0.  0.
   -5000001    1    1    2    0    0 -0.32180771739E+02 -0.43031065083E+02  0.70923817177E+03  0.71542648744E+03  0.77000000000E+02 0.  0.
<mgrwt>
<rscale>  0 0.28230454E+03</rscale>
<asrwt>0</asrwt>
<pdfrwt beam="1">  1        1 0.11652143E+00 0.28230454E+03</pdfrwt>
<pdfrwt beam="2">  1       -1 0.34895855E-02 0.28230454E+03</pdfrwt>
<totfact> 0.75445517E+03</totfact>
</mgrwt>
</event>
<event>
 4    1  0.3352993E-004  0.2916233E+03  0.7818608E-02  0.1089505E+00
         -1   -1    0    0    0  501 -0.00000000000E+00  0.00000000000E+00  0.54209095412E+03  0.54209095414E+03  0.50400000000E-02 0.  1.
          1   -1    0    0  501    0  0.00000000000E+00 -0.00000000000E+00 -0.39220435032E+02  0.39220435356E+02  0.50400000000E-02 0. -1.
    5000001    1    1    2    0    0 -0.11675025515E+03 -0.36340307117E+02  0.21253640451E+03  0.25700576500E+03  0.77000000000E+02 0.  0.
   -5000001    1    1    2    0    0  0.11675025515E+03  0.36340307117E+02  0.29033411457E+03  0.32430562450E+03  0.77000000000E+02 0.  0.
<mgrwt>
<rscale>  0 0.29162334E+03</rscale>
<asrwt>0</asrwt>
<pdfrwt beam="1">  1        1 0.56029201E-02 0.29162334E+03</pdfrwt>
<pdfrwt beam="2">  1       -1 0.77441554E-01 0.29162334E+03</pdfrwt>
<totfact> 0.24796957E+03</totfact>
</mgrwt>
</event>
<event>
 4    1  0.3352993E-004  0.2073158E+03  0.7818608E-02  0.1143709E+00
         -1   -1    0    0    0  501 -0.00000000000E+00  0.00000000000E+00  0.40044560771E+01  0.40044592488E+01  0.50400000000E-02 0. -1.
          1   -1    0    0  501    0  0.00000000000E+00 -0.00000000000E+00 -0.26832496492E+04  0.26832496492E+04  0.50400000000E-02 0.  1.
    5000001    1    1    2    0    0 -0.17506991965E+02 -0.65556775930E+02 -0.15282534195E+04  0.15316956943E+04  0.77000000000E+02 0.  0.
   -5000001    1    1    2    0    0  0.17506991965E+02  0.65556775930E+02 -0.11509917736E+04  0.11555584142E+04  0.77000000000E+02 0.  0.
<mgrwt>
<rscale>  0 0.20731579E+03</rscale>
<asrwt>0</asrwt>
<pdfrwt beam="1">  1        1 0.38332023E+00 0.20731579E+03</pdfrwt>
<pdfrwt beam="2">  1       -1 0.57206710E-03 0.20731579E+03</pdfrwt>
<totfact> 0.67430624E+03</totfact>
</mgrwt>
</event>
<event>
 4    1  0.3352993E-004  0.2148939E+03  0.7818608E-02  0.1137748E+00
         -1   -1    0    0    0  501 -0.00000000000E+00  0.00000000000E+00  0.34697315085E+03  0.34697315089E+03  0.50400000000E-02 0. -1.
          1   -1    0    0  501    0  0.00000000000E+00 -0.00000000000E+00 -0.33273023137E+02  0.33273023519E+02  0.50400000000E-02 0.  1.
    5000001    1    1    2    0    0  0.63023940859E+02  0.40461427016E+02  0.15226939724E+03  0.18634407298E+03  0.77000000000E+02 0.  0.
   -5000001    1    1    2    0    0 -0.63023940859E+02 -0.40461427016E+02  0.16143073048E+03  0.19390210143E+03  0.77000000000E+02 0.  0.
<mgrwt>
<rscale>  0 0.21489389E+03</rscale>
<asrwt>0</asrwt>
<pdfrwt beam="1">  1        1 0.47532892E-02 0.21489389E+03</pdfrwt>
<pdfrwt beam="2">  1       -1 0.49567592E-01 0.21489389E+03</pdfrwt>
<totfact> 0.73058725E+03</totfact>
</mgrwt>
</event>
<event>
 4    1  0.3352993E-004  0.2910684E+03  0.7818608E-02  0.1089793E+00
         -1   -1    0    0    0  501 -0.00000000000E+00  0.00000000000E+00  0.38014939517E+02  0.38014939851E+02  0.50400000000E-02 0.  1.
          1   -1    0    0  501    0  0.00000000000E+00 -0.00000000000E+00 -0.55715456959E+03  0.55715456961E+03  0.50400000000E-02 0. -1.
    5000001    1    1    2    0    0 -0.77807989121E+02  0.62277933460E+01 -0.45525312806E+03  0.46827051924E+03  0.77000000000E+02 0.  0.
   -5000001    1    1    2    0    0  0.77807989121E+02 -0.62277933460E+01 -0.63886502017E+02  0.12689899023E+03  0.77000000000E+02 0.  0.
<mgrwt>
<rscale>  0 0.29106836E+03</rscale>
<asrwt>0</asrwt>
<pdfrwt beam="1">  1        1 0.79593505E-01 0.29106836E+03</pdfrwt>
<pdfrwt beam="2">  1       -1 0.54307060E-02 0.29106836E+03</pdfrwt>
<totfact> 0.66864903E+03</totfact>
</mgrwt>
</event>
<event>
 4    1  0.3352993E-004  0.2532574E+03  0.7818608E-02  0.1111263E+00
         -1   -1    0    0    0  501 -0.00000000000E+00  0.00000000000E+00  0.22584053032E+02  0.22584053594E+02  0.50400000000E-02 0.  1.
          1   -1    0    0  501    0  0.00000000000E+00 -0.00000000000E+00 -0.71000645154E+03  0.71000645156E+03  0.50400000000E-02 0. -1.
    5000001    1    1    2    0    0  0.61519705436E+02  0.76746651395E+02 -0.40377166102E+03  0.42265266697E+03  0.77000000000E+02 0.  0.
   -5000001    1    1    2    0    0 -0.61519705436E+02 -0.76746651395E+02 -0.28365073749E+03  0.30993783818E+03  0.77000000000E+02 0.  0.
<mgrwt>
<rscale>  0 0.25325737E+03</rscale>
<asrwt>0</asrwt>
<pdfrwt beam="1">  1        1 0.10142948E+00 0.25325737E+03</pdfrwt>
<pdfrwt beam="2">  1       -1 0.32262938E-02 0.25325737E+03</pdfrwt>
<totfact> 0.10341540E+04</totfact>
</mgrwt>
</event>
<event>
 4    1  0.3352993E-004  0.2931191E+03  0.7818608E-02  0.1088732E+00
         -1   -1    0    0    0  501 -0.00000000000E+00  0.00000000000E+00  0.92092507962E+03  0.92092507964E+03  0.50400000000E-02 0. -1.
          1   -1    0    0  501    0  0.00000000000E+00 -0.00000000000E+00 -0.23324056370E+02  0.23324056914E+02  0.50400000000E-02 0.  1.
    5000001    1    1    2    0    0 -0.86207197341E+02  0.62777161962E+02  0.24057711604E+03  0.27418789488E+03  0.77000000000E+02 0.  0.
   -5000001    1    1    2    0    0  0.86207197341E+02 -0.62777161962E+02  0.65702390722E+03  0.67006124167E+03  0.77000000000E+02 0.  0.
<mgrwt>
<rscale>  0 0.29311915E+03</rscale>
<asrwt>0</asrwt>
<pdfrwt beam="1">  1        1 0.33320088E-02 0.29311915E+03</pdfrwt>
<pdfrwt beam="2">  1       -1 0.13156070E+00 0.29311915E+03</pdfrwt>
<totfact> 0.15557929E+03</totfact>
</mgrwt>
</event>
<event>
 4    1  0.3352993E-004  0.3056874E+03  0.7818608E-02  0.1082432E+00
         -1   -1    0    0    0  501 -0.00000000000E+00  0.00000000000E+00  0.35196050779E+03  0.35196050783E+03  0.50400000000E-02 0. -1.
          1   -1    0    0  501    0  0.00000000000E+00 -0.00000000000E+00 -0.66374482026E+02  0.66374482217E+02  0.50400000000E-02 0.  1.
    5000001    1    1    2    0    0  0.10962045947E+03  0.48250323773E+02  0.21883389624E+03  0.26107855719E+03  0.77000000000E+02 0.  0.
   -5000001    1    1    2    0    0 -0.10962045947E+03 -0.48250323773E+02  0.66752129525E+02  0.15725643286E+03  0.77000000000E+02 0.  0.
<mgrwt>
<rscale>  0 0.30568740E+03</rscale>
<asrwt>0</asrwt>
<pdfrwt beam="1">  1        1 0.94820688E-02 0.30568740E+03</pdfrwt>
<pdfrwt beam="2">  1       -1 0.50280073E-01 0.30568740E+03</pdfrwt>
<totfact> 0.28045260E+03</totfact>
</mgrwt>
</event>
<event>
 4    1  0.3352993E-004  0.2358105E+03  0.7818608E-02  0.1122616E+00
          1   -1    0    0  501    0  0.00000000000E+00  0.00000000000E+00  0.48773876445E+03  0.48773876447E+03  0.50400000000E-02 0. -1.
         -1   -1    0    0    0  501 -0.00000000000E+00 -0.00000000000E+00 -0.28502251357E+02  0.28502251802E+02  0.50400000000E-02 0.  1.
    5000001    1    1    2    0    0  0.87872288132E+02  0.38422595160E+01  0.19596182913E+03  0.22818049973E+03  0.77000000000E+02 0.  0.
   -5000001    1    1    2    0    0 -0.87872288132E+02 -0.38422595160E+01  0.26327468396E+03  0.28806051655E+03  0.77000000000E+02 0.  0.
<mgrwt>
<rscale>  0 0.23581054E+03</rscale>
<asrwt>0</asrwt>
<pdfrwt beam="1">  1        1 0.69676967E-01 0.23581054E+03</pdfrwt>
<pdfrwt beam="2">  1       -1 0.40717502E-02 0.23581054E+03</pdfrwt>
<totfact> 0.12150471E+04</totfact>
</mgrwt>
</event>
<event>
 4    1  0.3352993E-004  0.7503850E+03  0.7818608E-02  0.9634747E-01
          1   -1    0    0  501    0  0.00000000000E+00  0.00000000000E+00  0.13935253630E+04  0.13935253630E+04  0.50400000000E-02 0. -1.
         -1   -1    0    0    0  501 -0.00000000000E+00 -0.00000000000E+00 -0.10101674817E+03  0.10101674830E+03  0.50400000000E-02 0.  1.
    5000001    1    1    2    0    0  0.25029226978E+03  0.18095105989E+03  0.25065779277E+03  0.40515162034E+03  0.77000000000E+02 0.  0.
   -5000001    1    1    2    0    0 -0.25029226978E+03 -0.18095105989E+03  0.10418508220E+04  0.10893904909E+04  0.77000000000E+02 0.  0.
<mgrwt>
<rscale>  0 0.75038497E+03</rscale>
<asrwt>0</asrwt>
<pdfrwt beam="1">  1        1 0.19907504E+00 0.75038497E+03</pdfrwt>
<pdfrwt beam="2">  1       -1 0.14430965E-01 0.75038497E+03</pdfrwt>
<totfact> 0.32456739E+02</totfact>
</mgrwt>
</event>
<event>
 4    1  0.3352993E-004  0.3504246E+03  0.7818608E-02  0.1062441E+00
         -1   -1    0    0    0  501 -0.00000000000E+00  0.00000000000E+00  0.31004499248E+02  0.31004499657E+02  0.50400000000E-02 0. -1.
          1   -1    0    0  501    0  0.00000000000E+00 -0.00000000000E+00 -0.99015779227E+03  0.99015779229E+03  0.50400000000E-02 0.  1.
    5000001    1    1    2    0    0  0.10746101512E+03  0.37731834578E+02 -0.79610955038E+03  0.80789292441E+03  0.77000000000E+02 0.  0.
   -5000001    1    1    2    0    0 -0.10746101512E+03 -0.37731834578E+02 -0.16304374265E+03  0.21326936753E+03  0.77000000000E+02 0.  0.
<mgrwt>
<rscale>  0 0.35042458E+03</rscale>
<asrwt>0</asrwt>
<pdfrwt beam="1">  1        1 0.14145109E+00 0.35042458E+03</pdfrwt>
<pdfrwt beam="2">  1       -1 0.44292148E-02 0.35042458E+03</pdfrwt>
<totfact> 0.39080672E+03</totfact>
</mgrwt>
</event>
<event>
 4    1  0.3352993E-004  0.4179984E+03  0.7818608E-02  0.1037720E+00
         -1   -1    0    0    0  501 -0.00000000000E+00  0.00000000000E+00  0.48834290563E+02  0.48834290823E+02  0.50400000000E-02 0. -1.
          1   -1    0    0  501    0  0.00000000000E+00 -0.00000000000E+00 -0.89446698381E+03  0.89446698382E+03  0.50400000000E-02 0.  1.
    5000001    1    1    2    0    0 -0.32842338223E+02  0.19071575145E+03 -0.38369357365E+03  0.43657860173E+03  0.77000000000E+02 0.  0.
   -5000001    1    1    2    0    0  0.32842338223E+02 -0.19071575145E+03 -0.46193911960E+03  0.50672267292E+03  0.77000000000E+02 0.  0.
<mgrwt>
<rscale>  0 0.41799838E+03</rscale>
<asrwt>0</asrwt>
<pdfrwt beam="1">  1        1 0.12778099E+00 0.41799838E+03</pdfrwt>
<pdfrwt beam="2">  1       -1 0.69763278E-02 0.41799838E+03</pdfrwt>
<totfact> 0.23153524E+03</totfact>
</mgrwt>
</event>
<event>
 4    1  0.3352993E-004  0.2329623E+03  0.7818608E-02  0.1124572E+00
          1   -1    0    0  501    0  0.00000000000E+00  0.00000000000E+00  0.30833514053E+03  0.30833514057E+03  0.50400000000E-02 0. -1.
         -1   -1    0    0    0  501 -0.00000000000E+00 -0.00000000000E+00 -0.44003621162E+02  0.44003621450E+02  0.50400000000E-02 0.  1.
    5000001    1    1    2    0    0 -0.61292764332E+02  0.56591079512E+02  0.92740688674E+02  0.14659191170E+03  0.77000000000E+02 0.  0.
   -5000001    1    1    2    0    0  0.61292764332E+02 -0.56591079512E+02  0.17159083070E+03  0.20574685033E+03  0.77000000000E+02 0.  0.
<mgrwt>
<rscale>  0 0.23296234E+03</rscale>
<asrwt>0</asrwt>
<pdfrwt beam="1">  1        1 0.44047878E-01 0.23296234E+03</pdfrwt>
<pdfrwt beam="2">  1       -1 0.62862315E-02 0.23296234E+03</pdfrwt>
<totfact> 0.11354446E+04</totfact>
</mgrwt>
</event>
<event>
 4    1  0.3352993E-004  0.2327679E+03  0.7818608E-02  0.1124707E+00
         -1   -1    0    0    0  501 -0.00000000000E+00  0.00000000000E+00  0.77663855933E+01  0.77663872287E+01  0.50400000000E-02 0. -1.
          1   -1    0    0  501    0  0.00000000000E+00 -0.00000000000E+00 -0.17440828501E+04  0.17440828501E+04  0.50400000000E-02 0.  1.
    5000001    1    1    2    0    0 -0.20809451448E+02 -0.65385413070E+02 -0.46230772791E+03  0.47367258819E+03  0.77000000000E+02 0.  0.
   -5000001    1    1    2    0    0  0.20809451448E+02  0.65385413070E+02 -0.12740087366E+04  0.12781766492E+04  0.77000000000E+02 0.  0.
<mgrwt>
<rscale>  0 0.23276788E+03</rscale>
<asrwt>0</asrwt>
<pdfrwt beam="1">  1        1 0.24915444E+00 0.23276788E+03</pdfrwt>
<pdfrwt beam="2">  1       -1 0.11094849E-02 0.23276788E+03</pdfrwt>
<totfact> 0.96156118E+03</totfact>
</mgrwt>
</event>
<event>
 4    1  0.3352993E-004  0.1787111E+03  0.7818608E-02  0.1169056E+00
          1   -1    0    0  501    0  0.00000000000E+00  0.00000000000E+00  0.17321896758E+03  0.17321896765E+03  0.50400000000E-02 0.  1.
         -1   -1    0    0    0  501 -0.00000000000E+00 -0.00000000000E+00 -0.46094334400E+02  0.46094334676E+02  0.50400000000E-02 0. -1.
    5000001    1    1    2    0    0 -0.40170283005E+02  0.19282935355E+02  0.73824616230E+02  0.11560517806E+03  0.77000000000E+02 0.  0.
   -5000001    1    1    2    0    0  0.40170283005E+02 -0.19282935355E+02  0.53300016947E+02  0.10370812427E+03  0.77000000000E+02 0.  0.
<mgrwt>
<rscale>  0 0.17871109E+03</rscale>
<asrwt>0</asrwt>
<pdfrwt beam="1">  1        1 0.24745567E-01 0.17871109E+03</pdfrwt>
<pdfrwt beam="2">  1       -1 0.65849049E-02 0.17871109E+03</pdfrwt>
<totfact> 0.21405670E+04</totfact>
</mgrwt>
</event>
<event>
 4    1  0.3352993E-004  0.2444302E+03  0.7818608E-02  0.1116876E+00
         -1   -1    0    0    0  501 -0.00000000000E+00  0.00000000000E+00  0.14705993569E+02  0.14705994433E+02  0.50400000000E-02 0. -1.
          1   -1    0    0  501    0  0.00000000000E+00 -0.00000000000E+00 -0.10156761759E+04  0.10156761759E+04  0.50400000000E-02 0.  1.
    5000001    1    1    2    0    0  0.80453485014E+02 -0.73157800186E+01 -0.29050494188E+03  0.31120476401E+03  0.77000000000E+02 0.  0.
   -5000001    1    1    2    0    0 -0.80453485014E+02  0.73157800186E+01 -0.71046524041E+03  0.71917740629E+03  0.77000000000E+02 0.  0.
<mgrwt>
<rscale>  0 0.24443018E+03</rscale>
<asrwt>0</asrwt>
<pdfrwt beam="1">  1        1 0.14509655E+00 0.24443018E+03</pdfrwt>
<pdfrwt beam="2">  1       -1 0.21008569E-02 0.24443018E+03</pdfrwt>
<totfact> 0.11198839E+04</totfact>
</mgrwt>
</event>
<event>
 4    1  0.3352993E-004  0.2579855E+03  0.7818608E-02  0.1108360E+00
          1   -1    0    0  501    0  0.00000000000E+00  0.00000000000E+00  0.70755326019E+03  0.70755326021E+03  0.50400000000E-02 0.  1.
         -1   -1    0    0    0  501 -0.00000000000E+00 -0.00000000000E+00 -0.23516440225E+02  0.23516440766E+02  0.50400000000E-02 0. -1.
    5000001    1    1    2    0    0 -0.38240676654E+02  0.59006830743E+02  0.55719744010E+03  0.56687048139E+03  0.77000000000E+02 0.  0.
   -5000001    1    1    2    0    0  0.38240676654E+02 -0.59006830743E+02  0.12683937987E+03  0.16419921958E+03  0.77000000000E+02 0.  0.
<mgrwt>
<rscale>  0 0.25798554E+03</rscale>
<asrwt>0</asrwt>
<pdfrwt beam="1">  1        1 0.10107903E+00 0.25798554E+03</pdfrwt>
<pdfrwt beam="2">  1       -1 0.33594917E-02 0.25798554E+03</pdfrwt>
<totfact> 0.97972221E+03</totfact>
</mgrwt>
</event>
<event>
 4    1  0.3352993E-004  0.1652512E+03  0.7818608E-02  0.1182893E+00
         -1   -1    0    0    0  501 -0.00000000000E+00  0.00000000000E+00  0.35385973333E+03  0.35385973337E+03  0.50400000000E-02 0.  1.
          1   -1    0    0  501    0  0.00000000000E+00 -0.00000000000E+00 -0.19292921599E+02  0.19292922257E+02  0.50400000000E-02 0. -1.
    5000001    1    1    2    0    0  0.63022700760E+01 -0.29177474671E+02  0.17323406572E+03  0.19191165978E+03  0.77000000000E+02 0.  0.
   -5000001    1    1    2    0    0 -0.63022700760E+01  0.29177474671E+02  0.16133274602E+03  0.18124099584E+03  0.77000000000E+02 0.  0.
<mgrwt>
<rscale>  0 0.16525118E+03</rscale>
<asrwt>0</asrwt>
<pdfrwt beam="1">  1        1 0.27561316E-02 0.16525118E+03</pdfrwt>
<pdfrwt beam="2">  1       -1 0.50551393E-01 0.16525118E+03</pdfrwt>
<totfact> 0.14732768E+04</totfact>
</mgrwt>
</event>
<event>
 4    1  0.3352993E-004  0.4780541E+03  0.7818608E-02  0.1019671E+00
         -1   -1    0    0    0  501 -0.00000000000E+00  0.00000000000E+00  0.95348265222E+02  0.95348265355E+02  0.50400000000E-02 0. -1.
          1   -1    0    0  501    0  0.00000000000E+00 -0.00000000000E+00 -0.59921317570E+03  0.59921317572E+03  0.50400000000E-02 0.  1.
    5000001    1    1    2    0    0  0.20044462104E+03  0.84442814085E+02 -0.34262255902E+03  0.41307124434E+03  0.77000000000E+02 0.  0.
   -5000001    1    1    2    0    0 -0.20044462104E+03 -0.84442814085E+02 -0.16124235145E+03  0.28149019673E+03  0.77000000000E+02 0.  0.
<mgrwt>
<rscale>  0 0.47805413E+03</rscale>
<asrwt>0</asrwt>
<pdfrwt beam="1">  1        1 0.85601880E-01 0.47805413E+03</pdfrwt>
<pdfrwt beam="2">  1       -1 0.13621181E-01 0.47805413E+03</pdfrwt>
<totfact> 0.14688147E+03</totfact>
</mgrwt>
</event>
<event>
 4    1  0.3352993E-004  0.4619557E+03  0.7818608E-02  0.1024216E+00
         -1   -1    0    0    0  501 -0.00000000000E+00  0.00000000000E+00  0.36836754432E+02  0.36836754777E+02  0.50400000000E-02 0. -1.
          1   -1    0    0  501    0  0.00000000000E+00 -0.00000000000E+00 -0.14483025580E+04  0.14483025580E+04  0.50400000000E-02 0.  1.
    5000001    1    1    2    0    0  0.20167244737E+03  0.97967975957E+01 -0.96797878592E+03  0.99180627305E+03  0.77000000000E+02 0.  0.
   -5000001    1    1    2    0    0 -0.20167244737E+03 -0.97967975957E+01 -0.44348701763E+03  0.49333303972E+03  0.77000000000E+02 0.  0.
<mgrwt>
<rscale>  0 0.46195569E+03</rscale>
<asrwt>0</asrwt>
<pdfrwt beam="1">  1        1 0.20690033E+00 0.46195569E+03</pdfrwt>
<pdfrwt beam="2">  1       -1 0.52623944E-02 0.46195569E+03</pdfrwt>
<totfact> 0.14745417E+03</totfact>
</mgrwt>
</event>
<event>
 4    1  0.3352993E-004  0.1911818E+03  0.7818608E-02  0.1157400E+00
          1   -1    0    0  501    0  0.00000000000E+00  0.00000000000E+00  0.96533225795E+01  0.96533238951E+01  0.50400000000E-02 0.  1.
         -1   -1    0    0    0  501 -0.00000000000E+00 -0.00000000000E+00 -0.94657813590E+03  0.94657813591E+03  0.50400000000E-02 0. -1.
    5000001    1    1    2    0    0  0.11201588955E+02  0.55453668757E+02 -0.45428039756E+03  0.46422006051E+03  0.77000000000E+02 0.  0.
   -5000001    1    1    2    0    0 -0.11201588955E+02 -0.55453668757E+02 -0.48264441576E+03  0.49201139930E+03  0.77000000000E+02 0.  0.
<mgrwt>
<rscale>  0 0.19118185E+03</rscale>
<asrwt>0</asrwt>
<pdfrwt beam="1">  1        1 0.13790468E-02 0.19118185E+03</pdfrwt>
<pdfrwt beam="2">  1       -1 0.13522539E+00 0.19118185E+03</pdfrwt>
<totfact> 0.49539493E+03</totfact>
</mgrwt>
</event>
<event>
 4    1  0.3352993E-004  0.2320407E+03  0.7818608E-02  0.1125212E+00
          1   -1    0    0  501    0  0.00000000000E+00  0.00000000000E+00  0.99207125305E+02  0.99207125433E+02  0.50400000000E-02 0.  1.
         -1   -1    0    0    0  501 -0.00000000000E+00 -0.00000000000E+00 -0.13568303160E+03  0.13568303169E+03  0.50400000000E-02 0. -1.
    5000001    1    1    2    0    0  0.68840845372E+02 -0.43989600084E+02 -0.47881972683E+02  0.12204847486E+03  0.77000000000E+02 0.  0.
   -5000001    1    1    2    0    0 -0.68840845372E+02  0.43989600084E+02  0.11406066387E+02  0.11284168227E+03  0.77000000000E+02 0.  0.
<mgrwt>
<rscale>  0 0.23204072E+03</rscale>
<asrwt>0</asrwt>
<pdfrwt beam="1">  1        1 0.14172447E-01 0.23204072E+03</pdfrwt>
<pdfrwt beam="2">  1       -1 0.19383290E-01 0.23204072E+03</pdfrwt>
<totfact> 0.83599320E+03</totfact>
</mgrwt>
</event>
<event>
 4    1  0.3352993E-004  0.2140606E+03  0.7818608E-02  0.1138390E+00
         -1   -1    0    0    0  501 -0.00000000000E+00  0.00000000000E+00  0.18353686271E+02  0.18353686963E+02  0.50400000000E-02 0. -1.
          1   -1    0    0  501    0  0.00000000000E+00 -0.00000000000E+00 -0.62415199741E+03  0.62415199743E+03  0.50400000000E-02 0.  1.
    5000001    1    1    2    0    0  0.58326937768E+02  0.42724214751E+02 -0.25098947798E+03  0.27230884718E+03  0.77000000000E+02 0.  0.
   -5000001    1    1    2    0    0 -0.58326937768E+02 -0.42724214751E+02 -0.35480883316E+03  0.37019683722E+03  0.77000000000E+02 0.  0.
<mgrwt>
<rscale>  0 0.21406065E+03</rscale>
<asrwt>0</asrwt>
<pdfrwt beam="1">  1        1 0.89164557E-01 0.21406065E+03</pdfrwt>
<pdfrwt beam="2">  1       -1 0.26219556E-02 0.21406065E+03</pdfrwt>
<totfact> 0.16647295E+04</totfact>
</mgrwt>
</event>
<event>
 4    1  0.3352993E-004  0.1894143E+03  0.7818608E-02  0.1158991E+00
         -1   -1    0    0    0  501 -0.00000000000E+00  0.00000000000E+00  0.46813019980E+02  0.46813020251E+02  0.50400000000E-02 0. -1.
          1   -1    0    0  501    0  0.00000000000E+00 -0.00000000000E+00 -0.19160142565E+03  0.19160142572E+03  0.50400000000E-02 0.  1.
    5000001    1    1    2    0    0  0.49534262396E+02  0.11185994289E+02 -0.45349230564E+02  0.10278288930E+03  0.77000000000E+02 0.  0.
   -5000001    1    1    2    0    0 -0.49534262396E+02 -0.11185994289E+02 -0.99439175107E+02  0.13563155667E+03  0.77000000000E+02 0.  0.
<mgrwt>
<rscale>  0 0.18941427E+03</rscale>
<asrwt>0</asrwt>
<pdfrwt beam="1">  1        1 0.27371632E-01 0.18941427E+03</pdfrwt>
<pdfrwt beam="2">  1       -1 0.66875744E-02 0.18941427E+03</pdfrwt>
<totfact> 0.18505039E+04</totfact>
</mgrwt>
</event>
<event>
 4    1  0.3352993E-004  0.2185639E+03  0.7818608E-02  0.1134958E+00
         -1   -1    0    0    0  501 -0.00000000000E+00  0.00000000000E+00  0.21743919667E+02  0.21743920251E+02  0.50400000000E-02 0. -1.
          1   -1    0    0  501    0  0.00000000000E+00 -0.00000000000E+00 -0.54923597306E+03  0.54923597308E+03  0.50400000000E-02 0.  1.
    5000001    1    1    2    0    0 -0.71641985817E+02 -0.24636364364E+02 -0.30699067100E+03  0.32544092654E+03  0.77000000000E+02 0.  0.
   -5000001    1    1    2    0    0  0.71641985817E+02  0.24636364364E+02 -0.22050138239E+03  0.24553896680E+03  0.77000000000E+02 0.  0.
<mgrwt>
<rscale>  0 0.21856389E+03</rscale>
<asrwt>0</asrwt>
<pdfrwt beam="1">  1        1 0.78462273E-01 0.21856389E+03</pdfrwt>
<pdfrwt beam="2">  1       -1 0.31062746E-02 0.21856389E+03</pdfrwt>
<totfact> 0.15439560E+04</totfact>
</mgrwt>
</event>
<event>
 4    1  0.3352993E-004  0.1850448E+03  0.7818608E-02  0.1163008E+00
          1   -1    0    0  501    0  0.00000000000E+00  0.00000000000E+00  0.58255699225E+02  0.58255699443E+02  0.50400000000E-02 0.  1.
         -1   -1    0    0    0  501 -0.00000000000E+00 -0.00000000000E+00 -0.14694513754E+03  0.14694513763E+03  0.50400000000E-02 0. -1.
    5000001    1    1    2    0    0 -0.10829664060E+02  0.40567288865E+02 -0.77023325297E+02  0.11672437273E+03  0.77000000000E+02 0.  0.
   -5000001    1    1    2    0    0  0.10829664060E+02 -0.40567288865E+02 -0.11666113022E+02  0.88476464342E+02  0.77000000000E+02 0.  0.
<mgrwt>
<rscale>  0 0.18504477E+03</rscale>
<asrwt>0</asrwt>
<pdfrwt beam="1">  1        1 0.83222428E-02 0.18504477E+03</pdfrwt>
<pdfrwt beam="2">  1       -1 0.20992162E-01 0.18504477E+03</pdfrwt>
<totfact> 0.14698650E+04</totfact>
</mgrwt>
</event>
<event>
 4    1  0.3352993E-004  0.1934987E+03  0.7818608E-02  0.1155343E+00
         -1   -1    0    0    0  501 -0.00000000000E+00  0.00000000000E+00  0.42899032264E+01  0.42899061870E+01  0.50400000000E-02 0. -1.
          1   -1    0    0  501    0  0.00000000000E+00 -0.00000000000E+00 -0.21819682624E+04  0.21819682625E+04  0.50400000000E-02 0.  1.
    5000001    1    1    2    0    0  0.46034335259E+02 -0.97439453284E+01 -0.14830493558E+04  0.14857922117E+04  0.77000000000E+02 0.  0.
   -5000001    1    1    2    0    0 -0.46034335259E+02  0.97439453284E+01 -0.69462900340E+03  0.70046595696E+03  0.77000000000E+02 0.  0.
<mgrwt>
<rscale>  0 0.19349869E+03</rscale>
<asrwt>0</asrwt>
<pdfrwt beam="1">  1        1 0.31170904E+00 0.19349869E+03</pdfrwt>
<pdfrwt beam="2">  1       -1 0.61284492E-03 0.19349869E+03</pdfrwt>
<totfact> 0.12243450E+04</totfact>
</mgrwt>
</event>
<event>
 4    1  0.3352993E-004  0.2210575E+03  0.7818608E-02  0.1133097E+00
          1   -1    0    0  501    0  0.00000000000E+00  0.00000000000E+00  0.13655365297E+04  0.13655365297E+04  0.50400000000E-02 0. -1.
         -1   -1    0    0    0  501 -0.00000000000E+00 -0.00000000000E+00 -0.89463771388E+01  0.89463785585E+01  0.50400000000E-02 0.  1.
    5000001    1    1    2    0    0 -0.74552473534E+02 -0.10829945385E+02  0.52444514331E+03  0.53539431018E+03  0.77000000000E+02 0.  0.
   -5000001    1    1    2    0    0  0.74552473534E+02  0.10829945385E+02  0.83214500929E+03  0.83908859813E+03  0.77000000000E+02 0.  0.
<mgrwt>
<rscale>  0 0.22105751E+03</rscale>
<asrwt>0</asrwt>
<pdfrwt beam="1">  1        1 0.19507691E+00 0.22105751E+03</pdfrwt>
<pdfrwt beam="2">  1       -1 0.12780522E-02 0.22105751E+03</pdfrwt>
<totfact> 0.13407388E+04</totfact>
</mgrwt>
</event>
<event>
 4    1  0.3352993E-004  0.3912329E+03  0.7818608E-02  0.1046858E+00
         -1   -1    0    0    0  501 -0.00000000000E+00  0.00000000000E+00  0.26609617743E+03  0.26609617747E+03  0.50400000000E-02 0. -1.
          1   -1    0    0  501    0  0.00000000000E+00 -0.00000000000E+00 -0.14380439671E+03  0.14380439679E+03  0.50400000000E-02 0.  1.
    5000001    1    1    2    0    0 -0.14285815107E+03 -0.10552092976E+03  0.31629279442E+02  0.19614415429E+03  0.77000000000E+02 0.  0.
   -5000001    1    1    2    0    0  0.14285815107E+03  0.10552092976E+03  0.90662501278E+02  0.21375641998E+03  0.77000000000E+02 0.  0.
<mgrwt>
<rscale>  0 0.39123292E+03</rscale>
<asrwt>0</asrwt>
<pdfrwt beam="1">  1        1 0.20543485E-01 0.39123292E+03</pdfrwt>
<pdfrwt beam="2">  1       -1 0.38013740E-01 0.39123292E+03</pdfrwt>
<totfact> 0.16764388E+03</totfact>
</mgrwt>
</event>
<event>
 4    1  0.3352993E-004  0.1855359E+03  0.7818608E-02  0.1162550E+00
          1   -1    0    0  501    0  0.00000000000E+00  0.00000000000E+00  0.37111974597E+03  0.37111974601E+03  0.50400000000E-02 0. -1.
         -1   -1    0    0    0  501 -0.00000000000E+00 -0.00000000000E+00 -0.23188991753E+02  0.23188992301E+02  0.50400000000E-02 0.  1.
    5000001    1    1    2    0    0  0.38949097406E+02 -0.21889829142E+02  0.22941327031E+03  0.24608056689E+03  0.77000000000E+02 0.  0.
   -5000001    1    1    2    0    0 -0.38949097406E+02  0.21889829142E+02  0.11851748391E+03  0.14822817142E+03  0.77000000000E+02 0.  0.
<mgrwt>
<rscale>  0 0.18553590E+03</rscale>
<asrwt>0</asrwt>
<pdfrwt beam="1">  1        1 0.53017107E-01 0.18553590E+03</pdfrwt>
<pdfrwt beam="2">  1       -1 0.33127132E-02 0.18553590E+03</pdfrwt>
<totfact> 0.22973496E+04</totfact>
</mgrwt>
</event>
<event>
 4    1  0.3352993E-004  0.2584895E+03  0.7818608E-02  0.1108054E+00
         -1   -1    0    0    0  501 -0.00000000000E+00  0.00000000000E+00  0.48851972824E+02  0.48851973084E+02  0.50400000000E-02 0. -1.
          1   -1    0    0  501    0  0.00000000000E+00 -0.00000000000E+00 -0.34193523666E+03  0.34193523670E+03  0.50400000000E-02 0.  1.
    5000001    1    1    2    0    0  0.86873178323E+01  0.10157164999E+03 -0.17612608251E+03  0.21758140204E+03  0.77000000000E+02 0.  0.
   -5000001    1    1    2    0    0 -0.86873178323E+01 -0.10157164999E+03 -0.11695718133E+03  0.17320580774E+03  0.77000000000E+02 0.  0.
<mgrwt>
<rscale>  0 0.25848954E+03</rscale>
<asrwt>0</asrwt>
<pdfrwt beam="1">  1        1 0.48847890E-01 0.25848954E+03</pdfrwt>
<pdfrwt beam="2">  1       -1 0.69788535E-02 0.25848954E+03</pdfrwt>
<totfact> 0.85575512E+03</totfact>
</mgrwt>
</event>
<event>
 4    1  0.3352993E-004  0.4784404E+03  0.7818608E-02  0.1019565E+00
         -1   -1    0    0    0  501 -0.00000000000E+00  0.00000000000E+00  0.65020099810E+02  0.65020100005E+02  0.50400000000E-02 0. -1.
          1   -1    0    0  501    0  0.00000000000E+00 -0.00000000000E+00 -0.88013262934E+03  0.88013262936E+03  0.50400000000E-02 0.  1.
    5000001    1    1    2    0    0  0.22357110545E+02  0.15357634060E+03 -0.81680108425E+02  0.19153634876E+03  0.77000000000E+02 0.  0.
   -5000001    1    1    2    0    0 -0.22357110545E+02 -0.15357634060E+03 -0.73343242111E+03  0.75361638060E+03  0.77000000000E+02 0.  0.
<mgrwt>
<rscale>  0 0.47844043E+03</rscale>
<asrwt>0</asrwt>
<pdfrwt beam="1">  1        1 0.12573323E+00 0.47844043E+03</pdfrwt>
<pdfrwt beam="2">  1       -1 0.92885862E-02 0.47844043E+03</pdfrwt>
<totfact> 0.15244795E+03</totfact>
</mgrwt>
</event>
<event>
 4    1  0.3352993E-004  0.2479527E+03  0.7818608E-02  0.1114606E+00
         -1   -1    0    0    0  501 -0.00000000000E+00  0.00000000000E+00  0.13903717491E+02  0.13903718405E+02  0.50400000000E-02 0.  1.
          1   -1    0    0  501    0  0.00000000000E+00 -0.00000000000E+00 -0.11054690328E+04  0.11054690328E+04  0.50400000000E-02 0. -1.
    5000001    1    1    2    0    0  0.59957841139E+02 -0.71348713457E+02 -0.66987272074E+03  0.68069379578E+03  0.77000000000E+02 0.  0.
   -5000001    1    1    2    0    0 -0.59957841139E+02  0.71348713457E+02 -0.42169259458E+03  0.43867895545E+03  0.77000000000E+02 0.  0.
<mgrwt>
<rscale>  0 0.24795265E+03</rscale>
<asrwt>0</asrwt>
<pdfrwt beam="1">  1        1 0.15792409E+00 0.24795265E+03</pdfrwt>
<pdfrwt beam="2">  1       -1 0.19862461E-02 0.24795265E+03</pdfrwt>
<totfact> 0.10527264E+04</totfact>
</mgrwt>
</event>
<event>
 4    1  0.3352993E-004  0.1754264E+03  0.7818608E-02  0.1172304E+00
         -1   -1    0    0    0  501 -0.00000000000E+00  0.00000000000E+00  0.14462939669E+02  0.14462940547E+02  0.50400000000E-02 0. -1.
          1   -1    0    0  501    0  0.00000000000E+00 -0.00000000000E+00 -0.53195293391E+03  0.53195293393E+03  0.50400000000E-02 0.  1.
    5000001    1    1    2    0    0 -0.20558317947E+02 -0.26794088179E+02 -0.33655459658E+03  0.34689849247E+03  0.77000000000E+02 0.  0.
   -5000001    1    1    2    0    0  0.20558317947E+02  0.26794088179E+02 -0.18093539766E+03  0.19951738201E+03  0.77000000000E+02 0.  0.
<mgrwt>
<rscale>  0 0.17542638E+03</rscale>
<asrwt>0</asrwt>
<pdfrwt beam="1">  1        1 0.75993264E-01 0.17542638E+03</pdfrwt>
<pdfrwt beam="2">  1       -1 0.20661346E-02 0.17542638E+03</pdfrwt>
<totfact> 0.28747338E+04</totfact>
</mgrwt>
</event>
<event>
 4    1  0.3352993E-004  0.3941335E+03  0.7818608E-02  0.1045830E+00
         -1   -1    0    0    0  501 -0.00000000000E+00  0.00000000000E+00  0.36640824694E+02  0.36640825041E+02  0.50400000000E-02 0.  1.
          1   -1    0    0  501    0  0.00000000000E+00 -0.00000000000E+00 -0.10598914397E+04  0.10598914397E+04  0.50400000000E-02 0. -1.
    5000001    1    1    2    0    0  0.13101139454E+03 -0.10881374049E+03 -0.68541143932E+03  0.71043807384E+03  0.77000000000E+02 0.  0.
   -5000001    1    1    2    0    0 -0.13101139454E+03  0.10881374049E+03 -0.33783917565E+03  0.38609419087E+03  0.77000000000E+02 0.  0.
<mgrwt>
<rscale>  0 0.39413346E+03</rscale>
<asrwt>0</asrwt>
<pdfrwt beam="1">  1        1 0.15141304E+00 0.39413346E+03</pdfrwt>
<pdfrwt beam="2">  1       -1 0.52344042E-02 0.39413346E+03</pdfrwt>
<totfact> 0.27083295E+03</totfact>
</mgrwt>
</event>
<event>
 4    1  0.3352993E-004  0.2557287E+03  0.7818608E-02  0.1109737E+00
         -1   -1    0    0    0  501 -0.00000000000E+00  0.00000000000E+00  0.12123902923E+03  0.12123902933E+03  0.50400000000E-02 0.  1.
          1   -1    0    0  501    0  0.00000000000E+00 -0.00000000000E+00 -0.13485173951E+03  0.13485173961E+03  0.50400000000E-02 0. -1.
    5000001    1    1    2    0    0 -0.45066624068E+02 -0.73496138967E+02 -0.61542782664E+02  0.13095494319E+03  0.77000000000E+02 0.  0.
   -5000001    1    1    2    0    0  0.45066624068E+02  0.73496138967E+02  0.47930072382E+02  0.12513582575E+03  0.77000000000E+02 0.  0.
<mgrwt>
<rscale>  0 0.25572872E+03</rscale>
<asrwt>0</asrwt>
<pdfrwt beam="1">  1        1 0.19264534E-01 0.25572872E+03</pdfrwt>
<pdfrwt beam="2">  1       -1 0.17319861E-01 0.25572872E+03</pdfrwt>
<totfact> 0.67509642E+03</totfact>
</mgrwt>
</event>
<event>
 4    1  0.3352993E-004  0.2501398E+03  0.7818608E-02  0.1113217E+00
         -1   -1    0    0    0  501 -0.00000000000E+00  0.00000000000E+00  0.49440069152E+02  0.49440069409E+02  0.50400000000E-02 0.  1.
          1   -1    0    0  501    0  0.00000000000E+00 -0.00000000000E+00 -0.31639271751E+03  0.31639271755E+03  0.50400000000E-02 0. -1.
    5000001    1    1    2    0    0  0.72853015473E+02  0.26126201948E+02 -0.22271766007E+03  0.24803688516E+03  0.77000000000E+02 0.  0.
   -5000001    1    1    2    0    0 -0.72853015473E+02 -0.26126201948E+02 -0.44234988285E+02  0.11779590180E+03  0.77000000000E+02 0.  0.
<mgrwt>
<rscale>  0 0.25013978E+03</rscale>
<asrwt>0</asrwt>
<pdfrwt beam="1">  1        1 0.45198959E-01 0.25013978E+03</pdfrwt>
<pdfrwt beam="2">  1       -1 0.70628672E-02 0.25013978E+03</pdfrwt>
<totfact> 0.92510801E+03</totfact>
</mgrwt>
</event>
<event>
 4    1  0.3352993E-004  0.1771748E+03  0.7818608E-02  0.1170566E+00
         -1   -1    0    0    0  501 -0.00000000000E+00  0.00000000000E+00  0.11195213417E+02  0.11195214552E+02  0.50400000000E-02 0. -1.
          1   -1    0    0  501    0  0.00000000000E+00 -0.00000000000E+00 -0.70098972054E+03  0.70098972055E+03  0.50400000000E-02 0.  1.
    5000001    1    1    2    0    0  0.39088793196E+02  0.16112947465E+02 -0.29886030381E+03  0.31150287643E+03  0.77000000000E+02 0.  0.
   -5000001    1    1    2    0    0 -0.39088793196E+02 -0.16112947465E+02 -0.39093420331E+03  0.40068205868E+03  0.77000000000E+02 0.  0.
<mgrwt>
<rscale>  0 0.17717483E+03</rscale>
<asrwt>0</asrwt>
<pdfrwt beam="1">  1        1 0.10014136E+00 0.17717483E+03</pdfrwt>
<pdfrwt beam="2">  1       -1 0.15993167E-02 0.17717483E+03</pdfrwt>
<totfact> 0.28685679E+04</totfact>
</mgrwt>
</event>
<event>
 4    1  0.3352993E-004  0.4946158E+03  0.7818608E-02  0.1015194E+00
          1   -1    0    0  501    0  0.00000000000E+00  0.00000000000E+00  0.27157305154E+03  0.27157305158E+03  0.50400000000E-02 0.  1.
         -1   -1    0    0    0  501 -0.00000000000E+00 -0.00000000000E+00 -0.22521087497E+03  0.22521087503E+03  0.50400000000E-02 0. -1.
    5000001    1    1    2    0    0  0.11087240288E+03 -0.20713200427E+03  0.29194625000E+02  0.24895317440E+03  0.77000000000E+02 0.  0.
   -5000001    1    1    2    0    0 -0.11087240288E+03  0.20713200427E+03  0.17167551564E+02  0.24783075221E+03  0.77000000000E+02 0.  0.
<mgrwt>
<rscale>  0 0.49461583E+03</rscale>
<asrwt>0</asrwt>
<pdfrwt beam="1">  1        1 0.38796150E-01 0.49461583E+03</pdfrwt>
<pdfrwt beam="2">  1       -1 0.32172982E-01 0.49461583E+03</pdfrwt>
<totfact> 0.99342175E+02</totfact>
</mgrwt>
</event>
<event>
 4    1  0.3352993E-004  0.1580732E+03  0.7818608E-02  0.1190889E+00
         -1   -1    0    0    0  501 -0.00000000000E+00  0.00000000000E+00  0.10459559944E+03  0.10459559956E+03  0.50400000000E-02 0. -1.
          1   -1    0    0  501    0  0.00000000000E+00 -0.00000000000E+00 -0.59723184166E+02  0.59723184379E+02  0.50400000000E-02 0.  1.
    5000001    1    1    2    0    0 -0.11764982975E+02 -0.17455384916E+01  0.86329849714E+01  0.78389987617E+02  0.77000000000E+02 0.  0.
   -5000001    1    1    2    0    0  0.11764982975E+02  0.17455384916E+01  0.36239430303E+02  0.85928796324E+02  0.77000000000E+02 0.  0.
<mgrwt>
<rscale>  0 0.15807318E+03</rscale>
<asrwt>0</asrwt>
<pdfrwt beam="1">  1        1 0.85318834E-02 0.15807318E+03</pdfrwt>
<pdfrwt beam="2">  1       -1 0.14942229E-01 0.15807318E+03</pdfrwt>
<totfact> 0.24114293E+04</totfact>
</mgrwt>
</event>
<event>
 4    1  0.3352993E-004  0.1985560E+03  0.7818608E-02  0.1150963E+00
          1   -1    0    0  501    0  0.00000000000E+00  0.00000000000E+00  0.73798520798E+03  0.73798520800E+03  0.50400000000E-02 0. -1.
         -1   -1    0    0    0  501 -0.00000000000E+00 -0.00000000000E+00 -0.13355449461E+02  0.13355450412E+02  0.50400000000E-02 0.  1.
    5000001    1    1    2    0    0  0.42590486747E+02 -0.26649511266E+02  0.50405059875E+03  0.51236720437E+03  0.77000000000E+02 0.  0.
   -5000001    1    1    2    0    0 -0.42590486747E+02  0.26649511266E+02  0.22057915977E+03  0.23897345404E+03  0.77000000000E+02 0.  0.
<mgrwt>
<rscale>  0 0.19855603E+03</rscale>
<asrwt>0</asrwt>
<pdfrwt beam="1">  1        1 0.10542649E+00 0.19855603E+03</pdfrwt>
<pdfrwt beam="2">  1       -1 0.19079209E-02 0.19855603E+03</pdfrwt>
<totfact> 0.20829474E+04</totfact>
</mgrwt>
</event>
<event>
 4    1  0.3352993E-004  0.1842204E+03  0.7818608E-02  0.1163780E+00
          1   -1    0    0  501    0  0.00000000000E+00  0.00000000000E+00  0.14434225476E+03  0.14434225485E+03  0.50400000000E-02 0. -1.
         -1   -1    0    0    0  501 -0.00000000000E+00 -0.00000000000E+00 -0.58778963439E+02  0.58778963655E+02  0.50400000000E-02 0.  1.
    5000001    1    1    2    0    0  0.57476514516E+01  0.49616222942E+02  0.51356653121E+02  0.10517276689E+03  0.77000000000E+02 0.  0.
   -5000001    1    1    2    0    0 -0.57476514516E+01 -0.49616222942E+02  0.34206638205E+02  0.97948451613E+02  0.77000000000E+02 0.  0.
<mgrwt>
<rscale>  0 0.18422039E+03</rscale>
<asrwt>0</asrwt>
<pdfrwt beam="1">  1        1 0.20620322E-01 0.18422039E+03</pdfrwt>
<pdfrwt beam="2">  1       -1 0.83969948E-02 0.18422039E+03</pdfrwt>
<totfact> 0.18733518E+04</totfact>
</mgrwt>
</event>
<event>
 4    1  0.3352993E-004  0.2838811E+03  0.7818608E-02  0.1093588E+00
         -1   -1    0    0    0  501 -0.00000000000E+00  0.00000000000E+00  0.18298665167E+02  0.18298665861E+02  0.50400000000E-02 0. -1.
          1   -1    0    0  501    0  0.00000000000E+00 -0.00000000000E+00 -0.11010155153E+04  0.11010155153E+04  0.50400000000E-02 0.  1.
    5000001    1    1    2    0    0  0.26916093827E+02  0.48462051346E+02 -0.12510583848E+03  0.15701438581E+03  0.77000000000E+02 0.  0.
   -5000001    1    1    2    0    0 -0.26916093827E+02 -0.48462051346E+02 -0.95761101166E+03  0.96229979538E+03  0.77000000000E+02 0.  0.
<mgrwt>
<rscale>  0 0.28388106E+03</rscale>
<asrwt>0</asrwt>
<pdfrwt beam="1">  1        1 0.15728789E+00 0.28388106E+03</pdfrwt>
<pdfrwt beam="2">  1       -1 0.26140958E-02 0.28388106E+03</pdfrwt>
<totfact> 0.71172006E+03</totfact>
</mgrwt>
</event>
<event>
 4    1  0.3352993E-004  0.1847300E+03  0.7818608E-02  0.1163302E+00
          1   -1    0    0  501    0  0.00000000000E+00  0.00000000000E+00  0.73501949920E+03  0.73501949921E+03  0.50400000000E-02 0. -1.
         -1   -1    0    0    0  501 -0.00000000000E+00 -0.00000000000E+00 -0.11606895510E+02  0.11606896605E+02  0.50400000000E-02 0.  1.
    5000001    1    1    2    0    0 -0.20035260036E+02  0.32558038451E+02  0.49822167261E+03  0.50558409051E+03  0.77000000000E+02 0.  0.
   -5000001    1    1    2    0    0  0.20035260036E+02 -0.32558038451E+02  0.22519093108E+03  0.24104230531E+03  0.77000000000E+02 0.  0.
<mgrwt>
<rscale>  0 0.18473002E+03</rscale>
<asrwt>0</asrwt>
<pdfrwt beam="1">  1        1 0.10500276E+00 0.18473002E+03</pdfrwt>
<pdfrwt beam="2">  1       -1 0.16581284E-02 0.18473002E+03</pdfrwt>
<totfact> 0.25540336E+04</totfact>
</mgrwt>
</event>
<event>
 4    1  0.3352993E-004  0.2411174E+03  0.7818608E-02  0.1119051E+00
         -1   -1    0    0    0  501 -0.00000000000E+00  0.00000000000E+00  0.47510650276E+02  0.47510650543E+02  0.50400000000E-02 0.  1.
          1   -1    0    0  501    0  0.00000000000E+00 -0.00000000000E+00 -0.30591873773E+03  0.30591873777E+03  0.50400000000E-02 0. -1.
    5000001    1    1    2    0    0 -0.74195844160E+02 -0.55659047279E+02 -0.13149621679E+03  0.17839060476E+03  0.77000000000E+02 0.  0.
   -5000001    1    1    2    0    0  0.74195844160E+02  0.55659047279E+02 -0.12691187066E+03  0.17503878356E+03  0.77000000000E+02 0.  0.
<mgrwt>
<rscale>  0 0.24111738E+03</rscale>
<asrwt>0</asrwt>
<pdfrwt beam="1">  1        1 0.43702676E-01 0.24111738E+03</pdfrwt>
<pdfrwt beam="2">  1       -1 0.67872359E-02 0.24111738E+03</pdfrwt>
<totfact> 0.10231277E+04</totfact>
</mgrwt>
</event>
<event>
 4    1  0.3352993E-004  0.2374724E+03  0.7818608E-02  0.1121488E+00
          1   -1    0    0  501    0  0.00000000000E+00  0.00000000000E+00  0.17352544739E+04  0.17352544739E+04  0.50400000000E-02 0.  1.
         -1   -1    0    0    0  501 -0.00000000000E+00 -0.00000000000E+00 -0.81246202930E+01  0.81246218562E+01  0.50400000000E-02 0. -1.
    5000001    1    1    2    0    0  0.86504278495E+01 -0.47591895944E+02  0.30304235709E+03  0.31639135363E+03  0.77000000000E+02 0.  0.
   -5000001    1    1    2    0    0 -0.86504278495E+01  0.47591895944E+02  0.14240874965E+04  0.14269877421E+04  0.77000000000E+02 0.  0.
<mgrwt>
<rscale>  0 0.23747240E+03</rscale>
<asrwt>0</asrwt>
<pdfrwt beam="1">  1        1 0.24789345E+00 0.23747240E+03</pdfrwt>
<pdfrwt beam="2">  1       -1 0.11606604E-02 0.23747240E+03</pdfrwt>
<totfact> 0.91259347E+03</totfact>
</mgrwt>
</event>
<event>
 4    1  0.3352993E-004  0.1892963E+03  0.7818608E-02  0.1159098E+00
         -1   -1    0    0    0  501 -0.00000000000E+00  0.00000000000E+00  0.10878712991E+02  0.10878714159E+02  0.50400000000E-02 0.  1.
          1   -1    0    0  501    0  0.00000000000E+00 -0.00000000000E+00 -0.82346811465E+03  0.82346811467E+03  0.50400000000E-02 0. -1.
    5000001    1    1    2    0    0 -0.34520615089E+02 -0.30709708168E+00 -0.59523252599E+03  0.60118427056E+03  0.77000000000E+02 0.  0.
   -5000001    1    1    2    0    0  0.34520615089E+02  0.30709708168E+00 -0.21735687567E+03  0.23316255827E+03  0.77000000000E+02 0.  0.
<mgrwt>
<rscale>  0 0.18929632E+03</rscale>
<asrwt>0</asrwt>
<pdfrwt beam="1">  1        1 0.11763826E+00 0.18929632E+03</pdfrwt>
<pdfrwt beam="2">  1       -1 0.15541025E-02 0.18929632E+03</pdfrwt>
<totfact> 0.23800883E+04</totfact>
</mgrwt>
</event>
<event>
 4    1  0.3352993E-004  0.1906610E+03  0.7818608E-02  0.1157866E+00
         -1   -1    0    0    0  501 -0.00000000000E+00  0.00000000000E+00  0.34728957851E+02  0.34728958216E+02  0.50400000000E-02 0. -1.
          1   -1    0    0  501    0  0.00000000000E+00 -0.00000000000E+00 -0.26168096560E+03  0.26168096565E+03  0.50400000000E-02 0.  1.
    5000001    1    1    2    0    0 -0.22909158015E+02 -0.22636969491E+02 -0.18508493611E+03  0.20303372991E+03  0.77000000000E+02 0.  0.
   -5000001    1    1    2    0    0  0.22909158015E+02  0.22636969491E+02 -0.41867071639E+02  0.93376193949E+02  0.77000000000E+02 0.  0.
<mgrwt>
<rscale>  0 0.19066103E+03</rscale>
<asrwt>0</asrwt>
<pdfrwt beam="1">  1        1 0.37382994E-01 0.19066103E+03</pdfrwt>
<pdfrwt beam="2">  1       -1 0.49612799E-02 0.19066103E+03</pdfrwt>
<totfact> 0.19600248E+04</totfact>
</mgrwt>
</event>
<event>
 4    1  0.3352993E-004  0.1793215E+03  0.7818608E-02  0.1168461E+00
          1   -1    0    0  501    0  0.00000000000E+00  0.00000000000E+00  0.30579800777E+03  0.30579800781E+03  0.50400000000E-02 0. -1.
         -1   -1    0    0    0  501 -0.00000000000E+00 -0.00000000000E+00 -0.26288763738E+02  0.26288764221E+02  0.50400000000E-02 0.  1.
    5000001    1    1    2    0    0 -0.21676368065E+02  0.40055261907E+02  0.12867985808E+03  0.15672203040E+03  0.77000000000E+02 0.  0.
   -5000001    1    1    2    0    0  0.21676368065E+02 -0.40055261907E+02  0.15082938595E+03  0.17536474163E+03  0.77000000000E+02 0.  0.
<mgrwt>
<rscale>  0 0.17932152E+03</rscale>
<asrwt>0</asrwt>
<pdfrwt beam="1">  1        1 0.43685429E-01 0.17932152E+03</pdfrwt>
<pdfrwt beam="2">  1       -1 0.37555378E-02 0.17932152E+03</pdfrwt>
<totfact> 0.24258615E+04</totfact>
</mgrwt>
</event>
<event>
 4    1  0.3352993E-004  0.1921252E+03  0.7818608E-02  0.1156558E+00
          1   -1    0    0  501    0  0.00000000000E+00  0.00000000000E+00  0.85597262267E+03  0.85597262268E+03  0.50400000000E-02 0. -1.
         -1   -1    0    0    0  501 -0.00000000000E+00 -0.00000000000E+00 -0.10780741769E+02  0.10780742947E+02  0.50400000000E-02 0.  1.
    5000001    1    1    2    0    0 -0.52833014283E+02 -0.62000809670E+01  0.52032288022E+03  0.52867255280E+03  0.77000000000E+02 0.  0.
   -5000001    1    1    2    0    0  0.52833014283E+02  0.62000809670E+01  0.32486900068E+03  0.33808081283E+03  0.77000000000E+02 0.  0.
<mgrwt>
<rscale>  0 0.19212517E+03</rscale>
<asrwt>0</asrwt>
<pdfrwt beam="1">  1        1 0.12228174E+00 0.19212517E+03</pdfrwt>
<pdfrwt beam="2">  1       -1 0.15401068E-02 0.19212517E+03</pdfrwt>
<totfact> 0.22771388E+04</totfact>
</mgrwt>
</event>
<event>
 4    1  0.3352993E-004  0.2156435E+03  0.7818608E-02  0.1137173E+00
          1   -1    0    0  501    0  0.00000000000E+00  0.00000000000E+00  0.38492092297E+03  0.38492092300E+03  0.50400000000E-02 0.  1.
         -1   -1    0    0    0  501 -0.00000000000E+00 -0.00000000000E+00 -0.30202382847E+02  0.30202383267E+02  0.50400000000E-02 0. -1.
    5000001    1    1    2    0    0  0.13253682426E+02 -0.63541159219E+02  0.10321656055E+03  0.14420748033E+03  0.77000000000E+02 0.  0.
   -5000001    1    1    2    0    0 -0.13253682426E+02  0.63541159219E+02  0.25150197957E+03  0.27091582594E+03  0.77000000000E+02 0.  0.
<mgrwt>
<rscale>  0 0.21564349E+03</rscale>
<asrwt>0</asrwt>
<pdfrwt beam="1">  1        1 0.54988699E-01 0.21564349E+03</pdfrwt>
<pdfrwt beam="2">  1       -1 0.43146265E-02 0.21564349E+03</pdfrwt>
<totfact> 0.15014648E+04</totfact>
</mgrwt>
</event>
<event>
 4    1  0.3352993E-004  0.2346938E+03  0.7818608E-02  0.1123379E+00
         -1   -1    0    0    0  501 -0.00000000000E+00  0.00000000000E+00  0.99656682883E+03  0.99656682884E+03  0.50400000000E-02 0. -1.
          1   -1    0    0  501    0  0.00000000000E+00 -0.00000000000E+00 -0.13817728306E+02  0.13817729225E+02  0.50400000000E-02 0.  1.
    5000001    1    1    2    0    0 -0.83711339655E+02 -0.12922428402E+01  0.61555554666E+03  0.62597674821E+03  0.77000000000E+02 0.  0.
   -5000001    1    1    2    0    0  0.83711339655E+02  0.12922428402E+01  0.36719355386E+03  0.38440780985E+03  0.77000000000E+02 0.  0.
<mgrwt>
<rscale>  0 0.23469376E+03</rscale>
<asrwt>0</asrwt>
<pdfrwt beam="1">  1        1 0.19739610E-02 0.23469376E+03</pdfrwt>
<pdfrwt beam="2">  1       -1 0.14236671E+00 0.23469376E+03</pdfrwt>
<totfact> 0.26504893E+03</totfact>
</mgrwt>
</event>
<event>
 4    1  0.3352993E-004  0.2981564E+03  0.7818608E-02  0.1086166E+00
         -1   -1    0    0    0  501 -0.00000000000E+00  0.00000000000E+00  0.95493440216E+02  0.95493440349E+02  0.50400000000E-02 0. -1.
          1   -1    0    0  501    0  0.00000000000E+00 -0.00000000000E+00 -0.23273131610E+03  0.23273131615E+03  0.50400000000E-02 0.  1.
    5000001    1    1    2    0    0 -0.11626328283E+03 -0.15652197561E+02 -0.13212595592E+02  0.14094578712E+03  0.77000000000E+02 0.  0.
   -5000001    1    1    2    0    0  0.11626328283E+03  0.15652197561E+02 -0.12402528029E+03  0.18727896939E+03  0.77000000000E+02 0.  0.
<mgrwt>
<rscale>  0 0.29815643E+03</rscale>
<asrwt>0</asrwt>
<pdfrwt beam="1">  1        1 0.33247331E-01 0.29815643E+03</pdfrwt>
<pdfrwt beam="2">  1       -1 0.13641920E-01 0.29815643E+03</pdfrwt>
<totfact> 0.49532115E+03</totfact>
</mgrwt>
</event>
<event>
 4    1  0.3352993E-004  0.2638841E+03  0.7818608E-02  0.1104832E+00
         -1   -1    0    0    0  501 -0.00000000000E+00  0.00000000000E+00  0.97962224084E+01  0.97962237049E+01  0.50400000000E-02 0. -1.
          1   -1    0    0  501    0  0.00000000000E+00 -0.00000000000E+00 -0.17770830824E+04  0.17770830824E+04  0.50400000000E-02 0.  1.
    5000001    1    1    2    0    0  0.71211630521E+02 -0.62296366673E+01 -0.14240801387E+04  0.14279506806E+04  0.77000000000E+02 0.  0.
   -5000001    1    1    2    0    0 -0.71211630521E+02  0.62296366673E+01 -0.34320672126E+03  0.35892862551E+03  0.77000000000E+02 0.  0.
<mgrwt>
<rscale>  0 0.26388408E+03</rscale>
<asrwt>0</asrwt>
<pdfrwt beam="1">  1        1 0.25386881E+00 0.26388408E+03</pdfrwt>
<pdfrwt beam="2">  1       -1 0.13994616E-02 0.26388408E+03</pdfrwt>
<totfact> 0.65782789E+03</totfact>
</mgrwt>
</event>
<event>
 4    1  0.3352993E-004  0.4019740E+03  0.7818608E-02  0.1043098E+00
         -1   -1    0    0    0  501 -0.00000000000E+00  0.00000000000E+00  0.88807377546E+02  0.88807377689E+02  0.50400000000E-02 0. -1.
          1   -1    0    0  501    0  0.00000000000E+00 -0.00000000000E+00 -0.45486952217E+03  0.45486952220E+03  0.50400000000E-02 0.  1.
    5000001    1    1    2    0    0 -0.11180569146E+02  0.16074183251E+03 -0.58307033413E+02  0.18786072498E+03  0.77000000000E+02 0.  0.
   -5000001    1    1    2    0    0  0.11180569146E+02 -0.16074183251E+03 -0.30775511121E+03  0.35581617490E+03  0.77000000000E+02 0.  0.
<mgrwt>
<rscale>  0 0.40197398E+03</rscale>
<asrwt>0</asrwt>
<pdfrwt beam="1">  1        1 0.64981359E-01 0.40197398E+03</pdfrwt>
<pdfrwt beam="2">  1       -1 0.12686768E-01 0.40197398E+03</pdfrwt>
<totfact> 0.23809458E+03</totfact>
</mgrwt>
</event>
<event>
 4    1  0.3352993E-004  0.3307007E+03  0.7818608E-02  0.1070827E+00
          1   -1    0    0  501    0  0.00000000000E+00  0.00000000000E+00  0.34231275779E+02  0.34231276150E+02  0.50400000000E-02 0.  1.
         -1   -1    0    0    0  501 -0.00000000000E+00 -0.00000000000E+00 -0.79870656025E+03  0.79870656027E+03  0.50400000000E-02 0. -1.
    5000001    1    1    2    0    0  0.63999260265E+02  0.13158915126E+03 -0.38131342108E+03  0.41562066255E+03  0.77000000000E+02 0.  0.
   -5000001    1    1    2    0    0 -0.63999260265E+02 -0.13158915126E+03 -0.38316186339E+03  0.41731717387E+03  0.77000000000E+02 0.  0.
<mgrwt>
<rscale>  0 0.33070074E+03</rscale>
<asrwt>0</asrwt>
<pdfrwt beam="1">  1        1 0.48901828E-02 0.33070074E+03</pdfrwt>
<pdfrwt beam="2">  1       -1 0.11410093E+00 0.33070074E+03</pdfrwt>
<totfact> 0.12834599E+03</totfact>
</mgrwt>
</event>
<event>
 4    1  0.3352993E-004  0.2142468E+03  0.7818608E-02  0.1138246E+00
         -1   -1    0    0    0  501 -0.00000000000E+00  0.00000000000E+00  0.34519203142E+02  0.34519203509E+02  0.50400000000E-02 0.  1.
          1   -1    0    0  501    0  0.00000000000E+00 -0.00000000000E+00 -0.33243596401E+03  0.33243596405E+03  0.50400000000E-02 0. -1.
    5000001    1    1    2    0    0 -0.49608678874E+02  0.14703137245E+02 -0.57213749302E+02  0.10899365290E+03  0.77000000000E+02 0.  0.
   -5000001    1    1    2    0    0  0.49608678874E+02 -0.14703137245E+02 -0.24070301156E+03  0.25796151465E+03  0.77000000000E+02 0.  0.
<mgrwt>
<rscale>  0 0.21424682E+03</rscale>
<asrwt>0</asrwt>
<pdfrwt beam="1">  1        1 0.47490850E-01 0.21424682E+03</pdfrwt>
<pdfrwt beam="2">  1       -1 0.49313150E-02 0.21424682E+03</pdfrwt>
<totfact> 0.14793233E+04</totfact>
</mgrwt>
</event>
<event>
 4    1  0.3352993E-004  0.3740157E+03  0.7818608E-02  0.1053168E+00
          1   -1    0    0  501    0  0.00000000000E+00  0.00000000000E+00  0.12373817653E+03  0.12373817664E+03  0.50400000000E-02 0.  1.
         -1   -1    0    0    0  501 -0.00000000000E+00 -0.00000000000E+00 -0.28262856777E+03  0.28262856782E+03  0.50400000000E-02 0. -1.
    5000001    1    1    2    0    0  0.10923380924E+03  0.12886851163E+03 -0.55057641103E+02  0.19364777875E+03  0.77000000000E+02 0.  0.
   -5000001    1    1    2    0    0 -0.10923380924E+03 -0.12886851163E+03 -0.10383275014E+03  0.21271896571E+03  0.77000000000E+02 0.  0.
<mgrwt>
<rscale>  0 0.37401574E+03</rscale>
<asrwt>0</asrwt>
<pdfrwt beam="1">  1        1 0.17676882E-01 0.37401574E+03</pdfrwt>
<pdfrwt beam="2">  1       -1 0.40375510E-01 0.37401574E+03</pdfrwt>
<totfact> 0.18310428E+03</totfact>
</mgrwt>
</event>
<event>
 4    1  0.3352993E-004  0.2003377E+03  0.7818608E-02  0.1149454E+00
         -1   -1    0    0    0  501 -0.00000000000E+00  0.00000000000E+00  0.13556424637E+02  0.13556425574E+02  0.50400000000E-02 0. -1.
          1   -1    0    0  501    0  0.00000000000E+00 -0.00000000000E+00 -0.74015061471E+03  0.74015061472E+03  0.50400000000E-02 0.  1.
    5000001    1    1    2    0    0 -0.25829136727E+02  0.57876407684E+02 -0.32800999956E+03  0.34283579551E+03  0.77000000000E+02 0.  0.
   -5000001    1    1    2    0    0  0.25829136727E+02 -0.57876407684E+02 -0.39858419051E+03  0.41087124479E+03  0.77000000000E+02 0.  0.
<mgrwt>
<rscale>  0 0.20033768E+03</rscale>
<asrwt>0</asrwt>
<pdfrwt beam="1">  1        1 0.10573578E+00 0.20033768E+03</pdfrwt>
<pdfrwt beam="2">  1       -1 0.19366326E-02 0.20033768E+03</pdfrwt>
<totfact> 0.20309038E+04</totfact>
</mgrwt>
</event>
<event>
 4    1  0.3352993E-004  0.2428589E+03  0.7818608E-02  0.1117903E+00
          1   -1    0    0  501    0  0.00000000000E+00  0.00000000000E+00  0.25436067344E+03  0.25436067349E+03  0.50400000000E-02 0. -1.
         -1   -1    0    0    0  501 -0.00000000000E+00 -0.00000000000E+00 -0.57969313645E+02  0.57969313864E+02  0.50400000000E-02 0.  1.
    5000001    1    1    2    0    0 -0.39070797811E+02  0.48547240406E+02  0.78714512111E+01  0.99369620794E+02  0.77000000000E+02 0.  0.
   -5000001    1    1    2    0    0  0.39070797811E+02 -0.48547240406E+02  0.18851990859E+03  0.21296036656E+03  0.77000000000E+02 0.  0.
<mgrwt>
<rscale>  0 0.24285892E+03</rscale>
<asrwt>0</asrwt>
<pdfrwt beam="1">  1        1 0.36337240E-01 0.24285892E+03</pdfrwt>
<pdfrwt beam="2">  1       -1 0.82813303E-02 0.24285892E+03</pdfrwt>
<totfact> 0.95307484E+03</totfact>
</mgrwt>
</event>
<event>
 4    1  0.3352993E-004  0.2483946E+03  0.7818608E-02  0.1114324E+00
         -1   -1    0    0    0  501 -0.00000000000E+00  0.00000000000E+00  0.79851743750E+01  0.79851759655E+01  0.50400000000E-02 0. -1.
          1   -1    0    0  501    0  0.00000000000E+00 -0.00000000000E+00 -0.19317013148E+04  0.19317013148E+04  0.50400000000E-02 0.  1.
    5000001    1    1    2    0    0 -0.12287484439E+02 -0.95515035374E+02 -0.84554252100E+03  0.85448537675E+03  0.77000000000E+02 0.  0.
   -5000001    1    1    2    0    0  0.12287484439E+02  0.95515035374E+02 -0.10781736194E+04  0.10852011140E+04  0.77000000000E+02 0.  0.
<mgrwt>
<rscale>  0 0.24839463E+03</rscale>
<asrwt>0</asrwt>
<pdfrwt beam="1">  1        1 0.27595703E+00 0.24839463E+03</pdfrwt>
<pdfrwt beam="2">  1       -1 0.11407405E-02 0.24839463E+03</pdfrwt>
<totfact> 0.71273422E+03</totfact>
</mgrwt>
</event>
<event>
 4    1  0.3352993E-004  0.1841396E+03  0.7818608E-02  0.1163856E+00
         -1   -1    0    0    0  501 -0.00000000000E+00  0.00000000000E+00  0.12655332051E+02  0.12655333055E+02  0.50400000000E-02 0. -1.
          1   -1    0    0  501    0  0.00000000000E+00 -0.00000000000E+00 -0.66982404411E+03  0.66982404413E+03  0.50400000000E-02 0.  1.
    5000001    1    1    2    0    0  0.52385815941E+01  0.31411554258E+02 -0.47373370253E+03  0.48100597646E+03  0.77000000000E+02 0.  0.
   -5000001    1    1    2    0    0 -0.52385815941E+01 -0.31411554258E+02 -0.18343500952E+03  0.20147340072E+03  0.77000000000E+02 0.  0.
<mgrwt>
<rscale>  0 0.18413958E+03</rscale>
<asrwt>0</asrwt>
<pdfrwt beam="1">  1        1 0.95689127E-01 0.18413958E+03</pdfrwt>
<pdfrwt beam="2">  1       -1 0.18079051E-02 0.18413958E+03</pdfrwt>
<totfact> 0.25680632E+04</totfact>
</mgrwt>
</event>
<event>
 4    1  0.3352993E-004  0.1847204E+03  0.7818608E-02  0.1163311E+00
         -1   -1    0    0    0  501 -0.00000000000E+00  0.00000000000E+00  0.11281194504E+02  0.11281195630E+02  0.50400000000E-02 0.  1.
          1   -1    0    0  501    0  0.00000000000E+00 -0.00000000000E+00 -0.75616147140E+03  0.75616147142E+03  0.50400000000E-02 0. -1.
    5000001    1    1    2    0    0 -0.48627801764E+02  0.17844474467E+01 -0.43593348647E+03  0.44534801221E+03  0.77000000000E+02 0.  0.
   -5000001    1    1    2    0    0  0.48627801764E+02 -0.17844474467E+01 -0.30894679043E+03  0.32209465483E+03  0.77000000000E+02 0.  0.
<mgrwt>
<rscale>  0 0.18472038E+03</rscale>
<asrwt>0</asrwt>
<pdfrwt beam="1">  1        1 0.10802304E+00 0.18472038E+03</pdfrwt>
<pdfrwt beam="2">  1       -1 0.16115998E-02 0.18472038E+03</pdfrwt>
<totfact> 0.25549795E+04</totfact>
</mgrwt>
</event>
<event>
 4    1  0.3352993E-004  0.4507275E+03  0.7818608E-02  0.1027505E+00
         -1   -1    0    0    0  501 -0.00000000000E+00  0.00000000000E+00  0.48955736836E+02  0.48955737095E+02  0.50400000000E-02 0. -1.
          1   -1    0    0  501    0  0.00000000000E+00 -0.00000000000E+00 -0.10374439040E+04  0.10374439040E+04  0.50400000000E-02 0.  1.
    5000001    1    1    2    0    0 -0.20153309654E+03  0.57717795667E+01 -0.33783411061E+03  0.40088625411E+03  0.77000000000E+02 0.  0.
   -5000001    1    1    2    0    0  0.20153309654E+03 -0.57717795667E+01 -0.65065405653E+03  0.68551338697E+03  0.77000000000E+02 0.  0.
<mgrwt>
<rscale>  0 0.45072755E+03</rscale>
<asrwt>0</asrwt>
<pdfrwt beam="1">  1        1 0.14820626E+00 0.45072755E+03</pdfrwt>
<pdfrwt beam="2">  1       -1 0.69936773E-02 0.45072755E+03</pdfrwt>
<totfact> 0.18049971E+03</totfact>
</mgrwt>
</event>
<event>
 4    1  0.3352993E-004  0.4918643E+03  0.7818608E-02  0.1015925E+00
          1   -1    0    0  501    0  0.00000000000E+00  0.00000000000E+00  0.42054641637E+03  0.42054641640E+03  0.50400000000E-02 0.  1.
         -1   -1    0    0    0  501 -0.00000000000E+00 -0.00000000000E+00 -0.14381911497E+03  0.14381911506E+03  0.50400000000E-02 0. -1.
    5000001    1    1    2    0    0 -0.10324674206E+03 -0.13843930470E+03 -0.42067778486E+02  0.19371119951E+03  0.77000000000E+02 0.  0.
   -5000001    1    1    2    0    0  0.10324674206E+03  0.13843930470E+03  0.31879507989E+03  0.37065433195E+03  0.77000000000E+02 0.  0.
<mgrwt>
<rscale>  0 0.49186426E+03</rscale>
<asrwt>0</asrwt>
<pdfrwt beam="1">  1        1 0.60078058E-01 0.49186426E+03</pdfrwt>
<pdfrwt beam="2">  1       -1 0.20545588E-01 0.49186426E+03</pdfrwt>
<totfact> 0.12107235E+03</totfact>
</mgrwt>
</event>
<event>
 4    1  0.3352993E-004  0.4896206E+03  0.7818608E-02  0.1016524E+00
          1   -1    0    0  501    0  0.00000000000E+00  0.00000000000E+00  0.19036827512E+03  0.19036827519E+03  0.50400000000E-02 0.  1.
         -1   -1    0    0    0  501 -0.00000000000E+00 -0.00000000000E+00 -0.31482183105E+03  0.31482183109E+03  0.50400000000E-02 0. -1.
    5000001    1    1    2    0    0 -0.10522878284E+03 -0.18649437212E+03  0.30920402152E+02  0.22964825025E+03  0.77000000000E+02 0.  0.
   -5000001    1    1    2    0    0  0.10522878284E+03  0.18649437212E+03 -0.15537395808E+03  0.27554185603E+03  0.77000000000E+02 0.  0.
<mgrwt>
<rscale>  0 0.48962062E+03</rscale>
<asrwt>0</asrwt>
<pdfrwt beam="1">  1        1 0.27195468E-01 0.48962062E+03</pdfrwt>
<pdfrwt beam="2">  1       -1 0.44974547E-01 0.48962062E+03</pdfrwt>
<totfact> 0.86078997E+02</totfact>
</mgrwt>
</event>
<event>
 4    1  0.3352993E-004  0.2355190E+03  0.7818608E-02  0.1122814E+00
         -1   -1    0    0    0  501 -0.00000000000E+00  0.00000000000E+00  0.58090166248E+02  0.58090166467E+02  0.50400000000E-02 0.  1.
          1   -1    0    0  501    0  0.00000000000E+00 -0.00000000000E+00 -0.23872033623E+03  0.23872033628E+03  0.50400000000E-02 0. -1.
    5000001    1    1    2    0    0  0.33244625133E+02 -0.82394091765E+02 -0.98704213912E+02  0.15351062928E+03  0.77000000000E+02 0.  0.
   -5000001    1    1    2    0    0 -0.33244625133E+02  0.82394091765E+02 -0.81925956065E+02  0.14329987347E+03  0.77000000000E+02 0.  0.
<mgrwt>
<rscale>  0 0.23551904E+03</rscale>
<asrwt>0</asrwt>
<pdfrwt beam="1">  1        1 0.34102905E-01 0.23551904E+03</pdfrwt>
<pdfrwt beam="2">  1       -1 0.82985953E-02 0.23551904E+03</pdfrwt>
<totfact> 0.10270984E+04</totfact>
</mgrwt>
</event>
<event>
 4    1  0.3352993E-004  0.4456883E+03  0.7818608E-02  0.1029016E+00
         -1   -1    0    0    0  501 -0.00000000000E+00  0.00000000000E+00  0.43771271327E+03  0.43771271330E+03  0.50400000000E-02 0. -1.
          1   -1    0    0  501    0  0.00000000000E+00 -0.00000000000E+00 -0.11345231385E+03  0.11345231396E+03  0.50400000000E-02 0.  1.
    5000001    1    1    2    0    0 -0.56327361644E+01 -0.20693212600E+03  0.12548898413E+03  0.25402582078E+03  0.77000000000E+02 0.  0.
   -5000001    1    1    2    0    0  0.56327361644E+01  0.20693212600E+03  0.19877141530E+03  0.29713920648E+03  0.77000000000E+02 0.  0.
<mgrwt>
<rscale>  0 0.44568832E+03</rscale>
<asrwt>0</asrwt>
<pdfrwt beam="1">  1        1 0.16207473E-01 0.44568832E+03</pdfrwt>
<pdfrwt beam="2">  1       -1 0.62530387E-01 0.44568832E+03</pdfrwt>
<totfact> 0.90560833E+02</totfact>
</mgrwt>
</event>
<event>
 4    1  0.3352993E-004  0.5343819E+03  0.7818608E-02  0.1005175E+00
          1   -1    0    0  501    0  0.00000000000E+00  0.00000000000E+00  0.19633462975E+03  0.19633462982E+03  0.50400000000E-02 0.  1.
         -1   -1    0    0    0  501 -0.00000000000E+00 -0.00000000000E+00 -0.36361905343E+03  0.36361905346E+03  0.50400000000E-02 0. -1.
    5000001    1    1    2    0    0 -0.17842142731E+03  0.16993876041E+03 -0.11434390337E+02  0.25840497924E+03  0.77000000000E+02 0.  0.
   -5000001    1    1    2    0    0  0.17842142731E+03 -0.16993876041E+03 -0.15585003333E+03  0.30154870404E+03  0.77000000000E+02 0.  0.
<mgrwt>
<rscale>  0 0.53438193E+03</rscale>
<asrwt>0</asrwt>
<pdfrwt beam="1">  1        1 0.28047804E-01 0.53438193E+03</pdfrwt>
<pdfrwt beam="2">  1       -1 0.51945579E-01 0.53438193E+03</pdfrwt>
<totfact> 0.63174164E+02</totfact>
</mgrwt>
</event>
<event>
 4    1  0.3352993E-004  0.2761904E+03  0.7818608E-02  0.1097788E+00
         -1   -1    0    0    0  501 -0.00000000000E+00  0.00000000000E+00  0.87242920336E+02  0.87242920481E+02  0.50400000000E-02 0. -1.
          1   -1    0    0  501    0  0.00000000000E+00 -0.00000000000E+00 -0.21858826542E+03  0.21858826548E+03  0.50400000000E-02 0.  1.
    5000001    1    1    2    0    0 -0.31350627331E+02 -0.11023932144E+03 -0.63026934371E+02  0.15177932759E+03  0.77000000000E+02 0.  0.
   -5000001    1    1    2    0    0  0.31350627331E+02  0.11023932144E+03 -0.68318410716E+02  0.15405185838E+03  0.77000000000E+02 0.  0.
<mgrwt>
<rscale>  0 0.27619036E+03</rscale>
<asrwt>0</asrwt>
<pdfrwt beam="1">  1        1 0.31226895E-01 0.27619036E+03</pdfrwt>
<pdfrwt beam="2">  1       -1 0.12463274E-01 0.27619036E+03</pdfrwt>
<totfact> 0.61637361E+03</totfact>
</mgrwt>
</event>
<event>
 4    1  0.3352993E-004  0.1854779E+03  0.7818608E-02  0.1162604E+00
         -1   -1    0    0    0  501 -0.00000000000E+00  0.00000000000E+00  0.44217064558E+02  0.44217064845E+02  0.50400000000E-02 0. -1.
          1   -1    0    0  501    0  0.00000000000E+00 -0.00000000000E+00 -0.19450670894E+03  0.19450670900E+03  0.50400000000E-02 0.  1.
    5000001    1    1    2    0    0 -0.31031962945E+02  0.21875387863E+02 -0.30005393346E+02  0.90944152909E+02  0.77000000000E+02 0.  0.
   -5000001    1    1    2    0    0  0.31031962945E+02 -0.21875387863E+02 -0.12028425103E+03  0.14777962094E+03  0.77000000000E+02 0.  0.
<mgrwt>
<rscale>  0 0.18547793E+03</rscale>
<asrwt>0</asrwt>
<pdfrwt beam="1">  1        1 0.27786672E-01 0.18547793E+03</pdfrwt>
<pdfrwt beam="2">  1       -1 0.63167236E-02 0.18547793E+03</pdfrwt>
<totfact> 0.19751038E+04</totfact>
</mgrwt>
</event>
<event>
 4    1  0.3352993E-004  0.6300832E+03  0.7818608E-02  0.9844886E-01
         -1   -1    0    0    0  501 -0.00000000000E+00  0.00000000000E+00  0.15194533279E+03  0.15194533287E+03  0.50400000000E-02 0. -1.
          1   -1    0    0  501    0  0.00000000000E+00 -0.00000000000E+00 -0.65320341356E+03  0.65320341358E+03  0.50400000000E-02 0.  1.
    5000001    1    1    2    0    0  0.26149975743E+03 -0.84674458667E+02 -0.42097266387E+03  0.50862448900E+03  0.77000000000E+02 0.  0.
   -5000001    1    1    2    0    0 -0.26149975743E+03  0.84674458667E+02 -0.80285416897E+02  0.29652425745E+03  0.77000000000E+02 0.  0.
<mgrwt>
<rscale>  0 0.63008320E+03</rscale>
<asrwt>0</asrwt>
<pdfrwt beam="1">  1        1 0.93314772E-01 0.63008320E+03</pdfrwt>
<pdfrwt beam="2">  1       -1 0.21706476E-01 0.63008320E+03</pdfrwt>
<totfact> 0.60550458E+02</totfact>
</mgrwt>
</event>
<event>
 4    1  0.3352993E-004  0.2519895E+03  0.7818608E-02  0.1112054E+00
         -1   -1    0    0    0  501 -0.00000000000E+00  0.00000000000E+00  0.18133264989E+03  0.18133264996E+03  0.50400000000E-02 0. -1.
          1   -1    0    0  501    0  0.00000000000E+00 -0.00000000000E+00 -0.87544491675E+02  0.87544491820E+02  0.50400000000E-02 0.  1.
    5000001    1    1    2    0    0  0.70357582024E+02  0.69847743054E+02  0.35363470572E+02  0.13041653119E+03  0.77000000000E+02 0.  0.
   -5000001    1    1    2    0    0 -0.70357582024E+02 -0.69847743054E+02  0.58424687646E+02  0.13846061059E+03  0.77000000000E+02 0.  0.
<mgrwt>
<rscale>  0 0.25198948E+03</rscale>
<asrwt>0</asrwt>
<pdfrwt beam="1">  1        1 0.12506356E-01 0.25198948E+03</pdfrwt>
<pdfrwt beam="2">  1       -1 0.25904664E-01 0.25198948E+03</pdfrwt>
<totfact> 0.61492967E+03</totfact>
</mgrwt>
</event>
<event>
 4    1  0.3352993E-004  0.2338197E+03  0.7818608E-02  0.1123980E+00
         -1   -1    0    0    0  501 -0.00000000000E+00  0.00000000000E+00  0.83805618456E+01  0.83805633611E+01  0.50400000000E-02 0. -1.
          1   -1    0    0  501    0  0.00000000000E+00 -0.00000000000E+00 -0.16309059768E+04  0.16309059768E+04  0.50400000000E-02 0.  1.
    5000001    1    1    2    0    0  0.49781863182E+02 -0.70673219756E+02 -0.69692444450E+03  0.70647407541E+03  0.77000000000E+02 0.  0.
   -5000001    1    1    2    0    0 -0.49781863182E+02  0.70673219756E+02 -0.92560097043E+03  0.93281246473E+03  0.77000000000E+02 0.  0.
<mgrwt>
<rscale>  0 0.23381967E+03</rscale>
<asrwt>0</asrwt>
<pdfrwt beam="1">  1        1 0.23298637E+00 0.23381967E+03</pdfrwt>
<pdfrwt beam="2">  1       -1 0.11972243E-02 0.23381967E+03</pdfrwt>
<totfact> 0.10096694E+04</totfact>
</mgrwt>
</event>
<event>
 4    1  0.3352993E-004  0.1860871E+03  0.7818608E-02  0.1162039E+00
          1   -1    0    0  501    0  0.00000000000E+00  0.00000000000E+00  0.32389351430E+03  0.32389351434E+03  0.50400000000E-02 0.  1.
         -1   -1    0    0    0  501 -0.00000000000E+00 -0.00000000000E+00 -0.26728237556E+02  0.26728238031E+02  0.50400000000E-02 0. -1.
    5000001    1    1    2    0    0  0.33162187183E+02 -0.39479210374E+02  0.13284502776E+03  0.16197265235E+03  0.77000000000E+02 0.  0.
   -5000001    1    1    2    0    0 -0.33162187183E+02  0.39479210374E+02  0.16432024899E+03  0.18864910002E+03  0.77000000000E+02 0.  0.
<mgrwt>
<rscale>  0 0.18608711E+03</rscale>
<asrwt>0</asrwt>
<pdfrwt beam="1">  1        1 0.46270500E-01 0.18608711E+03</pdfrwt>
<pdfrwt beam="2">  1       -1 0.38183198E-02 0.18608711E+03</pdfrwt>
<totfact> 0.22105234E+04</totfact>
</mgrwt>
</event>
<event>
 4    1  0.3352993E-004  0.4316300E+03  0.7818608E-02  0.1033346E+00
         -1   -1    0    0    0  501 -0.00000000000E+00  0.00000000000E+00  0.32704013820E+02  0.32704014208E+02  0.50400000000E-02 0. -1.
          1   -1    0    0  501    0  0.00000000000E+00 -0.00000000000E+00 -0.14241713126E+04  0.14241713126E+04  0.50400000000E-02 0.  1.
    5000001    1    1    2    0    0 -0.19259031135E+03  0.57277953447E+02 -0.75173968477E+03  0.78192924593E+03  0.77000000000E+02 0.  0.
   -5000001    1    1    2    0    0  0.19259031135E+03 -0.57277953447E+02 -0.63972761397E+03  0.67494608085E+03  0.77000000000E+02 0.  0.
<mgrwt>
<rscale>  0 0.43163002E+03</rscale>
<asrwt>0</asrwt>
<pdfrwt beam="1">  1        1 0.20345301E+00 0.43163002E+03</pdfrwt>
<pdfrwt beam="2">  1       -1 0.46720029E-02 0.43163002E+03</pdfrwt>
<totfact> 0.18322882E+03</totfact>
</mgrwt>
</event>
<event>
 4    1  0.3352993E-004  0.2881262E+03  0.7818608E-02  0.1091332E+00
          1   -1    0    0  501    0  0.00000000000E+00  0.00000000000E+00  0.58034070325E+02  0.58034070544E+02  0.50400000000E-02 0.  1.
         -1   -1    0    0    0  501 -0.00000000000E+00 -0.00000000000E+00 -0.35762063517E+03  0.35762063521E+03  0.50400000000E-02 0. -1.
    5000001    1    1    2    0    0  0.28659052701E+02  0.11345419724E+03 -0.19832998127E+03  0.24281057976E+03  0.77000000000E+02 0.  0.
   -5000001    1    1    2    0    0 -0.28659052701E+02 -0.11345419724E+03 -0.10125658358E+03  0.17284412599E+03  0.77000000000E+02 0.  0.
<mgrwt>
<rscale>  0 0.28812623E+03</rscale>
<asrwt>0</asrwt>
<pdfrwt beam="1">  1        1 0.82905817E-02 0.28812623E+03</pdfrwt>
<pdfrwt beam="2">  1       -1 0.51088661E-01 0.28812623E+03</pdfrwt>
<totfact> 0.32615807E+03</totfact>
</mgrwt>
</event>
<event>
 4    1  0.3352993E-004  0.1909316E+03  0.7818608E-02  0.1157624E+00
          1   -1    0    0  501    0  0.00000000000E+00  0.00000000000E+00  0.46821392546E+03  0.46821392549E+03  0.50400000000E-02 0. -1.
         -1   -1    0    0    0  501 -0.00000000000E+00 -0.00000000000E+00 -0.19464853492E+02  0.19464854144E+02  0.50400000000E-02 0.  1.
    5000001    1    1    2    0    0 -0.50117972078E+02 -0.20324843152E+02  0.26554446236E+03  0.28172286358E+03  0.77000000000E+02 0.  0.
   -5000001    1    1    2    0    0  0.50117972078E+02  0.20324843152E+02  0.18320460961E+03  0.20595591605E+03  0.77000000000E+02 0.  0.
<mgrwt>
<rscale>  0 0.19093156E+03</rscale>
<asrwt>0</asrwt>
<pdfrwt beam="1">  1        1 0.66887703E-01 0.19093156E+03</pdfrwt>
<pdfrwt beam="2">  1       -1 0.27806934E-02 0.19093156E+03</pdfrwt>
<totfact> 0.22162727E+04</totfact>
</mgrwt>
</event>
<event>
 4    1  0.3352993E-004  0.1855169E+03  0.7818608E-02  0.1162568E+00
          1   -1    0    0  501    0  0.00000000000E+00  0.00000000000E+00  0.14450944667E+02  0.14450945545E+02  0.50400000000E-02 0.  1.
         -1   -1    0    0    0  501 -0.00000000000E+00 -0.00000000000E+00 -0.59540262169E+03  0.59540262172E+03  0.50400000000E-02 0. -1.
    5000001    1    1    2    0    0  0.10687852874E+02 -0.38971082727E+02 -0.18435314599E+03  0.20383340729E+03  0.77000000000E+02 0.  0.
   -5000001    1    1    2    0    0 -0.10687852874E+02  0.38971082727E+02 -0.39659853103E+03  0.40602015998E+03  0.77000000000E+02 0.  0.
<mgrwt>
<rscale>  0 0.18551691E+03</rscale>
<asrwt>0</asrwt>
<pdfrwt beam="1">  1        1 0.20644211E-02 0.18551691E+03</pdfrwt>
<pdfrwt beam="2">  1       -1 0.85057502E-01 0.18551691E+03</pdfrwt>
<totfact> 0.80514050E+03</totfact>
</mgrwt>
</event>
<event>
 4    1  0.3352993E-004  0.2193916E+03  0.7818608E-02  0.1134337E+00
         -1   -1    0    0    0  501 -0.00000000000E+00  0.00000000000E+00  0.18720923338E+02  0.18720924017E+02  0.50400000000E-02 0. -1.
          1   -1    0    0  501    0  0.00000000000E+00 -0.00000000000E+00 -0.64276559442E+03  0.64276559444E+03  0.50400000000E-02 0.  1.
    5000001    1    1    2    0    0  0.32035327427E+02 -0.68180259466E+02 -0.37449782289E+03  0.38968247245E+03  0.77000000000E+02 0.  0.
   -5000001    1    1    2    0    0 -0.32035327427E+02  0.68180259466E+02 -0.24954684819E+03  0.27180404601E+03  0.77000000000E+02 0.  0.
<mgrwt>
<rscale>  0 0.21939157E+03</rscale>
<asrwt>0</asrwt>
<pdfrwt beam="1">  1        1 0.91823643E-01 0.21939157E+03</pdfrwt>
<pdfrwt beam="2">  1       -1 0.26744181E-02 0.21939157E+03</pdfrwt>
<totfact> 0.15554883E+04</totfact>
</mgrwt>
</event>
<event>
 4    1  0.3352993E-004  0.1745510E+03  0.7818608E-02  0.1173183E+00
          1   -1    0    0  501    0  0.00000000000E+00  0.00000000000E+00  0.42201821941E+03  0.42201821944E+03  0.50400000000E-02 0.  1.
         -1   -1    0    0    0  501 -0.00000000000E+00 -0.00000000000E+00 -0.18049008034E+02  0.18049008737E+02  0.50400000000E-02 0. -1.
    5000001    1    1    2    0    0  0.74627950868E+01  0.40273008755E+02  0.21011575686E+03  0.22749777982E+03  0.77000000000E+02 0.  0.
   -5000001    1    1    2    0    0 -0.74627950868E+01 -0.40273008755E+02  0.19385345451E+03  0.21256944835E+03  0.77000000000E+02 0.  0.
<mgrwt>
<rscale>  0 0.17455097E+03</rscale>
<asrwt>0</asrwt>
<pdfrwt beam="1">  1        1 0.60288303E-01 0.17455097E+03</pdfrwt>
<pdfrwt beam="2">  1       -1 0.25784304E-02 0.17455097E+03</pdfrwt>
<totfact> 0.28044022E+04</totfact>
</mgrwt>
</event>
<event>
 4    1  0.3352993E-004  0.2272676E+03  0.7818608E-02  0.1128578E+00
         -1   -1    0    0    0  501 -0.00000000000E+00  0.00000000000E+00  0.31791989144E+03  0.31791989148E+03  0.50400000000E-02 0. -1.
          1   -1    0    0  501    0  0.00000000000E+00 -0.00000000000E+00 -0.40616005537E+02  0.40616005850E+02  0.50400000000E-02 0.  1.
    5000001    1    1    2    0    0 -0.21764213344E+02  0.80355701830E+02  0.12717595531E+03  0.17039202859E+03  0.77000000000E+02 0.  0.
   -5000001    1    1    2    0    0  0.21764213344E+02 -0.80355701830E+02  0.15012793059E+03  0.18814386874E+03  0.77000000000E+02 0.  0.
<mgrwt>
<rscale>  0 0.22726756E+03</rscale>
<asrwt>0</asrwt>
<pdfrwt beam="1">  1        1 0.58022866E-02 0.22726756E+03</pdfrwt>
<pdfrwt beam="2">  1       -1 0.45417127E-01 0.22726756E+03</pdfrwt>
<totfact> 0.65305957E+03</totfact>
</mgrwt>
</event>
<event>
 4    1  0.3352993E-004  0.2080264E+03  0.7818608E-02  0.1143138E+00
          1   -1    0    0  501    0  0.00000000000E+00  0.00000000000E+00  0.10942284682E+03  0.10942284694E+03  0.50400000000E-02 0.  1.
         -1   -1    0    0    0  501 -0.00000000000E+00 -0.00000000000E+00 -0.98870999636E+02  0.98870999764E+02  0.50400000000E-02 0. -1.
    5000001    1    1    2    0    0  0.65303395842E+01 -0.63493184059E+02  0.33873393056E+02  0.10559562734E+03  0.77000000000E+02 0.  0.
   -5000001    1    1    2    0    0 -0.65303395842E+01  0.63493184059E+02 -0.23321545872E+02  0.10269821936E+03  0.77000000000E+02 0.  0.
<mgrwt>
<rscale>  0 0.20802640E+03</rscale>
<asrwt>0</asrwt>
<pdfrwt beam="1">  1        1 0.15631835E-01 0.20802640E+03</pdfrwt>
<pdfrwt beam="2">  1       -1 0.14124429E-01 0.20802640E+03</pdfrwt>
<totfact> 0.12097742E+04</totfact>
</mgrwt>
</event>
<event>
 4    1  0.3352993E-004  0.2241024E+03  0.7818608E-02  0.1130861E+00
         -1   -1    0    0    0  501 -0.00000000000E+00  0.00000000000E+00  0.48464066139E+02  0.48464066401E+02  0.50400000000E-02 0.  1.
          1   -1    0    0  501    0  0.00000000000E+00 -0.00000000000E+00 -0.25906758685E+03  0.25906758689E+03  0.50400000000E-02 0. -1.
    5000001    1    1    2    0    0  0.19314906237E+02 -0.31428338323E+02 -0.57222747016E+01  0.85571902401E+02  0.77000000000E+02 0.  0.
   -5000001    1    1    2    0    0 -0.19314906237E+02  0.31428338323E+02 -0.20488124600E+03  0.22195975089E+03  0.77000000000E+02 0.  0.
<mgrwt>
<rscale>  0 0.22410238E+03</rscale>
<asrwt>0</asrwt>
<pdfrwt beam="1">  1        1 0.37009654E-01 0.22410238E+03</pdfrwt>
<pdfrwt beam="2">  1       -1 0.69234382E-02 0.22410238E+03</pdfrwt>
<totfact> 0.12173782E+04</totfact>
</mgrwt>
</event>
<event>
 4    1  0.3352993E-004  0.3827517E+03  0.7818608E-02  0.1049921E+00
          1   -1    0    0  501    0  0.00000000000E+00  0.00000000000E+00  0.76885235977E+03  0.76885235979E+03  0.50400000000E-02 0.  1.
         -1   -1    0    0    0  501 -0.00000000000E+00 -0.00000000000E+00 -0.47635571610E+02  0.47635571877E+02  0.50400000000E-02 0. -1.
    5000001    1    1    2    0    0 -0.11172247350E+03 -0.12219784926E+03  0.23840913651E+03  0.30030341626E+03  0.77000000000E+02 0.  0.
   -5000001    1    1    2    0    0  0.11172247350E+03  0.12219784926E+03  0.48280765165E+03  0.51618451540E+03  0.77000000000E+02 0.  0.
<mgrwt>
<rscale>  0 0.38275173E+03</rscale>
<asrwt>0</asrwt>
<pdfrwt beam="1">  1        1 0.10983605E+00 0.38275173E+03</pdfrwt>
<pdfrwt beam="2">  1       -1 0.68050820E-02 0.38275173E+03</pdfrwt>
<totfact> 0.30337594E+03</totfact>
</mgrwt>
</event>
<event>
 4    1  0.3352993E-004  0.2213721E+03  0.7818608E-02  0.1132864E+00
          1   -1    0    0  501    0  0.00000000000E+00  0.00000000000E+00  0.68583185652E+03  0.68583185654E+03  0.50400000000E-02 0. -1.
         -1   -1    0    0    0  501 -0.00000000000E+00 -0.00000000000E+00 -0.17863563983E+02  0.17863564694E+02  0.50400000000E-02 0.  1.
    5000001    1    1    2    0    0  0.74172109262E+02 -0.36219879153E+01  0.24363820685E+03  0.26608870029E+03  0.77000000000E+02 0.  0.
   -5000001    1    1    2    0    0 -0.74172109262E+02  0.36219879153E+01  0.42433008569E+03  0.43760672094E+03  0.77000000000E+02 0.  0.
<mgrwt>
<rscale>  0 0.22137210E+03</rscale>
<asrwt>0</asrwt>
<pdfrwt beam="1">  1        1 0.97975984E-01 0.22137210E+03</pdfrwt>
<pdfrwt beam="2">  1       -1 0.25519376E-02 0.22137210E+03</pdfrwt>
<totfact> 0.15230180E+04</totfact>
</mgrwt>
</event>
<event>
 4    1  0.3352993E-004  0.2541233E+03  0.7818608E-02  0.1110726E+00
          1   -1    0    0  501    0  0.00000000000E+00  0.00000000000E+00  0.78425108099E+03  0.78425108101E+03  0.50400000000E-02 0. -1.
         -1   -1    0    0    0  501 -0.00000000000E+00 -0.00000000000E+00 -0.20586093363E+02  0.20586093980E+02  0.50400000000E-02 0.  1.
    5000001    1    1    2    0    0  0.91753066625E+02  0.38822154293E+02  0.43575544078E+03  0.45358305641E+03  0.77000000000E+02 0.  0.
   -5000001    1    1    2    0    0 -0.91753066625E+02 -0.38822154293E+02  0.32790954685E+03  0.35125411857E+03  0.77000000000E+02 0.  0.
<mgrwt>
<rscale>  0 0.25412333E+03</rscale>
<asrwt>0</asrwt>
<pdfrwt beam="1">  1        1 0.11203585E+00 0.25412333E+03</pdfrwt>
<pdfrwt beam="2">  1       -1 0.29408710E-02 0.25412333E+03</pdfrwt>
<totfact> 0.10262441E+04</totfact>
</mgrwt>
</event>
<event>
 4    1  0.3352993E-004  0.2103256E+03  0.7818608E-02  0.1141308E+00
         -1   -1    0    0    0  501 -0.00000000000E+00  0.00000000000E+00  0.14708955822E+02  0.14708956685E+02  0.50400000000E-02 0. -1.
          1   -1    0    0  501    0  0.00000000000E+00 -0.00000000000E+00 -0.75186951023E+03  0.75186951025E+03  0.50400000000E-02 0.  1.
    5000001    1    1    2    0    0 -0.27657920272E+02 -0.66050819003E+02 -0.36276639967E+03  0.37769846700E+03  0.77000000000E+02 0.  0.
   -5000001    1    1    2    0    0  0.27657920272E+02  0.66050819003E+02 -0.37439415474E+03  0.38887999993E+03  0.77000000000E+02 0.  0.
<mgrwt>
<rscale>  0 0.21032561E+03</rscale>
<asrwt>0</asrwt>
<pdfrwt beam="1">  1        1 0.10740991E+00 0.21032561E+03</pdfrwt>
<pdfrwt beam="2">  1       -1 0.21012799E-02 0.21032561E+03</pdfrwt>
<totfact> 0.17686924E+04</totfact>
</mgrwt>
</event>
<event>
 4    1  0.3352993E-004  0.2233660E+03  0.7818608E-02  0.1131398E+00
         -1   -1    0    0    0  501 -0.00000000000E+00  0.00000000000E+00  0.11027024625E+02  0.11027025777E+02  0.50400000000E-02 0. -1.
          1   -1    0    0  501    0  0.00000000000E+00 -0.00000000000E+00 -0.11311380659E+04  0.11311380659E+04  0.50400000000E-02 0.  1.
    5000001    1    1    2    0    0 -0.56667568779E+02 -0.55306486842E+02 -0.64470813466E+03  0.65410060368E+03  0.77000000000E+02 0.  0.
   -5000001    1    1    2    0    0  0.56667568779E+02  0.55306486842E+02 -0.47540290664E+03  0.48806448804E+03  0.77000000000E+02 0.  0.
<mgrwt>
<rscale>  0 0.22336596E+03</rscale>
<asrwt>0</asrwt>
<pdfrwt beam="1">  1        1 0.16159108E+00 0.22336596E+03</pdfrwt>
<pdfrwt beam="2">  1       -1 0.15752900E-02 0.22336596E+03</pdfrwt>
<totfact> 0.14105535E+04</totfact>
</mgrwt>
</event>
<event>
 4    1  0.3352993E-004  0.1983051E+03  0.7818608E-02  0.1151177E+00
         -1   -1    0    0    0  501 -0.00000000000E+00  0.00000000000E+00  0.35907157684E+01  0.35907193055E+01  0.50400000000E-02 0.  1.
          1   -1    0    0  501    0  0.00000000000E+00 -0.00000000000E+00 -0.27379565991E+04  0.27379565991E+04  0.50400000000E-02 0. -1.
    5000001    1    1    2    0    0  0.48546424413E+02  0.37576300318E+02 -0.12074499803E+04  0.12114591155E+04  0.77000000000E+02 0.  0.
   -5000001    1    1    2    0    0 -0.48546424413E+02 -0.37576300318E+02 -0.15269159030E+04  0.15300882028E+04  0.77000000000E+02 0.  0.
<mgrwt>
<rscale>  0 0.19830511E+03</rscale>
<asrwt>0</asrwt>
<pdfrwt beam="1">  1        1 0.39113532E+00 0.19830511E+03</pdfrwt>
<pdfrwt beam="2">  1       -1 0.51296140E-03 0.19830511E+03</pdfrwt>
<totfact> 0.72873515E+03</totfact>
</mgrwt>
</event>
<event>
 4    1  0.3352993E-004  0.1912188E+03  0.7818608E-02  0.1157367E+00
          1   -1    0    0  501    0  0.00000000000E+00  0.00000000000E+00  0.17394946077E+04  0.17394946077E+04  0.50400000000E-02 0. -1.
         -1   -1    0    0    0  501 -0.00000000000E+00 -0.00000000000E+00 -0.52550651415E+01  0.52550675584E+01  0.50400000000E-02 0.  1.
    5000001    1    1    2    0    0  0.39840378601E+02  0.27777402741E+02  0.60058223664E+03  0.60744288854E+03  0.77000000000E+02 0.  0.
   -5000001    1    1    2    0    0 -0.39840378601E+02 -0.27777402741E+02  0.11336573059E+04  0.11373067867E+04  0.77000000000E+02 0.  0.
<mgrwt>
<rscale>  0 0.19121882E+03</rscale>
<asrwt>0</asrwt>
<pdfrwt beam="1">  1        1 0.24849970E+00 0.19121882E+03</pdfrwt>
<pdfrwt beam="2">  1       -1 0.75072234E-03 0.19121882E+03</pdfrwt>
<totfact> 0.16839708E+04</totfact>
</mgrwt>
</event>
<event>
 4    1  0.3352993E-004  0.2261672E+03  0.7818608E-02  0.1129367E+00
         -1   -1    0    0    0  501 -0.00000000000E+00  0.00000000000E+00  0.83074488197E+01  0.83074503485E+01  0.50400000000E-02 0. -1.
          1   -1    0    0  501    0  0.00000000000E+00 -0.00000000000E+00 -0.15393287130E+04  0.15393287130E+04  0.50400000000E-02 0.  1.
    5000001    1    1    2    0    0  0.72641803698E+02 -0.31600725207E+02 -0.60022153432E+03  0.61030347184E+03  0.77000000000E+02 0.  0.
   -5000001    1    1    2    0    0 -0.72641803698E+02  0.31600725207E+02 -0.93079972981E+03  0.93733269147E+03  0.77000000000E+02 0.  0.
<mgrwt>
<rscale>  0 0.22616716E+03</rscale>
<asrwt>0</asrwt>
<pdfrwt beam="1">  1        1 0.21990392E+00 0.22616716E+03</pdfrwt>
<pdfrwt beam="2">  1       -1 0.11867795E-02 0.22616716E+03</pdfrwt>
<totfact> 0.11627456E+04</totfact>
</mgrwt>
</event>
<event>
 4    1  0.3352993E-004  0.3032103E+03  0.7818608E-02  0.1083647E+00
         -1   -1    0    0    0  501 -0.00000000000E+00  0.00000000000E+00  0.69912712059E+02  0.69912712241E+02  0.50400000000E-02 0. -1.
          1   -1    0    0  501    0  0.00000000000E+00 -0.00000000000E+00 -0.32875449277E+03  0.32875449280E+03  0.50400000000E-02 0.  1.
    5000001    1    1    2    0    0  0.32253503467E+02 -0.12645714601E+03 -0.12305792180E+03  0.19520233190E+03  0.77000000000E+02 0.  0.
   -5000001    1    1    2    0    0 -0.32253503467E+02  0.12645714601E+03 -0.13578385891E+03  0.20346487314E+03  0.77000000000E+02 0.  0.
<mgrwt>
<rscale>  0 0.30321028E+03</rscale>
<asrwt>0</asrwt>
<pdfrwt beam="1">  1        1 0.46964927E-01 0.30321028E+03</pdfrwt>
<pdfrwt beam="2">  1       -1 0.99875305E-02 0.30321028E+03</pdfrwt>
<totfact> 0.52223719E+03</totfact>
</mgrwt>
</event>
<event>
 4    1  0.3352993E-004  0.2219573E+03  0.7818608E-02  0.1132432E+00
          1   -1    0    0  501    0  0.00000000000E+00  0.00000000000E+00  0.36469704051E+02  0.36469704399E+02  0.50400000000E-02 0. -1.
         -1   -1    0    0    0  501 -0.00000000000E+00 -0.00000000000E+00 -0.33771204618E+03  0.33771204622E+03  0.50400000000E-02 0.  1.
    5000001    1    1    2    0    0  0.26381349678E+02  0.65560406998E+02 -0.21354379581E+03  0.23774796593E+03  0.77000000000E+02 0.  0.
   -5000001    1    1    2    0    0 -0.26381349678E+02 -0.65560406998E+02 -0.87698546321E+02  0.13643378468E+03  0.77000000000E+02 0.  0.
<mgrwt>
<rscale>  0 0.22195728E+03</rscale>
<asrwt>0</asrwt>
<pdfrwt beam="1">  1        1 0.52099580E-02 0.22195728E+03</pdfrwt>
<pdfrwt beam="2">  1       -1 0.48244576E-01 0.22195728E+03</pdfrwt>
<totfact> 0.67768286E+03</totfact>
</mgrwt>
</event>
<event>
 4    1  0.3352993E-004  0.1822276E+03  0.7818608E-02  0.1165664E+00
          1   -1    0    0  501    0  0.00000000000E+00  0.00000000000E+00  0.10396710473E+04  0.10396710474E+04  0.50400000000E-02 0.  1.
         -1   -1    0    0    0  501 -0.00000000000E+00 -0.00000000000E+00 -0.79849533096E+01  0.79849549002E+01  0.50400000000E-02 0. -1.
    5000001    1    1    2    0    0 -0.19090751630E+02  0.40038183906E+02  0.63157306358E+03  0.63779389117E+03  0.77000000000E+02 0.  0.
   -5000001    1    1    2    0    0  0.19090751630E+02 -0.40038183906E+02  0.40011303045E+03  0.40986211109E+03  0.77000000000E+02 0.  0.
<mgrwt>
<rscale>  0 0.18222761E+03</rscale>
<asrwt>0</asrwt>
<pdfrwt beam="1">  1        1 0.14852431E+00 0.18222761E+03</pdfrwt>
<pdfrwt beam="2">  1       -1 0.11407087E-02 0.18222761E+03</pdfrwt>
<totfact> 0.25667489E+04</totfact>
</mgrwt>
</event>
<event>
 4    1  0.3352993E-004  0.1871397E+03  0.7818608E-02  0.1161067E+00
          1   -1    0    0  501    0  0.00000000000E+00  0.00000000000E+00  0.92777139403E+02  0.92777139540E+02  0.50400000000E-02 0.  1.
         -1   -1    0    0    0  501 -0.00000000000E+00 -0.00000000000E+00 -0.94369315321E+02  0.94369315456E+02  0.50400000000E-02 0. -1.
    5000001    1    1    2    0    0  0.12939573949E+02 -0.47822206737E+02  0.18489814628E+02  0.93409149853E+02  0.77000000000E+02 0.  0.
   -5000001    1    1    2    0    0 -0.12939573949E+02  0.47822206737E+02 -0.20081990546E+02  0.93737305143E+02  0.77000000000E+02 0.  0.
<mgrwt>
<rscale>  0 0.18713968E+03</rscale>
<asrwt>0</asrwt>
<pdfrwt beam="1">  1        1 0.13253877E-01 0.18713968E+03</pdfrwt>
<pdfrwt beam="2">  1       -1 0.13481331E-01 0.18713968E+03</pdfrwt>
<totfact> 0.16026674E+04</totfact>
</mgrwt>
</event>
<event>
 4    1  0.3352993E-004  0.2525104E+03  0.7818608E-02  0.1111728E+00
          1   -1    0    0  501    0  0.00000000000E+00  0.00000000000E+00  0.21629804452E+03  0.21629804458E+03  0.50400000000E-02 0. -1.
         -1   -1    0    0    0  501 -0.00000000000E+00 -0.00000000000E+00 -0.73696362247E+02  0.73696362420E+02  0.50400000000E-02 0.  1.
    5000001    1    1    2    0    0 -0.84202638065E+02  0.26438448751E+02  0.17161624926E+02  0.11837481658E+03  0.77000000000E+02 0.  0.
   -5000001    1    1    2    0    0  0.84202638065E+02 -0.26438448751E+02  0.12544005735E+03  0.17161959042E+03  0.77000000000E+02 0.  0.
<mgrwt>
<rscale>  0 0.25251043E+03</rscale>
<asrwt>0</asrwt>
<pdfrwt beam="1">  1        1 0.30899721E-01 0.25251043E+03</pdfrwt>
<pdfrwt beam="2">  1       -1 0.10528052E-01 0.25251043E+03</pdfrwt>
<totfact> 0.80924365E+03</totfact>
</mgrwt>
</event>
<event>
 4    1  0.3352993E-004  0.1715791E+03  0.7818608E-02  0.1176211E+00
          1   -1    0    0  501    0  0.00000000000E+00  0.00000000000E+00  0.22701456723E+03  0.22701456728E+03  0.50400000000E-02 0. -1.
         -1   -1    0    0    0  501 -0.00000000000E+00 -0.00000000000E+00 -0.32420135864E+02  0.32420136256E+02  0.50400000000E-02 0.  1.
    5000001    1    1    2    0    0  0.32090609406E+02  0.19082071279E+02  0.88110953374E+02  0.12282700339E+03  0.77000000000E+02 0.  0.
   -5000001    1    1    2    0    0 -0.32090609406E+02 -0.19082071279E+02  0.10648347799E+03  0.13660770015E+03  0.77000000000E+02 0.  0.
<mgrwt>
<rscale>  0 0.17157906E+03</rscale>
<asrwt>0</asrwt>
<pdfrwt beam="1">  1        1 0.32430653E-01 0.17157906E+03</pdfrwt>
<pdfrwt beam="2">  1       -1 0.46314480E-02 0.17157906E+03</pdfrwt>
<totfact> 0.25685456E+04</totfact>
</mgrwt>
</event>
<event>
 4    1  0.3352993E-004  0.1783417E+03  0.7818608E-02  0.1169418E+00
          1   -1    0    0  501    0  0.00000000000E+00  0.00000000000E+00  0.16362561385E+04  0.16362561385E+04  0.50400000000E-02 0. -1.
         -1   -1    0    0    0  501 -0.00000000000E+00 -0.00000000000E+00 -0.48595341905E+01  0.48595368041E+01  0.50400000000E-02 0.  1.
    5000001    1    1    2    0    0  0.13558229643E+02  0.32524396888E+02  0.10728274421E+04  0.10761641987E+04  0.77000000000E+02 0.  0.
   -5000001    1    1    2    0    0 -0.13558229643E+02 -0.32524396888E+02  0.55856916217E+03  0.56495147660E+03  0.77000000000E+02 0.  0.
<mgrwt>
<rscale>  0 0.17834175E+03</rscale>
<asrwt>0</asrwt>
<pdfrwt beam="1">  1        1 0.23375065E+00 0.17834175E+03</pdfrwt>
<pdfrwt beam="2">  1       -1 0.69422002E-03 0.17834175E+03</pdfrwt>
<totfact> 0.21662118E+04</totfact>
</mgrwt>
</event>
<event>
 4    1  0.3352993E-004  0.3581235E+03  0.7818608E-02  0.1059329E+00
         -1   -1    0    0    0  501 -0.00000000000E+00  0.00000000000E+00  0.35735197577E+03  0.35735197580E+03  0.50400000000E-02 0. -1.
          1   -1    0    0  501    0  0.00000000000E+00 -0.00000000000E+00 -0.89724160955E+02  0.89724161096E+02  0.50400000000E-02 0.  1.
    5000001    1    1    2    0    0 -0.38415140495E+02  0.13712634626E+03  0.22933577705E+03  0.28071917728E+03  0.77000000000E+02 0.  0.
   -5000001    1    1    2    0    0  0.38415140495E+02 -0.13712634626E+03  0.38292037766E+02  0.16635695962E+03  0.77000000000E+02 0.  0.
<mgrwt>
<rscale>  0 0.35812348E+03</rscale>
<asrwt>0</asrwt>
<pdfrwt beam="1">  1        1 0.12817737E-01 0.35812348E+03</pdfrwt>
<pdfrwt beam="2">  1       -1 0.51050283E-01 0.35812348E+03</pdfrwt>
<totfact> 0.18231271E+03</totfact>
</mgrwt>
</event>
<event>
 4    1  0.3352993E-004  0.2414908E+03  0.7818608E-02  0.1118804E+00
         -1   -1    0    0    0  501 -0.00000000000E+00  0.00000000000E+00  0.36691529043E+01  0.36691563658E+01  0.50400000000E-02 0. -1.
          1   -1    0    0  501    0  0.00000000000E+00 -0.00000000000E+00 -0.39735174129E+04  0.39735174129E+04  0.50400000000E-02 0.  1.
    5000001    1    1    2    0    0 -0.12006958948E+02  0.70331040905E+02 -0.29675538045E+04  0.29694099085E+04  0.77000000000E+02 0.  0.
   -5000001    1    1    2    0    0  0.12006958948E+02 -0.70331040905E+02 -0.10022944555E+04  0.10077766608E+04  0.77000000000E+02 0.  0.
<mgrwt>
<rscale>  0 0.24149079E+03</rscale>
<asrwt>0</asrwt>
<pdfrwt beam="1">  1        1 0.56764259E+00 0.24149079E+03</pdfrwt>
<pdfrwt beam="2">  1       -1 0.52416749E-03 0.24149079E+03</pdfrwt>
<totfact> 0.10754081E+03</totfact>
</mgrwt>
</event>
<event>
 4    1  0.3352993E-004  0.1686041E+03  0.7818608E-02  0.1179311E+00
         -1   -1    0    0    0  501 -0.00000000000E+00  0.00000000000E+00  0.11763501057E+03  0.11763501067E+03  0.50400000000E-02 0.  1.
          1   -1    0    0  501    0  0.00000000000E+00 -0.00000000000E+00 -0.60414303875E+02  0.60414304085E+02  0.50400000000E-02 0. -1.
    5000001    1    1    2    0    0  0.32257464419E+02 -0.11676020301E+02  0.27573600893E+02  0.88691470430E+02  0.77000000000E+02 0.  0.
   -5000001    1    1    2    0    0 -0.32257464419E+02  0.11676020301E+02  0.29647105797E+02  0.89357844328E+02  0.77000000000E+02 0.  0.
<mgrwt>
<rscale>  0 0.16860412E+03</rscale>
<asrwt>0</asrwt>
<pdfrwt beam="1">  1        1 0.86306147E-02 0.16860412E+03</pdfrwt>
<pdfrwt beam="2">  1       -1 0.16805002E-01 0.16860412E+03</pdfrwt>
<totfact> 0.19843652E+04</totfact>
</mgrwt>
</event>
<event>
 4    1  0.3352993E-004  0.3001369E+03  0.7818608E-02  0.1085172E+00
         -1   -1    0    0    0  501 -0.00000000000E+00  0.00000000000E+00  0.47632051490E+03  0.47632051493E+03  0.50400000000E-02 0. -1.
          1   -1    0    0  501    0  0.00000000000E+00 -0.00000000000E+00 -0.47280208247E+02  0.47280208516E+02  0.50400000000E-02 0.  1.
    5000001    1    1    2    0    0 -0.11823936710E+02 -0.97875209720E+02  0.35913999719E+03  0.38030237935E+03  0.77000000000E+02 0.  0.
   -5000001    1    1    2    0    0  0.11823936710E+02  0.97875209720E+02  0.69900309465E+02  0.14329834409E+03  0.77000000000E+02 0.  0.
<mgrwt>
<rscale>  0 0.30013686E+03</rscale>
<asrwt>0</asrwt>
<pdfrwt beam="1">  1        1 0.67543156E-02 0.30013686E+03</pdfrwt>
<pdfrwt beam="2">  1       -1 0.68045787E-01 0.30013686E+03</pdfrwt>
<totfact> 0.24910243E+03</totfact>
</mgrwt>
</event>
<event>
 4    1  0.3352993E-004  0.2327791E+03  0.7818608E-02  0.1124699E+00
          1   -1    0    0  501    0  0.00000000000E+00  0.00000000000E+00  0.12596892396E+04  0.12596892396E+04  0.50400000000E-02 0.  1.
         -1   -1    0    0    0  501 -0.00000000000E+00 -0.00000000000E+00 -0.10753860780E+02  0.10753861961E+02  0.50400000000E-02 0. -1.
    5000001    1    1    2    0    0  0.82580498471E+02 -0.24240126222E+02  0.70363305370E+03  0.71304670023E+03  0.77000000000E+02 0.  0.
   -5000001    1    1    2    0    0 -0.82580498471E+02  0.24240126222E+02  0.54530232508E+03  0.55739640130E+03  0.77000000000E+02 0.  0.
<mgrwt>
<rscale>  0 0.23277907E+03</rscale>
<asrwt>0</asrwt>
<pdfrwt beam="1">  1        1 0.17995564E+00 0.23277907E+03</pdfrwt>
<pdfrwt beam="2">  1       -1 0.15362656E-02 0.23277907E+03</pdfrwt>
<totfact> 0.12040044E+04</totfact>
</mgrwt>
</event>
<event>
 4    1  0.3352993E-004  0.2895884E+03  0.7818608E-02  0.1090564E+00
          1   -1    0    0  501    0  0.00000000000E+00  0.00000000000E+00  0.35270878411E+04  0.35270878411E+04  0.50400000000E-02 0.  1.
         -1   -1    0    0    0  501 -0.00000000000E+00 -0.00000000000E+00 -0.59440977574E+01  0.59440998941E+01  0.50400000000E-02 0. -1.
    5000001    1    1    2    0    0 -0.55415088973E+02 -0.48337034738E+02  0.29577487316E+04  0.29596644844E+04  0.77000000000E+02 0.  0.
   -5000001    1    1    2    0    0  0.55415088973E+02  0.48337034738E+02  0.56339501169E+03  0.57336745653E+03  0.77000000000E+02 0.  0.
<mgrwt>
<rscale>  0 0.28958839E+03</rscale>
<asrwt>0</asrwt>
<pdfrwt beam="1">  1        1 0.50387052E+00 0.28958839E+03</pdfrwt>
<pdfrwt beam="2">  1       -1 0.84915558E-03 0.28958839E+03</pdfrwt>
<totfact> 0.10956787E+03</totfact>
</mgrwt>
</event>
<event>
 4    1  0.3352993E-004  0.1921783E+03  0.7818608E-02  0.1156511E+00
          1   -1    0    0  501    0  0.00000000000E+00  0.00000000000E+00  0.19262498240E+02  0.19262498899E+02  0.50400000000E-02 0. -1.
         -1   -1    0    0    0  501 -0.00000000000E+00 -0.00000000000E+00 -0.47933154585E+03  0.47933154588E+03  0.50400000000E-02 0.  1.
    5000001    1    1    2    0    0 -0.18589922250E+02 -0.32278441320E+02 -0.34361745626E+03  0.35410371254E+03  0.77000000000E+02 0.  0.
   -5000001    1    1    2    0    0  0.18589922250E+02  0.32278441320E+02 -0.11645159135E+03  0.14449033224E+03  0.77000000000E+02 0.  0.
<mgrwt>
<rscale>  0 0.19217828E+03</rscale>
<asrwt>0</asrwt>
<pdfrwt beam="1">  1        1 0.27517858E-02 0.19217828E+03</pdfrwt>
<pdfrwt beam="2">  1       -1 0.68475928E-01 0.19217828E+03</pdfrwt>
<totfact> 0.83885047E+03</totfact>
</mgrwt>
</event>
<event>
 4    1  0.3352993E-004  0.1729646E+03  0.7818608E-02  0.1174791E+00
          1   -1    0    0  501    0  0.00000000000E+00  0.00000000000E+00  0.13892128228E+04  0.13892128228E+04  0.50400000000E-02 0. -1.
         -1   -1    0    0    0  501 -0.00000000000E+00 -0.00000000000E+00 -0.53837614408E+01  0.53837637999E+01  0.50400000000E-02 0.  1.
    5000001    1    1    2    0    0 -0.40811716992E+01 -0.35740758007E+02  0.82095476947E+03  0.82534222675E+03  0.77000000000E+02 0.  0.
   -5000001    1    1    2    0    0  0.40811716992E+01  0.35740758007E+02  0.56287429185E+03  0.56925435982E+03  0.77000000000E+02 0.  0.
<mgrwt>
<rscale>  0 0.17296464E+03</rscale>
<asrwt>0</asrwt>
<pdfrwt beam="1">  1        1 0.19845906E+00 0.17296464E+03</pdfrwt>
<pdfrwt beam="2">  1       -1 0.76910862E-03 0.17296464E+03</pdfrwt>
<totfact> 0.26508791E+04</totfact>
</mgrwt>
</event>
<event>
 4    1  0.3352993E-004  0.1837398E+03  0.7818608E-02  0.1164232E+00
          1   -1    0    0  501    0  0.00000000000E+00  0.00000000000E+00  0.29947460286E+03  0.29947460290E+03  0.50400000000E-02 0.  1.
         -1   -1    0    0    0  501 -0.00000000000E+00 -0.00000000000E+00 -0.28182939755E+02  0.28182940206E+02  0.50400000000E-02 0. -1.
    5000001    1    1    2    0    0 -0.11269610335E+02 -0.35142175343E+02  0.19609573250E+03  0.21387966923E+03  0.77000000000E+02 0.  0.
   -5000001    1    1    2    0    0  0.11269610335E+02  0.35142175343E+02  0.75195930606E+02  0.11377787388E+03  0.77000000000E+02 0.  0.
<mgrwt>
<rscale>  0 0.18373976E+03</rscale>
<asrwt>0</asrwt>
<pdfrwt beam="1">  1        1 0.42782087E-01 0.18373976E+03</pdfrwt>
<pdfrwt beam="2">  1       -1 0.40261342E-02 0.18373976E+03</pdfrwt>
<totfact> 0.22515551E+04</totfact>
</mgrwt>
</event>
<event>
 4    1  0.3352993E-004  0.2282969E+03  0.7818608E-02  0.1127844E+00
          1   -1    0    0  501    0  0.00000000000E+00  0.00000000000E+00  0.61719018961E+02  0.61719019167E+02  0.50400000000E-02 0. -1.
         -1   -1    0    0    0  501 -0.00000000000E+00 -0.00000000000E+00 -0.21111587139E+03  0.21111587145E+03  0.50400000000E-02 0.  1.
    5000001    1    1    2    0    0 -0.79245380651E+02 -0.38343171970E+01 -0.10863413731E+03  0.15499970365E+03  0.77000000000E+02 0.  0.
   -5000001    1    1    2    0    0  0.79245380651E+02  0.38343171970E+01 -0.40762715116E+02  0.11783518696E+03  0.77000000000E+02 0.  0.
<mgrwt>
<rscale>  0 0.22829686E+03</rscale>
<asrwt>0</asrwt>
<pdfrwt beam="1">  1        1 0.88170028E-02 0.22829686E+03</pdfrwt>
<pdfrwt beam="2">  1       -1 0.30159410E-01 0.22829686E+03</pdfrwt>
<totfact> 0.75622464E+03</totfact>
</mgrwt>
</event>
<event>
 4    1  0.3352993E-004  0.2372219E+03  0.7818608E-02  0.1121657E+00
         -1   -1    0    0    0  501 -0.00000000000E+00  0.00000000000E+00  0.15360858289E+03  0.15360858297E+03  0.50400000000E-02 0. -1.
          1   -1    0    0  501    0  0.00000000000E+00 -0.00000000000E+00 -0.91587055865E+02  0.91587056004E+02  0.50400000000E-02 0.  1.
    5000001    1    1    2    0    0  0.88415072185E+02 -0.16665294075E+02  0.24107894433E+02  0.12085175874E+03  0.77000000000E+02 0.  0.
   -5000001    1    1    2    0    0 -0.88415072185E+02  0.16665294075E+02  0.37913632591E+02  0.12434388024E+03  0.77000000000E+02 0.  0.
<mgrwt>
<rscale>  0 0.23722190E+03</rscale>
<asrwt>0</asrwt>
<pdfrwt beam="1">  1        1 0.13083865E-01 0.23722190E+03</pdfrwt>
<pdfrwt beam="2">  1       -1 0.21944083E-01 0.23722190E+03</pdfrwt>
<totfact> 0.75984742E+03</totfact>
</mgrwt>
</event>
<event>
 4    1  0.3352993E-004  0.1803115E+03  0.7818608E-02  0.1167502E+00
         -1   -1    0    0    0  501 -0.00000000000E+00  0.00000000000E+00  0.70582696995E+02  0.70582697175E+02  0.50400000000E-02 0. -1.
          1   -1    0    0  501    0  0.00000000000E+00 -0.00000000000E+00 -0.11515659679E+03  0.11515659690E+03  0.50400000000E-02 0.  1.
    5000001    1    1    2    0    0  0.43320808793E+02  0.13473607464E+01 -0.38439410938E+01  0.88443675515E+02  0.77000000000E+02 0.  0.
   -5000001    1    1    2    0    0 -0.43320808793E+02 -0.13473607464E+01 -0.40729958702E+02  0.97295618562E+02  0.77000000000E+02 0.  0.
<mgrwt>
<rscale>  0 0.18031154E+03</rscale>
<asrwt>0</asrwt>
<pdfrwt beam="1">  1        1 0.16450942E-01 0.18031154E+03</pdfrwt>
<pdfrwt beam="2">  1       -1 0.10083242E-01 0.18031154E+03</pdfrwt>
<totfact> 0.18903963E+04</totfact>
</mgrwt>
</event>
<event>
 4    1  0.3352993E-004  0.1954542E+03  0.7818608E-02  0.1153632E+00
         -1   -1    0    0    0  501 -0.00000000000E+00  0.00000000000E+00  0.16946796501E+03  0.16946796509E+03  0.50400000000E-02 0. -1.
          1   -1    0    0  501    0  0.00000000000E+00 -0.00000000000E+00 -0.56356277537E+02  0.56356277763E+02  0.50400000000E-02 0.  1.
    5000001    1    1    2    0    0  0.32972577409E+02  0.39045088833E+02  0.93272166544E+02  0.13130272988E+03  0.77000000000E+02 0.  0.
   -5000001    1    1    2    0    0 -0.32972577409E+02 -0.39045088833E+02  0.19839520933E+02  0.94521512969E+02  0.77000000000E+02 0.  0.
<mgrwt>
<rscale>  0 0.19545418E+03</rscale>
<asrwt>0</asrwt>
<pdfrwt beam="1">  1        1 0.80508969E-02 0.19545418E+03</pdfrwt>
<pdfrwt beam="2">  1       -1 0.24209709E-01 0.19545418E+03</pdfrwt>
<totfact> 0.12225014E+04</totfact>
</mgrwt>
</event>
<event>
 4    1  0.3352993E-004  0.3409485E+03  0.7818608E-02  0.1066393E+00
          1   -1    0    0  501    0  0.00000000000E+00  0.00000000000E+00  0.34298140983E+02  0.34298141354E+02  0.50400000000E-02 0. -1.
         -1   -1    0    0    0  501 -0.00000000000E+00 -0.00000000000E+00 -0.84731925687E+03  0.84731925688E+03  0.50400000000E-02 0.  1.
    5000001    1    1    2    0    0 -0.26742547620E+02  0.14972372967E+03 -0.40562827491E+03  0.43999506416E+03  0.77000000000E+02 0.  0.
   -5000001    1    1    2    0    0  0.26742547620E+02 -0.14972372967E+03 -0.40739284098E+03  0.44162233408E+03  0.77000000000E+02 0.  0.
<mgrwt>
<rscale>  0 0.34094853E+03</rscale>
<asrwt>0</asrwt>
<pdfrwt beam="1">  1        1 0.48997350E-02 0.34094853E+03</pdfrwt>
<pdfrwt beam="2">  1       -1 0.12104559E+00 0.34094853E+03</pdfrwt>
<totfact> 0.11128698E+03</totfact>
</mgrwt>
</event>
<event>
 4    1  0.3352993E-004  0.3113382E+03  0.7818608E-02  0.1079706E+00
         -1   -1    0    0    0  501 -0.00000000000E+00  0.00000000000E+00  0.10296015417E+03  0.10296015429E+03  0.50400000000E-02 0. -1.
          1   -1    0    0  501    0  0.00000000000E+00 -0.00000000000E+00 -0.23536160432E+03  0.23536160438E+03  0.50400000000E-02 0.  1.
    5000001    1    1    2    0    0  0.61173708055E+02  0.75450601609E+02  0.36135930396E+02  0.12911166216E+03  0.77000000000E+02 0.  0.
   -5000001    1    1    2    0    0 -0.61173708055E+02 -0.75450601609E+02 -0.16853738055E+03  0.20921009651E+03  0.77000000000E+02 0.  0.
<mgrwt>
<rscale>  0 0.31133819E+03</rscale>
<asrwt>0</asrwt>
<pdfrwt beam="1">  1        1 0.33623086E-01 0.31133819E+03</pdfrwt>
<pdfrwt beam="2">  1       -1 0.14708593E-01 0.31133819E+03</pdfrwt>
<totfact> 0.43397195E+03</totfact>
</mgrwt>
</event>
<event>
 4    1  0.3352993E-004  0.3023941E+03  0.7818608E-02  0.1084050E+00
         -1   -1    0    0    0  501 -0.00000000000E+00  0.00000000000E+00  0.70032319035E+02  0.70032319216E+02  0.50400000000E-02 0.  1.
          1   -1    0    0  501    0  0.00000000000E+00 -0.00000000000E+00 -0.32642859526E+03  0.32642859530E+03  0.50400000000E-02 0. -1.
    5000001    1    1    2    0    0 -0.10704127675E+03 -0.73982993803E+02 -0.12883135893E+03  0.19863996915E+03  0.77000000000E+02 0.  0.
   -5000001    1    1    2    0    0  0.10704127675E+03  0.73982993803E+02 -0.12756491730E+03  0.19782094537E+03  0.77000000000E+02 0.  0.
<mgrwt>
<rscale>  0 0.30239412E+03</rscale>
<asrwt>0</asrwt>
<pdfrwt beam="1">  1        1 0.46632656E-01 0.30239412E+03</pdfrwt>
<pdfrwt beam="2">  1       -1 0.10004617E-01 0.30239412E+03</pdfrwt>
<totfact> 0.52550353E+03</totfact>
</mgrwt>
</event>
<event>
 4    1  0.3352993E-004  0.2119688E+03  0.7818608E-02  0.1140016E+00
         -1   -1    0    0    0  501 -0.00000000000E+00  0.00000000000E+00  0.64993799501E+02  0.64993799697E+02  0.50400000000E-02 0. -1.
          1   -1    0    0  501    0  0.00000000000E+00 -0.00000000000E+00 -0.17282716368E+03  0.17282716375E+03  0.50400000000E-02 0.  1.
    5000001    1    1    2    0    0 -0.65217913705E+02 -0.30547602450E+02 -0.41772419726E+02  0.11340400052E+03  0.77000000000E+02 0.  0.
   -5000001    1    1    2    0    0  0.65217913705E+02  0.30547602450E+02 -0.66060944453E+02  0.12441696293E+03  0.77000000000E+02 0.  0.
<mgrwt>
<rscale>  0 0.21196881E+03</rscale>
<asrwt>0</asrwt>
<pdfrwt beam="1">  1        1 0.24689595E-01 0.21196881E+03</pdfrwt>
<pdfrwt beam="2">  1       -1 0.92848286E-02 0.21196881E+03</pdfrwt>
<totfact> 0.12910436E+04</totfact>
</mgrwt>
</event>
<event>
 4    1  0.3352993E-004  0.2227494E+03  0.7818608E-02  0.1131850E+00
         -1   -1    0    0    0  501 -0.00000000000E+00  0.00000000000E+00  0.78342510654E+01  0.78342526866E+01  0.50400000000E-02 0.  1.
          1   -1    0    0  501    0  0.00000000000E+00 -0.00000000000E+00 -0.15833455324E+04  0.15833455324E+04  0.50400000000E-02 0. -1.
    5000001    1    1    2    0    0 -0.17486210298E+02 -0.67125796621E+02 -0.10791214118E+04  0.10840865563E+04  0.77000000000E+02 0.  0.
   -5000001    1    1    2    0    0  0.17486210298E+02  0.67125796621E+02 -0.49638986949E+03  0.50709322876E+03  0.77000000000E+02 0.  0.
<mgrwt>
<rscale>  0 0.22274944E+03</rscale>
<asrwt>0</asrwt>
<pdfrwt beam="1">  1        1 0.22619201E+00 0.22274944E+03</pdfrwt>
<pdfrwt beam="2">  1       -1 0.11191799E-02 0.22274944E+03</pdfrwt>
<totfact> 0.11882520E+04</totfact>
</mgrwt>
</event>
<event>
 4    1  0.3352993E-004  0.1975857E+03  0.7818608E-02  0.1151792E+00
         -1   -1    0    0    0  501 -0.00000000000E+00  0.00000000000E+00  0.18523723425E+02  0.18523724110E+02  0.50400000000E-02 0. -1.
          1   -1    0    0  501    0  0.00000000000E+00 -0.00000000000E+00 -0.52689333129E+03  0.52689333131E+03  0.50400000000E-02 0.  1.
    5000001    1    1    2    0    0 -0.67295903212E+01  0.60679155794E+02 -0.22606395776E+03  0.24649778971E+03  0.77000000000E+02 0.  0.
   -5000001    1    1    2    0    0  0.67295903212E+01 -0.60679155794E+02 -0.28230565010E+03  0.29891926571E+03  0.77000000000E+02 0.  0.
<mgrwt>
<rscale>  0 0.19758569E+03</rscale>
<asrwt>0</asrwt>
<pdfrwt beam="1">  1        1 0.75270467E-01 0.19758569E+03</pdfrwt>
<pdfrwt beam="2">  1       -1 0.26462466E-02 0.19758569E+03</pdfrwt>
<totfact> 0.20493431E+04</totfact>
</mgrwt>
</event>
<event>
 4    1  0.3352993E-004  0.4779476E+03  0.7818608E-02  0.1019701E+00
         -1   -1    0    0    0  501 -0.00000000000E+00  0.00000000000E+00  0.50683944235E+03  0.50683944237E+03  0.50400000000E-02 0. -1.
          1   -1    0    0  501    0  0.00000000000E+00 -0.00000000000E+00 -0.11267568095E+03  0.11267568106E+03  0.50400000000E-02 0.  1.
    5000001    1    1    2    0    0  0.11369912168E+03 -0.10734199547E+03  0.40900021905E+03  0.44458966863E+03  0.77000000000E+02 0.  0.
   -5000001    1    1    2    0    0 -0.11369912168E+03  0.10734199547E+03 -0.14836457657E+02  0.17492545481E+03  0.77000000000E+02 0.  0.
<mgrwt>
<rscale>  0 0.47794761E+03</rscale>
<asrwt>0</asrwt>
<pdfrwt beam="1">  1        1 0.16096526E-01 0.47794761E+03</pdfrwt>
<pdfrwt beam="2">  1       -1 0.72405635E-01 0.47794761E+03</pdfrwt>
<totfact> 0.68095896E+02</totfact>
</mgrwt>
</event>
<event>
 4    1  0.3352993E-004  0.2085929E+03  0.7818608E-02  0.1142685E+00
         -1   -1    0    0    0  501 -0.00000000000E+00  0.00000000000E+00  0.48180597477E+02  0.48180597740E+02  0.50400000000E-02 0.  1.
          1   -1    0    0  501    0  0.00000000000E+00 -0.00000000000E+00 -0.22577035835E+03  0.22577035840E+03  0.50400000000E-02 0. -1.
    5000001    1    1    2    0    0  0.58952862874E+02 -0.17135440935E+02 -0.13390321025E+03  0.16621712635E+03  0.77000000000E+02 0.  0.
   -5000001    1    1    2    0    0 -0.58952862874E+02  0.17135440935E+02 -0.43686550624E+02  0.10773382980E+03  0.77000000000E+02 0.  0.
<mgrwt>
<rscale>  0 0.20859291E+03</rscale>
<asrwt>0</asrwt>
<pdfrwt beam="1">  1        1 0.32252908E-01 0.20859291E+03</pdfrwt>
<pdfrwt beam="2">  1       -1 0.68829427E-02 0.20859291E+03</pdfrwt>
<totfact> 0.14522888E+04</totfact>
</mgrwt>
</event>
<event>
 4    1  0.3352993E-004  0.2422470E+03  0.7818608E-02  0.1118305E+00
         -1   -1    0    0    0  501 -0.00000000000E+00  0.00000000000E+00  0.15049106890E+02  0.15049107734E+02  0.50400000000E-02 0. -1.
          1   -1    0    0  501    0  0.00000000000E+00 -0.00000000000E+00 -0.97486841195E+03  0.97486841196E+03  0.50400000000E-02 0.  1.
    5000001    1    1    2    0    0  0.47785700131E+02 -0.76840460934E+02 -0.38372989337E+03  0.40170332416E+03  0.77000000000E+02 0.  0.
   -5000001    1    1    2    0    0 -0.47785700131E+02  0.76840460934E+02 -0.57608941168E+03  0.58821419553E+03  0.77000000000E+02 0.  0.
<mgrwt>
<rscale>  0 0.24224698E+03</rscale>
<asrwt>0</asrwt>
<pdfrwt beam="1">  1        1 0.13926688E+00 0.24224698E+03</pdfrwt>
<pdfrwt beam="2">  1       -1 0.21498731E-02 0.24224698E+03</pdfrwt>
<totfact> 0.11579341E+04</totfact>
</mgrwt>
</event>
<event>
 4    1  0.3352993E-004  0.2420740E+03  0.7818608E-02  0.1118419E+00
         -1   -1    0    0    0  501 -0.00000000000E+00  0.00000000000E+00  0.41617744210E+03  0.41617744213E+03  0.50400000000E-02 0. -1.
          1   -1    0    0  501    0  0.00000000000E+00 -0.00000000000E+00 -0.35201229302E+02  0.35201229663E+02  0.50400000000E-02 0.  1.
    5000001    1    1    2    0    0 -0.30559301430E+02 -0.59324245483E+02  0.68675889784E+02  0.12287642102E+03  0.77000000000E+02 0.  0.
   -5000001    1    1    2    0    0  0.30559301430E+02  0.59324245483E+02  0.31230032301E+03  0.32850225077E+03  0.77000000000E+02 0.  0.
<mgrwt>
<rscale>  0 0.24207402E+03</rscale>
<asrwt>0</asrwt>
<pdfrwt beam="1">  1        1 0.50287469E-02 0.24207402E+03</pdfrwt>
<pdfrwt beam="2">  1       -1 0.59453922E-01 0.24207402E+03</pdfrwt>
<totfact> 0.48345604E+03</totfact>
</mgrwt>
</event>
<event>
 4    1  0.3352993E-004  0.1820517E+03  0.7818608E-02  0.1165832E+00
         -1   -1    0    0    0  501 -0.00000000000E+00  0.00000000000E+00  0.85217242143E+01  0.85217257047E+01  0.50400000000E-02 0.  1.
          1   -1    0    0  501    0  0.00000000000E+00 -0.00000000000E+00 -0.97230422625E+03  0.97230422626E+03  0.50400000000E-02 0. -1.
    5000001    1    1    2    0    0  0.43448910222E+02  0.16544700056E+00 -0.59855211815E+03  0.60504667036E+03  0.77000000000E+02 0.  0.
   -5000001    1    1    2    0    0 -0.43448910222E+02 -0.16544700056E+00 -0.36523038389E+03  0.37577928161E+03  0.77000000000E+02 0.  0.
<mgrwt>
<rscale>  0 0.18205174E+03</rscale>
<asrwt>0</asrwt>
<pdfrwt beam="1">  1        1 0.13890053E+00 0.18205174E+03</pdfrwt>
<pdfrwt beam="2">  1       -1 0.12173899E-02 0.18205174E+03</pdfrwt>
<totfact> 0.26087330E+04</totfact>
</mgrwt>
</event>
<event>
 4    1  0.3352993E-004  0.1691628E+03  0.7818608E-02  0.1178724E+00
         -1   -1    0    0    0  501 -0.00000000000E+00  0.00000000000E+00  0.81269821940E+02  0.81269822096E+02  0.50400000000E-02 0. -1.
          1   -1    0    0  501    0  0.00000000000E+00 -0.00000000000E+00 -0.88027890554E+02  0.88027890698E+02  0.50400000000E-02 0.  1.
    5000001    1    1    2    0    0  0.15556571790E+02  0.18598182777E+01 -0.34701686341E+02  0.85899201887E+02  0.77000000000E+02 0.  0.
   -5000001    1    1    2    0    0 -0.15556571790E+02 -0.18598182777E+01  0.27943617727E+02  0.83398510907E+02  0.77000000000E+02 0.  0.
<mgrwt>
<rscale>  0 0.16916277E+03</rscale>
<asrwt>0</asrwt>
<pdfrwt beam="1">  1        1 0.12575413E-01 0.16916277E+03</pdfrwt>
<pdfrwt beam="2">  1       -1 0.11609975E-01 0.16916277E+03</pdfrwt>
<totfact> 0.21479063E+04</totfact>
</mgrwt>
</event>
<event>
 4    1  0.3352993E-004  0.3276408E+03  0.7818608E-02  0.1072186E+00
         -1   -1    0    0    0  501 -0.00000000000E+00  0.00000000000E+00  0.10138231620E+03  0.10138231633E+03  0.50400000000E-02 0. -1.
          1   -1    0    0  501    0  0.00000000000E+00 -0.00000000000E+00 -0.26471209685E+03  0.26471209690E+03  0.50400000000E-02 0.  1.
    5000001    1    1    2    0    0  0.82555201634E+02 -0.11592382613E+03 -0.53080630064E+02  0.17029459201E+03  0.77000000000E+02 0.  0.
   -5000001    1    1    2    0    0 -0.82555201634E+02  0.11592382613E+03 -0.11024915059E+03  0.19579982121E+03  0.77000000000E+02 0.  0.
<mgrwt>
<rscale>  0 0.32764081E+03</rscale>
<asrwt>0</asrwt>
<pdfrwt beam="1">  1        1 0.37816014E-01 0.32764081E+03</pdfrwt>
<pdfrwt beam="2">  1       -1 0.14483188E-01 0.32764081E+03</pdfrwt>
<totfact> 0.38394261E+03</totfact>
</mgrwt>
</event>
<event>
 4    1  0.3352993E-004  0.2257520E+03  0.7818608E-02  0.1129666E+00
          1   -1    0    0  501    0  0.00000000000E+00  0.00000000000E+00  0.24122696557E+03  0.24122696563E+03  0.50400000000E-02 0.  1.
         -1   -1    0    0    0  501 -0.00000000000E+00 -0.00000000000E+00 -0.52817435081E+02  0.52817435321E+02  0.50400000000E-02 0. -1.
    5000001    1    1    2    0    0 -0.79439247807E+02  0.22172980862E+02  0.98272785023E+02  0.14962879218E+03  0.77000000000E+02 0.  0.
   -5000001    1    1    2    0    0  0.79439247807E+02 -0.22172980862E+02  0.90136745470E+02  0.14441560877E+03  0.77000000000E+02 0.  0.
<mgrwt>
<rscale>  0 0.22575198E+03</rscale>
<asrwt>0</asrwt>
<pdfrwt beam="1">  1        1 0.34460995E-01 0.22575198E+03</pdfrwt>
<pdfrwt beam="2">  1       -1 0.75453478E-02 0.22575198E+03</pdfrwt>
<totfact> 0.11689377E+04</totfact>
</mgrwt>
</event>
<event>
 4    1  0.3352993E-004  0.1828050E+03  0.7818608E-02  0.1165116E+00
          1   -1    0    0  501    0  0.00000000000E+00  0.00000000000E+00  0.28057797318E+02  0.28057797771E+02  0.50400000000E-02 0.  1.
         -1   -1    0    0    0  501 -0.00000000000E+00 -0.00000000000E+00 -0.29775728543E+03  0.29775728547E+03  0.50400000000E-02 0. -1.
    5000001    1    1    2    0    0 -0.15483834473E+02 -0.45219087356E+02 -0.15600589343E+03  0.18041993730E+03  0.77000000000E+02 0.  0.
   -5000001    1    1    2    0    0  0.15483834473E+02  0.45219087356E+02 -0.11369359468E+03  0.14539514594E+03  0.77000000000E+02 0.  0.
<mgrwt>
<rscale>  0 0.18280496E+03</rscale>
<asrwt>0</asrwt>
<pdfrwt beam="1">  1        1 0.40082570E-02 0.18280496E+03</pdfrwt>
<pdfrwt beam="2">  1       -1 0.42536753E-01 0.18280496E+03</pdfrwt>
<totfact> 0.12064907E+04</totfact>
</mgrwt>
</event>
<event>
 4    1  0.3352993E-004  0.2918133E+03  0.7818608E-02  0.1089406E+00
          1   -1    0    0  501    0  0.00000000000E+00  0.00000000000E+00  0.97306694406E+03  0.97306694407E+03  0.50400000000E-02 0.  1.
         -1   -1    0    0    0  501 -0.00000000000E+00 -0.00000000000E+00 -0.21877997777E+02  0.21877998358E+02  0.50400000000E-02 0. -1.
    5000001    1    1    2    0    0  0.71277166465E+02 -0.98052888854E+02  0.38767411186E+03  0.41341869875E+03  0.77000000000E+02 0.  0.
   -5000001    1    1    2    0    0 -0.71277166465E+02  0.98052888854E+02  0.56351483442E+03  0.58152624367E+03  0.77000000000E+02 0.  0.
<mgrwt>
<rscale>  0 0.29181334E+03</rscale>
<asrwt>0</asrwt>
<pdfrwt beam="1">  1        1 0.13900961E+00 0.29181334E+03</pdfrwt>
<pdfrwt beam="2">  1       -1 0.31254273E-02 0.29181334E+03</pdfrwt>
<totfact> 0.67415744E+03</totfact>
</mgrwt>
</event>
<event>
 4    1  0.3352993E-004  0.1695267E+03  0.7818608E-02  0.1178342E+00
         -1   -1    0    0    0  501 -0.00000000000E+00  0.00000000000E+00  0.35408228387E+02  0.35408228746E+02  0.50400000000E-02 0.  1.
          1   -1    0    0  501    0  0.00000000000E+00 -0.00000000000E+00 -0.20291389589E+03  0.20291389595E+03  0.50400000000E-02 0. -1.
    5000001    1    1    2    0    0 -0.16653659961E+02  0.30631854241E+02 -0.74843204472E+02  0.11289889344E+03  0.77000000000E+02 0.  0.
   -5000001    1    1    2    0    0  0.16653659961E+02 -0.30631854241E+02 -0.92662463027E+02  0.12542323126E+03  0.77000000000E+02 0.  0.
<mgrwt>
<rscale>  0 0.16952665E+03</rscale>
<asrwt>0</asrwt>
<pdfrwt beam="1">  1        1 0.28987699E-01 0.16952665E+03</pdfrwt>
<pdfrwt beam="2">  1       -1 0.50583185E-02 0.16952665E+03</pdfrwt>
<totfact> 0.25898616E+04</totfact>
</mgrwt>
</event>
<event>
 4    1  0.3352993E-004  0.1694071E+03  0.7818608E-02  0.1178468E+00
         -1   -1    0    0    0  501 -0.00000000000E+00  0.00000000000E+00  0.34840635735E+01  0.34840672189E+01  0.50400000000E-02 0.  1.
          1   -1    0    0  501    0  0.00000000000E+00 -0.00000000000E+00 -0.20592878288E+04  0.20592878288E+04  0.50400000000E-02 0. -1.
    5000001    1    1    2    0    0 -0.22658120411E+02 -0.19520884615E+02 -0.12561043612E+04  0.12588175489E+04  0.77000000000E+02 0.  0.
   -5000001    1    1    2    0    0  0.22658120411E+02  0.19520884615E+02 -0.79969940407E+03  0.80395434711E+03  0.77000000000E+02 0.  0.
<mgrwt>
<rscale>  0 0.16940712E+03</rscale>
<asrwt>0</asrwt>
<pdfrwt beam="1">  1        1 0.29418320E+00 0.16940712E+03</pdfrwt>
<pdfrwt beam="2">  1       -1 0.49772495E-03 0.16940712E+03</pdfrwt>
<totfact> 0.19373127E+04</totfact>
</mgrwt>
</event>
<event>
 4    1  0.3352993E-004  0.1794062E+03  0.7818608E-02  0.1168379E+00
         -1   -1    0    0    0  501 -0.00000000000E+00  0.00000000000E+00  0.12853383758E+02  0.12853384747E+02  0.50400000000E-02 0. -1.
          1   -1    0    0  501    0  0.00000000000E+00 -0.00000000000E+00 -0.62603316649E+03  0.62603316651E+03  0.50400000000E-02 0.  1.
    5000001    1    1    2    0    0 -0.31546157901E+02 -0.65195265129E+01 -0.42361910884E+03  0.43176360856E+03  0.77000000000E+02 0.  0.
   -5000001    1    1    2    0    0  0.31546157901E+02  0.65195265129E+01 -0.18956067389E+03  0.20712294270E+03  0.77000000000E+02 0.  0.
<mgrwt>
<rscale>  0 0.17940619E+03</rscale>
<asrwt>0</asrwt>
<pdfrwt beam="1">  1        1 0.89433290E-01 0.17940619E+03</pdfrwt>
<pdfrwt beam="2">  1       -1 0.18361981E-02 0.17940619E+03</pdfrwt>
<totfact> 0.27497589E+04</totfact>
</mgrwt>
</event>
<event>
 4    1  0.3352993E-004  0.2979094E+03  0.7818608E-02  0.1086290E+00
          1   -1    0    0  501    0  0.00000000000E+00  0.00000000000E+00  0.13705307673E+04  0.13705307673E+04  0.50400000000E-02 0.  1.
         -1   -1    0    0    0  501 -0.00000000000E+00 -0.00000000000E+00 -0.16188982792E+02  0.16188983577E+02  0.50400000000E-02 0. -1.
    5000001    1    1    2    0    0  0.11954267910E+03 -0.40805355138E+02  0.75819320605E+03  0.77249043155E+03  0.77000000000E+02 0.  0.
   -5000001    1    1    2    0    0 -0.11954267910E+03  0.40805355138E+02  0.59614857846E+03  0.61422931934E+03  0.77000000000E+02 0.  0.
<mgrwt>
<rscale>  0 0.29790938E+03</rscale>
<asrwt>0</asrwt>
<pdfrwt beam="1">  1        1 0.19579012E+00 0.29790938E+03</pdfrwt>
<pdfrwt beam="2">  1       -1 0.23127117E-02 0.29790938E+03</pdfrwt>
<totfact> 0.56554200E+03</totfact>
</mgrwt>
</event>
<event>
 4    1  0.3352993E-004  0.1718512E+03  0.7818608E-02  0.1175931E+00
          1   -1    0    0  501    0  0.00000000000E+00  0.00000000000E+00  0.75344863129E+03  0.75344863131E+03  0.50400000000E-02 0. -1.
         -1   -1    0    0    0  501 -0.00000000000E+00 -0.00000000000E+00 -0.97992202492E+01  0.97992215453E+01  0.50400000000E-02 0.  1.
    5000001    1    1    2    0    0  0.31372125968E+02  0.77364905592E+01  0.46177078609E+03  0.46926039941E+03  0.77000000000E+02 0.  0.
   -5000001    1    1    2    0    0 -0.31372125968E+02 -0.77364905592E+01  0.28187862496E+03  0.29398745344E+03  0.77000000000E+02 0.  0.
<mgrwt>
<rscale>  0 0.17185121E+03</rscale>
<asrwt>0</asrwt>
<pdfrwt beam="1">  1        1 0.10763552E+00 0.17185121E+03</pdfrwt>
<pdfrwt beam="2">  1       -1 0.13998886E-02 0.17185121E+03</pdfrwt>
<totfact> 0.31287605E+04</totfact>
</mgrwt>
</event>
<event>
 4    1  0.3352993E-004  0.5041585E+03  0.7818608E-02  0.1012699E+00
          1   -1    0    0  501    0  0.00000000000E+00  0.00000000000E+00  0.67819203289E+02  0.67819203477E+02  0.50400000000E-02 0.  1.
         -1   -1    0    0    0  501 -0.00000000000E+00 -0.00000000000E+00 -0.93696091605E+03  0.93696091606E+03  0.50400000000E-02 0. -1.
    5000001    1    1    2    0    0  0.81328638650E+02  0.21372941506E+03 -0.57994037431E+03  0.62813569241E+03  0.77000000000E+02 0.  0.
   -5000001    1    1    2    0    0 -0.81328638650E+02 -0.21372941506E+03 -0.28920133845E+03  0.37664442713E+03  0.77000000000E+02 0.  0.
<mgrwt>
<rscale>  0 0.50415848E+03</rscale>
<asrwt>0</asrwt>
<pdfrwt beam="1">  1        1 0.96884582E-02 0.50415848E+03</pdfrwt>
<pdfrwt beam="2">  1       -1 0.13385155E+00 0.50415848E+03</pdfrwt>
<totfact> 0.33704944E+02</totfact>
</mgrwt>
</event>
<event>
 4    1  0.3352993E-004  0.2274711E+03  0.7818608E-02  0.1128432E+00
          1   -1    0    0  501    0  0.00000000000E+00  0.00000000000E+00  0.86000979853E+02  0.86000980000E+02  0.50400000000E-02 0.  1.
         -1   -1    0    0    0  501 -0.00000000000E+00 -0.00000000000E+00 -0.15041428707E+03  0.15041428716E+03  0.50400000000E-02 0. -1.
    5000001    1    1    2    0    0  0.74391616112E+02  0.37140107562E+02 -0.22168955114E+02  0.11547277908E+03  0.77000000000E+02 0.  0.
   -5000001    1    1    2    0    0 -0.74391616112E+02 -0.37140107562E+02 -0.42244352106E+02  0.12094248808E+03  0.77000000000E+02 0.  0.
<mgrwt>
<rscale>  0 0.22747111E+03</rscale>
<asrwt>0</asrwt>
<pdfrwt beam="1">  1        1 0.12285854E-01 0.22747111E+03</pdfrwt>
<pdfrwt beam="2">  1       -1 0.21487755E-01 0.22747111E+03</pdfrwt>
<totfact> 0.85271769E+03</totfact>
</mgrwt>
</event>
<event>
 4    1  0.3352993E-004  0.2095521E+03  0.7818608E-02  0.1141921E+00
         -1   -1    0    0    0  501 -0.00000000000E+00  0.00000000000E+00  0.27668654789E+02  0.27668655248E+02  0.50400000000E-02 0.  1.
          1   -1    0    0  501    0  0.00000000000E+00 -0.00000000000E+00 -0.39676734663E+03  0.39676734666E+03  0.50400000000E-02 0. -1.
    5000001    1    1    2    0    0 -0.45853039592E+02 -0.51156174437E+02 -0.22131901642E+03  0.24419369863E+03  0.77000000000E+02 0.  0.
   -5000001    1    1    2    0    0  0.45853039592E+02  0.51156174437E+02 -0.14777967542E+03  0.18024230328E+03  0.77000000000E+02 0.  0.
<mgrwt>
<rscale>  0 0.20955208E+03</rscale>
<asrwt>0</asrwt>
<pdfrwt beam="1">  1        1 0.56681046E-01 0.20955208E+03</pdfrwt>
<pdfrwt beam="2">  1       -1 0.39526652E-02 0.20955208E+03</pdfrwt>
<totfact> 0.16422918E+04</totfact>
</mgrwt>
</event>
<event>
 4    1  0.3352993E-004  0.1887032E+03  0.7818608E-02  0.1159636E+00
         -1   -1    0    0    0  501 -0.00000000000E+00  0.00000000000E+00  0.33295518744E+03  0.33295518748E+03  0.50400000000E-02 0.  1.
          1   -1    0    0  501    0  0.00000000000E+00 -0.00000000000E+00 -0.26737006606E+02  0.26737007081E+02  0.50400000000E-02 0. -1.
    5000001    1    1    2    0    0  0.22187515064E+02 -0.35420328836E+02  0.86358192712E+02  0.12301879112E+03  0.77000000000E+02 0.  0.
   -5000001    1    1    2    0    0 -0.22187515064E+02  0.35420328836E+02  0.21985998812E+03  0.23667340344E+03  0.77000000000E+02 0.  0.
<mgrwt>
<rscale>  0 0.18870321E+03</rscale>
<asrwt>0</asrwt>
<pdfrwt beam="1">  1        1 0.38195726E-02 0.18870321E+03</pdfrwt>
<pdfrwt beam="2">  1       -1 0.47565025E-01 0.18870321E+03</pdfrwt>
<totfact> 0.10574218E+04</totfact>
</mgrwt>
</event>
<event>
 4    1  0.3352993E-004  0.1742793E+03  0.7818608E-02  0.1173457E+00
          1   -1    0    0  501    0  0.00000000000E+00  0.00000000000E+00  0.33284209176E+03  0.33284209180E+03  0.50400000000E-02 0.  1.
         -1   -1    0    0    0  501 -0.00000000000E+00 -0.00000000000E+00 -0.22813569321E+02  0.22813569878E+02  0.50400000000E-02 0. -1.
    5000001    1    1    2    0    0  0.29782263517E+02  0.27813918344E+02  0.15107880527E+03  0.17439725536E+03  0.77000000000E+02 0.  0.
   -5000001    1    1    2    0    0 -0.29782263517E+02 -0.27813918344E+02  0.15894971717E+03  0.18125840632E+03  0.77000000000E+02 0.  0.
<mgrwt>
<rscale>  0 0.17427927E+03</rscale>
<asrwt>0</asrwt>
<pdfrwt beam="1">  1        1 0.47548871E-01 0.17427927E+03</pdfrwt>
<pdfrwt beam="2">  1       -1 0.32590813E-02 0.17427927E+03</pdfrwt>
<totfact> 0.26819988E+04</totfact>
</mgrwt>
</event>
<event>
 4    1  0.3352993E-004  0.2072257E+03  0.7818608E-02  0.1143782E+00
          1   -1    0    0  501    0  0.00000000000E+00  0.00000000000E+00  0.48819445554E+02  0.48819445814E+02  0.50400000000E-02 0.  1.
         -1   -1    0    0    0  501 -0.00000000000E+00 -0.00000000000E+00 -0.21990454969E+03  0.21990454975E+03  0.50400000000E-02 0. -1.
    5000001    1    1    2    0    0  0.15086983673E+02 -0.53559673412E+02 -0.31912649103E+02  0.10021812643E+03  0.77000000000E+02 0.  0.
   -5000001    1    1    2    0    0 -0.15086983673E+02  0.53559673412E+02 -0.13917245504E+03  0.16850586913E+03  0.77000000000E+02 0.  0.
<mgrwt>
<rscale>  0 0.20722566E+03</rscale>
<asrwt>0</asrwt>
<pdfrwt beam="1">  1        1 0.69742066E-02 0.20722566E+03</pdfrwt>
<pdfrwt beam="2">  1       -1 0.31414935E-01 0.20722566E+03</pdfrwt>
<totfact> 0.96385143E+03</totfact>
</mgrwt>
</event>
<event>
 4    1  0.3352993E-004  0.1767409E+03  0.7818608E-02  0.1170995E+00
         -1   -1    0    0    0  501 -0.00000000000E+00  0.00000000000E+00  0.30769525600E+02  0.30769526012E+02  0.50400000000E-02 0.  1.
          1   -1    0    0  501    0  0.00000000000E+00 -0.00000000000E+00 -0.25380085865E+03  0.25380085870E+03  0.50400000000E-02 0. -1.
    5000001    1    1    2    0    0  0.22780556111E+02  0.35750984191E+02 -0.96825284844E+02  0.13077164216E+03  0.77000000000E+02 0.  0.
   -5000001    1    1    2    0    0 -0.22780556111E+02 -0.35750984191E+02 -0.12620604820E+03  0.15379874255E+03  0.77000000000E+02 0.  0.
<mgrwt>
<rscale>  0 0.17674085E+03</rscale>
<asrwt>0</asrwt>
<pdfrwt beam="1">  1        1 0.36257264E-01 0.17674085E+03</pdfrwt>
<pdfrwt beam="2">  1       -1 0.43956467E-02 0.17674085E+03</pdfrwt>
<totfact> 0.24215284E+04</totfact>
</mgrwt>
</event>
<event>
 4    1  0.3352993E-004  0.2685693E+03  0.7818608E-02  0.1102101E+00
         -1   -1    0    0    0  501 -0.00000000000E+00  0.00000000000E+00  0.26387385493E+02  0.26387385975E+02  0.50400000000E-02 0. -1.
          1   -1    0    0  501    0  0.00000000000E+00 -0.00000000000E+00 -0.68337094004E+03  0.68337094006E+03  0.50400000000E-02 0.  1.
    5000001    1    1    2    0    0 -0.59457525482E+01  0.10856898514E+03 -0.37277605842E+03  0.39587064332E+03  0.77000000000E+02 0.  0.
   -5000001    1    1    2    0    0  0.59457525482E+01 -0.10856898514E+03 -0.28420749613E+03  0.31388768272E+03  0.77000000000E+02 0.  0.
<mgrwt>
<rscale>  0 0.26856934E+03</rscale>
<asrwt>0</asrwt>
<pdfrwt beam="1">  1        1 0.97624409E-01 0.26856934E+03</pdfrwt>
<pdfrwt beam="2">  1       -1 0.37696270E-02 0.26856934E+03</pdfrwt>
<totfact> 0.86916487E+03</totfact>
</mgrwt>
</event>
<event>
 4    1  0.3352993E-004  0.2557624E+03  0.7818608E-02  0.1109716E+00
          1   -1    0    0  501    0  0.00000000000E+00  0.00000000000E+00  0.23135256936E+03  0.23135256941E+03  0.50400000000E-02 0. -1.
         -1   -1    0    0    0  501 -0.00000000000E+00 -0.00000000000E+00 -0.70686919816E+02  0.70686919995E+02  0.50400000000E-02 0.  1.
    5000001    1    1    2    0    0 -0.71778133601E+02  0.51658218354E+02  0.14059455155E+03  0.18307512095E+03  0.77000000000E+02 0.  0.
   -5000001    1    1    2    0    0  0.71778133601E+02 -0.51658218354E+02  0.20071097992E+02  0.11896436845E+03  0.77000000000E+02 0.  0.
<mgrwt>
<rscale>  0 0.25576239E+03</rscale>
<asrwt>0</asrwt>
<pdfrwt beam="1">  1        1 0.33050367E-01 0.25576239E+03</pdfrwt>
<pdfrwt beam="2">  1       -1 0.10098132E-01 0.25576239E+03</pdfrwt>
<totfact> 0.79355584E+03</totfact>
</mgrwt>
</event>
<event>
 4    1  0.3352993E-004  0.1997432E+03  0.7818608E-02  0.1149956E+00
         -1   -1    0    0    0  501 -0.00000000000E+00  0.00000000000E+00  0.41636036396E+02  0.41636036702E+02  0.50400000000E-02 0. -1.
          1   -1    0    0  501    0  0.00000000000E+00 -0.00000000000E+00 -0.23956013928E+03  0.23956013934E+03  0.50400000000E-02 0.  1.
    5000001    1    1    2    0    0 -0.11965831242E+02  0.62421685078E+02 -0.10231921949E+03  0.14296108059E+03  0.77000000000E+02 0.  0.
   -5000001    1    1    2    0    0  0.11965831242E+02 -0.62421685078E+02 -0.95604883396E+02  0.13823509545E+03  0.77000000000E+02 0.  0.
<mgrwt>
<rscale>  0 0.19974318E+03</rscale>
<asrwt>0</asrwt>
<pdfrwt beam="1">  1        1 0.34222876E-01 0.19974318E+03</pdfrwt>
<pdfrwt beam="2">  1       -1 0.59480054E-02 0.19974318E+03</pdfrwt>
<totfact> 0.16747674E+04</totfact>
</mgrwt>
</event>
<event>
 4    1  0.3352993E-004  0.2372186E+03  0.7818608E-02  0.1121660E+00
          1   -1    0    0  501    0  0.00000000000E+00  0.00000000000E+00  0.12122645038E+03  0.12122645049E+03  0.50400000000E-02 0.  1.
         -1   -1    0    0    0  501 -0.00000000000E+00 -0.00000000000E+00 -0.11604862216E+03  0.11604862227E+03  0.50400000000E-02 0. -1.
    5000001    1    1    2    0    0 -0.25044790961E+02 -0.75473989470E+02 -0.40031068578E+02  0.11770748104E+03  0.77000000000E+02 0.  0.
   -5000001    1    1    2    0    0  0.25044790961E+02  0.75473989470E+02  0.45208896796E+02  0.11956759172E+03  0.77000000000E+02 0.  0.
<mgrwt>
<rscale>  0 0.23721857E+03</rscale>
<asrwt>0</asrwt>
<pdfrwt beam="1">  1        1 0.17318064E-01 0.23721857E+03</pdfrwt>
<pdfrwt beam="2">  1       -1 0.16578375E-01 0.23721857E+03</pdfrwt>
<totfact> 0.82809751E+03</totfact>
</mgrwt>
</event>
<event>
 4    1  0.3352993E-004  0.2570436E+03  0.7818608E-02  0.1108933E+00
          1   -1    0    0  501    0  0.00000000000E+00  0.00000000000E+00  0.16529056585E+04  0.16529056585E+04  0.50400000000E-02 0. -1.
         -1   -1    0    0    0  501 -0.00000000000E+00 -0.00000000000E+00 -0.99932223319E+01  0.99932236029E+01  0.50400000000E-02 0.  1.
    5000001    1    1    2    0    0  0.49465690028E+01  0.79976922596E+02  0.12391201264E+04  0.12440934307E+04  0.77000000000E+02 0.  0.
   -5000001    1    1    2    0    0 -0.49465690028E+01 -0.79976922596E+02  0.40379230977E+03  0.41880545140E+03  0.77000000000E+02 0.  0.
<mgrwt>
<rscale>  0 0.25704361E+03</rscale>
<asrwt>0</asrwt>
<pdfrwt beam="1">  1        1 0.23612926E+00 0.25704361E+03</pdfrwt>
<pdfrwt beam="2">  1       -1 0.14276040E-02 0.25704361E+03</pdfrwt>
<totfact> 0.76037914E+03</totfact>
</mgrwt>
</event>
<event>
 4    1  0.3352993E-004  0.3326847E+03  0.7818608E-02  0.1069955E+00
         -1   -1    0    0    0  501 -0.00000000000E+00  0.00000000000E+00  0.23739806022E+03  0.23739806027E+03  0.50400000000E-02 0.  1.
          1   -1    0    0  501    0  0.00000000000E+00 -0.00000000000E+00 -0.11655437081E+03  0.11655437092E+03  0.50400000000E-02 0. -1.
    5000001    1    1    2    0    0 -0.76894588580E+02  0.12545239042E+03  0.70498398430E+02  0.18041647429E+03  0.77000000000E+02 0.  0.
   -5000001    1    1    2    0    0  0.76894588580E+02 -0.12545239042E+03  0.50345290976E+02  0.17353595690E+03  0.77000000000E+02 0.  0.
<mgrwt>
<rscale>  0 0.33268473E+03</rscale>
<asrwt>0</asrwt>
<pdfrwt beam="1">  1        1 0.16650625E-01 0.33268473E+03</pdfrwt>
<pdfrwt beam="2">  1       -1 0.33914008E-01 0.33268473E+03</pdfrwt>
<totfact> 0.26891563E+03</totfact>
</mgrwt>
</event>
<event>
 4    1  0.3352993E-004  0.4186485E+03  0.7818608E-02  0.1037507E+00
         -1   -1    0    0    0  501 -0.00000000000E+00  0.00000000000E+00  0.96933811164E+02  0.96933811295E+02  0.50400000000E-02 0. -1.
          1   -1    0    0  501    0  0.00000000000E+00 -0.00000000000E+00 -0.45202645942E+03  0.45202645945E+03  0.50400000000E-02 0.  1.
    5000001    1    1    2    0    0  0.25662376771E+02  0.81359638812E+02  0.51868182614E+02  0.12608432407E+03  0.77000000000E+02 0.  0.
   -5000001    1    1    2    0    0 -0.25662376771E+02 -0.81359638812E+02 -0.40696083087E+03  0.42287594667E+03  0.77000000000E+02 0.  0.
<mgrwt>
<rscale>  0 0.41864853E+03</rscale>
<asrwt>0</asrwt>
<pdfrwt beam="1">  1        1 0.64575207E-01 0.41864853E+03</pdfrwt>
<pdfrwt beam="2">  1       -1 0.13847688E-01 0.41864853E+03</pdfrwt>
<totfact> 0.20894232E+03</totfact>
</mgrwt>
</event>
<event>
 4    1  0.3352993E-004  0.2823467E+03  0.7818608E-02  0.1094414E+00
         -1   -1    0    0    0  501 -0.00000000000E+00  0.00000000000E+00  0.11064190355E+02  0.11064191503E+02  0.50400000000E-02 0. -1.
          1   -1    0    0  501    0  0.00000000000E+00 -0.00000000000E+00 -0.18012993509E+04  0.18012993509E+04  0.50400000000E-02 0.  1.
    5000001    1    1    2    0    0 -0.43184427889E+02  0.89694555313E+02 -0.13056737729E+04  0.13117252034E+04  0.77000000000E+02 0.  0.
   -5000001    1    1    2    0    0  0.43184427889E+02 -0.89694555313E+02 -0.48456138766E+03  0.50063833900E+03  0.77000000000E+02 0.  0.
<mgrwt>
<rscale>  0 0.28234674E+03</rscale>
<asrwt>0</asrwt>
<pdfrwt beam="1">  1        1 0.25732829E+00 0.28234674E+03</pdfrwt>
<pdfrwt beam="2">  1       -1 0.15805999E-02 0.28234674E+03</pdfrwt>
<totfact> 0.53311489E+03</totfact>
</mgrwt>
</event>
<event>
 4    1  0.3352993E-004  0.1652847E+03  0.7818608E-02  0.1182856E+00
          1   -1    0    0  501    0  0.00000000000E+00  0.00000000000E+00  0.40938938769E+02  0.40938939079E+02  0.50400000000E-02 0. -1.
         -1   -1    0    0    0  501 -0.00000000000E+00 -0.00000000000E+00 -0.16682790978E+03  0.16682790985E+03  0.50400000000E-02 0.  1.
    5000001    1    1    2    0    0  0.16448865357E+02 -0.29083167763E+00 -0.94498241535E+02  0.12300230651E+03  0.77000000000E+02 0.  0.
   -5000001    1    1    2    0    0 -0.16448865357E+02  0.29083167763E+00 -0.31390729474E+02  0.84764542419E+02  0.77000000000E+02 0.  0.
<mgrwt>
<rscale>  0 0.16528470E+03</rscale>
<asrwt>0</asrwt>
<pdfrwt beam="1">  1        1 0.58484199E-02 0.16528470E+03</pdfrwt>
<pdfrwt beam="2">  1       -1 0.23832558E-01 0.16528470E+03</pdfrwt>
<totfact> 0.19097747E+04</totfact>
</mgrwt>
</event>
<event>
 4    1  0.3352993E-004  0.4902599E+03  0.7818608E-02  0.1016353E+00
         -1   -1    0    0    0  501 -0.00000000000E+00  0.00000000000E+00  0.13408054210E+03  0.13408054219E+03  0.50400000000E-02 0. -1.
          1   -1    0    0  501    0  0.00000000000E+00 -0.00000000000E+00 -0.44815376244E+03  0.44815376247E+03  0.50400000000E-02 0.  1.
    5000001    1    1    2    0    0 -0.31865412981E+02  0.22802413071E+03 -0.19729777557E+03  0.31283513386E+03  0.77000000000E+02 0.  0.
   -5000001    1    1    2    0    0  0.31865412981E+02 -0.22802413071E+03 -0.11677544477E+03  0.26939917081E+03  0.77000000000E+02 0.  0.
<mgrwt>
<rscale>  0 0.49025993E+03</rscale>
<asrwt>0</asrwt>
<pdfrwt beam="1">  1        1 0.64021966E-01 0.49025993E+03</pdfrwt>
<pdfrwt beam="2">  1       -1 0.19154363E-01 0.49025993E+03</pdfrwt>
<totfact> 0.12505432E+03</totfact>
</mgrwt>
</event>
<event>
 4    1  0.3352993E-004  0.4535119E+03  0.7818608E-02  0.1026680E+00
          1   -1    0    0  501    0  0.00000000000E+00  0.00000000000E+00  0.20997977865E+04  0.20997977865E+04  0.50400000000E-02 0.  1.
         -1   -1    0    0    0  501 -0.00000000000E+00 -0.00000000000E+00 -0.24487243472E+02  0.24487243991E+02  0.50400000000E-02 0. -1.
    5000001    1    1    2    0    0  0.11276731875E+03 -0.13601498026E+02  0.19208137563E+03  0.23606296574E+03  0.77000000000E+02 0.  0.
   -5000001    1    1    2    0    0 -0.11276731875E+03  0.13601498026E+02  0.18832291674E+04  0.18882220647E+04  0.77000000000E+02 0.  0.
<mgrwt>
<rscale>  0 0.45351190E+03</rscale>
<asrwt>0</asrwt>
<pdfrwt beam="1">  1        1 0.29997115E+00 0.45351190E+03</pdfrwt>
<pdfrwt beam="2">  1       -1 0.34981772E-02 0.45351190E+03</pdfrwt>
<totfact> 0.10777650E+03</totfact>
</mgrwt>
</event>
<event>
 4    1  0.3352993E-004  0.2502386E+03  0.7818608E-02  0.1113154E+00
          1   -1    0    0  501    0  0.00000000000E+00  0.00000000000E+00  0.30862976170E+03  0.30862976174E+03  0.50400000000E-02 0. -1.
         -1   -1    0    0    0  501 -0.00000000000E+00 -0.00000000000E+00 -0.50723680148E+02  0.50723680399E+02  0.50400000000E-02 0.  1.
    5000001    1    1    2    0    0 -0.46496305524E+01 -0.72290294910E+02  0.32852538899E+02  0.11070589467E+03  0.77000000000E+02 0.  0.
   -5000001    1    1    2    0    0  0.46496305524E+01  0.72290294910E+02  0.22505354265E+03  0.24864754747E+03  0.77000000000E+02 0.  0.
<mgrwt>
<rscale>  0 0.25023859E+03</rscale>
<asrwt>0</asrwt>
<pdfrwt beam="1">  1        1 0.44089968E-01 0.25023859E+03</pdfrwt>
<pdfrwt beam="2">  1       -1 0.72462397E-02 0.25023859E+03</pdfrwt>
<totfact> 0.91799151E+03</totfact>
</mgrwt>
</event>
<event>
 4    1  0.3352993E-004  0.6546869E+03  0.7818608E-02  0.9798024E-01
         -1   -1    0    0    0  501 -0.00000000000E+00  0.00000000000E+00  0.15291676642E+03  0.15291676650E+03  0.50400000000E-02 0. -1.
          1   -1    0    0  501    0  0.00000000000E+00 -0.00000000000E+00 -0.70073241441E+03  0.70073241443E+03  0.50400000000E-02 0.  1.
    5000001    1    1    2    0    0  0.20933888868E+03  0.23958532794E+03 -0.27509952251E+03  0.42758934384E+03  0.77000000000E+02 0.  0.
   -5000001    1    1    2    0    0 -0.20933888868E+03 -0.23958532794E+03 -0.27271612548E+03  0.42605983708E+03  0.77000000000E+02 0.  0.
<mgrwt>
<rscale>  0 0.65468690E+03</rscale>
<asrwt>0</asrwt>
<pdfrwt beam="1">  1        1 0.10010463E+00 0.65468690E+03</pdfrwt>
<pdfrwt beam="2">  1       -1 0.21845253E-01 0.65468690E+03</pdfrwt>
<totfact> 0.54059339E+02</totfact>
</mgrwt>
</event>
<event>
 4    1  0.3352993E-004  0.2486673E+03  0.7818608E-02  0.1114150E+00
         -1   -1    0    0    0  501 -0.00000000000E+00  0.00000000000E+00  0.17362758449E+02  0.17362759180E+02  0.50400000000E-02 0. -1.
          1   -1    0    0  501    0  0.00000000000E+00 -0.00000000000E+00 -0.89034570054E+03  0.89034570055E+03  0.50400000000E-02 0.  1.
    5000001    1    1    2    0    0  0.75032207170E+02 -0.62448388507E+02 -0.43476255449E+03  0.45219145517E+03  0.77000000000E+02 0.  0.
   -5000001    1    1    2    0    0 -0.75032207170E+02  0.62448388507E+02 -0.43822038760E+03  0.45551700457E+03  0.77000000000E+02 0.  0.
<mgrwt>
<rscale>  0 0.24866731E+03</rscale>
<asrwt>0</asrwt>
<pdfrwt beam="1">  1        1 0.12719221E+00 0.24866731E+03</pdfrwt>
<pdfrwt beam="2">  1       -1 0.24803947E-02 0.24866731E+03</pdfrwt>
<totfact> 0.10863042E+04</totfact>
</mgrwt>
</event>
<event>
 4    1  0.3352993E-004  0.3126186E+03  0.7818608E-02  0.1079097E+00
          1   -1    0    0  501    0  0.00000000000E+00  0.00000000000E+00  0.54517972313E+03  0.54517972316E+03  0.50400000000E-02 0.  1.
         -1   -1    0    0    0  501 -0.00000000000E+00 -0.00000000000E+00 -0.44815669133E+02  0.44815669416E+02  0.50400000000E-02 0. -1.
    5000001    1    1    2    0    0 -0.13196285957E+02  0.13406825806E+03  0.28574863368E+03  0.32516106998E+03  0.77000000000E+02 0.  0.
   -5000001    1    1    2    0    0  0.13196285957E+02 -0.13406825806E+03  0.21461542033E+03  0.26483432259E+03  0.77000000000E+02 0.  0.
<mgrwt>
<rscale>  0 0.31261858E+03</rscale>
<asrwt>0</asrwt>
<pdfrwt beam="1">  1        1 0.77882823E-01 0.31261858E+03</pdfrwt>
<pdfrwt beam="2">  1       -1 0.64022381E-02 0.31261858E+03</pdfrwt>
<totfact> 0.53788666E+03</totfact>
</mgrwt>
</event>
<event>
 4    1  0.3352993E-004  0.1952129E+03  0.7818608E-02  0.1153842E+00
          1   -1    0    0  501    0  0.00000000000E+00  0.00000000000E+00  0.63133172218E+03  0.63133172220E+03  0.50400000000E-02 0.  1.
         -1   -1    0    0    0  501 -0.00000000000E+00 -0.00000000000E+00 -0.15090355581E+02  0.15090356422E+02  0.50400000000E-02 0. -1.
    5000001    1    1    2    0    0 -0.49979413152E+02 -0.31115557176E+02  0.27009024055E+03  0.28695619470E+03  0.77000000000E+02 0.  0.
   -5000001    1    1    2    0    0  0.49979413152E+02  0.31115557176E+02  0.34615112605E+03  0.35946588392E+03  0.77000000000E+02 0.  0.
<mgrwt>
<rscale>  0 0.19521291E+03</rscale>
<asrwt>0</asrwt>
<pdfrwt beam="1">  1        1 0.90190239E-01 0.19521291E+03</pdfrwt>
<pdfrwt beam="2">  1       -1 0.21557653E-02 0.19521291E+03</pdfrwt>
<totfact> 0.21676376E+04</totfact>
</mgrwt>
</event>
<event>
 4    1  0.3352993E-004  0.3203712E+03  0.7818608E-02  0.1075479E+00
         -1   -1    0    0    0  501 -0.00000000000E+00  0.00000000000E+00  0.11105303955E+03  0.11105303967E+03  0.50400000000E-02 0. -1.
          1   -1    0    0  501    0  0.00000000000E+00 -0.00000000000E+00 -0.23105554825E+03  0.23105554831E+03  0.50400000000E-02 0.  1.
    5000001    1    1    2    0    0 -0.10624964578E+03 -0.82722945948E+02 -0.10269322669E+03  0.18602949181E+03  0.77000000000E+02 0.  0.
   -5000001    1    1    2    0    0  0.10624964578E+03  0.82722945948E+02 -0.17309282013E+02  0.15607909616E+03  0.77000000000E+02 0.  0.
<mgrwt>
<rscale>  0 0.32037117E+03</rscale>
<asrwt>0</asrwt>
<pdfrwt beam="1">  1        1 0.33007935E-01 0.32037117E+03</pdfrwt>
<pdfrwt beam="2">  1       -1 0.15864720E-01 0.32037117E+03</pdfrwt>
<totfact> 0.39401954E+03</totfact>
</mgrwt>
</event>
<event>
 4    1  0.3352993E-004  0.5015218E+03  0.7818608E-02  0.1013382E+00
          1   -1    0    0  501    0  0.00000000000E+00  0.00000000000E+00  0.11359315839E+03  0.11359315850E+03  0.50400000000E-02 0.  1.
         -1   -1    0    0    0  501 -0.00000000000E+00 -0.00000000000E+00 -0.55356352509E+03  0.55356352511E+03  0.50400000000E-02 0. -1.
    5000001    1    1    2    0    0  0.75454172651E+01  0.23557215049E+03 -0.17019599413E+03  0.30074382425E+03  0.77000000000E+02 0.  0.
   -5000001    1    1    2    0    0 -0.75454172651E+01 -0.23557215049E+03 -0.26977437258E+03  0.36641285936E+03  0.77000000000E+02 0.  0.
<mgrwt>
<rscale>  0 0.50152180E+03</rscale>
<asrwt>0</asrwt>
<pdfrwt beam="1">  1        1 0.16227594E-01 0.50152180E+03</pdfrwt>
<pdfrwt beam="2">  1       -1 0.79080502E-01 0.50152180E+03</pdfrwt>
<totfact> 0.56102620E+02</totfact>
</mgrwt>
</event>
<event>
 4    1  0.3352993E-004  0.4182893E+03  0.7818608E-02  0.1037625E+00
          1   -1    0    0  501    0  0.00000000000E+00  0.00000000000E+00  0.27138286367E+03  0.27138286371E+03  0.50400000000E-02 0.  1.
         -1   -1    0    0    0  501 -0.00000000000E+00 -0.00000000000E+00 -0.16118001043E+03  0.16118001051E+03  0.50400000000E-02 0. -1.
    5000001    1    1    2    0    0 -0.10414759551E+03  0.15224510189E+03  0.11874163217E+03  0.23249487717E+03  0.77000000000E+02 0.  0.
   -5000001    1    1    2    0    0  0.10414759551E+03 -0.15224510189E+03 -0.85387789314E+01  0.20006799705E+03  0.77000000000E+02 0.  0.
<mgrwt>
<rscale>  0 0.41828934E+03</rscale>
<asrwt>0</asrwt>
<pdfrwt beam="1">  1        1 0.38768981E-01 0.41828934E+03</pdfrwt>
<pdfrwt beam="2">  1       -1 0.23025716E-01 0.41828934E+03</pdfrwt>
<totfact> 0.17571245E+03</totfact>
</mgrwt>
</event>
<event>
 4    1  0.3352993E-004  0.1737425E+03  0.7818608E-02  0.1174000E+00
          1   -1    0    0  501    0  0.00000000000E+00  0.00000000000E+00  0.92492663392E+03  0.92492663394E+03  0.50400000000E-02 0.  1.
         -1   -1    0    0    0  501 -0.00000000000E+00 -0.00000000000E+00 -0.81591449827E+01  0.81591465394E+01  0.50400000000E-02 0. -1.
    5000001    1    1    2    0    0  0.29977099526E+02 -0.11659670816E+02  0.58806093019E+03  0.59395221359E+03  0.77000000000E+02 0.  0.
   -5000001    1    1    2    0    0 -0.29977099526E+02  0.11659670816E+02  0.32870655876E+03  0.33913356689E+03  0.77000000000E+02 0.  0.
<mgrwt>
<rscale>  0 0.17374247E+03</rscale>
<asrwt>0</asrwt>
<pdfrwt beam="1">  1        1 0.13213235E+00 0.17374247E+03</pdfrwt>
<pdfrwt beam="2">  1       -1 0.11655925E-02 0.17374247E+03</pdfrwt>
<totfact> 0.29958525E+04</totfact>
</mgrwt>
</event>
<event>
 4    1  0.3352993E-004  0.3003725E+03  0.7818608E-02  0.1085055E+00
          1   -1    0    0  501    0  0.00000000000E+00  0.00000000000E+00  0.95087528404E+03  0.95087528405E+03  0.50400000000E-02 0.  1.
         -1   -1    0    0    0  501 -0.00000000000E+00 -0.00000000000E+00 -0.23721203123E+02  0.23721203659E+02  0.50400000000E-02 0. -1.
    5000001    1    1    2    0    0 -0.12064336940E+03 -0.12661772427E+01  0.61121575429E+03  0.62775004905E+03  0.77000000000E+02 0.  0.
   -5000001    1    1    2    0    0  0.12064336940E+03  0.12661772427E+01  0.31593832663E+03  0.34684643867E+03  0.77000000000E+02 0.  0.
<mgrwt>
<rscale>  0 0.30037248E+03</rscale>
<asrwt>0</asrwt>
<pdfrwt beam="1">  1        1 0.13583930E+00 0.30037248E+03</pdfrwt>
<pdfrwt beam="2">  1       -1 0.33887440E-02 0.30037248E+03</pdfrwt>
<totfact> 0.62128571E+03</totfact>
</mgrwt>
</event>
<event>
 4    1  0.3352993E-004  0.2126075E+03  0.7818608E-02  0.1139518E+00
         -1   -1    0    0    0  501 -0.00000000000E+00  0.00000000000E+00  0.57651709270E+02  0.57651709491E+02  0.50400000000E-02 0. -1.
          1   -1    0    0  501    0  0.00000000000E+00 -0.00000000000E+00 -0.19601298887E+03  0.19601298894E+03  0.50400000000E-02 0.  1.
    5000001    1    1    2    0    0 -0.29837502506E+02  0.65328629044E+02 -0.86608974192E+02  0.13633862527E+03  0.77000000000E+02 0.  0.
   -5000001    1    1    2    0    0  0.29837502506E+02 -0.65328629044E+02 -0.51752305411E+02  0.11732607316E+03  0.77000000000E+02 0.  0.
<mgrwt>
<rscale>  0 0.21260747E+03</rscale>
<asrwt>0</asrwt>
<pdfrwt beam="1">  1        1 0.28001855E-01 0.21260747E+03</pdfrwt>
<pdfrwt beam="2">  1       -1 0.82359586E-02 0.21260747E+03</pdfrwt>
<totfact> 0.13227421E+04</totfact>
</mgrwt>
</event>
<event>
 4    1  0.3352993E-004  0.3302919E+03  0.7818608E-02  0.1071008E+00
          1   -1    0    0  501    0  0.00000000000E+00  0.00000000000E+00  0.11182778247E+04  0.11182778247E+04  0.50400000000E-02 0.  1.
         -1   -1    0    0    0  501 -0.00000000000E+00 -0.00000000000E+00 -0.24388554505E+02  0.24388555025E+02  0.50400000000E-02 0. -1.
    5000001    1    1    2    0    0  0.47202091723E+02 -0.12348514937E+03  0.33179524599E+03  0.36536790340E+03  0.77000000000E+02 0.  0.
   -5000001    1    1    2    0    0 -0.47202091723E+02  0.12348514937E+03  0.76209402416E+03  0.77729847629E+03  0.77000000000E+02 0.  0.
<mgrwt>
<rscale>  0 0.33029187E+03</rscale>
<asrwt>0</asrwt>
<pdfrwt beam="1">  1        1 0.15975397E+00 0.33029187E+03</pdfrwt>
<pdfrwt beam="2">  1       -1 0.34840793E-02 0.33029187E+03</pdfrwt>
<totfact> 0.45380441E+03</totfact>
</mgrwt>
</event>
<event>
 4    1  0.3352993E-004  0.2033432E+03  0.7818608E-02  0.1146949E+00
          1   -1    0    0  501    0  0.00000000000E+00  0.00000000000E+00  0.62595233953E+03  0.62595233955E+03  0.50400000000E-02 0. -1.
         -1   -1    0    0    0  501 -0.00000000000E+00 -0.00000000000E+00 -0.16514220531E+02  0.16514221300E+02  0.50400000000E-02 0.  1.
    5000001    1    1    2    0    0  0.17726567090E+02 -0.59376355995E+02  0.38004109730E+03  0.39268310183E+03  0.77000000000E+02 0.  0.
   -5000001    1    1    2    0    0 -0.17726567090E+02  0.59376355995E+02  0.22939702170E+03  0.24978345901E+03  0.77000000000E+02 0.  0.
<mgrwt>
<rscale>  0 0.20334321E+03</rscale>
<asrwt>0</asrwt>
<pdfrwt beam="1">  1        1 0.89421760E-01 0.20334321E+03</pdfrwt>
<pdfrwt beam="2">  1       -1 0.23591745E-02 0.20334321E+03</pdfrwt>
<totfact> 0.19285435E+04</totfact>
</mgrwt>
</event>
<event>
 4    1  0.3352993E-004  0.1738142E+03  0.7818608E-02  0.1173928E+00
          1   -1    0    0  501    0  0.00000000000E+00  0.00000000000E+00  0.53810427771E+02  0.53810428007E+02  0.50400000000E-02 0.  1.
         -1   -1    0    0    0  501 -0.00000000000E+00 -0.00000000000E+00 -0.14036018455E+03  0.14036018464E+03  0.50400000000E-02 0. -1.
    5000001    1    1    2    0    0 -0.89570003957E+01 -0.11785375983E+02 -0.14058394017E+01  0.78422568994E+02  0.77000000000E+02 0.  0.
   -5000001    1    1    2    0    0  0.89570003957E+01  0.11785375983E+02 -0.85143917378E+02  0.11574804365E+03  0.77000000000E+02 0.  0.
<mgrwt>
<rscale>  0 0.17381417E+03</rscale>
<asrwt>0</asrwt>
<pdfrwt beam="1">  1        1 0.76872040E-02 0.17381417E+03</pdfrwt>
<pdfrwt beam="2">  1       -1 0.20051455E-01 0.17381417E+03</pdfrwt>
<totfact> 0.17527768E+04</totfact>
</mgrwt>
</event>
<event>
 4    1  0.3352993E-004  0.2942398E+03  0.7818608E-02  0.1088156E+00
          1   -1    0    0  501    0  0.00000000000E+00  0.00000000000E+00  0.17838621740E+04  0.17838621740E+04  0.50400000000E-02 0.  1.
         -1   -1    0    0    0  501 -0.00000000000E+00 -0.00000000000E+00 -0.12133370867E+02  0.12133371914E+02  0.50400000000E-02 0. -1.
    5000001    1    1    2    0    0  0.88765375823E+02 -0.72235589367E+02  0.11981758138E+04  0.12060893636E+04  0.77000000000E+02 0.  0.
   -5000001    1    1    2    0    0 -0.88765375823E+02  0.72235589367E+02  0.57355298929E+03  0.58990618224E+03  0.77000000000E+02 0.  0.
<mgrwt>
<rscale>  0 0.29423978E+03</rscale>
<asrwt>0</asrwt>
<pdfrwt beam="1">  1        1 0.25483731E+00 0.29423978E+03</pdfrwt>
<pdfrwt beam="2">  1       -1 0.17333397E-02 0.29423978E+03</pdfrwt>
<totfact> 0.47762300E+03</totfact>
</mgrwt>
</event>
<event>
 4    1  0.3352993E-004  0.2017720E+03  0.7818608E-02  0.1148253E+00
         -1   -1    0    0    0  501 -0.00000000000E+00  0.00000000000E+00  0.10756456564E+03  0.10756456576E+03  0.50400000000E-02 0. -1.
          1   -1    0    0  501    0  0.00000000000E+00 -0.00000000000E+00 -0.94622069426E+02  0.94622069560E+02  0.50400000000E-02 0.  1.
    5000001    1    1    2    0    0  0.48579071478E+02  0.38484208393E+02 -0.13769802652E+02  0.99797634974E+02  0.77000000000E+02 0.  0.
   -5000001    1    1    2    0    0 -0.48579071478E+02 -0.38484208393E+02  0.26712298868E+02  0.10238900035E+03  0.77000000000E+02 0.  0.
<mgrwt>
<rscale>  0 0.20177197E+03</rscale>
<asrwt>0</asrwt>
<pdfrwt beam="1">  1        1 0.13517439E-01 0.20177197E+03</pdfrwt>
<pdfrwt beam="2">  1       -1 0.15366366E-01 0.20177197E+03</pdfrwt>
<totfact> 0.12783156E+04</totfact>
</mgrwt>
</event>
<event>
 4    1  0.3352993E-004  0.2107599E+03  0.7818608E-02  0.1140966E+00
          1   -1    0    0  501    0  0.00000000000E+00  0.00000000000E+00  0.19316306746E+04  0.19316306746E+04  0.50400000000E-02 0. -1.
         -1   -1    0    0    0  501 -0.00000000000E+00 -0.00000000000E+00 -0.57489950682E+01  0.57489972774E+01  0.50400000000E-02 0.  1.
    5000001    1    1    2    0    0 -0.63364131961E+02 -0.41231999235E+00  0.64975882978E+03  0.65736650364E+03  0.77000000000E+02 0.  0.
   -5000001    1    1    2    0    0  0.63364131961E+02  0.41231999235E+00  0.12761228498E+04  0.12800131683E+04  0.77000000000E+02 0.  0.
<mgrwt>
<rscale>  0 0.21075993E+03</rscale>
<asrwt>0</asrwt>
<pdfrwt beam="1">  1        1 0.27594744E+00 0.21075993E+03</pdfrwt>
<pdfrwt beam="2">  1       -1 0.82128456E-03 0.21075993E+03</pdfrwt>
<totfact> 0.11396685E+04</totfact>
</mgrwt>
</event>
<event>
 4    1  0.3352993E-004  0.2110350E+03  0.7818608E-02  0.1140749E+00
         -1   -1    0    0    0  501 -0.00000000000E+00  0.00000000000E+00  0.47255316883E+02  0.47255317152E+02  0.50400000000E-02 0.  1.
          1   -1    0    0  501    0  0.00000000000E+00 -0.00000000000E+00 -0.23561252366E+03  0.23561252371E+03  0.50400000000E-02 0. -1.
    5000001    1    1    2    0    0 -0.16530364181E+02  0.69577382280E+02 -0.10694250613E+03  0.14993320074E+03  0.77000000000E+02 0.  0.
   -5000001    1    1    2    0    0  0.16530364181E+02 -0.69577382280E+02 -0.81414700638E+02  0.13293464012E+03  0.77000000000E+02 0.  0.
<mgrwt>
<rscale>  0 0.21103502E+03</rscale>
<asrwt>0</asrwt>
<pdfrwt beam="1">  1        1 0.33658931E-01 0.21103502E+03</pdfrwt>
<pdfrwt beam="2">  1       -1 0.67507597E-02 0.21103502E+03</pdfrwt>
<totfact> 0.14187490E+04</totfact>
</mgrwt>
</event>
<event>
 4    1  0.3352993E-004  0.2189855E+03  0.7818608E-02  0.1134642E+00
         -1   -1    0    0    0  501 -0.00000000000E+00  0.00000000000E+00  0.95272220433E+01  0.95272233764E+01  0.50400000000E-02 0.  1.
          1   -1    0    0  501    0  0.00000000000E+00 -0.00000000000E+00 -0.12583581990E+04  0.12583581990E+04  0.50400000000E-02 0. -1.
    5000001    1    1    2    0    0 -0.21599075542E+02 -0.73630186500E+02 -0.54854142311E+03  0.55920892097E+03  0.77000000000E+02 0.  0.
   -5000001    1    1    2    0    0  0.21599075542E+02  0.73630186500E+02 -0.70028955382E+03  0.70867650139E+03  0.77000000000E+02 0.  0.
<mgrwt>
<rscale>  0 0.21898547E+03</rscale>
<asrwt>0</asrwt>
<pdfrwt beam="1">  1        1 0.17976535E+00 0.21898547E+03</pdfrwt>
<pdfrwt beam="2">  1       -1 0.13610326E-02 0.21898547E+03</pdfrwt>
<totfact> 0.14340145E+04</totfact>
</mgrwt>
</event>
<event>
 4    1  0.3352993E-004  0.2065125E+03  0.7818608E-02  0.1144358E+00
          1   -1    0    0  501    0  0.00000000000E+00  0.00000000000E+00  0.12829314326E+03  0.12829314336E+03  0.50400000000E-02 0. -1.
         -1   -1    0    0    0  501 -0.00000000000E+00 -0.00000000000E+00 -0.83105415140E+02  0.83105415293E+02  0.50400000000E-02 0.  1.
    5000001    1    1    2    0    0 -0.29553864856E+02  0.44474777675E+02 -0.21807704164E+02  0.96208173967E+02  0.77000000000E+02 0.  0.
   -5000001    1    1    2    0    0  0.29553864856E+02 -0.44474777675E+02  0.66995432287E+02  0.11519038469E+03  0.77000000000E+02 0.  0.
<mgrwt>
<rscale>  0 0.20651252E+03</rscale>
<asrwt>0</asrwt>
<pdfrwt beam="1">  1        1 0.18327592E-01 0.20651252E+03</pdfrwt>
<pdfrwt beam="2">  1       -1 0.11872202E-01 0.20651252E+03</pdfrwt>
<totfact> 0.12908039E+04</totfact>
</mgrwt>
</event>
<event>
 4    1  0.3352993E-004  0.4114553E+03  0.7818608E-02  0.1039884E+00
         -1   -1    0    0    0  501 -0.00000000000E+00  0.00000000000E+00  0.14365459815E+02  0.14365460699E+02  0.50400000000E-02 0. -1.
          1   -1    0    0  501    0  0.00000000000E+00 -0.00000000000E+00 -0.29462236410E+04  0.29462236410E+04  0.50400000000E-02 0.  1.
    5000001    1    1    2    0    0  0.44827217947E+02 -0.12181894147E+03 -0.24718855399E+04  0.24764887354E+04  0.77000000000E+02 0.  0.
   -5000001    1    1    2    0    0 -0.44827217947E+02  0.12181894147E+03 -0.45997264128E+03  0.48410036635E+03  0.77000000000E+02 0.  0.
<mgrwt>
<rscale>  0 0.41145526E+03</rscale>
<asrwt>0</asrwt>
<pdfrwt beam="1">  1        1 0.42088871E+00 0.41145526E+03</pdfrwt>
<pdfrwt beam="2">  1       -1 0.20522105E-02 0.41145526E+03</pdfrwt>
<totfact> 0.71428431E+02</totfact>
</mgrwt>
</event>
<event>
 4    1  0.3352993E-004  0.1752654E+03  0.7818608E-02  0.1172465E+00
          1   -1    0    0  501    0  0.00000000000E+00  0.00000000000E+00  0.66094709328E+03  0.66094709330E+03  0.50400000000E-02 0.  1.
         -1   -1    0    0    0  501 -0.00000000000E+00 -0.00000000000E+00 -0.11618923692E+02  0.11618924785E+02  0.50400000000E-02 0. -1.
    5000001    1    1    2    0    0 -0.36272280395E+02 -0.45859968181E+01  0.40272357981E+03  0.41164546812E+03  0.77000000000E+02 0.  0.
   -5000001    1    1    2    0    0  0.36272280395E+02  0.45859968181E+01  0.24660458977E+03  0.26092054996E+03  0.77000000000E+02 0.  0.
<mgrwt>
<rscale>  0 0.17526545E+03</rscale>
<asrwt>0</asrwt>
<pdfrwt beam="1">  1        1 0.94421021E-01 0.17526545E+03</pdfrwt>
<pdfrwt beam="2">  1       -1 0.16598462E-02 0.17526545E+03</pdfrwt>
<totfact> 0.29482716E+04</totfact>
</mgrwt>
</event>
<event>
 4    1  0.3352993E-004  0.2604810E+03  0.7818608E-02  0.1106855E+00
          1   -1    0    0  501    0  0.00000000000E+00  0.00000000000E+00  0.24207798818E+02  0.24207799343E+02  0.50400000000E-02 0.  1.
         -1   -1    0    0    0  501 -0.00000000000E+00 -0.00000000000E+00 -0.70070746351E+03  0.70070746352E+03  0.50400000000E-02 0. -1.
    5000001    1    1    2    0    0 -0.67041675358E+02 -0.50961067660E+02 -0.51297996932E+03  0.52551790224E+03  0.77000000000E+02 0.  0.
   -5000001    1    1    2    0    0  0.67041675358E+02  0.50961067660E+02 -0.16351969537E+03  0.19939736063E+03  0.77000000000E+02 0.  0.
<mgrwt>
<rscale>  0 0.26048098E+03</rscale>
<asrwt>0</asrwt>
<pdfrwt beam="1">  1        1 0.34582574E-02 0.26048098E+03</pdfrwt>
<pdfrwt beam="2">  1       -1 0.10010105E+00 0.26048098E+03</pdfrwt>
<totfact> 0.27958475E+03</totfact>
</mgrwt>
</event>
<event>
 4    1  0.3352993E-004  0.2000944E+03  0.7818608E-02  0.1149659E+00
         -1   -1    0    0    0  501 -0.00000000000E+00  0.00000000000E+00  0.33378696027E+03  0.33378696031E+03  0.50400000000E-02 0.  1.
          1   -1    0    0  501    0  0.00000000000E+00 -0.00000000000E+00 -0.29987510521E+02  0.29987510945E+02  0.50400000000E-02 0. -1.
    5000001    1    1    2    0    0 -0.21144278538E+02 -0.14349286706E+02  0.45464992782E+02  0.93000258669E+02  0.77000000000E+02 0.  0.
   -5000001    1    1    2    0    0  0.21144278538E+02  0.14349286706E+02  0.25833445697E+03  0.27077421258E+03  0.77000000000E+02 0.  0.
<mgrwt>
<rscale>  0 0.20009438E+03</rscale>
<asrwt>0</asrwt>
<pdfrwt beam="1">  1        1 0.42839300E-02 0.20009438E+03</pdfrwt>
<pdfrwt beam="2">  1       -1 0.47683852E-01 0.20009438E+03</pdfrwt>
<totfact> 0.90157769E+03</totfact>
</mgrwt>
</event>
<event>
 4    1  0.3352993E-004  0.1876940E+03  0.7818608E-02  0.1160558E+00
          1   -1    0    0  501    0  0.00000000000E+00  0.00000000000E+00  0.81771935638E+03  0.81771935640E+03  0.50400000000E-02 0.  1.
         -1   -1    0    0    0  501 -0.00000000000E+00 -0.00000000000E+00 -0.10770520618E+02  0.10770521798E+02  0.50400000000E-02 0. -1.
    5000001    1    1    2    0    0  0.26222763401E+02  0.32845122479E+02  0.55065671346E+03  0.55760044070E+03  0.77000000000E+02 0.  0.
   -5000001    1    1    2    0    0 -0.26222763401E+02 -0.32845122479E+02  0.25629212230E+03  0.27088943749E+03  0.77000000000E+02 0.  0.
<mgrwt>
<rscale>  0 0.18769405E+03</rscale>
<asrwt>0</asrwt>
<pdfrwt beam="1">  1        1 0.11681707E+00 0.18769405E+03</pdfrwt>
<pdfrwt beam="2">  1       -1 0.15386457E-02 0.18769405E+03</pdfrwt>
<totfact> 0.24385656E+04</totfact>
</mgrwt>
</event>
<event>
 4    1  0.3352993E-004  0.2758039E+03  0.7818608E-02  0.1098003E+00
          1   -1    0    0  501    0  0.00000000000E+00  0.00000000000E+00  0.74420529203E+02  0.74420529374E+02  0.50400000000E-02 0. -1.
         -1   -1    0    0    0  501 -0.00000000000E+00 -0.00000000000E+00 -0.25553367502E+03  0.25553367507E+03  0.50400000000E-02 0.  1.
    5000001    1    1    2    0    0  0.44227307926E+02 -0.69495333470E+02 -0.18553010608E+03  0.21710844388E+03  0.77000000000E+02 0.  0.
   -5000001    1    1    2    0    0 -0.44227307926E+02  0.69495333470E+02  0.44169602607E+01  0.11284576057E+03  0.77000000000E+02 0.  0.
<mgrwt>
<rscale>  0 0.27580393E+03</rscale>
<asrwt>0</asrwt>
<pdfrwt beam="1">  1        1 0.10631504E-01 0.27580393E+03</pdfrwt>
<pdfrwt beam="2">  1       -1 0.36504810E-01 0.27580393E+03</pdfrwt>
<totfact> 0.42664896E+03</totfact>
</mgrwt>
</event>
<event>
 4    1  0.3352993E-004  0.2232023E+03  0.7818608E-02  0.1131518E+00
         -1   -1    0    0    0  501 -0.00000000000E+00  0.00000000000E+00  0.14507170544E+03  0.14507170553E+03  0.50400000000E-02 0. -1.
          1   -1    0    0  501    0  0.00000000000E+00 -0.00000000000E+00 -0.85852832204E+02  0.85852832352E+02  0.50400000000E-02 0.  1.
    5000001    1    1    2    0    0 -0.19232864433E+02 -0.78124977397E+02  0.22120091019E+02  0.11354168219E+03  0.77000000000E+02 0.  0.
   -5000001    1    1    2    0    0  0.19232864433E+02  0.78124977397E+02  0.37098782215E+02  0.11738285569E+03  0.77000000000E+02 0.  0.
<mgrwt>
<rscale>  0 0.22320230E+03</rscale>
<asrwt>0</asrwt>
<pdfrwt beam="1">  1        1 0.12264690E-01 0.22320230E+03</pdfrwt>
<pdfrwt beam="2">  1       -1 0.20724529E-01 0.22320230E+03</pdfrwt>
<totfact> 0.90554118E+03</totfact>
</mgrwt>
</event>
<event>
 4    1  0.3352993E-004  0.6435575E+03  0.7818608E-02  0.9818944E-01
          1   -1    0    0  501    0  0.00000000000E+00  0.00000000000E+00  0.37951890286E+03  0.37951890290E+03  0.50400000000E-02 0.  1.
         -1   -1    0    0    0  501 -0.00000000000E+00 -0.00000000000E+00 -0.27282322917E+03  0.27282322921E+03  0.50400000000E-02 0. -1.
    5000001    1    1    2    0    0  0.29689384725E+03 -0.63474462224E+02 -0.21398864633E+02  0.31394565660E+03  0.77000000000E+02 0.  0.
   -5000001    1    1    2    0    0 -0.29689384725E+03  0.63474462224E+02  0.12809453833E+03  0.33839647551E+03  0.77000000000E+02 0.  0.
<mgrwt>
<rscale>  0 0.64355753E+03</rscale>
<asrwt>0</asrwt>
<pdfrwt beam="1">  1        1 0.54216987E-01 0.64355753E+03</pdfrwt>
<pdfrwt beam="2">  1       -1 0.38974747E-01 0.64355753E+03</pdfrwt>
<totfact> 0.45803840E+02</totfact>
</mgrwt>
</event>
<event>
 4    1  0.3352993E-004  0.2486136E+03  0.7818608E-02  0.1114184E+00
          1   -1    0    0  501    0  0.00000000000E+00  0.00000000000E+00  0.11314315989E+03  0.11314316000E+03  0.50400000000E-02 0. -1.
         -1   -1    0    0    0  501 -0.00000000000E+00 -0.00000000000E+00 -0.13657194383E+03  0.13657194392E+03  0.50400000000E-02 0.  1.
    5000001    1    1    2    0    0  0.56771828357E+02  0.74847222648E+02 -0.38251783249E+02  0.12734734451E+03  0.77000000000E+02 0.  0.
   -5000001    1    1    2    0    0 -0.56771828357E+02 -0.74847222648E+02  0.14822999306E+02  0.12236775940E+03  0.77000000000E+02 0.  0.
<mgrwt>
<rscale>  0 0.24861361E+03</rscale>
<asrwt>0</asrwt>
<pdfrwt beam="1">  1        1 0.16163309E-01 0.24861361E+03</pdfrwt>
<pdfrwt beam="2">  1       -1 0.19510277E-01 0.24861361E+03</pdfrwt>
<totfact> 0.69884039E+03</totfact>
</mgrwt>
</event>
<event>
 4    1  0.3352993E-004  0.1817478E+03  0.7818608E-02  0.1166122E+00
          1   -1    0    0  501    0  0.00000000000E+00  0.00000000000E+00  0.16341890586E+04  0.16341890586E+04  0.50400000000E-02 0.  1.
         -1   -1    0    0    0  501 -0.00000000000E+00 -0.00000000000E+00 -0.50533123725E+01  0.50533148859E+01  0.50400000000E-02 0. -1.
    5000001    1    1    2    0    0 -0.19944569551E+02  0.40343277350E+02  0.65738720272E+03  0.66340960211E+03  0.77000000000E+02 0.  0.
   -5000001    1    1    2    0    0  0.19944569551E+02 -0.40343277350E+02  0.97174854346E+03  0.97583277133E+03  0.77000000000E+02 0.  0.
<mgrwt>
<rscale>  0 0.18174785E+03</rscale>
<asrwt>0</asrwt>
<pdfrwt beam="1">  1        1 0.23345568E+00 0.18174785E+03</pdfrwt>
<pdfrwt beam="2">  1       -1 0.72190163E-03 0.18174785E+03</pdfrwt>
<totfact> 0.20566914E+04</totfact>
</mgrwt>
</event>
<event>
 4    1  0.3352993E-004  0.4855036E+03  0.7818608E-02  0.1017634E+00
         -1   -1    0    0    0  501 -0.00000000000E+00  0.00000000000E+00  0.10122156873E+03  0.10122156885E+03  0.50400000000E-02 0. -1.
          1   -1    0    0  501    0  0.00000000000E+00 -0.00000000000E+00 -0.58217262525E+03  0.58217262527E+03  0.50400000000E-02 0.  1.
    5000001    1    1    2    0    0  0.38875119337E+02 -0.20341991430E+03 -0.38199689370E+03  0.44129532428E+03  0.77000000000E+02 0.  0.
   -5000001    1    1    2    0    0 -0.38875119337E+02  0.20341991430E+03 -0.98954162828E+02  0.24209886984E+03  0.77000000000E+02 0.  0.
<mgrwt>
<rscale>  0 0.48550356E+03</rscale>
<asrwt>0</asrwt>
<pdfrwt beam="1">  1        1 0.83167517E-01 0.48550356E+03</pdfrwt>
<pdfrwt beam="2">  1       -1 0.14460224E-01 0.48550356E+03</pdfrwt>
<totfact> 0.13889937E+03</totfact>
</mgrwt>
</event>
<event>
 4    1  0.3352993E-004  0.2303938E+03  0.7818608E-02  0.1126363E+00
          1   -1    0    0  501    0  0.00000000000E+00  0.00000000000E+00  0.19688479542E+03  0.19688479549E+03  0.50400000000E-02 0.  1.
         -1   -1    0    0    0  501 -0.00000000000E+00 -0.00000000000E+00 -0.67401489529E+02  0.67401489717E+02  0.50400000000E-02 0. -1.
    5000001    1    1    2    0    0 -0.81953693489E+02  0.16998896882E+02  0.85767155119E+02  0.14244428830E+03  0.77000000000E+02 0.  0.
   -5000001    1    1    2    0    0  0.81953693489E+02 -0.16998896882E+02  0.43716150776E+02  0.12184199691E+03  0.77000000000E+02 0.  0.
<mgrwt>
<rscale>  0 0.23039382E+03</rscale>
<asrwt>0</asrwt>
<pdfrwt beam="1">  1        1 0.28126400E-01 0.23039382E+03</pdfrwt>
<pdfrwt beam="2">  1       -1 0.96287839E-02 0.23039382E+03</pdfrwt>
<totfact> 0.10407510E+04</totfact>
</mgrwt>
</event>
<event>
 4    1  0.3352993E-004  0.3802855E+03  0.7818608E-02  0.1050828E+00
         -1   -1    0    0    0  501 -0.00000000000E+00  0.00000000000E+00  0.33254574713E+03  0.33254574717E+03  0.50400000000E-02 0.  1.
          1   -1    0    0  501    0  0.00000000000E+00 -0.00000000000E+00 -0.10871965904E+03  0.10871965915E+03  0.50400000000E-02 0. -1.
    5000001    1    1    2    0    0  0.77488644971E+02 -0.13937406848E+03  0.31557953071E+02  0.17987363750E+03  0.77000000000E+02 0.  0.
   -5000001    1    1    2    0    0 -0.77488644971E+02  0.13937406848E+03  0.19226813502E+03  0.26139176882E+03  0.77000000000E+02 0.  0.
<mgrwt>
<rscale>  0 0.38028547E+03</rscale>
<asrwt>0</asrwt>
<pdfrwt beam="1">  1        1 0.15531380E-01 0.38028547E+03</pdfrwt>
<pdfrwt beam="2">  1       -1 0.47506536E-01 0.38028547E+03</pdfrwt>
<totfact> 0.16154959E+03</totfact>
</mgrwt>
</event>
<event>
 4    1  0.3352993E-004  0.6222756E+03  0.7818608E-02  0.9860239E-01
         -1   -1    0    0    0  501 -0.00000000000E+00  0.00000000000E+00  0.12670132928E+03  0.12670132938E+03  0.50400000000E-02 0. -1.
          1   -1    0    0  501    0  0.00000000000E+00 -0.00000000000E+00 -0.76405448446E+03  0.76405448448E+03  0.50400000000E-02 0.  1.
    5000001    1    1    2    0    0 -0.30117425351E+03  0.98014165510E+01 -0.33113266368E+03  0.45429047943E+03  0.77000000000E+02 0.  0.
   -5000001    1    1    2    0    0  0.30117425351E+03 -0.98014165510E+01 -0.30622049150E+03  0.43646533443E+03  0.77000000000E+02 0.  0.
<mgrwt>
<rscale>  0 0.62227556E+03</rscale>
<asrwt>0</asrwt>
<pdfrwt beam="1">  1        1 0.10915064E+00 0.62227556E+03</pdfrwt>
<pdfrwt beam="2">  1       -1 0.18100190E-01 0.62227556E+03</pdfrwt>
<totfact> 0.65010517E+02</totfact>
</mgrwt>
</event>
<event>
 4    1  0.3352993E-004  0.2251724E+03  0.7818608E-02  0.1130084E+00
          1   -1    0    0  501    0  0.00000000000E+00  0.00000000000E+00  0.31776840564E+03  0.31776840568E+03  0.50400000000E-02 0.  1.
         -1   -1    0    0    0  501 -0.00000000000E+00 -0.00000000000E+00 -0.39889607635E+02  0.39889607954E+02  0.50400000000E-02 0. -1.
    5000001    1    1    2    0    0  0.60385689986E+02 -0.55029127610E+02  0.12545966811E+03  0.16835606541E+03  0.77000000000E+02 0.  0.
   -5000001    1    1    2    0    0 -0.60385689986E+02  0.55029127610E+02  0.15241912990E+03  0.18930194822E+03  0.77000000000E+02 0.  0.
<mgrwt>
<rscale>  0 0.22517244E+03</rscale>
<asrwt>0</asrwt>
<pdfrwt beam="1">  1        1 0.45395488E-01 0.22517244E+03</pdfrwt>
<pdfrwt beam="2">  1       -1 0.56985152E-02 0.22517244E+03</pdfrwt>
<totfact> 0.12647982E+04</totfact>
</mgrwt>
</event>
<event>
 4    1  0.3352993E-004  0.1818261E+03  0.7818608E-02  0.1166047E+00
         -1   -1    0    0    0  501 -0.00000000000E+00  0.00000000000E+00  0.53273840380E+01  0.53273864220E+01  0.50400000000E-02 0. -1.
          1   -1    0    0  501    0  0.00000000000E+00 -0.00000000000E+00 -0.15514515078E+04  0.15514515078E+04  0.50400000000E-02 0.  1.
    5000001    1    1    2    0    0 -0.43139020016E+02  0.16767420635E+02 -0.65379046662E+03  0.65993416011E+03  0.77000000000E+02 0.  0.
   -5000001    1    1    2    0    0  0.43139020016E+02 -0.16767420635E+02 -0.89233365712E+03  0.89684473410E+03  0.77000000000E+02 0.  0.
<mgrwt>
<rscale>  0 0.18182607E+03</rscale>
<asrwt>0</asrwt>
<pdfrwt beam="1">  1        1 0.22163564E+00 0.18182607E+03</pdfrwt>
<pdfrwt beam="2">  1       -1 0.76105602E-03 0.18182607E+03</pdfrwt>
<totfact> 0.21420330E+04</totfact>
</mgrwt>
</event>
<event>
 4    1  0.3352993E-004  0.2090161E+03  0.7818608E-02  0.1142348E+00
         -1   -1    0    0    0  501 -0.00000000000E+00  0.00000000000E+00  0.70865915638E+01  0.70865933560E+01  0.50400000000E-02 0. -1.
          1   -1    0    0  501    0  0.00000000000E+00 -0.00000000000E+00 -0.15412105515E+04  0.15412105515E+04  0.50400000000E-02 0.  1.
    5000001    1    1    2    0    0 -0.11608279257E+02  0.64877459850E+02 -0.57833740923E+03  0.58715159530E+03  0.77000000000E+02 0.  0.
   -5000001    1    1    2    0    0  0.11608279257E+02 -0.64877459850E+02 -0.95578655070E+03  0.96114554957E+03  0.77000000000E+02 0.  0.
<mgrwt>
<rscale>  0 0.20901609E+03</rscale>
<asrwt>0</asrwt>
<pdfrwt beam="1">  1        1 0.22017272E+00 0.20901609E+03</pdfrwt>
<pdfrwt beam="2">  1       -1 0.10123713E-02 0.20901609E+03</pdfrwt>
<totfact> 0.14537012E+04</totfact>
</mgrwt>
</event>
