<event>
 4    1  0.6282309E-006  0.5512574E+03  0.7818608E-02  0.1001203E+00
         -1   -1    0    0    0  501 -0.00000000000E+00  0.00000000000E+00  0.21176668341E+03  0.21176668347E+03  0.50400000000E-02 0.  1.
          1   -1    0    0  501    0  0.00000000000E+00 -0.00000000000E+00 -0.35874945246E+03  0.35874945249E+03  0.50400000000E-02 0. -1.
    5000001    1    1    2    0    0 -0.12076291132E+03  0.14753065753E+03 -0.78257271949E+02  0.28648590938E+03  0.19900000000E+03 0.  0.
   -5000001    1    1    2    0    0  0.12076291132E+03 -0.14753065753E+03 -0.68725497098E+02  0.28403022658E+03  0.19900000000E+03 0.  0.
<mgrwt>
<rscale>  0 0.55125741E+03</rscale>
<asrwt>0</asrwt>
<pdfrwt beam="1">  1        1 0.51249922E-01 0.55125741E+03</pdfrwt>
<pdfrwt beam="2">  1       -1 0.30252383E-01 0.55125741E+03</pdfrwt>
<totfact> 0.77283906E+02</totfact>
</mgrwt>
</event>
<event>
 4    1  0.6282309E-006  0.6858532E+03  0.7818608E-02  0.9741736E-01
          1   -1    0    0  501    0  0.00000000000E+00  0.00000000000E+00  0.15046189473E+03  0.15046189481E+03  0.50400000000E-02 0. -1.
         -1   -1    0    0    0  501 -0.00000000000E+00 -0.00000000000E+00 -0.78158437915E+03  0.78158437917E+03  0.50400000000E-02 0.  1.
    5000001    1    1    2    0    0 -0.19051747558E+03 -0.20270231960E+03 -0.28192796670E+03  0.44324882096E+03  0.19900000000E+03 0.  0.
   -5000001    1    1    2    0    0  0.19051747558E+03  0.20270231960E+03 -0.34919451772E+03  0.48879745302E+03  0.19900000000E+03 0.  0.
<mgrwt>
<rscale>  0 0.68585324E+03</rscale>
<asrwt>0</asrwt>
<pdfrwt beam="1">  1        1 0.21494557E-01 0.68585324E+03</pdfrwt>
<pdfrwt beam="2">  1       -1 0.11165491E+00 0.68585324E+03</pdfrwt>
<totfact> 0.17838027E+02</totfact>
</mgrwt>
</event>
<event>
 4    1  0.6282309E-006  0.8440750E+03  0.7818608E-02  0.9498324E-01
         -1   -1    0    0    0  501 -0.00000000000E+00  0.00000000000E+00  0.18371674072E+03  0.18371674079E+03  0.50400000000E-02 0. -1.
          1   -1    0    0  501    0  0.00000000000E+00 -0.00000000000E+00 -0.96951227351E+03  0.96951227352E+03  0.50400000000E-02 0.  1.
    5000001    1    1    2    0    0 -0.24720354700E+03  0.27819459691E+03 -0.39778731642E+03  0.57994618415E+03  0.19900000000E+03 0.  0.
   -5000001    1    1    2    0    0  0.24720354700E+03 -0.27819459691E+03 -0.38800821636E+03  0.57328283016E+03  0.19900000000E+03 0.  0.
<mgrwt>
<rscale>  0 0.84407496E+03</rscale>
<asrwt>0</asrwt>
<pdfrwt beam="1">  1        1 0.13850175E+00 0.84407496E+03</pdfrwt>
<pdfrwt beam="2">  1       -1 0.26245249E-01 0.84407496E+03</pdfrwt>
<totfact> 0.23589105E+02</totfact>
</mgrwt>
</event>
<event>
 4    1  0.6282309E-006  0.5557526E+03  0.7818608E-02  0.1000171E+00
         -1   -1    0    0    0  501 -0.00000000000E+00  0.00000000000E+00  0.56022349950E+02  0.56022350176E+02  0.50400000000E-02 0. -1.
          1   -1    0    0  501    0  0.00000000000E+00 -0.00000000000E+00 -0.13782936650E+04  0.13782936650E+04  0.50400000000E-02 0.  1.
    5000001    1    1    2    0    0 -0.18408042398E+03  0.10982167848E+02 -0.50611164840E+03  0.57424403449E+03  0.19900000000E+03 0.  0.
   -5000001    1    1    2    0    0  0.18408042398E+03 -0.10982167848E+02 -0.81615966662E+03  0.86007198067E+03  0.19900000000E+03 0.  0.
<mgrwt>
<rscale>  0 0.55575264E+03</rscale>
<asrwt>0</asrwt>
<pdfrwt beam="1">  1        1 0.19689907E+00 0.55575264E+03</pdfrwt>
<pdfrwt beam="2">  1       -1 0.80031937E-02 0.55575264E+03</pdfrwt>
<totfact> 0.85531322E+02</totfact>
</mgrwt>
</event>
<event>
 4    1  0.6282309E-006  0.6198753E+03  0.7818608E-02  0.9865008E-01
          1   -1    0    0  501    0  0.00000000000E+00  0.00000000000E+00  0.65699767299E+03  0.65699767301E+03  0.50400000000E-02 0.  1.
         -1   -1    0    0    0  501 -0.00000000000E+00 -0.00000000000E+00 -0.14621261164E+03  0.14621261173E+03  0.50400000000E-02 0. -1.
    5000001    1    1    2    0    0 -0.16208791262E+03  0.15956099654E+03  0.34449099448E+03  0.45826547798E+03  0.19900000000E+03 0.  0.
   -5000001    1    1    2    0    0  0.16208791262E+03 -0.15956099654E+03  0.16629406687E+03  0.34494480676E+03  0.19900000000E+03 0.  0.
<mgrwt>
<rscale>  0 0.61987530E+03</rscale>
<asrwt>0</asrwt>
<pdfrwt beam="1">  1        1 0.93856811E-01 0.61987530E+03</pdfrwt>
<pdfrwt beam="2">  1       -1 0.20887516E-01 0.61987530E+03</pdfrwt>
<totfact> 0.64052596E+02</totfact>
</mgrwt>
</event>
<event>
 4    1  0.6282309E-006  0.7078362E+03  0.7818608E-02  0.9703924E-01
         -1   -1    0    0    0  501 -0.00000000000E+00  0.00000000000E+00  0.77287752723E+03  0.77287752725E+03  0.50400000000E-02 0. -1.
          1   -1    0    0  501    0  0.00000000000E+00 -0.00000000000E+00 -0.16206708030E+03  0.16206708038E+03  0.50400000000E-02 0.  1.
    5000001    1    1    2    0    0 -0.14940761479E+03 -0.44030569903E+02 -0.21876716558E+02  0.25365511462E+03  0.19900000000E+03 0.  0.
   -5000001    1    1    2    0    0  0.14940761479E+03  0.44030569903E+02  0.63268716349E+03  0.68128949301E+03  0.19900000000E+03 0.  0.
<mgrwt>
<rscale>  0 0.70783615E+03</rscale>
<asrwt>0</asrwt>
<pdfrwt beam="1">  1        1 0.23152440E-01 0.70783615E+03</pdfrwt>
<pdfrwt beam="2">  1       -1 0.11041108E+00 0.70783615E+03</pdfrwt>
<totfact> 0.16593258E+02</totfact>
</mgrwt>
</event>
<event>
 4    1  0.6282309E-006  0.6463215E+03  0.7818608E-02  0.9813706E-01
         -1   -1    0    0    0  501 -0.00000000000E+00  0.00000000000E+00  0.39056844269E+02  0.39056844594E+02  0.50400000000E-02 0. -1.
          1   -1    0    0  501    0  0.00000000000E+00 -0.00000000000E+00 -0.26738685298E+04  0.26738685298E+04  0.50400000000E-02 0.  1.
    5000001    1    1    2    0    0 -0.95528605241E+02 -0.16818203475E+03 -0.62233263773E+03  0.68140283476E+03  0.19900000000E+03 0.  0.
   -5000001    1    1    2    0    0  0.95528605241E+02  0.16818203475E+03 -0.20124790478E+04  0.20315225396E+04  0.19900000000E+03 0.  0.
<mgrwt>
<rscale>  0 0.64632149E+03</rscale>
<asrwt>0</asrwt>
<pdfrwt beam="1">  1        1 0.38198110E+00 0.64632149E+03</pdfrwt>
<pdfrwt beam="2">  1       -1 0.55795509E-02 0.64632149E+03</pdfrwt>
<totfact> 0.22990978E+02</totfact>
</mgrwt>
</event>
<event>
 4    1  0.6282309E-006  0.1497456E+04  0.7818608E-02  0.8886147E-01
         -1   -1    0    0    0  501 -0.00000000000E+00  0.00000000000E+00  0.74497450787E+03  0.74497450789E+03  0.50400000000E-02 0.  1.
          1   -1    0    0  501    0  0.00000000000E+00 -0.00000000000E+00 -0.75250026873E+03  0.75250026875E+03  0.50400000000E-02 0. -1.
    5000001    1    1    2    0    0 -0.49671005894E+03  0.52262036566E+03  0.29995332286E+02  0.74856773188E+03  0.19900000000E+03 0.  0.
   -5000001    1    1    2    0    0  0.49671005894E+03 -0.52262036566E+03 -0.37521093144E+02  0.74890704476E+03  0.19900000000E+03 0.  0.
<mgrwt>
<rscale>  0 0.14974559E+04</rscale>
<asrwt>0</asrwt>
<pdfrwt beam="1">  1        1 0.10750004E+00 0.14974559E+04</pdfrwt>
<pdfrwt beam="2">  1       -1 0.10642493E+00 0.14974559E+04</pdfrwt>
<totfact> 0.21869838E+01</totfact>
</mgrwt>
</event>
<event>
 4    1  0.6282309E-006  0.9595080E+03  0.7818608E-02  0.9354106E-01
         -1   -1    0    0    0  501 -0.00000000000E+00  0.00000000000E+00  0.35949384362E+03  0.35949384365E+03  0.50400000000E-02 0. -1.
          1   -1    0    0  501    0  0.00000000000E+00 -0.00000000000E+00 -0.64024437161E+03  0.64024437163E+03  0.50400000000E-02 0.  1.
    5000001    1    1    2    0    0  0.34697970438E+03 -0.25079360945E+03 -0.22921793827E+03  0.52481826666E+03  0.19900000000E+03 0.  0.
   -5000001    1    1    2    0    0 -0.34697970438E+03  0.25079360945E+03 -0.51532589717E+02  0.47491994862E+03  0.19900000000E+03 0.  0.
<mgrwt>
<rscale>  0 0.95950802E+03</rscale>
<asrwt>0</asrwt>
<pdfrwt beam="1">  1        1 0.91463482E-01 0.95950802E+03</pdfrwt>
<pdfrwt beam="2">  1       -1 0.51356263E-01 0.95950802E+03</pdfrwt>
<totfact> 0.13296155E+02</totfact>
</mgrwt>
</event>
<event>
 4    1  0.6282309E-006  0.7419976E+03  0.7818608E-02  0.9647989E-01
          1   -1    0    0  501    0  0.00000000000E+00  0.00000000000E+00  0.16746421825E+04  0.16746421825E+04  0.50400000000E-02 0. -1.
         -1   -1    0    0    0  501 -0.00000000000E+00 -0.00000000000E+00 -0.82190759453E+02  0.82190759607E+02  0.50400000000E-02 0.  1.
    5000001    1    1    2    0    0  0.84791494400E+02  0.27153859437E+03  0.48646024743E+03  0.59763482001E+03  0.19900000000E+03 0.  0.
   -5000001    1    1    2    0    0 -0.84791494400E+02 -0.27153859437E+03  0.11059911756E+04  0.11591981221E+04  0.19900000000E+03 0.  0.
<mgrwt>
<rscale>  0 0.74199761E+03</rscale>
<asrwt>0</asrwt>
<pdfrwt beam="1">  1        1 0.23923459E+00 0.74199761E+03</pdfrwt>
<pdfrwt beam="2">  1       -1 0.11741538E-01 0.74199761E+03</pdfrwt>
<totfact> 0.29854325E+02</totfact>
</mgrwt>
</event>
<event>
 4    1  0.6282309E-006  0.4607435E+03  0.7818608E-02  0.1024566E+00
          1   -1    0    0  501    0  0.00000000000E+00  0.00000000000E+00  0.82365248170E+03  0.82365248171E+03  0.50400000000E-02 0.  1.
         -1   -1    0    0    0  501 -0.00000000000E+00 -0.00000000000E+00 -0.64433887809E+02  0.64433888007E+02  0.50400000000E-02 0. -1.
    5000001    1    1    2    0    0  0.67930682590E+02 -0.93539743792E+02  0.39944206291E+03  0.46099807258E+03  0.19900000000E+03 0.  0.
   -5000001    1    1    2    0    0 -0.67930682590E+02  0.93539743792E+02  0.35977653098E+03  0.42708829713E+03  0.19900000000E+03 0.  0.
<mgrwt>
<rscale>  0 0.46074345E+03</rscale>
<asrwt>0</asrwt>
<pdfrwt beam="1">  1        1 0.11766463E+00 0.46074345E+03</pdfrwt>
<pdfrwt beam="2">  1       -1 0.92048419E-02 0.46074345E+03</pdfrwt>
<totfact> 0.17153750E+03</totfact>
</mgrwt>
</event>
<event>
 4    1  0.6282309E-006  0.5281894E+03  0.7818608E-02  0.1006672E+00
          1   -1    0    0  501    0  0.00000000000E+00  0.00000000000E+00  0.98094663321E+03  0.98094663322E+03  0.50400000000E-02 0. -1.
         -1   -1    0    0    0  501 -0.00000000000E+00 -0.00000000000E+00 -0.71100724854E+02  0.71100725033E+02  0.50400000000E-02 0.  1.
    5000001    1    1    2    0    0  0.11975978410E+03  0.98941808630E+02  0.60937578192E+03  0.65959967479E+03  0.19900000000E+03 0.  0.
   -5000001    1    1    2    0    0 -0.11975978410E+03 -0.98941808630E+02  0.30047012643E+03  0.39244768347E+03  0.19900000000E+03 0.  0.
<mgrwt>
<rscale>  0 0.52818942E+03</rscale>
<asrwt>0</asrwt>
<pdfrwt beam="1">  1        1 0.14013523E+00 0.52818942E+03</pdfrwt>
<pdfrwt beam="2">  1       -1 0.10157247E-01 0.52818942E+03</pdfrwt>
<totfact> 0.11091522E+03</totfact>
</mgrwt>
</event>
<event>
 4    1  0.6282309E-006  0.8878125E+03  0.7818608E-02  0.9440946E-01
         -1   -1    0    0    0  501 -0.00000000000E+00  0.00000000000E+00  0.11377710704E+03  0.11377710715E+03  0.50400000000E-02 0. -1.
          1   -1    0    0  501    0  0.00000000000E+00 -0.00000000000E+00 -0.17319193777E+04  0.17319193777E+04  0.50400000000E-02 0.  1.
    5000001    1    1    2    0    0 -0.94297039113E+02  0.38048074755E+03 -0.93712766715E+03  0.10351168028E+04  0.19900000000E+03 0.  0.
   -5000001    1    1    2    0    0  0.94297039113E+02 -0.38048074755E+03 -0.68101460355E+03  0.81057968213E+03  0.19900000000E+03 0.  0.
<mgrwt>
<rscale>  0 0.88781254E+03</rscale>
<asrwt>0</asrwt>
<pdfrwt beam="1">  1        1 0.24741704E+00 0.88781254E+03</pdfrwt>
<pdfrwt beam="2">  1       -1 0.16253874E-01 0.88781254E+03</pdfrwt>
<totfact> 0.16060217E+02</totfact>
</mgrwt>
</event>
<event>
 4    1  0.6282309E-006  0.7808482E+03  0.7818608E-02  0.9588160E-01
         -1   -1    0    0    0  501 -0.00000000000E+00  0.00000000000E+00  0.52621562355E+03  0.52621562357E+03  0.50400000000E-02 0.  1.
          1   -1    0    0  501    0  0.00000000000E+00 -0.00000000000E+00 -0.28967400687E+03  0.28967400691E+03  0.50400000000E-02 0. -1.
    5000001    1    1    2    0    0 -0.19815144123E+03  0.26812663265E+03  0.75518858995E+02  0.39555022799E+03  0.19900000000E+03 0.  0.
   -5000001    1    1    2    0    0  0.19815144123E+03 -0.26812663265E+03  0.16102275769E+03  0.42033940249E+03  0.19900000000E+03 0.  0.
<mgrwt>
<rscale>  0 0.78084823E+03</rscale>
<asrwt>0</asrwt>
<pdfrwt beam="1">  1        1 0.41382001E-01 0.78084823E+03</pdfrwt>
<pdfrwt beam="2">  1       -1 0.75173660E-01 0.78084823E+03</pdfrwt>
<totfact> 0.18200406E+02</totfact>
</mgrwt>
</event>
<event>
 4    1  0.6282309E-006  0.5684601E+03  0.7818608E-02  0.9973092E-01
          1   -1    0    0  501    0  0.00000000000E+00  0.00000000000E+00  0.15911864405E+04  0.15911864406E+04  0.50400000000E-02 0. -1.
         -1   -1    0    0    0  501 -0.00000000000E+00 -0.00000000000E+00 -0.50771371165E+02  0.50771371415E+02  0.50400000000E-02 0.  1.
    5000001    1    1    2    0    0 -0.13289101818E+03  0.10551977598E+03  0.10917363926E+04  0.11226236220E+04  0.19900000000E+03 0.  0.
   -5000001    1    1    2    0    0  0.13289101818E+03 -0.10551977598E+03  0.44867867681E+03  0.51933418995E+03  0.19900000000E+03 0.  0.
<mgrwt>
<rscale>  0 0.56846009E+03</rscale>
<asrwt>0</asrwt>
<pdfrwt beam="1">  1        1 0.22731230E+00 0.56846009E+03</pdfrwt>
<pdfrwt beam="2">  1       -1 0.72530547E-02 0.56846009E+03</pdfrwt>
<totfact> 0.72708426E+02</totfact>
</mgrwt>
</event>
<event>
 4    1  0.6282309E-006  0.5122977E+03  0.7818608E-02  0.1010618E+00
         -1   -1    0    0    0  501 -0.00000000000E+00  0.00000000000E+00  0.89857473907E+03  0.89857473909E+03  0.50400000000E-02 0. -1.
          1   -1    0    0  501    0  0.00000000000E+00 -0.00000000000E+00 -0.73018114469E+02  0.73018114643E+02  0.50400000000E-02 0.  1.
    5000001    1    1    2    0    0 -0.61203140680E+01  0.13646874655E+03  0.57537333108E+03  0.62395243981E+03  0.19900000000E+03 0.  0.
   -5000001    1    1    2    0    0  0.61203140680E+01 -0.13646874655E+03  0.25018329353E+03  0.34764041392E+03  0.19900000000E+03 0.  0.
<mgrwt>
<rscale>  0 0.51229770E+03</rscale>
<asrwt>0</asrwt>
<pdfrwt beam="1">  1        1 0.10431160E-01 0.51229770E+03</pdfrwt>
<pdfrwt beam="2">  1       -1 0.12836781E+00 0.51229770E+03</pdfrwt>
<totfact> 0.33818538E+02</totfact>
</mgrwt>
</event>
<event>
 4    1  0.6282309E-006  0.6879800E+03  0.7818608E-02  0.9738012E-01
          1   -1    0    0  501    0  0.00000000000E+00  0.00000000000E+00  0.19394464176E+03  0.19394464182E+03  0.50400000000E-02 0.  1.
         -1   -1    0    0    0  501 -0.00000000000E+00 -0.00000000000E+00 -0.61011799365E+03  0.61011799367E+03  0.50400000000E-02 0. -1.
    5000001    1    1    2    0    0 -0.20569424721E+03 -0.11684977356E+03 -0.38442208758E+03  0.49330045037E+03  0.19900000000E+03 0.  0.
   -5000001    1    1    2    0    0  0.20569424721E+03  0.11684977356E+03 -0.31751264308E+02  0.31076218512E+03  0.19900000000E+03 0.  0.
<mgrwt>
<rscale>  0 0.68797999E+03</rscale>
<asrwt>0</asrwt>
<pdfrwt beam="1">  1        1 0.27706378E-01 0.68797999E+03</pdfrwt>
<pdfrwt beam="2">  1       -1 0.87159713E-01 0.68797999E+03</pdfrwt>
<totfact> 0.22427465E+02</totfact>
</mgrwt>
</event>
<event>
 4    1  0.6282309E-006  0.9228951E+03  0.7818608E-02  0.9397405E-01
          1   -1    0    0  501    0  0.00000000000E+00  0.00000000000E+00  0.25791273542E+04  0.25791273542E+04  0.50400000000E-02 0. -1.
         -1   -1    0    0    0  501 -0.00000000000E+00 -0.00000000000E+00 -0.82560429088E+02  0.82560429242E+02  0.50400000000E-02 0.  1.
    5000001    1    1    2    0    0  0.41266197171E+03 -0.16863036268E+02  0.13997612070E+04  0.14729245403E+04  0.19900000000E+03 0.  0.
   -5000001    1    1    2    0    0 -0.41266197171E+03  0.16863036268E+02  0.10968057181E+04  0.11887632431E+04  0.19900000000E+03 0.  0.
<mgrwt>
<rscale>  0 0.92289514E+03</rscale>
<asrwt>0</asrwt>
<pdfrwt beam="1">  1        1 0.36844675E+00 0.92289514E+03</pdfrwt>
<pdfrwt beam="2">  1       -1 0.11794347E-01 0.92289514E+03</pdfrwt>
<totfact> 0.79420342E+01</totfact>
</mgrwt>
</event>
<event>
 4    1  0.6282309E-006  0.6043961E+03  0.7818608E-02  0.9896327E-01
          1   -1    0    0  501    0  0.00000000000E+00  0.00000000000E+00  0.11576221018E+03  0.11576221029E+03  0.50400000000E-02 0.  1.
         -1   -1    0    0    0  501 -0.00000000000E+00 -0.00000000000E+00 -0.78889015500E+03  0.78889015502E+03  0.50400000000E-02 0. -1.
    5000001    1    1    2    0    0  0.22569202136E+03  0.22402189391E+02 -0.36178478739E+03  0.47109232533E+03  0.19900000000E+03 0.  0.
   -5000001    1    1    2    0    0 -0.22569202136E+03 -0.22402189391E+02 -0.31134315743E+03  0.43356003998E+03  0.19900000000E+03 0.  0.
<mgrwt>
<rscale>  0 0.60439612E+03</rscale>
<asrwt>0</asrwt>
<pdfrwt beam="1">  1        1 0.16537459E-01 0.60439612E+03</pdfrwt>
<pdfrwt beam="2">  1       -1 0.11269859E+00 0.60439612E+03</pdfrwt>
<totfact> 0.24794249E+02</totfact>
</mgrwt>
</event>
<event>
 4    1  0.6282309E-006  0.4680768E+03  0.7818608E-02  0.1022464E+00
         -1   -1    0    0    0  501 -0.00000000000E+00  0.00000000000E+00  0.42290931634E+02  0.42290931934E+02  0.50400000000E-02 0. -1.
          1   -1    0    0  501    0  0.00000000000E+00 -0.00000000000E+00 -0.12951703804E+04  0.12951703804E+04  0.50400000000E-02 0.  1.
    5000001    1    1    2    0    0 -0.58967991092E+02  0.96653446584E+02 -0.76506853597E+03  0.79859249773E+03  0.19900000000E+03 0.  0.
   -5000001    1    1    2    0    0  0.58967991092E+02 -0.96653446584E+02 -0.48781091277E+03  0.53886881458E+03  0.19900000000E+03 0.  0.
<mgrwt>
<rscale>  0 0.46807676E+03</rscale>
<asrwt>0</asrwt>
<pdfrwt beam="1">  1        1 0.18502431E+00 0.46807676E+03</pdfrwt>
<pdfrwt beam="2">  1       -1 0.60415625E-02 0.46807676E+03</pdfrwt>
<totfact> 0.15020340E+03</totfact>
</mgrwt>
</event>
<event>
 4    1  0.6282309E-006  0.5343349E+03  0.7818608E-02  0.1005186E+00
         -1   -1    0    0    0  501 -0.00000000000E+00  0.00000000000E+00  0.50204968736E+03  0.50204968739E+03  0.50400000000E-02 0. -1.
          1   -1    0    0  501    0  0.00000000000E+00 -0.00000000000E+00 -0.14217405232E+03  0.14217405241E+03  0.50400000000E-02 0.  1.
    5000001    1    1    2    0    0  0.61257811707E+02 -0.13717756133E+03  0.29562569108E+03  0.38673731661E+03  0.19900000000E+03 0.  0.
   -5000001    1    1    2    0    0 -0.61257811707E+02  0.13717756133E+03  0.64249943959E+02  0.25748642319E+03  0.19900000000E+03 0.  0.
<mgrwt>
<rscale>  0 0.53433487E+03</rscale>
<asrwt>0</asrwt>
<pdfrwt beam="1">  1        1 0.20310579E-01 0.53433487E+03</pdfrwt>
<pdfrwt beam="2">  1       -1 0.71721385E-01 0.53433487E+03</pdfrwt>
<totfact> 0.51011901E+02</totfact>
</mgrwt>
</event>
<event>
 4    1  0.6282309E-006  0.6208092E+03  0.7818608E-02  0.9863150E-01
         -1   -1    0    0    0  501 -0.00000000000E+00  0.00000000000E+00  0.42216360229E+02  0.42216360530E+02  0.50400000000E-02 0. -1.
          1   -1    0    0  501    0  0.00000000000E+00 -0.00000000000E+00 -0.22823148257E+04  0.22823148257E+04  0.50400000000E-02 0.  1.
    5000001    1    1    2    0    0 -0.20325467414E+03  0.46046926615E+02 -0.68794912299E+03  0.74586042785E+03  0.19900000000E+03 0.  0.
   -5000001    1    1    2    0    0  0.20325467414E+03 -0.46046926615E+02 -0.15521493425E+04  0.15786707584E+04  0.19900000000E+03 0.  0.
<mgrwt>
<rscale>  0 0.62080923E+03</rscale>
<asrwt>0</asrwt>
<pdfrwt beam="1">  1        1 0.32604490E+00 0.62080923E+03</pdfrwt>
<pdfrwt beam="2">  1       -1 0.60309101E-02 0.62080923E+03</pdfrwt>
<totfact> 0.35882844E+02</totfact>
</mgrwt>
</event>
<event>
 4    1  0.6282309E-006  0.8439650E+03  0.7818608E-02  0.9498473E-01
         -1   -1    0    0    0  501 -0.00000000000E+00  0.00000000000E+00  0.41690481235E+03  0.41690481238E+03  0.50400000000E-02 0.  1.
          1   -1    0    0  501    0  0.00000000000E+00 -0.00000000000E+00 -0.42712198384E+03  0.42712198387E+03  0.50400000000E-02 0. -1.
    5000001    1    1    2    0    0  0.33302069819E+03 -0.16468443024E+03 -0.26192435233E+02  0.42226862380E+03  0.19900000000E+03 0.  0.
   -5000001    1    1    2    0    0 -0.33302069819E+03  0.16468443024E+03  0.15975263742E+02  0.42175817246E+03  0.19900000000E+03 0.  0.
<mgrwt>
<rscale>  0 0.84396495E+03</rscale>
<asrwt>0</asrwt>
<pdfrwt beam="1">  1        1 0.61017426E-01 0.84396495E+03</pdfrwt>
<pdfrwt beam="2">  1       -1 0.59557830E-01 0.84396495E+03</pdfrwt>
<totfact> 0.17512856E+02</totfact>
</mgrwt>
</event>
<event>
 4    1  0.6282309E-006  0.4496150E+03  0.7818608E-02  0.1027837E+00
          1   -1    0    0  501    0  0.00000000000E+00  0.00000000000E+00  0.20561792159E+03  0.20561792165E+03  0.50400000000E-02 0.  1.
         -1   -1    0    0    0  501 -0.00000000000E+00 -0.00000000000E+00 -0.24578800644E+03  0.24578800649E+03  0.50400000000E-02 0. -1.
    5000001    1    1    2    0    0 -0.45780816306E+02 -0.42469021617E+02 -0.10431150118E+03  0.23319817799E+03  0.19900000000E+03 0.  0.
   -5000001    1    1    2    0    0  0.45780816306E+02  0.42469021617E+02  0.64141416329E+02  0.21820775015E+03  0.19900000000E+03 0.  0.
<mgrwt>
<rscale>  0 0.44961503E+03</rscale>
<asrwt>0</asrwt>
<pdfrwt beam="1">  1        1 0.29373989E-01 0.44961503E+03</pdfrwt>
<pdfrwt beam="2">  1       -1 0.35112572E-01 0.44961503E+03</pdfrwt>
<totfact> 0.12168328E+03</totfact>
</mgrwt>
</event>
<event>
 4    1  0.6282309E-006  0.5067466E+03  0.7818608E-02  0.1012033E+00
          1   -1    0    0  501    0  0.00000000000E+00  0.00000000000E+00  0.36402123788E+03  0.36402123792E+03  0.50400000000E-02 0. -1.
         -1   -1    0    0    0  501 -0.00000000000E+00 -0.00000000000E+00 -0.17635794325E+03  0.17635794332E+03  0.50400000000E-02 0.  1.
    5000001    1    1    2    0    0 -0.10017506864E+03 -0.11481247557E+03  0.13344678014E+03  0.28394716419E+03  0.19900000000E+03 0.  0.
   -5000001    1    1    2    0    0  0.10017506864E+03  0.11481247557E+03  0.54216514484E+02  0.25643201705E+03  0.19900000000E+03 0.  0.
<mgrwt>
<rscale>  0 0.50674663E+03</rscale>
<asrwt>0</asrwt>
<pdfrwt beam="1">  1        1 0.52003034E-01 0.50674663E+03</pdfrwt>
<pdfrwt beam="2">  1       -1 0.25193992E-01 0.50674663E+03</pdfrwt>
<totfact> 0.10379819E+03</totfact>
</mgrwt>
</event>
<event>
 4    1  0.6282309E-006  0.1414158E+04  0.7818608E-02  0.8943633E-01
         -1   -1    0    0    0  501 -0.00000000000E+00  0.00000000000E+00  0.96422125875E+03  0.96422125876E+03  0.50400000000E-02 0. -1.
          1   -1    0    0  501    0  0.00000000000E+00 -0.00000000000E+00 -0.51851273857E+03  0.51851273859E+03  0.50400000000E-02 0.  1.
    5000001    1    1    2    0    0  0.59382126096E+03 -0.27822844694E+03  0.40544021016E+03  0.79625217279E+03  0.19900000000E+03 0.  0.
   -5000001    1    1    2    0    0 -0.59382126096E+03  0.27822844694E+03  0.40268310017E+02  0.68648182456E+03  0.19900000000E+03 0.  0.
<mgrwt>
<rscale>  0 0.14141584E+04</rscale>
<asrwt>0</asrwt>
<pdfrwt beam="1">  1        1 0.74073248E-01 0.14141584E+04</pdfrwt>
<pdfrwt beam="2">  1       -1 0.13774589E+00 0.14141584E+04</pdfrwt>
<totfact> 0.19930327E+01</totfact>
</mgrwt>
</event>
<event>
 4    1  0.6282309E-006  0.1117085E+04  0.7818608E-02  0.9188698E-01
         -1   -1    0    0    0  501 -0.00000000000E+00  0.00000000000E+00  0.11710776848E+04  0.11710776848E+04  0.50400000000E-02 0. -1.
          1   -1    0    0  501    0  0.00000000000E+00 -0.00000000000E+00 -0.26639539095E+03  0.26639539100E+03  0.50400000000E-02 0.  1.
    5000001    1    1    2    0    0  0.47744650360E+03  0.16841668152E+03  0.61536168162E+03  0.82133448827E+03  0.19900000000E+03 0.  0.
   -5000001    1    1    2    0    0 -0.47744650360E+03 -0.16841668152E+03  0.28932061227E+03  0.61613858758E+03  0.19900000000E+03 0.  0.
<mgrwt>
<rscale>  0 0.11170850E+04</rscale>
<asrwt>0</asrwt>
<pdfrwt beam="1">  1        1 0.38056485E-01 0.11170850E+04</pdfrwt>
<pdfrwt beam="2">  1       -1 0.16729681E+00 0.11170850E+04</pdfrwt>
<totfact> 0.28929242E+01</totfact>
</mgrwt>
</event>
<event>
 4    1  0.6282309E-006  0.6988131E+03  0.7818608E-02  0.9719264E-01
          1   -1    0    0  501    0  0.00000000000E+00  0.00000000000E+00  0.10254687348E+04  0.10254687349E+04  0.50400000000E-02 0. -1.
         -1   -1    0    0    0  501 -0.00000000000E+00 -0.00000000000E+00 -0.11905280963E+03  0.11905280974E+03  0.50400000000E-02 0.  1.
    5000001    1    1    2    0    0  0.19469289858E+03 -0.21094327059E+03  0.46799782781E+03  0.58397376225E+03  0.19900000000E+03 0.  0.
   -5000001    1    1    2    0    0 -0.19469289858E+03  0.21094327059E+03  0.43841809740E+03  0.56054778235E+03  0.19900000000E+03 0.  0.
<mgrwt>
<rscale>  0 0.69881309E+03</rscale>
<asrwt>0</asrwt>
<pdfrwt beam="1">  1        1 0.14649555E+00 0.69881309E+03</pdfrwt>
<pdfrwt beam="2">  1       -1 0.17007543E-01 0.69881309E+03</pdfrwt>
<totfact> 0.44668931E+02</totfact>
</mgrwt>
</event>
<event>
 4    1  0.6282309E-006  0.5040767E+03  0.7818608E-02  0.1012720E+00
          1   -1    0    0  501    0  0.00000000000E+00  0.00000000000E+00  0.38418469152E+03  0.38418469155E+03  0.50400000000E-02 0.  1.
         -1   -1    0    0    0  501 -0.00000000000E+00 -0.00000000000E+00 -0.16534578475E+03  0.16534578483E+03  0.50400000000E-02 0. -1.
    5000001    1    1    2    0    0  0.11204513728E+03 -0.99297370517E+02  0.67081462591E+02  0.25790502749E+03  0.19900000000E+03 0.  0.
   -5000001    1    1    2    0    0 -0.11204513728E+03  0.99297370517E+02  0.15175744417E+03  0.29162544889E+03  0.19900000000E+03 0.  0.
<mgrwt>
<rscale>  0 0.50407666E+03</rscale>
<asrwt>0</asrwt>
<pdfrwt beam="1">  1        1 0.54883528E-01 0.50407666E+03</pdfrwt>
<pdfrwt beam="2">  1       -1 0.23620826E-01 0.50407666E+03</pdfrwt>
<totfact> 0.10792107E+03</totfact>
</mgrwt>
</event>
<event>
 4    1  0.6282309E-006  0.4368713E+03  0.7818608E-02  0.1031711E+00
          1   -1    0    0  501    0  0.00000000000E+00  0.00000000000E+00  0.68906498011E+03  0.68906498013E+03  0.50400000000E-02 0.  1.
         -1   -1    0    0    0  501 -0.00000000000E+00 -0.00000000000E+00 -0.69244739225E+02  0.69244739409E+02  0.50400000000E-02 0. -1.
    5000001    1    1    2    0    0  0.83003608151E+01  0.78434806762E+02  0.23440475471E+03  0.31743897671E+03  0.19900000000E+03 0.  0.
   -5000001    1    1    2    0    0 -0.83003608151E+01 -0.78434806762E+02  0.38541548617E+03  0.44087074283E+03  0.19900000000E+03 0.  0.
<mgrwt>
<rscale>  0 0.43687126E+03</rscale>
<asrwt>0</asrwt>
<pdfrwt beam="1">  1        1 0.98437852E-01 0.43687126E+03</pdfrwt>
<pdfrwt beam="2">  1       -1 0.98921058E-02 0.43687126E+03</pdfrwt>
<totfact> 0.19987757E+03</totfact>
</mgrwt>
</event>
<event>
 4    1  0.6282309E-006  0.5502041E+03  0.7818608E-02  0.1001447E+00
         -1   -1    0    0    0  501 -0.00000000000E+00  0.00000000000E+00  0.50811851586E+02  0.50811851836E+02  0.50400000000E-02 0. -1.
          1   -1    0    0  501    0  0.00000000000E+00 -0.00000000000E+00 -0.14894384775E+04  0.14894384775E+04  0.50400000000E-02 0.  1.
    5000001    1    1    2    0    0 -0.17311715537E+03  0.66480792763E+02 -0.60420037440E+03  0.66260722734E+03  0.19900000000E+03 0.  0.
   -5000001    1    1    2    0    0  0.17311715537E+03 -0.66480792763E+02 -0.83442625155E+03  0.87764310204E+03  0.19900000000E+03 0.  0.
<mgrwt>
<rscale>  0 0.55020406E+03</rscale>
<asrwt>0</asrwt>
<pdfrwt beam="1">  1        1 0.21277690E+00 0.55020406E+03</pdfrwt>
<pdfrwt beam="2">  1       -1 0.72588369E-02 0.55020406E+03</pdfrwt>
<totfact> 0.84371671E+02</totfact>
</mgrwt>
</event>
<event>
 4    1  0.6282309E-006  0.9592098E+03  0.7818608E-02  0.9354450E-01
          1   -1    0    0  501    0  0.00000000000E+00  0.00000000000E+00  0.14786699514E+04  0.14786699514E+04  0.50400000000E-02 0.  1.
         -1   -1    0    0    0  501 -0.00000000000E+00 -0.00000000000E+00 -0.15555928653E+03  0.15555928661E+03  0.50400000000E-02 0. -1.
    5000001    1    1    2    0    0  0.29091795043E+03 -0.31563116605E+03  0.79531188091E+03  0.92540708598E+03  0.19900000000E+03 0.  0.
   -5000001    1    1    2    0    0 -0.29091795043E+03  0.31563116605E+03  0.52779878394E+03  0.70882215202E+03  0.19900000000E+03 0.  0.
<mgrwt>
<rscale>  0 0.95920976E+03</rscale>
<asrwt>0</asrwt>
<pdfrwt beam="1">  1        1 0.21123855E+00 0.95920976E+03</pdfrwt>
<pdfrwt beam="2">  1       -1 0.22222756E-01 0.95920976E+03</pdfrwt>
<totfact> 0.13794969E+02</totfact>
</mgrwt>
</event>
<event>
 4    1  0.6282309E-006  0.6522811E+03  0.7818608E-02  0.9802508E-01
         -1   -1    0    0    0  501 -0.00000000000E+00  0.00000000000E+00  0.88911873429E+02  0.88911873572E+02  0.50400000000E-02 0. -1.
          1   -1    0    0  501    0  0.00000000000E+00 -0.00000000000E+00 -0.11963269566E+04  0.11963269566E+04  0.50400000000E-02 0.  1.
    5000001    1    1    2    0    0  0.29454372383E+02 -0.23811130003E+03 -0.36469398306E+03  0.47975749346E+03  0.19900000000E+03 0.  0.
   -5000001    1    1    2    0    0 -0.29454372383E+02  0.23811130003E+03 -0.74272110011E+03  0.80548133672E+03  0.19900000000E+03 0.  0.
<mgrwt>
<rscale>  0 0.65228114E+03</rscale>
<asrwt>0</asrwt>
<pdfrwt beam="1">  1        1 0.17090384E+00 0.65228114E+03</pdfrwt>
<pdfrwt beam="2">  1       -1 0.12701697E-01 0.65228114E+03</pdfrwt>
<totfact> 0.54363593E+02</totfact>
</mgrwt>
</event>
<event>
 4    1  0.6282309E-006  0.6397558E+03  0.7818608E-02  0.9826194E-01
          1   -1    0    0  501    0  0.00000000000E+00  0.00000000000E+00  0.49314113737E+03  0.49314113739E+03  0.50400000000E-02 0.  1.
         -1   -1    0    0    0  501 -0.00000000000E+00 -0.00000000000E+00 -0.20749002287E+03  0.20749002293E+03  0.50400000000E-02 0. -1.
    5000001    1    1    2    0    0  0.18928739110E+03  0.16328290626E+03  0.12622242918E+03  0.34354639502E+03  0.19900000000E+03 0.  0.
   -5000001    1    1    2    0    0 -0.18928739110E+03 -0.16328290626E+03  0.15942868532E+03  0.35708476530E+03  0.19900000000E+03 0.  0.
<mgrwt>
<rscale>  0 0.63975578E+03</rscale>
<asrwt>0</asrwt>
<pdfrwt beam="1">  1        1 0.70448735E-01 0.63975578E+03</pdfrwt>
<pdfrwt beam="2">  1       -1 0.29641431E-01 0.63975578E+03</pdfrwt>
<totfact> 0.52577264E+02</totfact>
</mgrwt>
</event>
<event>
 4    1  0.6282309E-006  0.6079477E+03  0.7818608E-02  0.9889053E-01
         -1   -1    0    0    0  501 -0.00000000000E+00  0.00000000000E+00  0.40498976684E+02  0.40498976998E+02  0.50400000000E-02 0. -1.
          1   -1    0    0  501    0  0.00000000000E+00 -0.00000000000E+00 -0.22815419649E+04  0.22815419649E+04  0.50400000000E-02 0.  1.
    5000001    1    1    2    0    0 -0.64587562998E+02  0.16200766528E+03 -0.16919266098E+04  0.17124937051E+04  0.19900000000E+03 0.  0.
   -5000001    1    1    2    0    0  0.64587562998E+02 -0.16200766528E+03 -0.54911637841E+03  0.60954723685E+03  0.19900000000E+03 0.  0.
<mgrwt>
<rscale>  0 0.60794775E+03</rscale>
<asrwt>0</asrwt>
<pdfrwt beam="1">  1        1 0.32593448E+00 0.60794775E+03</pdfrwt>
<pdfrwt beam="2">  1       -1 0.57855696E-02 0.60794775E+03</pdfrwt>
<totfact> 0.38334804E+02</totfact>
</mgrwt>
</event>
<event>
 4    1  0.6282309E-006  0.8908370E+03  0.7818608E-02  0.9437109E-01
          1   -1    0    0  501    0  0.00000000000E+00  0.00000000000E+00  0.11875542714E+04  0.11875542714E+04  0.50400000000E-02 0.  1.
         -1   -1    0    0    0  501 -0.00000000000E+00 -0.00000000000E+00 -0.16706405160E+03  0.16706405168E+03  0.50400000000E-02 0. -1.
    5000001    1    1    2    0    0  0.39437395860E+03  0.57035284406E+02  0.51568228344E+03  0.68140521010E+03  0.19900000000E+03 0.  0.
   -5000001    1    1    2    0    0 -0.39437395860E+03 -0.57035284406E+02  0.50480793632E+03  0.67321311296E+03  0.19900000000E+03 0.  0.
<mgrwt>
<rscale>  0 0.89083697E+03</rscale>
<asrwt>0</asrwt>
<pdfrwt beam="1">  1        1 0.16965060E+00 0.89083697E+03</pdfrwt>
<pdfrwt beam="2">  1       -1 0.23866294E-01 0.89083697E+03</pdfrwt>
<totfact> 0.19244868E+02</totfact>
</mgrwt>
</event>
<event>
 4    1  0.6282309E-006  0.5399531E+03  0.7818608E-02  0.1003847E+00
         -1   -1    0    0    0  501 -0.00000000000E+00  0.00000000000E+00  0.21458915492E+03  0.21458915498E+03  0.50400000000E-02 0. -1.
          1   -1    0    0  501    0  0.00000000000E+00 -0.00000000000E+00 -0.33965989689E+03  0.33965989693E+03  0.50400000000E-02 0.  1.
    5000001    1    1    2    0    0  0.17359165191E+03  0.20092305840E+01 -0.49407026938E+01  0.26412782732E+03  0.19900000000E+03 0.  0.
   -5000001    1    1    2    0    0 -0.17359165191E+03 -0.20092305840E+01 -0.12013003928E+03  0.29012122459E+03  0.19900000000E+03 0.  0.
<mgrwt>
<rscale>  0 0.53995307E+03</rscale>
<asrwt>0</asrwt>
<pdfrwt beam="1">  1        1 0.48522843E-01 0.53995307E+03</pdfrwt>
<pdfrwt beam="2">  1       -1 0.30655594E-01 0.53995307E+03</pdfrwt>
<totfact> 0.81066476E+02</totfact>
</mgrwt>
</event>
<event>
 4    1  0.6282309E-006  0.4421145E+03  0.7818608E-02  0.1030100E+00
         -1   -1    0    0    0  501 -0.00000000000E+00  0.00000000000E+00  0.96721122117E+03  0.96721122118E+03  0.50400000000E-02 0.  1.
          1   -1    0    0  501    0  0.00000000000E+00 -0.00000000000E+00 -0.50522893306E+02  0.50522893557E+02  0.50400000000E-02 0. -1.
    5000001    1    1    2    0    0  0.91392213002E+02  0.11533643928E+02  0.39406404368E+03  0.45096899235E+03  0.19900000000E+03 0.  0.
   -5000001    1    1    2    0    0 -0.91392213002E+02 -0.11533643928E+02  0.52262428419E+03  0.56676512239E+03  0.19900000000E+03 0.  0.
<mgrwt>
<rscale>  0 0.44211451E+03</rscale>
<asrwt>0</asrwt>
<pdfrwt beam="1">  1        1 0.72175569E-02 0.44211451E+03</pdfrwt>
<pdfrwt beam="2">  1       -1 0.13817302E+00 0.44211451E+03</pdfrwt>
<totfact> 0.46747214E+02</totfact>
</mgrwt>
</event>
<event>
 4    1  0.6282309E-006  0.7409761E+03  0.7818608E-02  0.9649615E-01
          1   -1    0    0  501    0  0.00000000000E+00  0.00000000000E+00  0.96197024106E+03  0.96197024107E+03  0.50400000000E-02 0.  1.
         -1   -1    0    0    0  501 -0.00000000000E+00 -0.00000000000E+00 -0.14268777264E+03  0.14268777273E+03  0.50400000000E-02 0. -1.
    5000001    1    1    2    0    0  0.43829994081E+02  0.29143565077E+03  0.25467835297E+03  0.43739898307E+03  0.19900000000E+03 0.  0.
   -5000001    1    1    2    0    0 -0.43829994081E+02 -0.29143565077E+03  0.56460411544E+03  0.66725903073E+03  0.19900000000E+03 0.  0.
<mgrwt>
<rscale>  0 0.74097609E+03</rscale>
<asrwt>0</asrwt>
<pdfrwt beam="1">  1        1 0.13742432E+00 0.74097609E+03</pdfrwt>
<pdfrwt beam="2">  1       -1 0.20383967E-01 0.74097609E+03</pdfrwt>
<totfact> 0.36848693E+02</totfact>
</mgrwt>
</event>
<event>
 4    1  0.6282309E-006  0.5044930E+03  0.7818608E-02  0.1012613E+00
          1   -1    0    0  501    0  0.00000000000E+00  0.00000000000E+00  0.59806350203E+03  0.59806350205E+03  0.50400000000E-02 0.  1.
         -1   -1    0    0    0  501 -0.00000000000E+00 -0.00000000000E+00 -0.10639053004E+03  0.10639053016E+03  0.50400000000E-02 0. -1.
    5000001    1    1    2    0    0 -0.10880419546E+03 -0.82080072188E+02  0.34893859710E+03  0.42418702921E+03  0.19900000000E+03 0.  0.
   -5000001    1    1    2    0    0  0.10880419546E+03  0.82080072188E+02  0.14273437489E+03  0.28026700301E+03  0.19900000000E+03 0.  0.
<mgrwt>
<rscale>  0 0.50449299E+03</rscale>
<asrwt>0</asrwt>
<pdfrwt beam="1">  1        1 0.85437644E-01 0.50449299E+03</pdfrwt>
<pdfrwt beam="2">  1       -1 0.15198647E-01 0.50449299E+03</pdfrwt>
<totfact> 0.12348254E+03</totfact>
</mgrwt>
</event>
<event>
 4    1  0.6282309E-006  0.5982842E+03  0.7818608E-02  0.9908972E-01
          1   -1    0    0  501    0  0.00000000000E+00  0.00000000000E+00  0.11210331035E+04  0.11210331036E+04  0.50400000000E-02 0.  1.
         -1   -1    0    0    0  501 -0.00000000000E+00 -0.00000000000E+00 -0.79824578219E+02  0.79824578378E+02  0.50400000000E-02 0. -1.
    5000001    1    1    2    0    0 -0.58644765896E+02  0.19159868014E+03  0.71865128366E+03  0.77214631405E+03  0.19900000000E+03 0.  0.
   -5000001    1    1    2    0    0  0.58644765896E+02 -0.19159868014E+03  0.32255724166E+03  0.42871136788E+03  0.19900000000E+03 0.  0.
<mgrwt>
<rscale>  0 0.59828420E+03</rscale>
<asrwt>0</asrwt>
<pdfrwt beam="1">  1        1 0.16014758E+00 0.59828420E+03</pdfrwt>
<pdfrwt beam="2">  1       -1 0.11403512E-01 0.59828420E+03</pdfrwt>
<totfact> 0.73011000E+02</totfact>
</mgrwt>
</event>
<event>
 4    1  0.6282309E-006  0.5622703E+03  0.7818608E-02  0.9986931E-01
          1   -1    0    0  501    0  0.00000000000E+00  0.00000000000E+00  0.13446571271E+04  0.13446571272E+04  0.50400000000E-02 0.  1.
         -1   -1    0    0    0  501 -0.00000000000E+00 -0.00000000000E+00 -0.58778536010E+02  0.58778536226E+02  0.50400000000E-02 0. -1.
    5000001    1    1    2    0    0  0.91658780952E+02  0.96396365602E+01  0.20388361918E+03  0.29943911716E+03  0.19900000000E+03 0.  0.
   -5000001    1    1    2    0    0 -0.91658780952E+02 -0.96396365602E+01  0.10819949720E+04  0.11039965462E+04  0.19900000000E+03 0.  0.
<mgrwt>
<rscale>  0 0.56227032E+03</rscale>
<asrwt>0</asrwt>
<pdfrwt beam="1">  1        1 0.19209389E+00 0.56227032E+03</pdfrwt>
<pdfrwt beam="2">  1       -1 0.83969332E-02 0.56227032E+03</pdfrwt>
<totfact> 0.83474706E+02</totfact>
</mgrwt>
</event>
<event>
 4    1  0.6282309E-006  0.1060594E+04  0.7818608E-02  0.9244475E-01
         -1   -1    0    0    0  501 -0.00000000000E+00  0.00000000000E+00  0.10009698680E+04  0.10009698680E+04  0.50400000000E-02 0. -1.
          1   -1    0    0  501    0  0.00000000000E+00 -0.00000000000E+00 -0.28094226042E+03  0.28094226046E+03  0.50400000000E-02 0.  1.
    5000001    1    1    2    0    0  0.19710818476E+03  0.34487596085E+03  0.10076715284E+02  0.44440252594E+03  0.19900000000E+03 0.  0.
   -5000001    1    1    2    0    0 -0.19710818476E+03 -0.34487596085E+03  0.70995089232E+03  0.83750960256E+03  0.19900000000E+03 0.  0.
<mgrwt>
<rscale>  0 0.10605937E+04</rscale>
<asrwt>0</asrwt>
<pdfrwt beam="1">  1        1 0.40134608E-01 0.10605937E+04</pdfrwt>
<pdfrwt beam="2">  1       -1 0.14299570E+00 0.10605937E+04</pdfrwt>
<totfact> 0.41679732E+01</totfact>
</mgrwt>
</event>
<event>
 4    1  0.6282309E-006  0.4476244E+03  0.7818608E-02  0.1028433E+00
          1   -1    0    0  501    0  0.00000000000E+00  0.00000000000E+00  0.29466189293E+04  0.29466189293E+04  0.50400000000E-02 0.  1.
         -1   -1    0    0    0  501 -0.00000000000E+00 -0.00000000000E+00 -0.16999789940E+02  0.16999790687E+02  0.50400000000E-02 0. -1.
    5000001    1    1    2    0    0 -0.38553571006E+02  0.87941834475E+02  0.12287941881E+04  0.12485016223E+04  0.19900000000E+03 0.  0.
   -5000001    1    1    2    0    0  0.38553571006E+02 -0.87941834475E+02  0.17008249512E+04  0.17151170977E+04  0.19900000000E+03 0.  0.
<mgrwt>
<rscale>  0 0.44762441E+03</rscale>
<asrwt>0</asrwt>
<pdfrwt beam="1">  1        1 0.42094560E+00 0.44762441E+03</pdfrwt>
<pdfrwt beam="2">  1       -1 0.24285412E-02 0.44762441E+03</pdfrwt>
<totfact> 0.55393036E+02</totfact>
</mgrwt>
</event>
<event>
 4    1  0.6282309E-006  0.5847809E+03  0.7818608E-02  0.9937494E-01
          1   -1    0    0  501    0  0.00000000000E+00  0.00000000000E+00  0.15030618540E+04  0.15030618540E+04  0.50400000000E-02 0.  1.
         -1   -1    0    0    0  501 -0.00000000000E+00 -0.00000000000E+00 -0.56878689560E+02  0.56878689783E+02  0.50400000000E-02 0. -1.
    5000001    1    1    2    0    0  0.19036301291E+03 -0.54100938260E+01  0.98478276861E+03  0.10225778441E+04  0.19900000000E+03 0.  0.
   -5000001    1    1    2    0    0 -0.19036301291E+03  0.54100938260E+01  0.46140039584E+03  0.53736269975E+03  0.19900000000E+03 0.  0.
<mgrwt>
<rscale>  0 0.58478095E+03</rscale>
<asrwt>0</asrwt>
<pdfrwt beam="1">  1        1 0.21472315E+00 0.58478095E+03</pdfrwt>
<pdfrwt beam="2">  1       -1 0.81255260E-02 0.58478095E+03</pdfrwt>
<totfact> 0.69275008E+02</totfact>
</mgrwt>
</event>
<event>
 4    1  0.6282309E-006  0.8322056E+03  0.7818608E-02  0.9514536E-01
          1   -1    0    0  501    0  0.00000000000E+00  0.00000000000E+00  0.59365720384E+03  0.59365720386E+03  0.50400000000E-02 0.  1.
         -1   -1    0    0    0  501 -0.00000000000E+00 -0.00000000000E+00 -0.29165237425E+03  0.29165237430E+03  0.50400000000E-02 0. -1.
    5000001    1    1    2    0    0  0.21173290239E+03 -0.18805236226E+03  0.39670829503E+03  0.52647220653E+03  0.19900000000E+03 0.  0.
   -5000001    1    1    2    0    0 -0.21173290239E+03  0.18805236226E+03 -0.94703465445E+02  0.35883737162E+03  0.19900000000E+03 0.  0.
<mgrwt>
<rscale>  0 0.83220558E+03</rscale>
<asrwt>0</asrwt>
<pdfrwt beam="1">  1        1 0.84808173E-01 0.83220558E+03</pdfrwt>
<pdfrwt beam="2">  1       -1 0.41664625E-01 0.83220558E+03</pdfrwt>
<totfact> 0.22042263E+02</totfact>
</mgrwt>
</event>
<event>
 4    1  0.6282309E-006  0.5406606E+03  0.7818608E-02  0.1003679E+00
         -1   -1    0    0    0  501 -0.00000000000E+00  0.00000000000E+00  0.22246198589E+04  0.22246198589E+04  0.50400000000E-02 0. -1.
          1   -1    0    0  501    0  0.00000000000E+00 -0.00000000000E+00 -0.32849863073E+02  0.32849863459E+02  0.50400000000E-02 0.  1.
    5000001    1    1    2    0    0 -0.10880206981E+03  0.13170815906E+03  0.82232420673E+03  0.86313558062E+03  0.19900000000E+03 0.  0.
   -5000001    1    1    2    0    0  0.10880206981E+03 -0.13170815906E+03  0.13694457891E+04  0.13943341417E+04  0.19900000000E+03 0.  0.
<mgrwt>
<rscale>  0 0.54066055E+03</rscale>
<asrwt>0</asrwt>
<pdfrwt beam="1">  1        1 0.46928388E-02 0.54066055E+03</pdfrwt>
<pdfrwt beam="2">  1       -1 0.31780275E+00 0.54066055E+03</pdfrwt>
<totfact> 0.52384898E+01</totfact>
</mgrwt>
</event>
<event>
 4    1  0.6282309E-006  0.8968199E+03  0.7818608E-02  0.9429565E-01
         -1   -1    0    0    0  501 -0.00000000000E+00  0.00000000000E+00  0.24964912866E+03  0.24964912871E+03  0.50400000000E-02 0. -1.
          1   -1    0    0  501    0  0.00000000000E+00 -0.00000000000E+00 -0.80541630666E+03  0.80541630667E+03  0.50400000000E-02 0.  1.
    5000001    1    1    2    0    0 -0.31679924718E+03 -0.24700896591E+03 -0.28936752786E+03  0.53358200722E+03  0.19900000000E+03 0.  0.
   -5000001    1    1    2    0    0  0.31679924718E+03  0.24700896591E+03 -0.26639965014E+03  0.52148342816E+03  0.19900000000E+03 0.  0.
<mgrwt>
<rscale>  0 0.89681989E+03</rscale>
<asrwt>0</asrwt>
<pdfrwt beam="1">  1        1 0.11505947E+00 0.89681989E+03</pdfrwt>
<pdfrwt beam="2">  1       -1 0.35664162E-01 0.89681989E+03</pdfrwt>
<totfact> 0.18562855E+02</totfact>
</mgrwt>
</event>
<event>
 4    1  0.6282309E-006  0.1574115E+04  0.7818608E-02  0.8836610E-01
         -1   -1    0    0    0  501 -0.00000000000E+00  0.00000000000E+00  0.92608777192E+03  0.92608777194E+03  0.50400000000E-02 0. -1.
          1   -1    0    0  501    0  0.00000000000E+00 -0.00000000000E+00 -0.66889975643E+03  0.66889975645E+03  0.50400000000E-02 0.  1.
    5000001    1    1    2    0    0  0.33255349828E+03  0.35852282084E+03 -0.46286533494E+03  0.70212232593E+03  0.19900000000E+03 0.  0.
   -5000001    1    1    2    0    0 -0.33255349828E+03 -0.35852282084E+03  0.72005335043E+03  0.89286520245E+03  0.19900000000E+03 0.  0.
<mgrwt>
<rscale>  0 0.15741155E+04</rscale>
<asrwt>0</asrwt>
<pdfrwt beam="1">  1        1 0.95557107E-01 0.15741155E+04</pdfrwt>
<pdfrwt beam="2">  1       -1 0.13229825E+00 0.15741155E+04</pdfrwt>
<totfact> 0.15236532E+01</totfact>
</mgrwt>
</event>
<event>
 4    1  0.6282309E-006  0.4983473E+03  0.7818608E-02  0.1014211E+00
          1   -1    0    0  501    0  0.00000000000E+00  0.00000000000E+00  0.24707675321E+03  0.24707675326E+03  0.50400000000E-02 0.  1.
         -1   -1    0    0    0  501 -0.00000000000E+00 -0.00000000000E+00 -0.25128831051E+03  0.25128831056E+03  0.50400000000E-02 0. -1.
    5000001    1    1    2    0    0 -0.14441970799E+02  0.14924722814E+03 -0.31846033635E+00  0.24916742774E+03  0.19900000000E+03 0.  0.
   -5000001    1    1    2    0    0  0.14441970799E+02 -0.14924722814E+03 -0.38930969662E+01  0.24919763609E+03  0.19900000000E+03 0.  0.
<mgrwt>
<rscale>  0 0.49834727E+03</rscale>
<asrwt>0</asrwt>
<pdfrwt beam="1">  1        1 0.35296679E-01 0.49834727E+03</pdfrwt>
<pdfrwt beam="2">  1       -1 0.35898330E-01 0.49834727E+03</pdfrwt>
<totfact> 0.92480631E+02</totfact>
</mgrwt>
</event>
<event>
 4    1  0.6282309E-006  0.4868843E+03  0.7818608E-02  0.1017260E+00
          1   -1    0    0  501    0  0.00000000000E+00  0.00000000000E+00  0.63360395702E+03  0.63360395704E+03  0.50400000000E-02 0.  1.
         -1   -1    0    0    0  501 -0.00000000000E+00 -0.00000000000E+00 -0.93534899579E+02  0.93534899715E+02  0.50400000000E-02 0. -1.
    5000001    1    1    2    0    0  0.12317211019E+02 -0.13195200975E+03  0.33847373165E+03  0.41440139187E+03  0.19900000000E+03 0.  0.
   -5000001    1    1    2    0    0 -0.12317211019E+02  0.13195200975E+03  0.20159532579E+03  0.31273746489E+03  0.19900000000E+03 0.  0.
<mgrwt>
<rscale>  0 0.48688431E+03</rscale>
<asrwt>0</asrwt>
<pdfrwt beam="1">  1        1 0.90514854E-01 0.48688431E+03</pdfrwt>
<pdfrwt beam="2">  1       -1 0.13362128E-01 0.48688431E+03</pdfrwt>
<totfact> 0.14007352E+03</totfact>
</mgrwt>
</event>
<event>
 4    1  0.6282309E-006  0.4560607E+03  0.7818608E-02  0.1025930E+00
         -1   -1    0    0    0  501 -0.00000000000E+00  0.00000000000E+00  0.62749878417E+03  0.62749878419E+03  0.50400000000E-02 0.  1.
          1   -1    0    0  501    0  0.00000000000E+00 -0.00000000000E+00 -0.82865247345E+02  0.82865247498E+02  0.50400000000E-02 0. -1.
    5000001    1    1    2    0    0 -0.59626931378E+01  0.11116616274E+03  0.27517724879E+03  0.35737513582E+03  0.19900000000E+03 0.  0.
   -5000001    1    1    2    0    0  0.59626931378E+01 -0.11116616274E+03  0.26945628804E+03  0.35298889588E+03  0.19900000000E+03 0.  0.
<mgrwt>
<rscale>  0 0.45606071E+03</rscale>
<asrwt>0</asrwt>
<pdfrwt beam="1">  1        1 0.11837893E-01 0.45606071E+03</pdfrwt>
<pdfrwt beam="2">  1       -1 0.89642680E-01 0.45606071E+03</pdfrwt>
<totfact> 0.65580076E+02</totfact>
</mgrwt>
</event>
<event>
 4    1  0.6282309E-006  0.5252483E+03  0.7818608E-02  0.1007391E+00
          1   -1    0    0  501    0  0.00000000000E+00  0.00000000000E+00  0.29682165122E+04  0.29682165122E+04  0.50400000000E-02 0. -1.
         -1   -1    0    0    0  501 -0.00000000000E+00 -0.00000000000E+00 -0.23236658028E+02  0.23236658575E+02  0.50400000000E-02 0.  1.
    5000001    1    1    2    0    0  0.84952468038E+02  0.14471625562E+03  0.16706603347E+04  0.16908183434E+04  0.19900000000E+03 0.  0.
   -5000001    1    1    2    0    0 -0.84952468038E+02 -0.14471625562E+03  0.12743195195E+04  0.13006348274E+04  0.19900000000E+03 0.  0.
<mgrwt>
<rscale>  0 0.52524826E+03</rscale>
<asrwt>0</asrwt>
<pdfrwt beam="1">  1        1 0.42403077E+00 0.52524826E+03</pdfrwt>
<pdfrwt beam="2">  1       -1 0.33195239E-02 0.52524826E+03</pdfrwt>
<totfact> 0.33323961E+02</totfact>
</mgrwt>
</event>
<event>
 4    1  0.6282309E-006  0.5104385E+03  0.7818608E-02  0.1011090E+00
         -1   -1    0    0    0  501 -0.00000000000E+00  0.00000000000E+00  0.58010515375E+02  0.58010515594E+02  0.50400000000E-02 0. -1.
          1   -1    0    0  501    0  0.00000000000E+00 -0.00000000000E+00 -0.11228458808E+04  0.11228458808E+04  0.50400000000E-02 0.  1.
    5000001    1    1    2    0    0  0.76219857790E+02 -0.13989582538E+03 -0.56127142743E+03  0.61644701632E+03  0.19900000000E+03 0.  0.
   -5000001    1    1    2    0    0 -0.76219857790E+02  0.13989582538E+03 -0.50356393798E+03  0.56440938007E+03  0.19900000000E+03 0.  0.
<mgrwt>
<rscale>  0 0.51043851E+03</rscale>
<asrwt>0</asrwt>
<pdfrwt beam="1">  1        1 0.16040654E+00 0.51043851E+03</pdfrwt>
<pdfrwt beam="2">  1       -1 0.82872171E-02 0.51043851E+03</pdfrwt>
<totfact> 0.12060566E+03</totfact>
</mgrwt>
</event>
<event>
 4    1  0.6282309E-006  0.4590632E+03  0.7818608E-02  0.1025053E+00
          1   -1    0    0  501    0  0.00000000000E+00  0.00000000000E+00  0.44647938423E+03  0.44647938425E+03  0.50400000000E-02 0.  1.
         -1   -1    0    0    0  501 -0.00000000000E+00 -0.00000000000E+00 -0.11800041731E+03  0.11800041742E+03  0.50400000000E-02 0. -1.
    5000001    1    1    2    0    0 -0.48338951219E+02  0.44759135853E+02  0.27921994195E+03  0.34914869387E+03  0.19900000000E+03 0.  0.
   -5000001    1    1    2    0    0  0.48338951219E+02 -0.44759135853E+02  0.49259024963E+02  0.21533110780E+03  0.19900000000E+03 0.  0.
<mgrwt>
<rscale>  0 0.45906319E+03</rscale>
<asrwt>0</asrwt>
<pdfrwt beam="1">  1        1 0.63782769E-01 0.45906319E+03</pdfrwt>
<pdfrwt beam="2">  1       -1 0.16857202E-01 0.45906319E+03</pdfrwt>
<totfact> 0.15482211E+03</totfact>
</mgrwt>
</event>
<event>
 4    1  0.6282309E-006  0.4734171E+03  0.7818608E-02  0.1020960E+00
          1   -1    0    0  501    0  0.00000000000E+00  0.00000000000E+00  0.35789633705E+04  0.35789633705E+04  0.50400000000E-02 0.  1.
         -1   -1    0    0    0  501 -0.00000000000E+00 -0.00000000000E+00 -0.15655634492E+02  0.15655635303E+02  0.50400000000E-02 0. -1.
    5000001    1    1    2    0    0 -0.63521343746E+02 -0.92861395108E+02  0.22479695359E+04  0.22595632840E+04  0.19900000000E+03 0.  0.
   -5000001    1    1    2    0    0  0.63521343746E+02  0.92861395108E+02  0.13153382001E+04  0.13350557218E+04  0.19900000000E+03 0.  0.
<mgrwt>
<rscale>  0 0.47341713E+03</rscale>
<asrwt>0</asrwt>
<pdfrwt beam="1">  1        1 0.51128061E+00 0.47341713E+03</pdfrwt>
<pdfrwt beam="2">  1       -1 0.22365187E-02 0.47341713E+03</pdfrwt>
<totfact> 0.23797685E+02</totfact>
</mgrwt>
</event>
<event>
 4    1  0.6282309E-006  0.5515739E+03  0.7818608E-02  0.1001130E+00
         -1   -1    0    0    0  501 -0.00000000000E+00  0.00000000000E+00  0.38857455070E+02  0.38857455397E+02  0.50400000000E-02 0. -1.
          1   -1    0    0  501    0  0.00000000000E+00 -0.00000000000E+00 -0.19573708330E+04  0.19573708330E+04  0.50400000000E-02 0.  1.
    5000001    1    1    2    0    0 -0.99664310174E+02  0.40134124842E+02 -0.15305061787E+04  0.15471243925E+04  0.19900000000E+03 0.  0.
   -5000001    1    1    2    0    0  0.99664310174E+02 -0.40134124842E+02 -0.38800719923E+03  0.44910389594E+03  0.19900000000E+03 0.  0.
<mgrwt>
<rscale>  0 0.55157393E+03</rscale>
<asrwt>0</asrwt>
<pdfrwt beam="1">  1        1 0.27962434E+00 0.55157393E+03</pdfrwt>
<pdfrwt beam="2">  1       -1 0.55510663E-02 0.55157393E+03</pdfrwt>
<totfact> 0.65010565E+02</totfact>
</mgrwt>
</event>
<event>
 4    1  0.6282309E-006  0.4409235E+03  0.7818608E-02  0.1030464E+00
         -1   -1    0    0    0  501 -0.00000000000E+00  0.00000000000E+00  0.13374622680E+03  0.13374622690E+03  0.50400000000E-02 0.  1.
          1   -1    0    0  501    0  0.00000000000E+00 -0.00000000000E+00 -0.36339997354E+03  0.36339997358E+03  0.50400000000E-02 0. -1.
    5000001    1    1    2    0    0  0.55340457493E+02  0.74750275819E+02 -0.13598703031E+03  0.25834790958E+03  0.19900000000E+03 0.  0.
   -5000001    1    1    2    0    0 -0.55340457493E+02 -0.74750275819E+02 -0.93666716428E+02  0.23879829090E+03  0.19900000000E+03 0.  0.
<mgrwt>
<rscale>  0 0.44092346E+03</rscale>
<asrwt>0</asrwt>
<pdfrwt beam="1">  1        1 0.51914282E-01 0.44092346E+03</pdfrwt>
<pdfrwt beam="2">  1       -1 0.19106604E-01 0.44092346E+03</pdfrwt>
<totfact> 0.16482682E+03</totfact>
</mgrwt>
</event>
<event>
 4    1  0.6282309E-006  0.4497976E+03  0.7818608E-02  0.1027782E+00
          1   -1    0    0  501    0  0.00000000000E+00  0.00000000000E+00  0.21534799280E+03  0.21534799286E+03  0.50400000000E-02 0.  1.
         -1   -1    0    0    0  501 -0.00000000000E+00 -0.00000000000E+00 -0.23487318569E+03  0.23487318574E+03  0.50400000000E-02 0. -1.
    5000001    1    1    2    0    0 -0.87182300308E+01 -0.10436433293E+03 -0.13013362161E+02  0.22525156851E+03  0.19900000000E+03 0.  0.
   -5000001    1    1    2    0    0  0.87182300308E+01  0.10436433293E+03 -0.65118307320E+01  0.22496961009E+03  0.19900000000E+03 0.  0.
<mgrwt>
<rscale>  0 0.44979760E+03</rscale>
<asrwt>0</asrwt>
<pdfrwt beam="1">  1        1 0.30763999E-01 0.44979760E+03</pdfrwt>
<pdfrwt beam="2">  1       -1 0.33553312E-01 0.44979760E+03</pdfrwt>
<totfact> 0.12420157E+03</totfact>
</mgrwt>
</event>
<event>
 4    1  0.6282309E-006  0.6648063E+03  0.7818608E-02  0.9779386E-01
         -1   -1    0    0    0  501 -0.00000000000E+00  0.00000000000E+00  0.47043587618E+03  0.47043587621E+03  0.50400000000E-02 0. -1.
          1   -1    0    0  501    0  0.00000000000E+00 -0.00000000000E+00 -0.23487123754E+03  0.23487123759E+03  0.50400000000E-02 0.  1.
    5000001    1    1    2    0    0 -0.19587743320E+03 -0.14692977411E+03  0.68435929923E+01  0.31560127078E+03  0.19900000000E+03 0.  0.
   -5000001    1    1    2    0    0  0.19587743320E+03  0.14692977411E+03  0.22872104565E+03  0.38970584301E+03  0.19900000000E+03 0.  0.
<mgrwt>
<rscale>  0 0.66480631E+03</rscale>
<asrwt>0</asrwt>
<pdfrwt beam="1">  1        1 0.33553033E-01 0.66480631E+03</pdfrwt>
<pdfrwt beam="2">  1       -1 0.67205127E-01 0.66480631E+03</pdfrwt>
<totfact> 0.30184234E+02</totfact>
</mgrwt>
</event>
<event>
 4    1  0.6282309E-006  0.8809332E+03  0.7818608E-02  0.9449735E-01
          1   -1    0    0  501    0  0.00000000000E+00  0.00000000000E+00  0.31136858910E+04  0.31136858910E+04  0.50400000000E-02 0.  1.
         -1   -1    0    0    0  501 -0.00000000000E+00 -0.00000000000E+00 -0.62309060480E+02  0.62309060684E+02  0.50400000000E-02 0. -1.
    5000001    1    1    2    0    0 -0.34412989036E+03 -0.15646252960E+03  0.19123758650E+04  0.19595122745E+04  0.19900000000E+03 0.  0.
   -5000001    1    1    2    0    0  0.34412989036E+03  0.15646252960E+03  0.11390009654E+04  0.12164826772E+04  0.19900000000E+03 0.  0.
<mgrwt>
<rscale>  0 0.88093324E+03</rscale>
<asrwt>0</asrwt>
<pdfrwt beam="1">  1        1 0.44481227E+00 0.88093324E+03</pdfrwt>
<pdfrwt beam="2">  1       -1 0.89012944E-02 0.88093324E+03</pdfrwt>
<totfact> 0.56452639E+01</totfact>
</mgrwt>
</event>
<event>
 4    1  0.6282309E-006  0.4188585E+03  0.7818608E-02  0.1037438E+00
          1   -1    0    0  501    0  0.00000000000E+00  0.00000000000E+00  0.77533910938E+03  0.77533910940E+03  0.50400000000E-02 0. -1.
         -1   -1    0    0    0  501 -0.00000000000E+00 -0.00000000000E+00 -0.56569587309E+02  0.56569587533E+02  0.50400000000E-02 0.  1.
    5000001    1    1    2    0    0  0.48017645070E+02 -0.23713875884E+02  0.28529451039E+03  0.35194033557E+03  0.19900000000E+03 0.  0.
   -5000001    1    1    2    0    0 -0.48017645070E+02  0.23713875884E+02  0.43347501169E+03  0.47996836136E+03  0.19900000000E+03 0.  0.
<mgrwt>
<rscale>  0 0.41885851E+03</rscale>
<asrwt>0</asrwt>
<pdfrwt beam="1">  1        1 0.11076272E+00 0.41885851E+03</pdfrwt>
<pdfrwt beam="2">  1       -1 0.80813707E-02 0.41885851E+03</pdfrwt>
<totfact> 0.23013574E+03</totfact>
</mgrwt>
</event>
<event>
 4    1  0.6282309E-006  0.4888776E+03  0.7818608E-02  0.1016723E+00
         -1   -1    0    0    0  501 -0.00000000000E+00  0.00000000000E+00  0.53363143060E+02  0.53363143298E+02  0.50400000000E-02 0. -1.
          1   -1    0    0  501    0  0.00000000000E+00 -0.00000000000E+00 -0.11196928266E+04  0.11196928267E+04  0.50400000000E-02 0.  1.
    5000001    1    1    2    0    0  0.10264278250E+02  0.14110642592E+03 -0.56083186427E+03  0.61167782273E+03  0.19900000000E+03 0.  0.
   -5000001    1    1    2    0    0 -0.10264278250E+02 -0.14110642592E+03 -0.50549781932E+03  0.56137814722E+03  0.19900000000E+03 0.  0.
<mgrwt>
<rscale>  0 0.48887761E+03</rscale>
<asrwt>0</asrwt>
<pdfrwt beam="1">  1        1 0.15995610E+00 0.48887761E+03</pdfrwt>
<pdfrwt beam="2">  1       -1 0.76233069E-02 0.48887761E+03</pdfrwt>
<totfact> 0.13806973E+03</totfact>
</mgrwt>
</event>
<event>
 4    1  0.6282309E-006  0.5596715E+03  0.7818608E-02  0.9992798E-01
          1   -1    0    0  501    0  0.00000000000E+00  0.00000000000E+00  0.22134215226E+04  0.22134215226E+04  0.50400000000E-02 0. -1.
         -1   -1    0    0    0  501 -0.00000000000E+00 -0.00000000000E+00 -0.35378727653E+02  0.35378728012E+02  0.50400000000E-02 0.  1.
    5000001    1    1    2    0    0 -0.59952514421E+02  0.18594254242E+03  0.11822289398E+04  0.12146749356E+04  0.19900000000E+03 0.  0.
   -5000001    1    1    2    0    0  0.59952514421E+02 -0.18594254242E+03  0.99581385512E+03  0.10341253150E+04  0.19900000000E+03 0.  0.
<mgrwt>
<rscale>  0 0.55967147E+03</rscale>
<asrwt>0</asrwt>
<pdfrwt beam="1">  1        1 0.31620314E+00 0.55967147E+03</pdfrwt>
<pdfrwt beam="2">  1       -1 0.50541029E-02 0.55967147E+03</pdfrwt>
<totfact> 0.52160441E+02</totfact>
</mgrwt>
</event>
<event>
 4    1  0.6282309E-006  0.8143247E+03  0.7818608E-02  0.9539511E-01
          1   -1    0    0  501    0  0.00000000000E+00  0.00000000000E+00  0.14682359838E+04  0.14682359838E+04  0.50400000000E-02 0.  1.
         -1   -1    0    0    0  501 -0.00000000000E+00 -0.00000000000E+00 -0.11291179837E+03  0.11291179848E+03  0.50400000000E-02 0. -1.
    5000001    1    1    2    0    0 -0.20315255644E+03  0.29135178781E+03  0.66828160480E+03  0.78253314866E+03  0.19900000000E+03 0.  0.
   -5000001    1    1    2    0    0  0.20315255644E+03 -0.29135178781E+03  0.68704258062E+03  0.79861463362E+03  0.19900000000E+03 0.  0.
<mgrwt>
<rscale>  0 0.81432467E+03</rscale>
<asrwt>0</asrwt>
<pdfrwt beam="1">  1        1 0.20974801E+00 0.81432467E+03</pdfrwt>
<pdfrwt beam="2">  1       -1 0.16130256E-01 0.81432467E+03</pdfrwt>
<totfact> 0.24098592E+02</totfact>
</mgrwt>
</event>
<event>
 4    1  0.6282309E-006  0.9918693E+03  0.7818608E-02  0.9317508E-01
         -1   -1    0    0    0  501 -0.00000000000E+00  0.00000000000E+00  0.19147326385E+03  0.19147326392E+03  0.50400000000E-02 0. -1.
          1   -1    0    0  501    0  0.00000000000E+00 -0.00000000000E+00 -0.12845196684E+04  0.12845196684E+04  0.50400000000E-02 0.  1.
    5000001    1    1    2    0    0  0.56703728618E+02  0.85974592708E+02  0.11185161071E+03  0.25043707044E+03  0.19900000000E+03 0.  0.
   -5000001    1    1    2    0    0 -0.56703728618E+02 -0.85974592708E+02 -0.12048980153E+04  0.12255558619E+04  0.19900000000E+03 0.  0.
<mgrwt>
<rscale>  0 0.99186929E+03</rscale>
<asrwt>0</asrwt>
<pdfrwt beam="1">  1        1 0.18350281E+00 0.99186929E+03</pdfrwt>
<pdfrwt beam="2">  1       -1 0.27353324E-01 0.99186929E+03</pdfrwt>
<totfact> 0.12986586E+02</totfact>
</mgrwt>
</event>
<event>
 4    1  0.6282309E-006  0.9602936E+03  0.7818608E-02  0.9353199E-01
         -1   -1    0    0    0  501 -0.00000000000E+00  0.00000000000E+00  0.10227951061E+04  0.10227951062E+04  0.50400000000E-02 0.  1.
          1   -1    0    0  501    0  0.00000000000E+00 -0.00000000000E+00 -0.22540285145E+03  0.22540285151E+03  0.50400000000E-02 0. -1.
    5000001    1    1    2    0    0  0.17446981989E+03 -0.19303508500E+03 -0.57604630484E+02  0.33259818933E+03  0.19900000000E+03 0.  0.
   -5000001    1    1    2    0    0 -0.17446981989E+03  0.19303508500E+03  0.85499688518E+03  0.91559976833E+03  0.19900000000E+03 0.  0.
<mgrwt>
<rscale>  0 0.96029357E+03</rscale>
<asrwt>0</asrwt>
<pdfrwt beam="1">  1        1 0.32200407E-01 0.96029357E+03</pdfrwt>
<pdfrwt beam="2">  1       -1 0.14611359E+00 0.96029357E+03</pdfrwt>
<totfact> 0.52754594E+01</totfact>
</mgrwt>
</event>
<event>
 4    1  0.6282309E-006  0.4320326E+03  0.7818608E-02  0.1033220E+00
          1   -1    0    0  501    0  0.00000000000E+00  0.00000000000E+00  0.38807221896E+03  0.38807221899E+03  0.50400000000E-02 0.  1.
         -1   -1    0    0    0  501 -0.00000000000E+00 -0.00000000000E+00 -0.12024319263E+03  0.12024319274E+03  0.50400000000E-02 0. -1.
    5000001    1    1    2    0    0 -0.53671489065E+02 -0.64617239757E+02  0.13102623739E+03  0.25263588679E+03  0.19900000000E+03 0.  0.
   -5000001    1    1    2    0    0  0.53671489065E+02  0.64617239757E+02  0.13680278894E+03  0.25567952494E+03  0.19900000000E+03 0.  0.
<mgrwt>
<rscale>  0 0.43203260E+03</rscale>
<asrwt>0</asrwt>
<pdfrwt beam="1">  1        1 0.55438889E-01 0.43203260E+03</pdfrwt>
<pdfrwt beam="2">  1       -1 0.17177599E-01 0.43203260E+03</pdfrwt>
<totfact> 0.18014570E+03</totfact>
</mgrwt>
</event>
<event>
 4    1  0.6282309E-006  0.4233423E+03  0.7818608E-02  0.1035984E+00
         -1   -1    0    0    0  501 -0.00000000000E+00  0.00000000000E+00  0.25746700749E+03  0.25746700754E+03  0.50400000000E-02 0.  1.
          1   -1    0    0  501    0  0.00000000000E+00 -0.00000000000E+00 -0.17402100808E+03  0.17402100815E+03  0.50400000000E-02 0. -1.
    5000001    1    1    2    0    0  0.63670042783E+02  0.26507397091E+02  0.20170155678E+02  0.21157587676E+03  0.19900000000E+03 0.  0.
   -5000001    1    1    2    0    0 -0.63670042783E+02 -0.26507397091E+02  0.63275843729E+02  0.21991213893E+03  0.19900000000E+03 0.  0.
<mgrwt>
<rscale>  0 0.42334226E+03</rscale>
<asrwt>0</asrwt>
<pdfrwt beam="1">  1        1 0.24860144E-01 0.42334226E+03</pdfrwt>
<pdfrwt beam="2">  1       -1 0.36781001E-01 0.42334226E+03</pdfrwt>
<totfact> 0.13891194E+03</totfact>
</mgrwt>
</event>
<event>
 4    1  0.6282309E-006  0.9325767E+03  0.7818608E-02  0.9385751E-01
         -1   -1    0    0    0  501 -0.00000000000E+00  0.00000000000E+00  0.23195464920E+04  0.23195464920E+04  0.50400000000E-02 0. -1.
          1   -1    0    0  501    0  0.00000000000E+00 -0.00000000000E+00 -0.93735928265E+02  0.93735928400E+02  0.50400000000E-02 0.  1.
    5000001    1    1    2    0    0 -0.36212806870E+03  0.15908345562E+03  0.73452983285E+03  0.85765923264E+03  0.19900000000E+03 0.  0.
   -5000001    1    1    2    0    0  0.36212806870E+03 -0.15908345562E+03  0.14912807309E+04  0.15556231878E+04  0.19900000000E+03 0.  0.
<mgrwt>
<rscale>  0 0.93257674E+03</rscale>
<asrwt>0</asrwt>
<pdfrwt beam="1">  1        1 0.13390846E-01 0.93257674E+03</pdfrwt>
<pdfrwt beam="2">  1       -1 0.33136382E+00 0.93257674E+03</pdfrwt>
<totfact> 0.95414779E+00</totfact>
</mgrwt>
</event>
<event>
 4    1  0.6282309E-006  0.5766723E+03  0.7818608E-02  0.9955022E-01
          1   -1    0    0  501    0  0.00000000000E+00  0.00000000000E+00  0.78286345934E+03  0.78286345936E+03  0.50400000000E-02 0. -1.
         -1   -1    0    0    0  501 -0.00000000000E+00 -0.00000000000E+00 -0.10619696377E+03  0.10619696389E+03  0.50400000000E-02 0.  1.
    5000001    1    1    2    0    0  0.10155084443E+03  0.17846059931E+03  0.28114515731E+03  0.40100418824E+03  0.19900000000E+03 0.  0.
   -5000001    1    1    2    0    0 -0.10155084443E+03 -0.17846059931E+03  0.39552133826E+03  0.48805623501E+03  0.19900000000E+03 0.  0.
<mgrwt>
<rscale>  0 0.57667226E+03</rscale>
<asrwt>0</asrwt>
<pdfrwt beam="1">  1        1 0.11183763E+00 0.57667226E+03</pdfrwt>
<pdfrwt beam="2">  1       -1 0.15170995E-01 0.57667226E+03</pdfrwt>
<totfact> 0.83686399E+02</totfact>
</mgrwt>
</event>
<event>
 4    1  0.6282309E-006  0.8762204E+03  0.7818608E-02  0.9455805E-01
         -1   -1    0    0    0  501 -0.00000000000E+00  0.00000000000E+00  0.36831671869E+03  0.36831671873E+03  0.50400000000E-02 0. -1.
          1   -1    0    0  501    0  0.00000000000E+00 -0.00000000000E+00 -0.52112905374E+03  0.52112905377E+03  0.50400000000E-02 0.  1.
    5000001    1    1    2    0    0 -0.38054387643E+02 -0.28272543000E+03  0.19399340518E+03  0.39826655200E+03  0.19900000000E+03 0.  0.
   -5000001    1    1    2    0    0  0.38054387643E+02  0.28272543000E+03 -0.34680574023E+03  0.49117922050E+03  0.19900000000E+03 0.  0.
<mgrwt>
<rscale>  0 0.87622039E+03</rscale>
<asrwt>0</asrwt>
<pdfrwt beam="1">  1        1 0.74447007E-01 0.87622039E+03</pdfrwt>
<pdfrwt beam="2">  1       -1 0.52616674E-01 0.87622039E+03</pdfrwt>
<totfact> 0.17018042E+02</totfact>
</mgrwt>
</event>
<event>
 4    1  0.6282309E-006  0.4540053E+03  0.7818608E-02  0.1026534E+00
         -1   -1    0    0    0  501 -0.00000000000E+00  0.00000000000E+00  0.11448642731E+03  0.11448642742E+03  0.50400000000E-02 0. -1.
          1   -1    0    0  501    0  0.00000000000E+00 -0.00000000000E+00 -0.45009882484E+03  0.45009882487E+03  0.50400000000E-02 0.  1.
    5000001    1    1    2    0    0  0.73523436555E+02 -0.78525736900E+02 -0.19130989051E+03  0.29626417483E+03  0.19900000000E+03 0.  0.
   -5000001    1    1    2    0    0 -0.73523436555E+02  0.78525736900E+02 -0.14430250702E+03  0.26832107746E+03  0.19900000000E+03 0.  0.
<mgrwt>
<rscale>  0 0.45400531E+03</rscale>
<asrwt>0</asrwt>
<pdfrwt beam="1">  1        1 0.64299831E-01 0.45400531E+03</pdfrwt>
<pdfrwt beam="2">  1       -1 0.16355204E-01 0.45400531E+03</pdfrwt>
<totfact> 0.16087924E+03</totfact>
</mgrwt>
</event>
<event>
 4    1  0.6282309E-006  0.6217263E+03  0.7818608E-02  0.9861329E-01
         -1   -1    0    0    0  501 -0.00000000000E+00  0.00000000000E+00  0.61551811324E+02  0.61551811530E+02  0.50400000000E-02 0. -1.
          1   -1    0    0  501    0  0.00000000000E+00 -0.00000000000E+00 -0.15699928905E+04  0.15699928905E+04  0.50400000000E-02 0.  1.
    5000001    1    1    2    0    0 -0.11172965135E+03 -0.20887001927E+03 -0.83402031199E+03  0.88955105573E+03  0.19900000000E+03 0.  0.
   -5000001    1    1    2    0    0  0.11172965135E+03  0.20887001927E+03 -0.67442076715E+03  0.74199364627E+03  0.19900000000E+03 0.  0.
<mgrwt>
<rscale>  0 0.62172633E+03</rscale>
<asrwt>0</asrwt>
<pdfrwt beam="1">  1        1 0.22428467E+00 0.62172633E+03</pdfrwt>
<pdfrwt beam="2">  1       -1 0.87931169E-02 0.62172633E+03</pdfrwt>
<totfact> 0.55383472E+02</totfact>
</mgrwt>
</event>
<event>
 4    1  0.6282309E-006  0.4397834E+03  0.7818608E-02  0.1030813E+00
         -1   -1    0    0    0  501 -0.00000000000E+00  0.00000000000E+00  0.59756918216E+02  0.59756918428E+02  0.50400000000E-02 0. -1.
          1   -1    0    0  501    0  0.00000000000E+00 -0.00000000000E+00 -0.80915087215E+03  0.80915087217E+03  0.50400000000E-02 0.  1.
    5000001    1    1    2    0    0  0.91686053409E+02 -0.18130609027E+02 -0.38267652013E+03  0.44133589298E+03  0.19900000000E+03 0.  0.
   -5000001    1    1    2    0    0 -0.91686053409E+02  0.18130609027E+02 -0.36671743380E+03  0.42757189761E+03  0.19900000000E+03 0.  0.
<mgrwt>
<rscale>  0 0.43978341E+03</rscale>
<asrwt>0</asrwt>
<pdfrwt beam="1">  1        1 0.11559298E+00 0.43978341E+03</pdfrwt>
<pdfrwt beam="2">  1       -1 0.85367031E-02 0.43978341E+03</pdfrwt>
<totfact> 0.19821044E+03</totfact>
</mgrwt>
</event>
<event>
 4    1  0.6282309E-006  0.4662472E+03  0.7818608E-02  0.1022985E+00
          1   -1    0    0  501    0  0.00000000000E+00  0.00000000000E+00  0.19460279623E+04  0.19460279624E+04  0.50400000000E-02 0.  1.
         -1   -1    0    0    0  501 -0.00000000000E+00 -0.00000000000E+00 -0.27926939676E+02  0.27926940131E+02  0.50400000000E-02 0. -1.
    5000001    1    1    2    0    0 -0.10568197036E+03  0.26718109509E+02  0.11855863822E+04  0.12071033949E+04  0.19900000000E+03 0.  0.
   -5000001    1    1    2    0    0  0.10568197036E+03 -0.26718109509E+02  0.73251464046E+03  0.76685150761E+03  0.19900000000E+03 0.  0.
<mgrwt>
<rscale>  0 0.46624717E+03</rscale>
<asrwt>0</asrwt>
<pdfrwt beam="1">  1        1 0.27800407E+00 0.46624717E+03</pdfrwt>
<pdfrwt beam="2">  1       -1 0.39895618E-02 0.46624717E+03</pdfrwt>
<totfact> 0.10975953E+03</totfact>
</mgrwt>
</event>
<event>
 4    1  0.6282309E-006  0.6457452E+03  0.7818608E-02  0.9814796E-01
          1   -1    0    0  501    0  0.00000000000E+00  0.00000000000E+00  0.90934158187E+03  0.90934158188E+03  0.50400000000E-02 0. -1.
         -1   -1    0    0    0  501 -0.00000000000E+00 -0.00000000000E+00 -0.11463979338E+03  0.11463979349E+03  0.50400000000E-02 0.  1.
    5000001    1    1    2    0    0  0.66656785395E+02 -0.17293362314E+03  0.67336262631E+03  0.72620065516E+03  0.19900000000E+03 0.  0.
   -5000001    1    1    2    0    0 -0.66656785395E+02  0.17293362314E+03  0.12133916218E+03  0.29778072021E+03  0.19900000000E+03 0.  0.
<mgrwt>
<rscale>  0 0.64574525E+03</rscale>
<asrwt>0</asrwt>
<pdfrwt beam="1">  1        1 0.12990594E+00 0.64574525E+03</pdfrwt>
<pdfrwt beam="2">  1       -1 0.16377114E-01 0.64574525E+03</pdfrwt>
<totfact> 0.58268350E+02</totfact>
</mgrwt>
</event>
<event>
 4    1  0.6282309E-006  0.4630551E+03  0.7818608E-02  0.1023899E+00
          1   -1    0    0  501    0  0.00000000000E+00  0.00000000000E+00  0.23460698739E+03  0.23460698745E+03  0.50400000000E-02 0. -1.
         -1   -1    0    0    0  501 -0.00000000000E+00 -0.00000000000E+00 -0.22848858062E+03  0.22848858068E+03  0.50400000000E-02 0.  1.
    5000001    1    1    2    0    0  0.57162623657E+02 -0.69494805995E+02  0.79922427659E+02  0.23256329901E+03  0.19900000000E+03 0.  0.
   -5000001    1    1    2    0    0 -0.57162623657E+02  0.69494805995E+02 -0.73804020889E+02  0.23053226911E+03  0.19900000000E+03 0.  0.
<mgrwt>
<rscale>  0 0.46305515E+03</rscale>
<asrwt>0</asrwt>
<pdfrwt beam="1">  1        1 0.33515284E-01 0.46305515E+03</pdfrwt>
<pdfrwt beam="2">  1       -1 0.32641226E-01 0.46305515E+03</pdfrwt>
<totfact> 0.11680456E+03</totfact>
</mgrwt>
</event>
<event>
 4    1  0.6282309E-006  0.5551417E+03  0.7818608E-02  0.1000311E+00
          1   -1    0    0  501    0  0.00000000000E+00  0.00000000000E+00  0.13183012189E+03  0.13183012199E+03  0.50400000000E-02 0.  1.
         -1   -1    0    0    0  501 -0.00000000000E+00 -0.00000000000E+00 -0.58443079609E+03  0.58443079612E+03  0.50400000000E-02 0. -1.
    5000001    1    1    2    0    0 -0.10494537686E+03 -0.14429644792E+03 -0.12966570534E+03  0.29706765584E+03  0.19900000000E+03 0.  0.
   -5000001    1    1    2    0    0  0.10494537686E+03  0.14429644792E+03 -0.32293496886E+03  0.41919326226E+03  0.19900000000E+03 0.  0.
<mgrwt>
<rscale>  0 0.55514172E+03</rscale>
<asrwt>0</asrwt>
<pdfrwt beam="1">  1        1 0.18832875E-01 0.55514172E+03</pdfrwt>
<pdfrwt beam="2">  1       -1 0.83490113E-01 0.55514172E+03</pdfrwt>
<totfact> 0.41003086E+02</totfact>
</mgrwt>
</event>
<event>
 4    1  0.6282309E-006  0.7564368E+03  0.7818608E-02  0.9625306E-01
         -1   -1    0    0    0  501 -0.00000000000E+00  0.00000000000E+00  0.76855224429E+02  0.76855224594E+02  0.50400000000E-02 0. -1.
          1   -1    0    0  501    0  0.00000000000E+00 -0.00000000000E+00 -0.18612807210E+04  0.18612807210E+04  0.50400000000E-02 0.  1.
    5000001    1    1    2    0    0 -0.13170420615E+03 -0.26115501450E+03 -0.54941288160E+03  0.65345501297E+03  0.19900000000E+03 0.  0.
   -5000001    1    1    2    0    0  0.13170420615E+03  0.26115501450E+03 -0.12350126150E+04  0.12846809327E+04  0.19900000000E+03 0.  0.
<mgrwt>
<rscale>  0 0.75643677E+03</rscale>
<asrwt>0</asrwt>
<pdfrwt beam="1">  1        1 0.26589722E+00 0.75643677E+03</pdfrwt>
<pdfrwt beam="2">  1       -1 0.10979319E-01 0.75643677E+03</pdfrwt>
<totfact> 0.25349984E+02</totfact>
</mgrwt>
</event>
<event>
 4    1  0.6282309E-006  0.6190447E+03  0.7818608E-02  0.9866663E-01
          1   -1    0    0  501    0  0.00000000000E+00  0.00000000000E+00  0.15960478125E+03  0.15960478133E+03  0.50400000000E-02 0.  1.
         -1   -1    0    0    0  501 -0.00000000000E+00 -0.00000000000E+00 -0.60025829959E+03  0.60025829961E+03  0.50400000000E-02 0. -1.
    5000001    1    1    2    0    0 -0.11159799817E+03 -0.17002809975E+03 -0.36985453553E+03  0.46664445283E+03  0.19900000000E+03 0.  0.
   -5000001    1    1    2    0    0  0.11159799817E+03  0.17002809975E+03 -0.70798982805E+02  0.29321862811E+03  0.19900000000E+03 0.  0.
<mgrwt>
<rscale>  0 0.61904473E+03</rscale>
<asrwt>0</asrwt>
<pdfrwt beam="1">  1        1 0.22800683E-01 0.61904473E+03</pdfrwt>
<pdfrwt beam="2">  1       -1 0.85751184E-01 0.61904473E+03</pdfrwt>
<totfact> 0.30044523E+02</totfact>
</mgrwt>
</event>
<event>
 4    1  0.6282309E-006  0.8859951E+03  0.7818608E-02  0.9443260E-01
         -1   -1    0    0    0  501 -0.00000000000E+00  0.00000000000E+00  0.14146905402E+04  0.14146905403E+04  0.50400000000E-02 0. -1.
          1   -1    0    0  501    0  0.00000000000E+00 -0.00000000000E+00 -0.13872067945E+03  0.13872067954E+03  0.50400000000E-02 0.  1.
    5000001    1    1    2    0    0 -0.58419139887E+02 -0.24413976587E+03  0.10149710666E+03  0.33603524197E+03  0.19900000000E+03 0.  0.
   -5000001    1    1    2    0    0  0.58419139887E+02  0.24413976587E+03  0.11744727541E+04  0.12173759778E+04  0.19900000000E+03 0.  0.
<mgrwt>
<rscale>  0 0.88599511E+03</rscale>
<asrwt>0</asrwt>
<pdfrwt beam="1">  1        1 0.19817240E-01 0.88599511E+03</pdfrwt>
<pdfrwt beam="2">  1       -1 0.20209865E+00 0.88599511E+03</pdfrwt>
<totfact> 0.39169083E+01</totfact>
</mgrwt>
</event>
<event>
 4    1  0.6282309E-006  0.6909215E+03  0.7818608E-02  0.9732885E-01
         -1   -1    0    0    0  501 -0.00000000000E+00  0.00000000000E+00  0.76987196184E+02  0.76987196349E+02  0.50400000000E-02 0.  1.
          1   -1    0    0  501    0  0.00000000000E+00 -0.00000000000E+00 -0.15501685480E+04  0.15501685480E+04  0.50400000000E-02 0. -1.
    5000001    1    1    2    0    0 -0.25441563635E+03 -0.12395010897E+02 -0.10236866040E+04  0.10735065047E+04  0.19900000000E+03 0.  0.
   -5000001    1    1    2    0    0  0.25441563635E+03  0.12395010897E+02 -0.44949474780E+03  0.55364923970E+03  0.19900000000E+03 0.  0.
<mgrwt>
<rscale>  0 0.69092150E+03</rscale>
<asrwt>0</asrwt>
<pdfrwt beam="1">  1        1 0.22145263E+00 0.69092150E+03</pdfrwt>
<pdfrwt beam="2">  1       -1 0.10998172E-01 0.69092150E+03</pdfrwt>
<totfact> 0.39884194E+02</totfact>
</mgrwt>
</event>
<event>
 4    1  0.6282309E-006  0.6513276E+03  0.7818608E-02  0.9804291E-01
          1   -1    0    0  501    0  0.00000000000E+00  0.00000000000E+00  0.16295553994E+04  0.16295553994E+04  0.50400000000E-02 0. -1.
         -1   -1    0    0    0  501 -0.00000000000E+00 -0.00000000000E+00 -0.65083339528E+02  0.65083339723E+02  0.50400000000E-02 0.  1.
    5000001    1    1    2    0    0  0.16164240518E+03 -0.19087058207E+03  0.94463771956E+03  0.99724684380E+03  0.19900000000E+03 0.  0.
   -5000001    1    1    2    0    0 -0.16164240518E+03  0.19087058207E+03  0.61983434035E+03  0.69739189537E+03  0.19900000000E+03 0.  0.
<mgrwt>
<rscale>  0 0.65132759E+03</rscale>
<asrwt>0</asrwt>
<pdfrwt beam="1">  1        1 0.23279367E+00 0.65132759E+03</pdfrwt>
<pdfrwt beam="2">  1       -1 0.92976185E-02 0.65132759E+03</pdfrwt>
<totfact> 0.46429714E+02</totfact>
</mgrwt>
</event>
<event>
 4    1  0.6282309E-006  0.2147402E+04  0.7818608E-02  0.8540645E-01
         -1   -1    0    0    0  501 -0.00000000000E+00  0.00000000000E+00  0.82135644366E+03  0.82135644367E+03  0.50400000000E-02 0. -1.
          1   -1    0    0  501    0  0.00000000000E+00 -0.00000000000E+00 -0.14035733915E+04  0.14035733915E+04  0.50400000000E-02 0.  1.
    5000001    1    1    2    0    0  0.56245796474E+03 -0.21325902292E+03 -0.11892338833E+04  0.13474852882E+04  0.19900000000E+03 0.  0.
   -5000001    1    1    2    0    0 -0.56245796474E+03  0.21325902292E+03  0.60701693545E+03  0.87744454690E+03  0.19900000000E+03 0.  0.
<mgrwt>
<rscale>  0 0.21474022E+04</rscale>
<asrwt>0</asrwt>
<pdfrwt beam="1">  1        1 0.20051048E+00 0.21474022E+04</pdfrwt>
<pdfrwt beam="2">  1       -1 0.11733664E+00 0.21474022E+04</pdfrwt>
<totfact> 0.54153423E+00</totfact>
</mgrwt>
</event>
<event>
 4    1  0.6282309E-006  0.5337821E+03  0.7818608E-02  0.1005319E+00
          1   -1    0    0  501    0  0.00000000000E+00  0.00000000000E+00  0.34850068554E+03  0.34850068557E+03  0.50400000000E-02 0.  1.
         -1   -1    0    0    0  501 -0.00000000000E+00 -0.00000000000E+00 -0.20439219880E+03  0.20439219886E+03  0.50400000000E-02 0. -1.
    5000001    1    1    2    0    0 -0.17645578008E+03 -0.18752078151E+02  0.59731296341E+02  0.27323453391E+03  0.19900000000E+03 0.  0.
   -5000001    1    1    2    0    0  0.17645578008E+03  0.18752078151E+02  0.84377190394E+02  0.27965835052E+03  0.19900000000E+03 0.  0.
<mgrwt>
<rscale>  0 0.53378206E+03</rscale>
<asrwt>0</asrwt>
<pdfrwt beam="1">  1        1 0.49785812E-01 0.53378206E+03</pdfrwt>
<pdfrwt beam="2">  1       -1 0.29198886E-01 0.53378206E+03</pdfrwt>
<totfact> 0.85324609E+02</totfact>
</mgrwt>
</event>
<event>
 4    1  0.6282309E-006  0.6420255E+03  0.7818608E-02  0.9821859E-01
          1   -1    0    0  501    0  0.00000000000E+00  0.00000000000E+00  0.86309447672E+03  0.86309447673E+03  0.50400000000E-02 0. -1.
         -1   -1    0    0    0  501 -0.00000000000E+00 -0.00000000000E+00 -0.11939502686E+03  0.11939502696E+03  0.50400000000E-02 0.  1.
    5000001    1    1    2    0    0  0.65092079339E+02 -0.15490056494E+03  0.84671196557E+02  0.27386378975E+03  0.19900000000E+03 0.  0.
   -5000001    1    1    2    0    0 -0.65092079339E+02  0.15490056494E+03  0.65902825331E+03  0.70862571395E+03  0.19900000000E+03 0.  0.
<mgrwt>
<rscale>  0 0.64202551E+03</rscale>
<asrwt>0</asrwt>
<pdfrwt beam="1">  1        1 0.12329921E+00 0.64202551E+03</pdfrwt>
<pdfrwt beam="2">  1       -1 0.17056432E-01 0.64202551E+03</pdfrwt>
<totfact> 0.59303486E+02</totfact>
</mgrwt>
</event>
<event>
 4    1  0.6282309E-006  0.6565801E+03  0.7818608E-02  0.9794510E-01
         -1   -1    0    0    0  501 -0.00000000000E+00  0.00000000000E+00  0.63686607596E+02  0.63686607795E+02  0.50400000000E-02 0. -1.
          1   -1    0    0  501    0  0.00000000000E+00 -0.00000000000E+00 -0.16922610081E+04  0.16922610081E+04  0.50400000000E-02 0.  1.
    5000001    1    1    2    0    0  0.54540670748E+02 -0.22077164553E+03 -0.11573864185E+04  0.11961852390E+04  0.19900000000E+03 0.  0.
   -5000001    1    1    2    0    0 -0.54540670748E+02  0.22077164553E+03 -0.47118798205E+03  0.55976237697E+03  0.19900000000E+03 0.  0.
<mgrwt>
<rscale>  0 0.65658012E+03</rscale>
<asrwt>0</asrwt>
<pdfrwt beam="1">  1        1 0.24175154E+00 0.65658012E+03</pdfrwt>
<pdfrwt beam="2">  1       -1 0.90980879E-02 0.65658012E+03</pdfrwt>
<totfact> 0.43847429E+02</totfact>
</mgrwt>
</event>
<event>
 4    1  0.6282309E-006  0.6798806E+03  0.7818608E-02  0.9752271E-01
          1   -1    0    0  501    0  0.00000000000E+00  0.00000000000E+00  0.12410449391E+04  0.12410449391E+04  0.50400000000E-02 0.  1.
         -1   -1    0    0    0  501 -0.00000000000E+00 -0.00000000000E+00 -0.93114610978E+02  0.93114611115E+02  0.50400000000E-02 0. -1.
    5000001    1    1    2    0    0  0.23546101094E+03 -0.14177494798E+03  0.61400819542E+03  0.70153338309E+03  0.19900000000E+03 0.  0.
   -5000001    1    1    2    0    0 -0.23546101094E+03  0.14177494798E+03  0.53392213266E+03  0.63262616709E+03  0.19900000000E+03 0.  0.
<mgrwt>
<rscale>  0 0.67988063E+03</rscale>
<asrwt>0</asrwt>
<pdfrwt beam="1">  1        1 0.17729214E+00 0.67988063E+03</pdfrwt>
<pdfrwt beam="2">  1       -1 0.13302087E-01 0.67988063E+03</pdfrwt>
<totfact> 0.46983485E+02</totfact>
</mgrwt>
</event>
<event>
 4    1  0.6282309E-006  0.6443382E+03  0.7818608E-02  0.9817462E-01
          1   -1    0    0  501    0  0.00000000000E+00  0.00000000000E+00  0.29616585819E+03  0.29616585824E+03  0.50400000000E-02 0.  1.
         -1   -1    0    0    0  501 -0.00000000000E+00 -0.00000000000E+00 -0.35045540296E+03  0.35045540300E+03  0.50400000000E-02 0. -1.
    5000001    1    1    2    0    0  0.17127631039E+03  0.14765457293E+03  0.87516263401E+02  0.31368382771E+03  0.19900000000E+03 0.  0.
   -5000001    1    1    2    0    0 -0.17127631039E+03 -0.14765457293E+03 -0.14180580817E+03  0.33293743352E+03  0.19900000000E+03 0.  0.
<mgrwt>
<rscale>  0 0.64433819E+03</rscale>
<asrwt>0</asrwt>
<pdfrwt beam="1">  1        1 0.42309409E-01 0.64433819E+03</pdfrwt>
<pdfrwt beam="2">  1       -1 0.50065057E-01 0.64433819E+03</pdfrwt>
<totfact> 0.39780521E+02</totfact>
</mgrwt>
</event>
<event>
 4    1  0.6282309E-006  0.1599414E+04  0.7818608E-02  0.8820908E-01
          1   -1    0    0  501    0  0.00000000000E+00  0.00000000000E+00  0.43965525800E+03  0.43965525803E+03  0.50400000000E-02 0.  1.
         -1   -1    0    0    0  501 -0.00000000000E+00 -0.00000000000E+00 -0.14546204139E+04  0.14546204139E+04  0.50400000000E-02 0. -1.
    5000001    1    1    2    0    0 -0.54048185776E+03  0.43902168008E+03 -0.90923912648E+03  0.11624015929E+04  0.19900000000E+03 0.  0.
   -5000001    1    1    2    0    0  0.54048185776E+03 -0.43902168008E+03 -0.10572602938E+03  0.73187407895E+03  0.19900000000E+03 0.  0.
<mgrwt>
<rscale>  0 0.15994143E+04</rscale>
<asrwt>0</asrwt>
<pdfrwt beam="1">  1        1 0.62807894E-01 0.15994143E+04</pdfrwt>
<pdfrwt beam="2">  1       -1 0.20780291E+00 0.15994143E+04</pdfrwt>
<totfact> 0.74709682E+00</totfact>
</mgrwt>
</event>
<event>
 4    1  0.6282309E-006  0.5330844E+03  0.7818608E-02  0.1005487E+00
          1   -1    0    0  501    0  0.00000000000E+00  0.00000000000E+00  0.53524042893E+03  0.53524042896E+03  0.50400000000E-02 0.  1.
         -1   -1    0    0    0  501 -0.00000000000E+00 -0.00000000000E+00 -0.13273424570E+03  0.13273424579E+03  0.50400000000E-02 0. -1.
    5000001    1    1    2    0    0 -0.10794086738E+03 -0.11611359323E+03  0.30078984159E+03  0.39396589470E+03  0.19900000000E+03 0.  0.
   -5000001    1    1    2    0    0  0.10794086738E+03  0.11611359323E+03  0.10171634164E+03  0.27400878004E+03  0.19900000000E+03 0.  0.
<mgrwt>
<rscale>  0 0.53308436E+03</rscale>
<asrwt>0</asrwt>
<pdfrwt beam="1">  1        1 0.76462919E-01 0.53308436E+03</pdfrwt>
<pdfrwt beam="2">  1       -1 0.18962035E-01 0.53308436E+03</pdfrwt>
<totfact> 0.10026218E+03</totfact>
</mgrwt>
</event>
<event>
 4    1  0.6282309E-006  0.5723833E+03  0.7818608E-02  0.9964419E-01
          1   -1    0    0  501    0  0.00000000000E+00  0.00000000000E+00  0.15744223228E+03  0.15744223236E+03  0.50400000000E-02 0.  1.
         -1   -1    0    0    0  501 -0.00000000000E+00 -0.00000000000E+00 -0.52022676845E+03  0.52022676847E+03  0.50400000000E-02 0. -1.
    5000001    1    1    2    0    0  0.58476560041E+02 -0.18664724193E+03 -0.25671896281E+03  0.37916002803E+03  0.19900000000E+03 0.  0.
   -5000001    1    1    2    0    0 -0.58476560041E+02  0.18664724193E+03 -0.10606557336E+03  0.29850897280E+03  0.19900000000E+03 0.  0.
<mgrwt>
<rscale>  0 0.57238331E+03</rscale>
<asrwt>0</asrwt>
<pdfrwt beam="1">  1        1 0.22491748E-01 0.57238331E+03</pdfrwt>
<pdfrwt beam="2">  1       -1 0.74318109E-01 0.57238331E+03</pdfrwt>
<totfact> 0.41438855E+02</totfact>
</mgrwt>
</event>
<event>
 4    1  0.6282309E-006  0.6757323E+03  0.7818608E-02  0.9759657E-01
          1   -1    0    0  501    0  0.00000000000E+00  0.00000000000E+00  0.12326737326E+04  0.12326737326E+04  0.50400000000E-02 0.  1.
         -1   -1    0    0    0  501 -0.00000000000E+00 -0.00000000000E+00 -0.92606459584E+02  0.92606459721E+02  0.50400000000E-02 0. -1.
    5000001    1    1    2    0    0  0.43264157562E+02  0.26069164181E+03  0.43528231893E+03  0.54672078487E+03  0.19900000000E+03 0.  0.
   -5000001    1    1    2    0    0 -0.43264157562E+02 -0.26069164181E+03  0.70478495409E+03  0.77855940746E+03  0.19900000000E+03 0.  0.
<mgrwt>
<rscale>  0 0.67573234E+03</rscale>
<asrwt>0</asrwt>
<pdfrwt beam="1">  1        1 0.17609624E+00 0.67573234E+03</pdfrwt>
<pdfrwt beam="2">  1       -1 0.13229495E-01 0.67573234E+03</pdfrwt>
<totfact> 0.48034558E+02</totfact>
</mgrwt>
</event>
<event>
 4    1  0.6282309E-006  0.1788594E+04  0.7818608E-02  0.8712389E-01
          1   -1    0    0  501    0  0.00000000000E+00  0.00000000000E+00  0.75155850006E+03  0.75155850007E+03  0.50400000000E-02 0.  1.
         -1   -1    0    0    0  501 -0.00000000000E+00 -0.00000000000E+00 -0.10641450027E+04  0.10641450027E+04  0.50400000000E-02 0. -1.
    5000001    1    1    2    0    0  0.76652485930E+03 -0.41542717043E+03 -0.16148230761E+03  0.90874508501E+03  0.19900000000E+03 0.  0.
   -5000001    1    1    2    0    0 -0.76652485930E+03  0.41542717043E+03 -0.15110419506E+03  0.90695841780E+03  0.19900000000E+03 0.  0.
<mgrwt>
<rscale>  0 0.17885941E+04</rscale>
<asrwt>0</asrwt>
<pdfrwt beam="1">  1        1 0.10736550E+00 0.17885941E+04</pdfrwt>
<pdfrwt beam="2">  1       -1 0.15202071E+00 0.17885941E+04</pdfrwt>
<totfact> 0.87315866E+00</totfact>
</mgrwt>
</event>
<event>
 4    1  0.6282309E-006  0.7851720E+03  0.7818608E-02  0.9581732E-01
         -1   -1    0    0    0  501 -0.00000000000E+00  0.00000000000E+00  0.25405698444E+03  0.25405698449E+03  0.50400000000E-02 0. -1.
          1   -1    0    0  501    0  0.00000000000E+00 -0.00000000000E+00 -0.60665033014E+03  0.60665033016E+03  0.50400000000E-02 0.  1.
    5000001    1    1    2    0    0 -0.30984749861E+03 -0.67378934998E+02 -0.46697183970E+02  0.37726253494E+03  0.19900000000E+03 0.  0.
   -5000001    1    1    2    0    0  0.30984749861E+03  0.67378934998E+02 -0.30589616173E+03  0.48344477972E+03  0.19900000000E+03 0.  0.
<mgrwt>
<rscale>  0 0.78517196E+03</rscale>
<asrwt>0</asrwt>
<pdfrwt beam="1">  1        1 0.86664333E-01 0.78517196E+03</pdfrwt>
<pdfrwt beam="2">  1       -1 0.36293855E-01 0.78517196E+03</pdfrwt>
<totfact> 0.27512005E+02</totfact>
</mgrwt>
</event>
<event>
 4    1  0.6282309E-006  0.4493105E+03  0.7818608E-02  0.1027928E+00
         -1   -1    0    0    0  501 -0.00000000000E+00  0.00000000000E+00  0.66187070996E+03  0.66187070998E+03  0.50400000000E-02 0.  1.
          1   -1    0    0  501    0  0.00000000000E+00 -0.00000000000E+00 -0.76253525192E+02  0.76253525358E+02  0.50400000000E-02 0. -1.
    5000001    1    1    2    0    0 -0.29578312477E+02  0.96145985504E+02  0.33779977443E+03  0.40475747640E+03  0.19900000000E+03 0.  0.
   -5000001    1    1    2    0    0  0.29578312477E+02 -0.96145985504E+02  0.24781741034E+03  0.33336675894E+03  0.19900000000E+03 0.  0.
<mgrwt>
<rscale>  0 0.44931047E+03</rscale>
<asrwt>0</asrwt>
<pdfrwt beam="1">  1        1 0.10893361E-01 0.44931047E+03</pdfrwt>
<pdfrwt beam="2">  1       -1 0.94552954E-01 0.44931047E+03</pdfrwt>
<totfact> 0.65309829E+02</totfact>
</mgrwt>
</event>
<event>
 4    1  0.6282309E-006  0.4582357E+03  0.7818608E-02  0.1025294E+00
         -1   -1    0    0    0  501 -0.00000000000E+00  0.00000000000E+00  0.49033370461E+02  0.49033370720E+02  0.50400000000E-02 0. -1.
          1   -1    0    0  501    0  0.00000000000E+00 -0.00000000000E+00 -0.10705973422E+04  0.10705973422E+04  0.50400000000E-02 0.  1.
    5000001    1    1    2    0    0 -0.90364572368E+02  0.68692311628E+02 -0.51835504521E+03  0.56672510312E+03  0.19900000000E+03 0.  0.
   -5000001    1    1    2    0    0  0.90364572368E+02 -0.68692311628E+02 -0.50320892650E+03  0.55290560978E+03  0.19900000000E+03 0.  0.
<mgrwt>
<rscale>  0 0.45823573E+03</rscale>
<asrwt>0</asrwt>
<pdfrwt beam="1">  1        1 0.15294246E+00 0.45823573E+03</pdfrwt>
<pdfrwt beam="2">  1       -1 0.70047679E-02 0.45823573E+03</pdfrwt>
<totfact> 0.17047998E+03</totfact>
</mgrwt>
</event>
<event>
 4    1  0.6282309E-006  0.4787411E+03  0.7818608E-02  0.1019482E+00
         -1   -1    0    0    0  501 -0.00000000000E+00  0.00000000000E+00  0.55390125427E+02  0.55390125656E+02  0.50400000000E-02 0. -1.
          1   -1    0    0  501    0  0.00000000000E+00 -0.00000000000E+00 -0.10344489902E+04  0.10344489902E+04  0.50400000000E-02 0.  1.
    5000001    1    1    2    0    0  0.10905385545E+03  0.63445965110E+02 -0.58555015753E+03  0.63117994333E+03  0.19900000000E+03 0.  0.
   -5000001    1    1    2    0    0 -0.10905385545E+03 -0.63445965110E+02 -0.39350870723E+03  0.45865917253E+03  0.19900000000E+03 0.  0.
<mgrwt>
<rscale>  0 0.47874110E+03</rscale>
<asrwt>0</asrwt>
<pdfrwt beam="1">  1        1 0.14777841E+00 0.47874110E+03</pdfrwt>
<pdfrwt beam="2">  1       -1 0.79128757E-02 0.47874110E+03</pdfrwt>
<totfact> 0.14984085E+03</totfact>
</mgrwt>
</event>
<event>
 4    1  0.6282309E-006  0.5329289E+03  0.7818608E-02  0.1005524E+00
          1   -1    0    0  501    0  0.00000000000E+00  0.00000000000E+00  0.11392391135E+04  0.11392391135E+04  0.50400000000E-02 0.  1.
         -1   -1    0    0    0  501 -0.00000000000E+00 -0.00000000000E+00 -0.62325199801E+02  0.62325200005E+02  0.50400000000E-02 0. -1.
    5000001    1    1    2    0    0  0.11768656672E+03  0.12652003797E+03  0.62707495910E+03  0.68020691876E+03  0.19900000000E+03 0.  0.
   -5000001    1    1    2    0    0 -0.11768656672E+03 -0.12652003797E+03  0.44983895459E+03  0.52135739475E+03  0.19900000000E+03 0.  0.
<mgrwt>
<rscale>  0 0.53292891E+03</rscale>
<asrwt>0</asrwt>
<pdfrwt beam="1">  1        1 0.16274845E+00 0.53292891E+03</pdfrwt>
<pdfrwt beam="2">  1       -1 0.89035999E-02 0.53292891E+03</pdfrwt>
<totfact> 0.10496708E+03</totfact>
</mgrwt>
</event>
<event>
 4    1  0.6282309E-006  0.8069675E+03  0.7818608E-02  0.9549986E-01
         -1   -1    0    0    0  501 -0.00000000000E+00  0.00000000000E+00  0.22408585655E+03  0.22408585660E+03  0.50400000000E-02 0.  1.
          1   -1    0    0  501    0  0.00000000000E+00 -0.00000000000E+00 -0.72650345900E+03  0.72650345901E+03  0.50400000000E-02 0. -1.
    5000001    1    1    2    0    0 -0.14490984455E+03 -0.58438153803E+02  0.11902900325E+03  0.27961184610E+03  0.19900000000E+03 0.  0.
   -5000001    1    1    2    0    0  0.14490984455E+03  0.58438153803E+02 -0.62144660570E+03  0.67097746952E+03  0.19900000000E+03 0.  0.
<mgrwt>
<rscale>  0 0.80696753E+03</rscale>
<asrwt>0</asrwt>
<pdfrwt beam="1">  1        1 0.10378621E+00 0.80696753E+03</pdfrwt>
<pdfrwt beam="2">  1       -1 0.32012265E-01 0.80696753E+03</pdfrwt>
<totfact> 0.26433351E+02</totfact>
</mgrwt>
</event>
<event>
 4    1  0.6282309E-006  0.6536805E+03  0.7818608E-02  0.9799897E-01
          1   -1    0    0  501    0  0.00000000000E+00  0.00000000000E+00  0.67509458707E+03  0.67509458708E+03  0.50400000000E-02 0.  1.
         -1   -1    0    0    0  501 -0.00000000000E+00 -0.00000000000E+00 -0.15823642223E+03  0.15823642231E+03  0.50400000000E-02 0. -1.
    5000001    1    1    2    0    0 -0.17487511106E+03  0.14900903368E+03  0.41161325011E+03  0.51167515501E+03  0.19900000000E+03 0.  0.
   -5000001    1    1    2    0    0  0.17487511106E+03 -0.14900903368E+03  0.10524491472E+03  0.32165585439E+03  0.19900000000E+03 0.  0.
<mgrwt>
<rscale>  0 0.65368051E+03</rscale>
<asrwt>0</asrwt>
<pdfrwt beam="1">  1        1 0.96442085E-01 0.65368051E+03</pdfrwt>
<pdfrwt beam="2">  1       -1 0.22605203E-01 0.65368051E+03</pdfrwt>
<totfact> 0.53898058E+02</totfact>
</mgrwt>
</event>
<event>
 4    1  0.6282309E-006  0.7400544E+03  0.7818608E-02  0.9651084E-01
         -1   -1    0    0    0  501 -0.00000000000E+00  0.00000000000E+00  0.67357373987E+03  0.67357373989E+03  0.50400000000E-02 0. -1.
          1   -1    0    0  501    0  0.00000000000E+00 -0.00000000000E+00 -0.20327417190E+03  0.20327417196E+03  0.50400000000E-02 0.  1.
    5000001    1    1    2    0    0 -0.57190774654E+01  0.25694210431E+03  0.44465991990E+03  0.55079524070E+03  0.19900000000E+03 0.  0.
   -5000001    1    1    2    0    0  0.57190774654E+01 -0.25694210431E+03  0.25639648067E+02  0.32605267115E+03  0.19900000000E+03 0.  0.
<mgrwt>
<rscale>  0 0.74005444E+03</rscale>
<asrwt>0</asrwt>
<pdfrwt beam="1">  1        1 0.29039167E-01 0.74005444E+03</pdfrwt>
<pdfrwt beam="2">  1       -1 0.96224821E-01 0.74005444E+03</pdfrwt>
<totfact> 0.16915716E+02</totfact>
</mgrwt>
</event>
<event>
 4    1  0.6282309E-006  0.7218491E+03  0.7818608E-02  0.9680580E-01
         -1   -1    0    0    0  501 -0.00000000000E+00  0.00000000000E+00  0.15098165312E+04  0.15098165312E+04  0.50400000000E-02 0. -1.
          1   -1    0    0  501    0  0.00000000000E+00 -0.00000000000E+00 -0.86279707546E+02  0.86279707693E+02  0.50400000000E-02 0.  1.
    5000001    1    1    2    0    0 -0.22704673233E+03  0.12548241307E+02  0.27534287080E+03  0.40880603410E+03  0.19900000000E+03 0.  0.
   -5000001    1    1    2    0    0  0.22704673233E+03 -0.12548241307E+02  0.11481939528E+04  0.11872902048E+04  0.19900000000E+03 0.  0.
<mgrwt>
<rscale>  0 0.72184909E+03</rscale>
<asrwt>0</asrwt>
<pdfrwt beam="1">  1        1 0.12325673E-01 0.72184909E+03</pdfrwt>
<pdfrwt beam="2">  1       -1 0.21568807E+00 0.72184909E+03</pdfrwt>
<totfact> 0.60847730E+01</totfact>
</mgrwt>
</event>
<event>
 4    1  0.6282309E-006  0.6037734E+03  0.7818608E-02  0.9897608E-01
         -1   -1    0    0    0  501 -0.00000000000E+00  0.00000000000E+00  0.26361191173E+02  0.26361191655E+02  0.50400000000E-02 0. -1.
          1   -1    0    0  501    0  0.00000000000E+00 -0.00000000000E+00 -0.34571877979E+04  0.34571877979E+04  0.50400000000E-02 0.  1.
    5000001    1    1    2    0    0 -0.18551674705E+02  0.19433328208E+03 -0.23839189397E+04  0.24001625154E+04  0.19900000000E+03 0.  0.
   -5000001    1    1    2    0    0  0.18551674705E+02 -0.19433328208E+03 -0.10469076670E+04  0.10833864741E+04  0.19900000000E+03 0.  0.
<mgrwt>
<rscale>  0 0.60377343E+03</rscale>
<asrwt>0</asrwt>
<pdfrwt beam="1">  1        1 0.49388368E+00 0.60377343E+03</pdfrwt>
<pdfrwt beam="2">  1       -1 0.37658867E-02 0.60377343E+03</pdfrwt>
<totfact> 0.12960653E+02</totfact>
</mgrwt>
</event>
<event>
 4    1  0.6282309E-006  0.5781132E+03  0.7818608E-02  0.9951884E-01
         -1   -1    0    0    0  501 -0.00000000000E+00  0.00000000000E+00  0.12349117332E+03  0.12349117342E+03  0.50400000000E-02 0. -1.
          1   -1    0    0  501    0  0.00000000000E+00 -0.00000000000E+00 -0.67659662314E+03  0.67659662316E+03  0.50400000000E-02 0.  1.
    5000001    1    1    2    0    0  0.84694548002E+02  0.19177179263E+03 -0.27410659346E+03  0.39835287308E+03  0.19900000000E+03 0.  0.
   -5000001    1    1    2    0    0 -0.84694548002E+02 -0.19177179263E+03 -0.27899885637E+03  0.40173492350E+03  0.19900000000E+03 0.  0.
<mgrwt>
<rscale>  0 0.57811318E+03</rscale>
<asrwt>0</asrwt>
<pdfrwt beam="1">  1        1 0.96656658E-01 0.57811318E+03</pdfrwt>
<pdfrwt beam="2">  1       -1 0.17641597E-01 0.57811318E+03</pdfrwt>
<totfact> 0.81250745E+02</totfact>
</mgrwt>
</event>
<event>
 4    1  0.6282309E-006  0.6945405E+03  0.7818608E-02  0.9726614E-01
          1   -1    0    0  501    0  0.00000000000E+00  0.00000000000E+00  0.63559105087E+03  0.63559105089E+03  0.50400000000E-02 0.  1.
         -1   -1    0    0    0  501 -0.00000000000E+00 -0.00000000000E+00 -0.18973935849E+03  0.18973935856E+03  0.50400000000E-02 0. -1.
    5000001    1    1    2    0    0 -0.28429702248E+03  0.22332761729E+01  0.20762226979E+03  0.40439806061E+03  0.19900000000E+03 0.  0.
   -5000001    1    1    2    0    0  0.28429702248E+03 -0.22332761729E+01  0.23822942258E+03  0.42093234884E+03  0.19900000000E+03 0.  0.
<mgrwt>
<rscale>  0 0.69454053E+03</rscale>
<asrwt>0</asrwt>
<pdfrwt beam="1">  1        1 0.90798723E-01 0.69454053E+03</pdfrwt>
<pdfrwt beam="2">  1       -1 0.27105622E-01 0.69454053E+03</pdfrwt>
<totfact> 0.43116488E+02</totfact>
</mgrwt>
</event>
<event>
 4    1  0.6282309E-006  0.1239330E+04  0.7818608E-02  0.9079111E-01
          1   -1    0    0  501    0  0.00000000000E+00  0.00000000000E+00  0.26819721936E+03  0.26819721941E+03  0.50400000000E-02 0.  1.
         -1   -1    0    0    0  501 -0.00000000000E+00 -0.00000000000E+00 -0.14317257833E+04  0.14317257833E+04  0.50400000000E-02 0. -1.
    5000001    1    1    2    0    0  0.50740896961E+03  0.12991969750E+03 -0.94477379407E+03  0.10984268352E+04  0.19900000000E+03 0.  0.
   -5000001    1    1    2    0    0 -0.50740896961E+03 -0.12991969750E+03 -0.21875476986E+03  0.60149616754E+03  0.19900000000E+03 0.  0.
<mgrwt>
<rscale>  0 0.12393303E+04</rscale>
<asrwt>0</asrwt>
<pdfrwt beam="1">  1        1 0.38313889E-01 0.12393303E+04</pdfrwt>
<pdfrwt beam="2">  1       -1 0.20453225E+00 0.12393303E+04</pdfrwt>
<totfact> 0.15468568E+01</totfact>
</mgrwt>
</event>
<event>
 4    1  0.6282309E-006  0.4567822E+03  0.7818608E-02  0.1025719E+00
         -1   -1    0    0    0  501 -0.00000000000E+00  0.00000000000E+00  0.59968559906E+03  0.59968559908E+03  0.50400000000E-02 0. -1.
          1   -1    0    0  501    0  0.00000000000E+00 -0.00000000000E+00 -0.86983056115E+02  0.86983056261E+02  0.50400000000E-02 0.  1.
    5000001    1    1    2    0    0  0.10150577983E+03  0.36381643708E+02  0.30230423516E+03  0.37764520112E+03  0.19900000000E+03 0.  0.
   -5000001    1    1    2    0    0 -0.10150577983E+03 -0.36381643708E+02  0.21039830779E+03  0.30902345422E+03  0.19900000000E+03 0.  0.
<mgrwt>
<rscale>  0 0.45678216E+03</rscale>
<asrwt>0</asrwt>
<pdfrwt beam="1">  1        1 0.12426150E-01 0.45678216E+03</pdfrwt>
<pdfrwt beam="2">  1       -1 0.85669374E-01 0.45678216E+03</pdfrwt>
<totfact> 0.67736938E+02</totfact>
</mgrwt>
</event>
<event>
 4    1  0.6282309E-006  0.5793055E+03  0.7818608E-02  0.9949296E-01
          1   -1    0    0  501    0  0.00000000000E+00  0.00000000000E+00  0.56032422572E+03  0.56032422575E+03  0.50400000000E-02 0.  1.
         -1   -1    0    0    0  501 -0.00000000000E+00 -0.00000000000E+00 -0.14973242176E+03  0.14973242185E+03  0.50400000000E-02 0. -1.
    5000001    1    1    2    0    0  0.68949913126E+02 -0.16570533947E+03  0.34004164474E+03  0.43294534321E+03  0.19900000000E+03 0.  0.
   -5000001    1    1    2    0    0 -0.68949913126E+02  0.16570533947E+03  0.70550159215E+02  0.27711130438E+03  0.19900000000E+03 0.  0.
<mgrwt>
<rscale>  0 0.57930546E+03</rscale>
<asrwt>0</asrwt>
<pdfrwt beam="1">  1        1 0.80046317E-01 0.57930546E+03</pdfrwt>
<pdfrwt beam="2">  1       -1 0.21390346E-01 0.57930546E+03</pdfrwt>
<totfact> 0.77067905E+02</totfact>
</mgrwt>
</event>
<event>
 4    1  0.6282309E-006  0.5707369E+03  0.7818608E-02  0.9968049E-01
          1   -1    0    0  501    0  0.00000000000E+00  0.00000000000E+00  0.53251191912E+03  0.53251191914E+03  0.50400000000E-02 0.  1.
         -1   -1    0    0    0  501 -0.00000000000E+00 -0.00000000000E+00 -0.15292641943E+03  0.15292641952E+03  0.50400000000E-02 0. -1.
    5000001    1    1    2    0    0  0.16668866146E+03  0.11486475635E+03  0.15467345769E+03  0.32327063062E+03  0.19900000000E+03 0.  0.
   -5000001    1    1    2    0    0 -0.16668866146E+03 -0.11486475635E+03  0.22491204200E+03  0.36216770804E+03  0.19900000000E+03 0.  0.
<mgrwt>
<rscale>  0 0.57073686E+03</rscale>
<asrwt>0</asrwt>
<pdfrwt beam="1">  1        1 0.76073130E-01 0.57073686E+03</pdfrwt>
<pdfrwt beam="2">  1       -1 0.21846632E-01 0.57073686E+03</pdfrwt>
<totfact> 0.79778546E+02</totfact>
</mgrwt>
</event>
<event>
 4    1  0.6282309E-006  0.4811204E+03  0.7818608E-02  0.1018828E+00
         -1   -1    0    0    0  501 -0.00000000000E+00  0.00000000000E+00  0.19286625752E+03  0.19286625758E+03  0.50400000000E-02 0.  1.
          1   -1    0    0  501    0  0.00000000000E+00 -0.00000000000E+00 -0.30004837192E+03  0.30004837196E+03  0.50400000000E-02 0. -1.
    5000001    1    1    2    0    0 -0.83242948489E+02  0.10647686717E+03 -0.52338433181E+02  0.24618493720E+03  0.19900000000E+03 0.  0.
   -5000001    1    1    2    0    0  0.83242948489E+02 -0.10647686717E+03 -0.54843681221E+02  0.24672969235E+03  0.19900000000E+03 0.  0.
<mgrwt>
<rscale>  0 0.48112039E+03</rscale>
<asrwt>0</asrwt>
<pdfrwt beam="1">  1        1 0.42864053E-01 0.48112039E+03</pdfrwt>
<pdfrwt beam="2">  1       -1 0.27552323E-01 0.48112039E+03</pdfrwt>
<totfact> 0.11427668E+03</totfact>
</mgrwt>
</event>
<event>
 4    1  0.6282309E-006  0.4874713E+03  0.7818608E-02  0.1017102E+00
         -1   -1    0    0    0  501 -0.00000000000E+00  0.00000000000E+00  0.11822053395E+03  0.11822053405E+03  0.50400000000E-02 0.  1.
          1   -1    0    0  501    0  0.00000000000E+00 -0.00000000000E+00 -0.50251066532E+03  0.50251066534E+03  0.50400000000E-02 0. -1.
    5000001    1    1    2    0    0 -0.32149792099E+02  0.12527971500E+03 -0.26278510053E+03  0.35409832700E+03  0.19900000000E+03 0.  0.
   -5000001    1    1    2    0    0  0.32149792099E+02 -0.12527971500E+03 -0.12150503084E+03  0.26663287240E+03  0.19900000000E+03 0.  0.
<mgrwt>
<rscale>  0 0.48747135E+03</rscale>
<asrwt>0</asrwt>
<pdfrwt beam="1">  1        1 0.71787237E-01 0.48747135E+03</pdfrwt>
<pdfrwt beam="2">  1       -1 0.16888648E-01 0.48747135E+03</pdfrwt>
<totfact> 0.13198680E+03</totfact>
</mgrwt>
</event>
<event>
 4    1  0.6282309E-006  0.5708230E+03  0.7818608E-02  0.9967859E-01
         -1   -1    0    0    0  501 -0.00000000000E+00  0.00000000000E+00  0.10056171768E+03  0.10056171780E+03  0.50400000000E-02 0. -1.
          1   -1    0    0  501    0  0.00000000000E+00 -0.00000000000E+00 -0.81004706955E+03  0.81004706957E+03  0.50400000000E-02 0.  1.
    5000001    1    1    2    0    0 -0.38417302842E+02  0.15157283325E+03 -0.14426250119E+03  0.29131234472E+03  0.19900000000E+03 0.  0.
   -5000001    1    1    2    0    0  0.38417302842E+02 -0.15157283325E+03 -0.56522285069E+03  0.61929644265E+03  0.19900000000E+03 0.  0.
<mgrwt>
<rscale>  0 0.57082300E+03</rscale>
<asrwt>0</asrwt>
<pdfrwt beam="1">  1        1 0.11572101E+00 0.57082300E+03</pdfrwt>
<pdfrwt beam="2">  1       -1 0.14365960E-01 0.57082300E+03</pdfrwt>
<totfact> 0.86754822E+02</totfact>
</mgrwt>
</event>
<event>
 4    1  0.6282309E-006  0.7622233E+03  0.7818608E-02  0.9616367E-01
          1   -1    0    0  501    0  0.00000000000E+00  0.00000000000E+00  0.11021636793E+04  0.11021636793E+04  0.50400000000E-02 0.  1.
         -1   -1    0    0    0  501 -0.00000000000E+00 -0.00000000000E+00 -0.13178269490E+03  0.13178269500E+03  0.50400000000E-02 0. -1.
    5000001    1    1    2    0    0 -0.44168360507E+02 -0.32201534099E+03  0.48419774980E+03  0.61619249007E+03  0.19900000000E+03 0.  0.
   -5000001    1    1    2    0    0  0.44168360507E+02  0.32201534099E+03  0.48618323463E+03  0.61775388428E+03  0.19900000000E+03 0.  0.
<mgrwt>
<rscale>  0 0.76222333E+03</rscale>
<asrwt>0</asrwt>
<pdfrwt beam="1">  1        1 0.15745196E+00 0.76222333E+03</pdfrwt>
<pdfrwt beam="2">  1       -1 0.18826099E-01 0.76222333E+03</pdfrwt>
<totfact> 0.33148369E+02</totfact>
</mgrwt>
</event>
<event>
 4    1  0.6282309E-006  0.8646301E+03  0.7818608E-02  0.9470909E-01
          1   -1    0    0  501    0  0.00000000000E+00  0.00000000000E+00  0.15081468270E+04  0.15081468270E+04  0.50400000000E-02 0.  1.
         -1   -1    0    0    0  501 -0.00000000000E+00 -0.00000000000E+00 -0.12392447338E+03  0.12392447348E+03  0.50400000000E-02 0. -1.
    5000001    1    1    2    0    0  0.31925838392E+01 -0.35598483964E+03  0.96276820374E+03  0.10455902700E+04  0.19900000000E+03 0.  0.
   -5000001    1    1    2    0    0 -0.31925838392E+01  0.35598483964E+03  0.42145414993E+03  0.58648103050E+03  0.19900000000E+03 0.  0.
<mgrwt>
<rscale>  0 0.86463010E+03</rscale>
<asrwt>0</asrwt>
<pdfrwt beam="1">  1        1 0.21544954E+00 0.86463010E+03</pdfrwt>
<pdfrwt beam="2">  1       -1 0.17703497E-01 0.86463010E+03</pdfrwt>
<totfact> 0.19418907E+02</totfact>
</mgrwt>
</event>
<event>
 4    1  0.6282309E-006  0.8538270E+03  0.7818608E-02  0.9485215E-01
         -1   -1    0    0    0  501 -0.00000000000E+00  0.00000000000E+00  0.96668918750E+03  0.96668918751E+03  0.50400000000E-02 0. -1.
          1   -1    0    0  501    0  0.00000000000E+00 -0.00000000000E+00 -0.18853541603E+03  0.18853541609E+03  0.50400000000E-02 0.  1.
    5000001    1    1    2    0    0  0.80244849050E+02 -0.36645955535E+03  0.32975596697E+03  0.53765401446E+03  0.19900000000E+03 0.  0.
   -5000001    1    1    2    0    0 -0.80244849050E+02  0.36645955535E+03  0.44839780449E+03  0.61757058915E+03  0.19900000000E+03 0.  0.
<mgrwt>
<rscale>  0 0.85382703E+03</rscale>
<asrwt>0</asrwt>
<pdfrwt beam="1">  1        1 0.26933631E-01 0.85382703E+03</pdfrwt>
<pdfrwt beam="2">  1       -1 0.13809846E+00 0.85382703E+03</pdfrwt>
<totfact> 0.77740521E+01</totfact>
</mgrwt>
</event>
<event>
 4    1  0.6282309E-006  0.5288569E+03  0.7818608E-02  0.1006510E+00
          1   -1    0    0  501    0  0.00000000000E+00  0.00000000000E+00  0.53730712944E+03  0.53730712946E+03  0.50400000000E-02 0.  1.
         -1   -1    0    0    0  501 -0.00000000000E+00 -0.00000000000E+00 -0.13013489725E+03  0.13013489735E+03  0.50400000000E-02 0. -1.
    5000001    1    1    2    0    0 -0.63872756283E+02  0.15840949582E+03  0.24634902689E+03  0.35980847740E+03  0.19900000000E+03 0.  0.
   -5000001    1    1    2    0    0  0.63872756283E+02 -0.15840949582E+03  0.16082320530E+03  0.30763354941E+03  0.19900000000E+03 0.  0.
<mgrwt>
<rscale>  0 0.52885691E+03</rscale>
<asrwt>0</asrwt>
<pdfrwt beam="1">  1        1 0.76758163E-01 0.52885691E+03</pdfrwt>
<pdfrwt beam="2">  1       -1 0.18590699E-01 0.52885691E+03</pdfrwt>
<totfact> 0.10304137E+03</totfact>
</mgrwt>
</event>
<event>
 4    1  0.6282309E-006  0.7208139E+03  0.7818608E-02  0.9682285E-01
          1   -1    0    0  501    0  0.00000000000E+00  0.00000000000E+00  0.21026937323E+04  0.21026937323E+04  0.50400000000E-02 0.  1.
         -1   -1    0    0    0  501 -0.00000000000E+00 -0.00000000000E+00 -0.61774642418E+02  0.61774642623E+02  0.50400000000E-02 0. -1.
    5000001    1    1    2    0    0 -0.26027251281E+03 -0.39413362658E+02  0.14555768185E+04  0.14925146795E+04  0.19900000000E+03 0.  0.
   -5000001    1    1    2    0    0  0.26027251281E+03  0.39413362658E+02  0.58534227137E+03  0.67195369538E+03  0.19900000000E+03 0.  0.
<mgrwt>
<rscale>  0 0.72081386E+03</rscale>
<asrwt>0</asrwt>
<pdfrwt beam="1">  1        1 0.30038481E+00 0.72081386E+03</pdfrwt>
<pdfrwt beam="2">  1       -1 0.88249493E-02 0.72081386E+03</pdfrwt>
<totfact> 0.25423842E+02</totfact>
</mgrwt>
</event>
<event>
 4    1  0.6282309E-006  0.5061187E+03  0.7818608E-02  0.1012194E+00
         -1   -1    0    0    0  501 -0.00000000000E+00  0.00000000000E+00  0.74206001939E+02  0.74206002110E+02  0.50400000000E-02 0.  1.
          1   -1    0    0  501    0  0.00000000000E+00 -0.00000000000E+00 -0.86298980587E+03  0.86298980589E+03  0.50400000000E-02 0. -1.
    5000001    1    1    2    0    0 -0.11317658576E+03 -0.86393170996E+02 -0.27488270455E+03  0.36801388672E+03  0.19900000000E+03 0.  0.
   -5000001    1    1    2    0    0  0.11317658576E+03  0.86393170996E+02 -0.51390109938E+03  0.56918192127E+03  0.19900000000E+03 0.  0.
<mgrwt>
<rscale>  0 0.50611866E+03</rscale>
<asrwt>0</asrwt>
<pdfrwt beam="1">  1        1 0.12328425E+00 0.50611866E+03</pdfrwt>
<pdfrwt beam="2">  1       -1 0.10600858E-01 0.50611866E+03</pdfrwt>
<totfact> 0.12776103E+03</totfact>
</mgrwt>
</event>
<event>
 4    1  0.6282309E-006  0.5668361E+03  0.7818608E-02  0.9976704E-01
         -1   -1    0    0    0  501 -0.00000000000E+00  0.00000000000E+00  0.29335015899E+02  0.29335016332E+02  0.50400000000E-02 0. -1.
          1   -1    0    0  501    0  0.00000000000E+00 -0.00000000000E+00 -0.27382224114E+04  0.27382224114E+04  0.50400000000E-02 0.  1.
    5000001    1    1    2    0    0 -0.18970904776E+02 -0.19059115608E+03 -0.16647747333E+04  0.16875309765E+04  0.19900000000E+03 0.  0.
   -5000001    1    1    2    0    0  0.18970904776E+02  0.19059115608E+03 -0.10441126622E+04  0.10800264512E+04  0.19900000000E+03 0.  0.
<mgrwt>
<rscale>  0 0.56683613E+03</rscale>
<asrwt>0</asrwt>
<pdfrwt beam="1">  1        1 0.39117447E+00 0.56683613E+03</pdfrwt>
<pdfrwt beam="2">  1       -1 0.41907183E-02 0.56683613E+03</pdfrwt>
<totfact> 0.32682735E+02</totfact>
</mgrwt>
</event>
<event>
 4    1  0.6282309E-006  0.7813649E+03  0.7818608E-02  0.9587389E-01
          1   -1    0    0  501    0  0.00000000000E+00  0.00000000000E+00  0.10228995874E+04  0.10228995874E+04  0.50400000000E-02 0. -1.
         -1   -1    0    0    0  501 -0.00000000000E+00 -0.00000000000E+00 -0.14921578005E+03  0.14921578014E+03  0.50400000000E-02 0.  1.
    5000001    1    1    2    0    0  0.78472880608E+02 -0.98227512037E+02  0.90458322251E+03  0.93470767813E+03  0.19900000000E+03 0.  0.
   -5000001    1    1    2    0    0 -0.78472880608E+02  0.98227512037E+02 -0.30899415206E+02  0.23740768937E+03  0.19900000000E+03 0.  0.
<mgrwt>
<rscale>  0 0.78136486E+03</rscale>
<asrwt>0</asrwt>
<pdfrwt beam="1">  1        1 0.14612851E+00 0.78136486E+03</pdfrwt>
<pdfrwt beam="2">  1       -1 0.21316540E-01 0.78136486E+03</pdfrwt>
<totfact> 0.30726165E+02</totfact>
</mgrwt>
</event>
<event>
 4    1  0.6282309E-006  0.7495942E+03  0.7818608E-02  0.9635987E-01
          1   -1    0    0  501    0  0.00000000000E+00  0.00000000000E+00  0.94769804705E+03  0.94769804706E+03  0.50400000000E-02 0.  1.
         -1   -1    0    0    0  501 -0.00000000000E+00 -0.00000000000E+00 -0.14822534833E+03  0.14822534842E+03  0.50400000000E-02 0. -1.
    5000001    1    1    2    0    0 -0.70096647592E+02 -0.23546990592E+03  0.10546553765E+03  0.33329205846E+03  0.19900000000E+03 0.  0.
   -5000001    1    1    2    0    0  0.70096647592E+02  0.23546990592E+03  0.69400716107E+03  0.76263133703E+03  0.19900000000E+03 0.  0.
<mgrwt>
<rscale>  0 0.74959422E+03</rscale>
<asrwt>0</asrwt>
<pdfrwt beam="1">  1        1 0.13538543E+00 0.74959422E+03</pdfrwt>
<pdfrwt beam="2">  1       -1 0.21175050E-01 0.74959422E+03</pdfrwt>
<totfact> 0.35436988E+02</totfact>
</mgrwt>
</event>
<event>
 4    1  0.6282309E-006  0.5813670E+03  0.7818608E-02  0.9944836E-01
         -1   -1    0    0    0  501 -0.00000000000E+00  0.00000000000E+00  0.21775682854E+03  0.21775682860E+03  0.50400000000E-02 0. -1.
          1   -1    0    0  501    0  0.00000000000E+00 -0.00000000000E+00 -0.38803332978E+03  0.38803332981E+03  0.50400000000E-02 0.  1.
    5000001    1    1    2    0    0  0.51844254342E+02 -0.18936745208E+03 -0.16816001049E+03  0.32623097300E+03  0.19900000000E+03 0.  0.
   -5000001    1    1    2    0    0 -0.51844254342E+02  0.18936745208E+03 -0.21164907492E+01  0.27955918541E+03  0.19900000000E+03 0.  0.
<mgrwt>
<rscale>  0 0.58136703E+03</rscale>
<asrwt>0</asrwt>
<pdfrwt beam="1">  1        1 0.55433333E-01 0.58136703E+03</pdfrwt>
<pdfrwt beam="2">  1       -1 0.31108119E-01 0.58136703E+03</pdfrwt>
<totfact> 0.66460690E+02</totfact>
</mgrwt>
</event>
<event>
 4    1  0.6282309E-006  0.5004586E+03  0.7818608E-02  0.1013659E+00
         -1   -1    0    0    0  501 -0.00000000000E+00  0.00000000000E+00  0.40011961836E+02  0.40011962153E+02  0.50400000000E-02 0. -1.
          1   -1    0    0  501    0  0.00000000000E+00 -0.00000000000E+00 -0.15648996911E+04  0.15648996911E+04  0.50400000000E-02 0.  1.
    5000001    1    1    2    0    0 -0.96302037564E+02 -0.94543304592E+02 -0.98465065118E+03  0.10135829634E+04  0.19900000000E+03 0.  0.
   -5000001    1    1    2    0    0  0.96302037564E+02  0.94543304592E+02 -0.54023707807E+03  0.59132868982E+03  0.19900000000E+03 0.  0.
<mgrwt>
<rscale>  0 0.50045862E+03</rscale>
<asrwt>0</asrwt>
<pdfrwt beam="1">  1        1 0.22355706E+00 0.50045862E+03</pdfrwt>
<pdfrwt beam="2">  1       -1 0.57159956E-02 0.50045862E+03</pdfrwt>
<totfact> 0.10939322E+03</totfact>
</mgrwt>
</event>
<event>
 4    1  0.6282309E-006  0.6915733E+03  0.7818608E-02  0.9731752E-01
         -1   -1    0    0    0  501 -0.00000000000E+00  0.00000000000E+00  0.14804381694E+03  0.14804381702E+03  0.50400000000E-02 0. -1.
          1   -1    0    0  501    0  0.00000000000E+00 -0.00000000000E+00 -0.80765558570E+03  0.80765558572E+03  0.50400000000E-02 0.  1.
    5000001    1    1    2    0    0  0.23110574436E+03 -0.15257380924E+03 -0.40893557070E+03  0.53246402069E+03  0.19900000000E+03 0.  0.
   -5000001    1    1    2    0    0 -0.23110574436E+03  0.15257380924E+03 -0.25067619806E+03  0.42323538205E+03  0.19900000000E+03 0.  0.
<mgrwt>
<rscale>  0 0.69157332E+03</rscale>
<asrwt>0</asrwt>
<pdfrwt beam="1">  1        1 0.11537937E+00 0.69157332E+03</pdfrwt>
<pdfrwt beam="2">  1       -1 0.21149117E-01 0.69157332E+03</pdfrwt>
<totfact> 0.46016588E+02</totfact>
</mgrwt>
</event>
<event>
 4    1  0.6282309E-006  0.5676259E+03  0.7818608E-02  0.9974946E-01
          1   -1    0    0  501    0  0.00000000000E+00  0.00000000000E+00  0.10644878299E+04  0.10644878299E+04  0.50400000000E-02 0.  1.
         -1   -1    0    0    0  501 -0.00000000000E+00 -0.00000000000E+00 -0.75669991310E+02  0.75669991478E+02  0.50400000000E-02 0. -1.
    5000001    1    1    2    0    0  0.29799829945E+02 -0.18535800317E+03  0.34271758242E+03  0.43852247435E+03  0.19900000000E+03 0.  0.
   -5000001    1    1    2    0    0 -0.29799829945E+02  0.18535800317E+03  0.64610025618E+03  0.70163534706E+03  0.19900000000E+03 0.  0.
<mgrwt>
<rscale>  0 0.56762588E+03</rscale>
<asrwt>0</asrwt>
<pdfrwt beam="1">  1        1 0.15206969E+00 0.56762588E+03</pdfrwt>
<pdfrwt beam="2">  1       -1 0.10809999E-01 0.56762588E+03</pdfrwt>
<totfact> 0.87263755E+02</totfact>
</mgrwt>
</event>
<event>
 4    1  0.6282309E-006  0.9065902E+03  0.7818608E-02  0.9417381E-01
          1   -1    0    0  501    0  0.00000000000E+00  0.00000000000E+00  0.59492880367E+03  0.59492880369E+03  0.50400000000E-02 0. -1.
         -1   -1    0    0    0  501 -0.00000000000E+00 -0.00000000000E+00 -0.34537988107E+03  0.34537988110E+03  0.50400000000E-02 0.  1.
    5000001    1    1    2    0    0 -0.33127166965E+03 -0.16980504258E+03 -0.46600301663E+02  0.42467312102E+03  0.19900000000E+03 0.  0.
   -5000001    1    1    2    0    0  0.33127166965E+03  0.16980504258E+03  0.29614922427E+03  0.51563556378E+03  0.19900000000E+03 0.  0.
<mgrwt>
<rscale>  0 0.90659018E+03</rscale>
<asrwt>0</asrwt>
<pdfrwt beam="1">  1        1 0.84989828E-01 0.90659018E+03</pdfrwt>
<pdfrwt beam="2">  1       -1 0.49339983E-01 0.90659018E+03</pdfrwt>
<totfact> 0.15977801E+02</totfact>
</mgrwt>
</event>
<event>
 4    1  0.6282309E-006  0.7125891E+03  0.7818608E-02  0.9695942E-01
         -1   -1    0    0    0  501 -0.00000000000E+00  0.00000000000E+00  0.30849718488E+03  0.30849718492E+03  0.50400000000E-02 0. -1.
          1   -1    0    0  501    0  0.00000000000E+00 -0.00000000000E+00 -0.41149747394E+03  0.41149747397E+03  0.50400000000E-02 0.  1.
    5000001    1    1    2    0    0 -0.16372793763E+03  0.22307418479E+03 -0.15638590226E+03  0.37500197320E+03  0.19900000000E+03 0.  0.
   -5000001    1    1    2    0    0  0.16372793763E+03 -0.22307418479E+03  0.53385613204E+02  0.34499268569E+03  0.19900000000E+03 0.  0.
<mgrwt>
<rscale>  0 0.71258912E+03</rscale>
<asrwt>0</asrwt>
<pdfrwt beam="1">  1        1 0.58785353E-01 0.71258912E+03</pdfrwt>
<pdfrwt beam="2">  1       -1 0.44071027E-01 0.71258912E+03</pdfrwt>
<totfact> 0.32839287E+02</totfact>
</mgrwt>
</event>
<event>
 4    1  0.6282309E-006  0.5162886E+03  0.7818608E-02  0.1009613E+00
         -1   -1    0    0    0  501 -0.00000000000E+00  0.00000000000E+00  0.49808197402E+02  0.49808197657E+02  0.50400000000E-02 0.  1.
          1   -1    0    0  501    0  0.00000000000E+00 -0.00000000000E+00 -0.13379018589E+04  0.13379018589E+04  0.50400000000E-02 0. -1.
    5000001    1    1    2    0    0 -0.60976370358E+01  0.16290371993E+03 -0.58623121971E+03  0.64018969541E+03  0.19900000000E+03 0.  0.
   -5000001    1    1    2    0    0  0.60976370358E+01 -0.16290371993E+03 -0.70186244175E+03  0.74752036111E+03  0.19900000000E+03 0.  0.
<mgrwt>
<rscale>  0 0.51628860E+03</rscale>
<asrwt>0</asrwt>
<pdfrwt beam="1">  1        1 0.19112882E+00 0.51628860E+03</pdfrwt>
<pdfrwt beam="2">  1       -1 0.71154576E-02 0.51628860E+03</pdfrwt>
<totfact> 0.10926958E+03</totfact>
</mgrwt>
</event>
<event>
 4    1  0.6282309E-006  0.9497937E+03  0.7818608E-02  0.9365392E-01
         -1   -1    0    0    0  501 -0.00000000000E+00  0.00000000000E+00  0.50220038110E+03  0.50220038112E+03  0.50400000000E-02 0. -1.
          1   -1    0    0  501    0  0.00000000000E+00 -0.00000000000E+00 -0.44907771259E+03  0.44907771261E+03  0.50400000000E-02 0.  1.
    5000001    1    1    2    0    0  0.33106476292E+03  0.15117282680E+03 -0.20503348782E+03  0.46270598866E+03  0.19900000000E+03 0.  0.
   -5000001    1    1    2    0    0 -0.33106476292E+03 -0.15117282680E+03  0.25815615633E+03  0.48857210508E+03  0.19900000000E+03 0.  0.
<mgrwt>
<rscale>  0 0.94979366E+03</rscale>
<asrwt>0</asrwt>
<pdfrwt beam="1">  1        1 0.64153959E-01 0.94979366E+03</pdfrwt>
<pdfrwt beam="2">  1       -1 0.71742912E-01 0.94979366E+03</pdfrwt>
<totfact> 0.11193076E+02</totfact>
</mgrwt>
</event>
<event>
 4    1  0.6282309E-006  0.4489674E+03  0.7818608E-02  0.1028030E+00
         -1   -1    0    0    0  501 -0.00000000000E+00  0.00000000000E+00  0.10027628930E+03  0.10027628943E+03  0.50400000000E-02 0. -1.
          1   -1    0    0  501    0  0.00000000000E+00 -0.00000000000E+00 -0.50254092941E+03  0.50254092943E+03  0.50400000000E-02 0.  1.
    5000001    1    1    2    0    0 -0.62643511815E+02 -0.82292466233E+02 -0.18799878580E+03  0.29264449941E+03  0.19900000000E+03 0.  0.
   -5000001    1    1    2    0    0  0.62643511815E+02  0.82292466233E+02 -0.21426585430E+03  0.31017271945E+03  0.19900000000E+03 0.  0.
<mgrwt>
<rscale>  0 0.44896744E+03</rscale>
<asrwt>0</asrwt>
<pdfrwt beam="1">  1        1 0.71791560E-01 0.44896744E+03</pdfrwt>
<pdfrwt beam="2">  1       -1 0.14325184E-01 0.44896744E+03</pdfrwt>
<totfact> 0.17212085E+03</totfact>
</mgrwt>
</event>
<event>
 4    1  0.6282309E-006  0.5083471E+03  0.7818608E-02  0.1011623E+00
          1   -1    0    0  501    0  0.00000000000E+00  0.00000000000E+00  0.31003072955E+04  0.31003072955E+04  0.50400000000E-02 0. -1.
         -1   -1    0    0    0  501 -0.00000000000E+00 -0.00000000000E+00 -0.20837999027E+02  0.20837999637E+02  0.50400000000E-02 0.  1.
    5000001    1    1    2    0    0 -0.26252070073E+01  0.14326427102E+03  0.11291639846E+04  0.11554842479E+04  0.19900000000E+03 0.  0.
   -5000001    1    1    2    0    0  0.26252070073E+01 -0.14326427102E+03  0.19503053119E+04  0.19656610472E+04  0.19900000000E+03 0.  0.
<mgrwt>
<rscale>  0 0.50834713E+03</rscale>
<asrwt>0</asrwt>
<pdfrwt beam="1">  1        1 0.44290051E+00 0.50834713E+03</pdfrwt>
<pdfrwt beam="2">  1       -1 0.29768606E-02 0.50834713E+03</pdfrwt>
<totfact> 0.32306022E+02</totfact>
</mgrwt>
</event>
<event>
 4    1  0.6282309E-006  0.6933552E+03  0.7818608E-02  0.9728664E-01
          1   -1    0    0  501    0  0.00000000000E+00  0.00000000000E+00  0.12417880253E+04  0.12417880253E+04  0.50400000000E-02 0.  1.
         -1   -1    0    0    0  501 -0.00000000000E+00 -0.00000000000E+00 -0.96784125056E+02  0.96784125187E+02  0.50400000000E-02 0. -1.
    5000001    1    1    2    0    0 -0.24496673311E+03  0.54932150711E+02  0.82831640067E+03  0.88810770807E+03  0.19900000000E+03 0.  0.
   -5000001    1    1    2    0    0  0.24496673311E+03 -0.54932150711E+02  0.31668749961E+03  0.45046444246E+03  0.19900000000E+03 0.  0.
<mgrwt>
<rscale>  0 0.69335523E+03</rscale>
<asrwt>0</asrwt>
<pdfrwt beam="1">  1        1 0.17739828E+00 0.69335523E+03</pdfrwt>
<pdfrwt beam="2">  1       -1 0.13826304E-01 0.69335523E+03</pdfrwt>
<totfact> 0.44063633E+02</totfact>
</mgrwt>
</event>
<event>
 4    1  0.6282309E-006  0.6590263E+03  0.7818608E-02  0.9789988E-01
         -1   -1    0    0    0  501 -0.00000000000E+00  0.00000000000E+00  0.12276838322E+03  0.12276838332E+03  0.50400000000E-02 0. -1.
          1   -1    0    0  501    0  0.00000000000E+00 -0.00000000000E+00 -0.88442076510E+03  0.88442076511E+03  0.50400000000E-02 0.  1.
    5000001    1    1    2    0    0 -0.24542909226E+03 -0.83497061529E+02 -0.31651569044E+03  0.45496195545E+03  0.19900000000E+03 0.  0.
   -5000001    1    1    2    0    0  0.24542909226E+03  0.83497061529E+02 -0.44513669143E+03  0.55222719298E+03  0.19900000000E+03 0.  0.
<mgrwt>
<rscale>  0 0.65902627E+03</rscale>
<asrwt>0</asrwt>
<pdfrwt beam="1">  1        1 0.12634582E+00 0.65902627E+03</pdfrwt>
<pdfrwt beam="2">  1       -1 0.17538341E-01 0.65902627E+03</pdfrwt>
<totfact> 0.54451902E+02</totfact>
</mgrwt>
</event>
<event>
 4    1  0.6282309E-006  0.4501497E+03  0.7818608E-02  0.1027677E+00
         -1   -1    0    0    0  501 -0.00000000000E+00  0.00000000000E+00  0.63815571157E+02  0.63815571356E+02  0.50400000000E-02 0. -1.
          1   -1    0    0  501    0  0.00000000000E+00 -0.00000000000E+00 -0.79382962877E+03  0.79382962879E+03  0.50400000000E-02 0.  1.
    5000001    1    1    2    0    0  0.85782600218E+02 -0.60191321062E+02 -0.34839294606E+03  0.41468095507E+03  0.19900000000E+03 0.  0.
   -5000001    1    1    2    0    0 -0.85782600218E+02  0.60191321062E+02 -0.38162111156E+03  0.44296424508E+03  0.19900000000E+03 0.  0.
<mgrwt>
<rscale>  0 0.45014971E+03</rscale>
<asrwt>0</asrwt>
<pdfrwt beam="1">  1        1 0.11340423E+00 0.45014971E+03</pdfrwt>
<pdfrwt beam="2">  1       -1 0.91165107E-02 0.45014971E+03</pdfrwt>
<totfact> 0.18423177E+03</totfact>
</mgrwt>
</event>
<event>
 4    1  0.6282309E-006  0.5342234E+03  0.7818608E-02  0.1005213E+00
          1   -1    0    0  501    0  0.00000000000E+00  0.00000000000E+00  0.66825234810E+02  0.66825235000E+02  0.50400000000E-02 0. -1.
         -1   -1    0    0    0  501 -0.00000000000E+00 -0.00000000000E+00 -0.10676904674E+04  0.10676904674E+04  0.50400000000E-02 0.  1.
    5000001    1    1    2    0    0 -0.10692726386E+03  0.10552756136E+03 -0.70388622901E+03  0.74674381776E+03  0.19900000000E+03 0.  0.
   -5000001    1    1    2    0    0  0.10692726386E+03 -0.10552756136E+03 -0.29697900357E+03  0.38777188465E+03  0.19900000000E+03 0.  0.
<mgrwt>
<rscale>  0 0.53422342E+03</rscale>
<asrwt>0</asrwt>
<pdfrwt beam="1">  1        1 0.95464628E-02 0.53422342E+03</pdfrwt>
<pdfrwt beam="2">  1       -1 0.15252720E+00 0.53422342E+03</pdfrwt>
<totfact> 0.24443051E+02</totfact>
</mgrwt>
</event>
<event>
 4    1  0.6282309E-006  0.1035208E+04  0.7818608E-02  0.9270750E-01
         -1   -1    0    0    0  501 -0.00000000000E+00  0.00000000000E+00  0.30786677984E+03  0.30786677988E+03  0.50400000000E-02 0.  1.
          1   -1    0    0  501    0  0.00000000000E+00 -0.00000000000E+00 -0.87022679737E+03  0.87022679738E+03  0.50400000000E-02 0. -1.
    5000001    1    1    2    0    0 -0.20553833257E+03 -0.42736504518E+03 -0.34779131923E+03  0.62084353080E+03  0.19900000000E+03 0.  0.
   -5000001    1    1    2    0    0  0.20553833257E+03  0.42736504518E+03 -0.21456869830E+03  0.55725004647E+03  0.19900000000E+03 0.  0.
<mgrwt>
<rscale>  0 0.10352080E+04</rscale>
<asrwt>0</asrwt>
<pdfrwt beam="1">  1        1 0.12431811E+00 0.10352080E+04</pdfrwt>
<pdfrwt beam="2">  1       -1 0.43980969E-01 0.10352080E+04</pdfrwt>
<totfact> 0.11119284E+02</totfact>
</mgrwt>
</event>
<event>
 4    1  0.6282309E-006  0.4674095E+03  0.7818608E-02  0.1022654E+00
          1   -1    0    0  501    0  0.00000000000E+00  0.00000000000E+00  0.44574938132E+04  0.44574938132E+04  0.50400000000E-02 0. -1.
         -1   -1    0    0    0  501 -0.00000000000E+00 -0.00000000000E+00 -0.12253051168E+02  0.12253052204E+02  0.50400000000E-02 0.  1.
    5000001    1    1    2    0    0 -0.88558948709E+02  0.70057635960E+02  0.26778484351E+04  0.26876056261E+04  0.19900000000E+03 0.  0.
   -5000001    1    1    2    0    0  0.88558948709E+02 -0.70057635960E+02  0.17673923269E+04  0.17821412393E+04  0.19900000000E+03 0.  0.
<mgrwt>
<rscale>  0 0.46740947E+03</rscale>
<asrwt>0</asrwt>
<pdfrwt beam="1">  1        1 0.63678552E+00 0.46740947E+03</pdfrwt>
<pdfrwt beam="2">  1       -1 0.17504341E-02 0.46740947E+03</pdfrwt>
<totfact> 0.75434615E+01</totfact>
</mgrwt>
</event>
<event>
 4    1  0.6282309E-006  0.5532726E+03  0.7818608E-02  0.1000739E+00
          1   -1    0    0  501    0  0.00000000000E+00  0.00000000000E+00  0.82660079248E+03  0.82660079249E+03  0.50400000000E-02 0. -1.
         -1   -1    0    0    0  501 -0.00000000000E+00 -0.00000000000E+00 -0.92581133965E+02  0.92581134102E+02  0.50400000000E-02 0.  1.
    5000001    1    1    2    0    0  0.17444120598E+03 -0.18876113931E+02  0.23682283104E+03  0.35562915421E+03  0.19900000000E+03 0.  0.
   -5000001    1    1    2    0    0 -0.17444120598E+03  0.18876113931E+02  0.49719682747E+03  0.56355277239E+03  0.19900000000E+03 0.  0.
<mgrwt>
<rscale>  0 0.55327259E+03</rscale>
<asrwt>0</asrwt>
<pdfrwt beam="1">  1        1 0.11808583E+00 0.55327259E+03</pdfrwt>
<pdfrwt beam="2">  1       -1 0.13225876E-01 0.55327259E+03</pdfrwt>
<totfact> 0.96075401E+02</totfact>
</mgrwt>
</event>
<event>
 4    1  0.6282309E-006  0.4982704E+03  0.7818608E-02  0.1014231E+00
         -1   -1    0    0    0  501 -0.00000000000E+00  0.00000000000E+00  0.95275179698E+02  0.95275179832E+02  0.50400000000E-02 0. -1.
          1   -1    0    0  501    0  0.00000000000E+00 -0.00000000000E+00 -0.65146405460E+03  0.65146405462E+03  0.50400000000E-02 0.  1.
    5000001    1    1    2    0    0  0.14445233305E+03  0.39907489905E+02 -0.27378447229E+03  0.37015945421E+03  0.19900000000E+03 0.  0.
   -5000001    1    1    2    0    0 -0.14445233305E+03 -0.39907489905E+02 -0.28240440262E+03  0.37657978025E+03  0.19900000000E+03 0.  0.
<mgrwt>
<rscale>  0 0.49827043E+03</rscale>
<asrwt>0</asrwt>
<pdfrwt beam="1">  1        1 0.93066291E-01 0.49827043E+03</pdfrwt>
<pdfrwt beam="2">  1       -1 0.13610740E-01 0.49827043E+03</pdfrwt>
<totfact> 0.13074102E+03</totfact>
</mgrwt>
</event>
<event>
 4    1  0.6282309E-006  0.6110635E+03  0.7818608E-02  0.9882715E-01
          1   -1    0    0  501    0  0.00000000000E+00  0.00000000000E+00  0.47420918296E+03  0.47420918299E+03  0.50400000000E-02 0.  1.
         -1   -1    0    0    0  501 -0.00000000000E+00 -0.00000000000E+00 -0.19685331869E+03  0.19685331876E+03  0.50400000000E-02 0. -1.
    5000001    1    1    2    0    0 -0.18452462271E+03 -0.67150125033E+02  0.33280053286E+01  0.27958996995E+03  0.19900000000E+03 0.  0.
   -5000001    1    1    2    0    0  0.18452462271E+03  0.67150125033E+02  0.27402785894E+03  0.39147253180E+03  0.19900000000E+03 0.  0.
<mgrwt>
<rscale>  0 0.61106350E+03</rscale>
<asrwt>0</asrwt>
<pdfrwt beam="1">  1        1 0.67744170E-01 0.61106350E+03</pdfrwt>
<pdfrwt beam="2">  1       -1 0.28121902E-01 0.61106350E+03</pdfrwt>
<totfact> 0.60734454E+02</totfact>
</mgrwt>
</event>
<event>
 4    1  0.6282309E-006  0.5571307E+03  0.7818608E-02  0.9998568E-01
          1   -1    0    0  501    0  0.00000000000E+00  0.00000000000E+00  0.36182251962E+03  0.36182251966E+03  0.50400000000E-02 0.  1.
         -1   -1    0    0    0  501 -0.00000000000E+00 -0.00000000000E+00 -0.21446609910E+03  0.21446609916E+03  0.50400000000E-02 0. -1.
    5000001    1    1    2    0    0  0.12145022672E+02  0.18297451523E+03  0.14206118173E+03  0.30562976647E+03  0.19900000000E+03 0.  0.
   -5000001    1    1    2    0    0 -0.12145022672E+02 -0.18297451523E+03  0.52952387920E+01  0.27065885235E+03  0.19900000000E+03 0.  0.
<mgrwt>
<rscale>  0 0.55713074E+03</rscale>
<asrwt>0</asrwt>
<pdfrwt beam="1">  1        1 0.51688931E-01 0.55713074E+03</pdfrwt>
<pdfrwt beam="2">  1       -1 0.30638014E-01 0.55713074E+03</pdfrwt>
<totfact> 0.74766621E+02</totfact>
</mgrwt>
</event>
<event>
 4    1  0.6282309E-006  0.4755047E+03  0.7818608E-02  0.1020378E+00
         -1   -1    0    0    0  501 -0.00000000000E+00  0.00000000000E+00  0.10827479538E+03  0.10827479550E+03  0.50400000000E-02 0. -1.
          1   -1    0    0  501    0  0.00000000000E+00 -0.00000000000E+00 -0.52206217112E+03  0.52206217114E+03  0.50400000000E-02 0.  1.
    5000001    1    1    2    0    0  0.24560788077E+01 -0.85705939928E+02 -0.33659859319E+03  0.40031381865E+03  0.19900000000E+03 0.  0.
   -5000001    1    1    2    0    0 -0.24560788077E+01  0.85705939928E+02 -0.77188782550E+02  0.23002314800E+03  0.19900000000E+03 0.  0.
<mgrwt>
<rscale>  0 0.47550468E+03</rscale>
<asrwt>0</asrwt>
<pdfrwt beam="1">  1        1 0.74580309E-01 0.47550468E+03</pdfrwt>
<pdfrwt beam="2">  1       -1 0.15467828E-01 0.47550468E+03</pdfrwt>
<totfact> 0.14457609E+03</totfact>
</mgrwt>
</event>
<event>
 4    1  0.6282309E-006  0.1346907E+04  0.7818608E-02  0.8993173E-01
         -1   -1    0    0    0  501 -0.00000000000E+00  0.00000000000E+00  0.27639414863E+03  0.27639414868E+03  0.50400000000E-02 0. -1.
          1   -1    0    0  501    0  0.00000000000E+00 -0.00000000000E+00 -0.16409160491E+04  0.16409160491E+04  0.50400000000E-02 0.  1.
    5000001    1    1    2    0    0 -0.48715166007E+03 -0.40405768307E+03 -0.51773071763E+03  0.84156131514E+03  0.19900000000E+03 0.  0.
   -5000001    1    1    2    0    0  0.48715166007E+03  0.40405768307E+03 -0.84679118280E+03  0.10757488826E+04  0.19900000000E+03 0.  0.
<mgrwt>
<rscale>  0 0.13469070E+04</rscale>
<asrwt>0</asrwt>
<pdfrwt beam="1">  1        1 0.23441657E+00 0.13469070E+04</pdfrwt>
<pdfrwt beam="2">  1       -1 0.39484879E-01 0.13469070E+04</pdfrwt>
<totfact> 0.38495113E+01</totfact>
</mgrwt>
</event>
<event>
 4    1  0.6282309E-006  0.7950666E+03  0.7818608E-02  0.9567186E-01
         -1   -1    0    0    0  501 -0.00000000000E+00  0.00000000000E+00  0.42460298633E+03  0.42460298636E+03  0.50400000000E-02 0. -1.
          1   -1    0    0  501    0  0.00000000000E+00 -0.00000000000E+00 -0.37218935420E+03  0.37218935423E+03  0.50400000000E-02 0.  1.
    5000001    1    1    2    0    0  0.14129607687E+03 -0.30098067623E+03  0.11515623205E+03  0.40424733343E+03  0.19900000000E+03 0.  0.
   -5000001    1    1    2    0    0 -0.14129607687E+03  0.30098067623E+03 -0.62742599918E+02  0.39254500716E+03  0.19900000000E+03 0.  0.
<mgrwt>
<rscale>  0 0.79506657E+03</rscale>
<asrwt>0</asrwt>
<pdfrwt beam="1">  1        1 0.53169908E-01 0.79506657E+03</pdfrwt>
<pdfrwt beam="2">  1       -1 0.60657570E-01 0.79506657E+03</pdfrwt>
<totfact> 0.20296568E+02</totfact>
</mgrwt>
</event>
<event>
 4    1  0.6282309E-006  0.4287176E+03  0.7818608E-02  0.1034266E+00
         -1   -1    0    0    0  501 -0.00000000000E+00  0.00000000000E+00  0.11600811500E+03  0.11600811511E+03  0.50400000000E-02 0.  1.
          1   -1    0    0  501    0  0.00000000000E+00 -0.00000000000E+00 -0.39609036211E+03  0.39609036215E+03  0.50400000000E-02 0. -1.
    5000001    1    1    2    0    0 -0.59526505349E+02 -0.33140781420E+02 -0.18939217307E+03  0.28304083001E+03  0.19900000000E+03 0.  0.
   -5000001    1    1    2    0    0  0.59526505349E+02  0.33140781420E+02 -0.90690074046E+02  0.22905764725E+03  0.19900000000E+03 0.  0.
<mgrwt>
<rscale>  0 0.42871761E+03</rscale>
<asrwt>0</asrwt>
<pdfrwt beam="1">  1        1 0.56584337E-01 0.42871761E+03</pdfrwt>
<pdfrwt beam="2">  1       -1 0.16572588E-01 0.42871761E+03</pdfrwt>
<totfact> 0.18593690E+03</totfact>
</mgrwt>
</event>
<event>
 4    1  0.6282309E-006  0.6828850E+03  0.7818608E-02  0.9746957E-01
          1   -1    0    0  501    0  0.00000000000E+00  0.00000000000E+00  0.84353212958E+03  0.84353212960E+03  0.50400000000E-02 0. -1.
         -1   -1    0    0    0  501 -0.00000000000E+00 -0.00000000000E+00 -0.13820809755E+03  0.13820809765E+03  0.50400000000E-02 0.  1.
    5000001    1    1    2    0    0 -0.99719403796E+02 -0.24595858802E+03  0.23637879298E+03  0.40732728890E+03  0.19900000000E+03 0.  0.
   -5000001    1    1    2    0    0  0.99719403796E+02  0.24595858802E+03  0.46894523904E+03  0.57441293834E+03  0.19900000000E+03 0.  0.
<mgrwt>
<rscale>  0 0.68288497E+03</rscale>
<asrwt>0</asrwt>
<pdfrwt beam="1">  1        1 0.12050459E+00 0.68288497E+03</pdfrwt>
<pdfrwt beam="2">  1       -1 0.19744014E-01 0.68288497E+03</pdfrwt>
<totfact> 0.48234385E+02</totfact>
</mgrwt>
</event>
<event>
 4    1  0.6282309E-006  0.1035445E+04  0.7818608E-02  0.9270502E-01
          1   -1    0    0  501    0  0.00000000000E+00  0.00000000000E+00  0.53383907342E+03  0.53383907344E+03  0.50400000000E-02 0. -1.
         -1   -1    0    0    0  501 -0.00000000000E+00 -0.00000000000E+00 -0.50209200922E+03  0.50209200924E+03  0.50400000000E-02 0.  1.
    5000001    1    1    2    0    0  0.19819733032E+03 -0.14220033448E+03  0.42708031922E+03  0.53056735288E+03  0.19900000000E+03 0.  0.
   -5000001    1    1    2    0    0 -0.19819733032E+03  0.14220033448E+03 -0.39533325502E+03  0.50536372980E+03  0.19900000000E+03 0.  0.
<mgrwt>
<rscale>  0 0.10354445E+04</rscale>
<asrwt>0</asrwt>
<pdfrwt beam="1">  1        1 0.76262725E-01 0.10354445E+04</pdfrwt>
<pdfrwt beam="2">  1       -1 0.71727430E-01 0.10354445E+04</pdfrwt>
<totfact> 0.88125928E+01</totfact>
</mgrwt>
</event>
<event>
 4    1  0.6282309E-006  0.5261116E+03  0.7818608E-02  0.1007180E+00
         -1   -1    0    0    0  501 -0.00000000000E+00  0.00000000000E+00  0.63743883654E+02  0.63743883853E+02  0.50400000000E-02 0. -1.
          1   -1    0    0  501    0  0.00000000000E+00 -0.00000000000E+00 -0.10855687141E+04  0.10855687141E+04  0.50400000000E-02 0.  1.
    5000001    1    1    2    0    0  0.12210537585E+03 -0.10627249401E+03 -0.38364905583E+03  0.46150965736E+03  0.19900000000E+03 0.  0.
   -5000001    1    1    2    0    0 -0.12210537585E+03  0.10627249401E+03 -0.63817577457E+03  0.68780294056E+03  0.19900000000E+03 0.  0.
<mgrwt>
<rscale>  0 0.52611165E+03</rscale>
<asrwt>0</asrwt>
<pdfrwt beam="1">  1        1 0.15508123E+00 0.52611165E+03</pdfrwt>
<pdfrwt beam="2">  1       -1 0.91062698E-02 0.52611165E+03</pdfrwt>
<totfact> 0.11055044E+03</totfact>
</mgrwt>
</event>
<event>
 4    1  0.6282309E-006  0.5193642E+03  0.7818608E-02  0.1008845E+00
          1   -1    0    0  501    0  0.00000000000E+00  0.00000000000E+00  0.15639361218E+04  0.15639361218E+04  0.50400000000E-02 0. -1.
         -1   -1    0    0    0  501 -0.00000000000E+00 -0.00000000000E+00 -0.43118633204E+02  0.43118633499E+02  0.50400000000E-02 0.  1.
    5000001    1    1    2    0    0 -0.12612796095E+03 -0.99220924266E+02  0.61926327248E+03  0.66995600974E+03  0.19900000000E+03 0.  0.
   -5000001    1    1    2    0    0  0.12612796095E+03  0.99220924266E+02  0.90155421609E+03  0.93709874554E+03  0.19900000000E+03 0.  0.
<mgrwt>
<rscale>  0 0.51936418E+03</rscale>
<asrwt>0</asrwt>
<pdfrwt beam="1">  1        1 0.22341948E+00 0.51936418E+03</pdfrwt>
<pdfrwt beam="2">  1       -1 0.61598039E-02 0.51936418E+03</pdfrwt>
<totfact> 0.97594305E+02</totfact>
</mgrwt>
</event>
<event>
 4    1  0.6282309E-006  0.6587021E+03  0.7818608E-02  0.9790586E-01
          1   -1    0    0  501    0  0.00000000000E+00  0.00000000000E+00  0.38015891715E+03  0.38015891719E+03  0.50400000000E-02 0.  1.
         -1   -1    0    0    0  501 -0.00000000000E+00 -0.00000000000E+00 -0.28533362044E+03  0.28533362048E+03  0.50400000000E-02 0. -1.
    5000001    1    1    2    0    0  0.23793156525E+02  0.25397360893E+03  0.10971202601E+03  0.34162323835E+03  0.19900000000E+03 0.  0.
   -5000001    1    1    2    0    0 -0.23793156525E+02 -0.25397360893E+03 -0.14886729291E+02  0.32386929932E+03  0.19900000000E+03 0.  0.
<mgrwt>
<rscale>  0 0.65870212E+03</rscale>
<asrwt>0</asrwt>
<pdfrwt beam="1">  1        1 0.54308417E-01 0.65870212E+03</pdfrwt>
<pdfrwt beam="2">  1       -1 0.40761946E-01 0.65870212E+03</pdfrwt>
<totfact> 0.42116414E+02</totfact>
</mgrwt>
</event>
<event>
 4    1  0.6282309E-006  0.6769334E+03  0.7818608E-02  0.9757513E-01
          1   -1    0    0  501    0  0.00000000000E+00  0.00000000000E+00  0.52739891061E+03  0.52739891064E+03  0.50400000000E-02 0.  1.
         -1   -1    0    0    0  501 -0.00000000000E+00 -0.00000000000E+00 -0.21721645781E+03  0.21721645787E+03  0.50400000000E-02 0. -1.
    5000001    1    1    2    0    0  0.20521394271E+03 -0.93782076837E+02  0.32568042743E+03  0.44336957612E+03  0.19900000000E+03 0.  0.
   -5000001    1    1    2    0    0 -0.20521394271E+03  0.93782076837E+02 -0.15497974631E+02  0.30124579239E+03  0.19900000000E+03 0.  0.
<mgrwt>
<rscale>  0 0.67693345E+03</rscale>
<asrwt>0</asrwt>
<pdfrwt beam="1">  1        1 0.75342702E-01 0.67693345E+03</pdfrwt>
<pdfrwt beam="2">  1       -1 0.31030923E-01 0.67693345E+03</pdfrwt>
<totfact> 0.44272136E+02</totfact>
</mgrwt>
</event>
<event>
 4    1  0.6282309E-006  0.8076095E+03  0.7818608E-02  0.9549068E-01
         -1   -1    0    0    0  501 -0.00000000000E+00  0.00000000000E+00  0.11482940650E+04  0.11482940650E+04  0.50400000000E-02 0. -1.
          1   -1    0    0  501    0  0.00000000000E+00 -0.00000000000E+00 -0.14200044004E+03  0.14200044012E+03  0.50400000000E-02 0.  1.
    5000001    1    1    2    0    0 -0.26220300661E+02  0.34089280279E+03  0.37372699726E+03  0.54421344677E+03  0.19900000000E+03 0.  0.
   -5000001    1    1    2    0    0  0.26220300661E+02 -0.34089280279E+03  0.63256662766E+03  0.74608105832E+03  0.19900000000E+03 0.  0.
<mgrwt>
<rscale>  0 0.80760947E+03</rscale>
<asrwt>0</asrwt>
<pdfrwt beam="1">  1        1 0.20285776E-01 0.80760947E+03</pdfrwt>
<pdfrwt beam="2">  1       -1 0.16404202E+00 0.80760947E+03</pdfrwt>
<totfact> 0.71170695E+01</totfact>
</mgrwt>
</event>
<event>
 4    1  0.6282309E-006  0.1217120E+04  0.7818608E-02  0.9098002E-01
          1   -1    0    0  501    0  0.00000000000E+00  0.00000000000E+00  0.11953180090E+04  0.11953180090E+04  0.50400000000E-02 0.  1.
         -1   -1    0    0    0  501 -0.00000000000E+00 -0.00000000000E+00 -0.30982981406E+03  0.30982981410E+03  0.50400000000E-02 0. -1.
    5000001    1    1    2    0    0 -0.44789787880E+03  0.25172150923E+03  0.76228744138E+03  0.94056332660E+03  0.19900000000E+03 0.  0.
   -5000001    1    1    2    0    0  0.44789787880E+03 -0.25172150923E+03  0.12320075358E+03  0.56458449653E+03  0.19900000000E+03 0.  0.
<mgrwt>
<rscale>  0 0.12171198E+04</rscale>
<asrwt>0</asrwt>
<pdfrwt beam="1">  1        1 0.17075971E+00 0.12171198E+04</pdfrwt>
<pdfrwt beam="2">  1       -1 0.44261402E-01 0.12171198E+04</pdfrwt>
<totfact> 0.62243903E+01</totfact>
</mgrwt>
</event>
<event>
 4    1  0.6282309E-006  0.5553031E+03  0.7818608E-02  0.1000274E+00
          1   -1    0    0  501    0  0.00000000000E+00  0.00000000000E+00  0.21087970038E+03  0.21087970044E+03  0.50400000000E-02 0.  1.
         -1   -1    0    0    0  501 -0.00000000000E+00 -0.00000000000E+00 -0.36556574404E+03  0.36556574407E+03  0.50400000000E-02 0. -1.
    5000001    1    1    2    0    0 -0.16995904897E+03 -0.18232895872E+02 -0.17174995356E+03  0.31355631610E+03  0.19900000000E+03 0.  0.
   -5000001    1    1    2    0    0  0.16995904897E+03  0.18232895872E+02  0.17063909905E+02  0.26288912842E+03  0.19900000000E+03 0.  0.
<mgrwt>
<rscale>  0 0.55530314E+03</rscale>
<asrwt>0</asrwt>
<pdfrwt beam="1">  1        1 0.30125672E-01 0.55530314E+03</pdfrwt>
<pdfrwt beam="2">  1       -1 0.52223677E-01 0.55530314E+03</pdfrwt>
<totfact> 0.57005458E+02</totfact>
</mgrwt>
</event>
<event>
 4    1  0.6282309E-006  0.5310003E+03  0.7818608E-02  0.1005990E+00
          1   -1    0    0  501    0  0.00000000000E+00  0.00000000000E+00  0.25374249798E+04  0.25374249799E+04  0.50400000000E-02 0. -1.
         -1   -1    0    0    0  501 -0.00000000000E+00 -0.00000000000E+00 -0.27780266520E+02  0.27780266977E+02  0.50400000000E-02 0.  1.
    5000001    1    1    2    0    0  0.11790961530E+03  0.12456440120E+03  0.10695795195E+04  0.11013720152E+04  0.19900000000E+03 0.  0.
   -5000001    1    1    2    0    0 -0.11790961530E+03 -0.12456440120E+03  0.14400651939E+04  0.14638332316E+04  0.19900000000E+03 0.  0.
<mgrwt>
<rscale>  0 0.53100035E+03</rscale>
<asrwt>0</asrwt>
<pdfrwt beam="1">  1        1 0.36248906E+00 0.53100035E+03</pdfrwt>
<pdfrwt beam="2">  1       -1 0.39686120E-02 0.53100035E+03</pdfrwt>
<totfact> 0.47596323E+02</totfact>
</mgrwt>
</event>
<event>
 4    1  0.6282309E-006  0.5857888E+03  0.7818608E-02  0.9935336E-01
          1   -1    0    0  501    0  0.00000000000E+00  0.00000000000E+00  0.33018862506E+03  0.33018862510E+03  0.50400000000E-02 0.  1.
         -1   -1    0    0    0  501 -0.00000000000E+00 -0.00000000000E+00 -0.25981252531E+03  0.25981252535E+03  0.50400000000E-02 0. -1.
    5000001    1    1    2    0    0 -0.87938796870E+02  0.17320688884E+03 -0.57409343393E+02  0.28395543848E+03  0.19900000000E+03 0.  0.
   -5000001    1    1    2    0    0  0.87938796870E+02 -0.17320688884E+03  0.12778544315E+03  0.30604571197E+03  0.19900000000E+03 0.  0.
<mgrwt>
<rscale>  0 0.58578884E+03</rscale>
<asrwt>0</asrwt>
<pdfrwt beam="1">  1        1 0.47169804E-01 0.58578884E+03</pdfrwt>
<pdfrwt beam="2">  1       -1 0.37116075E-01 0.58578884E+03</pdfrwt>
<totfact> 0.59990384E+02</totfact>
</mgrwt>
</event>
<event>
 4    1  0.6282309E-006  0.1230179E+04  0.7818608E-02  0.9086843E-01
         -1   -1    0    0    0  501 -0.00000000000E+00  0.00000000000E+00  0.70430120368E+03  0.70430120370E+03  0.50400000000E-02 0. -1.
          1   -1    0    0  501    0  0.00000000000E+00 -0.00000000000E+00 -0.53717820104E+03  0.53717820106E+03  0.50400000000E-02 0.  1.
    5000001    1    1    2    0    0  0.61449042006E+02  0.28897942276E+03  0.58961474678E+03  0.68886257059E+03  0.19900000000E+03 0.  0.
   -5000001    1    1    2    0    0 -0.61449042006E+02 -0.28897942276E+03 -0.42249174414E+03  0.55261683417E+03  0.19900000000E+03 0.  0.
<mgrwt>
<rscale>  0 0.12301793E+04</rscale>
<asrwt>0</asrwt>
<pdfrwt beam="1">  1        1 0.76739743E-01 0.12301793E+04</pdfrwt>
<pdfrwt beam="2">  1       -1 0.10061446E+00 0.12301793E+04</pdfrwt>
<totfact> 0.41350446E+01</totfact>
</mgrwt>
</event>
<event>
 4    1  0.6282309E-006  0.5779008E+03  0.7818608E-02  0.9952346E-01
         -1   -1    0    0    0  501 -0.00000000000E+00  0.00000000000E+00  0.12340108378E+03  0.12340108388E+03  0.50400000000E-02 0.  1.
          1   -1    0    0  501    0  0.00000000000E+00 -0.00000000000E+00 -0.67659311347E+03  0.67659311349E+03  0.50400000000E-02 0. -1.
    5000001    1    1    2    0    0 -0.19883867678E+03 -0.65763194091E+02 -0.26905102024E+03  0.39477977224E+03  0.19900000000E+03 0.  0.
   -5000001    1    1    2    0    0  0.19883867678E+03  0.65763194091E+02 -0.28414100945E+03  0.40521442513E+03  0.19900000000E+03 0.  0.
<mgrwt>
<rscale>  0 0.57790076E+03</rscale>
<asrwt>0</asrwt>
<pdfrwt beam="1">  1        1 0.96656157E-01 0.57790076E+03</pdfrwt>
<pdfrwt beam="2">  1       -1 0.17628727E-01 0.57790076E+03</pdfrwt>
<totfact> 0.81348974E+02</totfact>
</mgrwt>
</event>
<event>
 4    1  0.6282309E-006  0.5315955E+03  0.7818608E-02  0.1005846E+00
         -1   -1    0    0    0  501 -0.00000000000E+00  0.00000000000E+00  0.46841625613E+02  0.46841625884E+02  0.50400000000E-02 0. -1.
          1   -1    0    0  501    0  0.00000000000E+00 -0.00000000000E+00 -0.15082406443E+04  0.15082406443E+04  0.50400000000E-02 0.  1.
    5000001    1    1    2    0    0 -0.33522827853E+02 -0.17265391623E+03 -0.76197285568E+03  0.80693047257E+03  0.19900000000E+03 0.  0.
   -5000001    1    1    2    0    0  0.33522827853E+02  0.17265391623E+03 -0.69942616302E+03  0.74815179763E+03  0.19900000000E+03 0.  0.
<mgrwt>
<rscale>  0 0.53159550E+03</rscale>
<asrwt>0</asrwt>
<pdfrwt beam="1">  1        1 0.21546292E+00 0.53159550E+03</pdfrwt>
<pdfrwt beam="2">  1       -1 0.66916617E-02 0.53159550E+03</pdfrwt>
<totfact> 0.93150320E+02</totfact>
</mgrwt>
</event>
<event>
 4    1  0.6282309E-006  0.5060095E+03  0.7818608E-02  0.1012222E+00
         -1   -1    0    0    0  501 -0.00000000000E+00  0.00000000000E+00  0.88640490190E+02  0.88640490333E+02  0.50400000000E-02 0. -1.
          1   -1    0    0  501    0  0.00000000000E+00 -0.00000000000E+00 -0.72214637735E+03  0.72214637737E+03  0.50400000000E-02 0.  1.
    5000001    1    1    2    0    0  0.10875238988E+03 -0.45136452070E+02 -0.15220499846E+03  0.27682439048E+03  0.19900000000E+03 0.  0.
   -5000001    1    1    2    0    0 -0.10875238988E+03  0.45136452070E+02 -0.48130088870E+03  0.53396247722E+03  0.19900000000E+03 0.  0.
<mgrwt>
<rscale>  0 0.50600952E+03</rscale>
<asrwt>0</asrwt>
<pdfrwt beam="1">  1        1 0.10316376E+00 0.50600952E+03</pdfrwt>
<pdfrwt beam="2">  1       -1 0.12662928E-01 0.50600952E+03</pdfrwt>
<totfact> 0.12639904E+03</totfact>
</mgrwt>
</event>
<event>
 4    1  0.6282309E-006  0.1303569E+04  0.7818608E-02  0.9026739E-01
         -1   -1    0    0    0  501 -0.00000000000E+00  0.00000000000E+00  0.43517690857E+03  0.43517690860E+03  0.50400000000E-02 0. -1.
          1   -1    0    0  501    0  0.00000000000E+00 -0.00000000000E+00 -0.97620827527E+03  0.97620827528E+03  0.50400000000E-02 0.  1.
    5000001    1    1    2    0    0  0.49039156243E+03 -0.34843425513E+03 -0.10513406538E+03  0.64229626057E+03  0.19900000000E+03 0.  0.
   -5000001    1    1    2    0    0 -0.49039156243E+03  0.34843425513E+03 -0.43589730132E+03  0.76908892330E+03  0.19900000000E+03 0.  0.
<mgrwt>
<rscale>  0 0.13035694E+04</rscale>
<asrwt>0</asrwt>
<pdfrwt beam="1">  1        1 0.13945832E+00 0.13035694E+04</pdfrwt>
<pdfrwt beam="2">  1       -1 0.62168130E-01 0.13035694E+04</pdfrwt>
<totfact> 0.46412299E+01</totfact>
</mgrwt>
</event>
<event>
 4    1  0.6282309E-006  0.8923965E+03  0.7818608E-02  0.9435136E-01
         -1   -1    0    0    0  501 -0.00000000000E+00  0.00000000000E+00  0.11326967291E+04  0.11326967291E+04  0.50400000000E-02 0. -1.
          1   -1    0    0  501    0  0.00000000000E+00 -0.00000000000E+00 -0.17576893611E+03  0.17576893618E+03  0.50400000000E-02 0.  1.
    5000001    1    1    2    0    0  0.30316698876E+02 -0.37139285729E+03  0.26781422095E+03  0.50017718222E+03  0.19900000000E+03 0.  0.
   -5000001    1    1    2    0    0 -0.30316698876E+02  0.37139285729E+03  0.68911357206E+03  0.80828848308E+03  0.19900000000E+03 0.  0.
<mgrwt>
<rscale>  0 0.89239655E+03</rscale>
<asrwt>0</asrwt>
<pdfrwt beam="1">  1        1 0.25109848E-01 0.89239655E+03</pdfrwt>
<pdfrwt beam="2">  1       -1 0.16181382E+00 0.89239655E+03</pdfrwt>
<totfact> 0.55509823E+01</totfact>
</mgrwt>
</event>
<event>
 4    1  0.6282309E-006  0.6154464E+03  0.7818608E-02  0.9873868E-01
         -1   -1    0    0    0  501 -0.00000000000E+00  0.00000000000E+00  0.21691586538E+03  0.21691586544E+03  0.50400000000E-02 0. -1.
          1   -1    0    0  501    0  0.00000000000E+00 -0.00000000000E+00 -0.43654520431E+03  0.43654520434E+03  0.50400000000E-02 0.  1.
    5000001    1    1    2    0    0  0.12487388098E+03 -0.16405012122E+03 -0.22893463879E+03  0.36676695225E+03  0.19900000000E+03 0.  0.
   -5000001    1    1    2    0    0 -0.12487388098E+03  0.16405012122E+03  0.93052998651E+01  0.28669411753E+03  0.19900000000E+03 0.  0.
<mgrwt>
<rscale>  0 0.61544644E+03</rscale>
<asrwt>0</asrwt>
<pdfrwt beam="1">  1        1 0.62363601E-01 0.61544644E+03</pdfrwt>
<pdfrwt beam="2">  1       -1 0.30987981E-01 0.61544644E+03</pdfrwt>
<totfact> 0.57289440E+02</totfact>
</mgrwt>
</event>
<event>
 4    1  0.6282309E-006  0.8291460E+03  0.7818608E-02  0.9518762E-01
          1   -1    0    0  501    0  0.00000000000E+00  0.00000000000E+00  0.37142357583E+03  0.37142357586E+03  0.50400000000E-02 0. -1.
         -1   -1    0    0    0  501 -0.00000000000E+00 -0.00000000000E+00 -0.46273519059E+03  0.46273519062E+03  0.50400000000E-02 0.  1.
    5000001    1    1    2    0    0 -0.15506467003E+03  0.32464493121E+03  0.78671109829E+01  0.41122046969E+03  0.19900000000E+03 0.  0.
   -5000001    1    1    2    0    0  0.15506467003E+03 -0.32464493121E+03 -0.99178725741E+02  0.42293829679E+03  0.19900000000E+03 0.  0.
<mgrwt>
<rscale>  0 0.82914597E+03</rscale>
<asrwt>0</asrwt>
<pdfrwt beam="1">  1        1 0.53060511E-01 0.82914597E+03</pdfrwt>
<pdfrwt beam="2">  1       -1 0.66105027E-01 0.82914597E+03</pdfrwt>
<totfact> 0.17111455E+02</totfact>
</mgrwt>
</event>
<event>
 4    1  0.6282309E-006  0.8424086E+03  0.7818608E-02  0.9500583E-01
          1   -1    0    0  501    0  0.00000000000E+00  0.00000000000E+00  0.12656888118E+03  0.12656888128E+03  0.50400000000E-02 0.  1.
         -1   -1    0    0    0  501 -0.00000000000E+00 -0.00000000000E+00 -0.14017114868E+04  0.14017114868E+04  0.50400000000E-02 0. -1.
    5000001    1    1    2    0    0 -0.33429422398E+03  0.10857973303E+03 -0.42085567451E+03  0.58332039684E+03  0.19900000000E+03 0.  0.
   -5000001    1    1    2    0    0  0.33429422398E+03 -0.10857973303E+03 -0.85428693114E+03  0.94495997129E+03  0.19900000000E+03 0.  0.
<mgrwt>
<rscale>  0 0.84240858E+03</rscale>
<asrwt>0</asrwt>
<pdfrwt beam="1">  1        1 0.18081270E-01 0.84240858E+03</pdfrwt>
<pdfrwt beam="2">  1       -1 0.20024449E+00 0.84240858E+03</pdfrwt>
<totfact> 0.45715194E+01</totfact>
</mgrwt>
</event>
<event>
 4    1  0.6282309E-006  0.7946347E+03  0.7818608E-02  0.9567816E-01
         -1   -1    0    0    0  501 -0.00000000000E+00  0.00000000000E+00  0.12004690147E+04  0.12004690148E+04  0.50400000000E-02 0. -1.
          1   -1    0    0  501    0  0.00000000000E+00 -0.00000000000E+00 -0.13149948664E+03  0.13149948673E+03  0.50400000000E-02 0.  1.
    5000001    1    1    2    0    0 -0.28939844810E+03  0.29404495664E+02  0.84193872422E+03  0.91273101266E+03  0.19900000000E+03 0.  0.
   -5000001    1    1    2    0    0  0.28939844810E+03 -0.29404495664E+02  0.22703080389E+03  0.41923748884E+03  0.19900000000E+03 0.  0.
<mgrwt>
<rscale>  0 0.79463466E+03</rscale>
<asrwt>0</asrwt>
<pdfrwt beam="1">  1        1 0.18785641E-01 0.79463466E+03</pdfrwt>
<pdfrwt beam="2">  1       -1 0.17149557E+00 0.79463466E+03</pdfrwt>
<totfact> 0.69521922E+01</totfact>
</mgrwt>
</event>
<event>
 4    1  0.6282309E-006  0.7817054E+03  0.7818608E-02  0.9586882E-01
         -1   -1    0    0    0  501 -0.00000000000E+00  0.00000000000E+00  0.33589951737E+03  0.33589951741E+03  0.50400000000E-02 0.  1.
          1   -1    0    0  501    0  0.00000000000E+00 -0.00000000000E+00 -0.45479617622E+03  0.45479617625E+03  0.50400000000E-02 0. -1.
    5000001    1    1    2    0    0  0.24080368180E+03 -0.12671645725E+03 -0.25951426990E+03  0.42543169838E+03  0.19900000000E+03 0.  0.
   -5000001    1    1    2    0    0 -0.24080368180E+03  0.12671645725E+03  0.14061761106E+03  0.36526399528E+03  0.19900000000E+03 0.  0.
<mgrwt>
<rscale>  0 0.78170536E+03</rscale>
<asrwt>0</asrwt>
<pdfrwt beam="1">  1        1 0.64970883E-01 0.78170536E+03</pdfrwt>
<pdfrwt beam="2">  1       -1 0.47985645E-01 0.78170536E+03</pdfrwt>
<totfact> 0.24473927E+02</totfact>
</mgrwt>
</event>
<event>
 4    1  0.6282309E-006  0.6270426E+03  0.7818608E-02  0.9850837E-01
         -1   -1    0    0    0  501 -0.00000000000E+00  0.00000000000E+00  0.21647602526E+03  0.21647602531E+03  0.50400000000E-02 0. -1.
          1   -1    0    0  501    0  0.00000000000E+00 -0.00000000000E+00 -0.45407149150E+03  0.45407149153E+03  0.50400000000E-02 0.  1.
    5000001    1    1    2    0    0  0.23957115643E+03 -0.11424179211E+02 -0.82223319946E+02  0.32231432671E+03  0.19900000000E+03 0.  0.
   -5000001    1    1    2    0    0 -0.23957115643E+03  0.11424179211E+02 -0.15537214630E+03  0.34823319013E+03  0.19900000000E+03 0.  0.
<mgrwt>
<rscale>  0 0.62704256E+03</rscale>
<asrwt>0</asrwt>
<pdfrwt beam="1">  1        1 0.64867356E-01 0.62704256E+03</pdfrwt>
<pdfrwt beam="2">  1       -1 0.30925147E-01 0.62704256E+03</pdfrwt>
<totfact> 0.54555581E+02</totfact>
</mgrwt>
</event>
<event>
 4    1  0.6282309E-006  0.6099427E+03  0.7818608E-02  0.9884990E-01
         -1   -1    0    0    0  501 -0.00000000000E+00  0.00000000000E+00  0.13707108952E+03  0.13707108962E+03  0.50400000000E-02 0. -1.
          1   -1    0    0  501    0  0.00000000000E+00 -0.00000000000E+00 -0.67853501035E+03  0.67853501037E+03  0.50400000000E-02 0.  1.
    5000001    1    1    2    0    0  0.11770769283E+03  0.16754365273E+03 -0.41400777294E+03  0.50292088103E+03  0.19900000000E+03 0.  0.
   -5000001    1    1    2    0    0 -0.11770769283E+03 -0.16754365273E+03 -0.12745614789E+03  0.31268521896E+03  0.19900000000E+03 0.  0.
<mgrwt>
<rscale>  0 0.60994273E+03</rscale>
<asrwt>0</asrwt>
<pdfrwt beam="1">  1        1 0.96933571E-01 0.60994273E+03</pdfrwt>
<pdfrwt beam="2">  1       -1 0.19581585E-01 0.60994273E+03</pdfrwt>
<totfact> 0.68081841E+02</totfact>
</mgrwt>
</event>
<event>
 4    1  0.6282309E-006  0.5558125E+03  0.7818608E-02  0.1000157E+00
          1   -1    0    0  501    0  0.00000000000E+00  0.00000000000E+00  0.70961839429E+02  0.70961839608E+02  0.50400000000E-02 0.  1.
         -1   -1    0    0    0  501 -0.00000000000E+00 -0.00000000000E+00 -0.10883580194E+04  0.10883580194E+04  0.50400000000E-02 0. -1.
    5000001    1    1    2    0    0 -0.17627406038E+03 -0.26632115609E+02 -0.66821931787E+03  0.71965260419E+03  0.19900000000E+03 0.  0.
   -5000001    1    1    2    0    0  0.17627406038E+03  0.26632115609E+02 -0.34917686213E+03  0.43966725485E+03  0.19900000000E+03 0.  0.
<mgrwt>
<rscale>  0 0.55581251E+03</rscale>
<asrwt>0</asrwt>
<pdfrwt beam="1">  1        1 0.10137406E-01 0.55581251E+03</pdfrwt>
<pdfrwt beam="2">  1       -1 0.15547971E+00 0.55581251E+03</pdfrwt>
<totfact> 0.21352102E+02</totfact>
</mgrwt>
</event>
<event>
 4    1  0.6282309E-006  0.4472610E+03  0.7818608E-02  0.1028542E+00
         -1   -1    0    0    0  501 -0.00000000000E+00  0.00000000000E+00  0.23049903701E+04  0.23049903701E+04  0.50400000000E-02 0. -1.
          1   -1    0    0  501    0  0.00000000000E+00 -0.00000000000E+00 -0.21696662921E+02  0.21696663506E+02  0.50400000000E-02 0.  1.
    5000001    1    1    2    0    0  0.68860519434E+02 -0.30636360594E+02  0.14993911462E+04  0.15144157841E+04  0.19900000000E+03 0.  0.
   -5000001    1    1    2    0    0 -0.68860519434E+02  0.30636360594E+02  0.78390256097E+03  0.81227124954E+03  0.19900000000E+03 0.  0.
<mgrwt>
<rscale>  0 0.44726100E+03</rscale>
<asrwt>0</asrwt>
<pdfrwt beam="1">  1        1 0.30995247E-02 0.44726100E+03</pdfrwt>
<pdfrwt beam="2">  1       -1 0.32928419E+00 0.44726100E+03</pdfrwt>
<totfact> 0.80541360E+01</totfact>
</mgrwt>
</event>
<event>
 4    1  0.6282309E-006  0.4995627E+03  0.7818608E-02  0.1013893E+00
         -1   -1    0    0    0  501 -0.00000000000E+00  0.00000000000E+00  0.31001641625E+02  0.31001642035E+02  0.50400000000E-02 0.  1.
          1   -1    0    0  501    0  0.00000000000E+00 -0.00000000000E+00 -0.20124972990E+04  0.20124972990E+04  0.50400000000E-02 0. -1.
    5000001    1    1    2    0    0 -0.10897365337E+03  0.10340482073E+03 -0.92981247784E+03  0.96266300335E+03  0.19900000000E+03 0.  0.
   -5000001    1    1    2    0    0  0.10897365337E+03 -0.10340482073E+03 -0.10516831796E+04  0.10808359377E+04  0.19900000000E+03 0.  0.
<mgrwt>
<rscale>  0 0.49956269E+03</rscale>
<asrwt>0</asrwt>
<pdfrwt beam="1">  1        1 0.28749953E+00 0.49956269E+03</pdfrwt>
<pdfrwt beam="2">  1       -1 0.44288072E-02 0.49956269E+03</pdfrwt>
<totfact> 0.85132835E+02</totfact>
</mgrwt>
</event>
<event>
 4    1  0.6282309E-006  0.9661153E+03  0.7818608E-02  0.9346510E-01
          1   -1    0    0  501    0  0.00000000000E+00  0.00000000000E+00  0.42068186781E+03  0.42068186784E+03  0.50400000000E-02 0.  1.
         -1   -1    0    0    0  501 -0.00000000000E+00 -0.00000000000E+00 -0.55468205725E+03  0.55468205728E+03  0.50400000000E-02 0. -1.
    5000001    1    1    2    0    0  0.90330579032E+02 -0.39930570426E+03  0.96223308652E+02  0.46525754598E+03  0.19900000000E+03 0.  0.
   -5000001    1    1    2    0    0 -0.90330579032E+02  0.39930570426E+03 -0.23022349810E+03  0.51010637914E+03  0.19900000000E+03 0.  0.
<mgrwt>
<rscale>  0 0.96611528E+03</rscale>
<asrwt>0</asrwt>
<pdfrwt beam="1">  1        1 0.60097409E-01 0.96611528E+03</pdfrwt>
<pdfrwt beam="2">  1       -1 0.79240294E-01 0.96611528E+03</pdfrwt>
<totfact> 0.99075906E+01</totfact>
</mgrwt>
</event>
<event>
 4    1  0.6282309E-006  0.7971067E+03  0.7818608E-02  0.9564215E-01
         -1   -1    0    0    0  501 -0.00000000000E+00  0.00000000000E+00  0.61074459359E+03  0.61074459361E+03  0.50400000000E-02 0. -1.
          1   -1    0    0  501    0  0.00000000000E+00 -0.00000000000E+00 -0.26008376695E+03  0.26008376700E+03  0.50400000000E-02 0.  1.
    5000001    1    1    2    0    0  0.19353072759E+03  0.24361964862E+03  0.33898140532E+03  0.50131234662E+03  0.19900000000E+03 0.  0.
   -5000001    1    1    2    0    0 -0.19353072759E+03 -0.24361964862E+03  0.11679421310E+02  0.36951601399E+03  0.19900000000E+03 0.  0.
<mgrwt>
<rscale>  0 0.79710665E+03</rscale>
<asrwt>0</asrwt>
<pdfrwt beam="1">  1        1 0.37154824E-01 0.79710665E+03</pdfrwt>
<pdfrwt beam="2">  1       -1 0.87249227E-01 0.79710665E+03</pdfrwt>
<totfact> 0.15219812E+02</totfact>
</mgrwt>
</event>
<event>
 4    1  0.6282309E-006  0.6401968E+03  0.7818608E-02  0.9825350E-01
         -1   -1    0    0    0  501 -0.00000000000E+00  0.00000000000E+00  0.11945233911E+03  0.11945233922E+03  0.50400000000E-02 0. -1.
          1   -1    0    0  501    0  0.00000000000E+00 -0.00000000000E+00 -0.85777304518E+03  0.85777304519E+03  0.50400000000E-02 0.  1.
    5000001    1    1    2    0    0  0.15033766929E+03  0.20045778795E+03 -0.38257720517E+03  0.49874949370E+03  0.19900000000E+03 0.  0.
   -5000001    1    1    2    0    0 -0.15033766929E+03 -0.20045778795E+03 -0.35574350090E+03  0.47847589071E+03  0.19900000000E+03 0.  0.
<mgrwt>
<rscale>  0 0.64019683E+03</rscale>
<asrwt>0</asrwt>
<pdfrwt beam="1">  1        1 0.12253900E+00 0.64019683E+03</pdfrwt>
<pdfrwt beam="2">  1       -1 0.17064620E-01 0.64019683E+03</pdfrwt>
<totfact> 0.59845334E+02</totfact>
</mgrwt>
</event>
<event>
 4    1  0.6282309E-006  0.1051733E+04  0.7818608E-02  0.9253556E-01
          1   -1    0    0  501    0  0.00000000000E+00  0.00000000000E+00  0.12868646506E+04  0.12868646506E+04  0.50400000000E-02 0.  1.
         -1   -1    0    0    0  501 -0.00000000000E+00 -0.00000000000E+00 -0.21489106563E+03  0.21489106569E+03  0.50400000000E-02 0. -1.
    5000001    1    1    2    0    0 -0.42223788704E+02  0.43665119482E+03  0.83715781284E+03  0.96585781452E+03  0.19900000000E+03 0.  0.
   -5000001    1    1    2    0    0  0.42223788704E+02 -0.43665119482E+03  0.23481577209E+03  0.53589790174E+03  0.19900000000E+03 0.  0.
<mgrwt>
<rscale>  0 0.10517333E+04</rscale>
<asrwt>0</asrwt>
<pdfrwt beam="1">  1        1 0.18383782E+00 0.10517333E+04</pdfrwt>
<pdfrwt beam="2">  1       -1 0.30698722E-01 0.10517333E+04</pdfrwt>
<totfact> 0.10540421E+02</totfact>
</mgrwt>
</event>
<event>
 4    1  0.6282309E-006  0.4151497E+03  0.7818608E-02  0.1038657E+00
          1   -1    0    0  501    0  0.00000000000E+00  0.00000000000E+00  0.68091795820E+03  0.68091795822E+03  0.50400000000E-02 0.  1.
         -1   -1    0    0    0  501 -0.00000000000E+00 -0.00000000000E+00 -0.63278269068E+02  0.63278269268E+02  0.50400000000E-02 0. -1.
    5000001    1    1    2    0    0  0.46368047990E+02  0.36089924699E+02  0.29839325656E+03  0.36344465067E+03  0.19900000000E+03 0.  0.
   -5000001    1    1    2    0    0 -0.46368047990E+02 -0.36089924699E+02  0.31924643257E+03  0.38075157682E+03  0.19900000000E+03 0.  0.
<mgrwt>
<rscale>  0 0.41514966E+03</rscale>
<asrwt>0</asrwt>
<pdfrwt beam="1">  1        1 0.97273993E-01 0.41514966E+03</pdfrwt>
<pdfrwt beam="2">  1       -1 0.90397529E-02 0.41514966E+03</pdfrwt>
<totfact> 0.23394383E+03</totfact>
</mgrwt>
</event>
<event>
 4    1  0.6282309E-006  0.7902776E+03  0.7818608E-02  0.9574198E-01
         -1   -1    0    0    0  501 -0.00000000000E+00  0.00000000000E+00  0.59957482900E+03  0.59957482902E+03  0.50400000000E-02 0. -1.
          1   -1    0    0  501    0  0.00000000000E+00 -0.00000000000E+00 -0.26040896531E+03  0.26040896536E+03  0.50400000000E-02 0.  1.
    5000001    1    1    2    0    0  0.30653739958E+03 -0.14747835909E+03  0.20071808636E+03  0.44227117692E+03  0.19900000000E+03 0.  0.
   -5000001    1    1    2    0    0 -0.30653739958E+03  0.14747835909E+03  0.13844777734E+03  0.41771261746E+03  0.19900000000E+03 0.  0.
<mgrwt>
<rscale>  0 0.79027757E+03</rscale>
<asrwt>0</asrwt>
<pdfrwt beam="1">  1        1 0.37201281E-01 0.79027757E+03</pdfrwt>
<pdfrwt beam="2">  1       -1 0.85653547E-01 0.79027757E+03</pdfrwt>
<totfact> 0.15822470E+02</totfact>
</mgrwt>
</event>
<event>
 4    1  0.6282309E-006  0.5198345E+03  0.7818608E-02  0.1008728E+00
         -1   -1    0    0    0  501 -0.00000000000E+00  0.00000000000E+00  0.31671428684E+03  0.31671428688E+03  0.50400000000E-02 0. -1.
          1   -1    0    0  501    0  0.00000000000E+00 -0.00000000000E+00 -0.21330573919E+03  0.21330573925E+03  0.50400000000E-02 0.  1.
    5000001    1    1    2    0    0  0.14531284534E+03  0.49840999798E+02 -0.15589124037E+02  0.25188086285E+03  0.19900000000E+03 0.  0.
   -5000001    1    1    2    0    0 -0.14531284534E+03 -0.49840999798E+02  0.11899767169E+03  0.27813916328E+03  0.19900000000E+03 0.  0.
<mgrwt>
<rscale>  0 0.51983449E+03</rscale>
<asrwt>0</asrwt>
<pdfrwt beam="1">  1        1 0.30472249E-01 0.51983449E+03</pdfrwt>
<pdfrwt beam="2">  1       -1 0.45244898E-01 0.51983449E+03</pdfrwt>
<totfact> 0.73504806E+02</totfact>
</mgrwt>
</event>
<event>
 4    1  0.6282309E-006  0.8576175E+03  0.7818608E-02  0.9480170E-01
         -1   -1    0    0    0  501 -0.00000000000E+00  0.00000000000E+00  0.25352077422E+03  0.25352077427E+03  0.50400000000E-02 0.  1.
          1   -1    0    0  501    0  0.00000000000E+00 -0.00000000000E+00 -0.72529332401E+03  0.72529332403E+03  0.50400000000E-02 0. -1.
    5000001    1    1    2    0    0 -0.64855526622E+02 -0.25794720806E+03  0.73604366361E+02  0.34023757027E+03  0.19900000000E+03 0.  0.
   -5000001    1    1    2    0    0  0.64855526622E+02  0.25794720806E+03 -0.54537691615E+03  0.63857652803E+03  0.19900000000E+03 0.  0.
<mgrwt>
<rscale>  0 0.85761746E+03</rscale>
<asrwt>0</asrwt>
<pdfrwt beam="1">  1        1 0.10361333E+00 0.85761746E+03</pdfrwt>
<pdfrwt beam="2">  1       -1 0.36217254E-01 0.85761746E+03</pdfrwt>
<totfact> 0.21230430E+02</totfact>
</mgrwt>
</event>
<event>
 4    1  0.6282309E-006  0.1241737E+04  0.7818608E-02  0.9077088E-01
          1   -1    0    0  501    0  0.00000000000E+00  0.00000000000E+00  0.57331471426E+03  0.57331471429E+03  0.50400000000E-02 0.  1.
         -1   -1    0    0    0  501 -0.00000000000E+00 -0.00000000000E+00 -0.67236708464E+03  0.67236708466E+03  0.50400000000E-02 0. -1.
    5000001    1    1    2    0    0  0.51187317907E+03 -0.94707496142E+02 -0.32406186013E+03  0.64467104051E+03  0.19900000000E+03 0.  0.
   -5000001    1    1    2    0    0 -0.51187317907E+03  0.94707496142E+02  0.22500948976E+03  0.60101075844E+03  0.19900000000E+03 0.  0.
<mgrwt>
<rscale>  0 0.12417374E+04</rscale>
<asrwt>0</asrwt>
<pdfrwt beam="1">  1        1 0.81902103E-01 0.12417374E+04</pdfrwt>
<pdfrwt beam="2">  1       -1 0.96052440E-01 0.12417374E+04</pdfrwt>
<totfact> 0.41941648E+01</totfact>
</mgrwt>
</event>
<event>
 4    1  0.6282309E-006  0.9112780E+03  0.7818608E-02  0.9411592E-01
         -1   -1    0    0    0  501 -0.00000000000E+00  0.00000000000E+00  0.58129596310E+03  0.58129596313E+03  0.50400000000E-02 0.  1.
          1   -1    0    0  501    0  0.00000000000E+00 -0.00000000000E+00 -0.35714489939E+03  0.35714489942E+03  0.50400000000E-02 0. -1.
    5000001    1    1    2    0    0 -0.25387781359E+02  0.33385045205E+03 -0.13141508658E+03  0.41106153889E+03  0.19900000000E+03 0.  0.
   -5000001    1    1    2    0    0  0.25387781359E+02 -0.33385045205E+03  0.35556615030E+03  0.52737932365E+03  0.19900000000E+03 0.  0.
<mgrwt>
<rscale>  0 0.91127798E+03</rscale>
<asrwt>0</asrwt>
<pdfrwt beam="1">  1        1 0.51020700E-01 0.91127798E+03</pdfrwt>
<pdfrwt beam="2">  1       -1 0.83042280E-01 0.91127798E+03</pdfrwt>
<totfact> 0.11154246E+02</totfact>
</mgrwt>
</event>
<event>
 4    1  0.6282309E-006  0.5872594E+03  0.7818608E-02  0.9932197E-01
         -1   -1    0    0    0  501 -0.00000000000E+00  0.00000000000E+00  0.17698065656E+03  0.17698065663E+03  0.50400000000E-02 0. -1.
          1   -1    0    0  501    0  0.00000000000E+00 -0.00000000000E+00 -0.48716277880E+03  0.48716277883E+03  0.50400000000E-02 0.  1.
    5000001    1    1    2    0    0 -0.14399683337E+03  0.37002838167E+02 -0.33215534680E+03  0.41476797425E+03  0.19900000000E+03 0.  0.
   -5000001    1    1    2    0    0  0.14399683337E+03 -0.37002838167E+02  0.21973224556E+02  0.24937546121E+03  0.19900000000E+03 0.  0.
<mgrwt>
<rscale>  0 0.58725936E+03</rscale>
<asrwt>0</asrwt>
<pdfrwt beam="1">  1        1 0.69594682E-01 0.58725936E+03</pdfrwt>
<pdfrwt beam="2">  1       -1 0.25282951E-01 0.58725936E+03</pdfrwt>
<totfact> 0.70314561E+02</totfact>
</mgrwt>
</event>
<event>
 4    1  0.6282309E-006  0.7507447E+03  0.7818608E-02  0.9634183E-01
         -1   -1    0    0    0  501 -0.00000000000E+00  0.00000000000E+00  0.33238204667E+03  0.33238204670E+03  0.50400000000E-02 0. -1.
          1   -1    0    0  501    0  0.00000000000E+00 -0.00000000000E+00 -0.42392304256E+03  0.42392304259E+03  0.50400000000E-02 0.  1.
    5000001    1    1    2    0    0  0.29419323667E+03  0.11381470358E+03 -0.30303207465E+01  0.37297939635E+03  0.19900000000E+03 0.  0.
   -5000001    1    1    2    0    0 -0.29419323667E+03 -0.11381470358E+03 -0.88510675143E+02  0.38332569294E+03  0.19900000000E+03 0.  0.
<mgrwt>
<rscale>  0 0.75074472E+03</rscale>
<asrwt>0</asrwt>
<pdfrwt beam="1">  1        1 0.60560435E-01 0.75074472E+03</pdfrwt>
<pdfrwt beam="2">  1       -1 0.47483150E-01 0.75074472E+03</pdfrwt>
<totfact> 0.27442580E+02</totfact>
</mgrwt>
</event>
<event>
 4    1  0.6282309E-006  0.5603195E+03  0.7818608E-02  0.9991332E-01
          1   -1    0    0  501    0  0.00000000000E+00  0.00000000000E+00  0.40068037095E+03  0.40068037098E+03  0.50400000000E-02 0.  1.
         -1   -1    0    0    0  501 -0.00000000000E+00 -0.00000000000E+00 -0.19589052190E+03  0.19589052196E+03  0.50400000000E-02 0. -1.
    5000001    1    1    2    0    0 -0.80192049786E+02 -0.38020879811E+02 -0.85101137636E+02  0.23392211477E+03  0.19900000000E+03 0.  0.
   -5000001    1    1    2    0    0  0.80192049786E+02  0.38020879811E+02  0.28989098669E+03  0.36264877818E+03  0.19900000000E+03 0.  0.
<mgrwt>
<rscale>  0 0.56031951E+03</rscale>
<asrwt>0</asrwt>
<pdfrwt beam="1">  1        1 0.57240052E-01 0.56031951E+03</pdfrwt>
<pdfrwt beam="2">  1       -1 0.27984361E-01 0.56031951E+03</pdfrwt>
<totfact> 0.76570654E+02</totfact>
</mgrwt>
</event>
<event>
 4    1  0.6282309E-006  0.6457077E+03  0.7818608E-02  0.9814867E-01
          1   -1    0    0  501    0  0.00000000000E+00  0.00000000000E+00  0.43130707893E+03  0.43130707896E+03  0.50400000000E-02 0.  1.
         -1   -1    0    0    0  501 -0.00000000000E+00 -0.00000000000E+00 -0.24167145649E+03  0.24167145655E+03  0.50400000000E-02 0. -1.
    5000001    1    1    2    0    0  0.70538496657E+02 -0.18972770804E+03 -0.65501115059E+02  0.29131371197E+03  0.19900000000E+03 0.  0.
   -5000001    1    1    2    0    0 -0.70538496657E+02  0.18972770804E+03  0.25513673749E+03  0.38166482354E+03  0.19900000000E+03 0.  0.
<mgrwt>
<rscale>  0 0.64570770E+03</rscale>
<asrwt>0</asrwt>
<pdfrwt beam="1">  1        1 0.61615297E-01 0.64570770E+03</pdfrwt>
<pdfrwt beam="2">  1       -1 0.34524494E-01 0.64570770E+03</pdfrwt>
<totfact> 0.48099843E+02</totfact>
</mgrwt>
</event>
<event>
 4    1  0.6282309E-006  0.7220225E+03  0.7818608E-02  0.9680295E-01
          1   -1    0    0  501    0  0.00000000000E+00  0.00000000000E+00  0.14038909027E+04  0.14038909027E+04  0.50400000000E-02 0.  1.
         -1   -1    0    0    0  501 -0.00000000000E+00 -0.00000000000E+00 -0.92834233016E+02  0.92834233152E+02  0.50400000000E-02 0. -1.
    5000001    1    1    2    0    0  0.49344218415E+02 -0.25854705067E+03  0.95910724586E+03  0.10142825732E+04  0.19900000000E+03 0.  0.
   -5000001    1    1    2    0    0 -0.49344218415E+02  0.25854705067E+03  0.35194942382E+03  0.48244256262E+03  0.19900000000E+03 0.  0.
<mgrwt>
<rscale>  0 0.72202254E+03</rscale>
<asrwt>0</asrwt>
<pdfrwt beam="1">  1        1 0.20055585E+00 0.72202254E+03</pdfrwt>
<pdfrwt beam="2">  1       -1 0.13262033E-01 0.72202254E+03</pdfrwt>
<totfact> 0.36687474E+02</totfact>
</mgrwt>
</event>
<event>
 4    1  0.6282309E-006  0.5854022E+03  0.7818608E-02  0.9936163E-01
          1   -1    0    0  501    0  0.00000000000E+00  0.00000000000E+00  0.78102115499E+02  0.78102115662E+02  0.50400000000E-02 0.  1.
         -1   -1    0    0    0  501 -0.00000000000E+00 -0.00000000000E+00 -0.10969476951E+04  0.10969476951E+04  0.50400000000E-02 0. -1.
    5000001    1    1    2    0    0  0.19857454994E+03  0.71420898648E+02 -0.43064897338E+03  0.51922281818E+03  0.19900000000E+03 0.  0.
   -5000001    1    1    2    0    0 -0.19857454994E+03 -0.71420898648E+02 -0.58819660623E+03  0.65582699260E+03  0.19900000000E+03 0.  0.
<mgrwt>
<rscale>  0 0.58540221E+03</rscale>
<asrwt>0</asrwt>
<pdfrwt beam="1">  1        1 0.11157446E-01 0.58540221E+03</pdfrwt>
<pdfrwt beam="2">  1       -1 0.15670680E+00 0.58540221E+03</pdfrwt>
<totfact> 0.18302792E+02</totfact>
</mgrwt>
</event>
<event>
 4    1  0.6282309E-006  0.4934982E+03  0.7818608E-02  0.1015490E+00
          1   -1    0    0  501    0  0.00000000000E+00  0.00000000000E+00  0.34268379187E+03  0.34268379190E+03  0.50400000000E-02 0.  1.
         -1   -1    0    0    0  501 -0.00000000000E+00 -0.00000000000E+00 -0.17767144638E+03  0.17767144645E+03  0.50400000000E-02 0. -1.
    5000001    1    1    2    0    0  0.23810622855E+02  0.14379245397E+03  0.75762043351E+02  0.25803895596E+03  0.19900000000E+03 0.  0.
   -5000001    1    1    2    0    0 -0.23810622855E+02 -0.14379245397E+03  0.89250302133E+02  0.26231628240E+03  0.19900000000E+03 0.  0.
<mgrwt>
<rscale>  0 0.49349823E+03</rscale>
<asrwt>0</asrwt>
<pdfrwt beam="1">  1        1 0.48954827E-01 0.49349823E+03</pdfrwt>
<pdfrwt beam="2">  1       -1 0.25381636E-01 0.49349823E+03</pdfrwt>
<totfact> 0.11080840E+03</totfact>
</mgrwt>
</event>
<event>
 4    1  0.6282309E-006  0.5153832E+03  0.7818608E-02  0.1009840E+00
         -1   -1    0    0    0  501 -0.00000000000E+00  0.00000000000E+00  0.77853036292E+02  0.77853036455E+02  0.50400000000E-02 0. -1.
          1   -1    0    0  501    0  0.00000000000E+00 -0.00000000000E+00 -0.85295261240E+03  0.85295261242E+03  0.50400000000E-02 0.  1.
    5000001    1    1    2    0    0  0.13526070359E+03 -0.71132803584E+02 -0.28148987345E+03  0.37708471533E+03  0.19900000000E+03 0.  0.
   -5000001    1    1    2    0    0 -0.13526070359E+03  0.71132803584E+02 -0.49360970266E+03  0.55372093354E+03  0.19900000000E+03 0.  0.
<mgrwt>
<rscale>  0 0.51538316E+03</rscale>
<asrwt>0</asrwt>
<pdfrwt beam="1">  1        1 0.12185037E+00 0.51538316E+03</pdfrwt>
<pdfrwt beam="2">  1       -1 0.11121863E-01 0.51538316E+03</pdfrwt>
<totfact> 0.12062098E+03</totfact>
</mgrwt>
</event>
<event>
 4    1  0.6282309E-006  0.7891766E+03  0.7818608E-02  0.9575817E-01
          1   -1    0    0  501    0  0.00000000000E+00  0.00000000000E+00  0.48552408833E+03  0.48552408836E+03  0.50400000000E-02 0.  1.
         -1   -1    0    0    0  501 -0.00000000000E+00 -0.00000000000E+00 -0.32068423001E+03  0.32068423005E+03  0.50400000000E-02 0. -1.
    5000001    1    1    2    0    0  0.94306771805E+02 -0.27584742263E+03  0.26261648194E+03  0.43994770640E+03  0.19900000000E+03 0.  0.
   -5000001    1    1    2    0    0 -0.94306771805E+02  0.27584742263E+03 -0.97776623624E+02  0.36626061201E+03  0.19900000000E+03 0.  0.
<mgrwt>
<rscale>  0 0.78917658E+03</rscale>
<asrwt>0</asrwt>
<pdfrwt beam="1">  1        1 0.69360584E-01 0.78917658E+03</pdfrwt>
<pdfrwt beam="2">  1       -1 0.45812033E-01 0.78917658E+03</pdfrwt>
<totfact> 0.24441510E+02</totfact>
</mgrwt>
</event>
<event>
 4    1  0.6282309E-006  0.4833542E+03  0.7818608E-02  0.1018217E+00
         -1   -1    0    0    0  501 -0.00000000000E+00  0.00000000000E+00  0.18935532315E+03  0.18935532322E+03  0.50400000000E-02 0.  1.
          1   -1    0    0  501    0  0.00000000000E+00 -0.00000000000E+00 -0.30845612772E+03  0.30845612776E+03  0.50400000000E-02 0. -1.
    5000001    1    1    2    0    0 -0.97799394955E+02 -0.84921933754E+02 -0.13143216555E+02  0.23780286085E+03  0.19900000000E+03 0.  0.
   -5000001    1    1    2    0    0  0.97799394955E+02  0.84921933754E+02 -0.10595758802E+03  0.26000859014E+03  0.19900000000E+03 0.  0.
<mgrwt>
<rscale>  0 0.48335415E+03</rscale>
<asrwt>0</asrwt>
<pdfrwt beam="1">  1        1 0.44065161E-01 0.48335415E+03</pdfrwt>
<pdfrwt beam="2">  1       -1 0.27050760E-01 0.48335415E+03</pdfrwt>
<totfact> 0.11382001E+03</totfact>
</mgrwt>
</event>
<event>
 4    1  0.6282309E-006  0.6226724E+03  0.7818608E-02  0.9859453E-01
         -1   -1    0    0    0  501 -0.00000000000E+00  0.00000000000E+00  0.98488302991E+02  0.98488303120E+02  0.50400000000E-02 0.  1.
          1   -1    0    0  501    0  0.00000000000E+00 -0.00000000000E+00 -0.98418023892E+03  0.98418023893E+03  0.50400000000E-02 0. -1.
    5000001    1    1    2    0    0  0.23788790874E+03 -0.20401510528E+02 -0.47406420650E+03  0.56687278171E+03  0.19900000000E+03 0.  0.
   -5000001    1    1    2    0    0 -0.23788790874E+03  0.20401510528E+02 -0.41162772942E+03  0.51579576034E+03  0.19900000000E+03 0.  0.
<mgrwt>
<rscale>  0 0.62267244E+03</rscale>
<asrwt>0</asrwt>
<pdfrwt beam="1">  1        1 0.14059717E+00 0.62267244E+03</pdfrwt>
<pdfrwt beam="2">  1       -1 0.14069758E-01 0.62267244E+03</pdfrwt>
<totfact> 0.65445564E+02</totfact>
</mgrwt>
</event>
<event>
 4    1  0.6282309E-006  0.5784044E+03  0.7818608E-02  0.9951251E-01
          1   -1    0    0  501    0  0.00000000000E+00  0.00000000000E+00  0.31778167943E+03  0.31778167947E+03  0.50400000000E-02 0.  1.
         -1   -1    0    0    0  501 -0.00000000000E+00 -0.00000000000E+00 -0.26319301961E+03  0.26319301966E+03  0.50400000000E-02 0. -1.
    5000001    1    1    2    0    0  0.11137244053E+03 -0.17640625182E+03  0.50065173887E+02  0.29262690893E+03  0.19900000000E+03 0.  0.
   -5000001    1    1    2    0    0 -0.11137244053E+03  0.17640625182E+03  0.45234859367E+01  0.28834779021E+03  0.19900000000E+03 0.  0.
<mgrwt>
<rscale>  0 0.57840443E+03</rscale>
<asrwt>0</asrwt>
<pdfrwt beam="1">  1        1 0.45397383E-01 0.57840443E+03</pdfrwt>
<pdfrwt beam="2">  1       -1 0.37599003E-01 0.57840443E+03</pdfrwt>
<totfact> 0.61594516E+02</totfact>
</mgrwt>
</event>
<event>
 4    1  0.6282309E-006  0.4459371E+03  0.7818608E-02  0.1028941E+00
          1   -1    0    0  501    0  0.00000000000E+00  0.00000000000E+00  0.30680372804E+03  0.30680372808E+03  0.50400000000E-02 0.  1.
         -1   -1    0    0    0  501 -0.00000000000E+00 -0.00000000000E+00 -0.16204161142E+03  0.16204161150E+03  0.50400000000E-02 0. -1.
    5000001    1    1    2    0    0 -0.43175164164E+02 -0.88585015819E+02  0.93475939619E+02  0.24093598966E+03  0.19900000000E+03 0.  0.
   -5000001    1    1    2    0    0  0.43175164164E+02  0.88585015819E+02  0.51286176992E+02  0.22790934991E+03  0.19900000000E+03 0.  0.
<mgrwt>
<rscale>  0 0.44593708E+03</rscale>
<asrwt>0</asrwt>
<pdfrwt beam="1">  1        1 0.43829104E-01 0.44593708E+03</pdfrwt>
<pdfrwt beam="2">  1       -1 0.23148802E-01 0.44593708E+03</pdfrwt>
<totfact> 0.14901900E+03</totfact>
</mgrwt>
</event>
<event>
 4    1  0.6282309E-006  0.8461010E+03  0.7818608E-02  0.9495585E-01
         -1   -1    0    0    0  501 -0.00000000000E+00  0.00000000000E+00  0.13723350168E+03  0.13723350177E+03  0.50400000000E-02 0. -1.
          1   -1    0    0  501    0  0.00000000000E+00 -0.00000000000E+00 -0.13041401180E+04  0.13041401180E+04  0.50400000000E-02 0.  1.
    5000001    1    1    2    0    0  0.29193001400E+03  0.77775242025E+02 -0.95706509009E+03  0.10231552707E+04  0.19900000000E+03 0.  0.
   -5000001    1    1    2    0    0 -0.29193001400E+03 -0.77775242025E+02 -0.20984152620E+03  0.41821834903E+03  0.19900000000E+03 0.  0.
<mgrwt>
<rscale>  0 0.84610098E+03</rscale>
<asrwt>0</asrwt>
<pdfrwt beam="1">  1        1 0.18630572E+00 0.84610098E+03</pdfrwt>
<pdfrwt beam="2">  1       -1 0.19604787E-01 0.84610098E+03</pdfrwt>
<totfact> 0.22366173E+02</totfact>
</mgrwt>
</event>
<event>
 4    1  0.6282309E-006  0.4709172E+03  0.7818608E-02  0.1021662E+00
          1   -1    0    0  501    0  0.00000000000E+00  0.00000000000E+00  0.42847529878E+03  0.42847529881E+03  0.50400000000E-02 0.  1.
         -1   -1    0    0    0  501 -0.00000000000E+00 -0.00000000000E+00 -0.12939077812E+03  0.12939077822E+03  0.50400000000E-02 0. -1.
    5000001    1    1    2    0    0  0.32270427203E+02  0.12163729596E+03  0.14758129721E+03  0.27788172219E+03  0.19900000000E+03 0.  0.
   -5000001    1    1    2    0    0 -0.32270427203E+02 -0.12163729596E+03  0.15150322345E+03  0.27998435484E+03  0.19900000000E+03 0.  0.
<mgrwt>
<rscale>  0 0.47091720E+03</rscale>
<asrwt>0</asrwt>
<pdfrwt beam="1">  1        1 0.61210757E-01 0.47091720E+03</pdfrwt>
<pdfrwt beam="2">  1       -1 0.18484397E-01 0.47091720E+03</pdfrwt>
<totfact> 0.14061301E+03</totfact>
</mgrwt>
</event>
<event>
 4    1  0.6282309E-006  0.4595306E+03  0.7818608E-02  0.1024917E+00
          1   -1    0    0  501    0  0.00000000000E+00  0.00000000000E+00  0.83760040509E+03  0.83760040511E+03  0.50400000000E-02 0.  1.
         -1   -1    0    0    0  501 -0.00000000000E+00 -0.00000000000E+00 -0.63027770876E+02  0.63027771077E+02  0.50400000000E-02 0. -1.
    5000001    1    1    2    0    0 -0.54420951360E+02  0.23286628394E+02  0.19438739794E+03  0.28441407751E+03  0.19900000000E+03 0.  0.
   -5000001    1    1    2    0    0  0.54420951360E+02 -0.23286628394E+02  0.58018523628E+03  0.61621409868E+03  0.19900000000E+03 0.  0.
<mgrwt>
<rscale>  0 0.45953057E+03</rscale>
<asrwt>0</asrwt>
<pdfrwt beam="1">  1        1 0.11965719E+00 0.45953057E+03</pdfrwt>
<pdfrwt beam="2">  1       -1 0.90039678E-02 0.45953057E+03</pdfrwt>
<totfact> 0.17299500E+03</totfact>
</mgrwt>
</event>
<event>
 4    1  0.6282309E-006  0.5633064E+03  0.7818608E-02  0.9984601E-01
          1   -1    0    0  501    0  0.00000000000E+00  0.00000000000E+00  0.17407745760E+04  0.17407745760E+04  0.50400000000E-02 0.  1.
         -1   -1    0    0    0  501 -0.00000000000E+00 -0.00000000000E+00 -0.45570816518E+02  0.45570816796E+02  0.50400000000E-02 0. -1.
    5000001    1    1    2    0    0  0.35823695383E+02  0.76029484803E+02  0.14207322863E+04  0.14370612544E+04  0.19900000000E+03 0.  0.
   -5000001    1    1    2    0    0 -0.35823695383E+02 -0.76029484803E+02  0.27447147316E+03  0.34928413833E+03  0.19900000000E+03 0.  0.
<mgrwt>
<rscale>  0 0.56330638E+03</rscale>
<asrwt>0</asrwt>
<pdfrwt beam="1">  1        1 0.24868212E+00 0.56330638E+03</pdfrwt>
<pdfrwt beam="2">  1       -1 0.65101156E-02 0.56330638E+03</pdfrwt>
<totfact> 0.69249920E+02</totfact>
</mgrwt>
</event>
<event>
 4    1  0.6282309E-006  0.8758640E+03  0.7818608E-02  0.9456266E-01
          1   -1    0    0  501    0  0.00000000000E+00  0.00000000000E+00  0.47247945151E+03  0.47247945154E+03  0.50400000000E-02 0.  1.
         -1   -1    0    0    0  501 -0.00000000000E+00 -0.00000000000E+00 -0.40591064475E+03  0.40591064478E+03  0.50400000000E-02 0. -1.
    5000001    1    1    2    0    0 -0.33305672291E+03 -0.20296380581E+03  0.41203485159E+02  0.43979519590E+03  0.19900000000E+03 0.  0.
   -5000001    1    1    2    0    0  0.33305672291E+03  0.20296380581E+03  0.25365321600E+02  0.43859490043E+03  0.19900000000E+03 0.  0.
<mgrwt>
<rscale>  0 0.87586401E+03</rscale>
<asrwt>0</asrwt>
<pdfrwt beam="1">  1        1 0.67497064E-01 0.87586401E+03</pdfrwt>
<pdfrwt beam="2">  1       -1 0.57987235E-01 0.87586401E+03</pdfrwt>
<totfact> 0.16103338E+02</totfact>
</mgrwt>
</event>
<event>
 4    1  0.6282309E-006  0.4853472E+03  0.7818608E-02  0.1017676E+00
          1   -1    0    0  501    0  0.00000000000E+00  0.00000000000E+00  0.18394440941E+04  0.18394440941E+04  0.50400000000E-02 0. -1.
         -1   -1    0    0    0  501 -0.00000000000E+00 -0.00000000000E+00 -0.32015366847E+02  0.32015367244E+02  0.50400000000E-02 0.  1.
    5000001    1    1    2    0    0  0.12471122789E+03  0.88797655715E+01  0.67051135905E+03  0.71050561096E+03  0.19900000000E+03 0.  0.
   -5000001    1    1    2    0    0 -0.12471122789E+03 -0.88797655715E+01  0.11369173682E+04  0.11609538503E+04  0.19900000000E+03 0.  0.
<mgrwt>
<rscale>  0 0.48534721E+03</rscale>
<asrwt>0</asrwt>
<pdfrwt beam="1">  1        1 0.26277780E+00 0.48534721E+03</pdfrwt>
<pdfrwt beam="2">  1       -1 0.45736227E-02 0.48534721E+03</pdfrwt>
<totfact> 0.10369192E+03</totfact>
</mgrwt>
</event>
<event>
 4    1  0.6282309E-006  0.5073289E+03  0.7818608E-02  0.1011883E+00
         -1   -1    0    0    0  501 -0.00000000000E+00  0.00000000000E+00  0.40230293741E+02  0.40230294057E+02  0.50400000000E-02 0. -1.
          1   -1    0    0  501    0  0.00000000000E+00 -0.00000000000E+00 -0.15994325804E+04  0.15994325804E+04  0.50400000000E-02 0.  1.
    5000001    1    1    2    0    0 -0.15078583815E+03 -0.43635864534E+02 -0.74661224068E+03  0.78846134693E+03  0.19900000000E+03 0.  0.
   -5000001    1    1    2    0    0  0.15078583815E+03  0.43635864534E+02 -0.81259004596E+03  0.85120152752E+03  0.19900000000E+03 0.  0.
<mgrwt>
<rscale>  0 0.50732886E+03</rscale>
<asrwt>0</asrwt>
<pdfrwt beam="1">  1        1 0.22849033E+00 0.50732886E+03</pdfrwt>
<pdfrwt beam="2">  1       -1 0.57471859E-02 0.50732886E+03</pdfrwt>
<totfact> 0.10314602E+03</totfact>
</mgrwt>
</event>
<event>
 4    1  0.6282309E-006  0.8930106E+03  0.7818608E-02  0.9434361E-01
          1   -1    0    0  501    0  0.00000000000E+00  0.00000000000E+00  0.12567972899E+04  0.12567972899E+04  0.50400000000E-02 0. -1.
         -1   -1    0    0    0  501 -0.00000000000E+00 -0.00000000000E+00 -0.15863097026E+03  0.15863097034E+03  0.50400000000E-02 0.  1.
    5000001    1    1    2    0    0  0.64239733023E+02  0.36122528477E+03  0.80047312754E+03  0.90275615621E+03  0.19900000000E+03 0.  0.
   -5000001    1    1    2    0    0 -0.64239733023E+02 -0.36122528477E+03  0.29769319213E+03  0.51267210407E+03  0.19900000000E+03 0.  0.
<mgrwt>
<rscale>  0 0.89301058E+03</rscale>
<asrwt>0</asrwt>
<pdfrwt beam="1">  1        1 0.17954247E+00 0.89301058E+03</pdfrwt>
<pdfrwt beam="2">  1       -1 0.22661567E-01 0.89301058E+03</pdfrwt>
<totfact> 0.18826082E+02</totfact>
</mgrwt>
</event>
<event>
 4    1  0.6282309E-006  0.4258996E+03  0.7818608E-02  0.1035163E+00
          1   -1    0    0  501    0  0.00000000000E+00  0.00000000000E+00  0.11409571814E+03  0.11409571825E+03  0.50400000000E-02 0. -1.
         -1   -1    0    0    0  501 -0.00000000000E+00 -0.00000000000E+00 -0.39745240032E+03  0.39745240035E+03  0.50400000000E-02 0.  1.
    5000001    1    1    2    0    0  0.62114669435E+02 -0.42132201998E+02 -0.12889565040E+03  0.24869347257E+03  0.19900000000E+03 0.  0.
   -5000001    1    1    2    0    0 -0.62114669435E+02  0.42132201998E+02 -0.15446103177E+03  0.26285464603E+03  0.19900000000E+03 0.  0.
<mgrwt>
<rscale>  0 0.42589960E+03</rscale>
<asrwt>0</asrwt>
<pdfrwt beam="1">  1        1 0.16299388E-01 0.42589960E+03</pdfrwt>
<pdfrwt beam="2">  1       -1 0.56778914E-01 0.42589960E+03</pdfrwt>
<totfact> 0.10842898E+03</totfact>
</mgrwt>
</event>
<event>
 4    1  0.6282309E-006  0.6177275E+03  0.7818608E-02  0.9869295E-01
          1   -1    0    0  501    0  0.00000000000E+00  0.00000000000E+00  0.55830333193E+03  0.55830333196E+03  0.50400000000E-02 0.  1.
         -1   -1    0    0    0  501 -0.00000000000E+00 -0.00000000000E+00 -0.17086917235E+03  0.17086917242E+03  0.50400000000E-02 0. -1.
    5000001    1    1    2    0    0 -0.98018501221E+02  0.17949664915E+03  0.33323127013E+03  0.43871488809E+03  0.19900000000E+03 0.  0.
   -5000001    1    1    2    0    0  0.98018501221E+02 -0.17949664915E+03  0.54202889458E+02  0.29045761629E+03  0.19900000000E+03 0.  0.
<mgrwt>
<rscale>  0 0.61772754E+03</rscale>
<asrwt>0</asrwt>
<pdfrwt beam="1">  1        1 0.79757619E-01 0.61772754E+03</pdfrwt>
<pdfrwt beam="2">  1       -1 0.24409882E-01 0.61772754E+03</pdfrwt>
<totfact> 0.61978752E+02</totfact>
</mgrwt>
</event>
<event>
 4    1  0.6282309E-006  0.8203390E+03  0.7818608E-02  0.9531035E-01
         -1   -1    0    0    0  501 -0.00000000000E+00  0.00000000000E+00  0.54634170998E+03  0.54634171000E+03  0.50400000000E-02 0. -1.
          1   -1    0    0  501    0  0.00000000000E+00 -0.00000000000E+00 -0.30793738681E+03  0.30793738685E+03  0.50400000000E-02 0.  1.
    5000001    1    1    2    0    0  0.11644235254E+03 -0.29167602356E+03  0.29958625936E+03  0.47747947702E+03  0.19900000000E+03 0.  0.
   -5000001    1    1    2    0    0 -0.11644235254E+03  0.29167602356E+03 -0.61181936189E+02  0.37679961982E+03  0.19900000000E+03 0.  0.
<mgrwt>
<rscale>  0 0.82033905E+03</rscale>
<asrwt>0</asrwt>
<pdfrwt beam="1">  1        1 0.43991056E-01 0.82033905E+03</pdfrwt>
<pdfrwt beam="2">  1       -1 0.78048814E-01 0.82033905E+03</pdfrwt>
<totfact> 0.15512158E+02</totfact>
</mgrwt>
</event>
<event>
 4    1  0.6282309E-006  0.8707020E+03  0.7818608E-02  0.9462965E-01
         -1   -1    0    0    0  501 -0.00000000000E+00  0.00000000000E+00  0.11688403038E+03  0.11688403049E+03  0.50400000000E-02 0. -1.
          1   -1    0    0  501    0  0.00000000000E+00 -0.00000000000E+00 -0.16215259814E+04  0.16215259814E+04  0.50400000000E-02 0.  1.
    5000001    1    1    2    0    0  0.22825152146E+03  0.16883009187E+02 -0.13758931629E+04  0.14089239826E+04  0.19900000000E+03 0.  0.
   -5000001    1    1    2    0    0 -0.22825152146E+03 -0.16883009187E+02 -0.12874878811E+03  0.32948602928E+03  0.19900000000E+03 0.  0.
<mgrwt>
<rscale>  0 0.87070200E+03</rscale>
<asrwt>0</asrwt>
<pdfrwt beam="1">  1        1 0.23164655E+00 0.87070200E+03</pdfrwt>
<pdfrwt beam="2">  1       -1 0.16697720E-01 0.87070200E+03</pdfrwt>
<totfact> 0.18075790E+02</totfact>
</mgrwt>
</event>
<event>
 4    1  0.6282309E-006  0.5233904E+03  0.7818608E-02  0.1007848E+00
          1   -1    0    0  501    0  0.00000000000E+00  0.00000000000E+00  0.60405893854E+03  0.60405893856E+03  0.50400000000E-02 0.  1.
         -1   -1    0    0    0  501 -0.00000000000E+00 -0.00000000000E+00 -0.11337365828E+03  0.11337365839E+03  0.50400000000E-02 0. -1.
    5000001    1    1    2    0    0 -0.15265893959E+03 -0.20185169842E+02  0.14677141620E+03  0.29129888694E+03  0.19900000000E+03 0.  0.
   -5000001    1    1    2    0    0  0.15265893959E+03  0.20185169842E+02  0.34391386406E+03  0.42613371001E+03  0.19900000000E+03 0.  0.
<mgrwt>
<rscale>  0 0.52339038E+03</rscale>
<asrwt>0</asrwt>
<pdfrwt beam="1">  1        1 0.86294133E-01 0.52339038E+03</pdfrwt>
<pdfrwt beam="2">  1       -1 0.16196237E-01 0.52339038E+03</pdfrwt>
<totfact> 0.10984474E+03</totfact>
</mgrwt>
</event>
<event>
 4    1  0.6282309E-006  0.6781872E+03  0.7818608E-02  0.9755280E-01
         -1   -1    0    0    0  501 -0.00000000000E+00  0.00000000000E+00  0.37805850768E+03  0.37805850771E+03  0.50400000000E-02 0. -1.
          1   -1    0    0  501    0  0.00000000000E+00 -0.00000000000E+00 -0.30414464336E+03  0.30414464340E+03  0.50400000000E-02 0.  1.
    5000001    1    1    2    0    0 -0.18467193151E+03 -0.17420911297E+03  0.14212714223E+03  0.35249632890E+03  0.19900000000E+03 0.  0.
   -5000001    1    1    2    0    0  0.18467193151E+03  0.17420911297E+03 -0.68213277913E+02  0.32970682221E+03  0.19900000000E+03 0.  0.
<mgrwt>
<rscale>  0 0.67818720E+03</rscale>
<asrwt>0</asrwt>
<pdfrwt beam="1">  1        1 0.43449235E-01 0.67818720E+03</pdfrwt>
<pdfrwt beam="2">  1       -1 0.54008358E-01 0.67818720E+03</pdfrwt>
<totfact> 0.33235353E+02</totfact>
</mgrwt>
</event>
<event>
 4    1  0.6282309E-006  0.5274886E+03  0.7818608E-02  0.1006843E+00
          1   -1    0    0  501    0  0.00000000000E+00  0.00000000000E+00  0.88383986030E+03  0.88383986031E+03  0.50400000000E-02 0.  1.
         -1   -1    0    0    0  501 -0.00000000000E+00 -0.00000000000E+00 -0.78703241873E+02  0.78703242034E+02  0.50400000000E-02 0. -1.
    5000001    1    1    2    0    0 -0.84466522442E+01  0.12411661759E+03  0.18296035183E+03  0.29757649611E+03  0.19900000000E+03 0.  0.
   -5000001    1    1    2    0    0  0.84466522442E+01 -0.12411661759E+03  0.62217626660E+03  0.66496660624E+03  0.19900000000E+03 0.  0.
<mgrwt>
<rscale>  0 0.52748863E+03</rscale>
<asrwt>0</asrwt>
<pdfrwt beam="1">  1        1 0.12626283E+00 0.52748863E+03</pdfrwt>
<pdfrwt beam="2">  1       -1 0.11243321E-01 0.52748863E+03</pdfrwt>
<totfact> 0.11204753E+03</totfact>
</mgrwt>
</event>
<event>
 4    1  0.6282309E-006  0.9702343E+03  0.7818608E-02  0.9341808E-01
         -1   -1    0    0    0  501 -0.00000000000E+00  0.00000000000E+00  0.13949729905E+03  0.13949729914E+03  0.50400000000E-02 0. -1.
          1   -1    0    0  501    0  0.00000000000E+00 -0.00000000000E+00 -0.16870479233E+04  0.16870479233E+04  0.50400000000E-02 0.  1.
    5000001    1    1    2    0    0 -0.38502082227E+03  0.18077643182E+03 -0.54462191609E+03  0.71912111871E+03  0.19900000000E+03 0.  0.
   -5000001    1    1    2    0    0  0.38502082227E+03 -0.18077643182E+03 -0.10029287081E+04  0.11074241037E+04  0.19900000000E+03 0.  0.
<mgrwt>
<rscale>  0 0.97023426E+03</rscale>
<asrwt>0</asrwt>
<pdfrwt beam="1">  1        1 0.24100683E+00 0.97023426E+03</pdfrwt>
<pdfrwt beam="2">  1       -1 0.19928187E-01 0.97023426E+03</pdfrwt>
<totfact> 0.12163186E+02</totfact>
</mgrwt>
</event>
<event>
 4    1  0.6282309E-006  0.4811024E+03  0.7818608E-02  0.1018833E+00
          1   -1    0    0  501    0  0.00000000000E+00  0.00000000000E+00  0.87950668654E+03  0.87950668656E+03  0.50400000000E-02 0.  1.
         -1   -1    0    0    0  501 -0.00000000000E+00 -0.00000000000E+00 -0.65792416958E+02  0.65792417151E+02  0.50400000000E-02 0. -1.
    5000001    1    1    2    0    0  0.11055613603E+03 -0.75485724183E+02  0.37046120205E+03  0.44131990211E+03  0.19900000000E+03 0.  0.
   -5000001    1    1    2    0    0 -0.11055613603E+03  0.75485724183E+02  0.44325306753E+03  0.50397920160E+03  0.19900000000E+03 0.  0.
<mgrwt>
<rscale>  0 0.48110236E+03</rscale>
<asrwt>0</asrwt>
<pdfrwt beam="1">  1        1 0.12564381E+00 0.48110236E+03</pdfrwt>
<pdfrwt beam="2">  1       -1 0.93989167E-02 0.48110236E+03</pdfrwt>
<totfact> 0.14982436E+03</totfact>
</mgrwt>
</event>
<event>
 4    1  0.6282309E-006  0.6044157E+03  0.7818608E-02  0.9896287E-01
         -1   -1    0    0    0  501 -0.00000000000E+00  0.00000000000E+00  0.14645877658E+03  0.14645877666E+03  0.50400000000E-02 0. -1.
          1   -1    0    0  501    0  0.00000000000E+00 -0.00000000000E+00 -0.62358566647E+03  0.62358566649E+03  0.50400000000E-02 0.  1.
    5000001    1    1    2    0    0 -0.16374910406E+03 -0.11648940683E+03 -0.10286242782E+03  0.30094057560E+03  0.19900000000E+03 0.  0.
   -5000001    1    1    2    0    0  0.16374910406E+03  0.11648940683E+03 -0.37426446208E+03  0.46910386756E+03  0.19900000000E+03 0.  0.
<mgrwt>
<rscale>  0 0.60441573E+03</rscale>
<asrwt>0</asrwt>
<pdfrwt beam="1">  1        1 0.89083666E-01 0.60441573E+03</pdfrwt>
<pdfrwt beam="2">  1       -1 0.20922683E-01 0.60441573E+03</pdfrwt>
<totfact> 0.68837482E+02</totfact>
</mgrwt>
</event>
<event>
 4    1  0.6282309E-006  0.6597323E+03  0.7818608E-02  0.9788687E-01
          1   -1    0    0  501    0  0.00000000000E+00  0.00000000000E+00  0.15007968568E+04  0.15007968568E+04  0.50400000000E-02 0. -1.
         -1   -1    0    0    0  501 -0.00000000000E+00 -0.00000000000E+00 -0.72502597540E+02  0.72502597715E+02  0.50400000000E-02 0.  1.
    5000001    1    1    2    0    0 -0.80955743847E+02  0.16716097576E+03  0.26982670561E+03  0.38328067436E+03  0.19900000000E+03 0.  0.
   -5000001    1    1    2    0    0  0.80955743847E+02 -0.16716097576E+03  0.11584675537E+04  0.11900187802E+04  0.19900000000E+03 0.  0.
<mgrwt>
<rscale>  0 0.65973228E+03</rscale>
<asrwt>0</asrwt>
<pdfrwt beam="1">  1        1 0.21439953E+00 0.65973228E+03</pdfrwt>
<pdfrwt beam="2">  1       -1 0.10357515E-01 0.65973228E+03</pdfrwt>
<totfact> 0.47274100E+02</totfact>
</mgrwt>
</event>
<event>
 4    1  0.6282309E-006  0.5072486E+03  0.7818608E-02  0.1011904E+00
         -1   -1    0    0    0  501 -0.00000000000E+00  0.00000000000E+00  0.28746300515E+02  0.28746300957E+02  0.50400000000E-02 0. -1.
          1   -1    0    0  501    0  0.00000000000E+00 -0.00000000000E+00 -0.22376894132E+04  0.22376894132E+04  0.50400000000E-02 0.  1.
    5000001    1    1    2    0    0 -0.55426980103E+02 -0.11126354061E+03 -0.67421993134E+03  0.71388041114E+03  0.19900000000E+03 0.  0.
   -5000001    1    1    2    0    0  0.55426980103E+02  0.11126354061E+03 -0.15347231814E+04  0.15525553031E+04  0.19900000000E+03 0.  0.
<mgrwt>
<rscale>  0 0.50724863E+03</rscale>
<asrwt>0</asrwt>
<pdfrwt beam="1">  1        1 0.31966981E+00 0.50724863E+03</pdfrwt>
<pdfrwt beam="2">  1       -1 0.41066158E-02 0.50724863E+03</pdfrwt>
<totfact> 0.69385758E+02</totfact>
</mgrwt>
</event>
<event>
 4    1  0.6282309E-006  0.6143256E+03  0.7818608E-02  0.9876123E-01
         -1   -1    0    0    0  501 -0.00000000000E+00  0.00000000000E+00  0.75177166169E+02  0.75177166338E+02  0.50400000000E-02 0. -1.
          1   -1    0    0  501    0  0.00000000000E+00 -0.00000000000E+00 -0.12550220185E+04  0.12550220186E+04  0.50400000000E-02 0.  1.
    5000001    1    1    2    0    0  0.14516200217E+03  0.16413644713E+03 -0.41221978293E+03  0.50748293527E+03  0.19900000000E+03 0.  0.
   -5000001    1    1    2    0    0 -0.14516200217E+03 -0.16413644713E+03 -0.76762506944E+03  0.82271624962E+03  0.19900000000E+03 0.  0.
<mgrwt>
<rscale>  0 0.61432564E+03</rscale>
<asrwt>0</asrwt>
<pdfrwt beam="1">  1        1 0.17928885E+00 0.61432564E+03</pdfrwt>
<pdfrwt beam="2">  1       -1 0.10739596E-01 0.61432564E+03</pdfrwt>
<totfact> 0.64898236E+02</totfact>
</mgrwt>
</event>
<event>
 4    1  0.6282309E-006  0.1024628E+04  0.7818608E-02  0.9281938E-01
          1   -1    0    0  501    0  0.00000000000E+00  0.00000000000E+00  0.65636584249E+03  0.65636584251E+03  0.50400000000E-02 0.  1.
         -1   -1    0    0    0  501 -0.00000000000E+00 -0.00000000000E+00 -0.39987734102E+03  0.39987734105E+03  0.50400000000E-02 0. -1.
    5000001    1    1    2    0    0 -0.18125598661E+03 -0.43381018574E+03  0.17221982394E+03  0.53880022058E+03  0.19900000000E+03 0.  0.
   -5000001    1    1    2    0    0  0.18125598661E+03  0.43381018574E+03  0.84268677531E+02  0.51744296299E+03  0.19900000000E+03 0.  0.
<mgrwt>
<rscale>  0 0.10246284E+04</rscale>
<asrwt>0</asrwt>
<pdfrwt beam="1">  1        1 0.93766548E-01 0.10246284E+04</pdfrwt>
<pdfrwt beam="2">  1       -1 0.57125335E-01 0.10246284E+04</pdfrwt>
<totfact> 0.10403192E+02</totfact>
</mgrwt>
</event>
<event>
 4    1  0.6282309E-006  0.1401081E+04  0.7818608E-02  0.8953037E-01
         -1   -1    0    0    0  501 -0.00000000000E+00  0.00000000000E+00  0.49134874611E+03  0.49134874614E+03  0.50400000000E-02 0.  1.
          1   -1    0    0  501    0  0.00000000000E+00 -0.00000000000E+00 -0.99879541613E+03  0.99879541615E+03  0.50400000000E-02 0. -1.
    5000001    1    1    2    0    0 -0.31696833515E+03 -0.30881725875E+03 -0.79113431339E+03  0.92807948292E+03  0.19900000000E+03 0.  0.
   -5000001    1    1    2    0    0  0.31696833515E+03  0.30881725875E+03  0.28368764337E+03  0.56206467937E+03  0.19900000000E+03 0.  0.
<mgrwt>
<rscale>  0 0.14010808E+04</rscale>
<asrwt>0</asrwt>
<pdfrwt beam="1">  1        1 0.14268506E+00 0.14010808E+04</pdfrwt>
<pdfrwt beam="2">  1       -1 0.70192679E-01 0.14010808E+04</pdfrwt>
<totfact> 0.34645086E+01</totfact>
</mgrwt>
</event>
<event>
 4    1  0.6282309E-006  0.6577950E+03  0.7818608E-02  0.9792261E-01
          1   -1    0    0  501    0  0.00000000000E+00  0.00000000000E+00  0.34323361834E+03  0.34323361838E+03  0.50400000000E-02 0.  1.
         -1   -1    0    0    0  501 -0.00000000000E+00 -0.00000000000E+00 -0.31516014040E+03  0.31516014044E+03  0.50400000000E-02 0. -1.
    5000001    1    1    2    0    0  0.89422631830E+02 -0.24396372247E+03  0.46590958379E+02  0.33058496997E+03  0.19900000000E+03 0.  0.
   -5000001    1    1    2    0    0 -0.89422631830E+02  0.24396372247E+03 -0.18517480434E+02  0.32780878885E+03  0.19900000000E+03 0.  0.
<mgrwt>
<rscale>  0 0.65779497E+03</rscale>
<asrwt>0</asrwt>
<pdfrwt beam="1">  1        1 0.49033374E-01 0.65779497E+03</pdfrwt>
<pdfrwt beam="2">  1       -1 0.45022877E-01 0.65779497E+03</pdfrwt>
<totfact> 0.40078956E+02</totfact>
</mgrwt>
</event>
<event>
 4    1  0.6282309E-006  0.4713446E+03  0.7818608E-02  0.1021541E+00
         -1   -1    0    0    0  501 -0.00000000000E+00  0.00000000000E+00  0.12764046756E+03  0.12764046766E+03  0.50400000000E-02 0. -1.
          1   -1    0    0  501    0  0.00000000000E+00 -0.00000000000E+00 -0.43513961954E+03  0.43513961957E+03  0.50400000000E-02 0.  1.
    5000001    1    1    2    0    0  0.12233532809E+02 -0.91367924486E+02 -0.25675605223E+03  0.33767207067E+03  0.19900000000E+03 0.  0.
   -5000001    1    1    2    0    0 -0.12233532809E+02  0.91367924486E+02 -0.50743099737E+02  0.22510801656E+03  0.19900000000E+03 0.  0.
<mgrwt>
<rscale>  0 0.47134456E+03</rscale>
<asrwt>0</asrwt>
<pdfrwt beam="1">  1        1 0.62162802E-01 0.47134456E+03</pdfrwt>
<pdfrwt beam="2">  1       -1 0.18234353E-01 0.47134456E+03</pdfrwt>
<totfact> 0.14090875E+03</totfact>
</mgrwt>
</event>
<event>
 4    1  0.6282309E-006  0.8924308E+03  0.7818608E-02  0.9435093E-01
          1   -1    0    0  501    0  0.00000000000E+00  0.00000000000E+00  0.79419916496E+03  0.79419916498E+03  0.50400000000E-02 0. -1.
         -1   -1    0    0    0  501 -0.00000000000E+00 -0.00000000000E+00 -0.25070306978E+03  0.25070306983E+03  0.50400000000E-02 0.  1.
    5000001    1    1    2    0    0  0.19840774038E+03 -0.34660251678E+03  0.27510751524E+03  0.52419851298E+03  0.19900000000E+03 0.  0.
   -5000001    1    1    2    0    0 -0.19840774038E+03  0.34660251678E+03  0.26838857994E+03  0.52070372182E+03  0.19900000000E+03 0.  0.
<mgrwt>
<rscale>  0 0.89243077E+03</rscale>
<asrwt>0</asrwt>
<pdfrwt beam="1">  1        1 0.11345702E+00 0.89243077E+03</pdfrwt>
<pdfrwt beam="2">  1       -1 0.35814725E-01 0.89243077E+03</pdfrwt>
<totfact> 0.18833078E+02</totfact>
</mgrwt>
</event>
<event>
 4    1  0.6282309E-006  0.7840448E+03  0.7818608E-02  0.9583403E-01
          1   -1    0    0  501    0  0.00000000000E+00  0.00000000000E+00  0.22900674671E+04  0.22900674671E+04  0.50400000000E-02 0. -1.
         -1   -1    0    0    0  501 -0.00000000000E+00 -0.00000000000E+00 -0.67107878473E+02  0.67107878662E+02  0.50400000000E-02 0.  1.
    5000001    1    1    2    0    0 -0.17289250502E+03  0.28889661076E+03  0.10303897850E+04  0.11021148665E+04  0.19900000000E+03 0.  0.
   -5000001    1    1    2    0    0  0.17289250502E+03 -0.28889661076E+03  0.11925698036E+04  0.12550604792E+04  0.19900000000E+03 0.  0.
<mgrwt>
<rscale>  0 0.78404482E+03</rscale>
<asrwt>0</asrwt>
<pdfrwt beam="1">  1        1 0.32715252E+00 0.78404482E+03</pdfrwt>
<pdfrwt beam="2">  1       -1 0.95868390E-02 0.78404482E+03</pdfrwt>
<totfact> 0.16979016E+02</totfact>
</mgrwt>
</event>
<event>
 4    1  0.6282309E-006  0.6533748E+03  0.7818608E-02  0.9800467E-01
         -1   -1    0    0    0  501 -0.00000000000E+00  0.00000000000E+00  0.78339903047E+02  0.78339903209E+02  0.50400000000E-02 0. -1.
          1   -1    0    0  501    0  0.00000000000E+00 -0.00000000000E+00 -0.13623282529E+04  0.13623282529E+04  0.50400000000E-02 0.  1.
    5000001    1    1    2    0    0 -0.24990251106E+03 -0.50707877168E+01 -0.79229909662E+03  0.85429259415E+03  0.19900000000E+03 0.  0.
   -5000001    1    1    2    0    0  0.24990251106E+03  0.50707877168E+01 -0.49168925321E+03  0.58637556194E+03  0.19900000000E+03 0.  0.
<mgrwt>
<rscale>  0 0.65337482E+03</rscale>
<asrwt>0</asrwt>
<pdfrwt beam="1">  1        1 0.19461831E+00 0.65337482E+03</pdfrwt>
<pdfrwt beam="2">  1       -1 0.11191416E-01 0.65337482E+03</pdfrwt>
<totfact> 0.51460434E+02</totfact>
</mgrwt>
</event>
<event>
 4    1  0.6282309E-006  0.7702155E+03  0.7818608E-02  0.9604159E-01
          1   -1    0    0  501    0  0.00000000000E+00  0.00000000000E+00  0.20601046940E+03  0.20601046947E+03  0.50400000000E-02 0. -1.
         -1   -1    0    0    0  501 -0.00000000000E+00 -0.00000000000E+00 -0.71990508511E+03  0.71990508513E+03  0.50400000000E-02 0.  1.
    5000001    1    1    2    0    0  0.16734861997E+03 -0.25280947713E+03 -0.10118267893E+03  0.37650647650E+03  0.19900000000E+03 0.  0.
   -5000001    1    1    2    0    0 -0.16734861997E+03  0.25280947713E+03 -0.41271193678E+03  0.54940907810E+03  0.19900000000E+03 0.  0.
<mgrwt>
<rscale>  0 0.77021551E+03</rscale>
<asrwt>0</asrwt>
<pdfrwt beam="1">  1        1 0.29430067E-01 0.77021551E+03</pdfrwt>
<pdfrwt beam="2">  1       -1 0.10284358E+00 0.77021551E+03</pdfrwt>
<totfact> 0.14267630E+02</totfact>
</mgrwt>
</event>
<event>
 4    1  0.6282309E-006  0.9134968E+03  0.7818608E-02  0.9408865E-01
          1   -1    0    0  501    0  0.00000000000E+00  0.00000000000E+00  0.19845630688E+04  0.19845630688E+04  0.50400000000E-02 0.  1.
         -1   -1    0    0    0  501 -0.00000000000E+00 -0.00000000000E+00 -0.10512091415E+03  0.10512091427E+03  0.50400000000E-02 0. -1.
    5000001    1    1    2    0    0 -0.55568926643E+02  0.39789148761E+03  0.74013121948E+03  0.86533274731E+03  0.19900000000E+03 0.  0.
   -5000001    1    1    2    0    0  0.55568926643E+02 -0.39789148761E+03  0.11393109351E+04  0.12243512357E+04  0.19900000000E+03 0.  0.
<mgrwt>
<rscale>  0 0.91349676E+03</rscale>
<asrwt>0</asrwt>
<pdfrwt beam="1">  1        1 0.28350900E+00 0.91349676E+03</pdfrwt>
<pdfrwt beam="2">  1       -1 0.15017274E-01 0.91349676E+03</pdfrwt>
<totfact> 0.12667256E+02</totfact>
</mgrwt>
</event>
<event>
 4    1  0.6282309E-006  0.4456598E+03  0.7818608E-02  0.1029024E+00
         -1   -1    0    0    0  501 -0.00000000000E+00  0.00000000000E+00  0.81192166371E+02  0.81192166528E+02  0.50400000000E-02 0. -1.
          1   -1    0    0  501    0  0.00000000000E+00 -0.00000000000E+00 -0.61155104163E+03  0.61155104165E+03  0.50400000000E-02 0.  1.
    5000001    1    1    2    0    0 -0.35827227191E+02 -0.80654614958E+02 -0.33913131691E+03  0.40298859442E+03  0.19900000000E+03 0.  0.
   -5000001    1    1    2    0    0  0.35827227191E+02  0.80654614958E+02 -0.19122755834E+03  0.28975461375E+03  0.19900000000E+03 0.  0.
<mgrwt>
<rscale>  0 0.44565975E+03</rscale>
<asrwt>0</asrwt>
<pdfrwt beam="1">  1        1 0.87364432E-01 0.44565975E+03</pdfrwt>
<pdfrwt beam="2">  1       -1 0.11598881E-01 0.44565975E+03</pdfrwt>
<totfact> 0.18430349E+03</totfact>
</mgrwt>
</event>
<event>
 4    1  0.6282309E-006  0.5275731E+03  0.7818608E-02  0.1006822E+00
         -1   -1    0    0    0  501 -0.00000000000E+00  0.00000000000E+00  0.82410071876E+03  0.82410071878E+03  0.50400000000E-02 0. -1.
          1   -1    0    0  501    0  0.00000000000E+00 -0.00000000000E+00 -0.84435492665E+02  0.84435492816E+02  0.50400000000E-02 0.  1.
    5000001    1    1    2    0    0  0.10339290843E+03 -0.10403313159E+03  0.21134877316E+03  0.32524189444E+03  0.19900000000E+03 0.  0.
   -5000001    1    1    2    0    0 -0.10339290843E+03  0.10403313159E+03  0.52831645294E+03  0.58329431716E+03  0.19900000000E+03 0.  0.
<mgrwt>
<rscale>  0 0.52757312E+03</rscale>
<asrwt>0</asrwt>
<pdfrwt beam="1">  1        1 0.12062213E-01 0.52757312E+03</pdfrwt>
<pdfrwt beam="2">  1       -1 0.11772868E+00 0.52757312E+03</pdfrwt>
<totfact> 0.34267540E+02</totfact>
</mgrwt>
</event>
<event>
 4    1  0.6282309E-006  0.9860977E+03  0.7818608E-02  0.9323925E-01
          1   -1    0    0  501    0  0.00000000000E+00  0.00000000000E+00  0.27621580382E+04  0.27621580382E+04  0.50400000000E-02 0. -1.
         -1   -1    0    0    0  501 -0.00000000000E+00 -0.00000000000E+00 -0.88009866769E+02  0.88009866913E+02  0.50400000000E-02 0.  1.
    5000001    1    1    2    0    0  0.20766452787E+03  0.36314627797E+03  0.84915770705E+03  0.96730015341E+03  0.19900000000E+03 0.  0.
   -5000001    1    1    2    0    0 -0.20766452787E+03 -0.36314627797E+03  0.18249904644E+04  0.18828677517E+04  0.19900000000E+03 0.  0.
<mgrwt>
<rscale>  0 0.98609769E+03</rscale>
<asrwt>0</asrwt>
<pdfrwt beam="1">  1        1 0.39459395E+00 0.98609769E+03</pdfrwt>
<pdfrwt beam="2">  1       -1 0.12572840E-01 0.98609769E+03</pdfrwt>
<totfact> 0.54480463E+01</totfact>
</mgrwt>
</event>
<event>
 4    1  0.6282309E-006  0.5840050E+03  0.7818608E-02  0.9939158E-01
         -1   -1    0    0    0  501 -0.00000000000E+00  0.00000000000E+00  0.13459750316E+03  0.13459750325E+03  0.50400000000E-02 0.  1.
          1   -1    0    0  501    0  0.00000000000E+00 -0.00000000000E+00 -0.63348478212E+03  0.63348478214E+03  0.50400000000E-02 0. -1.
    5000001    1    1    2    0    0 -0.15697037438E+03  0.30902339082E+02 -0.63122185557E+02  0.26302103205E+03  0.19900000000E+03 0.  0.
   -5000001    1    1    2    0    0  0.15697037438E+03 -0.30902339082E+02 -0.43576509341E+03  0.50506125334E+03  0.19900000000E+03 0.  0.
<mgrwt>
<rscale>  0 0.58400503E+03</rscale>
<asrwt>0</asrwt>
<pdfrwt beam="1">  1        1 0.90497825E-01 0.58400503E+03</pdfrwt>
<pdfrwt beam="2">  1       -1 0.19228215E-01 0.58400503E+03</pdfrwt>
<totfact> 0.77482315E+02</totfact>
</mgrwt>
</event>
<event>
 4    1  0.6282309E-006  0.5273602E+03  0.7818608E-02  0.1006874E+00
         -1   -1    0    0    0  501 -0.00000000000E+00  0.00000000000E+00  0.81374835450E+02  0.81374835606E+02  0.50400000000E-02 0.  1.
          1   -1    0    0  501    0  0.00000000000E+00 -0.00000000000E+00 -0.85440654377E+03  0.85440654378E+03  0.50400000000E-02 0. -1.
    5000001    1    1    2    0    0 -0.42310925684E+02  0.15937907009E+03 -0.29372838877E+03  0.39124067884E+03  0.19900000000E+03 0.  0.
   -5000001    1    1    2    0    0  0.42310925684E+02 -0.15937907009E+03 -0.47930331955E+03  0.54454070054E+03  0.19900000000E+03 0.  0.
<mgrwt>
<rscale>  0 0.52736019E+03</rscale>
<asrwt>0</asrwt>
<pdfrwt beam="1">  1        1 0.12205807E+00 0.52736019E+03</pdfrwt>
<pdfrwt beam="2">  1       -1 0.11624977E-01 0.52736019E+03</pdfrwt>
<totfact> 0.11213071E+03</totfact>
</mgrwt>
</event>
<event>
 4    1  0.6282309E-006  0.9083547E+03  0.7818608E-02  0.9415198E-01
         -1   -1    0    0    0  501 -0.00000000000E+00  0.00000000000E+00  0.82358279517E+02  0.82358279671E+02  0.50400000000E-02 0. -1.
          1   -1    0    0  501    0  0.00000000000E+00 -0.00000000000E+00 -0.25046304202E+04  0.25046304202E+04  0.50400000000E-02 0.  1.
    5000001    1    1    2    0    0  0.27876066670E+02 -0.29526259208E+03 -0.41207715026E+03  0.54531243442E+03  0.19900000000E+03 0.  0.
   -5000001    1    1    2    0    0 -0.27876066670E+02  0.29526259208E+03 -0.20101949904E+04  0.20416762654E+04  0.19900000000E+03 0.  0.
<mgrwt>
<rscale>  0 0.90835467E+03</rscale>
<asrwt>0</asrwt>
<pdfrwt beam="1">  1        1 0.35780430E+00 0.90835467E+03</pdfrwt>
<pdfrwt beam="2">  1       -1 0.11765470E-01 0.90835467E+03</pdfrwt>
<totfact> 0.88963786E+01</totfact>
</mgrwt>
</event>
<event>
 4    1  0.6282309E-006  0.1062947E+04  0.7818608E-02  0.9242078E-01
         -1   -1    0    0    0  501 -0.00000000000E+00  0.00000000000E+00  0.10756177884E+03  0.10756177896E+03  0.50400000000E-02 0.  1.
          1   -1    0    0  501    0  0.00000000000E+00 -0.00000000000E+00 -0.26260657028E+04  0.26260657028E+04  0.50400000000E-02 0. -1.
    5000001    1    1    2    0    0  0.29334616976E+03 -0.28500165565E+03 -0.19662959814E+04  0.20182167390E+04  0.19900000000E+03 0.  0.
   -5000001    1    1    2    0    0 -0.29334616976E+03  0.28500165565E+03 -0.55220794248E+03  0.71541074270E+03  0.19900000000E+03 0.  0.
<mgrwt>
<rscale>  0 0.10629474E+04</rscale>
<asrwt>0</asrwt>
<pdfrwt beam="1">  1        1 0.37515220E+00 0.10629474E+04</pdfrwt>
<pdfrwt beam="2">  1       -1 0.15365970E-01 0.10629474E+04</pdfrwt>
<totfact> 0.47687221E+01</totfact>
</mgrwt>
</event>
<event>
 4    1  0.6282309E-006  0.5421764E+03  0.7818608E-02  0.1003321E+00
         -1   -1    0    0    0  501 -0.00000000000E+00  0.00000000000E+00  0.64418616924E+03  0.64418616926E+03  0.50400000000E-02 0. -1.
          1   -1    0    0  501    0  0.00000000000E+00 -0.00000000000E+00 -0.11408007196E+03  0.11408007207E+03  0.50400000000E-02 0.  1.
    5000001    1    1    2    0    0 -0.12594197178E+03 -0.11151160441E+03  0.36963305281E+03  0.45224530058E+03  0.19900000000E+03 0.  0.
   -5000001    1    1    2    0    0  0.12594197178E+03  0.11151160441E+03  0.16047304447E+03  0.30602094074E+03  0.19900000000E+03 0.  0.
<mgrwt>
<rscale>  0 0.54217637E+03</rscale>
<asrwt>0</asrwt>
<pdfrwt beam="1">  1        1 0.16297153E-01 0.54217637E+03</pdfrwt>
<pdfrwt beam="2">  1       -1 0.92026596E-01 0.54217637E+03</pdfrwt>
<totfact> 0.40240691E+02</totfact>
</mgrwt>
</event>
<event>
 4    1  0.6282309E-006  0.7846219E+03  0.7818608E-02  0.9582547E-01
         -1   -1    0    0    0  501 -0.00000000000E+00  0.00000000000E+00  0.24314566707E+03  0.24314566713E+03  0.50400000000E-02 0. -1.
          1   -1    0    0  501    0  0.00000000000E+00 -0.00000000000E+00 -0.63298630710E+03  0.63298630712E+03  0.50400000000E-02 0.  1.
    5000001    1    1    2    0    0  0.10396028577E+03 -0.18114381721E+03  0.10195628822E+03  0.30596880272E+03  0.19900000000E+03 0.  0.
   -5000001    1    1    2    0    0 -0.10396028577E+03  0.18114381721E+03 -0.49179692825E+03  0.57016317152E+03  0.19900000000E+03 0.  0.
<mgrwt>
<rscale>  0 0.78462189E+03</rscale>
<asrwt>0</asrwt>
<pdfrwt beam="1">  1        1 0.90426615E-01 0.78462189E+03</pdfrwt>
<pdfrwt beam="2">  1       -1 0.34735095E-01 0.78462189E+03</pdfrwt>
<totfact> 0.28009885E+02</totfact>
</mgrwt>
</event>
<event>
 4    1  0.6282309E-006  0.7184325E+03  0.7818608E-02  0.9686219E-01
          1   -1    0    0  501    0  0.00000000000E+00  0.00000000000E+00  0.72296984434E+03  0.72296984436E+03  0.50400000000E-02 0.  1.
         -1   -1    0    0    0  501 -0.00000000000E+00 -0.00000000000E+00 -0.17848089438E+03  0.17848089445E+03  0.50400000000E-02 0. -1.
    5000001    1    1    2    0    0 -0.16049673093E+03 -0.60226166990E+01 -0.44289664298E+02  0.25953428852E+03  0.19900000000E+03 0.  0.
   -5000001    1    1    2    0    0  0.16049673093E+03  0.60226166990E+01  0.58877861426E+03  0.64191645029E+03  0.19900000000E+03 0.  0.
<mgrwt>
<rscale>  0 0.71843247E+03</rscale>
<asrwt>0</asrwt>
<pdfrwt beam="1">  1        1 0.10328141E+00 0.71843247E+03</pdfrwt>
<pdfrwt beam="2">  1       -1 0.25497271E-01 0.71843247E+03</pdfrwt>
<totfact> 0.39650186E+02</totfact>
</mgrwt>
</event>
<event>
 4    1  0.6282309E-006  0.8963842E+03  0.7818608E-02  0.9430113E-01
         -1   -1    0    0    0  501 -0.00000000000E+00  0.00000000000E+00  0.76403532874E+02  0.76403533040E+02  0.50400000000E-02 0. -1.
          1   -1    0    0  501    0  0.00000000000E+00 -0.00000000000E+00 -0.26291475182E+04  0.26291475182E+04  0.50400000000E-02 0.  1.
    5000001    1    1    2    0    0 -0.17867454012E+03 -0.32531106070E+03 -0.17392968410E+04  0.17895547990E+04  0.19900000000E+03 0.  0.
   -5000001    1    1    2    0    0  0.17867454012E+03  0.32531106070E+03 -0.81344714424E+03  0.91599625216E+03  0.19900000000E+03 0.  0.
<mgrwt>
<rscale>  0 0.89638420E+03</rscale>
<asrwt>0</asrwt>
<pdfrwt beam="1">  1        1 0.37559244E+00 0.89638420E+03</pdfrwt>
<pdfrwt beam="2">  1       -1 0.10914792E-01 0.89638420E+03</pdfrwt>
<totfact> 0.83791473E+01</totfact>
</mgrwt>
</event>
<event>
 4    1  0.6282309E-006  0.5613468E+03  0.7818608E-02  0.9989012E-01
          1   -1    0    0  501    0  0.00000000000E+00  0.00000000000E+00  0.62907937681E+03  0.62907937683E+03  0.50400000000E-02 0.  1.
         -1   -1    0    0    0  501 -0.00000000000E+00 -0.00000000000E+00 -0.12522672548E+03  0.12522672558E+03  0.50400000000E-02 0. -1.
    5000001    1    1    2    0    0  0.13897944772E+03  0.54790819493E+02  0.77450503737E+02  0.26060871305E+03  0.19900000000E+03 0.  0.
   -5000001    1    1    2    0    0 -0.13897944772E+03 -0.54790819493E+02  0.42640214760E+03  0.49369738936E+03  0.19900000000E+03 0.  0.
<mgrwt>
<rscale>  0 0.56134678E+03</rscale>
<asrwt>0</asrwt>
<pdfrwt beam="1">  1        1 0.89868483E-01 0.56134678E+03</pdfrwt>
<pdfrwt beam="2">  1       -1 0.17889532E-01 0.56134678E+03</pdfrwt>
<totfact> 0.88161570E+02</totfact>
</mgrwt>
</event>
<event>
 4    1  0.6282309E-006  0.1649296E+04  0.7818608E-02  0.8790823E-01
         -1   -1    0    0    0  501 -0.00000000000E+00  0.00000000000E+00  0.13525568294E+04  0.13525568294E+04  0.50400000000E-02 0. -1.
          1   -1    0    0  501    0  0.00000000000E+00 -0.00000000000E+00 -0.50278409632E+03  0.50278409634E+03  0.50400000000E-02 0.  1.
    5000001    1    1    2    0    0  0.46125663505E+03 -0.64962362054E+03  0.34014602570E+03  0.88885817234E+03  0.19900000000E+03 0.  0.
   -5000001    1    1    2    0    0 -0.46125663505E+03  0.64962362054E+03  0.50962670737E+03  0.96648275339E+03  0.19900000000E+03 0.  0.
<mgrwt>
<rscale>  0 0.16492957E+04</rscale>
<asrwt>0</asrwt>
<pdfrwt beam="1">  1        1 0.71826300E-01 0.16492957E+04</pdfrwt>
<pdfrwt beam="2">  1       -1 0.19322240E+00 0.16492957E+04</pdfrwt>
<totfact> 0.78271869E+00</totfact>
</mgrwt>
</event>
<event>
 4    1  0.6282309E-006  0.6468988E+03  0.7818608E-02  0.9812616E-01
         -1   -1    0    0    0  501 -0.00000000000E+00  0.00000000000E+00  0.29029789653E+03  0.29029789657E+03  0.50400000000E-02 0. -1.
          1   -1    0    0  501    0  0.00000000000E+00 -0.00000000000E+00 -0.36038669641E+03  0.36038669645E+03  0.50400000000E-02 0.  1.
    5000001    1    1    2    0    0 -0.98874906193E+02  0.22434484701E+03 -0.10553765768E+03  0.33293551124E+03  0.19900000000E+03 0.  0.
   -5000001    1    1    2    0    0  0.98874906193E+02 -0.22434484701E+03  0.35448857791E+02  0.31774908178E+03  0.19900000000E+03 0.  0.
<mgrwt>
<rscale>  0 0.64689876E+03</rscale>
<asrwt>0</asrwt>
<pdfrwt beam="1">  1        1 0.51483814E-01 0.64689876E+03</pdfrwt>
<pdfrwt beam="2">  1       -1 0.41471128E-01 0.64689876E+03</pdfrwt>
<totfact> 0.43769366E+02</totfact>
</mgrwt>
</event>
<event>
 4    1  0.6282309E-006  0.6096100E+03  0.7818608E-02  0.9885667E-01
         -1   -1    0    0    0  501 -0.00000000000E+00  0.00000000000E+00  0.64400394511E+03  0.64400394513E+03  0.50400000000E-02 0. -1.
          1   -1    0    0  501    0  0.00000000000E+00 -0.00000000000E+00 -0.14426322023E+03  0.14426322031E+03  0.50400000000E-02 0.  1.
    5000001    1    1    2    0    0 -0.16914345260E+03 -0.14549576233E+03  0.17308173274E+03  0.34545160388E+03  0.19900000000E+03 0.  0.
   -5000001    1    1    2    0    0  0.16914345260E+03  0.14549576233E+03  0.32665899215E+03  0.44281556157E+03  0.19900000000E+03 0.  0.
<mgrwt>
<rscale>  0 0.60960998E+03</rscale>
<asrwt>0</asrwt>
<pdfrwt beam="1">  1        1 0.20609032E-01 0.60960998E+03</pdfrwt>
<pdfrwt beam="2">  1       -1 0.92000560E-01 0.60960998E+03</pdfrwt>
<totfact> 0.29438762E+02</totfact>
</mgrwt>
</event>
<event>
 4    1  0.6282309E-006  0.4701602E+03  0.7818608E-02  0.1021875E+00
          1   -1    0    0  501    0  0.00000000000E+00  0.00000000000E+00  0.22791313602E+04  0.22791313602E+04  0.50400000000E-02 0. -1.
         -1   -1    0    0    0  501 -0.00000000000E+00 -0.00000000000E+00 -0.24247239746E+02  0.24247240269E+02  0.50400000000E-02 0.  1.
    5000001    1    1    2    0    0  0.22127710636E+02 -0.52162431953E+02  0.58077464500E+03  0.61653121832E+03  0.19900000000E+03 0.  0.
   -5000001    1    1    2    0    0 -0.22127710636E+02  0.52162431953E+02  0.16741094755E+04  0.16868473822E+04  0.19900000000E+03 0.  0.
<mgrwt>
<rscale>  0 0.47016016E+03</rscale>
<asrwt>0</asrwt>
<pdfrwt beam="1">  1        1 0.32559004E+00 0.47016016E+03</pdfrwt>
<pdfrwt beam="2">  1       -1 0.34638931E-02 0.47016016E+03</pdfrwt>
<totfact> 0.84827593E+02</totfact>
</mgrwt>
</event>
<event>
 4    1  0.6282309E-006  0.6167600E+03  0.7818608E-02  0.9871232E-01
         -1   -1    0    0    0  501 -0.00000000000E+00  0.00000000000E+00  0.56902017343E+03  0.56902017345E+03  0.50400000000E-02 0.  1.
          1   -1    0    0  501    0  0.00000000000E+00 -0.00000000000E+00 -0.16712627521E+03  0.16712627528E+03  0.50400000000E-02 0. -1.
    5000001    1    1    2    0    0  0.24274137108E+02  0.23432239860E+03  0.20214166405E+03  0.36872547046E+03  0.19900000000E+03 0.  0.
   -5000001    1    1    2    0    0 -0.24274137108E+02 -0.23432239860E+03  0.19975223417E+03  0.36742097827E+03  0.19900000000E+03 0.  0.
<mgrwt>
<rscale>  0 0.61675999E+03</rscale>
<asrwt>0</asrwt>
<pdfrwt beam="1">  1        1 0.23875182E-01 0.61675999E+03</pdfrwt>
<pdfrwt beam="2">  1       -1 0.81288597E-01 0.61675999E+03</pdfrwt>
<totfact> 0.31719140E+02</totfact>
</mgrwt>
</event>
<event>
 4    1  0.6282309E-006  0.6033831E+03  0.7818608E-02  0.9898412E-01
         -1   -1    0    0    0  501 -0.00000000000E+00  0.00000000000E+00  0.30928519885E+02  0.30928520296E+02  0.50400000000E-02 0. -1.
          1   -1    0    0  501    0  0.00000000000E+00 -0.00000000000E+00 -0.29428434245E+04  0.29428434245E+04  0.50400000000E-02 0.  1.
    5000001    1    1    2    0    0  0.16162090114E+03  0.55183023391E+02 -0.21911186078E+04  0.22067551372E+04  0.19900000000E+03 0.  0.
   -5000001    1    1    2    0    0 -0.16162090114E+03 -0.55183023391E+02 -0.72079629673E+03  0.76701680760E+03  0.19900000000E+03 0.  0.
<mgrwt>
<rscale>  0 0.60338310E+03</rscale>
<asrwt>0</asrwt>
<pdfrwt beam="1">  1        1 0.42040603E+00 0.60338310E+03</pdfrwt>
<pdfrwt beam="2">  1       -1 0.44183619E-02 0.60338310E+03</pdfrwt>
<totfact> 0.22247354E+02</totfact>
</mgrwt>
</event>
<event>
 4    1  0.6282309E-006  0.5582500E+03  0.7818608E-02  0.9996022E-01
          1   -1    0    0  501    0  0.00000000000E+00  0.00000000000E+00  0.44505755129E+03  0.44505755132E+03  0.50400000000E-02 0. -1.
         -1   -1    0    0    0  501 -0.00000000000E+00 -0.00000000000E+00 -0.17505774200E+03  0.17505774207E+03  0.50400000000E-02 0.  1.
    5000001    1    1    2    0    0 -0.14118184630E+03  0.12168439289E+03  0.20137421101E+03  0.33895719207E+03  0.19900000000E+03 0.  0.
   -5000001    1    1    2    0    0  0.14118184630E+03 -0.12168439289E+03  0.68625598280E+02  0.28115810132E+03  0.19900000000E+03 0.  0.
<mgrwt>
<rscale>  0 0.55825002E+03</rscale>
<asrwt>0</asrwt>
<pdfrwt beam="1">  1        1 0.63579649E-01 0.55825002E+03</pdfrwt>
<pdfrwt beam="2">  1       -1 0.25008249E-01 0.55825002E+03</pdfrwt>
<totfact> 0.80819902E+02</totfact>
</mgrwt>
</event>
<event>
 4    1  0.6282309E-006  0.9156472E+03  0.7818608E-02  0.9406230E-01
          1   -1    0    0  501    0  0.00000000000E+00  0.00000000000E+00  0.90899474303E+03  0.90899474305E+03  0.50400000000E-02 0.  1.
         -1   -1    0    0    0  501 -0.00000000000E+00 -0.00000000000E+00 -0.23058709622E+03  0.23058709627E+03  0.50400000000E-02 0. -1.
    5000001    1    1    2    0    0  0.29125574213E+03 -0.27872142961E+03  0.44688500263E+03  0.63389490314E+03  0.19900000000E+03 0.  0.
   -5000001    1    1    2    0    0 -0.29125574213E+03  0.27872142961E+03  0.23152264419E+03  0.50568693618E+03  0.19900000000E+03 0.  0.
<mgrwt>
<rscale>  0 0.91564722E+03</rscale>
<asrwt>0</asrwt>
<pdfrwt beam="1">  1        1 0.12985640E+00 0.91564722E+03</pdfrwt>
<pdfrwt beam="2">  1       -1 0.32941013E-01 0.91564722E+03</pdfrwt>
<totfact> 0.17605161E+02</totfact>
</mgrwt>
</event>
<event>
 4    1  0.6282309E-006  0.5480905E+03  0.7818608E-02  0.1001937E+00
         -1   -1    0    0    0  501 -0.00000000000E+00  0.00000000000E+00  0.91854034496E+02  0.91854034634E+02  0.50400000000E-02 0. -1.
          1   -1    0    0  501    0  0.00000000000E+00 -0.00000000000E+00 -0.81761018966E+03  0.81761018967E+03  0.50400000000E-02 0.  1.
    5000001    1    1    2    0    0  0.96795041512E+02  0.14178268542E+03 -0.49171093312E+03  0.55754125560E+03  0.19900000000E+03 0.  0.
   -5000001    1    1    2    0    0 -0.96795041512E+02 -0.14178268542E+03 -0.23404522204E+03  0.35192296871E+03  0.19900000000E+03 0.  0.
<mgrwt>
<rscale>  0 0.54809048E+03</rscale>
<asrwt>0</asrwt>
<pdfrwt beam="1">  1        1 0.11680145E+00 0.54809048E+03</pdfrwt>
<pdfrwt beam="2">  1       -1 0.13122005E-01 0.54809048E+03</pdfrwt>
<totfact> 0.98968774E+02</totfact>
</mgrwt>
</event>
<event>
 4    1  0.6282309E-006  0.4145717E+03  0.7818608E-02  0.1038848E+00
          1   -1    0    0  501    0  0.00000000000E+00  0.00000000000E+00  0.45885072077E+03  0.45885072080E+03  0.50400000000E-02 0.  1.
         -1   -1    0    0    0  501 -0.00000000000E+00 -0.00000000000E+00 -0.93641394088E+02  0.93641394223E+02  0.50400000000E-02 0. -1.
    5000001    1    1    2    0    0  0.55078580935E+02  0.32472708291E+01  0.20652718650E+03  0.29205936658E+03  0.19900000000E+03 0.  0.
   -5000001    1    1    2    0    0 -0.55078580935E+02 -0.32472708291E+01  0.15868214018E+03  0.26043274844E+03  0.19900000000E+03 0.  0.
<mgrwt>
<rscale>  0 0.41457169E+03</rscale>
<asrwt>0</asrwt>
<pdfrwt beam="1">  1        1 0.65550104E-01 0.41457169E+03</pdfrwt>
<pdfrwt beam="2">  1       -1 0.13377342E-01 0.41457169E+03</pdfrwt>
<totfact> 0.21645846E+03</totfact>
</mgrwt>
</event>
<event>
 4    1  0.6282309E-006  0.5693206E+03  0.7818608E-02  0.9971183E-01
         -1   -1    0    0    0  501 -0.00000000000E+00  0.00000000000E+00  0.12296175811E+03  0.12296175821E+03  0.50400000000E-02 0.  1.
          1   -1    0    0  501    0  0.00000000000E+00 -0.00000000000E+00 -0.65899751836E+03  0.65899751838E+03  0.50400000000E-02 0. -1.
    5000001    1    1    2    0    0  0.11942398144E+03  0.15721886894E+03 -0.20002453738E+03  0.34436996914E+03  0.19900000000E+03 0.  0.
   -5000001    1    1    2    0    0 -0.11942398144E+03 -0.15721886894E+03 -0.33601122287E+03  0.43758930744E+03  0.19900000000E+03 0.  0.
<mgrwt>
<rscale>  0 0.56932062E+03</rscale>
<asrwt>0</asrwt>
<pdfrwt beam="1">  1        1 0.94142501E-01 0.56932062E+03</pdfrwt>
<pdfrwt beam="2">  1       -1 0.17565966E-01 0.56932062E+03</pdfrwt>
<totfact> 0.85006832E+02</totfact>
</mgrwt>
</event>
<event>
 4    1  0.6282309E-006  0.9096346E+03  0.7818608E-02  0.9413617E-01
          1   -1    0    0  501    0  0.00000000000E+00  0.00000000000E+00  0.93874628543E+03  0.93874628545E+03  0.50400000000E-02 0. -1.
         -1   -1    0    0    0  501 -0.00000000000E+00 -0.00000000000E+00 -0.22035640648E+03  0.22035640654E+03  0.50400000000E-02 0.  1.
    5000001    1    1    2    0    0 -0.26520407397E+03  0.12299957879E+03  0.72362995254E+03  0.80542125962E+03  0.19900000000E+03 0.  0.
   -5000001    1    1    2    0    0  0.26520407397E+03 -0.12299957879E+03 -0.52400735873E+01  0.35368143237E+03  0.19900000000E+03 0.  0.
<mgrwt>
<rscale>  0 0.90963456E+03</rscale>
<asrwt>0</asrwt>
<pdfrwt beam="1">  1        1 0.13410661E+00 0.90963456E+03</pdfrwt>
<pdfrwt beam="2">  1       -1 0.31479487E-01 0.90963456E+03</pdfrwt>
<totfact> 0.18089447E+02</totfact>
</mgrwt>
</event>
<event>
 4    1  0.6282309E-006  0.6746788E+03  0.7818608E-02  0.9761542E-01
          1   -1    0    0  501    0  0.00000000000E+00  0.00000000000E+00  0.70726041275E+03  0.70726041276E+03  0.50400000000E-02 0.  1.
         -1   -1    0    0    0  501 -0.00000000000E+00 -0.00000000000E+00 -0.16089955505E+03  0.16089955513E+03  0.50400000000E-02 0. -1.
    5000001    1    1    2    0    0  0.18051299069E+03  0.16286633594E+03  0.11512953760E+03  0.33461349886E+03  0.19900000000E+03 0.  0.
   -5000001    1    1    2    0    0 -0.18051299069E+03 -0.16286633594E+03  0.43123132010E+03  0.53354646904E+03  0.19900000000E+03 0.  0.
<mgrwt>
<rscale>  0 0.67467884E+03</rscale>
<asrwt>0</asrwt>
<pdfrwt beam="1">  1        1 0.10103720E+00 0.67467884E+03</pdfrwt>
<pdfrwt beam="2">  1       -1 0.22985650E-01 0.67467884E+03</pdfrwt>
<totfact> 0.48920611E+02</totfact>
</mgrwt>
</event>
<event>
 4    1  0.6282309E-006  0.4816997E+03  0.7818608E-02  0.1018669E+00
         -1   -1    0    0    0  501 -0.00000000000E+00  0.00000000000E+00  0.44790443870E+02  0.44790444154E+02  0.50400000000E-02 0.  1.
          1   -1    0    0  501    0  0.00000000000E+00 -0.00000000000E+00 -0.12951123801E+04  0.12951123801E+04  0.50400000000E-02 0. -1.
    5000001    1    1    2    0    0  0.12138607923E+03  0.54779550051E+02 -0.69728362917E+03  0.73725222200E+03  0.19900000000E+03 0.  0.
   -5000001    1    1    2    0    0 -0.12138607923E+03 -0.54779550051E+02 -0.55303830708E+03  0.60265060229E+03  0.19900000000E+03 0.  0.
<mgrwt>
<rscale>  0 0.48169973E+03</rscale>
<asrwt>0</asrwt>
<pdfrwt beam="1">  1        1 0.18501603E+00 0.48169973E+03</pdfrwt>
<pdfrwt beam="2">  1       -1 0.63986357E-02 0.48169973E+03</pdfrwt>
<totfact> 0.13750018E+03</totfact>
</mgrwt>
</event>
<event>
 4    1  0.6282309E-006  0.7754216E+03  0.7818608E-02  0.9596291E-01
         -1   -1    0    0    0  501 -0.00000000000E+00  0.00000000000E+00  0.27042668361E+03  0.27042668366E+03  0.50400000000E-02 0.  1.
          1   -1    0    0  501    0  0.00000000000E+00 -0.00000000000E+00 -0.55586104624E+03  0.55586104626E+03  0.50400000000E-02 0. -1.
    5000001    1    1    2    0    0 -0.39531322150E+02  0.70972565419E+02 -0.48655849214E+03  0.53192104372E+03  0.19900000000E+03 0.  0.
   -5000001    1    1    2    0    0  0.39531322150E+02 -0.70972565419E+02  0.20112412951E+03  0.29436668620E+03  0.19900000000E+03 0.  0.
<mgrwt>
<rscale>  0 0.77542159E+03</rscale>
<asrwt>0</asrwt>
<pdfrwt beam="1">  1        1 0.79408720E-01 0.77542159E+03</pdfrwt>
<pdfrwt beam="2">  1       -1 0.38632384E-01 0.77542159E+03</pdfrwt>
<totfact> 0.27799235E+02</totfact>
</mgrwt>
</event>
<event>
 4    1  0.6282309E-006  0.6221611E+03  0.7818608E-02  0.9860466E-01
         -1   -1    0    0    0  501 -0.00000000000E+00  0.00000000000E+00  0.16279924368E+04  0.16279924368E+04  0.50400000000E-02 0. -1.
          1   -1    0    0  501    0  0.00000000000E+00 -0.00000000000E+00 -0.59441987719E+02  0.59441987933E+02  0.50400000000E-02 0.  1.
    5000001    1    1    2    0    0  0.20528877022E+03  0.76976516482E+02  0.10430216858E+04  0.10842343383E+04  0.19900000000E+03 0.  0.
   -5000001    1    1    2    0    0 -0.20528877022E+03 -0.76976516482E+02  0.52552876330E+03  0.60320008647E+03  0.19900000000E+03 0.  0.
<mgrwt>
<rscale>  0 0.62216109E+03</rscale>
<asrwt>0</asrwt>
<pdfrwt beam="1">  1        1 0.84917126E-02 0.62216109E+03</pdfrwt>
<pdfrwt beam="2">  1       -1 0.23257035E+00 0.62216109E+03</pdfrwt>
<totfact> 0.79246473E+01</totfact>
</mgrwt>
</event>
<event>
 4    1  0.6282309E-006  0.1167794E+04  0.7818608E-02  0.9141523E-01
          1   -1    0    0  501    0  0.00000000000E+00  0.00000000000E+00  0.21690964371E+04  0.21690964371E+04  0.50400000000E-02 0.  1.
         -1   -1    0    0    0  501 -0.00000000000E+00 -0.00000000000E+00 -0.15717873136E+03  0.15717873144E+03  0.50400000000E-02 0. -1.
    5000001    1    1    2    0    0  0.41790134276E+03  0.26943612148E+03  0.14692812006E+04  0.15638496098E+04  0.19900000000E+03 0.  0.
   -5000001    1    1    2    0    0 -0.41790134276E+03 -0.26943612148E+03  0.54263650518E+03  0.76242555872E+03  0.19900000000E+03 0.  0.
<mgrwt>
<rscale>  0 0.11677942E+04</rscale>
<asrwt>0</asrwt>
<pdfrwt beam="1">  1        1 0.30987093E+00 0.11677942E+04</pdfrwt>
<pdfrwt beam="2">  1       -1 0.22454104E-01 0.11677942E+04</pdfrwt>
<totfact> 0.48771126E+01</totfact>
</mgrwt>
</event>
<event>
 4    1  0.6282309E-006  0.8703389E+03  0.7818608E-02  0.9463438E-01
          1   -1    0    0  501    0  0.00000000000E+00  0.00000000000E+00  0.16082882934E+04  0.16082882934E+04  0.50400000000E-02 0.  1.
         -1   -1    0    0    0  501 -0.00000000000E+00 -0.00000000000E+00 -0.11774783723E+03  0.11774783734E+03  0.50400000000E-02 0. -1.
    5000001    1    1    2    0    0  0.36917455743E+03 -0.91498028238E+02  0.88703236193E+03  0.98543855930E+03  0.19900000000E+03 0.  0.
   -5000001    1    1    2    0    0 -0.36917455743E+03  0.91498028238E+02  0.60350809422E+03  0.74059757144E+03  0.19900000000E+03 0.  0.
<mgrwt>
<rscale>  0 0.87033894E+03</rscale>
<asrwt>0</asrwt>
<pdfrwt beam="1">  1        1 0.22975546E+00 0.87033894E+03</pdfrwt>
<pdfrwt beam="2">  1       -1 0.16821120E-01 0.87033894E+03</pdfrwt>
<totfact> 0.18209522E+02</totfact>
</mgrwt>
</event>
<event>
 4    1  0.6282309E-006  0.7867901E+03  0.7818608E-02  0.9579337E-01
         -1   -1    0    0    0  501 -0.00000000000E+00  0.00000000000E+00  0.97828835551E+02  0.97828835681E+02  0.50400000000E-02 0. -1.
          1   -1    0    0  501    0  0.00000000000E+00 -0.00000000000E+00 -0.15819433398E+04  0.15819433398E+04  0.50400000000E-02 0.  1.
    5000001    1    1    2    0    0 -0.31607167532E+03  0.80321926474E+02 -0.94240058034E+03  0.10168936865E+04  0.19900000000E+03 0.  0.
   -5000001    1    1    2    0    0  0.31607167532E+03 -0.80321926474E+02 -0.54171392393E+03  0.66287848901E+03  0.19900000000E+03 0.  0.
<mgrwt>
<rscale>  0 0.78679012E+03</rscale>
<asrwt>0</asrwt>
<pdfrwt beam="1">  1        1 0.22599189E+00 0.78679012E+03</pdfrwt>
<pdfrwt beam="2">  1       -1 0.13975549E-01 0.78679012E+03</pdfrwt>
<totfact> 0.25757920E+02</totfact>
</mgrwt>
</event>
<event>
 4    1  0.6282309E-006  0.7432317E+03  0.7818608E-02  0.9646029E-01
          1   -1    0    0  501    0  0.00000000000E+00  0.00000000000E+00  0.11018186886E+04  0.11018186886E+04  0.50400000000E-02 0.  1.
         -1   -1    0    0    0  501 -0.00000000000E+00 -0.00000000000E+00 -0.12533672177E+03  0.12533672187E+03  0.50400000000E-02 0. -1.
    5000001    1    1    2    0    0  0.30192930707E+03 -0.82335202313E+02  0.44927518099E+03  0.58257152373E+03  0.19900000000E+03 0.  0.
   -5000001    1    1    2    0    0 -0.30192930707E+03  0.82335202313E+02  0.52720678583E+03  0.64458388673E+03  0.19900000000E+03 0.  0.
<mgrwt>
<rscale>  0 0.74323171E+03</rscale>
<asrwt>0</asrwt>
<pdfrwt beam="1">  1        1 0.15740267E+00 0.74323171E+03</pdfrwt>
<pdfrwt beam="2">  1       -1 0.17905246E-01 0.74323171E+03</pdfrwt>
<totfact> 0.36069077E+02</totfact>
</mgrwt>
</event>
<event>
 4    1  0.6282309E-006  0.6266834E+03  0.7818608E-02  0.9851542E-01
         -1   -1    0    0    0  501 -0.00000000000E+00  0.00000000000E+00  0.13943771952E+03  0.13943771961E+03  0.50400000000E-02 0.  1.
          1   -1    0    0  501    0  0.00000000000E+00 -0.00000000000E+00 -0.70413526106E+03  0.70413526108E+03  0.50400000000E-02 0. -1.
    5000001    1    1    2    0    0  0.58435428298E+02 -0.23366289654E+03 -0.31445711154E+03  0.44328018622E+03  0.19900000000E+03 0.  0.
   -5000001    1    1    2    0    0 -0.58435428298E+02  0.23366289654E+03 -0.25024043000E+03  0.40029279447E+03  0.19900000000E+03 0.  0.
<mgrwt>
<rscale>  0 0.62668338E+03</rscale>
<asrwt>0</asrwt>
<pdfrwt beam="1">  1        1 0.10059075E+00 0.62668338E+03</pdfrwt>
<pdfrwt beam="2">  1       -1 0.19919675E-01 0.62668338E+03</pdfrwt>
<totfact> 0.62663754E+02</totfact>
</mgrwt>
</event>
<event>
 4    1  0.6282309E-006  0.8140130E+03  0.7818608E-02  0.9539952E-01
         -1   -1    0    0    0  501 -0.00000000000E+00  0.00000000000E+00  0.16025973401E+03  0.16025973409E+03  0.50400000000E-02 0. -1.
          1   -1    0    0  501    0  0.00000000000E+00 -0.00000000000E+00 -0.10336614345E+04  0.10336614345E+04  0.50400000000E-02 0.  1.
    5000001    1    1    2    0    0  0.22945152934E+03 -0.26147729689E+03 -0.54077450732E+03  0.67309468046E+03  0.19900000000E+03 0.  0.
   -5000001    1    1    2    0    0 -0.22945152934E+03  0.26147729689E+03 -0.33262719319E+03  0.52082648815E+03  0.19900000000E+03 0.  0.
<mgrwt>
<rscale>  0 0.81401304E+03</rscale>
<asrwt>0</asrwt>
<pdfrwt beam="1">  1        1 0.14766592E+00 0.81401304E+03</pdfrwt>
<pdfrwt beam="2">  1       -1 0.22894248E-01 0.81401304E+03</pdfrwt>
<totfact> 0.26707080E+02</totfact>
</mgrwt>
</event>
<event>
 4    1  0.6282309E-006  0.8067152E+03  0.7818608E-02  0.9550348E-01
         -1   -1    0    0    0  501 -0.00000000000E+00  0.00000000000E+00  0.15212085857E+03  0.15212085866E+03  0.50400000000E-02 0. -1.
          1   -1    0    0  501    0  0.00000000000E+00 -0.00000000000E+00 -0.10695268037E+04  0.10695268037E+04  0.50400000000E-02 0.  1.
    5000001    1    1    2    0    0  0.24779312683E+03  0.12810993361E+03 -0.78095238490E+03  0.85281956842E+03  0.19900000000E+03 0.  0.
   -5000001    1    1    2    0    0 -0.24779312683E+03 -0.12810993361E+03 -0.13645356023E+03  0.36882809396E+03  0.19900000000E+03 0.  0.
<mgrwt>
<rscale>  0 0.80671516E+03</rscale>
<asrwt>0</asrwt>
<pdfrwt beam="1">  1        1 0.15278954E+00 0.80671516E+03</pdfrwt>
<pdfrwt beam="2">  1       -1 0.21731552E-01 0.80671516E+03</pdfrwt>
<totfact> 0.27467903E+02</totfact>
</mgrwt>
</event>
<event>
 4    1  0.6282309E-006  0.7344436E+03  0.7818608E-02  0.9660077E-01
         -1   -1    0    0    0  501 -0.00000000000E+00  0.00000000000E+00  0.21230979405E+03  0.21230979411E+03  0.50400000000E-02 0. -1.
          1   -1    0    0  501    0  0.00000000000E+00 -0.00000000000E+00 -0.63516538733E+03  0.63516538735E+03  0.50400000000E-02 0.  1.
    5000001    1    1    2    0    0 -0.29600518557E+03  0.34925303788E+02 -0.30382628052E+03  0.46984067030E+03  0.19900000000E+03 0.  0.
   -5000001    1    1    2    0    0  0.29600518557E+03 -0.34925303788E+02 -0.11902931276E+03  0.37763451117E+03  0.19900000000E+03 0.  0.
<mgrwt>
<rscale>  0 0.73444355E+03</rscale>
<asrwt>0</asrwt>
<pdfrwt beam="1">  1        1 0.90737912E-01 0.73444355E+03</pdfrwt>
<pdfrwt beam="2">  1       -1 0.30329971E-01 0.73444355E+03</pdfrwt>
<totfact> 0.35470778E+02</totfact>
</mgrwt>
</event>
<event>
 4    1  0.6282309E-006  0.4737429E+03  0.7818608E-02  0.1020869E+00
          1   -1    0    0  501    0  0.00000000000E+00  0.00000000000E+00  0.45534996186E+03  0.45534996189E+03  0.50400000000E-02 0.  1.
         -1   -1    0    0    0  501 -0.00000000000E+00 -0.00000000000E+00 -0.12321968085E+03  0.12321968095E+03  0.50400000000E-02 0. -1.
    5000001    1    1    2    0    0 -0.10988213266E+03  0.41188405922E+02  0.10217830051E+03  0.25261031839E+03  0.19900000000E+03 0.  0.
   -5000001    1    1    2    0    0  0.10988213266E+03 -0.41188405922E+02  0.22995198051E+03  0.32595932446E+03  0.19900000000E+03 0.  0.
<mgrwt>
<rscale>  0 0.47374287E+03</rscale>
<asrwt>0</asrwt>
<pdfrwt beam="1">  1        1 0.65049995E-01 0.47374287E+03</pdfrwt>
<pdfrwt beam="2">  1       -1 0.17602811E-01 0.47374287E+03</pdfrwt>
<totfact> 0.14062125E+03</totfact>
</mgrwt>
</event>
<event>
 4    1  0.6282309E-006  0.5013615E+03  0.7818608E-02  0.1013424E+00
          1   -1    0    0  501    0  0.00000000000E+00  0.00000000000E+00  0.21369162115E+04  0.21369162115E+04  0.50400000000E-02 0.  1.
         -1   -1    0    0    0  501 -0.00000000000E+00 -0.00000000000E+00 -0.29407248272E+02  0.29407248704E+02  0.50400000000E-02 0. -1.
    5000001    1    1    2    0    0  0.95682366698E+02 -0.96902433597E+02  0.75769906708E+03  0.79514405813E+03  0.19900000000E+03 0.  0.
   -5000001    1    1    2    0    0 -0.95682366698E+02  0.96902433597E+02  0.13498098961E+04  0.13711794020E+04  0.19900000000E+03 0.  0.
<mgrwt>
<rscale>  0 0.50136145E+03</rscale>
<asrwt>0</asrwt>
<pdfrwt beam="1">  1        1 0.30527363E+00 0.50136145E+03</pdfrwt>
<pdfrwt beam="2">  1       -1 0.42010371E-02 0.50136145E+03</pdfrwt>
<totfact> 0.77342471E+02</totfact>
</mgrwt>
</event>
<event>
 4    1  0.6282309E-006  0.5866363E+03  0.7818608E-02  0.9933526E-01
         -1   -1    0    0    0  501 -0.00000000000E+00  0.00000000000E+00  0.34356798156E+02  0.34356798526E+02  0.50400000000E-02 0. -1.
          1   -1    0    0  501    0  0.00000000000E+00 -0.00000000000E+00 -0.25041777153E+04  0.25041777153E+04  0.50400000000E-02 0.  1.
    5000001    1    1    2    0    0  0.14598307006E+03  0.31899947276E+02 -0.19067654133E+04  0.19229362977E+04  0.19900000000E+03 0.  0.
   -5000001    1    1    2    0    0 -0.14598307006E+03 -0.31899947276E+02 -0.56305550381E+03  0.61559821617E+03  0.19900000000E+03 0.  0.
<mgrwt>
<rscale>  0 0.58663627E+03</rscale>
<asrwt>0</asrwt>
<pdfrwt beam="1">  1        1 0.35773956E+00 0.58663627E+03</pdfrwt>
<pdfrwt beam="2">  1       -1 0.49081156E-02 0.58663627E+03</pdfrwt>
<totfact> 0.35952825E+02</totfact>
</mgrwt>
</event>
<event>
 4    1  0.6282309E-006  0.4762960E+03  0.7818608E-02  0.1020158E+00
          1   -1    0    0  501    0  0.00000000000E+00  0.00000000000E+00  0.15398104939E+03  0.15398104947E+03  0.50400000000E-02 0.  1.
         -1   -1    0    0    0  501 -0.00000000000E+00 -0.00000000000E+00 -0.36832116461E+03  0.36832116465E+03  0.50400000000E-02 0. -1.
    5000001    1    1    2    0    0  0.12603930025E+03  0.34840775295E+02 -0.10311198159E+03  0.25948577144E+03  0.19900000000E+03 0.  0.
   -5000001    1    1    2    0    0 -0.12603930025E+03 -0.34840775295E+02 -0.11122813363E+03  0.26281644268E+03  0.19900000000E+03 0.  0.
<mgrwt>
<rscale>  0 0.47629604E+03</rscale>
<asrwt>0</asrwt>
<pdfrwt beam="1">  1        1 0.21997293E-01 0.47629604E+03</pdfrwt>
<pdfrwt beam="2">  1       -1 0.52617309E-01 0.47629604E+03</pdfrwt>
<totfact> 0.84567696E+02</totfact>
</mgrwt>
</event>
<event>
 4    1  0.6282309E-006  0.9098918E+03  0.7818608E-02  0.9413300E-01
          1   -1    0    0  501    0  0.00000000000E+00  0.00000000000E+00  0.61245503371E+03  0.61245503373E+03  0.50400000000E-02 0.  1.
         -1   -1    0    0    0  501 -0.00000000000E+00 -0.00000000000E+00 -0.33794443020E+03  0.33794443024E+03  0.50400000000E-02 0. -1.
    5000001    1    1    2    0    0  0.29589180563E+03  0.25442334426E+03  0.89384698626E+01  0.43813707328E+03  0.19900000000E+03 0.  0.
   -5000001    1    1    2    0    0 -0.29589180563E+03 -0.25442334426E+03  0.26557213365E+03  0.51226239069E+03  0.19900000000E+03 0.  0.
<mgrwt>
<rscale>  0 0.90989179E+03</rscale>
<asrwt>0</asrwt>
<pdfrwt beam="1">  1        1 0.87493575E-01 0.90989179E+03</pdfrwt>
<pdfrwt beam="2">  1       -1 0.48277776E-01 0.90989179E+03</pdfrwt>
<totfact> 0.15974641E+02</totfact>
</mgrwt>
</event>
<event>
 4    1  0.6282309E-006  0.1132856E+04  0.7818608E-02  0.9173747E-01
         -1   -1    0    0    0  501 -0.00000000000E+00  0.00000000000E+00  0.15593284545E+03  0.15593284554E+03  0.50400000000E-02 0. -1.
          1   -1    0    0  501    0  0.00000000000E+00 -0.00000000000E+00 -0.20575556760E+04  0.20575556760E+04  0.50400000000E-02 0.  1.
    5000001    1    1    2    0    0  0.46322396029E+03 -0.25534005789E+03 -0.10255855913E+04  0.11709832567E+04  0.19900000000E+03 0.  0.
   -5000001    1    1    2    0    0 -0.46322396029E+03  0.25534005789E+03 -0.87603723930E+03  0.10425052648E+04  0.19900000000E+03 0.  0.
<mgrwt>
<rscale>  0 0.11328557E+04</rscale>
<asrwt>0</asrwt>
<pdfrwt beam="1">  1        1 0.29393651E+00 0.11328557E+04</pdfrwt>
<pdfrwt beam="2">  1       -1 0.22276122E-01 0.11328557E+04</pdfrwt>
<totfact> 0.58225814E+01</totfact>
</mgrwt>
</event>
<event>
 4    1  0.6282309E-006  0.5362635E+03  0.7818608E-02  0.1004724E+00
         -1   -1    0    0    0  501 -0.00000000000E+00  0.00000000000E+00  0.15737408629E+03  0.15737408637E+03  0.50400000000E-02 0. -1.
          1   -1    0    0  501    0  0.00000000000E+00 -0.00000000000E+00 -0.45683908715E+03  0.45683908717E+03  0.50400000000E-02 0.  1.
    5000001    1    1    2    0    0 -0.37501716294E+02 -0.17399844694E+03 -0.12140266177E+03  0.29329412634E+03  0.19900000000E+03 0.  0.
   -5000001    1    1    2    0    0  0.37501716294E+02  0.17399844694E+03 -0.17806233908E+03  0.32091904721E+03  0.19900000000E+03 0.  0.
<mgrwt>
<rscale>  0 0.53626349E+03</rscale>
<asrwt>0</asrwt>
<pdfrwt beam="1">  1        1 0.65262726E-01 0.53626349E+03</pdfrwt>
<pdfrwt beam="2">  1       -1 0.22482012E-01 0.53626349E+03</pdfrwt>
<totfact> 0.93440597E+02</totfact>
</mgrwt>
</event>
<event>
 4    1  0.6282309E-006  0.5067677E+03  0.7818608E-02  0.1012027E+00
         -1   -1    0    0    0  501 -0.00000000000E+00  0.00000000000E+00  0.43328791124E+03  0.43328791127E+03  0.50400000000E-02 0. -1.
          1   -1    0    0  501    0  0.00000000000E+00 -0.00000000000E+00 -0.14817717523E+03  0.14817717532E+03  0.50400000000E-02 0.  1.
    5000001    1    1    2    0    0  0.95360872608E+02 -0.10282803015E+03  0.22316032654E+03  0.33025570571E+03  0.19900000000E+03 0.  0.
   -5000001    1    1    2    0    0 -0.95360872608E+02  0.10282803015E+03  0.61950409469E+02  0.25120938088E+03  0.19900000000E+03 0.  0.
<mgrwt>
<rscale>  0 0.50676771E+03</rscale>
<asrwt>0</asrwt>
<pdfrwt beam="1">  1        1 0.21168168E-01 0.50676771E+03</pdfrwt>
<pdfrwt beam="2">  1       -1 0.61898271E-01 0.50676771E+03</pdfrwt>
<totfact> 0.64962037E+02</totfact>
</mgrwt>
</event>
<event>
 4    1  0.6282309E-006  0.5732963E+03  0.7818608E-02  0.9962411E-01
         -1   -1    0    0    0  501 -0.00000000000E+00  0.00000000000E+00  0.90603526087E+02  0.90603526227E+02  0.50400000000E-02 0. -1.
          1   -1    0    0  501    0  0.00000000000E+00 -0.00000000000E+00 -0.90688702221E+03  0.90688702223E+03  0.50400000000E-02 0.  1.
    5000001    1    1    2    0    0  0.63650848739E+02 -0.18120750004E+03 -0.27702768578E+03  0.39144977622E+03  0.19900000000E+03 0.  0.
   -5000001    1    1    2    0    0 -0.63650848739E+02  0.18120750004E+03 -0.53925581035E+03  0.60604077223E+03  0.19900000000E+03 0.  0.
<mgrwt>
<rscale>  0 0.57329630E+03</rscale>
<asrwt>0</asrwt>
<pdfrwt beam="1">  1        1 0.12955528E+00 0.57329630E+03</pdfrwt>
<pdfrwt beam="2">  1       -1 0.12943361E-01 0.57329630E+03</pdfrwt>
<totfact> 0.85819409E+02</totfact>
</mgrwt>
</event>
<event>
 4    1  0.6282309E-006  0.7815659E+03  0.7818608E-02  0.9587090E-01
         -1   -1    0    0    0  501 -0.00000000000E+00  0.00000000000E+00  0.54907057995E+02  0.54907058226E+02  0.50400000000E-02 0. -1.
          1   -1    0    0  501    0  0.00000000000E+00 -0.00000000000E+00 -0.27812689392E+04  0.27812689392E+04  0.50400000000E-02 0.  1.
    5000001    1    1    2    0    0 -0.33383585429E+03 -0.39000783460E+02 -0.13198081175E+04  0.13763945313E+04  0.19900000000E+03 0.  0.
   -5000001    1    1    2    0    0  0.33383585429E+03  0.39000783460E+02 -0.14065537637E+04  0.14597814661E+04  0.19900000000E+03 0.  0.
<mgrwt>
<rscale>  0 0.78156585E+03</rscale>
<asrwt>0</asrwt>
<pdfrwt beam="1">  1        1 0.39732405E+00 0.78156585E+03</pdfrwt>
<pdfrwt beam="2">  1       -1 0.78438672E-02 0.78156585E+03</pdfrwt>
<totfact> 0.11430474E+02</totfact>
</mgrwt>
</event>
<event>
 4    1  0.6282309E-006  0.8364202E+03  0.7818608E-02  0.9508747E-01
          1   -1    0    0  501    0  0.00000000000E+00  0.00000000000E+00  0.33797797298E+04  0.33797797298E+04  0.50400000000E-02 0. -1.
         -1   -1    0    0    0  501 -0.00000000000E+00 -0.00000000000E+00 -0.51748840794E+02  0.51748841040E+02  0.50400000000E-02 0.  1.
    5000001    1    1    2    0    0 -0.40054363259E+02  0.21879805783E+03  0.46213360500E+03  0.55013217594E+03  0.19900000000E+03 0.  0.
   -5000001    1    1    2    0    0  0.40054363259E+02 -0.21879805783E+03  0.28658972840E+04  0.28813963949E+04  0.19900000000E+03 0.  0.
<mgrwt>
<rscale>  0 0.83642019E+03</rscale>
<asrwt>0</asrwt>
<pdfrwt beam="1">  1        1 0.48282581E+00 0.83642019E+03</pdfrwt>
<pdfrwt beam="2">  1       -1 0.73926896E-02 0.83642019E+03</pdfrwt>
<totfact> 0.50399713E+01</totfact>
</mgrwt>
</event>
<event>
 4    1  0.6282309E-006  0.5201321E+03  0.7818608E-02  0.1008654E+00
          1   -1    0    0  501    0  0.00000000000E+00  0.00000000000E+00  0.67455587801E+03  0.67455587803E+03  0.50400000000E-02 0.  1.
         -1   -1    0    0    0  501 -0.00000000000E+00 -0.00000000000E+00 -0.10026501401E+03  0.10026501414E+03  0.50400000000E-02 0. -1.
    5000001    1    1    2    0    0  0.21383900570E+02  0.15598731930E+03  0.37199130589E+03  0.45029750904E+03  0.19900000000E+03 0.  0.
   -5000001    1    1    2    0    0 -0.21383900570E+02 -0.15598731930E+03  0.20229955811E+03  0.32452338313E+03  0.19900000000E+03 0.  0.
<mgrwt>
<rscale>  0 0.52013212E+03</rscale>
<asrwt>0</asrwt>
<pdfrwt beam="1">  1        1 0.96365125E-01 0.52013212E+03</pdfrwt>
<pdfrwt beam="2">  1       -1 0.14323574E-01 0.52013212E+03</pdfrwt>
<totfact> 0.11456958E+03</totfact>
</mgrwt>
</event>
<event>
 4    1  0.6282309E-006  0.7149797E+03  0.7818608E-02  0.9691952E-01
         -1   -1    0    0    0  501 -0.00000000000E+00  0.00000000000E+00  0.25001657002E+03  0.25001657007E+03  0.50400000000E-02 0. -1.
          1   -1    0    0  501    0  0.00000000000E+00 -0.00000000000E+00 -0.51116213155E+03  0.51116213158E+03  0.50400000000E-02 0.  1.
    5000001    1    1    2    0    0 -0.17126648694E+03 -0.16747846943E+03  0.56317345170E+02  0.31647099494E+03  0.19900000000E+03 0.  0.
   -5000001    1    1    2    0    0  0.17126648694E+03  0.16747846943E+03 -0.31746290670E+03  0.44470770671E+03  0.19900000000E+03 0.  0.
<mgrwt>
<rscale>  0 0.71497973E+03</rscale>
<asrwt>0</asrwt>
<pdfrwt beam="1">  1        1 0.73023161E-01 0.71497973E+03</pdfrwt>
<pdfrwt beam="2">  1       -1 0.35716653E-01 0.71497973E+03</pdfrwt>
<totfact> 0.35992999E+02</totfact>
</mgrwt>
</event>
<event>
 4    1  0.6282309E-006  0.4422066E+03  0.7818608E-02  0.1030072E+00
          1   -1    0    0  501    0  0.00000000000E+00  0.00000000000E+00  0.12237370866E+04  0.12237370866E+04  0.50400000000E-02 0. -1.
         -1   -1    0    0    0  501 -0.00000000000E+00 -0.00000000000E+00 -0.39948672242E+02  0.39948672560E+02  0.50400000000E-02 0.  1.
    5000001    1    1    2    0    0 -0.57026932764E+01 -0.91285134940E+02  0.67858024898E+03  0.71304814064E+03  0.19900000000E+03 0.  0.
   -5000001    1    1    2    0    0  0.57026932764E+01  0.91285134940E+02  0.50520816540E+03  0.55063761854E+03  0.19900000000E+03 0.  0.
<mgrwt>
<rscale>  0 0.44220661E+03</rscale>
<asrwt>0</asrwt>
<pdfrwt beam="1">  1        1 0.17481956E+00 0.44220661E+03</pdfrwt>
<pdfrwt beam="2">  1       -1 0.57069541E-02 0.44220661E+03</pdfrwt>
<totfact> 0.18298797E+03</totfact>
</mgrwt>
</event>
<event>
 4    1  0.6282309E-006  0.4880060E+03  0.7818608E-02  0.1016958E+00
          1   -1    0    0  501    0  0.00000000000E+00  0.00000000000E+00  0.59673649771E+03  0.59673649773E+03  0.50400000000E-02 0. -1.
         -1   -1    0    0    0  501 -0.00000000000E+00 -0.00000000000E+00 -0.99771769057E+02  0.99771769184E+02  0.50400000000E-02 0.  1.
    5000001    1    1    2    0    0 -0.11615676480E+02 -0.14032591627E+03  0.26346304623E+03  0.35894298077E+03  0.19900000000E+03 0.  0.
   -5000001    1    1    2    0    0  0.11615676480E+02  0.14032591627E+03  0.23350168242E+03  0.33756528615E+03  0.19900000000E+03 0.  0.
<mgrwt>
<rscale>  0 0.48800597E+03</rscale>
<asrwt>0</asrwt>
<pdfrwt beam="1">  1        1 0.85248072E-01 0.48800597E+03</pdfrwt>
<pdfrwt beam="2">  1       -1 0.14253110E-01 0.48800597E+03</pdfrwt>
<totfact> 0.13737226E+03</totfact>
</mgrwt>
</event>
<event>
 4    1  0.6282309E-006  0.5401115E+03  0.7818608E-02  0.1003809E+00
         -1   -1    0    0    0  501 -0.00000000000E+00  0.00000000000E+00  0.69087971039E+02  0.69087971223E+02  0.50400000000E-02 0. -1.
          1   -1    0    0  501    0  0.00000000000E+00 -0.00000000000E+00 -0.10556121039E+04  0.10556121040E+04  0.50400000000E-02 0.  1.
    5000001    1    1    2    0    0 -0.16989351101E+03  0.59989567346E+02 -0.55456044182E+03  0.61611755121E+03  0.19900000000E+03 0.  0.
   -5000001    1    1    2    0    0  0.16989351101E+03 -0.59989567346E+02 -0.43196369109E+03  0.50858252398E+03  0.19900000000E+03 0.  0.
<mgrwt>
<rscale>  0 0.54011146E+03</rscale>
<asrwt>0</asrwt>
<pdfrwt beam="1">  1        1 0.15080172E+00 0.54011146E+03</pdfrwt>
<pdfrwt beam="2">  1       -1 0.98697108E-02 0.54011146E+03</pdfrwt>
<totfact> 0.10231191E+03</totfact>
</mgrwt>
</event>
<event>
 4    1  0.6282309E-006  0.4681331E+03  0.7818608E-02  0.1022448E+00
          1   -1    0    0  501    0  0.00000000000E+00  0.00000000000E+00  0.64632473431E+03  0.64632473433E+03  0.50400000000E-02 0.  1.
         -1   -1    0    0    0  501 -0.00000000000E+00 -0.00000000000E+00 -0.84767225263E+02  0.84767225413E+02  0.50400000000E-02 0. -1.
    5000001    1    1    2    0    0 -0.61911642574E+02  0.43782705812E+02  0.12907347572E+03  0.24901995693E+03  0.19900000000E+03 0.  0.
   -5000001    1    1    2    0    0  0.61911642574E+02 -0.43782705812E+02  0.43248403332E+03  0.48207200281E+03  0.19900000000E+03 0.  0.
<mgrwt>
<rscale>  0 0.46813312E+03</rscale>
<asrwt>0</asrwt>
<pdfrwt beam="1">  1        1 0.92332104E-01 0.46813312E+03</pdfrwt>
<pdfrwt beam="2">  1       -1 0.12109604E-01 0.46813312E+03</pdfrwt>
<totfact> 0.15929673E+03</totfact>
</mgrwt>
</event>
<event>
 4    1  0.6282309E-006  0.6611464E+03  0.7818608E-02  0.9786086E-01
         -1   -1    0    0    0  501 -0.00000000000E+00  0.00000000000E+00  0.15241421676E+03  0.15241421684E+03  0.50400000000E-02 0. -1.
          1   -1    0    0  501    0  0.00000000000E+00 -0.00000000000E+00 -0.71698464366E+03  0.71698464367E+03  0.50400000000E-02 0.  1.
    5000001    1    1    2    0    0 -0.22427525379E+03 -0.10980789638E+03 -0.39479530075E+03  0.50776125597E+03  0.19900000000E+03 0.  0.
   -5000001    1    1    2    0    0  0.22427525379E+03  0.10980789638E+03 -0.16977512615E+03  0.36163760455E+03  0.19900000000E+03 0.  0.
<mgrwt>
<rscale>  0 0.66114644E+03</rscale>
<asrwt>0</asrwt>
<pdfrwt beam="1">  1        1 0.10242638E+00 0.66114644E+03</pdfrwt>
<pdfrwt beam="2">  1       -1 0.21773460E-01 0.66114644E+03</pdfrwt>
<totfact> 0.52539568E+02</totfact>
</mgrwt>
</event>
<event>
 4    1  0.6282309E-006  0.9880931E+03  0.7818608E-02  0.9321701E-01
          1   -1    0    0  501    0  0.00000000000E+00  0.00000000000E+00  0.61495986059E+03  0.61495986061E+03  0.50400000000E-02 0.  1.
         -1   -1    0    0    0  501 -0.00000000000E+00 -0.00000000000E+00 -0.39690716690E+03  0.39690716694E+03  0.50400000000E-02 0. -1.
    5000001    1    1    2    0    0  0.33536893165E+03 -0.29076099361E+03  0.19751548274E+03  0.52500251585E+03  0.19900000000E+03 0.  0.
   -5000001    1    1    2    0    0 -0.33536893165E+03  0.29076099361E+03  0.20537210951E+02  0.48686451170E+03  0.19900000000E+03 0.  0.
<mgrwt>
<rscale>  0 0.98809306E+03</rscale>
<asrwt>0</asrwt>
<pdfrwt beam="1">  1        1 0.87851408E-01 0.98809306E+03</pdfrwt>
<pdfrwt beam="2">  1       -1 0.56701024E-01 0.98809306E+03</pdfrwt>
<totfact> 0.11618175E+02</totfact>
</mgrwt>
</event>
<event>
 4    1  0.6282309E-006  0.6926559E+03  0.7818608E-02  0.9729875E-01
          1   -1    0    0  501    0  0.00000000000E+00  0.00000000000E+00  0.33563747067E+03  0.33563747071E+03  0.50400000000E-02 0. -1.
         -1   -1    0    0    0  501 -0.00000000000E+00 -0.00000000000E+00 -0.35735898409E+03  0.35735898413E+03  0.50400000000E-02 0.  1.
    5000001    1    1    2    0    0  0.22109526340E+03 -0.99317123358E+02 -0.15788557224E+03  0.35110662257E+03  0.19900000000E+03 0.  0.
   -5000001    1    1    2    0    0 -0.22109526340E+03  0.99317123358E+02  0.13616405882E+03  0.34188983226E+03  0.19900000000E+03 0.  0.
<mgrwt>
<rscale>  0 0.69265595E+03</rscale>
<asrwt>0</asrwt>
<pdfrwt beam="1">  1        1 0.47948210E-01 0.69265595E+03</pdfrwt>
<pdfrwt beam="2">  1       -1 0.51051283E-01 0.69265595E+03</pdfrwt>
<totfact> 0.32561180E+02</totfact>
</mgrwt>
</event>
<event>
 4    1  0.6282309E-006  0.5464353E+03  0.7818608E-02  0.1002322E+00
          1   -1    0    0  501    0  0.00000000000E+00  0.00000000000E+00  0.42557848086E+03  0.42557848089E+03  0.50400000000E-02 0.  1.
         -1   -1    0    0    0  501 -0.00000000000E+00 -0.00000000000E+00 -0.17540333154E+03  0.17540333161E+03  0.50400000000E-02 0. -1.
    5000001    1    1    2    0    0 -0.81211257345E+02  0.68936147878E+02 -0.44225878427E+02  0.23000954138E+03  0.19900000000E+03 0.  0.
   -5000001    1    1    2    0    0  0.81211257345E+02 -0.68936147878E+02  0.29440102774E+03  0.37097227112E+03  0.19900000000E+03 0.  0.
<mgrwt>
<rscale>  0 0.54643530E+03</rscale>
<asrwt>0</asrwt>
<pdfrwt beam="1">  1        1 0.60796926E-01 0.54643530E+03</pdfrwt>
<pdfrwt beam="2">  1       -1 0.25057619E-01 0.54643530E+03</pdfrwt>
<totfact> 0.85451619E+02</totfact>
</mgrwt>
</event>
<event>
 4    1  0.6282309E-006  0.8192787E+03  0.7818608E-02  0.9532524E-01
         -1   -1    0    0    0  501 -0.00000000000E+00  0.00000000000E+00  0.17397671068E+03  0.17397671076E+03  0.50400000000E-02 0. -1.
          1   -1    0    0  501    0  0.00000000000E+00 -0.00000000000E+00 -0.96452224886E+03  0.96452224888E+03  0.50400000000E-02 0.  1.
    5000001    1    1    2    0    0 -0.95353409962E+02 -0.33785694108E+03 -0.29736681655E+03  0.50126600624E+03  0.19900000000E+03 0.  0.
   -5000001    1    1    2    0    0  0.95353409962E+02  0.33785694108E+03 -0.49317872163E+03  0.63723295339E+03  0.19900000000E+03 0.  0.
<mgrwt>
<rscale>  0 0.81927873E+03</rscale>
<asrwt>0</asrwt>
<pdfrwt beam="1">  1        1 0.13778889E+00 0.81927873E+03</pdfrwt>
<pdfrwt beam="2">  1       -1 0.24853816E-01 0.81927873E+03</pdfrwt>
<totfact> 0.26154782E+02</totfact>
</mgrwt>
</event>
<event>
 4    1  0.6282309E-006  0.1230385E+04  0.7818608E-02  0.9086669E-01
         -1   -1    0    0    0  501 -0.00000000000E+00  0.00000000000E+00  0.63835323929E+03  0.63835323931E+03  0.50400000000E-02 0. -1.
          1   -1    0    0  501    0  0.00000000000E+00 -0.00000000000E+00 -0.59287188141E+03  0.59287188143E+03  0.50400000000E-02 0.  1.
    5000001    1    1    2    0    0  0.41117846038E+03 -0.27175690338E+03 -0.28721454574E+03  0.60416283906E+03  0.19900000000E+03 0.  0.
   -5000001    1    1    2    0    0 -0.41117846038E+03  0.27175690338E+03  0.33269590362E+03  0.62706228168E+03  0.19900000000E+03 0.  0.
<mgrwt>
<rscale>  0 0.12303848E+04</rscale>
<asrwt>0</asrwt>
<pdfrwt beam="1">  1        1 0.84695982E-01 0.12303848E+04</pdfrwt>
<pdfrwt beam="2">  1       -1 0.91193321E-01 0.12303848E+04</pdfrwt>
<totfact> 0.44970024E+01</totfact>
</mgrwt>
</event>
<event>
 4    1  0.6282309E-006  0.8274596E+03  0.7818608E-02  0.9521100E-01
         -1   -1    0    0    0  501 -0.00000000000E+00  0.00000000000E+00  0.21483833024E+03  0.21483833029E+03  0.50400000000E-02 0. -1.
          1   -1    0    0  501    0  0.00000000000E+00 -0.00000000000E+00 -0.79674949328E+03  0.79674949329E+03  0.50400000000E-02 0.  1.
    5000001    1    1    2    0    0 -0.26677011941E+03 -0.15251330836E+03 -0.55339250612E+02  0.37025671971E+03  0.19900000000E+03 0.  0.
   -5000001    1    1    2    0    0  0.26677011941E+03  0.15251330836E+03 -0.52657191243E+03  0.64133110387E+03  0.19900000000E+03 0.  0.
<mgrwt>
<rscale>  0 0.82745956E+03</rscale>
<asrwt>0</asrwt>
<pdfrwt beam="1">  1        1 0.11382136E+00 0.82745956E+03</pdfrwt>
<pdfrwt beam="2">  1       -1 0.30691190E-01 0.82745956E+03</pdfrwt>
<totfact> 0.24712875E+02</totfact>
</mgrwt>
</event>
<event>
 4    1  0.6282309E-006  0.8471137E+03  0.7818608E-02  0.9494219E-01
         -1   -1    0    0    0  501 -0.00000000000E+00  0.00000000000E+00  0.26143321016E+03  0.26143321021E+03  0.50400000000E-02 0. -1.
          1   -1    0    0  501    0  0.00000000000E+00 -0.00000000000E+00 -0.68621895373E+03  0.68621895375E+03  0.50400000000E-02 0.  1.
    5000001    1    1    2    0    0  0.18765345632E+03  0.15809012615E+03 -0.52799867845E+03  0.61529660498E+03  0.19900000000E+03 0.  0.
   -5000001    1    1    2    0    0 -0.18765345632E+03 -0.15809012615E+03  0.10321293488E+03  0.33235555897E+03  0.19900000000E+03 0.  0.
<mgrwt>
<rscale>  0 0.84711374E+03</rscale>
<asrwt>0</asrwt>
<pdfrwt beam="1">  1        1 0.98031279E-01 0.84711374E+03</pdfrwt>
<pdfrwt beam="2">  1       -1 0.37347602E-01 0.84711374E+03</pdfrwt>
<totfact> 0.21819478E+02</totfact>
</mgrwt>
</event>
<event>
 4    1  0.6282309E-006  0.6783722E+03  0.7818608E-02  0.9754951E-01
          1   -1    0    0  501    0  0.00000000000E+00  0.00000000000E+00  0.83197358980E+03  0.83197358982E+03  0.50400000000E-02 0.  1.
         -1   -1    0    0    0  501 -0.00000000000E+00 -0.00000000000E+00 -0.13828228517E+03  0.13828228526E+03  0.50400000000E-02 0. -1.
    5000001    1    1    2    0    0  0.25810175489E+00 -0.20646587895E+03  0.60594969387E+03  0.67037620579E+03  0.19900000000E+03 0.  0.
   -5000001    1    1    2    0    0 -0.25810175489E+00  0.20646587895E+03  0.87741610763E+02  0.29987966928E+03  0.19900000000E+03 0.  0.
<mgrwt>
<rscale>  0 0.67837220E+03</rscale>
<asrwt>0</asrwt>
<pdfrwt beam="1">  1        1 0.11885336E+00 0.67837220E+03</pdfrwt>
<pdfrwt beam="2">  1       -1 0.19754613E-01 0.67837220E+03</pdfrwt>
<totfact> 0.49256659E+02</totfact>
</mgrwt>
</event>
<event>
 4    1  0.6282309E-006  0.9628686E+03  0.7818608E-02  0.9350234E-01
         -1   -1    0    0    0  501 -0.00000000000E+00  0.00000000000E+00  0.92445757088E+02  0.92445757226E+02  0.50400000000E-02 0. -1.
          1   -1    0    0  501    0  0.00000000000E+00 -0.00000000000E+00 -0.25071888829E+04  0.25071888829E+04  0.50400000000E-02 0.  1.
    5000001    1    1    2    0    0  0.25770556750E+03  0.32287362119E+03 -0.16034221771E+04  0.16676999769E+04  0.19900000000E+03 0.  0.
   -5000001    1    1    2    0    0 -0.25770556750E+03 -0.32287362119E+03 -0.81132094864E+03  0.93193466320E+03  0.19900000000E+03 0.  0.
<mgrwt>
<rscale>  0 0.96286858E+03</rscale>
<asrwt>0</asrwt>
<pdfrwt beam="1">  1        1 0.35816980E+00 0.96286858E+03</pdfrwt>
<pdfrwt beam="2">  1       -1 0.13206538E-01 0.96286858E+03</pdfrwt>
<totfact> 0.73223712E+01</totfact>
</mgrwt>
</event>
<event>
 4    1  0.6282309E-006  0.5297170E+03  0.7818608E-02  0.1006301E+00
          1   -1    0    0  501    0  0.00000000000E+00  0.00000000000E+00  0.23794834828E+03  0.23794834833E+03  0.50400000000E-02 0.  1.
         -1   -1    0    0    0  501 -0.00000000000E+00 -0.00000000000E+00 -0.29481202970E+03  0.29481202974E+03  0.50400000000E-02 0. -1.
    5000001    1    1    2    0    0  0.52835957961E+02 -0.15390180258E+03  0.35744100689E+02  0.25953042986E+03  0.19900000000E+03 0.  0.
   -5000001    1    1    2    0    0 -0.52835957961E+02  0.15390180258E+03 -0.92607782107E+02  0.27322994821E+03  0.19900000000E+03 0.  0.
<mgrwt>
<rscale>  0 0.52971704E+03</rscale>
<asrwt>0</asrwt>
<pdfrwt beam="1">  1        1 0.33992621E-01 0.52971704E+03</pdfrwt>
<pdfrwt beam="2">  1       -1 0.42116004E-01 0.52971704E+03</pdfrwt>
<totfact> 0.72824855E+02</totfact>
</mgrwt>
</event>
<event>
 4    1  0.6282309E-006  0.5721116E+03  0.7818608E-02  0.9965017E-01
         -1   -1    0    0    0  501 -0.00000000000E+00  0.00000000000E+00  0.32010284853E+02  0.32010285250E+02  0.50400000000E-02 0. -1.
          1   -1    0    0  501    0  0.00000000000E+00 -0.00000000000E+00 -0.25563009199E+04  0.25563009199E+04  0.50400000000E-02 0.  1.
    5000001    1    1    2    0    0 -0.76578214864E+02 -0.13841520709E+03 -0.66874256916E+03  0.71543037142E+03  0.19900000000E+03 0.  0.
   -5000001    1    1    2    0    0  0.76578214864E+02  0.13841520709E+03 -0.18555480659E+04  0.18728808337E+04  0.19900000000E+03 0.  0.
<mgrwt>
<rscale>  0 0.57211160E+03</rscale>
<asrwt>0</asrwt>
<pdfrwt beam="1">  1        1 0.36518572E+00 0.57211160E+03</pdfrwt>
<pdfrwt beam="2">  1       -1 0.45728995E-02 0.57211160E+03</pdfrwt>
<totfact> 0.37211688E+02</totfact>
</mgrwt>
</event>
<event>
 4    1  0.6282309E-006  0.4710331E+03  0.7818608E-02  0.1021629E+00
          1   -1    0    0  501    0  0.00000000000E+00  0.00000000000E+00  0.12092419937E+03  0.12092419947E+03  0.50400000000E-02 0. -1.
         -1   -1    0    0    0  501 -0.00000000000E+00 -0.00000000000E+00 -0.45870085651E+03  0.45870085654E+03  0.50400000000E-02 0.  1.
    5000001    1    1    2    0    0 -0.78874474013E+02 -0.96091791633E+02 -0.14390446141E+03  0.27525317271E+03  0.19900000000E+03 0.  0.
   -5000001    1    1    2    0    0  0.78874474013E+02  0.96091791633E+02 -0.19387219573E+03  0.30437188330E+03  0.19900000000E+03 0.  0.
<mgrwt>
<rscale>  0 0.47103305E+03</rscale>
<asrwt>0</asrwt>
<pdfrwt beam="1">  1        1 0.17274886E-01 0.47103305E+03</pdfrwt>
<pdfrwt beam="2">  1       -1 0.65528693E-01 0.47103305E+03</pdfrwt>
<totfact> 0.75847284E+02</totfact>
</mgrwt>
</event>
<event>
 4    1  0.6282309E-006  0.6302347E+03  0.7818608E-02  0.9844591E-01
         -1   -1    0    0    0  501 -0.00000000000E+00  0.00000000000E+00  0.21947391517E+03  0.21947391523E+03  0.50400000000E-02 0. -1.
          1   -1    0    0  501    0  0.00000000000E+00 -0.00000000000E+00 -0.45244071393E+03  0.45244071395E+03  0.50400000000E-02 0.  1.
    5000001    1    1    2    0    0  0.14929771280E+03 -0.15115088770E+03 -0.24513506551E+03  0.38056352721E+03  0.19900000000E+03 0.  0.
   -5000001    1    1    2    0    0 -0.14929771280E+03  0.15115088770E+03  0.12168266756E+02  0.29135110197E+03  0.19900000000E+03 0.  0.
<mgrwt>
<rscale>  0 0.63023467E+03</rscale>
<asrwt>0</asrwt>
<pdfrwt beam="1">  1        1 0.64634388E-01 0.63023467E+03</pdfrwt>
<pdfrwt beam="2">  1       -1 0.31353416E-01 0.63023467E+03</pdfrwt>
<totfact> 0.53511707E+02</totfact>
</mgrwt>
</event>
<event>
 4    1  0.6282309E-006  0.5430774E+03  0.7818608E-02  0.1003109E+00
         -1   -1    0    0    0  501 -0.00000000000E+00  0.00000000000E+00  0.47995170291E+02  0.47995170556E+02  0.50400000000E-02 0. -1.
          1   -1    0    0  501    0  0.00000000000E+00 -0.00000000000E+00 -0.15362640137E+04  0.15362640137E+04  0.50400000000E-02 0.  1.
    5000001    1    1    2    0    0  0.85533592702E+02  0.94478851162E+02 -0.35395014618E+03  0.42558660080E+03  0.19900000000E+03 0.  0.
   -5000001    1    1    2    0    0 -0.85533592702E+02 -0.94478851162E+02 -0.11343186973E+04  0.11586725835E+04  0.19900000000E+03 0.  0.
<mgrwt>
<rscale>  0 0.54307735E+03</rscale>
<asrwt>0</asrwt>
<pdfrwt beam="1">  1        1 0.21946626E+00 0.54307735E+03</pdfrwt>
<pdfrwt beam="2">  1       -1 0.68564539E-02 0.54307735E+03</pdfrwt>
<totfact> 0.86056402E+02</totfact>
</mgrwt>
</event>
<event>
 4    1  0.6282309E-006  0.5491828E+03  0.7818608E-02  0.1001683E+00
          1   -1    0    0  501    0  0.00000000000E+00  0.00000000000E+00  0.44669979633E+03  0.44669979636E+03  0.50400000000E-02 0.  1.
         -1   -1    0    0    0  501 -0.00000000000E+00 -0.00000000000E+00 -0.16879441158E+03  0.16879441166E+03  0.50400000000E-02 0. -1.
    5000001    1    1    2    0    0 -0.12549806810E+03  0.14148285748E+03  0.13258657590E+03  0.30487270158E+03  0.19900000000E+03 0.  0.
   -5000001    1    1    2    0    0  0.12549806810E+03 -0.14148285748E+03  0.14531880885E+03  0.31062150644E+03  0.19900000000E+03 0.  0.
<mgrwt>
<rscale>  0 0.54918277E+03</rscale>
<asrwt>0</asrwt>
<pdfrwt beam="1">  1        1 0.63814257E-01 0.54918277E+03</pdfrwt>
<pdfrwt beam="2">  1       -1 0.24113487E-01 0.54918277E+03</pdfrwt>
<totfact> 0.85549712E+02</totfact>
</mgrwt>
</event>
<event>
 4    1  0.6282309E-006  0.1004143E+04  0.7818608E-02  0.9304013E-01
         -1   -1    0    0    0  501 -0.00000000000E+00  0.00000000000E+00  0.30090229733E+03  0.30090229737E+03  0.50400000000E-02 0. -1.
          1   -1    0    0  501    0  0.00000000000E+00 -0.00000000000E+00 -0.83773238000E+03  0.83773238001E+03  0.50400000000E-02 0.  1.
    5000001    1    1    2    0    0  0.43367805262E+03  0.48213822437E+02 -0.99944742488E+02  0.48988894410E+03  0.19900000000E+03 0.  0.
   -5000001    1    1    2    0    0 -0.43367805262E+03 -0.48213822437E+02 -0.43688534018E+03  0.64874573329E+03  0.19900000000E+03 0.  0.
<mgrwt>
<rscale>  0 0.10041426E+04</rscale>
<asrwt>0</asrwt>
<pdfrwt beam="1">  1        1 0.11967605E+00 0.10041426E+04</pdfrwt>
<pdfrwt beam="2">  1       -1 0.42986043E-01 0.10041426E+04</pdfrwt>
<totfact> 0.12351838E+02</totfact>
</mgrwt>
</event>
<event>
 4    1  0.6282309E-006  0.6193287E+03  0.7818608E-02  0.9866097E-01
         -1   -1    0    0    0  501 -0.00000000000E+00  0.00000000000E+00  0.89863165067E+02  0.89863165209E+02  0.50400000000E-02 0.  1.
          1   -1    0    0  501    0  0.00000000000E+00 -0.00000000000E+00 -0.10670890924E+04  0.10670890924E+04  0.50400000000E-02 0. -1.
    5000001    1    1    2    0    0  0.21344771262E+03 -0.67076551270E+02 -0.63608221423E+03  0.70303682194E+03  0.19900000000E+03 0.  0.
   -5000001    1    1    2    0    0 -0.21344771262E+03  0.67076551270E+02 -0.34114371309E+03  0.45391543566E+03  0.19900000000E+03 0.  0.
<mgrwt>
<rscale>  0 0.61932868E+03</rscale>
<asrwt>0</asrwt>
<pdfrwt beam="1">  1        1 0.15244129E+00 0.61932868E+03</pdfrwt>
<pdfrwt beam="2">  1       -1 0.12837596E-01 0.61932868E+03</pdfrwt>
<totfact> 0.65958010E+02</totfact>
</mgrwt>
</event>
<event>
 4    1  0.6282309E-006  0.7178737E+03  0.7818608E-02  0.9687145E-01
         -1   -1    0    0    0  501 -0.00000000000E+00  0.00000000000E+00  0.13129477236E+03  0.13129477245E+03  0.50400000000E-02 0. -1.
          1   -1    0    0  501    0  0.00000000000E+00 -0.00000000000E+00 -0.98127044085E+03  0.98127044087E+03  0.50400000000E-02 0.  1.
    5000001    1    1    2    0    0  0.17947531489E+03 -0.21290473353E+03 -0.59258821918E+03  0.68432566204E+03  0.19900000000E+03 0.  0.
   -5000001    1    1    2    0    0 -0.17947531489E+03  0.21290473353E+03 -0.25738744931E+03  0.42823955128E+03  0.19900000000E+03 0.  0.
<mgrwt>
<rscale>  0 0.71787375E+03</rscale>
<asrwt>0</asrwt>
<pdfrwt beam="1">  1        1 0.14018149E+00 0.71787375E+03</pdfrwt>
<pdfrwt beam="2">  1       -1 0.18756397E-01 0.71787375E+03</pdfrwt>
<totfact> 0.40963598E+02</totfact>
</mgrwt>
</event>
<event>
 4    1  0.6282309E-006  0.4304636E+03  0.7818608E-02  0.1033714E+00
          1   -1    0    0  501    0  0.00000000000E+00  0.00000000000E+00  0.26603740839E+03  0.26603740844E+03  0.50400000000E-02 0.  1.
         -1   -1    0    0    0  501 -0.00000000000E+00 -0.00000000000E+00 -0.17412861477E+03  0.17412861484E+03  0.50400000000E-02 0. -1.
    5000001    1    1    2    0    0  0.59542397291E+02 -0.41943367858E+02  0.74332526647E+01  0.21203961052E+03  0.19900000000E+03 0.  0.
   -5000001    1    1    2    0    0 -0.59542397291E+02  0.41943367858E+02  0.84475540954E+02  0.22812641277E+03  0.19900000000E+03 0.  0.
<mgrwt>
<rscale>  0 0.43046359E+03</rscale>
<asrwt>0</asrwt>
<pdfrwt beam="1">  1        1 0.38005344E-01 0.43046359E+03</pdfrwt>
<pdfrwt beam="2">  1       -1 0.24875516E-01 0.43046359E+03</pdfrwt>
<totfact> 0.15837491E+03</totfact>
</mgrwt>
</event>
<event>
 4    1  0.6282309E-006  0.4672525E+03  0.7818608E-02  0.1022699E+00
          1   -1    0    0  501    0  0.00000000000E+00  0.00000000000E+00  0.18357869659E+04  0.18357869659E+04  0.50400000000E-02 0.  1.
         -1   -1    0    0    0  501 -0.00000000000E+00 -0.00000000000E+00 -0.29731791087E+02  0.29731791514E+02  0.50400000000E-02 0. -1.
    5000001    1    1    2    0    0 -0.91192887676E+02  0.81632510637E+02  0.90113208767E+03  0.93092429821E+03  0.19900000000E+03 0.  0.
   -5000001    1    1    2    0    0  0.91192887676E+02 -0.81632510637E+02  0.90492308710E+03  0.93459445918E+03  0.19900000000E+03 0.  0.
<mgrwt>
<rscale>  0 0.46725254E+03</rscale>
<asrwt>0</asrwt>
<pdfrwt beam="1">  1        1 0.26225534E+00 0.46725254E+03</pdfrwt>
<pdfrwt beam="2">  1       -1 0.42473978E-02 0.46725254E+03</pdfrwt>
<totfact> 0.11671293E+03</totfact>
</mgrwt>
</event>
<event>
 4    1  0.6282309E-006  0.6797549E+03  0.7818608E-02  0.9752494E-01
          1   -1    0    0  501    0  0.00000000000E+00  0.00000000000E+00  0.13748325316E+04  0.13748325316E+04  0.50400000000E-02 0.  1.
         -1   -1    0    0    0  501 -0.00000000000E+00 -0.00000000000E+00 -0.84022353731E+02  0.84022353882E+02  0.50400000000E-02 0. -1.
    5000001    1    1    2    0    0  0.17453218010E+03  0.20888601092E+03  0.73698348655E+03  0.81045697412E+03  0.19900000000E+03 0.  0.
   -5000001    1    1    2    0    0 -0.17453218010E+03 -0.20888601092E+03  0.55382669128E+03  0.64839791133E+03  0.19900000000E+03 0.  0.
<mgrwt>
<rscale>  0 0.67975485E+03</rscale>
<asrwt>0</asrwt>
<pdfrwt beam="1">  1        1 0.19640464E+00 0.67975485E+03</pdfrwt>
<pdfrwt beam="2">  1       -1 0.12003194E-01 0.67975485E+03</pdfrwt>
<totfact> 0.45095946E+02</totfact>
</mgrwt>
</event>
<event>
 4    1  0.6282309E-006  0.6385147E+03  0.7818608E-02  0.9828572E-01
          1   -1    0    0  501    0  0.00000000000E+00  0.00000000000E+00  0.13954257529E+04  0.13954257529E+04  0.50400000000E-02 0.  1.
         -1   -1    0    0    0  501 -0.00000000000E+00 -0.00000000000E+00 -0.73042414630E+02  0.73042414804E+02  0.50400000000E-02 0. -1.
    5000001    1    1    2    0    0  0.17789194064E+03 -0.14510565421E+03  0.43558574149E+03  0.53107168218E+03  0.19900000000E+03 0.  0.
   -5000001    1    1    2    0    0 -0.17789194064E+03  0.14510565421E+03  0.88679759681E+03  0.93739648556E+03  0.19900000000E+03 0.  0.
<mgrwt>
<rscale>  0 0.63851473E+03</rscale>
<asrwt>0</asrwt>
<pdfrwt beam="1">  1        1 0.19934652E+00 0.63851473E+03</pdfrwt>
<pdfrwt beam="2">  1       -1 0.10434631E-01 0.63851473E+03</pdfrwt>
<totfact> 0.54743901E+02</totfact>
</mgrwt>
</event>
<event>
 4    1  0.6282309E-006  0.5428233E+03  0.7818608E-02  0.1003169E+00
          1   -1    0    0  501    0  0.00000000000E+00  0.00000000000E+00  0.28865105531E+03  0.28865105535E+03  0.50400000000E-02 0.  1.
         -1   -1    0    0    0  501 -0.00000000000E+00 -0.00000000000E+00 -0.25520181968E+03  0.25520181973E+03  0.50400000000E-02 0. -1.
    5000001    1    1    2    0    0  0.91614280230E+02  0.96312720612E+02  0.14500637057E+03  0.27981630403E+03  0.19900000000E+03 0.  0.
   -5000001    1    1    2    0    0 -0.91614280230E+02 -0.96312720612E+02 -0.11155713495E+03  0.26403657105E+03  0.19900000000E+03 0.  0.
<mgrwt>
<rscale>  0 0.54282327E+03</rscale>
<asrwt>0</asrwt>
<pdfrwt beam="1">  1        1 0.41235865E-01 0.54282327E+03</pdfrwt>
<pdfrwt beam="2">  1       -1 0.36457403E-01 0.54282327E+03</pdfrwt>
<totfact> 0.73682328E+02</totfact>
</mgrwt>
</event>
<event>
 4    1  0.6282309E-006  0.7182395E+03  0.7818608E-02  0.9686539E-01
          1   -1    0    0  501    0  0.00000000000E+00  0.00000000000E+00  0.10474897099E+03  0.10474897111E+03  0.50400000000E-02 0.  1.
         -1   -1    0    0    0  501 -0.00000000000E+00 -0.00000000000E+00 -0.12312006366E+04  0.12312006367E+04  0.50400000000E-02 0. -1.
    5000001    1    1    2    0    0 -0.48149635288E+02 -0.29444797122E+03 -0.52852712108E+03  0.63871739670E+03  0.19900000000E+03 0.  0.
   -5000001    1    1    2    0    0  0.48149635288E+02  0.29444797122E+03 -0.59792454458E+03  0.69723221106E+03  0.19900000000E+03 0.  0.
<mgrwt>
<rscale>  0 0.71823951E+03</rscale>
<asrwt>0</asrwt>
<pdfrwt beam="1">  1        1 0.14964139E-01 0.71823951E+03</pdfrwt>
<pdfrwt beam="2">  1       -1 0.17588580E+00 0.71823951E+03</pdfrwt>
<totfact> 0.88063997E+01</totfact>
</mgrwt>
</event>
<event>
 4    1  0.6282309E-006  0.7820638E+03  0.7818608E-02  0.9586348E-01
         -1   -1    0    0    0  501 -0.00000000000E+00  0.00000000000E+00  0.56011212949E+03  0.56011212951E+03  0.50400000000E-02 0. -1.
          1   -1    0    0  501    0  0.00000000000E+00 -0.00000000000E+00 -0.27299165580E+03  0.27299165585E+03  0.50400000000E-02 0.  1.
    5000001    1    1    2    0    0 -0.17933993297E+03 -0.27789694177E+03  0.76903218029E+02  0.39357925091E+03  0.19900000000E+03 0.  0.
   -5000001    1    1    2    0    0  0.17933993297E+03  0.27789694177E+03  0.21021725566E+03  0.43952453445E+03  0.19900000000E+03 0.  0.
<mgrwt>
<rscale>  0 0.78206378E+03</rscale>
<asrwt>0</asrwt>
<pdfrwt beam="1">  1        1 0.38998808E-01 0.78206378E+03</pdfrwt>
<pdfrwt beam="2">  1       -1 0.80016018E-01 0.78206378E+03</pdfrwt>
<totfact> 0.17231941E+02</totfact>
</mgrwt>
</event>
<event>
 4    1  0.6282309E-006  0.4670969E+03  0.7818608E-02  0.1022743E+00
         -1   -1    0    0    0  501 -0.00000000000E+00  0.00000000000E+00  0.19873414102E+02  0.19873414741E+02  0.50400000000E-02 0. -1.
          1   -1    0    0  501    0  0.00000000000E+00 -0.00000000000E+00 -0.27446151838E+04  0.27446151838E+04  0.50400000000E-02 0.  1.
    5000001    1    1    2    0    0  0.38050339861E+02  0.80192574030E+02 -0.18598444309E+04  0.18725653485E+04  0.19900000000E+03 0.  0.
   -5000001    1    1    2    0    0 -0.38050339861E+02 -0.80192574030E+02 -0.86489733881E+03  0.89192325005E+03  0.19900000000E+03 0.  0.
<mgrwt>
<rscale>  0 0.46709688E+03</rscale>
<asrwt>0</asrwt>
<pdfrwt beam="1">  1        1 0.39208764E+00 0.46709688E+03</pdfrwt>
<pdfrwt beam="2">  1       -1 0.28390610E-02 0.46709688E+03</pdfrwt>
<totfact> 0.58805087E+02</totfact>
</mgrwt>
</event>
<event>
 4    1  0.6282309E-006  0.7434356E+03  0.7818608E-02  0.9645705E-01
         -1   -1    0    0    0  501 -0.00000000000E+00  0.00000000000E+00  0.94657728511E+02  0.94657728645E+02  0.50400000000E-02 0. -1.
          1   -1    0    0  501    0  0.00000000000E+00 -0.00000000000E+00 -0.14597236286E+04  0.14597236286E+04  0.50400000000E-02 0.  1.
    5000001    1    1    2    0    0 -0.13893836789E+02  0.31353169372E+03 -0.66407200305E+03  0.76097817768E+03  0.19900000000E+03 0.  0.
   -5000001    1    1    2    0    0  0.13893836789E+02 -0.31353169372E+03 -0.70099389700E+03  0.79340317954E+03  0.19900000000E+03 0.  0.
<mgrwt>
<rscale>  0 0.74343560E+03</rscale>
<asrwt>0</asrwt>
<pdfrwt beam="1">  1        1 0.20853193E+00 0.74343560E+03</pdfrwt>
<pdfrwt beam="2">  1       -1 0.13522534E-01 0.74343560E+03</pdfrwt>
<totfact> 0.32653381E+02</totfact>
</mgrwt>
</event>
<event>
 4    1  0.6282309E-006  0.4367622E+03  0.7818608E-02  0.1031745E+00
          1   -1    0    0  501    0  0.00000000000E+00  0.00000000000E+00  0.16335370762E+04  0.16335370762E+04  0.50400000000E-02 0.  1.
         -1   -1    0    0    0  501 -0.00000000000E+00 -0.00000000000E+00 -0.29194510034E+02  0.29194510469E+02  0.50400000000E-02 0. -1.
    5000001    1    1    2    0    0  0.58512588045E+02 -0.44936605991E+02  0.60633369393E+03  0.64240530034E+03  0.19900000000E+03 0.  0.
   -5000001    1    1    2    0    0 -0.58512588045E+02  0.44936605991E+02  0.99800887226E+03  0.10203262864E+04  0.19900000000E+03 0.  0.
<mgrwt>
<rscale>  0 0.43676225E+03</rscale>
<asrwt>0</asrwt>
<pdfrwt beam="1">  1        1 0.23336240E+00 0.43676225E+03</pdfrwt>
<pdfrwt beam="2">  1       -1 0.41706450E-02 0.43676225E+03</pdfrwt>
<totfact> 0.16033423E+03</totfact>
</mgrwt>
</event>
<event>
 4    1  0.6282309E-006  0.5322347E+03  0.7818608E-02  0.1005692E+00
          1   -1    0    0  501    0  0.00000000000E+00  0.00000000000E+00  0.43285227579E+03  0.43285227582E+03  0.50400000000E-02 0.  1.
         -1   -1    0    0    0  501 -0.00000000000E+00 -0.00000000000E+00 -0.16360881352E+03  0.16360881359E+03  0.50400000000E-02 0. -1.
    5000001    1    1    2    0    0 -0.40064336421E+01 -0.10238986137E+03 -0.26684007460E+02  0.22541688374E+03  0.19900000000E+03 0.  0.
   -5000001    1    1    2    0    0  0.40064336421E+01  0.10238986137E+03  0.29592746973E+03  0.37104420567E+03  0.19900000000E+03 0.  0.
<mgrwt>
<rscale>  0 0.53223471E+03</rscale>
<asrwt>0</asrwt>
<pdfrwt beam="1">  1        1 0.61836039E-01 0.53223471E+03</pdfrwt>
<pdfrwt beam="2">  1       -1 0.23372688E-01 0.53223471E+03</pdfrwt>
<totfact> 0.94001825E+02</totfact>
</mgrwt>
</event>
<event>
 4    1  0.6282309E-006  0.6112587E+03  0.7818608E-02  0.9882319E-01
         -1   -1    0    0    0  501 -0.00000000000E+00  0.00000000000E+00  0.28596675400E+03  0.28596675404E+03  0.50400000000E-02 0. -1.
          1   -1    0    0  501    0  0.00000000000E+00 -0.00000000000E+00 -0.32664395475E+03  0.32664395479E+03  0.50400000000E-02 0.  1.
    5000001    1    1    2    0    0 -0.12433616990E+03 -0.17640601439E+03  0.64877378200E+02  0.30064703435E+03  0.19900000000E+03 0.  0.
   -5000001    1    1    2    0    0  0.12433616990E+03  0.17640601439E+03 -0.10555457895E+03  0.31196367448E+03  0.19900000000E+03 0.  0.
<mgrwt>
<rscale>  0 0.61125874E+03</rscale>
<asrwt>0</asrwt>
<pdfrwt beam="1">  1        1 0.46663422E-01 0.61125874E+03</pdfrwt>
<pdfrwt beam="2">  1       -1 0.40852393E-01 0.61125874E+03</pdfrwt>
<totfact> 0.51143826E+02</totfact>
</mgrwt>
</event>
<event>
 4    1  0.6282309E-006  0.4487074E+03  0.7818608E-02  0.1028108E+00
         -1   -1    0    0    0  501 -0.00000000000E+00  0.00000000000E+00  0.37570362346E+02  0.37570362684E+02  0.50400000000E-02 0. -1.
          1   -1    0    0  501    0  0.00000000000E+00 -0.00000000000E+00 -0.13397420331E+04  0.13397420331E+04  0.50400000000E-02 0.  1.
    5000001    1    1    2    0    0  0.56724029941E+02 -0.86214646768E+02 -0.67905259736E+03  0.71509720380E+03  0.19900000000E+03 0.  0.
   -5000001    1    1    2    0    0 -0.56724029941E+02  0.86214646768E+02 -0.62311907338E+03  0.66221519199E+03  0.19900000000E+03 0.  0.
<mgrwt>
<rscale>  0 0.44870745E+03</rscale>
<asrwt>0</asrwt>
<pdfrwt beam="1">  1        1 0.19139169E+00 0.44870745E+03</pdfrwt>
<pdfrwt beam="2">  1       -1 0.53671955E-02 0.44870745E+03</pdfrwt>
<totfact> 0.16828928E+03</totfact>
</mgrwt>
</event>
<event>
 4    1  0.6282309E-006  0.6676187E+03  0.7818608E-02  0.9774269E-01
          1   -1    0    0  501    0  0.00000000000E+00  0.00000000000E+00  0.12440115820E+04  0.12440115820E+04  0.50400000000E-02 0.  1.
         -1   -1    0    0    0  501 -0.00000000000E+00 -0.00000000000E+00 -0.89572060362E+02  0.89572060504E+02  0.50400000000E-02 0. -1.
    5000001    1    1    2    0    0  0.18956839232E+03  0.13514279778E+03  0.84243130364E+03  0.89637673581E+03  0.19900000000E+03 0.  0.
   -5000001    1    1    2    0    0 -0.18956839232E+03 -0.13514279778E+03  0.31200821795E+03  0.43720690665E+03  0.19900000000E+03 0.  0.
<mgrwt>
<rscale>  0 0.66761870E+03</rscale>
<asrwt>0</asrwt>
<pdfrwt beam="1">  1        1 0.17771594E+00 0.66761870E+03</pdfrwt>
<pdfrwt beam="2">  1       -1 0.12796009E-01 0.66761870E+03</pdfrwt>
<totfact> 0.49804813E+02</totfact>
</mgrwt>
</event>
<event>
 4    1  0.6282309E-006  0.4825925E+03  0.7818608E-02  0.1018425E+00
          1   -1    0    0  501    0  0.00000000000E+00  0.00000000000E+00  0.19767427432E+03  0.19767427439E+03  0.50400000000E-02 0.  1.
         -1   -1    0    0    0  501 -0.00000000000E+00 -0.00000000000E+00 -0.29454449051E+03  0.29454449055E+03  0.50400000000E-02 0. -1.
    5000001    1    1    2    0    0  0.73752950635E+02 -0.40935382201E+02 -0.15784869388E+03  0.26764232364E+03  0.19900000000E+03 0.  0.
   -5000001    1    1    2    0    0 -0.73752950635E+02  0.40935382201E+02  0.60978477698E+02  0.22457644130E+03  0.19900000000E+03 0.  0.
<mgrwt>
<rscale>  0 0.48259245E+03</rscale>
<asrwt>0</asrwt>
<pdfrwt beam="1">  1        1 0.28239182E-01 0.48259245E+03</pdfrwt>
<pdfrwt beam="2">  1       -1 0.42077784E-01 0.48259245E+03</pdfrwt>
<totfact> 0.92617816E+02</totfact>
</mgrwt>
</event>
<event>
 4    1  0.6282309E-006  0.1315078E+04  0.7818608E-02  0.9017693E-01
          1   -1    0    0  501    0  0.00000000000E+00  0.00000000000E+00  0.10000088423E+04  0.10000088423E+04  0.50400000000E-02 0.  1.
         -1   -1    0    0    0  501 -0.00000000000E+00 -0.00000000000E+00 -0.43235381744E+03  0.43235381747E+03  0.50400000000E-02 0. -1.
    5000001    1    1    2    0    0 -0.11566041525E+03 -0.60949541469E+03  0.38060354639E+03  0.75453432772E+03  0.19900000000E+03 0.  0.
   -5000001    1    1    2    0    0  0.11566041525E+03  0.60949541469E+03  0.18705147850E+03  0.67782833210E+03  0.19900000000E+03 0.  0.
<mgrwt>
<rscale>  0 0.13150782E+04</rscale>
<asrwt>0</asrwt>
<pdfrwt beam="1">  1        1 0.14285840E+00 0.13150782E+04</pdfrwt>
<pdfrwt beam="2">  1       -1 0.61764832E-01 0.13150782E+04</pdfrwt>
<totfact> 0.45073753E+01</totfact>
</mgrwt>
</event>
<event>
 4    1  0.6282309E-006  0.1165952E+04  0.7818608E-02  0.9143192E-01
         -1   -1    0    0    0  501 -0.00000000000E+00  0.00000000000E+00  0.25541115527E+03  0.25541115532E+03  0.50400000000E-02 0. -1.
          1   -1    0    0  501    0  0.00000000000E+00 -0.00000000000E+00 -0.13306424762E+04  0.13306424762E+04  0.50400000000E-02 0.  1.
    5000001    1    1    2    0    0  0.20748018331E+03 -0.12500154127E+03  0.13099546707E+03  0.33975612457E+03  0.19900000000E+03 0.  0.
   -5000001    1    1    2    0    0 -0.20748018331E+03  0.12500154127E+03 -0.12062267879E+04  0.12462975069E+04  0.19900000000E+03 0.  0.
<mgrwt>
<rscale>  0 0.11659519E+04</rscale>
<asrwt>0</asrwt>
<pdfrwt beam="1">  1        1 0.19009178E+00 0.11659519E+04</pdfrwt>
<pdfrwt beam="2">  1       -1 0.36487309E-01 0.11659519E+04</pdfrwt>
<totfact> 0.71867405E+01</totfact>
</mgrwt>
</event>
<event>
 4    1  0.6282309E-006  0.8272274E+03  0.7818608E-02  0.9521422E-01
          1   -1    0    0  501    0  0.00000000000E+00  0.00000000000E+00  0.53202547857E+03  0.53202547860E+03  0.50400000000E-02 0.  1.
         -1   -1    0    0    0  501 -0.00000000000E+00 -0.00000000000E+00 -0.32155658184E+03  0.32155658188E+03  0.50400000000E-02 0. -1.
    5000001    1    1    2    0    0  0.22152227143E+03 -0.28322785507E+03  0.56999483991E+02  0.41489766907E+03  0.19900000000E+03 0.  0.
   -5000001    1    1    2    0    0 -0.22152227143E+03  0.28322785507E+03  0.15346941274E+03  0.43868439141E+03  0.19900000000E+03 0.  0.
<mgrwt>
<rscale>  0 0.82722740E+03</rscale>
<asrwt>0</asrwt>
<pdfrwt beam="1">  1        1 0.76003639E-01 0.82722740E+03</pdfrwt>
<pdfrwt beam="2">  1       -1 0.45936655E-01 0.82722740E+03</pdfrwt>
<totfact> 0.21434826E+02</totfact>
</mgrwt>
</event>
<event>
 4    1  0.6282309E-006  0.5195078E+03  0.7818608E-02  0.1008809E+00
          1   -1    0    0  501    0  0.00000000000E+00  0.00000000000E+00  0.46596718095E+03  0.46596718097E+03  0.50400000000E-02 0. -1.
         -1   -1    0    0    0  501 -0.00000000000E+00 -0.00000000000E+00 -0.14480010721E+03  0.14480010729E+03  0.50400000000E-02 0.  1.
    5000001    1    1    2    0    0  0.10077008463E+03 -0.70133130319E+02  0.29358360602E+03  0.37532066243E+03  0.19900000000E+03 0.  0.
   -5000001    1    1    2    0    0 -0.10077008463E+03  0.70133130319E+02  0.27583467720E+02  0.23544662583E+03  0.19900000000E+03 0.  0.
<mgrwt>
<rscale>  0 0.51950784E+03</rscale>
<asrwt>0</asrwt>
<pdfrwt beam="1">  1        1 0.66566740E-01 0.51950784E+03</pdfrwt>
<pdfrwt beam="2">  1       -1 0.20685730E-01 0.51950784E+03</pdfrwt>
<totfact> 0.10459093E+03</totfact>
</mgrwt>
</event>
<event>
 4    1  0.6282309E-006  0.1073068E+04  0.7818608E-02  0.9231846E-01
          1   -1    0    0  501    0  0.00000000000E+00  0.00000000000E+00  0.48067772741E+03  0.48067772744E+03  0.50400000000E-02 0.  1.
         -1   -1    0    0    0  501 -0.00000000000E+00 -0.00000000000E+00 -0.59888142598E+03  0.59888142600E+03  0.50400000000E-02 0. -1.
    5000001    1    1    2    0    0 -0.30389361862E+03  0.34730454429E+03  0.12990733594E+03  0.51908447661E+03  0.19900000000E+03 0.  0.
   -5000001    1    1    2    0    0  0.30389361862E+03 -0.34730454429E+03 -0.24811103451E+03  0.56047467683E+03  0.19900000000E+03 0.  0.
<mgrwt>
<rscale>  0 0.10730684E+04</rscale>
<asrwt>0</asrwt>
<pdfrwt beam="1">  1        1 0.68668247E-01 0.10730684E+04</pdfrwt>
<pdfrwt beam="2">  1       -1 0.85554489E-01 0.10730684E+04</pdfrwt>
<totfact> 0.69842921E+01</totfact>
</mgrwt>
</event>
<event>
 4    1  0.6282309E-006  0.5839669E+03  0.7818608E-02  0.9939240E-01
          1   -1    0    0  501    0  0.00000000000E+00  0.00000000000E+00  0.43088671647E+03  0.43088671650E+03  0.50400000000E-02 0.  1.
         -1   -1    0    0    0  501 -0.00000000000E+00 -0.00000000000E+00 -0.19785786486E+03  0.19785786493E+03  0.50400000000E-02 0. -1.
    5000001    1    1    2    0    0  0.16091528354E+03 -0.35525423500E+02 -0.29919954433E+02  0.26009995745E+03  0.19900000000E+03 0.  0.
   -5000001    1    1    2    0    0 -0.16091528354E+03  0.35525423500E+02  0.26294880603E+03  0.36864462398E+03  0.19900000000E+03 0.  0.
<mgrwt>
<rscale>  0 0.58396687E+03</rscale>
<asrwt>0</asrwt>
<pdfrwt beam="1">  1        1 0.61555245E-01 0.58396687E+03</pdfrwt>
<pdfrwt beam="2">  1       -1 0.28265410E-01 0.58396687E+03</pdfrwt>
<totfact> 0.68399496E+02</totfact>
</mgrwt>
</event>
<event>
 4    1  0.6282309E-006  0.1039118E+04  0.7818608E-02  0.9266652E-01
         -1   -1    0    0    0  501 -0.00000000000E+00  0.00000000000E+00  0.25665447168E+03  0.25665447173E+03  0.50400000000E-02 0. -1.
          1   -1    0    0  501    0  0.00000000000E+00 -0.00000000000E+00 -0.10517702676E+04  0.10517702677E+04  0.50400000000E-02 0.  1.
    5000001    1    1    2    0    0 -0.38311082219E+03  0.26149104764E+03 -0.55274281708E+03  0.74851659428E+03  0.19900000000E+03 0.  0.
   -5000001    1    1    2    0    0  0.38311082219E+03 -0.26149104764E+03 -0.24237297889E+03  0.55990814512E+03  0.19900000000E+03 0.  0.
<mgrwt>
<rscale>  0 0.10391180E+04</rscale>
<asrwt>0</asrwt>
<pdfrwt beam="1">  1        1 0.15025289E+00 0.10391180E+04</pdfrwt>
<pdfrwt beam="2">  1       -1 0.36664925E-01 0.10391180E+04</pdfrwt>
<totfact> 0.11255105E+02</totfact>
</mgrwt>
</event>
<event>
 4    1  0.6282309E-006  0.4827111E+03  0.7818608E-02  0.1018393E+00
          1   -1    0    0  501    0  0.00000000000E+00  0.00000000000E+00  0.32561327475E+04  0.32561327475E+04  0.50400000000E-02 0. -1.
         -1   -1    0    0    0  501 -0.00000000000E+00 -0.00000000000E+00 -0.17890084997E+02  0.17890085706E+02  0.50400000000E-02 0.  1.
    5000001    1    1    2    0    0 -0.80023527148E+02 -0.10145941376E+03  0.19189168131E+04  0.19335305825E+04  0.19900000000E+03 0.  0.
   -5000001    1    1    2    0    0  0.80023527148E+02  0.10145941376E+03  0.13193258494E+04  0.13404922508E+04  0.19900000000E+03 0.  0.
<mgrwt>
<rscale>  0 0.48271106E+03</rscale>
<asrwt>0</asrwt>
<pdfrwt beam="1">  1        1 0.46516194E+00 0.48271106E+03</pdfrwt>
<pdfrwt beam="2">  1       -1 0.25557258E-02 0.48271106E+03</pdfrwt>
<totfact> 0.32177249E+02</totfact>
</mgrwt>
</event>
<event>
 4    1  0.6282309E-006  0.4301530E+03  0.7818608E-02  0.1033812E+00
         -1   -1    0    0    0  501 -0.00000000000E+00  0.00000000000E+00  0.76509421939E+03  0.76509421940E+03  0.50400000000E-02 0. -1.
          1   -1    0    0  501    0  0.00000000000E+00 -0.00000000000E+00 -0.60460385798E+02  0.60460386008E+02  0.50400000000E-02 0.  1.
    5000001    1    1    2    0    0  0.50368145026E+01 -0.79464040788E+02  0.38648688998E+03  0.44194232588E+03  0.19900000000E+03 0.  0.
   -5000001    1    1    2    0    0 -0.50368145026E+01  0.79464040788E+02  0.31814694361E+03  0.38361227953E+03  0.19900000000E+03 0.  0.
<mgrwt>
<rscale>  0 0.43015296E+03</rscale>
<asrwt>0</asrwt>
<pdfrwt beam="1">  1        1 0.86371981E-02 0.43015296E+03</pdfrwt>
<pdfrwt beam="2">  1       -1 0.10929917E+00 0.43015296E+03</pdfrwt>
<totfact> 0.64564856E+02</totfact>
</mgrwt>
</event>
<event>
 4    1  0.6282309E-006  0.6551596E+03  0.7818608E-02  0.9797145E-01
         -1   -1    0    0    0  501 -0.00000000000E+00  0.00000000000E+00  0.12509682237E+04  0.12509682237E+04  0.50400000000E-02 0. -1.
          1   -1    0    0  501    0  0.00000000000E+00 -0.00000000000E+00 -0.85780383479E+02  0.85780383627E+02  0.50400000000E-02 0.  1.
    5000001    1    1    2    0    0 -0.23418294264E+03  0.73894232759E+02  0.40701168906E+03  0.51532661807E+03  0.19900000000E+03 0.  0.
   -5000001    1    1    2    0    0  0.23418294264E+03 -0.73894232759E+02  0.75817615115E+03  0.82142198926E+03  0.19900000000E+03 0.  0.
<mgrwt>
<rscale>  0 0.65515963E+03</rscale>
<asrwt>0</asrwt>
<pdfrwt beam="1">  1        1 0.12254341E-01 0.65515963E+03</pdfrwt>
<pdfrwt beam="2">  1       -1 0.17870974E+00 0.65515963E+03</pdfrwt>
<totfact> 0.11061681E+02</totfact>
</mgrwt>
</event>
<event>
 4    1  0.6282309E-006  0.4948952E+03  0.7818608E-02  0.1015120E+00
          1   -1    0    0  501    0  0.00000000000E+00  0.00000000000E+00  0.17870870315E+04  0.17870870315E+04  0.50400000000E-02 0.  1.
         -1   -1    0    0    0  501 -0.00000000000E+00 -0.00000000000E+00 -0.34262639292E+02  0.34262639663E+02  0.50400000000E-02 0. -1.
    5000001    1    1    2    0    0 -0.13447856919E+03 -0.40436170444E+02  0.71558175660E+03  0.75589537625E+03  0.19900000000E+03 0.  0.
   -5000001    1    1    2    0    0  0.13447856919E+03  0.40436170444E+02  0.10372426356E+04  0.10654542950E+04  0.19900000000E+03 0.  0.
<mgrwt>
<rscale>  0 0.49489522E+03</rscale>
<asrwt>0</asrwt>
<pdfrwt beam="1">  1        1 0.25529810E+00 0.49489522E+03</pdfrwt>
<pdfrwt beam="2">  1       -1 0.48946638E-02 0.49489522E+03</pdfrwt>
<totfact> 0.10071639E+03</totfact>
</mgrwt>
</event>
<event>
 4    1  0.6282309E-006  0.4339079E+03  0.7818608E-02  0.1032633E+00
         -1   -1    0    0    0  501 -0.00000000000E+00  0.00000000000E+00  0.31972265987E+02  0.31972266384E+02  0.50400000000E-02 0. -1.
          1   -1    0    0  501    0  0.00000000000E+00 -0.00000000000E+00 -0.14721829907E+04  0.14721829907E+04  0.50400000000E-02 0.  1.
    5000001    1    1    2    0    0 -0.72753843502E+01 -0.74220074888E+02 -0.56874550737E+03  0.60715237205E+03  0.19900000000E+03 0.  0.
   -5000001    1    1    2    0    0  0.72753843502E+01  0.74220074888E+02 -0.87146521735E+03  0.89700288505E+03  0.19900000000E+03 0.  0.
<mgrwt>
<rscale>  0 0.43390795E+03</rscale>
<asrwt>0</asrwt>
<pdfrwt beam="1">  1        1 0.21031181E+00 0.43390795E+03</pdfrwt>
<pdfrwt beam="2">  1       -1 0.45674675E-02 0.43390795E+03</pdfrwt>
<totfact> 0.17665445E+03</totfact>
</mgrwt>
</event>
<event>
 4    1  0.6282309E-006  0.5438165E+03  0.7818608E-02  0.1002935E+00
          1   -1    0    0  501    0  0.00000000000E+00  0.00000000000E+00  0.42748107997E+04  0.42748107997E+04  0.50400000000E-02 0.  1.
         -1   -1    0    0    0  501 -0.00000000000E+00 -0.00000000000E+00 -0.17295292649E+02  0.17295293384E+02  0.50400000000E-02 0. -1.
    5000001    1    1    2    0    0 -0.12856878412E+03  0.47239916095E+02  0.11438758636E+04  0.11691084352E+04  0.19900000000E+03 0.  0.
   -5000001    1    1    2    0    0  0.12856878412E+03 -0.47239916095E+02  0.31136396434E+04  0.31229976579E+04  0.19900000000E+03 0.  0.
<mgrwt>
<rscale>  0 0.54381653E+03</rscale>
<asrwt>0</asrwt>
<pdfrwt beam="1">  1        1 0.61068635E+00 0.54381653E+03</pdfrwt>
<pdfrwt beam="2">  1       -1 0.24707598E-02 0.54381653E+03</pdfrwt>
<totfact> 0.62492830E+01</totfact>
</mgrwt>
</event>
<event>
 4    1  0.6282309E-006  0.6877058E+03  0.7818608E-02  0.9738491E-01
          1   -1    0    0  501    0  0.00000000000E+00  0.00000000000E+00  0.12520742005E+04  0.12520742005E+04  0.50400000000E-02 0.  1.
         -1   -1    0    0    0  501 -0.00000000000E+00 -0.00000000000E+00 -0.94431145855E+02  0.94431145990E+02  0.50400000000E-02 0. -1.
    5000001    1    1    2    0    0  0.66742855081E+02  0.21924621894E+03  0.89520315563E+03  0.94525827321E+03  0.19900000000E+03 0.  0.
   -5000001    1    1    2    0    0 -0.66742855081E+02 -0.21924621894E+03  0.26243989901E+03  0.40124707328E+03  0.19900000000E+03 0.  0.
<mgrwt>
<rscale>  0 0.68770576E+03</rscale>
<asrwt>0</asrwt>
<pdfrwt beam="1">  1        1 0.17886776E+00 0.68770576E+03</pdfrwt>
<pdfrwt beam="2">  1       -1 0.13490162E-01 0.68770576E+03</pdfrwt>
<totfact> 0.45130296E+02</totfact>
</mgrwt>
</event>
<event>
 4    1  0.6282309E-006  0.7791058E+03  0.7818608E-02  0.9590763E-01
         -1   -1    0    0    0  501 -0.00000000000E+00  0.00000000000E+00  0.10015282225E+03  0.10015282238E+03  0.50400000000E-02 0. -1.
          1   -1    0    0  501    0  0.00000000000E+00 -0.00000000000E+00 -0.15151991657E+04  0.15151991657E+04  0.50400000000E-02 0.  1.
    5000001    1    1    2    0    0  0.53384037203E+02 -0.32846898902E+03 -0.62970406490E+03  0.73950655272E+03  0.19900000000E+03 0.  0.
   -5000001    1    1    2    0    0 -0.53384037203E+02  0.32846898902E+03 -0.78534227857E+03  0.87584543538E+03  0.19900000000E+03 0.  0.
<mgrwt>
<rscale>  0 0.77910583E+03</rscale>
<asrwt>0</asrwt>
<pdfrwt beam="1">  1        1 0.21645701E+00 0.77910583E+03</pdfrwt>
<pdfrwt beam="2">  1       -1 0.14307547E-01 0.77910583E+03</pdfrwt>
<totfact> 0.27379895E+02</totfact>
</mgrwt>
</event>
<event>
 4    1  0.6282309E-006  0.7158233E+03  0.7818608E-02  0.9690548E-01
         -1   -1    0    0    0  501 -0.00000000000E+00  0.00000000000E+00  0.25020888811E+03  0.25020888816E+03  0.50400000000E-02 0.  1.
          1   -1    0    0  501    0  0.00000000000E+00 -0.00000000000E+00 -0.51197523311E+03  0.51197523314E+03  0.50400000000E-02 0. -1.
    5000001    1    1    2    0    0  0.14217085007E+03  0.25887870031E+03 -0.92952670275E+02  0.36806511788E+03  0.19900000000E+03 0.  0.
   -5000001    1    1    2    0    0 -0.14217085007E+03 -0.25887870031E+03 -0.16881367473E+03  0.39411900342E+03  0.19900000000E+03 0.  0.
<mgrwt>
<rscale>  0 0.71582331E+03</rscale>
<asrwt>0</asrwt>
<pdfrwt beam="1">  1        1 0.73139319E-01 0.71582331E+03</pdfrwt>
<pdfrwt beam="2">  1       -1 0.35744127E-01 0.71582331E+03</pdfrwt>
<totfact> 0.35865005E+02</totfact>
</mgrwt>
</event>
<event>
 4    1  0.6282309E-006  0.4902291E+03  0.7818608E-02  0.1016361E+00
          1   -1    0    0  501    0  0.00000000000E+00  0.00000000000E+00  0.48646929041E+03  0.48646929044E+03  0.50400000000E-02 0.  1.
         -1   -1    0    0    0  501 -0.00000000000E+00 -0.00000000000E+00 -0.12350448843E+03  0.12350448853E+03  0.50400000000E-02 0. -1.
    5000001    1    1    2    0    0  0.24265640312E+02  0.13221759852E+03  0.12040156832E+03  0.26864074954E+03  0.19900000000E+03 0.  0.
   -5000001    1    1    2    0    0 -0.24265640312E+02 -0.13221759852E+03  0.24256323366E+03  0.34133302943E+03  0.19900000000E+03 0.  0.
<mgrwt>
<rscale>  0 0.49022909E+03</rscale>
<asrwt>0</asrwt>
<pdfrwt beam="1">  1        1 0.69495615E-01 0.49022909E+03</pdfrwt>
<pdfrwt beam="2">  1       -1 0.17643498E-01 0.49022909E+03</pdfrwt>
<totfact> 0.12835238E+03</totfact>
</mgrwt>
</event>
<event>
 4    1  0.6282309E-006  0.6228984E+03  0.7818608E-02  0.9859006E-01
         -1   -1    0    0    0  501 -0.00000000000E+00  0.00000000000E+00  0.76313155225E+03  0.76313155227E+03  0.50400000000E-02 0. -1.
          1   -1    0    0  501    0  0.00000000000E+00 -0.00000000000E+00 -0.12710863561E+03  0.12710863571E+03  0.50400000000E-02 0.  1.
    5000001    1    1    2    0    0 -0.18126190733E+03  0.15162085274E+03  0.37436665820E+03  0.48538248506E+03  0.19900000000E+03 0.  0.
   -5000001    1    1    2    0    0  0.18126190733E+03 -0.15162085274E+03  0.26165625844E+03  0.40485770292E+03  0.19900000000E+03 0.  0.
<mgrwt>
<rscale>  0 0.62289842E+03</rscale>
<asrwt>0</asrwt>
<pdfrwt beam="1">  1        1 0.18158376E-01 0.62289842E+03</pdfrwt>
<pdfrwt beam="2">  1       -1 0.10901879E+00 0.62289842E+03</pdfrwt>
<totfact> 0.23651822E+02</totfact>
</mgrwt>
</event>
<event>
 4    1  0.6282309E-006  0.6275621E+03  0.7818608E-02  0.9849818E-01
         -1   -1    0    0    0  501 -0.00000000000E+00  0.00000000000E+00  0.60676429819E+03  0.60676429821E+03  0.50400000000E-02 0.  1.
          1   -1    0    0  501    0  0.00000000000E+00 -0.00000000000E+00 -0.16226818099E+03  0.16226818107E+03  0.50400000000E-02 0. -1.
    5000001    1    1    2    0    0 -0.19636497483E+03 -0.88477175700E+02  0.85404803258E+02  0.30542166652E+03  0.19900000000E+03 0.  0.
   -5000001    1    1    2    0    0  0.19636497483E+03  0.88477175700E+02  0.35909131394E+03  0.46361081276E+03  0.19900000000E+03 0.  0.
<mgrwt>
<rscale>  0 0.62756207E+03</rscale>
<asrwt>0</asrwt>
<pdfrwt beam="1">  1        1 0.23181169E-01 0.62756207E+03</pdfrwt>
<pdfrwt beam="2">  1       -1 0.86680614E-01 0.62756207E+03</pdfrwt>
<totfact> 0.28713764E+02</totfact>
</mgrwt>
</event>
<event>
 4    1  0.6282309E-006  0.8825085E+03  0.7818608E-02  0.9447715E-01
          1   -1    0    0  501    0  0.00000000000E+00  0.00000000000E+00  0.42250883370E+03  0.42250883373E+03  0.50400000000E-02 0.  1.
         -1   -1    0    0    0  501 -0.00000000000E+00 -0.00000000000E+00 -0.46083130786E+03  0.46083130789E+03  0.50400000000E-02 0. -1.
    5000001    1    1    2    0    0 -0.19179998437E+03  0.21661949300E+03  0.24828536425E+03  0.43006727480E+03  0.19900000000E+03 0.  0.
   -5000001    1    1    2    0    0  0.19179998437E+03 -0.21661949300E+03 -0.28660783841E+03  0.45327286681E+03  0.19900000000E+03 0.  0.
<mgrwt>
<rscale>  0 0.88250847E+03</rscale>
<asrwt>0</asrwt>
<pdfrwt beam="1">  1        1 0.60358405E-01 0.88250847E+03</pdfrwt>
<pdfrwt beam="2">  1       -1 0.65833044E-01 0.88250847E+03</pdfrwt>
<totfact> 0.14521785E+02</totfact>
</mgrwt>
</event>
<event>
 4    1  0.6282309E-006  0.5222776E+03  0.7818608E-02  0.1008122E+00
         -1   -1    0    0    0  501 -0.00000000000E+00  0.00000000000E+00  0.17686056850E+03  0.17686056858E+03  0.50400000000E-02 0. -1.
          1   -1    0    0  501    0  0.00000000000E+00 -0.00000000000E+00 -0.38557759306E+03  0.38557759309E+03  0.50400000000E-02 0.  1.
    5000001    1    1    2    0    0 -0.45463164171E+02  0.10726778918E+03 -0.23633504123E+03  0.33019468440E+03  0.19900000000E+03 0.  0.
   -5000001    1    1    2    0    0  0.45463164171E+02 -0.10726778918E+03  0.27618016669E+02  0.23224347727E+03  0.19900000000E+03 0.  0.
<mgrwt>
<rscale>  0 0.52227760E+03</rscale>
<asrwt>0</asrwt>
<pdfrwt beam="1">  1        1 0.55082513E-01 0.52227760E+03</pdfrwt>
<pdfrwt beam="2">  1       -1 0.25265796E-01 0.52227760E+03</pdfrwt>
<totfact> 0.95871319E+02</totfact>
</mgrwt>
</event>
<event>
 4    1  0.6282309E-006  0.5899104E+03  0.7818608E-02  0.9926563E-01
          1   -1    0    0  501    0  0.00000000000E+00  0.00000000000E+00  0.19678148684E+04  0.19678148684E+04  0.50400000000E-02 0.  1.
         -1   -1    0    0    0  501 -0.00000000000E+00 -0.00000000000E+00 -0.44210745708E+02  0.44210745995E+02  0.50400000000E-02 0. -1.
    5000001    1    1    2    0    0  0.20827508082E+02  0.14839729463E+03  0.15004602785E+04  0.15209988788E+04  0.19900000000E+03 0.  0.
   -5000001    1    1    2    0    0 -0.20827508082E+02 -0.14839729463E+03  0.42314384428E+03  0.49102673563E+03  0.19900000000E+03 0.  0.
<mgrwt>
<rscale>  0 0.58991038E+03</rscale>
<asrwt>0</asrwt>
<pdfrwt beam="1">  1        1 0.28111643E+00 0.58991038E+03</pdfrwt>
<pdfrwt beam="2">  1       -1 0.63158204E-02 0.58991038E+03</pdfrwt>
<totfact> 0.52384473E+02</totfact>
</mgrwt>
</event>
<event>
 4    1  0.6282309E-006  0.6964304E+03  0.7818608E-02  0.9723356E-01
          1   -1    0    0  501    0  0.00000000000E+00  0.00000000000E+00  0.71770035253E+03  0.71770035255E+03  0.50400000000E-02 0.  1.
         -1   -1    0    0    0  501 -0.00000000000E+00 -0.00000000000E+00 -0.16894771992E+03  0.16894772000E+03  0.50400000000E-02 0. -1.
    5000001    1    1    2    0    0 -0.58532188994E+02  0.27525266765E+03  0.33755742189E+03  0.48242726008E+03  0.19900000000E+03 0.  0.
   -5000001    1    1    2    0    0  0.58532188994E+02 -0.27525266765E+03  0.21119521072E+03  0.40422081246E+03  0.19900000000E+03 0.  0.
<mgrwt>
<rscale>  0 0.69643044E+03</rscale>
<asrwt>0</asrwt>
<pdfrwt beam="1">  1        1 0.10252862E+00 0.69643044E+03</pdfrwt>
<pdfrwt beam="2">  1       -1 0.24135389E-01 0.69643044E+03</pdfrwt>
<totfact> 0.44044637E+02</totfact>
</mgrwt>
</event>
<event>
 4    1  0.6282309E-006  0.6847800E+03  0.7818608E-02  0.9743620E-01
          1   -1    0    0  501    0  0.00000000000E+00  0.00000000000E+00  0.24590717081E+03  0.24590717087E+03  0.50400000000E-02 0.  1.
         -1   -1    0    0    0  501 -0.00000000000E+00 -0.00000000000E+00 -0.47672825531E+03  0.47672825533E+03  0.50400000000E-02 0. -1.
    5000001    1    1    2    0    0  0.27398710015E+03  0.39303896533E+02 -0.14905017334E+03  0.37206273867E+03  0.19900000000E+03 0.  0.
   -5000001    1    1    2    0    0 -0.27398710015E+03 -0.39303896533E+02 -0.81770911149E+02  0.35057268753E+03  0.19900000000E+03 0.  0.
<mgrwt>
<rscale>  0 0.68477995E+03</rscale>
<asrwt>0</asrwt>
<pdfrwt beam="1">  1        1 0.35129596E-01 0.68477995E+03</pdfrwt>
<pdfrwt beam="2">  1       -1 0.68104036E-01 0.68477995E+03</pdfrwt>
<totfact> 0.27670800E+02</totfact>
</mgrwt>
</event>
<event>
 4    1  0.6282309E-006  0.5986443E+03  0.7818608E-02  0.9908223E-01
         -1   -1    0    0    0  501 -0.00000000000E+00  0.00000000000E+00  0.75856881955E+02  0.75856882123E+02  0.50400000000E-02 0.  1.
          1   -1    0    0  501    0  0.00000000000E+00 -0.00000000000E+00 -0.11810893659E+04  0.11810893659E+04  0.50400000000E-02 0. -1.
    5000001    1    1    2    0    0  0.86692789634E+02 -0.13885102134E+03 -0.87240893011E+03  0.90966674516E+03  0.19900000000E+03 0.  0.
   -5000001    1    1    2    0    0 -0.86692789634E+02  0.13885102134E+03 -0.23282355385E+03  0.34727950289E+03  0.19900000000E+03 0.  0.
<mgrwt>
<rscale>  0 0.59864432E+03</rscale>
<asrwt>0</asrwt>
<pdfrwt beam="1">  1        1 0.16872704E+00 0.59864432E+03</pdfrwt>
<pdfrwt beam="2">  1       -1 0.10836698E-01 0.59864432E+03</pdfrwt>
<totfact> 0.71900050E+02</totfact>
</mgrwt>
</event>
<event>
 4    1  0.6282309E-006  0.5420873E+03  0.7818608E-02  0.1003342E+00
          1   -1    0    0  501    0  0.00000000000E+00  0.00000000000E+00  0.17146406860E+03  0.17146406868E+03  0.50400000000E-02 0. -1.
         -1   -1    0    0    0  501 -0.00000000000E+00 -0.00000000000E+00 -0.42845506588E+03  0.42845506591E+03  0.50400000000E-02 0.  1.
    5000001    1    1    2    0    0 -0.42961489023E+02 -0.17890678384E+03 -0.12493996017E+03  0.29843645972E+03  0.19900000000E+03 0.  0.
   -5000001    1    1    2    0    0  0.42961489023E+02  0.17890678384E+03 -0.13205103711E+03  0.30148267487E+03  0.19900000000E+03 0.  0.
<mgrwt>
<rscale>  0 0.54208726E+03</rscale>
<asrwt>0</asrwt>
<pdfrwt beam="1">  1        1 0.24494867E-01 0.54208726E+03</pdfrwt>
<pdfrwt beam="2">  1       -1 0.61207866E-01 0.54208726E+03</pdfrwt>
<totfact> 0.54858822E+02</totfact>
</mgrwt>
</event>
<event>
 4    1  0.6282309E-006  0.4676857E+03  0.7818608E-02  0.1022575E+00
          1   -1    0    0  501    0  0.00000000000E+00  0.00000000000E+00  0.54723957495E+02  0.54723957727E+02  0.50400000000E-02 0.  1.
         -1   -1    0    0    0  501 -0.00000000000E+00 -0.00000000000E+00 -0.99924222424E+03  0.99924222426E+03  0.50400000000E-02 0. -1.
    5000001    1    1    2    0    0 -0.90659025723E+02 -0.12989297331E+02 -0.28788247669E+03  0.36175281779E+03  0.19900000000E+03 0.  0.
   -5000001    1    1    2    0    0  0.90659025723E+02  0.12989297331E+02 -0.65663579005E+03  0.69221336419E+03  0.19900000000E+03 0.  0.
<mgrwt>
<rscale>  0 0.46768575E+03</rscale>
<asrwt>0</asrwt>
<pdfrwt beam="1">  1        1 0.78177089E-02 0.46768575E+03</pdfrwt>
<pdfrwt beam="2">  1       -1 0.14274888E+00 0.46768575E+03</pdfrwt>
<totfact> 0.38451450E+02</totfact>
</mgrwt>
</event>
<event>
 4    1  0.6282309E-006  0.1080377E+04  0.7818608E-02  0.9224532E-01
         -1   -1    0    0    0  501 -0.00000000000E+00  0.00000000000E+00  0.37617038589E+03  0.37617038592E+03  0.50400000000E-02 0. -1.
          1   -1    0    0  501    0  0.00000000000E+00 -0.00000000000E+00 -0.77572133406E+03  0.77572133407E+03  0.50400000000E-02 0.  1.
    5000001    1    1    2    0    0  0.26965367733E+03 -0.23392667923E+03 -0.57638161424E+03  0.70657735753E+03  0.19900000000E+03 0.  0.
   -5000001    1    1    2    0    0 -0.26965367733E+03  0.23392667923E+03  0.17683066607E+03  0.44531436246E+03  0.19900000000E+03 0.  0.
<mgrwt>
<rscale>  0 0.10803766E+04</rscale>
<asrwt>0</asrwt>
<pdfrwt beam="1">  1        1 0.11081733E+00 0.10803766E+04</pdfrwt>
<pdfrwt beam="2">  1       -1 0.53738627E-01 0.10803766E+04</pdfrwt>
<totfact> 0.90960879E+01</totfact>
</mgrwt>
</event>
<event>
 4    1  0.6282309E-006  0.4966318E+03  0.7818608E-02  0.1014662E+00
         -1   -1    0    0    0  501 -0.00000000000E+00  0.00000000000E+00  0.42461899319E+03  0.42461899322E+03  0.50400000000E-02 0. -1.
          1   -1    0    0  501    0  0.00000000000E+00 -0.00000000000E+00 -0.14521437112E+03  0.14521437121E+03  0.50400000000E-02 0.  1.
    5000001    1    1    2    0    0 -0.69816822836E+02  0.11775668758E+03  0.20580222492E+03  0.31732724750E+03  0.19900000000E+03 0.  0.
   -5000001    1    1    2    0    0  0.69816822836E+02 -0.11775668758E+03  0.73602397152E+02  0.25250611693E+03  0.19900000000E+03 0.  0.
<mgrwt>
<rscale>  0 0.49663178E+03</rscale>
<asrwt>0</asrwt>
<pdfrwt beam="1">  1        1 0.20744910E-01 0.49663178E+03</pdfrwt>
<pdfrwt beam="2">  1       -1 0.60659858E-01 0.49663178E+03</pdfrwt>
<totfact> 0.69413572E+02</totfact>
</mgrwt>
</event>
<event>
 4    1  0.6282309E-006  0.4638108E+03  0.7818608E-02  0.1023682E+00
          1   -1    0    0  501    0  0.00000000000E+00  0.00000000000E+00  0.12604657190E+04  0.12604657190E+04  0.50400000000E-02 0.  1.
         -1   -1    0    0    0  501 -0.00000000000E+00 -0.00000000000E+00 -0.42666865151E+02  0.42666865448E+02  0.50400000000E-02 0. -1.
    5000001    1    1    2    0    0  0.11527610248E+03 -0.22233544294E+02  0.55297380070E+03  0.59930287381E+03  0.19900000000E+03 0.  0.
   -5000001    1    1    2    0    0 -0.11527610248E+03  0.22233544294E+02  0.66482505313E+03  0.70382971063E+03  0.19900000000E+03 0.  0.
<mgrwt>
<rscale>  0 0.46381083E+03</rscale>
<asrwt>0</asrwt>
<pdfrwt beam="1">  1        1 0.18006655E+00 0.46381083E+03</pdfrwt>
<pdfrwt beam="2">  1       -1 0.60952659E-02 0.46381083E+03</pdfrwt>
<totfact> 0.15628219E+03</totfact>
</mgrwt>
</event>
<event>
 4    1  0.6282309E-006  0.5946010E+03  0.7818608E-02  0.9916671E-01
          1   -1    0    0  501    0  0.00000000000E+00  0.00000000000E+00  0.20758183488E+03  0.20758183494E+03  0.50400000000E-02 0.  1.
         -1   -1    0    0    0  501 -0.00000000000E+00 -0.00000000000E+00 -0.42579637944E+03  0.42579637947E+03  0.50400000000E-02 0. -1.
    5000001    1    1    2    0    0  0.70732700230E+02 -0.16453209453E+03  0.28601108873E+02  0.26924514562E+03  0.19900000000E+03 0.  0.
   -5000001    1    1    2    0    0 -0.70732700230E+02  0.16453209453E+03 -0.24681565344E+03  0.36413306880E+03  0.19900000000E+03 0.  0.
<mgrwt>
<rscale>  0 0.59460102E+03</rscale>
<asrwt>0</asrwt>
<pdfrwt beam="1">  1        1 0.29654548E-01 0.59460102E+03</pdfrwt>
<pdfrwt beam="2">  1       -1 0.60828054E-01 0.59460102E+03</pdfrwt>
<totfact> 0.43289931E+02</totfact>
</mgrwt>
</event>
<event>
 4    1  0.6282309E-006  0.8355503E+03  0.7818608E-02  0.9509939E-01
         -1   -1    0    0    0  501 -0.00000000000E+00  0.00000000000E+00  0.22770990426E+03  0.22770990432E+03  0.50400000000E-02 0. -1.
          1   -1    0    0  501    0  0.00000000000E+00 -0.00000000000E+00 -0.76648429344E+03  0.76648429346E+03  0.50400000000E-02 0.  1.
    5000001    1    1    2    0    0  0.10637837533E+03 -0.28064431850E+03 -0.52139618808E+03  0.63366598235E+03  0.19900000000E+03 0.  0.
   -5000001    1    1    2    0    0 -0.10637837533E+03  0.28064431850E+03 -0.17378201099E+02  0.36052821542E+03  0.19900000000E+03 0.  0.
<mgrwt>
<rscale>  0 0.83555027E+03</rscale>
<asrwt>0</asrwt>
<pdfrwt beam="1">  1        1 0.10949775E+00 0.83555027E+03</pdfrwt>
<pdfrwt beam="2">  1       -1 0.32529987E-01 0.83555027E+03</pdfrwt>
<totfact> 0.23667517E+02</totfact>
</mgrwt>
</event>
<event>
 4    1  0.6282309E-006  0.5269876E+03  0.7818608E-02  0.1006965E+00
          1   -1    0    0  501    0  0.00000000000E+00  0.00000000000E+00  0.26843311049E+03  0.26843311054E+03  0.50400000000E-02 0.  1.
         -1   -1    0    0    0  501 -0.00000000000E+00 -0.00000000000E+00 -0.25864539565E+03  0.25864539570E+03  0.50400000000E-02 0. -1.
    5000001    1    1    2    0    0  0.14454230182E+03 -0.42115989972E+02  0.89535602139E+02  0.26511102896E+03  0.19900000000E+03 0.  0.
   -5000001    1    1    2    0    0 -0.14454230182E+03  0.42115989972E+02 -0.79747887301E+02  0.26196747728E+03  0.19900000000E+03 0.  0.
<mgrwt>
<rscale>  0 0.52698762E+03</rscale>
<asrwt>0</asrwt>
<pdfrwt beam="1">  1        1 0.38347587E-01 0.52698762E+03</pdfrwt>
<pdfrwt beam="2">  1       -1 0.36949342E-01 0.52698762E+03</pdfrwt>
<totfact> 0.78981526E+02</totfact>
</mgrwt>
</event>
<event>
 4    1  0.6282309E-006  0.7865830E+03  0.7818608E-02  0.9579643E-01
         -1   -1    0    0    0  501 -0.00000000000E+00  0.00000000000E+00  0.65174676359E+02  0.65174676554E+02  0.50400000000E-02 0.  1.
          1   -1    0    0  501    0  0.00000000000E+00 -0.00000000000E+00 -0.23732867166E+04  0.23732867166E+04  0.50400000000E-02 0. -1.
    5000001    1    1    2    0    0 -0.18907850620E+03 -0.22740482424E+03 -0.63890741394E+03  0.73161965473E+03  0.19900000000E+03 0.  0.
   -5000001    1    1    2    0    0  0.18907850620E+03  0.22740482424E+03 -0.16692046263E+04  0.17068417384E+04  0.19900000000E+03 0.  0.
<mgrwt>
<rscale>  0 0.78658297E+03</rscale>
<asrwt>0</asrwt>
<pdfrwt beam="1">  1        1 0.33904090E+00 0.78658297E+03</pdfrwt>
<pdfrwt beam="2">  1       -1 0.93106696E-02 0.78658297E+03</pdfrwt>
<totfact> 0.15776486E+02</totfact>
</mgrwt>
</event>
<event>
 4    1  0.6282309E-006  0.6650244E+03  0.7818608E-02  0.9778988E-01
          1   -1    0    0  501    0  0.00000000000E+00  0.00000000000E+00  0.18924800867E+04  0.18924800868E+04  0.50400000000E-02 0.  1.
         -1   -1    0    0    0  501 -0.00000000000E+00 -0.00000000000E+00 -0.58422994326E+02  0.58422994543E+02  0.50400000000E-02 0. -1.
    5000001    1    1    2    0    0 -0.11381596800E+03  0.43183961966E+01  0.16234714201E+04  0.16395832321E+04  0.19900000000E+03 0.  0.
   -5000001    1    1    2    0    0  0.11381596800E+03 -0.43183961966E+01  0.21058567234E+03  0.31131984921E+03  0.19900000000E+03 0.  0.
<mgrwt>
<rscale>  0 0.66502437E+03</rscale>
<asrwt>0</asrwt>
<pdfrwt beam="1">  1        1 0.27035430E+00 0.66502437E+03</pdfrwt>
<pdfrwt beam="2">  1       -1 0.83461419E-02 0.66502437E+03</pdfrwt>
<totfact> 0.37623286E+02</totfact>
</mgrwt>
</event>
<event>
 4    1  0.6282309E-006  0.5695377E+03  0.7818608E-02  0.9970702E-01
          1   -1    0    0  501    0  0.00000000000E+00  0.00000000000E+00  0.48954769311E+03  0.48954769313E+03  0.50400000000E-02 0.  1.
         -1   -1    0    0    0  501 -0.00000000000E+00 -0.00000000000E+00 -0.16564940880E+03  0.16564940887E+03  0.50400000000E-02 0. -1.
    5000001    1    1    2    0    0 -0.14237812840E+03 -0.29490000659E+01  0.32949778909E+03  0.41042663299E+03  0.19900000000E+03 0.  0.
   -5000001    1    1    2    0    0  0.14237812840E+03  0.29490000659E+01 -0.55995047801E+01  0.24477046902E+03  0.19900000000E+03 0.  0.
<mgrwt>
<rscale>  0 0.56953766E+03</rscale>
<asrwt>0</asrwt>
<pdfrwt beam="1">  1        1 0.69935385E-01 0.56953766E+03</pdfrwt>
<pdfrwt beam="2">  1       -1 0.23664201E-01 0.56953766E+03</pdfrwt>
<totfact> 0.78156162E+02</totfact>
</mgrwt>
</event>
<event>
 4    1  0.6282309E-006  0.4724279E+03  0.7818608E-02  0.1021237E+00
          1   -1    0    0  501    0  0.00000000000E+00  0.00000000000E+00  0.13491671491E+04  0.13491671491E+04  0.50400000000E-02 0.  1.
         -1   -1    0    0    0  501 -0.00000000000E+00 -0.00000000000E+00 -0.41356646281E+02  0.41356646588E+02  0.50400000000E-02 0. -1.
    5000001    1    1    2    0    0  0.80702925048E+02 -0.82882366612E+02  0.49778022497E+03  0.54842374235E+03  0.19900000000E+03 0.  0.
   -5000001    1    1    2    0    0 -0.80702925048E+02  0.82882366612E+02  0.81003027780E+03  0.84210005330E+03  0.19900000000E+03 0.  0.
<mgrwt>
<rscale>  0 0.47242789E+03</rscale>
<asrwt>0</asrwt>
<pdfrwt beam="1">  1        1 0.19273821E+00 0.47242789E+03</pdfrwt>
<pdfrwt beam="2">  1       -1 0.59080911E-02 0.47242789E+03</pdfrwt>
<totfact> 0.14320402E+03</totfact>
</mgrwt>
</event>
<event>
 4    1  0.6282309E-006  0.7414889E+03  0.7818608E-02  0.9648798E-01
          1   -1    0    0  501    0  0.00000000000E+00  0.00000000000E+00  0.13183289378E+04  0.13183289378E+04  0.50400000000E-02 0.  1.
         -1   -1    0    0    0  501 -0.00000000000E+00 -0.00000000000E+00 -0.10426187546E+03  0.10426187558E+03  0.50400000000E-02 0. -1.
    5000001    1    1    2    0    0  0.26103314846E+02 -0.31004777186E+03  0.66888867766E+03  0.76408380887E+03  0.19900000000E+03 0.  0.
   -5000001    1    1    2    0    0 -0.26103314846E+02  0.31004777186E+03  0.54517838467E+03  0.65850700451E+03  0.19900000000E+03 0.  0.
<mgrwt>
<rscale>  0 0.74148890E+03</rscale>
<asrwt>0</asrwt>
<pdfrwt beam="1">  1        1 0.18833270E+00 0.74148890E+03</pdfrwt>
<pdfrwt beam="2">  1       -1 0.14894554E-01 0.74148890E+03</pdfrwt>
<totfact> 0.34597331E+02</totfact>
</mgrwt>
</event>
<event>
 4    1  0.6282309E-006  0.4804910E+03  0.7818608E-02  0.1019000E+00
          1   -1    0    0  501    0  0.00000000000E+00  0.00000000000E+00  0.94785815608E+02  0.94785815742E+02  0.50400000000E-02 0. -1.
         -1   -1    0    0    0  501 -0.00000000000E+00 -0.00000000000E+00 -0.60892964367E+03  0.60892964369E+03  0.50400000000E-02 0.  1.
    5000001    1    1    2    0    0 -0.51983030195E+02  0.10810767903E+03 -0.34648768418E+03  0.41718607477E+03  0.19900000000E+03 0.  0.
   -5000001    1    1    2    0    0  0.51983030195E+02 -0.10810767903E+03 -0.16765614388E+03  0.28652938466E+03  0.19900000000E+03 0.  0.
<mgrwt>
<rscale>  0 0.48049097E+03</rscale>
<asrwt>0</asrwt>
<pdfrwt beam="1">  1        1 0.13540831E-01 0.48049097E+03</pdfrwt>
<pdfrwt beam="2">  1       -1 0.86989947E-01 0.48049097E+03</pdfrwt>
<totfact> 0.58370384E+02</totfact>
</mgrwt>
</event>
<event>
 4    1  0.6282309E-006  0.6146267E+03  0.7818608E-02  0.9875516E-01
          1   -1    0    0  501    0  0.00000000000E+00  0.00000000000E+00  0.20050526273E+03  0.20050526280E+03  0.50400000000E-02 0.  1.
         -1   -1    0    0    0  501 -0.00000000000E+00 -0.00000000000E+00 -0.47101759894E+03  0.47101759897E+03  0.50400000000E-02 0. -1.
    5000001    1    1    2    0    0  0.74761466461E+02 -0.22120203370E+03 -0.11568449120E+03  0.32787729120E+03  0.19900000000E+03 0.  0.
   -5000001    1    1    2    0    0 -0.74761466461E+02  0.22120203370E+03 -0.15482784501E+03  0.34364557057E+03  0.19900000000E+03 0.  0.
<mgrwt>
<rscale>  0 0.61462674E+03</rscale>
<asrwt>0</asrwt>
<pdfrwt beam="1">  1        1 0.28643609E-01 0.61462674E+03</pdfrwt>
<pdfrwt beam="2">  1       -1 0.67288228E-01 0.61462674E+03</pdfrwt>
<totfact> 0.37007462E+02</totfact>
</mgrwt>
</event>
<event>
 4    1  0.6282309E-006  0.4600324E+03  0.7818608E-02  0.1024772E+00
          1   -1    0    0  501    0  0.00000000000E+00  0.00000000000E+00  0.14275167873E+04  0.14275167873E+04  0.50400000000E-02 0.  1.
         -1   -1    0    0    0  501 -0.00000000000E+00 -0.00000000000E+00 -0.37062580916E+02  0.37062581258E+02  0.50400000000E-02 0. -1.
    5000001    1    1    2    0    0 -0.72397649007E+02  0.73199557827E+02  0.86086416543E+03  0.88954353810E+03  0.19900000000E+03 0.  0.
   -5000001    1    1    2    0    0  0.72397649007E+02 -0.73199557827E+02  0.52959004096E+03  0.57503583048E+03  0.19900000000E+03 0.  0.
<mgrwt>
<rscale>  0 0.46003242E+03</rscale>
<asrwt>0</asrwt>
<pdfrwt beam="1">  1        1 0.20393097E+00 0.46003242E+03</pdfrwt>
<pdfrwt beam="2">  1       -1 0.52946545E-02 0.46003242E+03</pdfrwt>
<totfact> 0.15065780E+03</totfact>
</mgrwt>
</event>
<event>
 4    1  0.6282309E-006  0.5578986E+03  0.7818608E-02  0.9996821E-01
          1   -1    0    0  501    0  0.00000000000E+00  0.00000000000E+00  0.54054583591E+03  0.54054583594E+03  0.50400000000E-02 0.  1.
         -1   -1    0    0    0  501 -0.00000000000E+00 -0.00000000000E+00 -0.14395211464E+03  0.14395211473E+03  0.50400000000E-02 0. -1.
    5000001    1    1    2    0    0 -0.12648424971E+03  0.18705586443E+02  0.37971354556E+03  0.44736063871E+03  0.19900000000E+03 0.  0.
   -5000001    1    1    2    0    0  0.12648424971E+03 -0.18705586443E+02  0.16880175714E+02  0.23713731195E+03  0.19900000000E+03 0.  0.
<mgrwt>
<rscale>  0 0.55789862E+03</rscale>
<asrwt>0</asrwt>
<pdfrwt beam="1">  1        1 0.77220835E-01 0.55789862E+03</pdfrwt>
<pdfrwt beam="2">  1       -1 0.20564588E-01 0.55789862E+03</pdfrwt>
<totfact> 0.86473539E+02</totfact>
</mgrwt>
</event>
<event>
 4    1  0.6282309E-006  0.5308701E+03  0.7818608E-02  0.1006021E+00
          1   -1    0    0  501    0  0.00000000000E+00  0.00000000000E+00  0.90957452283E+03  0.90957452285E+03  0.50400000000E-02 0.  1.
         -1   -1    0    0    0  501 -0.00000000000E+00 -0.00000000000E+00 -0.77460138180E+02  0.77460138344E+02  0.50400000000E-02 0. -1.
    5000001    1    1    2    0    0  0.94520382838E+02 -0.10928437389E+03  0.23033791595E+03  0.33694767053E+03  0.19900000000E+03 0.  0.
   -5000001    1    1    2    0    0 -0.94520382838E+02  0.10928437389E+03  0.60177646870E+03  0.65008699067E+03  0.19900000000E+03 0.  0.
<mgrwt>
<rscale>  0 0.53087011E+03</rscale>
<asrwt>0</asrwt>
<pdfrwt beam="1">  1        1 0.12993921E+00 0.53087011E+03</pdfrwt>
<pdfrwt beam="2">  1       -1 0.11065735E-01 0.53087011E+03</pdfrwt>
<totfact> 0.10972078E+03</totfact>
</mgrwt>
</event>
<event>
 4    1  0.6282309E-006  0.5385983E+03  0.7818608E-02  0.1004168E+00
          1   -1    0    0  501    0  0.00000000000E+00  0.00000000000E+00  0.32439831928E+02  0.32439832319E+02  0.50400000000E-02 0.  1.
         -1   -1    0    0    0  501 -0.00000000000E+00 -0.00000000000E+00 -0.22355856547E+04  0.22355856547E+04  0.50400000000E-02 0. -1.
    5000001    1    1    2    0    0 -0.35457182864E+02 -0.11787133548E+03 -0.16629163434E+04  0.16792982548E+04  0.19900000000E+03 0.  0.
   -5000001    1    1    2    0    0  0.35457182864E+02  0.11787133548E+03 -0.54022947942E+03  0.58872723224E+03  0.19900000000E+03 0.  0.
<mgrwt>
<rscale>  0 0.53859827E+03</rscale>
<asrwt>0</asrwt>
<pdfrwt beam="1">  1        1 0.46342631E-02 0.53859827E+03</pdfrwt>
<pdfrwt beam="2">  1       -1 0.31936928E+00 0.53859827E+03</pdfrwt>
<totfact> 0.52122218E+01</totfact>
</mgrwt>
</event>
<event>
 4    1  0.6282309E-006  0.6165593E+03  0.7818608E-02  0.9871634E-01
         -1   -1    0    0    0  501 -0.00000000000E+00  0.00000000000E+00  0.44889032420E+02  0.44889032703E+02  0.50400000000E-02 0. -1.
          1   -1    0    0  501    0  0.00000000000E+00 -0.00000000000E+00 -0.21171391871E+04  0.21171391871E+04  0.50400000000E-02 0.  1.
    5000001    1    1    2    0    0 -0.15754437029E+03 -0.16495140717E+03 -0.12407777573E+04  0.12771686022E+04  0.19900000000E+03 0.  0.
   -5000001    1    1    2    0    0  0.15754437029E+03  0.16495140717E+03 -0.83147239735E+03  0.88485961762E+03  0.19900000000E+03 0.  0.
<mgrwt>
<rscale>  0 0.61655926E+03</rscale>
<asrwt>0</asrwt>
<pdfrwt beam="1">  1        1 0.30244839E+00 0.61655926E+03</pdfrwt>
<pdfrwt beam="2">  1       -1 0.64127203E-02 0.61655926E+03</pdfrwt>
<totfact> 0.41300975E+02</totfact>
</mgrwt>
</event>
<event>
 4    1  0.6282309E-006  0.4858788E+03  0.7818608E-02  0.1017532E+00
          1   -1    0    0  501    0  0.00000000000E+00  0.00000000000E+00  0.45363237274E+03  0.45363237277E+03  0.50400000000E-02 0.  1.
         -1   -1    0    0    0  501 -0.00000000000E+00 -0.00000000000E+00 -0.13010437115E+03  0.13010437125E+03  0.50400000000E-02 0. -1.
    5000001    1    1    2    0    0 -0.72330226474E+02 -0.11900081641E+03  0.16785437941E+03  0.29524387996E+03  0.19900000000E+03 0.  0.
   -5000001    1    1    2    0    0  0.72330226474E+02  0.11900081641E+03  0.15567362218E+03  0.28849286405E+03  0.19900000000E+03 0.  0.
<mgrwt>
<rscale>  0 0.48587881E+03</rscale>
<asrwt>0</asrwt>
<pdfrwt beam="1">  1        1 0.64804626E-01 0.48587881E+03</pdfrwt>
<pdfrwt beam="2">  1       -1 0.18586338E-01 0.48587881E+03</pdfrwt>
<totfact> 0.12930614E+03</totfact>
</mgrwt>
</event>
<event>
 4    1  0.6282309E-006  0.8074211E+03  0.7818608E-02  0.9549337E-01
          1   -1    0    0  501    0  0.00000000000E+00  0.00000000000E+00  0.24604151497E+04  0.24604151497E+04  0.50400000000E-02 0. -1.
         -1   -1    0    0    0  501 -0.00000000000E+00 -0.00000000000E+00 -0.66241744804E+02  0.66241744996E+02  0.50400000000E-02 0.  1.
    5000001    1    1    2    0    0 -0.27415897705E+03  0.57352748949E+02  0.18603839162E+04  0.18918461349E+04  0.19900000000E+03 0.  0.
   -5000001    1    1    2    0    0  0.27415897705E+03 -0.57352748949E+02  0.53378948869E+03  0.63481075979E+03  0.19900000000E+03 0.  0.
<mgrwt>
<rscale>  0 0.80742106E+03</rscale>
<asrwt>0</asrwt>
<pdfrwt beam="1">  1        1 0.35148785E+00 0.80742106E+03</pdfrwt>
<pdfrwt beam="2">  1       -1 0.94631071E-02 0.80742106E+03</pdfrwt>
<totfact> 0.13538431E+02</totfact>
</mgrwt>
</event>
<event>
 4    1  0.6282309E-006  0.5052634E+03  0.7818608E-02  0.1012414E+00
         -1   -1    0    0    0  501 -0.00000000000E+00  0.00000000000E+00  0.68390521407E+02  0.68390521593E+02  0.50400000000E-02 0. -1.
          1   -1    0    0  501    0  0.00000000000E+00 -0.00000000000E+00 -0.93321086151E+03  0.93321086152E+03  0.50400000000E-02 0.  1.
    5000001    1    1    2    0    0 -0.81701435739E+02 -0.13226531070E+03 -0.44677908949E+03  0.51320735753E+03  0.19900000000E+03 0.  0.
   -5000001    1    1    2    0    0  0.81701435739E+02  0.13226531070E+03 -0.41804125061E+03  0.48839402559E+03  0.19900000000E+03 0.  0.
<mgrwt>
<rscale>  0 0.50526341E+03</rscale>
<asrwt>0</asrwt>
<pdfrwt beam="1">  1        1 0.13331583E+00 0.50526341E+03</pdfrwt>
<pdfrwt beam="2">  1       -1 0.97700751E-02 0.50526341E+03</pdfrwt>
<totfact> 0.12812099E+03</totfact>
</mgrwt>
</event>
<event>
 4    1  0.6282309E-006  0.6014489E+03  0.7818608E-02  0.9902405E-01
          1   -1    0    0  501    0  0.00000000000E+00  0.00000000000E+00  0.14023133465E+03  0.14023133474E+03  0.50400000000E-02 0.  1.
         -1   -1    0    0    0  501 -0.00000000000E+00 -0.00000000000E+00 -0.64490013478E+03  0.64490013480E+03  0.50400000000E-02 0. -1.
    5000001    1    1    2    0    0 -0.20482769786E+03 -0.76549017473E+01 -0.12972944276E+03  0.31375740891E+03  0.19900000000E+03 0.  0.
   -5000001    1    1    2    0    0  0.20482769786E+03  0.76549017473E+01 -0.37493935736E+03  0.47137406062E+03  0.19900000000E+03 0.  0.
<mgrwt>
<rscale>  0 0.60144894E+03</rscale>
<asrwt>0</asrwt>
<pdfrwt beam="1">  1        1 0.20033048E-01 0.60144894E+03</pdfrwt>
<pdfrwt beam="2">  1       -1 0.92128589E-01 0.60144894E+03</pdfrwt>
<totfact> 0.30475015E+02</totfact>
</mgrwt>
</event>
<event>
 4    1  0.6282309E-006  0.6734596E+03  0.7818608E-02  0.9763728E-01
          1   -1    0    0  501    0  0.00000000000E+00  0.00000000000E+00  0.22939949414E+04  0.22939949414E+04  0.50400000000E-02 0.  1.
         -1   -1    0    0    0  501 -0.00000000000E+00 -0.00000000000E+00 -0.49427722625E+02  0.49427722882E+02  0.50400000000E-02 0. -1.
    5000001    1    1    2    0    0 -0.19772289335E+03  0.21443445709E+02  0.47847933543E+03  0.55506543610E+03  0.19900000000E+03 0.  0.
   -5000001    1    1    2    0    0  0.19772289335E+03 -0.21443445709E+02  0.17660878833E+04  0.17883572281E+04  0.19900000000E+03 0.  0.
<mgrwt>
<rscale>  0 0.67345956E+03</rscale>
<asrwt>0</asrwt>
<pdfrwt beam="1">  1        1 0.32771354E+00 0.67345956E+03</pdfrwt>
<pdfrwt beam="2">  1       -1 0.70611037E-02 0.67345956E+03</pdfrwt>
<totfact> 0.27524987E+02</totfact>
</mgrwt>
</event>
<event>
 4    1  0.6282309E-006  0.1088461E+04  0.7818608E-02  0.9216512E-01
         -1   -1    0    0    0  501 -0.00000000000E+00  0.00000000000E+00  0.53141002193E+03  0.53141002196E+03  0.50400000000E-02 0.  1.
          1   -1    0    0  501    0  0.00000000000E+00 -0.00000000000E+00 -0.55736063261E+03  0.55736063264E+03  0.50400000000E-02 0. -1.
    5000001    1    1    2    0    0  0.27083082074E+03  0.42338312148E+03  0.50157010221E+02  0.54288058235E+03  0.19900000000E+03 0.  0.
   -5000001    1    1    2    0    0 -0.27083082074E+03 -0.42338312148E+03 -0.76107620901E+02  0.54589007224E+03  0.19900000000E+03 0.  0.
<mgrwt>
<rscale>  0 0.10884613E+04</rscale>
<asrwt>0</asrwt>
<pdfrwt beam="1">  1        1 0.79622948E-01 0.10884613E+04</pdfrwt>
<pdfrwt beam="2">  1       -1 0.75915717E-01 0.10884613E+04</pdfrwt>
<totfact> 0.73520785E+01</totfact>
</mgrwt>
</event>
<event>
 4    1  0.6282309E-006  0.1304559E+04  0.7818608E-02  0.9025957E-01
          1   -1    0    0  501    0  0.00000000000E+00  0.00000000000E+00  0.45677011675E+03  0.45677011677E+03  0.50400000000E-02 0.  1.
         -1   -1    0    0    0  501 -0.00000000000E+00 -0.00000000000E+00 -0.93147239377E+03  0.93147239378E+03  0.50400000000E-02 0. -1.
    5000001    1    1    2    0    0 -0.16324438364E+03  0.35287790650E+03  0.27817957541E+03  0.51783821978E+03  0.19900000000E+03 0.  0.
   -5000001    1    1    2    0    0  0.16324438364E+03 -0.35287790650E+03 -0.75288185243E+03  0.87040429078E+03  0.19900000000E+03 0.  0.
<mgrwt>
<rscale>  0 0.13045593E+04</rscale>
<asrwt>0</asrwt>
<pdfrwt beam="1">  1        1 0.65252874E-01 0.13045593E+04</pdfrwt>
<pdfrwt beam="2">  1       -1 0.13306748E+00 0.13045593E+04</pdfrwt>
<totfact> 0.26083560E+01</totfact>
</mgrwt>
</event>
<event>
 4    1  0.6282309E-006  0.5983172E+03  0.7818608E-02  0.9908904E-01
          1   -1    0    0  501    0  0.00000000000E+00  0.00000000000E+00  0.39179956805E+03  0.39179956808E+03  0.50400000000E-02 0. -1.
         -1   -1    0    0    0  501 -0.00000000000E+00 -0.00000000000E+00 -0.22842254743E+03  0.22842254748E+03  0.50400000000E-02 0.  1.
    5000001    1    1    2    0    0 -0.16397102203E+03 -0.45182023648E+02 -0.68412411506E+02  0.27057193013E+03  0.19900000000E+03 0.  0.
   -5000001    1    1    2    0    0  0.16397102203E+03  0.45182023648E+02  0.23178943213E+03  0.34965018543E+03  0.19900000000E+03 0.  0.
<mgrwt>
<rscale>  0 0.59831716E+03</rscale>
<asrwt>0</asrwt>
<pdfrwt beam="1">  1        1 0.55971366E-01 0.59831716E+03</pdfrwt>
<pdfrwt beam="2">  1       -1 0.32631793E-01 0.59831716E+03</pdfrwt>
<totfact> 0.60342645E+02</totfact>
</mgrwt>
</event>
<event>
 4    1  0.6282309E-006  0.7701735E+03  0.7818608E-02  0.9604222E-01
          1   -1    0    0  501    0  0.00000000000E+00  0.00000000000E+00  0.18691659555E+04  0.18691659555E+04  0.50400000000E-02 0.  1.
         -1   -1    0    0    0  501 -0.00000000000E+00 -0.00000000000E+00 -0.79335823116E+02  0.79335823276E+02  0.50400000000E-02 0. -1.
    5000001    1    1    2    0    0 -0.96092791053E+01 -0.27506928768E+03  0.43577681350E+03  0.55250147733E+03  0.19900000000E+03 0.  0.
   -5000001    1    1    2    0    0  0.96092791053E+01  0.27506928768E+03  0.13540533189E+04  0.13960003014E+04  0.19900000000E+03 0.  0.
<mgrwt>
<rscale>  0 0.77017354E+03</rscale>
<asrwt>0</asrwt>
<pdfrwt beam="1">  1        1 0.26702369E+00 0.77017354E+03</pdfrwt>
<pdfrwt beam="2">  1       -1 0.11333690E-01 0.77017354E+03</pdfrwt>
<totfact> 0.23802549E+02</totfact>
</mgrwt>
</event>
<event>
 4    1  0.6282309E-006  0.4776388E+03  0.7818608E-02  0.1019786E+00
          1   -1    0    0  501    0  0.00000000000E+00  0.00000000000E+00  0.27430790419E+04  0.27430790419E+04  0.50400000000E-02 0.  1.
         -1   -1    0    0    0  501 -0.00000000000E+00 -0.00000000000E+00 -0.20792223188E+02  0.20792223799E+02  0.50400000000E-02 0. -1.
    5000001    1    1    2    0    0  0.53182062114E+02 -0.72970590294E+02  0.80369081714E+03  0.83287031903E+03  0.19900000000E+03 0.  0.
   -5000001    1    1    2    0    0 -0.53182062114E+02  0.72970590294E+02  0.19185960016E+04  0.19310009467E+04  0.19900000000E+03 0.  0.
<mgrwt>
<rscale>  0 0.47763883E+03</rscale>
<asrwt>0</asrwt>
<pdfrwt beam="1">  1        1 0.39186873E+00 0.47763883E+03</pdfrwt>
<pdfrwt beam="2">  1       -1 0.29703154E-02 0.47763883E+03</pdfrwt>
<totfact> 0.55023145E+02</totfact>
</mgrwt>
</event>
<event>
 4    1  0.6282309E-006  0.6237675E+03  0.7818608E-02  0.9857287E-01
         -1   -1    0    0    0  501 -0.00000000000E+00  0.00000000000E+00  0.16887218311E+03  0.16887218318E+03  0.50400000000E-02 0. -1.
          1   -1    0    0  501    0  0.00000000000E+00 -0.00000000000E+00 -0.57600652484E+03  0.57600652486E+03  0.50400000000E-02 0.  1.
    5000001    1    1    2    0    0 -0.17976530805E+03  0.83138478924E+02 -0.41394567320E+02  0.28379937079E+03  0.19900000000E+03 0.  0.
   -5000001    1    1    2    0    0  0.17976530805E+03 -0.83138478924E+02 -0.36573977442E+03  0.46107933726E+03  0.19900000000E+03 0.  0.
<mgrwt>
<rscale>  0 0.62376752E+03</rscale>
<asrwt>0</asrwt>
<pdfrwt beam="1">  1        1 0.82286645E-01 0.62376752E+03</pdfrwt>
<pdfrwt beam="2">  1       -1 0.24124598E-01 0.62376752E+03</pdfrwt>
<totfact> 0.60543910E+02</totfact>
</mgrwt>
</event>
<event>
 4    1  0.6282309E-006  0.7564932E+03  0.7818608E-02  0.9625218E-01
         -1   -1    0    0    0  501 -0.00000000000E+00  0.00000000000E+00  0.14822853280E+03  0.14822853289E+03  0.50400000000E-02 0. -1.
          1   -1    0    0  501    0  0.00000000000E+00 -0.00000000000E+00 -0.96520202598E+03  0.96520202600E+03  0.50400000000E-02 0.  1.
    5000001    1    1    2    0    0 -0.16476860284E+03  0.27553233446E+03 -0.37895018475E+03  0.53504299111E+03  0.19900000000E+03 0.  0.
   -5000001    1    1    2    0    0  0.16476860284E+03 -0.27553233446E+03 -0.43802330844E+03  0.57838756777E+03  0.19900000000E+03 0.  0.
<mgrwt>
<rscale>  0 0.75649317E+03</rscale>
<asrwt>0</asrwt>
<pdfrwt beam="1">  1        1 0.13788600E+00 0.75649317E+03</pdfrwt>
<pdfrwt beam="2">  1       -1 0.21175505E-01 0.75649317E+03</pdfrwt>
<totfact> 0.34354513E+02</totfact>
</mgrwt>
</event>
<event>
 4    1  0.6282309E-006  0.5673219E+03  0.7818608E-02  0.9975622E-01
         -1   -1    0    0    0  501 -0.00000000000E+00  0.00000000000E+00  0.15823640450E+03  0.15823640458E+03  0.50400000000E-02 0. -1.
          1   -1    0    0  501    0  0.00000000000E+00 -0.00000000000E+00 -0.50850205608E+03  0.50850205610E+03  0.50400000000E-02 0.  1.
    5000001    1    1    2    0    0 -0.14187949519E+03 -0.86014210864E+02 -0.39423064372E+02  0.26207520606E+03  0.19900000000E+03 0.  0.
   -5000001    1    1    2    0    0  0.14187949519E+03  0.86014210864E+02 -0.31084258720E+03  0.40466325463E+03  0.19900000000E+03 0.  0.
<mgrwt>
<rscale>  0 0.56732191E+03</rscale>
<asrwt>0</asrwt>
<pdfrwt beam="1">  1        1 0.72643150E-01 0.56732191E+03</pdfrwt>
<pdfrwt beam="2">  1       -1 0.22605201E-01 0.56732191E+03</pdfrwt>
<totfact> 0.80210648E+02</totfact>
</mgrwt>
</event>
<event>
 4    1  0.6282309E-006  0.8036661E+03  0.7818608E-02  0.9554726E-01
         -1   -1    0    0    0  501 -0.00000000000E+00  0.00000000000E+00  0.44741827944E+03  0.44741827947E+03  0.50400000000E-02 0. -1.
          1   -1    0    0  501    0  0.00000000000E+00 -0.00000000000E+00 -0.36089225328E+03  0.36089225331E+03  0.50400000000E-02 0.  1.
    5000001    1    1    2    0    0  0.33354281502E+03  0.59966833880E+02 -0.41018396338E+02  0.39513331859E+03  0.19900000000E+03 0.  0.
   -5000001    1    1    2    0    0 -0.33354281502E+03 -0.59966833880E+02  0.12754442250E+03  0.41317721419E+03  0.19900000000E+03 0.  0.
<mgrwt>
<rscale>  0 0.80366608E+03</rscale>
<asrwt>0</asrwt>
<pdfrwt beam="1">  1        1 0.51556036E-01 0.80366608E+03</pdfrwt>
<pdfrwt beam="2">  1       -1 0.63916897E-01 0.80366608E+03</pdfrwt>
<totfact> 0.19034319E+02</totfact>
</mgrwt>
</event>
<event>
 4    1  0.6282309E-006  0.1052394E+04  0.7818608E-02  0.9252876E-01
         -1   -1    0    0    0  501 -0.00000000000E+00  0.00000000000E+00  0.87162269433E+03  0.87162269434E+03  0.50400000000E-02 0. -1.
          1   -1    0    0  501    0  0.00000000000E+00 -0.00000000000E+00 -0.31766399244E+03  0.31766399248E+03  0.50400000000E-02 0.  1.
    5000001    1    1    2    0    0 -0.49968189656E+02 -0.43310029987E+03  0.52251965920E+03  0.70901374033E+03  0.19900000000E+03 0.  0.
   -5000001    1    1    2    0    0  0.49968189656E+02  0.43310029987E+03  0.31439042691E+02  0.48027294649E+03  0.19900000000E+03 0.  0.
<mgrwt>
<rscale>  0 0.10523937E+04</rscale>
<asrwt>0</asrwt>
<pdfrwt beam="1">  1        1 0.45380570E-01 0.10523937E+04</pdfrwt>
<pdfrwt beam="2">  1       -1 0.12451753E+00 0.10523937E+04</pdfrwt>
<totfact> 0.50645219E+01</totfact>
</mgrwt>
</event>
<event>
 4    1  0.6282309E-006  0.4924085E+03  0.7818608E-02  0.1015780E+00
         -1   -1    0    0    0  501 -0.00000000000E+00  0.00000000000E+00  0.27336620301E+02  0.27336620765E+02  0.50400000000E-02 0. -1.
          1   -1    0    0  501    0  0.00000000000E+00 -0.00000000000E+00 -0.22174112498E+04  0.22174112498E+04  0.50400000000E-02 0.  1.
    5000001    1    1    2    0    0  0.10474957890E+03  0.42945843865E+02 -0.15078136616E+04  0.15250966717E+04  0.19900000000E+03 0.  0.
   -5000001    1    1    2    0    0 -0.10474957890E+03 -0.42945843865E+02 -0.68226096792E+03  0.71965119894E+03  0.19900000000E+03 0.  0.
<mgrwt>
<rscale>  0 0.49240849E+03</rscale>
<asrwt>0</asrwt>
<pdfrwt beam="1">  1        1 0.31677292E+00 0.49240849E+03</pdfrwt>
<pdfrwt beam="2">  1       -1 0.39052329E-02 0.49240849E+03</pdfrwt>
<totfact> 0.77130556E+02</totfact>
</mgrwt>
</event>
<event>
 4    1  0.6282309E-006  0.4965112E+03  0.7818608E-02  0.1014694E+00
          1   -1    0    0  501    0  0.00000000000E+00  0.00000000000E+00  0.28095679630E+03  0.28095679635E+03  0.50400000000E-02 0.  1.
         -1   -1    0    0    0  501 -0.00000000000E+00 -0.00000000000E+00 -0.21936054407E+03  0.21936054413E+03  0.50400000000E-02 0. -1.
    5000001    1    1    2    0    0 -0.50271714199E+02 -0.12542963756E+03  0.92669107469E+02  0.25777587689E+03  0.19900000000E+03 0.  0.
   -5000001    1    1    2    0    0  0.50271714199E+02  0.12542963756E+03 -0.31072855239E+02  0.24254146359E+03  0.19900000000E+03 0.  0.
<mgrwt>
<rscale>  0 0.49651117E+03</rscale>
<asrwt>0</asrwt>
<pdfrwt beam="1">  1        1 0.40136685E-01 0.49651117E+03</pdfrwt>
<pdfrwt beam="2">  1       -1 0.31337221E-01 0.49651117E+03</pdfrwt>
<totfact> 0.99576022E+02</totfact>
</mgrwt>
</event>
<event>
 4    1  0.6282309E-006  0.6902734E+03  0.7818608E-02  0.9734012E-01
          1   -1    0    0  501    0  0.00000000000E+00  0.00000000000E+00  0.66937613564E+03  0.66937613566E+03  0.50400000000E-02 0.  1.
         -1   -1    0    0    0  501 -0.00000000000E+00 -0.00000000000E+00 -0.17795578851E+03  0.17795578859E+03  0.50400000000E-02 0. -1.
    5000001    1    1    2    0    0 -0.20157637495E+03  0.17016645021E+03  0.12339547561E+03  0.35272808098E+03  0.19900000000E+03 0.  0.
   -5000001    1    1    2    0    0  0.20157637495E+03 -0.17016645021E+03  0.36802487152E+03  0.49460384327E+03  0.19900000000E+03 0.  0.
<mgrwt>
<rscale>  0 0.69027345E+03</rscale>
<asrwt>0</asrwt>
<pdfrwt beam="1">  1        1 0.95625163E-01 0.69027345E+03</pdfrwt>
<pdfrwt beam="2">  1       -1 0.25422255E-01 0.69027345E+03</pdfrwt>
<totfact> 0.44669305E+02</totfact>
</mgrwt>
</event>
<event>
 4    1  0.6282309E-006  0.7682854E+03  0.7818608E-02  0.9607092E-01
          1   -1    0    0  501    0  0.00000000000E+00  0.00000000000E+00  0.86646652239E+03  0.86646652241E+03  0.50400000000E-02 0. -1.
         -1   -1    0    0    0  501 -0.00000000000E+00 -0.00000000000E+00 -0.17030733316E+03  0.17030733323E+03  0.50400000000E-02 0.  1.
    5000001    1    1    2    0    0  0.90076652500E+02 -0.31263934661E+03  0.41002925287E+03  0.55998406458E+03  0.19900000000E+03 0.  0.
   -5000001    1    1    2    0    0 -0.90076652500E+02  0.31263934661E+03  0.28612993636E+03  0.47678979106E+03  0.19900000000E+03 0.  0.
<mgrwt>
<rscale>  0 0.76828537E+03</rscale>
<asrwt>0</asrwt>
<pdfrwt beam="1">  1        1 0.12378093E+00 0.76828537E+03</pdfrwt>
<pdfrwt beam="2">  1       -1 0.24329619E-01 0.76828537E+03</pdfrwt>
<totfact> 0.32422221E+02</totfact>
</mgrwt>
</event>
<event>
 4    1  0.6282309E-006  0.5085859E+03  0.7818608E-02  0.1011562E+00
         -1   -1    0    0    0  501 -0.00000000000E+00  0.00000000000E+00  0.67265276380E+02  0.67265276569E+02  0.50400000000E-02 0. -1.
          1   -1    0    0  501    0  0.00000000000E+00 -0.00000000000E+00 -0.96134164579E+03  0.96134164580E+03  0.50400000000E-02 0.  1.
    5000001    1    1    2    0    0 -0.11619893964E+03  0.44574883305E+02 -0.24913630976E+03  0.34228499038E+03  0.19900000000E+03 0.  0.
   -5000001    1    1    2    0    0  0.11619893964E+03 -0.44574883305E+02 -0.64494005965E+03  0.68632193199E+03  0.19900000000E+03 0.  0.
<mgrwt>
<rscale>  0 0.50858593E+03</rscale>
<asrwt>0</asrwt>
<pdfrwt beam="1">  1        1 0.13733451E+00 0.50858593E+03</pdfrwt>
<pdfrwt beam="2">  1       -1 0.96093258E-02 0.50858593E+03</pdfrwt>
<totfact> 0.12521506E+03</totfact>
</mgrwt>
</event>
<event>
 4    1  0.6282309E-006  0.7758578E+03  0.7818608E-02  0.9595635E-01
         -1   -1    0    0    0  501 -0.00000000000E+00  0.00000000000E+00  0.77464710396E+02  0.77464710560E+02  0.50400000000E-02 0.  1.
          1   -1    0    0  501    0  0.00000000000E+00 -0.00000000000E+00 -0.19426757273E+04  0.19426757273E+04  0.50400000000E-02 0. -1.
    5000001    1    1    2    0    0 -0.19599943008E+03  0.22464991780E+03 -0.13188432629E+04  0.13666864726E+04  0.19900000000E+03 0.  0.
   -5000001    1    1    2    0    0  0.19599943008E+03 -0.22464991780E+03 -0.54636775395E+03  0.65345396526E+03  0.19900000000E+03 0.  0.
<mgrwt>
<rscale>  0 0.77585775E+03</rscale>
<asrwt>0</asrwt>
<pdfrwt beam="1">  1        1 0.27752508E+00 0.77585775E+03</pdfrwt>
<pdfrwt beam="2">  1       -1 0.11066388E-01 0.77585775E+03</pdfrwt>
<totfact> 0.22241212E+02</totfact>
</mgrwt>
</event>
<event>
 4    1  0.6282309E-006  0.6379753E+03  0.7818608E-02  0.9829608E-01
          1   -1    0    0  501    0  0.00000000000E+00  0.00000000000E+00  0.13466214275E+04  0.13466214276E+04  0.50400000000E-02 0.  1.
         -1   -1    0    0    0  501 -0.00000000000E+00 -0.00000000000E+00 -0.75561793615E+02  0.75561793783E+02  0.50400000000E-02 0. -1.
    5000001    1    1    2    0    0  0.20320465672E+03  0.28781174728E+02  0.95103750045E+03  0.99307291564E+03  0.19900000000E+03 0.  0.
   -5000001    1    1    2    0    0 -0.20320465672E+03 -0.28781174728E+02  0.32002213348E+03  0.42911030569E+03  0.19900000000E+03 0.  0.
<mgrwt>
<rscale>  0 0.63797533E+03</rscale>
<asrwt>0</asrwt>
<pdfrwt beam="1">  1        1 0.19237447E+00 0.63797533E+03</pdfrwt>
<pdfrwt beam="2">  1       -1 0.10794543E-01 0.63797533E+03</pdfrwt>
<totfact> 0.55858309E+02</totfact>
</mgrwt>
</event>
<event>
 4    1  0.6282309E-006  0.5330976E+03  0.7818608E-02  0.1005484E+00
          1   -1    0    0  501    0  0.00000000000E+00  0.00000000000E+00  0.14136878702E+04  0.14136878702E+04  0.50400000000E-02 0. -1.
         -1   -1    0    0    0  501 -0.00000000000E+00 -0.00000000000E+00 -0.50257382578E+02  0.50257382831E+02  0.50400000000E-02 0.  1.
    5000001    1    1    2    0    0  0.13364879660E+03  0.21455913121E+02  0.36710992257E+03  0.43896816774E+03  0.19900000000E+03 0.  0.
   -5000001    1    1    2    0    0 -0.13364879660E+03 -0.21455913121E+02  0.99632056504E+03  0.10249770853E+04  0.19900000000E+03 0.  0.
<mgrwt>
<rscale>  0 0.53309756E+03</rscale>
<asrwt>0</asrwt>
<pdfrwt beam="1">  1        1 0.20195543E+00 0.53309756E+03</pdfrwt>
<pdfrwt beam="2">  1       -1 0.71796254E-02 0.53309756E+03</pdfrwt>
<totfact> 0.96097625E+02</totfact>
</mgrwt>
</event>
<event>
 4    1  0.6282309E-006  0.8881254E+03  0.7818608E-02  0.9440548E-01
          1   -1    0    0  501    0  0.00000000000E+00  0.00000000000E+00  0.19835320294E+04  0.19835320294E+04  0.50400000000E-02 0.  1.
         -1   -1    0    0    0  501 -0.00000000000E+00 -0.00000000000E+00 -0.99414418259E+02  0.99414418387E+02  0.50400000000E-02 0. -1.
    5000001    1    1    2    0    0 -0.71505795519E+02 -0.34863612804E+03  0.13545331699E+04  0.14145746134E+04  0.19900000000E+03 0.  0.
   -5000001    1    1    2    0    0  0.71505795519E+02  0.34863612804E+03  0.52958444120E+03  0.66837183434E+03  0.19900000000E+03 0.  0.
<mgrwt>
<rscale>  0 0.88812540E+03</rscale>
<asrwt>0</asrwt>
<pdfrwt beam="1">  1        1 0.28336168E+00 0.88812540E+03</pdfrwt>
<pdfrwt beam="2">  1       -1 0.14202062E-01 0.88812540E+03</pdfrwt>
<totfact> 0.13919897E+02</totfact>
</mgrwt>
</event>
<event>
 4    1  0.6282309E-006  0.5372970E+03  0.7818608E-02  0.1004478E+00
          1   -1    0    0  501    0  0.00000000000E+00  0.00000000000E+00  0.46267462718E+03  0.46267462721E+03  0.50400000000E-02 0.  1.
         -1   -1    0    0    0  501 -0.00000000000E+00 -0.00000000000E+00 -0.15598872642E+03  0.15598872650E+03  0.50400000000E-02 0. -1.
    5000001    1    1    2    0    0 -0.90005513493E+02  0.14589166474E+03  0.21833187600E+03  0.34154820798E+03  0.19900000000E+03 0.  0.
   -5000001    1    1    2    0    0  0.90005513493E+02 -0.14589166474E+03  0.88354024761E+02  0.27711514573E+03  0.19900000000E+03 0.  0.
<mgrwt>
<rscale>  0 0.53729703E+03</rscale>
<asrwt>0</asrwt>
<pdfrwt beam="1">  1        1 0.66096375E-01 0.53729703E+03</pdfrwt>
<pdfrwt beam="2">  1       -1 0.22284104E-01 0.53729703E+03</pdfrwt>
<totfact> 0.93251220E+02</totfact>
</mgrwt>
</event>
<event>
 4    1  0.6282309E-006  0.4554361E+03  0.7818608E-02  0.1026113E+00
         -1   -1    0    0    0  501 -0.00000000000E+00  0.00000000000E+00  0.49107569448E+02  0.49107569707E+02  0.50400000000E-02 0.  1.
          1   -1    0    0  501    0  0.00000000000E+00 -0.00000000000E+00 -0.10559577170E+04  0.10559577170E+04  0.50400000000E-02 0. -1.
    5000001    1    1    2    0    0  0.39479172639E+02  0.88886644108E+02 -0.37514555984E+03  0.43565425700E+03  0.19900000000E+03 0.  0.
   -5000001    1    1    2    0    0 -0.39479172639E+02 -0.88886644108E+02 -0.63170458769E+03  0.66941102970E+03  0.19900000000E+03 0.  0.
<mgrwt>
<rscale>  0 0.45543613E+03</rscale>
<asrwt>0</asrwt>
<pdfrwt beam="1">  1        1 0.15085109E+00 0.45543613E+03</pdfrwt>
<pdfrwt beam="2">  1       -1 0.70153677E-02 0.45543613E+03</pdfrwt>
<totfact> 0.17422330E+03</totfact>
</mgrwt>
</event>
<event>
 4    1  0.6282309E-006  0.1395838E+04  0.7818608E-02  0.8956837E-01
         -1   -1    0    0    0  501 -0.00000000000E+00  0.00000000000E+00  0.53890068065E+03  0.53890068067E+03  0.50400000000E-02 0. -1.
          1   -1    0    0  501    0  0.00000000000E+00 -0.00000000000E+00 -0.90385990837E+03  0.90385990839E+03  0.50400000000E-02 0.  1.
    5000001    1    1    2    0    0  0.52499347759E+02 -0.66517041752E+03 -0.23185417791E+03  0.73387003323E+03  0.19900000000E+03 0.  0.
   -5000001    1    1    2    0    0 -0.52499347759E+02  0.66517041752E+03 -0.13310504981E+03  0.70889055583E+03  0.19900000000E+03 0.  0.
<mgrwt>
<rscale>  0 0.13958377E+04</rscale>
<asrwt>0</asrwt>
<pdfrwt beam="1">  1        1 0.12912284E+00 0.13958377E+04</pdfrwt>
<pdfrwt beam="2">  1       -1 0.76985812E-01 0.13958377E+04</pdfrwt>
<totfact> 0.33837052E+01</totfact>
</mgrwt>
</event>
<event>
 4    1  0.6282309E-006  0.4959135E+03  0.7818608E-02  0.1014851E+00
         -1   -1    0    0    0  501 -0.00000000000E+00  0.00000000000E+00  0.26935959151E+02  0.26935959623E+02  0.50400000000E-02 0. -1.
          1   -1    0    0  501    0  0.00000000000E+00 -0.00000000000E+00 -0.22825452083E+04  0.22825452083E+04  0.50400000000E-02 0.  1.
    5000001    1    1    2    0    0 -0.11113900133E+02 -0.13877592708E+03 -0.89498748227E+03  0.92735423120E+03  0.19900000000E+03 0.  0.
   -5000001    1    1    2    0    0  0.11113900133E+02  0.13877592708E+03 -0.13606217669E+04  0.13821269368E+04  0.19900000000E+03 0.  0.
<mgrwt>
<rscale>  0 0.49591348E+03</rscale>
<asrwt>0</asrwt>
<pdfrwt beam="1">  1        1 0.32607777E+00 0.49591348E+03</pdfrwt>
<pdfrwt beam="2">  1       -1 0.38479956E-02 0.49591348E+03</pdfrwt>
<totfact> 0.71905232E+02</totfact>
</mgrwt>
</event>
<event>
 4    1  0.6282309E-006  0.7243629E+03  0.7818608E-02  0.9676452E-01
          1   -1    0    0  501    0  0.00000000000E+00  0.00000000000E+00  0.48405520726E+03  0.48405520728E+03  0.50400000000E-02 0.  1.
         -1   -1    0    0    0  501 -0.00000000000E+00 -0.00000000000E+00 -0.27099262114E+03  0.27099262118E+03  0.50400000000E-02 0. -1.
    5000001    1    1    2    0    0  0.21011881929E+03  0.18505473042E+03  0.22619518017E+03  0.41129117545E+03  0.19900000000E+03 0.  0.
   -5000001    1    1    2    0    0 -0.21011881929E+03 -0.18505473042E+03 -0.13132594053E+02  0.34375665302E+03  0.19900000000E+03 0.  0.
<mgrwt>
<rscale>  0 0.72436286E+03</rscale>
<asrwt>0</asrwt>
<pdfrwt beam="1">  1        1 0.69150744E-01 0.72436286E+03</pdfrwt>
<pdfrwt beam="2">  1       -1 0.38713232E-01 0.72436286E+03</pdfrwt>
<totfact> 0.33515386E+02</totfact>
</mgrwt>
</event>
<event>
 4    1  0.6282309E-006  0.7267443E+03  0.7818608E-02  0.9672558E-01
         -1   -1    0    0    0  501 -0.00000000000E+00  0.00000000000E+00  0.64981973965E+02  0.64981974161E+02  0.50400000000E-02 0. -1.
          1   -1    0    0  501    0  0.00000000000E+00 -0.00000000000E+00 -0.20319377395E+04  0.20319377395E+04  0.50400000000E-02 0.  1.
    5000001    1    1    2    0    0 -0.20744195188E+03 -0.11358081577E+03 -0.43218844966E+03  0.53133851840E+03  0.19900000000E+03 0.  0.
   -5000001    1    1    2    0    0  0.20744195188E+03  0.11358081577E+03 -0.15347673159E+04  0.15655811953E+04  0.19900000000E+03 0.  0.
<mgrwt>
<rscale>  0 0.72674432E+03</rscale>
<asrwt>0</asrwt>
<pdfrwt beam="1">  1        1 0.29027678E+00 0.72674432E+03</pdfrwt>
<pdfrwt beam="2">  1       -1 0.92831404E-02 0.72674432E+03</pdfrwt>
<totfact> 0.25959773E+02</totfact>
</mgrwt>
</event>
<event>
 4    1  0.6282309E-006  0.1809996E+04  0.7818608E-02  0.8701002E-01
         -1   -1    0    0    0  501 -0.00000000000E+00  0.00000000000E+00  0.91683936011E+03  0.91683936013E+03  0.50400000000E-02 0. -1.
          1   -1    0    0  501    0  0.00000000000E+00 -0.00000000000E+00 -0.89330954441E+03  0.89330954442E+03  0.50400000000E-02 0.  1.
    5000001    1    1    2    0    0 -0.28020411787E+03  0.82849707343E+03  0.13218522586E+03  0.90663977537E+03  0.19900000000E+03 0.  0.
   -5000001    1    1    2    0    0  0.28020411787E+03 -0.82849707343E+03 -0.10865541015E+03  0.90350912918E+03  0.19900000000E+03 0.  0.
<mgrwt>
<rscale>  0 0.18099960E+04</rscale>
<asrwt>0</asrwt>
<pdfrwt beam="1">  1        1 0.12761565E+00 0.18099960E+04</pdfrwt>
<pdfrwt beam="2">  1       -1 0.13097705E+00 0.18099960E+04</pdfrwt>
<totfact> 0.98205758E+00</totfact>
</mgrwt>
</event>
<event>
 4    1  0.6282309E-006  0.4810254E+03  0.7818608E-02  0.1018854E+00
         -1   -1    0    0    0  501 -0.00000000000E+00  0.00000000000E+00  0.18945105914E+03  0.18945105921E+03  0.50400000000E-02 0. -1.
          1   -1    0    0  501    0  0.00000000000E+00 -0.00000000000E+00 -0.30533667281E+03  0.30533667285E+03  0.50400000000E-02 0.  1.
    5000001    1    1    2    0    0  0.35816216718E+02 -0.12202431563E+03 -0.11114238365E+02  0.23642601650E+03  0.19900000000E+03 0.  0.
   -5000001    1    1    2    0    0 -0.35816216718E+02  0.12202431563E+03 -0.10477137530E+03  0.25836171556E+03  0.19900000000E+03 0.  0.
<mgrwt>
<rscale>  0 0.48102539E+03</rscale>
<asrwt>0</asrwt>
<pdfrwt beam="1">  1        1 0.43619525E-01 0.48102539E+03</pdfrwt>
<pdfrwt beam="2">  1       -1 0.27064437E-01 0.48102539E+03</pdfrwt>
<totfact> 0.11521036E+03</totfact>
</mgrwt>
</event>
<event>
 4    1  0.6282309E-006  0.4896379E+03  0.7818608E-02  0.1016520E+00
          1   -1    0    0  501    0  0.00000000000E+00  0.00000000000E+00  0.36921556431E+03  0.36921556434E+03  0.50400000000E-02 0. -1.
         -1   -1    0    0    0  501 -0.00000000000E+00 -0.00000000000E+00 -0.16233418599E+03  0.16233418606E+03  0.50400000000E-02 0.  1.
    5000001    1    1    2    0    0  0.89912048351E+02  0.56392298975E+02  0.46179779001E-01  0.22553330121E+03  0.19900000000E+03 0.  0.
   -5000001    1    1    2    0    0 -0.89912048351E+02 -0.56392298975E+02  0.20683519854E+03  0.30601644920E+03  0.19900000000E+03 0.  0.
<mgrwt>
<rscale>  0 0.48963786E+03</rscale>
<asrwt>0</asrwt>
<pdfrwt beam="1">  1        1 0.52745081E-01 0.48963786E+03</pdfrwt>
<pdfrwt beam="2">  1       -1 0.23190598E-01 0.48963786E+03</pdfrwt>
<totfact> 0.11718081E+03</totfact>
</mgrwt>
</event>
<event>
 4    1  0.6282309E-006  0.8639842E+03  0.7818608E-02  0.9471758E-01
         -1   -1    0    0    0  501 -0.00000000000E+00  0.00000000000E+00  0.13019960814E+03  0.13019960824E+03  0.50400000000E-02 0. -1.
          1   -1    0    0  501    0  0.00000000000E+00 -0.00000000000E+00 -0.14333159789E+04  0.14333159789E+04  0.50400000000E-02 0.  1.
    5000001    1    1    2    0    0 -0.35656324426E+03 -0.29726994680E+01 -0.39646709736E+03  0.56915142396E+03  0.19900000000E+03 0.  0.
   -5000001    1    1    2    0    0  0.35656324426E+03  0.29726994680E+01 -0.90664927335E+03  0.99436416315E+03  0.19900000000E+03 0.  0.
<mgrwt>
<rscale>  0 0.86398421E+03</rscale>
<asrwt>0</asrwt>
<pdfrwt beam="1">  1        1 0.20475942E+00 0.86398421E+03</pdfrwt>
<pdfrwt beam="2">  1       -1 0.18599945E-01 0.86398421E+03</pdfrwt>
<totfact> 0.20018769E+02</totfact>
</mgrwt>
</event>
<event>
 4    1  0.6282309E-006  0.5320608E+03  0.7818608E-02  0.1005734E+00
         -1   -1    0    0    0  501 -0.00000000000E+00  0.00000000000E+00  0.27937614923E+02  0.27937615377E+02  0.50400000000E-02 0. -1.
          1   -1    0    0  501    0  0.00000000000E+00 -0.00000000000E+00 -0.25332219674E+04  0.25332219674E+04  0.50400000000E-02 0.  1.
    5000001    1    1    2    0    0 -0.10422876043E+02  0.87092900187E+02 -0.51507753963E+03  0.55910614505E+03  0.19900000000E+03 0.  0.
   -5000001    1    1    2    0    0  0.10422876043E+02 -0.87092900187E+02 -0.19902068129E+04  0.20020534377E+04  0.19900000000E+03 0.  0.
<mgrwt>
<rscale>  0 0.53206083E+03</rscale>
<asrwt>0</asrwt>
<pdfrwt beam="1">  1        1 0.36188871E+00 0.53206083E+03</pdfrwt>
<pdfrwt beam="2">  1       -1 0.39910895E-02 0.53206083E+03</pdfrwt>
<totfact> 0.47471717E+02</totfact>
</mgrwt>
</event>
<event>
 4    1  0.6282309E-006  0.6251312E+03  0.7818608E-02  0.9854596E-01
         -1   -1    0    0    0  501 -0.00000000000E+00  0.00000000000E+00  0.77731006194E+02  0.77731006357E+02  0.50400000000E-02 0. -1.
          1   -1    0    0  501    0  0.00000000000E+00 -0.00000000000E+00 -0.12568634789E+04  0.12568634790E+04  0.50400000000E-02 0.  1.
    5000001    1    1    2    0    0 -0.29472731712E+02  0.20979282845E+03 -0.83498342775E+03  0.88412668629E+03  0.19900000000E+03 0.  0.
   -5000001    1    1    2    0    0  0.29472731712E+02 -0.20979282845E+03 -0.34414904500E+03  0.45046779903E+03  0.19900000000E+03 0.  0.
<mgrwt>
<rscale>  0 0.62513123E+03</rscale>
<asrwt>0</asrwt>
<pdfrwt beam="1">  1        1 0.17955191E+00 0.62513123E+03</pdfrwt>
<pdfrwt beam="2">  1       -1 0.11104430E-01 0.62513123E+03</pdfrwt>
<totfact> 0.61341988E+02</totfact>
</mgrwt>
</event>
<event>
 4    1  0.6282309E-006  0.1062290E+04  0.7818608E-02  0.9242747E-01
          1   -1    0    0  501    0  0.00000000000E+00  0.00000000000E+00  0.83677411811E+03  0.83677411813E+03  0.50400000000E-02 0. -1.
         -1   -1    0    0    0  501 -0.00000000000E+00 -0.00000000000E+00 -0.33714584402E+03  0.33714584406E+03  0.50400000000E-02 0.  1.
    5000001    1    1    2    0    0  0.40890603560E+03 -0.16339975324E+03  0.49346030095E+03  0.69065743601E+03  0.19900000000E+03 0.  0.
   -5000001    1    1    2    0    0 -0.40890603560E+03  0.16339975324E+03  0.61679731466E+01  0.48326252617E+03  0.19900000000E+03 0.  0.
<mgrwt>
<rscale>  0 0.10622898E+04</rscale>
<asrwt>0</asrwt>
<pdfrwt beam="1">  1        1 0.11953916E+00 0.10622898E+04</pdfrwt>
<pdfrwt beam="2">  1       -1 0.48163692E-01 0.10622898E+04</pdfrwt>
<totfact> 0.99710922E+01</totfact>
</mgrwt>
</event>
<event>
 4    1  0.6282309E-006  0.5544779E+03  0.7818608E-02  0.1000463E+00
         -1   -1    0    0    0  501 -0.00000000000E+00  0.00000000000E+00  0.33405220030E+02  0.33405220411E+02  0.50400000000E-02 0. -1.
          1   -1    0    0  501    0  0.00000000000E+00 -0.00000000000E+00 -0.23008810333E+04  0.23008810333E+04  0.50400000000E-02 0.  1.
    5000001    1    1    2    0    0 -0.61880154395E+02  0.15986931971E+03 -0.76019342230E+03  0.80428999260E+03  0.19900000000E+03 0.  0.
   -5000001    1    1    2    0    0  0.61880154395E+02 -0.15986931971E+03 -0.15072823910E+04  0.15299962611E+04  0.19900000000E+03 0.  0.
<mgrwt>
<rscale>  0 0.55447791E+03</rscale>
<asrwt>0</asrwt>
<pdfrwt beam="1">  1        1 0.32869719E+00 0.55447791E+03</pdfrwt>
<pdfrwt beam="2">  1       -1 0.47721758E-02 0.55447791E+03</pdfrwt>
<totfact> 0.50306695E+02</totfact>
</mgrwt>
</event>
<event>
 4    1  0.6282309E-006  0.4488769E+03  0.7818608E-02  0.1028057E+00
          1   -1    0    0  501    0  0.00000000000E+00  0.00000000000E+00  0.37516499364E+03  0.37516499368E+03  0.50400000000E-02 0.  1.
         -1   -1    0    0    0  501 -0.00000000000E+00 -0.00000000000E+00 -0.13426791698E+03  0.13426791708E+03  0.50400000000E-02 0. -1.
    5000001    1    1    2    0    0  0.10075715524E+03 -0.24845237446E+02  0.12218167618E+03  0.25553600950E+03  0.19900000000E+03 0.  0.
   -5000001    1    1    2    0    0 -0.10075715524E+03  0.24845237446E+02  0.11871540048E+03  0.25389690126E+03  0.19900000000E+03 0.  0.
<mgrwt>
<rscale>  0 0.44887692E+03</rscale>
<asrwt>0</asrwt>
<pdfrwt beam="1">  1        1 0.53595000E-01 0.44887692E+03</pdfrwt>
<pdfrwt beam="2">  1       -1 0.19181131E-01 0.44887692E+03</pdfrwt>
<totfact> 0.15720953E+03</totfact>
</mgrwt>
</event>
<event>
 4    1  0.6282309E-006  0.1494186E+04  0.7818608E-02  0.8888329E-01
         -1   -1    0    0    0  501 -0.00000000000E+00  0.00000000000E+00  0.49078248082E+03  0.49078248085E+03  0.50400000000E-02 0. -1.
          1   -1    0    0  501    0  0.00000000000E+00 -0.00000000000E+00 -0.11372609121E+04  0.11372609121E+04  0.50400000000E-02 0.  1.
    5000001    1    1    2    0    0 -0.65671298520E+03 -0.93482504554E+02 -0.62858734032E+03  0.93527213579E+03  0.19900000000E+03 0.  0.
   -5000001    1    1    2    0    0  0.65671298520E+03  0.93482504554E+02 -0.17891090929E+02  0.69277125714E+03  0.19900000000E+03 0.  0.
<mgrwt>
<rscale>  0 0.14941857E+04</rscale>
<asrwt>0</asrwt>
<pdfrwt beam="1">  1        1 0.16246584E+00 0.14941857E+04</pdfrwt>
<pdfrwt beam="2">  1       -1 0.70111783E-01 0.14941857E+04</pdfrwt>
<totfact> 0.27318522E+01</totfact>
</mgrwt>
</event>
<event>
 4    1  0.6282309E-006  0.6017172E+03  0.7818608E-02  0.9901850E-01
          1   -1    0    0  501    0  0.00000000000E+00  0.00000000000E+00  0.54051714509E+03  0.54051714512E+03  0.50400000000E-02 0.  1.
         -1   -1    0    0    0  501 -0.00000000000E+00 -0.00000000000E+00 -0.16746165563E+03  0.16746165571E+03  0.50400000000E-02 0. -1.
    5000001    1    1    2    0    0  0.17664290203E+03 -0.44461103973E+02  0.34322024835E+03  0.43655543002E+03  0.19900000000E+03 0.  0.
   -5000001    1    1    2    0    0 -0.17664290203E+03  0.44461103973E+02  0.29835241108E+02  0.27142337080E+03  0.19900000000E+03 0.  0.
<mgrwt>
<rscale>  0 0.60171720E+03</rscale>
<asrwt>0</asrwt>
<pdfrwt beam="1">  1        1 0.77216734E-01 0.60171720E+03</pdfrwt>
<pdfrwt beam="2">  1       -1 0.23923094E-01 0.60171720E+03</pdfrwt>
<totfact> 0.67067567E+02</totfact>
</mgrwt>
</event>
<event>
 4    1  0.6282309E-006  0.4712403E+03  0.7818608E-02  0.1021571E+00
         -1   -1    0    0    0  501 -0.00000000000E+00  0.00000000000E+00  0.14574080745E+03  0.14574080754E+03  0.50400000000E-02 0.  1.
          1   -1    0    0  501    0  0.00000000000E+00 -0.00000000000E+00 -0.38092870391E+03  0.38092870395E+03  0.50400000000E-02 0. -1.
    5000001    1    1    2    0    0  0.11445774460E+03  0.21355674622E+02 -0.17187892693E+03  0.28757608673E+03  0.19900000000E+03 0.  0.
   -5000001    1    1    2    0    0 -0.11445774460E+03 -0.21355674622E+02 -0.63308969534E+02  0.23909342476E+03  0.19900000000E+03 0.  0.
<mgrwt>
<rscale>  0 0.47124031E+03</rscale>
<asrwt>0</asrwt>
<pdfrwt beam="1">  1        1 0.54418386E-01 0.47124031E+03</pdfrwt>
<pdfrwt beam="2">  1       -1 0.20820116E-01 0.47124031E+03</pdfrwt>
<totfact> 0.13468010E+03</totfact>
</mgrwt>
</event>
<event>
 4    1  0.6282309E-006  0.7683237E+03  0.7818608E-02  0.9607034E-01
          1   -1    0    0  501    0  0.00000000000E+00  0.00000000000E+00  0.32983942450E+03  0.32983942454E+03  0.50400000000E-02 0.  1.
         -1   -1    0    0    0  501 -0.00000000000E+00 -0.00000000000E+00 -0.44743087938E+03  0.44743087941E+03  0.50400000000E-02 0. -1.
    5000001    1    1    2    0    0  0.29068972471E+03 -0.15093495783E+03 -0.85512833504E+02  0.39267712213E+03  0.19900000000E+03 0.  0.
   -5000001    1    1    2    0    0 -0.29068972471E+03  0.15093495783E+03 -0.32078621375E+02  0.38459318182E+03  0.19900000000E+03 0.  0.
<mgrwt>
<rscale>  0 0.76832374E+03</rscale>
<asrwt>0</asrwt>
<pdfrwt beam="1">  1        1 0.47119918E-01 0.76832374E+03</pdfrwt>
<pdfrwt beam="2">  1       -1 0.63918697E-01 0.76832374E+03</pdfrwt>
<totfact> 0.21433156E+02</totfact>
</mgrwt>
</event>
<event>
 4    1  0.6282309E-006  0.5065846E+03  0.7818608E-02  0.1012074E+00
         -1   -1    0    0    0  501 -0.00000000000E+00  0.00000000000E+00  0.25972218183E+02  0.25972218673E+02  0.50400000000E-02 0. -1.
          1   -1    0    0  501    0  0.00000000000E+00 -0.00000000000E+00 -0.24702158433E+04  0.24702158433E+04  0.50400000000E-02 0.  1.
    5000001    1    1    2    0    0  0.11575009252E+02  0.14362296233E+03 -0.15256504758E+04  0.15453064131E+04  0.19900000000E+03 0.  0.
   -5000001    1    1    2    0    0 -0.11575009252E+02 -0.14362296233E+03 -0.91859314931E+03  0.95088164885E+03  0.19900000000E+03 0.  0.
<mgrwt>
<rscale>  0 0.50658459E+03</rscale>
<asrwt>0</asrwt>
<pdfrwt beam="1">  1        1 0.35288783E+00 0.50658459E+03</pdfrwt>
<pdfrwt beam="2">  1       -1 0.37103185E-02 0.50658459E+03</pdfrwt>
<totfact> 0.58134061E+02</totfact>
</mgrwt>
</event>
<event>
 4    1  0.6282309E-006  0.5815463E+03  0.7818608E-02  0.9944449E-01
         -1   -1    0    0    0  501 -0.00000000000E+00  0.00000000000E+00  0.45884480434E+02  0.45884480711E+02  0.50400000000E-02 0. -1.
          1   -1    0    0  501    0  0.00000000000E+00 -0.00000000000E+00 -0.18426496569E+04  0.18426496570E+04  0.50400000000E-02 0.  1.
    5000001    1    1    2    0    0 -0.17773893620E+03  0.76835923135E+02 -0.61802648830E+03  0.67753422701E+03  0.19900000000E+03 0.  0.
   -5000001    1    1    2    0    0  0.17773893620E+03 -0.76835923135E+02 -0.11787386882E+04  0.12109999107E+04  0.19900000000E+03 0.  0.
<mgrwt>
<rscale>  0 0.58154629E+03</rscale>
<asrwt>0</asrwt>
<pdfrwt beam="1">  1        1 0.26323562E+00 0.58154629E+03</pdfrwt>
<pdfrwt beam="2">  1       -1 0.65549270E-02 0.58154629E+03</pdfrwt>
<totfact> 0.59154527E+02</totfact>
</mgrwt>
</event>
<event>
 4    1  0.6282309E-006  0.5270154E+03  0.7818608E-02  0.1006959E+00
          1   -1    0    0  501    0  0.00000000000E+00  0.00000000000E+00  0.10968931920E+04  0.10968931920E+04  0.50400000000E-02 0.  1.
         -1   -1    0    0    0  501 -0.00000000000E+00 -0.00000000000E+00 -0.63302706465E+02  0.63302706665E+02  0.50400000000E-02 0. -1.
    5000001    1    1    2    0    0  0.82947416007E+01 -0.93450389185E+02  0.19752083956E+03  0.29566410002E+03  0.19900000000E+03 0.  0.
   -5000001    1    1    2    0    0 -0.82947416007E+01  0.93450389185E+02  0.83606964596E+03  0.86453179865E+03  0.19900000000E+03 0.  0.
<mgrwt>
<rscale>  0 0.52701540E+03</rscale>
<asrwt>0</asrwt>
<pdfrwt beam="1">  1        1 0.15669902E+00 0.52701540E+03</pdfrwt>
<pdfrwt beam="2">  1       -1 0.90432440E-02 0.52701540E+03</pdfrwt>
<totfact> 0.10971107E+03</totfact>
</mgrwt>
</event>
<event>
 4    1  0.6282309E-006  0.5385127E+03  0.7818608E-02  0.1004188E+00
          1   -1    0    0  501    0  0.00000000000E+00  0.00000000000E+00  0.10283071694E+04  0.10283071694E+04  0.50400000000E-02 0.  1.
         -1   -1    0    0    0  501 -0.00000000000E+00 -0.00000000000E+00 -0.70503244816E+02  0.70503244996E+02  0.50400000000E-02 0. -1.
    5000001    1    1    2    0    0  0.58646960548E+02 -0.85397819607E+02  0.17511586783E+03  0.28460291766E+03  0.19900000000E+03 0.  0.
   -5000001    1    1    2    0    0 -0.58646960548E+02  0.85397819607E+02  0.78268805675E+03  0.81420749674E+03  0.19900000000E+03 0.  0.
<mgrwt>
<rscale>  0 0.53851274E+03</rscale>
<asrwt>0</asrwt>
<pdfrwt beam="1">  1        1 0.14690101E+00 0.53851274E+03</pdfrwt>
<pdfrwt beam="2">  1       -1 0.10071893E-01 0.53851274E+03</pdfrwt>
<totfact> 0.10371214E+03</totfact>
</mgrwt>
</event>
<event>
 4    1  0.6282309E-006  0.5550645E+03  0.7818608E-02  0.1000328E+00
          1   -1    0    0  501    0  0.00000000000E+00  0.00000000000E+00  0.12343094938E+04  0.12343094938E+04  0.50400000000E-02 0.  1.
         -1   -1    0    0    0  501 -0.00000000000E+00 -0.00000000000E+00 -0.62402632112E+02  0.62402632316E+02  0.50400000000E-02 0. -1.
    5000001    1    1    2    0    0  0.69232904567E+02 -0.17634068733E+03  0.67744953838E+03  0.73104590153E+03  0.19900000000E+03 0.  0.
   -5000001    1    1    2    0    0 -0.69232904567E+02  0.17634068733E+03  0.49445732331E+03  0.56566622460E+03  0.19900000000E+03 0.  0.
<mgrwt>
<rscale>  0 0.55506454E+03</rscale>
<asrwt>0</asrwt>
<pdfrwt beam="1">  1        1 0.17632992E+00 0.55506454E+03</pdfrwt>
<pdfrwt beam="2">  1       -1 0.89146622E-02 0.55506454E+03</pdfrwt>
<totfact> 0.90090223E+02</totfact>
</mgrwt>
</event>
<event>
 4    1  0.6282309E-006  0.5634873E+03  0.7818608E-02  0.9984195E-01
         -1   -1    0    0    0  501 -0.00000000000E+00  0.00000000000E+00  0.61555028053E+02  0.61555028259E+02  0.50400000000E-02 0. -1.
          1   -1    0    0  501    0  0.00000000000E+00 -0.00000000000E+00 -0.12895694611E+04  0.12895694611E+04  0.50400000000E-02 0.  1.
    5000001    1    1    2    0    0 -0.98534087315E+02  0.16982664053E+03 -0.69804730355E+03  0.75194487310E+03  0.19900000000E+03 0.  0.
   -5000001    1    1    2    0    0  0.98534087315E+02 -0.16982664053E+03 -0.52996712948E+03  0.59917961625E+03  0.19900000000E+03 0.  0.
<mgrwt>
<rscale>  0 0.56348730E+03</rscale>
<asrwt>0</asrwt>
<pdfrwt beam="1">  1        1 0.18422419E+00 0.56348730E+03</pdfrwt>
<pdfrwt beam="2">  1       -1 0.87935762E-02 0.56348730E+03</pdfrwt>
<totfact> 0.84472083E+02</totfact>
</mgrwt>
</event>
<event>
 4    1  0.6282309E-006  0.1523878E+04  0.7818608E-02  0.8868728E-01
          1   -1    0    0  501    0  0.00000000000E+00  0.00000000000E+00  0.11955814464E+04  0.11955814464E+04  0.50400000000E-02 0.  1.
         -1   -1    0    0    0  501 -0.00000000000E+00 -0.00000000000E+00 -0.48558057192E+03  0.48558057194E+03  0.50400000000E-02 0. -1.
    5000001    1    1    2    0    0 -0.54997009470E+03 -0.41966737263E+03  0.63049970542E+03  0.95693191359E+03  0.19900000000E+03 0.  0.
   -5000001    1    1    2    0    0  0.54997009470E+03  0.41966737263E+03  0.79501169031E+02  0.72423010473E+03  0.19900000000E+03 0.  0.
<mgrwt>
<rscale>  0 0.15238781E+04</rscale>
<asrwt>0</asrwt>
<pdfrwt beam="1">  1        1 0.17079735E+00 0.15238781E+04</pdfrwt>
<pdfrwt beam="2">  1       -1 0.69368653E-01 0.15238781E+04</pdfrwt>
<totfact> 0.25343462E+01</totfact>
</mgrwt>
</event>
<event>
 4    1  0.6282309E-006  0.9944516E+03  0.7818608E-02  0.9314651E-01
          1   -1    0    0  501    0  0.00000000000E+00  0.00000000000E+00  0.19924047127E+04  0.19924047127E+04  0.50400000000E-02 0.  1.
         -1   -1    0    0    0  501 -0.00000000000E+00 -0.00000000000E+00 -0.12408798225E+03  0.12408798235E+03  0.50400000000E-02 0. -1.
    5000001    1    1    2    0    0  0.12596213843E+03 -0.39423178928E+03  0.52839828813E+03  0.70006493620E+03  0.19900000000E+03 0.  0.
   -5000001    1    1    2    0    0 -0.12596213843E+03  0.39423178928E+03  0.13399184423E+04  0.14164277589E+04  0.19900000000E+03 0.  0.
<mgrwt>
<rscale>  0 0.99445157E+03</rscale>
<asrwt>0</asrwt>
<pdfrwt beam="1">  1        1 0.28462924E+00 0.99445157E+03</pdfrwt>
<pdfrwt beam="2">  1       -1 0.17726855E-01 0.99445157E+03</pdfrwt>
<totfact> 0.94771716E+01</totfact>
</mgrwt>
</event>
<event>
 4    1  0.6282309E-006  0.9808751E+03  0.7818608E-02  0.9329773E-01
         -1   -1    0    0    0  501 -0.00000000000E+00  0.00000000000E+00  0.48312634117E+03  0.48312634119E+03  0.50400000000E-02 0.  1.
          1   -1    0    0  501    0  0.00000000000E+00 -0.00000000000E+00 -0.49785943651E+03  0.49785943654E+03  0.50400000000E-02 0. -1.
    5000001    1    1    2    0    0 -0.31103368343E+03 -0.46852452265E+02 -0.32676271825E+03  0.49528979249E+03  0.19900000000E+03 0.  0.
   -5000001    1    1    2    0    0  0.31103368343E+03  0.46852452265E+02  0.31202962290E+03  0.48569598524E+03  0.19900000000E+03 0.  0.
<mgrwt>
<rscale>  0 0.98087514E+03</rscale>
<asrwt>0</asrwt>
<pdfrwt beam="1">  1        1 0.71122776E-01 0.98087514E+03</pdfrwt>
<pdfrwt beam="2">  1       -1 0.69018049E-01 0.98087514E+03</pdfrwt>
<totfact> 0.10528461E+02</totfact>
</mgrwt>
</event>
<event>
 4    1  0.6282309E-006  0.6719573E+03  0.7818608E-02  0.9766428E-01
          1   -1    0    0  501    0  0.00000000000E+00  0.00000000000E+00  0.14428382266E+04  0.14428382266E+04  0.50400000000E-02 0.  1.
         -1   -1    0    0    0  501 -0.00000000000E+00 -0.00000000000E+00 -0.78235828018E+02  0.78235828181E+02  0.50400000000E-02 0. -1.
    5000001    1    1    2    0    0 -0.22312318353E+03  0.90763643865E+02  0.40268215419E+03  0.50968216702E+03  0.19900000000E+03 0.  0.
   -5000001    1    1    2    0    0  0.22312318353E+03 -0.90763643865E+02  0.96192024442E+03  0.10113918878E+04  0.19900000000E+03 0.  0.
<mgrwt>
<rscale>  0 0.67195727E+03</rscale>
<asrwt>0</asrwt>
<pdfrwt beam="1">  1        1 0.20611974E+00 0.67195727E+03</pdfrwt>
<pdfrwt beam="2">  1       -1 0.11176547E-01 0.67195727E+03</pdfrwt>
<totfact> 0.45635380E+02</totfact>
</mgrwt>
</event>
<event>
 4    1  0.6282309E-006  0.6142604E+03  0.7818608E-02  0.9876254E-01
          1   -1    0    0  501    0  0.00000000000E+00  0.00000000000E+00  0.44613581504E+03  0.44613581507E+03  0.50400000000E-02 0.  1.
         -1   -1    0    0    0  501 -0.00000000000E+00 -0.00000000000E+00 -0.21143552745E+03  0.21143552751E+03  0.50400000000E-02 0. -1.
    5000001    1    1    2    0    0 -0.23682058275E+02 -0.20135841041E+03  0.24229241387E+03  0.37338005188E+03  0.19900000000E+03 0.  0.
   -5000001    1    1    2    0    0  0.23682058275E+02  0.20135841041E+03 -0.75921262781E+01  0.28419129070E+03  0.19900000000E+03 0.  0.
<mgrwt>
<rscale>  0 0.61426041E+03</rscale>
<asrwt>0</asrwt>
<pdfrwt beam="1">  1        1 0.63733688E-01 0.61426041E+03</pdfrwt>
<pdfrwt beam="2">  1       -1 0.30205076E-01 0.61426041E+03</pdfrwt>
<totfact> 0.58204136E+02</totfact>
</mgrwt>
</event>
<event>
 4    1  0.6282309E-006  0.7682845E+03  0.7818608E-02  0.9607094E-01
          1   -1    0    0  501    0  0.00000000000E+00  0.00000000000E+00  0.30150335673E+03  0.30150335678E+03  0.50400000000E-02 0. -1.
         -1   -1    0    0    0  501 -0.00000000000E+00 -0.00000000000E+00 -0.48943163265E+03  0.48943163267E+03  0.50400000000E-02 0.  1.
    5000001    1    1    2    0    0  0.25670662293E+03  0.15104987835E+03  0.48870392240E+02  0.36152962706E+03  0.19900000000E+03 0.  0.
   -5000001    1    1    2    0    0 -0.25670662293E+03 -0.15104987835E+03 -0.23679866815E+03  0.42940536239E+03  0.19900000000E+03 0.  0.
<mgrwt>
<rscale>  0 0.76828453E+03</rscale>
<asrwt>0</asrwt>
<pdfrwt beam="1">  1        1 0.43071908E-01 0.76828453E+03</pdfrwt>
<pdfrwt beam="2">  1       -1 0.69918805E-01 0.76828453E+03</pdfrwt>
<totfact> 0.20083582E+02</totfact>
</mgrwt>
</event>
<event>
 4    1  0.6282309E-006  0.6512927E+03  0.7818608E-02  0.9804357E-01
          1   -1    0    0  501    0  0.00000000000E+00  0.00000000000E+00  0.30549402230E+03  0.30549402235E+03  0.50400000000E-02 0.  1.
         -1   -1    0    0    0  501 -0.00000000000E+00 -0.00000000000E+00 -0.34712801231E+03  0.34712801234E+03  0.50400000000E-02 0. -1.
    5000001    1    1    2    0    0 -0.13492735423E+03  0.19009631441E+03 -0.13105305626E+03  0.33334352135E+03  0.19900000000E+03 0.  0.
   -5000001    1    1    2    0    0  0.13492735423E+03 -0.19009631441E+03  0.89419066258E+02  0.31927851334E+03  0.19900000000E+03 0.  0.
<mgrwt>
<rscale>  0 0.65129266E+03</rscale>
<asrwt>0</asrwt>
<pdfrwt beam="1">  1        1 0.43642003E-01 0.65129266E+03</pdfrwt>
<pdfrwt beam="2">  1       -1 0.49589716E-01 0.65129266E+03</pdfrwt>
<totfact> 0.38906721E+02</totfact>
</mgrwt>
</event>
<event>
 4    1  0.6282309E-006  0.6787139E+03  0.7818608E-02  0.9754343E-01
         -1   -1    0    0    0  501 -0.00000000000E+00  0.00000000000E+00  0.49036341737E+03  0.49036341739E+03  0.50400000000E-02 0. -1.
          1   -1    0    0  501    0  0.00000000000E+00 -0.00000000000E+00 -0.23485260844E+03  0.23485260850E+03  0.50400000000E-02 0.  1.
    5000001    1    1    2    0    0 -0.26516451311E+03  0.10755461774E+02  0.20431828717E+03  0.38958293269E+03  0.19900000000E+03 0.  0.
   -5000001    1    1    2    0    0  0.26516451311E+03 -0.10755461774E+02  0.51192521756E+02  0.33563309320E+03  0.19900000000E+03 0.  0.
<mgrwt>
<rscale>  0 0.67871387E+03</rscale>
<asrwt>0</asrwt>
<pdfrwt beam="1">  1        1 0.33550372E-01 0.67871387E+03</pdfrwt>
<pdfrwt beam="2">  1       -1 0.70051918E-01 0.67871387E+03</pdfrwt>
<totfact> 0.27733557E+02</totfact>
</mgrwt>
</event>
<event>
 4    1  0.6282309E-006  0.4438655E+03  0.7818608E-02  0.1029567E+00
         -1   -1    0    0    0  501 -0.00000000000E+00  0.00000000000E+00  0.52813492253E+02  0.52813492494E+02  0.50400000000E-02 0. -1.
          1   -1    0    0  501    0  0.00000000000E+00 -0.00000000000E+00 -0.93260549668E+03  0.93260549670E+03  0.50400000000E-02 0.  1.
    5000001    1    1    2    0    0  0.20085643210E+02  0.93867416798E+02 -0.48639224141E+03  0.53422180553E+03  0.19900000000E+03 0.  0.
   -5000001    1    1    2    0    0 -0.20085643210E+02 -0.93867416798E+02 -0.39339976302E+03  0.45119718366E+03  0.19900000000E+03 0.  0.
<mgrwt>
<rscale>  0 0.44386554E+03</rscale>
<asrwt>0</asrwt>
<pdfrwt beam="1">  1        1 0.13322935E+00 0.44386554E+03</pdfrwt>
<pdfrwt beam="2">  1       -1 0.75447852E-02 0.44386554E+03</pdfrwt>
<totfact> 0.19189533E+03</totfact>
</mgrwt>
</event>
<event>
 4    1  0.6282309E-006  0.6173724E+03  0.7818608E-02  0.9870005E-01
          1   -1    0    0  501    0  0.00000000000E+00  0.00000000000E+00  0.10755222217E+04  0.10755222217E+04  0.50400000000E-02 0.  1.
         -1   -1    0    0    0  501 -0.00000000000E+00 -0.00000000000E+00 -0.88596186059E+02  0.88596186202E+02  0.50400000000E-02 0. -1.
    5000001    1    1    2    0    0 -0.13809556874E+03 -0.17481254550E+03  0.64020541441E+03  0.70646569967E+03  0.19900000000E+03 0.  0.
   -5000001    1    1    2    0    0  0.13809556874E+03  0.17481254550E+03  0.34672062122E+03  0.45765270823E+03  0.19900000000E+03 0.  0.
<mgrwt>
<rscale>  0 0.61737239E+03</rscale>
<asrwt>0</asrwt>
<pdfrwt beam="1">  1        1 0.15364602E+00 0.61737239E+03</pdfrwt>
<pdfrwt beam="2">  1       -1 0.12656599E-01 0.61737239E+03</pdfrwt>
<totfact> 0.66547149E+02</totfact>
</mgrwt>
</event>
<event>
 4    1  0.6282309E-006  0.6405348E+03  0.7818608E-02  0.9824704E-01
         -1   -1    0    0    0  501 -0.00000000000E+00  0.00000000000E+00  0.14043999363E+03  0.14043999372E+03  0.50400000000E-02 0.  1.
          1   -1    0    0  501    0  0.00000000000E+00 -0.00000000000E+00 -0.73035614553E+03  0.73035614555E+03  0.50400000000E-02 0. -1.
    5000001    1    1    2    0    0 -0.16137681624E+03  0.43548078194E+02 -0.54940774189E+03  0.60777362462E+03  0.19900000000E+03 0.  0.
   -5000001    1    1    2    0    0  0.16137681624E+03 -0.43548078194E+02 -0.40508410012E+02  0.26302251466E+03  0.19900000000E+03 0.  0.
<mgrwt>
<rscale>  0 0.64053482E+03</rscale>
<asrwt>0</asrwt>
<pdfrwt beam="1">  1        1 0.10433659E+00 0.64053482E+03</pdfrwt>
<pdfrwt beam="2">  1       -1 0.20062857E-01 0.64053482E+03</pdfrwt>
<totfact> 0.58637854E+02</totfact>
</mgrwt>
</event>
<event>
 4    1  0.6282309E-006  0.9452941E+03  0.7818608E-02  0.9370668E-01
          1   -1    0    0  501    0  0.00000000000E+00  0.00000000000E+00  0.19435753200E+04  0.19435753200E+04  0.50400000000E-02 0.  1.
         -1   -1    0    0    0  501 -0.00000000000E+00 -0.00000000000E+00 -0.11494034537E+03  0.11494034548E+03  0.50400000000E-02 0. -1.
    5000001    1    1    2    0    0  0.30085998918E+03  0.16787522586E+03  0.14699176628E+04  0.15228124506E+04  0.19900000000E+03 0.  0.
   -5000001    1    1    2    0    0 -0.30085998918E+03 -0.16787522586E+03  0.35871731187E+03  0.53570321483E+03  0.19900000000E+03 0.  0.
<mgrwt>
<rscale>  0 0.94529407E+03</rscale>
<asrwt>0</asrwt>
<pdfrwt beam="1">  1        1 0.27765361E+00 0.94529407E+03</pdfrwt>
<pdfrwt beam="2">  1       -1 0.16420050E-01 0.94529407E+03</pdfrwt>
<totfact> 0.11580443E+02</totfact>
</mgrwt>
</event>
<event>
 4    1  0.6282309E-006  0.6192290E+03  0.7818608E-02  0.9866296E-01
          1   -1    0    0  501    0  0.00000000000E+00  0.00000000000E+00  0.70365165298E+03  0.70365165300E+03  0.50400000000E-02 0.  1.
         -1   -1    0    0    0  501 -0.00000000000E+00 -0.00000000000E+00 -0.13623381246E+03  0.13623381255E+03  0.50400000000E-02 0. -1.
    5000001    1    1    2    0    0  0.74661618954E+02 -0.19837700492E+03  0.42809616330E+03  0.51748924477E+03  0.19900000000E+03 0.  0.
   -5000001    1    1    2    0    0 -0.74661618954E+02  0.19837700492E+03  0.13932167722E+03  0.32239622078E+03  0.19900000000E+03 0.  0.
<mgrwt>
<rscale>  0 0.61922903E+03</rscale>
<asrwt>0</asrwt>
<pdfrwt beam="1">  1        1 0.10052167E+00 0.61922903E+03</pdfrwt>
<pdfrwt beam="2">  1       -1 0.19461973E-01 0.61922903E+03</pdfrwt>
<totfact> 0.65206496E+02</totfact>
</mgrwt>
</event>
<event>
 4    1  0.6282309E-006  0.6009802E+03  0.7818608E-02  0.9903374E-01
          1   -1    0    0  501    0  0.00000000000E+00  0.00000000000E+00  0.37667311647E+03  0.37667311651E+03  0.50400000000E-02 0.  1.
         -1   -1    0    0    0  501 -0.00000000000E+00 -0.00000000000E+00 -0.23971530890E+03  0.23971530895E+03  0.50400000000E-02 0. -1.
    5000001    1    1    2    0    0  0.34380268626E+02  0.22245858034E+03  0.73449776288E+02  0.30929871076E+03  0.19900000000E+03 0.  0.
   -5000001    1    1    2    0    0 -0.34380268626E+02 -0.22245858034E+03  0.63508031287E+02  0.30708971470E+03  0.19900000000E+03 0.  0.
<mgrwt>
<rscale>  0 0.60098024E+03</rscale>
<asrwt>0</asrwt>
<pdfrwt beam="1">  1        1 0.53810446E-01 0.60098024E+03</pdfrwt>
<pdfrwt beam="2">  1       -1 0.34245044E-01 0.60098024E+03</pdfrwt>
<totfact> 0.58341657E+02</totfact>
</mgrwt>
</event>
<event>
 4    1  0.6282309E-006  0.1109164E+04  0.7818608E-02  0.9196306E-01
         -1   -1    0    0    0  501 -0.00000000000E+00  0.00000000000E+00  0.24829292002E+03  0.24829292007E+03  0.50400000000E-02 0.  1.
          1   -1    0    0  501    0  0.00000000000E+00 -0.00000000000E+00 -0.12387036570E+04  0.12387036570E+04  0.50400000000E-02 0. -1.
    5000001    1    1    2    0    0  0.35189764197E+03 -0.36036480058E+03 -0.65533040469E+03  0.85014920998E+03  0.19900000000E+03 0.  0.
   -5000001    1    1    2    0    0 -0.35189764197E+03  0.36036480058E+03 -0.33508033232E+03  0.63684736713E+03  0.19900000000E+03 0.  0.
<mgrwt>
<rscale>  0 0.11091643E+04</rscale>
<asrwt>0</asrwt>
<pdfrwt beam="1">  1        1 0.17695766E+00 0.11091643E+04</pdfrwt>
<pdfrwt beam="2">  1       -1 0.35470418E-01 0.11091643E+04</pdfrwt>
<totfact> 0.87656753E+01</totfact>
</mgrwt>
</event>
<event>
 4    1  0.6282309E-006  0.4748192E+03  0.7818608E-02  0.1020569E+00
          1   -1    0    0  501    0  0.00000000000E+00  0.00000000000E+00  0.81318262136E+03  0.81318262138E+03  0.50400000000E-02 0.  1.
         -1   -1    0    0    0  501 -0.00000000000E+00 -0.00000000000E+00 -0.69312000797E+02  0.69312000980E+02  0.50400000000E-02 0. -1.
    5000001    1    1    2    0    0  0.79708008289E+02  0.10072790165E+03  0.40206729562E+03  0.46664610463E+03  0.19900000000E+03 0.  0.
   -5000001    1    1    2    0    0 -0.79708008289E+02 -0.10072790165E+03  0.34180332495E+03  0.41584851773E+03  0.19900000000E+03 0.  0.
<mgrwt>
<rscale>  0 0.47481918E+03</rscale>
<asrwt>0</asrwt>
<pdfrwt beam="1">  1        1 0.11616895E+00 0.47481918E+03</pdfrwt>
<pdfrwt beam="2">  1       -1 0.99017143E-02 0.47481918E+03</pdfrwt>
<totfact> 0.15605800E+03</totfact>
</mgrwt>
</event>
<event>
 4    1  0.6282309E-006  0.4891369E+03  0.7818608E-02  0.1016654E+00
         -1   -1    0    0    0  501 -0.00000000000E+00  0.00000000000E+00  0.24077225097E+02  0.24077225625E+02  0.50400000000E-02 0. -1.
          1   -1    0    0  501    0  0.00000000000E+00 -0.00000000000E+00 -0.24842454110E+04  0.24842454110E+04  0.50400000000E-02 0.  1.
    5000001    1    1    2    0    0  0.12659252236E+02  0.10496440736E+03 -0.74265001672E+03  0.77608493789E+03  0.19900000000E+03 0.  0.
   -5000001    1    1    2    0    0 -0.12659252236E+02 -0.10496440736E+03 -0.17175181692E+04  0.17322376988E+04  0.19900000000E+03 0.  0.
<mgrwt>
<rscale>  0 0.48913694E+03</rscale>
<asrwt>0</asrwt>
<pdfrwt beam="1">  1        1 0.35489204E+00 0.48913694E+03</pdfrwt>
<pdfrwt beam="2">  1       -1 0.34396052E-02 0.48913694E+03</pdfrwt>
<totfact> 0.63968678E+02</totfact>
</mgrwt>
</event>
<event>
 4    1  0.6282309E-006  0.6334295E+03  0.7818608E-02  0.9838379E-01
          1   -1    0    0  501    0  0.00000000000E+00  0.00000000000E+00  0.32108141076E+03  0.32108141080E+03  0.50400000000E-02 0.  1.
         -1   -1    0    0    0  501 -0.00000000000E+00 -0.00000000000E+00 -0.31240742915E+03  0.31240742919E+03  0.50400000000E-02 0. -1.
    5000001    1    1    2    0    0 -0.96523905621E+02  0.22429381217E+03  0.37243564468E+02  0.31719498991E+03  0.19900000000E+03 0.  0.
   -5000001    1    1    2    0    0  0.96523905621E+02 -0.22429381217E+03 -0.28569582855E+02  0.31629385008E+03  0.19900000000E+03 0.  0.
<mgrwt>
<rscale>  0 0.63342945E+03</rscale>
<asrwt>0</asrwt>
<pdfrwt beam="1">  1        1 0.45868773E-01 0.63342945E+03</pdfrwt>
<pdfrwt beam="2">  1       -1 0.44629632E-01 0.63342945E+03</pdfrwt>
<totfact> 0.44440021E+02</totfact>
</mgrwt>
</event>
<event>
 4    1  0.6282309E-006  0.5581785E+03  0.7818608E-02  0.9996184E-01
         -1   -1    0    0    0  501 -0.00000000000E+00  0.00000000000E+00  0.72421260847E+03  0.72421260849E+03  0.50400000000E-02 0. -1.
          1   -1    0    0  501    0  0.00000000000E+00 -0.00000000000E+00 -0.10755242555E+03  0.10755242567E+03  0.50400000000E-02 0.  1.
    5000001    1    1    2    0    0 -0.16975537393E+02  0.10401746304E+03  0.55400929298E+03  0.59802600127E+03  0.19900000000E+03 0.  0.
   -5000001    1    1    2    0    0  0.16975537393E+02 -0.10401746304E+03  0.62650889939E+02  0.23373903289E+03  0.19900000000E+03 0.  0.
<mgrwt>
<rscale>  0 0.55817855E+03</rscale>
<asrwt>0</asrwt>
<pdfrwt beam="1">  1        1 0.15364633E-01 0.55817855E+03</pdfrwt>
<pdfrwt beam="2">  1       -1 0.10345894E+00 0.55817855E+03</pdfrwt>
<totfact> 0.33448504E+02</totfact>
</mgrwt>
</event>
<event>
 4    1  0.6282309E-006  0.7021892E+03  0.7818608E-02  0.9713496E-01
          1   -1    0    0  501    0  0.00000000000E+00  0.00000000000E+00  0.73838635822E+03  0.73838635824E+03  0.50400000000E-02 0.  1.
         -1   -1    0    0    0  501 -0.00000000000E+00 -0.00000000000E+00 -0.16694164210E+03  0.16694164218E+03  0.50400000000E-02 0. -1.
    5000001    1    1    2    0    0 -0.23513325351E+02  0.20551158886E+03  0.54639741712E+03  0.61720258187E+03  0.19900000000E+03 0.  0.
   -5000001    1    1    2    0    0  0.23513325351E+02 -0.20551158886E+03  0.25047298998E+02  0.28812541855E+03  0.19900000000E+03 0.  0.
<mgrwt>
<rscale>  0 0.70218924E+03</rscale>
<asrwt>0</asrwt>
<pdfrwt beam="1">  1        1 0.10548377E+00 0.70218924E+03</pdfrwt>
<pdfrwt beam="2">  1       -1 0.23848806E-01 0.70218924E+03</pdfrwt>
<totfact> 0.43072018E+02</totfact>
</mgrwt>
</event>
<event>
 4    1  0.6282309E-006  0.7087011E+03  0.7818608E-02  0.9702467E-01
          1   -1    0    0  501    0  0.00000000000E+00  0.00000000000E+00  0.44204445532E+03  0.44204445535E+03  0.50400000000E-02 0.  1.
         -1   -1    0    0    0  501 -0.00000000000E+00 -0.00000000000E+00 -0.28405358785E+03  0.28405358789E+03  0.50400000000E-02 0. -1.
    5000001    1    1    2    0    0 -0.13814235065E+03  0.11891700012E+03  0.31428197192E+03  0.41424475837E+03  0.19900000000E+03 0.  0.
   -5000001    1    1    2    0    0  0.13814235065E+03 -0.11891700012E+03 -0.15629110445E+03  0.31185328488E+03  0.19900000000E+03 0.  0.
<mgrwt>
<rscale>  0 0.70870110E+03</rscale>
<asrwt>0</asrwt>
<pdfrwt beam="1">  1        1 0.63149208E-01 0.70870110E+03</pdfrwt>
<pdfrwt beam="2">  1       -1 0.40579084E-01 0.70870110E+03</pdfrwt>
<totfact> 0.34762033E+02</totfact>
</mgrwt>
</event>
<event>
 4    1  0.6282309E-006  0.4990015E+03  0.7818608E-02  0.1014040E+00
          1   -1    0    0  501    0  0.00000000000E+00  0.00000000000E+00  0.14703211155E+04  0.14703211155E+04  0.50400000000E-02 0.  1.
         -1   -1    0    0    0  501 -0.00000000000E+00 -0.00000000000E+00 -0.42338121663E+02  0.42338121963E+02  0.50400000000E-02 0. -1.
    5000001    1    1    2    0    0  0.38958895626E+00 -0.13209894661E+03  0.49540980326E+03  0.54998377853E+03  0.19900000000E+03 0.  0.
   -5000001    1    1    2    0    0 -0.38958895626E+00  0.13209894661E+03  0.93257319059E+03  0.96267545896E+03  0.19900000000E+03 0.  0.
<mgrwt>
<rscale>  0 0.49900154E+03</rscale>
<asrwt>0</asrwt>
<pdfrwt beam="1">  1        1 0.21004592E+00 0.49900154E+03</pdfrwt>
<pdfrwt beam="2">  1       -1 0.60483018E-02 0.49900154E+03</pdfrwt>
<totfact> 0.11523148E+03</totfact>
</mgrwt>
</event>
<event>
 4    1  0.6282309E-006  0.6020664E+03  0.7818608E-02  0.9901128E-01
          1   -1    0    0  501    0  0.00000000000E+00  0.00000000000E+00  0.84124790431E+03  0.84124790433E+03  0.50400000000E-02 0.  1.
         -1   -1    0    0    0  501 -0.00000000000E+00 -0.00000000000E+00 -0.10772210780E+03  0.10772210792E+03  0.50400000000E-02 0. -1.
    5000001    1    1    2    0    0 -0.16550067897E+03 -0.13954307388E+03  0.46839041572E+03  0.55304007607E+03  0.19900000000E+03 0.  0.
   -5000001    1    1    2    0    0  0.16550067897E+03  0.13954307388E+03  0.26513538080E+03  0.39592993617E+03  0.19900000000E+03 0.  0.
<mgrwt>
<rscale>  0 0.60206643E+03</rscale>
<asrwt>0</asrwt>
<pdfrwt beam="1">  1        1 0.12017827E+00 0.60206643E+03</pdfrwt>
<pdfrwt beam="2">  1       -1 0.15388873E-01 0.60206643E+03</pdfrwt>
<totfact> 0.73128203E+02</totfact>
</mgrwt>
</event>
<event>
 4    1  0.6282309E-006  0.1098432E+04  0.7818608E-02  0.9206722E-01
         -1   -1    0    0    0  501 -0.00000000000E+00  0.00000000000E+00  0.10214020634E+03  0.10214020646E+03  0.50400000000E-02 0. -1.
          1   -1    0    0  501    0  0.00000000000E+00 -0.00000000000E+00 -0.29531763986E+04  0.29531763987E+04  0.50400000000E-02 0.  1.
    5000001    1    1    2    0    0  0.14537569427E+03 -0.40261668203E+03 -0.64469278338E+03  0.79903946715E+03  0.19900000000E+03 0.  0.
   -5000001    1    1    2    0    0 -0.14537569427E+03  0.40261668203E+03 -0.22063434089E+04  0.22562771380E+04  0.19900000000E+03 0.  0.
<mgrwt>
<rscale>  0 0.10984317E+04</rscale>
<asrwt>0</asrwt>
<pdfrwt beam="1">  1        1 0.42188229E+00 0.10984317E+04</pdfrwt>
<pdfrwt beam="2">  1       -1 0.14591460E-01 0.10984317E+04</pdfrwt>
<totfact> 0.31857173E+01</totfact>
</mgrwt>
</event>
<event>
 4    1  0.6282309E-006  0.1317956E+04  0.7818608E-02  0.9015446E-01
         -1   -1    0    0    0  501 -0.00000000000E+00  0.00000000000E+00  0.48336380083E+03  0.48336380086E+03  0.50400000000E-02 0.  1.
          1   -1    0    0  501    0  0.00000000000E+00 -0.00000000000E+00 -0.89839632086E+03  0.89839632088E+03  0.50400000000E-02 0. -1.
    5000001    1    1    2    0    0  0.38779563489E+03  0.17631374077E+03 -0.69158172675E+03  0.83627643420E+03  0.19900000000E+03 0.  0.
   -5000001    1    1    2    0    0 -0.38779563489E+03 -0.17631374077E+03  0.27654920672E+03  0.54548368753E+03  0.19900000000E+03 0.  0.
<mgrwt>
<rscale>  0 0.13179564E+04</rscale>
<asrwt>0</asrwt>
<pdfrwt beam="1">  1        1 0.12834233E+00 0.13179564E+04</pdfrwt>
<pdfrwt beam="2">  1       -1 0.69051971E-01 0.13179564E+04</pdfrwt>
<totfact> 0.43086263E+01</totfact>
</mgrwt>
</event>
<event>
 4    1  0.6282309E-006  0.4202301E+03  0.7818608E-02  0.1036991E+00
          1   -1    0    0  501    0  0.00000000000E+00  0.00000000000E+00  0.33112030908E+03  0.33112030912E+03  0.50400000000E-02 0.  1.
         -1   -1    0    0    0  501 -0.00000000000E+00 -0.00000000000E+00 -0.13333019547E+03  0.13333019556E+03  0.50400000000E-02 0. -1.
    5000001    1    1    2    0    0  0.39092713565E+02 -0.19642896494E+01  0.15958447778E+03  0.25807034745E+03  0.19900000000E+03 0.  0.
   -5000001    1    1    2    0    0 -0.39092713565E+02  0.19642896494E+01  0.38205635839E+02  0.20638015723E+03  0.19900000000E+03 0.  0.
<mgrwt>
<rscale>  0 0.42023011E+03</rscale>
<asrwt>0</asrwt>
<pdfrwt beam="1">  1        1 0.47302902E-01 0.42023011E+03</pdfrwt>
<pdfrwt beam="2">  1       -1 0.19047171E-01 0.42023011E+03</pdfrwt>
<totfact> 0.18657821E+03</totfact>
</mgrwt>
</event>
<event>
 4    1  0.6282309E-006  0.5887518E+03  0.7818608E-02  0.9929021E-01
          1   -1    0    0  501    0  0.00000000000E+00  0.00000000000E+00  0.17910465900E+03  0.17910465907E+03  0.50400000000E-02 0.  1.
         -1   -1    0    0    0  501 -0.00000000000E+00 -0.00000000000E+00 -0.48383543851E+03  0.48383543853E+03  0.50400000000E-02 0. -1.
    5000001    1    1    2    0    0 -0.12095939675E+03 -0.15726187073E+03 -0.25113194533E+03  0.37686964008E+03  0.19900000000E+03 0.  0.
   -5000001    1    1    2    0    0  0.12095939675E+03  0.15726187073E+03 -0.53598834173E+02  0.28607045753E+03  0.19900000000E+03 0.  0.
<mgrwt>
<rscale>  0 0.58875184E+03</rscale>
<asrwt>0</asrwt>
<pdfrwt beam="1">  1        1 0.25586380E-01 0.58875184E+03</pdfrwt>
<pdfrwt beam="2">  1       -1 0.69119348E-01 0.58875184E+03</pdfrwt>
<totfact> 0.40613347E+02</totfact>
</mgrwt>
</event>
<event>
 4    1  0.6282309E-006  0.6648983E+03  0.7818608E-02  0.9779218E-01
          1   -1    0    0  501    0  0.00000000000E+00  0.00000000000E+00  0.51082745195E+03  0.51082745198E+03  0.50400000000E-02 0. -1.
         -1   -1    0    0    0  501 -0.00000000000E+00 -0.00000000000E+00 -0.21635961400E+03  0.21635961406E+03  0.50400000000E-02 0.  1.
    5000001    1    1    2    0    0 -0.20080744599E+03  0.14153235854E+03  0.34811148036E+02  0.31806894678E+03  0.19900000000E+03 0.  0.
   -5000001    1    1    2    0    0  0.20080744599E+03 -0.14153235854E+03  0.25965668992E+03  0.40911811925E+03  0.19900000000E+03 0.  0.
<mgrwt>
<rscale>  0 0.66489828E+03</rscale>
<asrwt>0</asrwt>
<pdfrwt beam="1">  1        1 0.72975351E-01 0.66489828E+03</pdfrwt>
<pdfrwt beam="2">  1       -1 0.30908516E-01 0.66489828E+03</pdfrwt>
<totfact> 0.46575336E+02</totfact>
</mgrwt>
</event>
<event>
 4    1  0.6282309E-006  0.5840174E+03  0.7818608E-02  0.9939131E-01
          1   -1    0    0  501    0  0.00000000000E+00  0.00000000000E+00  0.47334985192E+03  0.47334985194E+03  0.50400000000E-02 0. -1.
         -1   -1    0    0    0  501 -0.00000000000E+00 -0.00000000000E+00 -0.18013966225E+03  0.18013966232E+03  0.50400000000E-02 0.  1.
    5000001    1    1    2    0    0  0.12671859611E+03  0.13548956710E+03  0.27905812315E+02  0.27348630633E+03  0.19900000000E+03 0.  0.
   -5000001    1    1    2    0    0 -0.12671859611E+03 -0.13548956710E+03  0.26530437736E+03  0.38000320793E+03  0.19900000000E+03 0.  0.
<mgrwt>
<rscale>  0 0.58401741E+03</rscale>
<asrwt>0</asrwt>
<pdfrwt beam="1">  1        1 0.67621407E-01 0.58401741E+03</pdfrwt>
<pdfrwt beam="2">  1       -1 0.25734238E-01 0.58401741E+03</pdfrwt>
<totfact> 0.70910102E+02</totfact>
</mgrwt>
</event>
<event>
 4    1  0.6282309E-006  0.4507033E+03  0.7818608E-02  0.1027513E+00
         -1   -1    0    0    0  501 -0.00000000000E+00  0.00000000000E+00  0.76130722925E+02  0.76130723092E+02  0.50400000000E-02 0. -1.
          1   -1    0    0  501    0  0.00000000000E+00 -0.00000000000E+00 -0.66705479841E+03  0.66705479843E+03  0.50400000000E-02 0.  1.
    5000001    1    1    2    0    0 -0.60646965207E+02  0.18837836863E+02 -0.15603638235E+03  0.26073218272E+03  0.19900000000E+03 0.  0.
   -5000001    1    1    2    0    0  0.60646965207E+02 -0.18837836863E+02 -0.43488769313E+03  0.48245333881E+03  0.19900000000E+03 0.  0.
<mgrwt>
<rscale>  0 0.45070329E+03</rscale>
<asrwt>0</asrwt>
<pdfrwt beam="1">  1        1 0.95293539E-01 0.45070329E+03</pdfrwt>
<pdfrwt beam="2">  1       -1 0.10875818E-01 0.45070329E+03</pdfrwt>
<totfact> 0.18047419E+03</totfact>
</mgrwt>
</event>
<event>
 4    1  0.6282309E-006  0.5017895E+03  0.7818608E-02  0.1013313E+00
          1   -1    0    0  501    0  0.00000000000E+00  0.00000000000E+00  0.40070777525E+03  0.40070777528E+03  0.50400000000E-02 0.  1.
         -1   -1    0    0    0  501 -0.00000000000E+00 -0.00000000000E+00 -0.15709245912E+03  0.15709245920E+03  0.50400000000E-02 0. -1.
    5000001    1    1    2    0    0  0.15897290078E+02  0.14132817772E+03  0.59707948688E+02  0.25177850740E+03  0.19900000000E+03 0.  0.
   -5000001    1    1    2    0    0 -0.15897290078E+02 -0.14132817772E+03  0.18390736743E+03  0.30602172708E+03  0.19900000000E+03 0.  0.
<mgrwt>
<rscale>  0 0.50178948E+03</rscale>
<asrwt>0</asrwt>
<pdfrwt beam="1">  1        1 0.57243969E-01 0.50178948E+03</pdfrwt>
<pdfrwt beam="2">  1       -1 0.22441780E-01 0.50178948E+03</pdfrwt>
<totfact> 0.11133024E+03</totfact>
</mgrwt>
</event>
<event>
 4    1  0.6282309E-006  0.4692166E+03  0.7818608E-02  0.1022142E+00
         -1   -1    0    0    0  501 -0.00000000000E+00  0.00000000000E+00  0.10030717550E+03  0.10030717563E+03  0.50400000000E-02 0.  1.
          1   -1    0    0  501    0  0.00000000000E+00 -0.00000000000E+00 -0.54872505994E+03  0.54872505997E+03  0.50400000000E-02 0. -1.
    5000001    1    1    2    0    0 -0.83888419703E+02 -0.11503684280E+02 -0.98415591340E+02  0.23760519845E+03  0.19900000000E+03 0.  0.
   -5000001    1    1    2    0    0  0.83888419703E+02  0.11503684280E+02 -0.35000229310E+03  0.41142703714E+03  0.19900000000E+03 0.  0.
<mgrwt>
<rscale>  0 0.46921663E+03</rscale>
<asrwt>0</asrwt>
<pdfrwt beam="1">  1        1 0.78389293E-01 0.46921663E+03</pdfrwt>
<pdfrwt beam="2">  1       -1 0.14329597E-01 0.46921663E+03</pdfrwt>
<totfact> 0.15283684E+03</totfact>
</mgrwt>
</event>
<event>
 4    1  0.6282309E-006  0.7596492E+03  0.7818608E-02  0.9620333E-01
         -1   -1    0    0    0  501 -0.00000000000E+00  0.00000000000E+00  0.12849907327E+03  0.12849907337E+03  0.50400000000E-02 0. -1.
          1   -1    0    0  501    0  0.00000000000E+00 -0.00000000000E+00 -0.11227065038E+04  0.11227065038E+04  0.50400000000E-02 0.  1.
    5000001    1    1    2    0    0  0.30934439119E+03 -0.63222775978E+02 -0.38093268147E+03  0.53329333352E+03  0.19900000000E+03 0.  0.
   -5000001    1    1    2    0    0 -0.30934439119E+03  0.63222775978E+02 -0.61327474902E+03  0.71791224362E+03  0.19900000000E+03 0.  0.
<mgrwt>
<rscale>  0 0.75964925E+03</rscale>
<asrwt>0</asrwt>
<pdfrwt beam="1">  1        1 0.16038664E+00 0.75964925E+03</pdfrwt>
<pdfrwt beam="2">  1       -1 0.18357011E-01 0.75964925E+03</pdfrwt>
<totfact> 0.33424611E+02</totfact>
</mgrwt>
</event>
<event>
 4    1  0.6282309E-006  0.4882432E+03  0.7818608E-02  0.1016894E+00
          1   -1    0    0  501    0  0.00000000000E+00  0.00000000000E+00  0.29617088016E+02  0.29617088444E+02  0.50400000000E-02 0.  1.
         -1   -1    0    0    0  501 -0.00000000000E+00 -0.00000000000E+00 -0.20121945887E+04  0.20121945887E+04  0.50400000000E-02 0. -1.
    5000001    1    1    2    0    0 -0.12276894114E+03 -0.57148076722E+01 -0.12837110812E+04  0.13048448229E+04  0.19900000000E+03 0.  0.
   -5000001    1    1    2    0    0  0.12276894114E+03  0.57148076722E+01 -0.69886641948E+03  0.73696685422E+03  0.19900000000E+03 0.  0.
<mgrwt>
<rscale>  0 0.48824316E+03</rscale>
<asrwt>0</asrwt>
<pdfrwt beam="1">  1        1 0.42310139E-02 0.48824316E+03</pdfrwt>
<pdfrwt beam="2">  1       -1 0.28745628E+00 0.48824316E+03</pdfrwt>
<totfact> 0.95017242E+01</totfact>
</mgrwt>
</event>
<event>
 4    1  0.6282309E-006  0.1202590E+04  0.7818608E-02  0.9110593E-01
          1   -1    0    0  501    0  0.00000000000E+00  0.00000000000E+00  0.62441589866E+03  0.62441589868E+03  0.50400000000E-02 0.  1.
         -1   -1    0    0    0  501 -0.00000000000E+00 -0.00000000000E+00 -0.57902987632E+03  0.57902987634E+03  0.50400000000E-02 0. -1.
    5000001    1    1    2    0    0 -0.38635191915E+03 -0.35128816194E+03 -0.19946341547E+03  0.59334461509E+03  0.19900000000E+03 0.  0.
   -5000001    1    1    2    0    0  0.38635191915E+03  0.35128816194E+03  0.24484943782E+03  0.61010115993E+03  0.19900000000E+03 0.  0.
<mgrwt>
<rscale>  0 0.12025896E+04</rscale>
<asrwt>0</asrwt>
<pdfrwt beam="1">  1        1 0.89202271E-01 0.12025896E+04</pdfrwt>
<pdfrwt beam="2">  1       -1 0.82718554E-01 0.12025896E+04</pdfrwt>
<totfact> 0.51791653E+01</totfact>
</mgrwt>
</event>
<event>
 4    1  0.6282309E-006  0.6679002E+03  0.7818608E-02  0.9773759E-01
          1   -1    0    0  501    0  0.00000000000E+00  0.00000000000E+00  0.18432393664E+04  0.18432393664E+04  0.50400000000E-02 0. -1.
         -1   -1    0    0    0  501 -0.00000000000E+00 -0.00000000000E+00 -0.60503621511E+02  0.60503621721E+02  0.50400000000E-02 0.  1.
    5000001    1    1    2    0    0  0.25457049412E+03 -0.62205613647E+02  0.72897392336E+03  0.79979975980E+03  0.19900000000E+03 0.  0.
   -5000001    1    1    2    0    0 -0.25457049412E+03  0.62205613647E+02  0.10537618215E+04  0.11039432283E+04  0.19900000000E+03 0.  0.
<mgrwt>
<rscale>  0 0.66790016E+03</rscale>
<asrwt>0</asrwt>
<pdfrwt beam="1">  1        1 0.26331991E+00 0.66790016E+03</pdfrwt>
<pdfrwt beam="2">  1       -1 0.86433745E-02 0.66790016E+03</pdfrwt>
<totfact> 0.38209636E+02</totfact>
</mgrwt>
</event>
<event>
 4    1  0.6282309E-006  0.5165198E+03  0.7818608E-02  0.1009555E+00
          1   -1    0    0  501    0  0.00000000000E+00  0.00000000000E+00  0.10557081402E+04  0.10557081402E+04  0.50400000000E-02 0.  1.
         -1   -1    0    0    0  501 -0.00000000000E+00 -0.00000000000E+00 -0.63178624922E+02  0.63178625123E+02  0.50400000000E-02 0. -1.
    5000001    1    1    2    0    0 -0.10416477044E+03  0.10985881096E+03  0.35624808522E+03  0.43523896421E+03  0.19900000000E+03 0.  0.
   -5000001    1    1    2    0    0  0.10416477044E+03 -0.10985881096E+03  0.63628143009E+03  0.68364780116E+03  0.19900000000E+03 0.  0.
<mgrwt>
<rscale>  0 0.51651985E+03</rscale>
<asrwt>0</asrwt>
<pdfrwt beam="1">  1        1 0.15081543E+00 0.51651985E+03</pdfrwt>
<pdfrwt beam="2">  1       -1 0.90255189E-02 0.51651985E+03</pdfrwt>
<totfact> 0.11776847E+03</totfact>
</mgrwt>
</event>
<event>
 4    1  0.6282309E-006  0.1181906E+04  0.7818608E-02  0.9128843E-01
          1   -1    0    0  501    0  0.00000000000E+00  0.00000000000E+00  0.56877951319E+03  0.56877951321E+03  0.50400000000E-02 0. -1.
         -1   -1    0    0    0  501 -0.00000000000E+00 -0.00000000000E+00 -0.61399070449E+03  0.61399070451E+03  0.50400000000E-02 0.  1.
    5000001    1    1    2    0    0 -0.96702193121E+02  0.54380491938E+03  0.44891710312E+02  0.58880503577E+03  0.19900000000E+03 0.  0.
   -5000001    1    1    2    0    0  0.96702193121E+02 -0.54380491938E+03 -0.90102901615E+02  0.59396518195E+03  0.19900000000E+03 0.  0.
<mgrwt>
<rscale>  0 0.11819058E+04</rscale>
<asrwt>0</asrwt>
<pdfrwt beam="1">  1        1 0.81254216E-01 0.11819058E+04</pdfrwt>
<pdfrwt beam="2">  1       -1 0.87712957E-01 0.11819058E+04</pdfrwt>
<totfact> 0.52116003E+01</totfact>
</mgrwt>
</event>
<event>
 4    1  0.6282309E-006  0.9353893E+03  0.7818608E-02  0.9382393E-01
         -1   -1    0    0    0  501 -0.00000000000E+00  0.00000000000E+00  0.91672090851E+03  0.91672090853E+03  0.50400000000E-02 0.  1.
          1   -1    0    0  501    0  0.00000000000E+00 -0.00000000000E+00 -0.23860945080E+03  0.23860945086E+03  0.50400000000E-02 0. -1.
    5000001    1    1    2    0    0 -0.31724420599E+03 -0.22434804874E+02  0.68398769552E+03  0.78012010250E+03  0.19900000000E+03 0.  0.
   -5000001    1    1    2    0    0  0.31724420599E+03  0.22434804874E+02 -0.58762378063E+01  0.37521025688E+03  0.19900000000E+03 0.  0.
<mgrwt>
<rscale>  0 0.93538927E+03</rscale>
<asrwt>0</asrwt>
<pdfrwt beam="1">  1        1 0.34087064E-01 0.93538927E+03</pdfrwt>
<pdfrwt beam="2">  1       -1 0.13096013E+00 0.93538927E+03</pdfrwt>
<totfact> 0.65197627E+01</totfact>
</mgrwt>
</event>
<event>
 4    1  0.6282309E-006  0.5157828E+03  0.7818608E-02  0.1009740E+00
         -1   -1    0    0    0  501 -0.00000000000E+00  0.00000000000E+00  0.15921614647E+03  0.15921614655E+03  0.50400000000E-02 0. -1.
          1   -1    0    0  501    0  0.00000000000E+00 -0.00000000000E+00 -0.41772137124E+03  0.41772137128E+03  0.50400000000E-02 0.  1.
    5000001    1    1    2    0    0 -0.14013730579E+03 -0.77806843958E+02 -0.16823618820E+03  0.30593591561E+03  0.19900000000E+03 0.  0.
   -5000001    1    1    2    0    0  0.14013730579E+03  0.77806843958E+02 -0.90269036569E+02  0.27100160222E+03  0.19900000000E+03 0.  0.
<mgrwt>
<rscale>  0 0.51578285E+03</rscale>
<asrwt>0</asrwt>
<pdfrwt beam="1">  1        1 0.59674481E-01 0.51578285E+03</pdfrwt>
<pdfrwt beam="2">  1       -1 0.22745164E-01 0.51578285E+03</pdfrwt>
<totfact> 0.10310428E+03</totfact>
</mgrwt>
</event>
<event>
 4    1  0.6282309E-006  0.7275037E+03  0.7818608E-02  0.9671320E-01
          1   -1    0    0  501    0  0.00000000000E+00  0.00000000000E+00  0.12244450052E+04  0.12244450052E+04  0.50400000000E-02 0. -1.
         -1   -1    0    0    0  501 -0.00000000000E+00 -0.00000000000E+00 -0.10806154166E+03  0.10806154178E+03  0.50400000000E-02 0.  1.
    5000001    1    1    2    0    0 -0.19454814449E+03 -0.14355161792E+03  0.89720560123E+03  0.95028150483E+03  0.19900000000E+03 0.  0.
   -5000001    1    1    2    0    0  0.19454814449E+03  0.14355161792E+03  0.21917786229E+03  0.38222504216E+03  0.19900000000E+03 0.  0.
<mgrwt>
<rscale>  0 0.72750372E+03</rscale>
<asrwt>0</asrwt>
<pdfrwt beam="1">  1        1 0.17492071E+00 0.72750372E+03</pdfrwt>
<pdfrwt beam="2">  1       -1 0.15437364E-01 0.72750372E+03</pdfrwt>
<totfact> 0.37800945E+02</totfact>
</mgrwt>
</event>
<event>
 4    1  0.6282309E-006  0.1172498E+04  0.7818608E-02  0.9137275E-01
         -1   -1    0    0    0  501 -0.00000000000E+00  0.00000000000E+00  0.36730818336E+03  0.36730818339E+03  0.50400000000E-02 0.  1.
          1   -1    0    0  501    0  0.00000000000E+00 -0.00000000000E+00 -0.93569412678E+03  0.93569412680E+03  0.50400000000E-02 0. -1.
    5000001    1    1    2    0    0  0.31642376829E+03  0.42115696543E+03 -0.46540684594E+03  0.73054891891E+03  0.19900000000E+03 0.  0.
   -5000001    1    1    2    0    0 -0.31642376829E+03 -0.42115696543E+03 -0.10297909749E+03  0.57245339128E+03  0.19900000000E+03 0.  0.
<mgrwt>
<rscale>  0 0.11724984E+04</rscale>
<asrwt>0</asrwt>
<pdfrwt beam="1">  1        1 0.13367059E+00 0.11724984E+04</pdfrwt>
<pdfrwt beam="2">  1       -1 0.52472598E-01 0.11724984E+04</pdfrwt>
<totfact> 0.70117483E+01</totfact>
</mgrwt>
</event>
<event>
 4    1  0.6282309E-006  0.6509213E+03  0.7818608E-02  0.9805052E-01
          1   -1    0    0  501    0  0.00000000000E+00  0.00000000000E+00  0.15260217812E+04  0.15260217812E+04  0.50400000000E-02 0.  1.
         -1   -1    0    0    0  501 -0.00000000000E+00 -0.00000000000E+00 -0.69412274476E+02  0.69412274659E+02  0.50400000000E-02 0. -1.
    5000001    1    1    2    0    0  0.14207104149E+03  0.13674065626E+03  0.11343308290E+04  0.11684132905E+04  0.19900000000E+03 0.  0.
   -5000001    1    1    2    0    0 -0.14207104149E+03 -0.13674065626E+03  0.32227867775E+03  0.42702076535E+03  0.19900000000E+03 0.  0.
<mgrwt>
<rscale>  0 0.65092133E+03</rscale>
<asrwt>0</asrwt>
<pdfrwt beam="1">  1        1 0.21800308E+00 0.65092133E+03</pdfrwt>
<pdfrwt beam="2">  1       -1 0.99160407E-02 0.65092133E+03</pdfrwt>
<totfact> 0.48817506E+02</totfact>
</mgrwt>
</event>
<event>
 4    1  0.6282309E-006  0.5812073E+03  0.7818608E-02  0.9945181E-01
          1   -1    0    0  501    0  0.00000000000E+00  0.00000000000E+00  0.30493522898E+03  0.30493522902E+03  0.50400000000E-02 0.  1.
         -1   -1    0    0    0  501 -0.00000000000E+00 -0.00000000000E+00 -0.27694566376E+03  0.27694566381E+03  0.50400000000E-02 0. -1.
    5000001    1    1    2    0    0  0.21009485064E+03 -0.24230768281E+02  0.29133950885E+01  0.29040741083E+03  0.19900000000E+03 0.  0.
   -5000001    1    1    2    0    0 -0.21009485064E+03  0.24230768281E+02  0.25076170129E+02  0.29147348199E+03  0.19900000000E+03 0.  0.
<mgrwt>
<rscale>  0 0.58120733E+03</rscale>
<asrwt>0</asrwt>
<pdfrwt beam="1">  1        1 0.43562176E-01 0.58120733E+03</pdfrwt>
<pdfrwt beam="2">  1       -1 0.39563666E-01 0.58120733E+03</pdfrwt>
<totfact> 0.59267211E+02</totfact>
</mgrwt>
</event>
<event>
 4    1  0.6282309E-006  0.7082051E+03  0.7818608E-02  0.9703302E-01
         -1   -1    0    0    0  501 -0.00000000000E+00  0.00000000000E+00  0.10270383473E+03  0.10270383485E+03  0.50400000000E-02 0. -1.
          1   -1    0    0  501    0  0.00000000000E+00 -0.00000000000E+00 -0.12208757267E+04  0.12208757267E+04  0.50400000000E-02 0.  1.
    5000001    1    1    2    0    0 -0.15852899406E+03  0.11610609327E+03 -0.96501439821E+03  0.10047217802E+04  0.19900000000E+03 0.  0.
   -5000001    1    1    2    0    0  0.15852899406E+03 -0.11610609327E+03 -0.15315749380E+03  0.31885778140E+03  0.19900000000E+03 0.  0.
<mgrwt>
<rscale>  0 0.70820511E+03</rscale>
<asrwt>0</asrwt>
<pdfrwt beam="1">  1        1 0.17441081E+00 0.70820511E+03</pdfrwt>
<pdfrwt beam="2">  1       -1 0.14671977E-01 0.70820511E+03</pdfrwt>
<totfact> 0.41331627E+02</totfact>
</mgrwt>
</event>
<event>
 4    1  0.6282309E-006  0.7193189E+03  0.7818608E-02  0.9684753E-01
         -1   -1    0    0    0  501 -0.00000000000E+00  0.00000000000E+00  0.11480474856E+03  0.11480474867E+03  0.50400000000E-02 0. -1.
          1   -1    0    0  501    0  0.00000000000E+00 -0.00000000000E+00 -0.11267385382E+04  0.11267385382E+04  0.50400000000E-02 0.  1.
    5000001    1    1    2    0    0  0.81138665045E+02  0.15115419432E+03 -0.82049403688E+02  0.27525293472E+03  0.19900000000E+03 0.  0.
   -5000001    1    1    2    0    0 -0.81138665045E+02 -0.15115419432E+03 -0.92988438593E+03  0.96629035213E+03  0.19900000000E+03 0.  0.
<mgrwt>
<rscale>  0 0.71931894E+03</rscale>
<asrwt>0</asrwt>
<pdfrwt beam="1">  1        1 0.16096264E+00 0.71931894E+03</pdfrwt>
<pdfrwt beam="2">  1       -1 0.16400679E-01 0.71931894E+03</pdfrwt>
<totfact> 0.40049854E+02</totfact>
</mgrwt>
</event>
<event>
 4    1  0.6282309E-006  0.7353314E+03  0.7818608E-02  0.9658648E-01
          1   -1    0    0  501    0  0.00000000000E+00  0.00000000000E+00  0.16303038651E+04  0.16303038651E+04  0.50400000000E-02 0. -1.
         -1   -1    0    0    0  501 -0.00000000000E+00 -0.00000000000E+00 -0.82915867921E+02  0.82915868074E+02  0.50400000000E-02 0.  1.
    5000001    1    1    2    0    0  0.15229957255E+03  0.13197904069E+03  0.13199131124E+04  0.13499574998E+04  0.19900000000E+03 0.  0.
   -5000001    1    1    2    0    0 -0.15229957255E+03 -0.13197904069E+03  0.22747488472E+03  0.36326223332E+03  0.19900000000E+03 0.  0.
<mgrwt>
<rscale>  0 0.73533138E+03</rscale>
<asrwt>0</asrwt>
<pdfrwt beam="1">  1        1 0.23290056E+00 0.73533138E+03</pdfrwt>
<pdfrwt beam="2">  1       -1 0.11845123E-01 0.73533138E+03</pdfrwt>
<totfact> 0.31417067E+02</totfact>
</mgrwt>
</event>
<event>
 4    1  0.6282309E-006  0.5167402E+03  0.7818608E-02  0.1009500E+00
          1   -1    0    0  501    0  0.00000000000E+00  0.00000000000E+00  0.61875589429E+03  0.61875589431E+03  0.50400000000E-02 0.  1.
         -1   -1    0    0    0  501 -0.00000000000E+00 -0.00000000000E+00 -0.10788602040E+03  0.10788602052E+03  0.50400000000E-02 0. -1.
    5000001    1    1    2    0    0 -0.27084237657E+02  0.14707214593E+03  0.15810839010E+03  0.29489495597E+03  0.19900000000E+03 0.  0.
   -5000001    1    1    2    0    0  0.27084237657E+02 -0.14707214593E+03  0.35276148379E+03  0.43174695885E+03  0.19900000000E+03 0.  0.
<mgrwt>
<rscale>  0 0.51674021E+03</rscale>
<asrwt>0</asrwt>
<pdfrwt beam="1">  1        1 0.88393696E-01 0.51674021E+03</pdfrwt>
<pdfrwt beam="2">  1       -1 0.15412289E-01 0.51674021E+03</pdfrwt>
<totfact> 0.11510702E+03</totfact>
</mgrwt>
</event>
<event>
 4    1  0.6282309E-006  0.4555290E+03  0.7818608E-02  0.1026086E+00
         -1   -1    0    0    0  501 -0.00000000000E+00  0.00000000000E+00  0.76204068611E+02  0.76204068778E+02  0.50400000000E-02 0. -1.
          1   -1    0    0  501    0  0.00000000000E+00 -0.00000000000E+00 -0.68075988874E+03  0.68075988876E+03  0.50400000000E-02 0.  1.
    5000001    1    1    2    0    0  0.64370655108E+02 -0.90071149114E+02 -0.29498140499E+03  0.37265456180E+03  0.19900000000E+03 0.  0.
   -5000001    1    1    2    0    0 -0.64370655108E+02  0.90071149114E+02 -0.30957441515E+03  0.38430939574E+03  0.19900000000E+03 0.  0.
<mgrwt>
<rscale>  0 0.45552903E+03</rscale>
<asrwt>0</asrwt>
<pdfrwt beam="1">  1        1 0.97251409E-01 0.45552903E+03</pdfrwt>
<pdfrwt beam="2">  1       -1 0.10886296E-01 0.45552903E+03</pdfrwt>
<totfact> 0.17502862E+03</totfact>
</mgrwt>
</event>
<event>
 4    1  0.6282309E-006  0.6185881E+03  0.7818608E-02  0.9867575E-01
          1   -1    0    0  501    0  0.00000000000E+00  0.00000000000E+00  0.70654095705E+03  0.70654095707E+03  0.50400000000E-02 0.  1.
         -1   -1    0    0    0  501 -0.00000000000E+00 -0.00000000000E+00 -0.13539599914E+03  0.13539599924E+03  0.50400000000E-02 0. -1.
    5000001    1    1    2    0    0 -0.19164815308E+02  0.19142573141E+03  0.47343219665E+03  0.54840691610E+03  0.19900000000E+03 0.  0.
   -5000001    1    1    2    0    0  0.19164815308E+02 -0.19142573141E+03  0.97712761248E+02  0.29353004021E+03  0.19900000000E+03 0.  0.
<mgrwt>
<rscale>  0 0.61858813E+03</rscale>
<asrwt>0</asrwt>
<pdfrwt beam="1">  1        1 0.10093442E+00 0.61858813E+03</pdfrwt>
<pdfrwt beam="2">  1       -1 0.19342286E-01 0.61858813E+03</pdfrwt>
<totfact> 0.65481600E+02</totfact>
</mgrwt>
</event>
<event>
 4    1  0.6282309E-006  0.6375253E+03  0.7818608E-02  0.9830473E-01
          1   -1    0    0  501    0  0.00000000000E+00  0.00000000000E+00  0.16941374308E+04  0.16941374308E+04  0.50400000000E-02 0.  1.
         -1   -1    0    0    0  501 -0.00000000000E+00 -0.00000000000E+00 -0.59977205689E+02  0.59977205901E+02  0.50400000000E-02 0. -1.
    5000001    1    1    2    0    0 -0.21673646110E+03  0.40173175458E+02  0.11358208980E+04  0.11740011456E+04  0.19900000000E+03 0.  0.
   -5000001    1    1    2    0    0  0.21673646110E+03 -0.40173175458E+02  0.49833932715E+03  0.58011349112E+03  0.19900000000E+03 0.  0.
<mgrwt>
<rscale>  0 0.63752531E+03</rscale>
<asrwt>0</asrwt>
<pdfrwt beam="1">  1        1 0.24201963E+00 0.63752531E+03</pdfrwt>
<pdfrwt beam="2">  1       -1 0.85681722E-02 0.63752531E+03</pdfrwt>
<totfact> 0.48104659E+02</totfact>
</mgrwt>
</event>
<event>
 4    1  0.6282309E-006  0.5141841E+03  0.7818608E-02  0.1010142E+00
         -1   -1    0    0    0  501 -0.00000000000E+00  0.00000000000E+00  0.26490336181E+03  0.26490336186E+03  0.50400000000E-02 0.  1.
          1   -1    0    0  501    0  0.00000000000E+00 -0.00000000000E+00 -0.24951107773E+03  0.24951107778E+03  0.50400000000E-02 0. -1.
    5000001    1    1    2    0    0 -0.54765284979E+02  0.13230016616E+03  0.85143693198E+02  0.25952460171E+03  0.19900000000E+03 0.  0.
   -5000001    1    1    2    0    0  0.54765284979E+02 -0.13230016616E+03 -0.69751409119E+02  0.25488983793E+03  0.19900000000E+03 0.  0.
<mgrwt>
<rscale>  0 0.51418410E+03</rscale>
<asrwt>0</asrwt>
<pdfrwt beam="1">  1        1 0.35644440E-01 0.51418410E+03</pdfrwt>
<pdfrwt beam="2">  1       -1 0.37843337E-01 0.51418410E+03</pdfrwt>
<totfact> 0.83129605E+02</totfact>
</mgrwt>
</event>
<event>
 4    1  0.6282309E-006  0.6185944E+03  0.7818608E-02  0.9867562E-01
          1   -1    0    0  501    0  0.00000000000E+00  0.00000000000E+00  0.18829490669E+04  0.18829490669E+04  0.50400000000E-02 0.  1.
         -1   -1    0    0    0  501 -0.00000000000E+00 -0.00000000000E+00 -0.50805813263E+02  0.50805813513E+02  0.50400000000E-02 0. -1.
    5000001    1    1    2    0    0  0.34158336407E+01  0.16338186744E+03  0.14516981142E+04  0.14743587478E+04  0.19900000000E+03 0.  0.
   -5000001    1    1    2    0    0 -0.34158336407E+01 -0.16338186744E+03  0.38044513951E+03  0.45939613267E+03  0.19900000000E+03 0.  0.
<mgrwt>
<rscale>  0 0.61859440E+03</rscale>
<asrwt>0</asrwt>
<pdfrwt beam="1">  1        1 0.26899264E+00 0.61859440E+03</pdfrwt>
<pdfrwt beam="2">  1       -1 0.72579757E-02 0.61859440E+03</pdfrwt>
<totfact> 0.47575842E+02</totfact>
</mgrwt>
</event>
<event>
 4    1  0.6282309E-006  0.1928520E+04  0.7818608E-02  0.8640789E-01
          1   -1    0    0  501    0  0.00000000000E+00  0.00000000000E+00  0.55113996948E+03  0.55113996950E+03  0.50400000000E-02 0.  1.
         -1   -1    0    0    0  501 -0.00000000000E+00 -0.00000000000E+00 -0.16870440936E+04  0.16870440936E+04  0.50400000000E-02 0. -1.
    5000001    1    1    2    0    0 -0.79300862559E+03  0.45702195350E+03 -0.30212134457E+03  0.98417988858E+03  0.19900000000E+03 0.  0.
   -5000001    1    1    2    0    0  0.79300862559E+03 -0.45702195350E+03 -0.83378277952E+03  0.12540041745E+04  0.19900000000E+03 0.  0.
<mgrwt>
<rscale>  0 0.19285201E+04</rscale>
<asrwt>0</asrwt>
<pdfrwt beam="1">  1        1 0.78734282E-01 0.19285201E+04</pdfrwt>
<pdfrwt beam="2">  1       -1 0.24100630E+00 0.19285201E+04</pdfrwt>
<totfact> 0.32099343E+00</totfact>
</mgrwt>
</event>
<event>
 4    1  0.6282309E-006  0.4915637E+03  0.7818608E-02  0.1016005E+00
         -1   -1    0    0    0  501 -0.00000000000E+00  0.00000000000E+00  0.23584792086E+03  0.23584792092E+03  0.50400000000E-02 0. -1.
          1   -1    0    0  501    0  0.00000000000E+00 -0.00000000000E+00 -0.25613418551E+03  0.25613418556E+03  0.50400000000E-02 0.  1.
    5000001    1    1    2    0    0 -0.48414945112E+02 -0.11375744350E+03 -0.84522958313E+02  0.24905801201E+03  0.19900000000E+03 0.  0.
   -5000001    1    1    2    0    0  0.48414945112E+02  0.11375744350E+03  0.64236693667E+02  0.24292409447E+03  0.19900000000E+03 0.  0.
<mgrwt>
<rscale>  0 0.49156369E+03</rscale>
<asrwt>0</asrwt>
<pdfrwt beam="1">  1        1 0.36590598E-01 0.49156369E+03</pdfrwt>
<pdfrwt beam="2">  1       -1 0.33692560E-01 0.49156369E+03</pdfrwt>
<totfact> 0.98765739E+02</totfact>
</mgrwt>
</event>
<event>
 4    1  0.6282309E-006  0.5056664E+03  0.7818608E-02  0.1012310E+00
          1   -1    0    0  501    0  0.00000000000E+00  0.00000000000E+00  0.25830304343E+04  0.25830304343E+04  0.50400000000E-02 0.  1.
         -1   -1    0    0    0  501 -0.00000000000E+00 -0.00000000000E+00 -0.24747919855E+02  0.24747920368E+02  0.50400000000E-02 0. -1.
    5000001    1    1    2    0    0  0.97766157456E+02  0.34859036667E+02  0.67882468828E+03  0.71496666454E+03  0.19900000000E+03 0.  0.
   -5000001    1    1    2    0    0 -0.97766157456E+02 -0.34859036667E+02  0.18794578262E+04  0.18928116902E+04  0.19900000000E+03 0.  0.
<mgrwt>
<rscale>  0 0.50566642E+03</rscale>
<asrwt>0</asrwt>
<pdfrwt beam="1">  1        1 0.36900444E+00 0.50566642E+03</pdfrwt>
<pdfrwt beam="2">  1       -1 0.35354163E-02 0.50566642E+03</pdfrwt>
<totfact> 0.53206653E+02</totfact>
</mgrwt>
</event>
<event>
 4    1  0.6282309E-006  0.5063872E+03  0.7818608E-02  0.1012125E+00
         -1   -1    0    0    0  501 -0.00000000000E+00  0.00000000000E+00  0.11077522945E+04  0.11077522946E+04  0.50400000000E-02 0. -1.
          1   -1    0    0  501    0  0.00000000000E+00 -0.00000000000E+00 -0.57871229010E+02  0.57871229230E+02  0.50400000000E-02 0.  1.
    5000001    1    1    2    0    0  0.91138654758E+02  0.86081568211E+02  0.30913500991E+03  0.38843499473E+03  0.19900000000E+03 0.  0.
   -5000001    1    1    2    0    0 -0.91138654758E+02 -0.86081568211E+02  0.74074605563E+03  0.77718852906E+03  0.19900000000E+03 0.  0.
<mgrwt>
<rscale>  0 0.50638715E+03</rscale>
<asrwt>0</asrwt>
<pdfrwt beam="1">  1        1 0.82673193E-02 0.50638715E+03</pdfrwt>
<pdfrwt beam="2">  1       -1 0.15825031E+00 0.50638715E+03</pdfrwt>
<totfact> 0.27004367E+02</totfact>
</mgrwt>
</event>
<event>
 4    1  0.6282309E-006  0.1762319E+04  0.7818608E-02  0.8726599E-01
         -1   -1    0    0    0  501 -0.00000000000E+00  0.00000000000E+00  0.11691977413E+04  0.11691977413E+04  0.50400000000E-02 0. -1.
          1   -1    0    0  501    0  0.00000000000E+00 -0.00000000000E+00 -0.66408089394E+03  0.66408089396E+03  0.50400000000E-02 0.  1.
    5000001    1    1    2    0    0  0.51506400977E+03  0.60642196536E+03  0.58771488136E+03  0.10089838036E+04  0.19900000000E+03 0.  0.
   -5000001    1    1    2    0    0 -0.51506400977E+03 -0.60642196536E+03 -0.82598034004E+02  0.82429483163E+03  0.19900000000E+03 0.  0.
<mgrwt>
<rscale>  0 0.17623188E+04</rscale>
<asrwt>0</asrwt>
<pdfrwt beam="1">  1        1 0.94868699E-01 0.17623188E+04</pdfrwt>
<pdfrwt beam="2">  1       -1 0.16702825E+00 0.17623188E+04</pdfrwt>
<totfact> 0.80918723E+00</totfact>
</mgrwt>
</event>
<event>
 4    1  0.6282309E-006  0.4904964E+03  0.7818608E-02  0.1016290E+00
         -1   -1    0    0    0  501 -0.00000000000E+00  0.00000000000E+00  0.11629764463E+03  0.11629764474E+03  0.50400000000E-02 0. -1.
          1   -1    0    0  501    0  0.00000000000E+00 -0.00000000000E+00 -0.51717883623E+03  0.51717883626E+03  0.50400000000E-02 0.  1.
    5000001    1    1    2    0    0 -0.48764347769E+02  0.98508422488E+02 -0.81623861571E+02  0.24154777104E+03  0.19900000000E+03 0.  0.
   -5000001    1    1    2    0    0  0.48764347769E+02 -0.98508422488E+02 -0.31925733003E+03  0.39192870996E+03  0.19900000000E+03 0.  0.
<mgrwt>
<rscale>  0 0.49049640E+03</rscale>
<asrwt>0</asrwt>
<pdfrwt beam="1">  1        1 0.73882690E-01 0.49049640E+03</pdfrwt>
<pdfrwt beam="2">  1       -1 0.16613950E-01 0.49049640E+03</pdfrwt>
<totfact> 0.13041554E+03</totfact>
</mgrwt>
</event>
<event>
 4    1  0.6282309E-006  0.9146661E+03  0.7818608E-02  0.9407432E-01
          1   -1    0    0  501    0  0.00000000000E+00  0.00000000000E+00  0.18868028189E+03  0.18868028196E+03  0.50400000000E-02 0.  1.
         -1   -1    0    0    0  501 -0.00000000000E+00 -0.00000000000E+00 -0.11085075215E+04  0.11085075215E+04  0.50400000000E-02 0. -1.
    5000001    1    1    2    0    0  0.38394933790E+03  0.10778128493E+01 -0.67090890177E+03  0.79820925215E+03  0.19900000000E+03 0.  0.
   -5000001    1    1    2    0    0 -0.38394933790E+03 -0.10778128493E+01 -0.24891833782E+03  0.49897855130E+03  0.19900000000E+03 0.  0.
<mgrwt>
<rscale>  0 0.91466608E+03</rscale>
<asrwt>0</asrwt>
<pdfrwt beam="1">  1        1 0.26954327E-01 0.91466608E+03</pdfrwt>
<pdfrwt beam="2">  1       -1 0.15835821E+00 0.91466608E+03</pdfrwt>
<totfact> 0.53639452E+01</totfact>
</mgrwt>
</event>
<event>
 4    1  0.6282309E-006  0.8766582E+03  0.7818608E-02  0.9455239E-01
         -1   -1    0    0    0  501 -0.00000000000E+00  0.00000000000E+00  0.52582793098E+03  0.52582793100E+03  0.50400000000E-02 0. -1.
          1   -1    0    0  501    0  0.00000000000E+00 -0.00000000000E+00 -0.36539028341E+03  0.36539028345E+03  0.50400000000E-02 0.  1.
    5000001    1    1    2    0    0  0.32103965275E+03 -0.18519405433E+03 -0.44985584036E+02  0.42306973322E+03  0.19900000000E+03 0.  0.
   -5000001    1    1    2    0    0 -0.32103965275E+03  0.18519405433E+03  0.20542323160E+03  0.46814848123E+03  0.19900000000E+03 0.  0.
<mgrwt>
<rscale>  0 0.87665824E+03</rscale>
<asrwt>0</asrwt>
<pdfrwt beam="1">  1        1 0.52198612E-01 0.87665824E+03</pdfrwt>
<pdfrwt beam="2">  1       -1 0.75118275E-01 0.87665824E+03</pdfrwt>
<totfact> 0.13414666E+02</totfact>
</mgrwt>
</event>
<event>
 4    1  0.6282309E-006  0.4335276E+03  0.7818608E-02  0.1032751E+00
         -1   -1    0    0    0  501 -0.00000000000E+00  0.00000000000E+00  0.61585975458E+03  0.61585975460E+03  0.50400000000E-02 0. -1.
          1   -1    0    0  501    0  0.00000000000E+00 -0.00000000000E+00 -0.76294236528E+02  0.76294236695E+02  0.50400000000E-02 0.  1.
    5000001    1    1    2    0    0 -0.53734301114E+02 -0.40069044609E+02  0.35565120981E+03  0.41301535866E+03  0.19900000000E+03 0.  0.
   -5000001    1    1    2    0    0  0.53734301114E+02  0.40069044609E+02  0.18391430824E+03  0.27913863263E+03  0.19900000000E+03 0.  0.
<mgrwt>
<rscale>  0 0.43352762E+03</rscale>
<asrwt>0</asrwt>
<pdfrwt beam="1">  1        1 0.10899177E-01 0.43352762E+03</pdfrwt>
<pdfrwt beam="2">  1       -1 0.87979964E-01 0.43352762E+03</pdfrwt>
<totfact> 0.76396530E+02</totfact>
</mgrwt>
</event>
<event>
 4    1  0.6282309E-006  0.1972840E+04  0.7818608E-02  0.8619425E-01
         -1   -1    0    0    0  501 -0.00000000000E+00  0.00000000000E+00  0.83961599523E+03  0.83961599524E+03  0.50400000000E-02 0. -1.
          1   -1    0    0  501    0  0.00000000000E+00 -0.00000000000E+00 -0.11588916831E+04  0.11588916831E+04  0.50400000000E-02 0.  1.
    5000001    1    1    2    0    0  0.84113177769E+03  0.46259341713E+03 -0.49003078530E+02  0.98157915560E+03  0.19900000000E+03 0.  0.
   -5000001    1    1    2    0    0 -0.84113177769E+03 -0.46259341713E+03 -0.27027260933E+03  0.10169285227E+04  0.19900000000E+03 0.  0.
<mgrwt>
<rscale>  0 0.19728396E+04</rscale>
<asrwt>0</asrwt>
<pdfrwt beam="1">  1        1 0.16555595E+00 0.19728396E+04</pdfrwt>
<pdfrwt beam="2">  1       -1 0.11994514E+00 0.19728396E+04</pdfrwt>
<totfact> 0.76521241E+00</totfact>
</mgrwt>
</event>
<event>
 4    1  0.6282309E-006  0.5075532E+03  0.7818608E-02  0.1011826E+00
         -1   -1    0    0    0  501 -0.00000000000E+00  0.00000000000E+00  0.32878122877E+03  0.32878122881E+03  0.50400000000E-02 0. -1.
          1   -1    0    0  501    0  0.00000000000E+00 -0.00000000000E+00 -0.19588273149E+03  0.19588273155E+03  0.50400000000E-02 0.  1.
    5000001    1    1    2    0    0  0.14898249474E+03 -0.32983570821E+02  0.26176033770E+02  0.25213068918E+03  0.19900000000E+03 0.  0.
   -5000001    1    1    2    0    0 -0.14898249474E+03  0.32983570821E+02  0.10672246352E+03  0.27253327118E+03  0.19900000000E+03 0.  0.
<mgrwt>
<rscale>  0 0.50755321E+03</rscale>
<asrwt>0</asrwt>
<pdfrwt beam="1">  1        1 0.27983248E-01 0.50755321E+03</pdfrwt>
<pdfrwt beam="2">  1       -1 0.46968746E-01 0.50755321E+03</pdfrwt>
<totfact> 0.76562078E+02</totfact>
</mgrwt>
</event>
<event>
 4    1  0.6282309E-006  0.6093508E+03  0.7818608E-02  0.9886194E-01
          1   -1    0    0  501    0  0.00000000000E+00  0.00000000000E+00  0.43238175799E+03  0.43238175802E+03  0.50400000000E-02 0.  1.
         -1   -1    0    0    0  501 -0.00000000000E+00 -0.00000000000E+00 -0.21468781009E+03  0.21468781015E+03  0.50400000000E-02 0. -1.
    5000001    1    1    2    0    0 -0.18087589941E+03  0.13723334712E+03  0.65360773798E+02  0.30890469938E+03  0.19900000000E+03 0.  0.
   -5000001    1    1    2    0    0  0.18087589941E+03 -0.13723334712E+03  0.15233317410E+03  0.33816486879E+03  0.19900000000E+03 0.  0.
<mgrwt>
<rscale>  0 0.60935078E+03</rscale>
<asrwt>0</asrwt>
<pdfrwt beam="1">  1        1 0.61768822E-01 0.60935078E+03</pdfrwt>
<pdfrwt beam="2">  1       -1 0.30669688E-01 0.60935078E+03</pdfrwt>
<totfact> 0.59080895E+02</totfact>
</mgrwt>
</event>
<event>
 4    1  0.6282309E-006  0.5051172E+03  0.7818608E-02  0.1012452E+00
         -1   -1    0    0    0  501 -0.00000000000E+00  0.00000000000E+00  0.46389306463E+02  0.46389306737E+02  0.50400000000E-02 0. -1.
          1   -1    0    0  501    0  0.00000000000E+00 -0.00000000000E+00 -0.13750116069E+04  0.13750116070E+04  0.50400000000E-02 0.  1.
    5000001    1    1    2    0    0 -0.11593799533E+03 -0.90556594795E+02 -0.80620830606E+03  0.84333560839E+03  0.19900000000E+03 0.  0.
   -5000001    1    1    2    0    0  0.11593799533E+03  0.90556594795E+02 -0.52241399442E+03  0.57806530530E+03  0.19900000000E+03 0.  0.
<mgrwt>
<rscale>  0 0.50511715E+03</rscale>
<asrwt>0</asrwt>
<pdfrwt beam="1">  1        1 0.19643020E+00 0.50511715E+03</pdfrwt>
<pdfrwt beam="2">  1       -1 0.66270447E-02 0.50511715E+03</pdfrwt>
<totfact> 0.11535463E+03</totfact>
</mgrwt>
</event>
<event>
 4    1  0.6282309E-006  0.1006428E+04  0.7818608E-02  0.9301523E-01
          1   -1    0    0  501    0  0.00000000000E+00  0.00000000000E+00  0.16548614184E+03  0.16548614192E+03  0.50400000000E-02 0.  1.
         -1   -1    0    0    0  501 -0.00000000000E+00 -0.00000000000E+00 -0.15301830851E+04  0.15301830851E+04  0.50400000000E-02 0. -1.
    5000001    1    1    2    0    0 -0.92354031851E+02  0.38087886037E+03 -0.26956228708E+03  0.51561885156E+03  0.19900000000E+03 0.  0.
   -5000001    1    1    2    0    0  0.92354031851E+02 -0.38087886037E+03 -0.10951346562E+04  0.11800503754E+04  0.19900000000E+03 0.  0.
<mgrwt>
<rscale>  0 0.10064275E+04</rscale>
<asrwt>0</asrwt>
<pdfrwt beam="1">  1        1 0.23640878E-01 0.10064275E+04</pdfrwt>
<pdfrwt beam="2">  1       -1 0.21859758E+00 0.10064275E+04</pdfrwt>
<totfact> 0.23779193E+01</totfact>
</mgrwt>
</event>
<event>
 4    1  0.6282309E-006  0.5956861E+03  0.7818608E-02  0.9914397E-01
         -1   -1    0    0    0  501 -0.00000000000E+00  0.00000000000E+00  0.42993894277E+03  0.42993894280E+03  0.50400000000E-02 0. -1.
          1   -1    0    0  501    0  0.00000000000E+00 -0.00000000000E+00 -0.20633277441E+03  0.20633277447E+03  0.50400000000E-02 0.  1.
    5000001    1    1    2    0    0  0.19083778686E+03  0.53464593884E+02  0.58910226039E+01  0.28091498330E+03  0.19900000000E+03 0.  0.
   -5000001    1    1    2    0    0 -0.19083778686E+03 -0.53464593884E+02  0.21771514575E+03  0.35535673398E+03  0.19900000000E+03 0.  0.
<mgrwt>
<rscale>  0 0.59568614E+03</rscale>
<asrwt>0</asrwt>
<pdfrwt beam="1">  1        1 0.29476111E-01 0.59568614E+03</pdfrwt>
<pdfrwt beam="2">  1       -1 0.61419849E-01 0.59568614E+03</pdfrwt>
<totfact> 0.42803551E+02</totfact>
</mgrwt>
</event>
<event>
 4    1  0.6282309E-006  0.6339943E+03  0.7818608E-02  0.9837285E-01
          1   -1    0    0  501    0  0.00000000000E+00  0.00000000000E+00  0.97228704733E+03  0.97228704735E+03  0.50400000000E-02 0.  1.
         -1   -1    0    0    0  501 -0.00000000000E+00 -0.00000000000E+00 -0.10335135016E+03  0.10335135029E+03  0.50400000000E-02 0. -1.
    5000001    1    1    2    0    0  0.18232202988E+03 -0.15552899943E+03  0.33473415932E+03  0.45725107945E+03  0.19900000000E+03 0.  0.
   -5000001    1    1    2    0    0 -0.18232202988E+03  0.15552899943E+03  0.53420153785E+03  0.61838731818E+03  0.19900000000E+03 0.  0.
<mgrwt>
<rscale>  0 0.63399426E+03</rscale>
<asrwt>0</asrwt>
<pdfrwt beam="1">  1        1 0.13889816E+00 0.63399426E+03</pdfrwt>
<pdfrwt beam="2">  1       -1 0.14764477E-01 0.63399426E+03</pdfrwt>
<totfact> 0.61768153E+02</totfact>
</mgrwt>
</event>
<event>
 4    1  0.6282309E-006  0.5317017E+03  0.7818608E-02  0.1005820E+00
         -1   -1    0    0    0  501 -0.00000000000E+00  0.00000000000E+00  0.18961490932E+03  0.18961490938E+03  0.50400000000E-02 0. -1.
          1   -1    0    0  501    0  0.00000000000E+00 -0.00000000000E+00 -0.37273796372E+03  0.37273796376E+03  0.50400000000E-02 0.  1.
    5000001    1    1    2    0    0  0.15267809835E+03 -0.88097807209E+02 -0.93636745538E+02  0.28185220500E+03  0.19900000000E+03 0.  0.
   -5000001    1    1    2    0    0 -0.15267809835E+03  0.88097807209E+02 -0.89486308865E+02  0.28050066814E+03  0.19900000000E+03 0.  0.
<mgrwt>
<rscale>  0 0.53170170E+03</rscale>
<asrwt>0</asrwt>
<pdfrwt beam="1">  1        1 0.53248280E-01 0.53170170E+03</pdfrwt>
<pdfrwt beam="2">  1       -1 0.27087844E-01 0.53170170E+03</pdfrwt>
<totfact> 0.88979081E+02</totfact>
</mgrwt>
</event>
<event>
 4    1  0.6282309E-006  0.6846941E+03  0.7818608E-02  0.9743771E-01
          1   -1    0    0  501    0  0.00000000000E+00  0.00000000000E+00  0.94260016692E+03  0.94260016694E+03  0.50400000000E-02 0.  1.
         -1   -1    0    0    0  501 -0.00000000000E+00 -0.00000000000E+00 -0.12433850161E+03  0.12433850172E+03  0.50400000000E-02 0. -1.
    5000001    1    1    2    0    0  0.16140978314E+03  0.91321980884E+02  0.85221610506E+02  0.28505533705E+03  0.19900000000E+03 0.  0.
   -5000001    1    1    2    0    0 -0.16140978314E+03 -0.91321980884E+02  0.73304005480E+03  0.78188333160E+03  0.19900000000E+03 0.  0.
<mgrwt>
<rscale>  0 0.68469407E+03</rscale>
<asrwt>0</asrwt>
<pdfrwt beam="1">  1        1 0.13465716E+00 0.68469407E+03</pdfrwt>
<pdfrwt beam="2">  1       -1 0.17762644E-01 0.68469407E+03</pdfrwt>
<totfact> 0.48008606E+02</totfact>
</mgrwt>
</event>
<event>
 4    1  0.6282309E-006  0.5017032E+03  0.7818608E-02  0.1013335E+00
         -1   -1    0    0    0  501 -0.00000000000E+00  0.00000000000E+00  0.45670538962E+03  0.45670538965E+03  0.50400000000E-02 0.  1.
          1   -1    0    0  501    0  0.00000000000E+00 -0.00000000000E+00 -0.13778364579E+03  0.13778364588E+03  0.50400000000E-02 0. -1.
    5000001    1    1    2    0    0 -0.10635353583E+03 -0.19016132821E+02  0.31548383376E+02  0.22862412031E+03  0.19900000000E+03 0.  0.
   -5000001    1    1    2    0    0  0.10635353583E+03  0.19016132821E+02  0.28737336046E+03  0.36586491522E+03  0.19900000000E+03 0.  0.
<mgrwt>
<rscale>  0 0.50170323E+03</rscale>
<asrwt>0</asrwt>
<pdfrwt beam="1">  1        1 0.19683378E-01 0.50170323E+03</pdfrwt>
<pdfrwt beam="2">  1       -1 0.65243627E-01 0.50170323E+03</pdfrwt>
<totfact> 0.64392171E+02</totfact>
</mgrwt>
</event>
<event>
 4    1  0.6282309E-006  0.5113383E+03  0.7818608E-02  0.1010861E+00
         -1   -1    0    0    0  501 -0.00000000000E+00  0.00000000000E+00  0.57741078826E+02  0.57741079046E+02  0.50400000000E-02 0. -1.
          1   -1    0    0  501    0  0.00000000000E+00 -0.00000000000E+00 -0.11320661639E+04  0.11320661639E+04  0.50400000000E-02 0.  1.
    5000001    1    1    2    0    0  0.88036020639E+01 -0.11026892682E+03 -0.26651703565E+03  0.35052684622E+03  0.19900000000E+03 0.  0.
   -5000001    1    1    2    0    0 -0.88036020639E+01  0.11026892682E+03 -0.80780804944E+03  0.83928039675E+03  0.19900000000E+03 0.  0.
<mgrwt>
<rscale>  0 0.51133833E+03</rscale>
<asrwt>0</asrwt>
<pdfrwt beam="1">  1        1 0.16172372E+00 0.51133833E+03</pdfrwt>
<pdfrwt beam="2">  1       -1 0.82487263E-02 0.51133833E+03</pdfrwt>
<totfact> 0.11969288E+03</totfact>
</mgrwt>
</event>
<event>
 4    1  0.6282309E-006  0.6945915E+03  0.7818608E-02  0.9726526E-01
          1   -1    0    0  501    0  0.00000000000E+00  0.00000000000E+00  0.94219911388E+03  0.94219911390E+03  0.50400000000E-02 0.  1.
         -1   -1    0    0    0  501 -0.00000000000E+00 -0.00000000000E+00 -0.12801364697E+03  0.12801364707E+03  0.50400000000E-02 0. -1.
    5000001    1    1    2    0    0  0.19258348639E+03 -0.15712655926E+03  0.19339487162E+03  0.37253151709E+03  0.19900000000E+03 0.  0.
   -5000001    1    1    2    0    0 -0.19258348639E+03  0.15712655926E+03  0.62079059529E+03  0.69768124388E+03  0.19900000000E+03 0.  0.
<mgrwt>
<rscale>  0 0.69459152E+03</rscale>
<asrwt>0</asrwt>
<pdfrwt beam="1">  1        1 0.13459987E+00 0.69459152E+03</pdfrwt>
<pdfrwt beam="2">  1       -1 0.18287664E-01 0.69459152E+03</pdfrwt>
<totfact> 0.45771729E+02</totfact>
</mgrwt>
</event>
<event>
 4    1  0.6282309E-006  0.4921972E+03  0.7818608E-02  0.1015836E+00
          1   -1    0    0  501    0  0.00000000000E+00  0.00000000000E+00  0.25777473124E+04  0.25777473124E+04  0.50400000000E-02 0.  1.
         -1   -1    0    0    0  501 -0.00000000000E+00 -0.00000000000E+00 -0.23495132950E+02  0.23495133490E+02  0.50400000000E-02 0. -1.
    5000001    1    1    2    0    0 -0.95548273199E+02  0.10877785290E+03  0.12834299027E+04  0.13068111604E+04  0.19900000000E+03 0.  0.
   -5000001    1    1    2    0    0  0.95548273199E+02 -0.10877785290E+03  0.12708222767E+04  0.12944312855E+04  0.19900000000E+03 0.  0.
<mgrwt>
<rscale>  0 0.49219718E+03</rscale>
<asrwt>0</asrwt>
<pdfrwt beam="1">  1        1 0.36824923E+00 0.49219718E+03</pdfrwt>
<pdfrwt beam="2">  1       -1 0.33564512E-02 0.49219718E+03</pdfrwt>
<totfact> 0.58043059E+02</totfact>
</mgrwt>
</event>
<event>
 4    1  0.6282309E-006  0.5746940E+03  0.7818608E-02  0.9959345E-01
          1   -1    0    0  501    0  0.00000000000E+00  0.00000000000E+00  0.19123051935E+04  0.19123051935E+04  0.50400000000E-02 0.  1.
         -1   -1    0    0    0  501 -0.00000000000E+00 -0.00000000000E+00 -0.43177363999E+02  0.43177364293E+02  0.50400000000E-02 0. -1.
    5000001    1    1    2    0    0  0.17120313666E+03 -0.21482956634E+02  0.54369929140E+03  0.60413736095E+03  0.19900000000E+03 0.  0.
   -5000001    1    1    2    0    0 -0.17120313666E+03  0.21482956634E+02  0.13254285381E+04  0.13513451969E+04  0.19900000000E+03 0.  0.
<mgrwt>
<rscale>  0 0.57469400E+03</rscale>
<asrwt>0</asrwt>
<pdfrwt beam="1">  1        1 0.27318647E+00 0.57469400E+03</pdfrwt>
<pdfrwt beam="2">  1       -1 0.61681946E-02 0.57469400E+03</pdfrwt>
<totfact> 0.58856804E+02</totfact>
</mgrwt>
</event>
<event>
 4    1  0.6282309E-006  0.4921359E+03  0.7818608E-02  0.1015852E+00
         -1   -1    0    0    0  501 -0.00000000000E+00  0.00000000000E+00  0.94933821221E+03  0.94933821222E+03  0.50400000000E-02 0.  1.
          1   -1    0    0  501    0  0.00000000000E+00 -0.00000000000E+00 -0.63780680961E+02  0.63780681160E+02  0.50400000000E-02 0. -1.
    5000001    1    1    2    0    0  0.76582654449E+02  0.14814448009E+02  0.19179583429E+03  0.28717766780E+03  0.19900000000E+03 0.  0.
   -5000001    1    1    2    0    0 -0.76582654449E+02 -0.14814448009E+02  0.69376169696E+03  0.72594122558E+03  0.19900000000E+03 0.  0.
<mgrwt>
<rscale>  0 0.49213591E+03</rscale>
<asrwt>0</asrwt>
<pdfrwt beam="1">  1        1 0.91115260E-02 0.49213591E+03</pdfrwt>
<pdfrwt beam="2">  1       -1 0.13561974E+00 0.49213591E+03</pdfrwt>
<totfact> 0.35486358E+02</totfact>
</mgrwt>
</event>
<event>
 4    1  0.6282309E-006  0.5130247E+03  0.7818608E-02  0.1010434E+00
         -1   -1    0    0    0  501 -0.00000000000E+00  0.00000000000E+00  0.78994295252E+02  0.78994295413E+02  0.50400000000E-02 0. -1.
          1   -1    0    0  501    0  0.00000000000E+00 -0.00000000000E+00 -0.83295359742E+03  0.83295359743E+03  0.50400000000E-02 0.  1.
    5000001    1    1    2    0    0  0.53846108823E+02  0.15161518360E+03 -0.34563073461E+03  0.43005601035E+03  0.19900000000E+03 0.  0.
   -5000001    1    1    2    0    0 -0.53846108823E+02 -0.15161518360E+03 -0.40832856756E+03  0.48189188250E+03  0.19900000000E+03 0.  0.
<mgrwt>
<rscale>  0 0.51302469E+03</rscale>
<asrwt>0</asrwt>
<pdfrwt beam="1">  1        1 0.11899337E+00 0.51302469E+03</pdfrwt>
<pdfrwt beam="2">  1       -1 0.11284900E-01 0.51302469E+03</pdfrwt>
<totfact> 0.12233094E+03</totfact>
</mgrwt>
</event>
<event>
 4    1  0.6282309E-006  0.1429163E+04  0.7818608E-02  0.8932975E-01
         -1   -1    0    0    0  501 -0.00000000000E+00  0.00000000000E+00  0.10163201406E+04  0.10163201406E+04  0.50400000000E-02 0.  1.
          1   -1    0    0  501    0  0.00000000000E+00 -0.00000000000E+00 -0.50242708171E+03  0.50242708174E+03  0.50400000000E-02 0. -1.
    5000001    1    1    2    0    0  0.51357020330E+03 -0.45122636185E+03  0.19260216033E+03  0.73760163741E+03  0.19900000000E+03 0.  0.
   -5000001    1    1    2    0    0 -0.51357020330E+03  0.45122636185E+03  0.32129089852E+03  0.78114558490E+03  0.19900000000E+03 0.  0.
<mgrwt>
<rscale>  0 0.14291631E+04</rscale>
<asrwt>0</asrwt>
<pdfrwt beam="1">  1        1 0.71775299E-01 0.14291631E+04</pdfrwt>
<pdfrwt beam="2">  1       -1 0.14518859E+00 0.14291631E+04</pdfrwt>
<totfact> 0.18096565E+01</totfact>
</mgrwt>
</event>
<event>
 4    1  0.6282309E-006  0.6846946E+03  0.7818608E-02  0.9743771E-01
         -1   -1    0    0    0  501 -0.00000000000E+00  0.00000000000E+00  0.11421778143E+03  0.11421778154E+03  0.50400000000E-02 0.  1.
          1   -1    0    0  501    0  0.00000000000E+00 -0.00000000000E+00 -0.10261245010E+04  0.10261245010E+04  0.50400000000E-02 0. -1.
    5000001    1    1    2    0    0 -0.18184980026E+02 -0.26891865697E+03 -0.33874448004E+03  0.47644177013E+03  0.19900000000E+03 0.  0.
   -5000001    1    1    2    0    0  0.18184980026E+02  0.26891865697E+03 -0.57316223948E+03  0.66390051238E+03  0.19900000000E+03 0.  0.
<mgrwt>
<rscale>  0 0.68469457E+03</rscale>
<asrwt>0</asrwt>
<pdfrwt beam="1">  1        1 0.14658921E+00 0.68469457E+03</pdfrwt>
<pdfrwt beam="2">  1       -1 0.16316827E-01 0.68469457E+03</pdfrwt>
<totfact> 0.47783620E+02</totfact>
</mgrwt>
</event>
<event>
 4    1  0.6282309E-006  0.9134505E+03  0.7818608E-02  0.9408922E-01
          1   -1    0    0  501    0  0.00000000000E+00  0.00000000000E+00  0.12781813089E+04  0.12781813089E+04  0.50400000000E-02 0.  1.
         -1   -1    0    0    0  501 -0.00000000000E+00 -0.00000000000E+00 -0.16319903521E+03  0.16319903528E+03  0.50400000000E-02 0. -1.
    5000001    1    1    2    0    0 -0.23868526111E+03  0.17326504811E+03  0.10093628269E+04  0.10702363044E+04  0.19900000000E+03 0.  0.
   -5000001    1    1    2    0    0  0.23868526111E+03 -0.17326504811E+03  0.10561944675E+03  0.37114403983E+03  0.19900000000E+03 0.  0.
<mgrwt>
<rscale>  0 0.91345051E+03</rscale>
<asrwt>0</asrwt>
<pdfrwt beam="1">  1        1 0.18259733E+00 0.91345051E+03</pdfrwt>
<pdfrwt beam="2">  1       -1 0.23314148E-01 0.91345051E+03</pdfrwt>
<totfact> 0.17329763E+02</totfact>
</mgrwt>
</event>
<event>
 4    1  0.6282309E-006  0.6037159E+03  0.7818608E-02  0.9897727E-01
         -1   -1    0    0    0  501 -0.00000000000E+00  0.00000000000E+00  0.17974338950E+03  0.17974338957E+03  0.50400000000E-02 0. -1.
          1   -1    0    0  501    0  0.00000000000E+00 -0.00000000000E+00 -0.50693510010E+03  0.50693510013E+03  0.50400000000E-02 0.  1.
    5000001    1    1    2    0    0 -0.11770746574E+03  0.18921454909E+03 -0.21265070582E+03  0.36671312461E+03  0.19900000000E+03 0.  0.
   -5000001    1    1    2    0    0  0.11770746574E+03 -0.18921454909E+03 -0.11454100478E+03  0.31996536508E+03  0.19900000000E+03 0.  0.
<mgrwt>
<rscale>  0 0.60371594E+03</rscale>
<asrwt>0</asrwt>
<pdfrwt beam="1">  1        1 0.72419299E-01 0.60371594E+03</pdfrwt>
<pdfrwt beam="2">  1       -1 0.25677627E-01 0.60371594E+03</pdfrwt>
<totfact> 0.64894535E+02</totfact>
</mgrwt>
</event>
<event>
 4    1  0.6282309E-006  0.7952334E+03  0.7818608E-02  0.9566942E-01
         -1   -1    0    0    0  501 -0.00000000000E+00  0.00000000000E+00  0.33492318263E+03  0.33492318267E+03  0.50400000000E-02 0. -1.
          1   -1    0    0  501    0  0.00000000000E+00 -0.00000000000E+00 -0.47204568221E+03  0.47204568224E+03  0.50400000000E-02 0.  1.
    5000001    1    1    2    0    0 -0.30444287433E+03 -0.55713319044E+01 -0.23149707371E+03  0.43117096216E+03  0.19900000000E+03 0.  0.
   -5000001    1    1    2    0    0  0.30444287433E+03  0.55713319044E+01  0.94374574134E+02  0.37579790275E+03  0.19900000000E+03 0.  0.
<mgrwt>
<rscale>  0 0.79523341E+03</rscale>
<asrwt>0</asrwt>
<pdfrwt beam="1">  1        1 0.67435097E-01 0.79523341E+03</pdfrwt>
<pdfrwt beam="2">  1       -1 0.47846169E-01 0.79523341E+03</pdfrwt>
<totfact> 0.23397291E+02</totfact>
</mgrwt>
</event>
<event>
 4    1  0.6282309E-006  0.5192548E+03  0.7818608E-02  0.1008872E+00
          1   -1    0    0  501    0  0.00000000000E+00  0.00000000000E+00  0.35565826638E+03  0.35565826641E+03  0.50400000000E-02 0. -1.
         -1   -1    0    0    0  501 -0.00000000000E+00 -0.00000000000E+00 -0.18952572549E+03  0.18952572556E+03  0.50400000000E-02 0.  1.
    5000001    1    1    2    0    0 -0.70471025139E+02 -0.14805242102E+03  0.51225239021E+02  0.26288915890E+03  0.19900000000E+03 0.  0.
   -5000001    1    1    2    0    0  0.70471025139E+02  0.14805242102E+03  0.11490730187E+03  0.28229483307E+03  0.19900000000E+03 0.  0.
<mgrwt>
<rscale>  0 0.51925482E+03</rscale>
<asrwt>0</asrwt>
<pdfrwt beam="1">  1        1 0.50808323E-01 0.51925482E+03</pdfrwt>
<pdfrwt beam="2">  1       -1 0.27075104E-01 0.51925482E+03</pdfrwt>
<totfact> 0.94631005E+02</totfact>
</mgrwt>
</event>
<event>
 4    1  0.6282309E-006  0.6937775E+03  0.7818608E-02  0.9727933E-01
         -1   -1    0    0    0  501 -0.00000000000E+00  0.00000000000E+00  0.40244873668E+03  0.40244873671E+03  0.50400000000E-02 0. -1.
          1   -1    0    0  501    0  0.00000000000E+00 -0.00000000000E+00 -0.29899904494E+03  0.29899904499E+03  0.50400000000E-02 0.  1.
    5000001    1    1    2    0    0  0.19938580866E+03  0.18454821442E+03 -0.32369504312E+02  0.33832163536E+03  0.19900000000E+03 0.  0.
   -5000001    1    1    2    0    0 -0.19938580866E+03 -0.18454821442E+03  0.13581919604E+03  0.36312614634E+03  0.19900000000E+03 0.  0.
<mgrwt>
<rscale>  0 0.69377745E+03</rscale>
<asrwt>0</asrwt>
<pdfrwt beam="1">  1        1 0.42714149E-01 0.69377745E+03</pdfrwt>
<pdfrwt beam="2">  1       -1 0.57492677E-01 0.69377745E+03</pdfrwt>
<totfact> 0.30091285E+02</totfact>
</mgrwt>
</event>
<event>
 4    1  0.6282309E-006  0.5225579E+03  0.7818608E-02  0.1008053E+00
         -1   -1    0    0    0  501 -0.00000000000E+00  0.00000000000E+00  0.14285765840E+04  0.14285765841E+04  0.50400000000E-02 0. -1.
          1   -1    0    0  501    0  0.00000000000E+00 -0.00000000000E+00 -0.47786502397E+02  0.47786502663E+02  0.50400000000E-02 0.  1.
    5000001    1    1    2    0    0 -0.75907247481E+02 -0.14808573562E+03  0.60220415599E+03  0.65569973372E+03  0.19900000000E+03 0.  0.
   -5000001    1    1    2    0    0  0.75907247481E+02  0.14808573562E+03  0.77858592566E+03  0.82066335299E+03  0.19900000000E+03 0.  0.
<mgrwt>
<rscale>  0 0.52255786E+03</rscale>
<asrwt>0</asrwt>
<pdfrwt beam="1">  1        1 0.68266431E-02 0.52255786E+03</pdfrwt>
<pdfrwt beam="2">  1       -1 0.20408237E+00 0.52255786E+03</pdfrwt>
<totfact> 0.16682773E+02</totfact>
</mgrwt>
</event>
<event>
 4    1  0.6282309E-006  0.5948781E+03  0.7818608E-02  0.9916090E-01
         -1   -1    0    0    0  501 -0.00000000000E+00  0.00000000000E+00  0.23960137669E+03  0.23960137675E+03  0.50400000000E-02 0. -1.
          1   -1    0    0  501    0  0.00000000000E+00 -0.00000000000E+00 -0.36923823414E+03  0.36923823418E+03  0.50400000000E-02 0.  1.
    5000001    1    1    2    0    0  0.16486983224E+02 -0.21618035474E+03 -0.10899655772E+03  0.31382641060E+03  0.19900000000E+03 0.  0.
   -5000001    1    1    2    0    0 -0.16486983224E+02  0.21618035474E+03 -0.20640299724E+02  0.29501320032E+03  0.19900000000E+03 0.  0.
<mgrwt>
<rscale>  0 0.59487810E+03</rscale>
<asrwt>0</asrwt>
<pdfrwt beam="1">  1        1 0.52748319E-01 0.59487810E+03</pdfrwt>
<pdfrwt beam="2">  1       -1 0.34228768E-01 0.59487810E+03</pdfrwt>
<totfact> 0.59932514E+02</totfact>
</mgrwt>
</event>
<event>
 4    1  0.6282309E-006  0.8098257E+03  0.7818608E-02  0.9545903E-01
          1   -1    0    0  501    0  0.00000000000E+00  0.00000000000E+00  0.11083192437E+04  0.11083192437E+04  0.50400000000E-02 0.  1.
         -1   -1    0    0    0  501 -0.00000000000E+00 -0.00000000000E+00 -0.14793066005E+03  0.14793066013E+03  0.50400000000E-02 0. -1.
    5000001    1    1    2    0    0  0.29085033479E+03 -0.97607321192E+02  0.21047001314E+03  0.42192384719E+03  0.19900000000E+03 0.  0.
   -5000001    1    1    2    0    0 -0.29085033479E+03  0.97607321192E+02  0.74991857049E+03  0.83432605663E+03  0.19900000000E+03 0.  0.
<mgrwt>
<rscale>  0 0.80982565E+03</rscale>
<asrwt>0</asrwt>
<pdfrwt beam="1">  1        1 0.15833132E+00 0.80982565E+03</pdfrwt>
<pdfrwt beam="2">  1       -1 0.21132951E-01 0.80982565E+03</pdfrwt>
<totfact> 0.26994683E+02</totfact>
</mgrwt>
</event>
<event>
 4    1  0.6282309E-006  0.6536145E+03  0.7818608E-02  0.9800020E-01
          1   -1    0    0  501    0  0.00000000000E+00  0.00000000000E+00  0.71750033362E+03  0.71750033363E+03  0.50400000000E-02 0.  1.
         -1   -1    0    0    0  501 -0.00000000000E+00 -0.00000000000E+00 -0.14885425342E+03  0.14885425351E+03  0.50400000000E-02 0. -1.
    5000001    1    1    2    0    0  0.80178898203E+02 -0.19537696519E+03  0.85054200285E+02  0.30238391365E+03  0.19900000000E+03 0.  0.
   -5000001    1    1    2    0    0 -0.80178898203E+02  0.19537696519E+03  0.48359187991E+03  0.56397067349E+03  0.19900000000E+03 0.  0.
<mgrwt>
<rscale>  0 0.65361449E+03</rscale>
<asrwt>0</asrwt>
<pdfrwt beam="1">  1        1 0.10250005E+00 0.65361449E+03</pdfrwt>
<pdfrwt beam="2">  1       -1 0.21264893E-01 0.65361449E+03</pdfrwt>
<totfact> 0.54615662E+02</totfact>
</mgrwt>
</event>
<event>
 4    1  0.6282309E-006  0.6034830E+03  0.7818608E-02  0.9898206E-01
          1   -1    0    0  501    0  0.00000000000E+00  0.00000000000E+00  0.27512300785E+04  0.27512300785E+04  0.50400000000E-02 0. -1.
         -1   -1    0    0    0  501 -0.00000000000E+00 -0.00000000000E+00 -0.33093539200E+02  0.33093539584E+02  0.50400000000E-02 0.  1.
    5000001    1    1    2    0    0 -0.46871356675E+02  0.17082027293E+03  0.20127001403E+04  0.20302559800E+04  0.19900000000E+03 0.  0.
   -5000001    1    1    2    0    0  0.46871356675E+02 -0.17082027293E+03  0.70543639902E+03  0.75406763807E+03  0.19900000000E+03 0.  0.
<mgrwt>
<rscale>  0 0.60348303E+03</rscale>
<asrwt>0</asrwt>
<pdfrwt beam="1">  1        1 0.39303309E+00 0.60348303E+03</pdfrwt>
<pdfrwt beam="2">  1       -1 0.47276459E-02 0.60348303E+03</pdfrwt>
<totfact> 0.26591267E+02</totfact>
</mgrwt>
</event>
<event>
 4    1  0.6282309E-006  0.6430756E+03  0.7818608E-02  0.9819860E-01
          1   -1    0    0  501    0  0.00000000000E+00  0.00000000000E+00  0.28872881861E+03  0.28872881865E+03  0.50400000000E-02 0. -1.
         -1   -1    0    0    0  501 -0.00000000000E+00 -0.00000000000E+00 -0.35807490116E+03  0.35807490119E+03  0.50400000000E-02 0.  1.
    5000001    1    1    2    0    0  0.23409066808E+03 -0.92521515694E+02 -0.13892394148E+02  0.32117389427E+03  0.19900000000E+03 0.  0.
   -5000001    1    1    2    0    0 -0.23409066808E+03  0.92521515694E+02 -0.55453688398E+02  0.32562982557E+03  0.19900000000E+03 0.  0.
<mgrwt>
<rscale>  0 0.64307556E+03</rscale>
<asrwt>0</asrwt>
<pdfrwt beam="1">  1        1 0.41246974E-01 0.64307556E+03</pdfrwt>
<pdfrwt beam="2">  1       -1 0.51153557E-01 0.64307556E+03</pdfrwt>
<totfact> 0.39467866E+02</totfact>
</mgrwt>
</event>
<event>
 4    1  0.6282309E-006  0.6256241E+03  0.7818608E-02  0.9853625E-01
         -1   -1    0    0    0  501 -0.00000000000E+00  0.00000000000E+00  0.79282482880E+02  0.79282483040E+02  0.50400000000E-02 0. -1.
          1   -1    0    0  501    0  0.00000000000E+00 -0.00000000000E+00 -0.12342118378E+04  0.12342118378E+04  0.50400000000E-02 0.  1.
    5000001    1    1    2    0    0 -0.22656081982E+03 -0.80582987329E+02 -0.62084635434E+03  0.69489180353E+03  0.19900000000E+03 0.  0.
   -5000001    1    1    2    0    0  0.22656081982E+03  0.80582987329E+02 -0.53408300060E+03  0.61860251734E+03  0.19900000000E+03 0.  0.
<mgrwt>
<rscale>  0 0.62562410E+03</rscale>
<asrwt>0</asrwt>
<pdfrwt beam="1">  1        1 0.17631597E+00 0.62562410E+03</pdfrwt>
<pdfrwt beam="2">  1       -1 0.11326070E-01 0.62562410E+03</pdfrwt>
<totfact> 0.61580087E+02</totfact>
</mgrwt>
</event>
<event>
 4    1  0.6282309E-006  0.5454238E+03  0.7818608E-02  0.1002559E+00
         -1   -1    0    0    0  501 -0.00000000000E+00  0.00000000000E+00  0.47489706227E+03  0.47489706230E+03  0.50400000000E-02 0. -1.
          1   -1    0    0  501    0  0.00000000000E+00 -0.00000000000E+00 -0.15660609039E+03  0.15660609047E+03  0.50400000000E-02 0.  1.
    5000001    1    1    2    0    0  0.16258893768E+03  0.24482319330E+02  0.26098258679E+03  0.36707963336E+03  0.19900000000E+03 0.  0.
   -5000001    1    1    2    0    0 -0.16258893768E+03 -0.24482319330E+02  0.57308385089E+02  0.26442351941E+03  0.19900000000E+03 0.  0.
<mgrwt>
<rscale>  0 0.54542377E+03</rscale>
<asrwt>0</asrwt>
<pdfrwt beam="1">  1        1 0.22372299E-01 0.54542377E+03</pdfrwt>
<pdfrwt beam="2">  1       -1 0.67842437E-01 0.54542377E+03</pdfrwt>
<totfact> 0.50299454E+02</totfact>
</mgrwt>
</event>
<event>
 4    1  0.6282309E-006  0.7224287E+03  0.7818608E-02  0.9679627E-01
          1   -1    0    0  501    0  0.00000000000E+00  0.00000000000E+00  0.45670787932E+03  0.45670787934E+03  0.50400000000E-02 0. -1.
         -1   -1    0    0    0  501 -0.00000000000E+00 -0.00000000000E+00 -0.28568768893E+03  0.28568768898E+03  0.50400000000E-02 0.  1.
    5000001    1    1    2    0    0  0.90046923962E+02 -0.28627744669E+03  0.11478595530E+03  0.37794184808E+03  0.19900000000E+03 0.  0.
   -5000001    1    1    2    0    0 -0.90046923962E+02  0.28627744669E+03  0.56234235086E+02  0.36445372024E+03  0.19900000000E+03 0.  0.
<mgrwt>
<rscale>  0 0.72242873E+03</rscale>
<asrwt>0</asrwt>
<pdfrwt beam="1">  1        1 0.65243982E-01 0.72242873E+03</pdfrwt>
<pdfrwt beam="2">  1       -1 0.40812527E-01 0.72242873E+03</pdfrwt>
<totfact> 0.32921808E+02</totfact>
</mgrwt>
</event>
<event>
 4    1  0.6282309E-006  0.5953899E+03  0.7818608E-02  0.9915017E-01
          1   -1    0    0  501    0  0.00000000000E+00  0.00000000000E+00  0.28420965596E+03  0.28420965600E+03  0.50400000000E-02 0.  1.
         -1   -1    0    0    0  501 -0.00000000000E+00 -0.00000000000E+00 -0.31182013574E+03  0.31182013578E+03  0.50400000000E-02 0. -1.
    5000001    1    1    2    0    0 -0.16642357858E+03 -0.14078324687E+03  0.25025148000E+02  0.29621611728E+03  0.19900000000E+03 0.  0.
   -5000001    1    1    2    0    0  0.16642357858E+03  0.14078324687E+03 -0.52635627781E+02  0.29981367450E+03  0.19900000000E+03 0.  0.
<mgrwt>
<rscale>  0 0.59538993E+03</rscale>
<asrwt>0</asrwt>
<pdfrwt beam="1">  1        1 0.40601380E-01 0.59538993E+03</pdfrwt>
<pdfrwt beam="2">  1       -1 0.44545734E-01 0.59538993E+03</pdfrwt>
<totfact> 0.52236629E+02</totfact>
</mgrwt>
</event>
<event>
 4    1  0.6282309E-006  0.6122703E+03  0.7818608E-02  0.9880271E-01
          1   -1    0    0  501    0  0.00000000000E+00  0.00000000000E+00  0.80199898999E+02  0.80199899157E+02  0.50400000000E-02 0.  1.
         -1   -1    0    0    0  501 -0.00000000000E+00 -0.00000000000E+00 -0.11685643662E+04  0.11685643662E+04  0.50400000000E-02 0. -1.
    5000001    1    1    2    0    0  0.22003786419E+03  0.64521735975E+02 -0.62416922840E+03  0.69409505241E+03  0.19900000000E+03 0.  0.
   -5000001    1    1    2    0    0 -0.22003786419E+03 -0.64521735975E+02 -0.46419523883E+03  0.55466921299E+03  0.19900000000E+03 0.  0.
<mgrwt>
<rscale>  0 0.61227035E+03</rscale>
<asrwt>0</asrwt>
<pdfrwt beam="1">  1        1 0.11457129E-01 0.61227035E+03</pdfrwt>
<pdfrwt beam="2">  1       -1 0.16693776E+00 0.61227035E+03</pdfrwt>
<totfact> 0.14787665E+02</totfact>
</mgrwt>
</event>
<event>
 4    1  0.6282309E-006  0.4476379E+03  0.7818608E-02  0.1028429E+00
          1   -1    0    0  501    0  0.00000000000E+00  0.00000000000E+00  0.18496612682E+04  0.18496612682E+04  0.50400000000E-02 0.  1.
         -1   -1    0    0    0  501 -0.00000000000E+00 -0.00000000000E+00 -0.27083290463E+02  0.27083290932E+02  0.50400000000E-02 0. -1.
    5000001    1    1    2    0    0  0.10034459451E+03  0.82345971334E+01  0.83206557184E+03  0.86143540795E+03  0.19900000000E+03 0.  0.
   -5000001    1    1    2    0    0 -0.10034459451E+03 -0.82345971334E+01  0.99051240586E+03  0.10153091511E+04  0.19900000000E+03 0.  0.
<mgrwt>
<rscale>  0 0.44763786E+03</rscale>
<asrwt>0</asrwt>
<pdfrwt beam="1">  1        1 0.26423726E+00 0.44763786E+03</pdfrwt>
<pdfrwt beam="2">  1       -1 0.38690424E-02 0.44763786E+03</pdfrwt>
<totfact> 0.13187651E+03</totfact>
</mgrwt>
</event>
<event>
 4    1  0.6282309E-006  0.6162516E+03  0.7818608E-02  0.9872251E-01
          1   -1    0    0  501    0  0.00000000000E+00  0.00000000000E+00  0.12143003854E+04  0.12143003854E+04  0.50400000000E-02 0.  1.
         -1   -1    0    0    0  501 -0.00000000000E+00 -0.00000000000E+00 -0.78186189158E+02  0.78186189321E+02  0.50400000000E-02 0. -1.
    5000001    1    1    2    0    0 -0.34352562230E+02  0.18360756672E+03  0.26814041604E+03  0.38261223164E+03  0.19900000000E+03 0.  0.
   -5000001    1    1    2    0    0  0.34352562230E+02 -0.18360756672E+03  0.86797378017E+03  0.90987434306E+03  0.19900000000E+03 0.  0.
<mgrwt>
<rscale>  0 0.61625164E+03</rscale>
<asrwt>0</asrwt>
<pdfrwt beam="1">  1        1 0.17347146E+00 0.61625164E+03</pdfrwt>
<pdfrwt beam="2">  1       -1 0.11169457E-01 0.61625164E+03</pdfrwt>
<totfact> 0.64981549E+02</totfact>
</mgrwt>
</event>
<event>
 4    1  0.6282309E-006  0.7084143E+03  0.7818608E-02  0.9702950E-01
         -1   -1    0    0    0  501 -0.00000000000E+00  0.00000000000E+00  0.92933751905E+02  0.92933752042E+02  0.50400000000E-02 0. -1.
          1   -1    0    0  501    0  0.00000000000E+00 -0.00000000000E+00 -0.13500229028E+04  0.13500229028E+04  0.50400000000E-02 0.  1.
    5000001    1    1    2    0    0  0.25396854253E+03 -0.89966707598E+02 -0.86316360136E+03  0.92587603478E+03  0.19900000000E+03 0.  0.
   -5000001    1    1    2    0    0 -0.25396854253E+03  0.89966707598E+02 -0.39392554951E+03  0.51708062005E+03  0.19900000000E+03 0.  0.
<mgrwt>
<rscale>  0 0.70841427E+03</rscale>
<asrwt>0</asrwt>
<pdfrwt beam="1">  1        1 0.19286040E+00 0.70841427E+03</pdfrwt>
<pdfrwt beam="2">  1       -1 0.13276251E-01 0.70841427E+03</pdfrwt>
<totfact> 0.39772871E+02</totfact>
</mgrwt>
</event>
<event>
 4    1  0.6282309E-006  0.5055956E+03  0.7818608E-02  0.1012329E+00
          1   -1    0    0  501    0  0.00000000000E+00  0.00000000000E+00  0.31521497512E+04  0.31521497512E+04  0.50400000000E-02 0. -1.
         -1   -1    0    0    0  501 -0.00000000000E+00 -0.00000000000E+00 -0.20274011953E+02  0.20274012579E+02  0.50400000000E-02 0.  1.
    5000001    1    1    2    0    0  0.11469671581E+03  0.10425167836E+03  0.16713018593E+04  0.16902291720E+04  0.19900000000E+03 0.  0.
   -5000001    1    1    2    0    0 -0.11469671581E+03 -0.10425167836E+03  0.14605738800E+04  0.14821945918E+04  0.19900000000E+03 0.  0.
<mgrwt>
<rscale>  0 0.50559558E+03</rscale>
<asrwt>0</asrwt>
<pdfrwt beam="1">  1        1 0.45030739E+00 0.50559558E+03</pdfrwt>
<pdfrwt beam="2">  1       -1 0.28962857E-02 0.50559558E+03</pdfrwt>
<totfact> 0.31150483E+02</totfact>
</mgrwt>
</event>
<event>
 4    1  0.6282309E-006  0.1141338E+04  0.7818608E-02  0.9165812E-01
         -1   -1    0    0    0  501 -0.00000000000E+00  0.00000000000E+00  0.10567706259E+03  0.10567706271E+03  0.50400000000E-02 0.  1.
          1   -1    0    0  501    0  0.00000000000E+00 -0.00000000000E+00 -0.30816803638E+04  0.30816803638E+04  0.50400000000E-02 0. -1.
    5000001    1    1    2    0    0  0.27133470492E+03  0.38092539733E+03 -0.76333572137E+03  0.91706548509E+03  0.19900000000E+03 0.  0.
   -5000001    1    1    2    0    0 -0.27133470492E+03 -0.38092539733E+03 -0.22126675799E+04  0.22702919414E+04  0.19900000000E+03 0.  0.
<mgrwt>
<rscale>  0 0.11413377E+04</rscale>
<asrwt>0</asrwt>
<pdfrwt beam="1">  1        1 0.44023999E+00 0.11413377E+04</pdfrwt>
<pdfrwt beam="2">  1       -1 0.15096725E-01 0.11413377E+04</pdfrwt>
<totfact> 0.24711641E+01</totfact>
</mgrwt>
</event>
<event>
 4    1  0.6282309E-006  0.6306420E+03  0.7818608E-02  0.9843797E-01
          1   -1    0    0  501    0  0.00000000000E+00  0.00000000000E+00  0.28579620991E+04  0.28579620991E+04  0.50400000000E-02 0.  1.
         -1   -1    0    0    0  501 -0.00000000000E+00 -0.00000000000E+00 -0.34789587970E+02  0.34789588335E+02  0.50400000000E-02 0. -1.
    5000001    1    1    2    0    0 -0.46089497407E+02 -0.69361198858E+02  0.35666604970E+03  0.41682956791E+03  0.19900000000E+03 0.  0.
   -5000001    1    1    2    0    0  0.46089497407E+02  0.69361198858E+02  0.24665064614E+04  0.24759221195E+04  0.19900000000E+03 0.  0.
<mgrwt>
<rscale>  0 0.63064197E+03</rscale>
<asrwt>0</asrwt>
<pdfrwt beam="1">  1        1 0.40828022E+00 0.63064197E+03</pdfrwt>
<pdfrwt beam="2">  1       -1 0.49699421E-02 0.63064197E+03</pdfrwt>
<totfact> 0.21011258E+02</totfact>
</mgrwt>
</event>
<event>
 4    1  0.6282309E-006  0.1260077E+04  0.7818608E-02  0.9061838E-01
         -1   -1    0    0    0  501 -0.00000000000E+00  0.00000000000E+00  0.31243400771E+03  0.31243400775E+03  0.50400000000E-02 0. -1.
          1   -1    0    0  501    0  0.00000000000E+00 -0.00000000000E+00 -0.12705038645E+04  0.12705038645E+04  0.50400000000E-02 0.  1.
    5000001    1    1    2    0    0  0.19939727191E+03  0.51282447984E+03 -0.18549941990E+03  0.61380717979E+03  0.19900000000E+03 0.  0.
   -5000001    1    1    2    0    0 -0.19939727191E+03 -0.51282447984E+03 -0.77257043691E+03  0.96913069250E+03  0.19900000000E+03 0.  0.
<mgrwt>
<rscale>  0 0.12600772E+04</rscale>
<asrwt>0</asrwt>
<pdfrwt beam="1">  1        1 0.18150055E+00 0.12600772E+04</pdfrwt>
<pdfrwt beam="2">  1       -1 0.44633430E-01 0.12600772E+04</pdfrwt>
<totfact> 0.54215398E+01</totfact>
</mgrwt>
</event>
<event>
 4    1  0.6282309E-006  0.4855070E+03  0.7818608E-02  0.1017633E+00
         -1   -1    0    0    0  501 -0.00000000000E+00  0.00000000000E+00  0.76975080055E+02  0.76975080220E+02  0.50400000000E-02 0. -1.
          1   -1    0    0  501    0  0.00000000000E+00 -0.00000000000E+00 -0.76556295154E+03  0.76556295156E+03  0.50400000000E-02 0.  1.
    5000001    1    1    2    0    0 -0.10733296196E+03  0.64774317293E+02 -0.23999510452E+03  0.33602786655E+03  0.19900000000E+03 0.  0.
   -5000001    1    1    2    0    0  0.10733296196E+03 -0.64774317293E+02 -0.44859276697E+03  0.50651016523E+03  0.19900000000E+03 0.  0.
<mgrwt>
<rscale>  0 0.48550703E+03</rscale>
<asrwt>0</asrwt>
<pdfrwt beam="1">  1        1 0.10936613E+00 0.48550703E+03</pdfrwt>
<pdfrwt beam="2">  1       -1 0.10996440E-01 0.48550703E+03</pdfrwt>
<totfact> 0.14499366E+03</totfact>
</mgrwt>
</event>
<event>
 4    1  0.6282309E-006  0.5179115E+03  0.7818608E-02  0.1009207E+00
          1   -1    0    0  501    0  0.00000000000E+00  0.00000000000E+00  0.46126233731E+03  0.46126233734E+03  0.50400000000E-02 0.  1.
         -1   -1    0    0    0  501 -0.00000000000E+00 -0.00000000000E+00 -0.14537947787E+03  0.14537947796E+03  0.50400000000E-02 0. -1.
    5000001    1    1    2    0    0 -0.15882292839E+03  0.46826120368E+02  0.16531887612E+03  0.30716239831E+03  0.19900000000E+03 0.  0.
   -5000001    1    1    2    0    0  0.15882292839E+03 -0.46826120368E+02  0.15056398331E+03  0.29947941699E+03  0.19900000000E+03 0.  0.
<mgrwt>
<rscale>  0 0.51791149E+03</rscale>
<asrwt>0</asrwt>
<pdfrwt beam="1">  1        1 0.65894620E-01 0.51791149E+03</pdfrwt>
<pdfrwt beam="2">  1       -1 0.20768497E-01 0.51791149E+03</pdfrwt>
<totfact> 0.10530779E+03</totfact>
</mgrwt>
</event>
<event>
 4    1  0.6282309E-006  0.5872187E+03  0.7818608E-02  0.9932284E-01
          1   -1    0    0  501    0  0.00000000000E+00  0.00000000000E+00  0.81231715527E+03  0.81231715528E+03  0.50400000000E-02 0.  1.
         -1   -1    0    0    0  501 -0.00000000000E+00 -0.00000000000E+00 -0.10612412361E+03  0.10612412373E+03  0.50400000000E-02 0. -1.
    5000001    1    1    2    0    0  0.14619174479E+03 -0.15852826479E+03  0.36890887526E+03  0.47137882349E+03  0.19900000000E+03 0.  0.
   -5000001    1    1    2    0    0 -0.14619174479E+03  0.15852826479E+03  0.33728415640E+03  0.44706245553E+03  0.19900000000E+03 0.  0.
<mgrwt>
<rscale>  0 0.58721869E+03</rscale>
<asrwt>0</asrwt>
<pdfrwt beam="1">  1        1 0.11604531E+00 0.58721869E+03</pdfrwt>
<pdfrwt beam="2">  1       -1 0.15160589E-01 0.58721869E+03</pdfrwt>
<totfact> 0.79148783E+02</totfact>
</mgrwt>
</event>
<event>
 4    1  0.6282309E-006  0.9398373E+03  0.7818608E-02  0.9377109E-01
         -1   -1    0    0    0  501 -0.00000000000E+00  0.00000000000E+00  0.50512635951E+02  0.50512636202E+02  0.50400000000E-02 0. -1.
          1   -1    0    0  501    0  0.00000000000E+00 -0.00000000000E+00 -0.43716496750E+04  0.43716496750E+04  0.50400000000E-02 0.  1.
    5000001    1    1    2    0    0 -0.16477449813E+03 -0.36251571927E+03 -0.28687702754E+04  0.29031038863E+04  0.19900000000E+03 0.  0.
   -5000001    1    1    2    0    0  0.16477449813E+03  0.36251571927E+03 -0.14523667636E+04  0.15190584248E+04  0.19900000000E+03 0.  0.
<mgrwt>
<rscale>  0 0.93983732E+03</rscale>
<asrwt>0</asrwt>
<pdfrwt beam="1">  1        1 0.62452114E+00 0.93983732E+03</pdfrwt>
<pdfrwt beam="2">  1       -1 0.72160936E-02 0.93983732E+03</pdfrwt>
<totfact> 0.95584396E+00</totfact>
</mgrwt>
</event>
<event>
 4    1  0.6282309E-006  0.4541933E+03  0.7818608E-02  0.1026479E+00
          1   -1    0    0  501    0  0.00000000000E+00  0.00000000000E+00  0.79375323342E+03  0.79375323344E+03  0.50400000000E-02 0.  1.
         -1   -1    0    0    0  501 -0.00000000000E+00 -0.00000000000E+00 -0.64973462958E+02  0.64973463153E+02  0.50400000000E-02 0. -1.
    5000001    1    1    2    0    0 -0.41035903276E+02 -0.94638948684E+02  0.29540216129E+03  0.37081520042E+03  0.19900000000E+03 0.  0.
   -5000001    1    1    2    0    0  0.41035903276E+02  0.94638948684E+02  0.43337760917E+03  0.48791149617E+03  0.19900000000E+03 0.  0.
<mgrwt>
<rscale>  0 0.45419334E+03</rscale>
<asrwt>0</asrwt>
<pdfrwt beam="1">  1        1 0.11339331E+00 0.45419334E+03</pdfrwt>
<pdfrwt beam="2">  1       -1 0.92819238E-02 0.45419334E+03</pdfrwt>
<totfact> 0.17916214E+03</totfact>
</mgrwt>
</event>
<event>
 4    1  0.6282309E-006  0.7111994E+03  0.7818608E-02  0.9698269E-01
          1   -1    0    0  501    0  0.00000000000E+00  0.00000000000E+00  0.20506909149E+04  0.20506909150E+04  0.50400000000E-02 0.  1.
         -1   -1    0    0    0  501 -0.00000000000E+00 -0.00000000000E+00 -0.61662697588E+02  0.61662697794E+02  0.50400000000E-02 0. -1.
    5000001    1    1    2    0    0  0.26195170892E+03  0.49305110511E+02  0.62116950089E+03  0.70462915109E+03  0.19900000000E+03 0.  0.
   -5000001    1    1    2    0    0 -0.26195170892E+03 -0.49305110511E+02  0.13678587165E+04  0.14077244617E+04  0.19900000000E+03 0.  0.
<mgrwt>
<rscale>  0 0.71119936E+03</rscale>
<asrwt>0</asrwt>
<pdfrwt beam="1">  1        1 0.29295582E+00 0.71119936E+03</pdfrwt>
<pdfrwt beam="2">  1       -1 0.88089574E-02 0.71119936E+03</pdfrwt>
<totfact> 0.27481947E+02</totfact>
</mgrwt>
</event>
<event>
 4    1  0.6282309E-006  0.6443220E+03  0.7818608E-02  0.9817492E-01
         -1   -1    0    0    0  501 -0.00000000000E+00  0.00000000000E+00  0.98648057646E+02  0.98648057775E+02  0.50400000000E-02 0. -1.
          1   -1    0    0  501    0  0.00000000000E+00 -0.00000000000E+00 -0.10521008259E+04  0.10521008259E+04  0.50400000000E-02 0.  1.
    5000001    1    1    2    0    0 -0.23117801501E+03 -0.10041565656E+03 -0.52261346952E+03  0.61339417770E+03  0.19900000000E+03 0.  0.
   -5000001    1    1    2    0    0  0.23117801501E+03  0.10041565656E+03 -0.43083929870E+03  0.53735470595E+03  0.19900000000E+03 0.  0.
<mgrwt>
<rscale>  0 0.64432198E+03</rscale>
<asrwt>0</asrwt>
<pdfrwt beam="1">  1        1 0.15030011E+00 0.64432198E+03</pdfrwt>
<pdfrwt beam="2">  1       -1 0.14092580E-01 0.64432198E+03</pdfrwt>
<totfact> 0.58140131E+02</totfact>
</mgrwt>
</event>
<event>
 4    1  0.6282309E-006  0.7910282E+03  0.7818608E-02  0.9573095E-01
          1   -1    0    0  501    0  0.00000000000E+00  0.00000000000E+00  0.65807276999E+03  0.65807277001E+03  0.50400000000E-02 0.  1.
         -1   -1    0    0    0  501 -0.00000000000E+00 -0.00000000000E+00 -0.23771140886E+03  0.23771140891E+03  0.50400000000E-02 0. -1.
    5000001    1    1    2    0    0  0.12480110607E+03 -0.30616689781E+03  0.30836256890E+03  0.49396554464E+03  0.19900000000E+03 0.  0.
   -5000001    1    1    2    0    0 -0.12480110607E+03  0.30616689781E+03  0.11199879223E+03  0.40181863428E+03  0.19900000000E+03 0.  0.
<mgrwt>
<rscale>  0 0.79102821E+03</rscale>
<asrwt>0</asrwt>
<pdfrwt beam="1">  1        1 0.94010396E-01 0.79102821E+03</pdfrwt>
<pdfrwt beam="2">  1       -1 0.33958773E-01 0.79102821E+03</pdfrwt>
<totfact> 0.27563886E+02</totfact>
</mgrwt>
</event>
<event>
 4    1  0.6282309E-006  0.6537086E+03  0.7818608E-02  0.9799845E-01
          1   -1    0    0  501    0  0.00000000000E+00  0.00000000000E+00  0.12858371943E+04  0.12858371943E+04  0.50400000000E-02 0. -1.
         -1   -1    0    0    0  501 -0.00000000000E+00 -0.00000000000E+00 -0.83084967868E+02  0.83084968020E+02  0.50400000000E-02 0.  1.
    5000001    1    1    2    0    0  0.22367543238E+03 -0.56411142181E+02  0.35342512048E+03  0.46660822088E+03  0.19900000000E+03 0.  0.
   -5000001    1    1    2    0    0 -0.22367543238E+03  0.56411142181E+02  0.84932710594E+03  0.90231394143E+03  0.19900000000E+03 0.  0.
<mgrwt>
<rscale>  0 0.65370863E+03</rscale>
<asrwt>0</asrwt>
<pdfrwt beam="1">  1        1 0.18369102E+00 0.65370863E+03</pdfrwt>
<pdfrwt beam="2">  1       -1 0.11869282E-01 0.65370863E+03</pdfrwt>
<totfact> 0.52675663E+02</totfact>
</mgrwt>
</event>
<event>
 4    1  0.6282309E-006  0.1192387E+04  0.7818608E-02  0.9119546E-01
          1   -1    0    0  501    0  0.00000000000E+00  0.00000000000E+00  0.46305142865E+03  0.46305142867E+03  0.50400000000E-02 0.  1.
         -1   -1    0    0    0  501 -0.00000000000E+00 -0.00000000000E+00 -0.76761826399E+03  0.76761826401E+03  0.50400000000E-02 0. -1.
    5000001    1    1    2    0    0 -0.47482187355E+02  0.54880140235E+03 -0.37314993995E+02  0.58688239547E+03  0.19900000000E+03 0.  0.
   -5000001    1    1    2    0    0  0.47482187355E+02 -0.54880140235E+03 -0.26725184135E+03  0.64378729721E+03  0.19900000000E+03 0.  0.
<mgrwt>
<rscale>  0 0.11923871E+04</rscale>
<asrwt>0</asrwt>
<pdfrwt beam="1">  1        1 0.66150204E-01 0.11923871E+04</pdfrwt>
<pdfrwt beam="2">  1       -1 0.10965975E+00 0.11923871E+04</pdfrwt>
<totfact> 0.41521370E+01</totfact>
</mgrwt>
</event>
<event>
 4    1  0.6282309E-006  0.5042857E+03  0.7818608E-02  0.1012666E+00
          1   -1    0    0  501    0  0.00000000000E+00  0.00000000000E+00  0.28900379028E+03  0.28900379032E+03  0.50400000000E-02 0. -1.
         -1   -1    0    0    0  501 -0.00000000000E+00 -0.00000000000E+00 -0.21998329649E+03  0.21998329655E+03  0.50400000000E-02 0.  1.
    5000001    1    1    2    0    0  0.10445990855E+03 -0.11174017732E+03  0.58760620430E+02  0.25778198198E+03  0.19900000000E+03 0.  0.
   -5000001    1    1    2    0    0 -0.10445990855E+03  0.11174017732E+03  0.10259873357E+02  0.25120510489E+03  0.19900000000E+03 0.  0.
<mgrwt>
<rscale>  0 0.50428566E+03</rscale>
<asrwt>0</asrwt>
<pdfrwt beam="1">  1        1 0.41286256E-01 0.50428566E+03</pdfrwt>
<pdfrwt beam="2">  1       -1 0.31426185E-01 0.50428566E+03</pdfrwt>
<totfact> 0.95565770E+02</totfact>
</mgrwt>
</event>
<event>
 4    1  0.6282309E-006  0.4833447E+03  0.7818608E-02  0.1018220E+00
          1   -1    0    0  501    0  0.00000000000E+00  0.00000000000E+00  0.34846412370E+03  0.34846412374E+03  0.50400000000E-02 0.  1.
         -1   -1    0    0    0  501 -0.00000000000E+00 -0.00000000000E+00 -0.16760840851E+03  0.16760840859E+03  0.50400000000E-02 0. -1.
    5000001    1    1    2    0    0  0.10511574541E+03 -0.32699610712E+02  0.31237225807E+01  0.22744085411E+03  0.19900000000E+03 0.  0.
   -5000001    1    1    2    0    0 -0.10511574541E+03  0.32699610712E+02  0.17773199261E+03  0.28863167822E+03  0.19900000000E+03 0.  0.
<mgrwt>
<rscale>  0 0.48334467E+03</rscale>
<asrwt>0</asrwt>
<pdfrwt beam="1">  1        1 0.49780589E-01 0.48334467E+03</pdfrwt>
<pdfrwt beam="2">  1       -1 0.23944059E-01 0.48334467E+03</pdfrwt>
<totfact> 0.11965472E+03</totfact>
</mgrwt>
</event>
<event>
 4    1  0.6282309E-006  0.5314390E+03  0.7818608E-02  0.1005884E+00
         -1   -1    0    0    0  501 -0.00000000000E+00  0.00000000000E+00  0.11840777677E+03  0.11840777687E+03  0.50400000000E-02 0. -1.
          1   -1    0    0  501    0  0.00000000000E+00 -0.00000000000E+00 -0.59630243948E+03  0.59630243951E+03  0.50400000000E-02 0.  1.
    5000001    1    1    2    0    0 -0.17241356170E+03  0.15575681111E+02 -0.19564355459E+03  0.32839981509E+03  0.19900000000E+03 0.  0.
   -5000001    1    1    2    0    0  0.17241356170E+03 -0.15575681111E+02 -0.28225110813E+03  0.38631040129E+03  0.19900000000E+03 0.  0.
<mgrwt>
<rscale>  0 0.53143898E+03</rscale>
<asrwt>0</asrwt>
<pdfrwt beam="1">  1        1 0.85186061E-01 0.53143898E+03</pdfrwt>
<pdfrwt beam="2">  1       -1 0.16915397E-01 0.53143898E+03</pdfrwt>
<totfact> 0.10420026E+03</totfact>
</mgrwt>
</event>
<event>
 4    1  0.6282309E-006  0.6101501E+03  0.7818608E-02  0.9884569E-01
          1   -1    0    0  501    0  0.00000000000E+00  0.00000000000E+00  0.13787604314E+03  0.13787604323E+03  0.50400000000E-02 0. -1.
         -1   -1    0    0    0  501 -0.00000000000E+00 -0.00000000000E+00 -0.67503226275E+03  0.67503226277E+03  0.50400000000E-02 0.  1.
    5000001    1    1    2    0    0  0.40683491603E+02  0.21879983480E+03 -0.35221976432E+03  0.46172316010E+03  0.19900000000E+03 0.  0.
   -5000001    1    1    2    0    0 -0.40683491603E+02 -0.21879983480E+03 -0.18493645530E+03  0.35118514589E+03  0.19900000000E+03 0.  0.
<mgrwt>
<rscale>  0 0.61015007E+03</rscale>
<asrwt>0</asrwt>
<pdfrwt beam="1">  1        1 0.19696578E-01 0.61015007E+03</pdfrwt>
<pdfrwt beam="2">  1       -1 0.96433179E-01 0.61015007E+03</pdfrwt>
<totfact> 0.28146429E+02</totfact>
</mgrwt>
</event>
<event>
 4    1  0.6282309E-006  0.8158138E+03  0.7818608E-02  0.9537405E-01
         -1   -1    0    0    0  501 -0.00000000000E+00  0.00000000000E+00  0.15928017747E+03  0.15928017755E+03  0.50400000000E-02 0. -1.
          1   -1    0    0  501    0  0.00000000000E+00 -0.00000000000E+00 -0.10446247851E+04  0.10446247852E+04  0.50400000000E-02 0.  1.
    5000001    1    1    2    0    0 -0.17247467855E+03 -0.30242831465E+03 -0.33247099695E+03  0.52091109035E+03  0.19900000000E+03 0.  0.
   -5000001    1    1    2    0    0  0.17247467855E+03  0.30242831465E+03 -0.55287361072E+03  0.68299387235E+03  0.19900000000E+03 0.  0.
<mgrwt>
<rscale>  0 0.81581376E+03</rscale>
<asrwt>0</asrwt>
<pdfrwt beam="1">  1        1 0.14923211E+00 0.81581376E+03</pdfrwt>
<pdfrwt beam="2">  1       -1 0.22754312E-01 0.81581376E+03</pdfrwt>
<totfact> 0.26488172E+02</totfact>
</mgrwt>
</event>
<event>
 4    1  0.6282309E-006  0.4500689E+03  0.7818608E-02  0.1027701E+00
         -1   -1    0    0    0  501 -0.00000000000E+00  0.00000000000E+00  0.51375553647E+03  0.51375553650E+03  0.50400000000E-02 0.  1.
          1   -1    0    0  501    0  0.00000000000E+00 -0.00000000000E+00 -0.98569266660E+02  0.98569266789E+02  0.50400000000E-02 0. -1.
    5000001    1    1    2    0    0  0.11469604863E+01  0.80623435753E+02  0.11594205244E+03  0.24401846946E+03  0.19900000000E+03 0.  0.
   -5000001    1    1    2    0    0 -0.11469604863E+01 -0.80623435753E+02  0.29924421737E+03  0.36830633383E+03  0.19900000000E+03 0.  0.
<mgrwt>
<rscale>  0 0.45006891E+03</rscale>
<asrwt>0</asrwt>
<pdfrwt beam="1">  1        1 0.14081324E-01 0.45006891E+03</pdfrwt>
<pdfrwt beam="2">  1       -1 0.73393646E-01 0.45006891E+03</pdfrwt>
<totfact> 0.79181281E+02</totfact>
</mgrwt>
</event>
<event>
 4    1  0.6282309E-006  0.9341283E+03  0.7818608E-02  0.9383897E-01
         -1   -1    0    0    0  501 -0.00000000000E+00  0.00000000000E+00  0.44944989949E+03  0.44944989952E+03  0.50400000000E-02 0.  1.
          1   -1    0    0  501    0  0.00000000000E+00 -0.00000000000E+00 -0.48536872302E+03  0.48536872304E+03  0.50400000000E-02 0. -1.
    5000001    1    1    2    0    0  0.34340561318E+03 -0.13413304095E+03  0.18866068435E+03  0.45947028376E+03  0.19900000000E+03 0.  0.
   -5000001    1    1    2    0    0 -0.34340561318E+03  0.13413304095E+03 -0.22457950788E+03  0.47534833880E+03  0.19900000000E+03 0.  0.
<mgrwt>
<rscale>  0 0.93412831E+03</rscale>
<asrwt>0</asrwt>
<pdfrwt beam="1">  1        1 0.69338389E-01 0.93412831E+03</pdfrwt>
<pdfrwt beam="2">  1       -1 0.64207129E-01 0.93412831E+03</pdfrwt>
<totfact> 0.12648881E+02</totfact>
</mgrwt>
</event>
<event>
 4    1  0.6282309E-006  0.9201706E+03  0.7818608E-02  0.9400713E-01
          1   -1    0    0  501    0  0.00000000000E+00  0.00000000000E+00  0.32094949147E+03  0.32094949151E+03  0.50400000000E-02 0. -1.
         -1   -1    0    0    0  501 -0.00000000000E+00 -0.00000000000E+00 -0.65953826714E+03  0.65953826716E+03  0.50400000000E-02 0.  1.
    5000001    1    1    2    0    0 -0.31322038492E+03  0.26910170396E+03 -0.12727961651E+03  0.47573504956E+03  0.19900000000E+03 0.  0.
   -5000001    1    1    2    0    0  0.31322038492E+03 -0.26910170396E+03 -0.21130915917E+03  0.50475270911E+03  0.19900000000E+03 0.  0.
<mgrwt>
<rscale>  0 0.92017057E+03</rscale>
<asrwt>0</asrwt>
<pdfrwt beam="1">  1        1 0.45849928E-01 0.92017057E+03</pdfrwt>
<pdfrwt beam="2">  1       -1 0.94219751E-01 0.92017057E+03</pdfrwt>
<totfact> 0.97148089E+01</totfact>
</mgrwt>
</event>
<event>
 4    1  0.6282309E-006  0.9160789E+03  0.7818608E-02  0.9405702E-01
          1   -1    0    0  501    0  0.00000000000E+00  0.00000000000E+00  0.27001724152E+03  0.27001724157E+03  0.50400000000E-02 0.  1.
         -1   -1    0    0    0  501 -0.00000000000E+00 -0.00000000000E+00 -0.77698785572E+03  0.77698785574E+03  0.50400000000E-02 0. -1.
    5000001    1    1    2    0    0  0.19073030534E+03 -0.36199391219E+03 -0.31376257662E+03  0.55268942122E+03  0.19900000000E+03 0.  0.
   -5000001    1    1    2    0    0 -0.19073030534E+03  0.36199391219E+03 -0.19320803758E+03  0.49431567609E+03  0.19900000000E+03 0.  0.
<mgrwt>
<rscale>  0 0.91607886E+03</rscale>
<asrwt>0</asrwt>
<pdfrwt beam="1">  1        1 0.38573892E-01 0.91607886E+03</pdfrwt>
<pdfrwt beam="2">  1       -1 0.11099826E+00 0.91607886E+03</pdfrwt>
<totfact> 0.83351526E+01</totfact>
</mgrwt>
</event>
<event>
 4    1  0.6282309E-006  0.1059755E+04  0.7818608E-02  0.9245330E-01
         -1   -1    0    0    0  501 -0.00000000000E+00  0.00000000000E+00  0.40216859762E+03  0.40216859765E+03  0.50400000000E-02 0. -1.
          1   -1    0    0  501    0  0.00000000000E+00 -0.00000000000E+00 -0.69814026257E+03  0.69814026259E+03  0.50400000000E-02 0.  1.
    5000001    1    1    2    0    0 -0.39903979252E+03  0.23836429733E+03  0.16568228286E+02  0.50589109544E+03  0.19900000000E+03 0.  0.
   -5000001    1    1    2    0    0  0.39903979252E+03 -0.23836429733E+03 -0.31253989324E+03  0.59441776481E+03  0.19900000000E+03 0.  0.
<mgrwt>
<rscale>  0 0.10597549E+04</rscale>
<asrwt>0</asrwt>
<pdfrwt beam="1">  1        1 0.99734323E-01 0.10597549E+04</pdfrwt>
<pdfrwt beam="2">  1       -1 0.57452657E-01 0.10597549E+04</pdfrwt>
<totfact> 0.93774476E+01</totfact>
</mgrwt>
</event>
<event>
 4    1  0.6282309E-006  0.6140294E+03  0.7818608E-02  0.9876720E-01
         -1   -1    0    0    0  501 -0.00000000000E+00  0.00000000000E+00  0.44559673525E+03  0.44559673528E+03  0.50400000000E-02 0. -1.
          1   -1    0    0  501    0  0.00000000000E+00 -0.00000000000E+00 -0.21153209710E+03  0.21153209716E+03  0.50400000000E-02 0.  1.
    5000001    1    1    2    0    0  0.22841830128E+03 -0.30555182947E+02  0.15914502183E+03  0.34356466282E+03  0.19900000000E+03 0.  0.
   -5000001    1    1    2    0    0 -0.22841830128E+03  0.30555182947E+02  0.74919616324E+02  0.31356416963E+03  0.19900000000E+03 0.  0.
<mgrwt>
<rscale>  0 0.61402935E+03</rscale>
<asrwt>0</asrwt>
<pdfrwt beam="1">  1        1 0.30218871E-01 0.61402935E+03</pdfrwt>
<pdfrwt beam="2">  1       -1 0.63656676E-01 0.61402935E+03</pdfrwt>
<totfact> 0.38591435E+02</totfact>
</mgrwt>
</event>
<event>
 4    1  0.6282309E-006  0.6720984E+03  0.7818608E-02  0.9766174E-01
         -1   -1    0    0    0  501 -0.00000000000E+00  0.00000000000E+00  0.24558186491E+03  0.24558186496E+03  0.50400000000E-02 0. -1.
          1   -1    0    0  501    0  0.00000000000E+00 -0.00000000000E+00 -0.45984281239E+03  0.45984281242E+03  0.50400000000E-02 0.  1.
    5000001    1    1    2    0    0  0.19589443230E+03  0.91287015437E+02  0.64116422364E+02  0.30069895811E+03  0.19900000000E+03 0.  0.
   -5000001    1    1    2    0    0 -0.19589443230E+03 -0.91287015437E+02 -0.27837736985E+03  0.40472571927E+03  0.19900000000E+03 0.  0.
<mgrwt>
<rscale>  0 0.67209837E+03</rscale>
<asrwt>0</asrwt>
<pdfrwt beam="1">  1        1 0.65691831E-01 0.67209837E+03</pdfrwt>
<pdfrwt beam="2">  1       -1 0.35083123E-01 0.67209837E+03</pdfrwt>
<totfact> 0.42905390E+02</totfact>
</mgrwt>
</event>
<event>
 4    1  0.6282309E-006  0.6045321E+03  0.7818608E-02  0.9896048E-01
         -1   -1    0    0    0  501 -0.00000000000E+00  0.00000000000E+00  0.62225712236E+03  0.62225712238E+03  0.50400000000E-02 0.  1.
          1   -1    0    0  501    0  0.00000000000E+00 -0.00000000000E+00 -0.14682801698E+03  0.14682801707E+03  0.50400000000E-02 0. -1.
    5000001    1    1    2    0    0  0.13603377901E+03  0.15069143595E+03  0.10703872032E+03  0.30376205416E+03  0.19900000000E+03 0.  0.
   -5000001    1    1    2    0    0 -0.13603377901E+03 -0.15069143595E+03  0.36839038506E+03  0.46532308529E+03  0.19900000000E+03 0.  0.
<mgrwt>
<rscale>  0 0.60453215E+03</rscale>
<asrwt>0</asrwt>
<pdfrwt beam="1">  1        1 0.20975431E-01 0.60453215E+03</pdfrwt>
<pdfrwt beam="2">  1       -1 0.88893873E-01 0.60453215E+03</pdfrwt>
<totfact> 0.31020649E+02</totfact>
</mgrwt>
</event>
<event>
 4    1  0.6282309E-006  0.6403418E+03  0.7818608E-02  0.9825073E-01
          1   -1    0    0  501    0  0.00000000000E+00  0.00000000000E+00  0.19992596326E+03  0.19992596333E+03  0.50400000000E-02 0. -1.
         -1   -1    0    0    0  501 -0.00000000000E+00 -0.00000000000E+00 -0.51273676732E+03  0.51273676734E+03  0.50400000000E-02 0.  1.
    5000001    1    1    2    0    0 -0.16814170306E+03 -0.60686721764E+02 -0.35221310897E+03  0.44227772343E+03  0.19900000000E+03 0.  0.
   -5000001    1    1    2    0    0  0.16814170306E+03  0.60686721764E+02  0.39402304921E+02  0.27038500724E+03  0.19900000000E+03 0.  0.
<mgrwt>
<rscale>  0 0.64034176E+03</rscale>
<asrwt>0</asrwt>
<pdfrwt beam="1">  1        1 0.28560852E-01 0.64034176E+03</pdfrwt>
<pdfrwt beam="2">  1       -1 0.73248109E-01 0.64034176E+03</pdfrwt>
<totfact> 0.31212854E+02</totfact>
</mgrwt>
</event>
<event>
 4    1  0.6282309E-006  0.7889912E+03  0.7818608E-02  0.9576090E-01
         -1   -1    0    0    0  501 -0.00000000000E+00  0.00000000000E+00  0.15622454691E+03  0.15622454699E+03  0.50400000000E-02 0. -1.
          1   -1    0    0  501    0  0.00000000000E+00 -0.00000000000E+00 -0.99617369132E+03  0.99617369134E+03  0.50400000000E-02 0.  1.
    5000001    1    1    2    0    0  0.65178567354E+02  0.31031814021E+03 -0.23824794750E+03  0.44374393322E+03  0.19900000000E+03 0.  0.
   -5000001    1    1    2    0    0 -0.65178567354E+02 -0.31031814021E+03 -0.60170119691E+03  0.70865430511E+03  0.19900000000E+03 0.  0.
<mgrwt>
<rscale>  0 0.78899121E+03</rscale>
<asrwt>0</asrwt>
<pdfrwt beam="1">  1        1 0.14231052E+00 0.78899121E+03</pdfrwt>
<pdfrwt beam="2">  1       -1 0.22317793E-01 0.78899121E+03</pdfrwt>
<totfact> 0.29760991E+02</totfact>
</mgrwt>
</event>
<event>
 4    1  0.6282309E-006  0.1211458E+04  0.7818608E-02  0.9102886E-01
         -1   -1    0    0    0  501 -0.00000000000E+00  0.00000000000E+00  0.30371691440E+03  0.30371691444E+03  0.50400000000E-02 0.  1.
          1   -1    0    0  501    0  0.00000000000E+00 -0.00000000000E+00 -0.12080577461E+04  0.12080577461E+04  0.50400000000E-02 0. -1.
    5000001    1    1    2    0    0 -0.55405689187E+03  0.87577725866E+02 -0.59256672012E+03  0.83987214223E+03  0.19900000000E+03 0.  0.
   -5000001    1    1    2    0    0  0.55405689187E+03 -0.87577725866E+02 -0.31177411162E+03  0.67190251835E+03  0.19900000000E+03 0.  0.
<mgrwt>
<rscale>  0 0.12114579E+04</rscale>
<asrwt>0</asrwt>
<pdfrwt beam="1">  1        1 0.17257968E+00 0.12114579E+04</pdfrwt>
<pdfrwt beam="2">  1       -1 0.43388131E-01 0.12114579E+04</pdfrwt>
<totfact> 0.63310288E+01</totfact>
</mgrwt>
</event>
<event>
 4    1  0.6282309E-006  0.1070474E+04  0.7818608E-02  0.9234457E-01
         -1   -1    0    0    0  501 -0.00000000000E+00  0.00000000000E+00  0.21248689387E+03  0.21248689393E+03  0.50400000000E-02 0.  1.
          1   -1    0    0  501    0  0.00000000000E+00 -0.00000000000E+00 -0.13482191860E+04  0.13482191861E+04  0.50400000000E-02 0. -1.
    5000001    1    1    2    0    0  0.14030910294E+03 -0.47609145572E+03 -0.60137343600E+03  0.80473643394E+03  0.19900000000E+03 0.  0.
   -5000001    1    1    2    0    0 -0.14030910294E+03  0.47609145572E+03 -0.53435885617E+03  0.75596964605E+03  0.19900000000E+03 0.  0.
<mgrwt>
<rscale>  0 0.10704745E+04</rscale>
<asrwt>0</asrwt>
<pdfrwt beam="1">  1        1 0.19260274E+00 0.10704745E+04</pdfrwt>
<pdfrwt beam="2">  1       -1 0.30355271E-01 0.10704745E+04</pdfrwt>
<totfact> 0.97624533E+01</totfact>
</mgrwt>
</event>
<event>
 4    1  0.6282309E-006  0.8988577E+03  0.7818608E-02  0.9427010E-01
         -1   -1    0    0    0  501 -0.00000000000E+00  0.00000000000E+00  0.29270985296E+03  0.29270985300E+03  0.50400000000E-02 0. -1.
          1   -1    0    0  501    0  0.00000000000E+00 -0.00000000000E+00 -0.69005638029E+03  0.69005638031E+03  0.50400000000E-02 0.  1.
    5000001    1    1    2    0    0 -0.22833338677E+03 -0.26626544046E+03 -0.41556450877E+03  0.57907536750E+03  0.19900000000E+03 0.  0.
   -5000001    1    1    2    0    0  0.22833338677E+03  0.26626544046E+03  0.18217981434E+02  0.40369086582E+03  0.19900000000E+03 0.  0.
<mgrwt>
<rscale>  0 0.89885772E+03</rscale>
<asrwt>0</asrwt>
<pdfrwt beam="1">  1        1 0.98579482E-01 0.89885772E+03</pdfrwt>
<pdfrwt beam="2">  1       -1 0.41815694E-01 0.89885772E+03</pdfrwt>
<totfact> 0.17574190E+02</totfact>
</mgrwt>
</event>
<event>
 4    1  0.6282309E-006  0.5393677E+03  0.7818608E-02  0.1003985E+00
         -1   -1    0    0    0  501 -0.00000000000E+00  0.00000000000E+00  0.16705861688E+03  0.16705861695E+03  0.50400000000E-02 0. -1.
          1   -1    0    0  501    0  0.00000000000E+00 -0.00000000000E+00 -0.43535248540E+03  0.43535248543E+03  0.50400000000E-02 0.  1.
    5000001    1    1    2    0    0  0.10297552057E+03  0.13298353211E+03 -0.56446756287E+02  0.26660047627E+03  0.19900000000E+03 0.  0.
   -5000001    1    1    2    0    0 -0.10297552057E+03 -0.13298353211E+03 -0.21184711223E+03  0.33581062611E+03  0.19900000000E+03 0.  0.
<mgrwt>
<rscale>  0 0.53936772E+03</rscale>
<asrwt>0</asrwt>
<pdfrwt beam="1">  1        1 0.62193212E-01 0.53936772E+03</pdfrwt>
<pdfrwt beam="2">  1       -1 0.23865517E-01 0.53936772E+03</pdfrwt>
<totfact> 0.90067091E+02</totfact>
</mgrwt>
</event>
<event>
 4    1  0.6282309E-006  0.7435836E+03  0.7818608E-02  0.9645471E-01
         -1   -1    0    0    0  501 -0.00000000000E+00  0.00000000000E+00  0.90308506008E+02  0.90308506149E+02  0.50400000000E-02 0. -1.
          1   -1    0    0  501    0  0.00000000000E+00 -0.00000000000E+00 -0.15306327121E+04  0.15306327122E+04  0.50400000000E-02 0.  1.
    5000001    1    1    2    0    0 -0.17651128782E+03  0.25409156998E+03 -0.83774350553E+03  0.91495024002E+03  0.19900000000E+03 0.  0.
   -5000001    1    1    2    0    0  0.17651128782E+03 -0.25409156998E+03 -0.60258070061E+03  0.70599097828E+03  0.19900000000E+03 0.  0.
<mgrwt>
<rscale>  0 0.74358363E+03</rscale>
<asrwt>0</asrwt>
<pdfrwt beam="1">  1        1 0.21866180E+00 0.74358363E+03</pdfrwt>
<pdfrwt beam="2">  1       -1 0.12901216E-01 0.74358363E+03</pdfrwt>
<totfact> 0.31699752E+02</totfact>
</mgrwt>
</event>
<event>
 4    1  0.6282309E-006  0.5375056E+03  0.7818608E-02  0.1004428E+00
         -1   -1    0    0    0  501 -0.00000000000E+00  0.00000000000E+00  0.20046085379E+03  0.20046085385E+03  0.50400000000E-02 0. -1.
          1   -1    0    0  501    0  0.00000000000E+00 -0.00000000000E+00 -0.36031010062E+03  0.36031010066E+03  0.50400000000E-02 0.  1.
    5000001    1    1    2    0    0  0.28367880106E+01 -0.85260605488E+02 -0.24603184408E+03  0.32773478075E+03  0.19900000000E+03 0.  0.
   -5000001    1    1    2    0    0 -0.28367880106E+01  0.85260605488E+02  0.86182597243E+02  0.23303617376E+03  0.19900000000E+03 0.  0.
<mgrwt>
<rscale>  0 0.53750561E+03</rscale>
<asrwt>0</asrwt>
<pdfrwt beam="1">  1        1 0.51472871E-01 0.53750561E+03</pdfrwt>
<pdfrwt beam="2">  1       -1 0.28637265E-01 0.53750561E+03</pdfrwt>
<totfact> 0.84507354E+02</totfact>
</mgrwt>
</event>
<event>
 4    1  0.6282309E-006  0.9540458E+03  0.7818608E-02  0.9360434E-01
          1   -1    0    0  501    0  0.00000000000E+00  0.00000000000E+00  0.57089123610E+03  0.57089123612E+03  0.50400000000E-02 0.  1.
         -1   -1    0    0    0  501 -0.00000000000E+00 -0.00000000000E+00 -0.39858876371E+03  0.39858876375E+03  0.50400000000E-02 0. -1.
    5000001    1    1    2    0    0  0.18776536606E+03 -0.57191808742E+02  0.47895759570E+03  0.55455217442E+03  0.19900000000E+03 0.  0.
   -5000001    1    1    2    0    0 -0.18776536606E+03  0.57191808742E+02 -0.30665512331E+03  0.41492782545E+03  0.19900000000E+03 0.  0.
<mgrwt>
<rscale>  0 0.95404577E+03</rscale>
<asrwt>0</asrwt>
<pdfrwt beam="1">  1        1 0.81555890E-01 0.95404577E+03</pdfrwt>
<pdfrwt beam="2">  1       -1 0.56941253E-01 0.95404577E+03</pdfrwt>
<totfact> 0.12822879E+02</totfact>
</mgrwt>
</event>
<event>
 4    1  0.6282309E-006  0.6442948E+03  0.7818608E-02  0.9817544E-01
         -1   -1    0    0    0  501 -0.00000000000E+00  0.00000000000E+00  0.47151245432E+03  0.47151245434E+03  0.50400000000E-02 0.  1.
          1   -1    0    0  501    0  0.00000000000E+00 -0.00000000000E+00 -0.22009801922E+03  0.22009801927E+03  0.50400000000E-02 0. -1.
    5000001    1    1    2    0    0  0.21242520634E+03  0.37588619560E+01 -0.22409161523E+02  0.29196192877E+03  0.19900000000E+03 0.  0.
   -5000001    1    1    2    0    0 -0.21242520634E+03 -0.37588619560E+01  0.27382359663E+03  0.39964854485E+03  0.19900000000E+03 0.  0.
<mgrwt>
<rscale>  0 0.64429483E+03</rscale>
<asrwt>0</asrwt>
<pdfrwt beam="1">  1        1 0.31442574E-01 0.64429483E+03</pdfrwt>
<pdfrwt beam="2">  1       -1 0.67358923E-01 0.64429483E+03</pdfrwt>
<totfact> 0.32700006E+02</totfact>
</mgrwt>
</event>
<event>
 4    1  0.6282309E-006  0.6075027E+03  0.7818608E-02  0.9889961E-01
         -1   -1    0    0    0  501 -0.00000000000E+00  0.00000000000E+00  0.17801606558E+03  0.17801606566E+03  0.50400000000E-02 0.  1.
          1   -1    0    0  501    0  0.00000000000E+00 -0.00000000000E+00 -0.51829527041E+03  0.51829527044E+03  0.50400000000E-02 0. -1.
    5000001    1    1    2    0    0 -0.17765460621E+03 -0.14461152919E+03 -0.15433089533E+03  0.34043013782E+03  0.19900000000E+03 0.  0.
   -5000001    1    1    2    0    0  0.17765460621E+03  0.14461152919E+03 -0.18594830950E+03  0.35588119828E+03  0.19900000000E+03 0.  0.
<mgrwt>
<rscale>  0 0.60750271E+03</rscale>
<asrwt>0</asrwt>
<pdfrwt beam="1">  1        1 0.74042181E-01 0.60750271E+03</pdfrwt>
<pdfrwt beam="2">  1       -1 0.25430867E-01 0.60750271E+03</pdfrwt>
<totfact> 0.64014831E+02</totfact>
</mgrwt>
</event>
<event>
 4    1  0.6282309E-006  0.5508765E+03  0.7818608E-02  0.1001291E+00
          1   -1    0    0  501    0  0.00000000000E+00  0.00000000000E+00  0.24945438400E+03  0.24945438405E+03  0.50400000000E-02 0.  1.
         -1   -1    0    0    0  501 -0.00000000000E+00 -0.00000000000E+00 -0.30412868051E+03  0.30412868055E+03  0.50400000000E-02 0. -1.
    5000001    1    1    2    0    0  0.12113104070E+03 -0.14564288085E+03 -0.46943385829E+02  0.27872793050E+03  0.19900000000E+03 0.  0.
   -5000001    1    1    2    0    0 -0.12113104070E+03  0.14564288085E+03 -0.77309106837E+01  0.27485513411E+03  0.19900000000E+03 0.  0.
<mgrwt>
<rscale>  0 0.55087651E+03</rscale>
<asrwt>0</asrwt>
<pdfrwt beam="1">  1        1 0.35636341E-01 0.55087651E+03</pdfrwt>
<pdfrwt beam="2">  1       -1 0.43446954E-01 0.55087651E+03</pdfrwt>
<totfact> 0.64730468E+02</totfact>
</mgrwt>
</event>
<event>
 4    1  0.6282309E-006  0.9139844E+03  0.7818608E-02  0.9408267E-01
          1   -1    0    0  501    0  0.00000000000E+00  0.00000000000E+00  0.21710021235E+03  0.21710021240E+03  0.50400000000E-02 0. -1.
         -1   -1    0    0    0  501 -0.00000000000E+00 -0.00000000000E+00 -0.96196073945E+03  0.96196073946E+03  0.50400000000E-02 0.  1.
    5000001    1    1    2    0    0  0.23722716352E+03 -0.32649976074E+03 -0.47532575418E+03  0.65453372217E+03  0.19900000000E+03 0.  0.
   -5000001    1    1    2    0    0 -0.23722716352E+03  0.32649976074E+03 -0.26953477292E+03  0.52452722969E+03  0.19900000000E+03 0.  0.
<mgrwt>
<rscale>  0 0.91398442E+03</rscale>
<asrwt>0</asrwt>
<pdfrwt beam="1">  1        1 0.31014316E-01 0.91398442E+03</pdfrwt>
<pdfrwt beam="2">  1       -1 0.13742296E+00 0.91398442E+03</pdfrwt>
<totfact> 0.65264194E+01</totfact>
</mgrwt>
</event>
<event>
 4    1  0.6282309E-006  0.6936476E+03  0.7818608E-02  0.9728158E-01
          1   -1    0    0  501    0  0.00000000000E+00  0.00000000000E+00  0.82728487350E+03  0.82728487352E+03  0.50400000000E-02 0. -1.
         -1   -1    0    0    0  501 -0.00000000000E+00 -0.00000000000E+00 -0.14539944499E+03  0.14539944508E+03  0.50400000000E-02 0.  1.
    5000001    1    1    2    0    0 -0.28060965338E+03  0.42550191702E+02  0.35714278428E+03  0.49769897001E+03  0.19900000000E+03 0.  0.
   -5000001    1    1    2    0    0  0.28060965338E+03 -0.42550191702E+02  0.32474264423E+03  0.47498534858E+03  0.19900000000E+03 0.  0.
<mgrwt>
<rscale>  0 0.69364764E+03</rscale>
<asrwt>0</asrwt>
<pdfrwt beam="1">  1        1 0.11818355E+00 0.69364764E+03</pdfrwt>
<pdfrwt beam="2">  1       -1 0.20771350E-01 0.69364764E+03</pdfrwt>
<totfact> 0.45681694E+02</totfact>
</mgrwt>
</event>
<event>
 4    1  0.6282309E-006  0.5008656E+03  0.7818608E-02  0.1013553E+00
          1   -1    0    0  501    0  0.00000000000E+00  0.00000000000E+00  0.15979782675E+04  0.15979782675E+04  0.50400000000E-02 0.  1.
         -1   -1    0    0    0  501 -0.00000000000E+00 -0.00000000000E+00 -0.39247455453E+02  0.39247455777E+02  0.50400000000E-02 0. -1.
    5000001    1    1    2    0    0  0.31341059198E+02 -0.14634945810E+03  0.86678072480E+03  0.90183715313E+03  0.19900000000E+03 0.  0.
   -5000001    1    1    2    0    0 -0.31341059198E+02  0.14634945810E+03  0.69195008727E+03  0.73538857018E+03  0.19900000000E+03 0.  0.
<mgrwt>
<rscale>  0 0.50086558E+03</rscale>
<asrwt>0</asrwt>
<pdfrwt beam="1">  1        1 0.22828259E+00 0.50086558E+03</pdfrwt>
<pdfrwt beam="2">  1       -1 0.56067799E-02 0.50086558E+03</pdfrwt>
<totfact> 0.10738357E+03</totfact>
</mgrwt>
</event>
<event>
 4    1  0.6282309E-006  0.5104596E+03  0.7818608E-02  0.1011084E+00
         -1   -1    0    0    0  501 -0.00000000000E+00  0.00000000000E+00  0.81248462372E+02  0.81248462528E+02  0.50400000000E-02 0. -1.
          1   -1    0    0  501    0  0.00000000000E+00 -0.00000000000E+00 -0.80176597308E+03  0.80176597310E+03  0.50400000000E-02 0.  1.
    5000001    1    1    2    0    0  0.15572569837E+03 -0.50684178895E+01 -0.42178548052E+03  0.49171147390E+03  0.19900000000E+03 0.  0.
   -5000001    1    1    2    0    0 -0.15572569837E+03  0.50684178895E+01 -0.29873203019E+03  0.39130296172E+03  0.19900000000E+03 0.  0.
<mgrwt>
<rscale>  0 0.51045961E+03</rscale>
<asrwt>0</asrwt>
<pdfrwt beam="1">  1        1 0.11453799E+00 0.51045961E+03</pdfrwt>
<pdfrwt beam="2">  1       -1 0.11606924E-01 0.51045961E+03</pdfrwt>
<totfact> 0.12408830E+03</totfact>
</mgrwt>
</event>
<event>
 4    1  0.6282309E-006  0.4889767E+03  0.7818608E-02  0.1016697E+00
          1   -1    0    0  501    0  0.00000000000E+00  0.00000000000E+00  0.15088922753E+03  0.15088922761E+03  0.50400000000E-02 0.  1.
         -1   -1    0    0    0  501 -0.00000000000E+00 -0.00000000000E+00 -0.39614859467E+03  0.39614859470E+03  0.50400000000E-02 0. -1.
    5000001    1    1    2    0    0  0.36987482506E+02 -0.10356515389E+03 -0.22319029096E+03  0.31860433290E+03  0.19900000000E+03 0.  0.
   -5000001    1    1    2    0    0 -0.36987482506E+02  0.10356515389E+03 -0.22069076184E+02  0.22843348942E+03  0.19900000000E+03 0.  0.
<mgrwt>
<rscale>  0 0.48897671E+03</rscale>
<asrwt>0</asrwt>
<pdfrwt beam="1">  1        1 0.21555604E-01 0.48897671E+03</pdfrwt>
<pdfrwt beam="2">  1       -1 0.56592656E-01 0.48897671E+03</pdfrwt>
<totfact> 0.75552873E+02</totfact>
</mgrwt>
</event>
<event>
 4    1  0.6282309E-006  0.1397448E+04  0.7818608E-02  0.8955668E-01
          1   -1    0    0  501    0  0.00000000000E+00  0.00000000000E+00  0.35764679576E+03  0.35764679580E+03  0.50400000000E-02 0.  1.
         -1   -1    0    0    0  501 -0.00000000000E+00 -0.00000000000E+00 -0.13650773849E+04  0.13650773849E+04  0.50400000000E-02 0. -1.
    5000001    1    1    2    0    0 -0.58205578244E+03 -0.27580612717E+03 -0.27721994388E+03  0.72891004310E+03  0.19900000000E+03 0.  0.
   -5000001    1    1    2    0    0  0.58205578244E+03  0.27580612717E+03 -0.73021064530E+03  0.99381413764E+03  0.19900000000E+03 0.  0.
<mgrwt>
<rscale>  0 0.13974485E+04</rscale>
<asrwt>0</asrwt>
<pdfrwt beam="1">  1        1 0.51092400E-01 0.13974485E+04</pdfrwt>
<pdfrwt beam="2">  1       -1 0.19501105E+00 0.13974485E+04</pdfrwt>
<totfact> 0.12215857E+01</totfact>
</mgrwt>
</event>
<event>
 4    1  0.6282309E-006  0.4446320E+03  0.7818608E-02  0.1029335E+00
         -1   -1    0    0    0  501 -0.00000000000E+00  0.00000000000E+00  0.48098407823E+03  0.48098407826E+03  0.50400000000E-02 0.  1.
          1   -1    0    0  501    0  0.00000000000E+00 -0.00000000000E+00 -0.10275683738E+03  0.10275683751E+03  0.50400000000E-02 0. -1.
    5000001    1    1    2    0    0 -0.44977140264E+02 -0.87556328365E+02  0.17389635567E+03  0.28201063154E+03  0.19900000000E+03 0.  0.
   -5000001    1    1    2    0    0  0.44977140264E+02  0.87556328365E+02  0.20433088517E+03  0.30173028422E+03  0.19900000000E+03 0.  0.
<mgrwt>
<rscale>  0 0.44463200E+03</rscale>
<asrwt>0</asrwt>
<pdfrwt beam="1">  1        1 0.14679548E-01 0.44463200E+03</pdfrwt>
<pdfrwt beam="2">  1       -1 0.68712013E-01 0.44463200E+03</pdfrwt>
<totfact> 0.85633437E+02</totfact>
</mgrwt>
</event>
<event>
 4    1  0.6282309E-006  0.5498350E+03  0.7818608E-02  0.1001532E+00
         -1   -1    0    0    0  501 -0.00000000000E+00  0.00000000000E+00  0.99967924028E+02  0.99967924155E+02  0.50400000000E-02 0. -1.
          1   -1    0    0  501    0  0.00000000000E+00 -0.00000000000E+00 -0.75603871126E+03  0.75603871127E+03  0.50400000000E-02 0.  1.
    5000001    1    1    2    0    0 -0.12069776213E+03  0.13842427257E+03 -0.25419783882E+03  0.37141186072E+03  0.19900000000E+03 0.  0.
   -5000001    1    1    2    0    0  0.12069776213E+03 -0.13842427257E+03 -0.40187294841E+03  0.48459477471E+03  0.19900000000E+03 0.  0.
<mgrwt>
<rscale>  0 0.54983496E+03</rscale>
<asrwt>0</asrwt>
<pdfrwt beam="1">  1        1 0.10800553E+00 0.54983496E+03</pdfrwt>
<pdfrwt beam="2">  1       -1 0.14281132E-01 0.54983496E+03</pdfrwt>
<totfact> 0.97313920E+02</totfact>
</mgrwt>
</event>
<event>
 4    1  0.6282309E-006  0.5627223E+03  0.7818608E-02  0.9985914E-01
          1   -1    0    0  501    0  0.00000000000E+00  0.00000000000E+00  0.31510564672E+03  0.31510564676E+03  0.50400000000E-02 0.  1.
         -1   -1    0    0    0  501 -0.00000000000E+00 -0.00000000000E+00 -0.25123037169E+03  0.25123037174E+03  0.50400000000E-02 0. -1.
    5000001    1    1    2    0    0  0.13734647451E+03 -0.13264893121E+03  0.88002790012E+02  0.28949142312E+03  0.19900000000E+03 0.  0.
   -5000001    1    1    2    0    0 -0.13734647451E+03  0.13264893121E+03 -0.24127514977E+02  0.27684459538E+03  0.19900000000E+03 0.  0.
<mgrwt>
<rscale>  0 0.56272234E+03</rscale>
<asrwt>0</asrwt>
<pdfrwt beam="1">  1        1 0.45015092E-01 0.56272234E+03</pdfrwt>
<pdfrwt beam="2">  1       -1 0.35890053E-01 0.56272234E+03</pdfrwt>
<totfact> 0.67674688E+02</totfact>
</mgrwt>
</event>
<event>
 4    1  0.6282309E-006  0.9533376E+03  0.7818608E-02  0.9361258E-01
          1   -1    0    0  501    0  0.00000000000E+00  0.00000000000E+00  0.10415939720E+04  0.10415939720E+04  0.50400000000E-02 0.  1.
         -1   -1    0    0    0  501 -0.00000000000E+00 -0.00000000000E+00 -0.21813986218E+03  0.21813986224E+03  0.50400000000E-02 0. -1.
    5000001    1    1    2    0    0 -0.25211335801E+03  0.22981736990E+03  0.76440536937E+03  0.86040324123E+03  0.19900000000E+03 0.  0.
   -5000001    1    1    2    0    0  0.25211335801E+03 -0.22981736990E+03  0.59048740468E+02  0.39933059305E+03  0.19900000000E+03 0.  0.
<mgrwt>
<rscale>  0 0.95333764E+03</rscale>
<asrwt>0</asrwt>
<pdfrwt beam="1">  1        1 0.14879914E+00 0.95333764E+03</pdfrwt>
<pdfrwt beam="2">  1       -1 0.31162837E-01 0.95333764E+03</pdfrwt>
<totfact> 0.15370533E+02</totfact>
</mgrwt>
</event>
<event>
 4    1  0.6282309E-006  0.7193470E+03  0.7818608E-02  0.9684707E-01
         -1   -1    0    0    0  501 -0.00000000000E+00  0.00000000000E+00  0.72791341984E+03  0.72791341986E+03  0.50400000000E-02 0.  1.
          1   -1    0    0  501    0  0.00000000000E+00 -0.00000000000E+00 -0.17772032630E+03  0.17772032637E+03  0.50400000000E-02 0. -1.
    5000001    1    1    2    0    0  0.19664406617E+03  0.87071917579E+02  0.12477204350E+02  0.29326965104E+03  0.19900000000E+03 0.  0.
   -5000001    1    1    2    0    0 -0.19664406617E+03 -0.87071917579E+02  0.53771588919E+03  0.61236409519E+03  0.19900000000E+03 0.  0.
<mgrwt>
<rscale>  0 0.71934696E+03</rscale>
<asrwt>0</asrwt>
<pdfrwt beam="1">  1        1 0.25388618E-01 0.71934696E+03</pdfrwt>
<pdfrwt beam="2">  1       -1 0.10398763E+00 0.71934696E+03</pdfrwt>
<totfact> 0.16903651E+02</totfact>
</mgrwt>
</event>
<event>
 4    1  0.6282309E-006  0.1664245E+04  0.7818608E-02  0.8782024E-01
          1   -1    0    0  501    0  0.00000000000E+00  0.00000000000E+00  0.11990500208E+04  0.11990500208E+04  0.50400000000E-02 0.  1.
         -1   -1    0    0    0  501 -0.00000000000E+00 -0.00000000000E+00 -0.57748041252E+03  0.57748041254E+03  0.50400000000E-02 0. -1.
    5000001    1    1    2    0    0  0.22948071331E+03 -0.47859967814E+03 -0.33950275820E+03  0.66074365115E+03  0.19900000000E+03 0.  0.
   -5000001    1    1    2    0    0 -0.22948071331E+03  0.47859967814E+03  0.96107236645E+03  0.11157867822E+04  0.19900000000E+03 0.  0.
<mgrwt>
<rscale>  0 0.16642451E+04</rscale>
<asrwt>0</asrwt>
<pdfrwt beam="1">  1        1 0.17129286E+00 0.16642451E+04</pdfrwt>
<pdfrwt beam="2">  1       -1 0.82497201E-01 0.16642451E+04</pdfrwt>
<totfact> 0.17323404E+01</totfact>
</mgrwt>
</event>
<event>
 4    1  0.6282309E-006  0.4839039E+03  0.7818608E-02  0.1018068E+00
         -1   -1    0    0    0  501 -0.00000000000E+00  0.00000000000E+00  0.10620427648E+03  0.10620427660E+03  0.50400000000E-02 0.  1.
          1   -1    0    0  501    0  0.00000000000E+00 -0.00000000000E+00 -0.55120886274E+03  0.55120886277E+03  0.50400000000E-02 0. -1.
    5000001    1    1    2    0    0 -0.13501048156E+03 -0.17510973361E+02 -0.19515251827E+03  0.31019343918E+03  0.19900000000E+03 0.  0.
   -5000001    1    1    2    0    0  0.13501048156E+03  0.17510973361E+02 -0.24985206799E+03  0.34721970019E+03  0.19900000000E+03 0.  0.
<mgrwt>
<rscale>  0 0.48390387E+03</rscale>
<asrwt>0</asrwt>
<pdfrwt beam="1">  1        1 0.78744121E-01 0.48390387E+03</pdfrwt>
<pdfrwt beam="2">  1       -1 0.15172040E-01 0.48390387E+03</pdfrwt>
<totfact> 0.13856679E+03</totfact>
</mgrwt>
</event>
<event>
 4    1  0.6282309E-006  0.1588185E+04  0.7818608E-02  0.8827839E-01
         -1   -1    0    0    0  501 -0.00000000000E+00  0.00000000000E+00  0.22410103855E+03  0.22410103860E+03  0.50400000000E-02 0. -1.
          1   -1    0    0  501    0  0.00000000000E+00 -0.00000000000E+00 -0.28138334629E+04  0.28138334629E+04  0.50400000000E-02 0.  1.
    5000001    1    1    2    0    0 -0.49501433293E+03 -0.58799864846E+03 -0.13219448768E+04  0.15420508609E+04  0.19900000000E+03 0.  0.
   -5000001    1    1    2    0    0  0.49501433293E+03  0.58799864846E+03 -0.12677875475E+04  0.14958836405E+04  0.19900000000E+03 0.  0.
<mgrwt>
<rscale>  0 0.15881851E+04</rscale>
<asrwt>0</asrwt>
<pdfrwt beam="1">  1        1 0.40197619E+00 0.15881851E+04</pdfrwt>
<pdfrwt beam="2">  1       -1 0.32014436E-01 0.15881851E+04</pdfrwt>
<totfact> 0.99159943E+00</totfact>
</mgrwt>
</event>
<event>
 4    1  0.6282309E-006  0.5231608E+03  0.7818608E-02  0.1007904E+00
         -1   -1    0    0    0  501 -0.00000000000E+00  0.00000000000E+00  0.11873969352E+03  0.11873969362E+03  0.50400000000E-02 0. -1.
          1   -1    0    0  501    0  0.00000000000E+00 -0.00000000000E+00 -0.57625470798E+03  0.57625470800E+03  0.50400000000E-02 0.  1.
    5000001    1    1    2    0    0  0.14068640976E+03  0.58356012952E+02 -0.32839338654E+03  0.41308752881E+03  0.19900000000E+03 0.  0.
   -5000001    1    1    2    0    0 -0.14068640976E+03 -0.58356012952E+02 -0.12912162792E+03  0.28190687281E+03  0.19900000000E+03 0.  0.
<mgrwt>
<rscale>  0 0.52316081E+03</rscale>
<asrwt>0</asrwt>
<pdfrwt beam="1">  1        1 0.82322100E-01 0.52316081E+03</pdfrwt>
<pdfrwt beam="2">  1       -1 0.16962814E-01 0.52316081E+03</pdfrwt>
<totfact> 0.10877506E+03</totfact>
</mgrwt>
</event>
<event>
 4    1  0.6282309E-006  0.6353795E+03  0.7818608E-02  0.9834607E-01
          1   -1    0    0  501    0  0.00000000000E+00  0.00000000000E+00  0.14089705627E+03  0.14089705636E+03  0.50400000000E-02 0.  1.
         -1   -1    0    0    0  501 -0.00000000000E+00 -0.00000000000E+00 -0.71631580837E+03  0.71631580839E+03  0.50400000000E-02 0. -1.
    5000001    1    1    2    0    0 -0.16585373052E+03 -0.15897855107E+03 -0.16300265281E+03  0.34489491798E+03  0.19900000000E+03 0.  0.
   -5000001    1    1    2    0    0  0.16585373052E+03  0.15897855107E+03 -0.41241609929E+03  0.51231794677E+03  0.19900000000E+03 0.  0.
<mgrwt>
<rscale>  0 0.63537954E+03</rscale>
<asrwt>0</asrwt>
<pdfrwt beam="1">  1        1 0.20128151E-01 0.63537954E+03</pdfrwt>
<pdfrwt beam="2">  1       -1 0.10233083E+00 0.63537954E+03</pdfrwt>
<totfact> 0.23885250E+02</totfact>
</mgrwt>
</event>
<event>
 4    1  0.6282309E-006  0.5648460E+03  0.7818608E-02  0.9981149E-01
         -1   -1    0    0    0  501 -0.00000000000E+00  0.00000000000E+00  0.50212444772E+02  0.50212445025E+02  0.50400000000E-02 0. -1.
          1   -1    0    0  501    0  0.00000000000E+00 -0.00000000000E+00 -0.15885054707E+04  0.15885054707E+04  0.50400000000E-02 0.  1.
    5000001    1    1    2    0    0 -0.19191881950E+03  0.44466717482E+02 -0.87580653293E+03  0.91948257481E+03  0.19900000000E+03 0.  0.
   -5000001    1    1    2    0    0  0.19191881950E+03 -0.44466717482E+02 -0.66248649302E+03  0.71923534095E+03  0.19900000000E+03 0.  0.
<mgrwt>
<rscale>  0 0.56484597E+03</rscale>
<asrwt>0</asrwt>
<pdfrwt beam="1">  1        1 0.22692932E+00 0.56484597E+03</pdfrwt>
<pdfrwt beam="2">  1       -1 0.71732074E-02 0.56484597E+03</pdfrwt>
<totfact> 0.74270554E+02</totfact>
</mgrwt>
</event>
<event>
 4    1  0.6282309E-006  0.4260743E+03  0.7818608E-02  0.1035107E+00
          1   -1    0    0  501    0  0.00000000000E+00  0.00000000000E+00  0.44065004305E+03  0.44065004308E+03  0.50400000000E-02 0.  1.
         -1   -1    0    0    0  501 -0.00000000000E+00 -0.00000000000E+00 -0.10299516887E+03  0.10299516899E+03  0.50400000000E-02 0. -1.
    5000001    1    1    2    0    0 -0.52959528597E+02 -0.71126688251E+01  0.99778877491E+02  0.22893694791E+03  0.19900000000E+03 0.  0.
   -5000001    1    1    2    0    0  0.52959528597E+02  0.71126688251E+01  0.23787599669E+03  0.31470826415E+03  0.19900000000E+03 0.  0.
<mgrwt>
<rscale>  0 0.42607429E+03</rscale>
<asrwt>0</asrwt>
<pdfrwt beam="1">  1        1 0.62950007E-01 0.42607429E+03</pdfrwt>
<pdfrwt beam="2">  1       -1 0.14713595E-01 0.42607429E+03</pdfrwt>
<totfact> 0.19607967E+03</totfact>
</mgrwt>
</event>
<event>
 4    1  0.6282309E-006  0.4860623E+03  0.7818608E-02  0.1017482E+00
          1   -1    0    0  501    0  0.00000000000E+00  0.00000000000E+00  0.19940436219E+03  0.19940436225E+03  0.50400000000E-02 0.  1.
         -1   -1    0    0    0  501 -0.00000000000E+00 -0.00000000000E+00 -0.29620285388E+03  0.29620285392E+03  0.50400000000E-02 0. -1.
    5000001    1    1    2    0    0  0.70599453008E+02 -0.12021157952E+03 -0.53797988239E+02  0.24885805222E+03  0.19900000000E+03 0.  0.
   -5000001    1    1    2    0    0 -0.70599453008E+02  0.12021157952E+03 -0.43000503449E+02  0.24674916395E+03  0.19900000000E+03 0.  0.
<mgrwt>
<rscale>  0 0.48606231E+03</rscale>
<asrwt>0</asrwt>
<pdfrwt beam="1">  1        1 0.28486338E-01 0.48606231E+03</pdfrwt>
<pdfrwt beam="2">  1       -1 0.42314693E-01 0.48606231E+03</pdfrwt>
<totfact> 0.90653292E+02</totfact>
</mgrwt>
</event>
<event>
 4    1  0.6282309E-006  0.7171286E+03  0.7818608E-02  0.9688380E-01
          1   -1    0    0  501    0  0.00000000000E+00  0.00000000000E+00  0.27880113239E+03  0.27880113244E+03  0.50400000000E-02 0.  1.
         -1   -1    0    0    0  501 -0.00000000000E+00 -0.00000000000E+00 -0.46114720041E+03  0.46114720043E+03  0.50400000000E-02 0. -1.
    5000001    1    1    2    0    0  0.29292291260E+03  0.36923285116E+02 -0.13495192165E+03  0.38076263324E+03  0.19900000000E+03 0.  0.
   -5000001    1    1    2    0    0 -0.29292291260E+03 -0.36923285116E+02 -0.47394146358E+02  0.35918569963E+03  0.19900000000E+03 0.  0.
<mgrwt>
<rscale>  0 0.71712861E+03</rscale>
<asrwt>0</asrwt>
<pdfrwt beam="1">  1        1 0.39828733E-01 0.71712861E+03</pdfrwt>
<pdfrwt beam="2">  1       -1 0.65878171E-01 0.71712861E+03</pdfrwt>
<totfact> 0.25130708E+02</totfact>
</mgrwt>
</event>
<event>
 4    1  0.6282309E-006  0.5601068E+03  0.7818608E-02  0.9991813E-01
         -1   -1    0    0    0  501 -0.00000000000E+00  0.00000000000E+00  0.12704564415E+03  0.12704564425E+03  0.50400000000E-02 0. -1.
          1   -1    0    0  501    0  0.00000000000E+00 -0.00000000000E+00 -0.61733639367E+03  0.61733639369E+03  0.50400000000E-02 0.  1.
    5000001    1    1    2    0    0  0.57837746580E+02  0.13053502540E+03 -0.64654116702E+02  0.25330959830E+03  0.19900000000E+03 0.  0.
   -5000001    1    1    2    0    0 -0.57837746580E+02 -0.13053502540E+03 -0.42563663282E+03  0.49107243965E+03  0.19900000000E+03 0.  0.
<mgrwt>
<rscale>  0 0.56010677E+03</rscale>
<asrwt>0</asrwt>
<pdfrwt beam="1">  1        1 0.88190912E-01 0.56010677E+03</pdfrwt>
<pdfrwt beam="2">  1       -1 0.18149378E-01 0.56010677E+03</pdfrwt>
<totfact> 0.88423015E+02</totfact>
</mgrwt>
</event>
<event>
 4    1  0.6282309E-006  0.6255743E+03  0.7818608E-02  0.9853724E-01
          1   -1    0    0  501    0  0.00000000000E+00  0.00000000000E+00  0.10528391074E+04  0.10528391075E+04  0.50400000000E-02 0.  1.
         -1   -1    0    0    0  501 -0.00000000000E+00 -0.00000000000E+00 -0.92925680328E+02  0.92925680464E+02  0.50400000000E-02 0. -1.
    5000001    1    1    2    0    0 -0.20658474361E+03  0.12159709066E+03  0.42907805068E+03  0.53025661931E+03  0.19900000000E+03 0.  0.
   -5000001    1    1    2    0    0  0.20658474361E+03 -0.12159709066E+03  0.53083537644E+03  0.61550816861E+03  0.19900000000E+03 0.  0.
<mgrwt>
<rscale>  0 0.62557427E+03</rscale>
<asrwt>0</asrwt>
<pdfrwt beam="1">  1        1 0.15040558E+00 0.62557427E+03</pdfrwt>
<pdfrwt beam="2">  1       -1 0.13275098E-01 0.62557427E+03</pdfrwt>
<totfact> 0.63984447E+02</totfact>
</mgrwt>
</event>
<event>
 4    1  0.6282309E-006  0.7252540E+03  0.7818608E-02  0.9674993E-01
         -1   -1    0    0    0  501 -0.00000000000E+00  0.00000000000E+00  0.64976365140E+03  0.64976365142E+03  0.50400000000E-02 0. -1.
          1   -1    0    0  501    0  0.00000000000E+00 -0.00000000000E+00 -0.20237870576E+03  0.20237870582E+03  0.50400000000E-02 0.  1.
    5000001    1    1    2    0    0  0.20567228752E+03 -0.19733303153E+03  0.10240460823E+03  0.36239359676E+03  0.19900000000E+03 0.  0.
   -5000001    1    1    2    0    0 -0.20567228752E+03  0.19733303153E+03  0.34498033742E+03  0.48974876048E+03  0.19900000000E+03 0.  0.
<mgrwt>
<rscale>  0 0.72525396E+03</rscale>
<asrwt>0</asrwt>
<pdfrwt beam="1">  1        1 0.28911244E-01 0.72525396E+03</pdfrwt>
<pdfrwt beam="2">  1       -1 0.92823379E-01 0.72525396E+03</pdfrwt>
<totfact> 0.18449548E+02</totfact>
</mgrwt>
</event>
<event>
 4    1  0.6282309E-006  0.4531850E+03  0.7818608E-02  0.1026776E+00
          1   -1    0    0  501    0  0.00000000000E+00  0.00000000000E+00  0.84035463280E+03  0.84035463282E+03  0.50400000000E-02 0.  1.
         -1   -1    0    0    0  501 -0.00000000000E+00 -0.00000000000E+00 -0.61098214940E+02  0.61098215148E+02  0.50400000000E-02 0. -1.
    5000001    1    1    2    0    0  0.80380185541E+02 -0.71028373759E+02  0.35899504752E+03  0.42424574041E+03  0.19900000000E+03 0.  0.
   -5000001    1    1    2    0    0 -0.80380185541E+02  0.71028373759E+02  0.42026137034E+03  0.47720710756E+03  0.19900000000E+03 0.  0.
<mgrwt>
<rscale>  0 0.45318503E+03</rscale>
<asrwt>0</asrwt>
<pdfrwt beam="1">  1        1 0.12005065E+00 0.45318503E+03</pdfrwt>
<pdfrwt beam="2">  1       -1 0.87283173E-02 0.45318503E+03</pdfrwt>
<totfact> 0.18065664E+03</totfact>
</mgrwt>
</event>
<event>
 4    1  0.6282309E-006  0.4395537E+03  0.7818608E-02  0.1030884E+00
          1   -1    0    0  501    0  0.00000000000E+00  0.00000000000E+00  0.20274902170E+03  0.20274902177E+03  0.50400000000E-02 0. -1.
         -1   -1    0    0    0  501 -0.00000000000E+00 -0.00000000000E+00 -0.23823480120E+03  0.23823480125E+03  0.50400000000E-02 0.  1.
    5000001    1    1    2    0    0 -0.28167446978E+01  0.73095419493E+02 -0.75810370349E+02  0.22516457682E+03  0.19900000000E+03 0.  0.
   -5000001    1    1    2    0    0  0.28167446978E+01 -0.73095419493E+02  0.40324590856E+02  0.21581924620E+03  0.19900000000E+03 0.  0.
<mgrwt>
<rscale>  0 0.43955374E+03</rscale>
<asrwt>0</asrwt>
<pdfrwt beam="1">  1        1 0.28964146E-01 0.43955374E+03</pdfrwt>
<pdfrwt beam="2">  1       -1 0.34033543E-01 0.43955374E+03</pdfrwt>
<totfact> 0.13086985E+03</totfact>
</mgrwt>
</event>
<event>
 4    1  0.6282309E-006  0.6634866E+03  0.7818608E-02  0.9781797E-01
          1   -1    0    0  501    0  0.00000000000E+00  0.00000000000E+00  0.94429527617E+03  0.94429527618E+03  0.50400000000E-02 0. -1.
         -1   -1    0    0    0  501 -0.00000000000E+00 -0.00000000000E+00 -0.11654575722E+03  0.11654575733E+03  0.50400000000E-02 0.  1.
    5000001    1    1    2    0    0 -0.19283349683E+03 -0.17484488059E+03  0.33083842502E+03  0.46562920144E+03  0.19900000000E+03 0.  0.
   -5000001    1    1    2    0    0  0.19283349683E+03  0.17484488059E+03  0.49691109393E+03  0.59521183207E+03  0.19900000000E+03 0.  0.
<mgrwt>
<rscale>  0 0.66348657E+03</rscale>
<asrwt>0</asrwt>
<pdfrwt beam="1">  1        1 0.13489933E+00 0.66348657E+03</pdfrwt>
<pdfrwt beam="2">  1       -1 0.16649394E-01 0.66348657E+03</pdfrwt>
<totfact> 0.53274720E+02</totfact>
</mgrwt>
</event>
<event>
 4    1  0.6282309E-006  0.4037352E+03  0.7818608E-02  0.1042494E+00
          1   -1    0    0  501    0  0.00000000000E+00  0.00000000000E+00  0.27392062875E+04  0.27392062875E+04  0.50400000000E-02 0. -1.
         -1   -1    0    0    0  501 -0.00000000000E+00 -0.00000000000E+00 -0.14876761787E+02  0.14876762641E+02  0.50400000000E-02 0.  1.
    5000001    1    1    2    0    0  0.25288412865E+02  0.22091793856E+02  0.13301912902E+04  0.13454134754E+04  0.19900000000E+03 0.  0.
   -5000001    1    1    2    0    0 -0.25288412865E+02 -0.22091793856E+02  0.13941382355E+04  0.14086695747E+04  0.19900000000E+03 0.  0.
<mgrwt>
<rscale>  0 0.40373516E+03</rscale>
<asrwt>0</asrwt>
<pdfrwt beam="1">  1        1 0.39131519E+00 0.40373516E+03</pdfrwt>
<pdfrwt beam="2">  1       -1 0.21252517E-02 0.40373516E+03</pdfrwt>
<totfact> 0.91728527E+02</totfact>
</mgrwt>
</event>
<event>
 4    1  0.6282309E-006  0.5023679E+03  0.7818608E-02  0.1013163E+00
         -1   -1    0    0    0  501 -0.00000000000E+00  0.00000000000E+00  0.43059684821E+02  0.43059685116E+02  0.50400000000E-02 0. -1.
          1   -1    0    0  501    0  0.00000000000E+00 -0.00000000000E+00 -0.14652538144E+04  0.14652538144E+04  0.50400000000E-02 0.  1.
    5000001    1    1    2    0    0 -0.78249641794E+02  0.12424503131E+03 -0.84308470781E+03  0.87860836486E+03  0.19900000000E+03 0.  0.
   -5000001    1    1    2    0    0  0.78249641794E+02 -0.12424503131E+03 -0.57910942173E+03  0.62970513463E+03  0.19900000000E+03 0.  0.
<mgrwt>
<rscale>  0 0.50236786E+03</rscale>
<asrwt>0</asrwt>
<pdfrwt beam="1">  1        1 0.20932194E+00 0.50236786E+03</pdfrwt>
<pdfrwt beam="2">  1       -1 0.61513845E-02 0.50236786E+03</pdfrwt>
<totfact> 0.11310921E+03</totfact>
</mgrwt>
</event>
<event>
 4    1  0.6282309E-006  0.4728305E+03  0.7818608E-02  0.1021124E+00
         -1   -1    0    0    0  501 -0.00000000000E+00  0.00000000000E+00  0.73351331698E+02  0.73351331872E+02  0.50400000000E-02 0. -1.
          1   -1    0    0  501    0  0.00000000000E+00 -0.00000000000E+00 -0.76197904101E+03  0.76197904102E+03  0.50400000000E-02 0.  1.
    5000001    1    1    2    0    0  0.11984743313E+03 -0.18509203617E+01 -0.42181250775E+03  0.48155334578E+03  0.19900000000E+03 0.  0.
   -5000001    1    1    2    0    0 -0.11984743313E+03  0.18509203617E+01 -0.26681520155E+03  0.35377702711E+03  0.19900000000E+03 0.  0.
<mgrwt>
<rscale>  0 0.47283053E+03</rscale>
<asrwt>0</asrwt>
<pdfrwt beam="1">  1        1 0.10885414E+00 0.47283053E+03</pdfrwt>
<pdfrwt beam="2">  1       -1 0.10478762E-01 0.47283053E+03</pdfrwt>
<totfact> 0.15755219E+03</totfact>
</mgrwt>
</event>
<event>
 4    1  0.6282309E-006  0.1495551E+04  0.7818608E-02  0.8887417E-01
          1   -1    0    0  501    0  0.00000000000E+00  0.00000000000E+00  0.15745835712E+04  0.15745835712E+04  0.50400000000E-02 0.  1.
         -1   -1    0    0    0  501 -0.00000000000E+00 -0.00000000000E+00 -0.35512133741E+03  0.35512133744E+03  0.50400000000E-02 0. -1.
    5000001    1    1    2    0    0 -0.47188027388E+03  0.53243830516E+03  0.75912544910E+03  0.10592610581E+04  0.19900000000E+03 0.  0.
   -5000001    1    1    2    0    0  0.47188027388E+03 -0.53243830516E+03  0.46033678470E+03  0.87044385059E+03  0.19900000000E+03 0.  0.
<mgrwt>
<rscale>  0 0.14955510E+04</rscale>
<asrwt>0</asrwt>
<pdfrwt beam="1">  1        1 0.22494051E+00 0.14955510E+04</pdfrwt>
<pdfrwt beam="2">  1       -1 0.50731619E-01 0.14955510E+04</pdfrwt>
<totfact> 0.26304702E+01</totfact>
</mgrwt>
</event>
<event>
 4    1  0.6282309E-006  0.8911212E+03  0.7818608E-02  0.9436749E-01
         -1   -1    0    0    0  501 -0.00000000000E+00  0.00000000000E+00  0.71084503371E+03  0.71084503373E+03  0.50400000000E-02 0. -1.
          1   -1    0    0  501    0  0.00000000000E+00 -0.00000000000E+00 -0.27927919637E+03  0.27927919642E+03  0.50400000000E-02 0.  1.
    5000001    1    1    2    0    0  0.17378253064E+03  0.15919502302E+03  0.57303172840E+03  0.65077629418E+03  0.19900000000E+03 0.  0.
   -5000001    1    1    2    0    0 -0.17378253064E+03 -0.15919502302E+03 -0.14146589106E+03  0.33934793596E+03  0.19900000000E+03 0.  0.
<mgrwt>
<rscale>  0 0.89112116E+03</rscale>
<asrwt>0</asrwt>
<pdfrwt beam="1">  1        1 0.39897028E-01 0.89112116E+03</pdfrwt>
<pdfrwt beam="2">  1       -1 0.10154929E+00 0.89112116E+03</pdfrwt>
<totfact> 0.98349465E+01</totfact>
</mgrwt>
</event>
<event>
 4    1  0.6282309E-006  0.6187444E+03  0.7818608E-02  0.9867263E-01
         -1   -1    0    0    0  501 -0.00000000000E+00  0.00000000000E+00  0.21099430697E+03  0.21099430703E+03  0.50400000000E-02 0.  1.
          1   -1    0    0  501    0  0.00000000000E+00 -0.00000000000E+00 -0.45361957165E+03  0.45361957168E+03  0.50400000000E-02 0. -1.
    5000001    1    1    2    0    0  0.53222833413E+02  0.23068781549E+03 -0.11295031617E+03  0.32925417558E+03  0.19900000000E+03 0.  0.
   -5000001    1    1    2    0    0 -0.53222833413E+02 -0.23068781549E+03 -0.12967494851E+03  0.33535970313E+03  0.19900000000E+03 0.  0.
<mgrwt>
<rscale>  0 0.61874436E+03</rscale>
<asrwt>0</asrwt>
<pdfrwt beam="1">  1        1 0.64802796E-01 0.61874436E+03</pdfrwt>
<pdfrwt beam="2">  1       -1 0.30142044E-01 0.61874436E+03</pdfrwt>
<totfact> 0.57134861E+02</totfact>
</mgrwt>
</event>
<event>
 4    1  0.6282309E-006  0.5069266E+03  0.7818608E-02  0.1011987E+00
         -1   -1    0    0    0  501 -0.00000000000E+00  0.00000000000E+00  0.22201978940E+02  0.22201979513E+02  0.50400000000E-02 0. -1.
          1   -1    0    0  501    0  0.00000000000E+00 -0.00000000000E+00 -0.28936000039E+04  0.28936000039E+04  0.50400000000E-02 0.  1.
    5000001    1    1    2    0    0 -0.62114234099E+02 -0.11604921057E+03 -0.19277169586E+04  0.19424261298E+04  0.19900000000E+03 0.  0.
   -5000001    1    1    2    0    0  0.62114234099E+02  0.11604921057E+03 -0.94368106638E+03  0.97337585361E+03  0.19900000000E+03 0.  0.
<mgrwt>
<rscale>  0 0.50692661E+03</rscale>
<asrwt>0</asrwt>
<pdfrwt beam="1">  1        1 0.41337119E+00 0.50692661E+03</pdfrwt>
<pdfrwt beam="2">  1       -1 0.31717131E-02 0.50692661E+03</pdfrwt>
<totfact> 0.39915216E+02</totfact>
</mgrwt>
</event>
<event>
 4    1  0.6282309E-006  0.7185329E+03  0.7818608E-02  0.9686053E-01
         -1   -1    0    0    0  501 -0.00000000000E+00  0.00000000000E+00  0.15698221266E+03  0.15698221274E+03  0.50400000000E-02 0.  1.
          1   -1    0    0  501    0  0.00000000000E+00 -0.00000000000E+00 -0.82221026033E+03  0.82221026035E+03  0.50400000000E-02 0. -1.
    5000001    1    1    2    0    0  0.11184066573E+03  0.26687687180E+03 -0.43585908389E+03  0.55973720639E+03  0.19900000000E+03 0.  0.
   -5000001    1    1    2    0    0 -0.11184066573E+03 -0.26687687180E+03 -0.22936896379E+03  0.41945526670E+03  0.19900000000E+03 0.  0.
<mgrwt>
<rscale>  0 0.71853291E+03</rscale>
<asrwt>0</asrwt>
<pdfrwt beam="1">  1        1 0.11745861E+00 0.71853291E+03</pdfrwt>
<pdfrwt beam="2">  1       -1 0.22426031E-01 0.71853291E+03</pdfrwt>
<totfact> 0.40518996E+02</totfact>
</mgrwt>
</event>
<event>
 4    1  0.6282309E-006  0.7388762E+03  0.7818608E-02  0.9652965E-01
          1   -1    0    0  501    0  0.00000000000E+00  0.00000000000E+00  0.20707421935E+03  0.20707421941E+03  0.50400000000E-02 0.  1.
         -1   -1    0    0    0  501 -0.00000000000E+00 -0.00000000000E+00 -0.65910911832E+03  0.65910911834E+03  0.50400000000E-02 0. -1.
    5000001    1    1    2    0    0  0.55940948338E+02  0.30618312408E+03 -0.22314328506E+03  0.43159172935E+03  0.19900000000E+03 0.  0.
   -5000001    1    1    2    0    0 -0.55940948338E+02 -0.30618312408E+03 -0.22889161391E+03  0.43459160840E+03  0.19900000000E+03 0.  0.
<mgrwt>
<rscale>  0 0.73887619E+03</rscale>
<asrwt>0</asrwt>
<pdfrwt beam="1">  1        1 0.29582032E-01 0.73887619E+03</pdfrwt>
<pdfrwt beam="2">  1       -1 0.94158444E-01 0.73887619E+03</pdfrwt>
<totfact> 0.17336721E+02</totfact>
</mgrwt>
</event>
<event>
 4    1  0.6282309E-006  0.4278833E+03  0.7818608E-02  0.1034531E+00
          1   -1    0    0  501    0  0.00000000000E+00  0.00000000000E+00  0.26304034004E+03  0.26304034009E+03  0.50400000000E-02 0.  1.
         -1   -1    0    0    0  501 -0.00000000000E+00 -0.00000000000E+00 -0.17400764858E+03  0.17400764865E+03  0.50400000000E-02 0. -1.
    5000001    1    1    2    0    0  0.30681201565E+02 -0.71734011802E+02  0.35214900168E+02  0.21662916187E+03  0.19900000000E+03 0.  0.
   -5000001    1    1    2    0    0 -0.30681201565E+02  0.71734011802E+02  0.53817791302E+02  0.22041882687E+03  0.19900000000E+03 0.  0.
<mgrwt>
<rscale>  0 0.42788331E+03</rscale>
<asrwt>0</asrwt>
<pdfrwt beam="1">  1        1 0.37577191E-01 0.42788331E+03</pdfrwt>
<pdfrwt beam="2">  1       -1 0.24858236E-01 0.42788331E+03</pdfrwt>
<totfact> 0.16085952E+03</totfact>
</mgrwt>
</event>
<event>
 4    1  0.6282309E-006  0.6263885E+03  0.7818608E-02  0.9852122E-01
          1   -1    0    0  501    0  0.00000000000E+00  0.00000000000E+00  0.16455492482E+03  0.16455492490E+03  0.50400000000E-02 0.  1.
         -1   -1    0    0    0  501 -0.00000000000E+00 -0.00000000000E+00 -0.59609666896E+03  0.59609666898E+03  0.50400000000E-02 0. -1.
    5000001    1    1    2    0    0  0.17925387555E+03  0.15173083036E+03 -0.14563843379E+03  0.34053744314E+03  0.19900000000E+03 0.  0.
   -5000001    1    1    2    0    0 -0.17925387555E+03 -0.15173083036E+03 -0.28590331035E+03  0.42011415074E+03  0.19900000000E+03 0.  0.
<mgrwt>
<rscale>  0 0.62638851E+03</rscale>
<asrwt>0</asrwt>
<pdfrwt beam="1">  1        1 0.23507847E-01 0.62638851E+03</pdfrwt>
<pdfrwt beam="2">  1       -1 0.85156666E-01 0.62638851E+03</pdfrwt>
<totfact> 0.29295050E+02</totfact>
</mgrwt>
</event>
<event>
 4    1  0.6282309E-006  0.7290391E+03  0.7818608E-02  0.9668821E-01
          1   -1    0    0  501    0  0.00000000000E+00  0.00000000000E+00  0.74810654954E+03  0.74810654956E+03  0.50400000000E-02 0. -1.
         -1   -1    0    0    0  501 -0.00000000000E+00 -0.00000000000E+00 -0.17761440615E+03  0.17761440622E+03  0.50400000000E-02 0.  1.
    5000001    1    1    2    0    0  0.58708769919E+02 -0.29960601492E+03  0.29532599461E+03  0.46907241119E+03  0.19900000000E+03 0.  0.
   -5000001    1    1    2    0    0 -0.58708769919E+02  0.29960601492E+03  0.27516614878E+03  0.45664854459E+03  0.19900000000E+03 0.  0.
<mgrwt>
<rscale>  0 0.72903910E+03</rscale>
<asrwt>0</asrwt>
<pdfrwt beam="1">  1        1 0.10687237E+00 0.72903910E+03</pdfrwt>
<pdfrwt beam="2">  1       -1 0.25373486E-01 0.72903910E+03</pdfrwt>
<totfact> 0.37969995E+02</totfact>
</mgrwt>
</event>
<event>
 4    1  0.6282309E-006  0.5895869E+03  0.7818608E-02  0.9927249E-01
         -1   -1    0    0    0  501 -0.00000000000E+00  0.00000000000E+00  0.36615536300E+03  0.36615536304E+03  0.50400000000E-02 0. -1.
          1   -1    0    0  501    0  0.00000000000E+00 -0.00000000000E+00 -0.23733963094E+03  0.23733963099E+03  0.50400000000E-02 0.  1.
    5000001    1    1    2    0    0 -0.10016883443E+03 -0.19269485512E+03  0.52423727531E+02  0.29918948810E+03  0.19900000000E+03 0.  0.
   -5000001    1    1    2    0    0  0.10016883443E+03  0.19269485512E+03  0.76392004533E+02  0.30430550593E+03  0.19900000000E+03 0.  0.
<mgrwt>
<rscale>  0 0.58958690E+03</rscale>
<asrwt>0</asrwt>
<pdfrwt beam="1">  1        1 0.33905662E-01 0.58958690E+03</pdfrwt>
<pdfrwt beam="2">  1       -1 0.52307909E-01 0.58958690E+03</pdfrwt>
<totfact> 0.48765640E+02</totfact>
</mgrwt>
</event>
<event>
 4    1  0.6282309E-006  0.6139719E+03  0.7818608E-02  0.9876835E-01
          1   -1    0    0  501    0  0.00000000000E+00  0.00000000000E+00  0.97256288008E+03  0.97256288009E+03  0.50400000000E-02 0. -1.
         -1   -1    0    0    0  501 -0.00000000000E+00 -0.00000000000E+00 -0.96898995641E+02  0.96898995772E+02  0.50400000000E-02 0.  1.
    5000001    1    1    2    0    0  0.19905348477E+03 -0.10913707260E+03  0.53491196169E+03  0.61421901401E+03  0.19900000000E+03 0.  0.
   -5000001    1    1    2    0    0 -0.19905348477E+03  0.10913707260E+03  0.34075192274E+03  0.45524286185E+03  0.19900000000E+03 0.  0.
<mgrwt>
<rscale>  0 0.61397188E+03</rscale>
<asrwt>0</asrwt>
<pdfrwt beam="1">  1        1 0.13893755E+00 0.61397188E+03</pdfrwt>
<pdfrwt beam="2">  1       -1 0.13842714E-01 0.61397188E+03</pdfrwt>
<totfact> 0.68564472E+02</totfact>
</mgrwt>
</event>
<event>
 4    1  0.6282309E-006  0.6968908E+03  0.7818608E-02  0.9722564E-01
         -1   -1    0    0    0  501 -0.00000000000E+00  0.00000000000E+00  0.63754419213E+03  0.63754419215E+03  0.50400000000E-02 0. -1.
          1   -1    0    0  501    0  0.00000000000E+00 -0.00000000000E+00 -0.19044041888E+03  0.19044041895E+03  0.50400000000E-02 0.  1.
    5000001    1    1    2    0    0  0.13939243084E+03  0.20433622047E+03  0.52903020510E+02  0.32184354950E+03  0.19900000000E+03 0.  0.
   -5000001    1    1    2    0    0 -0.13939243084E+03 -0.20433622047E+03  0.39420075274E+03  0.50614106160E+03  0.19900000000E+03 0.  0.
<mgrwt>
<rscale>  0 0.69689076E+03</rscale>
<asrwt>0</asrwt>
<pdfrwt beam="1">  1        1 0.27205775E-01 0.69689076E+03</pdfrwt>
<pdfrwt beam="2">  1       -1 0.91077740E-01 0.69689076E+03</pdfrwt>
<totfact> 0.20850571E+02</totfact>
</mgrwt>
</event>
<event>
 4    1  0.6282309E-006  0.5792709E+03  0.7818608E-02  0.9949371E-01
          1   -1    0    0  501    0  0.00000000000E+00  0.00000000000E+00  0.10076028334E+04  0.10076028334E+04  0.50400000000E-02 0.  1.
         -1   -1    0    0    0  501 -0.00000000000E+00 -0.00000000000E+00 -0.83255705224E+02  0.83255705376E+02  0.50400000000E-02 0. -1.
    5000001    1    1    2    0    0 -0.60965556644E+02 -0.32688955029E+02  0.83645478398E+03  0.86257925579E+03  0.19900000000E+03 0.  0.
   -5000001    1    1    2    0    0  0.60965556644E+02  0.32688955029E+02  0.87892344197E+02  0.22827928300E+03  0.19900000000E+03 0.  0.
<mgrwt>
<rscale>  0 0.57927087E+03</rscale>
<asrwt>0</asrwt>
<pdfrwt beam="1">  1        1 0.14394326E+00 0.57927087E+03</pdfrwt>
<pdfrwt beam="2">  1       -1 0.11893673E-01 0.57927087E+03</pdfrwt>
<totfact> 0.82438196E+02</totfact>
</mgrwt>
</event>
<event>
 4    1  0.6282309E-006  0.1015084E+04  0.7818608E-02  0.9292154E-01
          1   -1    0    0  501    0  0.00000000000E+00  0.00000000000E+00  0.78563968300E+03  0.78563968302E+03  0.50400000000E-02 0. -1.
         -1   -1    0    0    0  501 -0.00000000000E+00 -0.00000000000E+00 -0.32788407395E+03  0.32788407399E+03  0.50400000000E-02 0.  1.
    5000001    1    1    2    0    0 -0.34648531768E+03 -0.19103460872E+03  0.50081190191E+03  0.66855056517E+03  0.19900000000E+03 0.  0.
   -5000001    1    1    2    0    0  0.34648531768E+03  0.19103460872E+03 -0.43056292856E+02  0.44497319183E+03  0.19900000000E+03 0.  0.
<mgrwt>
<rscale>  0 0.10150837E+04</rscale>
<asrwt>0</asrwt>
<pdfrwt beam="1">  1        1 0.11223424E+00 0.10150837E+04</pdfrwt>
<pdfrwt beam="2">  1       -1 0.46840582E-01 0.10150837E+04</pdfrwt>
<totfact> 0.11630568E+02</totfact>
</mgrwt>
</event>
<event>
 4    1  0.6282309E-006  0.6137151E+03  0.7818608E-02  0.9877353E-01
         -1   -1    0    0    0  501 -0.00000000000E+00  0.00000000000E+00  0.12584491294E+03  0.12584491305E+03  0.50400000000E-02 0. -1.
          1   -1    0    0  501    0  0.00000000000E+00 -0.00000000000E+00 -0.74823491329E+03  0.74823491331E+03  0.50400000000E-02 0.  1.
    5000001    1    1    2    0    0  0.16697595029E+03  0.34700262964E+02 -0.83870898444E+02  0.27517340684E+03  0.19900000000E+03 0.  0.
   -5000001    1    1    2    0    0 -0.16697595029E+03 -0.34700262964E+02 -0.53851910190E+03  0.59890641951E+03  0.19900000000E+03 0.  0.
<mgrwt>
<rscale>  0 0.61371511E+03</rscale>
<asrwt>0</asrwt>
<pdfrwt beam="1">  1        1 0.10689070E+00 0.61371511E+03</pdfrwt>
<pdfrwt beam="2">  1       -1 0.17977845E-01 0.61371511E+03</pdfrwt>
<totfact> 0.67860161E+02</totfact>
</mgrwt>
</event>
<event>
 4    1  0.6282309E-006  0.5257142E+03  0.7818608E-02  0.1007277E+00
          1   -1    0    0  501    0  0.00000000000E+00  0.00000000000E+00  0.14293310419E+04  0.14293310419E+04  0.50400000000E-02 0.  1.
         -1   -1    0    0    0  501 -0.00000000000E+00 -0.00000000000E+00 -0.48339993185E+02  0.48339993448E+02  0.50400000000E-02 0. -1.
    5000001    1    1    2    0    0 -0.91380076502E+02  0.12505482978E+03  0.89902158331E+03  0.93371828518E+03  0.19900000000E+03 0.  0.
   -5000001    1    1    2    0    0  0.91380076502E+02 -0.12505482978E+03  0.48196946539E+03  0.54395275015E+03  0.19900000000E+03 0.  0.
<mgrwt>
<rscale>  0 0.52571419E+03</rscale>
<asrwt>0</asrwt>
<pdfrwt beam="1">  1        1 0.20419012E+00 0.52571419E+03</pdfrwt>
<pdfrwt beam="2">  1       -1 0.69057141E-02 0.52571419E+03</pdfrwt>
<totfact> 0.99733771E+02</totfact>
</mgrwt>
</event>
<event>
 4    1  0.6282309E-006  0.7242582E+03  0.7818608E-02  0.9676624E-01
          1   -1    0    0  501    0  0.00000000000E+00  0.00000000000E+00  0.41378454628E+03  0.41378454631E+03  0.50400000000E-02 0.  1.
         -1   -1    0    0    0  501 -0.00000000000E+00 -0.00000000000E+00 -0.31692210262E+03  0.31692210266E+03  0.50400000000E-02 0. -1.
    5000001    1    1    2    0    0  0.47126852477E+02 -0.10549840333E+03 -0.23367527920E+03  0.32795729819E+03  0.19900000000E+03 0.  0.
   -5000001    1    1    2    0    0 -0.47126852477E+02  0.10549840333E+03  0.33053772285E+03  0.40274935078E+03  0.19900000000E+03 0.  0.
<mgrwt>
<rscale>  0 0.72425815E+03</rscale>
<asrwt>0</asrwt>
<pdfrwt beam="1">  1        1 0.59112078E-01 0.72425815E+03</pdfrwt>
<pdfrwt beam="2">  1       -1 0.45274586E-01 0.72425815E+03</pdfrwt>
<totfact> 0.30999716E+02</totfact>
</mgrwt>
</event>
<event>
 4    1  0.6282309E-006  0.6564562E+03  0.7818608E-02  0.9794740E-01
         -1   -1    0    0    0  501 -0.00000000000E+00  0.00000000000E+00  0.41796441636E+03  0.41796441639E+03  0.50400000000E-02 0. -1.
          1   -1    0    0  501    0  0.00000000000E+00 -0.00000000000E+00 -0.25775799764E+03  0.25775799769E+03  0.50400000000E-02 0.  1.
    5000001    1    1    2    0    0 -0.61583471196E+02 -0.18377253857E+03 -0.99864546036E+02  0.29519281396E+03  0.19900000000E+03 0.  0.
   -5000001    1    1    2    0    0  0.61583471196E+02  0.18377253857E+03  0.26007096476E+03  0.38052960012E+03  0.19900000000E+03 0.  0.
<mgrwt>
<rscale>  0 0.65645616E+03</rscale>
<asrwt>0</asrwt>
<pdfrwt beam="1">  1        1 0.36822572E-01 0.65645616E+03</pdfrwt>
<pdfrwt beam="2">  1       -1 0.59709202E-01 0.65645616E+03</pdfrwt>
<totfact> 0.33888237E+02</totfact>
</mgrwt>
</event>
<event>
 4    1  0.6282309E-006  0.6858459E+03  0.7818608E-02  0.9741748E-01
         -1   -1    0    0    0  501 -0.00000000000E+00  0.00000000000E+00  0.33081962904E+03  0.33081962908E+03  0.50400000000E-02 0. -1.
          1   -1    0    0  501    0  0.00000000000E+00 -0.00000000000E+00 -0.35546909724E+03  0.35546909728E+03  0.50400000000E-02 0.  1.
    5000001    1    1    2    0    0  0.20976057454E+03  0.11723326827E+03 -0.15472619701E+03  0.34825900400E+03  0.19900000000E+03 0.  0.
   -5000001    1    1    2    0    0 -0.20976057454E+03 -0.11723326827E+03  0.13007672881E+03  0.33802972236E+03  0.19900000000E+03 0.  0.
<mgrwt>
<rscale>  0 0.68584592E+03</rscale>
<asrwt>0</asrwt>
<pdfrwt beam="1">  1        1 0.50781300E-01 0.68584592E+03</pdfrwt>
<pdfrwt beam="2">  1       -1 0.47259947E-01 0.68584592E+03</pdfrwt>
<totfact> 0.34959973E+02</totfact>
</mgrwt>
</event>
<event>
 4    1  0.6282309E-006  0.7932834E+03  0.7818608E-02  0.9569790E-01
         -1   -1    0    0    0  501 -0.00000000000E+00  0.00000000000E+00  0.44682601888E+03  0.44682601891E+03  0.50400000000E-02 0. -1.
          1   -1    0    0  501    0  0.00000000000E+00 -0.00000000000E+00 -0.35209375717E+03  0.35209375720E+03  0.50400000000E-02 0.  1.
    5000001    1    1    2    0    0  0.68064619891E+02  0.32210042515E+03 -0.49975539882E+02  0.38791755689E+03  0.19900000000E+03 0.  0.
   -5000001    1    1    2    0    0 -0.68064619891E+02 -0.32210042515E+03  0.14470780160E+03  0.41100221922E+03  0.19900000000E+03 0.  0.
<mgrwt>
<rscale>  0 0.79328343E+03</rscale>
<asrwt>0</asrwt>
<pdfrwt beam="1">  1        1 0.50299108E-01 0.79328343E+03</pdfrwt>
<pdfrwt beam="2">  1       -1 0.63832289E-01 0.79328343E+03</pdfrwt>
<totfact> 0.19718953E+02</totfact>
</mgrwt>
</event>
<event>
 4    1  0.6282309E-006  0.5468214E+03  0.7818608E-02  0.1002232E+00
         -1   -1    0    0    0  501 -0.00000000000E+00  0.00000000000E+00  0.32324663093E+03  0.32324663097E+03  0.50400000000E-02 0. -1.
          1   -1    0    0  501    0  0.00000000000E+00 -0.00000000000E+00 -0.23125813195E+03  0.23125813201E+03  0.50400000000E-02 0.  1.
    5000001    1    1    2    0    0  0.15986308587E+03 -0.97939822792E+02  0.48021576766E+02  0.27758870104E+03  0.19900000000E+03 0.  0.
   -5000001    1    1    2    0    0 -0.15986308587E+03  0.97939822792E+02  0.43966922214E+02  0.27691606194E+03  0.19900000000E+03 0.  0.
<mgrwt>
<rscale>  0 0.54682140E+03</rscale>
<asrwt>0</asrwt>
<pdfrwt beam="1">  1        1 0.33036876E-01 0.54682140E+03</pdfrwt>
<pdfrwt beam="2">  1       -1 0.46178090E-01 0.54682140E+03</pdfrwt>
<totfact> 0.63768792E+02</totfact>
</mgrwt>
</event>
<event>
 4    1  0.6282309E-006  0.6306101E+03  0.7818608E-02  0.9843859E-01
          1   -1    0    0  501    0  0.00000000000E+00  0.00000000000E+00  0.41097929360E+03  0.41097929363E+03  0.50400000000E-02 0.  1.
         -1   -1    0    0    0  501 -0.00000000000E+00 -0.00000000000E+00 -0.24190333854E+03  0.24190333859E+03  0.50400000000E-02 0. -1.
    5000001    1    1    2    0    0  0.12178039011E+03  0.20867300053E+03  0.45231578257E+02  0.31626220172E+03  0.19900000000E+03 0.  0.
   -5000001    1    1    2    0    0 -0.12178039011E+03 -0.20867300053E+03  0.12384437680E+03  0.33662043050E+03  0.19900000000E+03 0.  0.
<mgrwt>
<rscale>  0 0.63061006E+03</rscale>
<asrwt>0</asrwt>
<pdfrwt beam="1">  1        1 0.58711327E-01 0.63061006E+03</pdfrwt>
<pdfrwt beam="2">  1       -1 0.34557620E-01 0.63061006E+03</pdfrwt>
<totfact> 0.51190828E+02</totfact>
</mgrwt>
</event>
<event>
 4    1  0.6282309E-006  0.5607474E+03  0.7818608E-02  0.9990365E-01
          1   -1    0    0  501    0  0.00000000000E+00  0.00000000000E+00  0.38717991327E+03  0.38717991330E+03  0.50400000000E-02 0. -1.
         -1   -1    0    0    0  501 -0.00000000000E+00 -0.00000000000E+00 -0.20303070994E+03  0.20303071000E+03  0.50400000000E-02 0.  1.
    5000001    1    1    2    0    0 -0.16000269381E+03  0.10766538233E+03  0.13692473362E+03  0.30909881794E+03  0.19900000000E+03 0.  0.
   -5000001    1    1    2    0    0  0.16000269381E+03 -0.10766538233E+03  0.47224469712E+02  0.28111180537E+03  0.19900000000E+03 0.  0.
<mgrwt>
<rscale>  0 0.56074740E+03</rscale>
<asrwt>0</asrwt>
<pdfrwt beam="1">  1        1 0.55311416E-01 0.56074740E+03</pdfrwt>
<pdfrwt beam="2">  1       -1 0.29004387E-01 0.56074740E+03</pdfrwt>
<totfact> 0.75283020E+02</totfact>
</mgrwt>
</event>
<event>
 4    1  0.6282309E-006  0.8795160E+03  0.7818608E-02  0.9451556E-01
         -1   -1    0    0    0  501 -0.00000000000E+00  0.00000000000E+00  0.11277524344E+03  0.11277524355E+03  0.50400000000E-02 0.  1.
          1   -1    0    0  501    0  0.00000000000E+00 -0.00000000000E+00 -0.17148011354E+04  0.17148011354E+04  0.50400000000E-02 0. -1.
    5000001    1    1    2    0    0  0.38523727566E+03  0.62954066600E+02 -0.72284443022E+03  0.84526684742E+03  0.19900000000E+03 0.  0.
   -5000001    1    1    2    0    0 -0.38523727566E+03 -0.62954066600E+02 -0.87918146172E+03  0.98230953151E+03  0.19900000000E+03 0.  0.
<mgrwt>
<rscale>  0 0.87951604E+03</rscale>
<asrwt>0</asrwt>
<pdfrwt beam="1">  1        1 0.24497157E+00 0.87951604E+03</pdfrwt>
<pdfrwt beam="2">  1       -1 0.16110750E-01 0.87951604E+03</pdfrwt>
<totfact> 0.16715676E+02</totfact>
</mgrwt>
</event>
<event>
 4    1  0.6282309E-006  0.4943817E+03  0.7818608E-02  0.1015256E+00
          1   -1    0    0  501    0  0.00000000000E+00  0.00000000000E+00  0.55011011930E+02  0.55011012160E+02  0.50400000000E-02 0.  1.
         -1   -1    0    0    0  501 -0.00000000000E+00 -0.00000000000E+00 -0.11107468250E+04  0.11107468250E+04  0.50400000000E-02 0. -1.
    5000001    1    1    2    0    0  0.51023271994E+02  0.12474165010E+03 -0.66411230360E+03  0.70626482664E+03  0.19900000000E+03 0.  0.
   -5000001    1    1    2    0    0 -0.51023271994E+02 -0.12474165010E+03 -0.39162350945E+03  0.45949301051E+03  0.19900000000E+03 0.  0.
<mgrwt>
<rscale>  0 0.49438166E+03</rscale>
<asrwt>0</asrwt>
<pdfrwt beam="1">  1        1 0.78587167E-02 0.49438166E+03</pdfrwt>
<pdfrwt beam="2">  1       -1 0.15867810E+00 0.49438166E+03</pdfrwt>
<totfact> 0.28767458E+02</totfact>
</mgrwt>
</event>
<event>
 4    1  0.6282309E-006  0.4977060E+03  0.7818608E-02  0.1014379E+00
         -1   -1    0    0    0  501 -0.00000000000E+00  0.00000000000E+00  0.68504704069E+02  0.68504704255E+02  0.50400000000E-02 0.  1.
          1   -1    0    0  501    0  0.00000000000E+00 -0.00000000000E+00 -0.90399346777E+03  0.90399346778E+03  0.50400000000E-02 0. -1.
    5000001    1    1    2    0    0 -0.13899958252E+03 -0.53812078400E+02 -0.39723417569E+03  0.46862843924E+03  0.19900000000E+03 0.  0.
   -5000001    1    1    2    0    0  0.13899958252E+03  0.53812078400E+02 -0.43825458801E+03  0.50386973280E+03  0.19900000000E+03 0.  0.
<mgrwt>
<rscale>  0 0.49770596E+03</rscale>
<asrwt>0</asrwt>
<pdfrwt beam="1">  1        1 0.12914192E+00 0.49770596E+03</pdfrwt>
<pdfrwt beam="2">  1       -1 0.97863869E-02 0.49770596E+03</pdfrwt>
<totfact> 0.13456895E+03</totfact>
</mgrwt>
</event>
<event>
 4    1  0.6282309E-006  0.4356191E+03  0.7818608E-02  0.1032099E+00
          1   -1    0    0  501    0  0.00000000000E+00  0.00000000000E+00  0.94164515814E+03  0.94164515815E+03  0.50400000000E-02 0. -1.
         -1   -1    0    0    0  501 -0.00000000000E+00 -0.00000000000E+00 -0.50380976726E+02  0.50380976978E+02  0.50400000000E-02 0.  1.
    5000001    1    1    2    0    0  0.11786553328E+02 -0.87733448515E+02  0.45014208035E+03  0.50006496911E+03  0.19900000000E+03 0.  0.
   -5000001    1    1    2    0    0 -0.11786553328E+02  0.87733448515E+02  0.44112210107E+03  0.49196116602E+03  0.19900000000E+03 0.  0.
<mgrwt>
<rscale>  0 0.43561911E+03</rscale>
<asrwt>0</asrwt>
<pdfrwt beam="1">  1        1 0.13452074E+00 0.43561911E+03</pdfrwt>
<pdfrwt beam="2">  1       -1 0.71972825E-02 0.43561911E+03</pdfrwt>
<totfact> 0.20315250E+03</totfact>
</mgrwt>
</event>
<event>
 4    1  0.6282309E-006  0.4768681E+03  0.7818608E-02  0.1019999E+00
          1   -1    0    0  501    0  0.00000000000E+00  0.00000000000E+00  0.70623671172E+03  0.70623671174E+03  0.50400000000E-02 0.  1.
         -1   -1    0    0    0  501 -0.00000000000E+00 -0.00000000000E+00 -0.80498223155E+02  0.80498223313E+02  0.50400000000E-02 0. -1.
    5000001    1    1    2    0    0 -0.10336751149E+03 -0.60478264689E+02  0.22391270538E+03  0.32261488273E+03  0.19900000000E+03 0.  0.
   -5000001    1    1    2    0    0  0.10336751149E+03  0.60478264689E+02  0.40182578319E+03  0.46412005232E+03  0.19900000000E+03 0.  0.
<mgrwt>
<rscale>  0 0.47686812E+03</rscale>
<asrwt>0</asrwt>
<pdfrwt beam="1">  1        1 0.10089096E+00 0.47686812E+03</pdfrwt>
<pdfrwt beam="2">  1       -1 0.11499746E-01 0.47686812E+03</pdfrwt>
<totfact> 0.15220948E+03</totfact>
</mgrwt>
</event>
<event>
 4    1  0.6282309E-006  0.5650385E+03  0.7818608E-02  0.9980718E-01
         -1   -1    0    0    0  501 -0.00000000000E+00  0.00000000000E+00  0.31584208281E+03  0.31584208285E+03  0.50400000000E-02 0. -1.
          1   -1    0    0  501    0  0.00000000000E+00 -0.00000000000E+00 -0.25271209524E+03  0.25271209529E+03  0.50400000000E-02 0.  1.
    5000001    1    1    2    0    0  0.14614318469E+03 -0.13684453044E+03  0.20010575855E+02  0.28299413260E+03  0.19900000000E+03 0.  0.
   -5000001    1    1    2    0    0 -0.14614318469E+03  0.13684453044E+03  0.43119411714E+02  0.28556004554E+03  0.19900000000E+03 0.  0.
<mgrwt>
<rscale>  0 0.56503846E+03</rscale>
<asrwt>0</asrwt>
<pdfrwt beam="1">  1        1 0.36101728E-01 0.56503846E+03</pdfrwt>
<pdfrwt beam="2">  1       -1 0.45120298E-01 0.56503846E+03</pdfrwt>
<totfact> 0.59368809E+02</totfact>
</mgrwt>
</event>
<event>
 4    1  0.6282309E-006  0.5738997E+03  0.7818608E-02  0.9961086E-01
          1   -1    0    0  501    0  0.00000000000E+00  0.00000000000E+00  0.85611896597E+02  0.85611896746E+02  0.50400000000E-02 0.  1.
         -1   -1    0    0    0  501 -0.00000000000E+00 -0.00000000000E+00 -0.96178462825E+03  0.96178462827E+03  0.50400000000E-02 0. -1.
    5000001    1    1    2    0    0 -0.17264881354E+03  0.50474963326E+02 -0.25211126186E+03  0.36812555344E+03  0.19900000000E+03 0.  0.
   -5000001    1    1    2    0    0  0.17264881354E+03 -0.50474963326E+02 -0.62406146980E+03  0.67927097157E+03  0.19900000000E+03 0.  0.
<mgrwt>
<rscale>  0 0.57389966E+03</rscale>
<asrwt>0</asrwt>
<pdfrwt beam="1">  1        1 0.12230271E-01 0.57389966E+03</pdfrwt>
<pdfrwt beam="2">  1       -1 0.13739780E+00 0.57389966E+03</pdfrwt>
<totfact> 0.22883153E+02</totfact>
</mgrwt>
</event>
<event>
 4    1  0.6282309E-006  0.6638791E+03  0.7818608E-02  0.9781079E-01
          1   -1    0    0  501    0  0.00000000000E+00  0.00000000000E+00  0.12716309105E+04  0.12716309105E+04  0.50400000000E-02 0.  1.
         -1   -1    0    0    0  501 -0.00000000000E+00 -0.00000000000E+00 -0.86647686379E+02  0.86647686525E+02  0.50400000000E-02 0. -1.
    5000001    1    1    2    0    0  0.13710322275E+03 -0.21104186486E+03  0.41832039272E+03  0.52718963702E+03  0.19900000000E+03 0.  0.
   -5000001    1    1    2    0    0 -0.13710322275E+03  0.21104186486E+03  0.76666283138E+03  0.83108896000E+03  0.19900000000E+03 0.  0.
<mgrwt>
<rscale>  0 0.66387913E+03</rscale>
<asrwt>0</asrwt>
<pdfrwt beam="1">  1        1 0.18166156E+00 0.66387913E+03</pdfrwt>
<pdfrwt beam="2">  1       -1 0.12378241E-01 0.66387913E+03</pdfrwt>
<totfact> 0.50325475E+02</totfact>
</mgrwt>
</event>
<event>
 4    1  0.6282309E-006  0.2058804E+04  0.7818608E-02  0.8579611E-01
          1   -1    0    0  501    0  0.00000000000E+00  0.00000000000E+00  0.33197743228E+04  0.33197743228E+04  0.50400000000E-02 0.  1.
         -1   -1    0    0    0  501 -0.00000000000E+00 -0.00000000000E+00 -0.31919901940E+03  0.31919901944E+03  0.50400000000E-02 0. -1.
    5000001    1    1    2    0    0 -0.61840624883E+03 -0.79524389825E+03  0.16280947472E+04  0.19248721132E+04  0.19900000000E+03 0.  0.
   -5000001    1    1    2    0    0  0.61840624883E+03  0.79524389825E+03  0.13724805562E+04  0.17141012291E+04  0.19900000000E+03 0.  0.
<mgrwt>
<rscale>  0 0.20588042E+04</rscale>
<asrwt>0</asrwt>
<pdfrwt beam="1">  1        1 0.47425348E+00 0.20588042E+04</pdfrwt>
<pdfrwt beam="2">  1       -1 0.45599859E-01 0.20588042E+04</pdfrwt>
<totfact> 0.23034449E+00</totfact>
</mgrwt>
</event>
<event>
 4    1  0.6282309E-006  0.5240686E+03  0.7818608E-02  0.1007681E+00
         -1   -1    0    0    0  501 -0.00000000000E+00  0.00000000000E+00  0.71112117600E+02  0.71112117779E+02  0.50400000000E-02 0. -1.
          1   -1    0    0  501    0  0.00000000000E+00 -0.00000000000E+00 -0.96554523486E+03  0.96554523487E+03  0.50400000000E-02 0.  1.
    5000001    1    1    2    0    0 -0.57247407241E+02  0.14589833234E+03 -0.31456059351E+03  0.40387245017E+03  0.19900000000E+03 0.  0.
   -5000001    1    1    2    0    0  0.57247407241E+02 -0.14589833234E+03 -0.57987252375E+03  0.63278490248E+03  0.19900000000E+03 0.  0.
<mgrwt>
<rscale>  0 0.52406857E+03</rscale>
<asrwt>0</asrwt>
<pdfrwt beam="1">  1        1 0.13793503E+00 0.52406857E+03</pdfrwt>
<pdfrwt beam="2">  1       -1 0.10158875E-01 0.52406857E+03</pdfrwt>
<totfact> 0.11387126E+03</totfact>
</mgrwt>
</event>
<event>
 4    1  0.6282309E-006  0.4980195E+03  0.7818608E-02  0.1014297E+00
         -1   -1    0    0    0  501 -0.00000000000E+00  0.00000000000E+00  0.20567718939E+03  0.20567718945E+03  0.50400000000E-02 0. -1.
          1   -1    0    0  501    0  0.00000000000E+00 -0.00000000000E+00 -0.30147173734E+03  0.30147173739E+03  0.50400000000E-02 0.  1.
    5000001    1    1    2    0    0 -0.39536361046E+02  0.13472840470E+03  0.49186284632E+01  0.24359815226E+03  0.19900000000E+03 0.  0.
   -5000001    1    1    2    0    0  0.39536361046E+02 -0.13472840470E+03 -0.10071317642E+03  0.26355077458E+03  0.19900000000E+03 0.  0.
<mgrwt>
<rscale>  0 0.49801952E+03</rscale>
<asrwt>0</asrwt>
<pdfrwt beam="1">  1        1 0.43067391E-01 0.49801952E+03</pdfrwt>
<pdfrwt beam="2">  1       -1 0.29382456E-01 0.49801952E+03</pdfrwt>
<totfact> 0.10171804E+03</totfact>
</mgrwt>
</event>
<event>
 4    1  0.6282309E-006  0.5069412E+03  0.7818608E-02  0.1011983E+00
          1   -1    0    0  501    0  0.00000000000E+00  0.00000000000E+00  0.10583834331E+03  0.10583834343E+03  0.50400000000E-02 0. -1.
         -1   -1    0    0    0  501 -0.00000000000E+00 -0.00000000000E+00 -0.60703274219E+03  0.60703274221E+03  0.50400000000E-02 0.  1.
    5000001    1    1    2    0    0 -0.32123164712E+02  0.15150110372E+03 -0.28677446476E+03  0.38187049608E+03  0.19900000000E+03 0.  0.
   -5000001    1    1    2    0    0  0.32123164712E+02 -0.15150110372E+03 -0.21441993412E+03  0.33100058956E+03  0.19900000000E+03 0.  0.
<mgrwt>
<rscale>  0 0.50694118E+03</rscale>
<asrwt>0</asrwt>
<pdfrwt beam="1">  1        1 0.15119764E-01 0.50694118E+03</pdfrwt>
<pdfrwt beam="2">  1       -1 0.86718961E-01 0.50694118E+03</pdfrwt>
<totfact> 0.50666032E+02</totfact>
</mgrwt>
</event>
<event>
 4    1  0.6282309E-006  0.6672812E+03  0.7818608E-02  0.9774882E-01
          1   -1    0    0  501    0  0.00000000000E+00  0.00000000000E+00  0.80054673660E+02  0.80054673819E+02  0.50400000000E-02 0.  1.
         -1   -1    0    0    0  501 -0.00000000000E+00 -0.00000000000E+00 -0.13905003266E+04  0.13905003266E+04  0.50400000000E-02 0. -1.
    5000001    1    1    2    0    0 -0.23326527101E+03  0.70690496056E+02 -0.41075763891E+03  0.51742890412E+03  0.19900000000E+03 0.  0.
   -5000001    1    1    2    0    0  0.23326527101E+03 -0.70690496056E+02 -0.89968801406E+03  0.95312609635E+03  0.19900000000E+03 0.  0.
<mgrwt>
<rscale>  0 0.66728120E+03</rscale>
<asrwt>0</asrwt>
<pdfrwt beam="1">  1        1 0.11436383E-01 0.66728120E+03</pdfrwt>
<pdfrwt beam="2">  1       -1 0.19864289E+00 0.66728120E+03</pdfrwt>
<totfact> 0.88174092E+01</totfact>
</mgrwt>
</event>
<event>
 4    1  0.6282309E-006  0.4331522E+03  0.7818608E-02  0.1032869E+00
         -1   -1    0    0    0  501 -0.00000000000E+00  0.00000000000E+00  0.99771410462E+03  0.99771410464E+03  0.50400000000E-02 0.  1.
          1   -1    0    0  501    0  0.00000000000E+00 -0.00000000000E+00 -0.47012669264E+02  0.47012669534E+02  0.50400000000E-02 0. -1.
    5000001    1    1    2    0    0  0.74685435932E+02 -0.25245063329E+02  0.39575836670E+03  0.44993434229E+03  0.19900000000E+03 0.  0.
   -5000001    1    1    2    0    0 -0.74685435932E+02  0.25245063329E+02  0.55494306866E+03  0.59479243188E+03  0.19900000000E+03 0.  0.
<mgrwt>
<rscale>  0 0.43315218E+03</rscale>
<asrwt>0</asrwt>
<pdfrwt beam="1">  1        1 0.67160965E-02 0.43315218E+03</pdfrwt>
<pdfrwt beam="2">  1       -1 0.14253057E+00 0.43315218E+03</pdfrwt>
<totfact> 0.47698657E+02</totfact>
</mgrwt>
</event>
<event>
 4    1  0.6282309E-006  0.5084261E+03  0.7818608E-02  0.1011603E+00
          1   -1    0    0  501    0  0.00000000000E+00  0.00000000000E+00  0.14786905096E+04  0.14786905096E+04  0.50400000000E-02 0.  1.
         -1   -1    0    0    0  501 -0.00000000000E+00 -0.00000000000E+00 -0.43703717079E+02  0.43703717369E+02  0.50400000000E-02 0. -1.
    5000001    1    1    2    0    0 -0.74115470486E+02  0.10725220468E+03  0.98576798941E+03  0.10140688671E+04  0.19900000000E+03 0.  0.
   -5000001    1    1    2    0    0  0.74115470486E+02 -0.10725220468E+03  0.44921880309E+03  0.50832535980E+03  0.19900000000E+03 0.  0.
<mgrwt>
<rscale>  0 0.50842609E+03</rscale>
<asrwt>0</asrwt>
<pdfrwt beam="1">  1        1 0.21124149E+00 0.50842609E+03</pdfrwt>
<pdfrwt beam="2">  1       -1 0.62433884E-02 0.50842609E+03</pdfrwt>
<totfact> 0.10836241E+03</totfact>
</mgrwt>
</event>
<event>
 4    1  0.6282309E-006  0.9933490E+03  0.7818608E-02  0.9315870E-01
         -1   -1    0    0    0  501 -0.00000000000E+00  0.00000000000E+00  0.85574616382E+02  0.85574616531E+02  0.50400000000E-02 0. -1.
          1   -1    0    0  501    0  0.00000000000E+00 -0.00000000000E+00 -0.28826953961E+04  0.28826953961E+04  0.50400000000E-02 0.  1.
    5000001    1    1    2    0    0  0.36661356541E+01  0.44944501516E+03 -0.11857866728E+04  0.12836297346E+04  0.19900000000E+03 0.  0.
   -5000001    1    1    2    0    0 -0.36661356541E+01 -0.44944501516E+03 -0.16113341069E+04  0.16846402780E+04  0.19900000000E+03 0.  0.
<mgrwt>
<rscale>  0 0.99334899E+03</rscale>
<asrwt>0</asrwt>
<pdfrwt beam="1">  1        1 0.41181357E+00 0.99334899E+03</pdfrwt>
<pdfrwt beam="2">  1       -1 0.12224947E-01 0.99334899E+03</pdfrwt>
<totfact> 0.47640422E+01</totfact>
</mgrwt>
</event>
<event>
 4    1  0.6282309E-006  0.6251506E+03  0.7818608E-02  0.9854558E-01
          1   -1    0    0  501    0  0.00000000000E+00  0.00000000000E+00  0.62271734067E+03  0.62271734069E+03  0.50400000000E-02 0.  1.
         -1   -1    0    0    0  501 -0.00000000000E+00 -0.00000000000E+00 -0.15689832956E+03  0.15689832964E+03  0.50400000000E-02 0. -1.
    5000001    1    1    2    0    0 -0.18511918711E+03  0.15380091018E+03  0.24956997580E+03  0.39976243725E+03  0.19900000000E+03 0.  0.
   -5000001    1    1    2    0    0  0.18511918711E+03 -0.15380091018E+03  0.21624903531E+03  0.37985323308E+03  0.19900000000E+03 0.  0.
<mgrwt>
<rscale>  0 0.62515058E+03</rscale>
<asrwt>0</asrwt>
<pdfrwt beam="1">  1        1 0.88959620E-01 0.62515058E+03</pdfrwt>
<pdfrwt beam="2">  1       -1 0.22414047E-01 0.62515058E+03</pdfrwt>
<totfact> 0.61434809E+02</totfact>
</mgrwt>
</event>
<event>
 4    1  0.6282309E-006  0.1081047E+04  0.7818608E-02  0.9223864E-01
          1   -1    0    0  501    0  0.00000000000E+00  0.00000000000E+00  0.10919843740E+04  0.10919843740E+04  0.50400000000E-02 0.  1.
         -1   -1    0    0    0  501 -0.00000000000E+00 -0.00000000000E+00 -0.26755469798E+03  0.26755469802E+03  0.50400000000E-02 0. -1.
    5000001    1    1    2    0    0 -0.36168336329E+03  0.12543339899E+03  0.27343398164E+01  0.43145900092E+03  0.19900000000E+03 0.  0.
   -5000001    1    1    2    0    0  0.36168336329E+03 -0.12543339899E+03  0.82169533624E+03  0.92808007115E+03  0.19900000000E+03 0.  0.
<mgrwt>
<rscale>  0 0.10810468E+04</rscale>
<asrwt>0</asrwt>
<pdfrwt beam="1">  1        1 0.15599777E+00 0.10810468E+04</pdfrwt>
<pdfrwt beam="2">  1       -1 0.38222100E-01 0.10810468E+04</pdfrwt>
<totfact> 0.97348374E+01</totfact>
</mgrwt>
</event>
<event>
 4    1  0.6282309E-006  0.5927920E+03  0.7818608E-02  0.9920474E-01
          1   -1    0    0  501    0  0.00000000000E+00  0.00000000000E+00  0.13759200362E+03  0.13759200371E+03  0.50400000000E-02 0.  1.
         -1   -1    0    0    0  501 -0.00000000000E+00 -0.00000000000E+00 -0.63848612205E+03  0.63848612207E+03  0.50400000000E-02 0. -1.
    5000001    1    1    2    0    0 -0.11488600233E+03 -0.83749754046E+02 -0.46966046434E+03  0.52952315020E+03  0.19900000000E+03 0.  0.
   -5000001    1    1    2    0    0  0.11488600233E+03  0.83749754046E+02 -0.31233654087E+02  0.24655497558E+03  0.19900000000E+03 0.  0.
<mgrwt>
<rscale>  0 0.59279199E+03</rscale>
<asrwt>0</asrwt>
<pdfrwt beam="1">  1        1 0.19656001E-01 0.59279199E+03</pdfrwt>
<pdfrwt beam="2">  1       -1 0.91212302E-01 0.59279199E+03</pdfrwt>
<totfact> 0.31954019E+02</totfact>
</mgrwt>
</event>
<event>
 4    1  0.6282309E-006  0.6430000E+03  0.7818608E-02  0.9820004E-01
          1   -1    0    0  501    0  0.00000000000E+00  0.00000000000E+00  0.17869556883E+04  0.17869556883E+04  0.50400000000E-02 0.  1.
         -1   -1    0    0    0  501 -0.00000000000E+00 -0.00000000000E+00 -0.57842642448E+02  0.57842642668E+02  0.50400000000E-02 0. -1.
    5000001    1    1    2    0    0 -0.11607019828E+03 -0.15167096529E+03  0.39064325934E+03  0.47820448420E+03  0.19900000000E+03 0.  0.
   -5000001    1    1    2    0    0  0.11607019828E+03  0.15167096529E+03  0.13384697865E+04  0.13665938468E+04  0.19900000000E+03 0.  0.
<mgrwt>
<rscale>  0 0.64299997E+03</rscale>
<asrwt>0</asrwt>
<pdfrwt beam="1">  1        1 0.25527939E+00 0.64299997E+03</pdfrwt>
<pdfrwt beam="2">  1       -1 0.82632345E-02 0.64299997E+03</pdfrwt>
<totfact> 0.44522126E+02</totfact>
</mgrwt>
</event>
<event>
 4    1  0.6282309E-006  0.5623585E+03  0.7818608E-02  0.9986732E-01
          1   -1    0    0  501    0  0.00000000000E+00  0.00000000000E+00  0.16319761162E+03  0.16319761169E+03  0.50400000000E-02 0.  1.
         -1   -1    0    0    0  501 -0.00000000000E+00 -0.00000000000E+00 -0.48445415316E+03  0.48445415319E+03  0.50400000000E-02 0. -1.
    5000001    1    1    2    0    0 -0.18837040476E+03  0.19700228383E+02 -0.22962528778E+03  0.35805066845E+03  0.19900000000E+03 0.  0.
   -5000001    1    1    2    0    0  0.18837040476E+03 -0.19700228383E+02 -0.91631253764E+02  0.28960109643E+03  0.19900000000E+03 0.  0.
<mgrwt>
<rscale>  0 0.56235846E+03</rscale>
<asrwt>0</asrwt>
<pdfrwt beam="1">  1        1 0.23313945E-01 0.56235846E+03</pdfrwt>
<pdfrwt beam="2">  1       -1 0.69207735E-01 0.56235846E+03</pdfrwt>
<totfact> 0.45760748E+02</totfact>
</mgrwt>
</event>
<event>
 4    1  0.6282309E-006  0.7469611E+03  0.7818608E-02  0.9640130E-01
          1   -1    0    0  501    0  0.00000000000E+00  0.00000000000E+00  0.55286036139E+03  0.55286036142E+03  0.50400000000E-02 0. -1.
         -1   -1    0    0    0  501 -0.00000000000E+00 -0.00000000000E+00 -0.25230192805E+03  0.25230192810E+03  0.50400000000E-02 0.  1.
    5000001    1    1    2    0    0  0.19651326035E+03 -0.21919127162E+03  0.26321264061E+02  0.35630897265E+03  0.19900000000E+03 0.  0.
   -5000001    1    1    2    0    0 -0.19651326035E+03  0.21919127162E+03  0.27423716928E+03  0.44885331687E+03  0.19900000000E+03 0.  0.
<mgrwt>
<rscale>  0 0.74696114E+03</rscale>
<asrwt>0</asrwt>
<pdfrwt beam="1">  1        1 0.78980053E-01 0.74696114E+03</pdfrwt>
<pdfrwt beam="2">  1       -1 0.36043132E-01 0.74696114E+03</pdfrwt>
<totfact> 0.31766707E+02</totfact>
</mgrwt>
</event>
<event>
 4    1  0.6282309E-006  0.4540238E+03  0.7818608E-02  0.1026529E+00
         -1   -1    0    0    0  501 -0.00000000000E+00  0.00000000000E+00  0.34870713297E+02  0.34870713661E+02  0.50400000000E-02 0.  1.
          1   -1    0    0  501    0  0.00000000000E+00 -0.00000000000E+00 -0.14778707099E+04  0.14778707099E+04  0.50400000000E-02 0. -1.
    5000001    1    1    2    0    0  0.81671505054E+02  0.64661322040E+02 -0.61189844410E+03  0.65182208248E+03  0.19900000000E+03 0.  0.
   -5000001    1    1    2    0    0 -0.81671505054E+02 -0.64661322040E+02 -0.83110155252E+03  0.86091934112E+03  0.19900000000E+03 0.  0.
<mgrwt>
<rscale>  0 0.45402381E+03</rscale>
<asrwt>0</asrwt>
<pdfrwt beam="1">  1        1 0.21112435E+00 0.45402381E+03</pdfrwt>
<pdfrwt beam="2">  1       -1 0.49815314E-02 0.45402381E+03</pdfrwt>
<totfact> 0.15349554E+03</totfact>
</mgrwt>
</event>
<event>
 4    1  0.6282309E-006  0.5075287E+03  0.7818608E-02  0.1011832E+00
         -1   -1    0    0    0  501 -0.00000000000E+00  0.00000000000E+00  0.10795067965E+04  0.10795067965E+04  0.50400000000E-02 0.  1.
          1   -1    0    0  501    0  0.00000000000E+00 -0.00000000000E+00 -0.59653490306E+02  0.59653490519E+02  0.50400000000E-02 0. -1.
    5000001    1    1    2    0    0  0.14075553314E+03  0.61926191946E+02  0.43386494342E+03  0.50148455857E+03  0.19900000000E+03 0.  0.
   -5000001    1    1    2    0    0 -0.14075553314E+03 -0.61926191946E+02  0.58598836277E+03  0.63767572846E+03  0.19900000000E+03 0.  0.
<mgrwt>
<rscale>  0 0.50752871E+03</rscale>
<asrwt>0</asrwt>
<pdfrwt beam="1">  1        1 0.85219277E-02 0.50752871E+03</pdfrwt>
<pdfrwt beam="2">  1       -1 0.15421525E+00 0.50752871E+03</pdfrwt>
<totfact> 0.27778652E+02</totfact>
</mgrwt>
</event>
<event>
 4    1  0.6282309E-006  0.9574099E+03  0.7818608E-02  0.9356531E-01
          1   -1    0    0  501    0  0.00000000000E+00  0.00000000000E+00  0.11951184454E+04  0.11951184454E+04  0.50400000000E-02 0.  1.
         -1   -1    0    0    0  501 -0.00000000000E+00 -0.00000000000E+00 -0.19174537567E+03  0.19174537574E+03  0.50400000000E-02 0. -1.
    5000001    1    1    2    0    0 -0.22409369564E+03  0.37139629369E+03  0.55596870207E+03  0.73270416204E+03  0.19900000000E+03 0.  0.
   -5000001    1    1    2    0    0  0.22409369564E+03 -0.37139629369E+03  0.44740436764E+03  0.65415965909E+03  0.19900000000E+03 0.  0.
<mgrwt>
<rscale>  0 0.95740991E+03</rscale>
<asrwt>0</asrwt>
<pdfrwt beam="1">  1        1 0.17073121E+00 0.95740991E+03</pdfrwt>
<pdfrwt beam="2">  1       -1 0.27392196E-01 0.95740991E+03</pdfrwt>
<totfact> 0.14952501E+02</totfact>
</mgrwt>
</event>
<event>
 4    1  0.6282309E-006  0.6930266E+03  0.7818608E-02  0.9729233E-01
          1   -1    0    0  501    0  0.00000000000E+00  0.00000000000E+00  0.10319754289E+03  0.10319754301E+03  0.50400000000E-02 0.  1.
         -1   -1    0    0    0  501 -0.00000000000E+00 -0.00000000000E+00 -0.11635107789E+04  0.11635107790E+04  0.50400000000E-02 0. -1.
    5000001    1    1    2    0    0 -0.18995378856E+03 -0.21051959711E+03 -0.54539551901E+03  0.64611006393E+03  0.19900000000E+03 0.  0.
   -5000001    1    1    2    0    0  0.18995378856E+03  0.21051959711E+03 -0.51491771705E+03  0.62059825804E+03  0.19900000000E+03 0.  0.
<mgrwt>
<rscale>  0 0.69302656E+03</rscale>
<asrwt>0</asrwt>
<pdfrwt beam="1">  1        1 0.14742507E-01 0.69302656E+03</pdfrwt>
<pdfrwt beam="2">  1       -1 0.16621582E+00 0.69302656E+03</pdfrwt>
<totfact> 0.10583205E+02</totfact>
</mgrwt>
</event>
<event>
 4    1  0.6282309E-006  0.4470580E+03  0.7818608E-02  0.1028603E+00
          1   -1    0    0  501    0  0.00000000000E+00  0.00000000000E+00  0.17461764109E+04  0.17461764109E+04  0.50400000000E-02 0. -1.
         -1   -1    0    0    0  501 -0.00000000000E+00 -0.00000000000E+00 -0.28614071853E+02  0.28614072297E+02  0.50400000000E-02 0.  1.
    5000001    1    1    2    0    0  0.99216589829E+02  0.21768100170E+02  0.88583381258E+03  0.91357557181E+03  0.19900000000E+03 0.  0.
   -5000001    1    1    2    0    0 -0.99216589829E+02 -0.21768100170E+02  0.83172852644E+03  0.86121491137E+03  0.19900000000E+03 0.  0.
<mgrwt>
<rscale>  0 0.44705802E+03</rscale>
<asrwt>0</asrwt>
<pdfrwt beam="1">  1        1 0.24945385E+00 0.44705802E+03</pdfrwt>
<pdfrwt beam="2">  1       -1 0.40877233E-02 0.44705802E+03</pdfrwt>
<totfact> 0.14060936E+03</totfact>
</mgrwt>
</event>
<event>
 4    1  0.6282309E-006  0.4619060E+03  0.7818608E-02  0.1024230E+00
         -1   -1    0    0    0  501 -0.00000000000E+00  0.00000000000E+00  0.49706015166E+02  0.49706015421E+02  0.50400000000E-02 0. -1.
          1   -1    0    0  501    0  0.00000000000E+00 -0.00000000000E+00 -0.10730951696E+04  0.10730951697E+04  0.50400000000E-02 0.  1.
    5000001    1    1    2    0    0  0.74537730967E+02 -0.90417987105E+02 -0.50526365315E+03  0.55553905796E+03  0.19900000000E+03 0.  0.
   -5000001    1    1    2    0    0 -0.74537730967E+02  0.90417987105E+02 -0.51812550133E+03  0.56726212712E+03  0.19900000000E+03 0.  0.
<mgrwt>
<rscale>  0 0.46190599E+03</rscale>
<asrwt>0</asrwt>
<pdfrwt beam="1">  1        1 0.15329930E+00 0.46190599E+03</pdfrwt>
<pdfrwt beam="2">  1       -1 0.71008600E-02 0.46190599E+03</pdfrwt>
<totfact> 0.16624965E+03</totfact>
</mgrwt>
</event>
<event>
 4    1  0.6282309E-006  0.1216870E+04  0.7818608E-02  0.9098217E-01
          1   -1    0    0  501    0  0.00000000000E+00  0.00000000000E+00  0.64843156300E+03  0.64843156302E+03  0.50400000000E-02 0.  1.
         -1   -1    0    0    0  501 -0.00000000000E+00 -0.00000000000E+00 -0.57090560404E+03  0.57090560406E+03  0.50400000000E-02 0. -1.
    5000001    1    1    2    0    0  0.65401783691E+02 -0.51166497326E+03  0.29327354597E+03  0.62585047011E+03  0.19900000000E+03 0.  0.
   -5000001    1    1    2    0    0 -0.65401783691E+02  0.51166497326E+03 -0.21574758701E+03  0.59348669697E+03  0.19900000000E+03 0.  0.
<mgrwt>
<rscale>  0 0.12168701E+04</rscale>
<asrwt>0</asrwt>
<pdfrwt beam="1">  1        1 0.92633081E-01 0.12168701E+04</pdfrwt>
<pdfrwt beam="2">  1       -1 0.81557943E-01 0.12168701E+04</pdfrwt>
<totfact> 0.50511741E+01</totfact>
</mgrwt>
</event>
<event>
 4    1  0.6282309E-006  0.4382324E+03  0.7818608E-02  0.1031291E+00
          1   -1    0    0  501    0  0.00000000000E+00  0.00000000000E+00  0.24686498593E+03  0.24686498598E+03  0.50400000000E-02 0.  1.
         -1   -1    0    0    0  501 -0.00000000000E+00 -0.00000000000E+00 -0.19448647123E+03  0.19448647130E+03  0.50400000000E-02 0. -1.
    5000001    1    1    2    0    0 -0.77372594756E+02 -0.49025388848E+02  0.21585855878E+02  0.22012940818E+03  0.19900000000E+03 0.  0.
   -5000001    1    1    2    0    0  0.77372594756E+02  0.49025388848E+02  0.30792658819E+02  0.22122204910E+03  0.19900000000E+03 0.  0.
<mgrwt>
<rscale>  0 0.43823236E+03</rscale>
<asrwt>0</asrwt>
<pdfrwt beam="1">  1        1 0.35266426E-01 0.43823236E+03</pdfrwt>
<pdfrwt beam="2">  1       -1 0.27783782E-01 0.43823236E+03</pdfrwt>
<totfact> 0.14448083E+03</totfact>
</mgrwt>
</event>
<event>
 4    1  0.6282309E-006  0.8069723E+03  0.7818608E-02  0.9549980E-01
          1   -1    0    0  501    0  0.00000000000E+00  0.00000000000E+00  0.25039132553E+03  0.25039132558E+03  0.50400000000E-02 0. -1.
         -1   -1    0    0    0  501 -0.00000000000E+00 -0.00000000000E+00 -0.65018650473E+03  0.65018650475E+03  0.50400000000E-02 0.  1.
    5000001    1    1    2    0    0  0.33210447599E+03  0.21899485007E+01 -0.73135563349E+02  0.39401521477E+03  0.19900000000E+03 0.  0.
   -5000001    1    1    2    0    0 -0.33210447599E+03 -0.21899485007E+01 -0.32665961585E+03  0.50656261555E+03  0.19900000000E+03 0.  0.
<mgrwt>
<rscale>  0 0.80697227E+03</rscale>
<asrwt>0</asrwt>
<pdfrwt beam="1">  1        1 0.35770190E-01 0.80697227E+03</pdfrwt>
<pdfrwt beam="2">  1       -1 0.92883786E-01 0.80697227E+03</pdfrwt>
<totfact> 0.13922753E+02</totfact>
</mgrwt>
</event>
<event>
 4    1  0.6282309E-006  0.7801392E+03  0.7818608E-02  0.9589218E-01
          1   -1    0    0  501    0  0.00000000000E+00  0.00000000000E+00  0.63860609956E+03  0.63860609958E+03  0.50400000000E-02 0. -1.
         -1   -1    0    0    0  501 -0.00000000000E+00 -0.00000000000E+00 -0.23826002690E+03  0.23826002695E+03  0.50400000000E-02 0.  1.
    5000001    1    1    2    0    0 -0.31076614575E+03  0.11528893601E+03  0.25842733140E+03  0.46502991487E+03  0.19900000000E+03 0.  0.
   -5000001    1    1    2    0    0  0.31076614575E+03 -0.11528893601E+03  0.14191874126E+03  0.41183621166E+03  0.19900000000E+03 0.  0.
<mgrwt>
<rscale>  0 0.78013923E+03</rscale>
<asrwt>0</asrwt>
<pdfrwt beam="1">  1        1 0.91229444E-01 0.78013923E+03</pdfrwt>
<pdfrwt beam="2">  1       -1 0.34037146E-01 0.78013923E+03</pdfrwt>
<totfact> 0.28678881E+02</totfact>
</mgrwt>
</event>
<event>
 4    1  0.6282309E-006  0.4623380E+03  0.7818608E-02  0.1024105E+00
         -1   -1    0    0    0  501 -0.00000000000E+00  0.00000000000E+00  0.46236972022E+02  0.46236972297E+02  0.50400000000E-02 0. -1.
          1   -1    0    0  501    0  0.00000000000E+00 -0.00000000000E+00 -0.11557655697E+04  0.11557655698E+04  0.50400000000E-02 0.  1.
    5000001    1    1    2    0    0  0.57217379587E+02  0.46672029480E+02 -0.31668420521E+03  0.38123744922E+03  0.19900000000E+03 0.  0.
   -5000001    1    1    2    0    0 -0.57217379587E+02 -0.46672029480E+02 -0.79284439251E+03  0.82076509283E+03  0.19900000000E+03 0.  0.
<mgrwt>
<rscale>  0 0.46233797E+03</rscale>
<asrwt>0</asrwt>
<pdfrwt beam="1">  1        1 0.16510935E+00 0.46233797E+03</pdfrwt>
<pdfrwt beam="2">  1       -1 0.66052824E-02 0.46233797E+03</pdfrwt>
<totfact> 0.16267980E+03</totfact>
</mgrwt>
</event>
<event>
 4    1  0.6282309E-006  0.8866168E+03  0.7818608E-02  0.9442467E-01
         -1   -1    0    0    0  501 -0.00000000000E+00  0.00000000000E+00  0.98429814123E+02  0.98429814252E+02  0.50400000000E-02 0. -1.
          1   -1    0    0  501    0  0.00000000000E+00 -0.00000000000E+00 -0.19965731021E+04  0.19965731021E+04  0.50400000000E-02 0.  1.
    5000001    1    1    2    0    0 -0.27643684395E+03  0.26803967395E+03 -0.72919675012E+03  0.84828738992E+03  0.19900000000E+03 0.  0.
   -5000001    1    1    2    0    0  0.27643684395E+03 -0.26803967395E+03 -0.11689465378E+04  0.12467155264E+04  0.19900000000E+03 0.  0.
<mgrwt>
<rscale>  0 0.88661676E+03</rscale>
<asrwt>0</asrwt>
<pdfrwt beam="1">  1        1 0.28522470E+00 0.88661676E+03</pdfrwt>
<pdfrwt beam="2">  1       -1 0.14061403E-01 0.88661676E+03</pdfrwt>
<totfact> 0.13885762E+02</totfact>
</mgrwt>
</event>
<event>
 4    1  0.6282309E-006  0.1312196E+04  0.7818608E-02  0.9019949E-01
         -1   -1    0    0    0  501 -0.00000000000E+00  0.00000000000E+00  0.84829720545E+03  0.84829720546E+03  0.50400000000E-02 0. -1.
          1   -1    0    0  501    0  0.00000000000E+00 -0.00000000000E+00 -0.50744581445E+03  0.50744581448E+03  0.50400000000E-02 0.  1.
    5000001    1    1    2    0    0 -0.50201418724E+03 -0.23121380891E+03 -0.13148002600E+03  0.60196849324E+03  0.19900000000E+03 0.  0.
   -5000001    1    1    2    0    0  0.50201418724E+03  0.23121380891E+03  0.47233141699E+03  0.75377452670E+03  0.19900000000E+03 0.  0.
<mgrwt>
<rscale>  0 0.13121964E+04</rscale>
<asrwt>0</asrwt>
<pdfrwt beam="1">  1        1 0.72492259E-01 0.13121964E+04</pdfrwt>
<pdfrwt beam="2">  1       -1 0.12118532E+00 0.13121964E+04</pdfrwt>
<totfact> 0.28584525E+01</totfact>
</mgrwt>
</event>
<event>
 4    1  0.6282309E-006  0.5560490E+03  0.7818608E-02  0.1000103E+00
         -1   -1    0    0    0  501 -0.00000000000E+00  0.00000000000E+00  0.47111963697E+03  0.47111963699E+03  0.50400000000E-02 0. -1.
          1   -1    0    0  501    0  0.00000000000E+00 -0.00000000000E+00 -0.16407216810E+03  0.16407216818E+03  0.50400000000E-02 0.  1.
    5000001    1    1    2    0    0 -0.17842887379E+03 -0.55379417582E+02  0.21389326036E+03  0.34677812751E+03  0.19900000000E+03 0.  0.
   -5000001    1    1    2    0    0  0.17842887379E+03  0.55379417582E+02  0.93154208509E+02  0.28841367765E+03  0.19900000000E+03 0.  0.
<mgrwt>
<rscale>  0 0.55604899E+03</rscale>
<asrwt>0</asrwt>
<pdfrwt beam="1">  1        1 0.23438881E-01 0.55604899E+03</pdfrwt>
<pdfrwt beam="2">  1       -1 0.67302804E-01 0.55604899E+03</pdfrwt>
<totfact> 0.48086735E+02</totfact>
</mgrwt>
</event>
<event>
 4    1  0.6282309E-006  0.6200776E+03  0.7818608E-02  0.9864605E-01
          1   -1    0    0  501    0  0.00000000000E+00  0.00000000000E+00  0.38236920484E+03  0.38236920487E+03  0.50400000000E-02 0.  1.
         -1   -1    0    0    0  501 -0.00000000000E+00 -0.00000000000E+00 -0.25139068872E+03  0.25139068877E+03  0.50400000000E-02 0. -1.
    5000001    1    1    2    0    0  0.14422580365E+03  0.17106068678E+03  0.14763825296E+03  0.33385759650E+03  0.19900000000E+03 0.  0.
   -5000001    1    1    2    0    0 -0.14422580365E+03 -0.17106068678E+03 -0.16659736839E+02  0.29990229715E+03  0.19900000000E+03 0.  0.
<mgrwt>
<rscale>  0 0.62007760E+03</rscale>
<asrwt>0</asrwt>
<pdfrwt beam="1">  1        1 0.54624172E-01 0.62007760E+03</pdfrwt>
<pdfrwt beam="2">  1       -1 0.35912956E-01 0.62007760E+03</pdfrwt>
<totfact> 0.52558290E+02</totfact>
</mgrwt>
</event>
<event>
 4    1  0.6282309E-006  0.5391523E+03  0.7818608E-02  0.1004036E+00
          1   -1    0    0  501    0  0.00000000000E+00  0.00000000000E+00  0.31706192793E+03  0.31706192797E+03  0.50400000000E-02 0.  1.
         -1   -1    0    0    0  501 -0.00000000000E+00 -0.00000000000E+00 -0.22920219298E+03  0.22920219303E+03  0.50400000000E-02 0. -1.
    5000001    1    1    2    0    0 -0.15624000560E+03  0.68851151013E+02 -0.19496759256E+02  0.26293068282E+03  0.19900000000E+03 0.  0.
   -5000001    1    1    2    0    0  0.15624000560E+03 -0.68851151013E+02  0.10735649421E+03  0.28333343819E+03  0.19900000000E+03 0.  0.
<mgrwt>
<rscale>  0 0.53915226E+03</rscale>
<asrwt>0</asrwt>
<pdfrwt beam="1">  1        1 0.45294561E-01 0.53915226E+03</pdfrwt>
<pdfrwt beam="2">  1       -1 0.32743171E-01 0.53915226E+03</pdfrwt>
<totfact> 0.78963904E+02</totfact>
</mgrwt>
</event>
<event>
 4    1  0.6282309E-006  0.5428697E+03  0.7818608E-02  0.1003158E+00
         -1   -1    0    0    0  501 -0.00000000000E+00  0.00000000000E+00  0.97266328175E+02  0.97266328305E+02  0.50400000000E-02 0.  1.
          1   -1    0    0  501    0  0.00000000000E+00 -0.00000000000E+00 -0.75747573047E+03  0.75747573049E+03  0.50400000000E-02 0. -1.
    5000001    1    1    2    0    0  0.54313198296E+02 -0.12573920558E+03 -0.13525191032E+03  0.27686522095E+03  0.19900000000E+03 0.  0.
   -5000001    1    1    2    0    0 -0.54313198296E+02  0.12573920558E+03 -0.52495749197E+03  0.57787683784E+03  0.19900000000E+03 0.  0.
<mgrwt>
<rscale>  0 0.54286972E+03</rscale>
<asrwt>0</asrwt>
<pdfrwt beam="1">  1        1 0.10821082E+00 0.54286972E+03</pdfrwt>
<pdfrwt beam="2">  1       -1 0.13895190E-01 0.54286972E+03</pdfrwt>
<totfact> 0.10142349E+03</totfact>
</mgrwt>
</event>
<event>
 4    1  0.6282309E-006  0.6863805E+03  0.7818608E-02  0.9740811E-01
         -1   -1    0    0    0  501 -0.00000000000E+00  0.00000000000E+00  0.63842729655E+02  0.63842729854E+02  0.50400000000E-02 0. -1.
          1   -1    0    0  501    0  0.00000000000E+00 -0.00000000000E+00 -0.18448389151E+04  0.18448389151E+04  0.50400000000E-02 0.  1.
    5000001    1    1    2    0    0 -0.21610185886E+03  0.12177165230E+03 -0.53167670119E+03  0.61952357767E+03  0.19900000000E+03 0.  0.
   -5000001    1    1    2    0    0  0.21610185886E+03 -0.12177165230E+03 -0.12493194843E+04  0.12891580673E+04  0.19900000000E+03 0.  0.
<mgrwt>
<rscale>  0 0.68638051E+03</rscale>
<asrwt>0</asrwt>
<pdfrwt beam="1">  1        1 0.26354838E+00 0.68638051E+03</pdfrwt>
<pdfrwt beam="2">  1       -1 0.91203911E-02 0.68638051E+03</pdfrwt>
<totfact> 0.34991143E+02</totfact>
</mgrwt>
</event>
<event>
 4    1  0.6282309E-006  0.5296847E+03  0.7818608E-02  0.1006309E+00
          1   -1    0    0  501    0  0.00000000000E+00  0.00000000000E+00  0.38206774308E+03  0.38206774311E+03  0.50400000000E-02 0. -1.
         -1   -1    0    0    0  501 -0.00000000000E+00 -0.00000000000E+00 -0.18358387884E+03  0.18358387891E+03  0.50400000000E-02 0.  1.
    5000001    1    1    2    0    0 -0.11559559112E+03 -0.81481547176E+02 -0.10387994648E+02  0.24435730734E+03  0.19900000000E+03 0.  0.
   -5000001    1    1    2    0    0  0.11559559112E+03  0.81481547176E+02  0.20887185888E+03  0.32129431469E+03  0.19900000000E+03 0.  0.
<mgrwt>
<rscale>  0 0.52968473E+03</rscale>
<asrwt>0</asrwt>
<pdfrwt beam="1">  1        1 0.54581105E-01 0.52968473E+03</pdfrwt>
<pdfrwt beam="2">  1       -1 0.26226269E-01 0.52968473E+03</pdfrwt>
<totfact> 0.91055287E+02</totfact>
</mgrwt>
</event>
<event>
 4    1  0.6282309E-006  0.5326460E+03  0.7818608E-02  0.1005592E+00
         -1   -1    0    0    0  501 -0.00000000000E+00  0.00000000000E+00  0.55840179902E+02  0.55840180130E+02  0.50400000000E-02 0.  1.
          1   -1    0    0  501    0  0.00000000000E+00 -0.00000000000E+00 -0.12701952027E+04  0.12701952027E+04  0.50400000000E-02 0. -1.
    5000001    1    1    2    0    0  0.99961641835E+02  0.14345314543E+03 -0.67561880390E+03  0.72569477258E+03  0.19900000000E+03 0.  0.
   -5000001    1    1    2    0    0 -0.99961641835E+02 -0.14345314543E+03 -0.53873621891E+03  0.60034061027E+03  0.19900000000E+03 0.  0.
<mgrwt>
<rscale>  0 0.53264596E+03</rscale>
<asrwt>0</asrwt>
<pdfrwt beam="1">  1        1 0.18145644E+00 0.53264596E+03</pdfrwt>
<pdfrwt beam="2">  1       -1 0.79771693E-02 0.53264596E+03</pdfrwt>
<totfact> 0.10143126E+03</totfact>
</mgrwt>
</event>
<event>
 4    1  0.6282309E-006  0.1791342E+04  0.7818608E-02  0.8710917E-01
          1   -1    0    0  501    0  0.00000000000E+00  0.00000000000E+00  0.61788990123E+03  0.61788990125E+03  0.50400000000E-02 0. -1.
         -1   -1    0    0    0  501 -0.00000000000E+00 -0.00000000000E+00 -0.12983330236E+04  0.12983330236E+04  0.50400000000E-02 0.  1.
    5000001    1    1    2    0    0 -0.48919889059E+03 -0.66744308693E+03 -0.63865057791E+03  0.10640824167E+04  0.19900000000E+03 0.  0.
   -5000001    1    1    2    0    0  0.48919889059E+03  0.66744308693E+03 -0.41792544447E+02  0.85214050815E+03  0.19900000000E+03 0.  0.
<mgrwt>
<rscale>  0 0.17913424E+04</rscale>
<asrwt>0</asrwt>
<pdfrwt beam="1">  1        1 0.88269987E-01 0.17913424E+04</pdfrwt>
<pdfrwt beam="2">  1       -1 0.18547614E+00 0.17913424E+04</pdfrwt>
<totfact> 0.65818496E+00</totfact>
</mgrwt>
</event>
<event>
 4    1  0.6282309E-006  0.5170125E+03  0.7818608E-02  0.1009431E+00
         -1   -1    0    0    0  501 -0.00000000000E+00  0.00000000000E+00  0.63887261956E+02  0.63887262155E+02  0.50400000000E-02 0. -1.
          1   -1    0    0  501    0  0.00000000000E+00 -0.00000000000E+00 -0.10459908118E+04  0.10459908118E+04  0.50400000000E-02 0.  1.
    5000001    1    1    2    0    0  0.16421275798E+03 -0.59010787484E+01 -0.52316912140E+03  0.58335887942E+03  0.19900000000E+03 0.  0.
   -5000001    1    1    2    0    0 -0.16421275798E+03  0.59010787484E+01 -0.45893442846E+03  0.52651919456E+03  0.19900000000E+03 0.  0.
<mgrwt>
<rscale>  0 0.51701253E+03</rscale>
<asrwt>0</asrwt>
<pdfrwt beam="1">  1        1 0.14942725E+00 0.51701253E+03</pdfrwt>
<pdfrwt beam="2">  1       -1 0.91267523E-02 0.51701253E+03</pdfrwt>
<totfact> 0.11760765E+03</totfact>
</mgrwt>
</event>
<event>
 4    1  0.6282309E-006  0.5265324E+03  0.7818608E-02  0.1007077E+00
          1   -1    0    0  501    0  0.00000000000E+00  0.00000000000E+00  0.60081000408E+02  0.60081000619E+02  0.50400000000E-02 0.  1.
         -1   -1    0    0    0  501 -0.00000000000E+00 -0.00000000000E+00 -0.11535940118E+04  0.11535940118E+04  0.50400000000E-02 0. -1.
    5000001    1    1    2    0    0  0.13070019951E+03  0.10715110888E+03 -0.46878704267E+03  0.53658754519E+03  0.19900000000E+03 0.  0.
   -5000001    1    1    2    0    0 -0.13070019951E+03 -0.10715110888E+03 -0.62472596873E+03  0.67708746724E+03  0.19900000000E+03 0.  0.
<mgrwt>
<rscale>  0 0.52653236E+03</rscale>
<asrwt>0</asrwt>
<pdfrwt beam="1">  1        1 0.85830008E-02 0.52653236E+03</pdfrwt>
<pdfrwt beam="2">  1       -1 0.16479913E+00 0.52653236E+03</pdfrwt>
<totfact> 0.22900230E+02</totfact>
</mgrwt>
</event>
<event>
 4    1  0.6282309E-006  0.4701262E+03  0.7818608E-02  0.1021885E+00
         -1   -1    0    0    0  501 -0.00000000000E+00  0.00000000000E+00  0.24957201215E+02  0.24957201724E+02  0.50400000000E-02 0. -1.
          1   -1    0    0  501    0  0.00000000000E+00 -0.00000000000E+00 -0.22139769129E+04  0.22139769129E+04  0.50400000000E-02 0.  1.
    5000001    1    1    2    0    0 -0.54660590969E+02 -0.10983956562E+03 -0.97774262932E+03  0.10053030188E+04  0.19900000000E+03 0.  0.
   -5000001    1    1    2    0    0  0.54660590969E+02  0.10983956562E+03 -0.12112770823E+04  0.12336310958E+04  0.19900000000E+03 0.  0.
<mgrwt>
<rscale>  0 0.47012623E+03</rscale>
<asrwt>0</asrwt>
<pdfrwt beam="1">  1        1 0.31628229E+00 0.47012623E+03</pdfrwt>
<pdfrwt beam="2">  1       -1 0.35653159E-02 0.47012623E+03</pdfrwt>
<totfact> 0.89058022E+02</totfact>
</mgrwt>
</event>
<event>
 4    1  0.6282309E-006  0.1087667E+04  0.7818608E-02  0.9217296E-01
          1   -1    0    0  501    0  0.00000000000E+00  0.00000000000E+00  0.11569757916E+04  0.11569757916E+04  0.50400000000E-02 0.  1.
         -1   -1    0    0    0  501 -0.00000000000E+00 -0.00000000000E+00 -0.25562754684E+03  0.25562754689E+03  0.50400000000E-02 0. -1.
    5000001    1    1    2    0    0 -0.52411204976E+02  0.48576477036E+03  0.62218502957E+03  0.81573865763E+03  0.19900000000E+03 0.  0.
   -5000001    1    1    2    0    0  0.52411204976E+02 -0.48576477036E+03  0.27916321515E+03  0.59686468083E+03  0.19900000000E+03 0.  0.
<mgrwt>
<rscale>  0 0.10876670E+04</rscale>
<asrwt>0</asrwt>
<pdfrwt beam="1">  1        1 0.16528226E+00 0.10876670E+04</pdfrwt>
<pdfrwt beam="2">  1       -1 0.36518221E-01 0.10876670E+04</pdfrwt>
<totfact> 0.94968306E+01</totfact>
</mgrwt>
</event>
<event>
 4    1  0.6282309E-006  0.5064063E+03  0.7818608E-02  0.1012120E+00
          1   -1    0    0  501    0  0.00000000000E+00  0.00000000000E+00  0.77654953956E+02  0.77654954120E+02  0.50400000000E-02 0.  1.
         -1   -1    0    0    0  501 -0.00000000000E+00 -0.00000000000E+00 -0.82559887783E+03  0.82559887784E+03  0.50400000000E-02 0. -1.
    5000001    1    1    2    0    0 -0.15560655080E+03 -0.16010687956E+02 -0.36253678404E+03  0.44215795884E+03  0.19900000000E+03 0.  0.
   -5000001    1    1    2    0    0  0.15560655080E+03  0.16010687956E+02 -0.38540713983E+03  0.46109587313E+03  0.19900000000E+03 0.  0.
<mgrwt>
<rscale>  0 0.50640633E+03</rscale>
<asrwt>0</asrwt>
<pdfrwt beam="1">  1        1 0.11093565E-01 0.50640633E+03</pdfrwt>
<pdfrwt beam="2">  1       -1 0.11794269E+00 0.50640633E+03</pdfrwt>
<totfact> 0.38255141E+02</totfact>
</mgrwt>
</event>
<event>
 4    1  0.6282309E-006  0.7187977E+03  0.7818608E-02  0.9685615E-01
          1   -1    0    0  501    0  0.00000000000E+00  0.00000000000E+00  0.68013717267E+03  0.68013717269E+03  0.50400000000E-02 0.  1.
         -1   -1    0    0    0  501 -0.00000000000E+00 -0.00000000000E+00 -0.18991392672E+03  0.18991392678E+03  0.50400000000E-02 0. -1.
    5000001    1    1    2    0    0 -0.15587916015E+03  0.11490100605E+03  0.52130615291E+03  0.59064512089E+03  0.19900000000E+03 0.  0.
   -5000001    1    1    2    0    0  0.15587916015E+03 -0.11490100605E+03 -0.31082906964E+02  0.27940597858E+03  0.19900000000E+03 0.  0.
<mgrwt>
<rscale>  0 0.71879767E+03</rscale>
<asrwt>0</asrwt>
<pdfrwt beam="1">  1        1 0.97162453E-01 0.71879767E+03</pdfrwt>
<pdfrwt beam="2">  1       -1 0.27130561E-01 0.71879767E+03</pdfrwt>
<totfact> 0.39004486E+02</totfact>
</mgrwt>
</event>
<event>
 4    1  0.6282309E-006  0.6399088E+03  0.7818608E-02  0.9825901E-01
         -1   -1    0    0    0  501 -0.00000000000E+00  0.00000000000E+00  0.24317054058E+03  0.24317054063E+03  0.50400000000E-02 0. -1.
          1   -1    0    0  501    0  0.00000000000E+00 -0.00000000000E+00 -0.42098362481E+03  0.42098362484E+03  0.50400000000E-02 0.  1.
    5000001    1    1    2    0    0  0.22515131144E+03  0.44752468647E+01 -0.20286973186E+03  0.36258829129E+03  0.19900000000E+03 0.  0.
   -5000001    1    1    2    0    0 -0.22515131144E+03 -0.44752468647E+01  0.25056647630E+02  0.30156587418E+03  0.19900000000E+03 0.  0.
<mgrwt>
<rscale>  0 0.63990879E+03</rscale>
<asrwt>0</asrwt>
<pdfrwt beam="1">  1        1 0.60140518E-01 0.63990879E+03</pdfrwt>
<pdfrwt beam="2">  1       -1 0.34738649E-01 0.63990879E+03</pdfrwt>
<totfact> 0.49127859E+02</totfact>
</mgrwt>
</event>
<event>
 4    1  0.6282309E-006  0.7089079E+03  0.7818608E-02  0.9702119E-01
          1   -1    0    0  501    0  0.00000000000E+00  0.00000000000E+00  0.80097991324E+03  0.80097991325E+03  0.50400000000E-02 0.  1.
         -1   -1    0    0    0  501 -0.00000000000E+00 -0.00000000000E+00 -0.15685487388E+03  0.15685487396E+03  0.50400000000E-02 0. -1.
    5000001    1    1    2    0    0 -0.18381193221E+03  0.21709615702E+03  0.22539182052E+03  0.41390825140E+03  0.19900000000E+03 0.  0.
   -5000001    1    1    2    0    0  0.18381193221E+03 -0.21709615702E+03  0.41873321883E+03  0.54392653582E+03  0.19900000000E+03 0.  0.
<mgrwt>
<rscale>  0 0.70890790E+03</rscale>
<asrwt>0</asrwt>
<pdfrwt beam="1">  1        1 0.11442570E+00 0.70890790E+03</pdfrwt>
<pdfrwt beam="2">  1       -1 0.22407839E-01 0.70890790E+03</pdfrwt>
<totfact> 0.42272420E+02</totfact>
</mgrwt>
</event>
<event>
 4    1  0.6282309E-006  0.5982871E+03  0.7818608E-02  0.9908966E-01
          1   -1    0    0  501    0  0.00000000000E+00  0.00000000000E+00  0.34627346475E+03  0.34627346479E+03  0.50400000000E-02 0. -1.
         -1   -1    0    0    0  501 -0.00000000000E+00 -0.00000000000E+00 -0.25842831066E+03  0.25842831071E+03  0.50400000000E-02 0.  1.
    5000001    1    1    2    0    0 -0.18704292157E+03 -0.58869351082E+02  0.15200465832E+03  0.31805199443E+03  0.19900000000E+03 0.  0.
   -5000001    1    1    2    0    0  0.18704292157E+03  0.58869351082E+02 -0.64159504229E+02  0.28664978108E+03  0.19900000000E+03 0.  0.
<mgrwt>
<rscale>  0 0.59828711E+03</rscale>
<asrwt>0</asrwt>
<pdfrwt beam="1">  1        1 0.49467638E-01 0.59828711E+03</pdfrwt>
<pdfrwt beam="2">  1       -1 0.36918330E-01 0.59828711E+03</pdfrwt>
<totfact> 0.56940449E+02</totfact>
</mgrwt>
</event>
<event>
 4    1  0.6282309E-006  0.5093660E+03  0.7818608E-02  0.1011363E+00
         -1   -1    0    0    0  501 -0.00000000000E+00  0.00000000000E+00  0.56482656573E+02  0.56482656798E+02  0.50400000000E-02 0.  1.
          1   -1    0    0  501    0  0.00000000000E+00 -0.00000000000E+00 -0.11483776491E+04  0.11483776491E+04  0.50400000000E-02 0. -1.
    5000001    1    1    2    0    0 -0.10641978511E+03 -0.11645473056E+03 -0.50010818291E+03  0.56088864273E+03  0.19900000000E+03 0.  0.
   -5000001    1    1    2    0    0  0.10641978511E+03  0.11645473056E+03 -0.59178680959E+03  0.64397166315E+03  0.19900000000E+03 0.  0.
<mgrwt>
<rscale>  0 0.50936596E+03</rscale>
<asrwt>0</asrwt>
<pdfrwt beam="1">  1        1 0.16405394E+00 0.50936596E+03</pdfrwt>
<pdfrwt beam="2">  1       -1 0.80689517E-02 0.50936596E+03</pdfrwt>
<totfact> 0.12068153E+03</totfact>
</mgrwt>
</event>
<event>
 4    1  0.6282309E-006  0.8720248E+03  0.7818608E-02  0.9461244E-01
          1   -1    0    0  501    0  0.00000000000E+00  0.00000000000E+00  0.18640921807E+03  0.18640921813E+03  0.50400000000E-02 0.  1.
         -1   -1    0    0    0  501 -0.00000000000E+00 -0.00000000000E+00 -0.10198359259E+04  0.10198359259E+04  0.50400000000E-02 0. -1.
    5000001    1    1    2    0    0  0.10163468147E+03 -0.31895879317E+03 -0.68792409427E+03  0.79050925339E+03  0.19900000000E+03 0.  0.
   -5000001    1    1    2    0    0 -0.10163468147E+03  0.31895879317E+03 -0.14550261354E+03  0.41573589063E+03  0.19900000000E+03 0.  0.
<mgrwt>
<rscale>  0 0.87202481E+03</rscale>
<asrwt>0</asrwt>
<pdfrwt beam="1">  1        1 0.26629889E-01 0.87202481E+03</pdfrwt>
<pdfrwt beam="2">  1       -1 0.14569084E+00 0.87202481E+03</pdfrwt>
<totfact> 0.68488116E+01</totfact>
</mgrwt>
</event>
<event>
 4    1  0.6282309E-006  0.6152327E+03  0.7818608E-02  0.9874297E-01
         -1   -1    0    0    0  501 -0.00000000000E+00  0.00000000000E+00  0.94579958628E+03  0.94579958630E+03  0.50400000000E-02 0. -1.
          1   -1    0    0  501    0  0.00000000000E+00 -0.00000000000E+00 -0.10005059826E+03  0.10005059839E+03  0.50400000000E-02 0.  1.
    5000001    1    1    2    0    0 -0.19062143374E+03 -0.13670836945E+03  0.42108735972E+03  0.52147988820E+03  0.19900000000E+03 0.  0.
   -5000001    1    1    2    0    0  0.19062143374E+03  0.13670836945E+03  0.42466162830E+03  0.52437029649E+03  0.19900000000E+03 0.  0.
<mgrwt>
<rscale>  0 0.61523269E+03</rscale>
<asrwt>0</asrwt>
<pdfrwt beam="1">  1        1 0.14292942E-01 0.61523269E+03</pdfrwt>
<pdfrwt beam="2">  1       -1 0.13511423E+00 0.61523269E+03</pdfrwt>
<totfact> 0.19307549E+02</totfact>
</mgrwt>
</event>
<event>
 4    1  0.6282309E-006  0.4615211E+03  0.7818608E-02  0.1024341E+00
          1   -1    0    0  501    0  0.00000000000E+00  0.00000000000E+00  0.42985942556E+03  0.42985942559E+03  0.50400000000E-02 0.  1.
         -1   -1    0    0    0  501 -0.00000000000E+00 -0.00000000000E+00 -0.12387871639E+03  0.12387871650E+03  0.50400000000E-02 0. -1.
    5000001    1    1    2    0    0 -0.75798443417E+02  0.72340423181E+02  0.21499741134E+03  0.31113249225E+03  0.19900000000E+03 0.  0.
   -5000001    1    1    2    0    0  0.75798443417E+02 -0.72340423181E+02  0.90983297831E+02  0.24260564984E+03  0.19900000000E+03 0.  0.
<mgrwt>
<rscale>  0 0.46152111E+03</rscale>
<asrwt>0</asrwt>
<pdfrwt beam="1">  1        1 0.61408489E-01 0.46152111E+03</pdfrwt>
<pdfrwt beam="2">  1       -1 0.17696960E-01 0.46152111E+03</pdfrwt>
<totfact> 0.15033546E+03</totfact>
</mgrwt>
</event>
<event>
 4    1  0.6282309E-006  0.1520784E+04  0.7818608E-02  0.8870748E-01
         -1   -1    0    0    0  501 -0.00000000000E+00  0.00000000000E+00  0.14845953852E+04  0.14845953852E+04  0.50400000000E-02 0. -1.
          1   -1    0    0  501    0  0.00000000000E+00 -0.00000000000E+00 -0.38946376745E+03  0.38946376748E+03  0.50400000000E-02 0.  1.
    5000001    1    1    2    0    0 -0.40722562933E+03  0.46897014426E+03  0.65818637547E+02  0.65551415121E+03  0.19900000000E+03 0.  0.
   -5000001    1    1    2    0    0  0.40722562933E+03 -0.46897014426E+03  0.10293129802E+04  0.12185450014E+04  0.19900000000E+03 0.  0.
<mgrwt>
<rscale>  0 0.15207842E+04</rscale>
<asrwt>0</asrwt>
<pdfrwt beam="1">  1        1 0.55637681E-01 0.15207842E+04</pdfrwt>
<pdfrwt beam="2">  1       -1 0.21208506E+00 0.15207842E+04</pdfrwt>
<totfact> 0.82584339E+00</totfact>
</mgrwt>
</event>
<event>
 4    1  0.6282309E-006  0.5513042E+03  0.7818608E-02  0.1001193E+00
          1   -1    0    0  501    0  0.00000000000E+00  0.00000000000E+00  0.25307217849E+04  0.25307217849E+04  0.50400000000E-02 0.  1.
         -1   -1    0    0    0  501 -0.00000000000E+00 -0.00000000000E+00 -0.30024670044E+02  0.30024670467E+02  0.50400000000E-02 0. -1.
    5000001    1    1    2    0    0  0.16853859239E+03 -0.74797990923E+02  0.10235994788E+04  0.10589414004E+04  0.19900000000E+03 0.  0.
   -5000001    1    1    2    0    0 -0.16853859239E+03  0.74797990923E+02  0.14770976361E+04  0.15018050550E+04  0.19900000000E+03 0.  0.
<mgrwt>
<rscale>  0 0.55130422E+03</rscale>
<asrwt>0</asrwt>
<pdfrwt beam="1">  1        1 0.36153173E+00 0.55130422E+03</pdfrwt>
<pdfrwt beam="2">  1       -1 0.42892380E-02 0.55130422E+03</pdfrwt>
<totfact> 0.42636637E+02</totfact>
</mgrwt>
</event>
<event>
 4    1  0.6282309E-006  0.8014757E+03  0.7818608E-02  0.9557884E-01
          1   -1    0    0  501    0  0.00000000000E+00  0.00000000000E+00  0.13847077185E+03  0.13847077194E+03  0.50400000000E-02 0.  1.
         -1   -1    0    0    0  501 -0.00000000000E+00 -0.00000000000E+00 -0.11597452329E+04  0.11597452329E+04  0.50400000000E-02 0. -1.
    5000001    1    1    2    0    0  0.27385306260E+03 -0.21125431449E+03 -0.57050198405E+03  0.69620212517E+03  0.19900000000E+03 0.  0.
   -5000001    1    1    2    0    0 -0.27385306260E+03  0.21125431449E+03 -0.45077247698E+03  0.60201387965E+03  0.19900000000E+03 0.  0.
<mgrwt>
<rscale>  0 0.80147568E+03</rscale>
<asrwt>0</asrwt>
<pdfrwt beam="1">  1        1 0.19781539E-01 0.80147568E+03</pdfrwt>
<pdfrwt beam="2">  1       -1 0.16567789E+00 0.80147568E+03</pdfrwt>
<totfact> 0.71585568E+01</totfact>
</mgrwt>
</event>
<event>
 4    1  0.6282309E-006  0.5979715E+03  0.7818608E-02  0.9909623E-01
          1   -1    0    0  501    0  0.00000000000E+00  0.00000000000E+00  0.14713242622E+04  0.14713242622E+04  0.50400000000E-02 0.  1.
         -1   -1    0    0    0  501 -0.00000000000E+00 -0.00000000000E+00 -0.60756483320E+02  0.60756483529E+02  0.50400000000E-02 0. -1.
    5000001    1    1    2    0    0  0.21094136239E+03  0.72758663456E+02  0.70224510523E+03  0.76324260186E+03  0.19900000000E+03 0.  0.
   -5000001    1    1    2    0    0 -0.21094136239E+03 -0.72758663456E+02  0.70832267367E+03  0.76883814390E+03  0.19900000000E+03 0.  0.
<mgrwt>
<rscale>  0 0.59797153E+03</rscale>
<asrwt>0</asrwt>
<pdfrwt beam="1">  1        1 0.21018915E+00 0.59797153E+03</pdfrwt>
<pdfrwt beam="2">  1       -1 0.86794991E-02 0.59797153E+03</pdfrwt>
<totfact> 0.65449986E+02</totfact>
</mgrwt>
</event>
<event>
 4    1  0.6282309E-006  0.4609444E+03  0.7818608E-02  0.1024508E+00
         -1   -1    0    0    0  501 -0.00000000000E+00  0.00000000000E+00  0.41955107472E+03  0.41955107475E+03  0.50400000000E-02 0. -1.
          1   -1    0    0  501    0  0.00000000000E+00 -0.00000000000E+00 -0.12660538431E+03  0.12660538441E+03  0.50400000000E-02 0.  1.
    5000001    1    1    2    0    0  0.11469763725E+02  0.99357269178E+02  0.76245247686E+02  0.23540977085E+03  0.19900000000E+03 0.  0.
   -5000001    1    1    2    0    0 -0.11469763725E+02 -0.99357269178E+02  0.21670044272E+03  0.31074668831E+03  0.19900000000E+03 0.  0.
<mgrwt>
<rscale>  0 0.46094436E+03</rscale>
<asrwt>0</asrwt>
<pdfrwt beam="1">  1        1 0.18086484E-01 0.46094436E+03</pdfrwt>
<pdfrwt beam="2">  1       -1 0.59935868E-01 0.46094436E+03</pdfrwt>
<totfact> 0.85112760E+02</totfact>
</mgrwt>
</event>
<event>
 4    1  0.6282309E-006  0.5021646E+03  0.7818608E-02  0.1013215E+00
          1   -1    0    0  501    0  0.00000000000E+00  0.00000000000E+00  0.17985099424E+04  0.17985099424E+04  0.50400000000E-02 0.  1.
         -1   -1    0    0    0  501 -0.00000000000E+00 -0.00000000000E+00 -0.35052529230E+02  0.35052529593E+02  0.50400000000E-02 0. -1.
    5000001    1    1    2    0    0 -0.13595444312E+03 -0.66120507194E+02  0.79335546043E+03  0.83178688297E+03  0.19900000000E+03 0.  0.
   -5000001    1    1    2    0    0  0.13595444312E+03  0.66120507194E+02  0.97010195269E+03  0.10017755890E+04  0.19900000000E+03 0.  0.
<mgrwt>
<rscale>  0 0.50216461E+03</rscale>
<asrwt>0</asrwt>
<pdfrwt beam="1">  1        1 0.25693003E+00 0.50216461E+03</pdfrwt>
<pdfrwt beam="2">  1       -1 0.50075036E-02 0.50216461E+03</pdfrwt>
<totfact> 0.95672439E+02</totfact>
</mgrwt>
</event>
<event>
 4    1  0.6282309E-006  0.5627482E+03  0.7818608E-02  0.9985855E-01
         -1   -1    0    0    0  501 -0.00000000000E+00  0.00000000000E+00  0.14040614396E+03  0.14040614405E+03  0.50400000000E-02 0. -1.
          1   -1    0    0  501    0  0.00000000000E+00 -0.00000000000E+00 -0.56387403831E+03  0.56387403833E+03  0.50400000000E-02 0.  1.
    5000001    1    1    2    0    0  0.14319982059E+03 -0.13518466794E+03 -0.17657374044E+03  0.33099904664E+03  0.19900000000E+03 0.  0.
   -5000001    1    1    2    0    0 -0.14319982059E+03  0.13518466794E+03 -0.24689415392E+03  0.37328113574E+03  0.19900000000E+03 0.  0.
<mgrwt>
<rscale>  0 0.56274818E+03</rscale>
<asrwt>0</asrwt>
<pdfrwt beam="1">  1        1 0.80553433E-01 0.56274818E+03</pdfrwt>
<pdfrwt beam="2">  1       -1 0.20058021E-01 0.56274818E+03</pdfrwt>
<totfact> 0.85050412E+02</totfact>
</mgrwt>
</event>
<event>
 4    1  0.6282309E-006  0.1131954E+04  0.7818608E-02  0.9174596E-01
         -1   -1    0    0    0  501 -0.00000000000E+00  0.00000000000E+00  0.59356046006E+03  0.59356046008E+03  0.50400000000E-02 0. -1.
          1   -1    0    0  501    0  0.00000000000E+00 -0.00000000000E+00 -0.53967491513E+03  0.53967491516E+03  0.50400000000E-02 0.  1.
    5000001    1    1    2    0    0 -0.38358886479E+03 -0.34265218137E+03 -0.10039307267E+03  0.56056284539E+03  0.19900000000E+03 0.  0.
   -5000001    1    1    2    0    0  0.38358886479E+03  0.34265218137E+03  0.15427861759E+03  0.57267252985E+03  0.19900000000E+03 0.  0.
<mgrwt>
<rscale>  0 0.11319535E+04</rscale>
<asrwt>0</asrwt>
<pdfrwt beam="1">  1        1 0.77096416E-01 0.11319535E+04</pdfrwt>
<pdfrwt beam="2">  1       -1 0.84794351E-01 0.11319535E+04</pdfrwt>
<totfact> 0.60557955E+01</totfact>
</mgrwt>
</event>
<event>
 4    1  0.6282309E-006  0.6844554E+03  0.7818608E-02  0.9744191E-01
         -1   -1    0    0    0  501 -0.00000000000E+00  0.00000000000E+00  0.58425785263E+03  0.58425785265E+03  0.50400000000E-02 0. -1.
          1   -1    0    0  501    0  0.00000000000E+00 -0.00000000000E+00 -0.20045911655E+03  0.20045911661E+03  0.50400000000E-02 0.  1.
    5000001    1    1    2    0    0  0.21574725103E+03 -0.10291435491E+03  0.35557199397E+03  0.47240944494E+03  0.19900000000E+03 0.  0.
   -5000001    1    1    2    0    0 -0.21574725103E+03  0.10291435491E+03  0.28226742112E+02  0.31230752432E+03  0.19900000000E+03 0.  0.
<mgrwt>
<rscale>  0 0.68445544E+03</rscale>
<asrwt>0</asrwt>
<pdfrwt beam="1">  1        1 0.28637017E-01 0.68445544E+03</pdfrwt>
<pdfrwt beam="2">  1       -1 0.83465407E-01 0.68445544E+03</pdfrwt>
<totfact> 0.23594600E+02</totfact>
</mgrwt>
</event>
<event>
 4    1  0.6282309E-006  0.5331912E+03  0.7818608E-02  0.1005461E+00
         -1   -1    0    0    0  501 -0.00000000000E+00  0.00000000000E+00  0.10686905060E+03  0.10686905072E+03  0.50400000000E-02 0. -1.
          1   -1    0    0  501    0  0.00000000000E+00 -0.00000000000E+00 -0.66504943689E+03  0.66504943691E+03  0.50400000000E-02 0.  1.
    5000001    1    1    2    0    0 -0.14330391755E+03 -0.73729285012E+02 -0.38645872764E+03  0.46359828346E+03  0.19900000000E+03 0.  0.
   -5000001    1    1    2    0    0  0.14330391755E+03  0.73729285012E+02 -0.17172165865E+03  0.30832020418E+03  0.19900000000E+03 0.  0.
<mgrwt>
<rscale>  0 0.53319116E+03</rscale>
<asrwt>0</asrwt>
<pdfrwt beam="1">  1        1 0.95007060E-01 0.53319116E+03</pdfrwt>
<pdfrwt beam="2">  1       -1 0.15267008E-01 0.53319116E+03</pdfrwt>
<totfact> 0.10547989E+03</totfact>
</mgrwt>
</event>
<event>
 4    1  0.6282309E-006  0.6440546E+03  0.7818608E-02  0.9818000E-01
         -1   -1    0    0    0  501 -0.00000000000E+00  0.00000000000E+00  0.67296060811E+03  0.67296060813E+03  0.50400000000E-02 0.  1.
          1   -1    0    0  501    0  0.00000000000E+00 -0.00000000000E+00 -0.15409755668E+03  0.15409755676E+03  0.50400000000E-02 0. -1.
    5000001    1    1    2    0    0  0.21555758882E+03  0.11282296483E+03  0.16948201224E+03  0.35709837295E+03  0.19900000000E+03 0.  0.
   -5000001    1    1    2    0    0 -0.21555758882E+03 -0.11282296483E+03  0.34938103919E+03  0.46995979194E+03  0.19900000000E+03 0.  0.
<mgrwt>
<rscale>  0 0.64405461E+03</rscale>
<asrwt>0</asrwt>
<pdfrwt beam="1">  1        1 0.22013936E-01 0.64405461E+03</pdfrwt>
<pdfrwt beam="2">  1       -1 0.96137231E-01 0.64405461E+03</pdfrwt>
<totfact> 0.24445371E+02</totfact>
</mgrwt>
</event>
<event>
 4    1  0.6282309E-006  0.8141916E+03  0.7818608E-02  0.9539699E-01
          1   -1    0    0  501    0  0.00000000000E+00  0.00000000000E+00  0.14790132536E+04  0.14790132536E+04  0.50400000000E-02 0. -1.
         -1   -1    0    0    0  501 -0.00000000000E+00 -0.00000000000E+00 -0.11205240924E+03  0.11205240936E+03  0.50400000000E-02 0.  1.
    5000001    1    1    2    0    0  0.60547745338E+02  0.27956882277E+03  0.10947905731E+04  0.11489091153E+04  0.19900000000E+03 0.  0.
   -5000001    1    1    2    0    0 -0.60547745338E+02 -0.27956882277E+03  0.27217027122E+03  0.44215654769E+03  0.19900000000E+03 0.  0.
<mgrwt>
<rscale>  0 0.81419162E+03</rscale>
<asrwt>0</asrwt>
<pdfrwt beam="1">  1        1 0.21128761E+00 0.81419162E+03</pdfrwt>
<pdfrwt beam="2">  1       -1 0.16007487E-01 0.81419162E+03</pdfrwt>
<totfact> 0.24012016E+02</totfact>
</mgrwt>
</event>
<event>
 4    1  0.6282309E-006  0.7095156E+03  0.7818608E-02  0.9701096E-01
          1   -1    0    0  501    0  0.00000000000E+00  0.00000000000E+00  0.96622593700E+02  0.96622593831E+02  0.50400000000E-02 0.  1.
         -1   -1    0    0    0  501 -0.00000000000E+00 -0.00000000000E+00 -0.13025223227E+04  0.13025223227E+04  0.50400000000E-02 0. -1.
    5000001    1    1    2    0    0 -0.28577475683E+03  0.31902242706E+02 -0.48517308829E+03  0.59806261405E+03  0.19900000000E+03 0.  0.
   -5000001    1    1    2    0    0  0.28577475683E+03 -0.31902242706E+02 -0.72072664072E+03  0.80108230250E+03  0.19900000000E+03 0.  0.
<mgrwt>
<rscale>  0 0.70951557E+03</rscale>
<asrwt>0</asrwt>
<pdfrwt beam="1">  1        1 0.13803228E-01 0.70951557E+03</pdfrwt>
<pdfrwt beam="2">  1       -1 0.18607461E+00 0.70951557E+03</pdfrwt>
<totfact> 0.83176701E+01</totfact>
</mgrwt>
</event>
<event>
 4    1  0.6282309E-006  0.5229465E+03  0.7818608E-02  0.1007957E+00
         -1   -1    0    0    0  501 -0.00000000000E+00  0.00000000000E+00  0.35003033798E+03  0.35003033802E+03  0.50400000000E-02 0. -1.
          1   -1    0    0  501    0  0.00000000000E+00 -0.00000000000E+00 -0.19532097599E+03  0.19532097605E+03  0.50400000000E-02 0.  1.
    5000001    1    1    2    0    0  0.10708561903E+03 -0.12782412900E+03  0.10968163960E+03  0.28184641176E+03  0.19900000000E+03 0.  0.
   -5000001    1    1    2    0    0 -0.10708561903E+03  0.12782412900E+03  0.45027722390E+02  0.26350490231E+03  0.19900000000E+03 0.  0.
<mgrwt>
<rscale>  0 0.52294653E+03</rscale>
<asrwt>0</asrwt>
<pdfrwt beam="1">  1        1 0.27902997E-01 0.52294653E+03</pdfrwt>
<pdfrwt beam="2">  1       -1 0.50004333E-01 0.52294653E+03</pdfrwt>
<totfact> 0.68349902E+02</totfact>
</mgrwt>
</event>
<event>
 4    1  0.6282309E-006  0.7279861E+03  0.7818608E-02  0.9670534E-01
          1   -1    0    0  501    0  0.00000000000E+00  0.00000000000E+00  0.67008642639E+03  0.67008642641E+03  0.50400000000E-02 0.  1.
         -1   -1    0    0    0  501 -0.00000000000E+00 -0.00000000000E+00 -0.19772217855E+03  0.19772217861E+03  0.50400000000E-02 0. -1.
    5000001    1    1    2    0    0 -0.38414892200E+02  0.28311408655E+03  0.36267985605E+03  0.50275935389E+03  0.19900000000E+03 0.  0.
   -5000001    1    1    2    0    0  0.38414892200E+02 -0.28311408655E+03  0.10968439179E+03  0.36504925113E+03  0.19900000000E+03 0.  0.
<mgrwt>
<rscale>  0 0.72798612E+03</rscale>
<asrwt>0</asrwt>
<pdfrwt beam="1">  1        1 0.95726634E-01 0.72798612E+03</pdfrwt>
<pdfrwt beam="2">  1       -1 0.28246025E-01 0.72798612E+03</pdfrwt>
<totfact> 0.37169529E+02</totfact>
</mgrwt>
</event>
<event>
 4    1  0.6282309E-006  0.8078671E+03  0.7818608E-02  0.9548699E-01
         -1   -1    0    0    0  501 -0.00000000000E+00  0.00000000000E+00  0.89254525432E+03  0.89254525433E+03  0.50400000000E-02 0. -1.
          1   -1    0    0  501    0  0.00000000000E+00 -0.00000000000E+00 -0.18280564823E+03  0.18280564830E+03  0.50400000000E-02 0.  1.
    5000001    1    1    2    0    0  0.27485265691E+03  0.81559033797E+02  0.84144291784E+02  0.35899459723E+03  0.19900000000E+03 0.  0.
   -5000001    1    1    2    0    0 -0.27485265691E+03 -0.81559033797E+02  0.62559531430E+03  0.71635630540E+03  0.19900000000E+03 0.  0.
<mgrwt>
<rscale>  0 0.80786710E+03</rscale>
<asrwt>0</asrwt>
<pdfrwt beam="1">  1        1 0.26115092E-01 0.80786710E+03</pdfrwt>
<pdfrwt beam="2">  1       -1 0.12750647E+00 0.80786710E+03</pdfrwt>
<totfact> 0.99410305E+01</totfact>
</mgrwt>
</event>
<event>
 4    1  0.6282309E-006  0.7508944E+03  0.7818608E-02  0.9633948E-01
          1   -1    0    0  501    0  0.00000000000E+00  0.00000000000E+00  0.35694602946E+03  0.35694602950E+03  0.50400000000E-02 0.  1.
         -1   -1    0    0    0  501 -0.00000000000E+00 -0.00000000000E+00 -0.39490734128E+03  0.39490734132E+03  0.50400000000E-02 0. -1.
    5000001    1    1    2    0    0  0.18901500891E+03  0.37387296768E+02  0.23478950634E+03  0.36311375055E+03  0.19900000000E+03 0.  0.
   -5000001    1    1    2    0    0 -0.18901500891E+03 -0.37387296768E+02 -0.27275081816E+03  0.38873962026E+03  0.19900000000E+03 0.  0.
<mgrwt>
<rscale>  0 0.75089442E+03</rscale>
<asrwt>0</asrwt>
<pdfrwt beam="1">  1        1 0.50992290E-01 0.75089442E+03</pdfrwt>
<pdfrwt beam="2">  1       -1 0.56415334E-01 0.75089442E+03</pdfrwt>
<totfact> 0.24755792E+02</totfact>
</mgrwt>
</event>
<event>
 4    1  0.6282309E-006  0.5010632E+03  0.7818608E-02  0.1013502E+00
          1   -1    0    0  501    0  0.00000000000E+00  0.00000000000E+00  0.58509095213E+02  0.58509095430E+02  0.50400000000E-02 0.  1.
         -1   -1    0    0    0  501 -0.00000000000E+00 -0.00000000000E+00 -0.10727575008E+04  0.10727575008E+04  0.50400000000E-02 0. -1.
    5000001    1    1    2    0    0  0.10026907629E+02 -0.14321692227E+03 -0.62121109929E+03  0.66791904867E+03  0.19900000000E+03 0.  0.
   -5000001    1    1    2    0    0 -0.10026907629E+02  0.14321692227E+03 -0.39303730632E+03  0.46334754760E+03  0.19900000000E+03 0.  0.
<mgrwt>
<rscale>  0 0.50106315E+03</rscale>
<asrwt>0</asrwt>
<pdfrwt beam="1">  1        1 0.83584428E-02 0.50106315E+03</pdfrwt>
<pdfrwt beam="2">  1       -1 0.15325106E+00 0.50106315E+03</pdfrwt>
<totfact> 0.29025109E+02</totfact>
</mgrwt>
</event>
<event>
 4    1  0.6282309E-006  0.6724000E+03  0.7818608E-02  0.9765632E-01
          1   -1    0    0  501    0  0.00000000000E+00  0.00000000000E+00  0.22887206400E+04  0.22887206400E+04  0.50400000000E-02 0.  1.
         -1   -1    0    0    0  501 -0.00000000000E+00 -0.00000000000E+00 -0.49385866388E+02  0.49385866645E+02  0.50400000000E-02 0. -1.
    5000001    1    1    2    0    0  0.85766694362E+02  0.23242294855E+03  0.15014234358E+04  0.15346822754E+04  0.19900000000E+03 0.  0.
   -5000001    1    1    2    0    0 -0.85766694362E+02 -0.23242294855E+03  0.73791133776E+03  0.80342423120E+03  0.19900000000E+03 0.  0.
<mgrwt>
<rscale>  0 0.67240004E+03</rscale>
<asrwt>0</asrwt>
<pdfrwt beam="1">  1        1 0.32696014E+00 0.67240004E+03</pdfrwt>
<pdfrwt beam="2">  1       -1 0.70551228E-02 0.67240004E+03</pdfrwt>
<totfact> 0.27772148E+02</totfact>
</mgrwt>
</event>
<event>
 4    1  0.6282309E-006  0.1198340E+04  0.7818608E-02  0.9114311E-01
         -1   -1    0    0    0  501 -0.00000000000E+00  0.00000000000E+00  0.32395454544E+03  0.32395454548E+03  0.50400000000E-02 0. -1.
          1   -1    0    0  501    0  0.00000000000E+00 -0.00000000000E+00 -0.11081941660E+04  0.11081941660E+04  0.50400000000E-02 0.  1.
    5000001    1    1    2    0    0  0.25415155766E+03 -0.25543927670E+03 -0.91245475131E+03  0.10010079478E+04  0.19900000000E+03 0.  0.
   -5000001    1    1    2    0    0 -0.25415155766E+03  0.25543927670E+03  0.12821513077E+03  0.43114076368E+03  0.19900000000E+03 0.  0.
<mgrwt>
<rscale>  0 0.11983397E+04</rscale>
<asrwt>0</asrwt>
<pdfrwt beam="1">  1        1 0.15831345E+00 0.11983397E+04</pdfrwt>
<pdfrwt beam="2">  1       -1 0.46279221E-01 0.11983397E+04</pdfrwt>
<totfact> 0.66088363E+01</totfact>
</mgrwt>
</event>
<event>
 4    1  0.6282309E-006  0.5280855E+03  0.7818608E-02  0.1006697E+00
         -1   -1    0    0    0  501 -0.00000000000E+00  0.00000000000E+00  0.87253494260E+02  0.87253494406E+02  0.50400000000E-02 0. -1.
          1   -1    0    0  501    0  0.00000000000E+00 -0.00000000000E+00 -0.79903478521E+03  0.79903478522E+03  0.50400000000E-02 0.  1.
    5000001    1    1    2    0    0 -0.10718461899E+03 -0.13040043751E+03 -0.42354027531E+03  0.49747379977E+03  0.19900000000E+03 0.  0.
   -5000001    1    1    2    0    0  0.10718461899E+03  0.13040043751E+03 -0.28824101564E+03  0.38881447986E+03  0.19900000000E+03 0.  0.
<mgrwt>
<rscale>  0 0.52808551E+03</rscale>
<asrwt>0</asrwt>
<pdfrwt beam="1">  1        1 0.11414782E+00 0.52808551E+03</pdfrwt>
<pdfrwt beam="2">  1       -1 0.12464785E-01 0.52808551E+03</pdfrwt>
<totfact> 0.11133878E+03</totfact>
</mgrwt>
</event>
<event>
 4    1  0.6282309E-006  0.5328008E+03  0.7818608E-02  0.1005555E+00
          1   -1    0    0  501    0  0.00000000000E+00  0.00000000000E+00  0.64997695867E+02  0.64997696062E+02  0.50400000000E-02 0.  1.
         -1   -1    0    0    0  501 -0.00000000000E+00 -0.00000000000E+00 -0.10918721213E+04  0.10918721213E+04  0.50400000000E-02 0. -1.
    5000001    1    1    2    0    0  0.15161925579E+03  0.87428632109E+02 -0.57234338701E+03  0.63072190155E+03  0.19900000000E+03 0.  0.
   -5000001    1    1    2    0    0 -0.15161925579E+03 -0.87428632109E+02 -0.45453103844E+03  0.52614791584E+03  0.19900000000E+03 0.  0.
<mgrwt>
<rscale>  0 0.53280080E+03</rscale>
<asrwt>0</asrwt>
<pdfrwt beam="1">  1        1 0.92853858E-02 0.53280080E+03</pdfrwt>
<pdfrwt beam="2">  1       -1 0.15598172E+00 0.53280080E+03</pdfrwt>
<totfact> 0.23904255E+02</totfact>
</mgrwt>
</event>
<event>
 4    1  0.6282309E-006  0.8591960E+03  0.7818608E-02  0.9478077E-01
         -1   -1    0    0    0  501 -0.00000000000E+00  0.00000000000E+00  0.29845189787E+03  0.29845189791E+03  0.50400000000E-02 0.  1.
          1   -1    0    0  501    0  0.00000000000E+00 -0.00000000000E+00 -0.61837247590E+03  0.61837247592E+03  0.50400000000E-02 0. -1.
    5000001    1    1    2    0    0 -0.22870562820E+03  0.12574450071E+03  0.13582383128E+03  0.35520002389E+03  0.19900000000E+03 0.  0.
   -5000001    1    1    2    0    0  0.22870562820E+03 -0.12574450071E+03 -0.45574440931E+03  0.56162434994E+03  0.19900000000E+03 0.  0.
<mgrwt>
<rscale>  0 0.85919599E+03</rscale>
<asrwt>0</asrwt>
<pdfrwt beam="1">  1        1 0.88338925E-01 0.85919599E+03</pdfrwt>
<pdfrwt beam="2">  1       -1 0.42635985E-01 0.85919599E+03</pdfrwt>
<totfact> 0.19915598E+02</totfact>
</mgrwt>
</event>
<event>
 4    1  0.6282309E-006  0.4698982E+03  0.7818608E-02  0.1021949E+00
         -1   -1    0    0    0  501 -0.00000000000E+00  0.00000000000E+00  0.43651215925E+02  0.43651216216E+02  0.50400000000E-02 0. -1.
          1   -1    0    0  501    0  0.00000000000E+00 -0.00000000000E+00 -0.12645944031E+04  0.12645944031E+04  0.50400000000E-02 0.  1.
    5000001    1    1    2    0    0 -0.10541104373E+03 -0.63270773647E+02 -0.54913248805E+03  0.59687701276E+03  0.19900000000E+03 0.  0.
   -5000001    1    1    2    0    0  0.10541104373E+03  0.63270773647E+02 -0.67181069913E+03  0.71136860656E+03  0.19900000000E+03 0.  0.
<mgrwt>
<rscale>  0 0.46989822E+03</rscale>
<asrwt>0</asrwt>
<pdfrwt beam="1">  1        1 0.18065632E+00 0.46989822E+03</pdfrwt>
<pdfrwt beam="2">  1       -1 0.62358888E-02 0.46989822E+03</pdfrwt>
<totfact> 0.14993658E+03</totfact>
</mgrwt>
</event>
<event>
 4    1  0.6282309E-006  0.6285316E+03  0.7818608E-02  0.9847918E-01
         -1   -1    0    0    0  501 -0.00000000000E+00  0.00000000000E+00  0.19424348412E+03  0.19424348418E+03  0.50400000000E-02 0. -1.
          1   -1    0    0  501    0  0.00000000000E+00 -0.00000000000E+00 -0.50844949141E+03  0.50844949143E+03  0.50400000000E-02 0.  1.
    5000001    1    1    2    0    0  0.22190236825E+03 -0.81729728936E+02 -0.93450191594E+02  0.32288441885E+03  0.19900000000E+03 0.  0.
   -5000001    1    1    2    0    0 -0.22190236825E+03  0.81729728936E+02 -0.22075581569E+03  0.37980855676E+03  0.19900000000E+03 0.  0.
<mgrwt>
<rscale>  0 0.62853162E+03</rscale>
<asrwt>0</asrwt>
<pdfrwt beam="1">  1        1 0.72635641E-01 0.62853162E+03</pdfrwt>
<pdfrwt beam="2">  1       -1 0.27749069E-01 0.62853162E+03</pdfrwt>
<totfact> 0.56561803E+02</totfact>
</mgrwt>
</event>
<event>
 4    1  0.6282309E-006  0.9192993E+03  0.7818608E-02  0.9401773E-01
         -1   -1    0    0    0  501 -0.00000000000E+00  0.00000000000E+00  0.66691194121E+03  0.66691194123E+03  0.50400000000E-02 0.  1.
          1   -1    0    0  501    0  0.00000000000E+00 -0.00000000000E+00 -0.31680014191E+03  0.31680014195E+03  0.50400000000E-02 0. -1.
    5000001    1    1    2    0    0  0.13031880289E+03  0.37888699338E+03  0.28798959208E+03  0.53205013795E+03  0.19900000000E+03 0.  0.
   -5000001    1    1    2    0    0 -0.13031880289E+03 -0.37888699338E+03  0.62122207219E+02  0.45166194523E+03  0.19900000000E+03 0.  0.
<mgrwt>
<rscale>  0 0.91929929E+03</rscale>
<asrwt>0</asrwt>
<pdfrwt beam="1">  1        1 0.45257163E-01 0.91929929E+03</pdfrwt>
<pdfrwt beam="2">  1       -1 0.95273134E-01 0.91929929E+03</pdfrwt>
<totfact> 0.96378107E+01</totfact>
</mgrwt>
</event>
<event>
 4    1  0.6282309E-006  0.4925063E+03  0.7818608E-02  0.1015754E+00
         -1   -1    0    0    0  501 -0.00000000000E+00  0.00000000000E+00  0.13708440484E+02  0.13708441410E+02  0.50400000000E-02 0. -1.
          1   -1    0    0  501    0  0.00000000000E+00 -0.00000000000E+00 -0.44235959891E+04  0.44235959891E+04  0.50400000000E-02 0.  1.
    5000001    1    1    2    0    0 -0.21687895257E+02 -0.13414870640E+03 -0.17478996875E+04  0.17644320780E+04  0.19900000000E+03 0.  0.
   -5000001    1    1    2    0    0  0.21687895257E+02  0.13414870640E+03 -0.26619878612E+04  0.26728723526E+04  0.19900000000E+03 0.  0.
<mgrwt>
<rscale>  0 0.49250626E+03</rscale>
<asrwt>0</asrwt>
<pdfrwt beam="1">  1        1 0.63194137E+00 0.49250626E+03</pdfrwt>
<pdfrwt beam="2">  1       -1 0.19583515E-02 0.49250626E+03</pdfrwt>
<totfact> 0.67748955E+01</totfact>
</mgrwt>
</event>
<event>
 4    1  0.6282309E-006  0.5374039E+03  0.7818608E-02  0.1004452E+00
         -1   -1    0    0    0  501 -0.00000000000E+00  0.00000000000E+00  0.28911422886E+02  0.28911423325E+02  0.50400000000E-02 0. -1.
          1   -1    0    0  501    0  0.00000000000E+00 -0.00000000000E+00 -0.24973084749E+04  0.24973084749E+04  0.50400000000E-02 0.  1.
    5000001    1    1    2    0    0  0.13244222387E+03 -0.88879148128E+02 -0.83645282461E+03  0.87446828040E+03  0.19900000000E+03 0.  0.
   -5000001    1    1    2    0    0 -0.13244222387E+03  0.88879148128E+02 -0.16319442274E+04  0.16517516179E+04  0.19900000000E+03 0.  0.
<mgrwt>
<rscale>  0 0.53740391E+03</rscale>
<asrwt>0</asrwt>
<pdfrwt beam="1">  1        1 0.35675821E+00 0.53740391E+03</pdfrwt>
<pdfrwt beam="2">  1       -1 0.41302049E-02 0.53740391E+03</pdfrwt>
<totfact> 0.47426696E+02</totfact>
</mgrwt>
</event>
<event>
 4    1  0.6282309E-006  0.5307868E+03  0.7818608E-02  0.1006042E+00
          1   -1    0    0  501    0  0.00000000000E+00  0.00000000000E+00  0.15153549743E+04  0.15153549743E+04  0.50400000000E-02 0. -1.
         -1   -1    0    0    0  501 -0.00000000000E+00 -0.00000000000E+00 -0.46479965212E+02  0.46479965486E+02  0.50400000000E-02 0.  1.
    5000001    1    1    2    0    0  0.50484657828E+02  0.76730070951E+02  0.11747941640E+04  0.11950642377E+04  0.19900000000E+03 0.  0.
   -5000001    1    1    2    0    0 -0.50484657828E+02 -0.76730070951E+02  0.29408084507E+03  0.36677070208E+03  0.19900000000E+03 0.  0.
<mgrwt>
<rscale>  0 0.53078676E+03</rscale>
<asrwt>0</asrwt>
<pdfrwt beam="1">  1        1 0.21647924E+00 0.53078676E+03</pdfrwt>
<pdfrwt beam="2">  1       -1 0.66399962E-02 0.53078676E+03</pdfrwt>
<totfact> 0.93294504E+02</totfact>
</mgrwt>
</event>
<event>
 4    1  0.6282309E-006  0.8355358E+03  0.7818608E-02  0.9509959E-01
          1   -1    0    0  501    0  0.00000000000E+00  0.00000000000E+00  0.13416819960E+04  0.13416819960E+04  0.50400000000E-02 0.  1.
         -1   -1    0    0    0  501 -0.00000000000E+00 -0.00000000000E+00 -0.13008300906E+03  0.13008300916E+03  0.50400000000E-02 0. -1.
    5000001    1    1    2    0    0 -0.36143002788E+03  0.42382095461E+02  0.51770656902E+03  0.66336189118E+03  0.19900000000E+03 0.  0.
   -5000001    1    1    2    0    0  0.36143002788E+03 -0.42382095461E+02  0.69389241793E+03  0.80840311400E+03  0.19900000000E+03 0.  0.
<mgrwt>
<rscale>  0 0.83553583E+03</rscale>
<asrwt>0</asrwt>
<pdfrwt beam="1">  1        1 0.19166885E+00 0.83553583E+03</pdfrwt>
<pdfrwt beam="2">  1       -1 0.18583287E-01 0.83553583E+03</pdfrwt>
<totfact> 0.23087298E+02</totfact>
</mgrwt>
</event>
<event>
 4    1  0.6282309E-006  0.4575316E+03  0.7818608E-02  0.1025500E+00
         -1   -1    0    0    0  501 -0.00000000000E+00  0.00000000000E+00  0.54305888319E+02  0.54305888553E+02  0.50400000000E-02 0. -1.
          1   -1    0    0  501    0  0.00000000000E+00 -0.00000000000E+00 -0.96368524681E+03  0.96368524683E+03  0.50400000000E-02 0.  1.
    5000001    1    1    2    0    0 -0.83037335808E+02 -0.29788875494E+02 -0.29814632843E+03  0.36915418106E+03  0.19900000000E+03 0.  0.
   -5000001    1    1    2    0    0  0.83037335808E+02  0.29788875494E+02 -0.61123303007E+03  0.64883695432E+03  0.19900000000E+03 0.  0.
<mgrwt>
<rscale>  0 0.45753157E+03</rscale>
<asrwt>0</asrwt>
<pdfrwt beam="1">  1        1 0.13766931E+00 0.45753157E+03</pdfrwt>
<pdfrwt beam="2">  1       -1 0.77579846E-02 0.45753157E+03</pdfrwt>
<totfact> 0.17416802E+03</totfact>
</mgrwt>
</event>
<event>
 4    1  0.6282309E-006  0.4480392E+03  0.7818608E-02  0.1028308E+00
         -1   -1    0    0    0  501 -0.00000000000E+00  0.00000000000E+00  0.23865095191E+02  0.23865095723E+02  0.50400000000E-02 0. -1.
          1   -1    0    0  501    0  0.00000000000E+00 -0.00000000000E+00 -0.21028523304E+04  0.21028523304E+04  0.50400000000E-02 0.  1.
    5000001    1    1    2    0    0 -0.14194419376E+02 -0.98668707071E+02 -0.91877594004E+03  0.94535031776E+03  0.19900000000E+03 0.  0.
   -5000001    1    1    2    0    0  0.14194419376E+02  0.98668707071E+02 -0.11602112952E+04  0.11813671084E+04  0.19900000000E+03 0.  0.
<mgrwt>
<rscale>  0 0.44803916E+03</rscale>
<asrwt>0</asrwt>
<pdfrwt beam="1">  1        1 0.30040736E+00 0.44803916E+03</pdfrwt>
<pdfrwt beam="2">  1       -1 0.34093007E-02 0.44803916E+03</pdfrwt>
<totfact> 0.11158110E+03</totfact>
</mgrwt>
</event>
<event>
 4    1  0.6282309E-006  0.4687541E+03  0.7818608E-02  0.1022272E+00
          1   -1    0    0  501    0  0.00000000000E+00  0.00000000000E+00  0.11322958371E+03  0.11322958382E+03  0.50400000000E-02 0.  1.
         -1   -1    0    0    0  501 -0.00000000000E+00 -0.00000000000E+00 -0.48514353155E+03  0.48514353158E+03  0.50400000000E-02 0. -1.
    5000001    1    1    2    0    0 -0.22046862565E+02  0.77476456869E+02 -0.65917189595E+02  0.22457680513E+03  0.19900000000E+03 0.  0.
   -5000001    1    1    2    0    0  0.22046862565E+02 -0.77476456869E+02 -0.30599675824E+03  0.37379631027E+03  0.19900000000E+03 0.  0.
<mgrwt>
<rscale>  0 0.46875409E+03</rscale>
<asrwt>0</asrwt>
<pdfrwt beam="1">  1        1 0.16175655E-01 0.46875409E+03</pdfrwt>
<pdfrwt beam="2">  1       -1 0.69306218E-01 0.46875409E+03</pdfrwt>
<totfact> 0.73951986E+02</totfact>
</mgrwt>
</event>
<event>
 4    1  0.6282309E-006  0.6482517E+03  0.7818608E-02  0.9810065E-01
         -1   -1    0    0    0  501 -0.00000000000E+00  0.00000000000E+00  0.14856410820E+03  0.14856410828E+03  0.50400000000E-02 0. -1.
          1   -1    0    0  501    0  0.00000000000E+00 -0.00000000000E+00 -0.70715302475E+03  0.70715302477E+03  0.50400000000E-02 0.  1.
    5000001    1    1    2    0    0 -0.93212223144E+02 -0.23518614764E+03 -0.32965554154E+03  0.46073291466E+03  0.19900000000E+03 0.  0.
   -5000001    1    1    2    0    0  0.93212223144E+02  0.23518614764E+03 -0.22893337502E+03  0.39498421840E+03  0.19900000000E+03 0.  0.
<mgrwt>
<rscale>  0 0.64825167E+03</rscale>
<asrwt>0</asrwt>
<pdfrwt beam="1">  1        1 0.10102186E+00 0.64825167E+03</pdfrwt>
<pdfrwt beam="2">  1       -1 0.21223444E-01 0.64825167E+03</pdfrwt>
<totfact> 0.55992146E+02</totfact>
</mgrwt>
</event>
<event>
 4    1  0.6282309E-006  0.8025013E+03  0.7818608E-02  0.9556404E-01
         -1   -1    0    0    0  501 -0.00000000000E+00  0.00000000000E+00  0.47481657764E+03  0.47481657766E+03  0.50400000000E-02 0. -1.
          1   -1    0    0  501    0  0.00000000000E+00 -0.00000000000E+00 -0.33908272668E+03  0.33908272671E+03  0.50400000000E-02 0.  1.
    5000001    1    1    2    0    0 -0.13699932547E+03  0.23005897601E+03 -0.15824611797E+03  0.36924081772E+03  0.19900000000E+03 0.  0.
   -5000001    1    1    2    0    0  0.13699932547E+03 -0.23005897601E+03  0.29397996893E+03  0.44465848665E+03  0.19900000000E+03 0.  0.
<mgrwt>
<rscale>  0 0.80250134E+03</rscale>
<asrwt>0</asrwt>
<pdfrwt beam="1">  1        1 0.48440390E-01 0.80250134E+03</pdfrwt>
<pdfrwt beam="2">  1       -1 0.67830939E-01 0.80250134E+03</pdfrwt>
<totfact> 0.18314908E+02</totfact>
</mgrwt>
</event>
<event>
 4    1  0.6282309E-006  0.4382568E+03  0.7818608E-02  0.1031283E+00
         -1   -1    0    0    0  501 -0.00000000000E+00  0.00000000000E+00  0.46401162431E+03  0.46401162433E+03  0.50400000000E-02 0. -1.
          1   -1    0    0  501    0  0.00000000000E+00 -0.00000000000E+00 -0.10348287055E+03  0.10348287067E+03  0.50400000000E-02 0.  1.
    5000001    1    1    2    0    0  0.46076467469E+02  0.62386075730E+02  0.11681221835E+03  0.24343614698E+03  0.19900000000E+03 0.  0.
   -5000001    1    1    2    0    0 -0.46076467469E+02 -0.62386075730E+02  0.24371653540E+03  0.32405834803E+03  0.19900000000E+03 0.  0.
<mgrwt>
<rscale>  0 0.43825680E+03</rscale>
<asrwt>0</asrwt>
<pdfrwt beam="1">  1        1 0.14783267E-01 0.43825680E+03</pdfrwt>
<pdfrwt beam="2">  1       -1 0.66287375E-01 0.43825680E+03</pdfrwt>
<totfact> 0.91167395E+02</totfact>
</mgrwt>
</event>
<event>
 4    1  0.6282309E-006  0.4925551E+03  0.7818608E-02  0.1015741E+00
         -1   -1    0    0    0  501 -0.00000000000E+00  0.00000000000E+00  0.26308941117E+02  0.26308941600E+02  0.50400000000E-02 0. -1.
          1   -1    0    0  501    0  0.00000000000E+00 -0.00000000000E+00 -0.23053995972E+04  0.23053995972E+04  0.50400000000E-02 0.  1.
    5000001    1    1    2    0    0 -0.46525967825E+02  0.13736130003E+03 -0.11600876328E+04  0.11859330117E+04  0.19900000000E+03 0.  0.
   -5000001    1    1    2    0    0  0.46525967825E+02 -0.13736130003E+03 -0.11190030232E+04  0.11457755271E+04  0.19900000000E+03 0.  0.
<mgrwt>
<rscale>  0 0.49255506E+03</rscale>
<asrwt>0</asrwt>
<pdfrwt beam="1">  1        1 0.32934267E+00 0.49255506E+03</pdfrwt>
<pdfrwt beam="2">  1       -1 0.37584217E-02 0.49255506E+03</pdfrwt>
<totfact> 0.72152357E+02</totfact>
</mgrwt>
</event>
<event>
 4    1  0.6282309E-006  0.1521387E+04  0.7818608E-02  0.8870354E-01
          1   -1    0    0  501    0  0.00000000000E+00  0.00000000000E+00  0.14126920421E+04  0.14126920421E+04  0.50400000000E-02 0. -1.
         -1   -1    0    0    0  501 -0.00000000000E+00 -0.00000000000E+00 -0.40961108357E+03  0.40961108361E+03  0.50400000000E-02 0.  1.
    5000001    1    1    2    0    0  0.34567006166E+03 -0.60332953582E+03  0.21920969992E+03  0.75574348350E+03  0.19900000000E+03 0.  0.
   -5000001    1    1    2    0    0 -0.34567006166E+03  0.60332953582E+03  0.78387125860E+03  0.10665596422E+04  0.19900000000E+03 0.  0.
<mgrwt>
<rscale>  0 0.15213866E+04</rscale>
<asrwt>0</asrwt>
<pdfrwt beam="1">  1        1 0.20181315E+00 0.15213866E+04</pdfrwt>
<pdfrwt beam="2">  1       -1 0.58515868E-01 0.15213866E+04</pdfrwt>
<totfact> 0.25407390E+01</totfact>
</mgrwt>
</event>
<event>
 4    1  0.6282309E-006  0.4849258E+03  0.7818608E-02  0.1017790E+00
          1   -1    0    0  501    0  0.00000000000E+00  0.00000000000E+00  0.39896458577E+03  0.39896458580E+03  0.50400000000E-02 0.  1.
         -1   -1    0    0    0  501 -0.00000000000E+00 -0.00000000000E+00 -0.14735208942E+03  0.14735208951E+03  0.50400000000E-02 0. -1.
    5000001    1    1    2    0    0 -0.50642331809E+02 -0.11834017911E+03  0.18345266769E+03  0.29970806637E+03  0.19900000000E+03 0.  0.
   -5000001    1    1    2    0    0  0.50642331809E+02  0.11834017911E+03  0.68159828656E+02  0.24660860894E+03  0.19900000000E+03 0.  0.
<mgrwt>
<rscale>  0 0.48492583E+03</rscale>
<asrwt>0</asrwt>
<pdfrwt beam="1">  1        1 0.56994941E-01 0.48492583E+03</pdfrwt>
<pdfrwt beam="2">  1       -1 0.21050299E-01 0.48492583E+03</pdfrwt>
<totfact> 0.12455705E+03</totfact>
</mgrwt>
</event>
<event>
 4    1  0.6282309E-006  0.6067485E+03  0.7818608E-02  0.9891503E-01
         -1   -1    0    0    0  501 -0.00000000000E+00  0.00000000000E+00  0.70720416424E+02  0.70720416604E+02  0.50400000000E-02 0. -1.
          1   -1    0    0  501    0  0.00000000000E+00 -0.00000000000E+00 -0.13014055274E+04  0.13014055274E+04  0.50400000000E-02 0.  1.
    5000001    1    1    2    0    0 -0.10516956396E+03 -0.17620635586E+03 -0.38554605861E+03  0.47995424817E+03  0.19900000000E+03 0.  0.
   -5000001    1    1    2    0    0  0.10516956396E+03  0.17620635586E+03 -0.84513905240E+03  0.89217169587E+03  0.19900000000E+03 0.  0.
<mgrwt>
<rscale>  0 0.60674852E+03</rscale>
<asrwt>0</asrwt>
<pdfrwt beam="1">  1        1 0.18591506E+00 0.60674852E+03</pdfrwt>
<pdfrwt beam="2">  1       -1 0.10102917E-01 0.60674852E+03</pdfrwt>
<totfact> 0.66566897E+02</totfact>
</mgrwt>
</event>
<event>
 4    1  0.6282309E-006  0.1041749E+04  0.7818608E-02  0.9263904E-01
          1   -1    0    0  501    0  0.00000000000E+00  0.00000000000E+00  0.10231281592E+04  0.10231281592E+04  0.50400000000E-02 0. -1.
         -1   -1    0    0    0  501 -0.00000000000E+00 -0.00000000000E+00 -0.26517727159E+03  0.26517727163E+03  0.50400000000E-02 0.  1.
    5000001    1    1    2    0    0  0.34206891035E+01 -0.44474571285E+03  0.60666775823E+03  0.77811131536E+03  0.19900000000E+03 0.  0.
   -5000001    1    1    2    0    0 -0.34206891035E+01  0.44474571285E+03  0.15128312933E+03  0.51019411544E+03  0.19900000000E+03 0.  0.
<mgrwt>
<rscale>  0 0.10417492E+04</rscale>
<asrwt>0</asrwt>
<pdfrwt beam="1">  1        1 0.14616117E+00 0.10417492E+04</pdfrwt>
<pdfrwt beam="2">  1       -1 0.37882467E-01 0.10417492E+04</pdfrwt>
<totfact> 0.11137451E+02</totfact>
</mgrwt>
</event>
<event>
 4    1  0.6282309E-006  0.4473640E+03  0.7818608E-02  0.1028511E+00
          1   -1    0    0  501    0  0.00000000000E+00  0.00000000000E+00  0.96838064017E+03  0.96838064019E+03  0.50400000000E-02 0. -1.
         -1   -1    0    0    0  501 -0.00000000000E+00 -0.00000000000E+00 -0.51667321284E+02  0.51667321529E+02  0.50400000000E-02 0.  1.
    5000001    1    1    2    0    0 -0.98264199419E+02 -0.18148269331E+02  0.50658672647E+03  0.55336816316E+03  0.19900000000E+03 0.  0.
   -5000001    1    1    2    0    0  0.98264199419E+02  0.18148269331E+02  0.41012659242E+03  0.46667979855E+03  0.19900000000E+03 0.  0.
<mgrwt>
<rscale>  0 0.44736399E+03</rscale>
<asrwt>0</asrwt>
<pdfrwt beam="1">  1        1 0.13834009E+00 0.44736399E+03</pdfrwt>
<pdfrwt beam="2">  1       -1 0.73810459E-02 0.44736399E+03</pdfrwt>
<totfact> 0.18660380E+03</totfact>
</mgrwt>
</event>
<event>
 4    1  0.6282309E-006  0.5428062E+03  0.7818608E-02  0.1003173E+00
         -1   -1    0    0    0  501 -0.00000000000E+00  0.00000000000E+00  0.68064895853E+02  0.68064896040E+02  0.50400000000E-02 0. -1.
          1   -1    0    0  501    0  0.00000000000E+00 -0.00000000000E+00 -0.10821972406E+04  0.10821972406E+04  0.50400000000E-02 0.  1.
    5000001    1    1    2    0    0  0.87548394671E+02 -0.12704500295E+03 -0.29248686095E+03  0.38594652222E+03  0.19900000000E+03 0.  0.
   -5000001    1    1    2    0    0 -0.87548394671E+02  0.12704500295E+03 -0.72164548377E+03  0.76431561441E+03  0.19900000000E+03 0.  0.
<mgrwt>
<rscale>  0 0.54280620E+03</rscale>
<asrwt>0</asrwt>
<pdfrwt beam="1">  1        1 0.15459960E+00 0.54280620E+03</pdfrwt>
<pdfrwt beam="2">  1       -1 0.97235572E-02 0.54280620E+03</pdfrwt>
<totfact> 0.10024701E+03</totfact>
</mgrwt>
</event>
<event>
 4    1  0.6282309E-006  0.5614361E+03  0.7818608E-02  0.9988810E-01
          1   -1    0    0  501    0  0.00000000000E+00  0.00000000000E+00  0.37450794114E+03  0.37450794117E+03  0.50400000000E-02 0. -1.
         -1   -1    0    0    0  501 -0.00000000000E+00 -0.00000000000E+00 -0.21041643155E+03  0.21041643161E+03  0.50400000000E-02 0.  1.
    5000001    1    1    2    0    0  0.11582293397E+03 -0.15983782243E+03  0.65954763943E+02  0.28794810713E+03  0.19900000000E+03 0.  0.
   -5000001    1    1    2    0    0 -0.11582293397E+03  0.15983782243E+03  0.98136745642E+02  0.29697626565E+03  0.19900000000E+03 0.  0.
<mgrwt>
<rscale>  0 0.56143610E+03</rscale>
<asrwt>0</asrwt>
<pdfrwt beam="1">  1        1 0.53501134E-01 0.56143610E+03</pdfrwt>
<pdfrwt beam="2">  1       -1 0.30059490E-01 0.56143610E+03</pdfrwt>
<totfact> 0.73899651E+02</totfact>
</mgrwt>
</event>
<event>
 4    1  0.6282309E-006  0.9467954E+03  0.7818608E-02  0.9368904E-01
          1   -1    0    0  501    0  0.00000000000E+00  0.00000000000E+00  0.51257999025E+03  0.51257999028E+03  0.50400000000E-02 0.  1.
         -1   -1    0    0    0  501 -0.00000000000E+00 -0.00000000000E+00 -0.43721055314E+03  0.43721055316E+03  0.50400000000E-02 0. -1.
    5000001    1    1    2    0    0  0.34250674009E+03  0.17605223728E+03 -0.15317783620E+03  0.45974961311E+03  0.19900000000E+03 0.  0.
   -5000001    1    1    2    0    0 -0.34250674009E+03 -0.17605223728E+03  0.22854727332E+03  0.49004093033E+03  0.19900000000E+03 0.  0.
<mgrwt>
<rscale>  0 0.94679540E+03</rscale>
<asrwt>0</asrwt>
<pdfrwt beam="1">  1        1 0.73225713E-01 0.94679540E+03</pdfrwt>
<pdfrwt beam="2">  1       -1 0.62458650E-01 0.94679540E+03</pdfrwt>
<totfact> 0.12403296E+02</totfact>
</mgrwt>
</event>
<event>
 4    1  0.6282309E-006  0.5268881E+03  0.7818608E-02  0.1006990E+00
         -1   -1    0    0    0  501 -0.00000000000E+00  0.00000000000E+00  0.35148244692E+02  0.35148245054E+02  0.50400000000E-02 0. -1.
          1   -1    0    0  501    0  0.00000000000E+00 -0.00000000000E+00 -0.19745725520E+04  0.19745725521E+04  0.50400000000E-02 0.  1.
    5000001    1    1    2    0    0 -0.49308070794E+01  0.14305567359E+03 -0.13377995896E+04  0.13600727850E+04  0.19900000000E+03 0.  0.
   -5000001    1    1    2    0    0  0.49308070794E+01 -0.14305567359E+03 -0.60162471778E+03  0.64964801212E+03  0.19900000000E+03 0.  0.
<mgrwt>
<rscale>  0 0.52688807E+03</rscale>
<asrwt>0</asrwt>
<pdfrwt beam="1">  1        1 0.28208172E+00 0.52688807E+03</pdfrwt>
<pdfrwt beam="2">  1       -1 0.50211791E-02 0.52688807E+03</pdfrwt>
<totfact> 0.74082190E+02</totfact>
</mgrwt>
</event>
<event>
 4    1  0.6282309E-006  0.5070083E+03  0.7818608E-02  0.1011966E+00
          1   -1    0    0  501    0  0.00000000000E+00  0.00000000000E+00  0.20871389410E+03  0.20871389416E+03  0.50400000000E-02 0.  1.
         -1   -1    0    0    0  501 -0.00000000000E+00 -0.00000000000E+00 -0.30790648861E+03  0.30790648865E+03  0.50400000000E-02 0. -1.
    5000001    1    1    2    0    0  0.63468904986E+02 -0.12616860218E+03 -0.11957540402E+03  0.27174638052E+03  0.19900000000E+03 0.  0.
   -5000001    1    1    2    0    0 -0.63468904986E+02  0.12616860218E+03  0.20382809509E+02  0.24487400230E+03  0.19900000000E+03 0.  0.
<mgrwt>
<rscale>  0 0.50700833E+03</rscale>
<asrwt>0</asrwt>
<pdfrwt beam="1">  1        1 0.29816271E-01 0.50700833E+03</pdfrwt>
<pdfrwt beam="2">  1       -1 0.43986641E-01 0.50700833E+03</pdfrwt>
<totfact> 0.79628536E+02</totfact>
</mgrwt>
</event>
<event>
 4    1  0.6282309E-006  0.6480088E+03  0.7818608E-02  0.9810523E-01
          1   -1    0    0  501    0  0.00000000000E+00  0.00000000000E+00  0.84187541974E+03  0.84187541975E+03  0.50400000000E-02 0.  1.
         -1   -1    0    0    0  501 -0.00000000000E+00 -0.00000000000E+00 -0.12469640951E+03  0.12469640962E+03  0.50400000000E-02 0. -1.
    5000001    1    1    2    0    0  0.19418402917E+03 -0.70932407366E+02  0.13415901675E+03  0.31676250626E+03  0.19900000000E+03 0.  0.
   -5000001    1    1    2    0    0 -0.19418402917E+03  0.70932407366E+02  0.58301999348E+03  0.64980932310E+03  0.19900000000E+03 0.  0.
<mgrwt>
<rscale>  0 0.64800877E+03</rscale>
<asrwt>0</asrwt>
<pdfrwt beam="1">  1        1 0.12026792E+00 0.64800877E+03</pdfrwt>
<pdfrwt beam="2">  1       -1 0.17813772E-01 0.64800877E+03</pdfrwt>
<totfact> 0.57426975E+02</totfact>
</mgrwt>
</event>
<event>
 4    1  0.6282309E-006  0.5278863E+03  0.7818608E-02  0.1006746E+00
          1   -1    0    0  501    0  0.00000000000E+00  0.00000000000E+00  0.38983022876E+03  0.38983022879E+03  0.50400000000E-02 0.  1.
         -1   -1    0    0    0  501 -0.00000000000E+00 -0.00000000000E+00 -0.17870850239E+03  0.17870850246E+03  0.50400000000E-02 0. -1.
    5000001    1    1    2    0    0 -0.13172706093E+03  0.10448456509E+03  0.59918847187E+02  0.26732061494E+03  0.19900000000E+03 0.  0.
   -5000001    1    1    2    0    0  0.13172706093E+03 -0.10448456509E+03  0.15120287919E+03  0.30121811632E+03  0.19900000000E+03 0.  0.
<mgrwt>
<rscale>  0 0.52788626E+03</rscale>
<asrwt>0</asrwt>
<pdfrwt beam="1">  1        1 0.55690033E-01 0.52788626E+03</pdfrwt>
<pdfrwt beam="2">  1       -1 0.25529786E-01 0.52788626E+03</pdfrwt>
<totfact> 0.92858948E+02</totfact>
</mgrwt>
</event>
<event>
 4    1  0.6282309E-006  0.5062775E+03  0.7818608E-02  0.1012153E+00
          1   -1    0    0  501    0  0.00000000000E+00  0.00000000000E+00  0.81674095671E+03  0.81674095673E+03  0.50400000000E-02 0.  1.
         -1   -1    0    0    0  501 -0.00000000000E+00 -0.00000000000E+00 -0.78457237602E+02  0.78457237764E+02  0.50400000000E-02 0. -1.
    5000001    1    1    2    0    0 -0.40232989510E+02 -0.71440348401E+02  0.13352794978E+03  0.25328468212E+03  0.19900000000E+03 0.  0.
   -5000001    1    1    2    0    0  0.40232989510E+02  0.71440348401E+02  0.60475576933E+03  0.64191351237E+03  0.19900000000E+03 0.  0.
<mgrwt>
<rscale>  0 0.50627755E+03</rscale>
<asrwt>0</asrwt>
<pdfrwt beam="1">  1        1 0.11667728E+00 0.50627755E+03</pdfrwt>
<pdfrwt beam="2">  1       -1 0.11208176E-01 0.50627755E+03</pdfrwt>
<totfact> 0.12748836E+03</totfact>
</mgrwt>
</event>
<event>
 4    1  0.6282309E-006  0.6677109E+03  0.7818608E-02  0.9774102E-01
          1   -1    0    0  501    0  0.00000000000E+00  0.00000000000E+00  0.55518563319E+03  0.55518563321E+03  0.50400000000E-02 0.  1.
         -1   -1    0    0    0  501 -0.00000000000E+00 -0.00000000000E+00 -0.20076068675E+03  0.20076068681E+03  0.50400000000E-02 0. -1.
    5000001    1    1    2    0    0 -0.78108565186E+02 -0.18940252890E+03  0.37292706668E+03  0.46973382141E+03  0.19900000000E+03 0.  0.
   -5000001    1    1    2    0    0  0.78108565186E+02  0.18940252890E+03 -0.18502120248E+02  0.28621249862E+03  0.19900000000E+03 0.  0.
<mgrwt>
<rscale>  0 0.66771086E+03</rscale>
<asrwt>0</asrwt>
<pdfrwt beam="1">  1        1 0.79312233E-01 0.66771086E+03</pdfrwt>
<pdfrwt beam="2">  1       -1 0.28680098E-01 0.66771086E+03</pdfrwt>
<totfact> 0.47331826E+02</totfact>
</mgrwt>
</event>
<event>
 4    1  0.6282309E-006  0.4524224E+03  0.7818608E-02  0.1027002E+00
         -1   -1    0    0    0  501 -0.00000000000E+00  0.00000000000E+00  0.12966210307E+03  0.12966210316E+03  0.50400000000E-02 0.  1.
          1   -1    0    0  501    0  0.00000000000E+00 -0.00000000000E+00 -0.39465282932E+03  0.39465282935E+03  0.50400000000E-02 0. -1.
    5000001    1    1    2    0    0 -0.30295337989E+02 -0.62699513725E+02 -0.37482911641E+02  0.21413781822E+03  0.19900000000E+03 0.  0.
   -5000001    1    1    2    0    0  0.30295337989E+02  0.62699513725E+02 -0.22750781461E+03  0.31017711430E+03  0.19900000000E+03 0.  0.
<mgrwt>
<rscale>  0 0.45242244E+03</rscale>
<asrwt>0</asrwt>
<pdfrwt beam="1">  1        1 0.56378975E-01 0.45242244E+03</pdfrwt>
<pdfrwt beam="2">  1       -1 0.18523158E-01 0.45242244E+03</pdfrwt>
<totfact> 0.15592518E+03</totfact>
</mgrwt>
</event>
<event>
 4    1  0.6282309E-006  0.5998824E+03  0.7818608E-02  0.9905650E-01
          1   -1    0    0  501    0  0.00000000000E+00  0.00000000000E+00  0.85004913927E+03  0.85004913929E+03  0.50400000000E-02 0. -1.
         -1   -1    0    0    0  501 -0.00000000000E+00 -0.00000000000E+00 -0.10583472343E+03  0.10583472355E+03  0.50400000000E-02 0.  1.
    5000001    1    1    2    0    0  0.34768097157E+02  0.11000147423E+03  0.67883979784E+03  0.71675213012E+03  0.19900000000E+03 0.  0.
   -5000001    1    1    2    0    0 -0.34768097157E+02 -0.11000147423E+03  0.65374618003E+02  0.23913173272E+03  0.19900000000E+03 0.  0.
<mgrwt>
<rscale>  0 0.59988237E+03</rscale>
<asrwt>0</asrwt>
<pdfrwt beam="1">  1        1 0.12143560E+00 0.59988237E+03</pdfrwt>
<pdfrwt beam="2">  1       -1 0.15119245E-01 0.59988237E+03</pdfrwt>
<totfact> 0.74038102E+02</totfact>
</mgrwt>
</event>
<event>
 4    1  0.6282309E-006  0.8575852E+03  0.7818608E-02  0.9480213E-01
          1   -1    0    0  501    0  0.00000000000E+00  0.00000000000E+00  0.29550856051E+03  0.29550856055E+03  0.50400000000E-02 0.  1.
         -1   -1    0    0    0  501 -0.00000000000E+00 -0.00000000000E+00 -0.62219205484E+03  0.62219205486E+03  0.50400000000E-02 0. -1.
    5000001    1    1    2    0    0 -0.26345095996E+03 -0.24633333049E+03 -0.29074892135E+03  0.50420477317E+03  0.19900000000E+03 0.  0.
   -5000001    1    1    2    0    0  0.26345095996E+03  0.24633333049E+03 -0.35934572976E+02  0.41349584224E+03  0.19900000000E+03 0.  0.
<mgrwt>
<rscale>  0 0.85758516E+03</rscale>
<asrwt>0</asrwt>
<pdfrwt beam="1">  1        1 0.42215509E-01 0.85758516E+03</pdfrwt>
<pdfrwt beam="2">  1       -1 0.88884579E-01 0.85758516E+03</pdfrwt>
<totfact> 0.12347973E+02</totfact>
</mgrwt>
</event>
<event>
 4    1  0.6282309E-006  0.5903509E+03  0.7818608E-02  0.9925630E-01
          1   -1    0    0  501    0  0.00000000000E+00  0.00000000000E+00  0.46249834753E+03  0.46249834755E+03  0.50400000000E-02 0. -1.
         -1   -1    0    0    0  501 -0.00000000000E+00 -0.00000000000E+00 -0.18838669010E+03  0.18838669017E+03  0.50400000000E-02 0.  1.
    5000001    1    1    2    0    0 -0.13003261985E+03 -0.17066230764E+03  0.94448318873E+02  0.30749892750E+03  0.19900000000E+03 0.  0.
   -5000001    1    1    2    0    0  0.13003261985E+03  0.17066230764E+03  0.17966333855E+03  0.34338611022E+03  0.19900000000E+03 0.  0.
<mgrwt>
<rscale>  0 0.59035085E+03</rscale>
<asrwt>0</asrwt>
<pdfrwt beam="1">  1        1 0.66071193E-01 0.59035085E+03</pdfrwt>
<pdfrwt beam="2">  1       -1 0.26912384E-01 0.59035085E+03</pdfrwt>
<totfact> 0.67747274E+02</totfact>
</mgrwt>
</event>
<event>
 4    1  0.6282309E-006  0.5798793E+03  0.7818608E-02  0.9948052E-01
          1   -1    0    0  501    0  0.00000000000E+00  0.00000000000E+00  0.72037665325E+03  0.72037665327E+03  0.50400000000E-02 0.  1.
         -1   -1    0    0    0  501 -0.00000000000E+00 -0.00000000000E+00 -0.11669590878E+03  0.11669590889E+03  0.50400000000E-02 0. -1.
    5000001    1    1    2    0    0 -0.13985190274E+03  0.15654208845E+03  0.33071196464E+03  0.43935792210E+03  0.19900000000E+03 0.  0.
   -5000001    1    1    2    0    0  0.13985190274E+03 -0.15654208845E+03  0.27296877982E+03  0.39771464006E+03  0.19900000000E+03 0.  0.
<mgrwt>
<rscale>  0 0.57987933E+03</rscale>
<asrwt>0</asrwt>
<pdfrwt beam="1">  1        1 0.10291095E+00 0.57987933E+03</pdfrwt>
<pdfrwt beam="2">  1       -1 0.16670844E-01 0.57987933E+03</pdfrwt>
<totfact> 0.81321495E+02</totfact>
</mgrwt>
</event>
<event>
 4    1  0.6282309E-006  0.5941195E+03  0.7818608E-02  0.9917682E-01
         -1   -1    0    0    0  501 -0.00000000000E+00  0.00000000000E+00  0.25716126300E+02  0.25716126794E+02  0.50400000000E-02 0.  1.
          1   -1    0    0  501    0  0.00000000000E+00 -0.00000000000E+00 -0.34314847538E+04  0.34314847538E+04  0.50400000000E-02 0. -1.
    5000001    1    1    2    0    0 -0.12385238661E+03  0.16754477968E+03 -0.21238232410E+04  0.21432771230E+04  0.19900000000E+03 0.  0.
   -5000001    1    1    2    0    0  0.12385238661E+03 -0.16754477968E+03 -0.12819453865E+04  0.13139237576E+04  0.19900000000E+03 0.  0.
<mgrwt>
<rscale>  0 0.59411950E+03</rscale>
<asrwt>0</asrwt>
<pdfrwt beam="1">  1        1 0.49021181E+00 0.59411950E+03</pdfrwt>
<pdfrwt beam="2">  1       -1 0.36737346E-02 0.59411950E+03</pdfrwt>
<totfact> 0.14026646E+02</totfact>
</mgrwt>
</event>
<event>
 4    1  0.6282309E-006  0.6546921E+03  0.7818608E-02  0.9798014E-01
         -1   -1    0    0    0  501 -0.00000000000E+00  0.00000000000E+00  0.27117730015E+03  0.27117730019E+03  0.50400000000E-02 0. -1.
          1   -1    0    0  501    0  0.00000000000E+00 -0.00000000000E+00 -0.39514902638E+03  0.39514902641E+03  0.50400000000E-02 0.  1.
    5000001    1    1    2    0    0  0.78870544771E+01 -0.17308027001E+03  0.13519770796E+03  0.29647665293E+03  0.19900000000E+03 0.  0.
   -5000001    1    1    2    0    0 -0.78870544771E+01  0.17308027001E+03 -0.25916943420E+03  0.36984967368E+03  0.19900000000E+03 0.  0.
<mgrwt>
<rscale>  0 0.65469213E+03</rscale>
<asrwt>0</asrwt>
<pdfrwt beam="1">  1        1 0.56449861E-01 0.65469213E+03</pdfrwt>
<pdfrwt beam="2">  1       -1 0.38739614E-01 0.65469213E+03</pdfrwt>
<totfact> 0.43912603E+02</totfact>
</mgrwt>
</event>
<event>
 4    1  0.6282309E-006  0.5711582E+03  0.7818608E-02  0.9967119E-01
         -1   -1    0    0    0  501 -0.00000000000E+00  0.00000000000E+00  0.35856405653E+02  0.35856406007E+02  0.50400000000E-02 0. -1.
          1   -1    0    0  501    0  0.00000000000E+00 -0.00000000000E+00 -0.22745004309E+04  0.22745004309E+04  0.50400000000E-02 0.  1.
    5000001    1    1    2    0    0 -0.20374682162E+03  0.18727202649E+02 -0.11578954568E+04  0.11925545541E+04  0.19900000000E+03 0.  0.
   -5000001    1    1    2    0    0  0.20374682162E+03 -0.18727202649E+02 -0.10807485684E+04  0.11178022829E+04  0.19900000000E+03 0.  0.
<mgrwt>
<rscale>  0 0.57115816E+03</rscale>
<asrwt>0</asrwt>
<pdfrwt beam="1">  1        1 0.32492854E+00 0.57115816E+03</pdfrwt>
<pdfrwt beam="2">  1       -1 0.51223451E-02 0.57115816E+03</pdfrwt>
<totfact> 0.46812351E+02</totfact>
</mgrwt>
</event>
<event>
 4    1  0.6282309E-006  0.5765544E+03  0.7818608E-02  0.9955279E-01
         -1   -1    0    0    0  501 -0.00000000000E+00  0.00000000000E+00  0.60362295126E+02  0.60362295336E+02  0.50400000000E-02 0. -1.
          1   -1    0    0  501    0  0.00000000000E+00 -0.00000000000E+00 -0.13767490146E+04  0.13767490146E+04  0.50400000000E-02 0.  1.
    5000001    1    1    2    0    0  0.18099085276E+02 -0.14797722707E+03 -0.29460123245E+03  0.38550709822E+03  0.19900000000E+03 0.  0.
   -5000001    1    1    2    0    0 -0.18099085276E+02  0.14797722707E+03 -0.10217854870E+04  0.10516042117E+04  0.19900000000E+03 0.  0.
<mgrwt>
<rscale>  0 0.57655435E+03</rscale>
<asrwt>0</asrwt>
<pdfrwt beam="1">  1        1 0.19667841E+00 0.57655435E+03</pdfrwt>
<pdfrwt beam="2">  1       -1 0.86231859E-02 0.57655435E+03</pdfrwt>
<totfact> 0.76238486E+02</totfact>
</mgrwt>
</event>
<event>
 4    1  0.6282309E-006  0.1187884E+04  0.7818608E-02  0.9123528E-01
         -1   -1    0    0    0  501 -0.00000000000E+00  0.00000000000E+00  0.61431598896E+03  0.61431598898E+03  0.50400000000E-02 0. -1.
          1   -1    0    0  501    0  0.00000000000E+00 -0.00000000000E+00 -0.57424354800E+03  0.57424354802E+03  0.50400000000E-02 0.  1.
    5000001    1    1    2    0    0 -0.55188983134E+03  0.66208490251E+02 -0.44808383455E+02  0.59209352416E+03  0.19900000000E+03 0.  0.
   -5000001    1    1    2    0    0  0.55188983134E+03 -0.66208490251E+02  0.84880824417E+02  0.59646601284E+03  0.19900000000E+03 0.  0.
<mgrwt>
<rscale>  0 0.11878838E+04</rscale>
<asrwt>0</asrwt>
<pdfrwt beam="1">  1        1 0.82034793E-01 0.11878838E+04</pdfrwt>
<pdfrwt beam="2">  1       -1 0.87759427E-01 0.11878838E+04</pdfrwt>
<totfact> 0.51342333E+01</totfact>
</mgrwt>
</event>
<event>
 4    1  0.6282309E-006  0.8654836E+03  0.7818608E-02  0.9469788E-01
         -1   -1    0    0    0  501 -0.00000000000E+00  0.00000000000E+00  0.31026204472E+03  0.31026204477E+03  0.50400000000E-02 0. -1.
          1   -1    0    0  501    0  0.00000000000E+00 -0.00000000000E+00 -0.60357188009E+03  0.60357188012E+03  0.50400000000E-02 0.  1.
    5000001    1    1    2    0    0  0.45492355351E+01 -0.22811531569E+03 -0.47313271330E+03  0.56170531170E+03  0.19900000000E+03 0.  0.
   -5000001    1    1    2    0    0 -0.45492355351E+01  0.22811531569E+03  0.17982287793E+03  0.35212861318E+03  0.19900000000E+03 0.  0.
<mgrwt>
<rscale>  0 0.86548355E+03</rscale>
<asrwt>0</asrwt>
<pdfrwt beam="1">  1        1 0.86224554E-01 0.86548355E+03</pdfrwt>
<pdfrwt beam="2">  1       -1 0.44323149E-01 0.86548355E+03</pdfrwt>
<totfact> 0.19179771E+02</totfact>
</mgrwt>
</event>
<event>
 4    1  0.6282309E-006  0.9032247E+03  0.7818608E-02  0.9421559E-01
         -1   -1    0    0    0  501 -0.00000000000E+00  0.00000000000E+00  0.84170732055E+03  0.84170732056E+03  0.50400000000E-02 0. -1.
          1   -1    0    0  501    0  0.00000000000E+00 -0.00000000000E+00 -0.24230955650E+03  0.24230955655E+03  0.50400000000E-02 0.  1.
    5000001    1    1    2    0    0 -0.23001863046E+03  0.31330437459E+03  0.16136987561E+03  0.46552060991E+03  0.19900000000E+03 0.  0.
   -5000001    1    1    2    0    0  0.23001863046E+03 -0.31330437459E+03  0.43802788844E+03  0.61849626720E+03  0.19900000000E+03 0.  0.
<mgrwt>
<rscale>  0 0.90322473E+03</rscale>
<asrwt>0</asrwt>
<pdfrwt beam="1">  1        1 0.34615651E-01 0.90322473E+03</pdfrwt>
<pdfrwt beam="2">  1       -1 0.12024390E+00 0.90322473E+03</pdfrwt>
<totfact> 0.79197712E+01</totfact>
</mgrwt>
</event>
<event>
 4    1  0.6282309E-006  0.6190011E+03  0.7818608E-02  0.9866751E-01
         -1   -1    0    0    0  501 -0.00000000000E+00  0.00000000000E+00  0.83212305570E+02  0.83212305722E+02  0.50400000000E-02 0.  1.
          1   -1    0    0  501    0  0.00000000000E+00 -0.00000000000E+00 -0.11511588710E+04  0.11511588710E+04  0.50400000000E-02 0. -1.
    5000001    1    1    2    0    0  0.23294523581E+03 -0.29260195441E+02 -0.59920134332E+03  0.67361924836E+03  0.19900000000E+03 0.  0.
   -5000001    1    1    2    0    0 -0.23294523581E+03  0.29260195441E+02 -0.46874522211E+03  0.56075192838E+03  0.19900000000E+03 0.  0.
<mgrwt>
<rscale>  0 0.61900108E+03</rscale>
<asrwt>0</asrwt>
<pdfrwt beam="1">  1        1 0.16445126E+00 0.61900108E+03</pdfrwt>
<pdfrwt beam="2">  1       -1 0.11887473E-01 0.61900108E+03</pdfrwt>
<totfact> 0.65043469E+02</totfact>
</mgrwt>
</event>
<event>
 4    1  0.6282309E-006  0.4964182E+03  0.7818608E-02  0.1014718E+00
          1   -1    0    0  501    0  0.00000000000E+00  0.00000000000E+00  0.72031659020E+03  0.72031659022E+03  0.50400000000E-02 0.  1.
         -1   -1    0    0    0  501 -0.00000000000E+00 -0.00000000000E+00 -0.85528705441E+02  0.85528705589E+02  0.50400000000E-02 0. -1.
    5000001    1    1    2    0    0  0.50772077545E+02  0.11328321037E+03  0.44923163738E+03  0.50677505230E+03  0.19900000000E+03 0.  0.
   -5000001    1    1    2    0    0 -0.50772077545E+02 -0.11328321037E+03  0.18555624738E+03  0.29907024351E+03  0.19900000000E+03 0.  0.
<mgrwt>
<rscale>  0 0.49641815E+03</rscale>
<asrwt>0</asrwt>
<pdfrwt beam="1">  1        1 0.10290237E+00 0.49641815E+03</pdfrwt>
<pdfrwt beam="2">  1       -1 0.12218387E-01 0.49641815E+03</pdfrwt>
<totfact> 0.13431034E+03</totfact>
</mgrwt>
</event>
<event>
 4    1  0.6282309E-006  0.6311728E+03  0.7818608E-02  0.9842763E-01
          1   -1    0    0  501    0  0.00000000000E+00  0.00000000000E+00  0.74201803450E+02  0.74201803622E+02  0.50400000000E-02 0.  1.
         -1   -1    0    0    0  501 -0.00000000000E+00 -0.00000000000E+00 -0.13422151829E+04  0.13422151829E+04  0.50400000000E-02 0. -1.
    5000001    1    1    2    0    0  0.18866956760E+03 -0.50458546553E+02 -0.96573582702E+03  0.10051810574E+04  0.19900000000E+03 0.  0.
   -5000001    1    1    2    0    0 -0.18866956760E+03  0.50458546553E+02 -0.30227755238E+03  0.41123592904E+03  0.19900000000E+03 0.  0.
<mgrwt>
<rscale>  0 0.63117284E+03</rscale>
<asrwt>0</asrwt>
<pdfrwt beam="1">  1        1 0.10600258E-01 0.63117284E+03</pdfrwt>
<pdfrwt beam="2">  1       -1 0.19174501E+00 0.63117284E+03</pdfrwt>
<totfact> 0.10940060E+02</totfact>
</mgrwt>
</event>
<event>
 4    1  0.6282309E-006  0.6064433E+03  0.7818608E-02  0.9892128E-01
         -1   -1    0    0    0  501 -0.00000000000E+00  0.00000000000E+00  0.10271602337E+04  0.10271602337E+04  0.50400000000E-02 0. -1.
          1   -1    0    0  501    0  0.00000000000E+00 -0.00000000000E+00 -0.89512206520E+02  0.89512206662E+02  0.50400000000E-02 0.  1.
    5000001    1    1    2    0    0 -0.16244744893E+03 -0.50838028696E+02  0.18734057314E+03  0.32198007574E+03  0.19900000000E+03 0.  0.
   -5000001    1    1    2    0    0  0.16244744893E+03  0.50838028696E+02  0.75030745401E+03  0.79469236461E+03  0.19900000000E+03 0.  0.
<mgrwt>
<rscale>  0 0.60644333E+03</rscale>
<asrwt>0</asrwt>
<pdfrwt beam="1">  1        1 0.12787459E-01 0.60644333E+03</pdfrwt>
<pdfrwt beam="2">  1       -1 0.14673716E+00 0.60644333E+03</pdfrwt>
<totfact> 0.18118991E+02</totfact>
</mgrwt>
</event>
<event>
 4    1  0.6282309E-006  0.4683566E+03  0.7818608E-02  0.1022385E+00
         -1   -1    0    0    0  501 -0.00000000000E+00  0.00000000000E+00  0.38708882676E+02  0.38708883004E+02  0.50400000000E-02 0. -1.
          1   -1    0    0  501    0  0.00000000000E+00 -0.00000000000E+00 -0.14167152652E+04  0.14167152652E+04  0.50400000000E-02 0.  1.
    5000001    1    1    2    0    0 -0.10493284238E+03 -0.53635758975E+02 -0.57479334503E+03  0.61957734428E+03  0.19900000000E+03 0.  0.
   -5000001    1    1    2    0    0  0.10493284238E+03  0.53635758975E+02 -0.80321303752E+03  0.83584680396E+03  0.19900000000E+03 0.  0.
<mgrwt>
<rscale>  0 0.46835655E+03</rscale>
<asrwt>0</asrwt>
<pdfrwt beam="1">  1        1 0.20238786E+00 0.46835655E+03</pdfrwt>
<pdfrwt beam="2">  1       -1 0.55298413E-02 0.46835655E+03</pdfrwt>
<totfact> 0.14323803E+03</totfact>
</mgrwt>
</event>
<event>
 4    1  0.6282309E-006  0.1104646E+04  0.7818608E-02  0.9200675E-01
         -1   -1    0    0    0  501 -0.00000000000E+00  0.00000000000E+00  0.92556882145E+03  0.92556882146E+03  0.50400000000E-02 0. -1.
          1   -1    0    0  501    0  0.00000000000E+00 -0.00000000000E+00 -0.32959273685E+03  0.32959273689E+03  0.50400000000E-02 0.  1.
    5000001    1    1    2    0    0 -0.36337747880E+03  0.34732489186E+03  0.16952574937E+03  0.56658428526E+03  0.19900000000E+03 0.  0.
   -5000001    1    1    2    0    0  0.36337747880E+03 -0.34732489186E+03  0.42645033523E+03  0.68857727309E+03  0.19900000000E+03 0.  0.
<mgrwt>
<rscale>  0 0.11046461E+04</rscale>
<asrwt>0</asrwt>
<pdfrwt beam="1">  1        1 0.47084678E-01 0.11046461E+04</pdfrwt>
<pdfrwt beam="2">  1       -1 0.13222411E+00 0.11046461E+04</pdfrwt>
<totfact> 0.41360552E+01</totfact>
</mgrwt>
</event>
<event>
 4    1  0.6282309E-006  0.6369407E+03  0.7818608E-02  0.9831597E-01
         -1   -1    0    0    0  501 -0.00000000000E+00  0.00000000000E+00  0.20748655668E+04  0.20748655668E+04  0.50400000000E-02 0. -1.
          1   -1    0    0  501    0  0.00000000000E+00 -0.00000000000E+00 -0.48881902073E+02  0.48881902333E+02  0.50400000000E-02 0.  1.
    5000001    1    1    2    0    0  0.10402524294E+02  0.20491437755E+03  0.54471333147E+03  0.61515179275E+03  0.19900000000E+03 0.  0.
   -5000001    1    1    2    0    0 -0.10402524294E+02 -0.20491437755E+03  0.14812703332E+04  0.15085956764E+04  0.19900000000E+03 0.  0.
<mgrwt>
<rscale>  0 0.63694074E+03</rscale>
<asrwt>0</asrwt>
<pdfrwt beam="1">  1        1 0.69831279E-02 0.63694074E+03</pdfrwt>
<pdfrwt beam="2">  1       -1 0.29640941E+00 0.63694074E+03</pdfrwt>
<totfact> 0.40565527E+01</totfact>
</mgrwt>
</event>
<event>
 4    1  0.6282309E-006  0.7479992E+03  0.7818608E-02  0.9638494E-01
          1   -1    0    0  501    0  0.00000000000E+00  0.00000000000E+00  0.16952603533E+03  0.16952603541E+03  0.50400000000E-02 0. -1.
         -1   -1    0    0    0  501 -0.00000000000E+00 -0.00000000000E+00 -0.82509870297E+03  0.82509870299E+03  0.50400000000E-02 0.  1.
    5000001    1    1    2    0    0  0.28173250184E+03  0.13668990840E+03 -0.39040127823E+03  0.53858285499E+03  0.19900000000E+03 0.  0.
   -5000001    1    1    2    0    0 -0.28173250184E+03 -0.13668990840E+03 -0.26517138941E+03  0.45604188340E+03  0.19900000000E+03 0.  0.
<mgrwt>
<rscale>  0 0.74799923E+03</rscale>
<asrwt>0</asrwt>
<pdfrwt beam="1">  1        1 0.24218005E-01 0.74799923E+03</pdfrwt>
<pdfrwt beam="2">  1       -1 0.11787124E+00 0.74799923E+03</pdfrwt>
<totfact> 0.13357918E+02</totfact>
</mgrwt>
</event>
<event>
 4    1  0.6282309E-006  0.6364018E+03  0.7818608E-02  0.9832635E-01
          1   -1    0    0  501    0  0.00000000000E+00  0.00000000000E+00  0.32390772094E+03  0.32390772098E+03  0.50400000000E-02 0.  1.
         -1   -1    0    0    0  501 -0.00000000000E+00 -0.00000000000E+00 -0.31259460955E+03  0.31259460959E+03  0.50400000000E-02 0. -1.
    5000001    1    1    2    0    0  0.23079167629E+03 -0.90912578629E+02 -0.53412166013E+01  0.31805569228E+03  0.19900000000E+03 0.  0.
   -5000001    1    1    2    0    0 -0.23079167629E+03  0.90912578629E+02  0.16654327995E+02  0.31844663829E+03  0.19900000000E+03 0.  0.
<mgrwt>
<rscale>  0 0.63640178E+03</rscale>
<asrwt>0</asrwt>
<pdfrwt beam="1">  1        1 0.46272532E-01 0.63640178E+03</pdfrwt>
<pdfrwt beam="2">  1       -1 0.44656373E-01 0.63640178E+03</pdfrwt>
<totfact> 0.43887353E+02</totfact>
</mgrwt>
</event>
<event>
 4    1  0.6282309E-006  0.1441814E+04  0.7818608E-02  0.8924095E-01
         -1   -1    0    0    0  501 -0.00000000000E+00  0.00000000000E+00  0.24613208676E+03  0.24613208681E+03  0.50400000000E-02 0.  1.
          1   -1    0    0  501    0  0.00000000000E+00 -0.00000000000E+00 -0.21114964268E+04  0.21114964268E+04  0.50400000000E-02 0. -1.
    5000001    1    1    2    0    0  0.42253349663E+03 -0.26676001594E+03 -0.17175874978E+04  0.17998342353E+04  0.19900000000E+03 0.  0.
   -5000001    1    1    2    0    0 -0.42253349663E+03  0.26676001594E+03 -0.14777684229E+03  0.55779427838E+03  0.19900000000E+03 0.  0.
<mgrwt>
<rscale>  0 0.14418142E+04</rscale>
<asrwt>0</asrwt>
<pdfrwt beam="1">  1        1 0.30164234E+00 0.14418142E+04</pdfrwt>
<pdfrwt beam="2">  1       -1 0.35161728E-01 0.14418142E+04</pdfrwt>
<totfact> 0.23742544E+01</totfact>
</mgrwt>
</event>
<event>
 4    1  0.6282309E-006  0.5200226E+03  0.7818608E-02  0.1008681E+00
          1   -1    0    0  501    0  0.00000000000E+00  0.00000000000E+00  0.33292774850E+02  0.33292775232E+02  0.50400000000E-02 0.  1.
         -1   -1    0    0    0  501 -0.00000000000E+00 -0.00000000000E+00 -0.20306466828E+04  0.20306466828E+04  0.50400000000E-02 0. -1.
    5000001    1    1    2    0    0  0.70082359365E+02 -0.10372503630E+03 -0.14394698102E+04  0.14585419963E+04  0.19900000000E+03 0.  0.
   -5000001    1    1    2    0    0 -0.70082359365E+02  0.10372503630E+03 -0.55788409766E+03  0.60539746173E+03  0.19900000000E+03 0.  0.
<mgrwt>
<rscale>  0 0.52002255E+03</rscale>
<asrwt>0</asrwt>
<pdfrwt beam="1">  1        1 0.47561120E-02 0.52002255E+03</pdfrwt>
<pdfrwt beam="2">  1       -1 0.29009231E+00 0.52002255E+03</pdfrwt>
<totfact> 0.77258589E+01</totfact>
</mgrwt>
</event>
<event>
 4    1  0.6282309E-006  0.7468451E+03  0.7818608E-02  0.9640313E-01
          1   -1    0    0  501    0  0.00000000000E+00  0.00000000000E+00  0.21171825937E+04  0.21171825937E+04  0.50400000000E-02 0.  1.
         -1   -1    0    0    0  501 -0.00000000000E+00 -0.00000000000E+00 -0.65863193465E+02  0.65863193658E+02  0.50400000000E-02 0. -1.
    5000001    1    1    2    0    0  0.12669786694E+03 -0.27517972730E+03  0.76312117375E+03  0.84482611088E+03  0.19900000000E+03 0.  0.
   -5000001    1    1    2    0    0 -0.12669786694E+03  0.27517972730E+03  0.12881982265E+04  0.13382196765E+04  0.19900000000E+03 0.  0.
<mgrwt>
<rscale>  0 0.74684512E+03</rscale>
<asrwt>0</asrwt>
<pdfrwt beam="1">  1        1 0.30245462E+00 0.74684512E+03</pdfrwt>
<pdfrwt beam="2">  1       -1 0.94090287E-02 0.74684512E+03</pdfrwt>
<totfact> 0.22465041E+02</totfact>
</mgrwt>
</event>
<event>
 4    1  0.6282309E-006  0.5842230E+03  0.7818608E-02  0.9938690E-01
         -1   -1    0    0    0  501 -0.00000000000E+00  0.00000000000E+00  0.17429942076E+03  0.17429942083E+03  0.50400000000E-02 0. -1.
          1   -1    0    0  501    0  0.00000000000E+00 -0.00000000000E+00 -0.48955480553E+03  0.48955480555E+03  0.50400000000E-02 0.  1.
    5000001    1    1    2    0    0 -0.14842641493E+03 -0.89933981116E+02 -0.29959552418E+03  0.39934571453E+03  0.19900000000E+03 0.  0.
   -5000001    1    1    2    0    0  0.14842641493E+03  0.89933981116E+02 -0.15659860593E+02  0.26450851185E+03  0.19900000000E+03 0.  0.
<mgrwt>
<rscale>  0 0.58422297E+03</rscale>
<asrwt>0</asrwt>
<pdfrwt beam="1">  1        1 0.69936401E-01 0.58422297E+03</pdfrwt>
<pdfrwt beam="2">  1       -1 0.24899917E-01 0.58422297E+03</pdfrwt>
<totfact> 0.71692053E+02</totfact>
</mgrwt>
</event>
<event>
 4    1  0.6282309E-006  0.1187162E+04  0.7818608E-02  0.9124168E-01
          1   -1    0    0  501    0  0.00000000000E+00  0.00000000000E+00  0.43977732347E+03  0.43977732349E+03  0.50400000000E-02 0. -1.
         -1   -1    0    0    0  501 -0.00000000000E+00 -0.00000000000E+00 -0.80117493687E+03  0.80117493688E+03  0.50400000000E-02 0.  1.
    5000001    1    1    2    0    0 -0.46386557571E+03 -0.31231245534E+03 -0.18615321034E+03  0.62206459457E+03  0.19900000000E+03 0.  0.
   -5000001    1    1    2    0    0  0.46386557571E+03  0.31231245534E+03 -0.17524440306E+03  0.61888766581E+03  0.19900000000E+03 0.  0.
<mgrwt>
<rscale>  0 0.11871623E+04</rscale>
<asrwt>0</asrwt>
<pdfrwt beam="1">  1        1 0.62825332E-01 0.11871623E+04</pdfrwt>
<pdfrwt beam="2">  1       -1 0.11445356E+00 0.11871623E+04</pdfrwt>
<totfact> 0.40196760E+01</totfact>
</mgrwt>
</event>
<event>
 4    1  0.6282309E-006  0.1188403E+04  0.7818608E-02  0.9123068E-01
         -1   -1    0    0    0  501 -0.00000000000E+00  0.00000000000E+00  0.22876688130E+03  0.22876688136E+03  0.50400000000E-02 0.  1.
          1   -1    0    0  501    0  0.00000000000E+00 -0.00000000000E+00 -0.15433864561E+04  0.15433864561E+04  0.50400000000E-02 0. -1.
    5000001    1    1    2    0    0 -0.55136982112E+03 -0.75840288122E+02 -0.74819109052E+03  0.95349427731E+03  0.19900000000E+03 0.  0.
   -5000001    1    1    2    0    0  0.55136982112E+03  0.75840288122E+02 -0.56642848424E+03  0.81865906011E+03  0.19900000000E+03 0.  0.
<mgrwt>
<rscale>  0 0.11884035E+04</rscale>
<asrwt>0</asrwt>
<pdfrwt beam="1">  1        1 0.22048377E+00 0.11884035E+04</pdfrwt>
<pdfrwt beam="2">  1       -1 0.32680984E-01 0.11884035E+04</pdfrwt>
<totfact> 0.63253824E+01</totfact>
</mgrwt>
</event>
<event>
 4    1  0.6282309E-006  0.5143303E+03  0.7818608E-02  0.1010105E+00
          1   -1    0    0  501    0  0.00000000000E+00  0.00000000000E+00  0.30129811909E+03  0.30129811913E+03  0.50400000000E-02 0. -1.
         -1   -1    0    0    0  501 -0.00000000000E+00 -0.00000000000E+00 -0.21949662091E+03  0.21949662097E+03  0.50400000000E-02 0.  1.
    5000001    1    1    2    0    0 -0.10145343241E+03  0.37479593350E+02 -0.82430774571E+02  0.24102562408E+03  0.19900000000E+03 0.  0.
   -5000001    1    1    2    0    0  0.10145343241E+03 -0.37479593350E+02  0.16423227275E+03  0.27976911602E+03  0.19900000000E+03 0.  0.
<mgrwt>
<rscale>  0 0.51433032E+03</rscale>
<asrwt>0</asrwt>
<pdfrwt beam="1">  1        1 0.43042588E-01 0.51433032E+03</pdfrwt>
<pdfrwt beam="2">  1       -1 0.31356660E-01 0.51433032E+03</pdfrwt>
<totfact> 0.90943084E+02</totfact>
</mgrwt>
</event>
<event>
 4    1  0.6282309E-006  0.6296182E+03  0.7818608E-02  0.9845794E-01
         -1   -1    0    0    0  501 -0.00000000000E+00  0.00000000000E+00  0.29388781414E+03  0.29388781418E+03  0.50400000000E-02 0. -1.
          1   -1    0    0  501    0  0.00000000000E+00 -0.00000000000E+00 -0.33721970202E+03  0.33721970206E+03  0.50400000000E-02 0.  1.
    5000001    1    1    2    0    0  0.22552591004E+03  0.86256043692E+02 -0.56413777727E+02  0.31793954691E+03  0.19900000000E+03 0.  0.
   -5000001    1    1    2    0    0 -0.22552591004E+03 -0.86256043692E+02  0.13081889841E+02  0.31316796933E+03  0.19900000000E+03 0.  0.
<mgrwt>
<rscale>  0 0.62961817E+03</rscale>
<asrwt>0</asrwt>
<pdfrwt beam="1">  1        1 0.48174243E-01 0.62961817E+03</pdfrwt>
<pdfrwt beam="2">  1       -1 0.41983974E-01 0.62961817E+03</pdfrwt>
<totfact> 0.46672343E+02</totfact>
</mgrwt>
</event>
<event>
 4    1  0.6282309E-006  0.7687549E+03  0.7818608E-02  0.9606378E-01
         -1   -1    0    0    0  501 -0.00000000000E+00  0.00000000000E+00  0.15849895059E+03  0.15849895067E+03  0.50400000000E-02 0. -1.
          1   -1    0    0  501    0  0.00000000000E+00 -0.00000000000E+00 -0.93215773574E+03  0.93215773575E+03  0.50400000000E-02 0.  1.
    5000001    1    1    2    0    0  0.51717049608E+02  0.32451774079E+03 -0.36896206957E+03  0.53265413364E+03  0.19900000000E+03 0.  0.
   -5000001    1    1    2    0    0 -0.51717049608E+02 -0.32451774079E+03 -0.40469671559E+03  0.55800255278E+03  0.19900000000E+03 0.  0.
<mgrwt>
<rscale>  0 0.76875490E+03</rscale>
<asrwt>0</asrwt>
<pdfrwt beam="1">  1        1 0.13316539E+00 0.76875490E+03</pdfrwt>
<pdfrwt beam="2">  1       -1 0.22642708E-01 0.76875490E+03</pdfrwt>
<totfact> 0.32512685E+02</totfact>
</mgrwt>
</event>
<event>
 4    1  0.6282309E-006  0.7300622E+03  0.7818608E-02  0.9667159E-01
          1   -1    0    0  501    0  0.00000000000E+00  0.00000000000E+00  0.13167186234E+04  0.13167186234E+04  0.50400000000E-02 0. -1.
         -1   -1    0    0    0  501 -0.00000000000E+00 -0.00000000000E+00 -0.10119679569E+03  0.10119679582E+03  0.50400000000E-02 0.  1.
    5000001    1    1    2    0    0 -0.14647185483E+03  0.25131546363E+03  0.42316919551E+03  0.55071465801E+03  0.19900000000E+03 0.  0.
   -5000001    1    1    2    0    0  0.14647185483E+03 -0.25131546363E+03  0.79235263222E+03  0.86720076124E+03  0.19900000000E+03 0.  0.
<mgrwt>
<rscale>  0 0.73006220E+03</rscale>
<asrwt>0</asrwt>
<pdfrwt beam="1">  1        1 0.18810267E+00 0.73006220E+03</pdfrwt>
<pdfrwt beam="2">  1       -1 0.14456685E-01 0.73006220E+03</pdfrwt>
<totfact> 0.36427585E+02</totfact>
</mgrwt>
</event>
<event>
 4    1  0.6282309E-006  0.6003630E+03  0.7818608E-02  0.9904653E-01
         -1   -1    0    0    0  501 -0.00000000000E+00  0.00000000000E+00  0.16899181979E+03  0.16899181986E+03  0.50400000000E-02 0.  1.
          1   -1    0    0  501    0  0.00000000000E+00 -0.00000000000E+00 -0.53321477501E+03  0.53321477503E+03  0.50400000000E-02 0. -1.
    5000001    1    1    2    0    0 -0.11991754549E+03  0.15807332330E+03 -0.30556518552E+03  0.41513669539E+03  0.19900000000E+03 0.  0.
   -5000001    1    1    2    0    0  0.11991754549E+03 -0.15807332330E+03 -0.58657769698E+02  0.28706989950E+03  0.19900000000E+03 0.  0.
<mgrwt>
<rscale>  0 0.60036301E+03</rscale>
<asrwt>0</asrwt>
<pdfrwt beam="1">  1        1 0.76173539E-01 0.60036301E+03</pdfrwt>
<pdfrwt beam="2">  1       -1 0.24141689E-01 0.60036301E+03</pdfrwt>
<totfact> 0.67284433E+02</totfact>
</mgrwt>
</event>
<event>
 4    1  0.6282309E-006  0.4801509E+03  0.7818608E-02  0.1019094E+00
          1   -1    0    0  501    0  0.00000000000E+00  0.00000000000E+00  0.47313256205E+02  0.47313256473E+02  0.50400000000E-02 0. -1.
         -1   -1    0    0    0  501 -0.00000000000E+00 -0.00000000000E+00 -0.12181832289E+04  0.12181832289E+04  0.50400000000E-02 0.  1.
    5000001    1    1    2    0    0  0.76541481442E+02 -0.11026096974E+03 -0.59696430996E+03  0.64341547012E+03  0.19900000000E+03 0.  0.
   -5000001    1    1    2    0    0 -0.76541481442E+02  0.11026096974E+03 -0.57390566277E+03  0.62208101530E+03  0.19900000000E+03 0.  0.
<mgrwt>
<rscale>  0 0.48015087E+03</rscale>
<asrwt>0</asrwt>
<pdfrwt beam="1">  1        1 0.67590374E-02 0.48015087E+03</pdfrwt>
<pdfrwt beam="2">  1       -1 0.17402616E+00 0.48015087E+03</pdfrwt>
<totfact> 0.27398426E+02</totfact>
</mgrwt>
</event>
<event>
 4    1  0.6282309E-006  0.4861301E+03  0.7818608E-02  0.1017464E+00
          1   -1    0    0  501    0  0.00000000000E+00  0.00000000000E+00  0.21117224849E+03  0.21117224855E+03  0.50400000000E-02 0.  1.
         -1   -1    0    0    0  501 -0.00000000000E+00 -0.00000000000E+00 -0.27977448389E+03  0.27977448393E+03  0.50400000000E-02 0. -1.
    5000001    1    1    2    0    0  0.48986136609E+01 -0.13611713989E+03 -0.35405888243E+01  0.24117505666E+03  0.19900000000E+03 0.  0.
   -5000001    1    1    2    0    0 -0.48986136609E+01  0.13611713989E+03 -0.65061646572E+02  0.24977167582E+03  0.19900000000E+03 0.  0.
<mgrwt>
<rscale>  0 0.48613005E+03</rscale>
<asrwt>0</asrwt>
<pdfrwt beam="1">  1        1 0.30167464E-01 0.48613005E+03</pdfrwt>
<pdfrwt beam="2">  1       -1 0.39967783E-01 0.48613005E+03</pdfrwt>
<totfact> 0.93375143E+02</totfact>
</mgrwt>
</event>
<event>
 4    1  0.6282309E-006  0.9327692E+03  0.7818608E-02  0.9385521E-01
          1   -1    0    0  501    0  0.00000000000E+00  0.00000000000E+00  0.22184435060E+04  0.22184435060E+04  0.50400000000E-02 0.  1.
         -1   -1    0    0    0  501 -0.00000000000E+00 -0.00000000000E+00 -0.98048288307E+02  0.98048288436E+02  0.50400000000E-02 0. -1.
    5000001    1    1    2    0    0 -0.17882469557E+03  0.31030102118E+03  0.16135605217E+04  0.16647653146E+04  0.19900000000E+03 0.  0.
   -5000001    1    1    2    0    0  0.17882469557E+03 -0.31030102118E+03  0.50683469606E+03  0.65172647992E+03  0.19900000000E+03 0.  0.
<mgrwt>
<rscale>  0 0.93276919E+03</rscale>
<asrwt>0</asrwt>
<pdfrwt beam="1">  1        1 0.31692049E+00 0.93276919E+03</pdfrwt>
<pdfrwt beam="2">  1       -1 0.14006899E-01 0.93276919E+03</pdfrwt>
<totfact> 0.10123955E+02</totfact>
</mgrwt>
</event>
<event>
 4    1  0.6282309E-006  0.7203160E+03  0.7818608E-02  0.9683106E-01
         -1   -1    0    0    0  501 -0.00000000000E+00  0.00000000000E+00  0.18957883092E+03  0.18957883099E+03  0.50400000000E-02 0. -1.
          1   -1    0    0  501    0  0.00000000000E+00 -0.00000000000E+00 -0.68422086196E+03  0.68422086198E+03  0.50400000000E-02 0.  1.
    5000001    1    1    2    0    0 -0.93087426114E+02  0.25712688557E+03 -0.39753364464E+03  0.52193246958E+03  0.19900000000E+03 0.  0.
   -5000001    1    1    2    0    0  0.93087426114E+02 -0.25712688557E+03 -0.97108386403E+02  0.35186722339E+03  0.19900000000E+03 0.  0.
<mgrwt>
<rscale>  0 0.72031602E+03</rscale>
<asrwt>0</asrwt>
<pdfrwt beam="1">  1        1 0.97745837E-01 0.72031602E+03</pdfrwt>
<pdfrwt beam="2">  1       -1 0.27082690E-01 0.72031602E+03</pdfrwt>
<totfact> 0.38780420E+02</totfact>
</mgrwt>
</event>
<event>
 4    1  0.6282309E-006  0.9126279E+03  0.7818608E-02  0.9409932E-01
          1   -1    0    0  501    0  0.00000000000E+00  0.00000000000E+00  0.18506179670E+04  0.18506179670E+04  0.50400000000E-02 0.  1.
         -1   -1    0    0    0  501 -0.00000000000E+00 -0.00000000000E+00 -0.11251508485E+03  0.11251508496E+03  0.50400000000E-02 0. -1.
    5000001    1    1    2    0    0  0.35576127554E+03  0.24879080223E+02  0.13069231641E+04  0.13692458547E+04  0.19900000000E+03 0.  0.
   -5000001    1    1    2    0    0 -0.35576127554E+03 -0.24879080223E+02  0.43117971807E+03  0.59388719727E+03  0.19900000000E+03 0.  0.
<mgrwt>
<rscale>  0 0.91262794E+03</rscale>
<asrwt>0</asrwt>
<pdfrwt beam="1">  1        1 0.26437400E+00 0.91262794E+03</pdfrwt>
<pdfrwt beam="2">  1       -1 0.16073583E-01 0.91262794E+03</pdfrwt>
<totfact> 0.13747444E+02</totfact>
</mgrwt>
</event>
<event>
 4    1  0.6282309E-006  0.7719802E+03  0.7818608E-02  0.9601484E-01
          1   -1    0    0  501    0  0.00000000000E+00  0.00000000000E+00  0.76476427961E+03  0.76476427963E+03  0.50400000000E-02 0. -1.
         -1   -1    0    0    0  501 -0.00000000000E+00 -0.00000000000E+00 -0.19481605016E+03  0.19481605022E+03  0.50400000000E-02 0.  1.
    5000001    1    1    2    0    0 -0.23207338209E+03 -0.17546271980E+03  0.48049527601E+03  0.59592107781E+03  0.19900000000E+03 0.  0.
   -5000001    1    1    2    0    0  0.23207338209E+03  0.17546271980E+03  0.89452953440E+02  0.36365925204E+03  0.19900000000E+03 0.  0.
<mgrwt>
<rscale>  0 0.77198020E+03</rscale>
<asrwt>0</asrwt>
<pdfrwt beam="1">  1        1 0.10925204E+00 0.77198020E+03</pdfrwt>
<pdfrwt beam="2">  1       -1 0.27830864E-01 0.77198020E+03</pdfrwt>
<totfact> 0.31277899E+02</totfact>
</mgrwt>
</event>
<event>
 4    1  0.6282309E-006  0.5300144E+03  0.7818608E-02  0.1006229E+00
          1   -1    0    0  501    0  0.00000000000E+00  0.00000000000E+00  0.25809470741E+03  0.25809470746E+03  0.50400000000E-02 0.  1.
         -1   -1    0    0    0  501 -0.00000000000E+00 -0.00000000000E+00 -0.27210481336E+03  0.27210481340E+03  0.50400000000E-02 0. -1.
    5000001    1    1    2    0    0  0.15985683024E+03 -0.68138034308E+02  0.13758264270E+02  0.26455110608E+03  0.19900000000E+03 0.  0.
   -5000001    1    1    2    0    0 -0.15985683024E+03  0.68138034308E+02 -0.27768370218E+02  0.26564841478E+03  0.19900000000E+03 0.  0.
<mgrwt>
<rscale>  0 0.53001439E+03</rscale>
<asrwt>0</asrwt>
<pdfrwt beam="1">  1        1 0.36870673E-01 0.53001439E+03</pdfrwt>
<pdfrwt beam="2">  1       -1 0.38872116E-01 0.53001439E+03</pdfrwt>
<totfact> 0.75851998E+02</totfact>
</mgrwt>
</event>
<event>
 4    1  0.6282309E-006  0.6214924E+03  0.7818608E-02  0.9861793E-01
          1   -1    0    0  501    0  0.00000000000E+00  0.00000000000E+00  0.48619111693E+03  0.48619111696E+03  0.50400000000E-02 0.  1.
         -1   -1    0    0    0  501 -0.00000000000E+00 -0.00000000000E+00 -0.19861163813E+03  0.19861163820E+03  0.50400000000E-02 0. -1.
    5000001    1    1    2    0    0 -0.20856767659E+03 -0.26643255923E+02  0.19362152971E+02  0.29014863738E+03  0.19900000000E+03 0.  0.
   -5000001    1    1    2    0    0  0.20856767659E+03  0.26643255923E+02  0.26821732583E+03  0.39465411778E+03  0.19900000000E+03 0.  0.
<mgrwt>
<rscale>  0 0.62149244E+03</rscale>
<asrwt>0</asrwt>
<pdfrwt beam="1">  1        1 0.69455874E-01 0.62149244E+03</pdfrwt>
<pdfrwt beam="2">  1       -1 0.28373091E-01 0.62149244E+03</pdfrwt>
<totfact> 0.57830310E+02</totfact>
</mgrwt>
</event>
<event>
 4    1  0.6282309E-006  0.4406406E+03  0.7818608E-02  0.1030550E+00
         -1   -1    0    0    0  501 -0.00000000000E+00  0.00000000000E+00  0.93506704191E+02  0.93506704327E+02  0.50400000000E-02 0. -1.
          1   -1    0    0  501    0  0.00000000000E+00 -0.00000000000E+00 -0.51911824677E+03  0.51911824680E+03  0.50400000000E-02 0.  1.
    5000001    1    1    2    0    0 -0.86220417811E+02  0.35351156448E+02 -0.23506679787E+03  0.32177797341E+03  0.19900000000E+03 0.  0.
   -5000001    1    1    2    0    0  0.86220417811E+02 -0.35351156448E+02 -0.19054474471E+03  0.29084697772E+03  0.19900000000E+03 0.  0.
<mgrwt>
<rscale>  0 0.44064061E+03</rscale>
<asrwt>0</asrwt>
<pdfrwt beam="1">  1        1 0.74159748E-01 0.44064061E+03</pdfrwt>
<pdfrwt beam="2">  1       -1 0.13358101E-01 0.44064061E+03</pdfrwt>
<totfact> 0.18426602E+03</totfact>
</mgrwt>
</event>
<event>
 4    1  0.6282309E-006  0.5810786E+03  0.7818608E-02  0.9945459E-01
         -1   -1    0    0    0  501 -0.00000000000E+00  0.00000000000E+00  0.97814327487E+02  0.97814327617E+02  0.50400000000E-02 0. -1.
          1   -1    0    0  501    0  0.00000000000E+00 -0.00000000000E+00 -0.86299314078E+03  0.86299314079E+03  0.50400000000E-02 0.  1.
    5000001    1    1    2    0    0 -0.15806636770E+03  0.11748084497E+03 -0.51093863508E+03  0.58261995705E+03  0.19900000000E+03 0.  0.
   -5000001    1    1    2    0    0  0.15806636770E+03 -0.11748084497E+03 -0.25424017821E+03  0.37818751136E+03  0.19900000000E+03 0.  0.
<mgrwt>
<rscale>  0 0.58107863E+03</rscale>
<asrwt>0</asrwt>
<pdfrwt beam="1">  1        1 0.12328473E+00 0.58107863E+03</pdfrwt>
<pdfrwt beam="2">  1       -1 0.13973476E-01 0.58107863E+03</pdfrwt>
<totfact> 0.82149102E+02</totfact>
</mgrwt>
</event>
<event>
 4    1  0.6282309E-006  0.6134325E+03  0.7818608E-02  0.9877923E-01
          1   -1    0    0  501    0  0.00000000000E+00  0.00000000000E+00  0.30725245104E+03  0.30725245108E+03  0.50400000000E-02 0. -1.
         -1   -1    0    0    0  501 -0.00000000000E+00 -0.00000000000E+00 -0.30618096312E+03  0.30618096316E+03  0.50400000000E-02 0.  1.
    5000001    1    1    2    0    0 -0.23003915204E+03  0.11294466519E+02  0.38328326798E+02  0.30678271966E+03  0.19900000000E+03 0.  0.
   -5000001    1    1    2    0    0  0.23003915204E+03 -0.11294466519E+02 -0.37256838881E+02  0.30665069458E+03  0.19900000000E+03 0.  0.
<mgrwt>
<rscale>  0 0.61343248E+03</rscale>
<asrwt>0</asrwt>
<pdfrwt beam="1">  1        1 0.43893207E-01 0.61343248E+03</pdfrwt>
<pdfrwt beam="2">  1       -1 0.43740138E-01 0.61343248E+03</pdfrwt>
<totfact> 0.48842762E+02</totfact>
</mgrwt>
</event>
<event>
 4    1  0.6282309E-006  0.4752918E+03  0.7818608E-02  0.1020437E+00
         -1   -1    0    0    0  501 -0.00000000000E+00  0.00000000000E+00  0.40088564966E+02  0.40088565283E+02  0.50400000000E-02 0. -1.
          1   -1    0    0  501    0  0.00000000000E+00 -0.00000000000E+00 -0.14087704404E+04  0.14087704404E+04  0.50400000000E-02 0.  1.
    5000001    1    1    2    0    0  0.71059617138E+02  0.10285077062E+03 -0.57670177489E+03  0.62274688869E+03  0.19900000000E+03 0.  0.
   -5000001    1    1    2    0    0 -0.71059617138E+02 -0.10285077062E+03 -0.79198010050E+03  0.82611211696E+03  0.19900000000E+03 0.  0.
<mgrwt>
<rscale>  0 0.47529185E+03</rscale>
<asrwt>0</asrwt>
<pdfrwt beam="1">  1        1 0.20125289E+00 0.47529185E+03</pdfrwt>
<pdfrwt beam="2">  1       -1 0.57269388E-02 0.47529185E+03</pdfrwt>
<totfact> 0.13735896E+03</totfact>
</mgrwt>
</event>
<event>
 4    1  0.6282309E-006  0.6792755E+03  0.7818608E-02  0.9753345E-01
          1   -1    0    0  501    0  0.00000000000E+00  0.00000000000E+00  0.91445146399E+03  0.91445146401E+03  0.50400000000E-02 0.  1.
         -1   -1    0    0    0  501 -0.00000000000E+00 -0.00000000000E+00 -0.12614534124E+03  0.12614534134E+03  0.50400000000E-02 0. -1.
    5000001    1    1    2    0    0 -0.10429697478E+03  0.20094602784E+03  0.15439079526E+03  0.33866603419E+03  0.19900000000E+03 0.  0.
   -5000001    1    1    2    0    0  0.10429697478E+03 -0.20094602784E+03  0.63391532750E+03  0.70193077115E+03  0.19900000000E+03 0.  0.
<mgrwt>
<rscale>  0 0.67927547E+03</rscale>
<asrwt>0</asrwt>
<pdfrwt beam="1">  1        1 0.13063592E+00 0.67927547E+03</pdfrwt>
<pdfrwt beam="2">  1       -1 0.18020764E-01 0.67927547E+03</pdfrwt>
<totfact> 0.49291835E+02</totfact>
</mgrwt>
</event>
<event>
 4    1  0.6282309E-006  0.5214025E+03  0.7818608E-02  0.1008339E+00
         -1   -1    0    0    0  501 -0.00000000000E+00  0.00000000000E+00  0.19133017261E+03  0.19133017268E+03  0.50400000000E-02 0. -1.
          1   -1    0    0  501    0  0.00000000000E+00 -0.00000000000E+00 -0.35522440153E+03  0.35522440156E+03  0.50400000000E-02 0.  1.
    5000001    1    1    2    0    0  0.15491993309E+03  0.62507388789E+02 -0.59543547637E+02  0.26655917427E+03  0.19900000000E+03 0.  0.
   -5000001    1    1    2    0    0 -0.15491993309E+03 -0.62507388789E+02 -0.10435068128E+03  0.27999539997E+03  0.19900000000E+03 0.  0.
<mgrwt>
<rscale>  0 0.52140252E+03</rscale>
<asrwt>0</asrwt>
<pdfrwt beam="1">  1        1 0.50746343E-01 0.52140252E+03</pdfrwt>
<pdfrwt beam="2">  1       -1 0.27332882E-01 0.52140252E+03</pdfrwt>
<totfact> 0.93256214E+02</totfact>
</mgrwt>
</event>
<event>
 4    1  0.6282309E-006  0.4836475E+03  0.7818608E-02  0.1018138E+00
         -1   -1    0    0    0  501 -0.00000000000E+00  0.00000000000E+00  0.94680598928E+02  0.94680599062E+02  0.50400000000E-02 0. -1.
          1   -1    0    0  501    0  0.00000000000E+00 -0.00000000000E+00 -0.61764206142E+03  0.61764206144E+03  0.50400000000E-02 0.  1.
    5000001    1    1    2    0    0  0.80839655032E+02  0.11028074406E+03 -0.24167546458E+03  0.34162102177E+03  0.19900000000E+03 0.  0.
   -5000001    1    1    2    0    0 -0.80839655032E+02 -0.11028074406E+03 -0.28128599791E+03  0.37070163873E+03  0.19900000000E+03 0.  0.
<mgrwt>
<rscale>  0 0.48364748E+03</rscale>
<asrwt>0</asrwt>
<pdfrwt beam="1">  1        1 0.88234578E-01 0.48364748E+03</pdfrwt>
<pdfrwt beam="2">  1       -1 0.13525800E-01 0.48364748E+03</pdfrwt>
<totfact> 0.14239273E+03</totfact>
</mgrwt>
</event>
<event>
 4    1  0.6282309E-006  0.6927939E+03  0.7818608E-02  0.9729636E-01
          1   -1    0    0  501    0  0.00000000000E+00  0.00000000000E+00  0.20299939024E+03  0.20299939030E+03  0.50400000000E-02 0.  1.
         -1   -1    0    0    0  501 -0.00000000000E+00 -0.00000000000E+00 -0.59108973019E+03  0.59108973021E+03  0.50400000000E-02 0. -1.
    5000001    1    1    2    0    0 -0.58612412256E+02 -0.27390993101E+03 -0.24437146973E+03  0.42164022625E+03  0.19900000000E+03 0.  0.
   -5000001    1    1    2    0    0  0.58612412256E+02  0.27390993101E+03 -0.14371887022E+03  0.37244889425E+03  0.19900000000E+03 0.  0.
<mgrwt>
<rscale>  0 0.69279392E+03</rscale>
<asrwt>0</asrwt>
<pdfrwt beam="1">  1        1 0.28999913E-01 0.69279392E+03</pdfrwt>
<pdfrwt beam="2">  1       -1 0.84441389E-01 0.69279392E+03</pdfrwt>
<totfact> 0.22631413E+02</totfact>
</mgrwt>
</event>
<event>
 4    1  0.6282309E-006  0.5120310E+03  0.7818608E-02  0.1010685E+00
         -1   -1    0    0    0  501 -0.00000000000E+00  0.00000000000E+00  0.96358884373E+03  0.96358884374E+03  0.50400000000E-02 0.  1.
          1   -1    0    0  501    0  0.00000000000E+00 -0.00000000000E+00 -0.68020645237E+02  0.68020645424E+02  0.50400000000E-02 0. -1.
    5000001    1    1    2    0    0 -0.87807800491E+01 -0.12561621679E+03  0.24544158196E+03  0.34014571315E+03  0.19900000000E+03 0.  0.
   -5000001    1    1    2    0    0  0.87807800491E+01  0.12561621679E+03  0.65012661653E+03  0.69146377602E+03  0.19900000000E+03 0.  0.
<mgrwt>
<rscale>  0 0.51203100E+03</rscale>
<asrwt>0</asrwt>
<pdfrwt beam="1">  1        1 0.97172351E-02 0.51203100E+03</pdfrwt>
<pdfrwt beam="2">  1       -1 0.13765555E+00 0.51203100E+03</pdfrwt>
<totfact> 0.31251544E+02</totfact>
</mgrwt>
</event>
<event>
 4    1  0.6282309E-006  0.8271597E+03  0.7818608E-02  0.9521516E-01
          1   -1    0    0  501    0  0.00000000000E+00  0.00000000000E+00  0.16843282247E+03  0.16843282255E+03  0.50400000000E-02 0.  1.
         -1   -1    0    0    0  501 -0.00000000000E+00 -0.00000000000E+00 -0.10155283456E+04  0.10155283456E+04  0.50400000000E-02 0. -1.
    5000001    1    1    2    0    0  0.22526961612E+03 -0.23355619324E+03 -0.19207284573E+03  0.42636589148E+03  0.19900000000E+03 0.  0.
   -5000001    1    1    2    0    0 -0.22526961612E+03  0.23355619324E+03 -0.65502267737E+03  0.75759527666E+03  0.19900000000E+03 0.  0.
<mgrwt>
<rscale>  0 0.82715973E+03</rscale>
<asrwt>0</asrwt>
<pdfrwt beam="1">  1        1 0.24061832E-01 0.82715973E+03</pdfrwt>
<pdfrwt beam="2">  1       -1 0.14507547E+00 0.82715973E+03</pdfrwt>
<totfact> 0.79330432E+01</totfact>
</mgrwt>
</event>
<event>
 4    1  0.6282309E-006  0.5329759E+03  0.7818608E-02  0.1005513E+00
          1   -1    0    0  501    0  0.00000000000E+00  0.00000000000E+00  0.93198757035E+03  0.93198757036E+03  0.50400000000E-02 0.  1.
         -1   -1    0    0    0  501 -0.00000000000E+00 -0.00000000000E+00 -0.76198261921E+02  0.76198262087E+02  0.50400000000E-02 0. -1.
    5000001    1    1    2    0    0  0.58465690002E+02  0.14595795638E+03  0.27314159843E+03  0.37273220243E+03  0.19900000000E+03 0.  0.
   -5000001    1    1    2    0    0 -0.58465690002E+02 -0.14595795638E+03  0.58264771000E+03  0.63545363002E+03  0.19900000000E+03 0.  0.
<mgrwt>
<rscale>  0 0.53297592E+03</rscale>
<asrwt>0</asrwt>
<pdfrwt beam="1">  1        1 0.13314107E+00 0.53297592E+03</pdfrwt>
<pdfrwt beam="2">  1       -1 0.10885467E-01 0.53297592E+03</pdfrwt>
<totfact> 0.10823084E+03</totfact>
</mgrwt>
</event>
<event>
 4    1  0.6282309E-006  0.5019075E+03  0.7818608E-02  0.1013282E+00
          1   -1    0    0  501    0  0.00000000000E+00  0.00000000000E+00  0.30856715097E+03  0.30856715101E+03  0.50400000000E-02 0.  1.
         -1   -1    0    0    0  501 -0.00000000000E+00 -0.00000000000E+00 -0.20409750303E+03  0.20409750309E+03  0.50400000000E-02 0. -1.
    5000001    1    1    2    0    0  0.12443798815E+03 -0.68586149094E+02  0.10990653979E+03  0.26808453934E+03  0.19900000000E+03 0.  0.
   -5000001    1    1    2    0    0 -0.12443798815E+03  0.68586149094E+02 -0.54368918570E+01  0.24458011476E+03  0.19900000000E+03 0.  0.
<mgrwt>
<rscale>  0 0.50190750E+03</rscale>
<asrwt>0</asrwt>
<pdfrwt beam="1">  1        1 0.44081021E-01 0.50190750E+03</pdfrwt>
<pdfrwt beam="2">  1       -1 0.29156786E-01 0.50190750E+03</pdfrwt>
<totfact> 0.10004987E+03</totfact>
</mgrwt>
</event>
<event>
 4    1  0.6282309E-006  0.1134825E+04  0.7818608E-02  0.9171898E-01
          1   -1    0    0  501    0  0.00000000000E+00  0.00000000000E+00  0.13851627170E+04  0.13851627170E+04  0.50400000000E-02 0.  1.
         -1   -1    0    0    0  501 -0.00000000000E+00 -0.00000000000E+00 -0.23243274102E+03  0.23243274108E+03  0.50400000000E-02 0. -1.
    5000001    1    1    2    0    0  0.16205728154E+03 -0.44164084195E+03  0.22417830052E+03  0.55782264763E+03  0.19900000000E+03 0.  0.
   -5000001    1    1    2    0    0 -0.16205728154E+03  0.44164084195E+03  0.92855167542E+03  0.10597728104E+04  0.19900000000E+03 0.  0.
<mgrwt>
<rscale>  0 0.11348254E+04</rscale>
<asrwt>0</asrwt>
<pdfrwt beam="1">  1        1 0.19788040E+00 0.11348254E+04</pdfrwt>
<pdfrwt beam="2">  1       -1 0.33204676E-01 0.11348254E+04</pdfrwt>
<totfact> 0.78386443E+01</totfact>
</mgrwt>
</event>
<event>
 4    1  0.6282309E-006  0.7843776E+03  0.7818608E-02  0.9582909E-01
          1   -1    0    0  501    0  0.00000000000E+00  0.00000000000E+00  0.21929725142E+04  0.21929725142E+04  0.50400000000E-02 0.  1.
         -1   -1    0    0    0  501 -0.00000000000E+00 -0.00000000000E+00 -0.70138618845E+02  0.70138619026E+02  0.50400000000E-02 0. -1.
    5000001    1    1    2    0    0 -0.45444605421E+02 -0.17906042428E+03  0.18779080160E+04  0.18974370515E+04  0.19900000000E+03 0.  0.
   -5000001    1    1    2    0    0  0.45444605421E+02  0.17906042428E+03  0.24492587938E+03  0.36567408179E+03  0.19900000000E+03 0.  0.
<mgrwt>
<rscale>  0 0.78437762E+03</rscale>
<asrwt>0</asrwt>
<pdfrwt beam="1">  1        1 0.31328171E+00 0.78437762E+03</pdfrwt>
<pdfrwt beam="2">  1       -1 0.10019805E-01 0.78437762E+03</pdfrwt>
<totfact> 0.18193170E+02</totfact>
</mgrwt>
</event>
<event>
 4    1  0.6282309E-006  0.5933090E+03  0.7818608E-02  0.9919386E-01
         -1   -1    0    0    0  501 -0.00000000000E+00  0.00000000000E+00  0.32492658352E+02  0.32492658743E+02  0.50400000000E-02 0. -1.
          1   -1    0    0  501    0  0.00000000000E+00 -0.00000000000E+00 -0.27084237063E+04  0.27084237063E+04  0.50400000000E-02 0.  1.
    5000001    1    1    2    0    0  0.19972298041E+02  0.20196111832E+03 -0.17303882199E+04  0.17535767955E+04  0.19900000000E+03 0.  0.
   -5000001    1    1    2    0    0 -0.19972298041E+02 -0.20196111832E+03 -0.94554282800E+03  0.98733956954E+03  0.19900000000E+03 0.  0.
<mgrwt>
<rscale>  0 0.59330898E+03</rscale>
<asrwt>0</asrwt>
<pdfrwt beam="1">  1        1 0.38691753E+00 0.59330898E+03</pdfrwt>
<pdfrwt beam="2">  1       -1 0.46418101E-02 0.59330898E+03</pdfrwt>
<totfact> 0.29133051E+02</totfact>
</mgrwt>
</event>
<event>
 4    1  0.6282309E-006  0.6750100E+03  0.7818608E-02  0.9760949E-01
          1   -1    0    0  501    0  0.00000000000E+00  0.00000000000E+00  0.45201687698E+03  0.45201687700E+03  0.50400000000E-02 0.  1.
         -1   -1    0    0    0  501 -0.00000000000E+00 -0.00000000000E+00 -0.25200306736E+03  0.25200306741E+03  0.50400000000E-02 0. -1.
    5000001    1    1    2    0    0  0.22742741817E+03  0.13861357542E+03  0.39445175178E+02  0.33480423484E+03  0.19900000000E+03 0.  0.
   -5000001    1    1    2    0    0 -0.22742741817E+03 -0.13861357542E+03  0.16056863444E+03  0.36921570957E+03  0.19900000000E+03 0.  0.
<mgrwt>
<rscale>  0 0.67501004E+03</rscale>
<asrwt>0</asrwt>
<pdfrwt beam="1">  1        1 0.64573839E-01 0.67501004E+03</pdfrwt>
<pdfrwt beam="2">  1       -1 0.36000438E-01 0.67501004E+03</pdfrwt>
<totfact> 0.41921252E+02</totfact>
</mgrwt>
</event>
<event>
 4    1  0.6282309E-006  0.7202235E+03  0.7818608E-02  0.9683259E-01
         -1   -1    0    0    0  501 -0.00000000000E+00  0.00000000000E+00  0.44583473919E+02  0.44583474204E+02  0.50400000000E-02 0. -1.
          1   -1    0    0  501    0  0.00000000000E+00 -0.00000000000E+00 -0.29087120814E+04  0.29087120814E+04  0.50400000000E-02 0.  1.
    5000001    1    1    2    0    0 -0.18529528084E+03 -0.22176441096E+03 -0.17643257365E+04  0.17988774554E+04  0.19900000000E+03 0.  0.
   -5000001    1    1    2    0    0  0.18529528084E+03  0.22176441096E+03 -0.10998028710E+04  0.11544181002E+04  0.19900000000E+03 0.  0.
<mgrwt>
<rscale>  0 0.72022355E+03</rscale>
<asrwt>0</asrwt>
<pdfrwt beam="1">  1        1 0.41553018E+00 0.72022355E+03</pdfrwt>
<pdfrwt beam="2">  1       -1 0.63690695E-02 0.72022355E+03</pdfrwt>
<totfact> 0.13179654E+02</totfact>
</mgrwt>
</event>
<event>
 4    1  0.6282309E-006  0.8359056E+03  0.7818608E-02  0.9509452E-01
         -1   -1    0    0    0  501 -0.00000000000E+00  0.00000000000E+00  0.16921229550E+03  0.16921229557E+03  0.50400000000E-02 0. -1.
          1   -1    0    0  501    0  0.00000000000E+00 -0.00000000000E+00 -0.10323394820E+04  0.10323394820E+04  0.50400000000E-02 0.  1.
    5000001    1    1    2    0    0  0.27895375482E+03  0.54740776510E+02 -0.96696621615E+02  0.36022629911E+03  0.19900000000E+03 0.  0.
   -5000001    1    1    2    0    0 -0.27895375482E+03 -0.54740776510E+02 -0.76643056488E+03  0.84132547847E+03  0.19900000000E+03 0.  0.
<mgrwt>
<rscale>  0 0.83590558E+03</rscale>
<asrwt>0</asrwt>
<pdfrwt beam="1">  1        1 0.14747706E+00 0.83590558E+03</pdfrwt>
<pdfrwt beam="2">  1       -1 0.24173186E-01 0.83590558E+03</pdfrwt>
<totfact> 0.24380993E+02</totfact>
</mgrwt>
</event>
<event>
 4    1  0.6282309E-006  0.4596788E+03  0.7818608E-02  0.1024874E+00
          1   -1    0    0  501    0  0.00000000000E+00  0.00000000000E+00  0.30414280815E+03  0.30414280819E+03  0.50400000000E-02 0.  1.
         -1   -1    0    0    0  501 -0.00000000000E+00 -0.00000000000E+00 -0.17368867222E+03  0.17368867229E+03  0.50400000000E-02 0. -1.
    5000001    1    1    2    0    0  0.17017305804E+02 -0.10028007308E+03  0.12100689729E+03  0.25414435060E+03  0.19900000000E+03 0.  0.
   -5000001    1    1    2    0    0 -0.17017305804E+02  0.10028007308E+03  0.94472386453E+01  0.22368712987E+03  0.19900000000E+03 0.  0.
<mgrwt>
<rscale>  0 0.45967885E+03</rscale>
<asrwt>0</asrwt>
<pdfrwt beam="1">  1        1 0.43448972E-01 0.45967885E+03</pdfrwt>
<pdfrwt beam="2">  1       -1 0.24812668E-01 0.45967885E+03</pdfrwt>
<totfact> 0.13413518E+03</totfact>
</mgrwt>
</event>
<event>
 4    1  0.6282309E-006  0.5378238E+03  0.7818608E-02  0.1004352E+00
         -1   -1    0    0    0  501 -0.00000000000E+00  0.00000000000E+00  0.10003300821E+04  0.10003300821E+04  0.50400000000E-02 0. -1.
          1   -1    0    0  501    0  0.00000000000E+00 -0.00000000000E+00 -0.72289747135E+02  0.72289747310E+02  0.50400000000E-02 0.  1.
    5000001    1    1    2    0    0  0.17720529977E+03 -0.31703129072E+02  0.42914421649E+03  0.50613492786E+03  0.19900000000E+03 0.  0.
   -5000001    1    1    2    0    0 -0.17720529977E+03  0.31703129072E+02  0.49889611846E+03  0.56648490154E+03  0.19900000000E+03 0.  0.
<mgrwt>
<rscale>  0 0.53782380E+03</rscale>
<asrwt>0</asrwt>
<pdfrwt beam="1">  1        1 0.10327107E-01 0.53782380E+03</pdfrwt>
<pdfrwt beam="2">  1       -1 0.14290429E+00 0.53782380E+03</pdfrwt>
<totfact> 0.26071414E+02</totfact>
</mgrwt>
</event>
<event>
 4    1  0.6282309E-006  0.8993506E+03  0.7818608E-02  0.9426394E-01
         -1   -1    0    0    0  501 -0.00000000000E+00  0.00000000000E+00  0.22312741311E+03  0.22312741317E+03  0.50400000000E-02 0. -1.
          1   -1    0    0  501    0  0.00000000000E+00 -0.00000000000E+00 -0.90624404153E+03  0.90624404155E+03  0.50400000000E-02 0.  1.
    5000001    1    1    2    0    0 -0.32163226115E+03 -0.23641518794E+03 -0.41333961437E+03  0.60810368302E+03  0.19900000000E+03 0.  0.
   -5000001    1    1    2    0    0  0.32163226115E+03  0.23641518794E+03 -0.26977701405E+03  0.52126777169E+03  0.19900000000E+03 0.  0.
<mgrwt>
<rscale>  0 0.89935063E+03</rscale>
<asrwt>0</asrwt>
<pdfrwt beam="1">  1        1 0.12946343E+00 0.89935063E+03</pdfrwt>
<pdfrwt beam="2">  1       -1 0.31875345E-01 0.89935063E+03</pdfrwt>
<totfact> 0.18767802E+02</totfact>
</mgrwt>
</event>
<event>
 4    1  0.6282309E-006  0.4436468E+03  0.7818608E-02  0.1029634E+00
         -1   -1    0    0    0  501 -0.00000000000E+00  0.00000000000E+00  0.16389233955E+03  0.16389233963E+03  0.50400000000E-02 0.  1.
          1   -1    0    0  501    0  0.00000000000E+00 -0.00000000000E+00 -0.30023132805E+03  0.30023132809E+03  0.50400000000E-02 0. -1.
    5000001    1    1    2    0    0  0.12436798081E+02 -0.42809425827E+02  0.23135964953E+02  0.20524033171E+03  0.19900000000E+03 0.  0.
   -5000001    1    1    2    0    0 -0.12436798081E+02  0.42809425827E+02 -0.15947495345E+03  0.25888333601E+03  0.19900000000E+03 0.  0.
<mgrwt>
<rscale>  0 0.44364677E+03</rscale>
<asrwt>0</asrwt>
<pdfrwt beam="1">  1        1 0.42890190E-01 0.44364677E+03</pdfrwt>
<pdfrwt beam="2">  1       -1 0.23413191E-01 0.44364677E+03</pdfrwt>
<totfact> 0.15030843E+03</totfact>
</mgrwt>
</event>
<event>
 4    1  0.6282309E-006  0.5580822E+03  0.7818608E-02  0.9996403E-01
         -1   -1    0    0    0  501 -0.00000000000E+00  0.00000000000E+00  0.15809991688E+04  0.15809991688E+04  0.50400000000E-02 0. -1.
          1   -1    0    0  501    0  0.00000000000E+00 -0.00000000000E+00 -0.49249822110E+02  0.49249822368E+02  0.50400000000E-02 0.  1.
    5000001    1    1    2    0    0  0.12976876548E+03 -0.13325382754E+03  0.94275375759E+03  0.98131654551E+03  0.19900000000E+03 0.  0.
   -5000001    1    1    2    0    0 -0.12976876548E+03  0.13325382754E+03  0.58899558907E+03  0.64893244564E+03  0.19900000000E+03 0.  0.
<mgrwt>
<rscale>  0 0.55808217E+03</rscale>
<asrwt>0</asrwt>
<pdfrwt beam="1">  1        1 0.70356892E-02 0.55808217E+03</pdfrwt>
<pdfrwt beam="2">  1       -1 0.22585701E+00 0.55808217E+03</pdfrwt>
<totfact> 0.11443136E+02</totfact>
</mgrwt>
</event>
<event>
 4    1  0.6282309E-006  0.1074335E+04  0.7818608E-02  0.9230574E-01
          1   -1    0    0  501    0  0.00000000000E+00  0.00000000000E+00  0.94533504943E+03  0.94533504944E+03  0.50400000000E-02 0.  1.
         -1   -1    0    0    0  501 -0.00000000000E+00 -0.00000000000E+00 -0.30523440332E+03  0.30523440336E+03  0.50400000000E-02 0. -1.
    5000001    1    1    2    0    0 -0.84280511055E+02 -0.41627795314E+03  0.15264427741E+02  0.46928087706E+03  0.19900000000E+03 0.  0.
   -5000001    1    1    2    0    0  0.84280511055E+02  0.41627795314E+03  0.62483621837E+03  0.78128857575E+03  0.19900000000E+03 0.  0.
<mgrwt>
<rscale>  0 0.10743347E+04</rscale>
<asrwt>0</asrwt>
<pdfrwt beam="1">  1        1 0.13504787E+00 0.10743347E+04</pdfrwt>
<pdfrwt beam="2">  1       -1 0.43604914E-01 0.10743347E+04</pdfrwt>
<totfact> 0.98357471E+01</totfact>
</mgrwt>
</event>
<event>
 4    1  0.6282309E-006  0.5376170E+03  0.7818608E-02  0.1004401E+00
         -1   -1    0    0    0  501 -0.00000000000E+00  0.00000000000E+00  0.11927296528E+04  0.11927296528E+04  0.50400000000E-02 0. -1.
          1   -1    0    0  501    0  0.00000000000E+00 -0.00000000000E+00 -0.60582052147E+02  0.60582052357E+02  0.50400000000E-02 0.  1.
    5000001    1    1    2    0    0 -0.70160287665E+02 -0.16081467685E+03  0.66697034887E+03  0.71779821157E+03  0.19900000000E+03 0.  0.
   -5000001    1    1    2    0    0  0.70160287665E+02  0.16081467685E+03  0.46517725181E+03  0.53551349363E+03  0.19900000000E+03 0.  0.
<mgrwt>
<rscale>  0 0.53761700E+03</rscale>
<asrwt>0</asrwt>
<pdfrwt beam="1">  1        1 0.86545788E-02 0.53761700E+03</pdfrwt>
<pdfrwt beam="2">  1       -1 0.17038995E+00 0.53761700E+03</pdfrwt>
<totfact> 0.20595768E+02</totfact>
</mgrwt>
</event>
<event>
 4    1  0.6282309E-006  0.5357636E+03  0.7818608E-02  0.1004844E+00
          1   -1    0    0  501    0  0.00000000000E+00  0.00000000000E+00  0.73213622527E+03  0.73213622529E+03  0.50400000000E-02 0.  1.
         -1   -1    0    0    0  501 -0.00000000000E+00 -0.00000000000E+00 -0.98015453984E+02  0.98015454113E+02  0.50400000000E-02 0. -1.
    5000001    1    1    2    0    0 -0.16183758019E+03  0.75836303174E+02  0.29422904241E+03  0.39763585935E+03  0.19900000000E+03 0.  0.
   -5000001    1    1    2    0    0  0.16183758019E+03 -0.75836303174E+02  0.33989172888E+03  0.43251582006E+03  0.19900000000E+03 0.  0.
<mgrwt>
<rscale>  0 0.53576362E+03</rscale>
<asrwt>0</asrwt>
<pdfrwt beam="1">  1        1 0.10459089E+00 0.53576362E+03</pdfrwt>
<pdfrwt beam="2">  1       -1 0.14002207E-01 0.53576362E+03</pdfrwt>
<totfact> 0.10540526E+03</totfact>
</mgrwt>
</event>
<event>
 4    1  0.6282309E-006  0.5348600E+03  0.7818608E-02  0.1005060E+00
         -1   -1    0    0    0  501 -0.00000000000E+00  0.00000000000E+00  0.86492646861E+02  0.86492647007E+02  0.50400000000E-02 0.  1.
          1   -1    0    0  501    0  0.00000000000E+00 -0.00000000000E+00 -0.82687734174E+03  0.82687734175E+03  0.50400000000E-02 0. -1.
    5000001    1    1    2    0    0  0.56945789904E+02 -0.15885213976E+03 -0.47036472291E+03  0.53788548768E+03  0.19900000000E+03 0.  0.
   -5000001    1    1    2    0    0 -0.56945789904E+02  0.15885213976E+03 -0.27001997196E+03  0.37548450108E+03  0.19900000000E+03 0.  0.
<mgrwt>
<rscale>  0 0.53486002E+03</rscale>
<asrwt>0</asrwt>
<pdfrwt beam="1">  1        1 0.11812533E+00 0.53486002E+03</pdfrwt>
<pdfrwt beam="2">  1       -1 0.12356093E-01 0.53486002E+03</pdfrwt>
<totfact> 0.10709219E+03</totfact>
</mgrwt>
</event>
<event>
 4    1  0.6282309E-006  0.5201899E+03  0.7818608E-02  0.1008639E+00
          1   -1    0    0  501    0  0.00000000000E+00  0.00000000000E+00  0.11985950986E+03  0.11985950997E+03  0.50400000000E-02 0.  1.
         -1   -1    0    0    0  501 -0.00000000000E+00 -0.00000000000E+00 -0.56440555981E+03  0.56440555983E+03  0.50400000000E-02 0. -1.
    5000001    1    1    2    0    0 -0.13144344536E+03 -0.88091332744E+02 -0.29445212873E+03  0.38902508704E+03  0.19900000000E+03 0.  0.
   -5000001    1    1    2    0    0  0.13144344536E+03  0.88091332744E+02 -0.15009392122E+03  0.29523998276E+03  0.19900000000E+03 0.  0.
<mgrwt>
<rscale>  0 0.52018986E+03</rscale>
<asrwt>0</asrwt>
<pdfrwt beam="1">  1        1 0.17122787E-01 0.52018986E+03</pdfrwt>
<pdfrwt beam="2">  1       -1 0.80629364E-01 0.52018986E+03</pdfrwt>
<totfact> 0.50130639E+02</totfact>
</mgrwt>
</event>
<event>
 4    1  0.6282309E-006  0.5781621E+03  0.7818608E-02  0.9951778E-01
          1   -1    0    0  501    0  0.00000000000E+00  0.00000000000E+00  0.76326667591E+02  0.76326667758E+02  0.50400000000E-02 0.  1.
         -1   -1    0    0    0  501 -0.00000000000E+00 -0.00000000000E+00 -0.10948711695E+04  0.10948711695E+04  0.50400000000E-02 0. -1.
    5000001    1    1    2    0    0 -0.10302319192E+00 -0.20952371603E+03 -0.52581261015E+03  0.59998341576E+03  0.19900000000E+03 0.  0.
   -5000001    1    1    2    0    0  0.10302319192E+00  0.20952371603E+03 -0.49273189179E+03  0.57121442154E+03  0.19900000000E+03 0.  0.
<mgrwt>
<rscale>  0 0.57816215E+03</rscale>
<asrwt>0</asrwt>
<pdfrwt beam="1">  1        1 0.10903810E-01 0.57816215E+03</pdfrwt>
<pdfrwt beam="2">  1       -1 0.15641016E+00 0.57816215E+03</pdfrwt>
<totfact> 0.18991925E+02</totfact>
</mgrwt>
</event>
<event>
 4    1  0.6282309E-006  0.5899337E+03  0.7818608E-02  0.9926513E-01
         -1   -1    0    0    0  501 -0.00000000000E+00  0.00000000000E+00  0.20849550493E+03  0.20849550499E+03  0.50400000000E-02 0. -1.
          1   -1    0    0  501    0  0.00000000000E+00 -0.00000000000E+00 -0.41730122915E+03  0.41730122918E+03  0.50400000000E-02 0.  1.
    5000001    1    1    2    0    0  0.21294693888E+03 -0.45231572159E+02 -0.10070731406E+03  0.31166529644E+03  0.19900000000E+03 0.  0.
   -5000001    1    1    2    0    0 -0.21294693888E+03  0.45231572159E+02 -0.10809841016E+03  0.31413143774E+03  0.19900000000E+03 0.  0.
<mgrwt>
<rscale>  0 0.58993366E+03</rscale>
<asrwt>0</asrwt>
<pdfrwt beam="1">  1        1 0.59614461E-01 0.58993366E+03</pdfrwt>
<pdfrwt beam="2">  1       -1 0.29785072E-01 0.58993366E+03</pdfrwt>
<totfact> 0.65163189E+02</totfact>
</mgrwt>
</event>
<event>
 4    1  0.6282309E-006  0.1349052E+04  0.7818608E-02  0.8991546E-01
         -1   -1    0    0    0  501 -0.00000000000E+00  0.00000000000E+00  0.62743126277E+03  0.62743126279E+03  0.50400000000E-02 0. -1.
          1   -1    0    0  501    0  0.00000000000E+00 -0.00000000000E+00 -0.72515532724E+03  0.72515532726E+03  0.50400000000E-02 0.  1.
    5000001    1    1    2    0    0 -0.42097707090E+03  0.19659894280E+03 -0.49669928363E+03  0.70864943159E+03  0.19900000000E+03 0.  0.
   -5000001    1    1    2    0    0  0.42097707090E+03 -0.19659894280E+03  0.39897521916E+03  0.64393715846E+03  0.19900000000E+03 0.  0.
<mgrwt>
<rscale>  0 0.13490517E+04</rscale>
<asrwt>0</asrwt>
<pdfrwt beam="1">  1        1 0.10359362E+00 0.13490517E+04</pdfrwt>
<pdfrwt beam="2">  1       -1 0.89633038E-01 0.13490517E+04</pdfrwt>
<totfact> 0.34555737E+01</totfact>
</mgrwt>
</event>
<event>
 4    1  0.6282309E-006  0.4208902E+03  0.7818608E-02  0.1036777E+00
          1   -1    0    0  501    0  0.00000000000E+00  0.00000000000E+00  0.23859568163E+03  0.23859568169E+03  0.50400000000E-02 0.  1.
         -1   -1    0    0    0  501 -0.00000000000E+00 -0.00000000000E+00 -0.18561582865E+03  0.18561582872E+03  0.50400000000E-02 0. -1.
    5000001    1    1    2    0    0  0.62017083316E+02 -0.24017143599E+02  0.42841183132E+02  0.21414786663E+03  0.19900000000E+03 0.  0.
   -5000001    1    1    2    0    0 -0.62017083316E+02  0.24017143599E+02  0.10138669850E+02  0.21006364377E+03  0.19900000000E+03 0.  0.
<mgrwt>
<rscale>  0 0.42089018E+03</rscale>
<asrwt>0</asrwt>
<pdfrwt beam="1">  1        1 0.34085098E-01 0.42089018E+03</pdfrwt>
<pdfrwt beam="2">  1       -1 0.26516547E-01 0.42089018E+03</pdfrwt>
<totfact> 0.16331917E+03</totfact>
</mgrwt>
</event>
<event>
 4    1  0.6282309E-006  0.6507824E+03  0.7818608E-02  0.9805312E-01
          1   -1    0    0  501    0  0.00000000000E+00  0.00000000000E+00  0.61590834519E+03  0.61590834521E+03  0.50400000000E-02 0. -1.
         -1   -1    0    0    0  501 -0.00000000000E+00 -0.00000000000E+00 -0.17190779442E+03  0.17190779449E+03  0.50400000000E-02 0.  1.
    5000001    1    1    2    0    0  0.19044043667E+03 -0.16755283518E+03  0.16872247113E+03  0.36388155320E+03  0.19900000000E+03 0.  0.
   -5000001    1    1    2    0    0 -0.19044043667E+03  0.16755283518E+03  0.27527807964E+03  0.42393458650E+03  0.19900000000E+03 0.  0.
<mgrwt>
<rscale>  0 0.65078244E+03</rscale>
<asrwt>0</asrwt>
<pdfrwt beam="1">  1        1 0.87986906E-01 0.65078244E+03</pdfrwt>
<pdfrwt beam="2">  1       -1 0.24558257E-01 0.65078244E+03</pdfrwt>
<totfact> 0.53440383E+02</totfact>
</mgrwt>
</event>
<event>
 4    1  0.6282309E-006  0.5579276E+03  0.7818608E-02  0.9996755E-01
          1   -1    0    0  501    0  0.00000000000E+00  0.00000000000E+00  0.91994927590E+03  0.91994927591E+03  0.50400000000E-02 0.  1.
         -1   -1    0    0    0  501 -0.00000000000E+00 -0.00000000000E+00 -0.84592497863E+02  0.84592498013E+02  0.50400000000E-02 0. -1.
    5000001    1    1    2    0    0 -0.12720314059E+03 -0.87159420651E+02  0.20130199456E+03  0.32233662001E+03  0.19900000000E+03 0.  0.
   -5000001    1    1    2    0    0  0.12720314059E+03  0.87159420651E+02  0.63405478348E+03  0.68220515392E+03  0.19900000000E+03 0.  0.
<mgrwt>
<rscale>  0 0.55792762E+03</rscale>
<asrwt>0</asrwt>
<pdfrwt beam="1">  1        1 0.13142133E+00 0.55792762E+03</pdfrwt>
<pdfrwt beam="2">  1       -1 0.12084642E-01 0.55792762E+03</pdfrwt>
<totfact> 0.93601582E+02</totfact>
</mgrwt>
</event>
<event>
 4    1  0.6282309E-006  0.4884320E+03  0.7818608E-02  0.1016843E+00
         -1   -1    0    0    0  501 -0.00000000000E+00  0.00000000000E+00  0.77126626061E+02  0.77126626225E+02  0.50400000000E-02 0.  1.
          1   -1    0    0  501    0  0.00000000000E+00 -0.00000000000E+00 -0.77329251728E+03  0.77329251730E+03  0.50400000000E-02 0. -1.
    5000001    1    1    2    0    0  0.11135456892E+03 -0.87234633761E+02 -0.33843243061E+03  0.41730951515E+03  0.19900000000E+03 0.  0.
   -5000001    1    1    2    0    0 -0.11135456892E+03  0.87234633761E+02 -0.35773346062E+03  0.43310962838E+03  0.19900000000E+03 0.  0.
<mgrwt>
<rscale>  0 0.48843195E+03</rscale>
<asrwt>0</asrwt>
<pdfrwt beam="1">  1        1 0.11047036E+00 0.48843195E+03</pdfrwt>
<pdfrwt beam="2">  1       -1 0.11018090E-01 0.48843195E+03</pdfrwt>
<totfact> 0.14237579E+03</totfact>
</mgrwt>
</event>
<event>
 4    1  0.6282309E-006  0.7111941E+03  0.7818608E-02  0.9698278E-01
         -1   -1    0    0    0  501 -0.00000000000E+00  0.00000000000E+00  0.13599740352E+04  0.13599740352E+04  0.50400000000E-02 0. -1.
          1   -1    0    0  501    0  0.00000000000E+00 -0.00000000000E+00 -0.92979176883E+02  0.92979177020E+02  0.50400000000E-02 0.  1.
    5000001    1    1    2    0    0  0.12349811660E+03  0.22383423176E+03  0.33397499521E+03  0.46528899142E+03  0.19900000000E+03 0.  0.
   -5000001    1    1    2    0    0 -0.12349811660E+03 -0.22383423176E+03  0.93301986308E+03  0.98766422079E+03  0.19900000000E+03 0.  0.
<mgrwt>
<rscale>  0 0.71119411E+03</rscale>
<asrwt>0</asrwt>
<pdfrwt beam="1">  1        1 0.13282740E-01 0.71119411E+03</pdfrwt>
<pdfrwt beam="2">  1       -1 0.19428200E+00 0.71119411E+03</pdfrwt>
<totfact> 0.76817761E+01</totfact>
</mgrwt>
</event>
<event>
 4    1  0.6282309E-006  0.5708562E+03  0.7818608E-02  0.9967786E-01
         -1   -1    0    0    0  501 -0.00000000000E+00  0.00000000000E+00  0.64130654969E+03  0.64130654971E+03  0.50400000000E-02 0.  1.
          1   -1    0    0  501    0  0.00000000000E+00 -0.00000000000E+00 -0.12703629191E+03  0.12703629201E+03  0.50400000000E-02 0. -1.
    5000001    1    1    2    0    0 -0.12039188813E+03  0.15564546120E+03  0.18161209021E+03  0.33362204308E+03  0.19900000000E+03 0.  0.
   -5000001    1    1    2    0    0  0.12039188813E+03 -0.15564546120E+03  0.33265816757E+03  0.43472079864E+03  0.19900000000E+03 0.  0.
<mgrwt>
<rscale>  0 0.57085622E+03</rscale>
<asrwt>0</asrwt>
<pdfrwt beam="1">  1        1 0.18148041E-01 0.57085622E+03</pdfrwt>
<pdfrwt beam="2">  1       -1 0.91615223E-01 0.57085622E+03</pdfrwt>
<totfact> 0.35195007E+02</totfact>
</mgrwt>
</event>
<event>
 4    1  0.6282309E-006  0.5133224E+03  0.7818608E-02  0.1010359E+00
         -1   -1    0    0    0  501 -0.00000000000E+00  0.00000000000E+00  0.64336422679E+02  0.64336422877E+02  0.50400000000E-02 0. -1.
          1   -1    0    0  501    0  0.00000000000E+00 -0.00000000000E+00 -0.10239141402E+04  0.10239141402E+04  0.50400000000E-02 0.  1.
    5000001    1    1    2    0    0 -0.41096423213E+02 -0.15223601552E+03 -0.40020351392E+03  0.47394996885E+03  0.19900000000E+03 0.  0.
   -5000001    1    1    2    0    0  0.41096423213E+02  0.15223601552E+03 -0.55937420356E+03  0.61430059420E+03  0.19900000000E+03 0.  0.
<mgrwt>
<rscale>  0 0.51332241E+03</rscale>
<asrwt>0</asrwt>
<pdfrwt beam="1">  1        1 0.14627344E+00 0.51332241E+03</pdfrwt>
<pdfrwt beam="2">  1       -1 0.91909182E-02 0.51332241E+03</pdfrwt>
<totfact> 0.12069771E+03</totfact>
</mgrwt>
</event>
<event>
 4    1  0.6282309E-006  0.5391864E+03  0.7818608E-02  0.1004028E+00
         -1   -1    0    0    0  501 -0.00000000000E+00  0.00000000000E+00  0.45805934745E+02  0.45805935022E+02  0.50400000000E-02 0.  1.
          1   -1    0    0  501    0  0.00000000000E+00 -0.00000000000E+00 -0.15867045738E+04  0.15867045738E+04  0.50400000000E-02 0. -1.
    5000001    1    1    2    0    0  0.15425094449E+03  0.94962428488E+02 -0.82004032210E+03  0.86306335026E+03  0.19900000000E+03 0.  0.
   -5000001    1    1    2    0    0 -0.15425094449E+03 -0.94962428488E+02 -0.72085831694E+03  0.76944715855E+03  0.19900000000E+03 0.  0.
<mgrwt>
<rscale>  0 0.53918637E+03</rscale>
<asrwt>0</asrwt>
<pdfrwt beam="1">  1        1 0.22667205E+00 0.53918637E+03</pdfrwt>
<pdfrwt beam="2">  1       -1 0.65437060E-02 0.53918637E+03</pdfrwt>
<totfact> 0.85939246E+02</totfact>
</mgrwt>
</event>
<event>
 4    1  0.6282309E-006  0.7150018E+03  0.7818608E-02  0.9691916E-01
          1   -1    0    0  501    0  0.00000000000E+00  0.00000000000E+00  0.97660641364E+03  0.97660641365E+03  0.50400000000E-02 0. -1.
         -1   -1    0    0    0  501 -0.00000000000E+00 -0.00000000000E+00 -0.13086835759E+03  0.13086835768E+03  0.50400000000E-02 0.  1.
    5000001    1    1    2    0    0  0.69197641594E+01  0.22783992143E+03  0.12797732403E+03  0.32853935594E+03  0.19900000000E+03 0.  0.
   -5000001    1    1    2    0    0 -0.69197641594E+01 -0.22783992143E+03  0.71776073202E+03  0.77893541540E+03  0.19900000000E+03 0.  0.
<mgrwt>
<rscale>  0 0.71500176E+03</rscale>
<asrwt>0</asrwt>
<pdfrwt beam="1">  1        1 0.13951520E+00 0.71500176E+03</pdfrwt>
<pdfrwt beam="2">  1       -1 0.18695480E-01 0.71500176E+03</pdfrwt>
<totfact> 0.41523659E+02</totfact>
</mgrwt>
</event>
<event>
 4    1  0.6282309E-006  0.6835375E+03  0.7818608E-02  0.9745807E-01
         -1   -1    0    0    0  501 -0.00000000000E+00  0.00000000000E+00  0.11963254461E+03  0.11963254471E+03  0.50400000000E-02 0. -1.
          1   -1    0    0  501    0  0.00000000000E+00 -0.00000000000E+00 -0.97637200705E+03  0.97637200706E+03  0.50400000000E-02 0.  1.
    5000001    1    1    2    0    0 -0.19969251593E+03  0.27830356380E+02 -0.12181151546E+03  0.30836775927E+03  0.19900000000E+03 0.  0.
   -5000001    1    1    2    0    0  0.19969251593E+03 -0.27830356380E+02 -0.73492794698E+03  0.78763679250E+03  0.19900000000E+03 0.  0.
<mgrwt>
<rscale>  0 0.68353747E+03</rscale>
<asrwt>0</asrwt>
<pdfrwt beam="1">  1        1 0.13948171E+00 0.68353747E+03</pdfrwt>
<pdfrwt beam="2">  1       -1 0.17090364E-01 0.68353747E+03</pdfrwt>
<totfact> 0.48226723E+02</totfact>
</mgrwt>
</event>
<event>
 4    1  0.6282309E-006  0.4922632E+03  0.7818608E-02  0.1015818E+00
          1   -1    0    0  501    0  0.00000000000E+00  0.00000000000E+00  0.59542613934E+03  0.59542613936E+03  0.50400000000E-02 0.  1.
         -1   -1    0    0    0  501 -0.00000000000E+00 -0.00000000000E+00 -0.10174354726E+03  0.10174354739E+03  0.50400000000E-02 0. -1.
    5000001    1    1    2    0    0  0.13041049502E+03  0.62423663515E+02  0.25920062682E+03  0.35733678221E+03  0.19900000000E+03 0.  0.
   -5000001    1    1    2    0    0 -0.13041049502E+03 -0.62423663515E+02  0.23448196526E+03  0.33983290454E+03  0.19900000000E+03 0.  0.
<mgrwt>
<rscale>  0 0.49226321E+03</rscale>
<asrwt>0</asrwt>
<pdfrwt beam="1">  1        1 0.85060878E-01 0.49226321E+03</pdfrwt>
<pdfrwt beam="2">  1       -1 0.14534792E-01 0.49226321E+03</pdfrwt>
<totfact> 0.13352522E+03</totfact>
</mgrwt>
</event>
<event>
 4    1  0.6282309E-006  0.1162372E+04  0.7818608E-02  0.9146445E-01
          1   -1    0    0  501    0  0.00000000000E+00  0.00000000000E+00  0.67043031072E+03  0.67043031074E+03  0.50400000000E-02 0.  1.
         -1   -1    0    0    0  501 -0.00000000000E+00 -0.00000000000E+00 -0.50382180887E+03  0.50382180889E+03  0.50400000000E-02 0. -1.
    5000001    1    1    2    0    0  0.40414113613E+03 -0.23141585447E+03 -0.20472910272E+03  0.54625851125E+03  0.19900000000E+03 0.  0.
   -5000001    1    1    2    0    0 -0.40414113613E+03  0.23141585447E+03  0.37133760457E+03  0.62799360839E+03  0.19900000000E+03 0.  0.
<mgrwt>
<rscale>  0 0.11623724E+04</rscale>
<asrwt>0</asrwt>
<pdfrwt beam="1">  1        1 0.95775758E-01 0.11623724E+04</pdfrwt>
<pdfrwt beam="2">  1       -1 0.71974545E-01 0.11623724E+04</pdfrwt>
<totfact> 0.62835569E+01</totfact>
</mgrwt>
</event>
<event>
 4    1  0.6282309E-006  0.4729400E+03  0.7818608E-02  0.1021094E+00
          1   -1    0    0  501    0  0.00000000000E+00  0.00000000000E+00  0.17716633976E+03  0.17716633983E+03  0.50400000000E-02 0. -1.
         -1   -1    0    0    0  501 -0.00000000000E+00 -0.00000000000E+00 -0.31562461314E+03  0.31562461318E+03  0.50400000000E-02 0.  1.
    5000001    1    1    2    0    0 -0.78565331181E+02 -0.10069221818E+03 -0.66758229058E+02  0.24570123161E+03  0.19900000000E+03 0.  0.
   -5000001    1    1    2    0    0  0.78565331181E+02  0.10069221818E+03 -0.71700044320E+02  0.24708972140E+03  0.19900000000E+03 0.  0.
<mgrwt>
<rscale>  0 0.47293999E+03</rscale>
<asrwt>0</asrwt>
<pdfrwt beam="1">  1        1 0.25309477E-01 0.47293999E+03</pdfrwt>
<pdfrwt beam="2">  1       -1 0.45089230E-01 0.47293999E+03</pdfrwt>
<totfact> 0.94021710E+02</totfact>
</mgrwt>
</event>
<event>
 4    1  0.6282309E-006  0.6618385E+03  0.7818608E-02  0.9784815E-01
          1   -1    0    0  501    0  0.00000000000E+00  0.00000000000E+00  0.77681044840E+03  0.77681044842E+03  0.50400000000E-02 0. -1.
         -1   -1    0    0    0  501 -0.00000000000E+00 -0.00000000000E+00 -0.14097073173E+03  0.14097073182E+03  0.50400000000E-02 0.  1.
    5000001    1    1    2    0    0 -0.24327665555E+03 -0.30829386293E+02  0.18083445579E+03  0.36391768657E+03  0.19900000000E+03 0.  0.
   -5000001    1    1    2    0    0  0.24327665555E+03  0.30829386293E+02  0.45500526088E+03  0.55386349367E+03  0.19900000000E+03 0.  0.
<mgrwt>
<rscale>  0 0.66183846E+03</rscale>
<asrwt>0</asrwt>
<pdfrwt beam="1">  1        1 0.11097292E+00 0.66183846E+03</pdfrwt>
<pdfrwt beam="2">  1       -1 0.20138676E-01 0.66183846E+03</pdfrwt>
<totfact> 0.53067155E+02</totfact>
</mgrwt>
</event>
<event>
 4    1  0.6282309E-006  0.1411305E+04  0.7818608E-02  0.8945676E-01
         -1   -1    0    0    0  501 -0.00000000000E+00  0.00000000000E+00  0.83486773412E+03  0.83486773414E+03  0.50400000000E-02 0. -1.
          1   -1    0    0  501    0  0.00000000000E+00 -0.00000000000E+00 -0.59643663736E+03  0.59643663739E+03  0.50400000000E-02 0.  1.
    5000001    1    1    2    0    0  0.54143473927E+03  0.40632600168E+03  0.10947172361E+03  0.71402902938E+03  0.19900000000E+03 0.  0.
   -5000001    1    1    2    0    0 -0.54143473927E+03 -0.40632600168E+03  0.12895937315E+03  0.71727534214E+03  0.19900000000E+03 0.  0.
<mgrwt>
<rscale>  0 0.14113054E+04</rscale>
<asrwt>0</asrwt>
<pdfrwt beam="1">  1        1 0.85205234E-01 0.14113054E+04</pdfrwt>
<pdfrwt beam="2">  1       -1 0.11926682E+00 0.14113054E+04</pdfrwt>
<totfact> 0.23575486E+01</totfact>
</mgrwt>
</event>
<event>
 4    1  0.6282309E-006  0.9849792E+03  0.7818608E-02  0.9325174E-01
          1   -1    0    0  501    0  0.00000000000E+00  0.00000000000E+00  0.63311006094E+03  0.63311006096E+03  0.50400000000E-02 0.  1.
         -1   -1    0    0    0  501 -0.00000000000E+00 -0.00000000000E+00 -0.38310244374E+03  0.38310244377E+03  0.50400000000E-02 0. -1.
    5000001    1    1    2    0    0 -0.27247048573E+03  0.34321362981E+03  0.23276314851E+03  0.53461710091E+03  0.19900000000E+03 0.  0.
   -5000001    1    1    2    0    0  0.27247048573E+03 -0.34321362981E+03  0.17244468682E+02  0.48159540382E+03  0.19900000000E+03 0.  0.
<mgrwt>
<rscale>  0 0.98497921E+03</rscale>
<asrwt>0</asrwt>
<pdfrwt beam="1">  1        1 0.90444294E-01 0.98497921E+03</pdfrwt>
<pdfrwt beam="2">  1       -1 0.54728921E-01 0.98497921E+03</pdfrwt>
<totfact> 0.11939906E+02</totfact>
</mgrwt>
</event>
<event>
 4    1  0.6282309E-006  0.6747730E+03  0.7818608E-02  0.9761374E-01
         -1   -1    0    0    0  501 -0.00000000000E+00  0.00000000000E+00  0.69299378605E+02  0.69299378788E+02  0.50400000000E-02 0. -1.
          1   -1    0    0  501    0  0.00000000000E+00 -0.00000000000E+00 -0.16425784618E+04  0.16425784618E+04  0.50400000000E-02 0.  1.
    5000001    1    1    2    0    0 -0.17792076192E+03 -0.17406424231E+03 -0.50556785174E+03  0.59762363632E+03  0.19900000000E+03 0.  0.
   -5000001    1    1    2    0    0  0.17792076192E+03  0.17406424231E+03 -0.10677112314E+04  0.11142542042E+04  0.19900000000E+03 0.  0.
<mgrwt>
<rscale>  0 0.67477305E+03</rscale>
<asrwt>0</asrwt>
<pdfrwt beam="1">  1        1 0.23465404E+00 0.67477305E+03</pdfrwt>
<pdfrwt beam="2">  1       -1 0.98999122E-02 0.67477305E+03</pdfrwt>
<totfact> 0.41203798E+02</totfact>
</mgrwt>
</event>
<event>
 4    1  0.6282309E-006  0.4903438E+03  0.7818608E-02  0.1016330E+00
          1   -1    0    0  501    0  0.00000000000E+00  0.00000000000E+00  0.20260653067E+04  0.20260653067E+04  0.50400000000E-02 0.  1.
         -1   -1    0    0    0  501 -0.00000000000E+00 -0.00000000000E+00 -0.29667980668E+02  0.29667981096E+02  0.50400000000E-02 0. -1.
    5000001    1    1    2    0    0  0.42966500242E+02  0.10819473039E+03  0.64853757034E+03  0.68829804589E+03  0.19900000000E+03 0.  0.
   -5000001    1    1    2    0    0 -0.42966500242E+02 -0.10819473039E+03  0.13478597557E+04  0.13674352419E+04  0.19900000000E+03 0.  0.
<mgrwt>
<rscale>  0 0.49034383E+03</rscale>
<asrwt>0</asrwt>
<pdfrwt beam="1">  1        1 0.28943798E+00 0.49034383E+03</pdfrwt>
<pdfrwt beam="2">  1       -1 0.42382818E-02 0.49034383E+03</pdfrwt>
<totfact> 0.89324365E+02</totfact>
</mgrwt>
</event>
<event>
 4    1  0.6282309E-006  0.4243990E+03  0.7818608E-02  0.1035644E+00
         -1   -1    0    0    0  501 -0.00000000000E+00  0.00000000000E+00  0.12698754646E+03  0.12698754656E+03  0.50400000000E-02 0. -1.
          1   -1    0    0  501    0  0.00000000000E+00 -0.00000000000E+00 -0.35459093254E+03  0.35459093258E+03  0.50400000000E-02 0.  1.
    5000001    1    1    2    0    0 -0.53711362705E+02 -0.47656304454E+02 -0.95101049542E+02  0.23195095055E+03  0.19900000000E+03 0.  0.
   -5000001    1    1    2    0    0  0.53711362705E+02  0.47656304454E+02 -0.13250233654E+03  0.24962752858E+03  0.19900000000E+03 0.  0.
<mgrwt>
<rscale>  0 0.42439902E+03</rscale>
<asrwt>0</asrwt>
<pdfrwt beam="1">  1        1 0.50655847E-01 0.42439902E+03</pdfrwt>
<pdfrwt beam="2">  1       -1 0.18141078E-01 0.42439902E+03</pdfrwt>
<totfact> 0.18510577E+03</totfact>
</mgrwt>
</event>
<event>
 4    1  0.6282309E-006  0.4472937E+03  0.7818608E-02  0.1028532E+00
          1   -1    0    0  501    0  0.00000000000E+00  0.00000000000E+00  0.85463088956E+03  0.85463088957E+03  0.50400000000E-02 0. -1.
         -1   -1    0    0    0  501 -0.00000000000E+00 -0.00000000000E+00 -0.58525744345E+02  0.58525744562E+02  0.50400000000E-02 0.  1.
    5000001    1    1    2    0    0  0.41732880308E+02  0.93113272502E+02  0.39339978053E+03  0.45252193553E+03  0.19900000000E+03 0.  0.
   -5000001    1    1    2    0    0 -0.41732880308E+02 -0.93113272502E+02  0.40270536468E+03  0.46063469860E+03  0.19900000000E+03 0.  0.
<mgrwt>
<rscale>  0 0.44729368E+03</rscale>
<asrwt>0</asrwt>
<pdfrwt beam="1">  1        1 0.12209013E+00 0.44729368E+03</pdfrwt>
<pdfrwt beam="2">  1       -1 0.83608206E-02 0.44729368E+03</pdfrwt>
<totfact> 0.18813952E+03</totfact>
</mgrwt>
</event>
<event>
 4    1  0.6282309E-006  0.6427011E+03  0.7818608E-02  0.9820572E-01
         -1   -1    0    0    0  501 -0.00000000000E+00  0.00000000000E+00  0.19516644705E+04  0.19516644705E+04  0.50400000000E-02 0. -1.
          1   -1    0    0  501    0  0.00000000000E+00 -0.00000000000E+00 -0.52911848637E+02  0.52911848877E+02  0.50400000000E-02 0.  1.
    5000001    1    1    2    0    0  0.22333138740E+03  0.39881871469E+02  0.60490537769E+03  0.67600221022E+03  0.19900000000E+03 0.  0.
   -5000001    1    1    2    0    0 -0.22333138740E+03 -0.39881871469E+02  0.12938472441E+04  0.13285741091E+04  0.19900000000E+03 0.  0.
<mgrwt>
<rscale>  0 0.64270110E+03</rscale>
<asrwt>0</asrwt>
<pdfrwt beam="1">  1        1 0.75588339E-02 0.64270110E+03</pdfrwt>
<pdfrwt beam="2">  1       -1 0.27880927E+00 0.64270110E+03</pdfrwt>
<totfact> 0.46970462E+01</totfact>
</mgrwt>
</event>
<event>
 4    1  0.6282309E-006  0.1080430E+04  0.7818608E-02  0.9224478E-01
          1   -1    0    0  501    0  0.00000000000E+00  0.00000000000E+00  0.71182876126E+03  0.71182876128E+03  0.50400000000E-02 0.  1.
         -1   -1    0    0    0  501 -0.00000000000E+00 -0.00000000000E+00 -0.40997563753E+03  0.40997563756E+03  0.50400000000E-02 0. -1.
    5000001    1    1    2    0    0 -0.46927060285E+03  0.17265028135E+03  0.19972010519E+03  0.57403147890E+03  0.19900000000E+03 0.  0.
   -5000001    1    1    2    0    0  0.46927060285E+03 -0.17265028135E+03  0.10213301853E+03  0.54777291994E+03  0.19900000000E+03 0.  0.
<mgrwt>
<rscale>  0 0.10804304E+04</rscale>
<asrwt>0</asrwt>
<pdfrwt beam="1">  1        1 0.10168982E+00 0.10804304E+04</pdfrwt>
<pdfrwt beam="2">  1       -1 0.58567948E-01 0.10804304E+04</pdfrwt>
<totfact> 0.87618883E+01</totfact>
</mgrwt>
</event>
<event>
 4    1  0.6282309E-006  0.5810166E+03  0.7818608E-02  0.9945593E-01
         -1   -1    0    0    0  501 -0.00000000000E+00  0.00000000000E+00  0.94051372977E+02  0.94051373112E+02  0.50400000000E-02 0. -1.
          1   -1    0    0  501    0  0.00000000000E+00 -0.00000000000E+00 -0.89732940306E+03  0.89732940307E+03  0.50400000000E-02 0.  1.
    5000001    1    1    2    0    0 -0.12463050063E+03  0.17100154902E+03 -0.40922594725E+03  0.50183778988E+03  0.19900000000E+03 0.  0.
   -5000001    1    1    2    0    0  0.12463050063E+03 -0.17100154902E+03 -0.39405208283E+03  0.48954298630E+03  0.19900000000E+03 0.  0.
<mgrwt>
<rscale>  0 0.58101657E+03</rscale>
<asrwt>0</asrwt>
<pdfrwt beam="1">  1        1 0.12818991E+00 0.58101657E+03</pdfrwt>
<pdfrwt beam="2">  1       -1 0.13435911E-01 0.58101657E+03</pdfrwt>
<totfact> 0.82208586E+02</totfact>
</mgrwt>
</event>
<event>
 4    1  0.6282309E-006  0.5857058E+03  0.7818608E-02  0.9935514E-01
         -1   -1    0    0    0  501 -0.00000000000E+00  0.00000000000E+00  0.10519842160E+03  0.10519842172E+03  0.50400000000E-02 0. -1.
          1   -1    0    0  501    0  0.00000000000E+00 -0.00000000000E+00 -0.81524809726E+03  0.81524809727E+03  0.50400000000E-02 0.  1.
    5000001    1    1    2    0    0  0.90987690604E+02  0.15099983462E+03 -0.16202808179E+03  0.31134194897E+03  0.19900000000E+03 0.  0.
   -5000001    1    1    2    0    0 -0.90987690604E+02 -0.15099983462E+03 -0.54802159386E+03  0.60910457003E+03  0.19900000000E+03 0.  0.
<mgrwt>
<rscale>  0 0.58570577E+03</rscale>
<asrwt>0</asrwt>
<pdfrwt beam="1">  1        1 0.11646401E+00 0.58570577E+03</pdfrwt>
<pdfrwt beam="2">  1       -1 0.15028346E-01 0.58570577E+03</pdfrwt>
<totfact> 0.79837594E+02</totfact>
</mgrwt>
</event>
<event>
 4    1  0.6282309E-006  0.8726455E+03  0.7818608E-02  0.9460437E-01
         -1   -1    0    0    0  501 -0.00000000000E+00  0.00000000000E+00  0.14058736635E+03  0.14058736644E+03  0.50400000000E-02 0. -1.
          1   -1    0    0  501    0  0.00000000000E+00 -0.00000000000E+00 -0.13541582415E+04  0.13541582416E+04  0.50400000000E-02 0.  1.
    5000001    1    1    2    0    0  0.10399013508E+03 -0.37335072416E+03 -0.64774569627E+03  0.78062807947E+03  0.19900000000E+03 0.  0.
   -5000001    1    1    2    0    0 -0.10399013508E+03  0.37335072416E+03 -0.56582517893E+03  0.71411752852E+03  0.19900000000E+03 0.  0.
<mgrwt>
<rscale>  0 0.87264550E+03</rscale>
<asrwt>0</asrwt>
<pdfrwt beam="1">  1        1 0.19345117E+00 0.87264550E+03</pdfrwt>
<pdfrwt beam="2">  1       -1 0.20083910E-01 0.87264550E+03</pdfrwt>
<totfact> 0.19857815E+02</totfact>
</mgrwt>
</event>
<event>
 4    1  0.6282309E-006  0.6208433E+03  0.7818608E-02  0.9863082E-01
          1   -1    0    0  501    0  0.00000000000E+00  0.00000000000E+00  0.18741717803E+03  0.18741717809E+03  0.50400000000E-02 0.  1.
         -1   -1    0    0    0  501 -0.00000000000E+00 -0.00000000000E+00 -0.51415565071E+03  0.51415565073E+03  0.50400000000E-02 0. -1.
    5000001    1    1    2    0    0 -0.16243940881E+02  0.23329942892E+03 -0.11197933440E+03  0.32685296463E+03  0.19900000000E+03 0.  0.
   -5000001    1    1    2    0    0  0.16243940881E+02 -0.23329942892E+03 -0.21475913828E+03  0.37471986420E+03  0.19900000000E+03 0.  0.
<mgrwt>
<rscale>  0 0.62084330E+03</rscale>
<asrwt>0</asrwt>
<pdfrwt beam="1">  1        1 0.26773883E-01 0.62084330E+03</pdfrwt>
<pdfrwt beam="2">  1       -1 0.73450806E-01 0.62084330E+03</pdfrwt>
<totfact> 0.33773468E+02</totfact>
</mgrwt>
</event>
<event>
 4    1  0.6282309E-006  0.6921254E+03  0.7818608E-02  0.9730794E-01
          1   -1    0    0  501    0  0.00000000000E+00  0.00000000000E+00  0.22000624385E+04  0.22000624386E+04  0.50400000000E-02 0.  1.
         -1   -1    0    0    0  501 -0.00000000000E+00 -0.00000000000E+00 -0.54434547497E+02  0.54434547730E+02  0.50400000000E-02 0. -1.
    5000001    1    1    2    0    0 -0.25762931061E+03 -0.33067393113E+02  0.70584322676E+03  0.77799869854E+03  0.19900000000E+03 0.  0.
   -5000001    1    1    2    0    0  0.25762931061E+03  0.33067393113E+02  0.14397846643E+04  0.14764982877E+04  0.19900000000E+03 0.  0.
<mgrwt>
<rscale>  0 0.69212543E+03</rscale>
<asrwt>0</asrwt>
<pdfrwt beam="1">  1        1 0.31429464E+00 0.69212543E+03</pdfrwt>
<pdfrwt beam="2">  1       -1 0.77763639E-02 0.69212543E+03</pdfrwt>
<totfact> 0.27039401E+02</totfact>
</mgrwt>
</event>
<event>
 4    1  0.6282309E-006  0.4911061E+03  0.7818608E-02  0.1016127E+00
         -1   -1    0    0    0  501 -0.00000000000E+00  0.00000000000E+00  0.14728700458E+03  0.14728700467E+03  0.50400000000E-02 0. -1.
          1   -1    0    0  501    0  0.00000000000E+00 -0.00000000000E+00 -0.40937963648E+03  0.40937963652E+03  0.50400000000E-02 0.  1.
    5000001    1    1    2    0    0 -0.14000721462E+03 -0.15812282415E+02 -0.16396167215E+03  0.29383069676E+03  0.19900000000E+03 0.  0.
   -5000001    1    1    2    0    0  0.14000721462E+03  0.15812282415E+02 -0.98130959752E+02  0.26283594443E+03  0.19900000000E+03 0.  0.
<mgrwt>
<rscale>  0 0.49110610E+03</rscale>
<asrwt>0</asrwt>
<pdfrwt beam="1">  1        1 0.58482805E-01 0.49110610E+03</pdfrwt>
<pdfrwt beam="2">  1       -1 0.21041001E-01 0.49110610E+03</pdfrwt>
<totfact> 0.12054105E+03</totfact>
</mgrwt>
</event>
<event>
 4    1  0.6282309E-006  0.6455759E+03  0.7818608E-02  0.9815116E-01
         -1   -1    0    0    0  501 -0.00000000000E+00  0.00000000000E+00  0.83286271368E+02  0.83286271520E+02  0.50400000000E-02 0. -1.
          1   -1    0    0  501    0  0.00000000000E+00 -0.00000000000E+00 -0.12510113861E+04  0.12510113861E+04  0.50400000000E-02 0.  1.
    5000001    1    1    2    0    0 -0.22136938857E+03 -0.74725024627E+02 -0.37714992719E+03  0.48624202109E+03  0.19900000000E+03 0.  0.
   -5000001    1    1    2    0    0  0.22136938857E+03  0.74725024627E+02 -0.79057518759E+03  0.84805563658E+03  0.19900000000E+03 0.  0.
<mgrwt>
<rscale>  0 0.64557594E+03</rscale>
<asrwt>0</asrwt>
<pdfrwt beam="1">  1        1 0.17871590E+00 0.64557594E+03</pdfrwt>
<pdfrwt beam="2">  1       -1 0.11898040E-01 0.64557594E+03</pdfrwt>
<totfact> 0.55406644E+02</totfact>
</mgrwt>
</event>
<event>
 4    1  0.6282309E-006  0.7881954E+03  0.7818608E-02  0.9577263E-01
         -1   -1    0    0    0  501 -0.00000000000E+00  0.00000000000E+00  0.19614265806E+03  0.19614265813E+03  0.50400000000E-02 0. -1.
          1   -1    0    0  501    0  0.00000000000E+00 -0.00000000000E+00 -0.79183684647E+03  0.79183684649E+03  0.50400000000E-02 0.  1.
    5000001    1    1    2    0    0  0.32296825582E+03  0.35342432969E+02 -0.42415811203E+03  0.57014795083E+03  0.19900000000E+03 0.  0.
   -5000001    1    1    2    0    0 -0.32296825582E+03 -0.35342432969E+02 -0.17153607638E+03  0.41783155378E+03  0.19900000000E+03 0.  0.
<mgrwt>
<rscale>  0 0.78819537E+03</rscale>
<asrwt>0</asrwt>
<pdfrwt beam="1">  1        1 0.11311955E+00 0.78819537E+03</pdfrwt>
<pdfrwt beam="2">  1       -1 0.28020380E-01 0.78819537E+03</pdfrwt>
<totfact> 0.29288252E+02</totfact>
</mgrwt>
</event>
<event>
 4    1  0.6282309E-006  0.5776899E+03  0.7818608E-02  0.9952805E-01
         -1   -1    0    0    0  501 -0.00000000000E+00  0.00000000000E+00  0.11245635405E+04  0.11245635406E+04  0.50400000000E-02 0. -1.
          1   -1    0    0  501    0  0.00000000000E+00 -0.00000000000E+00 -0.74190028448E+02  0.74190028619E+02  0.50400000000E-02 0.  1.
    5000001    1    1    2    0    0 -0.15347000807E+03  0.12201660318E+03  0.37285109398E+03  0.46589701985E+03  0.19900000000E+03 0.  0.
   -5000001    1    1    2    0    0  0.15347000807E+03 -0.12201660318E+03  0.67752241812E+03  0.73285654932E+03  0.19900000000E+03 0.  0.
<mgrwt>
<rscale>  0 0.57768989E+03</rscale>
<asrwt>0</asrwt>
<pdfrwt beam="1">  1        1 0.10598576E-01 0.57768989E+03</pdfrwt>
<pdfrwt beam="2">  1       -1 0.16065192E+00 0.57768989E+03</pdfrwt>
<totfact> 0.18345042E+02</totfact>
</mgrwt>
</event>
<event>
 4    1  0.6282309E-006  0.6202653E+03  0.7818608E-02  0.9864232E-01
         -1   -1    0    0    0  501 -0.00000000000E+00  0.00000000000E+00  0.59154134897E+02  0.59154135111E+02  0.50400000000E-02 0. -1.
          1   -1    0    0  501    0  0.00000000000E+00 -0.00000000000E+00 -0.16259600536E+04  0.16259600536E+04  0.50400000000E-02 0.  1.
    5000001    1    1    2    0    0 -0.12563393157E+03  0.18684433438E+03 -0.57496201887E+03  0.64875034736E+03  0.19900000000E+03 0.  0.
   -5000001    1    1    2    0    0  0.12563393157E+03 -0.18684433438E+03 -0.99184389987E+03  0.10363638414E+04  0.19900000000E+03 0.  0.
<mgrwt>
<rscale>  0 0.62026530E+03</rscale>
<asrwt>0</asrwt>
<pdfrwt beam="1">  1        1 0.23227998E+00 0.62026530E+03</pdfrwt>
<pdfrwt beam="2">  1       -1 0.84505917E-02 0.62026530E+03</pdfrwt>
<totfact> 0.54321761E+02</totfact>
</mgrwt>
</event>
<event>
 4    1  0.6282309E-006  0.1515740E+04  0.7818608E-02  0.8874053E-01
         -1   -1    0    0    0  501 -0.00000000000E+00  0.00000000000E+00  0.58469078299E+03  0.58469078301E+03  0.50400000000E-02 0. -1.
          1   -1    0    0  501    0  0.00000000000E+00 -0.00000000000E+00 -0.98234351130E+03  0.98234351131E+03  0.50400000000E-02 0.  1.
    5000001    1    1    2    0    0  0.44591675065E+03  0.54784289594E+03 -0.32346858225E+01  0.73388354003E+03  0.19900000000E+03 0.  0.
   -5000001    1    1    2    0    0 -0.44591675065E+03 -0.54784289594E+03 -0.39441804249E+03  0.83315075429E+03  0.19900000000E+03 0.  0.
<mgrwt>
<rscale>  0 0.15157403E+04</rscale>
<asrwt>0</asrwt>
<pdfrwt beam="1">  1        1 0.14033479E+00 0.15157403E+04</pdfrwt>
<pdfrwt beam="2">  1       -1 0.83527255E-01 0.15157403E+04</pdfrwt>
<totfact> 0.24499924E+01</totfact>
</mgrwt>
</event>
<event>
 4    1  0.6282309E-006  0.6501768E+03  0.7818608E-02  0.9806447E-01
          1   -1    0    0  501    0  0.00000000000E+00  0.00000000000E+00  0.19727321007E+04  0.19727321007E+04  0.50400000000E-02 0.  1.
         -1   -1    0    0    0  501 -0.00000000000E+00 -0.00000000000E+00 -0.53571632357E+02  0.53571632594E+02  0.50400000000E-02 0. -1.
    5000001    1    1    2    0    0  0.16682817516E+03 -0.19186179809E+03  0.10777990957E+04  0.11251197627E+04  0.19900000000E+03 0.  0.
   -5000001    1    1    2    0    0 -0.16682817516E+03  0.19186179809E+03  0.84136137257E+03  0.90118397059E+03  0.19900000000E+03 0.  0.
<mgrwt>
<rscale>  0 0.65017683E+03</rscale>
<asrwt>0</asrwt>
<pdfrwt beam="1">  1        1 0.28181884E+00 0.65017683E+03</pdfrwt>
<pdfrwt beam="2">  1       -1 0.76530911E-02 0.65017683E+03</pdfrwt>
<totfact> 0.38456213E+02</totfact>
</mgrwt>
</event>
<event>
 4    1  0.6282309E-006  0.4911131E+03  0.7818608E-02  0.1016125E+00
          1   -1    0    0  501    0  0.00000000000E+00  0.00000000000E+00  0.83166080494E+03  0.83166080495E+03  0.50400000000E-02 0.  1.
         -1   -1    0    0    0  501 -0.00000000000E+00 -0.00000000000E+00 -0.72503136488E+02  0.72503136663E+02  0.50400000000E-02 0. -1.
    5000001    1    1    2    0    0 -0.12035841262E+03 -0.53667025885E+02  0.27332741957E+03  0.36287074207E+03  0.19900000000E+03 0.  0.
   -5000001    1    1    2    0    0  0.12035841262E+03  0.53667025885E+02  0.48583024888E+03  0.54129319955E+03  0.19900000000E+03 0.  0.
<mgrwt>
<rscale>  0 0.49111309E+03</rscale>
<asrwt>0</asrwt>
<pdfrwt beam="1">  1        1 0.11880868E+00 0.49111309E+03</pdfrwt>
<pdfrwt beam="2">  1       -1 0.10357592E-01 0.49111309E+03</pdfrwt>
<totfact> 0.14043726E+03</totfact>
</mgrwt>
</event>
<event>
 4    1  0.6282309E-006  0.5871975E+03  0.7818608E-02  0.9932329E-01
         -1   -1    0    0    0  501 -0.00000000000E+00  0.00000000000E+00  0.10027325761E+03  0.10027325773E+03  0.50400000000E-02 0. -1.
          1   -1    0    0  501    0  0.00000000000E+00 -0.00000000000E+00 -0.85965314974E+03  0.85965314976E+03  0.50400000000E-02 0.  1.
    5000001    1    1    2    0    0  0.32959201461E+02  0.12423784188E+03 -0.66320576892E+03  0.70424728771E+03  0.19900000000E+03 0.  0.
   -5000001    1    1    2    0    0 -0.32959201461E+02 -0.12423784188E+03 -0.96174123213E+02  0.25567911978E+03  0.19900000000E+03 0.  0.
<mgrwt>
<rscale>  0 0.58719749E+03</rscale>
<asrwt>0</asrwt>
<pdfrwt beam="1">  1        1 0.12280759E+00 0.58719749E+03</pdfrwt>
<pdfrwt beam="2">  1       -1 0.14324752E-01 0.58719749E+03</pdfrwt>
<totfact> 0.79399261E+02</totfact>
</mgrwt>
</event>
<event>
 4    1  0.6282309E-006  0.7204794E+03  0.7818608E-02  0.9682837E-01
          1   -1    0    0  501    0  0.00000000000E+00  0.00000000000E+00  0.34893956218E+03  0.34893956222E+03  0.50400000000E-02 0.  1.
         -1   -1    0    0    0  501 -0.00000000000E+00 -0.00000000000E+00 -0.37190577064E+03  0.37190577067E+03  0.50400000000E-02 0. -1.
    5000001    1    1    2    0    0  0.96047888797E+02  0.28374907144E+03 -0.32300025072E+02  0.36108589574E+03  0.19900000000E+03 0.  0.
   -5000001    1    1    2    0    0 -0.96047888797E+02 -0.28374907144E+03  0.93338166120E+01  0.35975943715E+03  0.19900000000E+03 0.  0.
<mgrwt>
<rscale>  0 0.72047939E+03</rscale>
<asrwt>0</asrwt>
<pdfrwt beam="1">  1        1 0.49848509E-01 0.72047939E+03</pdfrwt>
<pdfrwt beam="2">  1       -1 0.53129395E-01 0.72047939E+03</pdfrwt>
<totfact> 0.28661039E+02</totfact>
</mgrwt>
</event>
<event>
 4    1  0.6282309E-006  0.6402859E+03  0.7818608E-02  0.9825180E-01
          1   -1    0    0  501    0  0.00000000000E+00  0.00000000000E+00  0.10257503279E+04  0.10257503279E+04  0.50400000000E-02 0. -1.
         -1   -1    0    0    0  501 -0.00000000000E+00 -0.00000000000E+00 -0.99918571844E+02  0.99918571971E+02  0.50400000000E-02 0.  1.
    5000001    1    1    2    0    0  0.17679313626E+03 -0.17537706012E+03  0.41083473589E+03  0.51999914083E+03  0.19900000000E+03 0.  0.
   -5000001    1    1    2    0    0 -0.17679313626E+03  0.17537706012E+03  0.51499702013E+03  0.60566975902E+03  0.19900000000E+03 0.  0.
<mgrwt>
<rscale>  0 0.64028590E+03</rscale>
<asrwt>0</asrwt>
<pdfrwt beam="1">  1        1 0.14653575E+00 0.64028590E+03</pdfrwt>
<pdfrwt beam="2">  1       -1 0.14274082E-01 0.64028590E+03</pdfrwt>
<totfact> 0.59532520E+02</totfact>
</mgrwt>
</event>
<event>
 4    1  0.6282309E-006  0.4714031E+03  0.7818608E-02  0.1021525E+00
         -1   -1    0    0    0  501 -0.00000000000E+00  0.00000000000E+00  0.10630131201E+03  0.10630131213E+03  0.50400000000E-02 0.  1.
          1   -1    0    0  501    0  0.00000000000E+00 -0.00000000000E+00 -0.52262029430E+03  0.52262029433E+03  0.50400000000E-02 0. -1.
    5000001    1    1    2    0    0  0.65850493847E+02  0.94027982682E+02 -0.27846130240E+03  0.36099757063E+03  0.19900000000E+03 0.  0.
   -5000001    1    1    2    0    0 -0.65850493847E+02 -0.94027982682E+02 -0.13785767989E+03  0.26792403582E+03  0.19900000000E+03 0.  0.
<mgrwt>
<rscale>  0 0.47140311E+03</rscale>
<asrwt>0</asrwt>
<pdfrwt beam="1">  1        1 0.74660041E-01 0.47140311E+03</pdfrwt>
<pdfrwt beam="2">  1       -1 0.15185902E-01 0.47140311E+03</pdfrwt>
<totfact> 0.14871378E+03</totfact>
</mgrwt>
</event>
<event>
 4    1  0.6282309E-006  0.8754450E+03  0.7818608E-02  0.9456808E-01
          1   -1    0    0  501    0  0.00000000000E+00  0.00000000000E+00  0.29593541527E+04  0.29593541527E+04  0.50400000000E-02 0. -1.
         -1   -1    0    0    0  501 -0.00000000000E+00 -0.00000000000E+00 -0.64744184464E+02  0.64744184660E+02  0.50400000000E-02 0.  1.
    5000001    1    1    2    0    0 -0.28375036937E+03  0.92685314690E+02  0.58099049888E+03  0.68282926085E+03  0.19900000000E+03 0.  0.
   -5000001    1    1    2    0    0  0.28375036937E+03 -0.92685314690E+02  0.23136194693E+04  0.23412690765E+04  0.19900000000E+03 0.  0.
<mgrwt>
<rscale>  0 0.87544496E+03</rscale>
<asrwt>0</asrwt>
<pdfrwt beam="1">  1        1 0.42276493E+00 0.87544496E+03</pdfrwt>
<pdfrwt beam="2">  1       -1 0.92491681E-02 0.87544496E+03</pdfrwt>
<totfact> 0.67085657E+01</totfact>
</mgrwt>
</event>
<event>
 4    1  0.6282309E-006  0.8611274E+03  0.7818608E-02  0.9475523E-01
          1   -1    0    0  501    0  0.00000000000E+00  0.00000000000E+00  0.11245923619E+04  0.11245923619E+04  0.50400000000E-02 0.  1.
         -1   -1    0    0    0  501 -0.00000000000E+00 -0.00000000000E+00 -0.16484647433E+03  0.16484647441E+03  0.50400000000E-02 0. -1.
    5000001    1    1    2    0    0  0.12575696384E+02 -0.20344505377E+03  0.96331265621E+03  0.10045498055E+04  0.19900000000E+03 0.  0.
   -5000001    1    1    2    0    0 -0.12575696384E+02  0.20344505377E+03 -0.35667686760E+01  0.28488903082E+03  0.19900000000E+03 0.  0.
<mgrwt>
<rscale>  0 0.86112737E+03</rscale>
<asrwt>0</asrwt>
<pdfrwt beam="1">  1        1 0.16065605E+00 0.86112737E+03</pdfrwt>
<pdfrwt beam="2">  1       -1 0.23549496E-01 0.86112737E+03</pdfrwt>
<totfact> 0.21834008E+02</totfact>
</mgrwt>
</event>
<event>
 4    1  0.6282309E-006  0.7501780E+03  0.7818608E-02  0.9635071E-01
         -1   -1    0    0    0  501 -0.00000000000E+00  0.00000000000E+00  0.90377824071E+02  0.90377824212E+02  0.50400000000E-02 0. -1.
          1   -1    0    0  501    0  0.00000000000E+00 -0.00000000000E+00 -0.15567065460E+04  0.15567065460E+04  0.50400000000E-02 0.  1.
    5000001    1    1    2    0    0 -0.30657179842E+03  0.72072445852E+02 -0.63720808567E+03  0.73811642001E+03  0.19900000000E+03 0.  0.
   -5000001    1    1    2    0    0  0.30657179842E+03 -0.72072445852E+02 -0.82912063624E+03  0.90896795019E+03  0.19900000000E+03 0.  0.
<mgrwt>
<rscale>  0 0.75017798E+03</rscale>
<asrwt>0</asrwt>
<pdfrwt beam="1">  1        1 0.22238663E+00 0.75017798E+03</pdfrwt>
<pdfrwt beam="2">  1       -1 0.12911119E-01 0.75017798E+03</pdfrwt>
<totfact> 0.30452227E+02</totfact>
</mgrwt>
</event>
<event>
 4    1  0.6282309E-006  0.6150782E+03  0.7818608E-02  0.9874608E-01
          1   -1    0    0  501    0  0.00000000000E+00  0.00000000000E+00  0.38571964095E+03  0.38571964099E+03  0.50400000000E-02 0.  1.
         -1   -1    0    0    0  501 -0.00000000000E+00 -0.00000000000E+00 -0.24520481282E+03  0.24520481287E+03  0.50400000000E-02 0. -1.
    5000001    1    1    2    0    0 -0.20895424578E+02  0.16927503974E+03  0.23530217118E+03  0.35221977459E+03  0.19900000000E+03 0.  0.
   -5000001    1    1    2    0    0  0.20895424578E+02 -0.16927503974E+03 -0.94787343043E+02  0.27870467927E+03  0.19900000000E+03 0.  0.
<mgrwt>
<rscale>  0 0.61507825E+03</rscale>
<asrwt>0</asrwt>
<pdfrwt beam="1">  1        1 0.55102806E-01 0.61507825E+03</pdfrwt>
<pdfrwt beam="2">  1       -1 0.35029259E-01 0.61507825E+03</pdfrwt>
<totfact> 0.54323254E+02</totfact>
</mgrwt>
</event>
<event>
 4    1  0.6282309E-006  0.4878938E+03  0.7818608E-02  0.1016988E+00
         -1   -1    0    0    0  501 -0.00000000000E+00  0.00000000000E+00  0.83503850506E+02  0.83503850658E+02  0.50400000000E-02 0. -1.
          1   -1    0    0  501    0  0.00000000000E+00 -0.00000000000E+00 -0.71266294574E+03  0.71266294576E+03  0.50400000000E-02 0.  1.
    5000001    1    1    2    0    0 -0.13733808306E+03 -0.31303198011E+02 -0.32798263180E+03  0.40867498826E+03  0.19900000000E+03 0.  0.
   -5000001    1    1    2    0    0  0.13733808306E+03  0.31303198011E+02 -0.30117646343E+03  0.38749180816E+03  0.19900000000E+03 0.  0.
<mgrwt>
<rscale>  0 0.48789384E+03</rscale>
<asrwt>0</asrwt>
<pdfrwt beam="1">  1        1 0.10180899E+00 0.48789384E+03</pdfrwt>
<pdfrwt beam="2">  1       -1 0.11929122E-01 0.48789384E+03</pdfrwt>
<totfact> 0.14172926E+03</totfact>
</mgrwt>
</event>
<event>
 4    1  0.6282309E-006  0.8199781E+03  0.7818608E-02  0.9531542E-01
         -1   -1    0    0    0  501 -0.00000000000E+00  0.00000000000E+00  0.22932335961E+03  0.22932335967E+03  0.50400000000E-02 0.  1.
          1   -1    0    0  501    0  0.00000000000E+00 -0.00000000000E+00 -0.73298685841E+03  0.73298685843E+03  0.50400000000E-02 0. -1.
    5000001    1    1    2    0    0 -0.29002287142E+03 -0.18579408692E+03 -0.36834943585E+03  0.54213929536E+03  0.19900000000E+03 0.  0.
   -5000001    1    1    2    0    0  0.29002287142E+03  0.18579408692E+03 -0.13531406295E+03  0.42017092274E+03  0.19900000000E+03 0.  0.
<mgrwt>
<rscale>  0 0.81997807E+03</rscale>
<asrwt>0</asrwt>
<pdfrwt beam="1">  1        1 0.10471241E+00 0.81997807E+03</pdfrwt>
<pdfrwt beam="2">  1       -1 0.32760480E-01 0.81997807E+03</pdfrwt>
<totfact> 0.25027350E+02</totfact>
</mgrwt>
</event>
<event>
 4    1  0.6282309E-006  0.6434590E+03  0.7818608E-02  0.9819131E-01
         -1   -1    0    0    0  501 -0.00000000000E+00  0.00000000000E+00  0.15495295766E+03  0.15495295775E+03  0.50400000000E-02 0. -1.
          1   -1    0    0  501    0  0.00000000000E+00 -0.00000000000E+00 -0.66800835018E+03  0.66800835020E+03  0.50400000000E-02 0.  1.
    5000001    1    1    2    0    0  0.13011195577E+03 -0.20224251913E+03 -0.15682001853E+03  0.34932030544E+03  0.19900000000E+03 0.  0.
   -5000001    1    1    2    0    0 -0.13011195577E+03  0.20224251913E+03 -0.35623537398E+03  0.47364100251E+03  0.19900000000E+03 0.  0.
<mgrwt>
<rscale>  0 0.64345900E+03</rscale>
<asrwt>0</asrwt>
<pdfrwt beam="1">  1        1 0.95429763E-01 0.64345900E+03</pdfrwt>
<pdfrwt beam="2">  1       -1 0.22136137E-01 0.64345900E+03</pdfrwt>
<totfact> 0.56709019E+02</totfact>
</mgrwt>
</event>
<event>
 4    1  0.6282309E-006  0.1271555E+04  0.7818608E-02  0.9052431E-01
          1   -1    0    0  501    0  0.00000000000E+00  0.00000000000E+00  0.13753066282E+04  0.13753066282E+04  0.50400000000E-02 0.  1.
         -1   -1    0    0    0  501 -0.00000000000E+00 -0.00000000000E+00 -0.29390769536E+03  0.29390769540E+03  0.50400000000E-02 0. -1.
    5000001    1    1    2    0    0 -0.54535525085E+01 -0.55909363725E+03  0.24135928112E+03  0.64067990372E+03  0.19900000000E+03 0.  0.
   -5000001    1    1    2    0    0  0.54535525085E+01  0.55909363725E+03  0.84003965175E+03  0.10285344199E+04  0.19900000000E+03 0.  0.
<mgrwt>
<rscale>  0 0.12715553E+04</rscale>
<asrwt>0</asrwt>
<pdfrwt beam="1">  1        1 0.19647238E+00 0.12715553E+04</pdfrwt>
<pdfrwt beam="2">  1       -1 0.41986813E-01 0.12715553E+04</pdfrwt>
<totfact> 0.51554083E+01</totfact>
</mgrwt>
</event>
<event>
 4    1  0.6282309E-006  0.5867500E+03  0.7818608E-02  0.9933283E-01
          1   -1    0    0  501    0  0.00000000000E+00  0.00000000000E+00  0.22097295721E+03  0.22097295727E+03  0.50400000000E-02 0. -1.
         -1   -1    0    0    0  501 -0.00000000000E+00 -0.00000000000E+00 -0.38949968549E+03  0.38949968552E+03  0.50400000000E-02 0.  1.
    5000001    1    1    2    0    0 -0.10512905768E+03  0.14362885726E+03 -0.21077958920E+03  0.34016231806E+03  0.19900000000E+03 0.  0.
   -5000001    1    1    2    0    0  0.10512905768E+03 -0.14362885726E+03  0.42252860919E+02  0.27031032474E+03  0.19900000000E+03 0.  0.
<mgrwt>
<rscale>  0 0.58675002E+03</rscale>
<asrwt>0</asrwt>
<pdfrwt beam="1">  1        1 0.31567565E-01 0.58675002E+03</pdfrwt>
<pdfrwt beam="2">  1       -1 0.55642812E-01 0.58675002E+03</pdfrwt>
<totfact> 0.47507221E+02</totfact>
</mgrwt>
</event>
<event>
 4    1  0.6282309E-006  0.7734758E+03  0.7818608E-02  0.9599224E-01
         -1   -1    0    0    0  501 -0.00000000000E+00  0.00000000000E+00  0.18319030257E+03  0.18319030264E+03  0.50400000000E-02 0. -1.
          1   -1    0    0  501    0  0.00000000000E+00 -0.00000000000E+00 -0.81645252155E+03  0.81645252156E+03  0.50400000000E-02 0.  1.
    5000001    1    1    2    0    0 -0.23395503862E+03  0.22177895633E+03 -0.21615291192E+03  0.43616963087E+03  0.19900000000E+03 0.  0.
   -5000001    1    1    2    0    0  0.23395503862E+03 -0.22177895633E+03 -0.41710930706E+03  0.56347319333E+03  0.19900000000E+03 0.  0.
<mgrwt>
<rscale>  0 0.77347575E+03</rscale>
<asrwt>0</asrwt>
<pdfrwt beam="1">  1        1 0.11663607E+00 0.77347575E+03</pdfrwt>
<pdfrwt beam="2">  1       -1 0.26170044E-01 0.77347575E+03</pdfrwt>
<totfact> 0.31438802E+02</totfact>
</mgrwt>
</event>
<event>
 4    1  0.6282309E-006  0.7193185E+03  0.7818608E-02  0.9684754E-01
         -1   -1    0    0    0  501 -0.00000000000E+00  0.00000000000E+00  0.74308192397E+02  0.74308192568E+02  0.50400000000E-02 0. -1.
          1   -1    0    0  501    0  0.00000000000E+00 -0.00000000000E+00 -0.17407876014E+04  0.17407876014E+04  0.50400000000E-02 0.  1.
    5000001    1    1    2    0    0 -0.11060691388E+03 -0.23601884246E+03 -0.46054271033E+03  0.56536658146E+03  0.19900000000E+03 0.  0.
   -5000001    1    1    2    0    0  0.11060691388E+03  0.23601884246E+03 -0.12059366986E+04  0.12497292125E+04  0.19900000000E+03 0.  0.
<mgrwt>
<rscale>  0 0.71931851E+03</rscale>
<asrwt>0</asrwt>
<pdfrwt beam="1">  1        1 0.24868392E+00 0.71931851E+03</pdfrwt>
<pdfrwt beam="2">  1       -1 0.10615457E-01 0.71931851E+03</pdfrwt>
<totfact> 0.31899748E+02</totfact>
</mgrwt>
</event>
<event>
 4    1  0.6282309E-006  0.9633557E+03  0.7818608E-02  0.9349675E-01
         -1   -1    0    0    0  501 -0.00000000000E+00  0.00000000000E+00  0.40162105671E+03  0.40162105674E+03  0.50400000000E-02 0. -1.
          1   -1    0    0  501    0  0.00000000000E+00 -0.00000000000E+00 -0.57769273020E+03  0.57769273022E+03  0.50400000000E-02 0.  1.
    5000001    1    1    2    0    0 -0.38478704935E+03 -0.19055863811E+03  0.31092816251E+01  0.47326983375E+03  0.19900000000E+03 0.  0.
   -5000001    1    1    2    0    0  0.38478704935E+03  0.19055863811E+03 -0.17918095512E+03  0.50604395321E+03  0.19900000000E+03 0.  0.
<mgrwt>
<rscale>  0 0.96335573E+03</rscale>
<asrwt>0</asrwt>
<pdfrwt beam="1">  1        1 0.82527533E-01 0.96335573E+03</pdfrwt>
<pdfrwt beam="2">  1       -1 0.57374437E-01 0.96335573E+03</pdfrwt>
<totfact> 0.12420191E+02</totfact>
</mgrwt>
</event>
<event>
 4    1  0.6282309E-006  0.6112765E+03  0.7818608E-02  0.9882283E-01
         -1   -1    0    0    0  501 -0.00000000000E+00  0.00000000000E+00  0.20334960435E+04  0.20334960435E+04  0.50400000000E-02 0. -1.
          1   -1    0    0  501    0  0.00000000000E+00 -0.00000000000E+00 -0.45938006199E+02  0.45938006475E+02  0.50400000000E-02 0.  1.
    5000001    1    1    2    0    0 -0.14848419851E+03  0.30330379569E+01  0.15999946579E+04  0.16191481284E+04  0.19900000000E+03 0.  0.
   -5000001    1    1    2    0    0  0.14848419851E+03 -0.30330379569E+01  0.38756337948E+03  0.46028592161E+03  0.19900000000E+03 0.  0.
<mgrwt>
<rscale>  0 0.61127655E+03</rscale>
<asrwt>0</asrwt>
<pdfrwt beam="1">  1        1 0.65625725E-02 0.61127655E+03</pdfrwt>
<pdfrwt beam="2">  1       -1 0.29049943E+00 0.61127655E+03</pdfrwt>
<totfact> 0.48376640E+01</totfact>
</mgrwt>
</event>
<event>
 4    1  0.6282309E-006  0.6033144E+03  0.7818608E-02  0.9898554E-01
         -1   -1    0    0    0  501 -0.00000000000E+00  0.00000000000E+00  0.63650034699E+02  0.63650034899E+02  0.50400000000E-02 0. -1.
          1   -1    0    0  501    0  0.00000000000E+00 -0.00000000000E+00 -0.14296466759E+04  0.14296466759E+04  0.50400000000E-02 0.  1.
    5000001    1    1    2    0    0  0.18764189940E+03 -0.10435025183E+02 -0.99684261380E+03  0.10337381529E+04  0.19900000000E+03 0.  0.
   -5000001    1    1    2    0    0 -0.18764189940E+03  0.10435025183E+02 -0.36915402740E+03  0.45955855787E+03  0.19900000000E+03 0.  0.
<mgrwt>
<rscale>  0 0.60331438E+03</rscale>
<asrwt>0</asrwt>
<pdfrwt beam="1">  1        1 0.20423522E+00 0.60331438E+03</pdfrwt>
<pdfrwt beam="2">  1       -1 0.90928630E-02 0.60331438E+03</pdfrwt>
<totfact> 0.64723217E+02</totfact>
</mgrwt>
</event>
<event>
 4    1  0.6282309E-006  0.6236615E+03  0.7818608E-02  0.9857497E-01
          1   -1    0    0  501    0  0.00000000000E+00  0.00000000000E+00  0.10489113469E+04  0.10489113469E+04  0.50400000000E-02 0. -1.
         -1   -1    0    0    0  501 -0.00000000000E+00 -0.00000000000E+00 -0.92704138815E+02  0.92704138952E+02  0.50400000000E-02 0.  1.
    5000001    1    1    2    0    0 -0.15196789184E+03 -0.16428355461E+03  0.31900653735E+03  0.43754942273E+03  0.19900000000E+03 0.  0.
   -5000001    1    1    2    0    0  0.15196789184E+03  0.16428355461E+03  0.63720067072E+03  0.70406606311E+03  0.19900000000E+03 0.  0.
<mgrwt>
<rscale>  0 0.62366152E+03</rscale>
<asrwt>0</asrwt>
<pdfrwt beam="1">  1        1 0.14984446E+00 0.62366152E+03</pdfrwt>
<pdfrwt beam="2">  1       -1 0.13243450E-01 0.62366152E+03</pdfrwt>
<totfact> 0.64656925E+02</totfact>
</mgrwt>
</event>
<event>
 4    1  0.6282309E-006  0.7842818E+03  0.7818608E-02  0.9583051E-01
          1   -1    0    0  501    0  0.00000000000E+00  0.00000000000E+00  0.10088876996E+04  0.10088876996E+04  0.50400000000E-02 0.  1.
         -1   -1    0    0    0  501 -0.00000000000E+00 -0.00000000000E+00 -0.15241982276E+03  0.15241982284E+03  0.50400000000E-02 0. -1.
    5000001    1    1    2    0    0 -0.14749020894E+03  0.26484748931E+03  0.64923432164E+03  0.74364222495E+03  0.19900000000E+03 0.  0.
   -5000001    1    1    2    0    0  0.14749020894E+03 -0.26484748931E+03  0.20723355517E+03  0.41766529748E+03  0.19900000000E+03 0.  0.
<mgrwt>
<rscale>  0 0.78428180E+03</rscale>
<asrwt>0</asrwt>
<pdfrwt beam="1">  1        1 0.14412681E+00 0.78428180E+03</pdfrwt>
<pdfrwt beam="2">  1       -1 0.21774261E-01 0.78428180E+03</pdfrwt>
<totfact> 0.30360750E+02</totfact>
</mgrwt>
</event>
<event>
 4    1  0.6282309E-006  0.6301356E+03  0.7818608E-02  0.9844784E-01
          1   -1    0    0  501    0  0.00000000000E+00  0.00000000000E+00  0.88783928996E+03  0.88783928997E+03  0.50400000000E-02 0. -1.
         -1   -1    0    0    0  501 -0.00000000000E+00 -0.00000000000E+00 -0.11180821013E+03  0.11180821025E+03  0.50400000000E-02 0.  1.
    5000001    1    1    2    0    0 -0.14223581568E+03 -0.17069489473E+03  0.22702169023E+03  0.37484346357E+03  0.19900000000E+03 0.  0.
   -5000001    1    1    2    0    0  0.14223581568E+03  0.17069489473E+03  0.54900938959E+03  0.62480403664E+03  0.19900000000E+03 0.  0.
<mgrwt>
<rscale>  0 0.63013561E+03</rscale>
<asrwt>0</asrwt>
<pdfrwt beam="1">  1        1 0.12683419E+00 0.63013561E+03</pdfrwt>
<pdfrwt beam="2">  1       -1 0.15972601E-01 0.63013561E+03</pdfrwt>
<totfact> 0.63125940E+02</totfact>
</mgrwt>
</event>
<event>
 4    1  0.6282309E-006  0.5005925E+03  0.7818608E-02  0.1013624E+00
         -1   -1    0    0    0  501 -0.00000000000E+00  0.00000000000E+00  0.25873374471E+03  0.25873374476E+03  0.50400000000E-02 0. -1.
          1   -1    0    0  501    0  0.00000000000E+00 -0.00000000000E+00 -0.24213393699E+03  0.24213393705E+03  0.50400000000E-02 0.  1.
    5000001    1    1    2    0    0 -0.89114896513E+02  0.10306408538E+03 -0.58696214918E+02  0.24821344871E+03  0.19900000000E+03 0.  0.
   -5000001    1    1    2    0    0  0.89114896513E+02 -0.10306408538E+03  0.75296022636E+02  0.25265423310E+03  0.19900000000E+03 0.  0.
<mgrwt>
<rscale>  0 0.50059253E+03</rscale>
<asrwt>0</asrwt>
<pdfrwt beam="1">  1        1 0.34590562E-01 0.50059253E+03</pdfrwt>
<pdfrwt beam="2">  1       -1 0.36961964E-01 0.50059253E+03</pdfrwt>
<totfact> 0.90109148E+02</totfact>
</mgrwt>
</event>
<event>
 4    1  0.6282309E-006  0.4270174E+03  0.7818608E-02  0.1034806E+00
          1   -1    0    0  501    0  0.00000000000E+00  0.00000000000E+00  0.28931229519E+04  0.28931229520E+04  0.50400000000E-02 0.  1.
         -1   -1    0    0    0  501 -0.00000000000E+00 -0.00000000000E+00 -0.15756665297E+02  0.15756666103E+02  0.50400000000E-02 0. -1.
    5000001    1    1    2    0    0 -0.62352157266E+02  0.44142610821E+02  0.13556400408E+04  0.13722963535E+04  0.19900000000E+03 0.  0.
   -5000001    1    1    2    0    0  0.62352157266E+02 -0.44142610821E+02  0.15217262458E+04  0.15365832645E+04  0.19900000000E+03 0.  0.
<mgrwt>
<rscale>  0 0.42701743E+03</rscale>
<asrwt>0</asrwt>
<pdfrwt beam="1">  1        1 0.41330359E+00 0.42701743E+03</pdfrwt>
<pdfrwt beam="2">  1       -1 0.22509506E-02 0.42701743E+03</pdfrwt>
<totfact> 0.67217041E+02</totfact>
</mgrwt>
</event>
<event>
 4    1  0.6282309E-006  0.6810700E+03  0.7818608E-02  0.9750164E-01
          1   -1    0    0  501    0  0.00000000000E+00  0.00000000000E+00  0.14837640553E+03  0.14837640561E+03  0.50400000000E-02 0. -1.
         -1   -1    0    0    0  501 -0.00000000000E+00 -0.00000000000E+00 -0.78155335529E+03  0.78155335531E+03  0.50400000000E-02 0.  1.
    5000001    1    1    2    0    0  0.26813636305E+03 -0.14064196665E+02 -0.22738554798E+03  0.40422778015E+03  0.19900000000E+03 0.  0.
   -5000001    1    1    2    0    0 -0.26813636305E+03  0.14064196665E+02 -0.40579140179E+03  0.52570198077E+03  0.19900000000E+03 0.  0.
<mgrwt>
<rscale>  0 0.68106997E+03</rscale>
<asrwt>0</asrwt>
<pdfrwt beam="1">  1        1 0.21196630E-01 0.68106997E+03</pdfrwt>
<pdfrwt beam="2">  1       -1 0.11165048E+00 0.68106997E+03</pdfrwt>
<totfact> 0.18174984E+02</totfact>
</mgrwt>
</event>
<event>
 4    1  0.6282309E-006  0.5242343E+03  0.7818608E-02  0.1007640E+00
         -1   -1    0    0    0  501 -0.00000000000E+00  0.00000000000E+00  0.53944495475E+02  0.53944495711E+02  0.50400000000E-02 0. -1.
          1   -1    0    0  501    0  0.00000000000E+00 -0.00000000000E+00 -0.12736311339E+04  0.12736311339E+04  0.50400000000E-02 0.  1.
    5000001    1    1    2    0    0 -0.11601065937E+03  0.98178603324E+02 -0.41357135225E+03  0.48346641521E+03  0.19900000000E+03 0.  0.
   -5000001    1    1    2    0    0  0.11601065937E+03 -0.98178603324E+02 -0.80611528615E+03  0.84410921438E+03  0.19900000000E+03 0.  0.
<mgrwt>
<rscale>  0 0.52423426E+03</rscale>
<asrwt>0</asrwt>
<pdfrwt beam="1">  1        1 0.18194729E+00 0.52423426E+03</pdfrwt>
<pdfrwt beam="2">  1       -1 0.77063573E-02 0.52423426E+03</pdfrwt>
<totfact> 0.10648932E+03</totfact>
</mgrwt>
</event>
<event>
 4    1  0.6282309E-006  0.4048406E+03  0.7818608E-02  0.1042116E+00
         -1   -1    0    0    0  501 -0.00000000000E+00  0.00000000000E+00  0.18920476721E+04  0.18920476721E+04  0.50400000000E-02 0. -1.
          1   -1    0    0  501    0  0.00000000000E+00 -0.00000000000E+00 -0.21655889272E+02  0.21655889858E+02  0.50400000000E-02 0.  1.
    5000001    1    1    2    0    0  0.34916115419E+02 -0.53831014939E+01  0.98801690437E+03  0.10084773256E+04  0.19900000000E+03 0.  0.
   -5000001    1    1    2    0    0 -0.34916115419E+02  0.53831014939E+01  0.88237487849E+03  0.90522623641E+03  0.19900000000E+03 0.  0.
<mgrwt>
<rscale>  0 0.40484059E+03</rscale>
<asrwt>0</asrwt>
<pdfrwt beam="1">  1        1 0.30936983E-02 0.40484059E+03</pdfrwt>
<pdfrwt beam="2">  1       -1 0.27029255E+00 0.40484059E+03</pdfrwt>
<totfact> 0.19143614E+02</totfact>
</mgrwt>
</event>
<event>
 4    1  0.6282309E-006  0.4500212E+03  0.7818608E-02  0.1027716E+00
          1   -1    0    0  501    0  0.00000000000E+00  0.00000000000E+00  0.17635022440E+03  0.17635022448E+03  0.50400000000E-02 0.  1.
         -1   -1    0    0    0  501 -0.00000000000E+00 -0.00000000000E+00 -0.28709788738E+03  0.28709788743E+03  0.50400000000E-02 0. -1.
    5000001    1    1    2    0    0 -0.92791701663E+02  0.42169835335E+02 -0.81430557018E+02  0.23795068927E+03  0.19900000000E+03 0.  0.
   -5000001    1    1    2    0    0  0.92791701663E+02 -0.42169835335E+02 -0.29317105961E+02  0.22549742263E+03  0.19900000000E+03 0.  0.
<mgrwt>
<rscale>  0 0.45002123E+03</rscale>
<asrwt>0</asrwt>
<pdfrwt beam="1">  1        1 0.25192889E-01 0.45002123E+03</pdfrwt>
<pdfrwt beam="2">  1       -1 0.41013984E-01 0.45002123E+03</pdfrwt>
<totfact> 0.11240405E+03</totfact>
</mgrwt>
</event>
<event>
 4    1  0.6282309E-006  0.7247250E+03  0.7818608E-02  0.9675859E-01
          1   -1    0    0  501    0  0.00000000000E+00  0.00000000000E+00  0.64358231161E+03  0.64358231163E+03  0.50400000000E-02 0. -1.
         -1   -1    0    0    0  501 -0.00000000000E+00 -0.00000000000E+00 -0.20402455347E+03  0.20402455354E+03  0.50400000000E-02 0.  1.
    5000001    1    1    2    0    0  0.29176000854E+03 -0.47519485474E+02  0.29668190688E+03  0.46368433007E+03  0.19900000000E+03 0.  0.
   -5000001    1    1    2    0    0 -0.29176000854E+03  0.47519485474E+02  0.14287585125E+03  0.38392253510E+03  0.19900000000E+03 0.  0.
<mgrwt>
<rscale>  0 0.72472503E+03</rscale>
<asrwt>0</asrwt>
<pdfrwt beam="1">  1        1 0.91940329E-01 0.72472503E+03</pdfrwt>
<pdfrwt beam="2">  1       -1 0.29146365E-01 0.72472503E+03</pdfrwt>
<totfact> 0.37319401E+02</totfact>
</mgrwt>
</event>
<event>
 4    1  0.6282309E-006  0.5720401E+03  0.7818608E-02  0.9965174E-01
          1   -1    0    0  501    0  0.00000000000E+00  0.00000000000E+00  0.38986578227E+03  0.38986578230E+03  0.50400000000E-02 0.  1.
         -1   -1    0    0    0  501 -0.00000000000E+00 -0.00000000000E+00 -0.20983498347E+03  0.20983498353E+03  0.50400000000E-02 0. -1.
    5000001    1    1    2    0    0  0.47336115135E+02  0.88556353078E+02 -0.97881593697E+02  0.24344350854E+03  0.19900000000E+03 0.  0.
   -5000001    1    1    2    0    0 -0.47336115135E+02 -0.88556353078E+02  0.27791239250E+03  0.35625725729E+03  0.19900000000E+03 0.  0.
<mgrwt>
<rscale>  0 0.57204014E+03</rscale>
<asrwt>0</asrwt>
<pdfrwt beam="1">  1        1 0.55695111E-01 0.57204014E+03</pdfrwt>
<pdfrwt beam="2">  1       -1 0.29976426E-01 0.57204014E+03</pdfrwt>
<totfact> 0.70460294E+02</totfact>
</mgrwt>
</event>
<event>
 4    1  0.6282309E-006  0.6120908E+03  0.7818608E-02  0.9880634E-01
          1   -1    0    0  501    0  0.00000000000E+00  0.00000000000E+00  0.82877755011E+03  0.82877755012E+03  0.50400000000E-02 0. -1.
         -1   -1    0    0    0  501 -0.00000000000E+00 -0.00000000000E+00 -0.11301437968E+03  0.11301437980E+03  0.50400000000E-02 0.  1.
    5000001    1    1    2    0    0  0.15802338216E+03 -0.16237555499E+03  0.27755342023E+03  0.40984644838E+03  0.19900000000E+03 0.  0.
   -5000001    1    1    2    0    0 -0.15802338216E+03  0.16237555499E+03  0.43820975020E+03  0.53194548154E+03  0.19900000000E+03 0.  0.
<mgrwt>
<rscale>  0 0.61209078E+03</rscale>
<asrwt>0</asrwt>
<pdfrwt beam="1">  1        1 0.11839679E+00 0.61209078E+03</pdfrwt>
<pdfrwt beam="2">  1       -1 0.16144911E-01 0.61209078E+03</pdfrwt>
<totfact> 0.69219591E+02</totfact>
</mgrwt>
</event>
<event>
 4    1  0.6282309E-006  0.4217356E+03  0.7818608E-02  0.1036503E+00
         -1   -1    0    0    0  501 -0.00000000000E+00  0.00000000000E+00  0.10432404487E+03  0.10432404499E+03  0.50400000000E-02 0. -1.
          1   -1    0    0  501    0  0.00000000000E+00 -0.00000000000E+00 -0.42622218036E+03  0.42622218039E+03  0.50400000000E-02 0.  1.
    5000001    1    1    2    0    0  0.22075150558E+02  0.25160138233E+02 -0.23792302105E+03  0.31197549387E+03  0.19900000000E+03 0.  0.
   -5000001    1    1    2    0    0 -0.22075150558E+02 -0.25160138233E+02 -0.83975114444E+02  0.21857073151E+03  0.19900000000E+03 0.  0.
<mgrwt>
<rscale>  0 0.42173557E+03</rscale>
<asrwt>0</asrwt>
<pdfrwt beam="1">  1        1 0.60888882E-01 0.42173557E+03</pdfrwt>
<pdfrwt beam="2">  1       -1 0.14903435E-01 0.42173557E+03</pdfrwt>
<totfact> 0.20059482E+03</totfact>
</mgrwt>
</event>
<event>
 4    1  0.6282309E-006  0.8405074E+03  0.7818608E-02  0.9503167E-01
         -1   -1    0    0    0  501 -0.00000000000E+00  0.00000000000E+00  0.15185222081E+03  0.15185222089E+03  0.50400000000E-02 0. -1.
          1   -1    0    0  501    0  0.00000000000E+00 -0.00000000000E+00 -0.11630596337E+04  0.11630596337E+04  0.50400000000E-02 0.  1.
    5000001    1    1    2    0    0 -0.20648677866E+03 -0.15327574807E+03 -0.92211126641E+03  0.97776297350E+03  0.19900000000E+03 0.  0.
   -5000001    1    1    2    0    0  0.20648677866E+03  0.15327574807E+03 -0.89096146475E+02  0.33714888110E+03  0.19900000000E+03 0.  0.
<mgrwt>
<rscale>  0 0.84050744E+03</rscale>
<asrwt>0</asrwt>
<pdfrwt beam="1">  1        1 0.16615137E+00 0.84050744E+03</pdfrwt>
<pdfrwt beam="2">  1       -1 0.21693175E-01 0.84050744E+03</pdfrwt>
<totfact> 0.23593908E+02</totfact>
</mgrwt>
</event>
<event>
 4    1  0.6282309E-006  0.1029520E+04  0.7818608E-02  0.9276747E-01
          1   -1    0    0  501    0  0.00000000000E+00  0.00000000000E+00  0.12801858506E+04  0.12801858507E+04  0.50400000000E-02 0.  1.
         -1   -1    0    0    0  501 -0.00000000000E+00 -0.00000000000E+00 -0.20698398239E+03  0.20698398245E+03  0.50400000000E-02 0. -1.
    5000001    1    1    2    0    0 -0.47032854686E+03 -0.15266162137E+01  0.44336800581E+03  0.67630426667E+03  0.19900000000E+03 0.  0.
   -5000001    1    1    2    0    0  0.47032854686E+03  0.15266162137E+01  0.62983386245E+03  0.81086556644E+03  0.19900000000E+03 0.  0.
<mgrwt>
<rscale>  0 0.10295202E+04</rscale>
<asrwt>0</asrwt>
<pdfrwt beam="1">  1        1 0.18288369E+00 0.10295202E+04</pdfrwt>
<pdfrwt beam="2">  1       -1 0.29569140E-01 0.10295202E+04</pdfrwt>
<totfact> 0.11390775E+02</totfact>
</mgrwt>
</event>
<event>
 4    1  0.6282309E-006  0.1896266E+04  0.7818608E-02  0.8656717E-01
          1   -1    0    0  501    0  0.00000000000E+00  0.00000000000E+00  0.12952596448E+04  0.12952596448E+04  0.50400000000E-02 0.  1.
         -1   -1    0    0    0  501 -0.00000000000E+00 -0.00000000000E+00 -0.69403565160E+03  0.69403565162E+03  0.50400000000E-02 0. -1.
    5000001    1    1    2    0    0  0.89630991653E+03 -0.34355203083E+02  0.54619855677E+03  0.10688711849E+04  0.19900000000E+03 0.  0.
   -5000001    1    1    2    0    0 -0.89630991653E+03  0.34355203083E+02  0.55025436417E+02  0.92042411154E+03  0.19900000000E+03 0.  0.
<mgrwt>
<rscale>  0 0.18962662E+04</rscale>
<asrwt>0</asrwt>
<pdfrwt beam="1">  1        1 0.18503709E+00 0.18962662E+04</pdfrwt>
<pdfrwt beam="2">  1       -1 0.99147951E-01 0.18962662E+04</pdfrwt>
<totfact> 0.97155511E+00</totfact>
</mgrwt>
</event>
<event>
 4    1  0.6282309E-006  0.6443310E+03  0.7818608E-02  0.9817475E-01
          1   -1    0    0  501    0  0.00000000000E+00  0.00000000000E+00  0.51096777986E+03  0.51096777989E+03  0.50400000000E-02 0.  1.
         -1   -1    0    0    0  501 -0.00000000000E+00 -0.00000000000E+00 -0.20312552888E+03  0.20312552894E+03  0.50400000000E-02 0. -1.
    5000001    1    1    2    0    0  0.24359600554E+03 -0.24072073238E+02  0.81491383151E+02  0.32582253476E+03  0.19900000000E+03 0.  0.
   -5000001    1    1    2    0    0 -0.24359600554E+03  0.24072073238E+02  0.22635086783E+03  0.38827077407E+03  0.19900000000E+03 0.  0.
<mgrwt>
<rscale>  0 0.64433097E+03</rscale>
<asrwt>0</asrwt>
<pdfrwt beam="1">  1        1 0.72995397E-01 0.64433097E+03</pdfrwt>
<pdfrwt beam="2">  1       -1 0.29017933E-01 0.64433097E+03</pdfrwt>
<totfact> 0.51989683E+02</totfact>
</mgrwt>
</event>
<event>
 4    1  0.6282309E-006  0.8161193E+03  0.7818608E-02  0.9536974E-01
          1   -1    0    0  501    0  0.00000000000E+00  0.00000000000E+00  0.74224019516E+03  0.74224019518E+03  0.50400000000E-02 0. -1.
         -1   -1    0    0    0  501 -0.00000000000E+00 -0.00000000000E+00 -0.22433800859E+03  0.22433800865E+03  0.50400000000E-02 0.  1.
    5000001    1    1    2    0    0  0.48184709833E+02  0.31204699390E+03  0.45434014702E+03  0.58798049446E+03  0.19900000000E+03 0.  0.
   -5000001    1    1    2    0    0 -0.48184709833E+02 -0.31204699390E+03  0.63562039550E+02  0.37859770937E+03  0.19900000000E+03 0.  0.
<mgrwt>
<rscale>  0 0.81611932E+03</rscale>
<asrwt>0</asrwt>
<pdfrwt beam="1">  1        1 0.10603432E+00 0.81611932E+03</pdfrwt>
<pdfrwt beam="2">  1       -1 0.32048286E-01 0.81611932E+03</pdfrwt>
<totfact> 0.25535109E+02</totfact>
</mgrwt>
</event>
<event>
 4    1  0.6282309E-006  0.7104454E+03  0.7818608E-02  0.9699534E-01
         -1   -1    0    0    0  501 -0.00000000000E+00  0.00000000000E+00  0.32838207394E+03  0.32838207398E+03  0.50400000000E-02 0. -1.
          1   -1    0    0  501    0  0.00000000000E+00 -0.00000000000E+00 -0.38425711718E+03  0.38425711721E+03  0.50400000000E-02 0.  1.
    5000001    1    1    2    0    0 -0.15433521893E+03  0.24208692169E+03 -0.92609176564E+02  0.36139022820E+03  0.19900000000E+03 0.  0.
   -5000001    1    1    2    0    0  0.15433521893E+03 -0.24208692169E+03  0.36734133329E+02  0.35124896299E+03  0.19900000000E+03 0.  0.
<mgrwt>
<rscale>  0 0.71044535E+03</rscale>
<asrwt>0</asrwt>
<pdfrwt beam="1">  1        1 0.54893874E-01 0.71044535E+03</pdfrwt>
<pdfrwt beam="2">  1       -1 0.46911725E-01 0.71044535E+03</pdfrwt>
<totfact> 0.31994380E+02</totfact>
</mgrwt>
</event>
<event>
 4    1  0.6282309E-006  0.8754188E+03  0.7818608E-02  0.9456842E-01
          1   -1    0    0  501    0  0.00000000000E+00  0.00000000000E+00  0.67716676025E+03  0.67716676027E+03  0.50400000000E-02 0. -1.
         -1   -1    0    0    0  501 -0.00000000000E+00 -0.00000000000E+00 -0.28292809064E+03  0.28292809068E+03  0.50400000000E-02 0.  1.
    5000001    1    1    2    0    0 -0.13998555628E+03 -0.32364851194E+03  0.37946698724E+03  0.55492387735E+03  0.19900000000E+03 0.  0.
   -5000001    1    1    2    0    0  0.13998555628E+03  0.32364851194E+03  0.14771682379E+02  0.40517097360E+03  0.19900000000E+03 0.  0.
<mgrwt>
<rscale>  0 0.87541875E+03</rscale>
<asrwt>0</asrwt>
<pdfrwt beam="1">  1        1 0.96738107E-01 0.87541875E+03</pdfrwt>
<pdfrwt beam="2">  1       -1 0.40418299E-01 0.87541875E+03</pdfrwt>
<totfact> 0.19251255E+02</totfact>
</mgrwt>
</event>
<event>
 4    1  0.6282309E-006  0.6950703E+03  0.7818608E-02  0.9725700E-01
         -1   -1    0    0    0  501 -0.00000000000E+00  0.00000000000E+00  0.21514081124E+03  0.21514081130E+03  0.50400000000E-02 0. -1.
          1   -1    0    0  501    0  0.00000000000E+00 -0.00000000000E+00 -0.56140294761E+03  0.56140294763E+03  0.50400000000E-02 0.  1.
    5000001    1    1    2    0    0 -0.26004001277E+03 -0.11378486342E+03 -0.20076680917E+03  0.40059470172E+03  0.19900000000E+03 0.  0.
   -5000001    1    1    2    0    0  0.26004001277E+03  0.11378486342E+03 -0.14549532720E+03  0.37594905721E+03  0.19900000000E+03 0.  0.
<mgrwt>
<rscale>  0 0.69507031E+03</rscale>
<asrwt>0</asrwt>
<pdfrwt beam="1">  1        1 0.80200420E-01 0.69507031E+03</pdfrwt>
<pdfrwt beam="2">  1       -1 0.30734402E-01 0.69507031E+03</pdfrwt>
<totfact> 0.41291740E+02</totfact>
</mgrwt>
</event>
<event>
 4    1  0.6282309E-006  0.5711505E+03  0.7818608E-02  0.9967136E-01
         -1   -1    0    0    0  501 -0.00000000000E+00  0.00000000000E+00  0.10100700304E+03  0.10100700317E+03  0.50400000000E-02 0. -1.
          1   -1    0    0  501    0  0.00000000000E+00 -0.00000000000E+00 -0.80740175666E+03  0.80740175668E+03  0.50400000000E-02 0.  1.
    5000001    1    1    2    0    0 -0.17068153702E+03  0.91089292767E+02 -0.24623434072E+03  0.37102802709E+03  0.19900000000E+03 0.  0.
   -5000001    1    1    2    0    0  0.17068153702E+03 -0.91089292767E+02 -0.46016041290E+03  0.53738073275E+03  0.19900000000E+03 0.  0.
<mgrwt>
<rscale>  0 0.57115053E+03</rscale>
<asrwt>0</asrwt>
<pdfrwt beam="1">  1        1 0.11534310E+00 0.57115053E+03</pdfrwt>
<pdfrwt beam="2">  1       -1 0.14429572E-01 0.57115053E+03</pdfrwt>
<totfact> 0.86572980E+02</totfact>
</mgrwt>
</event>
<event>
 4    1  0.6282309E-006  0.7581195E+03  0.7818608E-02  0.9622698E-01
         -1   -1    0    0    0  501 -0.00000000000E+00  0.00000000000E+00  0.50612698761E+02  0.50612699011E+02  0.50400000000E-02 0. -1.
          1   -1    0    0  501    0  0.00000000000E+00 -0.00000000000E+00 -0.28389373043E+04  0.28389373043E+04  0.50400000000E-02 0.  1.
    5000001    1    1    2    0    0  0.14118188333E+03  0.16269145415E+03 -0.23095855366E+04  0.23281295463E+04  0.19900000000E+03 0.  0.
   -5000001    1    1    2    0    0 -0.14118188333E+03 -0.16269145415E+03 -0.47873906891E+03  0.56142045700E+03  0.19900000000E+03 0.  0.
<mgrwt>
<rscale>  0 0.75811946E+03</rscale>
<asrwt>0</asrwt>
<pdfrwt beam="1">  1        1 0.40556237E+00 0.75811946E+03</pdfrwt>
<pdfrwt beam="2">  1       -1 0.72303873E-02 0.75811946E+03</pdfrwt>
<totfact> 0.11952206E+02</totfact>
</mgrwt>
</event>
<event>
 4    1  0.6282309E-006  0.6796734E+03  0.7818608E-02  0.9752639E-01
         -1   -1    0    0    0  501 -0.00000000000E+00  0.00000000000E+00  0.89688206665E+02  0.89688206807E+02  0.50400000000E-02 0. -1.
          1   -1    0    0  501    0  0.00000000000E+00 -0.00000000000E+00 -0.12876719416E+04  0.12876719416E+04  0.50400000000E-02 0.  1.
    5000001    1    1    2    0    0  0.21960048946E+03  0.13047606482E+03 -0.80802256136E+03  0.87048827570E+03  0.19900000000E+03 0.  0.
   -5000001    1    1    2    0    0 -0.21960048946E+03 -0.13047606482E+03 -0.38996117360E+03  0.50687187275E+03  0.19900000000E+03 0.  0.
<mgrwt>
<rscale>  0 0.67967341E+03</rscale>
<asrwt>0</asrwt>
<pdfrwt beam="1">  1        1 0.18395312E+00 0.67967341E+03</pdfrwt>
<pdfrwt beam="2">  1       -1 0.12812602E-01 0.67967341E+03</pdfrwt>
<totfact> 0.46413445E+02</totfact>
</mgrwt>
</event>
<event>
 4    1  0.6282309E-006  0.8576733E+03  0.7818608E-02  0.9480096E-01
         -1   -1    0    0    0  501 -0.00000000000E+00  0.00000000000E+00  0.18420672508E+03  0.18420672515E+03  0.50400000000E-02 0.  1.
          1   -1    0    0  501    0  0.00000000000E+00 -0.00000000000E+00 -0.99833952649E+03  0.99833952650E+03  0.50400000000E-02 0. -1.
    5000001    1    1    2    0    0 -0.14931925910E+03  0.34714035563E+03 -0.35371641543E+03  0.55454392990E+03  0.19900000000E+03 0.  0.
   -5000001    1    1    2    0    0  0.14931925910E+03 -0.34714035563E+03 -0.46041638598E+03  0.62800232175E+03  0.19900000000E+03 0.  0.
<mgrwt>
<rscale>  0 0.85767326E+03</rscale>
<asrwt>0</asrwt>
<pdfrwt beam="1">  1        1 0.14261993E+00 0.85767326E+03</pdfrwt>
<pdfrwt beam="2">  1       -1 0.26315247E-01 0.85767326E+03</pdfrwt>
<totfact> 0.22320776E+02</totfact>
</mgrwt>
</event>
<event>
 4    1  0.6282309E-006  0.8352671E+03  0.7818608E-02  0.9510327E-01
          1   -1    0    0  501    0  0.00000000000E+00  0.00000000000E+00  0.72389185653E+03  0.72389185654E+03  0.50400000000E-02 0.  1.
         -1   -1    0    0    0  501 -0.00000000000E+00 -0.00000000000E+00 -0.24094452170E+03  0.24094452175E+03  0.50400000000E-02 0. -1.
    5000001    1    1    2    0    0  0.33174826423E+03  0.31205485258E+02  0.63322047838E+02  0.39324467558E+03  0.19900000000E+03 0.  0.
   -5000001    1    1    2    0    0 -0.33174826423E+03 -0.31205485258E+02  0.41962528699E+03  0.57159170271E+03  0.19900000000E+03 0.  0.
<mgrwt>
<rscale>  0 0.83526709E+03</rscale>
<asrwt>0</asrwt>
<pdfrwt beam="1">  1        1 0.10341313E+00 0.83526709E+03</pdfrwt>
<pdfrwt beam="2">  1       -1 0.34420645E-01 0.83526709E+03</pdfrwt>
<totfact> 0.23343099E+02</totfact>
</mgrwt>
</event>
<event>
 4    1  0.6282309E-006  0.6419993E+03  0.7818608E-02  0.9821909E-01
         -1   -1    0    0    0  501 -0.00000000000E+00  0.00000000000E+00  0.48549308632E+02  0.48549308893E+02  0.50400000000E-02 0.  1.
          1   -1    0    0  501    0  0.00000000000E+00 -0.00000000000E+00 -0.21223945914E+04  0.21223945914E+04  0.50400000000E-02 0. -1.
    5000001    1    1    2    0    0 -0.12026759442E+03 -0.22113675725E+03 -0.10660177420E+04  0.11132657302E+04  0.19900000000E+03 0.  0.
   -5000001    1    1    2    0    0  0.12026759442E+03  0.22113675725E+03 -0.10078275407E+04  0.10576781701E+04  0.19900000000E+03 0.  0.
<mgrwt>
<rscale>  0 0.64199935E+03</rscale>
<asrwt>0</asrwt>
<pdfrwt beam="1">  1        1 0.30319917E+00 0.64199935E+03</pdfrwt>
<pdfrwt beam="2">  1       -1 0.69356169E-02 0.64199935E+03</pdfrwt>
<totfact> 0.36237201E+02</totfact>
</mgrwt>
</event>
<event>
 4    1  0.6282309E-006  0.5472949E+03  0.7818608E-02  0.1002122E+00
          1   -1    0    0  501    0  0.00000000000E+00  0.00000000000E+00  0.36545067512E+03  0.36545067516E+03  0.50400000000E-02 0.  1.
         -1   -1    0    0    0  501 -0.00000000000E+00 -0.00000000000E+00 -0.20490567455E+03  0.20490567461E+03  0.50400000000E-02 0. -1.
    5000001    1    1    2    0    0  0.16641627703E+03 -0.71105470713E+02  0.27837856017E+02  0.27041877053E+03  0.19900000000E+03 0.  0.
   -5000001    1    1    2    0    0 -0.16641627703E+03  0.71105470713E+02  0.13270714455E+03  0.29993757924E+03  0.19900000000E+03 0.  0.
<mgrwt>
<rscale>  0 0.54729486E+03</rscale>
<asrwt>0</asrwt>
<pdfrwt beam="1">  1        1 0.52207239E-01 0.54729486E+03</pdfrwt>
<pdfrwt beam="2">  1       -1 0.29272239E-01 0.54729486E+03</pdfrwt>
<totfact> 0.79883978E+02</totfact>
</mgrwt>
</event>
<event>
 4    1  0.6282309E-006  0.5885896E+03  0.7818608E-02  0.9929366E-01
          1   -1    0    0  501    0  0.00000000000E+00  0.00000000000E+00  0.14248826874E+04  0.14248826874E+04  0.50400000000E-02 0.  1.
         -1   -1    0    0    0  501 -0.00000000000E+00 -0.00000000000E+00 -0.60783555524E+02  0.60783555733E+02  0.50400000000E-02 0. -1.
    5000001    1    1    2    0    0 -0.19464603157E+03  0.59202998349E+02  0.49288653761E+03  0.56914867265E+03  0.19900000000E+03 0.  0.
   -5000001    1    1    2    0    0  0.19464603157E+03 -0.59202998349E+02  0.87121259424E+03  0.91651757047E+03  0.19900000000E+03 0.  0.
<mgrwt>
<rscale>  0 0.58858962E+03</rscale>
<asrwt>0</asrwt>
<pdfrwt beam="1">  1        1 0.20355467E+00 0.58858962E+03</pdfrwt>
<pdfrwt beam="2">  1       -1 0.86833650E-02 0.58858962E+03</pdfrwt>
<totfact> 0.70118854E+02</totfact>
</mgrwt>
</event>
<event>
 4    1  0.6282309E-006  0.5721571E+03  0.7818608E-02  0.9964917E-01
          1   -1    0    0  501    0  0.00000000000E+00  0.00000000000E+00  0.45169367273E+03  0.45169367276E+03  0.50400000000E-02 0.  1.
         -1   -1    0    0    0  501 -0.00000000000E+00 -0.00000000000E+00 -0.18118681152E+03  0.18118681159E+03  0.50400000000E-02 0. -1.
    5000001    1    1    2    0    0 -0.39040238263E+01 -0.17032719128E+03  0.81044841831E+01  0.26209402159E+03  0.19900000000E+03 0.  0.
   -5000001    1    1    2    0    0  0.39040238263E+01  0.17032719128E+03  0.26240237703E+03  0.37078646275E+03  0.19900000000E+03 0.  0.
<mgrwt>
<rscale>  0 0.57215710E+03</rscale>
<asrwt>0</asrwt>
<pdfrwt beam="1">  1        1 0.64527667E-01 0.57215710E+03</pdfrwt>
<pdfrwt beam="2">  1       -1 0.25883831E-01 0.57215710E+03</pdfrwt>
<totfact> 0.74737805E+02</totfact>
</mgrwt>
</event>
<event>
 4    1  0.6282309E-006  0.4770091E+03  0.7818608E-02  0.1019960E+00
          1   -1    0    0  501    0  0.00000000000E+00  0.00000000000E+00  0.35643688634E+03  0.35643688638E+03  0.50400000000E-02 0.  1.
         -1   -1    0    0    0  501 -0.00000000000E+00 -0.00000000000E+00 -0.15959183742E+03  0.15959183750E+03  0.50400000000E-02 0. -1.
    5000001    1    1    2    0    0 -0.12320210032E+03 -0.42544491073E+02  0.79853758040E+02  0.25093109396E+03  0.19900000000E+03 0.  0.
   -5000001    1    1    2    0    0  0.12320210032E+03  0.42544491073E+02  0.11699129089E+03  0.26509762992E+03  0.19900000000E+03 0.  0.
<mgrwt>
<rscale>  0 0.47700909E+03</rscale>
<asrwt>0</asrwt>
<pdfrwt beam="1">  1        1 0.50919555E-01 0.47700909E+03</pdfrwt>
<pdfrwt beam="2">  1       -1 0.22798834E-01 0.47700909E+03</pdfrwt>
<totfact> 0.12616930E+03</totfact>
</mgrwt>
</event>
<event>
 4    1  0.6282309E-006  0.8691375E+03  0.7818608E-02  0.9465005E-01
          1   -1    0    0  501    0  0.00000000000E+00  0.00000000000E+00  0.11612329647E+04  0.11612329647E+04  0.50400000000E-02 0. -1.
         -1   -1    0    0    0  501 -0.00000000000E+00 -0.00000000000E+00 -0.16262887393E+03  0.16262887401E+03  0.50400000000E-02 0.  1.
    5000001    1    1    2    0    0 -0.33622748216E+03 -0.80247235804E+02  0.23653308584E+03  0.46372129487E+03  0.19900000000E+03 0.  0.
   -5000001    1    1    2    0    0  0.33622748216E+03  0.80247235804E+02  0.76207100490E+03  0.86014054382E+03  0.19900000000E+03 0.  0.
<mgrwt>
<rscale>  0 0.86913753E+03</rscale>
<asrwt>0</asrwt>
<pdfrwt beam="1">  1        1 0.16589042E+00 0.86913753E+03</pdfrwt>
<pdfrwt beam="2">  1       -1 0.23232697E-01 0.86913753E+03</pdfrwt>
<totfact> 0.21041498E+02</totfact>
</mgrwt>
</event>
<event>
 4    1  0.6282309E-006  0.4769309E+03  0.7818608E-02  0.1019982E+00
         -1   -1    0    0    0  501 -0.00000000000E+00  0.00000000000E+00  0.59025694404E+03  0.59025694406E+03  0.50400000000E-02 0. -1.
          1   -1    0    0  501    0  0.00000000000E+00 -0.00000000000E+00 -0.96340710274E+02  0.96340710406E+02  0.50400000000E-02 0.  1.
    5000001    1    1    2    0    0  0.12608613495E+03  0.75056005305E+00  0.19374102847E+03  0.30501616823E+03  0.19900000000E+03 0.  0.
   -5000001    1    1    2    0    0 -0.12608613495E+03 -0.75056005305E+00  0.30017520529E+03  0.38158148624E+03  0.19900000000E+03 0.  0.
<mgrwt>
<rscale>  0 0.47693091E+03</rscale>
<asrwt>0</asrwt>
<pdfrwt beam="1">  1        1 0.13762958E-01 0.47693091E+03</pdfrwt>
<pdfrwt beam="2">  1       -1 0.84322424E-01 0.47693091E+03</pdfrwt>
<totfact> 0.61059215E+02</totfact>
</mgrwt>
</event>
<event>
 4    1  0.6282309E-006  0.4783014E+03  0.7818608E-02  0.1019603E+00
          1   -1    0    0  501    0  0.00000000000E+00  0.00000000000E+00  0.23975210501E+04  0.23975210501E+04  0.50400000000E-02 0.  1.
         -1   -1    0    0    0  501 -0.00000000000E+00 -0.00000000000E+00 -0.23855085057E+02  0.23855085589E+02  0.50400000000E-02 0. -1.
    5000001    1    1    2    0    0  0.15214611957E+02  0.63388040739E+02  0.17715959147E+04  0.17839289821E+04  0.19900000000E+03 0.  0.
   -5000001    1    1    2    0    0 -0.15214611957E+02 -0.63388040739E+02  0.60207005028E+03  0.63744715355E+03  0.19900000000E+03 0.  0.
<mgrwt>
<rscale>  0 0.47830145E+03</rscale>
<asrwt>0</asrwt>
<pdfrwt beam="1">  1        1 0.34250286E+00 0.47830145E+03</pdfrwt>
<pdfrwt beam="2">  1       -1 0.34078708E-02 0.47830145E+03</pdfrwt>
<totfact> 0.73458366E+02</totfact>
</mgrwt>
</event>
<event>
 4    1  0.6282309E-006  0.7952182E+03  0.7818608E-02  0.9566964E-01
         -1   -1    0    0    0  501 -0.00000000000E+00  0.00000000000E+00  0.10043173247E+04  0.10043173247E+04  0.50400000000E-02 0. -1.
          1   -1    0    0  501    0  0.00000000000E+00 -0.00000000000E+00 -0.15741338267E+03  0.15741338275E+03  0.50400000000E-02 0.  1.
    5000001    1    1    2    0    0  0.26457287884E+03 -0.18775381831E+03  0.59156089253E+03  0.70341708402E+03  0.19900000000E+03 0.  0.
   -5000001    1    1    2    0    0 -0.26457287884E+03  0.18775381831E+03  0.25534304951E+03  0.45831362345E+03  0.19900000000E+03 0.  0.
<mgrwt>
<rscale>  0 0.79521818E+03</rscale>
<asrwt>0</asrwt>
<pdfrwt beam="1">  1        1 0.22487627E-01 0.79521818E+03</pdfrwt>
<pdfrwt beam="2">  1       -1 0.14347390E+00 0.79521818E+03</pdfrwt>
<totfact> 0.89468671E+01</totfact>
</mgrwt>
</event>
<event>
 4    1  0.6282309E-006  0.5814073E+03  0.7818608E-02  0.9944749E-01
         -1   -1    0    0    0  501 -0.00000000000E+00  0.00000000000E+00  0.38652715870E+02  0.38652716199E+02  0.50400000000E-02 0. -1.
          1   -1    0    0  501    0  0.00000000000E+00 -0.00000000000E+00 -0.21863565837E+04  0.21863565837E+04  0.50400000000E-02 0.  1.
    5000001    1    1    2    0    0 -0.16161968382E+03 -0.13050913352E+03 -0.12341299857E+04  0.12672140220E+04  0.19900000000E+03 0.  0.
   -5000001    1    1    2    0    0  0.16161968382E+03  0.13050913352E+03 -0.91357388215E+03  0.95779527785E+03  0.19900000000E+03 0.  0.
<mgrwt>
<rscale>  0 0.58140733E+03</rscale>
<asrwt>0</asrwt>
<pdfrwt beam="1">  1        1 0.31233658E+00 0.58140733E+03</pdfrwt>
<pdfrwt beam="2">  1       -1 0.55218179E-02 0.58140733E+03</pdfrwt>
<totfact> 0.47253701E+02</totfact>
</mgrwt>
</event>
<event>
 4    1  0.6282309E-006  0.7298369E+03  0.7818608E-02  0.9667525E-01
         -1   -1    0    0    0  501 -0.00000000000E+00  0.00000000000E+00  0.12353491512E+03  0.12353491522E+03  0.50400000000E-02 0. -1.
          1   -1    0    0  501    0  0.00000000000E+00 -0.00000000000E+00 -0.10779580604E+04  0.10779580605E+04  0.50400000000E-02 0.  1.
    5000001    1    1    2    0    0 -0.74572920407E+02  0.23706879290E+03 -0.77078773118E+03  0.83395291207E+03  0.19900000000E+03 0.  0.
   -5000001    1    1    2    0    0  0.74572920407E+02 -0.23706879290E+03 -0.18363541414E+03  0.36754006360E+03  0.19900000000E+03 0.  0.
<mgrwt>
<rscale>  0 0.72983685E+03</rscale>
<asrwt>0</asrwt>
<pdfrwt beam="1">  1        1 0.15399400E+00 0.72983685E+03</pdfrwt>
<pdfrwt beam="2">  1       -1 0.17647846E-01 0.72983685E+03</pdfrwt>
<totfact> 0.38447397E+02</totfact>
</mgrwt>
</event>
<event>
 4    1  0.6282309E-006  0.9775775E+03  0.7818608E-02  0.9333485E-01
          1   -1    0    0  501    0  0.00000000000E+00  0.00000000000E+00  0.39216169620E+03  0.39216169623E+03  0.50400000000E-02 0.  1.
         -1   -1    0    0    0  501 -0.00000000000E+00 -0.00000000000E+00 -0.60922434549E+03  0.60922434551E+03  0.50400000000E-02 0. -1.
    5000001    1    1    2    0    0 -0.21694659602E+03  0.14077460837E+03  0.26424106739E+03  0.41989005416E+03  0.19900000000E+03 0.  0.
   -5000001    1    1    2    0    0  0.21694659602E+03 -0.14077460837E+03 -0.48130371668E+03  0.58149598758E+03  0.19900000000E+03 0.  0.
<mgrwt>
<rscale>  0 0.97757752E+03</rscale>
<asrwt>0</asrwt>
<pdfrwt beam="1">  1        1 0.56023099E-01 0.97757752E+03</pdfrwt>
<pdfrwt beam="2">  1       -1 0.87032049E-01 0.97757752E+03</pdfrwt>
<totfact> 0.88779365E+01</totfact>
</mgrwt>
</event>
<event>
 4    1  0.6282309E-006  0.7632728E+03  0.7818608E-02  0.9614755E-01
         -1   -1    0    0    0  501 -0.00000000000E+00  0.00000000000E+00  0.93403341755E+02  0.93403341891E+02  0.50400000000E-02 0.  1.
          1   -1    0    0  501    0  0.00000000000E+00 -0.00000000000E+00 -0.15593268438E+04  0.15593268438E+04  0.50400000000E-02 0. -1.
    5000001    1    1    2    0    0  0.22335436056E+03  0.23435033212E+03 -0.80915179576E+03  0.89394344180E+03  0.19900000000E+03 0.  0.
   -5000001    1    1    2    0    0 -0.22335436056E+03 -0.23435033212E+03 -0.65677170627E+03  0.75878674389E+03  0.19900000000E+03 0.  0.
<mgrwt>
<rscale>  0 0.76327279E+03</rscale>
<asrwt>0</asrwt>
<pdfrwt beam="1">  1        1 0.22276096E+00 0.76327279E+03</pdfrwt>
<pdfrwt beam="2">  1       -1 0.13343335E-01 0.76327279E+03</pdfrwt>
<totfact> 0.28743266E+02</totfact>
</mgrwt>
</event>
<event>
 4    1  0.6282309E-006  0.4696491E+03  0.7818608E-02  0.1022019E+00
         -1   -1    0    0    0  501 -0.00000000000E+00  0.00000000000E+00  0.45712013556E+03  0.45712013559E+03  0.50400000000E-02 0. -1.
          1   -1    0    0  501    0  0.00000000000E+00 -0.00000000000E+00 -0.12063036485E+03  0.12063036495E+03  0.50400000000E-02 0.  1.
    5000001    1    1    2    0    0 -0.36392445534E+02 -0.99663176511E+02  0.24876647617E+03  0.33577212289E+03  0.19900000000E+03 0.  0.
   -5000001    1    1    2    0    0  0.36392445534E+02  0.99663176511E+02  0.87723294547E+02  0.24197837765E+03  0.19900000000E+03 0.  0.
<mgrwt>
<rscale>  0 0.46964910E+03</rscale>
<asrwt>0</asrwt>
<pdfrwt beam="1">  1        1 0.17232910E-01 0.46964910E+03</pdfrwt>
<pdfrwt beam="2">  1       -1 0.65302875E-01 0.46964910E+03</pdfrwt>
<totfact> 0.76617468E+02</totfact>
</mgrwt>
</event>
<event>
 4    1  0.6282309E-006  0.4833397E+03  0.7818608E-02  0.1018221E+00
          1   -1    0    0  501    0  0.00000000000E+00  0.00000000000E+00  0.35065647247E+03  0.35065647251E+03  0.50400000000E-02 0.  1.
         -1   -1    0    0    0  501 -0.00000000000E+00 -0.00000000000E+00 -0.16655707575E+03  0.16655707583E+03  0.50400000000E-02 0. -1.
    5000001    1    1    2    0    0 -0.78112787116E+02  0.11181746151E+03  0.76970849416E+02  0.25323953852E+03  0.19900000000E+03 0.  0.
   -5000001    1    1    2    0    0  0.78112787116E+02 -0.11181746151E+03  0.10712854731E+03  0.26397400982E+03  0.19900000000E+03 0.  0.
<mgrwt>
<rscale>  0 0.48333970E+03</rscale>
<asrwt>0</asrwt>
<pdfrwt beam="1">  1        1 0.50093782E-01 0.48333970E+03</pdfrwt>
<pdfrwt beam="2">  1       -1 0.23793868E-01 0.48333970E+03</pdfrwt>
<totfact> 0.11995457E+03</totfact>
</mgrwt>
</event>
<event>
 4    1  0.6282309E-006  0.6805505E+03  0.7818608E-02  0.9751084E-01
         -1   -1    0    0    0  501 -0.00000000000E+00  0.00000000000E+00  0.53494476518E+02  0.53494476755E+02  0.50400000000E-02 0.  1.
          1   -1    0    0  501    0  0.00000000000E+00 -0.00000000000E+00 -0.21644713053E+04  0.21644713053E+04  0.50400000000E-02 0. -1.
    5000001    1    1    2    0    0  0.14879986303E+03  0.22027869391E+03 -0.12976743122E+04  0.13394863653E+04  0.19900000000E+03 0.  0.
   -5000001    1    1    2    0    0 -0.14879986303E+03 -0.22027869391E+03 -0.81330251657E+03  0.87847941677E+03  0.19900000000E+03 0.  0.
<mgrwt>
<rscale>  0 0.68055054E+03</rscale>
<asrwt>0</asrwt>
<pdfrwt beam="1">  1        1 0.30921013E+00 0.68055054E+03</pdfrwt>
<pdfrwt beam="2">  1       -1 0.76420695E-02 0.68055054E+03</pdfrwt>
<totfact> 0.29259159E+02</totfact>
</mgrwt>
</event>
<event>
 4    1  0.6282309E-006  0.5106590E+03  0.7818608E-02  0.1011034E+00
          1   -1    0    0  501    0  0.00000000000E+00  0.00000000000E+00  0.64964013553E+03  0.64964013555E+03  0.50400000000E-02 0. -1.
         -1   -1    0    0    0  501 -0.00000000000E+00 -0.00000000000E+00 -0.10035270868E+03  0.10035270880E+03  0.50400000000E-02 0.  1.
    5000001    1    1    2    0    0 -0.85821320832E+02  0.10650270083E+03  0.15278760507E+03  0.28575019975E+03  0.19900000000E+03 0.  0.
   -5000001    1    1    2    0    0  0.85821320832E+02 -0.10650270083E+03  0.39649982179E+03  0.46424264461E+03  0.19900000000E+03 0.  0.
<mgrwt>
<rscale>  0 0.51065898E+03</rscale>
<asrwt>0</asrwt>
<pdfrwt beam="1">  1        1 0.92805733E-01 0.51065898E+03</pdfrwt>
<pdfrwt beam="2">  1       -1 0.14336101E-01 0.51065898E+03</pdfrwt>
<totfact> 0.12075628E+03</totfact>
</mgrwt>
</event>
<event>
 4    1  0.6282309E-006  0.5278601E+03  0.7818608E-02  0.1006752E+00
         -1   -1    0    0    0  501 -0.00000000000E+00  0.00000000000E+00  0.13190293659E+03  0.13190293668E+03  0.50400000000E-02 0. -1.
          1   -1    0    0  501    0  0.00000000000E+00 -0.00000000000E+00 -0.52810854863E+03  0.52810854865E+03  0.50400000000E-02 0.  1.
    5000001    1    1    2    0    0  0.21295960706E+02 -0.15253572799E+03 -0.29764066634E+03  0.38975842841E+03  0.19900000000E+03 0.  0.
   -5000001    1    1    2    0    0 -0.21295960706E+02  0.15253572799E+03 -0.98564945708E+02  0.27025305693E+03  0.19900000000E+03 0.  0.
<mgrwt>
<rscale>  0 0.52786009E+03</rscale>
<asrwt>0</asrwt>
<pdfrwt beam="1">  1        1 0.75444077E-01 0.52786009E+03</pdfrwt>
<pdfrwt beam="2">  1       -1 0.18843277E-01 0.52786009E+03</pdfrwt>
<totfact> 0.10317174E+03</totfact>
</mgrwt>
</event>
<event>
 4    1  0.6282309E-006  0.4737415E+03  0.7818608E-02  0.1020869E+00
          1   -1    0    0  501    0  0.00000000000E+00  0.00000000000E+00  0.13033188663E+04  0.13033188663E+04  0.50400000000E-02 0.  1.
         -1   -1    0    0    0  501 -0.00000000000E+00 -0.00000000000E+00 -0.43049902107E+02  0.43049902402E+02  0.50400000000E-02 0. -1.
    5000001    1    1    2    0    0  0.90633116382E+02 -0.77036280431E+02  0.49213544841E+03  0.54401033985E+03  0.19900000000E+03 0.  0.
   -5000001    1    1    2    0    0 -0.90633116382E+02  0.77036280431E+02  0.76813351578E+03  0.80235842886E+03  0.19900000000E+03 0.  0.
<mgrwt>
<rscale>  0 0.47374149E+03</rscale>
<asrwt>0</asrwt>
<pdfrwt beam="1">  1        1 0.18618843E+00 0.47374149E+03</pdfrwt>
<pdfrwt beam="2">  1       -1 0.61499855E-02 0.47374149E+03</pdfrwt>
<totfact> 0.14434045E+03</totfact>
</mgrwt>
</event>
<event>
 4    1  0.6282309E-006  0.5916488E+03  0.7818608E-02  0.9922885E-01
         -1   -1    0    0    0  501 -0.00000000000E+00  0.00000000000E+00  0.56611036976E+03  0.56611036978E+03  0.50400000000E-02 0. -1.
          1   -1    0    0  501    0  0.00000000000E+00 -0.00000000000E+00 -0.15458484150E+03  0.15458484159E+03  0.50400000000E-02 0.  1.
    5000001    1    1    2    0    0 -0.10664291024E+03  0.16059090583E+03  0.33205315300E+03  0.43246091818E+03  0.19900000000E+03 0.  0.
   -5000001    1    1    2    0    0  0.10664291024E+03 -0.16059090583E+03  0.79472375254E+02  0.28823429318E+03  0.19900000000E+03 0.  0.
<mgrwt>
<rscale>  0 0.59164882E+03</rscale>
<asrwt>0</asrwt>
<pdfrwt beam="1">  1        1 0.22083549E-01 0.59164882E+03</pdfrwt>
<pdfrwt beam="2">  1       -1 0.80872909E-01 0.59164882E+03</pdfrwt>
<totfact> 0.35543585E+02</totfact>
</mgrwt>
</event>
<event>
 4    1  0.6282309E-006  0.8005587E+03  0.7818608E-02  0.9559209E-01
         -1   -1    0    0    0  501 -0.00000000000E+00  0.00000000000E+00  0.40592117767E+03  0.40592117770E+03  0.50400000000E-02 0. -1.
          1   -1    0    0  501    0  0.00000000000E+00 -0.00000000000E+00 -0.39471597403E+03  0.39471597406E+03  0.50400000000E-02 0.  1.
    5000001    1    1    2    0    0  0.13676913930E+03  0.22630007635E+03  0.23080247876E+03  0.40347032880E+03  0.19900000000E+03 0.  0.
   -5000001    1    1    2    0    0 -0.13676913930E+03 -0.22630007635E+03 -0.21959727512E+03  0.39716682296E+03  0.19900000000E+03 0.  0.
<mgrwt>
<rscale>  0 0.80055874E+03</rscale>
<asrwt>0</asrwt>
<pdfrwt beam="1">  1        1 0.56387996E-01 0.80055874E+03</pdfrwt>
<pdfrwt beam="2">  1       -1 0.57988740E-01 0.80055874E+03</pdfrwt>
<totfact> 0.20524129E+02</totfact>
</mgrwt>
</event>
<event>
 4    1  0.6282309E-006  0.7588579E+03  0.7818608E-02  0.9621555E-01
          1   -1    0    0  501    0  0.00000000000E+00  0.00000000000E+00  0.91155840026E+03  0.91155840028E+03  0.50400000000E-02 0.  1.
         -1   -1    0    0    0  501 -0.00000000000E+00 -0.00000000000E+00 -0.15793429256E+03  0.15793429264E+03  0.50400000000E-02 0. -1.
    5000001    1    1    2    0    0 -0.19335655752E+03  0.24444071404E+03  0.25699856844E+03  0.45031909264E+03  0.19900000000E+03 0.  0.
   -5000001    1    1    2    0    0  0.19335655752E+03 -0.24444071404E+03  0.49662553927E+03  0.61917360027E+03  0.19900000000E+03 0.  0.
<mgrwt>
<rscale>  0 0.75885791E+03</rscale>
<asrwt>0</asrwt>
<pdfrwt beam="1">  1        1 0.13022263E+00 0.75885791E+03</pdfrwt>
<pdfrwt beam="2">  1       -1 0.22562042E-01 0.75885791E+03</pdfrwt>
<totfact> 0.33950296E+02</totfact>
</mgrwt>
</event>
<event>
 4    1  0.6282309E-006  0.5582783E+03  0.7818608E-02  0.9995958E-01
          1   -1    0    0  501    0  0.00000000000E+00  0.00000000000E+00  0.15903604189E+04  0.15903604189E+04  0.50400000000E-02 0.  1.
         -1   -1    0    0    0  501 -0.00000000000E+00 -0.00000000000E+00 -0.48994348331E+02  0.48994348590E+02  0.50400000000E-02 0. -1.
    5000001    1    1    2    0    0  0.28340964246E+02  0.16234994774E+03  0.10808496535E+04  0.11113044989E+04  0.19900000000E+03 0.  0.
   -5000001    1    1    2    0    0 -0.28340964246E+02 -0.16234994774E+03  0.46051641710E+03  0.52805026863E+03  0.19900000000E+03 0.  0.
<mgrwt>
<rscale>  0 0.55827833E+03</rscale>
<asrwt>0</asrwt>
<pdfrwt beam="1">  1        1 0.22719436E+00 0.55827833E+03</pdfrwt>
<pdfrwt beam="2">  1       -1 0.69991922E-02 0.55827833E+03</pdfrwt>
<totfact> 0.76968081E+02</totfact>
</mgrwt>
</event>
<event>
 4    1  0.6282309E-006  0.1125233E+04  0.7818608E-02  0.9180941E-01
          1   -1    0    0  501    0  0.00000000000E+00  0.00000000000E+00  0.90422715859E+03  0.90422715861E+03  0.50400000000E-02 0.  1.
         -1   -1    0    0    0  501 -0.00000000000E+00 -0.00000000000E+00 -0.35006401646E+03  0.35006401649E+03  0.50400000000E-02 0. -1.
    5000001    1    1    2    0    0 -0.45143579752E+03 -0.26900113059E+03  0.30822333902E+03  0.64090445018E+03  0.19900000000E+03 0.  0.
   -5000001    1    1    2    0    0  0.45143579752E+03  0.26900113059E+03  0.24593980312E+03  0.61338672492E+03  0.19900000000E+03 0.  0.
<mgrwt>
<rscale>  0 0.11252331E+04</rscale>
<asrwt>0</asrwt>
<pdfrwt beam="1">  1        1 0.12917531E+00 0.11252331E+04</pdfrwt>
<pdfrwt beam="2">  1       -1 0.50009146E-01 0.11252331E+04</pdfrwt>
<totfact> 0.81604320E+01</totfact>
</mgrwt>
</event>
<event>
 4    1  0.6282309E-006  0.4451036E+03  0.7818608E-02  0.1029192E+00
          1   -1    0    0  501    0  0.00000000000E+00  0.00000000000E+00  0.63765074178E+02  0.63765074377E+02  0.50400000000E-02 0.  1.
         -1   -1    0    0    0  501 -0.00000000000E+00 -0.00000000000E+00 -0.77674660887E+03  0.77674660888E+03  0.50400000000E-02 0. -1.
    5000001    1    1    2    0    0  0.20742327732E+02 -0.91261479640E+02 -0.29191570764E+03  0.36547870279E+03  0.19900000000E+03 0.  0.
   -5000001    1    1    2    0    0 -0.20742327732E+02  0.91261479640E+02 -0.42106582704E+03  0.47503298047E+03  0.19900000000E+03 0.  0.
<mgrwt>
<rscale>  0 0.44510361E+03</rscale>
<asrwt>0</asrwt>
<pdfrwt beam="1">  1        1 0.91092967E-02 0.44510361E+03</pdfrwt>
<pdfrwt beam="2">  1       -1 0.11096380E+00 0.44510361E+03</pdfrwt>
<totfact> 0.57928506E+02</totfact>
</mgrwt>
</event>
<event>
 4    1  0.6282309E-006  0.4532620E+03  0.7818608E-02  0.1026754E+00
          1   -1    0    0  501    0  0.00000000000E+00  0.00000000000E+00  0.36539784673E+03  0.36539784677E+03  0.50400000000E-02 0. -1.
         -1   -1    0    0    0  501 -0.00000000000E+00 -0.00000000000E+00 -0.14056354390E+03  0.14056354399E+03  0.50400000000E-02 0.  1.
    5000001    1    1    2    0    0  0.47489136834E+02 -0.96856608571E+02  0.99977131474E+02  0.24745271782E+03  0.19900000000E+03 0.  0.
   -5000001    1    1    2    0    0 -0.47489136834E+02  0.96856608571E+02  0.12485717136E+03  0.25850867293E+03  0.19900000000E+03 0.  0.
<mgrwt>
<rscale>  0 0.45326203E+03</rscale>
<asrwt>0</asrwt>
<pdfrwt beam="1">  1        1 0.52199693E-01 0.45326203E+03</pdfrwt>
<pdfrwt beam="2">  1       -1 0.20080506E-01 0.45326203E+03</pdfrwt>
<totfact> 0.15084268E+03</totfact>
</mgrwt>
</event>
<event>
 4    1  0.6282309E-006  0.5785420E+03  0.7818608E-02  0.9950953E-01
         -1   -1    0    0    0  501 -0.00000000000E+00  0.00000000000E+00  0.13515104185E+03  0.13515104194E+03  0.50400000000E-02 0. -1.
          1   -1    0    0  501    0  0.00000000000E+00 -0.00000000000E+00 -0.61914217970E+03  0.61914217972E+03  0.50400000000E-02 0.  1.
    5000001    1    1    2    0    0  0.14789360316E+03 -0.10720716464E+03 -0.10706305636E+03  0.29056736232E+03  0.19900000000E+03 0.  0.
   -5000001    1    1    2    0    0 -0.14789360316E+03  0.10720716464E+03 -0.37692808149E+03  0.46372585935E+03  0.19900000000E+03 0.  0.
<mgrwt>
<rscale>  0 0.57854200E+03</rscale>
<asrwt>0</asrwt>
<pdfrwt beam="1">  1        1 0.88448881E-01 0.57854200E+03</pdfrwt>
<pdfrwt beam="2">  1       -1 0.19307292E-01 0.57854200E+03</pdfrwt>
<totfact> 0.79502778E+02</totfact>
</mgrwt>
</event>
<event>
 4    1  0.6282309E-006  0.5537747E+03  0.7818608E-02  0.1000624E+00
          1   -1    0    0  501    0  0.00000000000E+00  0.00000000000E+00  0.20825825216E+03  0.20825825222E+03  0.50400000000E-02 0.  1.
         -1   -1    0    0    0  501 -0.00000000000E+00 -0.00000000000E+00 -0.36813235053E+03  0.36813235056E+03  0.50400000000E-02 0. -1.
    5000001    1    1    2    0    0  0.60198757872E+02  0.15954650625E+03 -0.17295469725E+03  0.31399570921E+03  0.19900000000E+03 0.  0.
   -5000001    1    1    2    0    0 -0.60198757872E+02 -0.15954650625E+03  0.13080598882E+02  0.26239489357E+03  0.19900000000E+03 0.  0.
<mgrwt>
<rscale>  0 0.55377468E+03</rscale>
<asrwt>0</asrwt>
<pdfrwt beam="1">  1        1 0.29751179E-01 0.55377468E+03</pdfrwt>
<pdfrwt beam="2">  1       -1 0.52590336E-01 0.55377468E+03</pdfrwt>
<totfact> 0.57169432E+02</totfact>
</mgrwt>
</event>
<event>
 4    1  0.6282309E-006  0.6580643E+03  0.7818608E-02  0.9791764E-01
          1   -1    0    0  501    0  0.00000000000E+00  0.00000000000E+00  0.24005128687E+03  0.24005128693E+03  0.50400000000E-02 0. -1.
         -1   -1    0    0    0  501 -0.00000000000E+00 -0.00000000000E+00 -0.45099595208E+03  0.45099595211E+03  0.50400000000E-02 0.  1.
    5000001    1    1    2    0    0  0.69740431024E+02 -0.16800107125E+03 -0.30353383956E+03  0.40598260975E+03  0.19900000000E+03 0.  0.
   -5000001    1    1    2    0    0 -0.69740431024E+02  0.16800107125E+03  0.92589174356E+02  0.28506462928E+03  0.19900000000E+03 0.  0.
<mgrwt>
<rscale>  0 0.65806431E+03</rscale>
<asrwt>0</asrwt>
<pdfrwt beam="1">  1        1 0.34293041E-01 0.65806431E+03</pdfrwt>
<pdfrwt beam="2">  1       -1 0.64427993E-01 0.65806431E+03</pdfrwt>
<totfact> 0.31950411E+02</totfact>
</mgrwt>
</event>
<event>
 4    1  0.6282309E-006  0.7348875E+03  0.7818608E-02  0.9659362E-01
          1   -1    0    0  501    0  0.00000000000E+00  0.00000000000E+00  0.22106324701E+03  0.22106324707E+03  0.50400000000E-02 0.  1.
         -1   -1    0    0    0  501 -0.00000000000E+00 -0.00000000000E+00 -0.61075234849E+03  0.61075234851E+03  0.50400000000E-02 0. -1.
    5000001    1    1    2    0    0  0.60799057639E+02 -0.20622647713E+03  0.56191360690E+02  0.29830245439E+03  0.19900000000E+03 0.  0.
   -5000001    1    1    2    0    0 -0.60799057639E+02  0.20622647713E+03 -0.44588046216E+03  0.53351314119E+03  0.19900000000E+03 0.  0.
<mgrwt>
<rscale>  0 0.73488747E+03</rscale>
<asrwt>0</asrwt>
<pdfrwt beam="1">  1        1 0.31580464E-01 0.73488747E+03</pdfrwt>
<pdfrwt beam="2">  1       -1 0.87250335E-01 0.73488747E+03</pdfrwt>
<totfact> 0.18841705E+02</totfact>
</mgrwt>
</event>
<event>
 4    1  0.6282309E-006  0.5483534E+03  0.7818608E-02  0.1001876E+00
          1   -1    0    0  501    0  0.00000000000E+00  0.00000000000E+00  0.83382489863E+03  0.83382489864E+03  0.50400000000E-02 0.  1.
         -1   -1    0    0    0  501 -0.00000000000E+00 -0.00000000000E+00 -0.90154258633E+02  0.90154258774E+02  0.50400000000E-02 0. -1.
    5000001    1    1    2    0    0 -0.92388183694E+02  0.74184723152E+02  0.61909485556E+03  0.66099802558E+03  0.19900000000E+03 0.  0.
   -5000001    1    1    2    0    0  0.92388183694E+02 -0.74184723152E+02  0.12457578443E+03  0.26298113184E+03  0.19900000000E+03 0.  0.
<mgrwt>
<rscale>  0 0.54835341E+03</rscale>
<asrwt>0</asrwt>
<pdfrwt beam="1">  1        1 0.11911784E+00 0.54835341E+03</pdfrwt>
<pdfrwt beam="2">  1       -1 0.12879180E-01 0.54835341E+03</pdfrwt>
<totfact> 0.98911522E+02</totfact>
</mgrwt>
</event>
<event>
 4    1  0.6282309E-006  0.4163757E+03  0.7818608E-02  0.1038252E+00
          1   -1    0    0  501    0  0.00000000000E+00  0.00000000000E+00  0.13223943889E+03  0.13223943899E+03  0.50400000000E-02 0. -1.
         -1   -1    0    0    0  501 -0.00000000000E+00 -0.00000000000E+00 -0.32775536502E+03  0.32775536506E+03  0.50400000000E-02 0.  1.
    5000001    1    1    2    0    0 -0.31908766651E+02 -0.41412448886E+02 -0.13283341208E+03  0.24490585064E+03  0.19900000000E+03 0.  0.
   -5000001    1    1    2    0    0  0.31908766651E+02  0.41412448886E+02 -0.62682514046E+02  0.21508895341E+03  0.19900000000E+03 0.  0.
<mgrwt>
<rscale>  0 0.41637572E+03</rscale>
<asrwt>0</asrwt>
<pdfrwt beam="1">  1        1 0.18891349E-01 0.41637572E+03</pdfrwt>
<pdfrwt beam="2">  1       -1 0.46822195E-01 0.41637572E+03</pdfrwt>
<totfact> 0.12831635E+03</totfact>
</mgrwt>
</event>
<event>
 4    1  0.6282309E-006  0.4604856E+03  0.7818608E-02  0.1024640E+00
          1   -1    0    0  501    0  0.00000000000E+00  0.00000000000E+00  0.75702245111E+03  0.75702245113E+03  0.50400000000E-02 0.  1.
         -1   -1    0    0    0  501 -0.00000000000E+00 -0.00000000000E+00 -0.70026650762E+02  0.70026650943E+02  0.50400000000E-02 0. -1.
    5000001    1    1    2    0    0  0.93504378273E+02  0.55154114629E+02  0.41591409155E+03  0.47367771393E+03  0.19900000000E+03 0.  0.
   -5000001    1    1    2    0    0 -0.93504378273E+02 -0.55154114629E+02  0.27108170880E+03  0.35337138815E+03  0.19900000000E+03 0.  0.
<mgrwt>
<rscale>  0 0.46048560E+03</rscale>
<asrwt>0</asrwt>
<pdfrwt beam="1">  1        1 0.10814606E+00 0.46048560E+03</pdfrwt>
<pdfrwt beam="2">  1       -1 0.10003807E-01 0.46048560E+03</pdfrwt>
<totfact> 0.17111967E+03</totfact>
</mgrwt>
</event>
<event>
 4    1  0.6282309E-006  0.7813883E+03  0.7818608E-02  0.9587354E-01
         -1   -1    0    0    0  501 -0.00000000000E+00  0.00000000000E+00  0.59673353716E+02  0.59673353929E+02  0.50400000000E-02 0. -1.
          1   -1    0    0  501    0  0.00000000000E+00 -0.00000000000E+00 -0.25579576486E+04  0.25579576486E+04  0.50400000000E-02 0.  1.
    5000001    1    1    2    0    0 -0.23143222974E+03  0.23945085309E+02 -0.20622043266E+04  0.20848074081E+04  0.19900000000E+03 0.  0.
   -5000001    1    1    2    0    0  0.23143222974E+03 -0.23945085309E+02 -0.43607996820E+03  0.53282359439E+03  0.19900000000E+03 0.  0.
<mgrwt>
<rscale>  0 0.78138828E+03</rscale>
<asrwt>0</asrwt>
<pdfrwt beam="1">  1        1 0.36542245E+00 0.78138828E+03</pdfrwt>
<pdfrwt beam="2">  1       -1 0.85247665E-02 0.78138828E+03</pdfrwt>
<totfact> 0.13894966E+02</totfact>
</mgrwt>
</event>
<event>
 4    1  0.6282309E-006  0.4679206E+03  0.7818608E-02  0.1022509E+00
          1   -1    0    0  501    0  0.00000000000E+00  0.00000000000E+00  0.10772640705E+04  0.10772640705E+04  0.50400000000E-02 0.  1.
         -1   -1    0    0    0  501 -0.00000000000E+00 -0.00000000000E+00 -0.50811527735E+02  0.50811527985E+02  0.50400000000E-02 0. -1.
    5000001    1    1    2    0    0 -0.60178613000E+02 -0.10697045694E+03  0.53372386004E+03  0.58268885599E+03  0.19900000000E+03 0.  0.
   -5000001    1    1    2    0    0  0.60178613000E+02  0.10697045694E+03  0.49272868271E+03  0.54538674249E+03  0.19900000000E+03 0.  0.
<mgrwt>
<rscale>  0 0.46792065E+03</rscale>
<asrwt>0</asrwt>
<pdfrwt beam="1">  1        1 0.15389487E+00 0.46792065E+03</pdfrwt>
<pdfrwt beam="2">  1       -1 0.72587893E-02 0.46792065E+03</pdfrwt>
<totfact> 0.15959868E+03</totfact>
</mgrwt>
</event>
<event>
 4    1  0.6282309E-006  0.7972055E+03  0.7818608E-02  0.9564071E-01
         -1   -1    0    0    0  501 -0.00000000000E+00  0.00000000000E+00  0.83834757891E+02  0.83834758043E+02  0.50400000000E-02 0. -1.
          1   -1    0    0  501    0  0.00000000000E+00 -0.00000000000E+00 -0.18952061814E+04  0.18952061814E+04  0.50400000000E-02 0.  1.
    5000001    1    1    2    0    0 -0.24879140042E+03  0.15626668388E+03 -0.45494963100E+03  0.57697192666E+03  0.19900000000E+03 0.  0.
   -5000001    1    1    2    0    0  0.24879140042E+03 -0.15626668388E+03 -0.13564217925E+04  0.14020690128E+04  0.19900000000E+03 0.  0.
<mgrwt>
<rscale>  0 0.79720550E+03</rscale>
<asrwt>0</asrwt>
<pdfrwt beam="1">  1        1 0.27074371E+00 0.79720550E+03</pdfrwt>
<pdfrwt beam="2">  1       -1 0.11976395E-01 0.79720550E+03</pdfrwt>
<totfact> 0.20950292E+02</totfact>
</mgrwt>
</event>
<event>
 4    1  0.6282309E-006  0.5475309E+03  0.7818608E-02  0.1002067E+00
         -1   -1    0    0    0  501 -0.00000000000E+00  0.00000000000E+00  0.53400356479E+03  0.53400356481E+03  0.50400000000E-02 0. -1.
          1   -1    0    0  501    0  0.00000000000E+00 -0.00000000000E+00 -0.14035024723E+03  0.14035024732E+03  0.50400000000E-02 0.  1.
    5000001    1    1    2    0    0  0.16889660912E+03 -0.79401846154E+02  0.22479881732E+03  0.35350562374E+03  0.19900000000E+03 0.  0.
   -5000001    1    1    2    0    0 -0.16889660912E+03  0.79401846154E+02  0.16885450024E+03  0.32084818840E+03  0.19900000000E+03 0.  0.
<mgrwt>
<rscale>  0 0.54753094E+03</rscale>
<asrwt>0</asrwt>
<pdfrwt beam="1">  1        1 0.20050035E-01 0.54753094E+03</pdfrwt>
<pdfrwt beam="2">  1       -1 0.76286224E-01 0.54753094E+03</pdfrwt>
<totfact> 0.45671006E+02</totfact>
</mgrwt>
</event>
<event>
 4    1  0.6282309E-006  0.5404081E+03  0.7818608E-02  0.1003739E+00
          1   -1    0    0  501    0  0.00000000000E+00  0.00000000000E+00  0.11322195976E+04  0.11322195976E+04  0.50400000000E-02 0. -1.
         -1   -1    0    0    0  501 -0.00000000000E+00 -0.00000000000E+00 -0.64484147115E+02  0.64484147312E+02  0.50400000000E-02 0.  1.
    5000001    1    1    2    0    0 -0.70941197054E+02 -0.16482659737E+03  0.45687779839E+03  0.52965911991E+03  0.19900000000E+03 0.  0.
   -5000001    1    1    2    0    0  0.70941197054E+02  0.16482659737E+03  0.61085765209E+03  0.66704462501E+03  0.19900000000E+03 0.  0.
<mgrwt>
<rscale>  0 0.54040805E+03</rscale>
<asrwt>0</asrwt>
<pdfrwt beam="1">  1        1 0.16174567E+00 0.54040805E+03</pdfrwt>
<pdfrwt beam="2">  1       -1 0.92120203E-02 0.54040805E+03</pdfrwt>
<totfact> 0.10062213E+03</totfact>
</mgrwt>
</event>
<event>
 4    1  0.6282309E-006  0.7034065E+03  0.7818608E-02  0.9711424E-01
         -1   -1    0    0    0  501 -0.00000000000E+00  0.00000000000E+00  0.16766832803E+03  0.16766832810E+03  0.50400000000E-02 0. -1.
          1   -1    0    0  501    0  0.00000000000E+00 -0.00000000000E+00 -0.73773727746E+03  0.73773727748E+03  0.50400000000E-02 0.  1.
    5000001    1    1    2    0    0 -0.64105720014E+02  0.22582535054E+03 -0.65883952695E+02  0.31471944253E+03  0.19900000000E+03 0.  0.
   -5000001    1    1    2    0    0  0.64105720014E+02 -0.22582535054E+03 -0.50418499674E+03  0.59068616305E+03  0.19900000000E+03 0.  0.
<mgrwt>
<rscale>  0 0.70340650E+03</rscale>
<asrwt>0</asrwt>
<pdfrwt beam="1">  1        1 0.10539104E+00 0.70340650E+03</pdfrwt>
<pdfrwt beam="2">  1       -1 0.23952619E-01 0.70340650E+03</pdfrwt>
<totfact> 0.42810563E+02</totfact>
</mgrwt>
</event>
<event>
 4    1  0.6282309E-006  0.6505306E+03  0.7818608E-02  0.9805784E-01
          1   -1    0    0  501    0  0.00000000000E+00  0.00000000000E+00  0.14804408932E+04  0.14804408932E+04  0.50400000000E-02 0.  1.
         -1   -1    0    0    0  501 -0.00000000000E+00 -0.00000000000E+00 -0.71463513578E+02  0.71463513755E+02  0.50400000000E-02 0. -1.
    5000001    1    1    2    0    0 -0.43347161025E+02  0.22664924579E+03  0.43303687817E+03  0.52950051449E+03  0.19900000000E+03 0.  0.
   -5000001    1    1    2    0    0  0.43347161025E+02 -0.22664924579E+03  0.97594050146E+03  0.10224038925E+04  0.19900000000E+03 0.  0.
<mgrwt>
<rscale>  0 0.65053058E+03</rscale>
<asrwt>0</asrwt>
<pdfrwt beam="1">  1        1 0.21149154E+00 0.65053058E+03</pdfrwt>
<pdfrwt beam="2">  1       -1 0.10209074E-01 0.65053058E+03</pdfrwt>
<totfact> 0.49874500E+02</totfact>
</mgrwt>
</event>
<event>
 4    1  0.6282309E-006  0.8829169E+03  0.7818608E-02  0.9447192E-01
          1   -1    0    0  501    0  0.00000000000E+00  0.00000000000E+00  0.74247274074E+03  0.74247274076E+03  0.50400000000E-02 0.  1.
         -1   -1    0    0    0  501 -0.00000000000E+00 -0.00000000000E+00 -0.26248175964E+03  0.26248175969E+03  0.50400000000E-02 0. -1.
    5000001    1    1    2    0    0 -0.33177591212E+02  0.37744667745E+03  0.36320655481E+03  0.56132588426E+03  0.19900000000E+03 0.  0.
   -5000001    1    1    2    0    0  0.33177591212E+02 -0.37744667745E+03  0.11678442629E+03  0.44362861619E+03  0.19900000000E+03 0.  0.
<mgrwt>
<rscale>  0 0.88291687E+03</rscale>
<asrwt>0</asrwt>
<pdfrwt beam="1">  1        1 0.10606753E+00 0.88291687E+03</pdfrwt>
<pdfrwt beam="2">  1       -1 0.37497395E-01 0.88291687E+03</pdfrwt>
<totfact> 0.19230641E+02</totfact>
</mgrwt>
</event>
<event>
 4    1  0.6282309E-006  0.6861722E+03  0.7818608E-02  0.9741176E-01
         -1   -1    0    0    0  501 -0.00000000000E+00  0.00000000000E+00  0.74725960734E+03  0.74725960736E+03  0.50400000000E-02 0. -1.
          1   -1    0    0  501    0  0.00000000000E+00 -0.00000000000E+00 -0.15751963857E+03  0.15751963865E+03  0.50400000000E-02 0.  1.
    5000001    1    1    2    0    0 -0.11784346952E+03 -0.23846384548E+03  0.18178625829E+03  0.37868104338E+03  0.19900000000E+03 0.  0.
   -5000001    1    1    2    0    0  0.11784346952E+03  0.23846384548E+03  0.40795371049E+03  0.52609820263E+03  0.19900000000E+03 0.  0.
<mgrwt>
<rscale>  0 0.68617217E+03</rscale>
<asrwt>0</asrwt>
<pdfrwt beam="1">  1        1 0.22502805E-01 0.68617217E+03</pdfrwt>
<pdfrwt beam="2">  1       -1 0.10675137E+00 0.68617217E+03</pdfrwt>
<totfact> 0.18659836E+02</totfact>
</mgrwt>
</event>
<event>
 4    1  0.6282309E-006  0.4784943E+03  0.7818608E-02  0.1019550E+00
         -1   -1    0    0    0  501 -0.00000000000E+00  0.00000000000E+00  0.13759798552E+02  0.13759799475E+02  0.50400000000E-02 0. -1.
          1   -1    0    0  501    0  0.00000000000E+00 -0.00000000000E+00 -0.41598869899E+04  0.41598869899E+04  0.50400000000E-02 0.  1.
    5000001    1    1    2    0    0  0.95134819720E+02  0.91330505568E+02 -0.22099572149E+04  0.22228143842E+04  0.19900000000E+03 0.  0.
   -5000001    1    1    2    0    0 -0.95134819720E+02 -0.91330505568E+02 -0.19361699765E+04  0.19508324052E+04  0.19900000000E+03 0.  0.
<mgrwt>
<rscale>  0 0.47849434E+03</rscale>
<asrwt>0</asrwt>
<pdfrwt beam="1">  1        1 0.59426877E+00 0.47849434E+03</pdfrwt>
<pdfrwt beam="2">  1       -1 0.19656882E-02 0.47849434E+03</pdfrwt>
<totfact> 0.10917859E+02</totfact>
</mgrwt>
</event>
<event>
 4    1  0.6282309E-006  0.7061602E+03  0.7818608E-02  0.9706755E-01
          1   -1    0    0  501    0  0.00000000000E+00  0.00000000000E+00  0.22095528550E+03  0.22095528555E+03  0.50400000000E-02 0.  1.
         -1   -1    0    0    0  501 -0.00000000000E+00 -0.00000000000E+00 -0.56421171753E+03  0.56421171756E+03  0.50400000000E-02 0. -1.
    5000001    1    1    2    0    0 -0.15540913439E+03 -0.19510002243E+03 -0.35590460799E+01  0.31910763797E+03  0.19900000000E+03 0.  0.
   -5000001    1    1    2    0    0  0.15540913439E+03  0.19510002243E+03 -0.33969738596E+03  0.46605936514E+03  0.19900000000E+03 0.  0.
<mgrwt>
<rscale>  0 0.70616021E+03</rscale>
<asrwt>0</asrwt>
<pdfrwt beam="1">  1        1 0.31565041E-01 0.70616021E+03</pdfrwt>
<pdfrwt beam="2">  1       -1 0.80601673E-01 0.70616021E+03</pdfrwt>
<totfact> 0.22384911E+02</totfact>
</mgrwt>
</event>
<event>
 4    1  0.6282309E-006  0.8694040E+03  0.7818608E-02  0.9464657E-01
          1   -1    0    0  501    0  0.00000000000E+00  0.00000000000E+00  0.15290078120E+03  0.15290078129E+03  0.50400000000E-02 0.  1.
         -1   -1    0    0    0  501 -0.00000000000E+00 -0.00000000000E+00 -0.12358723426E+04  0.12358723426E+04  0.50400000000E-02 0. -1.
    5000001    1    1    2    0    0  0.32059767723E+03 -0.18235166966E+03 -0.72591180001E+03  0.83820280569E+03  0.19900000000E+03 0.  0.
   -5000001    1    1    2    0    0 -0.32059767723E+03  0.18235166966E+03 -0.35705976137E+03  0.55057031819E+03  0.19900000000E+03 0.  0.
<mgrwt>
<rscale>  0 0.86940404E+03</rscale>
<asrwt>0</asrwt>
<pdfrwt beam="1">  1        1 0.21842969E-01 0.86940404E+03</pdfrwt>
<pdfrwt beam="2">  1       -1 0.17655319E+00 0.86940404E+03</pdfrwt>
<totfact> 0.52051933E+01</totfact>
</mgrwt>
</event>
<event>
 4    1  0.6282309E-006  0.6043840E+03  0.7818608E-02  0.9896352E-01
          1   -1    0    0  501    0  0.00000000000E+00  0.00000000000E+00  0.11567861052E+04  0.11567861052E+04  0.50400000000E-02 0. -1.
         -1   -1    0    0    0  501 -0.00000000000E+00 -0.00000000000E+00 -0.78942862781E+02  0.78942862941E+02  0.50400000000E-02 0.  1.
    5000001    1    1    2    0    0  0.82175670078E+02  0.20286521779E+03  0.41268676838E+03  0.50775831469E+03  0.19900000000E+03 0.  0.
   -5000001    1    1    2    0    0 -0.82175670078E+02 -0.20286521779E+03  0.66515647401E+03  0.72797065343E+03  0.19900000000E+03 0.  0.
<mgrwt>
<rscale>  0 0.60438401E+03</rscale>
<asrwt>0</asrwt>
<pdfrwt beam="1">  1        1 0.16525516E+00 0.60438401E+03</pdfrwt>
<pdfrwt beam="2">  1       -1 0.11277551E-01 0.60438401E+03</pdfrwt>
<totfact> 0.70139344E+02</totfact>
</mgrwt>
</event>
<event>
 4    1  0.6282309E-006  0.1426948E+04  0.7818608E-02  0.8934540E-01
          1   -1    0    0  501    0  0.00000000000E+00  0.00000000000E+00  0.41781144152E+03  0.41781144155E+03  0.50400000000E-02 0.  1.
         -1   -1    0    0    0  501 -0.00000000000E+00 -0.00000000000E+00 -0.12183610172E+04  0.12183610172E+04  0.50400000000E-02 0. -1.
    5000001    1    1    2    0    0  0.25415571255E+03  0.62642985176E+03 -0.52813586495E+03  0.88064634062E+03  0.19900000000E+03 0.  0.
   -5000001    1    1    2    0    0 -0.25415571255E+03 -0.62642985176E+03 -0.27241371073E+03  0.75552611815E+03  0.19900000000E+03 0.  0.
<mgrwt>
<rscale>  0 0.14269480E+04</rscale>
<asrwt>0</asrwt>
<pdfrwt beam="1">  1        1 0.59687349E-01 0.14269480E+04</pdfrwt>
<pdfrwt beam="2">  1       -1 0.17405157E+00 0.14269480E+04</pdfrwt>
<totfact> 0.13997130E+01</totfact>
</mgrwt>
</event>
<event>
 4    1  0.6282309E-006  0.4910549E+03  0.7818608E-02  0.1016140E+00
          1   -1    0    0  501    0  0.00000000000E+00  0.00000000000E+00  0.34248965639E+02  0.34248966010E+02  0.50400000000E-02 0. -1.
         -1   -1    0    0    0  501 -0.00000000000E+00 -0.00000000000E+00 -0.17601618666E+04  0.17601618666E+04  0.50400000000E-02 0.  1.
    5000001    1    1    2    0    0 -0.50215874080E+02 -0.11727389117E+03 -0.11055665656E+04  0.11305543908E+04  0.19900000000E+03 0.  0.
   -5000001    1    1    2    0    0  0.50215874080E+02  0.11727389117E+03 -0.62034633536E+03  0.66385644182E+03  0.19900000000E+03 0.  0.
<mgrwt>
<rscale>  0 0.49105488E+03</rscale>
<asrwt>0</asrwt>
<pdfrwt beam="1">  1        1 0.48927105E-02 0.49105488E+03</pdfrwt>
<pdfrwt beam="2">  1       -1 0.25145164E+00 0.49105488E+03</pdfrwt>
<totfact> 0.13087522E+02</totfact>
</mgrwt>
</event>
<event>
 4    1  0.6282309E-006  0.5062075E+03  0.7818608E-02  0.1012171E+00
         -1   -1    0    0    0  501 -0.00000000000E+00  0.00000000000E+00  0.40545346173E+02  0.40545346486E+02  0.50400000000E-02 0. -1.
          1   -1    0    0  501    0  0.00000000000E+00 -0.00000000000E+00 -0.15799963810E+04  0.15799963811E+04  0.50400000000E-02 0.  1.
    5000001    1    1    2    0    0  0.30376091008E+02 -0.15299947591E+03 -0.80607924843E+03  0.84480548133E+03  0.19900000000E+03 0.  0.
   -5000001    1    1    2    0    0 -0.30376091008E+02  0.15299947591E+03 -0.73337178645E+03  0.77573624622E+03  0.19900000000E+03 0.  0.
<mgrwt>
<rscale>  0 0.50620747E+03</rscale>
<asrwt>0</asrwt>
<pdfrwt beam="1">  1        1 0.22571373E+00 0.50620747E+03</pdfrwt>
<pdfrwt beam="2">  1       -1 0.57921933E-02 0.50620747E+03</pdfrwt>
<totfact> 0.10484265E+03</totfact>
</mgrwt>
</event>
<event>
 4    1  0.6282309E-006  0.9153422E+03  0.7818608E-02  0.9406604E-01
          1   -1    0    0  501    0  0.00000000000E+00  0.00000000000E+00  0.22840353901E+03  0.22840353906E+03  0.50400000000E-02 0. -1.
         -1   -1    0    0    0  501 -0.00000000000E+00 -0.00000000000E+00 -0.91707359788E+03  0.91707359789E+03  0.50400000000E-02 0.  1.
    5000001    1    1    2    0    0 -0.19642895230E+03  0.25136680393E+03 -0.17783465116E+02  0.37641314410E+03  0.19900000000E+03 0.  0.
   -5000001    1    1    2    0    0  0.19642895230E+03 -0.25136680393E+03 -0.67088659375E+03  0.76906399285E+03  0.19900000000E+03 0.  0.
<mgrwt>
<rscale>  0 0.91534224E+03</rscale>
<asrwt>0</asrwt>
<pdfrwt beam="1">  1        1 0.32629077E-01 0.91534224E+03</pdfrwt>
<pdfrwt beam="2">  1       -1 0.13101051E+00 0.91534224E+03</pdfrwt>
<totfact> 0.69025888E+01</totfact>
</mgrwt>
</event>
<event>
 4    1  0.6282309E-006  0.7152273E+03  0.7818608E-02  0.9691540E-01
         -1   -1    0    0    0  501 -0.00000000000E+00  0.00000000000E+00  0.53325437522E+03  0.53325437525E+03  0.50400000000E-02 0. -1.
          1   -1    0    0  501    0  0.00000000000E+00 -0.00000000000E+00 -0.23982463961E+03  0.23982463966E+03  0.50400000000E-02 0.  1.
    5000001    1    1    2    0    0  0.13323869199E+03 -0.20930634468E+03 -0.29985461791E+02  0.31947116127E+03  0.19900000000E+03 0.  0.
   -5000001    1    1    2    0    0 -0.13323869199E+03  0.20930634468E+03  0.32341519741E+03  0.45360785364E+03  0.19900000000E+03 0.  0.
<mgrwt>
<rscale>  0 0.71522734E+03</rscale>
<asrwt>0</asrwt>
<pdfrwt beam="1">  1        1 0.34260663E-01 0.71522734E+03</pdfrwt>
<pdfrwt beam="2">  1       -1 0.76179195E-01 0.71522734E+03</pdfrwt>
<totfact> 0.22665774E+02</totfact>
</mgrwt>
</event>
<event>
 4    1  0.6282309E-006  0.7238653E+03  0.7818608E-02  0.9677268E-01
         -1   -1    0    0    0  501 -0.00000000000E+00  0.00000000000E+00  0.32073401239E+03  0.32073401243E+03  0.50400000000E-02 0. -1.
          1   -1    0    0  501    0  0.00000000000E+00 -0.00000000000E+00 -0.40842332121E+03  0.40842332124E+03  0.50400000000E-02 0.  1.
    5000001    1    1    2    0    0 -0.19607601294E+03 -0.21819498024E+03 -0.11745004784E+03  0.37343053704E+03  0.19900000000E+03 0.  0.
   -5000001    1    1    2    0    0  0.19607601294E+03  0.21819498024E+03  0.29760739022E+02  0.35572679663E+03  0.19900000000E+03 0.  0.
<mgrwt>
<rscale>  0 0.72386532E+03</rscale>
<asrwt>0</asrwt>
<pdfrwt beam="1">  1        1 0.58346188E-01 0.72386532E+03</pdfrwt>
<pdfrwt beam="2">  1       -1 0.45819145E-01 0.72386532E+03</pdfrwt>
<totfact> 0.30843995E+02</totfact>
</mgrwt>
</event>
<event>
 4    1  0.6282309E-006  0.6714989E+03  0.7818608E-02  0.9767254E-01
         -1   -1    0    0    0  501 -0.00000000000E+00  0.00000000000E+00  0.19282703446E+03  0.19282703453E+03  0.50400000000E-02 0. -1.
          1   -1    0    0  501    0  0.00000000000E+00 -0.00000000000E+00 -0.58460525976E+03  0.58460525978E+03  0.50400000000E-02 0.  1.
    5000001    1    1    2    0    0 -0.19739486906E+03 -0.98237541340E+02 -0.14629572235E+02  0.29737244870E+03  0.19900000000E+03 0.  0.
   -5000001    1    1    2    0    0  0.19739486906E+03  0.98237541340E+02 -0.37714865306E+03  0.48005984561E+03  0.19900000000E+03 0.  0.
<mgrwt>
<rscale>  0 0.67149892E+03</rscale>
<asrwt>0</asrwt>
<pdfrwt beam="1">  1        1 0.83515037E-01 0.67149892E+03</pdfrwt>
<pdfrwt beam="2">  1       -1 0.27546719E-01 0.67149892E+03</pdfrwt>
<totfact> 0.47228491E+02</totfact>
</mgrwt>
</event>
<event>
 4    1  0.6282309E-006  0.8320207E+03  0.7818608E-02  0.9514791E-01
         -1   -1    0    0    0  501 -0.00000000000E+00  0.00000000000E+00  0.17916286343E+03  0.17916286350E+03  0.50400000000E-02 0. -1.
          1   -1    0    0  501    0  0.00000000000E+00 -0.00000000000E+00 -0.96596248662E+03  0.96596248664E+03  0.50400000000E-02 0.  1.
    5000001    1    1    2    0    0 -0.23068074589E+03  0.10043453252E+03 -0.75796288854E+03  0.82304886991E+03  0.19900000000E+03 0.  0.
   -5000001    1    1    2    0    0  0.23068074589E+03 -0.10043453252E+03 -0.28836734653E+02  0.32207648023E+03  0.19900000000E+03 0.  0.
<mgrwt>
<rscale>  0 0.83202069E+03</rscale>
<asrwt>0</asrwt>
<pdfrwt beam="1">  1        1 0.13799464E+00 0.83202069E+03</pdfrwt>
<pdfrwt beam="2">  1       -1 0.25594695E-01 0.83202069E+03</pdfrwt>
<totfact> 0.24795324E+02</totfact>
</mgrwt>
</event>
<event>
 4    1  0.6282309E-006  0.1882684E+04  0.7818608E-02  0.8663524E-01
          1   -1    0    0  501    0  0.00000000000E+00  0.00000000000E+00  0.14916770878E+04  0.14916770878E+04  0.50400000000E-02 0.  1.
         -1   -1    0    0    0  501 -0.00000000000E+00 -0.00000000000E+00 -0.59404590801E+03  0.59404590803E+03  0.50400000000E-02 0. -1.
    5000001    1    1    2    0    0  0.77757541487E+03 -0.48937181692E+03  0.50326221615E+03  0.10662936552E+04  0.19900000000E+03 0.  0.
   -5000001    1    1    2    0    0 -0.77757541487E+03  0.48937181692E+03  0.39436896365E+03  0.10194293406E+04  0.19900000000E+03 0.  0.
<mgrwt>
<rscale>  0 0.18826839E+04</rscale>
<asrwt>0</asrwt>
<pdfrwt beam="1">  1        1 0.21309673E+00 0.18826839E+04</pdfrwt>
<pdfrwt beam="2">  1       -1 0.84863700E-01 0.18826839E+04</pdfrwt>
<totfact> 0.10169906E+01</totfact>
</mgrwt>
</event>
<event>
 4    1  0.6282309E-006  0.5509418E+03  0.7818608E-02  0.1001276E+00
         -1   -1    0    0    0  501 -0.00000000000E+00  0.00000000000E+00  0.30128428995E+03  0.30128429000E+03  0.50400000000E-02 0. -1.
          1   -1    0    0  501    0  0.00000000000E+00 -0.00000000000E+00 -0.25186913383E+03  0.25186913388E+03  0.50400000000E-02 0.  1.
    5000001    1    1    2    0    0 -0.13263732526E+01  0.15038264478E+03  0.14208073013E+03  0.28706207167E+03  0.19900000000E+03 0.  0.
   -5000001    1    1    2    0    0  0.13263732526E+01 -0.15038264478E+03 -0.92665574006E+02  0.26609135221E+03  0.19900000000E+03 0.  0.
<mgrwt>
<rscale>  0 0.55094179E+03</rscale>
<asrwt>0</asrwt>
<pdfrwt beam="1">  1        1 0.35981305E-01 0.55094179E+03</pdfrwt>
<pdfrwt beam="2">  1       -1 0.43040613E-01 0.55094179E+03</pdfrwt>
<totfact> 0.65044423E+02</totfact>
</mgrwt>
</event>
<event>
 4    1  0.6282309E-006  0.1402572E+04  0.7818608E-02  0.8951959E-01
          1   -1    0    0  501    0  0.00000000000E+00  0.00000000000E+00  0.29872504358E+03  0.29872504362E+03  0.50400000000E-02 0. -1.
         -1   -1    0    0    0  501 -0.00000000000E+00 -0.00000000000E+00 -0.16463362200E+04  0.16463362200E+04  0.50400000000E-02 0.  1.
    5000001    1    1    2    0    0  0.36270170302E+03  0.38655764635E+03 -0.12476410457E+04  0.13701052946E+04  0.19900000000E+03 0.  0.
   -5000001    1    1    2    0    0 -0.36270170302E+03 -0.38655764635E+03 -0.99970130736E+02  0.57495596907E+03  0.19900000000E+03 0.  0.
<mgrwt>
<rscale>  0 0.14025717E+04</rscale>
<asrwt>0</asrwt>
<pdfrwt beam="1">  1        1 0.42675007E-01 0.14025717E+04</pdfrwt>
<pdfrwt beam="2">  1       -1 0.23519088E+00 0.14025717E+04</pdfrwt>
<totfact> 0.82725069E+00</totfact>
</mgrwt>
</event>
<event>
 4    1  0.6282309E-006  0.5045581E+03  0.7818608E-02  0.1012596E+00
         -1   -1    0    0    0  501 -0.00000000000E+00  0.00000000000E+00  0.36955189674E+03  0.36955189677E+03  0.50400000000E-02 0. -1.
          1   -1    0    0  501    0  0.00000000000E+00 -0.00000000000E+00 -0.17222136116E+03  0.17222136124E+03  0.50400000000E-02 0.  1.
    5000001    1    1    2    0    0  0.46303248510E+02 -0.12609077265E+03  0.15486404976E+02  0.24059032090E+03  0.19900000000E+03 0.  0.
   -5000001    1    1    2    0    0 -0.46303248510E+02  0.12609077265E+03  0.18184413060E+03  0.30118293711E+03  0.19900000000E+03 0.  0.
<mgrwt>
<rscale>  0 0.50455815E+03</rscale>
<asrwt>0</asrwt>
<pdfrwt beam="1">  1        1 0.24603052E-01 0.50455815E+03</pdfrwt>
<pdfrwt beam="2">  1       -1 0.52793128E-01 0.50455815E+03</pdfrwt>
<totfact> 0.72627684E+02</totfact>
</mgrwt>
</event>
<event>
 4    1  0.6282309E-006  0.4877354E+03  0.7818608E-02  0.1017031E+00
          1   -1    0    0  501    0  0.00000000000E+00  0.00000000000E+00  0.28586590086E+03  0.28586590090E+03  0.50400000000E-02 0.  1.
         -1   -1    0    0    0  501 -0.00000000000E+00 -0.00000000000E+00 -0.20803972872E+03  0.20803972878E+03  0.50400000000E-02 0. -1.
    5000001    1    1    2    0    0 -0.13770544795E+03  0.23920926043E+02  0.20365720506E+02  0.24403025154E+03  0.19900000000E+03 0.  0.
   -5000001    1    1    2    0    0  0.13770544795E+03 -0.23920926043E+02  0.57460451630E+02  0.24987537814E+03  0.19900000000E+03 0.  0.
<mgrwt>
<rscale>  0 0.48773544E+03</rscale>
<asrwt>0</asrwt>
<pdfrwt beam="1">  1        1 0.40837986E-01 0.48773544E+03</pdfrwt>
<pdfrwt beam="2">  1       -1 0.29719961E-01 0.48773544E+03</pdfrwt>
<totfact> 0.10675491E+03</totfact>
</mgrwt>
</event>
<event>
 4    1  0.6282309E-006  0.5452599E+03  0.7818608E-02  0.1002597E+00
         -1   -1    0    0    0  501 -0.00000000000E+00  0.00000000000E+00  0.15106648132E+03  0.15106648141E+03  0.50400000000E-02 0. -1.
          1   -1    0    0  501    0  0.00000000000E+00 -0.00000000000E+00 -0.49201576089E+03  0.49201576092E+03  0.50400000000E-02 0.  1.
    5000001    1    1    2    0    0 -0.65263808572E+00  0.18253983514E+03 -0.21468065854E+03  0.34497826381E+03  0.19900000000E+03 0.  0.
   -5000001    1    1    2    0    0  0.65263808572E+00 -0.18253983514E+03 -0.12626862102E+03  0.29810397851E+03  0.19900000000E+03 0.  0.
<mgrwt>
<rscale>  0 0.54525990E+03</rscale>
<asrwt>0</asrwt>
<pdfrwt beam="1">  1        1 0.70287965E-01 0.54525990E+03</pdfrwt>
<pdfrwt beam="2">  1       -1 0.21580926E-01 0.54525990E+03</pdfrwt>
<totfact> 0.90634223E+02</totfact>
</mgrwt>
</event>
<event>
 4    1  0.6282309E-006  0.8697465E+03  0.7818608E-02  0.9464210E-01
          1   -1    0    0  501    0  0.00000000000E+00  0.00000000000E+00  0.12752668212E+04  0.12752668212E+04  0.50400000000E-02 0.  1.
         -1   -1    0    0    0  501 -0.00000000000E+00 -0.00000000000E+00 -0.14829426088E+03  0.14829426097E+03  0.50400000000E-02 0. -1.
    5000001    1    1    2    0    0  0.18703116170E+03 -0.23956095803E+03  0.95474800879E+03  0.10215257551E+04  0.19900000000E+03 0.  0.
   -5000001    1    1    2    0    0 -0.18703116170E+03  0.23956095803E+03  0.17222455151E+03  0.40203532706E+03  0.19900000000E+03 0.  0.
<mgrwt>
<rscale>  0 0.86974652E+03</rscale>
<asrwt>0</asrwt>
<pdfrwt beam="1">  1        1 0.18218098E+00 0.86974652E+03</pdfrwt>
<pdfrwt beam="2">  1       -1 0.21184893E-01 0.86974652E+03</pdfrwt>
<totfact> 0.20518243E+02</totfact>
</mgrwt>
</event>
<event>
 4    1  0.6282309E-006  0.4518064E+03  0.7818608E-02  0.1027185E+00
          1   -1    0    0  501    0  0.00000000000E+00  0.00000000000E+00  0.12325593145E+03  0.12325593155E+03  0.50400000000E-02 0.  1.
         -1   -1    0    0    0  501 -0.00000000000E+00 -0.00000000000E+00 -0.41403495663E+03  0.41403495666E+03  0.50400000000E-02 0. -1.
    5000001    1    1    2    0    0 -0.81590769723E+02 -0.18550936773E+01 -0.63250162213E+02  0.22419205627E+03  0.19900000000E+03 0.  0.
   -5000001    1    1    2    0    0  0.81590769723E+02  0.18550936773E+01 -0.22752886297E+03  0.31309883194E+03  0.19900000000E+03 0.  0.
<mgrwt>
<rscale>  0 0.45180644E+03</rscale>
<asrwt>0</asrwt>
<pdfrwt beam="1">  1        1 0.17607990E-01 0.45180644E+03</pdfrwt>
<pdfrwt beam="2">  1       -1 0.59147850E-01 0.45180644E+03</pdfrwt>
<totfact> 0.90479037E+02</totfact>
</mgrwt>
</event>
<event>
 4    1  0.6282309E-006  0.7253831E+03  0.7818608E-02  0.9674782E-01
          1   -1    0    0  501    0  0.00000000000E+00  0.00000000000E+00  0.91224181969E+03  0.91224181970E+03  0.50400000000E-02 0.  1.
         -1   -1    0    0    0  501 -0.00000000000E+00 -0.00000000000E+00 -0.14419989068E+03  0.14419989077E+03  0.50400000000E-02 0. -1.
    5000001    1    1    2    0    0  0.29228405545E+03 -0.25646432262E-01  0.50156718426E+03  0.61367793675E+03  0.19900000000E+03 0.  0.
   -5000001    1    1    2    0    0 -0.29228405545E+03  0.25646432262E-01  0.26647474475E+03  0.44276377372E+03  0.19900000000E+03 0.  0.
<mgrwt>
<rscale>  0 0.72538313E+03</rscale>
<asrwt>0</asrwt>
<pdfrwt beam="1">  1        1 0.13032026E+00 0.72538313E+03</pdfrwt>
<pdfrwt beam="2">  1       -1 0.20599984E-01 0.72538313E+03</pdfrwt>
<totfact> 0.39562449E+02</totfact>
</mgrwt>
</event>
<event>
 4    1  0.6282309E-006  0.5014140E+03  0.7818608E-02  0.1013411E+00
          1   -1    0    0  501    0  0.00000000000E+00  0.00000000000E+00  0.40690800029E+03  0.40690800032E+03  0.50400000000E-02 0.  1.
         -1   -1    0    0    0  501 -0.00000000000E+00 -0.00000000000E+00 -0.15446733465E+03  0.15446733473E+03  0.50400000000E-02 0. -1.
    5000001    1    1    2    0    0 -0.57419775328E+02 -0.12671331086E+03  0.19613568019E+03  0.31212737591E+03  0.19900000000E+03 0.  0.
   -5000001    1    1    2    0    0  0.57419775328E+02  0.12671331086E+03  0.56304985448E+02  0.24924795914E+03  0.19900000000E+03 0.  0.
<mgrwt>
<rscale>  0 0.50141398E+03</rscale>
<asrwt>0</asrwt>
<pdfrwt beam="1">  1        1 0.58129714E-01 0.50141398E+03</pdfrwt>
<pdfrwt beam="2">  1       -1 0.22066762E-01 0.50141398E+03</pdfrwt>
<totfact> 0.11224172E+03</totfact>
</mgrwt>
</event>
<event>
 4    1  0.6282309E-006  0.5299724E+03  0.7818608E-02  0.1006239E+00
         -1   -1    0    0    0  501 -0.00000000000E+00  0.00000000000E+00  0.40162466937E+03  0.40162466940E+03  0.50400000000E-02 0. -1.
          1   -1    0    0  501    0  0.00000000000E+00 -0.00000000000E+00 -0.17483406912E+03  0.17483406919E+03  0.50400000000E-02 0.  1.
    5000001    1    1    2    0    0  0.14570869261E+03  0.89303084871E+01  0.21832398724E+03  0.32951045039E+03  0.19900000000E+03 0.  0.
   -5000001    1    1    2    0    0 -0.14570869261E+03 -0.89303084871E+01  0.84666130189E+01  0.24694828821E+03  0.19900000000E+03 0.  0.
<mgrwt>
<rscale>  0 0.52997236E+03</rscale>
<asrwt>0</asrwt>
<pdfrwt beam="1">  1        1 0.24976296E-01 0.52997236E+03</pdfrwt>
<pdfrwt beam="2">  1       -1 0.57374952E-01 0.52997236E+03</pdfrwt>
<totfact> 0.60696746E+02</totfact>
</mgrwt>
</event>
<event>
 4    1  0.6282309E-006  0.1160287E+04  0.7818608E-02  0.9148346E-01
          1   -1    0    0  501    0  0.00000000000E+00  0.00000000000E+00  0.81215044432E+03  0.81215044434E+03  0.50400000000E-02 0.  1.
         -1   -1    0    0    0  501 -0.00000000000E+00 -0.00000000000E+00 -0.41441371519E+03  0.41441371522E+03  0.50400000000E-02 0. -1.
    5000001    1    1    2    0    0 -0.17306692502E+03  0.51631104058E+03  0.17679421153E+03  0.60612411633E+03  0.19900000000E+03 0.  0.
   -5000001    1    1    2    0    0  0.17306692502E+03 -0.51631104058E+03  0.22094251760E+03  0.62044004323E+03  0.19900000000E+03 0.  0.
<mgrwt>
<rscale>  0 0.11602867E+04</rscale>
<asrwt>0</asrwt>
<pdfrwt beam="1">  1        1 0.11602149E+00 0.11602867E+04</pdfrwt>
<pdfrwt beam="2">  1       -1 0.59201960E-01 0.11602867E+04</pdfrwt>
<totfact> 0.69769803E+01</totfact>
</mgrwt>
</event>
<event>
 4    1  0.6282309E-006  0.5998445E+03  0.7818608E-02  0.9905729E-01
          1   -1    0    0  501    0  0.00000000000E+00  0.00000000000E+00  0.26290318864E+03  0.26290318869E+03  0.50400000000E-02 0.  1.
         -1   -1    0    0    0  501 -0.00000000000E+00 -0.00000000000E+00 -0.34215386893E+03  0.34215386897E+03  0.50400000000E-02 0. -1.
    5000001    1    1    2    0    0  0.13187217415E+03 -0.89570521408E+02 -0.19891914750E+03  0.32339291251E+03  0.19900000000E+03 0.  0.
   -5000001    1    1    2    0    0 -0.13187217415E+03  0.89570521408E+02  0.11966846720E+03  0.28166414515E+03  0.19900000000E+03 0.  0.
<mgrwt>
<rscale>  0 0.59984446E+03</rscale>
<asrwt>0</asrwt>
<pdfrwt beam="1">  1        1 0.37557599E-01 0.59984446E+03</pdfrwt>
<pdfrwt beam="2">  1       -1 0.48879124E-01 0.59984446E+03</pdfrwt>
<totfact> 0.48578860E+02</totfact>
</mgrwt>
</event>
<event>
 4    1  0.6282309E-006  0.7524886E+03  0.7818608E-02  0.9631454E-01
         -1   -1    0    0    0  501 -0.00000000000E+00  0.00000000000E+00  0.55938391920E+02  0.55938392147E+02  0.50400000000E-02 0. -1.
          1   -1    0    0  501    0  0.00000000000E+00 -0.00000000000E+00 -0.25306369625E+04  0.25306369625E+04  0.50400000000E-02 0.  1.
    5000001    1    1    2    0    0 -0.66409730940E+02  0.30705170296E+03 -0.14338437980E+04  0.14812832402E+04  0.19900000000E+03 0.  0.
   -5000001    1    1    2    0    0  0.66409730940E+02 -0.30705170296E+03 -0.10408547726E+04  0.11052921145E+04  0.19900000000E+03 0.  0.
<mgrwt>
<rscale>  0 0.75248857E+03</rscale>
<asrwt>0</asrwt>
<pdfrwt beam="1">  1        1 0.36151949E+00 0.75248857E+03</pdfrwt>
<pdfrwt beam="2">  1       -1 0.79912005E-02 0.75248857E+03</pdfrwt>
<totfact> 0.16040811E+02</totfact>
</mgrwt>
</event>
<event>
 4    1  0.6282309E-006  0.5951224E+03  0.7818608E-02  0.9915578E-01
          1   -1    0    0  501    0  0.00000000000E+00  0.00000000000E+00  0.82094251583E+03  0.82094251585E+03  0.50400000000E-02 0.  1.
         -1   -1    0    0    0  501 -0.00000000000E+00 -0.00000000000E+00 -0.10785489092E+03  0.10785489104E+03  0.50400000000E-02 0. -1.
    5000001    1    1    2    0    0  0.16432935796E+02 -0.17977328506E+03  0.55612331963E+03  0.61762660406E+03  0.19900000000E+03 0.  0.
   -5000001    1    1    2    0    0 -0.16432935796E+02  0.17977328506E+03  0.15696430528E+03  0.31117080283E+03  0.19900000000E+03 0.  0.
<mgrwt>
<rscale>  0 0.59512239E+03</rscale>
<asrwt>0</asrwt>
<pdfrwt beam="1">  1        1 0.11727750E+00 0.59512239E+03</pdfrwt>
<pdfrwt beam="2">  1       -1 0.15407841E-01 0.59512239E+03</pdfrwt>
<totfact> 0.75833584E+02</totfact>
</mgrwt>
</event>
<event>
 4    1  0.6282309E-006  0.4768561E+03  0.7818608E-02  0.1020003E+00
         -1   -1    0    0    0  501 -0.00000000000E+00  0.00000000000E+00  0.18375061915E+03  0.18375061922E+03  0.50400000000E-02 0.  1.
          1   -1    0    0  501    0  0.00000000000E+00 -0.00000000000E+00 -0.30937541968E+03  0.30937541973E+03  0.50400000000E-02 0. -1.
    5000001    1    1    2    0    0 -0.19273076461E+02  0.11357215478E+03  0.24014201327E+01  0.22994967414E+03  0.19900000000E+03 0.  0.
   -5000001    1    1    2    0    0  0.19273076461E+02 -0.11357215478E+03 -0.12802622066E+03  0.26317636481E+03  0.19900000000E+03 0.  0.
<mgrwt>
<rscale>  0 0.47685606E+03</rscale>
<asrwt>0</asrwt>
<pdfrwt beam="1">  1        1 0.44196488E-01 0.47685606E+03</pdfrwt>
<pdfrwt beam="2">  1       -1 0.26250089E-01 0.47685606E+03</pdfrwt>
<totfact> 0.11933001E+03</totfact>
</mgrwt>
</event>
<event>
 4    1  0.6282309E-006  0.5858068E+03  0.7818608E-02  0.9935298E-01
          1   -1    0    0  501    0  0.00000000000E+00  0.00000000000E+00  0.12992199385E+03  0.12992199394E+03  0.50400000000E-02 0.  1.
         -1   -1    0    0    0  501 -0.00000000000E+00 -0.00000000000E+00 -0.66033778838E+03  0.66033778840E+03  0.50400000000E-02 0. -1.
    5000001    1    1    2    0    0 -0.21355319073E+03 -0.16985628215E+02 -0.28849251728E+03  0.41075833450E+03  0.19900000000E+03 0.  0.
   -5000001    1    1    2    0    0  0.21355319073E+03  0.16985628215E+02 -0.24192327725E+03  0.37950144784E+03  0.19900000000E+03 0.  0.
<mgrwt>
<rscale>  0 0.58580680E+03</rscale>
<asrwt>0</asrwt>
<pdfrwt beam="1">  1        1 0.18560285E-01 0.58580680E+03</pdfrwt>
<pdfrwt beam="2">  1       -1 0.94333968E-01 0.58580680E+03</pdfrwt>
<totfact> 0.32008225E+02</totfact>
</mgrwt>
</event>
<event>
 4    1  0.6282309E-006  0.6323574E+03  0.7818608E-02  0.9840459E-01
          1   -1    0    0  501    0  0.00000000000E+00  0.00000000000E+00  0.98550338430E+03  0.98550338431E+03  0.50400000000E-02 0.  1.
         -1   -1    0    0    0  501 -0.00000000000E+00 -0.00000000000E+00 -0.10143948785E+03  0.10143948798E+03  0.50400000000E-02 0. -1.
    5000001    1    1    2    0    0 -0.14359084236E+03  0.16791476162E+03  0.25726885051E+03  0.39319455568E+03  0.19900000000E+03 0.  0.
   -5000001    1    1    2    0    0  0.14359084236E+03 -0.16791476162E+03  0.62679504594E+03  0.69374831660E+03  0.19900000000E+03 0.  0.
<mgrwt>
<rscale>  0 0.63235736E+03</rscale>
<asrwt>0</asrwt>
<pdfrwt beam="1">  1        1 0.14078620E+00 0.63235736E+03</pdfrwt>
<pdfrwt beam="2">  1       -1 0.14491355E-01 0.63235736E+03</pdfrwt>
<totfact> 0.62233401E+02</totfact>
</mgrwt>
</event>
<event>
 4    1  0.6282309E-006  0.6474549E+03  0.7818608E-02  0.9811567E-01
         -1   -1    0    0    0  501 -0.00000000000E+00  0.00000000000E+00  0.43464606899E+03  0.43464606902E+03  0.50400000000E-02 0. -1.
          1   -1    0    0  501    0  0.00000000000E+00 -0.00000000000E+00 -0.24111448503E+03  0.24111448508E+03  0.50400000000E-02 0.  1.
    5000001    1    1    2    0    0 -0.48454785477E+02 -0.21652496361E+03 -0.35121295776E+02  0.30010903272E+03  0.19900000000E+03 0.  0.
   -5000001    1    1    2    0    0  0.48454785477E+02  0.21652496361E+03  0.22865287974E+03  0.37565152138E+03  0.19900000000E+03 0.  0.
<mgrwt>
<rscale>  0 0.64745490E+03</rscale>
<asrwt>0</asrwt>
<pdfrwt beam="1">  1        1 0.34444927E-01 0.64745490E+03</pdfrwt>
<pdfrwt beam="2">  1       -1 0.62092295E-01 0.64745490E+03</pdfrwt>
<totfact> 0.34203024E+02</totfact>
</mgrwt>
</event>
<event>
 4    1  0.6282309E-006  0.5380815E+03  0.7818608E-02  0.1004291E+00
         -1   -1    0    0    0  501 -0.00000000000E+00  0.00000000000E+00  0.33031588616E+03  0.33031588620E+03  0.50400000000E-02 0. -1.
          1   -1    0    0  501    0  0.00000000000E+00 -0.00000000000E+00 -0.21913239940E+03  0.21913239945E+03  0.50400000000E-02 0.  1.
    5000001    1    1    2    0    0 -0.12122303435E+03 -0.11392062902E+03  0.12857880100E+03  0.28949342279E+03  0.19900000000E+03 0.  0.
   -5000001    1    1    2    0    0  0.12122303435E+03  0.11392062902E+03 -0.17395314228E+02  0.25995486287E+03  0.19900000000E+03 0.  0.
<mgrwt>
<rscale>  0 0.53808145E+03</rscale>
<asrwt>0</asrwt>
<pdfrwt beam="1">  1        1 0.31304629E-01 0.53808145E+03</pdfrwt>
<pdfrwt beam="2">  1       -1 0.47187983E-01 0.53808145E+03</pdfrwt>
<totfact> 0.65662331E+02</totfact>
</mgrwt>
</event>
<event>
 4    1  0.6282309E-006  0.1096376E+04  0.7818608E-02  0.9208731E-01
          1   -1    0    0  501    0  0.00000000000E+00  0.00000000000E+00  0.20676475945E+04  0.20676475945E+04  0.50400000000E-02 0.  1.
         -1   -1    0    0    0  501 -0.00000000000E+00 -0.00000000000E+00 -0.14533910276E+03  0.14533910285E+03  0.50400000000E-02 0. -1.
    5000001    1    1    2    0    0  0.36543273554E+03 -0.31503318984E+03  0.12996418812E+04  0.14005202656E+04  0.19900000000E+03 0.  0.
   -5000001    1    1    2    0    0 -0.36543273554E+03  0.31503318984E+03  0.62266661053E+03  0.81246643178E+03  0.19900000000E+03 0.  0.
<mgrwt>
<rscale>  0 0.10963759E+04</rscale>
<asrwt>0</asrwt>
<pdfrwt beam="1">  1        1 0.29537823E+00 0.10963759E+04</pdfrwt>
<pdfrwt beam="2">  1       -1 0.20762729E-01 0.10963759E+04</pdfrwt>
<totfact> 0.64804077E+01</totfact>
</mgrwt>
</event>
<event>
 4    1  0.6282309E-006  0.7766036E+03  0.7818608E-02  0.9594514E-01
          1   -1    0    0  501    0  0.00000000000E+00  0.00000000000E+00  0.89699292702E+03  0.89699292703E+03  0.50400000000E-02 0.  1.
         -1   -1    0    0    0  501 -0.00000000000E+00 -0.00000000000E+00 -0.16809308331E+03  0.16809308338E+03  0.50400000000E-02 0. -1.
    5000001    1    1    2    0    0 -0.65554002108E+02  0.15959385556E+03 -0.26862420973E+02  0.26474537878E+03  0.19900000000E+03 0.  0.
   -5000001    1    1    2    0    0  0.65554002108E+02 -0.15959385556E+03  0.75576226469E+03  0.80034063164E+03  0.19900000000E+03 0.  0.
<mgrwt>
<rscale>  0 0.77660365E+03</rscale>
<asrwt>0</asrwt>
<pdfrwt beam="1">  1        1 0.12814185E+00 0.77660365E+03</pdfrwt>
<pdfrwt beam="2">  1       -1 0.24013297E-01 0.77660365E+03</pdfrwt>
<totfact> 0.31338379E+02</totfact>
</mgrwt>
</event>
<event>
 4    1  0.6282309E-006  0.4471079E+03  0.7818608E-02  0.1028588E+00
          1   -1    0    0  501    0  0.00000000000E+00  0.00000000000E+00  0.35130878488E+04  0.35130878488E+04  0.50400000000E-02 0.  1.
         -1   -1    0    0    0  501 -0.00000000000E+00 -0.00000000000E+00 -0.14225767282E+02  0.14225768174E+02  0.50400000000E-02 0. -1.
    5000001    1    1    2    0    0 -0.18321491633E+00 -0.10185799533E+03  0.17536572945E+04  0.17678489730E+04  0.19900000000E+03 0.  0.
   -5000001    1    1    2    0    0  0.18321491633E+00  0.10185799533E+03  0.17452047870E+04  0.17594646440E+04  0.19900000000E+03 0.  0.
<mgrwt>
<rscale>  0 0.44710791E+03</rscale>
<asrwt>0</asrwt>
<pdfrwt beam="1">  1        1 0.50186991E+00 0.44710791E+03</pdfrwt>
<pdfrwt beam="2">  1       -1 0.20322516E-02 0.44710791E+03</pdfrwt>
<totfact> 0.30559881E+02</totfact>
</mgrwt>
</event>
<event>
 4    1  0.6282309E-006  0.6037578E+03  0.7818608E-02  0.9897640E-01
          1   -1    0    0  501    0  0.00000000000E+00  0.00000000000E+00  0.12880798443E+04  0.12880798443E+04  0.50400000000E-02 0.  1.
         -1   -1    0    0    0  501 -0.00000000000E+00 -0.00000000000E+00 -0.70749402803E+02  0.70749402982E+02  0.50400000000E-02 0. -1.
    5000001    1    1    2    0    0 -0.21902264809E+02  0.15712509965E+03  0.97408348162E+03  0.10067808278E+04  0.19900000000E+03 0.  0.
   -5000001    1    1    2    0    0  0.21902264809E+02 -0.15712509965E+03  0.24324695986E+03  0.35204841943E+03  0.19900000000E+03 0.  0.
<mgrwt>
<rscale>  0 0.60375783E+03</rscale>
<asrwt>0</asrwt>
<pdfrwt beam="1">  1        1 0.18401139E+00 0.60375783E+03</pdfrwt>
<pdfrwt beam="2">  1       -1 0.10107058E-01 0.60375783E+03</pdfrwt>
<totfact> 0.67909959E+02</totfact>
</mgrwt>
</event>
<event>
 4    1  0.6282309E-006  0.9417532E+03  0.7818608E-02  0.9374842E-01
         -1   -1    0    0    0  501 -0.00000000000E+00  0.00000000000E+00  0.39017803655E+03  0.39017803658E+03  0.50400000000E-02 0. -1.
          1   -1    0    0  501    0  0.00000000000E+00 -0.00000000000E+00 -0.56826559880E+03  0.56826559882E+03  0.50400000000E-02 0.  1.
    5000001    1    1    2    0    0  0.12419919586E+03  0.37402461469E+03 -0.25566430980E+03  0.51018143043E+03  0.19900000000E+03 0.  0.
   -5000001    1    1    2    0    0 -0.12419919586E+03 -0.37402461469E+03  0.77576747548E+02  0.44826220497E+03  0.19900000000E+03 0.  0.
<mgrwt>
<rscale>  0 0.94175316E+03</rscale>
<asrwt>0</asrwt>
<pdfrwt beam="1">  1        1 0.81180799E-01 0.94175316E+03</pdfrwt>
<pdfrwt beam="2">  1       -1 0.55739720E-01 0.94175316E+03</pdfrwt>
<totfact> 0.13461937E+02</totfact>
</mgrwt>
</event>
<event>
 4    1  0.6282309E-006  0.7591105E+03  0.7818608E-02  0.9621165E-01
         -1   -1    0    0    0  501 -0.00000000000E+00  0.00000000000E+00  0.33889588658E+03  0.33889588662E+03  0.50400000000E-02 0. -1.
          1   -1    0    0  501    0  0.00000000000E+00 -0.00000000000E+00 -0.42509276314E+03  0.42509276317E+03  0.50400000000E-02 0.  1.
    5000001    1    1    2    0    0  0.29719669861E+03  0.86132354448E+02 -0.13706074915E+03  0.39259560505E+03  0.19900000000E+03 0.  0.
   -5000001    1    1    2    0    0 -0.29719669861E+03 -0.86132354448E+02  0.50863872590E+02  0.37139304474E+03  0.19900000000E+03 0.  0.
<mgrwt>
<rscale>  0 0.75911050E+03</rscale>
<asrwt>0</asrwt>
<pdfrwt beam="1">  1        1 0.60727537E-01 0.75911050E+03</pdfrwt>
<pdfrwt beam="2">  1       -1 0.48413698E-01 0.75911050E+03</pdfrwt>
<totfact> 0.26354824E+02</totfact>
</mgrwt>
</event>
<event>
 4    1  0.6282309E-006  0.4806869E+03  0.7818608E-02  0.1018947E+00
         -1   -1    0    0    0  501 -0.00000000000E+00  0.00000000000E+00  0.73461055644E+02  0.73461055817E+02  0.50400000000E-02 0. -1.
          1   -1    0    0  501    0  0.00000000000E+00 -0.00000000000E+00 -0.78633476376E+03  0.78633476378E+03  0.50400000000E-02 0.  1.
    5000001    1    1    2    0    0 -0.13185766635E+03  0.87000335535E+01 -0.40382331614E+03  0.46918696211E+03  0.19900000000E+03 0.  0.
   -5000001    1    1    2    0    0  0.13185766635E+03 -0.87000335535E+01 -0.30905039198E+03  0.39060885748E+03  0.19900000000E+03 0.  0.
<mgrwt>
<rscale>  0 0.48068693E+03</rscale>
<asrwt>0</asrwt>
<pdfrwt beam="1">  1        1 0.11233353E+00 0.48068693E+03</pdfrwt>
<pdfrwt beam="2">  1       -1 0.10494437E-01 0.48068693E+03</pdfrwt>
<totfact> 0.14990768E+03</totfact>
</mgrwt>
</event>
<event>
 4    1  0.6282309E-006  0.1321618E+04  0.7818608E-02  0.9012595E-01
         -1   -1    0    0    0  501 -0.00000000000E+00  0.00000000000E+00  0.41872049881E+03  0.41872049884E+03  0.50400000000E-02 0.  1.
          1   -1    0    0  501    0  0.00000000000E+00 -0.00000000000E+00 -0.10428639145E+04  0.10428639145E+04  0.50400000000E-02 0. -1.
    5000001    1    1    2    0    0  0.38809798635E+03  0.48884106687E+03 -0.21641336638E+03  0.68994302723E+03  0.19900000000E+03 0.  0.
   -5000001    1    1    2    0    0 -0.38809798635E+03 -0.48884106687E+03 -0.40773004931E+03  0.77164138613E+03  0.19900000000E+03 0.  0.
<mgrwt>
<rscale>  0 0.13216179E+04</rscale>
<asrwt>0</asrwt>
<pdfrwt beam="1">  1        1 0.14898056E+00 0.13216179E+04</pdfrwt>
<pdfrwt beam="2">  1       -1 0.59817215E-01 0.13216179E+04</pdfrwt>
<totfact> 0.44612586E+01</totfact>
</mgrwt>
</event>
<event>
 4    1  0.6282309E-006  0.8441928E+03  0.7818608E-02  0.9498164E-01
         -1   -1    0    0    0  501 -0.00000000000E+00  0.00000000000E+00  0.84393833858E+03  0.84393833860E+03  0.50400000000E-02 0. -1.
          1   -1    0    0  501    0  0.00000000000E+00 -0.00000000000E+00 -0.21111185800E+03  0.21111185806E+03  0.50400000000E-02 0.  1.
    5000001    1    1    2    0    0 -0.33041910312E+03 -0.13078152128E+03  0.45492856867E+03  0.61060756023E+03  0.19900000000E+03 0.  0.
   -5000001    1    1    2    0    0  0.33041910312E+03  0.13078152128E+03  0.17789791191E+03  0.44444263643E+03  0.19900000000E+03 0.  0.
<mgrwt>
<rscale>  0 0.84419285E+03</rscale>
<asrwt>0</asrwt>
<pdfrwt beam="1">  1        1 0.30158837E-01 0.84419285E+03</pdfrwt>
<pdfrwt beam="2">  1       -1 0.12056262E+00 0.84419285E+03</pdfrwt>
<totfact> 0.94441859E+01</totfact>
</mgrwt>
</event>
<event>
 4    1  0.6282309E-006  0.6330176E+03  0.7818608E-02  0.9839178E-01
         -1   -1    0    0    0  501 -0.00000000000E+00  0.00000000000E+00  0.61550596434E+02  0.61550596640E+02  0.50400000000E-02 0. -1.
          1   -1    0    0  501    0  0.00000000000E+00 -0.00000000000E+00 -0.16275688850E+04  0.16275688850E+04  0.50400000000E-02 0.  1.
    5000001    1    1    2    0    0  0.20818699441E+03 -0.18343527687E+02 -0.43613736612E+03  0.52296760108E+03  0.19900000000E+03 0.  0.
   -5000001    1    1    2    0    0 -0.20818699441E+03  0.18343527687E+02 -0.11298809224E+04  0.11661518806E+04  0.19900000000E+03 0.  0.
<mgrwt>
<rscale>  0 0.63301765E+03</rscale>
<asrwt>0</asrwt>
<pdfrwt beam="1">  1        1 0.23250981E+00 0.63301765E+03</pdfrwt>
<pdfrwt beam="2">  1       -1 0.87929434E-02 0.63301765E+03</pdfrwt>
<totfact> 0.50887892E+02</totfact>
</mgrwt>
</event>
<event>
 4    1  0.6282309E-006  0.5891459E+03  0.7818608E-02  0.9928184E-01
         -1   -1    0    0    0  501 -0.00000000000E+00  0.00000000000E+00  0.10807598778E+03  0.10807598790E+03  0.50400000000E-02 0. -1.
          1   -1    0    0  501    0  0.00000000000E+00 -0.00000000000E+00 -0.80289094674E+03  0.80289094676E+03  0.50400000000E-02 0.  1.
    5000001    1    1    2    0    0 -0.16773456633E+03 -0.90841763442E+02 -0.18682718450E+03  0.33300526662E+03  0.19900000000E+03 0.  0.
   -5000001    1    1    2    0    0  0.16773456633E+03  0.90841763442E+02 -0.50798777446E+03  0.57796166805E+03  0.19900000000E+03 0.  0.
<mgrwt>
<rscale>  0 0.58914593E+03</rscale>
<asrwt>0</asrwt>
<pdfrwt beam="1">  1        1 0.11469870E+00 0.58914593E+03</pdfrwt>
<pdfrwt beam="2">  1       -1 0.15439427E-01 0.58914593E+03</pdfrwt>
<totfact> 0.78234329E+02</totfact>
</mgrwt>
</event>
<event>
 4    1  0.6282309E-006  0.6514454E+03  0.7818608E-02  0.9804071E-01
         -1   -1    0    0    0  501 -0.00000000000E+00  0.00000000000E+00  0.43361246575E+02  0.43361246868E+02  0.50400000000E-02 0.  1.
          1   -1    0    0  501    0  0.00000000000E+00 -0.00000000000E+00 -0.24467765568E+04  0.24467765568E+04  0.50400000000E-02 0. -1.
    5000001    1    1    2    0    0 -0.25149011490E+03 -0.43042487720E+02 -0.10589724874E+04  0.11073046837E+04  0.19900000000E+03 0.  0.
   -5000001    1    1    2    0    0  0.25149011490E+03  0.43042487720E+02 -0.13444428229E+04  0.13828331199E+04  0.19900000000E+03 0.  0.
<mgrwt>
<rscale>  0 0.65144541E+03</rscale>
<asrwt>0</asrwt>
<pdfrwt beam="1">  1        1 0.34953942E+00 0.65144541E+03</pdfrwt>
<pdfrwt beam="2">  1       -1 0.61944654E-02 0.65144541E+03</pdfrwt>
<totfact> 0.27145973E+02</totfact>
</mgrwt>
</event>
<event>
 4    1  0.6282309E-006  0.5113586E+03  0.7818608E-02  0.1010856E+00
          1   -1    0    0  501    0  0.00000000000E+00  0.00000000000E+00  0.20848812979E+03  0.20848812985E+03  0.50400000000E-02 0.  1.
         -1   -1    0    0    0  501 -0.00000000000E+00 -0.00000000000E+00 -0.31355212731E+03  0.31355212735E+03  0.50400000000E-02 0. -1.
    5000001    1    1    2    0    0  0.55438333632E+02 -0.13867607709E+03 -0.11263828425E+03  0.27311690953E+03  0.19900000000E+03 0.  0.
   -5000001    1    1    2    0    0 -0.55438333632E+02  0.13867607709E+03  0.75742867265E+01  0.24892334766E+03  0.19900000000E+03 0.  0.
<mgrwt>
<rscale>  0 0.51135857E+03</rscale>
<asrwt>0</asrwt>
<pdfrwt beam="1">  1        1 0.29784019E-01 0.51135857E+03</pdfrwt>
<pdfrwt beam="2">  1       -1 0.44793161E-01 0.51135857E+03</pdfrwt>
<totfact> 0.77118289E+02</totfact>
</mgrwt>
</event>
<event>
 4    1  0.6282309E-006  0.7467653E+03  0.7818608E-02  0.9640439E-01
          1   -1    0    0  501    0  0.00000000000E+00  0.00000000000E+00  0.89091293159E+03  0.89091293160E+03  0.50400000000E-02 0.  1.
         -1   -1    0    0    0  501 -0.00000000000E+00 -0.00000000000E+00 -0.15648509661E+03  0.15648509669E+03  0.50400000000E-02 0. -1.
    5000001    1    1    2    0    0  0.36823357774E+02 -0.28672918763E+03  0.18845231006E+03  0.39835268279E+03  0.19900000000E+03 0.  0.
   -5000001    1    1    2    0    0 -0.36823357774E+02  0.28672918763E+03  0.54597552492E+03  0.64904534551E+03  0.19900000000E+03 0.  0.
<mgrwt>
<rscale>  0 0.74676528E+03</rscale>
<asrwt>0</asrwt>
<pdfrwt beam="1">  1        1 0.12727327E+00 0.74676528E+03</pdfrwt>
<pdfrwt beam="2">  1       -1 0.22355014E-01 0.74676528E+03</pdfrwt>
<totfact> 0.35812128E+02</totfact>
</mgrwt>
</event>
<event>
 4    1  0.6282309E-006  0.8070768E+03  0.7818608E-02  0.9549830E-01
          1   -1    0    0  501    0  0.00000000000E+00  0.00000000000E+00  0.18492242864E+03  0.18492242871E+03  0.50400000000E-02 0.  1.
         -1   -1    0    0    0  501 -0.00000000000E+00 -0.00000000000E+00 -0.88060299897E+03  0.88060299898E+03  0.50400000000E-02 0. -1.
    5000001    1    1    2    0    0  0.32619578201E+03  0.78794988756E+02 -0.21172287512E+03  0.44389178220E+03  0.19900000000E+03 0.  0.
   -5000001    1    1    2    0    0 -0.32619578201E+03 -0.78794988756E+02 -0.48395769521E+03  0.62163364549E+03  0.19900000000E+03 0.  0.
<mgrwt>
<rscale>  0 0.80707681E+03</rscale>
<asrwt>0</asrwt>
<pdfrwt beam="1">  1        1 0.26417490E-01 0.80707681E+03</pdfrwt>
<pdfrwt beam="2">  1       -1 0.12580043E+00 0.80707681E+03</pdfrwt>
<totfact> 0.10127420E+02</totfact>
</mgrwt>
</event>
<event>
 4    1  0.6282309E-006  0.5459213E+03  0.7818608E-02  0.1002442E+00
          1   -1    0    0  501    0  0.00000000000E+00  0.00000000000E+00  0.22790074941E+04  0.22790074942E+04  0.50400000000E-02 0.  1.
         -1   -1    0    0    0  501 -0.00000000000E+00 -0.00000000000E+00 -0.32692971760E+02  0.32692972148E+02  0.50400000000E-02 0. -1.
    5000001    1    1    2    0    0 -0.15300602823E+03  0.10205266398E+03  0.98393723226E+03  0.10205680124E+04  0.19900000000E+03 0.  0.
   -5000001    1    1    2    0    0  0.15300602823E+03 -0.10205266398E+03  0.12623772901E+04  0.12911324539E+04  0.19900000000E+03 0.  0.
<mgrwt>
<rscale>  0 0.54592134E+03</rscale>
<asrwt>0</asrwt>
<pdfrwt beam="1">  1        1 0.32557243E+00 0.54592134E+03</pdfrwt>
<pdfrwt beam="2">  1       -1 0.46704256E-02 0.54592134E+03</pdfrwt>
<totfact> 0.53664402E+02</totfact>
</mgrwt>
</event>
<event>
 4    1  0.6282309E-006  0.5966682E+03  0.7818608E-02  0.9912343E-01
         -1   -1    0    0    0  501 -0.00000000000E+00  0.00000000000E+00  0.11727139418E+03  0.11727139428E+03  0.50400000000E-02 0. -1.
          1   -1    0    0  501    0  0.00000000000E+00 -0.00000000000E+00 -0.75895092229E+03  0.75895092231E+03  0.50400000000E-02 0.  1.
    5000001    1    1    2    0    0  0.69383869299E+02  0.18388345723E+03 -0.16840298137E+03  0.32647788792E+03  0.19900000000E+03 0.  0.
   -5000001    1    1    2    0    0 -0.69383869299E+02 -0.18388345723E+03 -0.47327654674E+03  0.54974442868E+03  0.19900000000E+03 0.  0.
<mgrwt>
<rscale>  0 0.59666819E+03</rscale>
<asrwt>0</asrwt>
<pdfrwt beam="1">  1        1 0.10842156E+00 0.59666819E+03</pdfrwt>
<pdfrwt beam="2">  1       -1 0.16753057E-01 0.59666819E+03</pdfrwt>
<totfact> 0.74603356E+02</totfact>
</mgrwt>
</event>
<event>
 4    1  0.6282309E-006  0.6588540E+03  0.7818608E-02  0.9790306E-01
         -1   -1    0    0    0  501 -0.00000000000E+00  0.00000000000E+00  0.63378679322E+03  0.63378679324E+03  0.50400000000E-02 0. -1.
          1   -1    0    0  501    0  0.00000000000E+00 -0.00000000000E+00 -0.17122813974E+03  0.17122813982E+03  0.50400000000E-02 0.  1.
    5000001    1    1    2    0    0 -0.33235307919E+02 -0.25901296368E+03  0.19829340148E+03  0.38355387381E+03  0.19900000000E+03 0.  0.
   -5000001    1    1    2    0    0  0.33235307919E+02  0.25901296368E+03  0.26426525201E+03  0.42146105925E+03  0.19900000000E+03 0.  0.
<mgrwt>
<rscale>  0 0.65885396E+03</rscale>
<asrwt>0</asrwt>
<pdfrwt beam="1">  1        1 0.24461163E-01 0.65885396E+03</pdfrwt>
<pdfrwt beam="2">  1       -1 0.90540968E-01 0.65885396E+03</pdfrwt>
<totfact> 0.24306851E+02</totfact>
</mgrwt>
</event>
<event>
 4    1  0.6282309E-006  0.7073304E+03  0.7818608E-02  0.9704778E-01
          1   -1    0    0  501    0  0.00000000000E+00  0.00000000000E+00  0.10170238421E+04  0.10170238421E+04  0.50400000000E-02 0.  1.
         -1   -1    0    0    0  501 -0.00000000000E+00 -0.00000000000E+00 -0.12298540489E+03  0.12298540500E+03  0.50400000000E-02 0. -1.
    5000001    1    1    2    0    0  0.27189650372E+03 -0.77503483721E+02  0.32701912397E+03  0.47589600352E+03  0.19900000000E+03 0.  0.
   -5000001    1    1    2    0    0 -0.27189650372E+03  0.77503483721E+02  0.56701931325E+03  0.66411324360E+03  0.19900000000E+03 0.  0.
<mgrwt>
<rscale>  0 0.70733044E+03</rscale>
<asrwt>0</asrwt>
<pdfrwt beam="1">  1        1 0.14528912E+00 0.70733044E+03</pdfrwt>
<pdfrwt beam="2">  1       -1 0.17569344E-01 0.70733044E+03</pdfrwt>
<totfact> 0.42940343E+02</totfact>
</mgrwt>
</event>
<event>
 4    1  0.6282309E-006  0.4912798E+03  0.7818608E-02  0.1016080E+00
         -1   -1    0    0    0  501 -0.00000000000E+00  0.00000000000E+00  0.16342987551E+03  0.16342987558E+03  0.50400000000E-02 0. -1.
          1   -1    0    0  501    0  0.00000000000E+00 -0.00000000000E+00 -0.36920401406E+03  0.36920401409E+03  0.50400000000E-02 0.  1.
    5000001    1    1    2    0    0 -0.85416283057E+02 -0.38623201621E+02 -0.22140628819E+03  0.31210485028E+03  0.19900000000E+03 0.  0.
   -5000001    1    1    2    0    0  0.85416283057E+02  0.38623201621E+02  0.15632149645E+02  0.22052903940E+03  0.19900000000E+03 0.  0.
<mgrwt>
<rscale>  0 0.49127982E+03</rscale>
<asrwt>0</asrwt>
<pdfrwt beam="1">  1        1 0.52743430E-01 0.49127982E+03</pdfrwt>
<pdfrwt beam="2">  1       -1 0.23347125E-01 0.49127982E+03</pdfrwt>
<totfact> 0.11587171E+03</totfact>
</mgrwt>
</event>
<event>
 4    1  0.6282309E-006  0.5284601E+03  0.7818608E-02  0.1006606E+00
         -1   -1    0    0    0  501 -0.00000000000E+00  0.00000000000E+00  0.17335547168E+03  0.17335547175E+03  0.50400000000E-02 0. -1.
          1   -1    0    0  501    0  0.00000000000E+00 -0.00000000000E+00 -0.40274188622E+03  0.40274188625E+03  0.50400000000E-02 0.  1.
    5000001    1    1    2    0    0 -0.28087374174E+01  0.17297093686E+03 -0.13324730011E+03  0.29543641785E+03  0.19900000000E+03 0.  0.
   -5000001    1    1    2    0    0  0.28087374174E+01 -0.17297093686E+03 -0.96139114422E+02  0.28066094015E+03  0.19900000000E+03 0.  0.
<mgrwt>
<rscale>  0 0.52846006E+03</rscale>
<asrwt>0</asrwt>
<pdfrwt beam="1">  1        1 0.57534555E-01 0.52846006E+03</pdfrwt>
<pdfrwt beam="2">  1       -1 0.24765067E-01 0.52846006E+03</pdfrwt>
<totfact> 0.93704829E+02</totfact>
</mgrwt>
</event>
<event>
 4    1  0.6282309E-006  0.4472269E+03  0.7818608E-02  0.1028552E+00
         -1   -1    0    0    0  501 -0.00000000000E+00  0.00000000000E+00  0.18059662230E+02  0.18059662933E+02  0.50400000000E-02 0. -1.
          1   -1    0    0  501    0  0.00000000000E+00 -0.00000000000E+00 -0.27687657863E+04  0.27687657863E+04  0.50400000000E-02 0.  1.
    5000001    1    1    2    0    0 -0.60232951204E+02  0.66299573931E+02 -0.16792443610E+04  0.16933653669E+04  0.19900000000E+03 0.  0.
   -5000001    1    1    2    0    0  0.60232951204E+02 -0.66299573931E+02 -0.10714617631E+04  0.10934600824E+04  0.19900000000E+03 0.  0.
<mgrwt>
<rscale>  0 0.44722690E+03</rscale>
<asrwt>0</asrwt>
<pdfrwt beam="1">  1        1 0.39553770E+00 0.44722690E+03</pdfrwt>
<pdfrwt beam="2">  1       -1 0.25799536E-02 0.44722690E+03</pdfrwt>
<totfact> 0.65631746E+02</totfact>
</mgrwt>
</event>
<event>
 4    1  0.6282309E-006  0.4560597E+03  0.7818608E-02  0.1025930E+00
         -1   -1    0    0    0  501 -0.00000000000E+00  0.00000000000E+00  0.98037796579E+02  0.98037796709E+02  0.50400000000E-02 0. -1.
          1   -1    0    0  501    0  0.00000000000E+00 -0.00000000000E+00 -0.53038339398E+03  0.53038339400E+03  0.50400000000E-02 0.  1.
    5000001    1    1    2    0    0 -0.83904247010E+02  0.29628844446E+02 -0.12395573287E+03  0.25076645469E+03  0.19900000000E+03 0.  0.
   -5000001    1    1    2    0    0  0.83904247010E+02 -0.29628844446E+02 -0.30838986453E+03  0.37765473602E+03  0.19900000000E+03 0.  0.
<mgrwt>
<rscale>  0 0.45605973E+03</rscale>
<asrwt>0</asrwt>
<pdfrwt beam="1">  1        1 0.75769055E-01 0.45605973E+03</pdfrwt>
<pdfrwt beam="2">  1       -1 0.14005400E-01 0.45605973E+03</pdfrwt>
<totfact> 0.16600856E+03</totfact>
</mgrwt>
</event>
<event>
 4    1  0.6282309E-006  0.6163973E+03  0.7818608E-02  0.9871959E-01
          1   -1    0    0  501    0  0.00000000000E+00  0.00000000000E+00  0.91515946242E+03  0.91515946244E+03  0.50400000000E-02 0.  1.
         -1   -1    0    0    0  501 -0.00000000000E+00 -0.00000000000E+00 -0.10379217643E+03  0.10379217655E+03  0.50400000000E-02 0. -1.
    5000001    1    1    2    0    0  0.94322156122E+02 -0.20937600200E+03  0.32057970338E+03  0.44170954887E+03  0.19900000000E+03 0.  0.
   -5000001    1    1    2    0    0 -0.94322156122E+02  0.20937600200E+03  0.49078758262E+03  0.57724209011E+03  0.19900000000E+03 0.  0.
<mgrwt>
<rscale>  0 0.61639725E+03</rscale>
<asrwt>0</asrwt>
<pdfrwt beam="1">  1        1 0.13073706E+00 0.61639725E+03</pdfrwt>
<pdfrwt beam="2">  1       -1 0.14827454E-01 0.61639725E+03</pdfrwt>
<totfact> 0.67853180E+02</totfact>
</mgrwt>
</event>
<event>
 4    1  0.6282309E-006  0.8806393E+03  0.7818608E-02  0.9450112E-01
         -1   -1    0    0    0  501 -0.00000000000E+00  0.00000000000E+00  0.28300505436E+03  0.28300505440E+03  0.50400000000E-02 0. -1.
          1   -1    0    0  501    0  0.00000000000E+00 -0.00000000000E+00 -0.68508097473E+03  0.68508097475E+03  0.50400000000E-02 0.  1.
    5000001    1    1    2    0    0  0.23897947030E+03 -0.31115569491E+03 -0.18043306905E+03  0.47548516918E+03  0.19900000000E+03 0.  0.
   -5000001    1    1    2    0    0 -0.23897947030E+03  0.31115569491E+03 -0.22164285133E+03  0.49260085998E+03  0.19900000000E+03 0.  0.
<mgrwt>
<rscale>  0 0.88063926E+03</rscale>
<asrwt>0</asrwt>
<pdfrwt beam="1">  1        1 0.97868710E-01 0.88063926E+03</pdfrwt>
<pdfrwt beam="2">  1       -1 0.40429294E-01 0.88063926E+03</pdfrwt>
<totfact> 0.18911722E+02</totfact>
</mgrwt>
</event>
<event>
 4    1  0.6282309E-006  0.6345483E+03  0.7818608E-02  0.9836213E-01
          1   -1    0    0  501    0  0.00000000000E+00  0.00000000000E+00  0.16982991242E+04  0.16982991242E+04  0.50400000000E-02 0. -1.
         -1   -1    0    0    0  501 -0.00000000000E+00 -0.00000000000E+00 -0.59272766729E+02  0.59272766943E+02  0.50400000000E-02 0.  1.
    5000001    1    1    2    0    0  0.18692504679E+03 -0.96235160994E+02  0.11791576950E+04  0.12141729898E+04  0.19900000000E+03 0.  0.
   -5000001    1    1    2    0    0 -0.18692504679E+03  0.96235160994E+02  0.45986866243E+03  0.54339890138E+03  0.19900000000E+03 0.  0.
<mgrwt>
<rscale>  0 0.63454831E+03</rscale>
<asrwt>0</asrwt>
<pdfrwt beam="1">  1        1 0.24261416E+00 0.63454831E+03</pdfrwt>
<pdfrwt beam="2">  1       -1 0.84675382E-02 0.63454831E+03</pdfrwt>
<totfact> 0.48717968E+02</totfact>
</mgrwt>
</event>
<event>
 4    1  0.6282309E-006  0.6090856E+03  0.7818608E-02  0.9886734E-01
          1   -1    0    0  501    0  0.00000000000E+00  0.00000000000E+00  0.82047199769E+03  0.82047199771E+03  0.50400000000E-02 0.  1.
         -1   -1    0    0    0  501 -0.00000000000E+00 -0.00000000000E+00 -0.11304018988E+03  0.11304018999E+03  0.50400000000E-02 0. -1.
    5000001    1    1    2    0    0  0.79257702963E+02  0.21259295431E+03  0.29112534749E+03  0.41932387919E+03  0.19900000000E+03 0.  0.
   -5000001    1    1    2    0    0 -0.79257702963E+02 -0.21259295431E+03  0.41630646032E+03  0.51418830851E+03  0.19900000000E+03 0.  0.
<mgrwt>
<rscale>  0 0.60908558E+03</rscale>
<asrwt>0</asrwt>
<pdfrwt beam="1">  1        1 0.11721029E+00 0.60908558E+03</pdfrwt>
<pdfrwt beam="2">  1       -1 0.16148598E-01 0.60908558E+03</pdfrwt>
<totfact> 0.70292746E+02</totfact>
</mgrwt>
</event>
<event>
 4    1  0.6282309E-006  0.4258437E+03  0.7818608E-02  0.1035181E+00
          1   -1    0    0  501    0  0.00000000000E+00  0.00000000000E+00  0.23581655889E+04  0.23581655889E+04  0.50400000000E-02 0.  1.
         -1   -1    0    0    0  501 -0.00000000000E+00 -0.00000000000E+00 -0.19224991109E+02  0.19224991770E+02  0.50400000000E-02 0. -1.
    5000001    1    1    2    0    0  0.93316324031E+01  0.70494859718E+02  0.13148487247E+04  0.13317224836E+04  0.19900000000E+03 0.  0.
   -5000001    1    1    2    0    0 -0.93316324031E+01 -0.70494859718E+02  0.10240918731E+04  0.10456680970E+04  0.19900000000E+03 0.  0.
<mgrwt>
<rscale>  0 0.42584370E+03</rscale>
<asrwt>0</asrwt>
<pdfrwt beam="1">  1        1 0.33688080E+00 0.42584370E+03</pdfrwt>
<pdfrwt beam="2">  1       -1 0.27464273E-02 0.42584370E+03</pdfrwt>
<totfact> 0.10772687E+03</totfact>
</mgrwt>
</event>
<event>
 4    1  0.6282309E-006  0.5202941E+03  0.7818608E-02  0.1008614E+00
          1   -1    0    0  501    0  0.00000000000E+00  0.00000000000E+00  0.15350380298E+04  0.15350380298E+04  0.50400000000E-02 0. -1.
         -1   -1    0    0    0  501 -0.00000000000E+00 -0.00000000000E+00 -0.44087832930E+02  0.44087833218E+02  0.50400000000E-02 0.  1.
    5000001    1    1    2    0    0  0.25190954926E+02 -0.15810858645E+03  0.89547576554E+03  0.93118781993E+03  0.19900000000E+03 0.  0.
   -5000001    1    1    2    0    0 -0.25190954926E+02  0.15810858645E+03  0.59547443132E+03  0.64793804309E+03  0.19900000000E+03 0.  0.
<mgrwt>
<rscale>  0 0.52029415E+03</rscale>
<asrwt>0</asrwt>
<pdfrwt beam="1">  1        1 0.21929112E+00 0.52029415E+03</pdfrwt>
<pdfrwt beam="2">  1       -1 0.62982626E-02 0.52029415E+03</pdfrwt>
<totfact> 0.98375076E+02</totfact>
</mgrwt>
</event>
<event>
 4    1  0.6282309E-006  0.6691423E+03  0.7818608E-02  0.9771509E-01
          1   -1    0    0  501    0  0.00000000000E+00  0.00000000000E+00  0.19223831649E+03  0.19223831656E+03  0.50400000000E-02 0.  1.
         -1   -1    0    0    0  501 -0.00000000000E+00 -0.00000000000E+00 -0.58228682659E+03  0.58228682661E+03  0.50400000000E-02 0. -1.
    5000001    1    1    2    0    0 -0.14035515281E+03  0.17871031738E+03 -0.28490945197E+02  0.30339690245E+03  0.19900000000E+03 0.  0.
   -5000001    1    1    2    0    0  0.14035515281E+03 -0.17871031738E+03 -0.36155756490E+03  0.47112824071E+03  0.19900000000E+03 0.  0.
<mgrwt>
<rscale>  0 0.66914225E+03</rscale>
<asrwt>0</asrwt>
<pdfrwt beam="1">  1        1 0.27462617E-01 0.66914225E+03</pdfrwt>
<pdfrwt beam="2">  1       -1 0.83183831E-01 0.66914225E+03</pdfrwt>
<totfact> 0.25110546E+02</totfact>
</mgrwt>
</event>
<event>
 4    1  0.6282309E-006  0.5112153E+03  0.7818608E-02  0.1010892E+00
          1   -1    0    0  501    0  0.00000000000E+00  0.00000000000E+00  0.38971777980E+03  0.38971777984E+03  0.50400000000E-02 0.  1.
         -1   -1    0    0    0  501 -0.00000000000E+00 -0.00000000000E+00 -0.16764765243E+03  0.16764765250E+03  0.50400000000E-02 0. -1.
    5000001    1    1    2    0    0  0.11497574790E+03 -0.14457223381E+02  0.23198113503E+03  0.32687104632E+03  0.19900000000E+03 0.  0.
   -5000001    1    1    2    0    0 -0.11497574790E+03  0.14457223381E+02 -0.99110076492E+01  0.23049438602E+03  0.19900000000E+03 0.  0.
<mgrwt>
<rscale>  0 0.51121530E+03</rscale>
<asrwt>0</asrwt>
<pdfrwt beam="1">  1        1 0.55673969E-01 0.51121530E+03</pdfrwt>
<pdfrwt beam="2">  1       -1 0.23949664E-01 0.51121530E+03</pdfrwt>
<totfact> 0.10349767E+03</totfact>
</mgrwt>
</event>
<event>
 4    1  0.6282309E-006  0.4434873E+03  0.7818608E-02  0.1029682E+00
          1   -1    0    0  501    0  0.00000000000E+00  0.00000000000E+00  0.27489014462E+03  0.27489014467E+03  0.50400000000E-02 0.  1.
         -1   -1    0    0    0  501 -0.00000000000E+00 -0.00000000000E+00 -0.17887231241E+03  0.17887231248E+03  0.50400000000E-02 0. -1.
    5000001    1    1    2    0    0  0.80440390287E+02  0.13312556025E+01 -0.89293850381E+01  0.21483287120E+03  0.19900000000E+03 0.  0.
   -5000001    1    1    2    0    0 -0.80440390287E+02 -0.13312556025E+01  0.10494721726E+03  0.23892958595E+03  0.19900000000E+03 0.  0.
<mgrwt>
<rscale>  0 0.44348725E+03</rscale>
<asrwt>0</asrwt>
<pdfrwt beam="1">  1        1 0.39270020E-01 0.44348725E+03</pdfrwt>
<pdfrwt beam="2">  1       -1 0.25553188E-01 0.44348725E+03</pdfrwt>
<totfact> 0.14519673E+03</totfact>
</mgrwt>
</event>
<event>
 4    1  0.6282309E-006  0.8361847E+03  0.7818608E-02  0.9509069E-01
          1   -1    0    0  501    0  0.00000000000E+00  0.00000000000E+00  0.26385523307E+04  0.26385523307E+04  0.50400000000E-02 0.  1.
         -1   -1    0    0    0  501 -0.00000000000E+00 -0.00000000000E+00 -0.66248910941E+02  0.66248911133E+02  0.50400000000E-02 0. -1.
    5000001    1    1    2    0    0  0.17553472802E+03  0.21469997036E+03  0.20671255673E+04  0.20951175692E+04  0.19900000000E+03 0.  0.
   -5000001    1    1    2    0    0 -0.17553472802E+03 -0.21469997036E+03  0.50517785252E+03  0.60968367264E+03  0.19900000000E+03 0.  0.
<mgrwt>
<rscale>  0 0.83618471E+03</rscale>
<asrwt>0</asrwt>
<pdfrwt beam="1">  1        1 0.37693604E+00 0.83618471E+03</pdfrwt>
<pdfrwt beam="2">  1       -1 0.94641303E-02 0.83618471E+03</pdfrwt>
<totfact> 0.10426619E+02</totfact>
</mgrwt>
</event>
<event>
 4    1  0.6282309E-006  0.8159319E+03  0.7818608E-02  0.9537238E-01
         -1   -1    0    0    0  501 -0.00000000000E+00  0.00000000000E+00  0.14061677758E+03  0.14061677767E+03  0.50400000000E-02 0. -1.
          1   -1    0    0  501    0  0.00000000000E+00 -0.00000000000E+00 -0.11836155173E+04  0.11836155174E+04  0.50400000000E-02 0.  1.
    5000001    1    1    2    0    0  0.30836275719E+03 -0.12077889548E+02 -0.23298613237E+03  0.43487584816E+03  0.19900000000E+03 0.  0.
   -5000001    1    1    2    0    0 -0.30836275719E+03  0.12077889548E+02 -0.81001260740E+03  0.88935644687E+03  0.19900000000E+03 0.  0.
<mgrwt>
<rscale>  0 0.81593186E+03</rscale>
<asrwt>0</asrwt>
<pdfrwt beam="1">  1        1 0.16908793E+00 0.81593186E+03</pdfrwt>
<pdfrwt beam="2">  1       -1 0.20088112E-01 0.81593186E+03</pdfrwt>
<totfact> 0.26003014E+02</totfact>
</mgrwt>
</event>
<event>
 4    1  0.6282309E-006  0.7483154E+03  0.7818608E-02  0.9637997E-01
         -1   -1    0    0    0  501 -0.00000000000E+00  0.00000000000E+00  0.90244392187E+02  0.90244392328E+02  0.50400000000E-02 0. -1.
          1   -1    0    0  501    0  0.00000000000E+00 -0.00000000000E+00 -0.15512763606E+04  0.15512763606E+04  0.50400000000E-02 0.  1.
    5000001    1    1    2    0    0  0.10592428093E+03  0.26350202299E+03 -0.42231628580E+03  0.54644790663E+03  0.19900000000E+03 0.  0.
   -5000001    1    1    2    0    0 -0.10592428093E+03 -0.26350202299E+03 -0.10387156826E+04  0.10950728463E+04  0.19900000000E+03 0.  0.
<mgrwt>
<rscale>  0 0.74831542E+03</rscale>
<asrwt>0</asrwt>
<pdfrwt beam="1">  1        1 0.22161089E+00 0.74831542E+03</pdfrwt>
<pdfrwt beam="2">  1       -1 0.12892057E-01 0.74831542E+03</pdfrwt>
<totfact> 0.30773740E+02</totfact>
</mgrwt>
</event>
<event>
 4    1  0.6282309E-006  0.8546132E+03  0.7818608E-02  0.9484166E-01
          1   -1    0    0  501    0  0.00000000000E+00  0.00000000000E+00  0.23330829196E+04  0.23330829196E+04  0.50400000000E-02 0.  1.
         -1   -1    0    0    0  501 -0.00000000000E+00 -0.00000000000E+00 -0.78261652511E+02  0.78261652673E+02  0.50400000000E-02 0. -1.
    5000001    1    1    2    0    0  0.12374185877E+02  0.24983181101E+03  0.19275655338E+04  0.19538881599E+04  0.19900000000E+03 0.  0.
   -5000001    1    1    2    0    0 -0.12374185877E+02 -0.24983181101E+03  0.32725573330E+03  0.45745641240E+03  0.19900000000E+03 0.  0.
<mgrwt>
<rscale>  0 0.85461319E+03</rscale>
<asrwt>0</asrwt>
<pdfrwt beam="1">  1        1 0.33329748E+00 0.85461319E+03</pdfrwt>
<pdfrwt beam="2">  1       -1 0.11180239E-01 0.85461319E+03</pdfrwt>
<totfact> 0.12424747E+02</totfact>
</mgrwt>
</event>
<event>
 4    1  0.6282309E-006  0.6302103E+03  0.7818608E-02  0.9844639E-01
         -1   -1    0    0    0  501 -0.00000000000E+00  0.00000000000E+00  0.66148427251E+03  0.66148427253E+03  0.50400000000E-02 0. -1.
          1   -1    0    0  501    0  0.00000000000E+00 -0.00000000000E+00 -0.15010370733E+03  0.15010370742E+03  0.50400000000E-02 0.  1.
    5000001    1    1    2    0    0 -0.18268964444E+02  0.22137366718E+03  0.12467431784E+03  0.32324099541E+03  0.19900000000E+03 0.  0.
   -5000001    1    1    2    0    0  0.18268964444E+02 -0.22137366718E+03  0.38670624733E+03  0.48834698454E+03  0.19900000000E+03 0.  0.
<mgrwt>
<rscale>  0 0.63021026E+03</rscale>
<asrwt>0</asrwt>
<pdfrwt beam="1">  1        1 0.21443387E-01 0.63021026E+03</pdfrwt>
<pdfrwt beam="2">  1       -1 0.94497754E-01 0.63021026E+03</pdfrwt>
<totfact> 0.26309608E+02</totfact>
</mgrwt>
</event>
<event>
 4    1  0.6282309E-006  0.5065388E+03  0.7818608E-02  0.1012086E+00
         -1   -1    0    0    0  501 -0.00000000000E+00  0.00000000000E+00  0.52087031206E+02  0.52087031449E+02  0.50400000000E-02 0. -1.
          1   -1    0    0  501    0  0.00000000000E+00 -0.00000000000E+00 -0.12315038592E+04  0.12315038592E+04  0.50400000000E-02 0.  1.
    5000001    1    1    2    0    0  0.45991047745E+02 -0.10131168586E+03 -0.86920248588E+03  0.89860625172E+03  0.19900000000E+03 0.  0.
   -5000001    1    1    2    0    0 -0.45991047745E+02  0.10131168586E+03 -0.31021434208E+03  0.38498463891E+03  0.19900000000E+03 0.  0.
<mgrwt>
<rscale>  0 0.50653876E+03</rscale>
<asrwt>0</asrwt>
<pdfrwt beam="1">  1        1 0.17592910E+00 0.50653876E+03</pdfrwt>
<pdfrwt beam="2">  1       -1 0.74410052E-02 0.50653876E+03</pdfrwt>
<totfact> 0.12006994E+03</totfact>
</mgrwt>
</event>
<event>
 4    1  0.6282309E-006  0.6499744E+03  0.7818608E-02  0.9806827E-01
          1   -1    0    0  501    0  0.00000000000E+00  0.00000000000E+00  0.72160731681E+03  0.72160731682E+03  0.50400000000E-02 0. -1.
         -1   -1    0    0    0  501 -0.00000000000E+00 -0.00000000000E+00 -0.14636311020E+03  0.14636311029E+03  0.50400000000E-02 0.  1.
    5000001    1    1    2    0    0 -0.68152437672E+02 -0.22959612865E+03  0.41186774996E+03  0.51632855868E+03  0.19900000000E+03 0.  0.
   -5000001    1    1    2    0    0  0.68152437672E+02  0.22959612865E+03  0.16337645664E+03  0.35164186843E+03  0.19900000000E+03 0.  0.
<mgrwt>
<rscale>  0 0.64997443E+03</rscale>
<asrwt>0</asrwt>
<pdfrwt beam="1">  1        1 0.10308676E+00 0.64997443E+03</pdfrwt>
<pdfrwt beam="2">  1       -1 0.20909015E-01 0.64997443E+03</pdfrwt>
<totfact> 0.55710920E+02</totfact>
</mgrwt>
</event>
<event>
 4    1  0.6282309E-006  0.1154713E+04  0.7818608E-02  0.9153446E-01
         -1   -1    0    0    0  501 -0.00000000000E+00  0.00000000000E+00  0.14266383222E+04  0.14266383223E+04  0.50400000000E-02 0. -1.
          1   -1    0    0  501    0  0.00000000000E+00 -0.00000000000E+00 -0.23365470671E+03  0.23365470677E+03  0.50400000000E-02 0.  1.
    5000001    1    1    2    0    0 -0.16685729398E+03 -0.48160262099E+03  0.33153369116E+03  0.63976404202E+03  0.19900000000E+03 0.  0.
   -5000001    1    1    2    0    0  0.16685729398E+03  0.48160262099E+03  0.86144992437E+03  0.10205289870E+04  0.19900000000E+03 0.  0.
<mgrwt>
<rscale>  0 0.11547134E+04</rscale>
<asrwt>0</asrwt>
<pdfrwt beam="1">  1        1 0.33379243E-01 0.11547134E+04</pdfrwt>
<pdfrwt beam="2">  1       -1 0.20380548E+00 0.11547134E+04</pdfrwt>
<totfact> 0.18841894E+01</totfact>
</mgrwt>
</event>
<event>
 4    1  0.6282309E-006  0.6131144E+03  0.7818608E-02  0.9878565E-01
         -1   -1    0    0    0  501 -0.00000000000E+00  0.00000000000E+00  0.11111804659E+04  0.11111804659E+04  0.50400000000E-02 0. -1.
          1   -1    0    0  501    0  0.00000000000E+00 -0.00000000000E+00 -0.84574300561E+02  0.84574300711E+02  0.50400000000E-02 0.  1.
    5000001    1    1    2    0    0 -0.75070562418E+02 -0.20659781720E+03  0.66510159826E+03  0.72820284497E+03  0.19900000000E+03 0.  0.
   -5000001    1    1    2    0    0  0.75070562418E+02  0.20659781720E+03  0.36150456703E+03  0.46755192161E+03  0.19900000000E+03 0.  0.
<mgrwt>
<rscale>  0 0.61311438E+03</rscale>
<asrwt>0</asrwt>
<pdfrwt beam="1">  1        1 0.12082044E-01 0.61311438E+03</pdfrwt>
<pdfrwt beam="2">  1       -1 0.15874006E+00 0.61311438E+03</pdfrwt>
<totfact> 0.15826795E+02</totfact>
</mgrwt>
</event>
<event>
 4    1  0.6282309E-006  0.7132873E+03  0.7818608E-02  0.9694775E-01
          1   -1    0    0  501    0  0.00000000000E+00  0.00000000000E+00  0.84071325366E+03  0.84071325368E+03  0.50400000000E-02 0.  1.
         -1   -1    0    0    0  501 -0.00000000000E+00 -0.00000000000E+00 -0.15129380929E+03  0.15129380937E+03  0.50400000000E-02 0. -1.
    5000001    1    1    2    0    0  0.29088281689E+03  0.13334816711E+02  0.41834196103E+03  0.54717604741E+03  0.19900000000E+03 0.  0.
   -5000001    1    1    2    0    0 -0.29088281689E+03 -0.13334816711E+02  0.27107748335E+03  0.44483101564E+03  0.19900000000E+03 0.  0.
<mgrwt>
<rscale>  0 0.71328735E+03</rscale>
<asrwt>0</asrwt>
<pdfrwt beam="1">  1        1 0.12010189E+00 0.71328735E+03</pdfrwt>
<pdfrwt beam="2">  1       -1 0.21613402E-01 0.71328735E+03</pdfrwt>
<totfact> 0.41641815E+02</totfact>
</mgrwt>
</event>
<event>
 4    1  0.6282309E-006  0.8103249E+03  0.7818608E-02  0.9545191E-01
         -1   -1    0    0    0  501 -0.00000000000E+00  0.00000000000E+00  0.60114640518E+02  0.60114640729E+02  0.50400000000E-02 0.  1.
          1   -1    0    0  501    0  0.00000000000E+00 -0.00000000000E+00 -0.27307260006E+04  0.27307260006E+04  0.50400000000E-02 0. -1.
    5000001    1    1    2    0    0  0.17852818340E+03 -0.13638098422E+03 -0.22727309964E+04  0.22924613992E+04  0.19900000000E+03 0.  0.
   -5000001    1    1    2    0    0 -0.17852818340E+03  0.13638098422E+03 -0.39788036370E+03  0.49837924209E+03  0.19900000000E+03 0.  0.
<mgrwt>
<rscale>  0 0.81032490E+03</rscale>
<asrwt>0</asrwt>
<pdfrwt beam="1">  1        1 0.39010364E+00 0.81032490E+03</pdfrwt>
<pdfrwt beam="2">  1       -1 0.85878075E-02 0.81032490E+03</pdfrwt>
<totfact> 0.10648682E+02</totfact>
</mgrwt>
</event>
<event>
 4    1  0.6282309E-006  0.8255984E+03  0.7818608E-02  0.9523686E-01
         -1   -1    0    0    0  501 -0.00000000000E+00  0.00000000000E+00  0.46977414356E+03  0.46977414358E+03  0.50400000000E-02 0. -1.
          1   -1    0    0  501    0  0.00000000000E+00 -0.00000000000E+00 -0.36273422901E+03  0.36273422905E+03  0.50400000000E-02 0.  1.
    5000001    1    1    2    0    0  0.25214690654E+03 -0.25030443083E+03  0.12170089736E+03  0.42502056302E+03  0.19900000000E+03 0.  0.
   -5000001    1    1    2    0    0 -0.25214690654E+03  0.25030443083E+03 -0.14660982810E+02  0.40748780962E+03  0.19900000000E+03 0.  0.
<mgrwt>
<rscale>  0 0.82559836E+03</rscale>
<asrwt>0</asrwt>
<pdfrwt beam="1">  1        1 0.51819175E-01 0.82559836E+03</pdfrwt>
<pdfrwt beam="2">  1       -1 0.67110592E-01 0.82559836E+03</pdfrwt>
<totfact> 0.17121773E+02</totfact>
</mgrwt>
</event>
<event>
 4    1  0.6282309E-006  0.8662797E+03  0.7818608E-02  0.9468744E-01
         -1   -1    0    0    0  501 -0.00000000000E+00  0.00000000000E+00  0.57291285773E+02  0.57291285995E+02  0.50400000000E-02 0. -1.
          1   -1    0    0  501    0  0.00000000000E+00 -0.00000000000E+00 -0.32746711448E+04  0.32746711448E+04  0.50400000000E-02 0.  1.
    5000001    1    1    2    0    0 -0.32911738730E+03  0.87603995494E+02 -0.22969114658E+04  0.23305355600E+04  0.19900000000E+03 0.  0.
   -5000001    1    1    2    0    0  0.32911738730E+03 -0.87603995494E+02 -0.92046839323E+03  0.10014268708E+04  0.19900000000E+03 0.  0.
<mgrwt>
<rscale>  0 0.86627968E+03</rscale>
<asrwt>0</asrwt>
<pdfrwt beam="1">  1        1 0.46781004E+00 0.86627968E+03</pdfrwt>
<pdfrwt beam="2">  1       -1 0.81844715E-02 0.86627968E+03</pdfrwt>
<totfact> 0.50428671E+01</totfact>
</mgrwt>
</event>
<event>
 4    1  0.6282309E-006  0.5744580E+03  0.7818608E-02  0.9959862E-01
          1   -1    0    0  501    0  0.00000000000E+00  0.00000000000E+00  0.85804994528E+03  0.85804994529E+03  0.50400000000E-02 0.  1.
         -1   -1    0    0    0  501 -0.00000000000E+00 -0.00000000000E+00 -0.96148839101E+02  0.96148839234E+02  0.50400000000E-02 0. -1.
    5000001    1    1    2    0    0  0.60300379388E+02  0.13757886975E+03  0.61781898437E+03  0.66623222574E+03  0.19900000000E+03 0.  0.
   -5000001    1    1    2    0    0 -0.60300379388E+02 -0.13757886975E+03  0.14408212180E+03  0.28796655879E+03  0.19900000000E+03 0.  0.
<mgrwt>
<rscale>  0 0.57445803E+03</rscale>
<asrwt>0</asrwt>
<pdfrwt beam="1">  1        1 0.12257857E+00 0.57445803E+03</pdfrwt>
<pdfrwt beam="2">  1       -1 0.13735548E-01 0.57445803E+03</pdfrwt>
<totfact> 0.85236998E+02</totfact>
</mgrwt>
</event>
<event>
 4    1  0.6282309E-006  0.7946120E+03  0.7818608E-02  0.9567849E-01
          1   -1    0    0  501    0  0.00000000000E+00  0.00000000000E+00  0.61600328302E+03  0.61600328305E+03  0.50400000000E-02 0.  1.
         -1   -1    0    0    0  501 -0.00000000000E+00 -0.00000000000E+00 -0.25625198820E+03  0.25625198825E+03  0.50400000000E-02 0. -1.
    5000001    1    1    2    0    0 -0.18620426889E+03  0.28745863252E+03  0.14610300500E+03  0.42219851164E+03  0.19900000000E+03 0.  0.
   -5000001    1    1    2    0    0  0.18620426889E+03 -0.28745863252E+03  0.21364828983E+03  0.45005675965E+03  0.19900000000E+03 0.  0.
<mgrwt>
<rscale>  0 0.79461202E+03</rscale>
<asrwt>0</asrwt>
<pdfrwt beam="1">  1        1 0.88000470E-01 0.79461202E+03</pdfrwt>
<pdfrwt beam="2">  1       -1 0.36607427E-01 0.79461202E+03</pdfrwt>
<totfact> 0.26498515E+02</totfact>
</mgrwt>
</event>
<event>
 4    1  0.6282309E-006  0.5053460E+03  0.7818608E-02  0.1012393E+00
          1   -1    0    0  501    0  0.00000000000E+00  0.00000000000E+00  0.19493903609E+04  0.19493903609E+04  0.50400000000E-02 0.  1.
         -1   -1    0    0    0  501 -0.00000000000E+00 -0.00000000000E+00 -0.32750575442E+02  0.32750575829E+02  0.50400000000E-02 0. -1.
    5000001    1    1    2    0    0 -0.11215895137E+03  0.94106343678E+02  0.75050886930E+03  0.79012669692E+03  0.19900000000E+03 0.  0.
   -5000001    1    1    2    0    0  0.11215895137E+03 -0.94106343678E+02  0.11661309161E+04  0.11920142398E+04  0.19900000000E+03 0.  0.
<mgrwt>
<rscale>  0 0.50534605E+03</rscale>
<asrwt>0</asrwt>
<pdfrwt beam="1">  1        1 0.27848444E+00 0.50534605E+03</pdfrwt>
<pdfrwt beam="2">  1       -1 0.46786520E-02 0.50534605E+03</pdfrwt>
<totfact> 0.85611643E+02</totfact>
</mgrwt>
</event>
<event>
 4    1  0.6282309E-006  0.5161723E+03  0.7818608E-02  0.1009642E+00
          1   -1    0    0  501    0  0.00000000000E+00  0.00000000000E+00  0.16831969159E+03  0.16831969166E+03  0.50400000000E-02 0.  1.
         -1   -1    0    0    0  501 -0.00000000000E+00 -0.00000000000E+00 -0.39572582017E+03  0.39572582020E+03  0.50400000000E-02 0. -1.
    5000001    1    1    2    0    0  0.13181263436E+01 -0.11622992884E+03 -0.24065142152E+03  0.33320450251E+03  0.19900000000E+03 0.  0.
   -5000001    1    1    2    0    0 -0.13181263436E+01  0.11622992884E+03  0.13245292937E+02  0.23084100935E+03  0.19900000000E+03 0.  0.
<mgrwt>
<rscale>  0 0.51617225E+03</rscale>
<asrwt>0</asrwt>
<pdfrwt beam="1">  1        1 0.24045670E-01 0.51617225E+03</pdfrwt>
<pdfrwt beam="2">  1       -1 0.56532260E-01 0.51617225E+03</pdfrwt>
<totfact> 0.65631538E+02</totfact>
</mgrwt>
</event>
<event>
 4    1  0.6282309E-006  0.6548472E+03  0.7818608E-02  0.9797726E-01
         -1   -1    0    0    0  501 -0.00000000000E+00  0.00000000000E+00  0.13854414845E+03  0.13854414854E+03  0.50400000000E-02 0. -1.
          1   -1    0    0  501    0  0.00000000000E+00 -0.00000000000E+00 -0.77380542321E+03  0.77380542322E+03  0.50400000000E-02 0.  1.
    5000001    1    1    2    0    0  0.77797414341E+02 -0.24396264503E+03 -0.25478083854E+03  0.41241300360E+03  0.19900000000E+03 0.  0.
   -5000001    1    1    2    0    0 -0.77797414341E+02  0.24396264503E+03 -0.38048043621E+03  0.49993656817E+03  0.19900000000E+03 0.  0.
<mgrwt>
<rscale>  0 0.65484720E+03</rscale>
<asrwt>0</asrwt>
<pdfrwt beam="1">  1        1 0.11054363E+00 0.65484720E+03</pdfrwt>
<pdfrwt beam="2">  1       -1 0.19792022E-01 0.65484720E+03</pdfrwt>
<totfact> 0.54957568E+02</totfact>
</mgrwt>
</event>
<event>
 4    1  0.6282309E-006  0.4456487E+03  0.7818608E-02  0.1029028E+00
          1   -1    0    0  501    0  0.00000000000E+00  0.00000000000E+00  0.15236777429E+04  0.15236777429E+04  0.50400000000E-02 0.  1.
         -1   -1    0    0    0  501 -0.00000000000E+00 -0.00000000000E+00 -0.32586086050E+02  0.32586086440E+02  0.50400000000E-02 0. -1.
    5000001    1    1    2    0    0 -0.57540159267E+02 -0.63752345891E+02  0.56494952901E+03  0.60509850591E+03  0.19900000000E+03 0.  0.
   -5000001    1    1    2    0    0  0.57540159267E+02  0.63752345891E+02  0.92614212783E+03  0.95116532342E+03  0.19900000000E+03 0.  0.
<mgrwt>
<rscale>  0 0.44564872E+03</rscale>
<asrwt>0</asrwt>
<pdfrwt beam="1">  1        1 0.21766825E+00 0.44564872E+03</pdfrwt>
<pdfrwt beam="2">  1       -1 0.46551552E-02 0.44564872E+03</pdfrwt>
<totfact> 0.15913378E+03</totfact>
</mgrwt>
</event>
<event>
 4    1  0.6282309E-006  0.9930937E+03  0.7818608E-02  0.9316152E-01
         -1   -1    0    0    0  501 -0.00000000000E+00  0.00000000000E+00  0.21100025904E+03  0.21100025910E+03  0.50400000000E-02 0. -1.
          1   -1    0    0  501    0  0.00000000000E+00 -0.00000000000E+00 -0.11685236699E+04  0.11685236699E+04  0.50400000000E-02 0.  1.
    5000001    1    1    2    0    0  0.42718927720E+03 -0.14662819074E+03 -0.40309250418E+03  0.63724019946E+03  0.19900000000E+03 0.  0.
   -5000001    1    1    2    0    0 -0.42718927720E+03  0.14662819074E+03 -0.55443090665E+03  0.74228372953E+03  0.19900000000E+03 0.  0.
<mgrwt>
<rscale>  0 0.99309375E+03</rscale>
<asrwt>0</asrwt>
<pdfrwt beam="1">  1        1 0.16693195E+00 0.99309375E+03</pdfrwt>
<pdfrwt beam="2">  1       -1 0.30142895E-01 0.99309375E+03</pdfrwt>
<totfact> 0.13182168E+02</totfact>
</mgrwt>
</event>
<event>
 4    1  0.6282309E-006  0.5958849E+03  0.7818608E-02  0.9913981E-01
          1   -1    0    0  501    0  0.00000000000E+00  0.00000000000E+00  0.11448703819E+04  0.11448703819E+04  0.50400000000E-02 0.  1.
         -1   -1    0    0    0  501 -0.00000000000E+00 -0.00000000000E+00 -0.77536901537E+02  0.77536901700E+02  0.50400000000E-02 0. -1.
    5000001    1    1    2    0    0 -0.10091900009E+03  0.19743157318E+03  0.52915758381E+03  0.60726651412E+03  0.19900000000E+03 0.  0.
   -5000001    1    1    2    0    0  0.10091900009E+03 -0.19743157318E+03  0.53817589659E+03  0.61514076953E+03  0.19900000000E+03 0.  0.
<mgrwt>
<rscale>  0 0.59588490E+03</rscale>
<asrwt>0</asrwt>
<pdfrwt beam="1">  1        1 0.16355291E+00 0.59588490E+03</pdfrwt>
<pdfrwt beam="2">  1       -1 0.11076700E-01 0.59588490E+03</pdfrwt>
<totfact> 0.73585639E+02</totfact>
</mgrwt>
</event>
<event>
 4    1  0.6282309E-006  0.4370808E+03  0.7818608E-02  0.1031646E+00
          1   -1    0    0  501    0  0.00000000000E+00  0.00000000000E+00  0.15601977667E+03  0.15601977675E+03  0.50400000000E-02 0. -1.
         -1   -1    0    0    0  501 -0.00000000000E+00 -0.00000000000E+00 -0.30611448386E+03  0.30611448390E+03  0.50400000000E-02 0.  1.
    5000001    1    1    2    0    0 -0.58593003503E+02 -0.68742403565E+02 -0.74513089102E+02  0.23089360874E+03  0.19900000000E+03 0.  0.
   -5000001    1    1    2    0    0  0.58593003503E+02  0.68742403565E+02 -0.75581618088E+02  0.23124065192E+03  0.19900000000E+03 0.  0.
<mgrwt>
<rscale>  0 0.43708083E+03</rscale>
<asrwt>0</asrwt>
<pdfrwt beam="1">  1        1 0.22288540E-01 0.43708083E+03</pdfrwt>
<pdfrwt beam="2">  1       -1 0.43730640E-01 0.43708083E+03</pdfrwt>
<totfact> 0.11724879E+03</totfact>
</mgrwt>
</event>
<event>
 4    1  0.6282309E-006  0.4207052E+03  0.7818608E-02  0.1036837E+00
         -1   -1    0    0    0  501 -0.00000000000E+00  0.00000000000E+00  0.87212804528E+03  0.87212804529E+03  0.50400000000E-02 0.  1.
          1   -1    0    0  501    0  0.00000000000E+00 -0.00000000000E+00 -0.50735909088E+02  0.50735909338E+02  0.50400000000E-02 0. -1.
    5000001    1    1    2    0    0 -0.11041606797E+02  0.65268930188E+02  0.44642293331E+03  0.49323056040E+03  0.19900000000E+03 0.  0.
   -5000001    1    1    2    0    0  0.11041606797E+02 -0.65268930188E+02  0.37496920288E+03  0.42963339423E+03  0.19900000000E+03 0.  0.
<mgrwt>
<rscale>  0 0.42070517E+03</rscale>
<asrwt>0</asrwt>
<pdfrwt beam="1">  1        1 0.72479869E-02 0.42070517E+03</pdfrwt>
<pdfrwt beam="2">  1       -1 0.12458972E+00 0.42070517E+03</pdfrwt>
<totfact> 0.60205939E+02</totfact>
</mgrwt>
</event>
<event>
 4    1  0.6282309E-006  0.8106797E+03  0.7818608E-02  0.9544686E-01
         -1   -1    0    0    0  501 -0.00000000000E+00  0.00000000000E+00  0.64457883168E+03  0.64457883170E+03  0.50400000000E-02 0. -1.
          1   -1    0    0  501    0  0.00000000000E+00 -0.00000000000E+00 -0.25489575168E+03  0.25489575173E+03  0.50400000000E-02 0.  1.
    5000001    1    1    2    0    0 -0.21349376397E+03 -0.22647775214E+03  0.37992935144E+03  0.52992364690E+03  0.19900000000E+03 0.  0.
   -5000001    1    1    2    0    0  0.21349376397E+03  0.22647775214E+03  0.97537285631E+01  0.36955093652E+03  0.19900000000E+03 0.  0.
<mgrwt>
<rscale>  0 0.81067973E+03</rscale>
<asrwt>0</asrwt>
<pdfrwt beam="1">  1        1 0.36413679E-01 0.81067973E+03</pdfrwt>
<pdfrwt beam="2">  1       -1 0.92082690E-01 0.81067973E+03</pdfrwt>
<totfact> 0.13866492E+02</totfact>
</mgrwt>
</event>
<event>
 4    1  0.6282309E-006  0.5677543E+03  0.7818608E-02  0.9974660E-01
          1   -1    0    0  501    0  0.00000000000E+00  0.00000000000E+00  0.11463907453E+03  0.11463907464E+03  0.50400000000E-02 0.  1.
         -1   -1    0    0    0  501 -0.00000000000E+00 -0.00000000000E+00 -0.70295614732E+03  0.70295614734E+03  0.50400000000E-02 0. -1.
    5000001    1    1    2    0    0 -0.97507036822E+02 -0.30619226991E+02 -0.42499225712E+02  0.22771109652E+03  0.19900000000E+03 0.  0.
   -5000001    1    1    2    0    0  0.97507036822E+02  0.30619226991E+02 -0.54581784708E+03  0.58988412547E+03  0.19900000000E+03 0.  0.
<mgrwt>
<rscale>  0 0.56775432E+03</rscale>
<asrwt>0</asrwt>
<pdfrwt beam="1">  1        1 0.16377011E-01 0.56775432E+03</pdfrwt>
<pdfrwt beam="2">  1       -1 0.10042230E+00 0.56775432E+03</pdfrwt>
<totfact> 0.32868430E+02</totfact>
</mgrwt>
</event>
<event>
 4    1  0.6282309E-006  0.6808661E+03  0.7818608E-02  0.9750525E-01
         -1   -1    0    0    0  501 -0.00000000000E+00  0.00000000000E+00  0.12701127800E+04  0.12701127801E+04  0.50400000000E-02 0. -1.
          1   -1    0    0  501    0  0.00000000000E+00 -0.00000000000E+00 -0.91247529400E+02  0.91247529539E+02  0.50400000000E-02 0.  1.
    5000001    1    1    2    0    0  0.21234543494E+03 -0.15356415379E+03  0.76398300438E+03  0.83183145171E+03  0.19900000000E+03 0.  0.
   -5000001    1    1    2    0    0 -0.21234543494E+03  0.15356415379E+03  0.41488224626E+03  0.52952885788E+03  0.19900000000E+03 0.  0.
<mgrwt>
<rscale>  0 0.68086608E+03</rscale>
<asrwt>0</asrwt>
<pdfrwt beam="1">  1        1 0.13035362E-01 0.68086608E+03</pdfrwt>
<pdfrwt beam="2">  1       -1 0.18144467E+00 0.68086608E+03</pdfrwt>
<totfact> 0.97091294E+01</totfact>
</mgrwt>
</event>
<event>
 4    1  0.6282309E-006  0.5073092E+03  0.7818608E-02  0.1011889E+00
          1   -1    0    0  501    0  0.00000000000E+00  0.00000000000E+00  0.15986366537E+04  0.15986366537E+04  0.50400000000E-02 0.  1.
         -1   -1    0    0    0  501 -0.00000000000E+00 -0.00000000000E+00 -0.40247199115E+02  0.40247199430E+02  0.50400000000E-02 0. -1.
    5000001    1    1    2    0    0  0.12931667592E+03 -0.52396849169E+02  0.54464275435E+03  0.59641006224E+03  0.19900000000E+03 0.  0.
   -5000001    1    1    2    0    0 -0.12931667592E+03  0.52396849169E+02  0.10137467002E+04  0.10424737909E+04  0.19900000000E+03 0.  0.
<mgrwt>
<rscale>  0 0.50730917E+03</rscale>
<asrwt>0</asrwt>
<pdfrwt beam="1">  1        1 0.22837661E+00 0.50730917E+03</pdfrwt>
<pdfrwt beam="2">  1       -1 0.57496013E-02 0.50730917E+03</pdfrwt>
<totfact> 0.10319880E+03</totfact>
</mgrwt>
</event>
<event>
 4    1  0.6282309E-006  0.9400123E+03  0.7818608E-02  0.9376901E-01
         -1   -1    0    0    0  501 -0.00000000000E+00  0.00000000000E+00  0.13024630186E+03  0.13024630195E+03  0.50400000000E-02 0. -1.
          1   -1    0    0  501    0  0.00000000000E+00 -0.00000000000E+00 -0.16960619434E+04  0.16960619434E+04  0.50400000000E-02 0.  1.
    5000001    1    1    2    0    0 -0.18333382723E+03 -0.24933361434E+03 -0.21472218480E+03  0.42601075115E+03  0.19900000000E+03 0.  0.
   -5000001    1    1    2    0    0  0.18333382723E+03  0.24933361434E+03 -0.13510934567E+04  0.14002974942E+04  0.19900000000E+03 0.  0.
<mgrwt>
<rscale>  0 0.94001233E+03</rscale>
<asrwt>0</asrwt>
<pdfrwt beam="1">  1        1 0.24229455E+00 0.94001233E+03</pdfrwt>
<pdfrwt beam="2">  1       -1 0.18606616E-01 0.94001233E+03</pdfrwt>
<totfact> 0.13487483E+02</totfact>
</mgrwt>
</event>
<event>
 4    1  0.6282309E-006  0.7192940E+03  0.7818608E-02  0.9684794E-01
         -1   -1    0    0    0  501 -0.00000000000E+00  0.00000000000E+00  0.10711492688E+04  0.10711492688E+04  0.50400000000E-02 0. -1.
          1   -1    0    0  501    0  0.00000000000E+00 -0.00000000000E+00 -0.12075438923E+03  0.12075438934E+03  0.50400000000E-02 0.  1.
    5000001    1    1    2    0    0  0.16779883450E+03  0.80380218313E+02  0.86425963425E+03  0.90618052493E+03  0.19900000000E+03 0.  0.
   -5000001    1    1    2    0    0 -0.16779883450E+03 -0.80380218313E+02  0.86135245268E+02  0.28572313318E+03  0.19900000000E+03 0.  0.
<mgrwt>
<rscale>  0 0.71929403E+03</rscale>
<asrwt>0</asrwt>
<pdfrwt beam="1">  1        1 0.17250626E-01 0.71929403E+03</pdfrwt>
<pdfrwt beam="2">  1       -1 0.15302133E+00 0.71929403E+03</pdfrwt>
<totfact> 0.10757364E+02</totfact>
</mgrwt>
</event>
<event>
 4    1  0.6282309E-006  0.5939762E+03  0.7818608E-02  0.9917983E-01
          1   -1    0    0  501    0  0.00000000000E+00  0.00000000000E+00  0.56676000787E+03  0.56676000789E+03  0.50400000000E-02 0.  1.
         -1   -1    0    0    0  501 -0.00000000000E+00 -0.00000000000E+00 -0.15562484395E+03  0.15562484403E+03  0.50400000000E-02 0. -1.
    5000001    1    1    2    0    0  0.19548617659E+03 -0.91819433696E+02  0.25934556553E+03  0.39179940786E+03  0.19900000000E+03 0.  0.
   -5000001    1    1    2    0    0 -0.19548617659E+03  0.91819433696E+02  0.15178959840E+03  0.33058544406E+03  0.19900000000E+03 0.  0.
<mgrwt>
<rscale>  0 0.59397622E+03</rscale>
<asrwt>0</asrwt>
<pdfrwt beam="1">  1        1 0.80965716E-01 0.59397622E+03</pdfrwt>
<pdfrwt beam="2">  1       -1 0.22232121E-01 0.59397622E+03</pdfrwt>
<totfact> 0.71100467E+02</totfact>
</mgrwt>
</event>
<event>
 4    1  0.6282309E-006  0.1134013E+04  0.7818608E-02  0.9172660E-01
         -1   -1    0    0    0  501 -0.00000000000E+00  0.00000000000E+00  0.35343129340E+03  0.35343129343E+03  0.50400000000E-02 0. -1.
          1   -1    0    0  501    0  0.00000000000E+00 -0.00000000000E+00 -0.90964317397E+03  0.90964317398E+03  0.50400000000E-02 0.  1.
    5000001    1    1    2    0    0  0.48359037198E+03  0.20550967702E+03 -0.19326985128E+03  0.59417851748E+03  0.19900000000E+03 0.  0.
   -5000001    1    1    2    0    0 -0.48359037198E+03 -0.20550967702E+03 -0.36294202929E+03  0.66889594994E+03  0.19900000000E+03 0.  0.
<mgrwt>
<rscale>  0 0.11340130E+04</rscale>
<asrwt>0</asrwt>
<pdfrwt beam="1">  1        1 0.12994902E+00 0.11340130E+04</pdfrwt>
<pdfrwt beam="2">  1       -1 0.50490185E-01 0.11340130E+04</pdfrwt>
<totfact> 0.79301470E+01</totfact>
</mgrwt>
</event>
<event>
 4    1  0.6282309E-006  0.4459056E+03  0.7818608E-02  0.1028950E+00
         -1   -1    0    0    0  501 -0.00000000000E+00  0.00000000000E+00  0.21140681304E+03  0.21140681310E+03  0.50400000000E-02 0. -1.
          1   -1    0    0  501    0  0.00000000000E+00 -0.00000000000E+00 -0.23512938743E+03  0.23512938748E+03  0.50400000000E-02 0.  1.
    5000001    1    1    2    0    0 -0.19196023218E+02 -0.76916542167E+02  0.50050998594E+02  0.21997896315E+03  0.19900000000E+03 0.  0.
   -5000001    1    1    2    0    0  0.19196023218E+02  0.76916542167E+02 -0.73773572978E+02  0.22655723744E+03  0.19900000000E+03 0.  0.
<mgrwt>
<rscale>  0 0.44590562E+03</rscale>
<asrwt>0</asrwt>
<pdfrwt beam="1">  1        1 0.33589912E-01 0.44590562E+03</pdfrwt>
<pdfrwt beam="2">  1       -1 0.30200973E-01 0.44590562E+03</pdfrwt>
<totfact> 0.13326238E+03</totfact>
</mgrwt>
</event>
<event>
 4    1  0.6282309E-006  0.4129082E+03  0.7818608E-02  0.1039399E+00
         -1   -1    0    0    0  501 -0.00000000000E+00  0.00000000000E+00  0.22660124541E+02  0.22660125101E+02  0.50400000000E-02 0. -1.
          1   -1    0    0  501    0  0.00000000000E+00 -0.00000000000E+00 -0.18809821718E+04  0.18809821718E+04  0.50400000000E-02 0.  1.
    5000001    1    1    2    0    0  0.14687640424E+01  0.51188709200E+02 -0.10213502543E+04  0.10418156186E+04  0.19900000000E+03 0.  0.
   -5000001    1    1    2    0    0 -0.14687640424E+01 -0.51188709200E+02 -0.83697179290E+03  0.86182667824E+03  0.19900000000E+03 0.  0.
<mgrwt>
<rscale>  0 0.41290818E+03</rscale>
<asrwt>0</asrwt>
<pdfrwt beam="1">  1        1 0.26871164E+00 0.41290818E+03</pdfrwt>
<pdfrwt beam="2">  1       -1 0.32371619E-02 0.41290818E+03</pdfrwt>
<totfact> 0.16514783E+03</totfact>
</mgrwt>
</event>
<event>
 4    1  0.6282309E-006  0.5035573E+03  0.7818608E-02  0.1012855E+00
          1   -1    0    0  501    0  0.00000000000E+00  0.00000000000E+00  0.18776210256E+04  0.18776210257E+04  0.50400000000E-02 0.  1.
         -1   -1    0    0    0  501 -0.00000000000E+00 -0.00000000000E+00 -0.33762129085E+02  0.33762129461E+02  0.50400000000E-02 0. -1.
    5000001    1    1    2    0    0  0.74451687875E+02 -0.11860127549E+03  0.67645879281E+03  0.71889276999E+03  0.19900000000E+03 0.  0.
   -5000001    1    1    2    0    0 -0.74451687875E+02  0.11860127549E+03  0.11674001038E+04  0.11924903851E+04  0.19900000000E+03 0.  0.
<mgrwt>
<rscale>  0 0.50355728E+03</rscale>
<asrwt>0</asrwt>
<pdfrwt beam="1">  1        1 0.26823165E+00 0.50355728E+03</pdfrwt>
<pdfrwt beam="2">  1       -1 0.48231600E-02 0.50355728E+03</pdfrwt>
<totfact> 0.90507718E+02</totfact>
</mgrwt>
</event>
<event>
 4    1  0.6282309E-006  0.6806649E+03  0.7818608E-02  0.9750881E-01
         -1   -1    0    0    0  501 -0.00000000000E+00  0.00000000000E+00  0.18531508707E+03  0.18531508714E+03  0.50400000000E-02 0. -1.
          1   -1    0    0  501    0  0.00000000000E+00 -0.00000000000E+00 -0.62502293161E+03  0.62502293163E+03  0.50400000000E-02 0.  1.
    5000001    1    1    2    0    0 -0.36801302120E+02  0.13274788480E+03 -0.50470391256E+03  0.55973509458E+03  0.19900000000E+03 0.  0.
   -5000001    1    1    2    0    0  0.36801302120E+02 -0.13274788480E+03  0.64996068011E+02  0.25060292419E+03  0.19900000000E+03 0.  0.
<mgrwt>
<rscale>  0 0.68066491E+03</rscale>
<asrwt>0</asrwt>
<pdfrwt beam="1">  1        1 0.89288989E-01 0.68066491E+03</pdfrwt>
<pdfrwt beam="2">  1       -1 0.26473584E-01 0.68066491E+03</pdfrwt>
<totfact> 0.46005031E+02</totfact>
</mgrwt>
</event>
<event>
 4    1  0.6282309E-006  0.4870766E+03  0.7818608E-02  0.1017208E+00
         -1   -1    0    0    0  501 -0.00000000000E+00  0.00000000000E+00  0.56700409023E+03  0.56700409025E+03  0.50400000000E-02 0. -1.
          1   -1    0    0  501    0  0.00000000000E+00 -0.00000000000E+00 -0.10460400614E+03  0.10460400627E+03  0.50400000000E-02 0.  1.
    5000001    1    1    2    0    0 -0.76782194352E+02  0.11670453825E+03  0.21197280842E+03  0.32256615775E+03  0.19900000000E+03 0.  0.
   -5000001    1    1    2    0    0  0.76782194352E+02 -0.11670453825E+03  0.25042727567E+03  0.34904193876E+03  0.19900000000E+03 0.  0.
<mgrwt>
<rscale>  0 0.48707658E+03</rscale>
<asrwt>0</asrwt>
<pdfrwt beam="1">  1        1 0.14943429E-01 0.48707658E+03</pdfrwt>
<pdfrwt beam="2">  1       -1 0.81000585E-01 0.48707658E+03</pdfrwt>
<totfact> 0.59551905E+02</totfact>
</mgrwt>
</event>
<event>
 4    1  0.6282309E-006  0.5578182E+03  0.7818608E-02  0.9997004E-01
          1   -1    0    0  501    0  0.00000000000E+00  0.00000000000E+00  0.27306357686E+03  0.27306357691E+03  0.50400000000E-02 0.  1.
         -1   -1    0    0    0  501 -0.00000000000E+00 -0.00000000000E+00 -0.28487975224E+03  0.28487975228E+03  0.50400000000E-02 0. -1.
    5000001    1    1    2    0    0 -0.14883521730E+02 -0.19483611491E+03 -0.33281187721E+01  0.27891702578E+03  0.19900000000E+03 0.  0.
   -5000001    1    1    2    0    0  0.14883521730E+02  0.19483611491E+03 -0.84880566007E+01  0.27902630342E+03  0.19900000000E+03 0.  0.
<mgrwt>
<rscale>  0 0.55781819E+03</rscale>
<asrwt>0</asrwt>
<pdfrwt beam="1">  1        1 0.39009082E-01 0.55781819E+03</pdfrwt>
<pdfrwt beam="2">  1       -1 0.40697107E-01 0.55781819E+03</pdfrwt>
<totfact> 0.64922237E+02</totfact>
</mgrwt>
</event>
<event>
 4    1  0.6282309E-006  0.9568371E+03  0.7818608E-02  0.9357195E-01
          1   -1    0    0  501    0  0.00000000000E+00  0.00000000000E+00  0.16215914496E+04  0.16215914496E+04  0.50400000000E-02 0.  1.
         -1   -1    0    0    0  501 -0.00000000000E+00 -0.00000000000E+00 -0.14114793833E+03  0.14114793842E+03  0.50400000000E-02 0. -1.
    5000001    1    1    2    0    0  0.20124516649E+03 -0.38532654151E+03  0.70793601143E+03  0.85425438653E+03  0.19900000000E+03 0.  0.
   -5000001    1    1    2    0    0 -0.20124516649E+03  0.38532654151E+03  0.77250749987E+03  0.90848500151E+03  0.19900000000E+03 0.  0.
<mgrwt>
<rscale>  0 0.95683706E+03</rscale>
<asrwt>0</asrwt>
<pdfrwt beam="1">  1        1 0.23165591E+00 0.95683706E+03</pdfrwt>
<pdfrwt beam="2">  1       -1 0.20163992E-01 0.95683706E+03</pdfrwt>
<totfact> 0.13140692E+02</totfact>
</mgrwt>
</event>
<event>
 4    1  0.6282309E-006  0.6796633E+03  0.7818608E-02  0.9752657E-01
          1   -1    0    0  501    0  0.00000000000E+00  0.00000000000E+00  0.14263946955E+04  0.14263946955E+04  0.50400000000E-02 0.  1.
         -1   -1    0    0    0  501 -0.00000000000E+00 -0.00000000000E+00 -0.80963260925E+02  0.80963261082E+02  0.50400000000E-02 0. -1.
    5000001    1    1    2    0    0 -0.48268439307E+02  0.26902094532E+03  0.74897888130E+03  0.82174964307E+03  0.19900000000E+03 0.  0.
   -5000001    1    1    2    0    0  0.48268439307E+02 -0.26902094532E+03  0.59645255325E+03  0.68560831349E+03  0.19900000000E+03 0.  0.
<mgrwt>
<rscale>  0 0.67966335E+03</rscale>
<asrwt>0</asrwt>
<pdfrwt beam="1">  1        1 0.20377067E+00 0.67966335E+03</pdfrwt>
<pdfrwt beam="2">  1       -1 0.11566180E-01 0.67966335E+03</pdfrwt>
<totfact> 0.44269133E+02</totfact>
</mgrwt>
</event>
<event>
 4    1  0.6282309E-006  0.5096770E+03  0.7818608E-02  0.1011283E+00
          1   -1    0    0  501    0  0.00000000000E+00  0.00000000000E+00  0.21318511365E+03  0.21318511371E+03  0.50400000000E-02 0.  1.
         -1   -1    0    0    0  501 -0.00000000000E+00 -0.00000000000E+00 -0.30463038907E+03  0.30463038911E+03  0.50400000000E-02 0. -1.
    5000001    1    1    2    0    0 -0.97079645293E+02 -0.60771667538E+02 -0.15805033843E+03  0.27874461893E+03  0.19900000000E+03 0.  0.
   -5000001    1    1    2    0    0  0.97079645293E+02  0.60771667538E+02  0.66605063017E+02  0.23907088389E+03  0.19900000000E+03 0.  0.
<mgrwt>
<rscale>  0 0.50967701E+03</rscale>
<asrwt>0</asrwt>
<pdfrwt beam="1">  1        1 0.30455017E-01 0.50967701E+03</pdfrwt>
<pdfrwt beam="2">  1       -1 0.43518626E-01 0.50967701E+03</pdfrwt>
<totfact> 0.79017863E+02</totfact>
</mgrwt>
</event>
<event>
 4    1  0.6282309E-006  0.7431755E+03  0.7818608E-02  0.9646118E-01
         -1   -1    0    0    0  501 -0.00000000000E+00  0.00000000000E+00  0.64729180414E+03  0.64729180416E+03  0.50400000000E-02 0. -1.
          1   -1    0    0  501    0  0.00000000000E+00 -0.00000000000E+00 -0.21331561247E+03  0.21331561253E+03  0.50400000000E-02 0.  1.
    5000001    1    1    2    0    0 -0.25151166262E+03 -0.13851150565E+03  0.70359162657E+02  0.35636352984E+03  0.19900000000E+03 0.  0.
   -5000001    1    1    2    0    0  0.25151166262E+03  0.13851150565E+03  0.36361702902E+03  0.50424388685E+03  0.19900000000E+03 0.  0.
<mgrwt>
<rscale>  0 0.74317548E+03</rscale>
<asrwt>0</asrwt>
<pdfrwt beam="1">  1        1 0.30473659E-01 0.74317548E+03</pdfrwt>
<pdfrwt beam="2">  1       -1 0.92470258E-01 0.74317548E+03</pdfrwt>
<totfact> 0.17362325E+02</totfact>
</mgrwt>
</event>
<event>
 4    1  0.6282309E-006  0.5707731E+03  0.7818608E-02  0.9967969E-01
         -1   -1    0    0    0  501 -0.00000000000E+00  0.00000000000E+00  0.99680034633E+02  0.99680034760E+02  0.50400000000E-02 0.  1.
          1   -1    0    0  501    0  0.00000000000E+00 -0.00000000000E+00 -0.81706919686E+03  0.81706919687E+03  0.50400000000E-02 0. -1.
    5000001    1    1    2    0    0  0.18482378937E+03 -0.77062613761E+02 -0.42580809203E+03  0.51089334581E+03  0.19900000000E+03 0.  0.
   -5000001    1    1    2    0    0 -0.18482378937E+03  0.77062613761E+02 -0.29158107020E+03  0.40585588582E+03  0.19900000000E+03 0.  0.
<mgrwt>
<rscale>  0 0.57077311E+03</rscale>
<asrwt>0</asrwt>
<pdfrwt beam="1">  1        1 0.11672417E+00 0.57077311E+03</pdfrwt>
<pdfrwt beam="2">  1       -1 0.14240005E-01 0.57077311E+03</pdfrwt>
<totfact> 0.86831006E+02</totfact>
</mgrwt>
</event>
<event>
 4    1  0.6282309E-006  0.4991709E+03  0.7818608E-02  0.1013996E+00
          1   -1    0    0  501    0  0.00000000000E+00  0.00000000000E+00  0.75410112376E+03  0.75410112378E+03  0.50400000000E-02 0.  1.
         -1   -1    0    0    0  501 -0.00000000000E+00 -0.00000000000E+00 -0.82605498614E+02  0.82605498768E+02  0.50400000000E-02 0. -1.
    5000001    1    1    2    0    0 -0.74754233616E+02  0.11144700370E+03  0.22103854544E+03  0.32629383790E+03  0.19900000000E+03 0.  0.
   -5000001    1    1    2    0    0  0.74754233616E+02 -0.11144700370E+03  0.45045707971E+03  0.51041278465E+03  0.19900000000E+03 0.  0.
<mgrwt>
<rscale>  0 0.49917091E+03</rscale>
<asrwt>0</asrwt>
<pdfrwt beam="1">  1        1 0.10772874E+00 0.49917091E+03</pdfrwt>
<pdfrwt beam="2">  1       -1 0.11800785E-01 0.49917091E+03</pdfrwt>
<totfact> 0.13261532E+03</totfact>
</mgrwt>
</event>
<event>
 4    1  0.6282309E-006  0.5558621E+03  0.7818608E-02  0.1000146E+00
          1   -1    0    0  501    0  0.00000000000E+00  0.00000000000E+00  0.25243400979E+04  0.25243400979E+04  0.50400000000E-02 0. -1.
         -1   -1    0    0    0  501 -0.00000000000E+00 -0.00000000000E+00 -0.30600336273E+02  0.30600336688E+02  0.50400000000E-02 0.  1.
    5000001    1    1    2    0    0  0.11224772241E+03  0.12584641065E+03  0.80581629043E+03  0.84698156071E+03  0.19900000000E+03 0.  0.
   -5000001    1    1    2    0    0 -0.11224772241E+03 -0.12584641065E+03  0.16879234712E+04  0.17079588738E+04  0.19900000000E+03 0.  0.
<mgrwt>
<rscale>  0 0.55586206E+03</rscale>
<asrwt>0</asrwt>
<pdfrwt beam="1">  1        1 0.36062009E+00 0.55586206E+03</pdfrwt>
<pdfrwt beam="2">  1       -1 0.43714758E-02 0.55586206E+03</pdfrwt>
<totfact> 0.41787192E+02</totfact>
</mgrwt>
</event>
<event>
 4    1  0.6282309E-006  0.5072751E+03  0.7818608E-02  0.1011897E+00
         -1   -1    0    0    0  501 -0.00000000000E+00  0.00000000000E+00  0.16443486895E+03  0.16443486903E+03  0.50400000000E-02 0. -1.
          1   -1    0    0  501    0  0.00000000000E+00 -0.00000000000E+00 -0.39123087735E+03  0.39123087738E+03  0.50400000000E-02 0.  1.
    5000001    1    1    2    0    0  0.13514704293E+03  0.79508262712E+02 -0.12657513695E+03  0.28321114446E+03  0.19900000000E+03 0.  0.
   -5000001    1    1    2    0    0 -0.13514704293E+03 -0.79508262712E+02 -0.10022087145E+03  0.27245460196E+03  0.19900000000E+03 0.  0.
<mgrwt>
<rscale>  0 0.50727507E+03</rscale>
<asrwt>0</asrwt>
<pdfrwt beam="1">  1        1 0.55890125E-01 0.50727507E+03</pdfrwt>
<pdfrwt beam="2">  1       -1 0.23490696E-01 0.50727507E+03</pdfrwt>
<totfact> 0.10638578E+03</totfact>
</mgrwt>
</event>
<event>
 4    1  0.6282309E-006  0.6676454E+03  0.7818608E-02  0.9774221E-01
         -1   -1    0    0    0  501 -0.00000000000E+00  0.00000000000E+00  0.12030882922E+04  0.12030882922E+04  0.50400000000E-02 0. -1.
          1   -1    0    0  501    0  0.00000000000E+00 -0.00000000000E+00 -0.92626272855E+02  0.92626272992E+02  0.50400000000E-02 0.  1.
    5000001    1    1    2    0    0 -0.11016874581E+03 -0.20212879463E+03  0.28882566696E+03  0.41954078236E+03  0.19900000000E+03 0.  0.
   -5000001    1    1    2    0    0  0.11016874581E+03  0.20212879463E+03  0.82163635242E+03  0.87617378287E+03  0.19900000000E+03 0.  0.
<mgrwt>
<rscale>  0 0.66764537E+03</rscale>
<asrwt>0</asrwt>
<pdfrwt beam="1">  1        1 0.13232326E-01 0.66764537E+03</pdfrwt>
<pdfrwt beam="2">  1       -1 0.17186974E+00 0.66764537E+03</pdfrwt>
<totfact> 0.11153254E+02</totfact>
</mgrwt>
</event>
<event>
 4    1  0.6282309E-006  0.1025244E+04  0.7818608E-02  0.9281283E-01
         -1   -1    0    0    0  501 -0.00000000000E+00  0.00000000000E+00  0.49958801113E+03  0.49958801115E+03  0.50400000000E-02 0. -1.
          1   -1    0    0  501    0  0.00000000000E+00 -0.00000000000E+00 -0.52599568772E+03  0.52599568774E+03  0.50400000000E-02 0.  1.
    5000001    1    1    2    0    0  0.41993872484E+03  0.15003616472E+03  0.14279901970E+03  0.50877494373E+03  0.19900000000E+03 0.  0.
   -5000001    1    1    2    0    0 -0.41993872484E+03 -0.15003616472E+03 -0.16920669629E+03  0.51680875516E+03  0.19900000000E+03 0.  0.
<mgrwt>
<rscale>  0 0.10252437E+04</rscale>
<asrwt>0</asrwt>
<pdfrwt beam="1">  1        1 0.75142241E-01 0.10252437E+04</pdfrwt>
<pdfrwt beam="2">  1       -1 0.71369716E-01 0.10252437E+04</pdfrwt>
<totfact> 0.90929182E+01</totfact>
</mgrwt>
</event>
<event>
 4    1  0.6282309E-006  0.7865736E+03  0.7818608E-02  0.9579657E-01
         -1   -1    0    0    0  501 -0.00000000000E+00  0.00000000000E+00  0.18848182604E+04  0.18848182604E+04  0.50400000000E-02 0. -1.
          1   -1    0    0  501    0  0.00000000000E+00 -0.00000000000E+00 -0.82063348347E+02  0.82063348502E+02  0.50400000000E-02 0.  1.
    5000001    1    1    2    0    0  0.21307094555E+03  0.25473543907E+03  0.10743352614E+04  0.11419661228E+04  0.19900000000E+03 0.  0.
   -5000001    1    1    2    0    0 -0.21307094555E+03 -0.25473543907E+03  0.72841965067E+03  0.82491548612E+03  0.19900000000E+03 0.  0.
<mgrwt>
<rscale>  0 0.78657358E+03</rscale>
<asrwt>0</asrwt>
<pdfrwt beam="1">  1        1 0.11723335E-01 0.78657358E+03</pdfrwt>
<pdfrwt beam="2">  1       -1 0.26925975E+00 0.78657358E+03</pdfrwt>
<totfact> 0.29071912E+01</totfact>
</mgrwt>
</event>
<event>
 4    1  0.6282309E-006  0.7875891E+03  0.7818608E-02  0.9578157E-01
          1   -1    0    0  501    0  0.00000000000E+00  0.00000000000E+00  0.18844999906E+03  0.18844999912E+03  0.50400000000E-02 0. -1.
         -1   -1    0    0    0  501 -0.00000000000E+00 -0.00000000000E+00 -0.82289283152E+03  0.82289283153E+03  0.50400000000E-02 0.  1.
    5000001    1    1    2    0    0 -0.18347503724E+02 -0.31717657163E+03 -0.47203688540E+03  0.60279136495E+03  0.19900000000E+03 0.  0.
   -5000001    1    1    2    0    0  0.18347503724E+02  0.31717657163E+03 -0.16240594707E+03  0.40855146570E+03  0.19900000000E+03 0.  0.
<mgrwt>
<rscale>  0 0.78758911E+03</rscale>
<asrwt>0</asrwt>
<pdfrwt beam="1">  1        1 0.26921429E-01 0.78758911E+03</pdfrwt>
<pdfrwt beam="2">  1       -1 0.11755612E+00 0.78758911E+03</pdfrwt>
<totfact> 0.11681046E+02</totfact>
</mgrwt>
</event>
<event>
 4    1  0.6282309E-006  0.6220880E+03  0.7818608E-02  0.9860611E-01
          1   -1    0    0  501    0  0.00000000000E+00  0.00000000000E+00  0.34502619971E+03  0.34502619974E+03  0.50400000000E-02 0.  1.
         -1   -1    0    0    0  501 -0.00000000000E+00 -0.00000000000E+00 -0.28040873295E+03  0.28040873300E+03  0.50400000000E-02 0. -1.
    5000001    1    1    2    0    0 -0.88171511805E+02 -0.19860630653E+03  0.13248758977E+03  0.32306755010E+03  0.19900000000E+03 0.  0.
   -5000001    1    1    2    0    0  0.88171511805E+02  0.19860630653E+03 -0.67870123012E+02  0.30236738264E+03  0.19900000000E+03 0.  0.
<mgrwt>
<rscale>  0 0.62208797E+03</rscale>
<asrwt>0</asrwt>
<pdfrwt beam="1">  1        1 0.49289457E-01 0.62208797E+03</pdfrwt>
<pdfrwt beam="2">  1       -1 0.40058391E-01 0.62208797E+03</pdfrwt>
<totfact> 0.49362664E+02</totfact>
</mgrwt>
</event>
<event>
 4    1  0.6282309E-006  0.6462452E+03  0.7818608E-02  0.9813850E-01
         -1   -1    0    0    0  501 -0.00000000000E+00  0.00000000000E+00  0.39102928061E+03  0.39102928064E+03  0.50400000000E-02 0.  1.
          1   -1    0    0  501    0  0.00000000000E+00 -0.00000000000E+00 -0.26700865926E+03  0.26700865931E+03  0.50400000000E-02 0. -1.
    5000001    1    1    2    0    0  0.16381371311E+03 -0.15178458801E+03  0.18644385904E+03  0.35247100070E+03  0.19900000000E+03 0.  0.
   -5000001    1    1    2    0    0 -0.16381371311E+03  0.15178458801E+03 -0.62423237685E+02  0.30556693925E+03  0.19900000000E+03 0.  0.
<mgrwt>
<rscale>  0 0.64624517E+03</rscale>
<asrwt>0</asrwt>
<pdfrwt beam="1">  1        1 0.38144095E-01 0.64624517E+03</pdfrwt>
<pdfrwt beam="2">  1       -1 0.55861325E-01 0.64624517E+03</pdfrwt>
<totfact> 0.36880011E+02</totfact>
</mgrwt>
</event>
<event>
 4    1  0.6282309E-006  0.5377653E+03  0.7818608E-02  0.1004366E+00
         -1   -1    0    0    0  501 -0.00000000000E+00  0.00000000000E+00  0.56432413005E+03  0.56432413007E+03  0.50400000000E-02 0. -1.
          1   -1    0    0  501    0  0.00000000000E+00 -0.00000000000E+00 -0.12811409703E+03  0.12811409713E+03  0.50400000000E-02 0.  1.
    5000001    1    1    2    0    0 -0.83583696238E+02  0.77306604727E+02  0.37221299579E+02  0.23226917693E+03  0.19900000000E+03 0.  0.
   -5000001    1    1    2    0    0  0.83583696238E+02 -0.77306604727E+02  0.39898873344E+03  0.46016905027E+03  0.19900000000E+03 0.  0.
<mgrwt>
<rscale>  0 0.53776529E+03</rscale>
<asrwt>0</asrwt>
<pdfrwt beam="1">  1        1 0.18302014E-01 0.53776529E+03</pdfrwt>
<pdfrwt beam="2">  1       -1 0.80617733E-01 0.53776529E+03</pdfrwt>
<totfact> 0.45891330E+02</totfact>
</mgrwt>
</event>
<event>
 4    1  0.6282309E-006  0.4211036E+03  0.7818608E-02  0.1036708E+00
         -1   -1    0    0    0  501 -0.00000000000E+00  0.00000000000E+00  0.72520717188E+02  0.72520717363E+02  0.50400000000E-02 0. -1.
          1   -1    0    0  501    0  0.00000000000E+00 -0.00000000000E+00 -0.61130207560E+03  0.61130207563E+03  0.50400000000E-02 0.  1.
    5000001    1    1    2    0    0  0.42673094018E+02  0.51312456057E+02 -0.24235881968E+03  0.32061309795E+03  0.19900000000E+03 0.  0.
   -5000001    1    1    2    0    0 -0.42673094018E+02 -0.51312456057E+02 -0.29642253873E+03  0.36320969504E+03  0.19900000000E+03 0.  0.
<mgrwt>
<rscale>  0 0.42110362E+03</rscale>
<asrwt>0</asrwt>
<pdfrwt beam="1">  1        1 0.87328865E-01 0.42110362E+03</pdfrwt>
<pdfrwt beam="2">  1       -1 0.10360103E-01 0.42110362E+03</pdfrwt>
<totfact> 0.22020569E+03</totfact>
</mgrwt>
</event>
<event>
 4    1  0.6282309E-006  0.6431553E+03  0.7818608E-02  0.9819708E-01
         -1   -1    0    0    0  501 -0.00000000000E+00  0.00000000000E+00  0.33444557317E+03  0.33444557321E+03  0.50400000000E-02 0. -1.
          1   -1    0    0  501    0  0.00000000000E+00 -0.00000000000E+00 -0.30920487105E+03  0.30920487109E+03  0.50400000000E-02 0.  1.
    5000001    1    1    2    0    0 -0.20614791622E+03  0.14454194092E+03 -0.79347954992E+01  0.32101915367E+03  0.19900000000E+03 0.  0.
   -5000001    1    1    2    0    0  0.20614791622E+03 -0.14454194092E+03  0.33175497626E+02  0.32263129062E+03  0.19900000000E+03 0.  0.
<mgrwt>
<rscale>  0 0.64315535E+03</rscale>
<asrwt>0</asrwt>
<pdfrwt beam="1">  1        1 0.44172124E-01 0.64315535E+03</pdfrwt>
<pdfrwt beam="2">  1       -1 0.47777939E-01 0.64315535E+03</pdfrwt>
<totfact> 0.41089576E+02</totfact>
</mgrwt>
</event>
<event>
 4    1  0.6282309E-006  0.6152800E+03  0.7818608E-02  0.9874202E-01
          1   -1    0    0  501    0  0.00000000000E+00  0.00000000000E+00  0.77746127260E+03  0.77746127261E+03  0.50400000000E-02 0.  1.
         -1   -1    0    0    0  501 -0.00000000000E+00 -0.00000000000E+00 -0.12173258974E+03  0.12173258984E+03  0.50400000000E-02 0. -1.
    5000001    1    1    2    0    0  0.19165057342E+03 -0.12230856165E+02  0.13091232824E+03  0.30597152453E+03  0.19900000000E+03 0.  0.
   -5000001    1    1    2    0    0 -0.19165057342E+03  0.12230856165E+02  0.52481635462E+03  0.59322233793E+03  0.19900000000E+03 0.  0.
<mgrwt>
<rscale>  0 0.61528001E+03</rscale>
<asrwt>0</asrwt>
<pdfrwt beam="1">  1        1 0.11106590E+00 0.61528001E+03</pdfrwt>
<pdfrwt beam="2">  1       -1 0.17390370E-01 0.61528001E+03</pdfrwt>
<totfact> 0.67633335E+02</totfact>
</mgrwt>
</event>
<event>
 4    1  0.6282309E-006  0.5371053E+03  0.7818608E-02  0.1004523E+00
         -1   -1    0    0    0  501 -0.00000000000E+00  0.00000000000E+00  0.10172963009E+03  0.10172963022E+03  0.50400000000E-02 0. -1.
          1   -1    0    0  501    0  0.00000000000E+00 -0.00000000000E+00 -0.70894309012E+03  0.70894309014E+03  0.50400000000E-02 0.  1.
    5000001    1    1    2    0    0 -0.96329007962E+02 -0.98225879477E+02 -0.47957181500E+03  0.53713846158E+03  0.19900000000E+03 0.  0.
   -5000001    1    1    2    0    0  0.96329007962E+02  0.98225879477E+02 -0.12764164503E+03  0.27353425877E+03  0.19900000000E+03 0.  0.
<mgrwt>
<rscale>  0 0.53710527E+03</rscale>
<asrwt>0</asrwt>
<pdfrwt beam="1">  1        1 0.10127758E+00 0.53710527E+03</pdfrwt>
<pdfrwt beam="2">  1       -1 0.14532805E-01 0.53710527E+03</pdfrwt>
<totfact> 0.10410057E+03</totfact>
</mgrwt>
</event>
<event>
 4    1  0.6282309E-006  0.5999963E+03  0.7818608E-02  0.9905414E-01
         -1   -1    0    0    0  501 -0.00000000000E+00  0.00000000000E+00  0.45393645417E+03  0.45393645420E+03  0.50400000000E-02 0. -1.
          1   -1    0    0  501    0  0.00000000000E+00 -0.00000000000E+00 -0.19826317222E+03  0.19826317229E+03  0.50400000000E-02 0.  1.
    5000001    1    1    2    0    0  0.19578235081E+03  0.10290414129E+03  0.16962478516E+03  0.34248147238E+03  0.19900000000E+03 0.  0.
   -5000001    1    1    2    0    0 -0.19578235081E+03 -0.10290414129E+03  0.86048496791E+02  0.30971815411E+03  0.19900000000E+03 0.  0.
<mgrwt>
<rscale>  0 0.59999627E+03</rscale>
<asrwt>0</asrwt>
<pdfrwt beam="1">  1        1 0.28323311E-01 0.59999627E+03</pdfrwt>
<pdfrwt beam="2">  1       -1 0.64848064E-01 0.59999627E+03</pdfrwt>
<totfact> 0.40459575E+02</totfact>
</mgrwt>
</event>
<event>
 4    1  0.6282309E-006  0.6882406E+03  0.7818608E-02  0.9737556E-01
         -1   -1    0    0    0  501 -0.00000000000E+00  0.00000000000E+00  0.18617279671E+03  0.18617279678E+03  0.50400000000E-02 0.  1.
          1   -1    0    0  501    0  0.00000000000E+00 -0.00000000000E+00 -0.63606920567E+03  0.63606920569E+03  0.50400000000E-02 0. -1.
    5000001    1    1    2    0    0 -0.27375006398E+03  0.55569204120E+02 -0.19135289181E+03  0.39273905227E+03  0.19900000000E+03 0.  0.
   -5000001    1    1    2    0    0  0.27375006398E+03 -0.55569204120E+02 -0.25854351714E+03  0.42950295020E+03  0.19900000000E+03 0.  0.
<mgrwt>
<rscale>  0 0.68824061E+03</rscale>
<asrwt>0</asrwt>
<pdfrwt beam="1">  1        1 0.90867028E-01 0.68824061E+03</pdfrwt>
<pdfrwt beam="2">  1       -1 0.26596114E-01 0.68824061E+03</pdfrwt>
<totfact> 0.44505769E+02</totfact>
</mgrwt>
</event>
<event>
 4    1  0.6282309E-006  0.6238723E+03  0.7818608E-02  0.9857080E-01
         -1   -1    0    0    0  501 -0.00000000000E+00  0.00000000000E+00  0.92914417914E+03  0.92914417915E+03  0.50400000000E-02 0. -1.
          1   -1    0    0  501    0  0.00000000000E+00 -0.00000000000E+00 -0.10472450100E+03  0.10472450112E+03  0.50400000000E-02 0.  1.
    5000001    1    1    2    0    0 -0.23944334285E+03 -0.32995260366E+01  0.38080379601E+03  0.49189077280E+03  0.19900000000E+03 0.  0.
   -5000001    1    1    2    0    0  0.23944334285E+03  0.32995260366E+01  0.44361588213E+03  0.54197790747E+03  0.19900000000E+03 0.  0.
<mgrwt>
<rscale>  0 0.62387230E+03</rscale>
<asrwt>0</asrwt>
<pdfrwt beam="1">  1        1 0.14960643E-01 0.62387230E+03</pdfrwt>
<pdfrwt beam="2">  1       -1 0.13273488E+00 0.62387230E+03</pdfrwt>
<totfact> 0.18985851E+02</totfact>
</mgrwt>
</event>
<event>
 4    1  0.6282309E-006  0.5573084E+03  0.7818608E-02  0.9998163E-01
          1   -1    0    0  501    0  0.00000000000E+00  0.00000000000E+00  0.47526468447E+03  0.47526468450E+03  0.50400000000E-02 0.  1.
         -1   -1    0    0    0  501 -0.00000000000E+00 -0.00000000000E+00 -0.16337876385E+03  0.16337876393E+03  0.50400000000E-02 0. -1.
    5000001    1    1    2    0    0 -0.11281267343E+03 -0.15143148287E+03  0.21195322666E+03  0.34667472302E+03  0.19900000000E+03 0.  0.
   -5000001    1    1    2    0    0  0.11281267343E+03  0.15143148287E+03  0.99932693964E+02  0.29196872540E+03  0.19900000000E+03 0.  0.
<mgrwt>
<rscale>  0 0.55730838E+03</rscale>
<asrwt>0</asrwt>
<pdfrwt beam="1">  1        1 0.67894956E-01 0.55730838E+03</pdfrwt>
<pdfrwt beam="2">  1       -1 0.23339823E-01 0.55730838E+03</pdfrwt>
<totfact> 0.83238372E+02</totfact>
</mgrwt>
</event>
<event>
 4    1  0.6282309E-006  0.6221656E+03  0.7818608E-02  0.9860457E-01
          1   -1    0    0  501    0  0.00000000000E+00  0.00000000000E+00  0.69270171524E+03  0.69270171525E+03  0.50400000000E-02 0.  1.
         -1   -1    0    0    0  501 -0.00000000000E+00 -0.00000000000E+00 -0.13970301119E+03  0.13970301128E+03  0.50400000000E-02 0. -1.
    5000001    1    1    2    0    0 -0.14721088151E+03 -0.18262367615E+03  0.21447627881E+03  0.37499803319E+03  0.19900000000E+03 0.  0.
   -5000001    1    1    2    0    0  0.14721088151E+03  0.18262367615E+03  0.33852242523E+03  0.45740669334E+03  0.19900000000E+03 0.  0.
<mgrwt>
<rscale>  0 0.62216562E+03</rscale>
<asrwt>0</asrwt>
<pdfrwt beam="1">  1        1 0.98957387E-01 0.62216562E+03</pdfrwt>
<pdfrwt beam="2">  1       -1 0.19957573E-01 0.62216562E+03</pdfrwt>
<totfact> 0.63991183E+02</totfact>
</mgrwt>
</event>
<event>
 4    1  0.6282309E-006  0.5964618E+03  0.7818608E-02  0.9912774E-01
         -1   -1    0    0    0  501 -0.00000000000E+00  0.00000000000E+00  0.34142460036E+03  0.34142460040E+03  0.50400000000E-02 0. -1.
          1   -1    0    0  501    0  0.00000000000E+00 -0.00000000000E+00 -0.26050167060E+03  0.26050167065E+03  0.50400000000E-02 0.  1.
    5000001    1    1    2    0    0 -0.20434205334E+02  0.21450414285E+03  0.94910327527E+02  0.30828323717E+03  0.19900000000E+03 0.  0.
   -5000001    1    1    2    0    0  0.20434205334E+02 -0.21450414285E+03 -0.13987397764E+02  0.29364303388E+03  0.19900000000E+03 0.  0.
<mgrwt>
<rscale>  0 0.59646183E+03</rscale>
<asrwt>0</asrwt>
<pdfrwt beam="1">  1        1 0.37214524E-01 0.59646183E+03</pdfrwt>
<pdfrwt beam="2">  1       -1 0.48774943E-01 0.59646183E+03</pdfrwt>
<totfact> 0.49357478E+02</totfact>
</mgrwt>
</event>
<event>
 4    1  0.6282309E-006  0.6574083E+03  0.7818608E-02  0.9792976E-01
         -1   -1    0    0    0  501 -0.00000000000E+00  0.00000000000E+00  0.14161027021E+03  0.14161027030E+03  0.50400000000E-02 0.  1.
          1   -1    0    0  501    0  0.00000000000E+00 -0.00000000000E+00 -0.76298436300E+03  0.76298436302E+03  0.50400000000E-02 0. -1.
    5000001    1    1    2    0    0  0.54088794735E+02 -0.25455614502E+03 -0.27373960299E+03  0.42691778943E+03  0.19900000000E+03 0.  0.
   -5000001    1    1    2    0    0 -0.54088794735E+02  0.25455614502E+03 -0.34763448980E+03  0.47767684389E+03  0.19900000000E+03 0.  0.
<mgrwt>
<rscale>  0 0.65740831E+03</rscale>
<asrwt>0</asrwt>
<pdfrwt beam="1">  1        1 0.10899776E+00 0.65740831E+03</pdfrwt>
<pdfrwt beam="2">  1       -1 0.20230039E-01 0.65740831E+03</pdfrwt>
<totfact> 0.54132719E+02</totfact>
</mgrwt>
</event>
<event>
 4    1  0.6282309E-006  0.5499116E+03  0.7818608E-02  0.1001514E+00
         -1   -1    0    0    0  501 -0.00000000000E+00  0.00000000000E+00  0.32746425791E+02  0.32746426179E+02  0.50400000000E-02 0. -1.
          1   -1    0    0  501    0  0.00000000000E+00 -0.00000000000E+00 -0.23086698858E+04  0.23086698858E+04  0.50400000000E-02 0.  1.
    5000001    1    1    2    0    0  0.75904817272E+02  0.17038302018E+03 -0.12859333321E+04  0.13145407751E+04  0.19900000000E+03 0.  0.
   -5000001    1    1    2    0    0 -0.75904817272E+02 -0.17038302018E+03 -0.98999012794E+03  0.10268755369E+04  0.19900000000E+03 0.  0.
<mgrwt>
<rscale>  0 0.54991158E+03</rscale>
<asrwt>0</asrwt>
<pdfrwt beam="1">  1        1 0.32980988E+00 0.54991158E+03</pdfrwt>
<pdfrwt beam="2">  1       -1 0.46780623E-02 0.54991158E+03</pdfrwt>
<totfact> 0.51305365E+02</totfact>
</mgrwt>
</event>
<event>
 4    1  0.6282309E-006  0.8282205E+03  0.7818608E-02  0.9520044E-01
          1   -1    0    0  501    0  0.00000000000E+00  0.00000000000E+00  0.58596885703E+03  0.58596885705E+03  0.50400000000E-02 0.  1.
         -1   -1    0    0    0  501 -0.00000000000E+00 -0.00000000000E+00 -0.29265600013E+03  0.29265600017E+03  0.50400000000E-02 0. -1.
    5000001    1    1    2    0    0 -0.24163022959E+03  0.26684850551E+03  0.19745604142E+03  0.45627095134E+03  0.19900000000E+03 0.  0.
   -5000001    1    1    2    0    0  0.24163022959E+03 -0.26684850551E+03  0.95856815477E+02  0.42235390589E+03  0.19900000000E+03 0.  0.
<mgrwt>
<rscale>  0 0.82822051E+03</rscale>
<asrwt>0</asrwt>
<pdfrwt beam="1">  1        1 0.83709837E-01 0.82822051E+03</pdfrwt>
<pdfrwt beam="2">  1       -1 0.41808000E-01 0.82822051E+03</pdfrwt>
<totfact> 0.22313304E+02</totfact>
</mgrwt>
</event>
<event>
 4    1  0.6282309E-006  0.7933683E+03  0.7818608E-02  0.9569666E-01
         -1   -1    0    0    0  501 -0.00000000000E+00  0.00000000000E+00  0.37230594069E+03  0.37230594072E+03  0.50400000000E-02 0. -1.
          1   -1    0    0  501    0  0.00000000000E+00 -0.00000000000E+00 -0.42265860501E+03  0.42265860504E+03  0.50400000000E-02 0.  1.
    5000001    1    1    2    0    0 -0.14854468226E+02  0.26396253681E+03 -0.24438677416E+03  0.41136695473E+03  0.19900000000E+03 0.  0.
   -5000001    1    1    2    0    0  0.14854468226E+02 -0.26396253681E+03  0.19403410984E+03  0.38359759103E+03  0.19900000000E+03 0.  0.
<mgrwt>
<rscale>  0 0.79336829E+03</rscale>
<asrwt>0</asrwt>
<pdfrwt beam="1">  1        1 0.60379801E-01 0.79336829E+03</pdfrwt>
<pdfrwt beam="2">  1       -1 0.53186563E-01 0.79336829E+03</pdfrwt>
<totfact> 0.22178562E+02</totfact>
</mgrwt>
</event>
<event>
 4    1  0.6282309E-006  0.6895728E+03  0.7818608E-02  0.9735232E-01
          1   -1    0    0  501    0  0.00000000000E+00  0.00000000000E+00  0.63828384379E+03  0.63828384381E+03  0.50400000000E-02 0.  1.
         -1   -1    0    0    0  501 -0.00000000000E+00 -0.00000000000E+00 -0.18624574865E+03  0.18624574872E+03  0.50400000000E-02 0. -1.
    5000001    1    1    2    0    0  0.19805689184E+03 -0.16104940058E+03  0.83969762688E+02  0.33438804237E+03  0.19900000000E+03 0.  0.
   -5000001    1    1    2    0    0 -0.19805689184E+03  0.16104940058E+03  0.36806833246E+03  0.49014155016E+03  0.19900000000E+03 0.  0.
<mgrwt>
<rscale>  0 0.68957277E+03</rscale>
<asrwt>0</asrwt>
<pdfrwt beam="1">  1        1 0.91183407E-01 0.68957277E+03</pdfrwt>
<pdfrwt beam="2">  1       -1 0.26606535E-01 0.68957277E+03</pdfrwt>
<totfact> 0.44253467E+02</totfact>
</mgrwt>
</event>
<event>
 4    1  0.6282309E-006  0.5393339E+03  0.7818608E-02  0.1003993E+00
         -1   -1    0    0    0  501 -0.00000000000E+00  0.00000000000E+00  0.72150648675E+02  0.72150648852E+02  0.50400000000E-02 0.  1.
          1   -1    0    0  501    0  0.00000000000E+00 -0.00000000000E+00 -0.10078949412E+04  0.10078949413E+04  0.50400000000E-02 0. -1.
    5000001    1    1    2    0    0  0.11423941690E+03 -0.10787206848E+03 -0.65176124451E+03  0.69934308274E+03  0.19900000000E+03 0.  0.
   -5000001    1    1    2    0    0 -0.11423941690E+03  0.10787206848E+03 -0.28398304806E+03  0.38070250737E+03  0.19900000000E+03 0.  0.
<mgrwt>
<rscale>  0 0.53933394E+03</rscale>
<asrwt>0</asrwt>
<pdfrwt beam="1">  1        1 0.14398498E+00 0.53933394E+03</pdfrwt>
<pdfrwt beam="2">  1       -1 0.10307236E-01 0.53933394E+03</pdfrwt>
<totfact> 0.10349804E+03</totfact>
</mgrwt>
</event>
<event>
 4    1  0.6282309E-006  0.4621015E+03  0.7818608E-02  0.1024173E+00
         -1   -1    0    0    0  501 -0.00000000000E+00  0.00000000000E+00  0.92988206202E+02  0.92988206339E+02  0.50400000000E-02 0. -1.
          1   -1    0    0  501    0  0.00000000000E+00 -0.00000000000E+00 -0.57409903124E+03  0.57409903126E+03  0.50400000000E-02 0.  1.
    5000001    1    1    2    0    0  0.90533952437E+02  0.33512663417E+02 -0.14410487266E+03  0.26398240372E+03  0.19900000000E+03 0.  0.
   -5000001    1    1    2    0    0 -0.90533952437E+02 -0.33512663417E+02 -0.33700595238E+03  0.40310483388E+03  0.19900000000E+03 0.  0.
<mgrwt>
<rscale>  0 0.46210146E+03</rscale>
<asrwt>0</asrwt>
<pdfrwt beam="1">  1        1 0.82014146E-01 0.46210146E+03</pdfrwt>
<pdfrwt beam="2">  1       -1 0.13284030E-01 0.46210146E+03</pdfrwt>
<totfact> 0.16219277E+03</totfact>
</mgrwt>
</event>
<event>
 4    1  0.6282309E-006  0.5333935E+03  0.7818608E-02  0.1005412E+00
         -1   -1    0    0    0  501 -0.00000000000E+00  0.00000000000E+00  0.88322753430E+02  0.88322753573E+02  0.50400000000E-02 0. -1.
          1   -1    0    0  501    0  0.00000000000E+00 -0.00000000000E+00 -0.80530964260E+03  0.80530964262E+03  0.50400000000E-02 0.  1.
    5000001    1    1    2    0    0  0.12837584250E+03  0.12070512297E+03 -0.32193802481E+03  0.41748673687E+03  0.19900000000E+03 0.  0.
   -5000001    1    1    2    0    0 -0.12837584250E+03 -0.12070512297E+03 -0.39504886436E+03  0.47614565931E+03  0.19900000000E+03 0.  0.
<mgrwt>
<rscale>  0 0.53339353E+03</rscale>
<asrwt>0</asrwt>
<pdfrwt beam="1">  1        1 0.11504423E+00 0.53339353E+03</pdfrwt>
<pdfrwt beam="2">  1       -1 0.12617537E-01 0.53339353E+03</pdfrwt>
<totfact> 0.10788676E+03</totfact>
</mgrwt>
</event>
<event>
 4    1  0.6282309E-006  0.8812450E+03  0.7818608E-02  0.9449335E-01
         -1   -1    0    0    0  501 -0.00000000000E+00  0.00000000000E+00  0.79065420046E+02  0.79065420207E+02  0.50400000000E-02 0. -1.
          1   -1    0    0  501    0  0.00000000000E+00 -0.00000000000E+00 -0.24555387546E+04  0.24555387546E+04  0.50400000000E-02 0.  1.
    5000001    1    1    2    0    0  0.30100258987E+03  0.17011461176E+03 -0.17263609827E+04  0.17718534879E+04  0.19900000000E+03 0.  0.
   -5000001    1    1    2    0    0 -0.30100258987E+03 -0.17011461176E+03 -0.65011235185E+03  0.76275068683E+03  0.19900000000E+03 0.  0.
<mgrwt>
<rscale>  0 0.88124504E+03</rscale>
<asrwt>0</asrwt>
<pdfrwt beam="1">  1        1 0.35079120E+00 0.88124504E+03</pdfrwt>
<pdfrwt beam="2">  1       -1 0.11295062E-01 0.88124504E+03</pdfrwt>
<totfact> 0.10221333E+02</totfact>
</mgrwt>
</event>
<event>
 4    1  0.6282309E-006  0.1211189E+04  0.7818608E-02  0.9103119E-01
          1   -1    0    0  501    0  0.00000000000E+00  0.00000000000E+00  0.13182235626E+04  0.13182235626E+04  0.50400000000E-02 0.  1.
         -1   -1    0    0    0  501 -0.00000000000E+00 -0.00000000000E+00 -0.27821109838E+03  0.27821109842E+03  0.50400000000E-02 0. -1.
    5000001    1    1    2    0    0  0.26465192682E+03  0.18003712131E+03  0.11447913867E+04  0.12052395307E+04  0.19900000000E+03 0.  0.
   -5000001    1    1    2    0    0 -0.26465192682E+03 -0.18003712131E+03 -0.10477892242E+03  0.39119513034E+03  0.19900000000E+03 0.  0.
<mgrwt>
<rscale>  0 0.12111885E+04</rscale>
<asrwt>0</asrwt>
<pdfrwt beam="1">  1        1 0.18831766E+00 0.12111885E+04</pdfrwt>
<pdfrwt beam="2">  1       -1 0.39744442E-01 0.12111885E+04</pdfrwt>
<totfact> 0.62544724E+01</totfact>
</mgrwt>
</event>
<event>
 4    1  0.6282309E-006  0.8334158E+03  0.7818608E-02  0.9512870E-01
         -1   -1    0    0    0  501 -0.00000000000E+00  0.00000000000E+00  0.22829900591E+03  0.22829900597E+03  0.50400000000E-02 0. -1.
          1   -1    0    0  501    0  0.00000000000E+00 -0.00000000000E+00 -0.76060552640E+03  0.76060552641E+03  0.50400000000E-02 0.  1.
    5000001    1    1    2    0    0  0.17919448704E+03  0.18497138052E+03  0.42626769976E+02  0.32824246727E+03  0.19900000000E+03 0.  0.
   -5000001    1    1    2    0    0 -0.17919448704E+03 -0.18497138052E+03 -0.57493329046E+03  0.66066206511E+03  0.19900000000E+03 0.  0.
<mgrwt>
<rscale>  0 0.83341583E+03</rscale>
<asrwt>0</asrwt>
<pdfrwt beam="1">  1        1 0.10865793E+00 0.83341583E+03</pdfrwt>
<pdfrwt beam="2">  1       -1 0.32614144E-01 0.83341583E+03</pdfrwt>
<totfact> 0.23840113E+02</totfact>
</mgrwt>
</event>
<event>
 4    1  0.6282309E-006  0.9628181E+03  0.7818608E-02  0.9350292E-01
         -1   -1    0    0    0  501 -0.00000000000E+00  0.00000000000E+00  0.39680992941E+03  0.39680992944E+03  0.50400000000E-02 0. -1.
          1   -1    0    0  501    0  0.00000000000E+00 -0.00000000000E+00 -0.58404453035E+03  0.58404453038E+03  0.50400000000E-02 0.  1.
    5000001    1    1    2    0    0 -0.21621435893E+03  0.34122519516E+03  0.79778059142E+02  0.45732791467E+03  0.19900000000E+03 0.  0.
   -5000001    1    1    2    0    0  0.21621435893E+03 -0.34122519516E+03 -0.26701266009E+03  0.52352654514E+03  0.19900000000E+03 0.  0.
<mgrwt>
<rscale>  0 0.96281809E+03</rscale>
<asrwt>0</asrwt>
<pdfrwt beam="1">  1        1 0.83434933E-01 0.96281809E+03</pdfrwt>
<pdfrwt beam="2">  1       -1 0.56687133E-01 0.96281809E+03</pdfrwt>
<totfact> 0.12522509E+02</totfact>
</mgrwt>
</event>
<event>
 4    1  0.6282309E-006  0.7035713E+03  0.7818608E-02  0.9711144E-01
          1   -1    0    0  501    0  0.00000000000E+00  0.00000000000E+00  0.21781388782E+03  0.21781388788E+03  0.50400000000E-02 0.  1.
         -1   -1    0    0    0  501 -0.00000000000E+00 -0.00000000000E+00 -0.56816008769E+03  0.56816008771E+03  0.50400000000E-02 0. -1.
    5000001    1    1    2    0    0 -0.24469331266E+03 -0.13859790934E+03 -0.25470046822E+03  0.42843614022E+03  0.19900000000E+03 0.  0.
   -5000001    1    1    2    0    0  0.24469331266E+03  0.13859790934E+03 -0.95645731649E+02  0.35753783537E+03  0.19900000000E+03 0.  0.
<mgrwt>
<rscale>  0 0.70357134E+03</rscale>
<asrwt>0</asrwt>
<pdfrwt beam="1">  1        1 0.31116270E-01 0.70357134E+03</pdfrwt>
<pdfrwt beam="2">  1       -1 0.81165726E-01 0.70357134E+03</pdfrwt>
<totfact> 0.22470884E+02</totfact>
</mgrwt>
</event>
<event>
 4    1  0.6282309E-006  0.6404863E+03  0.7818608E-02  0.9824797E-01
          1   -1    0    0  501    0  0.00000000000E+00  0.00000000000E+00  0.52873469168E+03  0.52873469170E+03  0.50400000000E-02 0.  1.
         -1   -1    0    0    0  501 -0.00000000000E+00 -0.00000000000E+00 -0.19396435181E+03  0.19396435188E+03  0.50400000000E-02 0. -1.
    5000001    1    1    2    0    0 -0.16643894004E+03 -0.10733343584E+03 -0.64419307146E+01  0.28082892601E+03  0.19900000000E+03 0.  0.
   -5000001    1    1    2    0    0  0.16643894004E+03  0.10733343584E+03  0.34121227058E+03  0.44187011757E+03  0.19900000000E+03 0.  0.
<mgrwt>
<rscale>  0 0.64048632E+03</rscale>
<asrwt>0</asrwt>
<pdfrwt beam="1">  1        1 0.75533527E-01 0.64048632E+03</pdfrwt>
<pdfrwt beam="2">  1       -1 0.27709193E-01 0.64048632E+03</pdfrwt>
<totfact> 0.53750416E+02</totfact>
</mgrwt>
</event>
<event>
 4    1  0.6282309E-006  0.4265679E+03  0.7818608E-02  0.1034950E+00
         -1   -1    0    0    0  501 -0.00000000000E+00  0.00000000000E+00  0.27418672597E+02  0.27418673060E+02  0.50400000000E-02 0. -1.
          1   -1    0    0  501    0  0.00000000000E+00 -0.00000000000E+00 -0.16590902114E+04  0.16590902114E+04  0.50400000000E-02 0.  1.
    5000001    1    1    2    0    0  0.26919135755E+02  0.71633566781E+02 -0.79310854431E+03  0.82126619973E+03  0.19900000000E+03 0.  0.
   -5000001    1    1    2    0    0 -0.26919135755E+02 -0.71633566781E+02 -0.83856299447E+03  0.86524268472E+03  0.19900000000E+03 0.  0.
<mgrwt>
<rscale>  0 0.42656794E+03</rscale>
<asrwt>0</asrwt>
<pdfrwt beam="1">  1        1 0.23701282E+00 0.42656794E+03</pdfrwt>
<pdfrwt beam="2">  1       -1 0.39169543E-02 0.42656794E+03</pdfrwt>
<totfact> 0.16995136E+03</totfact>
</mgrwt>
</event>
<event>
 4    1  0.6282309E-006  0.7402033E+03  0.7818608E-02  0.9650846E-01
         -1   -1    0    0    0  501 -0.00000000000E+00  0.00000000000E+00  0.65946469534E+03  0.65946469536E+03  0.50400000000E-02 0. -1.
          1   -1    0    0  501    0  0.00000000000E+00 -0.00000000000E+00 -0.20770666648E+03  0.20770666655E+03  0.50400000000E-02 0.  1.
    5000001    1    1    2    0    0  0.56289576135E+02 -0.30490555971E+03  0.18465347742E+03  0.41210899462E+03  0.19900000000E+03 0.  0.
   -5000001    1    1    2    0    0 -0.56289576135E+02  0.30490555971E+03  0.26710455144E+03  0.45506236729E+03  0.19900000000E+03 0.  0.
<mgrwt>
<rscale>  0 0.74020325E+03</rscale>
<asrwt>0</asrwt>
<pdfrwt beam="1">  1        1 0.29672380E-01 0.74020325E+03</pdfrwt>
<pdfrwt beam="2">  1       -1 0.94209245E-01 0.74020325E+03</pdfrwt>
<totfact> 0.17246333E+02</totfact>
</mgrwt>
</event>
<event>
 4    1  0.6282309E-006  0.5163642E+03  0.7818608E-02  0.1009594E+00
          1   -1    0    0  501    0  0.00000000000E+00  0.00000000000E+00  0.57963365614E+03  0.57963365616E+03  0.50400000000E-02 0. -1.
         -1   -1    0    0    0  501 -0.00000000000E+00 -0.00000000000E+00 -0.11500019658E+03  0.11500019669E+03  0.50400000000E-02 0.  1.
    5000001    1    1    2    0    0 -0.80769887212E+02  0.28743265100E+02  0.42116390736E+03  0.47363486657E+03  0.19900000000E+03 0.  0.
   -5000001    1    1    2    0    0  0.80769887212E+02 -0.28743265100E+02  0.43469552208E+02  0.22099898628E+03  0.19900000000E+03 0.  0.
<mgrwt>
<rscale>  0 0.51636415E+03</rscale>
<asrwt>0</asrwt>
<pdfrwt beam="1">  1        1 0.82804808E-01 0.51636415E+03</pdfrwt>
<pdfrwt beam="2">  1       -1 0.16428600E-01 0.51636415E+03</pdfrwt>
<totfact> 0.11367676E+03</totfact>
</mgrwt>
</event>
<event>
 4    1  0.6282309E-006  0.6023541E+03  0.7818608E-02  0.9900534E-01
          1   -1    0    0  501    0  0.00000000000E+00  0.00000000000E+00  0.92391503453E+03  0.92391503454E+03  0.50400000000E-02 0.  1.
         -1   -1    0    0    0  501 -0.00000000000E+00 -0.00000000000E+00 -0.98177453694E+02  0.98177453823E+02  0.50400000000E-02 0. -1.
    5000001    1    1    2    0    0 -0.22587418076E+03  0.19478166844E-01  0.42873933717E+03  0.52386788902E+03  0.19900000000E+03 0.  0.
   -5000001    1    1    2    0    0  0.22587418076E+03 -0.19478166844E-01  0.39699824366E+03  0.49822459934E+03  0.19900000000E+03 0.  0.
<mgrwt>
<rscale>  0 0.60235413E+03</rscale>
<asrwt>0</asrwt>
<pdfrwt beam="1">  1        1 0.13198786E+00 0.60235413E+03</pdfrwt>
<pdfrwt beam="2">  1       -1 0.14025351E-01 0.60235413E+03</pdfrwt>
<totfact> 0.73120574E+02</totfact>
</mgrwt>
</event>
<event>
 4    1  0.6282309E-006  0.6429269E+03  0.7818608E-02  0.9820143E-01
          1   -1    0    0  501    0  0.00000000000E+00  0.00000000000E+00  0.81930124485E+03  0.81930124486E+03  0.50400000000E-02 0.  1.
         -1   -1    0    0    0  501 -0.00000000000E+00 -0.00000000000E+00 -0.12613034702E+03  0.12613034712E+03  0.50400000000E-02 0. -1.
    5000001    1    1    2    0    0  0.13725906164E+03  0.12577043711E+03  0.59734758513E+03  0.65656941013E+03  0.19900000000E+03 0.  0.
   -5000001    1    1    2    0    0 -0.13725906164E+03 -0.12577043711E+03  0.95823312693E+02  0.28886218186E+03  0.19900000000E+03 0.  0.
<mgrwt>
<rscale>  0 0.64292690E+03</rscale>
<asrwt>0</asrwt>
<pdfrwt beam="1">  1        1 0.11704304E+00 0.64292690E+03</pdfrwt>
<pdfrwt beam="2">  1       -1 0.18018620E-01 0.64292690E+03</pdfrwt>
<totfact> 0.58813634E+02</totfact>
</mgrwt>
</event>
<event>
 4    1  0.6282309E-006  0.8394236E+03  0.7818608E-02  0.9504643E-01
          1   -1    0    0  501    0  0.00000000000E+00  0.00000000000E+00  0.92266217240E+02  0.92266217378E+02  0.50400000000E-02 0. -1.
         -1   -1    0    0    0  501 -0.00000000000E+00 -0.00000000000E+00 -0.19092361814E+04  0.19092361814E+04  0.50400000000E-02 0.  1.
    5000001    1    1    2    0    0 -0.21952619980E+02 -0.34065564238E+03 -0.12459296530E+04  0.13070844979E+04  0.19900000000E+03 0.  0.
   -5000001    1    1    2    0    0  0.21952619980E+02  0.34065564238E+03 -0.57104031114E+03  0.69441790095E+03  0.19900000000E+03 0.  0.
<mgrwt>
<rscale>  0 0.83942361E+03</rscale>
<asrwt>0</asrwt>
<pdfrwt beam="1">  1        1 0.13180889E-01 0.83942361E+03</pdfrwt>
<pdfrwt beam="2">  1       -1 0.27274800E+00 0.83942361E+03</pdfrwt>
<totfact> 0.23419258E+01</totfact>
</mgrwt>
</event>
<event>
 4    1  0.6282309E-006  0.4764852E+03  0.7818608E-02  0.1020106E+00
          1   -1    0    0  501    0  0.00000000000E+00  0.00000000000E+00  0.38742677758E+03  0.38742677762E+03  0.50400000000E-02 0.  1.
         -1   -1    0    0    0  501 -0.00000000000E+00 -0.00000000000E+00 -0.14650391833E+03  0.14650391842E+03  0.50400000000E-02 0. -1.
    5000001    1    1    2    0    0  0.64920373334E+02  0.93643577235E+02  0.19286359509E+03  0.29963501254E+03  0.19900000000E+03 0.  0.
   -5000001    1    1    2    0    0 -0.64920373334E+02 -0.93643577235E+02  0.48059264162E+02  0.23429568349E+03  0.19900000000E+03 0.  0.
<mgrwt>
<rscale>  0 0.47648522E+03</rscale>
<asrwt>0</asrwt>
<pdfrwt beam="1">  1        1 0.55346683E-01 0.47648522E+03</pdfrwt>
<pdfrwt beam="2">  1       -1 0.20929131E-01 0.47648522E+03</pdfrwt>
<totfact> 0.13063193E+03</totfact>
</mgrwt>
</event>
<event>
 4    1  0.6282309E-006  0.6135717E+03  0.7818608E-02  0.9877642E-01
         -1   -1    0    0    0  501 -0.00000000000E+00  0.00000000000E+00  0.52933995138E+02  0.52933995378E+02  0.50400000000E-02 0. -1.
          1   -1    0    0  501    0  0.00000000000E+00 -0.00000000000E+00 -0.17780175390E+04  0.17780175390E+04  0.50400000000E-02 0.  1.
    5000001    1    1    2    0    0  0.53970660646E+02 -0.16053108686E+03 -0.38291523508E+03  0.46358185827E+03  0.19900000000E+03 0.  0.
   -5000001    1    1    2    0    0 -0.53970660646E+02  0.16053108686E+03 -0.13421683087E+04  0.13673696761E+04  0.19900000000E+03 0.  0.
<mgrwt>
<rscale>  0 0.61357175E+03</rscale>
<asrwt>0</asrwt>
<pdfrwt beam="1">  1        1 0.25400247E+00 0.61357175E+03</pdfrwt>
<pdfrwt beam="2">  1       -1 0.75620004E-02 0.61357175E+03</pdfrwt>
<totfact> 0.51886817E+02</totfact>
</mgrwt>
</event>
<event>
 4    1  0.6282309E-006  0.6781005E+03  0.7818608E-02  0.9755434E-01
          1   -1    0    0  501    0  0.00000000000E+00  0.00000000000E+00  0.40138861660E+03  0.40138861663E+03  0.50400000000E-02 0.  1.
         -1   -1    0    0    0  501 -0.00000000000E+00 -0.00000000000E+00 -0.28639344010E+03  0.28639344015E+03  0.50400000000E-02 0. -1.
    5000001    1    1    2    0    0 -0.26861879711E+03 -0.56267718327E+02  0.51764231518E+02  0.34293242768E+03  0.19900000000E+03 0.  0.
   -5000001    1    1    2    0    0  0.26861879711E+03  0.56267718327E+02  0.63230944978E+02  0.34484962910E+03  0.19900000000E+03 0.  0.
<mgrwt>
<rscale>  0 0.67810048E+03</rscale>
<asrwt>0</asrwt>
<pdfrwt beam="1">  1        1 0.57341231E-01 0.67810048E+03</pdfrwt>
<pdfrwt beam="2">  1       -1 0.40913349E-01 0.67810048E+03</pdfrwt>
<totfact> 0.38936464E+02</totfact>
</mgrwt>
</event>
<event>
 4    1  0.6282309E-006  0.5125404E+03  0.7818608E-02  0.1010557E+00
         -1   -1    0    0    0  501 -0.00000000000E+00  0.00000000000E+00  0.18244825951E+03  0.18244825958E+03  0.50400000000E-02 0. -1.
          1   -1    0    0  501    0  0.00000000000E+00 -0.00000000000E+00 -0.35996179749E+03  0.35996179752E+03  0.50400000000E-02 0.  1.
    5000001    1    1    2    0    0 -0.17474378858E+02 -0.14124397731E+03 -0.16947907510E+03  0.29762286864E+03  0.19900000000E+03 0.  0.
   -5000001    1    1    2    0    0  0.17474378858E+02  0.14124397731E+03 -0.80344628697E+01  0.24478718846E+03  0.19900000000E+03 0.  0.
<mgrwt>
<rscale>  0 0.51254035E+03</rscale>
<asrwt>0</asrwt>
<pdfrwt beam="1">  1        1 0.51423114E-01 0.51254035E+03</pdfrwt>
<pdfrwt beam="2">  1       -1 0.26064037E-01 0.51254035E+03</pdfrwt>
<totfact> 0.99417438E+02</totfact>
</mgrwt>
</event>
<event>
 4    1  0.6282309E-006  0.8720436E+03  0.7818608E-02  0.9461219E-01
         -1   -1    0    0    0  501 -0.00000000000E+00  0.00000000000E+00  0.47369782743E+02  0.47369783012E+02  0.50400000000E-02 0. -1.
          1   -1    0    0  501    0  0.00000000000E+00 -0.00000000000E+00 -0.40134239245E+04  0.40134239245E+04  0.50400000000E-02 0.  1.
    5000001    1    1    2    0    0 -0.24447618758E+03  0.14082705862E+03 -0.32230682733E+04  0.32415075136E+04  0.19900000000E+03 0.  0.
   -5000001    1    1    2    0    0  0.24447618758E+03 -0.14082705862E+03 -0.74298586852E+03  0.81928619392E+03  0.19900000000E+03 0.  0.
<mgrwt>
<rscale>  0 0.87204362E+03</rscale>
<asrwt>0</asrwt>
<pdfrwt beam="1">  1        1 0.57334606E+00 0.87204362E+03</pdfrwt>
<pdfrwt beam="2">  1       -1 0.67671144E-02 0.87204362E+03</pdfrwt>
<totfact> 0.20345886E+01</totfact>
</mgrwt>
</event>
<event>
 4    1  0.6282309E-006  0.5667097E+03  0.7818608E-02  0.9976986E-01
          1   -1    0    0  501    0  0.00000000000E+00  0.00000000000E+00  0.47331505454E+03  0.47331505457E+03  0.50400000000E-02 0. -1.
         -1   -1    0    0    0  501 -0.00000000000E+00 -0.00000000000E+00 -0.16963323035E+03  0.16963323042E+03  0.50400000000E-02 0.  1.
    5000001    1    1    2    0    0  0.20164862084E+03 -0.14087845389E+01  0.15749204276E+03  0.32414332400E+03  0.19900000000E+03 0.  0.
   -5000001    1    1    2    0    0 -0.20164862084E+03  0.14087845389E+01  0.14618978143E+03  0.31880496100E+03  0.19900000000E+03 0.  0.
<mgrwt>
<rscale>  0 0.56670967E+03</rscale>
<asrwt>0</asrwt>
<pdfrwt beam="1">  1        1 0.67616437E-01 0.56670967E+03</pdfrwt>
<pdfrwt beam="2">  1       -1 0.24233318E-01 0.56670967E+03</pdfrwt>
<totfact> 0.78548111E+02</totfact>
</mgrwt>
</event>
<event>
 4    1  0.6282309E-006  0.5300750E+03  0.7818608E-02  0.1006214E+00
          1   -1    0    0  501    0  0.00000000000E+00  0.00000000000E+00  0.13887430355E+04  0.13887430355E+04  0.50400000000E-02 0.  1.
         -1   -1    0    0    0  501 -0.00000000000E+00 -0.00000000000E+00 -0.50581626128E+02  0.50581626379E+02  0.50400000000E-02 0. -1.
    5000001    1    1    2    0    0  0.12321307797E+03 -0.12102063499E+03  0.74666600569E+03  0.79179453189E+03  0.19900000000E+03 0.  0.
   -5000001    1    1    2    0    0 -0.12321307797E+03  0.12102063499E+03  0.59149540366E+03  0.64753012997E+03  0.19900000000E+03 0.  0.
<mgrwt>
<rscale>  0 0.53007502E+03</rscale>
<asrwt>0</asrwt>
<pdfrwt beam="1">  1        1 0.19839184E+00 0.53007502E+03</pdfrwt>
<pdfrwt beam="2">  1       -1 0.72259474E-02 0.53007502E+03</pdfrwt>
<totfact> 0.98775789E+02</totfact>
</mgrwt>
</event>
<event>
 4    1  0.6282309E-006  0.1057013E+04  0.7818608E-02  0.9248133E-01
         -1   -1    0    0    0  501 -0.00000000000E+00  0.00000000000E+00  0.27259046269E+03  0.27259046274E+03  0.50400000000E-02 0. -1.
          1   -1    0    0  501    0  0.00000000000E+00 -0.00000000000E+00 -0.10246843226E+04  0.10246843226E+04  0.50400000000E-02 0.  1.
    5000001    1    1    2    0    0 -0.95877161671E+02 -0.42899248565E+03 -0.64067562909E+03  0.80205563684E+03  0.19900000000E+03 0.  0.
   -5000001    1    1    2    0    0  0.95877161671E+02  0.42899248565E+03 -0.11141823080E+03  0.49521914849E+03  0.19900000000E+03 0.  0.
<mgrwt>
<rscale>  0 0.10570131E+04</rscale>
<asrwt>0</asrwt>
<pdfrwt beam="1">  1        1 0.14638347E+00 0.10570131E+04</pdfrwt>
<pdfrwt beam="2">  1       -1 0.38941495E-01 0.10570131E+04</pdfrwt>
<totfact> 0.10556007E+02</totfact>
</mgrwt>
</event>
<event>
 4    1  0.6282309E-006  0.5125124E+03  0.7818608E-02  0.1010564E+00
          1   -1    0    0  501    0  0.00000000000E+00  0.00000000000E+00  0.44564645536E+03  0.44564645539E+03  0.50400000000E-02 0.  1.
         -1   -1    0    0    0  501 -0.00000000000E+00 -0.00000000000E+00 -0.14735276613E+03  0.14735276621E+03  0.50400000000E-02 0. -1.
    5000001    1    1    2    0    0  0.27337819246E+02 -0.12121284331E+03  0.29874058143E+02  0.23650236594E+03  0.19900000000E+03 0.  0.
   -5000001    1    1    2    0    0 -0.27337819246E+02  0.12121284331E+03  0.26841963109E+03  0.35649685566E+03  0.19900000000E+03 0.  0.
<mgrwt>
<rscale>  0 0.51251239E+03</rscale>
<asrwt>0</asrwt>
<pdfrwt beam="1">  1        1 0.63663780E-01 0.51251239E+03</pdfrwt>
<pdfrwt beam="2">  1       -1 0.21050395E-01 0.51251239E+03</pdfrwt>
<totfact> 0.10777150E+03</totfact>
</mgrwt>
</event>
<event>
 4    1  0.6282309E-006  0.8152020E+03  0.7818608E-02  0.9538270E-01
          1   -1    0    0  501    0  0.00000000000E+00  0.00000000000E+00  0.67751204527E+03  0.67751204529E+03  0.50400000000E-02 0.  1.
         -1   -1    0    0    0  501 -0.00000000000E+00 -0.00000000000E+00 -0.24521863694E+03  0.24521863700E+03  0.50400000000E-02 0. -1.
    5000001    1    1    2    0    0 -0.10068606330E+03 -0.22561604165E+03 -0.73535231033E+02  0.32565121187E+03  0.19900000000E+03 0.  0.
   -5000001    1    1    2    0    0  0.10068606330E+03  0.22561604165E+03  0.50582863936E+03  0.59707947042E+03  0.19900000000E+03 0.  0.
<mgrwt>
<rscale>  0 0.81520201E+03</rscale>
<asrwt>0</asrwt>
<pdfrwt beam="1">  1        1 0.96787435E-01 0.81520201E+03</pdfrwt>
<pdfrwt beam="2">  1       -1 0.35031234E-01 0.81520201E+03</pdfrwt>
<totfact> 0.24972354E+02</totfact>
</mgrwt>
</event>
<event>
 4    1  0.6282309E-006  0.4901520E+03  0.7818608E-02  0.1016382E+00
         -1   -1    0    0    0  501 -0.00000000000E+00  0.00000000000E+00  0.38725232310E+02  0.38725232638E+02  0.50400000000E-02 0.  1.
          1   -1    0    0  501    0  0.00000000000E+00 -0.00000000000E+00 -0.15509848357E+04  0.15509848357E+04  0.50400000000E-02 0. -1.
    5000001    1    1    2    0    0 -0.10021988894E+03  0.39867348375E+02 -0.10608588047E+04  0.10847376804E+04  0.19900000000E+03 0.  0.
   -5000001    1    1    2    0    0  0.10021988894E+03 -0.39867348375E+02 -0.45140079866E+03  0.50497238799E+03  0.19900000000E+03 0.  0.
<mgrwt>
<rscale>  0 0.49015201E+03</rscale>
<asrwt>0</asrwt>
<pdfrwt beam="1">  1        1 0.22156922E+00 0.49015201E+03</pdfrwt>
<pdfrwt beam="2">  1       -1 0.55321770E-02 0.49015201E+03</pdfrwt>
<totfact> 0.11740683E+03</totfact>
</mgrwt>
</event>
<event>
 4    1  0.6282309E-006  0.6397621E+03  0.7818608E-02  0.9826182E-01
          1   -1    0    0  501    0  0.00000000000E+00  0.00000000000E+00  0.17011649983E+04  0.17011649983E+04  0.50400000000E-02 0.  1.
         -1   -1    0    0    0  501 -0.00000000000E+00 -0.00000000000E+00 -0.60149299704E+02  0.60149299915E+02  0.50400000000E-02 0. -1.
    5000001    1    1    2    0    0  0.11597056232E+03 -0.21493074578E+03  0.97325988242E+03  0.10229761461E+04  0.19900000000E+03 0.  0.
   -5000001    1    1    2    0    0 -0.11597056232E+03  0.21493074578E+03  0.66775581616E+03  0.73833815209E+03  0.19900000000E+03 0.  0.
<mgrwt>
<rscale>  0 0.63976209E+03</rscale>
<asrwt>0</asrwt>
<pdfrwt beam="1">  1        1 0.24302359E+00 0.63976209E+03</pdfrwt>
<pdfrwt beam="2">  1       -1 0.85927565E-02 0.63976209E+03</pdfrwt>
<totfact> 0.47398463E+02</totfact>
</mgrwt>
</event>
<event>
 4    1  0.6282309E-006  0.4562923E+03  0.7818608E-02  0.1025862E+00
         -1   -1    0    0    0  501 -0.00000000000E+00  0.00000000000E+00  0.10189341466E+03  0.10189341478E+03  0.50400000000E-02 0. -1.
          1   -1    0    0  501    0  0.00000000000E+00 -0.00000000000E+00 -0.51083435268E+03  0.51083435270E+03  0.50400000000E-02 0.  1.
    5000001    1    1    2    0    0  0.19258734560E+02  0.92450852429E+02 -0.12466915061E+03  0.25310364692E+03  0.19900000000E+03 0.  0.
   -5000001    1    1    2    0    0 -0.19258734560E+02 -0.92450852429E+02 -0.28427178741E+03  0.35962412056E+03  0.19900000000E+03 0.  0.
<mgrwt>
<rscale>  0 0.45629226E+03</rscale>
<asrwt>0</asrwt>
<pdfrwt beam="1">  1        1 0.72976335E-01 0.45629226E+03</pdfrwt>
<pdfrwt beam="2">  1       -1 0.14556202E-01 0.45629226E+03</pdfrwt>
<totfact> 0.16413750E+03</totfact>
</mgrwt>
</event>
<event>
 4    1  0.6282309E-006  0.8265344E+03  0.7818608E-02  0.9522384E-01
          1   -1    0    0  501    0  0.00000000000E+00  0.00000000000E+00  0.79162851148E+03  0.79162851150E+03  0.50400000000E-02 0.  1.
         -1   -1    0    0    0  501 -0.00000000000E+00 -0.00000000000E+00 -0.21574483086E+03  0.21574483092E+03  0.50400000000E-02 0. -1.
    5000001    1    1    2    0    0  0.20711539264E+03 -0.20869529107E+02  0.64919889482E+03  0.71020597586E+03  0.19900000000E+03 0.  0.
   -5000001    1    1    2    0    0 -0.20711539264E+03  0.20869529107E+02 -0.73315214203E+02  0.29716736656E+03  0.19900000000E+03 0.  0.
<mgrwt>
<rscale>  0 0.82653435E+03</rscale>
<asrwt>0</asrwt>
<pdfrwt beam="1">  1        1 0.11308979E+00 0.82653435E+03</pdfrwt>
<pdfrwt beam="2">  1       -1 0.30820690E-01 0.82653435E+03</pdfrwt>
<totfact> 0.24777989E+02</totfact>
</mgrwt>
</event>
<event>
 4    1  0.6282309E-006  0.7283127E+03  0.7818608E-02  0.9670002E-01
         -1   -1    0    0    0  501 -0.00000000000E+00  0.00000000000E+00  0.19439124732E+04  0.19439124732E+04  0.50400000000E-02 0. -1.
          1   -1    0    0  501    0  0.00000000000E+00 -0.00000000000E+00 -0.68218010670E+02  0.68218010856E+02  0.50400000000E-02 0.  1.
    5000001    1    1    2    0    0  0.30408124824E+03 -0.15679068113E+02  0.89018688915E+03  0.96163659265E+03  0.19900000000E+03 0.  0.
   -5000001    1    1    2    0    0 -0.30408124824E+03  0.15679068113E+02  0.98550757335E+03  0.10504938914E+04  0.19900000000E+03 0.  0.
<mgrwt>
<rscale>  0 0.72831269E+03</rscale>
<asrwt>0</asrwt>
<pdfrwt beam="1">  1        1 0.97454299E-02 0.72831269E+03</pdfrwt>
<pdfrwt beam="2">  1       -1 0.27770179E+00 0.72831269E+03</pdfrwt>
<totfact> 0.33280111E+01</totfact>
</mgrwt>
</event>
<event>
 4    1  0.6282309E-006  0.1300041E+04  0.7818608E-02  0.9029533E-01
          1   -1    0    0  501    0  0.00000000000E+00  0.00000000000E+00  0.23144073202E+03  0.23144073207E+03  0.50400000000E-02 0. -1.
         -1   -1    0    0    0  501 -0.00000000000E+00 -0.00000000000E+00 -0.18256366321E+04  0.18256366321E+04  0.50400000000E-02 0.  1.
    5000001    1    1    2    0    0  0.94249708083E+00 -0.43912688904E+03 -0.14869816746E+04  0.15631854700E+04  0.19900000000E+03 0.  0.
   -5000001    1    1    2    0    0 -0.94249708083E+00  0.43912688904E+03 -0.10721422545E+03  0.49389189416E+03  0.19900000000E+03 0.  0.
<mgrwt>
<rscale>  0 0.13000410E+04</rscale>
<asrwt>0</asrwt>
<pdfrwt beam="1">  1        1 0.33062963E-01 0.13000410E+04</pdfrwt>
<pdfrwt beam="2">  1       -1 0.26080523E+00 0.13000410E+04</pdfrwt>
<totfact> 0.79141341E+00</totfact>
</mgrwt>
</event>
<event>
 4    1  0.6282309E-006  0.5599412E+03  0.7818608E-02  0.9992188E-01
          1   -1    0    0  501    0  0.00000000000E+00  0.00000000000E+00  0.23963129902E+03  0.23963129907E+03  0.50400000000E-02 0.  1.
         -1   -1    0    0    0  501 -0.00000000000E+00 -0.00000000000E+00 -0.32710056879E+03  0.32710056883E+03  0.50400000000E-02 0. -1.
    5000001    1    1    2    0    0  0.84826098329E+02  0.10481391815E+03  0.10153690047E+03  0.26094475766E+03  0.19900000000E+03 0.  0.
   -5000001    1    1    2    0    0 -0.84826098329E+02 -0.10481391815E+03 -0.18900617025E+03  0.30578711024E+03  0.19900000000E+03 0.  0.
<mgrwt>
<rscale>  0 0.55994119E+03</rscale>
<asrwt>0</asrwt>
<pdfrwt beam="1">  1        1 0.34233043E-01 0.55994119E+03</pdfrwt>
<pdfrwt beam="2">  1       -1 0.46728652E-01 0.55994119E+03</pdfrwt>
<totfact> 0.59578898E+02</totfact>
</mgrwt>
</event>
<event>
 4    1  0.6282309E-006  0.1712611E+04  0.7818608E-02  0.8754204E-01
         -1   -1    0    0    0  501 -0.00000000000E+00  0.00000000000E+00  0.28964505419E+04  0.28964505419E+04  0.50400000000E-02 0. -1.
          1   -1    0    0  501    0  0.00000000000E+00 -0.00000000000E+00 -0.25315789744E+03  0.25315789749E+03  0.50400000000E-02 0.  1.
    5000001    1    1    2    0    0  0.72168012626E+03  0.41562881201E+03  0.13043146024E+04  0.15602586632E+04  0.19900000000E+03 0.  0.
   -5000001    1    1    2    0    0 -0.72168012626E+03 -0.41562881201E+03  0.13389780421E+04  0.15893497763E+04  0.19900000000E+03 0.  0.
<mgrwt>
<rscale>  0 0.17126113E+04</rscale>
<asrwt>0</asrwt>
<pdfrwt beam="1">  1        1 0.36165417E-01 0.17126113E+04</pdfrwt>
<pdfrwt beam="2">  1       -1 0.41377862E+00 0.17126113E+04</pdfrwt>
<totfact> 0.66317231E-01</totfact>
</mgrwt>
</event>
<event>
 4    1  0.6282309E-006  0.5181982E+03  0.7818608E-02  0.1009135E+00
          1   -1    0    0  501    0  0.00000000000E+00  0.00000000000E+00  0.15881587840E+04  0.15881587840E+04  0.50400000000E-02 0.  1.
         -1   -1    0    0    0  501 -0.00000000000E+00 -0.00000000000E+00 -0.42270541907E+02  0.42270542207E+02  0.50400000000E-02 0. -1.
    5000001    1    1    2    0    0 -0.13256644562E+03  0.47215558825E+02  0.49634920114E+03  0.55296175362E+03  0.19900000000E+03 0.  0.
   -5000001    1    1    2    0    0  0.13256644562E+03 -0.47215558825E+02  0.10495390410E+04  0.10774675726E+04  0.19900000000E+03 0.  0.
<mgrwt>
<rscale>  0 0.51819816E+03</rscale>
<asrwt>0</asrwt>
<pdfrwt beam="1">  1        1 0.22687987E+00 0.51819816E+03</pdfrwt>
<pdfrwt beam="2">  1       -1 0.60386478E-02 0.51819816E+03</pdfrwt>
<totfact> 0.97138912E+02</totfact>
</mgrwt>
</event>
<event>
 4    1  0.6282309E-006  0.5384932E+03  0.7818608E-02  0.1004193E+00
          1   -1    0    0  501    0  0.00000000000E+00  0.00000000000E+00  0.28028094594E+03  0.28028094599E+03  0.50400000000E-02 0.  1.
         -1   -1    0    0    0  501 -0.00000000000E+00 -0.00000000000E+00 -0.25864665973E+03  0.25864665978E+03  0.50400000000E-02 0. -1.
    5000001    1    1    2    0    0 -0.16029561567E+03 -0.84194007550E+02  0.21285752174E+02  0.26988404650E+03  0.19900000000E+03 0.  0.
   -5000001    1    1    2    0    0  0.16029561567E+03  0.84194007550E+02  0.34853403749E+00  0.26904355927E+03  0.19900000000E+03 0.  0.
<mgrwt>
<rscale>  0 0.53849320E+03</rscale>
<asrwt>0</asrwt>
<pdfrwt beam="1">  1        1 0.40040135E-01 0.53849320E+03</pdfrwt>
<pdfrwt beam="2">  1       -1 0.36949523E-01 0.53849320E+03</pdfrwt>
<totfact> 0.74714572E+02</totfact>
</mgrwt>
</event>
<event>
 4    1  0.6282309E-006  0.4864535E+03  0.7818608E-02  0.1017376E+00
         -1   -1    0    0    0  501 -0.00000000000E+00  0.00000000000E+00  0.14134551498E+03  0.14134551507E+03  0.50400000000E-02 0. -1.
          1   -1    0    0  501    0  0.00000000000E+00 -0.00000000000E+00 -0.41854356658E+03  0.41854356661E+03  0.50400000000E-02 0.  1.
    5000001    1    1    2    0    0  0.26628478875E+02 -0.84703836963E+02 -0.26295844407E+03  0.34151421521E+03  0.19900000000E+03 0.  0.
   -5000001    1    1    2    0    0 -0.26628478875E+02  0.84703836963E+02 -0.14239607527E+02  0.21837486647E+03  0.19900000000E+03 0.  0.
<mgrwt>
<rscale>  0 0.48645352E+03</rscale>
<asrwt>0</asrwt>
<pdfrwt beam="1">  1        1 0.59791938E-01 0.48645352E+03</pdfrwt>
<pdfrwt beam="2">  1       -1 0.20192217E-01 0.48645352E+03</pdfrwt>
<totfact> 0.12537542E+03</totfact>
</mgrwt>
</event>
<event>
 4    1  0.6282309E-006  0.5893910E+03  0.7818608E-02  0.9927664E-01
          1   -1    0    0  501    0  0.00000000000E+00  0.00000000000E+00  0.17583467676E+04  0.17583467676E+04  0.50400000000E-02 0. -1.
         -1   -1    0    0    0  501 -0.00000000000E+00 -0.00000000000E+00 -0.49390399509E+02  0.49390399766E+02  0.50400000000E-02 0.  1.
    5000001    1    1    2    0    0 -0.19506996337E+03  0.54457234224E+02  0.10965009090E+04  0.11326663782E+04  0.19900000000E+03 0.  0.
   -5000001    1    1    2    0    0  0.19506996337E+03 -0.54457234224E+02  0.61245545911E+03  0.67507078915E+03  0.19900000000E+03 0.  0.
<mgrwt>
<rscale>  0 0.58939104E+03</rscale>
<asrwt>0</asrwt>
<pdfrwt beam="1">  1        1 0.25119241E+00 0.58939104E+03</pdfrwt>
<pdfrwt beam="2">  1       -1 0.70557710E-02 0.58939104E+03</pdfrwt>
<totfact> 0.59526737E+02</totfact>
</mgrwt>
</event>
<event>
 4    1  0.6282309E-006  0.5811355E+03  0.7818608E-02  0.9945336E-01
          1   -1    0    0  501    0  0.00000000000E+00  0.00000000000E+00  0.60876015767E+03  0.60876015769E+03  0.50400000000E-02 0.  1.
         -1   -1    0    0    0  501 -0.00000000000E+00 -0.00000000000E+00 -0.13869108040E+03  0.13869108049E+03  0.50400000000E-02 0. -1.
    5000001    1    1    2    0    0  0.20612260146E+03 -0.96107145878E+01  0.29604002485E+03  0.41209172399E+03  0.19900000000E+03 0.  0.
   -5000001    1    1    2    0    0 -0.20612260146E+03  0.96107145878E+01  0.17402905242E+03  0.33535951419E+03  0.19900000000E+03 0.  0.
<mgrwt>
<rscale>  0 0.58113545E+03</rscale>
<asrwt>0</asrwt>
<pdfrwt beam="1">  1        1 0.86965738E-01 0.58113545E+03</pdfrwt>
<pdfrwt beam="2">  1       -1 0.19813011E-01 0.58113545E+03</pdfrwt>
<totfact> 0.78003991E+02</totfact>
</mgrwt>
</event>
<event>
 4    1  0.6282309E-006  0.4461901E+03  0.7818608E-02  0.1028864E+00
         -1   -1    0    0    0  501 -0.00000000000E+00  0.00000000000E+00  0.20185576943E+03  0.20185576949E+03  0.50400000000E-02 0. -1.
          1   -1    0    0  501    0  0.00000000000E+00 -0.00000000000E+00 -0.24656918187E+03  0.24656918192E+03  0.50400000000E-02 0.  1.
    5000001    1    1    2    0    0 -0.35309935352E+02  0.93540994871E+02 -0.91110624851E+01  0.22289172420E+03  0.19900000000E+03 0.  0.
   -5000001    1    1    2    0    0  0.35309935352E+02 -0.93540994871E+02 -0.35602349955E+02  0.22553322722E+03  0.19900000000E+03 0.  0.
<mgrwt>
<rscale>  0 0.44619015E+03</rscale>
<asrwt>0</asrwt>
<pdfrwt beam="1">  1        1 0.35224168E-01 0.44619015E+03</pdfrwt>
<pdfrwt beam="2">  1       -1 0.28836539E-01 0.44619015E+03</pdfrwt>
<totfact> 0.13579621E+03</totfact>
</mgrwt>
</event>
<event>
 4    1  0.6282309E-006  0.8378190E+03  0.7818608E-02  0.9506833E-01
         -1   -1    0    0    0  501 -0.00000000000E+00  0.00000000000E+00  0.50911307301E+03  0.50911307304E+03  0.50400000000E-02 0. -1.
          1   -1    0    0  501    0  0.00000000000E+00 -0.00000000000E+00 -0.34468799779E+03  0.34468799783E+03  0.50400000000E-02 0.  1.
    5000001    1    1    2    0    0 -0.32173922785E+03 -0.17943084435E+03  0.68823914696E+02  0.42432215341E+03  0.19900000000E+03 0.  0.
   -5000001    1    1    2    0    0  0.32173922785E+03  0.17943084435E+03  0.95601160524E+02  0.42947891745E+03  0.19900000000E+03 0.  0.
<mgrwt>
<rscale>  0 0.83781899E+03</rscale>
<asrwt>0</asrwt>
<pdfrwt beam="1">  1        1 0.49241143E-01 0.83781899E+03</pdfrwt>
<pdfrwt beam="2">  1       -1 0.72730438E-01 0.83781899E+03</pdfrwt>
<totfact> 0.15512956E+02</totfact>
</mgrwt>
</event>
<event>
 4    1  0.6282309E-006  0.8309302E+03  0.7818608E-02  0.9516295E-01
         -1   -1    0    0    0  501 -0.00000000000E+00  0.00000000000E+00  0.41419426775E+03  0.41419426778E+03  0.50400000000E-02 0. -1.
          1   -1    0    0  501    0  0.00000000000E+00 -0.00000000000E+00 -0.41673983833E+03  0.41673983836E+03  0.50400000000E-02 0.  1.
    5000001    1    1    2    0    0 -0.34795426572E+03  0.22546334407E+02  0.10563769711E+03  0.41513953230E+03  0.19900000000E+03 0.  0.
   -5000001    1    1    2    0    0  0.34795426572E+03 -0.22546334407E+02 -0.10818326768E+03  0.41579457384E+03  0.19900000000E+03 0.  0.
<mgrwt>
<rscale>  0 0.83093021E+03</rscale>
<asrwt>0</asrwt>
<pdfrwt beam="1">  1        1 0.59534263E-01 0.83093021E+03</pdfrwt>
<pdfrwt beam="2">  1       -1 0.59170610E-01 0.83093021E+03</pdfrwt>
<totfact> 0.18338465E+02</totfact>
</mgrwt>
</event>
<event>
 4    1  0.6282309E-006  0.5310841E+03  0.7818608E-02  0.1005970E+00
          1   -1    0    0  501    0  0.00000000000E+00  0.00000000000E+00  0.42133693767E+03  0.42133693770E+03  0.50400000000E-02 0. -1.
         -1   -1    0    0    0  501 -0.00000000000E+00 -0.00000000000E+00 -0.16735438974E+03  0.16735438982E+03  0.50400000000E-02 0.  1.
    5000001    1    1    2    0    0  0.15438347473E+03 -0.30467415476E+02  0.21391310734E+03  0.33184685951E+03  0.19900000000E+03 0.  0.
   -5000001    1    1    2    0    0 -0.15438347473E+03  0.30467415476E+02  0.40069440585E+02  0.25684446800E+03  0.19900000000E+03 0.  0.
<mgrwt>
<rscale>  0 0.53108412E+03</rscale>
<asrwt>0</asrwt>
<pdfrwt beam="1">  1        1 0.60190991E-01 0.53108412E+03</pdfrwt>
<pdfrwt beam="2">  1       -1 0.23907770E-01 0.53108412E+03</pdfrwt>
<totfact> 0.93748032E+02</totfact>
</mgrwt>
</event>
<event>
 4    1  0.6282309E-006  0.5040942E+03  0.7818608E-02  0.1012716E+00
         -1   -1    0    0    0  501 -0.00000000000E+00  0.00000000000E+00  0.14030999125E+02  0.14031000030E+02  0.50400000000E-02 0. -1.
          1   -1    0    0  501    0  0.00000000000E+00 -0.00000000000E+00 -0.45276710590E+04  0.45276710590E+04  0.50400000000E-02 0.  1.
    5000001    1    1    2    0    0 -0.11896638658E+03  0.59951103854E+02 -0.15485683625E+04  0.15669754655E+04  0.19900000000E+03 0.  0.
   -5000001    1    1    2    0    0  0.11896638658E+03 -0.59951103854E+02 -0.29650716973E+04  0.29747265935E+04  0.19900000000E+03 0.  0.
<mgrwt>
<rscale>  0 0.50409424E+03</rscale>
<asrwt>0</asrwt>
<pdfrwt beam="1">  1        1 0.64680922E+00 0.50409424E+03</pdfrwt>
<pdfrwt beam="2">  1       -1 0.20044314E-02 0.50409424E+03</pdfrwt>
<totfact> 0.53553154E+01</totfact>
</mgrwt>
</event>
<event>
 4    1  0.6282309E-006  0.1277882E+04  0.7818608E-02  0.9047291E-01
          1   -1    0    0  501    0  0.00000000000E+00  0.00000000000E+00  0.17790163499E+03  0.17790163506E+03  0.50400000000E-02 0.  1.
         -1   -1    0    0    0  501 -0.00000000000E+00 -0.00000000000E+00 -0.22947816565E+04  0.22947816565E+04  0.50400000000E-02 0. -1.
    5000001    1    1    2    0    0  0.46898254821E+03  0.32873274539E+03 -0.14484948104E+04  0.15702700609E+04  0.19900000000E+03 0.  0.
   -5000001    1    1    2    0    0 -0.46898254821E+03 -0.32873274539E+03 -0.66838521105E+03  0.90241323061E+03  0.19900000000E+03 0.  0.
<mgrwt>
<rscale>  0 0.12778817E+04</rscale>
<asrwt>0</asrwt>
<pdfrwt beam="1">  1        1 0.25414521E-01 0.12778817E+04</pdfrwt>
<pdfrwt beam="2">  1       -1 0.32782593E+00 0.12778817E+04</pdfrwt>
<totfact> 0.41269692E+00</totfact>
</mgrwt>
</event>
<event>
 4    1  0.6282309E-006  0.2553787E+04  0.7818608E-02  0.8384070E-01
          1   -1    0    0  501    0  0.00000000000E+00  0.00000000000E+00  0.12704389849E+04  0.12704389849E+04  0.50400000000E-02 0.  1.
         -1   -1    0    0    0  501 -0.00000000000E+00 -0.00000000000E+00 -0.12833807232E+04  0.12833807232E+04  0.50400000000E-02 0. -1.
    5000001    1    1    2    0    0 -0.84499734941E+03  0.28054175517E+03  0.88692277493E+03  0.12723824919E+04  0.19900000000E+03 0.  0.
   -5000001    1    1    2    0    0  0.84499734941E+03 -0.28054175517E+03 -0.89986451328E+03  0.12814372162E+04  0.19900000000E+03 0.  0.
<mgrwt>
<rscale>  0 0.25537869E+04</rscale>
<asrwt>0</asrwt>
<pdfrwt beam="1">  1        1 0.18149128E+00 0.25537869E+04</pdfrwt>
<pdfrwt beam="2">  1       -1 0.18334010E+00 0.25537869E+04</pdfrwt>
<totfact> 0.19387087E+00</totfact>
</mgrwt>
</event>
<event>
 4    1  0.6282309E-006  0.6718701E+03  0.7818608E-02  0.9766585E-01
          1   -1    0    0  501    0  0.00000000000E+00  0.00000000000E+00  0.57906841512E+03  0.57906841514E+03  0.50400000000E-02 0. -1.
         -1   -1    0    0    0  501 -0.00000000000E+00 -0.00000000000E+00 -0.19488604822E+03  0.19488604828E+03  0.50400000000E-02 0.  1.
    5000001    1    1    2    0    0  0.32809938394E+01 -0.22412664508E+03  0.36682139289E+03  0.47371135963E+03  0.19900000000E+03 0.  0.
   -5000001    1    1    2    0    0 -0.32809938394E+01  0.22412664508E+03  0.17360974009E+02  0.30024310379E+03  0.19900000000E+03 0.  0.
<mgrwt>
<rscale>  0 0.67187009E+03</rscale>
<asrwt>0</asrwt>
<pdfrwt beam="1">  1        1 0.82724062E-01 0.67187009E+03</pdfrwt>
<pdfrwt beam="2">  1       -1 0.27840863E-01 0.67187009E+03</pdfrwt>
<totfact> 0.46991327E+02</totfact>
</mgrwt>
</event>
<event>
 4    1  0.6282309E-006  0.1254105E+04  0.7818608E-02  0.9066774E-01
          1   -1    0    0  501    0  0.00000000000E+00  0.00000000000E+00  0.63440095502E+03  0.63440095504E+03  0.50400000000E-02 0.  1.
         -1   -1    0    0    0  501 -0.00000000000E+00 -0.00000000000E+00 -0.61978884325E+03  0.61978884327E+03  0.50400000000E-02 0. -1.
    5000001    1    1    2    0    0 -0.33865676717E+03  0.48759650452E+03  0.41291842701E+02  0.62749085527E+03  0.19900000000E+03 0.  0.
   -5000001    1    1    2    0    0  0.33865676717E+03 -0.48759650452E+03 -0.26679730924E+02  0.62669894304E+03  0.19900000000E+03 0.  0.
<mgrwt>
<rscale>  0 0.12541047E+04</rscale>
<asrwt>0</asrwt>
<pdfrwt beam="1">  1        1 0.90628708E-01 0.12541047E+04</pdfrwt>
<pdfrwt beam="2">  1       -1 0.88541263E-01 0.12541047E+04</pdfrwt>
<totfact> 0.43506034E+01</totfact>
</mgrwt>
</event>
<event>
 4    1  0.6282309E-006  0.8016362E+03  0.7818608E-02  0.9557652E-01
         -1   -1    0    0    0  501 -0.00000000000E+00  0.00000000000E+00  0.77042519426E+02  0.77042519591E+02  0.50400000000E-02 0. -1.
          1   -1    0    0  501    0  0.00000000000E+00 -0.00000000000E+00 -0.20852788665E+04  0.20852788665E+04  0.50400000000E-02 0.  1.
    5000001    1    1    2    0    0  0.30774779711E+03 -0.51303020438E+02 -0.58874338030E+03  0.69538512666E+03  0.19900000000E+03 0.  0.
   -5000001    1    1    2    0    0 -0.30774779711E+03  0.51303020438E+02 -0.14194929668E+04  0.14669362595E+04  0.19900000000E+03 0.  0.
<mgrwt>
<rscale>  0 0.80163617E+03</rscale>
<asrwt>0</asrwt>
<pdfrwt beam="1">  1        1 0.29789695E+00 0.80163617E+03</pdfrwt>
<pdfrwt beam="2">  1       -1 0.11006076E-01 0.80163617E+03</pdfrwt>
<totfact> 0.18255354E+02</totfact>
</mgrwt>
</event>
<event>
 4    1  0.6282309E-006  0.5037563E+03  0.7818608E-02  0.1012803E+00
          1   -1    0    0  501    0  0.00000000000E+00  0.00000000000E+00  0.29729766023E+03  0.29729766027E+03  0.50400000000E-02 0.  1.
         -1   -1    0    0    0  501 -0.00000000000E+00 -0.00000000000E+00 -0.21339762032E+03  0.21339762038E+03  0.50400000000E-02 0. -1.
    5000001    1    1    2    0    0  0.84707084567E+02  0.12400526858E+03  0.55526046588E+01  0.24936805776E+03  0.19900000000E+03 0.  0.
   -5000001    1    1    2    0    0 -0.84707084567E+02 -0.12400526858E+03  0.78347435253E+02  0.26132722289E+03  0.19900000000E+03 0.  0.
<mgrwt>
<rscale>  0 0.50375634E+03</rscale>
<asrwt>0</asrwt>
<pdfrwt beam="1">  1        1 0.42471094E-01 0.50375634E+03</pdfrwt>
<pdfrwt beam="2">  1       -1 0.30485375E-01 0.50375634E+03</pdfrwt>
<totfact> 0.97159396E+02</totfact>
</mgrwt>
</event>
<event>
 4    1  0.6282309E-006  0.5118716E+03  0.7818608E-02  0.1010726E+00
         -1   -1    0    0    0  501 -0.00000000000E+00  0.00000000000E+00  0.28905281503E+02  0.28905281942E+02  0.50400000000E-02 0. -1.
          1   -1    0    0  501    0  0.00000000000E+00 -0.00000000000E+00 -0.22661306794E+04  0.22661306795E+04  0.50400000000E-02 0.  1.
    5000001    1    1    2    0    0  0.13384949767E+03 -0.78709683774E+02 -0.92885224117E+03  0.96253747369E+03  0.19900000000E+03 0.  0.
   -5000001    1    1    2    0    0 -0.13384949767E+03  0.78709683774E+02 -0.13083731568E+04  0.13324984877E+04  0.19900000000E+03 0.  0.
<mgrwt>
<rscale>  0 0.51187165E+03</rscale>
<asrwt>0</asrwt>
<pdfrwt beam="1">  1        1 0.32373284E+00 0.51187165E+03</pdfrwt>
<pdfrwt beam="2">  1       -1 0.41293274E-02 0.51187165E+03</pdfrwt>
<totfact> 0.66068730E+02</totfact>
</mgrwt>
</event>
<event>
 4    1  0.6282309E-006  0.7724474E+03  0.7818608E-02  0.9600778E-01
         -1   -1    0    0    0  501 -0.00000000000E+00  0.00000000000E+00  0.16336551284E+03  0.16336551291E+03  0.50400000000E-02 0. -1.
          1   -1    0    0  501    0  0.00000000000E+00 -0.00000000000E+00 -0.91309816406E+03  0.91309816407E+03  0.50400000000E-02 0.  1.
    5000001    1    1    2    0    0  0.14463044460E+03 -0.25005531119E+03 -0.14963192763E+03  0.38136116468E+03  0.19900000000E+03 0.  0.
   -5000001    1    1    2    0    0 -0.14463044460E+03  0.25005531119E+03 -0.60010072360E+03  0.69510251231E+03  0.19900000000E+03 0.  0.
<mgrwt>
<rscale>  0 0.77244741E+03</rscale>
<asrwt>0</asrwt>
<pdfrwt beam="1">  1        1 0.13044259E+00 0.77244741E+03</pdfrwt>
<pdfrwt beam="2">  1       -1 0.23337931E-01 0.77244741E+03</pdfrwt>
<totfact> 0.31956078E+02</totfact>
</mgrwt>
</event>
<event>
 4    1  0.6282309E-006  0.5177301E+03  0.7818608E-02  0.1009252E+00
          1   -1    0    0  501    0  0.00000000000E+00  0.00000000000E+00  0.20999870152E+04  0.20999870152E+04  0.50400000000E-02 0. -1.
         -1   -1    0    0    0  501 -0.00000000000E+00 -0.00000000000E+00 -0.31910249968E+02  0.31910250366E+02  0.50400000000E-02 0.  1.
    5000001    1    1    2    0    0 -0.48064057016E+02  0.12708152928E+03  0.14236036823E+04  0.14438519013E+04  0.19900000000E+03 0.  0.
   -5000001    1    1    2    0    0  0.48064057016E+02 -0.12708152928E+03  0.64447308296E+03  0.68804536429E+03  0.19900000000E+03 0.  0.
<mgrwt>
<rscale>  0 0.51773009E+03</rscale>
<asrwt>0</asrwt>
<pdfrwt beam="1">  1        1 0.29999814E+00 0.51773009E+03</pdfrwt>
<pdfrwt beam="2">  1       -1 0.45586072E-02 0.51773009E+03</pdfrwt>
<totfact> 0.71908233E+02</totfact>
</mgrwt>
</event>
<event>
 4    1  0.6282309E-006  0.4819912E+03  0.7818608E-02  0.1018589E+00
          1   -1    0    0  501    0  0.00000000000E+00  0.00000000000E+00  0.69191220711E+03  0.69191220713E+03  0.50400000000E-02 0.  1.
         -1   -1    0    0    0  501 -0.00000000000E+00 -0.00000000000E+00 -0.83939675276E+02  0.83939675427E+02  0.50400000000E-02 0. -1.
    5000001    1    1    2    0    0  0.10505476360E+03  0.82325912227E+02  0.34545942311E+03  0.42042510890E+03  0.19900000000E+03 0.  0.
   -5000001    1    1    2    0    0 -0.10505476360E+03 -0.82325912227E+02  0.26251310873E+03  0.35542677366E+03  0.19900000000E+03 0.  0.
<mgrwt>
<rscale>  0 0.48199123E+03</rscale>
<asrwt>0</asrwt>
<pdfrwt beam="1">  1        1 0.98844599E-01 0.48199123E+03</pdfrwt>
<pdfrwt beam="2">  1       -1 0.11991382E-01 0.48199123E+03</pdfrwt>
<totfact> 0.14674567E+03</totfact>
</mgrwt>
</event>
<event>
 4    1  0.6282309E-006  0.4675454E+03  0.7818608E-02  0.1022615E+00
          1   -1    0    0  501    0  0.00000000000E+00  0.00000000000E+00  0.60093667811E+03  0.60093667814E+03  0.50400000000E-02 0.  1.
         -1   -1    0    0    0  501 -0.00000000000E+00 -0.00000000000E+00 -0.90940834461E+02  0.90940834601E+02  0.50400000000E-02 0. -1.
    5000001    1    1    2    0    0 -0.57495559849E+02  0.10771008766E+03  0.23739625085E+03  0.33296423577E+03  0.19900000000E+03 0.  0.
   -5000001    1    1    2    0    0  0.57495559849E+02 -0.10771008766E+03  0.27259959281E+03  0.35891327697E+03  0.19900000000E+03 0.  0.
<mgrwt>
<rscale>  0 0.46754543E+03</rscale>
<asrwt>0</asrwt>
<pdfrwt beam="1">  1        1 0.85848095E-01 0.46754543E+03</pdfrwt>
<pdfrwt beam="2">  1       -1 0.12991548E-01 0.46754543E+03</pdfrwt>
<totfact> 0.15777710E+03</totfact>
</mgrwt>
</event>
<event>
 4    1  0.6282309E-006  0.4996930E+03  0.7818608E-02  0.1013859E+00
         -1   -1    0    0    0  501 -0.00000000000E+00  0.00000000000E+00  0.91786857651E+03  0.91786857653E+03  0.50400000000E-02 0. -1.
          1   -1    0    0  501    0  0.00000000000E+00 -0.00000000000E+00 -0.68008958378E+02  0.68008958564E+02  0.50400000000E-02 0.  1.
    5000001    1    1    2    0    0  0.47084009186E+02  0.10645383462E+03  0.23494060318E+03  0.32916167737E+03  0.19900000000E+03 0.  0.
   -5000001    1    1    2    0    0 -0.47084009186E+02 -0.10645383462E+03  0.61491901495E+03  0.65671585772E+03  0.19900000000E+03 0.  0.
<mgrwt>
<rscale>  0 0.49969305E+03</rscale>
<asrwt>0</asrwt>
<pdfrwt beam="1">  1        1 0.97155659E-02 0.49969305E+03</pdfrwt>
<pdfrwt beam="2">  1       -1 0.13112408E+00 0.49969305E+03</pdfrwt>
<totfact> 0.35364914E+02</totfact>
</mgrwt>
</event>
<event>
 4    1  0.6282309E-006  0.6280730E+03  0.7818608E-02  0.9848816E-01
          1   -1    0    0  501    0  0.00000000000E+00  0.00000000000E+00  0.83866002346E+03  0.83866002348E+03  0.50400000000E-02 0.  1.
         -1   -1    0    0    0  501 -0.00000000000E+00 -0.00000000000E+00 -0.11759105045E+03  0.11759105056E+03  0.50400000000E-02 0. -1.
    5000001    1    1    2    0    0 -0.24463583248E+02 -0.17969152937E+03  0.11442130887E+03  0.29254187488E+03  0.19900000000E+03 0.  0.
   -5000001    1    1    2    0    0  0.24463583248E+02  0.17969152937E+03  0.60664766414E+03  0.66370919915E+03  0.19900000000E+03 0.  0.
<mgrwt>
<rscale>  0 0.62807297E+03</rscale>
<asrwt>0</asrwt>
<pdfrwt beam="1">  1        1 0.11980858E+00 0.62807297E+03</pdfrwt>
<pdfrwt beam="2">  1       -1 0.16798721E-01 0.62807297E+03</pdfrwt>
<totfact> 0.63651333E+02</totfact>
</mgrwt>
</event>
<event>
 4    1  0.6282309E-006  0.6103480E+03  0.7818608E-02  0.9884167E-01
          1   -1    0    0  501    0  0.00000000000E+00  0.00000000000E+00  0.16965338181E+04  0.16965338181E+04  0.50400000000E-02 0.  1.
         -1   -1    0    0    0  501 -0.00000000000E+00 -0.00000000000E+00 -0.54894965168E+02  0.54894965399E+02  0.50400000000E-02 0. -1.
    5000001    1    1    2    0    0  0.11415375228E+03 -0.85720982575E+02  0.13432917376E+04  0.13654350436E+04  0.19900000000E+03 0.  0.
   -5000001    1    1    2    0    0 -0.11415375228E+03  0.85720982575E+02  0.29834711534E+03  0.38599373991E+03  0.19900000000E+03 0.  0.
<mgrwt>
<rscale>  0 0.61034798E+03</rscale>
<asrwt>0</asrwt>
<pdfrwt beam="1">  1        1 0.24236202E+00 0.61034798E+03</pdfrwt>
<pdfrwt beam="2">  1       -1 0.78421364E-02 0.61034798E+03</pdfrwt>
<totfact> 0.55142617E+02</totfact>
</mgrwt>
</event>
<event>
 4    1  0.6282309E-006  0.5311006E+03  0.7818608E-02  0.1005966E+00
         -1   -1    0    0    0  501 -0.00000000000E+00  0.00000000000E+00  0.35996694449E+03  0.35996694453E+03  0.50400000000E-02 0. -1.
          1   -1    0    0  501    0  0.00000000000E+00 -0.00000000000E+00 -0.19589843948E+03  0.19589843954E+03  0.50400000000E-02 0.  1.
    5000001    1    1    2    0    0  0.72917110767E+02 -0.82413626956E+02 -0.61499220981E+02  0.23556753837E+03  0.19900000000E+03 0.  0.
   -5000001    1    1    2    0    0 -0.72917110767E+02  0.82413626956E+02  0.22556772600E+03  0.32029784570E+03  0.19900000000E+03 0.  0.
<mgrwt>
<rscale>  0 0.53110060E+03</rscale>
<asrwt>0</asrwt>
<pdfrwt beam="1">  1        1 0.27985492E-01 0.53110060E+03</pdfrwt>
<pdfrwt beam="2">  1       -1 0.51423849E-01 0.53110060E+03</pdfrwt>
<totfact> 0.64581648E+02</totfact>
</mgrwt>
</event>
<event>
 4    1  0.6282309E-006  0.5323294E+03  0.7818608E-02  0.1005669E+00
          1   -1    0    0  501    0  0.00000000000E+00  0.00000000000E+00  0.32711959270E+03  0.32711959274E+03  0.50400000000E-02 0. -1.
         -1   -1    0    0    0  501 -0.00000000000E+00 -0.00000000000E+00 -0.21656805106E+03  0.21656805112E+03  0.50400000000E-02 0.  1.
    5000001    1    1    2    0    0  0.17544206902E+03 -0.19823507079E+02  0.63806328308E+02  0.27357839562E+03  0.19900000000E+03 0.  0.
   -5000001    1    1    2    0    0 -0.17544206902E+03  0.19823507079E+02  0.46745213328E+02  0.27010924824E+03  0.19900000000E+03 0.  0.
<mgrwt>
<rscale>  0 0.53232942E+03</rscale>
<asrwt>0</asrwt>
<pdfrwt beam="1">  1        1 0.46731370E-01 0.53232942E+03</pdfrwt>
<pdfrwt beam="2">  1       -1 0.30938293E-01 0.53232942E+03</pdfrwt>
<totfact> 0.83751291E+02</totfact>
</mgrwt>
</event>
<event>
 4    1  0.6282309E-006  0.7757235E+03  0.7818608E-02  0.9595837E-01
          1   -1    0    0  501    0  0.00000000000E+00  0.00000000000E+00  0.11727834044E+04  0.11727834044E+04  0.50400000000E-02 0.  1.
         -1   -1    0    0    0  501 -0.00000000000E+00 -0.00000000000E+00 -0.12827323817E+03  0.12827323827E+03  0.50400000000E-02 0. -1.
    5000001    1    1    2    0    0  0.21831906456E+03  0.13303034281E+03  0.87992113722E+03  0.93766864818E+03  0.19900000000E+03 0.  0.
   -5000001    1    1    2    0    0 -0.21831906456E+03 -0.13303034281E+03  0.16458902896E+03  0.36338799445E+03  0.19900000000E+03 0.  0.
<mgrwt>
<rscale>  0 0.77572347E+03</rscale>
<asrwt>0</asrwt>
<pdfrwt beam="1">  1        1 0.16754049E+00 0.77572347E+03</pdfrwt>
<pdfrwt beam="2">  1       -1 0.18324748E-01 0.77572347E+03</pdfrwt>
<totfact> 0.30890096E+02</totfact>
</mgrwt>
</event>
<event>
 4    1  0.6282309E-006  0.4951785E+03  0.7818608E-02  0.1015045E+00
          1   -1    0    0  501    0  0.00000000000E+00  0.00000000000E+00  0.94304449525E+03  0.94304449526E+03  0.50400000000E-02 0.  1.
         -1   -1    0    0    0  501 -0.00000000000E+00 -0.00000000000E+00 -0.65002709224E+02  0.65002709419E+02  0.50400000000E-02 0. -1.
    5000001    1    1    2    0    0  0.31644358248E+02  0.12564247305E+03  0.29634504055E+03  0.37974831073E+03  0.19900000000E+03 0.  0.
   -5000001    1    1    2    0    0 -0.31644358248E+02 -0.12564247305E+03  0.58169674547E+03  0.62829889395E+03  0.19900000000E+03 0.  0.
<mgrwt>
<rscale>  0 0.49517854E+03</rscale>
<asrwt>0</asrwt>
<pdfrwt beam="1">  1        1 0.13472065E+00 0.49517854E+03</pdfrwt>
<pdfrwt beam="2">  1       -1 0.92861011E-02 0.49517854E+03</pdfrwt>
<totfact> 0.13639948E+03</totfact>
</mgrwt>
</event>
<event>
 4    1  0.6282309E-006  0.4932340E+03  0.7818608E-02  0.1015560E+00
         -1   -1    0    0    0  501 -0.00000000000E+00  0.00000000000E+00  0.40612241549E+03  0.40612241552E+03  0.50400000000E-02 0.  1.
          1   -1    0    0  501    0  0.00000000000E+00 -0.00000000000E+00 -0.14975768192E+03  0.14975768200E+03  0.50400000000E-02 0. -1.
    5000001    1    1    2    0    0 -0.55478619692E+02  0.12918003024E+03  0.17115081501E+03  0.29775654306E+03  0.19900000000E+03 0.  0.
   -5000001    1    1    2    0    0  0.55478619692E+02 -0.12918003024E+03  0.85213918556E+02  0.25812355447E+03  0.19900000000E+03 0.  0.
<mgrwt>
<rscale>  0 0.49323403E+03</rscale>
<asrwt>0</asrwt>
<pdfrwt beam="1">  1        1 0.21393954E-01 0.49323403E+03</pdfrwt>
<pdfrwt beam="2">  1       -1 0.58017488E-01 0.49323403E+03</pdfrwt>
<totfact> 0.72718197E+02</totfact>
</mgrwt>
</event>
<event>
 4    1  0.6282309E-006  0.7429855E+03  0.7818608E-02  0.9646420E-01
         -1   -1    0    0    0  501 -0.00000000000E+00  0.00000000000E+00  0.65641073285E+02  0.65641073478E+02  0.50400000000E-02 0. -1.
          1   -1    0    0  501    0  0.00000000000E+00 -0.00000000000E+00 -0.21024469208E+04  0.21024469208E+04  0.50400000000E-02 0.  1.
    5000001    1    1    2    0    0  0.43036584896E+02 -0.28630610410E+03 -0.13707844530E+04  0.14150881066E+04  0.19900000000E+03 0.  0.
   -5000001    1    1    2    0    0 -0.43036584896E+02  0.28630610410E+03 -0.66602139449E+03  0.75299988765E+03  0.19900000000E+03 0.  0.
<mgrwt>
<rscale>  0 0.74298553E+03</rscale>
<asrwt>0</asrwt>
<pdfrwt beam="1">  1        1 0.30034952E+00 0.74298553E+03</pdfrwt>
<pdfrwt beam="2">  1       -1 0.93772975E-02 0.74298553E+03</pdfrwt>
<totfact> 0.23072707E+02</totfact>
</mgrwt>
</event>
<event>
 4    1  0.6282309E-006  0.4998904E+03  0.7818608E-02  0.1013808E+00
          1   -1    0    0  501    0  0.00000000000E+00  0.00000000000E+00  0.69575939546E+03  0.69575939548E+03  0.50400000000E-02 0.  1.
         -1   -1    0    0    0  501 -0.00000000000E+00 -0.00000000000E+00 -0.89790543389E+02  0.89790543531E+02  0.50400000000E-02 0. -1.
    5000001    1    1    2    0    0  0.15003101692E+03 -0.14465476104E+02  0.28354303737E+03  0.37777799046E+03  0.19900000000E+03 0.  0.
   -5000001    1    1    2    0    0 -0.15003101692E+03  0.14465476104E+02  0.32242581470E+03  0.40777194855E+03  0.19900000000E+03 0.  0.
<mgrwt>
<rscale>  0 0.49989044E+03</rscale>
<asrwt>0</asrwt>
<pdfrwt beam="1">  1        1 0.99394193E-01 0.49989044E+03</pdfrwt>
<pdfrwt beam="2">  1       -1 0.12827221E-01 0.49989044E+03</pdfrwt>
<totfact> 0.13076308E+03</totfact>
</mgrwt>
</event>
<event>
 4    1  0.6282309E-006  0.5801096E+03  0.7818608E-02  0.9947554E-01
         -1   -1    0    0    0  501 -0.00000000000E+00  0.00000000000E+00  0.74203564335E+02  0.74203564506E+02  0.50400000000E-02 0. -1.
          1   -1    0    0  501    0  0.00000000000E+00 -0.00000000000E+00 -0.11337971886E+04  0.11337971886E+04  0.50400000000E-02 0.  1.
    5000001    1    1    2    0    0 -0.72875467121E+02  0.19645717301E+03 -0.58183673456E+03  0.64964701202E+03  0.19900000000E+03 0.  0.
   -5000001    1    1    2    0    0  0.72875467121E+02 -0.19645717301E+03 -0.47775688967E+03  0.55835374107E+03  0.19900000000E+03 0.  0.
<mgrwt>
<rscale>  0 0.58010962E+03</rscale>
<asrwt>0</asrwt>
<pdfrwt beam="1">  1        1 0.16197102E+00 0.58010962E+03</pdfrwt>
<pdfrwt beam="2">  1       -1 0.10600510E-01 0.58010962E+03</pdfrwt>
<totfact> 0.80355491E+02</totfact>
</mgrwt>
</event>
<event>
 4    1  0.6282309E-006  0.4955589E+03  0.7818608E-02  0.1014945E+00
          1   -1    0    0  501    0  0.00000000000E+00  0.00000000000E+00  0.13533684285E+04  0.13533684285E+04  0.50400000000E-02 0. -1.
         -1   -1    0    0    0  501 -0.00000000000E+00 -0.00000000000E+00 -0.45364336703E+02  0.45364336983E+02  0.50400000000E-02 0.  1.
    5000001    1    1    2    0    0  0.14139693566E+03  0.53171255588E+01  0.77282698000E+03  0.81048374830E+03  0.19900000000E+03 0.  0.
   -5000001    1    1    2    0    0 -0.14139693566E+03 -0.53171255588E+01  0.53517711179E+03  0.58824901719E+03  0.19900000000E+03 0.  0.
<mgrwt>
<rscale>  0 0.49555892E+03</rscale>
<asrwt>0</asrwt>
<pdfrwt beam="1">  1        1 0.19333836E+00 0.49555892E+03</pdfrwt>
<pdfrwt beam="2">  1       -1 0.64806192E-02 0.49555892E+03</pdfrwt>
<totfact> 0.12338287E+03</totfact>
</mgrwt>
</event>
<event>
 4    1  0.6282309E-006  0.4480039E+03  0.7818608E-02  0.1028319E+00
         -1   -1    0    0    0  501 -0.00000000000E+00  0.00000000000E+00  0.27643202662E+03  0.27643202667E+03  0.50400000000E-02 0. -1.
          1   -1    0    0  501    0  0.00000000000E+00 -0.00000000000E+00 -0.18151613574E+03  0.18151613581E+03  0.50400000000E-02 0.  1.
    5000001    1    1    2    0    0 -0.78935970549E+02 -0.44060660796E+02  0.97573160885E+02  0.23936113093E+03  0.19900000000E+03 0.  0.
   -5000001    1    1    2    0    0  0.78935970549E+02  0.44060660796E+02 -0.26572700090E+01  0.21858703155E+03  0.19900000000E+03 0.  0.
<mgrwt>
<rscale>  0 0.44800390E+03</rscale>
<asrwt>0</asrwt>
<pdfrwt beam="1">  1        1 0.25930877E-01 0.44800390E+03</pdfrwt>
<pdfrwt beam="2">  1       -1 0.39490289E-01 0.44800390E+03</pdfrwt>
<totfact> 0.11592842E+03</totfact>
</mgrwt>
</event>
<event>
 4    1  0.6282309E-006  0.4094689E+03  0.7818608E-02  0.1040549E+00
         -1   -1    0    0    0  501 -0.00000000000E+00  0.00000000000E+00  0.16270233294E+02  0.16270234074E+02  0.50400000000E-02 0. -1.
          1   -1    0    0  501    0  0.00000000000E+00 -0.00000000000E+00 -0.25762497747E+04  0.25762497747E+04  0.50400000000E-02 0.  1.
    5000001    1    1    2    0    0 -0.36751385183E+02 -0.27853253345E+02 -0.13669674313E+04  0.13821459497E+04  0.19900000000E+03 0.  0.
   -5000001    1    1    2    0    0  0.36751385183E+02  0.27853253345E+02 -0.11930121101E+04  0.12103740591E+04  0.19900000000E+03 0.  0.
<mgrwt>
<rscale>  0 0.40946886E+03</rscale>
<asrwt>0</asrwt>
<pdfrwt beam="1">  1        1 0.36803542E+00 0.40946886E+03</pdfrwt>
<pdfrwt beam="2">  1       -1 0.23243207E-02 0.40946886E+03</pdfrwt>
<totfact> 0.10142861E+03</totfact>
</mgrwt>
</event>
<event>
 4    1  0.6282309E-006  0.6547788E+03  0.7818608E-02  0.9797853E-01
         -1   -1    0    0    0  501 -0.00000000000E+00  0.00000000000E+00  0.97901949006E+03  0.97901949007E+03  0.50400000000E-02 0. -1.
          1   -1    0    0  501    0  0.00000000000E+00 -0.00000000000E+00 -0.10948078270E+03  0.10948078282E+03  0.50400000000E-02 0.  1.
    5000001    1    1    2    0    0 -0.24027080845E+03 -0.97956237573E+02  0.46143687986E+03  0.56555325122E+03  0.19900000000E+03 0.  0.
   -5000001    1    1    2    0    0  0.24027080845E+03  0.97956237573E+02  0.40810182749E+03  0.52294702167E+03  0.19900000000E+03 0.  0.
<mgrwt>
<rscale>  0 0.65477880E+03</rscale>
<asrwt>0</asrwt>
<pdfrwt beam="1">  1        1 0.15640113E-01 0.65477880E+03</pdfrwt>
<pdfrwt beam="2">  1       -1 0.13985992E+00 0.65477880E+03</pdfrwt>
<totfact> 0.15621586E+02</totfact>
</mgrwt>
</event>
<event>
 4    1  0.6282309E-006  0.6107033E+03  0.7818608E-02  0.9883446E-01
         -1   -1    0    0    0  501 -0.00000000000E+00  0.00000000000E+00  0.46330139337E+03  0.46330139340E+03  0.50400000000E-02 0. -1.
          1   -1    0    0  501    0  0.00000000000E+00 -0.00000000000E+00 -0.20125047253E+03  0.20125047259E+03  0.50400000000E-02 0.  1.
    5000001    1    1    2    0    0  0.21691793951E+03 -0.80826565256E+02  0.13889487006E+03  0.33537905578E+03  0.19900000000E+03 0.  0.
   -5000001    1    1    2    0    0 -0.21691793951E+03  0.80826565256E+02  0.12315605079E+03  0.32917281020E+03  0.19900000000E+03 0.  0.
<mgrwt>
<rscale>  0 0.61070328E+03</rscale>
<asrwt>0</asrwt>
<pdfrwt beam="1">  1        1 0.28750068E-01 0.61070328E+03</pdfrwt>
<pdfrwt beam="2">  1       -1 0.66185913E-01 0.61070328E+03</pdfrwt>
<totfact> 0.38080160E+02</totfact>
</mgrwt>
</event>
<event>
 4    1  0.6282309E-006  0.5999946E+03  0.7818608E-02  0.9905417E-01
          1   -1    0    0  501    0  0.00000000000E+00  0.00000000000E+00  0.99204174764E+03  0.99204174765E+03  0.50400000000E-02 0.  1.
         -1   -1    0    0    0  501 -0.00000000000E+00 -0.00000000000E+00 -0.90720342167E+02  0.90720342307E+02  0.50400000000E-02 0. -1.
    5000001    1    1    2    0    0 -0.15881034994E+03 -0.56872741925E+02  0.71797681234E+03  0.76390244082E+03  0.19900000000E+03 0.  0.
   -5000001    1    1    2    0    0  0.15881034994E+03  0.56872741925E+02  0.18334459313E+03  0.31885964914E+03  0.19900000000E+03 0.  0.
<mgrwt>
<rscale>  0 0.59999456E+03</rscale>
<asrwt>0</asrwt>
<pdfrwt beam="1">  1        1 0.14172025E+00 0.59999456E+03</pdfrwt>
<pdfrwt beam="2">  1       -1 0.12960049E-01 0.59999456E+03</pdfrwt>
<totfact> 0.73749788E+02</totfact>
</mgrwt>
</event>
<event>
 4    1  0.6282309E-006  0.9312450E+03  0.7818608E-02  0.9387345E-01
          1   -1    0    0  501    0  0.00000000000E+00  0.00000000000E+00  0.58328276456E+03  0.58328276458E+03  0.50400000000E-02 0.  1.
         -1   -1    0    0    0  501 -0.00000000000E+00 -0.00000000000E+00 -0.37169679677E+03  0.37169679681E+03  0.50400000000E-02 0. -1.
    5000001    1    1    2    0    0 -0.39554725012E+03  0.60612962777E+02 -0.28196114050E+02  0.44780305848E+03  0.19900000000E+03 0.  0.
   -5000001    1    1    2    0    0  0.39554725012E+03 -0.60612962777E+02  0.23978208183E+03  0.50717650291E+03  0.19900000000E+03 0.  0.
<mgrwt>
<rscale>  0 0.93124505E+03</rscale>
<asrwt>0</asrwt>
<pdfrwt beam="1">  1        1 0.83326109E-01 0.93124505E+03</pdfrwt>
<pdfrwt beam="2">  1       -1 0.53099543E-01 0.93124505E+03</pdfrwt>
<totfact> 0.14262795E+02</totfact>
</mgrwt>
</event>
<event>
 4    1  0.6282309E-006  0.4676191E+03  0.7818608E-02  0.1022594E+00
          1   -1    0    0  501    0  0.00000000000E+00  0.00000000000E+00  0.88149482550E+03  0.88149482552E+03  0.50400000000E-02 0.  1.
         -1   -1    0    0    0  501 -0.00000000000E+00 -0.00000000000E+00 -0.62016135386E+02  0.62016135591E+02  0.50400000000E-02 0. -1.
    5000001    1    1    2    0    0  0.19760399423E+02  0.12114172157E+03  0.40906273020E+03  0.47116781228E+03  0.19900000000E+03 0.  0.
   -5000001    1    1    2    0    0 -0.19760399423E+02 -0.12114172157E+03  0.41041595992E+03  0.47234314883E+03  0.19900000000E+03 0.  0.
<mgrwt>
<rscale>  0 0.46761909E+03</rscale>
<asrwt>0</asrwt>
<pdfrwt beam="1">  1        1 0.12592781E+00 0.46761909E+03</pdfrwt>
<pdfrwt beam="2">  1       -1 0.88594491E-02 0.46761909E+03</pdfrwt>
<totfact> 0.16373947E+03</totfact>
</mgrwt>
</event>
<event>
 4    1  0.6282309E-006  0.5964315E+03  0.7818608E-02  0.9912837E-01
          1   -1    0    0  501    0  0.00000000000E+00  0.00000000000E+00  0.22219785173E+03  0.22219785178E+03  0.50400000000E-02 0.  1.
         -1   -1    0    0    0  501 -0.00000000000E+00 -0.00000000000E+00 -0.40024070850E+03  0.40024070853E+03  0.50400000000E-02 0. -1.
    5000001    1    1    2    0    0 -0.14403991923E+03 -0.47418358149E+02 -0.25838022715E+03  0.35966281543E+03  0.19900000000E+03 0.  0.
   -5000001    1    1    2    0    0  0.14403991923E+03  0.47418358149E+02  0.80337370371E+02  0.26277574489E+03  0.19900000000E+03 0.  0.
<mgrwt>
<rscale>  0 0.59643147E+03</rscale>
<asrwt>0</asrwt>
<pdfrwt beam="1">  1        1 0.31742550E-01 0.59643147E+03</pdfrwt>
<pdfrwt beam="2">  1       -1 0.57177244E-01 0.59643147E+03</pdfrwt>
<totfact> 0.44743267E+02</totfact>
</mgrwt>
</event>
<event>
 4    1  0.6282309E-006  0.5920153E+03  0.7818608E-02  0.9922112E-01
          1   -1    0    0  501    0  0.00000000000E+00  0.00000000000E+00  0.21540356447E+03  0.21540356453E+03  0.50400000000E-02 0.  1.
         -1   -1    0    0    0  501 -0.00000000000E+00 -0.00000000000E+00 -0.40677377008E+03  0.40677377011E+03  0.50400000000E-02 0. -1.
    5000001    1    1    2    0    0 -0.75949254283E+02 -0.16820428729E+03  0.28480530478E+02  0.27289762202E+03  0.19900000000E+03 0.  0.
   -5000001    1    1    2    0    0  0.75949254283E+02  0.16820428729E+03 -0.21985073608E+03  0.34927971262E+03  0.19900000000E+03 0.  0.
<mgrwt>
<rscale>  0 0.59201527E+03</rscale>
<asrwt>0</asrwt>
<pdfrwt beam="1">  1        1 0.30771938E-01 0.59201527E+03</pdfrwt>
<pdfrwt beam="2">  1       -1 0.58110539E-01 0.59201527E+03</pdfrwt>
<totfact> 0.45135203E+02</totfact>
</mgrwt>
</event>
<event>
 4    1  0.6282309E-006  0.6272699E+03  0.7818608E-02  0.9850391E-01
         -1   -1    0    0    0  501 -0.00000000000E+00  0.00000000000E+00  0.51300797963E+03  0.51300797965E+03  0.50400000000E-02 0. -1.
          1   -1    0    0  501    0  0.00000000000E+00 -0.00000000000E+00 -0.19174533117E+03  0.19174533124E+03  0.50400000000E-02 0.  1.
    5000001    1    1    2    0    0  0.89651034687E+02  0.19790402778E+03  0.28144327831E+03  0.40744893071E+03  0.19900000000E+03 0.  0.
   -5000001    1    1    2    0    0 -0.89651034687E+02 -0.19790402778E+03  0.39819370143E+02  0.29730438017E+03  0.19900000000E+03 0.  0.
<mgrwt>
<rscale>  0 0.62726991E+03</rscale>
<asrwt>0</asrwt>
<pdfrwt beam="1">  1        1 0.27392191E-01 0.62726991E+03</pdfrwt>
<pdfrwt beam="2">  1       -1 0.73286853E-01 0.62726991E+03</pdfrwt>
<totfact> 0.32930639E+02</totfact>
</mgrwt>
</event>
<event>
 4    1  0.6282309E-006  0.8265477E+03  0.7818608E-02  0.9522366E-01
          1   -1    0    0  501    0  0.00000000000E+00  0.00000000000E+00  0.68739873813E+03  0.68739873815E+03  0.50400000000E-02 0.  1.
         -1   -1    0    0    0  501 -0.00000000000E+00 -0.00000000000E+00 -0.24846611636E+03  0.24846611641E+03  0.50400000000E-02 0. -1.
    5000001    1    1    2    0    0  0.25839467032E+03 -0.20991863744E+03  0.38102899608E+03  0.54370739911E+03  0.19900000000E+03 0.  0.
   -5000001    1    1    2    0    0 -0.25839467032E+03  0.20991863744E+03  0.57903625691E+02  0.39215745545E+03  0.19900000000E+03 0.  0.
<mgrwt>
<rscale>  0 0.82654775E+03</rscale>
<asrwt>0</asrwt>
<pdfrwt beam="1">  1        1 0.98199822E-01 0.82654775E+03</pdfrwt>
<pdfrwt beam="2">  1       -1 0.35495159E-01 0.82654775E+03</pdfrwt>
<totfact> 0.23867917E+02</totfact>
</mgrwt>
</event>
<event>
 4    1  0.6282309E-006  0.6516145E+03  0.7818608E-02  0.9803754E-01
          1   -1    0    0  501    0  0.00000000000E+00  0.00000000000E+00  0.13257202500E+04  0.13257202500E+04  0.50400000000E-02 0.  1.
         -1   -1    0    0    0  501 -0.00000000000E+00 -0.00000000000E+00 -0.80069957887E+02  0.80069958045E+02  0.50400000000E-02 0. -1.
    5000001    1    1    2    0    0  0.22399626438E+03  0.41592510711E+02  0.36174372792E+03  0.47155465016E+03  0.19900000000E+03 0.  0.
   -5000001    1    1    2    0    0 -0.22399626438E+03 -0.41592510711E+02  0.88390656418E+03  0.93423555788E+03  0.19900000000E+03 0.  0.
<mgrwt>
<rscale>  0 0.65161450E+03</rscale>
<asrwt>0</asrwt>
<pdfrwt beam="1">  1        1 0.18938863E+00 0.65161450E+03</pdfrwt>
<pdfrwt beam="2">  1       -1 0.11438564E-01 0.65161450E+03</pdfrwt>
<totfact> 0.52557207E+02</totfact>
</mgrwt>
</event>
<event>
 4    1  0.6282309E-006  0.4397721E+03  0.7818608E-02  0.1030817E+00
         -1   -1    0    0    0  501 -0.00000000000E+00  0.00000000000E+00  0.26386212506E+02  0.26386212987E+02  0.50400000000E-02 0. -1.
          1   -1    0    0  501    0  0.00000000000E+00 -0.00000000000E+00 -0.18323917889E+04  0.18323917889E+04  0.50400000000E-02 0.  1.
    5000001    1    1    2    0    0 -0.45300462818E+02  0.74012573561E+02 -0.75543842651E+03  0.78601412788E+03  0.19900000000E+03 0.  0.
   -5000001    1    1    2    0    0  0.45300462818E+02 -0.74012573561E+02 -0.10505671499E+04  0.10727638740E+04  0.19900000000E+03 0.  0.
<mgrwt>
<rscale>  0 0.43977212E+03</rscale>
<asrwt>0</asrwt>
<pdfrwt beam="1">  1        1 0.26177017E+00 0.43977212E+03</pdfrwt>
<pdfrwt beam="2">  1       -1 0.37694601E-02 0.43977212E+03</pdfrwt>
<totfact> 0.14060633E+03</totfact>
</mgrwt>
</event>
<event>
 4    1  0.6282309E-006  0.5224307E+03  0.7818608E-02  0.1008085E+00
          1   -1    0    0  501    0  0.00000000000E+00  0.00000000000E+00  0.54938709965E+03  0.54938709968E+03  0.50400000000E-02 0.  1.
         -1   -1    0    0    0  501 -0.00000000000E+00 -0.00000000000E+00 -0.12419925365E+03  0.12419925375E+03  0.50400000000E-02 0. -1.
    5000001    1    1    2    0    0 -0.10203073633E+03 -0.70211658164E+02  0.36124505422E+03  0.43062621529E+03  0.19900000000E+03 0.  0.
   -5000001    1    1    2    0    0  0.10203073633E+03  0.70211658164E+02  0.63942791789E+02  0.24296013813E+03  0.19900000000E+03 0.  0.
<mgrwt>
<rscale>  0 0.52243073E+03</rscale>
<asrwt>0</asrwt>
<pdfrwt beam="1">  1        1 0.78483871E-01 0.52243073E+03</pdfrwt>
<pdfrwt beam="2">  1       -1 0.17742751E-01 0.52243073E+03</pdfrwt>
<totfact> 0.10792510E+03</totfact>
</mgrwt>
</event>
<event>
 4    1  0.6282309E-006  0.6135560E+03  0.7818608E-02  0.9877674E-01
          1   -1    0    0  501    0  0.00000000000E+00  0.00000000000E+00  0.15392143768E+04  0.15392143768E+04  0.50400000000E-02 0.  1.
         -1   -1    0    0    0  501 -0.00000000000E+00 -0.00000000000E+00 -0.61143366610E+02  0.61143366818E+02  0.50400000000E-02 0. -1.
    5000001    1    1    2    0    0  0.97156271375E+02 -0.15479141431E+03  0.11180255541E+04  0.11502094864E+04  0.19900000000E+03 0.  0.
   -5000001    1    1    2    0    0 -0.97156271375E+02  0.15479141431E+03  0.36004545604E+03  0.45014825716E+03  0.19900000000E+03 0.  0.
<mgrwt>
<rscale>  0 0.61355603E+03</rscale>
<asrwt>0</asrwt>
<pdfrwt beam="1">  1        1 0.21988774E+00 0.61355603E+03</pdfrwt>
<pdfrwt beam="2">  1       -1 0.87347677E-02 0.61355603E+03</pdfrwt>
<totfact> 0.58575350E+02</totfact>
</mgrwt>
</event>
<event>
 4    1  0.6282309E-006  0.4798639E+03  0.7818608E-02  0.1019173E+00
          1   -1    0    0  501    0  0.00000000000E+00  0.00000000000E+00  0.26205761365E+04  0.26205761365E+04  0.50400000000E-02 0. -1.
         -1   -1    0    0    0  501 -0.00000000000E+00 -0.00000000000E+00 -0.21967439871E+02  0.21967440449E+02  0.50400000000E-02 0.  1.
    5000001    1    1    2    0    0  0.12996607545E+03  0.15614982445E+02  0.14580835641E+04  0.14774111440E+04  0.19900000000E+03 0.  0.
   -5000001    1    1    2    0    0 -0.12996607545E+03 -0.15614982445E+02  0.11405251325E+04  0.11651324329E+04  0.19900000000E+03 0.  0.
<mgrwt>
<rscale>  0 0.47986394E+03</rscale>
<asrwt>0</asrwt>
<pdfrwt beam="1">  1        1 0.37436811E+00 0.47986394E+03</pdfrwt>
<pdfrwt beam="2">  1       -1 0.31382050E-02 0.47986394E+03</pdfrwt>
<totfact> 0.60452092E+02</totfact>
</mgrwt>
</event>
<event>
 4    1  0.6282309E-006  0.5552144E+03  0.7818608E-02  0.1000294E+00
          1   -1    0    0  501    0  0.00000000000E+00  0.00000000000E+00  0.32830077893E+03  0.32830077897E+03  0.50400000000E-02 0.  1.
         -1   -1    0    0    0  501 -0.00000000000E+00 -0.00000000000E+00 -0.23474128940E+03  0.23474128946E+03  0.50400000000E-02 0. -1.
    5000001    1    1    2    0    0  0.12198859460E+03  0.65660881998E+02  0.18386013332E+03  0.30429938755E+03  0.19900000000E+03 0.  0.
   -5000001    1    1    2    0    0 -0.12198859460E+03 -0.65660881998E+02 -0.90300643794E+02  0.25874268088E+03  0.19900000000E+03 0.  0.
<mgrwt>
<rscale>  0 0.55521437E+03</rscale>
<asrwt>0</asrwt>
<pdfrwt beam="1">  1        1 0.46900112E-01 0.55521437E+03</pdfrwt>
<pdfrwt beam="2">  1       -1 0.33534470E-01 0.55521437E+03</pdfrwt>
<totfact> 0.72387453E+02</totfact>
</mgrwt>
</event>
<event>
 4    1  0.6282309E-006  0.5257022E+03  0.7818608E-02  0.1007280E+00
         -1   -1    0    0    0  501 -0.00000000000E+00  0.00000000000E+00  0.39947056927E+03  0.39947056930E+03  0.50400000000E-02 0. -1.
          1   -1    0    0  501    0  0.00000000000E+00 -0.00000000000E+00 -0.17295566486E+03  0.17295566493E+03  0.50400000000E-02 0.  1.
    5000001    1    1    2    0    0  0.10687274332E+03 -0.99501689024E+02  0.21166303932E+03  0.32515321249E+03  0.19900000000E+03 0.  0.
   -5000001    1    1    2    0    0 -0.10687274332E+03  0.99501689024E+02  0.14851865095E+02  0.24727302174E+03  0.19900000000E+03 0.  0.
<mgrwt>
<rscale>  0 0.52570219E+03</rscale>
<asrwt>0</asrwt>
<pdfrwt beam="1">  1        1 0.24707952E-01 0.52570219E+03</pdfrwt>
<pdfrwt beam="2">  1       -1 0.57067224E-01 0.52570219E+03</pdfrwt>
<totfact> 0.62202962E+02</totfact>
</mgrwt>
</event>
<event>
 4    1  0.6282309E-006  0.4538558E+03  0.7818608E-02  0.1026578E+00
         -1   -1    0    0    0  501 -0.00000000000E+00  0.00000000000E+00  0.56881906871E+02  0.56881907095E+02  0.50400000000E-02 0.  1.
          1   -1    0    0  501    0  0.00000000000E+00 -0.00000000000E+00 -0.90531919927E+03  0.90531919928E+03  0.50400000000E-02 0. -1.
    5000001    1    1    2    0    0  0.98133676167E+02 -0.42480921761E+02 -0.37872693611E+03  0.44098745929E+03  0.19900000000E+03 0.  0.
   -5000001    1    1    2    0    0 -0.98133676167E+02  0.42480921761E+02 -0.46971035629E+03  0.52121364709E+03  0.19900000000E+03 0.  0.
<mgrwt>
<rscale>  0 0.45385585E+03</rscale>
<asrwt>0</asrwt>
<pdfrwt beam="1">  1        1 0.12933131E+00 0.45385585E+03</pdfrwt>
<pdfrwt beam="2">  1       -1 0.81259873E-02 0.45385585E+03</pdfrwt>
<totfact> 0.17948318E+03</totfact>
</mgrwt>
</event>
<event>
 4    1  0.6282309E-006  0.5980507E+03  0.7818608E-02  0.9909458E-01
         -1   -1    0    0    0  501 -0.00000000000E+00  0.00000000000E+00  0.30350020389E+02  0.30350020808E+02  0.50400000000E-02 0.  1.
          1   -1    0    0  501    0  0.00000000000E+00 -0.00000000000E+00 -0.29461647340E+04  0.29461647340E+04  0.50400000000E-02 0. -1.
    5000001    1    1    2    0    0  0.16082546885E+03 -0.15118016115E+03 -0.16225926617E+04  0.16495842562E+04  0.19900000000E+03 0.  0.
   -5000001    1    1    2    0    0 -0.16082546885E+03  0.15118016115E+03 -0.12932220519E+04  0.13269304986E+04  0.19900000000E+03 0.  0.
<mgrwt>
<rscale>  0 0.59805070E+03</rscale>
<asrwt>0</asrwt>
<pdfrwt beam="1">  1        1 0.42088050E+00 0.59805070E+03</pdfrwt>
<pdfrwt beam="2">  1       -1 0.43357191E-02 0.59805070E+03</pdfrwt>
<totfact> 0.22796813E+02</totfact>
</mgrwt>
</event>
<event>
 4    1  0.6282309E-006  0.1353145E+04  0.7818608E-02  0.8988451E-01
          1   -1    0    0  501    0  0.00000000000E+00  0.00000000000E+00  0.99990543975E+03  0.99990543976E+03  0.50400000000E-02 0. -1.
         -1   -1    0    0    0  501 -0.00000000000E+00 -0.00000000000E+00 -0.45779384557E+03  0.45779384560E+03  0.50400000000E-02 0.  1.
    5000001    1    1    2    0    0  0.42133435846E+03 -0.46595238016E+03  0.43625148775E+03  0.79028515281E+03  0.19900000000E+03 0.  0.
   -5000001    1    1    2    0    0 -0.42133435846E+03  0.46595238016E+03  0.10586010643E+03  0.66741413255E+03  0.19900000000E+03 0.  0.
<mgrwt>
<rscale>  0 0.13531453E+04</rscale>
<asrwt>0</asrwt>
<pdfrwt beam="1">  1        1 0.14284363E+00 0.13531453E+04</pdfrwt>
<pdfrwt beam="2">  1       -1 0.65399121E-01 0.13531453E+04</pdfrwt>
<totfact> 0.40084061E+01</totfact>
</mgrwt>
</event>
<event>
 4    1  0.6282309E-006  0.7885469E+03  0.7818608E-02  0.9576745E-01
         -1   -1    0    0    0  501 -0.00000000000E+00  0.00000000000E+00  0.37191449022E+03  0.37191449026E+03  0.50400000000E-02 0. -1.
          1   -1    0    0  501    0  0.00000000000E+00 -0.00000000000E+00 -0.41797654609E+03  0.41797654612E+03  0.50400000000E-02 0.  1.
    5000001    1    1    2    0    0  0.12057170419E+03  0.29693024530E+03  0.91817925918E+02  0.38824816541E+03  0.19900000000E+03 0.  0.
   -5000001    1    1    2    0    0 -0.12057170419E+03 -0.29693024530E+03 -0.13787998179E+03  0.40164287097E+03  0.19900000000E+03 0.  0.
<mgrwt>
<rscale>  0 0.78854685E+03</rscale>
<asrwt>0</asrwt>
<pdfrwt beam="1">  1        1 0.59710936E-01 0.78854685E+03</pdfrwt>
<pdfrwt beam="2">  1       -1 0.53130641E-01 0.78854685E+03</pdfrwt>
<totfact> 0.22558076E+02</totfact>
</mgrwt>
</event>
<event>
 4    1  0.6282309E-006  0.1954381E+04  0.7818608E-02  0.8628251E-01
         -1   -1    0    0    0  501 -0.00000000000E+00  0.00000000000E+00  0.12050830633E+04  0.12050830633E+04  0.50400000000E-02 0. -1.
          1   -1    0    0  501    0  0.00000000000E+00 -0.00000000000E+00 -0.79239417330E+03  0.79239417332E+03  0.50400000000E-02 0.  1.
    5000001    1    1    2    0    0 -0.39425517886E+03 -0.32526229990E+02  0.10966472055E+04  0.11826796672E+04  0.19900000000E+03 0.  0.
   -5000001    1    1    2    0    0  0.39425517886E+03  0.32526229990E+02 -0.68395831558E+03  0.81479756943E+03  0.19900000000E+03 0.  0.
<mgrwt>
<rscale>  0 0.19543805E+04</rscale>
<asrwt>0</asrwt>
<pdfrwt beam="1">  1        1 0.11319917E+00 0.19543805E+04</pdfrwt>
<pdfrwt beam="2">  1       -1 0.17215472E+00 0.19543805E+04</pdfrwt>
<totfact> 0.55994162E+00</totfact>
</mgrwt>
</event>
<event>
 4    1  0.6282309E-006  0.4527922E+03  0.7818608E-02  0.1026893E+00
          1   -1    0    0  501    0  0.00000000000E+00  0.00000000000E+00  0.14137863370E+04  0.14137863371E+04  0.50400000000E-02 0. -1.
         -1   -1    0    0    0  501 -0.00000000000E+00 -0.00000000000E+00 -0.36253850313E+02  0.36253850664E+02  0.50400000000E-02 0.  1.
    5000001    1    1    2    0    0 -0.20578463022E+02 -0.10156120673E+03  0.59184033546E+03  0.63294086180E+03  0.19900000000E+03 0.  0.
   -5000001    1    1    2    0    0  0.20578463022E+02  0.10156120673E+03  0.78569215127E+03  0.81709932592E+03  0.19900000000E+03 0.  0.
<mgrwt>
<rscale>  0 0.45279222E+03</rscale>
<asrwt>0</asrwt>
<pdfrwt beam="1">  1        1 0.20196947E+00 0.45279222E+03</pdfrwt>
<pdfrwt beam="2">  1       -1 0.51791218E-02 0.45279222E+03</pdfrwt>
<totfact> 0.15904268E+03</totfact>
</mgrwt>
</event>
<event>
 4    1  0.6282309E-006  0.5880906E+03  0.7818608E-02  0.9930427E-01
         -1   -1    0    0    0  501 -0.00000000000E+00  0.00000000000E+00  0.11421069418E+04  0.11421069418E+04  0.50400000000E-02 0.  1.
          1   -1    0    0  501    0  0.00000000000E+00 -0.00000000000E+00 -0.75704503580E+02  0.75704503747E+02  0.50400000000E-02 0. -1.
    5000001    1    1    2    0    0  0.58371474897E+02  0.32330889327E+02  0.95964860957E+03  0.98233343083E+03  0.19900000000E+03 0.  0.
   -5000001    1    1    2    0    0 -0.58371474897E+02 -0.32330889327E+02  0.10675382865E+03  0.23547801472E+03  0.19900000000E+03 0.  0.
<mgrwt>
<rscale>  0 0.58809060E+03</rscale>
<asrwt>0</asrwt>
<pdfrwt beam="1">  1        1 0.10814928E-01 0.58809060E+03</pdfrwt>
<pdfrwt beam="2">  1       -1 0.16315815E+00 0.58809060E+03</pdfrwt>
<totfact> 0.17084579E+02</totfact>
</mgrwt>
</event>
<event>
 4    1  0.6282309E-006  0.6374974E+03  0.7818608E-02  0.9830526E-01
         -1   -1    0    0    0  501 -0.00000000000E+00  0.00000000000E+00  0.36780656483E+03  0.36780656486E+03  0.50400000000E-02 0. -1.
          1   -1    0    0  501    0  0.00000000000E+00 -0.00000000000E+00 -0.27623413971E+03  0.27623413975E+03  0.50400000000E-02 0.  1.
    5000001    1    1    2    0    0 -0.58229119554E+02 -0.22469464778E+03 -0.45257667166E+02  0.30907534930E+03  0.19900000000E+03 0.  0.
   -5000001    1    1    2    0    0  0.58229119554E+02  0.22469464778E+03  0.13683009228E+03  0.33496535532E+03  0.19900000000E+03 0.  0.
<mgrwt>
<rscale>  0 0.63749739E+03</rscale>
<asrwt>0</asrwt>
<pdfrwt beam="1">  1        1 0.39462020E-01 0.63749739E+03</pdfrwt>
<pdfrwt beam="2">  1       -1 0.52543795E-01 0.63749739E+03</pdfrwt>
<totfact> 0.39712017E+02</totfact>
</mgrwt>
</event>
<event>
 4    1  0.6282309E-006  0.9876239E+03  0.7818608E-02  0.9322224E-01
         -1   -1    0    0    0  501 -0.00000000000E+00  0.00000000000E+00  0.11310860460E+03  0.11310860471E+03  0.50400000000E-02 0. -1.
          1   -1    0    0  501    0  0.00000000000E+00 -0.00000000000E+00 -0.21558948780E+04  0.21558948781E+04  0.50400000000E-02 0.  1.
    5000001    1    1    2    0    0  0.36975590234E+02  0.44249515871E+03 -0.12147071344E+04  0.13085425412E+04  0.19900000000E+03 0.  0.
   -5000001    1    1    2    0    0 -0.36975590234E+02 -0.44249515871E+03 -0.82807913909E+03  0.96046094161E+03  0.19900000000E+03 0.  0.
<mgrwt>
<rscale>  0 0.98762394E+03</rscale>
<asrwt>0</asrwt>
<pdfrwt beam="1">  1        1 0.30798496E+00 0.98762394E+03</pdfrwt>
<pdfrwt beam="2">  1       -1 0.16158373E-01 0.98762394E+03</pdfrwt>
<totfact> 0.87317901E+01</totfact>
</mgrwt>
</event>
<event>
 4    1  0.6282309E-006  0.8084629E+03  0.7818608E-02  0.9547848E-01
         -1   -1    0    0    0  501 -0.00000000000E+00  0.00000000000E+00  0.40547424052E+03  0.40547424055E+03  0.50400000000E-02 0. -1.
          1   -1    0    0  501    0  0.00000000000E+00 -0.00000000000E+00 -0.40299246026E+03  0.40299246030E+03  0.50400000000E-02 0.  1.
    5000001    1    1    2    0    0 -0.18629274086E+03 -0.29420026513E+03  0.51672075426E+02  0.40438816090E+03  0.19900000000E+03 0.  0.
   -5000001    1    1    2    0    0  0.18629274086E+03  0.29420026513E+03 -0.49190295174E+02  0.40407853994E+03  0.19900000000E+03 0.  0.
<mgrwt>
<rscale>  0 0.80846289E+03</rscale>
<asrwt>0</asrwt>
<pdfrwt beam="1">  1        1 0.57570351E-01 0.80846289E+03</pdfrwt>
<pdfrwt beam="2">  1       -1 0.57924892E-01 0.80846289E+03</pdfrwt>
<totfact> 0.20006839E+02</totfact>
</mgrwt>
</event>
<event>
 4    1  0.6282309E-006  0.4068900E+03  0.7818608E-02  0.1041420E+00
          1   -1    0    0  501    0  0.00000000000E+00  0.00000000000E+00  0.74611511018E+03  0.74611511019E+03  0.50400000000E-02 0.  1.
         -1   -1    0    0    0  501 -0.00000000000E+00 -0.00000000000E+00 -0.55473846445E+02  0.55473846674E+02  0.50400000000E-02 0. -1.
    5000001    1    1    2    0    0 -0.41468015888E+02 -0.29216685997E+01  0.32996663029E+03  0.38756561973E+03  0.19900000000E+03 0.  0.
   -5000001    1    1    2    0    0  0.41468015888E+02  0.29216685997E+01  0.36067463344E+03  0.41402333714E+03  0.19900000000E+03 0.  0.
<mgrwt>
<rscale>  0 0.40689004E+03</rscale>
<asrwt>0</asrwt>
<pdfrwt beam="1">  1        1 0.10658786E+00 0.40689004E+03</pdfrwt>
<pdfrwt beam="2">  1       -1 0.79248361E-02 0.40689004E+03</pdfrwt>
<totfact> 0.25110606E+03</totfact>
</mgrwt>
</event>
<event>
 4    1  0.6282309E-006  0.4891382E+03  0.7818608E-02  0.1016654E+00
          1   -1    0    0  501    0  0.00000000000E+00  0.00000000000E+00  0.14291687542E+04  0.14291687542E+04  0.50400000000E-02 0.  1.
         -1   -1    0    0    0  501 -0.00000000000E+00 -0.00000000000E+00 -0.41852323345E+02  0.41852323648E+02  0.50400000000E-02 0. -1.
    5000001    1    1    2    0    0  0.64371242866E+02 -0.12450969382E+03  0.62206552740E+03  0.66799164751E+03  0.19900000000E+03 0.  0.
   -5000001    1    1    2    0    0 -0.64371242866E+02  0.12450969382E+03  0.76525090342E+03  0.80302943031E+03  0.19900000000E+03 0.  0.
<mgrwt>
<rscale>  0 0.48913815E+03</rscale>
<asrwt>0</asrwt>
<pdfrwt beam="1">  1        1 0.20416699E+00 0.48913815E+03</pdfrwt>
<pdfrwt beam="2">  1       -1 0.59789026E-02 0.48913815E+03</pdfrwt>
<totfact> 0.12469820E+03</totfact>
</mgrwt>
</event>
