<event>
 6    2  0.4900839E+001  0.1436686E+03  0.7546771E-02  0.1208476E+00
         21   -1    0    0  501  502  0.00000000000E+00  0.00000000000E+00  0.84189407888E+02  0.84189407888E+02  0.00000000000E+00 0.  1.
         -1   -1    0    0    0  501 -0.00000000000E+00 -0.00000000000E+00 -0.61292328986E+02  0.61292328986E+02  0.00000000000E+00 0.  1.
         24    2    1    2    0    0  0.46546194775E+02  0.15276538539E+02  0.15056164030E+02  0.95869230147E+02  0.81020369882E+02 0.  0.
        -11    1    3    3    0    0  0.37635954705E+02  0.15292553927E+02  0.47338401019E+02  0.62379896627E+02  0.00000000000E+00 0.  1.
         12    1    3    3    0    0  0.89102400700E+01 -0.16015388127E-01 -0.32282236989E+02  0.33489333520E+02  0.00000000000E+00 0. -1.
         -2    1    1    2    0  502 -0.46546194775E+02 -0.15276538539E+02  0.78409148722E+01  0.49612506727E+02  0.00000000000E+00 0.  1.
<mgrwt>
<rscale>  1 0.14366858E+03</rscale>
<asrwt>0</asrwt>
<pdfrwt beam="1">  1       21 0.12952217E-01 0.14366858E+03</pdfrwt>
<pdfrwt beam="2">  1       -1 0.94295891E-02 0.14366858E+03</pdfrwt>
<totfact> 0.29904585E+05</totfact>
</mgrwt>
</event>
<event>
 6    2  0.4900839E+001  0.1356661E+03  0.7546771E-02  0.1219282E+00
          2   -1    0    0  502    0 -0.00000000000E+00  0.00000000000E+00  0.97906924494E+03  0.97906924494E+03  0.00000000000E+00 0. -1.
         21   -1    0    0  501  502  0.00000000000E+00 -0.00000000000E+00 -0.46996893360E+01  0.46996893360E+01  0.00000000000E+00 0.  1.
         24    2    1    2    0    0 -0.24149070871E+02  0.32596732236E+02  0.77657159176E+03  0.78185370682E+03  0.81154526481E+02 0.  0.
        -13    1    3    3    0    0 -0.18835217540E+02  0.50480145419E+02  0.29239078627E+03  0.29731360950E+03  0.00000000000E+00 0.  1.
         14    1    3    3    0    0 -0.53138533302E+01 -0.17883413183E+02  0.48418080549E+03  0.48454009732E+03  0.00000000000E+00 0. -1.
          1    1    1    2  501    0  0.24149070871E+02 -0.32596732236E+02  0.19779796384E+03  0.20191522745E+03  0.00000000000E+00 0. -1.
<mgrwt>
<rscale>  1 0.13566608E+03</rscale>
<asrwt>0</asrwt>
<pdfrwt beam="1">  1       21 0.72302991E-03 0.13566608E+03</pdfrwt>
<pdfrwt beam="2">  1        2 0.15062588E+00 0.13566608E+03</pdfrwt>
<totfact> 0.21017977E+06</totfact>
</mgrwt>
</event>
<event>
 6    2  0.4900839E+001  0.1472068E+03  0.7546771E-02  0.1203948E+00
         21   -1    0    0  501  502  0.00000000000E+00  0.00000000000E+00  0.95090448087E+02  0.95090448087E+02  0.00000000000E+00 0.  1.
         -1   -1    0    0    0  501 -0.00000000000E+00 -0.00000000000E+00 -0.56971636193E+02  0.56971636193E+02  0.00000000000E+00 0.  1.
         24    2    1    2    0    0  0.11179836076E+02 -0.40704143120E+02 -0.11648275305E+02  0.86804295702E+02  0.74949899485E+02 0.  0.
        -11    1    3    3    0    0  0.42827120891E+02 -0.31124073633E+02 -0.78616371926E+01  0.53522664196E+02  0.00000000000E+00 0.  1.
         12    1    3    3    0    0 -0.31647284814E+02 -0.95800694870E+01 -0.37866381120E+01  0.33281631506E+02  0.00000000000E+00 0. -1.
         -2    1    1    2    0  502 -0.11179836076E+02  0.40704143120E+02  0.49767087199E+02  0.65257788578E+02  0.00000000000E+00 0.  1.
<mgrwt>
<rscale>  1 0.14720677E+03</rscale>
<asrwt>0</asrwt>
<pdfrwt beam="1">  1       21 0.14629300E-01 0.14720677E+03</pdfrwt>
<pdfrwt beam="2">  1       -1 0.87648671E-02 0.14720677E+03</pdfrwt>
<totfact> 0.26904892E+05</totfact>
</mgrwt>
</event>
<event>
 6    2  0.4900839E+001  0.1159531E+03  0.7546771E-02  0.1249926E+00
          2   -1    0    0  502    0 -0.00000000000E+00  0.00000000000E+00  0.14741674601E+04  0.14741674601E+04  0.00000000000E+00 0. -1.
         21   -1    0    0  501  502  0.00000000000E+00 -0.00000000000E+00 -0.22801222605E+01  0.22801222605E+01  0.00000000000E+00 0.  1.
         24    2    1    2    0    0  0.27581242248E+02 -0.20223218504E+02  0.11377917786E+04  0.11406060331E+04  0.72403645327E+02 0.  0.
        -13    1    3    3    0    0  0.30407668580E+02 -0.34336948379E+02  0.39180963273E+03  0.39448503220E+03  0.00000000000E+00 0.  1.
         14    1    3    3    0    0 -0.28264263323E+01  0.14113729875E+02  0.74598214588E+03  0.74612100093E+03  0.00000000000E+00 0. -1.
          1    1    1    2  501    0 -0.27581242248E+02  0.20223218504E+02  0.33409555923E+03  0.33584154923E+03  0.00000000000E+00 0. -1.
<mgrwt>
<rscale>  1 0.11595313E+03</rscale>
<asrwt>0</asrwt>
<pdfrwt beam="1">  1       21 0.35078922E-03 0.11595313E+03</pdfrwt>
<pdfrwt beam="2">  1        2 0.22679423E+00 0.11595313E+03</pdfrwt>
<totfact> 0.33805172E+06</totfact>
</mgrwt>
</event>
<event>
 6    2  0.4900839E+001  0.1242376E+03  0.7546771E-02  0.1236266E+00
         21   -1    0    0  501  502  0.00000000000E+00  0.00000000000E+00  0.12861218034E+02  0.12861218034E+02  0.00000000000E+00 0.  1.
          2   -1    0    0  502    0 -0.00000000000E+00 -0.00000000000E+00 -0.30002971430E+03  0.30002971430E+03  0.00000000000E+00 0. -1.
         24    2    1    2    0    0  0.24339205208E+02 -0.25104083389E+02 -0.21375179442E+03  0.23157288992E+03  0.81936327797E+02 0.  0.
        -13    1    3    3    0    0  0.32085546126E+02 -0.22834332883E+02 -0.35143073764E+02  0.52781859213E+02  0.00000000000E+00 0.  1.
         14    1    3    3    0    0 -0.77463409177E+01 -0.22697505066E+01 -0.17860872066E+03  0.17879103071E+03  0.00000000000E+00 0. -1.
          1    1    1    2  501    0 -0.24339205208E+02  0.25104083389E+02 -0.73416701839E+02  0.81318042413E+02  0.00000000000E+00 0. -1.
<mgrwt>
<rscale>  1 0.12423764E+03</rscale>
<asrwt>0</asrwt>
<pdfrwt beam="1">  1       21 0.19786490E-02 0.12423764E+03</pdfrwt>
<pdfrwt beam="2">  1        2 0.46158415E-01 0.12423764E+03</pdfrwt>
<totfact> 0.16324114E+06</totfact>
</mgrwt>
</event>
<event>
 6    2  0.4900839E+001  0.1216407E+03  0.7546771E-02  0.1240415E+00
         21   -1    0    0  501  502  0.00000000000E+00  0.00000000000E+00  0.94397139414E+01  0.94397139414E+01  0.00000000000E+00 0.  1.
         -1   -1    0    0    0  501 -0.00000000000E+00 -0.00000000000E+00 -0.39186739532E+03  0.39186739532E+03  0.00000000000E+00 0.  1.
         24    2    1    2    0    0  0.20889730374E+02  0.28179571469E+02 -0.29471580376E+03  0.30684101715E+03  0.77868708329E+02 0.  0.
        -11    1    3    3    0    0  0.48872659156E+02  0.56107003466E+01 -0.15829083610E+03  0.16575887779E+03  0.00000000000E+00 0.  1.
         12    1    3    3    0    0 -0.27982928782E+02  0.22568871123E+02 -0.13642496765E+03  0.14108213936E+03  0.00000000000E+00 0. -1.
         -2    1    1    2    0  502 -0.20889730374E+02 -0.28179571469E+02 -0.87711877618E+02  0.94466092111E+02  0.00000000000E+00 0.  1.
<mgrwt>
<rscale>  1 0.12164072E+03</rscale>
<asrwt>0</asrwt>
<pdfrwt beam="1">  1       21 0.14522634E-02 0.12164072E+03</pdfrwt>
<pdfrwt beam="2">  1       -1 0.60287304E-01 0.12164072E+03</pdfrwt>
<totfact> 0.53220697E+05</totfact>
</mgrwt>
</event>
<event>
 6    2  0.4900839E+001  0.3826378E+03  0.7546771E-02  0.1049963E+00
          2   -1    0    0  502    0 -0.00000000000E+00  0.00000000000E+00  0.95736629480E+03  0.95736629480E+03  0.00000000000E+00 0. -1.
         21   -1    0    0  501  502  0.00000000000E+00 -0.00000000000E+00 -0.38232924914E+02  0.38232924914E+02  0.00000000000E+00 0. -1.
         24    2    1    2    0    0 -0.15077352907E+03 -0.35822427363E+02  0.73191029200E+03  0.75255933767E+03  0.81467648848E+02 0.  0.
        -11    1    3    3    0    0  0.27320113290E+01  0.11170316952E+02  0.23195580218E+02  0.25889666053E+02  0.00000000000E+00 0.  1.
         12    1    3    3    0    0 -0.15350554040E+03 -0.46992744315E+02  0.70871471178E+03  0.72666967161E+03  0.00000000000E+00 0. -1.
          1    1    1    2  501    0  0.15077352907E+03  0.35822427363E+02  0.18722307789E+03  0.24303988204E+03  0.00000000000E+00 0. -1.
<mgrwt>
<rscale>  1 0.38263776E+03</rscale>
<asrwt>0</asrwt>
<pdfrwt beam="1">  1       21 0.58819892E-02 0.38263776E+03</pdfrwt>
<pdfrwt beam="2">  1        2 0.14728710E+00 0.38263776E+03</pdfrwt>
<totfact> 0.71386172E+04</totfact>
</mgrwt>
</event>
<event>
 6    2  0.4900839E+001  0.1780510E+03  0.7546771E-02  0.1169703E+00
         21   -1    0    0  501  502  0.00000000000E+00  0.00000000000E+00  0.69079623595E+02  0.69079623595E+02  0.00000000000E+00 0.  1.
         -1   -1    0    0    0  501 -0.00000000000E+00 -0.00000000000E+00 -0.11473052564E+03  0.11473052564E+03  0.00000000000E+00 0.  1.
         24    2    1    2    0    0  0.14030942553E+02  0.51234700205E+02 -0.76589909375E+02  0.12233589423E+03  0.79235061329E+02 0.  0.
        -13    1    3    3    0    0  0.37246213501E+02  0.45186370764E+02 -0.21730685171E+02  0.62460477112E+02  0.00000000000E+00 0.  1.
         14    1    3    3    0    0 -0.23215270949E+02  0.60483294406E+01 -0.54859224204E+02  0.59875417113E+02  0.00000000000E+00 0. -1.
         -2    1    1    2    0  502 -0.14030942553E+02 -0.51234700205E+02  0.30939007332E+02  0.61474255007E+02  0.00000000000E+00 0.  1.
<mgrwt>
<rscale>  1 0.17805102E+03</rscale>
<asrwt>0</asrwt>
<pdfrwt beam="1">  1       21 0.10627634E-01 0.17805102E+03</pdfrwt>
<pdfrwt beam="2">  1       -1 0.17650850E-01 0.17805102E+03</pdfrwt>
<totfact> 0.16219693E+05</totfact>
</mgrwt>
</event>
<event>
 6    2  0.4900839E+001  0.1834138E+03  0.7546771E-02  0.1164539E+00
         21   -1    0    0  501  502  0.00000000000E+00  0.00000000000E+00  0.32233508915E+01  0.32233508915E+01  0.00000000000E+00 0. -1.
          2   -1    0    0  502    0 -0.00000000000E+00 -0.00000000000E+00 -0.26091349801E+04  0.26091349801E+04  0.00000000000E+00 0. -1.
         24    2    1    2    0    0  0.63451225720E-01 -0.28713613226E+02 -0.25258154147E+04  0.25272708514E+04  0.80808238481E+02 0.  0.
        -13    1    3    3    0    0  0.24071391454E+02  0.19942107358E+02 -0.10167222711E+04  0.10172026820E+04  0.00000000000E+00 0.  1.
         14    1    3    3    0    0 -0.24007940228E+02 -0.48655720584E+02 -0.15090931436E+04  0.15100681694E+04  0.00000000000E+00 0. -1.
          1    1    1    2  501    0 -0.63451225720E-01  0.28713613226E+02 -0.80096214482E+02  0.85087479601E+02  0.00000000000E+00 0. -1.
<mgrwt>
<rscale>  1 0.18341382E+03</rscale>
<asrwt>0</asrwt>
<pdfrwt beam="1">  1       21 0.49589745E-03 0.18341382E+03</pdfrwt>
<pdfrwt beam="2">  1        2 0.40140756E+00 0.18341382E+03</pdfrwt>
<totfact> 0.51721299E+05</totfact>
</mgrwt>
</event>
<event>
 6    2  0.4900839E+001  0.3096587E+03  0.7546771E-02  0.1080510E+00
          2   -1    0    0  502    0 -0.00000000000E+00  0.00000000000E+00  0.26294902839E+04  0.26294902839E+04  0.00000000000E+00 0. -1.
         21   -1    0    0  501  502  0.00000000000E+00 -0.00000000000E+00 -0.91166461077E+01  0.91166461077E+01  0.00000000000E+00 0. -1.
         24    2    1    2    0    0  0.46995117181E+01  0.10190889005E+03  0.22704362885E+04  0.22741022582E+04  0.79073596764E+02 0.  0.
        -13    1    3    3    0    0  0.31454462063E+02  0.14685487804E+02  0.87375727620E+03  0.87444658182E+03  0.00000000000E+00 0.  1.
         14    1    3    3    0    0 -0.26754950345E+02  0.87223402247E+02  0.13966790123E+04  0.13996556764E+04  0.00000000000E+00 0. -1.
          1    1    1    2  501    0 -0.46995117181E+01 -0.10190889005E+03  0.34993734935E+03  0.36450467179E+03  0.00000000000E+00 0. -1.
<mgrwt>
<rscale>  1 0.30965873E+03</rscale>
<asrwt>0</asrwt>
<pdfrwt beam="1">  1       21 0.14025630E-02 0.30965873E+03</pdfrwt>
<pdfrwt beam="2">  1        2 0.40453636E+00 0.30965873E+03</pdfrwt>
<totfact> 0.95055557E+04</totfact>
</mgrwt>
</event>
<event>
 6    2  0.4900839E+001  0.1083320E+03  0.7546771E-02  0.1263690E+00
         -1   -1    0    0    0  501 -0.00000000000E+00  0.00000000000E+00  0.68287238789E+01  0.68287238789E+01  0.00000000000E+00 0.  1.
         21   -1    0    0  501  502  0.00000000000E+00 -0.00000000000E+00 -0.42964921312E+03  0.42964921312E+03  0.00000000000E+00 0.  1.
         24    2    1    2    0    0  0.98336932757E+01  0.21713368358E+02 -0.33450164430E+03  0.34499903091E+03  0.81023511374E+02 0.  0.
        -11    1    3    3    0    0  0.72953272048E+01  0.35271213814E+02 -0.32760234413E+03  0.32957635868E+03  0.00000000000E+00 0.  1.
         12    1    3    3    0    0  0.25383660709E+01 -0.13557845456E+02 -0.68993001799E+01  0.15422672230E+02  0.00000000000E+00 0. -1.
         -2    1    1    2    0  502 -0.98336932757E+01 -0.21713368358E+02 -0.88318844940E+02  0.91478906096E+02  0.00000000000E+00 0.  1.
<mgrwt>
<rscale>  1 0.10833201E+03</rscale>
<asrwt>0</asrwt>
<pdfrwt beam="1">  1       21 0.66099894E-01 0.10833201E+03</pdfrwt>
<pdfrwt beam="2">  1       -1 0.10505727E-02 0.10833201E+03</pdfrwt>
<totfact> 0.30651708E+05</totfact>
</mgrwt>
</event>
<event>
 6    2  0.5648240E+001  0.3322909E+03  0.7546771E-02  0.1070128E+00
          2   -1    0    0  502    0 -0.00000000000E+00  0.00000000000E+00  0.32633993766E+03  0.32633993766E+03  0.00000000000E+00 0. -1.
         21   -1    0    0  501  502  0.00000000000E+00 -0.00000000000E+00 -0.84587607479E+02  0.84587607479E+02  0.00000000000E+00 0. -1.
         24    2    1    2    0    0 -0.77974245435E+02 -0.11562341815E+03  0.21462024585E+03  0.26885394528E+03  0.82291167134E+02 0.  0.
        -11    1    3    3    0    0  0.15922057039E+02 -0.96797862470E+01  0.39467082417E+02  0.43644710524E+02  0.00000000000E+00 0.  1.
         12    1    3    3    0    0 -0.93896302475E+02 -0.10594363190E+03  0.17515316343E+03  0.22520923475E+03  0.00000000000E+00 0. -1.
          1    1    1    2  501    0  0.77974245435E+02  0.11562341815E+03  0.27132084332E+02  0.14207359986E+03  0.00000000000E+00 0. -1.
<mgrwt>
<rscale>  1 0.33229092E+03</rscale>
<asrwt>0</asrwt>
<pdfrwt beam="1">  1       21 0.13013478E-01 0.33229092E+03</pdfrwt>
<pdfrwt beam="2">  1        2 0.50206143E-01 0.33229092E+03</pdfrwt>
<totfact> 0.62710333E+04</totfact>
</mgrwt>
</event>
<event>
 6    2  0.4900839E+001  0.1813146E+03  0.7546771E-02  0.1166537E+00
         21   -1    0    0  501  502  0.00000000000E+00  0.00000000000E+00  0.22666444776E+03  0.22666444776E+03  0.00000000000E+00 0.  1.
         -3   -1    0    0    0  501 -0.00000000000E+00 -0.00000000000E+00 -0.36259532180E+02  0.36259532180E+02  0.00000000000E+00 0.  1.
         24    2    1    2    0    0  0.61634984599E+02  0.35258592915E+02  0.10789132358E+03  0.15406382853E+03  0.83982652114E+02 0.  0.
        -11    1    3    3    0    0  0.62532420368E+02  0.56318582013E+02  0.10188382702E+03  0.13214537633E+03  0.00000000000E+00 0.  1.
         12    1    3    3    0    0 -0.89743576963E+00 -0.21059989098E+02  0.60074965570E+01  0.21918452196E+02  0.00000000000E+00 0. -1.
         -4    1    1    2    0  502 -0.61634984599E+02 -0.35258592915E+02  0.82513591997E+02  0.10886015141E+03  0.00000000000E+00 0.  1.
<mgrwt>
<rscale>  1 0.18131461E+03</rscale>
<asrwt>0</asrwt>
<pdfrwt beam="1">  1       21 0.34871453E-01 0.18131461E+03</pdfrwt>
<pdfrwt beam="2">  1       -3 0.55783897E-02 0.18131461E+03</pdfrwt>
<totfact> 0.74315210E+04</totfact>
</mgrwt>
</event>
<event>
 6    2  0.4900839E+001  0.1697590E+03  0.7546771E-02  0.1178099E+00
         21   -1    0    0  501  502  0.00000000000E+00  0.00000000000E+00  0.41927266422E+01  0.41927266422E+01  0.00000000000E+00 0. -1.
          2   -1    0    0  502    0 -0.00000000000E+00 -0.00000000000E+00 -0.17183394564E+04  0.17183394564E+04  0.00000000000E+00 0. -1.
         24    2    1    2    0    0 -0.12524363377E+02  0.17292383711E+02 -0.16811012253E+04  0.16831889298E+04  0.81041701750E+02 0.  0.
        -11    1    3    3    0    0 -0.35663059725E+02 -0.10145469107E+01 -0.14162502967E+04  0.14166996104E+04  0.00000000000E+00 0.  1.
         12    1    3    3    0    0  0.23138696348E+02  0.18306930621E+02 -0.26485092859E+03  0.26648931939E+03  0.00000000000E+00 0. -1.
          1    1    1    2  501    0  0.12524363377E+02 -0.17292383711E+02 -0.33045504470E+02  0.39343253273E+02  0.00000000000E+00 0. -1.
<mgrwt>
<rscale>  1 0.16975898E+03</rscale>
<asrwt>0</asrwt>
<pdfrwt beam="1">  1       21 0.64503326E-03 0.16975898E+03</pdfrwt>
<pdfrwt beam="2">  1        2 0.26436057E+00 0.16975898E+03</pdfrwt>
<totfact> 0.10076516E+06</totfact>
</mgrwt>
</event>
<event>
 6    2  0.4900839E+001  0.1372363E+03  0.7546771E-02  0.1217097E+00
          2   -1    0    0  502    0 -0.00000000000E+00  0.00000000000E+00  0.20210207042E+03  0.20210207042E+03  0.00000000000E+00 0. -1.
         21   -1    0    0  501  502  0.00000000000E+00 -0.00000000000E+00 -0.23297374275E+02  0.23297374275E+02  0.00000000000E+00 0. -1.
         24    2    1    2    0    0 -0.31544191201E+02  0.24504391259E+02  0.87821488659E+02  0.12603423331E+03  0.81095702141E+02 0.  0.
        -13    1    3    3    0    0  0.78580739944E+01  0.83751827397E+01  0.82305300855E+02  0.83102680834E+02  0.00000000000E+00 0.  1.
         14    1    3    3    0    0 -0.39402265195E+02  0.16129208519E+02  0.55161878037E+01  0.42931552474E+02  0.00000000000E+00 0. -1.
          1    1    1    2  501    0  0.31544191201E+02 -0.24504391259E+02  0.90983207483E+02  0.99365211384E+02  0.00000000000E+00 0. -1.
<mgrwt>
<rscale>  1 0.13723626E+03</rscale>
<asrwt>0</asrwt>
<pdfrwt beam="1">  1       21 0.35842116E-02 0.13723626E+03</pdfrwt>
<pdfrwt beam="2">  1        2 0.31092625E-01 0.13723626E+03</pdfrwt>
<totfact> 0.95179521E+05</totfact>
</mgrwt>
</event>
<event>
 6    2  0.4900839E+001  0.2273964E+03  0.7546771E-02  0.1128486E+00
         -1   -1    0    0    0  501 -0.00000000000E+00  0.00000000000E+00  0.25980535489E+02  0.25980535489E+02  0.00000000000E+00 0.  1.
         21   -1    0    0  501  502  0.00000000000E+00 -0.00000000000E+00 -0.49757571622E+03  0.49757571622E+03  0.00000000000E+00 0.  1.
         24    2    1    2    0    0  0.12557088681E+02 -0.62651924770E+02 -0.85609409640E+02  0.13231724594E+03  0.78076490697E+02 0.  0.
        -11    1    3    3    0    0  0.26281238054E+02 -0.76748531693E+02 -0.66601542316E+02  0.10496097384E+03  0.00000000000E+00 0.  1.
         12    1    3    3    0    0 -0.13724149374E+02  0.14096606922E+02 -0.19007867324E+02  0.27356272096E+02  0.00000000000E+00 0. -1.
         -2    1    1    2    0  502 -0.12557088681E+02  0.62651924770E+02 -0.38598577109E+03  0.39123900577E+03  0.00000000000E+00 0.  1.
<mgrwt>
<rscale>  1 0.22739643E+03</rscale>
<asrwt>0</asrwt>
<pdfrwt beam="1">  1       21 0.76550106E-01 0.22739643E+03</pdfrwt>
<pdfrwt beam="2">  1       -1 0.39970057E-02 0.22739643E+03</pdfrwt>
<totfact> 0.32944775E+04</totfact>
</mgrwt>
</event>
<event>
 6    2  0.4900839E+001  0.5043799E+03  0.7546771E-02  0.1012642E+00
         21   -1    0    0  501  502  0.00000000000E+00  0.00000000000E+00  0.59267539781E+02  0.59267539781E+02  0.00000000000E+00 0. -1.
         -1   -1    0    0    0  501 -0.00000000000E+00 -0.00000000000E+00 -0.10730961994E+04  0.10730961994E+04  0.00000000000E+00 0.  1.
         24    2    1    2    0    0 -0.23325854542E+03 -0.70120544219E+02 -0.59418028570E+03  0.64715121104E+03  0.80175047892E+02 0.  0.
        -13    1    3    3    0    0 -0.15265077897E+03 -0.76809896226E+01 -0.39126221479E+03  0.42005639936E+03  0.00000000000E+00 0.  1.
         14    1    3    3    0    0 -0.80607766451E+02 -0.62439554596E+02 -0.20291807091E+03  0.22709481168E+03  0.00000000000E+00 0. -1.
         -2    1    1    2    0  502  0.23325854542E+03  0.70120544219E+02 -0.41964837396E+03  0.48521252818E+03  0.00000000000E+00 0.  1.
<mgrwt>
<rscale>  1 0.50437990E+03</rscale>
<asrwt>0</asrwt>
<pdfrwt beam="1">  1       21 0.91180832E-02 0.50437990E+03</pdfrwt>
<pdfrwt beam="2">  1       -1 0.16509172E+00 0.50437990E+03</pdfrwt>
<totfact> 0.24973563E+03</totfact>
</mgrwt>
</event>
<event>
 6    2  0.4900839E+001  0.2245584E+03  0.7546771E-02  0.1130529E+00
         21   -1    0    0  501  502  0.00000000000E+00  0.00000000000E+00  0.19776422551E+03  0.19776422551E+03  0.00000000000E+00 0.  1.
         -1   -1    0    0    0  501 -0.00000000000E+00 -0.00000000000E+00 -0.63745704732E+02  0.63745704732E+02  0.00000000000E+00 0.  1.
         24    2    1    2    0    0 -0.47211395039E+01  0.27947749852E+02 -0.33674742694E+02  0.91438190984E+02  0.80147293123E+02 0.  0.
        -13    1    3    3    0    0 -0.30253809103E+02  0.35408780415E+02  0.23784100607E+01  0.46634016877E+02  0.00000000000E+00 0.  1.
         14    1    3    3    0    0  0.25532669599E+02 -0.74610305622E+01 -0.36053152755E+02  0.44804174107E+02  0.00000000000E+00 0. -1.
         -2    1    1    2    0  502  0.47211395039E+01 -0.27947749852E+02  0.16769326347E+03  0.17007173926E+03  0.00000000000E+00 0.  1.
<mgrwt>
<rscale>  1 0.22455841E+03</rscale>
<asrwt>0</asrwt>
<pdfrwt beam="1">  1       21 0.30425265E-01 0.22455841E+03</pdfrwt>
<pdfrwt beam="2">  1       -1 0.98070316E-02 0.22455841E+03</pdfrwt>
<totfact> 0.58313412E+04</totfact>
</mgrwt>
</event>
<event>
 6    2  0.4900839E+001  0.1228288E+03  0.7546771E-02  0.1238502E+00
         21   -1    0    0  501  502  0.00000000000E+00  0.00000000000E+00  0.53535430347E+03  0.53535430347E+03  0.00000000000E+00 0.  1.
         -1   -1    0    0    0  501 -0.00000000000E+00 -0.00000000000E+00 -0.70452955307E+01  0.70452955307E+01  0.00000000000E+00 0.  1.
         24    2    1    2    0    0 -0.17968619571E+02 -0.23218040895E+02  0.46222213886E+03  0.47008484963E+03  0.80427056916E+02 0.  0.
        -13    1    3    3    0    0 -0.21367300893E+02 -0.35568507239E+02  0.45143613339E+03  0.45333901529E+03  0.00000000000E+00 0.  1.
         14    1    3    3    0    0  0.33986813220E+01  0.12350466343E+02  0.10786005471E+02  0.16745834337E+02  0.00000000000E+00 0. -1.
         -2    1    1    2    0  502  0.17968619571E+02  0.23218040895E+02  0.66086869082E+02  0.72314749376E+02  0.00000000000E+00 0.  1.
<mgrwt>
<rscale>  1 0.12282881E+03</rscale>
<asrwt>0</asrwt>
<pdfrwt beam="1">  1       21 0.82362169E-01 0.12282881E+03</pdfrwt>
<pdfrwt beam="2">  1       -1 0.10838920E-02 0.12282881E+03</pdfrwt>
<totfact> 0.18265301E+05</totfact>
</mgrwt>
</event>
<event>
 6    2  0.4900839E+001  0.1421299E+03  0.7546771E-02  0.1210491E+00
         21   -1    0    0  501  502  0.00000000000E+00  0.00000000000E+00  0.63647125661E+02  0.63647125661E+02  0.00000000000E+00 0.  1.
         -3   -1    0    0    0  501 -0.00000000000E+00 -0.00000000000E+00 -0.79347343887E+02  0.79347343887E+02  0.00000000000E+00 0.  1.
         24    2    1    2    0    0 -0.28595226149E+02 -0.13970074194E+02  0.25426175090E+02  0.90992256531E+02  0.81364921418E+02 0.  0.
        -13    1    3    3    0    0 -0.39297660131E+02 -0.17832694754E+02  0.48710214491E+02  0.65076847571E+02  0.00000000000E+00 0.  1.
         14    1    3    3    0    0  0.10702433982E+02  0.38626205603E+01 -0.23284039401E+02  0.25915408960E+02  0.00000000000E+00 0. -1.
         -4    1    1    2    0  502  0.28595226149E+02  0.13970074194E+02 -0.41126393316E+02  0.52002213017E+02  0.00000000000E+00 0.  1.
<mgrwt>
<rscale>  1 0.14212995E+03</rscale>
<asrwt>0</asrwt>
<pdfrwt beam="1">  1       21 0.97918655E-02 0.14212995E+03</pdfrwt>
<pdfrwt beam="2">  1       -3 0.12207284E-01 0.14212995E+03</pdfrwt>
<totfact> 0.21138182E+05</totfact>
</mgrwt>
</event>
<event>
 6    2  0.4900839E+001  0.1981705E+03  0.7546771E-02  0.1151292E+00
          2   -1    0    0  502    0 -0.00000000000E+00  0.00000000000E+00  0.10276730402E+04  0.10276730402E+04  0.00000000000E+00 0. -1.
         21   -1    0    0  501  502  0.00000000000E+00 -0.00000000000E+00 -0.95535116015E+01  0.95535116015E+01  0.00000000000E+00 0. -1.
         24    2    1    2    0    0  0.37958380612E+02 -0.11547289065E+02  0.97275015836E+03  0.97695584333E+03  0.81398222770E+02 0.  0.
        -13    1    3    3    0    0  0.41213628837E+01  0.26138925943E+02  0.12895505928E+03  0.13164207684E+03  0.00000000000E+00 0.  1.
         14    1    3    3    0    0  0.33837017728E+02 -0.37686215007E+02  0.84379509908E+03  0.84531376648E+03  0.00000000000E+00 0. -1.
          1    1    1    2  501    0 -0.37958380612E+02  0.11547289065E+02  0.45369370196E+02  0.60270708436E+02  0.00000000000E+00 0. -1.
<mgrwt>
<rscale>  1 0.19817050E+03</rscale>
<asrwt>0</asrwt>
<pdfrwt beam="1">  1       21 0.14697718E-02 0.19817050E+03</pdfrwt>
<pdfrwt beam="2">  1        2 0.15810346E+00 0.19817050E+03</pdfrwt>
<totfact> 0.65174129E+05</totfact>
</mgrwt>
</event>
<event>
 6    2  0.4900839E+001  0.2436998E+03  0.7546771E-02  0.1117352E+00
         -3   -1    0    0    0  501 -0.00000000000E+00  0.00000000000E+00  0.93031450073E+02  0.93031450073E+02  0.00000000000E+00 0.  1.
         21   -1    0    0  501  502  0.00000000000E+00 -0.00000000000E+00 -0.15959545833E+03  0.15959545833E+03  0.00000000000E+00 0.  1.
         24    2    1    2    0    0 -0.47120064980E+02 -0.37011742751E+02  0.56509684997E+02  0.11574263759E+03  0.81319395181E+02 0.  0.
        -13    1    3    3    0    0 -0.46541074103E+02 -0.56227703961E+02  0.21990831109E+02  0.76231377557E+02  0.00000000000E+00 0.  1.
         14    1    3    3    0    0 -0.57899087708E+00  0.19215961210E+02  0.34518853888E+02  0.39511260033E+02  0.00000000000E+00 0. -1.
         -4    1    1    2    0  502  0.47120064980E+02  0.37011742751E+02 -0.12307369326E+03  0.13688427082E+03  0.00000000000E+00 0.  1.
<mgrwt>
<rscale>  1 0.24369979E+03</rscale>
<asrwt>0</asrwt>
<pdfrwt beam="1">  1       21 0.24553147E-01 0.24369979E+03</pdfrwt>
<pdfrwt beam="2">  1       -3 0.14312531E-01 0.24369979E+03</pdfrwt>
<totfact> 0.31440849E+04</totfact>
</mgrwt>
</event>
<event>
 6    2  0.4900839E+001  0.1455277E+03  0.7546771E-02  0.1206079E+00
         21   -1    0    0  501  502  0.00000000000E+00  0.00000000000E+00  0.22660319332E+03  0.22660319332E+03  0.00000000000E+00 0.  1.
         -1   -1    0    0    0  501 -0.00000000000E+00 -0.00000000000E+00 -0.23364975403E+02  0.23364975403E+02  0.00000000000E+00 0.  1.
         24    2    1    2    0    0  0.15746021032E+02 -0.17528010285E+02  0.56039778814E+02  0.10089587486E+03  0.80525476910E+02 0.  0.
        -11    1    3    3    0    0  0.36692467088E+02 -0.80331439867E+01  0.65916053629E+02  0.75866953737E+02  0.00000000000E+00 0.  1.
         12    1    3    3    0    0 -0.20946446056E+02 -0.94948662981E+01 -0.98762748153E+01  0.25028921124E+02  0.00000000000E+00 0. -1.
         -2    1    1    2    0  502 -0.15746021032E+02  0.17528010285E+02  0.14719843910E+03  0.14907229386E+03  0.00000000000E+00 0.  1.
<mgrwt>
<rscale>  1 0.14552770E+03</rscale>
<asrwt>0</asrwt>
<pdfrwt beam="1">  1       21 0.34862028E-01 0.14552770E+03</pdfrwt>
<pdfrwt beam="2">  1       -1 0.35946118E-02 0.14552770E+03</pdfrwt>
<totfact> 0.19818302E+05</totfact>
</mgrwt>
</event>
<event>
 6    2  0.4900839E+001  0.1322250E+03  0.7546771E-02  0.1224191E+00
          2   -1    0    0  502    0 -0.00000000000E+00  0.00000000000E+00  0.25418075708E+04  0.25418075708E+04  0.00000000000E+00 0. -1.
         21   -1    0    0  501  502  0.00000000000E+00 -0.00000000000E+00 -0.17195883440E+01  0.17195883440E+01  0.00000000000E+00 0. -1.
         24    2    1    2    0    0 -0.30762055321E+02 -0.26200764715E+02  0.19534339876E+04  0.19554832035E+04  0.79858819424E+02 0.  0.
        -13    1    3    3    0    0  0.13035739782E+02  0.20302628384E+02  0.39086369766E+03  0.39160765746E+03  0.00000000000E+00 0.  1.
         14    1    3    3    0    0 -0.43797795103E+02 -0.46503393099E+02  0.15625702900E+04  0.15638755460E+04  0.00000000000E+00 0. -1.
          1    1    1    2  501    0  0.30762055321E+02  0.26200764715E+02  0.58665399487E+03  0.58804395569E+03  0.00000000000E+00 0. -1.
<mgrwt>
<rscale>  1 0.13222500E+03</rscale>
<asrwt>0</asrwt>
<pdfrwt beam="1">  1       21 0.26455409E-03 0.13222500E+03</pdfrwt>
<pdfrwt beam="2">  1        2 0.39104431E+00 0.13222500E+03</pdfrwt>
<totfact> 0.14731042E+06</totfact>
</mgrwt>
</event>
<event>
 6    2  0.4900839E+001  0.1688950E+03  0.7546771E-02  0.1179005E+00
         21   -1    0    0  501  502  0.00000000000E+00  0.00000000000E+00  0.57449387258E+02  0.57449387258E+02  0.00000000000E+00 0. -1.
          2   -1    0    0  502    0 -0.00000000000E+00 -0.00000000000E+00 -0.12413323689E+03  0.12413323689E+03  0.00000000000E+00 0. -1.
         24    2    1    2    0    0  0.55955364730E+02  0.31971346923E+02 -0.22406622415E+02  0.10339283762E+03  0.77684311659E+02 0.  0.
        -13    1    3    3    0    0  0.24575714232E+02  0.48958801767E+02  0.94127555010E+01  0.55583540429E+02  0.00000000000E+00 0.  1.
         14    1    3    3    0    0  0.31379650498E+02 -0.16987454844E+02 -0.31819377916E+02  0.47809297196E+02  0.00000000000E+00 0. -1.
          1    1    1    2  501    0 -0.55955364730E+02 -0.31971346923E+02 -0.44277227212E+02  0.78189786518E+02  0.00000000000E+00 0. -1.
<mgrwt>
<rscale>  1 0.16889498E+03</rscale>
<asrwt>0</asrwt>
<pdfrwt beam="1">  1       21 0.88383673E-02 0.16889498E+03</pdfrwt>
<pdfrwt beam="2">  1        2 0.19097421E-01 0.16889498E+03</pdfrwt>
<totfact> 0.35855811E+05</totfact>
</mgrwt>
</event>
<event>
 6    2  0.4900839E+001  0.1204830E+03  0.7546771E-02  0.1242302E+00
          2   -1    0    0  502    0 -0.00000000000E+00  0.00000000000E+00  0.10759924133E+04  0.10759924133E+04  0.00000000000E+00 0. -1.
         21   -1    0    0  501  502  0.00000000000E+00 -0.00000000000E+00 -0.33727371645E+01  0.33727371645E+01  0.00000000000E+00 0. -1.
         24    2    1    2    0    0 -0.14433392893E+02  0.29382387773E+02  0.65813249683E+03  0.66358724178E+03  0.78345366983E+02 0.  0.
        -13    1    3    3    0    0 -0.80306791262E+01  0.20720817445E+01  0.58792372741E+03  0.58798222301E+03  0.00000000000E+00 0.  1.
         14    1    3    3    0    0 -0.64027137664E+01  0.27310306029E+02  0.70208769417E+02  0.75605018762E+02  0.00000000000E+00 0. -1.
          1    1    1    2  501    0  0.14433392893E+02 -0.29382387773E+02  0.41448717934E+03  0.41577790871E+03  0.00000000000E+00 0. -1.
<mgrwt>
<rscale>  1 0.12048302E+03</rscale>
<asrwt>0</asrwt>
<pdfrwt beam="1">  1       21 0.51888350E-03 0.12048302E+03</pdfrwt>
<pdfrwt beam="2">  1        2 0.16553702E+00 0.12048302E+03</pdfrwt>
<totfact> 0.30544682E+06</totfact>
</mgrwt>
</event>
<event>
 6    2  0.4900839E+001  0.2517697E+03  0.7546771E-02  0.1112192E+00
          2   -1    0    0  502    0 -0.00000000000E+00  0.00000000000E+00  0.13163011132E+04  0.13163011132E+04  0.00000000000E+00 0. -1.
         21   -1    0    0  501  502  0.00000000000E+00 -0.00000000000E+00 -0.12039032563E+02  0.12039032563E+02  0.00000000000E+00 0. -1.
         24    2    1    2    0    0  0.97701027267E+02 -0.40479948361E+02  0.50079454476E+03  0.51794259014E+03  0.79279465644E+02 0.  0.
        -11    1    3    3    0    0  0.14911639848E+02 -0.24400499258E+02  0.28216814493E+03  0.28361347532E+03  0.00000000000E+00 0.  1.
         12    1    3    3    0    0  0.82789387420E+02 -0.16079449103E+02  0.21862639983E+03  0.23432911483E+03  0.00000000000E+00 0. -1.
          1    1    1    2  501    0 -0.97701027267E+02  0.40479948361E+02  0.80346753585E+03  0.81039755559E+03  0.00000000000E+00 0. -1.
<mgrwt>
<rscale>  1 0.25176967E+03</rscale>
<asrwt>0</asrwt>
<pdfrwt beam="1">  1       21 0.18521599E-02 0.25176967E+03</pdfrwt>
<pdfrwt beam="2">  1        2 0.20250775E+00 0.25176967E+03</pdfrwt>
<totfact> 0.30743041E+05</totfact>
</mgrwt>
</event>
<event>
 6    2  0.4900839E+001  0.1425598E+03  0.7546771E-02  0.1209926E+00
          2   -1    0    0  502    0 -0.00000000000E+00  0.00000000000E+00  0.18127153372E+03  0.18127153372E+03  0.00000000000E+00 0. -1.
         21   -1    0    0  501  502  0.00000000000E+00 -0.00000000000E+00 -0.28028793762E+02  0.28028793762E+02  0.00000000000E+00 0. -1.
         24    2    1    2    0    0  0.71788289068E+01  0.48792010992E+02  0.10329954667E+03  0.13911116537E+03  0.79050136427E+02 0.  0.
        -13    1    3    3    0    0 -0.86651672472E+01 -0.15495325876E+02  0.53193530879E+02  0.56077999027E+02  0.00000000000E+00 0.  1.
         14    1    3    3    0    0  0.15843996154E+02  0.64287336868E+02  0.50106015788E+02  0.83033166348E+02  0.00000000000E+00 0. -1.
          1    1    1    2  501    0 -0.71788289068E+01 -0.48792010992E+02  0.49943193289E+02  0.70189162105E+02  0.00000000000E+00 0. -1.
<mgrwt>
<rscale>  1 0.14255978E+03</rscale>
<asrwt>0</asrwt>
<pdfrwt beam="1">  1       21 0.43121222E-02 0.14255978E+03</pdfrwt>
<pdfrwt beam="2">  1        2 0.27887928E-01 0.14255978E+03</pdfrwt>
<totfact> 0.79012634E+05</totfact>
</mgrwt>
</event>
<event>
 6    2  0.4900839E+001  0.2197799E+03  0.7546771E-02  0.1134047E+00
          2   -1    0    0  502    0 -0.00000000000E+00  0.00000000000E+00  0.35921598598E+04  0.35921598598E+04  0.00000000000E+00 0. -1.
         21   -1    0    0  501  502  0.00000000000E+00 -0.00000000000E+00 -0.33617088683E+01  0.33617088683E+01  0.00000000000E+00 0. -1.
         24    2    1    2    0    0 -0.83118554162E+02  0.40925118821E+02  0.17093769154E+04  0.17138181542E+04  0.81361338602E+02 0.  0.
        -11    1    3    3    0    0 -0.52146939911E+02 -0.10130663281E+02  0.11578303220E+04  0.11590483114E+04  0.00000000000E+00 0.  1.
         12    1    3    3    0    0 -0.30971614251E+02  0.51055782102E+02  0.55154659335E+03  0.55476984274E+03  0.00000000000E+00 0. -1.
          1    1    1    2  501    0  0.83118554162E+02 -0.40925118821E+02  0.18794212356E+04  0.18817034145E+04  0.00000000000E+00 0. -1.
<mgrwt>
<rscale>  1 0.21977985E+03</rscale>
<asrwt>0</asrwt>
<pdfrwt beam="1">  1       21 0.51718885E-03 0.21977985E+03</pdfrwt>
<pdfrwt beam="2">  1        2 0.55263691E+00 0.21977985E+03</pdfrwt>
<totfact> 0.12299126E+05</totfact>
</mgrwt>
</event>
<event>
 6    2  0.4900839E+001  0.1360700E+03  0.7546771E-02  0.1218717E+00
         -1   -1    0    0    0  501 -0.00000000000E+00  0.00000000000E+00  0.34455301308E+03  0.34455301308E+03  0.00000000000E+00 0.  1.
         21   -1    0    0  501  502  0.00000000000E+00 -0.00000000000E+00 -0.13434107246E+02  0.13434107246E+02  0.00000000000E+00 0.  1.
         24    2    1    2    0    0  0.42318882539E+02  0.88196024996E+01  0.24354777498E+03  0.26032762941E+03  0.81155916158E+02 0.  0.
        -13    1    3    3    0    0  0.54879450477E+02  0.21077543813E+02  0.10225955074E+03  0.11795351905E+03  0.00000000000E+00 0.  1.
         14    1    3    3    0    0 -0.12560567938E+02 -0.12257941313E+02  0.14128822424E+03  0.14237411036E+03  0.00000000000E+00 0. -1.
         -2    1    1    2    0  502 -0.42318882539E+02 -0.88196024996E+01  0.87571130853E+02  0.97659490919E+02  0.00000000000E+00 0.  1.
<mgrwt>
<rscale>  1 0.13607001E+03</rscale>
<asrwt>0</asrwt>
<pdfrwt beam="1">  1       21 0.20667860E-02 0.13607001E+03</pdfrwt>
<pdfrwt beam="2">  1       -1 0.53008149E-01 0.13607001E+03</pdfrwt>
<totfact> 0.38805957E+05</totfact>
</mgrwt>
</event>
<event>
 6    2  0.4900839E+001  0.1217332E+03  0.7546771E-02  0.1240265E+00
          4   -1    0    0  502    0 -0.00000000000E+00  0.00000000000E+00  0.13105711106E+04  0.13105711106E+04  0.00000000000E+00 0. -1.
         21   -1    0    0  501  502  0.00000000000E+00 -0.00000000000E+00 -0.28268168138E+01  0.28268168138E+01  0.00000000000E+00 0. -1.
         24    2    1    2    0    0  0.25519863176E+02  0.18225449625E+02  0.78908751153E+03  0.79379395494E+03  0.80413379579E+02 0.  0.
        -11    1    3    3    0    0  0.10649980710E+02 -0.23587677267E+02  0.55089294490E+03  0.55150053250E+03  0.00000000000E+00 0.  1.
         12    1    3    3    0    0  0.14869882466E+02  0.41813126892E+02  0.23819456663E+03  0.24229342243E+03  0.00000000000E+00 0. -1.
          3    1    1    2  501    0 -0.25519863176E+02 -0.18225449625E+02  0.51865678221E+03  0.51960397243E+03  0.00000000000E+00 0. -1.
<mgrwt>
<rscale>  1 0.12173322E+03</rscale>
<asrwt>0</asrwt>
<pdfrwt beam="1">  1       21 0.43489594E-03 0.12173322E+03</pdfrwt>
<pdfrwt beam="2">  1        4 0.20162584E+00 0.12173322E+03</pdfrwt>
<totfact> 0.78495328E+04</totfact>
</mgrwt>
</event>
<event>
 6    2  0.4900839E+001  0.1108159E+03  0.7546771E-02  0.1259066E+00
         -1   -1    0    0    0  501 -0.00000000000E+00  0.00000000000E+00  0.21892094474E+02  0.21892094474E+02  0.00000000000E+00 0.  1.
         21   -1    0    0  501  502  0.00000000000E+00 -0.00000000000E+00 -0.14023517553E+03  0.14023517553E+03  0.00000000000E+00 0.  1.
         24    2    1    2    0    0 -0.98165003658E+00 -0.22370473613E+02 -0.10650114060E+03  0.13679678876E+03  0.82882246220E+02 0.  0.
        -13    1    3    3    0    0  0.36929783712E+02 -0.26944742145E+02 -0.72262899665E+02  0.85508799093E+02  0.00000000000E+00 0.  1.
         14    1    3    3    0    0 -0.37911433748E+02  0.45742685325E+01 -0.34238240939E+02  0.51287989667E+02  0.00000000000E+00 0. -1.
         -2    1    1    2    0  502  0.98165003658E+00  0.22370473613E+02 -0.11841940452E+02  0.25330481245E+02  0.00000000000E+00 0.  1.
<mgrwt>
<rscale>  1 0.11081591E+03</rscale>
<asrwt>0</asrwt>
<pdfrwt beam="1">  1       21 0.21574643E-01 0.11081591E+03</pdfrwt>
<pdfrwt beam="2">  1       -1 0.33680144E-02 0.11081591E+03</pdfrwt>
<totfact> 0.53280442E+05</totfact>
</mgrwt>
</event>
<event>
 6    2  0.4900839E+001  0.1506392E+03  0.7546771E-02  0.1199690E+00
         21   -1    0    0  501  502  0.00000000000E+00  0.00000000000E+00  0.28532316974E+01  0.28532316974E+01  0.00000000000E+00 0. -1.
          2   -1    0    0  502    0 -0.00000000000E+00 -0.00000000000E+00 -0.19882878034E+04  0.19882878034E+04  0.00000000000E+00 0. -1.
         24    2    1    2    0    0  0.28328017827E+01 -0.53257408182E+02 -0.12025336417E+04  0.12064256456E+04  0.80816475324E+02 0.  0.
        -11    1    3    3    0    0 -0.22551543209E+02  0.50496672730E+00 -0.70370472513E+03  0.70406616682E+03  0.00000000000E+00 0.  1.
         12    1    3    3    0    0  0.25384344991E+02 -0.53762374909E+02 -0.49882891653E+03  0.50235947876E+03  0.00000000000E+00 0. -1.
          1    1    1    2  501    0 -0.28328017827E+01  0.53257408182E+02 -0.78290093000E+03  0.78471538948E+03  0.00000000000E+00 0. -1.
<mgrwt>
<rscale>  1 0.15063925E+03</rscale>
<asrwt>0</asrwt>
<pdfrwt beam="1">  1       21 0.43895846E-03 0.15063925E+03</pdfrwt>
<pdfrwt beam="2">  1        2 0.30589061E+00 0.15063925E+03</pdfrwt>
<totfact> 0.13257803E+06</totfact>
</mgrwt>
</event>
<event>
 6    2  0.4900839E+001  0.2436657E+03  0.7546771E-02  0.1117375E+00
          2   -1    0    0  502    0 -0.00000000000E+00  0.00000000000E+00  0.52106195755E+03  0.52106195755E+03  0.00000000000E+00 0. -1.
         21   -1    0    0  501  502  0.00000000000E+00 -0.00000000000E+00 -0.28486524093E+02  0.28486524093E+02  0.00000000000E+00 0. -1.
         24    2    1    2    0    0 -0.50392445051E+02  0.95676650757E+02  0.29784791585E+03  0.32681046035E+03  0.79989224251E+02 0.  0.
        -13    1    3    3    0    0  0.89533838269E+01  0.19462783612E+02  0.14090146326E+03  0.14252082436E+03  0.00000000000E+00 0.  1.
         14    1    3    3    0    0 -0.59345828878E+02  0.76213867146E+02  0.15694645260E+03  0.18428963599E+03  0.00000000000E+00 0. -1.
          1    1    1    2  501    0  0.50392445051E+02 -0.95676650757E+02  0.19472751760E+03  0.22273802129E+03  0.00000000000E+00 0. -1.
<mgrwt>
<rscale>  1 0.24366571E+03</rscale>
<asrwt>0</asrwt>
<pdfrwt beam="1">  1       21 0.43825426E-02 0.24366571E+03</pdfrwt>
<pdfrwt beam="2">  1        2 0.80163371E-01 0.24366571E+03</pdfrwt>
<totfact> 0.25155400E+05</totfact>
</mgrwt>
</event>
<event>
 6    2  0.4900839E+001  0.2324089E+03  0.7546771E-02  0.1124956E+00
          2   -1    0    0  502    0 -0.00000000000E+00  0.00000000000E+00  0.12328702714E+04  0.12328702714E+04  0.00000000000E+00 0. -1.
         21   -1    0    0  501  502  0.00000000000E+00 -0.00000000000E+00 -0.10952870876E+02  0.10952870876E+02  0.00000000000E+00 0. -1.
         24    2    1    2    0    0  0.58334148173E+02  0.31610597362E+02  0.11006059538E+04  0.11055532258E+04  0.80699236184E+02 0.  0.
        -11    1    3    3    0    0  0.29525483571E+02  0.42668797227E+02  0.30749547207E+03  0.31184266190E+03  0.00000000000E+00 0.  1.
         12    1    3    3    0    0  0.28808664602E+02 -0.11058199865E+02  0.79311048176E+03  0.79371056388E+03  0.00000000000E+00 0. -1.
          1    1    1    2  501    0 -0.58334148173E+02 -0.31610597362E+02  0.12131144671E+03  0.13826991651E+03  0.00000000000E+00 0. -1.
<mgrwt>
<rscale>  1 0.23240885E+03</rscale>
<asrwt>0</asrwt>
<pdfrwt beam="1">  1       21 0.16850580E-02 0.23240885E+03</pdfrwt>
<pdfrwt beam="2">  1        2 0.18967224E+00 0.23240885E+03</pdfrwt>
<totfact> 0.39882966E+05</totfact>
</mgrwt>
</event>
<event>
 6    2  0.4900839E+001  0.2297015E+03  0.7546771E-02  0.1126850E+00
         21   -1    0    0  501  502  0.00000000000E+00  0.00000000000E+00  0.44890156408E+02  0.44890156408E+02  0.00000000000E+00 0. -1.
          2   -1    0    0  502    0 -0.00000000000E+00 -0.00000000000E+00 -0.29384388296E+03  0.29384388296E+03  0.00000000000E+00 0. -1.
         24    2    1    2    0    0 -0.35682450752E+02  0.15754635665E+02 -0.27868838423E+03  0.28968716685E+03  0.68774946711E+02 0.  0.
        -13    1    3    3    0    0  0.18765188167E+01 -0.23981114877E+02 -0.97870844944E+02  0.10078351792E+03  0.00000000000E+00 0.  1.
         14    1    3    3    0    0 -0.37558969569E+02  0.39735750541E+02 -0.18081753929E+03  0.18890364894E+03  0.00000000000E+00 0. -1.
          1    1    1    2  501    0  0.35682450752E+02 -0.15754635665E+02  0.29734657679E+02  0.49046872519E+02  0.00000000000E+00 0. -1.
<mgrwt>
<rscale>  1 0.22970153E+03</rscale>
<asrwt>0</asrwt>
<pdfrwt beam="1">  1       21 0.69061779E-02 0.22970153E+03</pdfrwt>
<pdfrwt beam="2">  1        2 0.45206751E-01 0.22970153E+03</pdfrwt>
<totfact> 0.21569805E+05</totfact>
</mgrwt>
</event>
<event>
 6    2  0.4900839E+001  0.1042020E+03  0.7546771E-02  0.1271700E+00
         21   -1    0    0  501  502  0.00000000000E+00  0.00000000000E+00  0.18794859675E+01  0.18794859675E+01  0.00000000000E+00 0. -1.
          2   -1    0    0  502    0 -0.00000000000E+00 -0.00000000000E+00 -0.14442860045E+04  0.14442860045E+04  0.00000000000E+00 0. -1.
         24    2    1    2    0    0 -0.17493876148E+02 -0.10360528956E+02 -0.11455991272E+04  0.11486625429E+04  0.81332041363E+02 0.  0.
        -13    1    3    3    0    0  0.30918515551E+02 -0.27442438791E+01 -0.62228122423E+03  0.62305489928E+03  0.00000000000E+00 0.  1.
         14    1    3    3    0    0 -0.48412391699E+02 -0.76162850774E+01 -0.52331790298E+03  0.52560764364E+03  0.00000000000E+00 0. -1.
          1    1    1    2  501    0  0.17493876148E+02  0.10360528956E+02 -0.29680739127E+03  0.29750294751E+03  0.00000000000E+00 0. -1.
<mgrwt>
<rscale>  1 0.10420202E+03</rscale>
<asrwt>0</asrwt>
<pdfrwt beam="1">  1       21 0.28915096E-03 0.10420202E+03</pdfrwt>
<pdfrwt beam="2">  1        2 0.22219841E+00 0.10420202E+03</pdfrwt>
<totfact> 0.46573269E+06</totfact>
</mgrwt>
</event>
<event>
 6    2  0.4900839E+001  0.1119370E+03  0.7546771E-02  0.1257024E+00
          2   -1    0    0  502    0 -0.00000000000E+00  0.00000000000E+00  0.10152573613E+04  0.10152573613E+04  0.00000000000E+00 0. -1.
         21   -1    0    0  501  502  0.00000000000E+00 -0.00000000000E+00 -0.30853976021E+01  0.30853976021E+01  0.00000000000E+00 0.  1.
         24    2    1    2    0    0  0.20905616398E+02  0.11448906139E+02  0.62612025880E+03  0.63155594281E+03  0.79172016325E+02 0.  0.
        -13    1    3    3    0    0 -0.51401939490E+01  0.42040454540E+02  0.30220702324E+03  0.30516045994E+03  0.00000000000E+00 0.  1.
         14    1    3    3    0    0  0.26045810347E+02 -0.30591548400E+02  0.32391323555E+03  0.32639548287E+03  0.00000000000E+00 0. -1.
          1    1    1    2  501    0 -0.20905616398E+02 -0.11448906139E+02  0.38605170494E+03  0.38678681614E+03  0.00000000000E+00 0. -1.
<mgrwt>
<rscale>  1 0.11193699E+03</rscale>
<asrwt>0</asrwt>
<pdfrwt beam="1">  1       21 0.47467736E-03 0.11193699E+03</pdfrwt>
<pdfrwt beam="2">  1        2 0.15619317E+00 0.11193699E+03</pdfrwt>
<totfact> 0.37741478E+06</totfact>
</mgrwt>
</event>
<event>
 6    2  0.4900839E+001  0.2895264E+03  0.7546771E-02  0.1090597E+00
         -1   -1    0    0    0  501 -0.00000000000E+00  0.00000000000E+00  0.32952719781E+03  0.32952719781E+03  0.00000000000E+00 0.  1.
         21   -1    0    0  501  502  0.00000000000E+00 -0.00000000000E+00 -0.63595293506E+02  0.63595293506E+02  0.00000000000E+00 0. -1.
         24    2    1    2    0    0 -0.57533611451E+01 -0.79324969380E+02  0.28885203804E+03  0.31035242147E+03  0.80978847254E+02 0.  0.
        -11    1    3    3    0    0 -0.12814912878E+02  0.61723625831E+01  0.72345902943E+01  0.15958049651E+02  0.00000000000E+00 0.  1.
         12    1    3    3    0    0  0.70615517330E+01 -0.85497331964E+02  0.28161744774E+03  0.29439437182E+03  0.00000000000E+00 0. -1.
         -2    1    1    2    0  502  0.57533611451E+01  0.79324969380E+02 -0.22920133735E+02  0.82770069845E+02  0.00000000000E+00 0.  1.
<mgrwt>
<rscale>  1 0.28952636E+03</rscale>
<asrwt>0</asrwt>
<pdfrwt beam="1">  1       21 0.97838915E-02 0.28952636E+03</pdfrwt>
<pdfrwt beam="2">  1       -1 0.50696491E-01 0.28952636E+03</pdfrwt>
<totfact> 0.31202001E+04</totfact>
</mgrwt>
</event>
<event>
 6    2  0.4900839E+001  0.1136987E+03  0.7546771E-02  0.1253870E+00
         21   -1    0    0  501  502  0.00000000000E+00  0.00000000000E+00  0.97180701095E+02  0.97180701095E+02  0.00000000000E+00 0. -1.
          2   -1    0    0  502    0 -0.00000000000E+00 -0.00000000000E+00 -0.33256096958E+02  0.33256096958E+02  0.00000000000E+00 0. -1.
         24    2    1    2    0    0 -0.78707392992E+01  0.19742334455E+02  0.32944750977E+02  0.92867400817E+02  0.84186039287E+02 0.  0.
        -11    1    3    3    0    0  0.19329890504E+02 -0.22057317872E+02  0.31408833374E+02  0.42973070085E+02  0.00000000000E+00 0.  1.
         12    1    3    3    0    0 -0.27200629804E+02  0.41799652327E+02  0.15359176023E+01  0.49894330732E+02  0.00000000000E+00 0. -1.
          1    1    1    2  501    0  0.78707392992E+01 -0.19742334455E+02  0.30979853160E+02  0.37569397236E+02  0.00000000000E+00 0. -1.
<mgrwt>
<rscale>  1 0.11369874E+03</rscale>
<asrwt>0</asrwt>
<pdfrwt beam="1">  1       21 0.14950877E-01 0.11369874E+03</pdfrwt>
<pdfrwt beam="2">  1        2 0.51163226E-02 0.11369874E+03</pdfrwt>
<totfact> 0.68938388E+05</totfact>
</mgrwt>
</event>
<event>
 6    2  0.4900839E+001  0.1939508E+03  0.7546771E-02  0.1154945E+00
         21   -1    0    0  501  502  0.00000000000E+00  0.00000000000E+00  0.29407565780E+02  0.29407565780E+02  0.00000000000E+00 0. -1.
         -1   -1    0    0    0  501 -0.00000000000E+00 -0.00000000000E+00 -0.31978954909E+03  0.31978954909E+03  0.00000000000E+00 0.  1.
         24    2    1    2    0    0 -0.41839073114E+01 -0.34715683850E+02 -0.16317113009E+02  0.72910602499E+02  0.61862945244E+02 0.  0.
        -11    1    3    3    0    0  0.27365938581E+02 -0.77857525638E+01 -0.13049574593E+02  0.31301819986E+02  0.00000000000E+00 0.  1.
         12    1    3    3    0    0 -0.31549845892E+02 -0.26929931286E+02 -0.32675384162E+01  0.41608782513E+02  0.00000000000E+00 0. -1.
         -2    1    1    2    0  502  0.41839073114E+01  0.34715683850E+02 -0.27406487030E+03  0.27628651237E+03  0.00000000000E+00 0.  1.
<mgrwt>
<rscale>  1 0.19395084E+03</rscale>
<asrwt>0</asrwt>
<pdfrwt beam="1">  1       21 0.45242410E-02 0.19395084E+03</pdfrwt>
<pdfrwt beam="2">  1       -1 0.49198391E-01 0.19395084E+03</pdfrwt>
<totfact> 0.12470488E+05</totfact>
</mgrwt>
</event>
<event>
 6    2  0.4900839E+001  0.4234698E+03  0.7546771E-02  0.1035943E+00
          2   -1    0    0  502    0 -0.00000000000E+00  0.00000000000E+00  0.20342600686E+04  0.20342600686E+04  0.00000000000E+00 0. -1.
         21   -1    0    0  501  502  0.00000000000E+00 -0.00000000000E+00 -0.22038313296E+02  0.22038313296E+02  0.00000000000E+00 0. -1.
         24    2    1    2    0    0 -0.13553060808E+03 -0.14755941617E+03  0.87402962294E+03  0.90060652971E+03  0.83797449579E+02 0.  0.
        -13    1    3    3    0    0 -0.36076263249E+02 -0.60827084767E+02  0.47717948738E+03  0.48239163984E+03  0.00000000000E+00 0.  1.
         14    1    3    3    0    0 -0.99454344831E+02 -0.86732331406E+02  0.39685013556E+03  0.41821488987E+03  0.00000000000E+00 0. -1.
          1    1    1    2  501    0  0.13553060808E+03  0.14755941617E+03  0.11381921324E+04  0.11556918522E+04  0.00000000000E+00 0. -1.
<mgrwt>
<rscale>  1 0.42346977E+03</rscale>
<asrwt>0</asrwt>
<pdfrwt beam="1">  1       21 0.33905113E-02 0.42346977E+03</pdfrwt>
<pdfrwt beam="2">  1        2 0.31296294E+00 0.42346977E+03</pdfrwt>
<totfact> 0.45770633E+04</totfact>
</mgrwt>
</event>
<event>
 6    2  0.4900839E+001  0.1420470E+03  0.7546771E-02  0.1210601E+00
         21   -1    0    0  501  502  0.00000000000E+00  0.00000000000E+00  0.12016764667E+03  0.12016764667E+03  0.00000000000E+00 0. -1.
          2   -1    0    0  502    0 -0.00000000000E+00 -0.00000000000E+00 -0.41977479718E+02  0.41977479718E+02  0.00000000000E+00 0. -1.
         24    2    1    2    0    0  0.34965535346E+02  0.33044235717E+02  0.59154311309E+02  0.11040661099E+03  0.79849089079E+02 0.  0.
        -13    1    3    3    0    0 -0.25375034660E+02  0.15139016022E+02  0.12614277223E+02  0.32127903448E+02  0.00000000000E+00 0.  1.
         14    1    3    3    0    0  0.60340570006E+02  0.17905219695E+02  0.46540034086E+02  0.78278707537E+02  0.00000000000E+00 0. -1.
          1    1    1    2  501    0 -0.34965535346E+02 -0.33044235717E+02  0.19035855646E+02  0.51738515405E+02  0.00000000000E+00 0. -1.
<mgrwt>
<rscale>  1 0.14204696E+03</rscale>
<asrwt>0</asrwt>
<pdfrwt beam="1">  1       21 0.18487330E-01 0.14204696E+03</pdfrwt>
<pdfrwt beam="2">  1        2 0.64580738E-02 0.14204696E+03</pdfrwt>
<totfact> 0.35362155E+05</totfact>
</mgrwt>
</event>
<event>
 6    2  0.4900839E+001  0.1326655E+03  0.7546771E-02  0.1223553E+00
         21   -1    0    0  501  502  0.00000000000E+00  0.00000000000E+00  0.23255131566E+03  0.23255131566E+03  0.00000000000E+00 0.  1.
         -1   -1    0    0    0  501 -0.00000000000E+00 -0.00000000000E+00 -0.18920714336E+02  0.18920714336E+02  0.00000000000E+00 0.  1.
         24    2    1    2    0    0 -0.19700565351E+02 -0.22698572678E+02  0.95849173583E+02  0.12991627243E+03  0.82388326168E+02 0.  0.
        -13    1    3    3    0    0 -0.33444751475E+02 -0.46878001359E+02  0.77671998479E+02  0.96690422278E+02  0.00000000000E+00 0.  1.
         14    1    3    3    0    0  0.13744186124E+02  0.24179428681E+02  0.18177175103E+02  0.33225850151E+02  0.00000000000E+00 0. -1.
         -2    1    1    2    0  502  0.19700565351E+02  0.22698572678E+02  0.11778142774E+03  0.12155575756E+03  0.00000000000E+00 0.  1.
<mgrwt>
<rscale>  1 0.13266555E+03</rscale>
<asrwt>0</asrwt>
<pdfrwt beam="1">  1       21 0.35777124E-01 0.13266555E+03</pdfrwt>
<pdfrwt beam="2">  1       -1 0.29108793E-02 0.13266555E+03</pdfrwt>
<totfact> 0.25463979E+05</totfact>
</mgrwt>
</event>
<event>
 6    2  0.4900839E+001  0.1319758E+03  0.7546771E-02  0.1224553E+00
          2   -1    0    0  502    0 -0.00000000000E+00  0.00000000000E+00  0.95127881320E+03  0.95127881320E+03  0.00000000000E+00 0. -1.
         21   -1    0    0  501  502  0.00000000000E+00 -0.00000000000E+00 -0.45774213562E+01  0.45774213562E+01  0.00000000000E+00 0. -1.
         24    2    1    2    0    0 -0.27536034374E+02  0.29380709544E+02  0.61531677063E+03  0.62203408661E+03  0.81793749174E+02 0.  0.
        -13    1    3    3    0    0  0.44169260004E+01 -0.13188049495E+02  0.39979906445E+03  0.40004090519E+03  0.00000000000E+00 0.  1.
         14    1    3    3    0    0 -0.31952960374E+02  0.42568759039E+02  0.21551770617E+03  0.22199318142E+03  0.00000000000E+00 0. -1.
          1    1    1    2  501    0  0.27536034374E+02 -0.29380709544E+02  0.33138462122E+03  0.33382214796E+03  0.00000000000E+00 0. -1.
<mgrwt>
<rscale>  1 0.13197582E+03</rscale>
<asrwt>0</asrwt>
<pdfrwt beam="1">  1       21 0.70421943E-03 0.13197582E+03</pdfrwt>
<pdfrwt beam="2">  1        2 0.14635043E+00 0.13197582E+03</pdfrwt>
<totfact> 0.22718538E+06</totfact>
</mgrwt>
</event>
<event>
 6    2  0.4900839E+001  0.1264347E+03  0.7546771E-02  0.1232844E+00
         21   -1    0    0  501  502  0.00000000000E+00  0.00000000000E+00  0.20310781689E+03  0.20310781689E+03  0.00000000000E+00 0.  1.
         -3   -1    0    0    0  501 -0.00000000000E+00 -0.00000000000E+00 -0.19676422299E+02  0.19676422299E+02  0.00000000000E+00 0.  1.
         24    2    1    2    0    0 -0.34237910518E+02 -0.15886116291E+02  0.14391895233E+03  0.16814143270E+03  0.78321602025E+02 0.  0.
        -11    1    3    3    0    0 -0.15072862135E+02 -0.15575877555E+02  0.14712029208E+03  0.14870837057E+03  0.00000000000E+00 0.  1.
         12    1    3    3    0    0 -0.19165048383E+02 -0.31023873555E+00 -0.32013397546E+01  0.19433062132E+02  0.00000000000E+00 0. -1.
         -4    1    1    2    0  502  0.34237910518E+02  0.15886116291E+02  0.39512442269E+02  0.54642806494E+02  0.00000000000E+00 0.  1.
<mgrwt>
<rscale>  1 0.12643473E+03</rscale>
<asrwt>0</asrwt>
<pdfrwt beam="1">  1       21 0.31247355E-01 0.12643473E+03</pdfrwt>
<pdfrwt beam="2">  1       -3 0.30271420E-02 0.12643473E+03</pdfrwt>
<totfact> 0.23200675E+05</totfact>
</mgrwt>
</event>
<event>
 6    2  0.4900839E+001  0.3149321E+03  0.7546771E-02  0.1078006E+00
          2   -1    0    0  502    0 -0.00000000000E+00  0.00000000000E+00  0.83739744549E+03  0.83739744549E+03  0.00000000000E+00 0. -1.
         21   -1    0    0  501  502  0.00000000000E+00 -0.00000000000E+00 -0.29610268405E+02  0.29610268405E+02  0.00000000000E+00 0. -1.
         24    2    1    2    0    0  0.10379698355E+02  0.13133369389E+03  0.60942410371E+03  0.62888130593E+03  0.82083381268E+02 0.  0.
        -11    1    3    3    0    0  0.26170981618E+02  0.64207540527E+01  0.15556412831E+03  0.15788079167E+03  0.00000000000E+00 0.  1.
         12    1    3    3    0    0 -0.15791283263E+02  0.12491293984E+03  0.45385997540E+03  0.47100051427E+03  0.00000000000E+00 0. -1.
          1    1    1    2  501    0 -0.10379698355E+02 -0.13133369389E+03  0.19836307337E+03  0.23812640796E+03  0.00000000000E+00 0. -1.
<mgrwt>
<rscale>  1 0.31493214E+03</rscale>
<asrwt>0</asrwt>
<pdfrwt beam="1">  1       21 0.45554265E-02 0.31493214E+03</pdfrwt>
<pdfrwt beam="2">  1        2 0.12883036E+00 0.31493214E+03</pdfrwt>
<totfact> 0.13318976E+05</totfact>
</mgrwt>
</event>
<event>
 6    2  0.4900839E+001  0.1610718E+03  0.7546771E-02  0.1187492E+00
         -1   -1    0    0    0  501 -0.00000000000E+00  0.00000000000E+00  0.41136514030E+02  0.41136514030E+02  0.00000000000E+00 0.  1.
         21   -1    0    0  501  502  0.00000000000E+00 -0.00000000000E+00 -0.15767092401E+03  0.15767092401E+03  0.00000000000E+00 0. -1.
         24    2    1    2    0    0  0.29576288864E+01 -0.44771135893E+02 -0.12160555889E+03  0.15365305033E+03  0.82511488575E+02 0.  0.
        -11    1    3    3    0    0  0.28783223460E+02 -0.25989513562E+02 -0.11456843868E+03  0.12095394128E+03  0.00000000000E+00 0.  1.
         12    1    3    3    0    0 -0.25825594573E+02 -0.18781622331E+02 -0.70371202046E+01  0.32699109058E+02  0.00000000000E+00 0. -1.
         -2    1    1    2    0  502 -0.29576288864E+01  0.44771135893E+02  0.50711489081E+01  0.45154387705E+02  0.00000000000E+00 0.  1.
<mgrwt>
<rscale>  1 0.16107181E+03</rscale>
<asrwt>0</asrwt>
<pdfrwt beam="1">  1       21 0.24257065E-01 0.16107181E+03</pdfrwt>
<pdfrwt beam="2">  1       -1 0.63286945E-02 0.16107181E+03</pdfrwt>
<totfact> 0.17376018E+05</totfact>
</mgrwt>
</event>
<event>
 6    2  0.4900839E+001  0.1374494E+03  0.7546771E-02  0.1216803E+00
         -3   -1    0    0    0  501 -0.00000000000E+00  0.00000000000E+00  0.22635102974E+03  0.22635102974E+03  0.00000000000E+00 0.  1.
         21   -1    0    0  501  502  0.00000000000E+00 -0.00000000000E+00 -0.20866193605E+02  0.20866193605E+02  0.00000000000E+00 0.  1.
         24    2    1    2    0    0  0.73988828380E+01  0.38303721000E+02  0.14601817058E+03  0.17609617989E+03  0.90369463443E+02 0.  0.
        -11    1    3    3    0    0  0.27812709225E+02  0.34520946455E+02  0.20445228582E+02  0.48818540641E+02  0.00000000000E+00 0.  1.
         12    1    3    3    0    0 -0.20413826387E+02  0.37827745454E+01  0.12557294200E+03  0.12727763925E+03  0.00000000000E+00 0. -1.
         -4    1    1    2    0  502 -0.73988828380E+01 -0.38303721000E+02  0.59466665553E+02  0.71121043452E+02  0.00000000000E+00 0.  1.
<mgrwt>
<rscale>  1 0.13744940E+03</rscale>
<asrwt>0</asrwt>
<pdfrwt beam="1">  1       21 0.32101838E-02 0.13744940E+03</pdfrwt>
<pdfrwt beam="2">  1       -3 0.34823234E-01 0.13744940E+03</pdfrwt>
<totfact> 0.21717093E+05</totfact>
</mgrwt>
</event>
<event>
 6    2  0.4900839E+001  0.3283343E+03  0.7546771E-02  0.1071876E+00
         21   -1    0    0  501  502  0.00000000000E+00  0.00000000000E+00  0.55033017813E+02  0.55033017813E+02  0.00000000000E+00 0. -1.
          2   -1    0    0  502    0 -0.00000000000E+00 -0.00000000000E+00 -0.48972144217E+03  0.48972144217E+03  0.00000000000E+00 0. -1.
         24    2    1    2    0    0  0.37712836336E+01  0.87038981177E+02 -0.44169387623E+03  0.45735261114E+03  0.80547649246E+02 0.  0.
        -11    1    3    3    0    0 -0.63033491495E+01 -0.45627637412E+01 -0.17524257116E+03  0.17541524953E+03  0.00000000000E+00 0.  1.
         12    1    3    3    0    0  0.10074632783E+02  0.91601744919E+02 -0.26645130507E+03  0.28193736161E+03  0.00000000000E+00 0. -1.
          1    1    1    2  501    0 -0.37712836336E+01 -0.87038981177E+02  0.70054518688E+01  0.87401848839E+02  0.00000000000E+00 0. -1.
<mgrwt>
<rscale>  1 0.32833427E+03</rscale>
<asrwt>0</asrwt>
<pdfrwt beam="1">  1       21 0.84666184E-02 0.32833427E+03</pdfrwt>
<pdfrwt beam="2">  1        2 0.75341758E-01 0.32833427E+03</pdfrwt>
<totfact> 0.86636066E+04</totfact>
</mgrwt>
</event>
<event>
 6    2  0.4900839E+001  0.1862287E+03  0.7546771E-02  0.1161907E+00
         21   -1    0    0  501  502  0.00000000000E+00  0.00000000000E+00  0.36723608482E+01  0.36723608482E+01  0.00000000000E+00 0. -1.
          2   -1    0    0  502    0 -0.00000000000E+00 -0.00000000000E+00 -0.23609555259E+04  0.23609555259E+04  0.00000000000E+00 0. -1.
         24    2    1    2    0    0 -0.37482239674E+02  0.63405429234E+01 -0.22258926599E+04  0.22278485549E+04  0.85240421313E+02 0.  0.
        -13    1    3    3    0    0 -0.30024300744E+02 -0.28927234067E+02 -0.17843010570E+04  0.17847880842E+04  0.00000000000E+00 0.  1.
         14    1    3    3    0    0 -0.74579389297E+01  0.35267776990E+02 -0.44159160288E+03  0.44306047069E+03  0.00000000000E+00 0. -1.
          1    1    1    2  501    0  0.37482239674E+02 -0.63405429234E+01 -0.13139050519E+03  0.13677933188E+03  0.00000000000E+00 0. -1.
<mgrwt>
<rscale>  1 0.18622868E+03</rscale>
<asrwt>0</asrwt>
<pdfrwt beam="1">  1       21 0.56497866E-03 0.18622868E+03</pdfrwt>
<pdfrwt beam="2">  1        2 0.36322388E+00 0.18622868E+03</pdfrwt>
<totfact> 0.57452691E+05</totfact>
</mgrwt>
</event>
<event>
 6    2  0.4900839E+001  0.1441329E+03  0.7546771E-02  0.1207874E+00
          2   -1    0    0  502    0 -0.00000000000E+00  0.00000000000E+00  0.11411394375E+04  0.11411394375E+04  0.00000000000E+00 0. -1.
         21   -1    0    0  501  502  0.00000000000E+00 -0.00000000000E+00 -0.45512177777E+01  0.45512177777E+01  0.00000000000E+00 0. -1.
         24    2    1    2    0    0  0.23668550093E+02  0.31412706012E+02  0.97768141735E+03  0.98198869988E+03  0.83029479639E+02 0.  0.
        -11    1    3    3    0    0 -0.14574639041E+02 -0.71018521065E+01  0.62006439639E+03  0.62027631914E+03  0.00000000000E+00 0.  1.
         12    1    3    3    0    0  0.38243189134E+02  0.38514558118E+02  0.35761702096E+03  0.36171238074E+03  0.00000000000E+00 0. -1.
          1    1    1    2  501    0 -0.23668550093E+02 -0.31412706012E+02  0.15890680239E+03  0.16370195542E+03  0.00000000000E+00 0. -1.
<mgrwt>
<rscale>  1 0.14413291E+03</rscale>
<asrwt>0</asrwt>
<pdfrwt beam="1">  1       21 0.70018826E-03 0.14413291E+03</pdfrwt>
<pdfrwt beam="2">  1        2 0.17555969E+00 0.14413291E+03</pdfrwt>
<totfact> 0.17857802E+06</totfact>
</mgrwt>
</event>
<event>
 6    2  0.4900839E+001  0.1635780E+03  0.7546771E-02  0.1184715E+00
          2   -1    0    0  502    0 -0.00000000000E+00  0.00000000000E+00  0.10020716689E+04  0.10020716689E+04  0.00000000000E+00 0. -1.
         21   -1    0    0  501  502  0.00000000000E+00 -0.00000000000E+00 -0.66756080707E+01  0.66756080707E+01  0.00000000000E+00 0. -1.
         24    2    1    2    0    0  0.11481028916E+02  0.44201171679E+02  0.40558591293E+03  0.41717178038E+03  0.86294866444E+02 0.  0.
        -13    1    3    3    0    0  0.22255626230E+02 -0.19491402081E+02  0.18395760163E+03  0.18632130005E+03  0.00000000000E+00 0.  1.
         14    1    3    3    0    0 -0.10774597314E+02  0.63692573760E+02  0.22162831130E+03  0.23085048033E+03  0.00000000000E+00 0. -1.
          1    1    1    2  501    0 -0.11481028916E+02 -0.44201171679E+02  0.58981014786E+03  0.59157549655E+03  0.00000000000E+00 0. -1.
<mgrwt>
<rscale>  1 0.16357797E+03</rscale>
<asrwt>0</asrwt>
<pdfrwt beam="1">  1       21 0.10270174E-02 0.16357797E+03</pdfrwt>
<pdfrwt beam="2">  1        2 0.15416475E+00 0.16357797E+03</pdfrwt>
<totfact> 0.11871761E+06</totfact>
</mgrwt>
</event>
<event>
 6    2  0.4900839E+001  0.2156502E+03  0.7546771E-02  0.1137168E+00
         -3   -1    0    0    0  501 -0.00000000000E+00  0.00000000000E+00  0.16690100486E+02  0.16690100486E+02  0.00000000000E+00 0.  1.
         21   -1    0    0  501  502  0.00000000000E+00 -0.00000000000E+00 -0.69659547109E+03  0.69659547109E+03  0.00000000000E+00 0.  1.
         24    2    1    2    0    0  0.41068636900E+02  0.71571640360E+02 -0.21628592385E+03  0.24237992917E+03  0.71828243528E+02 0.  0.
        -13    1    3    3    0    0  0.51970672232E+02  0.79671614303E+02 -0.17914406474E+03  0.20283272130E+03  0.00000000000E+00 0.  1.
         14    1    3    3    0    0 -0.10902035333E+02 -0.80999739435E+01 -0.37141859108E+02  0.39547207869E+02  0.00000000000E+00 0. -1.
         -4    1    1    2    0  502 -0.41068636900E+02 -0.71571640360E+02 -0.46361944676E+03  0.47090564241E+03  0.00000000000E+00 0.  1.
<mgrwt>
<rscale>  1 0.21565016E+03</rscale>
<asrwt>0</asrwt>
<pdfrwt beam="1">  1       21 0.10716853E+00 0.21565016E+03</pdfrwt>
<pdfrwt beam="2">  1       -3 0.25677078E-02 0.21565016E+03</pdfrwt>
<totfact> 0.22274287E+04</totfact>
</mgrwt>
</event>
<event>
 6    2  0.4900839E+001  0.2829227E+03  0.7546771E-02  0.1094103E+00
         -1   -1    0    0    0  501 -0.00000000000E+00  0.00000000000E+00  0.85986001070E+02  0.85986001070E+02  0.00000000000E+00 0.  1.
         21   -1    0    0  501  502  0.00000000000E+00 -0.00000000000E+00 -0.23272755468E+03  0.23272755468E+03  0.00000000000E+00 0.  1.
         24    2    1    2    0    0  0.16212586416E+02 -0.49055755613E+02  0.55163372658E+02  0.11030310887E+03  0.80339672805E+02 0.  0.
        -11    1    3    3    0    0  0.48846225126E+02 -0.34309521253E+02  0.35456560233E+02  0.69428125577E+02  0.00000000000E+00 0.  1.
         12    1    3    3    0    0 -0.32633638710E+02 -0.14746234360E+02  0.19706812426E+02  0.40874983293E+02  0.00000000000E+00 0. -1.
         -2    1    1    2    0  502 -0.16212586416E+02  0.49055755613E+02 -0.20190492627E+03  0.20841044688E+03  0.00000000000E+00 0.  1.
<mgrwt>
<rscale>  1 0.28292269E+03</rscale>
<asrwt>0</asrwt>
<pdfrwt beam="1">  1       21 0.35804238E-01 0.28292269E+03</pdfrwt>
<pdfrwt beam="2">  1       -1 0.13228616E-01 0.28292269E+03</pdfrwt>
<totfact> 0.26468373E+04</totfact>
</mgrwt>
</event>
<event>
 6    2  0.4900839E+001  0.2163356E+03  0.7546771E-02  0.1136645E+00
         21   -1    0    0  501  502  0.00000000000E+00  0.00000000000E+00  0.81537991314E+01  0.81537991314E+01  0.00000000000E+00 0. -1.
          2   -1    0    0  502    0 -0.00000000000E+00 -0.00000000000E+00 -0.14349475042E+04  0.14349475042E+04  0.00000000000E+00 0. -1.
         24    2    1    2    0    0  0.29550755674E+02 -0.15807035800E+02 -0.13943652579E+04  0.13964674773E+04  0.68875491231E+02 0.  0.
        -11    1    3    3    0    0  0.37941262541E+02  0.14703345687E+02 -0.54688881655E+03  0.54840049731E+03  0.00000000000E+00 0.  1.
         12    1    3    3    0    0 -0.83905068662E+01 -0.30510381487E+02 -0.84747644134E+03  0.84806698002E+03  0.00000000000E+00 0. -1.
          1    1    1    2  501    0 -0.29550755674E+02  0.15807035800E+02 -0.32428447205E+02  0.46633826026E+02  0.00000000000E+00 0. -1.
<mgrwt>
<rscale>  1 0.21633561E+03</rscale>
<asrwt>0</asrwt>
<pdfrwt beam="1">  1       21 0.12544310E-02 0.21633561E+03</pdfrwt>
<pdfrwt beam="2">  1        2 0.22076110E+00 0.21633561E+03</pdfrwt>
<totfact> 0.49736254E+05</totfact>
</mgrwt>
</event>
<event>
 6    2  0.4900839E+001  0.1657158E+03  0.7546771E-02  0.1182391E+00
          2   -1    0    0  502    0 -0.00000000000E+00  0.00000000000E+00  0.77204914397E+02  0.77204914397E+02  0.00000000000E+00 0. -1.
         21   -1    0    0  501  502  0.00000000000E+00 -0.00000000000E+00 -0.88924775126E+02  0.88924775126E+02  0.00000000000E+00 0. -1.
         24    2    1    2    0    0 -0.55350133846E+02  0.26311687834E+02 -0.25656905385E+02  0.10327920466E+03  0.79071961455E+02 0.  0.
        -13    1    3    3    0    0 -0.61775243507E+02 -0.88531260741E+01 -0.65580045027E+01  0.62750027687E+02  0.00000000000E+00 0.  1.
         14    1    3    3    0    0  0.64251096617E+01  0.35164813908E+02 -0.19098900883E+02  0.40529176976E+02  0.00000000000E+00 0. -1.
          1    1    1    2  501    0  0.55350133846E+02 -0.26311687834E+02  0.13937044656E+02  0.62850484860E+02  0.00000000000E+00 0. -1.
<mgrwt>
<rscale>  1 0.16571578E+03</rscale>
<asrwt>0</asrwt>
<pdfrwt beam="1">  1       21 0.13680735E-01 0.16571578E+03</pdfrwt>
<pdfrwt beam="2">  1        2 0.11877679E-01 0.16571578E+03</pdfrwt>
<totfact> 0.28878357E+05</totfact>
</mgrwt>
</event>
<event>
 6    2  0.4900839E+001  0.1659338E+03  0.7546771E-02  0.1182156E+00
          2   -1    0    0  502    0 -0.00000000000E+00  0.00000000000E+00  0.20327452414E+03  0.20327452414E+03  0.00000000000E+00 0. -1.
         21   -1    0    0  501  502  0.00000000000E+00 -0.00000000000E+00 -0.33863095412E+02  0.33863095412E+02  0.00000000000E+00 0. -1.
         24    2    1    2    0    0 -0.55824625124E+02  0.70183584741E+01  0.66413999598E+02  0.11977443736E+03  0.82276669702E+02 0.  0.
        -11    1    3    3    0    0 -0.19885811767E+01  0.32059364442E+02  0.47725145843E+02  0.57527791973E+02  0.00000000000E+00 0.  1.
         12    1    3    3    0    0 -0.53836043947E+02 -0.25041005968E+02  0.18688853755E+02  0.62246645391E+02  0.00000000000E+00 0. -1.
          1    1    1    2  501    0  0.55824625124E+02 -0.70183584741E+01  0.10299742913E+03  0.11736318218E+03  0.00000000000E+00 0. -1.
<mgrwt>
<rscale>  1 0.16593378E+03</rscale>
<asrwt>0</asrwt>
<pdfrwt beam="1">  1       21 0.52097071E-02 0.16593378E+03</pdfrwt>
<pdfrwt beam="2">  1        2 0.31273003E-01 0.16593378E+03</pdfrwt>
<totfact> 0.51315416E+05</totfact>
</mgrwt>
</event>
<event>
 6    2  0.4900839E+001  0.1364364E+03  0.7546771E-02  0.1218206E+00
          2   -1    0    0  502    0 -0.00000000000E+00  0.00000000000E+00  0.24340083775E+03  0.24340083775E+03  0.00000000000E+00 0. -1.
         21   -1    0    0  501  502  0.00000000000E+00 -0.00000000000E+00 -0.19119589421E+02  0.19119589421E+02  0.00000000000E+00 0. -1.
         24    2    1    2    0    0  0.20300970968E+02  0.13300950433E+02  0.78770575733E+02  0.11499957934E+03  0.80193858512E+02 0.  0.
        -13    1    3    3    0    0 -0.16975661065E+02 -0.17547082430E+02  0.56868723705E+02  0.61888002927E+02  0.00000000000E+00 0.  1.
         14    1    3    3    0    0  0.37276632033E+02  0.30848032862E+02  0.21901852028E+02  0.53111576417E+02  0.00000000000E+00 0. -1.
          1    1    1    2  501    0 -0.20300970968E+02 -0.13300950433E+02  0.14551067259E+03  0.14752084782E+03  0.00000000000E+00 0. -1.
<mgrwt>
<rscale>  1 0.13643642E+03</rscale>
<asrwt>0</asrwt>
<pdfrwt beam="1">  1       21 0.29414755E-02 0.13643642E+03</pdfrwt>
<pdfrwt beam="2">  1        2 0.37446280E-01 0.13643642E+03</pdfrwt>
<totfact> 0.10791961E+06</totfact>
</mgrwt>
</event>
<event>
 6    2  0.4900839E+001  0.1635529E+03  0.7546771E-02  0.1184743E+00
         21   -1    0    0  501  502  0.00000000000E+00  0.00000000000E+00  0.63363457590E+01  0.63363457590E+01  0.00000000000E+00 0.  1.
          2   -1    0    0  502    0 -0.00000000000E+00 -0.00000000000E+00 -0.10554018715E+04  0.10554018715E+04  0.00000000000E+00 0. -1.
         24    2    1    2    0    0 -0.25491272147E+02  0.53114136260E+02 -0.52378442683E+03  0.53316357797E+03  0.80264305003E+02 0.  0.
        -11    1    3    3    0    0 -0.41520899194E+02  0.54318401983E+02 -0.49873796468E+03  0.50340245458E+03  0.00000000000E+00 0.  1.
         12    1    3    3    0    0  0.16029627047E+02 -0.12042657226E+01 -0.25046462149E+02  0.29761123389E+02  0.00000000000E+00 0. -1.
          1    1    1    2  501    0  0.25491272147E+02 -0.53114136260E+02 -0.52528109887E+03  0.52857463924E+03  0.00000000000E+00 0. -1.
<mgrwt>
<rscale>  1 0.16355294E+03</rscale>
<asrwt>0</asrwt>
<pdfrwt beam="1">  1       21 0.97482166E-03 0.16355294E+03</pdfrwt>
<pdfrwt beam="2">  1        2 0.16236965E+00 0.16355294E+03</pdfrwt>
<totfact> 0.11986586E+06</totfact>
</mgrwt>
</event>
<event>
 6    2  0.4900839E+001  0.1377969E+03  0.7546771E-02  0.1216325E+00
         21   -1    0    0  501  502  0.00000000000E+00  0.00000000000E+00  0.65520524787E+01  0.65520524787E+01  0.00000000000E+00 0. -1.
          2   -1    0    0  502    0 -0.00000000000E+00 -0.00000000000E+00 -0.72450497823E+03  0.72450497823E+03  0.00000000000E+00 0. -1.
         24    2    1    2    0    0  0.23525251939E+02 -0.48649485535E+01 -0.68018816963E+03  0.68629899223E+03  0.88166067356E+02 0.  0.
        -11    1    3    3    0    0 -0.10040465995E+02  0.31058579499E+02 -0.43543451594E+03  0.43665623091E+03  0.00000000000E+00 0.  1.
         12    1    3    3    0    0  0.33565717934E+02 -0.35923528053E+02 -0.24475365368E+03  0.24964276132E+03  0.00000000000E+00 0. -1.
          1    1    1    2  501    0 -0.23525251939E+02  0.48649485535E+01 -0.37764756119E+02  0.44758038473E+02  0.00000000000E+00 0. -1.
<mgrwt>
<rscale>  1 0.13779687E+03</rscale>
<asrwt>0</asrwt>
<pdfrwt beam="1">  1       21 0.10080083E-02 0.13779687E+03</pdfrwt>
<pdfrwt beam="2">  1        2 0.11146228E+00 0.13779687E+03</pdfrwt>
<totfact> 0.18326958E+06</totfact>
</mgrwt>
</event>
<event>
 6    2  0.4900839E+001  0.1565873E+03  0.7546771E-02  0.1192604E+00
          2   -1    0    0  502    0 -0.00000000000E+00  0.00000000000E+00  0.23624482696E+03  0.23624482696E+03  0.00000000000E+00 0. -1.
         21   -1    0    0  501  502  0.00000000000E+00 -0.00000000000E+00 -0.25947228097E+02  0.25947228097E+02  0.00000000000E+00 0. -1.
         24    2    1    2    0    0 -0.28930131909E+01  0.38012675917E+02  0.20590174484E+03  0.22381684706E+03  0.79026068146E+02 0.  0.
        -11    1    3    3    0    0  0.97190398076E+00 -0.52739204365E+01  0.16184064303E+03  0.16192946789E+03  0.00000000000E+00 0.  1.
         12    1    3    3    0    0 -0.38649171717E+01  0.43286596354E+02  0.44061101805E+02  0.61887379173E+02  0.00000000000E+00 0. -1.
          1    1    1    2  501    0  0.28930131909E+01 -0.38012675917E+02  0.43958540221E+01  0.38375207990E+02  0.00000000000E+00 0. -1.
<mgrwt>
<rscale>  1 0.15658734E+03</rscale>
<asrwt>0</asrwt>
<pdfrwt beam="1">  1       21 0.39918814E-02 0.15658734E+03</pdfrwt>
<pdfrwt beam="2">  1        2 0.36345357E-01 0.15658734E+03</pdfrwt>
<totfact> 0.67994059E+05</totfact>
</mgrwt>
</event>
<event>
 6    2  0.4900839E+001  0.1798124E+03  0.7546771E-02  0.1167985E+00
         21   -1    0    0  501  502  0.00000000000E+00  0.00000000000E+00  0.20904240673E+02  0.20904240673E+02  0.00000000000E+00 0.  1.
          2   -1    0    0  502    0 -0.00000000000E+00 -0.00000000000E+00 -0.38667406745E+03  0.38667406745E+03  0.00000000000E+00 0. -1.
         24    2    1    2    0    0  0.12762871195E+02  0.20465779247E+02 -0.61746431756E+02  0.10259967982E+03  0.78309216975E+02 0.  0.
        -13    1    3    3    0    0  0.93503118643E+01 -0.28742039139E+02 -0.35843680871E+02  0.46886059807E+02  0.00000000000E+00 0.  1.
         14    1    3    3    0    0  0.34125593312E+01  0.49207818386E+02 -0.25902750884E+02  0.55713620012E+02  0.00000000000E+00 0. -1.
          1    1    1    2  501    0 -0.12762871195E+02 -0.20465779247E+02 -0.30402339502E+03  0.30497862830E+03  0.00000000000E+00 0. -1.
<mgrwt>
<rscale>  1 0.17981243E+03</rscale>
<asrwt>0</asrwt>
<pdfrwt beam="1">  1       21 0.32160371E-02 0.17981243E+03</pdfrwt>
<pdfrwt beam="2">  1        2 0.59488318E-01 0.17981243E+03</pdfrwt>
<totfact> 0.57996567E+05</totfact>
</mgrwt>
</event>
<event>
 6    2  0.4900839E+001  0.1294685E+03  0.7546771E-02  0.1228247E+00
          2   -1    0    0  502    0 -0.00000000000E+00  0.00000000000E+00  0.29643980217E+03  0.29643980217E+03  0.00000000000E+00 0. -1.
         21   -1    0    0  501  502  0.00000000000E+00 -0.00000000000E+00 -0.14136159243E+02  0.14136159243E+02  0.00000000000E+00 0. -1.
         24    2    1    2    0    0  0.29514058957E+02 -0.25304347266E+01  0.25957371566E+03  0.27323787939E+03  0.80018385968E+02 0.  0.
        -13    1    3    3    0    0  0.33768139970E+02 -0.33750048985E+02  0.10302089014E+03  0.11354583607E+03  0.00000000000E+00 0.  1.
         14    1    3    3    0    0 -0.42540810132E+01  0.31219614258E+02  0.15655282552E+03  0.15969204332E+03  0.00000000000E+00 0. -1.
          1    1    1    2  501    0 -0.29514058957E+02  0.25304347266E+01  0.22729927266E+02  0.37338082028E+02  0.00000000000E+00 0. -1.
<mgrwt>
<rscale>  1 0.12946846E+03</rscale>
<asrwt>0</asrwt>
<pdfrwt beam="1">  1       21 0.21747940E-02 0.12946846E+03</pdfrwt>
<pdfrwt beam="2">  1        2 0.45606119E-01 0.12946846E+03</pdfrwt>
<totfact> 0.14250793E+06</totfact>
</mgrwt>
</event>
<event>
 6    2  0.4900839E+001  0.2125643E+03  0.7546771E-02  0.1139551E+00
          2   -1    0    0  502    0 -0.00000000000E+00  0.00000000000E+00  0.12219172936E+03  0.12219172936E+03  0.00000000000E+00 0. -1.
         21   -1    0    0  501  502  0.00000000000E+00 -0.00000000000E+00 -0.92444055209E+02  0.92444055209E+02  0.00000000000E+00 0. -1.
         24    2    1    2    0    0  0.86034590477E+01  0.90336001891E+02  0.12607456873E+02  0.12228644892E+03  0.80996388043E+02 0.  0.
        -13    1    3    3    0    0  0.78570122020E+01 -0.41171500669E+01  0.25459025510E+02  0.26960073170E+02  0.00000000000E+00 0.  1.
         14    1    3    3    0    0  0.74644684570E+00  0.94453151958E+02 -0.12851568637E+02  0.95326375753E+02  0.00000000000E+00 0. -1.
          1    1    1    2  501    0 -0.86034590477E+01 -0.90336001891E+02  0.17140217274E+02  0.92349335642E+02  0.00000000000E+00 0. -1.
<mgrwt>
<rscale>  1 0.21256433E+03</rscale>
<asrwt>0</asrwt>
<pdfrwt beam="1">  1       21 0.14222162E-01 0.21256433E+03</pdfrwt>
<pdfrwt beam="2">  1        2 0.18798728E-01 0.21256433E+03</pdfrwt>
<totfact> 0.15795854E+05</totfact>
</mgrwt>
</event>
<event>
 6    2  0.4900839E+001  0.1068353E+03  0.7546771E-02  0.1266545E+00
         21   -1    0    0  501  502  0.00000000000E+00  0.00000000000E+00  0.96951129981E+01  0.96951129981E+01  0.00000000000E+00 0. -1.
          4   -1    0    0  502    0 -0.00000000000E+00 -0.00000000000E+00 -0.29431807945E+03  0.29431807945E+03  0.00000000000E+00 0. -1.
         24    2    1    2    0    0  0.16933348205E+02  0.13707635342E+02 -0.23949611872E+03  0.25390261538E+03  0.81446360665E+02 0.  0.
        -13    1    3    3    0    0 -0.30759542365E+02  0.73686526901E+01 -0.13802942533E+03  0.14160709285E+03  0.00000000000E+00 0.  1.
         14    1    3    3    0    0  0.47692890570E+02  0.63389826521E+01 -0.10146669340E+03  0.11229552253E+03  0.00000000000E+00 0. -1.
          3    1    1    2  501    0 -0.16933348205E+02 -0.13707635342E+02 -0.45126847733E+02  0.50110577072E+02  0.00000000000E+00 0. -1.
<mgrwt>
<rscale>  1 0.10683533E+03</rscale>
<asrwt>0</asrwt>
<pdfrwt beam="1">  1       21 0.14915558E-02 0.10683533E+03</pdfrwt>
<pdfrwt beam="2">  1        4 0.45279705E-01 0.10683533E+03</pdfrwt>
<totfact> 0.35766023E+05</totfact>
</mgrwt>
</event>
<event>
 6    2  0.4900839E+001  0.1810904E+03  0.7546771E-02  0.1166752E+00
         -3   -1    0    0    0  501 -0.00000000000E+00  0.00000000000E+00  0.71097609227E+03  0.71097609227E+03  0.00000000000E+00 0.  1.
         21   -1    0    0  501  502  0.00000000000E+00 -0.00000000000E+00 -0.11531242092E+02  0.11531242092E+02  0.00000000000E+00 0.  1.
         24    2    1    2    0    0 -0.49543462253E+02  0.49925074374E+02  0.48896015297E+03  0.50058195172E+03  0.80951784968E+02 0.  0.
        -11    1    3    3    0    0 -0.48714057061E+02  0.52372047384E+02  0.21452467489E+03  0.22613431150E+03  0.00000000000E+00 0.  1.
         12    1    3    3    0    0 -0.82940519157E+00 -0.24469730102E+01  0.27443547808E+03  0.27444764022E+03  0.00000000000E+00 0. -1.
         -4    1    1    2    0  502  0.49543462253E+02 -0.49925074374E+02  0.21048469721E+03  0.22192538264E+03  0.00000000000E+00 0.  1.
<mgrwt>
<rscale>  1 0.18109045E+03</rscale>
<asrwt>0</asrwt>
<pdfrwt beam="1">  1       21 0.17740378E-02 0.18109045E+03</pdfrwt>
<pdfrwt beam="2">  1       -3 0.10938090E+00 0.18109045E+03</pdfrwt>
<totfact> 0.54083351E+04</totfact>
</mgrwt>
</event>
<event>
 6    2  0.4900839E+001  0.2238898E+03  0.7546771E-02  0.1131016E+00
          2   -1    0    0  502    0 -0.00000000000E+00  0.00000000000E+00  0.39829492455E+03  0.39829492455E+03  0.00000000000E+00 0. -1.
         21   -1    0    0  501  502  0.00000000000E+00 -0.00000000000E+00 -0.31463270947E+02  0.31463270947E+02  0.00000000000E+00 0. -1.
         24    2    1    2    0    0 -0.92979110093E+02  0.17494526485E+02  0.20094155534E+03  0.23878516580E+03  0.87690782710E+02 0.  0.
        -11    1    3    3    0    0 -0.46980460441E+02  0.32693495656E+02  0.17438744015E+03  0.18354020705E+03  0.00000000000E+00 0.  1.
         12    1    3    3    0    0 -0.45998649651E+02 -0.15198969172E+02  0.26554115189E+02  0.55244958748E+02  0.00000000000E+00 0. -1.
          1    1    1    2  501    0  0.92979110093E+02 -0.17494526485E+02  0.16589009826E+03  0.19097302970E+03  0.00000000000E+00 0. -1.
<mgrwt>
<rscale>  1 0.22388980E+03</rscale>
<asrwt>0</asrwt>
<pdfrwt beam="1">  1       21 0.48405035E-02 0.22388980E+03</pdfrwt>
<pdfrwt beam="2">  1        2 0.61276139E-01 0.22388980E+03</pdfrwt>
<totfact> 0.28545622E+05</totfact>
</mgrwt>
</event>
<event>
 6    2  0.4900839E+001  0.1400766E+03  0.7546771E-02  0.1213226E+00
         21   -1    0    0  501  502  0.00000000000E+00  0.00000000000E+00  0.19262475170E+02  0.19262475170E+02  0.00000000000E+00 0. -1.
          2   -1    0    0  502    0 -0.00000000000E+00 -0.00000000000E+00 -0.25465889903E+03  0.25465889903E+03  0.00000000000E+00 0. -1.
         24    2    1    2    0    0  0.39011174438E+02  0.68015375868E+01 -0.10806897143E+03  0.14057815995E+03  0.80716688635E+02 0.  0.
        -13    1    3    3    0    0 -0.24653093718E+02  0.26146170572E+01 -0.20143920503E+02  0.31943524938E+02  0.00000000000E+00 0.  1.
         14    1    3    3    0    0  0.63664268157E+02  0.41869205295E+01 -0.87925050931E+02  0.10863463501E+03  0.00000000000E+00 0. -1.
          1    1    1    2  501    0 -0.39011174438E+02 -0.68015375868E+01 -0.12732745242E+03  0.13334321425E+03  0.00000000000E+00 0. -1.
<mgrwt>
<rscale>  1 0.14007656E+03</rscale>
<asrwt>0</asrwt>
<pdfrwt beam="1">  1       21 0.29634578E-02 0.14007656E+03</pdfrwt>
<pdfrwt beam="2">  1        2 0.39178291E-01 0.14007656E+03</pdfrwt>
<totfact> 0.10182113E+06</totfact>
</mgrwt>
</event>
<event>
 6    2  0.4900839E+001  0.3158922E+03  0.7546771E-02  0.1077555E+00
          2   -1    0    0  502    0 -0.00000000000E+00  0.00000000000E+00  0.31079502328E+03  0.31079502328E+03  0.00000000000E+00 0. -1.
         21   -1    0    0  501  502  0.00000000000E+00 -0.00000000000E+00 -0.80268258452E+02  0.80268258452E+02  0.00000000000E+00 0. -1.
         24    2    1    2    0    0 -0.20434281984E+02  0.25224617220E+02  0.30144109331E+03  0.31307172336E+03  0.78059785031E+02 0.  0.
        -13    1    3    3    0    0 -0.23486809601E+02 -0.81973239247E+01  0.27498205156E+02  0.37080690819E+02  0.00000000000E+00 0.  1.
         14    1    3    3    0    0  0.30525276172E+01  0.33421941144E+02  0.27394288815E+03  0.27599103254E+03  0.00000000000E+00 0. -1.
          1    1    1    2  501    0  0.20434281984E+02 -0.25224617220E+02 -0.70914328478E+02  0.77991558374E+02  0.00000000000E+00 0. -1.
<mgrwt>
<rscale>  1 0.31589223E+03</rscale>
<asrwt>0</asrwt>
<pdfrwt beam="1">  1       21 0.12348963E-01 0.31589223E+03</pdfrwt>
<pdfrwt beam="2">  1        2 0.47814618E-01 0.31589223E+03</pdfrwt>
<totfact> 0.72761898E+04</totfact>
</mgrwt>
</event>
<event>
 6    2  0.4900839E+001  0.1241112E+03  0.7546771E-02  0.1236465E+00
          2   -1    0    0  502    0 -0.00000000000E+00  0.00000000000E+00  0.48907820827E+03  0.48907820827E+03  0.00000000000E+00 0. -1.
         21   -1    0    0  501  502  0.00000000000E+00 -0.00000000000E+00 -0.78737892148E+01  0.78737892148E+01  0.00000000000E+00 0. -1.
         24    2    1    2    0    0  0.11468759033E+02 -0.34386993796E+02  0.35867461315E+03  0.36917269121E+03  0.79542441773E+02 0.  0.
        -11    1    3    3    0    0 -0.28440007227E+02 -0.47095363956E+01  0.21937787608E+03  0.22126379337E+03  0.00000000000E+00 0.  1.
         12    1    3    3    0    0  0.39908766260E+02 -0.29677457401E+02  0.13929673707E+03  0.14790889784E+03  0.00000000000E+00 0. -1.
          1    1    1    2  501    0 -0.11468759033E+02  0.34386993796E+02  0.12252980591E+03  0.12777930628E+03  0.00000000000E+00 0. -1.
<mgrwt>
<rscale>  1 0.12411122E+03</rscale>
<asrwt>0</asrwt>
<pdfrwt beam="1">  1       21 0.12113526E-02 0.12411122E+03</pdfrwt>
<pdfrwt beam="2">  1        2 0.75242778E-01 0.12411122E+03</pdfrwt>
<totfact> 0.21227138E+06</totfact>
</mgrwt>
</event>
<event>
 6    2  0.4900839E+001  0.1099479E+03  0.7546771E-02  0.1260666E+00
         -1   -1    0    0    0  501 -0.00000000000E+00  0.00000000000E+00  0.10285900804E+02  0.10285900804E+02  0.00000000000E+00 0.  1.
         21   -1    0    0  501  502  0.00000000000E+00 -0.00000000000E+00 -0.29381341873E+03  0.29381341873E+03  0.00000000000E+00 0.  1.
         24    2    1    2    0    0 -0.23631395339E+02 -0.45014893691E+01 -0.19397964633E+03  0.21137646604E+03  0.80456205196E+02 0.  0.
        -11    1    3    3    0    0 -0.49623773590E+02 -0.16467143401E+02 -0.15052325260E+03  0.15934533345E+03  0.00000000000E+00 0.  1.
         12    1    3    3    0    0  0.25992378250E+02  0.11965654032E+02 -0.43456393725E+02  0.52031132595E+02  0.00000000000E+00 0. -1.
         -2    1    1    2    0  502  0.23631395339E+02  0.45014893691E+01 -0.89547871602E+02  0.92722853497E+02  0.00000000000E+00 0.  1.
<mgrwt>
<rscale>  1 0.10994791E+03</rscale>
<asrwt>0</asrwt>
<pdfrwt beam="1">  1       21 0.45202065E-01 0.10994791E+03</pdfrwt>
<pdfrwt beam="2">  1       -1 0.15824463E-02 0.10994791E+03</pdfrwt>
<totfact> 0.37815092E+05</totfact>
</mgrwt>
</event>
<event>
 6    2  0.4900839E+001  0.1263426E+03  0.7546771E-02  0.1232986E+00
         -1   -1    0    0    0  501 -0.00000000000E+00  0.00000000000E+00  0.68197330685E+03  0.68197330685E+03  0.00000000000E+00 0.  1.
         21   -1    0    0  501  502  0.00000000000E+00 -0.00000000000E+00 -0.58515715219E+01  0.58515715219E+01  0.00000000000E+00 0.  1.
         24    2    1    2    0    0 -0.30061517048E+02  0.22766490913E+02  0.52531167083E+03  0.53237172315E+03  0.77751477026E+02 0.  0.
        -13    1    3    3    0    0 -0.42173871681E+02  0.41495839000E+02  0.44854804765E+03  0.45243330023E+03  0.00000000000E+00 0.  1.
         14    1    3    3    0    0  0.12112354633E+02 -0.18729348088E+02  0.76763623186E+02  0.79938422921E+02  0.00000000000E+00 0. -1.
         -2    1    1    2    0  502  0.30061517048E+02 -0.22766490913E+02  0.15081006450E+03  0.15545315522E+03  0.00000000000E+00 0.  1.
<mgrwt>
<rscale>  1 0.12634264E+03</rscale>
<asrwt>0</asrwt>
<pdfrwt beam="1">  1       21 0.90024231E-03 0.12634264E+03</pdfrwt>
<pdfrwt beam="2">  1       -1 0.10491891E+00 0.12634264E+03</pdfrwt>
<totfact> 0.36580556E+05</totfact>
</mgrwt>
</event>
<event>
 6    2  0.4900839E+001  0.1603827E+03  0.7546771E-02  0.1188265E+00
         -1   -1    0    0    0  501 -0.00000000000E+00  0.00000000000E+00  0.90951332337E+03  0.90951332337E+03  0.00000000000E+00 0.  1.
         21   -1    0    0  501  502  0.00000000000E+00 -0.00000000000E+00 -0.70704294527E+01  0.70704294527E+01  0.00000000000E+00 0.  1.
         24    2    1    2    0    0  0.53691881516E+02  0.10704236870E+01  0.69986409980E+03  0.70700767649E+03  0.84653012176E+02 0.  0.
        -11    1    3    3    0    0  0.35611721413E+02  0.35967922725E+02  0.23004195759E+03  0.23554445105E+03  0.00000000000E+00 0.  1.
         12    1    3    3    0    0  0.18080160103E+02 -0.34897499038E+02  0.46982214221E+03  0.47146322544E+03  0.00000000000E+00 0. -1.
         -2    1    1    2    0  502 -0.53691881516E+02 -0.10704236870E+01  0.20257879411E+03  0.20957607634E+03  0.00000000000E+00 0.  1.
<mgrwt>
<rscale>  1 0.16038266E+03</rscale>
<asrwt>0</asrwt>
<pdfrwt beam="1">  1       21 0.10877591E-02 0.16038266E+03</pdfrwt>
<pdfrwt beam="2">  1       -1 0.13992503E+00 0.16038266E+03</pdfrwt>
<totfact> 0.13941947E+05</totfact>
</mgrwt>
</event>
<event>
 6    2  0.4900839E+001  0.2013677E+03  0.7546771E-02  0.1148590E+00
         21   -1    0    0  501  502  0.00000000000E+00  0.00000000000E+00  0.39085559384E+01  0.39085559384E+01  0.00000000000E+00 0.  1.
          2   -1    0    0  502    0 -0.00000000000E+00 -0.00000000000E+00 -0.25936013472E+04  0.25936013472E+04  0.00000000000E+00 0. -1.
         24    2    1    2    0    0 -0.93563986761E+01  0.26544457436E+02 -0.25308594341E+04  0.25322909310E+04  0.80347579019E+02 0.  0.
        -11    1    3    3    0    0  0.15940771139E+02  0.43868176984E+02 -0.20016218242E+04  0.20021659402E+04  0.00000000000E+00 0.  1.
         12    1    3    3    0    0 -0.25297169815E+02 -0.17323719548E+02 -0.52923760991E+03  0.53012499073E+03  0.00000000000E+00 0. -1.
          1    1    1    2  501    0  0.93563986761E+01 -0.26544457436E+02 -0.58833357177E+02  0.65218972189E+02  0.00000000000E+00 0. -1.
<mgrwt>
<rscale>  1 0.20136768E+03</rscale>
<asrwt>0</asrwt>
<pdfrwt beam="1">  1       21 0.60131661E-03 0.20136768E+03</pdfrwt>
<pdfrwt beam="2">  1        2 0.39901538E+00 0.20136768E+03</pdfrwt>
<totfact> 0.38990162E+05</totfact>
</mgrwt>
</event>
<event>
 6    2  0.4900839E+001  0.2249463E+03  0.7546771E-02  0.1130248E+00
          2   -1    0    0  502    0 -0.00000000000E+00  0.00000000000E+00  0.29873766814E+03  0.29873766814E+03  0.00000000000E+00 0. -1.
         21   -1    0    0  501  502  0.00000000000E+00 -0.00000000000E+00 -0.42345540815E+02  0.42345540815E+02  0.00000000000E+00 0. -1.
         24    2    1    2    0    0  0.43852381636E+02 -0.86022544388E+02  0.10987626765E+03  0.16561296460E+03  0.77665631607E+02 0.  0.
        -11    1    3    3    0    0 -0.30791915885E+01  0.13288436273E+02  0.16791541019E+02  0.21633765488E+02  0.00000000000E+00 0.  1.
         12    1    3    3    0    0  0.46931573224E+02 -0.99310980661E+02  0.93084726632E+02  0.14397919911E+03  0.00000000000E+00 0. -1.
          1    1    1    2  501    0 -0.43852381636E+02  0.86022544388E+02  0.14651585968E+03  0.17547024436E+03  0.00000000000E+00 0. -1.
<mgrwt>
<rscale>  1 0.22494629E+03</rscale>
<asrwt>0</asrwt>
<pdfrwt beam="1">  1       21 0.65146988E-02 0.22494629E+03</pdfrwt>
<pdfrwt beam="2">  1        2 0.45959640E-01 0.22494629E+03</pdfrwt>
<totfact> 0.23426275E+05</totfact>
</mgrwt>
</event>
<event>
 6    2  0.4900839E+001  0.2095358E+03  0.7546771E-02  0.1141934E+00
          2   -1    0    0  502    0 -0.00000000000E+00  0.00000000000E+00  0.18160527944E+04  0.18160527944E+04  0.00000000000E+00 0. -1.
         21   -1    0    0  501  502  0.00000000000E+00 -0.00000000000E+00 -0.60440472177E+01  0.60440472177E+01  0.00000000000E+00 0. -1.
         24    2    1    2    0    0 -0.22934434050E+02  0.86440413190E+02  0.95794702904E+03  0.96535469557E+03  0.79052163201E+02 0.  0.
        -11    1    3    3    0    0 -0.12684805206E+02  0.12746234953E+02  0.57305878522E+03  0.57334086031E+03  0.00000000000E+00 0.  1.
         12    1    3    3    0    0 -0.10249628845E+02  0.73694178237E+02  0.38488824383E+03  0.39201383526E+03  0.00000000000E+00 0. -1.
          1    1    1    2  501    0  0.22934434050E+02 -0.86440413190E+02  0.85206171810E+03  0.85674214601E+03  0.00000000000E+00 0. -1.
<mgrwt>
<rscale>  1 0.20953576E+03</rscale>
<asrwt>0</asrwt>
<pdfrwt beam="1">  1       21 0.92985487E-03 0.20953576E+03</pdfrwt>
<pdfrwt beam="2">  1        2 0.27939230E+00 0.20953576E+03</pdfrwt>
<totfact> 0.50556835E+05</totfact>
</mgrwt>
</event>
<event>
 6    2  0.4900839E+001  0.1835520E+03  0.7546771E-02  0.1164409E+00
         21   -1    0    0  501  502  0.00000000000E+00  0.00000000000E+00  0.16328950991E+02  0.16328950991E+02  0.00000000000E+00 0. -1.
          2   -1    0    0  502    0 -0.00000000000E+00 -0.00000000000E+00 -0.51582192388E+03  0.51582192388E+03  0.00000000000E+00 0. -1.
         24    2    1    2    0    0  0.43416219982E+02  0.23621154647E+02 -0.46785004096E+03  0.47346354876E+03  0.53302383449E+02 0.  0.
        -13    1    3    3    0    0  0.39368975390E+02  0.28062172049E+02 -0.20803107972E+03  0.21357511993E+03  0.00000000000E+00 0.  1.
         14    1    3    3    0    0  0.40472445914E+01 -0.44410174021E+01 -0.25981896124E+03  0.25988842884E+03  0.00000000000E+00 0. -1.
          1    1    1    2  501    0 -0.43416219982E+02 -0.23621154647E+02 -0.31642931937E+02  0.58687326110E+02  0.00000000000E+00 0. -1.
<mgrwt>
<rscale>  1 0.18355196E+03</rscale>
<asrwt>0</asrwt>
<pdfrwt beam="1">  1       21 0.25121467E-02 0.18355196E+03</pdfrwt>
<pdfrwt beam="2">  1        2 0.79357207E-01 0.18355196E+03</pdfrwt>
<totfact> 0.63670435E+05</totfact>
</mgrwt>
</event>
<event>
 6    2  0.4900839E+001  0.1588107E+03  0.7546771E-02  0.1190046E+00
         21   -1    0    0  501  502  0.00000000000E+00  0.00000000000E+00  0.61772031242E+01  0.61772031242E+01  0.00000000000E+00 0.  1.
         -3   -1    0    0    0  501 -0.00000000000E+00 -0.00000000000E+00 -0.10207224661E+04  0.10207224661E+04  0.00000000000E+00 0.  1.
         24    2    1    2    0    0 -0.25011754228E+02  0.41132924204E+01 -0.98248398325E+03  0.98602874213E+03  0.79595200427E+02 0.  0.
        -11    1    3    3    0    0  0.25197814738E+01  0.20553116705E+01 -0.87655633886E+03  0.87656237017E+03  0.00000000000E+00 0.  1.
         12    1    3    3    0    0 -0.27531535701E+02  0.20579807499E+01 -0.10592764439E+03  0.10946637196E+03  0.00000000000E+00 0. -1.
         -4    1    1    2    0  502  0.25011754228E+02 -0.41132924204E+01 -0.32061279717E+02  0.40870927089E+02  0.00000000000E+00 0.  1.
<mgrwt>
<rscale>  1 0.15881071E+03</rscale>
<asrwt>0</asrwt>
<pdfrwt beam="1">  1       21 0.95033941E-03 0.15881071E+03</pdfrwt>
<pdfrwt beam="2">  1       -3 0.15703415E+00 0.15881071E+03</pdfrwt>
<totfact> 0.60401071E+04</totfact>
</mgrwt>
</event>
<event>
 6    2  0.4900839E+001  0.1177932E+03  0.7546771E-02  0.1246783E+00
          2   -1    0    0  502    0 -0.00000000000E+00  0.00000000000E+00  0.19386017146E+02  0.19386017146E+02  0.00000000000E+00 0. -1.
         21   -1    0    0  501  502  0.00000000000E+00 -0.00000000000E+00 -0.17893347995E+03  0.17893347995E+03  0.00000000000E+00 0. -1.
         24    2    1    2    0    0 -0.26392514012E+02  0.97357889916E+01 -0.14693293127E+03  0.16748969352E+03  0.75313748799E+02 0.  0.
        -13    1    3    3    0    0  0.84486911857E+00  0.30843513635E+02 -0.22008869016E+02  0.37900217051E+02  0.00000000000E+00 0.  1.
         14    1    3    3    0    0 -0.27237383130E+02 -0.21107724643E+02 -0.12492406226E+03  0.12958947646E+03  0.00000000000E+00 0. -1.
          1    1    1    2  501    0  0.26392514012E+02 -0.97357889916E+01 -0.12614531532E+02  0.30829803582E+02  0.00000000000E+00 0. -1.
<mgrwt>
<rscale>  1 0.11779317E+03</rscale>
<asrwt>0</asrwt>
<pdfrwt beam="1">  1       21 0.27528227E-01 0.11779317E+03</pdfrwt>
<pdfrwt beam="2">  1        2 0.29824642E-02 0.11779317E+03</pdfrwt>
<totfact> 0.45635905E+05</totfact>
</mgrwt>
</event>
<event>
 6    2  0.4900839E+001  0.8015613E+03  0.7546771E-02  0.9557760E-01
         21   -1    0    0  501  502  0.00000000000E+00  0.00000000000E+00  0.88459887911E+02  0.88459887911E+02  0.00000000000E+00 0. -1.
          2   -1    0    0  502    0 -0.00000000000E+00 -0.00000000000E+00 -0.18157960857E+04  0.18157960857E+04  0.00000000000E+00 0. -1.
         24    2    1    2    0    0  0.46374239861E+02  0.23329096860E+02 -0.18068153311E+04  0.18093257385E+04  0.79894746076E+02 0.  0.
        -11    1    3    3    0    0  0.13360123042E+02 -0.20009708005E+02 -0.18030214818E+03  0.18190037367E+03  0.00000000000E+00 0.  1.
         12    1    3    3    0    0  0.33014116820E+02  0.43338804865E+02 -0.16265131830E+04  0.16274253649E+04  0.00000000000E+00 0. -1.
          1    1    1    2  501    0 -0.46374239861E+02 -0.23329096860E+02  0.79479133373E+02  0.94930235040E+02  0.00000000000E+00 0. -1.
<mgrwt>
<rscale>  1 0.80156127E+03</rscale>
<asrwt>0</asrwt>
<pdfrwt beam="1">  1       21 0.13609214E-01 0.80156127E+03</pdfrwt>
<pdfrwt beam="2">  1        2 0.27935323E+00 0.80156127E+03</pdfrwt>
<totfact> 0.49076892E+03</totfact>
</mgrwt>
</event>
<event>
 6    2  0.4900839E+001  0.1224062E+03  0.7546771E-02  0.1239180E+00
         -1   -1    0    0    0  501 -0.00000000000E+00  0.00000000000E+00  0.33488193997E+03  0.33488193997E+03  0.00000000000E+00 0.  1.
         21   -1    0    0  501  502  0.00000000000E+00 -0.00000000000E+00 -0.11185495119E+02  0.11185495119E+02  0.00000000000E+00 0.  1.
         24    2    1    2    0    0 -0.21989820764E+02 -0.24209834587E+02  0.26418518733E+03  0.27816119031E+03  0.80685601463E+02 0.  0.
        -13    1    3    3    0    0 -0.40403721519E+02 -0.14974313039E+02  0.65446703085E+02  0.78357907759E+02  0.00000000000E+00 0.  1.
         14    1    3    3    0    0  0.18413900755E+02 -0.92355215479E+01  0.19873848424E+03  0.19980328255E+03  0.00000000000E+00 0. -1.
         -2    1    1    2    0  502  0.21989820764E+02  0.24209834587E+02  0.59511257522E+02  0.67906244778E+02  0.00000000000E+00 0.  1.
<mgrwt>
<rscale>  1 0.12240621E+03</rscale>
<asrwt>0</asrwt>
<pdfrwt beam="1">  1       21 0.17208457E-02 0.12240621E+03</pdfrwt>
<pdfrwt beam="2">  1       -1 0.51520291E-01 0.12240621E+03</pdfrwt>
<totfact> 0.54413452E+05</totfact>
</mgrwt>
</event>
<event>
 6    2  0.4900839E+001  0.1859724E+03  0.7546771E-02  0.1162145E+00
         21   -1    0    0  501  502  0.00000000000E+00  0.00000000000E+00  0.16981383228E+02  0.16981383228E+02  0.00000000000E+00 0. -1.
          2   -1    0    0  502    0 -0.00000000000E+00 -0.00000000000E+00 -0.50917105497E+03  0.50917105497E+03  0.00000000000E+00 0. -1.
         24    2    1    2    0    0  0.24624148076E+02  0.71305358399E+02 -0.27780898878E+03  0.29888633859E+03  0.80401531967E+02 0.  0.
        -13    1    3    3    0    0 -0.28582528291E+02  0.35101435725E+02 -0.13068041705E+03  0.13829838435E+03  0.00000000000E+00 0.  1.
         14    1    3    3    0    0  0.53206676367E+02  0.36203922674E+02 -0.14712857173E+03  0.16058795423E+03  0.00000000000E+00 0. -1.
          1    1    1    2  501    0 -0.24624148076E+02 -0.71305358399E+02 -0.21438068296E+03  0.22726609961E+03  0.00000000000E+00 0. -1.
<mgrwt>
<rscale>  1 0.18597235E+03</rscale>
<asrwt>0</asrwt>
<pdfrwt beam="1">  1       21 0.26125205E-02 0.18597235E+03</pdfrwt>
<pdfrwt beam="2">  1        2 0.78334009E-01 0.18597235E+03</pdfrwt>
<totfact> 0.60615102E+05</totfact>
</mgrwt>
</event>
<event>
 6    2  0.4900839E+001  0.1580436E+03  0.7546771E-02  0.1190923E+00
         -1   -1    0    0    0  501 -0.00000000000E+00  0.00000000000E+00  0.23852594310E+03  0.23852594310E+03  0.00000000000E+00 0.  1.
         21   -1    0    0  501  502  0.00000000000E+00 -0.00000000000E+00 -0.26179302355E+02  0.26179302355E+02  0.00000000000E+00 0.  1.
         24    2    1    2    0    0  0.49035903738E+02 -0.22926013452E+02  0.17132452522E+03  0.19678664778E+03  0.80266866473E+02 0.  0.
        -13    1    3    3    0    0  0.60809136414E+02 -0.14428480551E+02  0.67649640592E+02  0.92099978255E+02  0.00000000000E+00 0.  1.
         14    1    3    3    0    0 -0.11773232675E+02 -0.84975329010E+01  0.10367488463E+03  0.10468666952E+03  0.00000000000E+00 0. -1.
         -2    1    1    2    0  502 -0.49035903738E+02  0.22926013452E+02  0.41022115523E+02  0.67918597675E+02  0.00000000000E+00 0.  1.
<mgrwt>
<rscale>  1 0.15804357E+03</rscale>
<asrwt>0</asrwt>
<pdfrwt beam="1">  1       21 0.40275852E-02 0.15804357E+03</pdfrwt>
<pdfrwt beam="2">  1       -1 0.36696297E-01 0.15804357E+03</pdfrwt>
<totfact> 0.25310820E+05</totfact>
</mgrwt>
</event>
<event>
 6    2  0.4900839E+001  0.1152758E+03  0.7546771E-02  0.1251100E+00
         21   -1    0    0  501  502  0.00000000000E+00  0.00000000000E+00  0.23138422751E+01  0.23138422751E+01  0.00000000000E+00 0. -1.
          2   -1    0    0  502    0 -0.00000000000E+00 -0.00000000000E+00 -0.14357632351E+04  0.14357632351E+04  0.00000000000E+00 0. -1.
         24    2    1    2    0    0  0.25079507301E+02  0.67248165061E+01 -0.92057302652E+03  0.92454385356E+03  0.81562461732E+02 0.  0.
        -11    1    3    3    0    0 -0.13912654743E+02 -0.23712404853E+02 -0.54964346124E+03  0.55033060481E+03  0.00000000000E+00 0.  1.
         12    1    3    3    0    0  0.38992162044E+02  0.30437221359E+02 -0.37092956528E+03  0.37421324876E+03  0.00000000000E+00 0. -1.
          1    1    1    2  501    0 -0.25079507301E+02 -0.67248165061E+01 -0.51287636632E+03  0.51353322383E+03  0.00000000000E+00 0. -1.
<mgrwt>
<rscale>  1 0.11527584E+03</rscale>
<asrwt>0</asrwt>
<pdfrwt beam="1">  1       21 0.35597545E-03 0.11527584E+03</pdfrwt>
<pdfrwt beam="2">  1        2 0.22088683E+00 0.11527584E+03</pdfrwt>
<totfact> 0.34594953E+06</totfact>
</mgrwt>
</event>
<event>
 6    2  0.4900839E+001  0.1251818E+03  0.7546771E-02  0.1234785E+00
         21   -1    0    0  501  502  0.00000000000E+00  0.00000000000E+00  0.19956417131E+02  0.19956417131E+02  0.00000000000E+00 0. -1.
          2   -1    0    0  502    0 -0.00000000000E+00 -0.00000000000E+00 -0.19630896356E+03  0.19630896356E+03  0.00000000000E+00 0. -1.
         24    2    1    2    0    0  0.16201146723E+02  0.31966520014E+02 -0.41764448279E+02  0.76987630419E+02  0.53837631268E+02 0.  0.
        -11    1    3    3    0    0  0.54361300769E+01 -0.10573074788E+02 -0.28916141481E+02  0.31264751060E+02  0.00000000000E+00 0.  1.
         12    1    3    3    0    0  0.10765016646E+02  0.42539594803E+02 -0.12848306799E+02  0.45722879360E+02  0.00000000000E+00 0. -1.
          1    1    1    2  501    0 -0.16201146723E+02 -0.31966520014E+02 -0.13458809815E+03  0.13927775027E+03  0.00000000000E+00 0. -1.
<mgrwt>
<rscale>  1 0.12518184E+03</rscale>
<asrwt>0</asrwt>
<pdfrwt beam="1">  1       21 0.30702179E-02 0.12518184E+03</pdfrwt>
<pdfrwt beam="2">  1        2 0.30201380E-01 0.12518184E+03</pdfrwt>
<totfact> 0.12566891E+06</totfact>
</mgrwt>
</event>
<event>
 6    2  0.4900839E+001  0.6453511E+03  0.7546771E-02  0.9815542E-01
         -1   -1    0    0    0  501 -0.00000000000E+00  0.00000000000E+00  0.28582873382E+03  0.28582873382E+03  0.00000000000E+00 0.  1.
         21   -1    0    0  501  502  0.00000000000E+00 -0.00000000000E+00 -0.36427240307E+03  0.36427240307E+03  0.00000000000E+00 0.  1.
         24    2    1    2    0    0  0.24692629195E+01 -0.12173075114E+03  0.25592649598E+03  0.29425302262E+03  0.79132780462E+02 0.  0.
        -11    1    3    3    0    0  0.31331559041E+02 -0.51095220061E+02  0.16501573474E+03  0.17556360903E+03  0.00000000000E+00 0.  1.
         12    1    3    3    0    0 -0.28862296121E+02 -0.70635531083E+02  0.90910761244E+02  0.11868941359E+03  0.00000000000E+00 0. -1.
         -2    1    1    2    0  502 -0.24692629195E+01  0.12173075114E+03 -0.33437016523E+03  0.35584811427E+03  0.00000000000E+00 0.  1.
<mgrwt>
<rscale>  1 0.64535113E+03</rscale>
<asrwt>0</asrwt>
<pdfrwt beam="1">  1       21 0.56041908E-01 0.64535113E+03</pdfrwt>
<pdfrwt beam="2">  1       -1 0.43973651E-01 0.64535113E+03</pdfrwt>
<totfact> 0.13122381E+03</totfact>
</mgrwt>
</event>
<event>
 6    2  0.4900839E+001  0.2011212E+03  0.7546771E-02  0.1148796E+00
          2   -1    0    0  502    0 -0.00000000000E+00  0.00000000000E+00  0.12659094043E+04  0.12659094043E+04  0.00000000000E+00 0. -1.
         21   -1    0    0  501  502  0.00000000000E+00 -0.00000000000E+00 -0.79882773353E+01  0.79882773353E+01  0.00000000000E+00 0. -1.
         24    2    1    2    0    0  0.27986704664E+02  0.19832326819E+02  0.12182869924E+04  0.12214816397E+04  0.81348777089E+02 0.  0.
        -13    1    3    3    0    0  0.39213811996E+02 -0.33326532439E+01  0.10860235418E+04  0.10867363815E+04  0.00000000000E+00 0.  1.
         14    1    3    3    0    0 -0.11227107331E+02  0.23164980063E+02  0.13226345063E+03  0.13474525822E+03  0.00000000000E+00 0. -1.
          1    1    1    2  501    0 -0.27986704664E+02 -0.19832326819E+02  0.39634134535E+02  0.52416041871E+02  0.00000000000E+00 0. -1.
<mgrwt>
<rscale>  1 0.20112121E+03</rscale>
<asrwt>0</asrwt>
<pdfrwt beam="1">  1       21 0.12289667E-02 0.20112121E+03</pdfrwt>
<pdfrwt beam="2">  1        2 0.19475513E+00 0.20112121E+03</pdfrwt>
<totfact> 0.63439744E+05</totfact>
</mgrwt>
</event>
<event>
 6    2  0.4900839E+001  0.1290746E+03  0.7546771E-02  0.1228835E+00
         21   -1    0    0  501  502  0.00000000000E+00  0.00000000000E+00  0.46489244115E+03  0.46489244115E+03  0.00000000000E+00 0.  1.
         -3   -1    0    0    0  501 -0.00000000000E+00 -0.00000000000E+00 -0.89591973436E+01  0.89591973436E+01  0.00000000000E+00 0.  1.
         24    2    1    2    0    0  0.55590073404E+01  0.31550830658E+02  0.23325249614E+03  0.24887814481E+03  0.80667506048E+02 0.  0.
        -13    1    3    3    0    0  0.10172872841E+02  0.24813866731E+02  0.23795093582E+03  0.23945743501E+03  0.00000000000E+00 0.  1.
         14    1    3    3    0    0 -0.46138655006E+01  0.67369639268E+01 -0.46984396782E+01  0.94207098043E+01  0.00000000000E+00 0. -1.
         -4    1    1    2    0  502 -0.55590073404E+01 -0.31550830658E+02  0.22268074767E+03  0.22497349368E+03  0.00000000000E+00 0.  1.
<mgrwt>
<rscale>  1 0.12907460E+03</rscale>
<asrwt>0</asrwt>
<pdfrwt beam="1">  1       21 0.71521895E-01 0.12907460E+03</pdfrwt>
<pdfrwt beam="2">  1       -3 0.13783384E-02 0.12907460E+03</pdfrwt>
<totfact> 0.14095585E+05</totfact>
</mgrwt>
</event>
<event>
 6    2  0.4900839E+001  0.1135351E+03  0.7546771E-02  0.1254160E+00
         21   -1    0    0  501  502  0.00000000000E+00  0.00000000000E+00  0.26572826132E+01  0.26572826132E+01  0.00000000000E+00 0. -1.
          2   -1    0    0  502    0 -0.00000000000E+00 -0.00000000000E+00 -0.12127247056E+04  0.12127247056E+04  0.00000000000E+00 0. -1.
         24    2    1    2    0    0  0.27955457992E+02 -0.31280349520E+00 -0.87941685598E+03  0.88355160542E+03  0.80671106318E+02 0.  0.
        -11    1    3    3    0    0 -0.25599624101E+02 -0.11991138396E+02 -0.20996169315E+03  0.21185617939E+03  0.00000000000E+00 0.  1.
         12    1    3    3    0    0  0.53555082092E+02  0.11678334901E+02 -0.66945516283E+03  0.67169542604E+03  0.00000000000E+00 0. -1.
          1    1    1    2  501    0 -0.27955457992E+02  0.31280349520E+00 -0.33065056697E+03  0.33183038275E+03  0.00000000000E+00 0. -1.
<mgrwt>
<rscale>  1 0.11353506E+03</rscale>
<asrwt>0</asrwt>
<pdfrwt beam="1">  1       21 0.40881306E-03 0.11353506E+03</pdfrwt>
<pdfrwt beam="2">  1        2 0.18657287E+00 0.11353506E+03</pdfrwt>
<totfact> 0.36754748E+06</totfact>
</mgrwt>
</event>
<event>
 6    2  0.4900839E+001  0.1052484E+03  0.7546771E-02  0.1269631E+00
          4   -1    0    0  502    0 -0.00000000000E+00  0.00000000000E+00  0.10059499994E+04  0.10059499994E+04  0.00000000000E+00 0. -1.
         21   -1    0    0  501  502  0.00000000000E+00 -0.00000000000E+00 -0.27529263548E+01  0.27529263548E+01  0.00000000000E+00 0. -1.
         24    2    1    2    0    0  0.46305252004E+01  0.19743575894E+02  0.69454652464E+03  0.69938688740E+03  0.79598321746E+02 0.  0.
        -13    1    3    3    0    0  0.11282728661E+02  0.14772663459E+02  0.68932887656E+03  0.68957945997E+03  0.00000000000E+00 0.  1.
         14    1    3    3    0    0 -0.66522034605E+01  0.49709124349E+01  0.52176480786E+01  0.98074274296E+01  0.00000000000E+00 0. -1.
          3    1    1    2  501    0 -0.46305252004E+01 -0.19743575894E+02  0.30865054839E+03  0.30931603834E+03  0.00000000000E+00 0. -1.
<mgrwt>
<rscale>  1 0.10524840E+03</rscale>
<asrwt>0</asrwt>
<pdfrwt beam="1">  1       21 0.42352793E-03 0.10524840E+03</pdfrwt>
<pdfrwt beam="2">  1        4 0.15476125E+00 0.10524840E+03</pdfrwt>
<totfact> 0.16307114E+05</totfact>
</mgrwt>
</event>
<event>
 6    2  0.4900839E+001  0.1055556E+03  0.7546771E-02  0.1269029E+00
          2   -1    0    0  502    0 -0.00000000000E+00  0.00000000000E+00  0.22034208980E+04  0.22034208980E+04  0.00000000000E+00 0. -1.
         21   -1    0    0  501  502  0.00000000000E+00 -0.00000000000E+00 -0.12641677698E+01  0.12641677698E+01  0.00000000000E+00 0.  1.
         24    2    1    2    0    0 -0.21006599263E+02 -0.70173274399E+01  0.16729427005E+04  0.16750077968E+04  0.80145616108E+02 0.  0.
        -13    1    3    3    0    0  0.21147846714E+02  0.21333674390E+02  0.82319155151E+03  0.82373945369E+03  0.00000000000E+00 0.  1.
         14    1    3    3    0    0 -0.42154445977E+02 -0.28351001830E+02  0.84975114903E+03  0.85126834306E+03  0.00000000000E+00 0. -1.
          1    1    1    2  501    0  0.21006599263E+02  0.70173274399E+01  0.52921402967E+03  0.52967726901E+03  0.00000000000E+00 0. -1.
<mgrwt>
<rscale>  1 0.10555555E+03</rscale>
<asrwt>0</asrwt>
<pdfrwt beam="1">  1       21 0.19448911E-03 0.10555555E+03</pdfrwt>
<pdfrwt beam="2">  1        2 0.33898476E+00 0.10555555E+03</pdfrwt>
<totfact> 0.34897478E+06</totfact>
</mgrwt>
</event>
<event>
 6    2  0.4900839E+001  0.1581074E+03  0.7546771E-02  0.1190850E+00
         21   -1    0    0  501  502  0.00000000000E+00  0.00000000000E+00  0.99398094927E+01  0.99398094927E+01  0.00000000000E+00 0.  1.
         -1   -1    0    0    0  501 -0.00000000000E+00 -0.00000000000E+00 -0.62873342830E+03  0.62873342830E+03  0.00000000000E+00 0.  1.
         24    2    1    2    0    0 -0.10286347731E+02  0.23528022294E+02 -0.14438891971E+03  0.16357409518E+03  0.72449621788E+02 0.  0.
        -11    1    3    3    0    0 -0.11510051367E+02  0.28454115950E+02 -0.15138677192E+02  0.34224224522E+02  0.00000000000E+00 0.  1.
         12    1    3    3    0    0  0.12237036366E+01 -0.49260936560E+01 -0.12925024252E+03  0.12934987066E+03  0.00000000000E+00 0. -1.
         -2    1    1    2    0  502  0.10286347731E+02 -0.23528022294E+02 -0.47440469910E+03  0.47509914261E+03  0.00000000000E+00 0.  1.
<mgrwt>
<rscale>  1 0.15810744E+03</rscale>
<asrwt>0</asrwt>
<pdfrwt beam="1">  1       21 0.15292009E-02 0.15810744E+03</pdfrwt>
<pdfrwt beam="2">  1       -1 0.96728254E-01 0.15810744E+03</pdfrwt>
<totfact> 0.19169905E+05</totfact>
</mgrwt>
</event>
<event>
 6    2  0.4900839E+001  0.1541347E+03  0.7546771E-02  0.1195482E+00
          2   -1    0    0  502    0 -0.00000000000E+00  0.00000000000E+00  0.90339887421E+01  0.90339887421E+01  0.00000000000E+00 0. -1.
         21   -1    0    0  501  502  0.00000000000E+00 -0.00000000000E+00 -0.65744760882E+03  0.65744760882E+03  0.00000000000E+00 0.  1.
         24    2    1    2    0    0  0.35454464781E+02 -0.28718229470E+02 -0.55484526822E+03  0.56238168284E+03  0.79612371809E+02 0.  0.
        -11    1    3    3    0    0  0.21298878386E+02  0.26401300685E+02 -0.24729372164E+03  0.24960940619E+03  0.00000000000E+00 0.  1.
         12    1    3    3    0    0  0.14155586395E+02 -0.55119530156E+02 -0.30755154659E+03  0.31277227665E+03  0.00000000000E+00 0. -1.
          1    1    1    2  501    0 -0.35454464781E+02  0.28718229470E+02 -0.93568351857E+02  0.10409991473E+03  0.00000000000E+00 0. -1.
<mgrwt>
<rscale>  1 0.15413467E+03</rscale>
<asrwt>0</asrwt>
<pdfrwt beam="1">  1       21 0.10114577E+00 0.15413467E+03</pdfrwt>
<pdfrwt beam="2">  1        2 0.13898446E-02 0.15413467E+03</pdfrwt>
<totfact> 0.85539882E+04</totfact>
</mgrwt>
</event>
<event>
 6    2  0.4900839E+001  0.4396848E+03  0.7546771E-02  0.1030844E+00
          2   -1    0    0  502    0 -0.00000000000E+00  0.00000000000E+00  0.13293029858E+04  0.13293029858E+04  0.00000000000E+00 0. -1.
         21   -1    0    0  501  502  0.00000000000E+00 -0.00000000000E+00 -0.36357915561E+02  0.36357915561E+02  0.00000000000E+00 0. -1.
         24    2    1    2    0    0  0.54196609297E+02  0.15972879243E+03  0.26774606415E+03  0.32667891803E+03  0.81120903771E+02 0.  0.
        -13    1    3    3    0    0 -0.21014982020E+02  0.40410414454E+02  0.76762025922E+02  0.89258275187E+02  0.00000000000E+00 0.  1.
         14    1    3    3    0    0  0.75211591318E+02  0.11931837798E+03  0.19098403822E+03  0.23742064284E+03  0.00000000000E+00 0. -1.
          1    1    1    2  501    0 -0.54196609297E+02 -0.15972879243E+03  0.10251990061E+04  0.10389819833E+04  0.00000000000E+00 0. -1.
<mgrwt>
<rscale>  1 0.43968482E+03</rscale>
<asrwt>0</asrwt>
<pdfrwt beam="1">  1       21 0.55935265E-02 0.43968482E+03</pdfrwt>
<pdfrwt beam="2">  1        2 0.20450811E+00 0.43968482E+03</pdfrwt>
<totfact> 0.46670336E+04</totfact>
</mgrwt>
</event>
<event>
 6    2  0.4900839E+001  0.1046582E+03  0.7546771E-02  0.1270795E+00
         -1   -1    0    0    0  501 -0.00000000000E+00  0.00000000000E+00  0.80646335480E+03  0.80646335480E+03  0.00000000000E+00 0.  1.
         21   -1    0    0  501  502  0.00000000000E+00 -0.00000000000E+00 -0.33954855494E+01  0.33954855494E+01  0.00000000000E+00 0.  1.
         24    2    1    2    0    0  0.20852421935E+02  0.37201702989E+01  0.67079009980E+03  0.67589589227E+03  0.80170044460E+02 0.  0.
        -11    1    3    3    0    0  0.23650350027E+02  0.30075582499E+02  0.16362476901E+03  0.16803852163E+03  0.00000000000E+00 0.  1.
         12    1    3    3    0    0 -0.27979280926E+01 -0.26355412200E+02  0.50716533080E+03  0.50785737064E+03  0.00000000000E+00 0. -1.
         -2    1    1    2    0  502 -0.20852421935E+02 -0.37201702989E+01  0.13227776945E+03  0.13396294808E+03  0.00000000000E+00 0.  1.
<mgrwt>
<rscale>  1 0.10465820E+03</rscale>
<asrwt>0</asrwt>
<pdfrwt beam="1">  1       21 0.52238303E-03 0.10465820E+03</pdfrwt>
<pdfrwt beam="2">  1       -1 0.12407113E+00 0.10465820E+03</pdfrwt>
<totfact> 0.57047965E+05</totfact>
</mgrwt>
</event>
<event>
 6    2  0.4900839E+001  0.1330844E+03  0.7546771E-02  0.1222949E+00
          2   -1    0    0  502    0 -0.00000000000E+00  0.00000000000E+00  0.22820653005E+04  0.22820653005E+04  0.00000000000E+00 0. -1.
         21   -1    0    0  501  502  0.00000000000E+00 -0.00000000000E+00 -0.19402882686E+01  0.19402882686E+01  0.00000000000E+00 0.  1.
         24    2    1    2    0    0  0.25877342149E+02  0.17729505504E+02  0.97302610420E+03  0.97653033945E+03  0.76470466265E+02 0.  0.
        -13    1    3    3    0    0  0.46665725478E+02 -0.55248500710E+01  0.72996998617E+03  0.73148095984E+03  0.00000000000E+00 0.  1.
         14    1    3    3    0    0 -0.20788383329E+02  0.23254355575E+02  0.24305611803E+03  0.24504937961E+03  0.00000000000E+00 0. -1.
          1    1    1    2  501    0 -0.25877342149E+02 -0.17729505504E+02  0.13070989081E+04  0.13074752494E+04  0.00000000000E+00 0. -1.
<mgrwt>
<rscale>  1 0.13308440E+03</rscale>
<asrwt>0</asrwt>
<pdfrwt beam="1">  1       21 0.29850771E-03 0.13308440E+03</pdfrwt>
<pdfrwt beam="2">  1        2 0.35108482E+00 0.13308440E+03</pdfrwt>
<totfact> 0.16812714E+06</totfact>
</mgrwt>
</event>
<event>
 6    2  0.4900839E+001  0.2103613E+03  0.7546771E-02  0.1141280E+00
          4   -1    0    0  502    0 -0.00000000000E+00  0.00000000000E+00  0.71801385101E+02  0.71801385101E+02  0.00000000000E+00 0. -1.
         21   -1    0    0  501  502  0.00000000000E+00 -0.00000000000E+00 -0.15407735953E+03  0.15407735953E+03  0.00000000000E+00 0. -1.
         24    2    1    2    0    0 -0.66764510641E+01  0.39493684717E+02  0.38656241942E+02  0.98485938367E+02  0.81245608395E+02 0.  0.
        -13    1    3    3    0    0  0.12321852666E+02 -0.38117288697E+00  0.51125004171E+02  0.52590297559E+02  0.00000000000E+00 0.  1.
         14    1    3    3    0    0 -0.18998303730E+02  0.39874857604E+02 -0.12468762229E+02  0.45895640807E+02  0.00000000000E+00 0. -1.
          3    1    1    2  501    0  0.66764510641E+01 -0.39493684717E+02 -0.12093221638E+03  0.12739280627E+03  0.00000000000E+00 0. -1.
<mgrwt>
<rscale>  1 0.21036129E+03</rscale>
<asrwt>0</asrwt>
<pdfrwt beam="1">  1       21 0.23704209E-01 0.21036129E+03</pdfrwt>
<pdfrwt beam="2">  1        4 0.11046367E-01 0.21036129E+03</pdfrwt>
<totfact> 0.45486088E+04</totfact>
</mgrwt>
</event>
<event>
 6    2  0.6731382E+001  0.1617658E+03  0.7546771E-02  0.1186717E+00
          4   -1    0    0  502    0 -0.00000000000E+00  0.00000000000E+00  0.96934602852E+02  0.96934602852E+02  0.00000000000E+00 0. -1.
         21   -1    0    0  501  502  0.00000000000E+00 -0.00000000000E+00 -0.67489273609E+02  0.67489273609E+02  0.00000000000E+00 0. -1.
         24    2    1    2    0    0  0.56270426615E+02 -0.40612693238E+01  0.29597797538E+02  0.10800687489E+03  0.87215827602E+02 0.  0.
        -13    1    3    3    0    0 -0.20100613927E+02 -0.16937600775E+02  0.99417082491E+01  0.28102572181E+02  0.00000000000E+00 0.  1.
         14    1    3    3    0    0  0.76371040542E+02  0.12876331451E+02  0.19656089289E+02  0.79904302708E+02  0.00000000000E+00 0. -1.
          3    1    1    2  501    0 -0.56270426615E+02  0.40612693238E+01 -0.15246829459E+00  0.56417001573E+02  0.00000000000E+00 0. -1.
<mgrwt>
<rscale>  1 0.16176583E+03</rscale>
<asrwt>0</asrwt>
<pdfrwt beam="1">  1       21 0.10382965E-01 0.16176583E+03</pdfrwt>
<pdfrwt beam="2">  1        4 0.14913016E-01 0.16176583E+03</pdfrwt>
<totfact> 0.11909814E+05</totfact>
</mgrwt>
</event>
<event>
 6    2  0.4900839E+001  0.1991992E+03  0.7546771E-02  0.1150416E+00
         21   -1    0    0  501  502  0.00000000000E+00  0.00000000000E+00  0.17830896059E+03  0.17830896059E+03  0.00000000000E+00 0. -1.
         -1   -1    0    0    0  501 -0.00000000000E+00 -0.00000000000E+00 -0.55634245027E+02  0.55634245027E+02  0.00000000000E+00 0.  1.
         24    2    1    2    0    0  0.83228741489E+02  0.71210370792E+00  0.71256954559E+02  0.13611009952E+03  0.80751935689E+02 0.  0.
        -11    1    3    3    0    0  0.38064830844E+01  0.23510896743E+02  0.42316867984E+02  0.48558921890E+02  0.00000000000E+00 0.  1.
         12    1    3    3    0    0  0.79422258405E+02 -0.22798793035E+02  0.28940086575E+02  0.87551177633E+02  0.00000000000E+00 0. -1.
         -2    1    1    2    0  502 -0.83228741489E+02 -0.71210370792E+00  0.51417761006E+02  0.97833106096E+02  0.00000000000E+00 0.  1.
<mgrwt>
<rscale>  1 0.19919924E+03</rscale>
<asrwt>0</asrwt>
<pdfrwt beam="1">  1       21 0.27432148E-01 0.19919924E+03</pdfrwt>
<pdfrwt beam="2">  1       -1 0.85591147E-02 0.19919924E+03</pdfrwt>
<totfact> 0.87714790E+04</totfact>
</mgrwt>
</event>
<event>
 6    2  0.4900839E+001  0.2135098E+03  0.7546771E-02  0.1138816E+00
         -3   -1    0    0    0  501 -0.00000000000E+00  0.00000000000E+00  0.87774537951E+02  0.87774537951E+02  0.00000000000E+00 0.  1.
         21   -1    0    0  501  502  0.00000000000E+00 -0.00000000000E+00 -0.12983963067E+03  0.12983963067E+03  0.00000000000E+00 0.  1.
         24    2    1    2    0    0  0.60250748940E+02 -0.13643850502E+02  0.46755647329E+02  0.10942252723E+03  0.77271543946E+02 0.  0.
        -13    1    3    3    0    0  0.63864792730E+02 -0.29227958086E+02  0.12123345390E+02  0.71273843644E+02  0.00000000000E+00 0.  1.
         14    1    3    3    0    0 -0.36140437903E+01  0.15584107584E+02  0.34632301939E+02  0.38148683586E+02  0.00000000000E+00 0. -1.
         -4    1    1    2    0  502 -0.60250748940E+02  0.13643850502E+02 -0.88820740046E+02  0.10819164139E+03  0.00000000000E+00 0.  1.
<mgrwt>
<rscale>  1 0.21350985E+03</rscale>
<asrwt>0</asrwt>
<pdfrwt beam="1">  1       21 0.19975328E-01 0.21350985E+03</pdfrwt>
<pdfrwt beam="2">  1       -3 0.13503775E-01 0.21350985E+03</pdfrwt>
<totfact> 0.50988602E+04</totfact>
</mgrwt>
</event>
<event>
 6    2  0.4900839E+001  0.1675050E+03  0.7546771E-02  0.1180475E+00
         21   -1    0    0  501  502  0.00000000000E+00  0.00000000000E+00  0.20662010005E+01  0.20662010005E+01  0.00000000000E+00 0. -1.
          2   -1    0    0  502    0 -0.00000000000E+00 -0.00000000000E+00 -0.33948694648E+04  0.33948694648E+04  0.00000000000E+00 0. -1.
         24    2    1    2    0    0 -0.71986950948E+01  0.25378559247E+02 -0.32795178797E+04  0.32806194127E+04  0.80810366641E+02 0.  0.
        -11    1    3    3    0    0  0.14006422872E+02 -0.12023793374E+02 -0.23826822420E+04  0.23827537468E+04  0.00000000000E+00 0.  1.
         12    1    3    3    0    0 -0.21205117967E+02  0.37402352621E+02 -0.89683563771E+03  0.89786566594E+03  0.00000000000E+00 0. -1.
          1    1    1    2  501    0  0.71986950948E+01 -0.25378559247E+02 -0.11328538413E+03  0.11631625311E+03  0.00000000000E+00 0. -1.
<mgrwt>
<rscale>  1 0.16750502E+03</rscale>
<asrwt>0</asrwt>
<pdfrwt beam="1">  1       21 0.31787950E-03 0.16750502E+03</pdfrwt>
<pdfrwt beam="2">  1        2 0.52228363E+00 0.16750502E+03</pdfrwt>
<totfact> 0.35638538E+05</totfact>
</mgrwt>
</event>
<event>
 6    2  0.4900839E+001  0.1850712E+03  0.7546771E-02  0.1162983E+00
         21   -1    0    0  501  502  0.00000000000E+00  0.00000000000E+00  0.52833938878E+01  0.52833938878E+01  0.00000000000E+00 0.  1.
          2   -1    0    0  502    0 -0.00000000000E+00 -0.00000000000E+00 -0.16207081468E+04  0.16207081468E+04  0.00000000000E+00 0. -1.
         24    2    1    2    0    0 -0.11195202777E+02  0.73867289360E+02 -0.10185136822E+04  0.10244231445E+04  0.80566426460E+02 0.  0.
        -13    1    3    3    0    0 -0.27086581545E+02  0.85802992189E+02 -0.82581213016E+03  0.83069941055E+03  0.00000000000E+00 0.  1.
         14    1    3    3    0    0  0.15891378768E+02 -0.11935702829E+02 -0.19270155204E+03  0.19372373391E+03  0.00000000000E+00 0. -1.
          1    1    1    2  501    0  0.11195202777E+02 -0.73867289360E+02 -0.59691107074E+03  0.60156839626E+03  0.00000000000E+00 0. -1.
<mgrwt>
<rscale>  1 0.18507122E+03</rscale>
<asrwt>0</asrwt>
<pdfrwt beam="1">  1       21 0.81282980E-03 0.18507122E+03</pdfrwt>
<pdfrwt beam="2">  1        2 0.24933972E+00 0.18507122E+03</pdfrwt>
<totfact> 0.78929712E+05</totfact>
</mgrwt>
</event>
<event>
 6    2  0.4900839E+001  0.1246551E+03  0.7546771E-02  0.1235609E+00
         21   -1    0    0  501  502  0.00000000000E+00  0.00000000000E+00  0.10401974581E+02  0.10401974581E+02  0.00000000000E+00 0. -1.
         -1   -1    0    0    0  501 -0.00000000000E+00 -0.00000000000E+00 -0.37346012493E+03  0.37346012493E+03  0.00000000000E+00 0.  1.
         24    2    1    2    0    0  0.28625518409E+02 -0.55337683207E+01 -0.17805179171E+03  0.19657249587E+03  0.78027320244E+02 0.  0.
        -13    1    3    3    0    0  0.36450745527E+02  0.29021834038E+02 -0.83812341941E+02  0.95892817051E+02  0.00000000000E+00 0.  1.
         14    1    3    3    0    0 -0.78252271175E+01 -0.34555602359E+02 -0.94239449772E+02  0.10067967882E+03  0.00000000000E+00 0. -1.
         -2    1    1    2    0  502 -0.28625518409E+02  0.55337683207E+01 -0.18500635863E+03  0.18728960364E+03  0.00000000000E+00 0.  1.
<mgrwt>
<rscale>  1 0.12465509E+03</rscale>
<asrwt>0</asrwt>
<pdfrwt beam="1">  1       21 0.16003040E-02 0.12465509E+03</pdfrwt>
<pdfrwt beam="2">  1       -1 0.57455396E-01 0.12465509E+03</pdfrwt>
<totfact> 0.50024487E+05</totfact>
</mgrwt>
</event>
<event>
 6    2  0.4900839E+001  0.2168471E+03  0.7546771E-02  0.1136256E+00
         21   -1    0    0  501  502  0.00000000000E+00  0.00000000000E+00  0.38279402035E+02  0.38279402035E+02  0.00000000000E+00 0.  1.
         -3   -1    0    0    0  501 -0.00000000000E+00 -0.00000000000E+00 -0.30710171852E+03  0.30710171852E+03  0.00000000000E+00 0.  1.
         24    2    1    2    0    0 -0.61574348055E+02  0.13188011009E+02 -0.26320076164E+03  0.28215987530E+03  0.79838777123E+02 0.  0.
        -11    1    3    3    0    0 -0.77039220498E+02 -0.20687357345E+01 -0.22921757127E+03  0.24182641737E+03  0.00000000000E+00 0.  1.
         12    1    3    3    0    0  0.15464872443E+02  0.15256746744E+02 -0.33983190371E+02  0.40333457931E+02  0.00000000000E+00 0. -1.
         -4    1    1    2    0  502  0.61574348055E+02 -0.13188011009E+02 -0.56215548523E+01  0.63221245256E+02  0.00000000000E+00 0.  1.
<mgrwt>
<rscale>  1 0.21684714E+03</rscale>
<asrwt>0</asrwt>
<pdfrwt beam="1">  1       21 0.58891387E-02 0.21684714E+03</pdfrwt>
<pdfrwt beam="2">  1       -3 0.47246419E-01 0.21684714E+03</pdfrwt>
<totfact> 0.45320234E+04</totfact>
</mgrwt>
</event>
<event>
 6    2  0.4900839E+001  0.1252622E+03  0.7546771E-02  0.1234660E+00
         21   -1    0    0  501  502  0.00000000000E+00  0.00000000000E+00  0.49045365937E+01  0.49045365937E+01  0.00000000000E+00 0. -1.
          2   -1    0    0  502    0 -0.00000000000E+00 -0.00000000000E+00 -0.79980087615E+03  0.79980087615E+03  0.00000000000E+00 0. -1.
         24    2    1    2    0    0  0.27525208183E+02 -0.23681222442E+02 -0.50836052177E+03  0.51587810750E+03  0.79883442077E+02 0.  0.
        -13    1    3    3    0    0 -0.17339459545E+02  0.18928219989E+02 -0.16559203168E+03  0.16756985208E+03  0.00000000000E+00 0.  1.
         14    1    3    3    0    0  0.44864667728E+02 -0.42609442431E+02 -0.34276849009E+03  0.34830825542E+03  0.00000000000E+00 0. -1.
          1    1    1    2  501    0 -0.27525208183E+02  0.23681222442E+02 -0.28653581779E+03  0.28882730525E+03  0.00000000000E+00 0. -1.
<mgrwt>
<rscale>  1 0.12526217E+03</rscale>
<asrwt>0</asrwt>
<pdfrwt beam="1">  1       21 0.75454380E-03 0.12526217E+03</pdfrwt>
<pdfrwt beam="2">  1        2 0.12304634E+00 0.12526217E+03</pdfrwt>
<totfact> 0.25380047E+06</totfact>
</mgrwt>
</event>
<event>
 6    2  0.4900839E+001  0.5020226E+03  0.7546771E-02  0.1013252E+00
         21   -1    0    0  501  502  0.00000000000E+00  0.00000000000E+00  0.29420710778E+02  0.29420710778E+02  0.00000000000E+00 0. -1.
          2   -1    0    0  502    0 -0.00000000000E+00 -0.00000000000E+00 -0.21415751474E+04  0.21415751474E+04  0.00000000000E+00 0. -1.
         24    2    1    2    0    0 -0.99592256036E+02  0.11472079218E+03 -0.19113281383E+04  0.19191810855E+04  0.83673826219E+02 0.  0.
        -11    1    3    3    0    0  0.96456020527E+01  0.14000005405E+02 -0.44940792428E+03  0.44972938551E+03  0.00000000000E+00 0.  1.
         12    1    3    3    0    0 -0.10923785809E+03  0.10072078677E+03 -0.14619202140E+04  0.14694517000E+04  0.00000000000E+00 0. -1.
          1    1    1    2  501    0  0.99592256036E+02 -0.11472079218E+03 -0.20082629828E+03  0.25181477260E+03  0.00000000000E+00 0. -1.
<mgrwt>
<rscale>  1 0.50202256E+03</rscale>
<asrwt>0</asrwt>
<pdfrwt beam="1">  1       21 0.45262630E-02 0.50202256E+03</pdfrwt>
<pdfrwt beam="2">  1        2 0.32947311E+00 0.50202256E+03</pdfrwt>
<totfact> 0.24214342E+04</totfact>
</mgrwt>
</event>
<event>
 6    2  0.4900839E+001  0.1209925E+03  0.7546771E-02  0.1241469E+00
         21   -1    0    0  501  502  0.00000000000E+00  0.00000000000E+00  0.40751253250E+01  0.40751253250E+01  0.00000000000E+00 0. -1.
          2   -1    0    0  502    0 -0.00000000000E+00 -0.00000000000E+00 -0.89808197050E+03  0.89808197050E+03  0.00000000000E+00 0. -1.
         24    2    1    2    0    0  0.11445186130E+01 -0.32322838332E+02 -0.57669073852E+03  0.58319693006E+03  0.80624906441E+02 0.  0.
        -13    1    3    3    0    0 -0.32162871043E+02  0.16939475544E+01 -0.12809319977E+03  0.13208023152E+03  0.00000000000E+00 0.  1.
         14    1    3    3    0    0  0.33307389656E+02 -0.34016785887E+02 -0.44859753875E+03  0.45111669854E+03  0.00000000000E+00 0. -1.
          1    1    1    2  501    0 -0.11445186130E+01  0.32322838332E+02 -0.31731610666E+03  0.31896016577E+03  0.00000000000E+00 0. -1.
<mgrwt>
<rscale>  1 0.12099251E+03</rscale>
<asrwt>0</asrwt>
<pdfrwt beam="1">  1       21 0.62694188E-03 0.12099251E+03</pdfrwt>
<pdfrwt beam="2">  1        2 0.13816656E+00 0.12099251E+03</pdfrwt>
<totfact> 0.29141429E+06</totfact>
</mgrwt>
</event>
<event>
 6    2  0.4900839E+001  0.1429042E+03  0.7546771E-02  0.1209474E+00
          4   -1    0    0  502    0 -0.00000000000E+00  0.00000000000E+00  0.19679036857E+02  0.19679036857E+02  0.00000000000E+00 0. -1.
         21   -1    0    0  501  502  0.00000000000E+00 -0.00000000000E+00 -0.25943357257E+03  0.25943357257E+03  0.00000000000E+00 0. -1.
         24    2    1    2    0    0 -0.20870738475E+02  0.42430881953E+02 -0.16425486811E+03  0.19002744076E+03  0.83034926849E+02 0.  0.
        -13    1    3    3    0    0  0.19741316997E+02  0.39161853138E+02 -0.12864693231E+03  0.13591689936E+03  0.00000000000E+00 0.  1.
         14    1    3    3    0    0 -0.40612055472E+02  0.32690288147E+01 -0.35607935796E+02  0.54110541401E+02  0.00000000000E+00 0. -1.
          3    1    1    2  501    0  0.20870738475E+02 -0.42430881953E+02 -0.75499667606E+02  0.89085168667E+02  0.00000000000E+00 0. -1.
<mgrwt>
<rscale>  1 0.14290420E+03</rscale>
<asrwt>0</asrwt>
<pdfrwt beam="1">  1       21 0.39912856E-01 0.14290420E+03</pdfrwt>
<pdfrwt beam="2">  1        4 0.30275442E-02 0.14290420E+03</pdfrwt>
<totfact> 0.13105891E+05</totfact>
</mgrwt>
</event>
<event>
 6    2  0.4900839E+001  0.1171258E+03  0.7546771E-02  0.1247915E+00
          2   -1    0    0  502    0 -0.00000000000E+00  0.00000000000E+00  0.17636069739E+04  0.17636069739E+04  0.00000000000E+00 0. -1.
         21   -1    0    0  501  502  0.00000000000E+00 -0.00000000000E+00 -0.19446582323E+01  0.19446582323E+01  0.00000000000E+00 0. -1.
         24    2    1    2    0    0  0.25985380939E+02 -0.86395230999E+01  0.11147763727E+04  0.11180863399E+04  0.81491232979E+02 0.  0.
        -13    1    3    3    0    0 -0.24301949265E+02 -0.66374048772E+01  0.66969412352E+03  0.67016778419E+03  0.00000000000E+00 0.  1.
         14    1    3    3    0    0  0.50287330205E+02 -0.20021182227E+01  0.44508224916E+03  0.44791855573E+03  0.00000000000E+00 0. -1.
          1    1    1    2  501    0 -0.25985380939E+02  0.86395230999E+01  0.64688594297E+03  0.64746529219E+03  0.00000000000E+00 0. -1.
<mgrwt>
<rscale>  1 0.11712579E+03</rscale>
<asrwt>0</asrwt>
<pdfrwt beam="1">  1       21 0.29917960E-03 0.11712579E+03</pdfrwt>
<pdfrwt beam="2">  1        2 0.27132287E+00 0.11712579E+03</pdfrwt>
<totfact> 0.30654737E+06</totfact>
</mgrwt>
</event>
<event>
 6    2  0.4900839E+001  0.1448194E+03  0.7546771E-02  0.1206987E+00
          2   -1    0    0  502    0 -0.00000000000E+00  0.00000000000E+00  0.52426794818E+03  0.52426794818E+03  0.00000000000E+00 0. -1.
         21   -1    0    0  501  502  0.00000000000E+00 -0.00000000000E+00 -0.10000925774E+02  0.10000925774E+02  0.00000000000E+00 0. -1.
         24    2    1    2    0    0  0.72017866197E+01 -0.42537208074E+02  0.30434474188E+03  0.31995918294E+03  0.88808091055E+02 0.  0.
        -13    1    3    3    0    0  0.13117100395E+02 -0.16548697233E+02  0.28783147323E+03  0.28860504965E+03  0.00000000000E+00 0.  1.
         14    1    3    3    0    0 -0.59153137752E+01 -0.25988510841E+02  0.16513268651E+02  0.31354133290E+02  0.00000000000E+00 0. -1.
          1    1    1    2  501    0 -0.72017866197E+01  0.42537208074E+02  0.20992228053E+03  0.21430969102E+03  0.00000000000E+00 0. -1.
<mgrwt>
<rscale>  1 0.14481940E+03</rscale>
<asrwt>0</asrwt>
<pdfrwt beam="1">  1       21 0.15386044E-02 0.14481940E+03</pdfrwt>
<pdfrwt beam="2">  1        2 0.80656586E-01 0.14481940E+03</pdfrwt>
<totfact> 0.13625896E+06</totfact>
</mgrwt>
</event>
<event>
 6    2  0.4900839E+001  0.1358923E+03  0.7546771E-02  0.1218966E+00
          2   -1    0    0  502    0 -0.00000000000E+00  0.00000000000E+00  0.46793296272E+02  0.46793296272E+02  0.00000000000E+00 0. -1.
         21   -1    0    0  501  502  0.00000000000E+00 -0.00000000000E+00 -0.98661089889E+02  0.98661089889E+02  0.00000000000E+00 0. -1.
         24    2    1    2    0    0  0.25460857107E+02 -0.32088602093E+02 -0.59957813339E+02  0.10370055941E+03  0.74033323668E+02 0.  0.
        -13    1    3    3    0    0 -0.68379418702E+01 -0.27519702530E+01  0.15144590304E+02  0.16843081808E+02  0.00000000000E+00 0.  1.
         14    1    3    3    0    0  0.32298798977E+02 -0.29336631840E+02 -0.75102403643E+02  0.86857477606E+02  0.00000000000E+00 0. -1.
          1    1    1    2  501    0 -0.25460857107E+02  0.32088602093E+02  0.80900197218E+01  0.41753826747E+02  0.00000000000E+00 0. -1.
<mgrwt>
<rscale>  1 0.13589228E+03</rscale>
<asrwt>0</asrwt>
<pdfrwt beam="1">  1       21 0.15178629E-01 0.13589228E+03</pdfrwt>
<pdfrwt beam="2">  1        2 0.71989687E-02 0.13589228E+03</pdfrwt>
<totfact> 0.43966616E+05</totfact>
</mgrwt>
</event>
<event>
 6    2  0.4900839E+001  0.3498172E+03  0.7546771E-02  0.1062690E+00
          2   -1    0    0  502    0 -0.00000000000E+00  0.00000000000E+00  0.62052193738E+03  0.62052193738E+03  0.00000000000E+00 0. -1.
         21   -1    0    0  501  502  0.00000000000E+00 -0.00000000000E+00 -0.49302066736E+02  0.49302066736E+02  0.00000000000E+00 0. -1.
         24    2    1    2    0    0 -0.10529081128E+03 -0.62556282107E+02  0.51439566064E+03  0.53481128540E+03  0.80129719486E+02 0.  0.
        -11    1    3    3    0    0 -0.60345767260E+02 -0.52459608410E+01  0.34715204124E+03  0.35239703669E+03  0.00000000000E+00 0.  1.
         12    1    3    3    0    0 -0.44945044019E+02 -0.57310321266E+02  0.16724361940E+03  0.18241424872E+03  0.00000000000E+00 0. -1.
          1    1    1    2  501    0  0.10529081128E+03  0.62556282107E+02  0.56824210006E+02  0.13501271871E+03  0.00000000000E+00 0. -1.
<mgrwt>
<rscale>  1 0.34981717E+03</rscale>
<asrwt>0</asrwt>
<pdfrwt beam="1">  1       21 0.75849338E-02 0.34981717E+03</pdfrwt>
<pdfrwt beam="2">  1        2 0.95464908E-01 0.34981717E+03</pdfrwt>
<totfact> 0.79948581E+04</totfact>
</mgrwt>
</event>
<event>
 6    2  0.4900839E+001  0.1268069E+03  0.7546771E-02  0.1232272E+00
          2   -1    0    0  502    0 -0.00000000000E+00  0.00000000000E+00  0.25087088520E+04  0.25087088520E+04  0.00000000000E+00 0. -1.
         21   -1    0    0  501  502  0.00000000000E+00 -0.00000000000E+00 -0.16024158745E+01  0.16024158745E+01  0.00000000000E+00 0. -1.
         24    2    1    2    0    0 -0.14543728298E+02 -0.27754729561E+02  0.13380003532E+04  0.13407853476E+04  0.80489490907E+02 0.  0.
        -11    1    3    3    0    0  0.29057939147E+02  0.55525205250E+01  0.61200270478E+03  0.61271731244E+03  0.00000000000E+00 0.  1.
         12    1    3    3    0    0 -0.43601667445E+02 -0.33307250086E+02  0.72599764839E+03  0.72806803513E+03  0.00000000000E+00 0. -1.
          1    1    1    2  501    0  0.14543728298E+02  0.27754729561E+02  0.11691060830E+04  0.11695259203E+04  0.00000000000E+00 0. -1.
<mgrwt>
<rscale>  1 0.12680686E+03</rscale>
<asrwt>0</asrwt>
<pdfrwt beam="1">  1       21 0.24652753E-03 0.12680686E+03</pdfrwt>
<pdfrwt beam="2">  1        2 0.38595207E+00 0.12680686E+03</pdfrwt>
<totfact> 0.17057444E+06</totfact>
</mgrwt>
</event>
<event>
 6    2  0.4900839E+001  0.1560303E+03  0.7546771E-02  0.1193253E+00
         -1   -1    0    0    0  501 -0.00000000000E+00  0.00000000000E+00  0.41634183144E+02  0.41634183144E+02  0.00000000000E+00 0.  1.
         21   -1    0    0  501  502  0.00000000000E+00 -0.00000000000E+00 -0.14618668743E+03  0.14618668743E+03  0.00000000000E+00 0.  1.
         24    2    1    2    0    0 -0.15177197609E+02  0.53024181643E+02 -0.45594685166E+02  0.10708713784E+03  0.79667236732E+02 0.  0.
        -13    1    3    3    0    0 -0.22874600935E+02  0.58890245732E+02 -0.61693778193E+02  0.88303061544E+02  0.00000000000E+00 0.  1.
         14    1    3    3    0    0  0.76974033258E+01 -0.58660640896E+01  0.16099093027E+02  0.18784076292E+02  0.00000000000E+00 0. -1.
         -2    1    1    2    0  502  0.15177197609E+02 -0.53024181643E+02 -0.58957819117E+02  0.80733732734E+02  0.00000000000E+00 0.  1.
<mgrwt>
<rscale>  1 0.15603030E+03</rscale>
<asrwt>0</asrwt>
<pdfrwt beam="1">  1       21 0.22490260E-01 0.15603030E+03</pdfrwt>
<pdfrwt beam="2">  1       -1 0.64052588E-02 0.15603030E+03</pdfrwt>
<totfact> 0.19645289E+05</totfact>
</mgrwt>
</event>
<event>
 6    2  0.7717154E+001  0.1571106E+03  0.7546771E-02  0.1191998E+00
          2   -1    0    0  502    0 -0.00000000000E+00  0.00000000000E+00  0.77126797596E+03  0.77126797596E+03  0.00000000000E+00 0. -1.
         21   -1    0    0  501  502  0.00000000000E+00 -0.00000000000E+00 -0.80010284474E+01  0.80010284474E+01  0.00000000000E+00 0. -1.
         24    2    1    2    0    0  0.20317823981E+02 -0.19570405697E+02  0.22128627756E+03  0.23655465841E+03  0.78706257871E+02 0.  0.
        -11    1    3    3    0    0 -0.90213913423E+01  0.11452142967E+02  0.16629404795E+03  0.16693186474E+03  0.00000000000E+00 0.  1.
         12    1    3    3    0    0  0.29339215323E+02 -0.31022548664E+02  0.54992229606E+02  0.69622793670E+02  0.00000000000E+00 0. -1.
          1    1    1    2  501    0 -0.20317823981E+02  0.19570405697E+02  0.54198066995E+03  0.54271434600E+03  0.00000000000E+00 0. -1.
<mgrwt>
<rscale>  1 0.15711062E+03</rscale>
<asrwt>0</asrwt>
<pdfrwt beam="1">  1       21 0.12309281E-02 0.15711062E+03</pdfrwt>
<pdfrwt beam="2">  1        2 0.11865655E+00 0.15711062E+03</pdfrwt>
<totfact> 0.12497987E+06</totfact>
</mgrwt>
</event>
<event>
 6    2  0.4900839E+001  0.2081615E+03  0.7546771E-02  0.1143030E+00
         -1   -1    0    0    0  501 -0.00000000000E+00  0.00000000000E+00  0.58290569231E+03  0.58290569231E+03  0.00000000000E+00 0.  1.
         21   -1    0    0  501  502  0.00000000000E+00 -0.00000000000E+00 -0.18584142870E+02  0.18584142870E+02  0.00000000000E+00 0.  1.
         24    2    1    2    0    0 -0.87246239675E+02  0.30209470660E+01  0.30458373580E+03  0.32747384241E+03  0.82745591368E+02 0.  0.
        -13    1    3    3    0    0 -0.99717309346E+02  0.14501060840E+02  0.23202178383E+03  0.25295835768E+03  0.00000000000E+00 0.  1.
         14    1    3    3    0    0  0.12471069670E+02 -0.11480113774E+02  0.72561951964E+02  0.74515484725E+02  0.00000000000E+00 0. -1.
         -2    1    1    2    0  502  0.87246239675E+02 -0.30209470660E+01  0.25973781364E+03  0.27401599277E+03  0.00000000000E+00 0.  1.
<mgrwt>
<rscale>  1 0.20816150E+03</rscale>
<asrwt>0</asrwt>
<pdfrwt beam="1">  1       21 0.28590993E-02 0.20816150E+03</pdfrwt>
<pdfrwt beam="2">  1       -1 0.89677785E-01 0.20816150E+03</pdfrwt>
<totfact> 0.82279926E+04</totfact>
</mgrwt>
</event>
<event>
 6    2  0.4900839E+001  0.2577301E+03  0.7546771E-02  0.1108515E+00
         21   -1    0    0  501  502  0.00000000000E+00  0.00000000000E+00  0.26817472193E+02  0.26817472193E+02  0.00000000000E+00 0. -1.
          2   -1    0    0  502    0 -0.00000000000E+00 -0.00000000000E+00 -0.61923089605E+03  0.61923089605E+03  0.00000000000E+00 0. -1.
         24    2    1    2    0    0 -0.77019512316E+02  0.38253393841E+02 -0.52057759457E+03  0.53399608675E+03  0.82191613212E+02 0.  0.
        -11    1    3    3    0    0 -0.34304810397E+02 -0.10280649390E+02 -0.34569392319E+03  0.34754395449E+03  0.00000000000E+00 0.  1.
         12    1    3    3    0    0 -0.42714701919E+02  0.48534043231E+02 -0.17488367137E+03  0.18645213226E+03  0.00000000000E+00 0. -1.
          1    1    1    2  501    0  0.77019512316E+02 -0.38253393841E+02 -0.71835829289E+02  0.11205228149E+03  0.00000000000E+00 0. -1.
<mgrwt>
<rscale>  1 0.25773015E+03</rscale>
<asrwt>0</asrwt>
<pdfrwt beam="1">  1       21 0.41257648E-02 0.25773015E+03</pdfrwt>
<pdfrwt beam="2">  1        2 0.95266296E-01 0.25773015E+03</pdfrwt>
<totfact> 0.22863529E+05</totfact>
</mgrwt>
</event>
<event>
 6    2  0.4900839E+001  0.1481106E+03  0.7546771E-02  0.1202814E+00
          2   -1    0    0  502    0 -0.00000000000E+00  0.00000000000E+00  0.50011253165E+03  0.50011253165E+03  0.00000000000E+00 0. -1.
         21   -1    0    0  501  502  0.00000000000E+00 -0.00000000000E+00 -0.10965902361E+02  0.10965902361E+02  0.00000000000E+00 0. -1.
         24    2    1    2    0    0 -0.79681737761E+01  0.46066751933E+02  0.24600384519E+03  0.26348188539E+03  0.81970571895E+02 0.  0.
        -11    1    3    3    0    0  0.18744705716E+02 -0.17356130903E+02  0.66936847036E+02  0.71645940313E+02  0.00000000000E+00 0.  1.
         12    1    3    3    0    0 -0.26712879492E+02  0.63422882835E+02  0.17906699815E+03  0.19183594508E+03  0.00000000000E+00 0. -1.
          1    1    1    2  501    0  0.79681737761E+01 -0.46066751933E+02  0.24314278411E+03  0.24759654862E+03  0.00000000000E+00 0. -1.
<mgrwt>
<rscale>  1 0.14811057E+03</rscale>
<asrwt>0</asrwt>
<pdfrwt beam="1">  1       21 0.16870623E-02 0.14811057E+03</pdfrwt>
<pdfrwt beam="2">  1        2 0.76940372E-01 0.14811057E+03</pdfrwt>
<totfact> 0.12404744E+06</totfact>
</mgrwt>
</event>
<event>
 6    2  0.4900839E+001  0.1336738E+03  0.7546771E-02  0.1222104E+00
          4   -1    0    0  502    0 -0.00000000000E+00  0.00000000000E+00  0.28291718145E+02  0.28291718145E+02  0.00000000000E+00 0. -1.
         21   -1    0    0  501  502  0.00000000000E+00 -0.00000000000E+00 -0.15789689532E+03  0.15789689532E+03  0.00000000000E+00 0.  1.
         24    2    1    2    0    0  0.36848576202E+02  0.27102335578E+01 -0.11964555164E+03  0.14792169466E+03  0.78743931763E+02 0.  0.
        -11    1    3    3    0    0  0.15761519700E+02 -0.31760750109E+02 -0.20733639086E+02  0.41073769494E+02  0.00000000000E+00 0.  1.
         12    1    3    3    0    0  0.21087056502E+02  0.34470983666E+02 -0.98911912555E+02  0.10684792517E+03  0.00000000000E+00 0. -1.
          3    1    1    2  501    0 -0.36848576202E+02 -0.27102335578E+01 -0.99596255321E+01  0.38266918804E+02  0.00000000000E+00 0. -1.
<mgrwt>
<rscale>  1 0.13367385E+03</rscale>
<asrwt>0</asrwt>
<pdfrwt beam="1">  1       21 0.24291830E-01 0.13367385E+03</pdfrwt>
<pdfrwt beam="2">  1        4 0.43525720E-02 0.13367385E+03</pdfrwt>
<totfact> 0.19188511E+05</totfact>
</mgrwt>
</event>
<event>
 6    2  0.4900839E+001  0.1603026E+03  0.7546771E-02  0.1188356E+00
          2   -1    0    0  502    0 -0.00000000000E+00  0.00000000000E+00  0.11084229506E+04  0.11084229506E+04  0.00000000000E+00 0. -1.
         21   -1    0    0  501  502  0.00000000000E+00 -0.00000000000E+00 -0.57958323997E+01  0.57958323997E+01  0.00000000000E+00 0. -1.
         24    2    1    2    0    0 -0.46846832253E+02 -0.47740957539E+01  0.95577720849E+03  0.96000362919E+03  0.76677754999E+02 0.  0.
        -13    1    3    3    0    0 -0.24512737797E+02  0.24278193216E+02  0.76268626390E+03  0.76346620234E+03  0.00000000000E+00 0.  1.
         14    1    3    3    0    0 -0.22334094456E+02 -0.29052288970E+02  0.19309094459E+03  0.19653742685E+03  0.00000000000E+00 0. -1.
          1    1    1    2  501    0  0.46846832253E+02  0.47740957539E+01  0.14684990975E+03  0.15421515384E+03  0.00000000000E+00 0. -1.
<mgrwt>
<rscale>  1 0.16030263E+03</rscale>
<asrwt>0</asrwt>
<pdfrwt beam="1">  1       21 0.89166741E-03 0.16030263E+03</pdfrwt>
<pdfrwt beam="2">  1        2 0.17052644E+00 0.16030263E+03</pdfrwt>
<totfact> 0.12841698E+06</totfact>
</mgrwt>
</event>
<event>
 6    2  0.4900839E+001  0.1913654E+03  0.7546771E-02  0.1157236E+00
         21   -1    0    0  501  502  0.00000000000E+00  0.00000000000E+00  0.12967905398E+02  0.12967905398E+02  0.00000000000E+00 0. -1.
          2   -1    0    0  502    0 -0.00000000000E+00 -0.00000000000E+00 -0.70598764262E+03  0.70598764262E+03  0.00000000000E+00 0. -1.
         24    2    1    2    0    0  0.48677906368E+02 -0.52755339852E+02 -0.53602262085E+03  0.54632658463E+03  0.77458521537E+02 0.  0.
        -11    1    3    3    0    0 -0.18267882539E+02 -0.19687951811E+02 -0.21841772527E+03  0.22006279488E+03  0.00000000000E+00 0.  1.
         12    1    3    3    0    0  0.66945788907E+02 -0.33067388041E+02 -0.31760489558E+03  0.32626378974E+03  0.00000000000E+00 0. -1.
          1    1    1    2  501    0 -0.48677906368E+02  0.52755339852E+02 -0.15699711637E+03  0.17262896339E+03  0.00000000000E+00 0. -1.
<mgrwt>
<rscale>  1 0.19136542E+03</rscale>
<asrwt>0</asrwt>
<pdfrwt beam="1">  1       21 0.19950621E-02 0.19136542E+03</pdfrwt>
<pdfrwt beam="2">  1        2 0.10861350E+00 0.19136542E+03</pdfrwt>
<totfact> 0.64685086E+05</totfact>
</mgrwt>
</event>
<event>
 6    2  0.4900839E+001  0.3712052E+03  0.7546771E-02  0.1054233E+00
         21   -1    0    0  501  502  0.00000000000E+00  0.00000000000E+00  0.31982870505E+03  0.31982870505E+03  0.00000000000E+00 0.  1.
          2   -1    0    0  502    0 -0.00000000000E+00 -0.00000000000E+00 -0.10770865882E+03  0.10770865882E+03  0.00000000000E+00 0. -1.
         24    2    1    2    0    0 -0.15794364142E+03 -0.74536544809E+02  0.14641730696E+03  0.24093956023E+03  0.78178983951E+02 0.  0.
        -11    1    3    3    0    0 -0.59435405994E+02 -0.57289207410E+02  0.10278000479E+03  0.13182697052E+03  0.00000000000E+00 0.  1.
         12    1    3    3    0    0 -0.98508235423E+02 -0.17247337399E+02  0.43637302170E+02  0.10911258971E+03  0.00000000000E+00 0. -1.
          1    1    1    2  501    0  0.15794364142E+03  0.74536544809E+02  0.65702739263E+02  0.18659780364E+03  0.00000000000E+00 0. -1.
<mgrwt>
<rscale>  1 0.37120518E+03</rscale>
<asrwt>0</asrwt>
<pdfrwt beam="1">  1       21 0.49204416E-01 0.37120518E+03</pdfrwt>
<pdfrwt beam="2">  1        2 0.16570563E-01 0.37120518E+03</pdfrwt>
<totfact> 0.16291151E+04</totfact>
</mgrwt>
</event>
<event>
 6    2  0.4900839E+001  0.2519691E+03  0.7546771E-02  0.1112067E+00
         21   -1    0    0  501  502  0.00000000000E+00  0.00000000000E+00  0.52856393790E+02  0.52856393790E+02  0.00000000000E+00 0. -1.
          2   -1    0    0  502    0 -0.00000000000E+00 -0.00000000000E+00 -0.30028745934E+03  0.30028745934E+03  0.00000000000E+00 0. -1.
         24    2    1    2    0    0 -0.70214518915E+02  0.41044804614E+01 -0.26148343184E+03  0.28141941919E+03  0.76657543290E+02 0.  0.
        -13    1    3    3    0    0 -0.38347843543E+02 -0.26200409163E+02 -0.20301163405E+03  0.20825643353E+03  0.00000000000E+00 0.  1.
         14    1    3    3    0    0 -0.31866675372E+02  0.30304889624E+02 -0.58471797786E+02  0.73162985661E+02  0.00000000000E+00 0. -1.
          1    1    1    2  501    0  0.70214518915E+02 -0.41044804614E+01  0.14052366288E+02  0.71724433944E+02  0.00000000000E+00 0. -1.
<mgrwt>
<rscale>  1 0.25196914E+03</rscale>
<asrwt>0</asrwt>
<pdfrwt beam="1">  1       21 0.81317529E-02 0.25196914E+03</pdfrwt>
<pdfrwt beam="2">  1        2 0.46198071E-01 0.25196914E+03</pdfrwt>
<totfact> 0.15880240E+05</totfact>
</mgrwt>
</event>
<event>
 6    2  0.4900839E+001  0.1752294E+03  0.7546771E-02  0.1172502E+00
         21   -1    0    0  501  502  0.00000000000E+00  0.00000000000E+00  0.37957106148E+02  0.37957106148E+02  0.00000000000E+00 0.  1.
         -3   -1    0    0    0  501 -0.00000000000E+00 -0.00000000000E+00 -0.20223713587E+03  0.20223713587E+03  0.00000000000E+00 0.  1.
         24    2    1    2    0    0  0.63929161114E+02  0.24224865120E+02 -0.86624419072E+02  0.13673325615E+03  0.80736680806E+02 0.  0.
        -11    1    3    3    0    0  0.78526753734E+02  0.44703402024E+01 -0.52030140989E+02  0.94305729225E+02  0.00000000000E+00 0.  1.
         12    1    3    3    0    0 -0.14597592619E+02  0.19754524917E+02 -0.34594278084E+02  0.42427526927E+02  0.00000000000E+00 0. -1.
         -4    1    1    2    0  502 -0.63929161114E+02 -0.24224865120E+02 -0.77655610647E+02  0.10346098586E+03  0.00000000000E+00 0.  1.
<mgrwt>
<rscale>  1 0.17522941E+03</rscale>
<asrwt>0</asrwt>
<pdfrwt beam="1">  1       21 0.58395548E-02 0.17522941E+03</pdfrwt>
<pdfrwt beam="2">  1       -3 0.31113405E-01 0.17522941E+03</pdfrwt>
<totfact> 0.10124250E+05</totfact>
</mgrwt>
</event>
<event>
 6    2  0.4900839E+001  0.2308542E+03  0.7546771E-02  0.1126040E+00
         21   -1    0    0  501  502  0.00000000000E+00  0.00000000000E+00  0.93053116047E+01  0.93053116047E+01  0.00000000000E+00 0. -1.
          2   -1    0    0  502    0 -0.00000000000E+00 -0.00000000000E+00 -0.14318076370E+04  0.14318076370E+04  0.00000000000E+00 0. -1.
         24    2    1    2    0    0  0.87669162971E+02 -0.74006331098E+01 -0.48039895501E+03  0.49491032126E+03  0.80077578677E+02 0.  0.
        -11    1    3    3    0    0  0.47875695251E+02  0.27774306421E+02 -0.34597782193E+03  0.35037715045E+03  0.00000000000E+00 0.  1.
         12    1    3    3    0    0  0.39793467720E+02 -0.35174939531E+02 -0.13442113308E+03  0.14453317081E+03  0.00000000000E+00 0. -1.
          1    1    1    2  501    0 -0.87669162971E+02  0.74006331098E+01 -0.94210337042E+03  0.94620262738E+03  0.00000000000E+00 0. -1.
<mgrwt>
<rscale>  1 0.23085421E+03</rscale>
<asrwt>0</asrwt>
<pdfrwt beam="1">  1       21 0.14315861E-02 0.23085421E+03</pdfrwt>
<pdfrwt beam="2">  1        2 0.22027814E+00 0.23085421E+03</pdfrwt>
<totfact> 0.40390443E+05</totfact>
</mgrwt>
</event>
<event>
 6    2  0.6265211E+001  0.1185496E+03  0.7546771E-02  0.1245509E+00
         21   -1    0    0  501  502  0.00000000000E+00  0.00000000000E+00  0.56850479481E+02  0.56850479481E+02  0.00000000000E+00 0. -1.
          2   -1    0    0  502    0 -0.00000000000E+00 -0.00000000000E+00 -0.61802553336E+02  0.61802553336E+02  0.00000000000E+00 0. -1.
         24    2    1    2    0    0 -0.23888981416E+02 -0.70438433597E+01 -0.23546278130E+02  0.87571790965E+02  0.80585930513E+02 0.  0.
        -11    1    3    3    0    0  0.24434777609E+02 -0.13827396024E+01 -0.29750562184E+02  0.38523580777E+02  0.00000000000E+00 0.  1.
         12    1    3    3    0    0 -0.48323759025E+02 -0.56611037573E+01  0.62042840540E+01  0.49048210188E+02  0.00000000000E+00 0. -1.
          1    1    1    2  501    0  0.23888981416E+02  0.70438433597E+01  0.18594204275E+02  0.31081241851E+02  0.00000000000E+00 0. -1.
<mgrwt>
<rscale>  1 0.11854965E+03</rscale>
<asrwt>0</asrwt>
<pdfrwt beam="1">  1       21 0.87462277E-02 0.11854965E+03</pdfrwt>
<pdfrwt beam="2">  1        2 0.95080851E-02 0.11854965E+03</pdfrwt>
<totfact> 0.81297207E+05</totfact>
</mgrwt>
</event>
<event>
 6    2  0.4900839E+001  0.1617835E+03  0.7546771E-02  0.1186698E+00
         21   -1    0    0  501  502  0.00000000000E+00  0.00000000000E+00  0.16448249411E+03  0.16448249411E+03  0.00000000000E+00 0. -1.
          2   -1    0    0  502    0 -0.00000000000E+00 -0.00000000000E+00 -0.39782178267E+02  0.39782178267E+02  0.00000000000E+00 0. -1.
         24    2    1    2    0    0  0.23214602263E+02  0.29547056696E+02  0.23610267239E+02  0.96416889627E+02  0.85596878264E+02 0.  0.
        -13    1    3    3    0    0 -0.22023342451E+02 -0.17064864002E+02  0.12424633390E+02  0.30505879941E+02  0.00000000000E+00 0.  1.
         14    1    3    3    0    0  0.45237944714E+02  0.46611920698E+02  0.11185633850E+02  0.65911009686E+02  0.00000000000E+00 0. -1.
          1    1    1    2  501    0 -0.23214602263E+02 -0.29547056696E+02  0.10109004861E+03  0.10784778276E+03  0.00000000000E+00 0. -1.
<mgrwt>
<rscale>  1 0.16178346E+03</rscale>
<asrwt>0</asrwt>
<pdfrwt beam="1">  1       21 0.25304999E-01 0.16178346E+03</pdfrwt>
<pdfrwt beam="2">  1        2 0.61203352E-02 0.16178346E+03</pdfrwt>
<totfact> 0.21232641E+05</totfact>
</mgrwt>
</event>
<event>
 6    2  0.4900839E+001  0.1748207E+03  0.7546771E-02  0.1172912E+00
         21   -1    0    0  501  502  0.00000000000E+00  0.00000000000E+00  0.53958267518E+02  0.53958267518E+02  0.00000000000E+00 0. -1.
          2   -1    0    0  502    0 -0.00000000000E+00 -0.00000000000E+00 -0.14160140648E+03  0.14160140648E+03  0.00000000000E+00 0. -1.
         24    2    1    2    0    0  0.15847805151E+02 -0.53258559297E+02 -0.16858402196E+02  0.10557019669E+03  0.88165943760E+02 0.  0.
        -13    1    3    3    0    0 -0.23500764078E+02  0.12868975263E+02 -0.87932861665E+01  0.28199615568E+02  0.00000000000E+00 0.  1.
         14    1    3    3    0    0  0.39348569229E+02 -0.66127534559E+02 -0.80651160298E+01  0.77370581127E+02  0.00000000000E+00 0. -1.
          1    1    1    2  501    0 -0.15847805151E+02  0.53258559297E+02 -0.70784736768E+02  0.89989477306E+02  0.00000000000E+00 0. -1.
<mgrwt>
<rscale>  1 0.17482067E+03</rscale>
<asrwt>0</asrwt>
<pdfrwt beam="1">  1       21 0.83012721E-02 0.17482067E+03</pdfrwt>
<pdfrwt beam="2">  1        2 0.21784831E-01 0.17482067E+03</pdfrwt>
<totfact> 0.34505009E+05</totfact>
</mgrwt>
</event>
<event>
 6    2  0.4900839E+001  0.1161530E+03  0.7546771E-02  0.1249582E+00
          2   -1    0    0  502    0 -0.00000000000E+00  0.00000000000E+00  0.13528476191E+04  0.13528476191E+04  0.00000000000E+00 0. -1.
         21   -1    0    0  501  502  0.00000000000E+00 -0.00000000000E+00 -0.24931684859E+01  0.24931684859E+01  0.00000000000E+00 0. -1.
         24    2    1    2    0    0  0.63023992427E+01 -0.27213386849E+02  0.89358303059E+03  0.89771602993E+03  0.81382732764E+02 0.  0.
        -11    1    3    3    0    0 -0.89700983157E+01 -0.15321189200E+02  0.84809584069E+03  0.84828164928E+03  0.00000000000E+00 0.  1.
         12    1    3    3    0    0  0.15272497558E+02 -0.11892197649E+02  0.45487189895E+02  0.49434380659E+02  0.00000000000E+00 0. -1.
          1    1    1    2  501    0 -0.63023992427E+01  0.27213386849E+02  0.45677142002E+03  0.45762475764E+03  0.00000000000E+00 0. -1.
<mgrwt>
<rscale>  1 0.11615295E+03</rscale>
<asrwt>0</asrwt>
<pdfrwt beam="1">  1       21 0.38356546E-03 0.11615295E+03</pdfrwt>
<pdfrwt beam="2">  1        2 0.20812982E+00 0.11615295E+03</pdfrwt>
<totfact> 0.34140413E+06</totfact>
</mgrwt>
</event>
<event>
 6    2  0.4900839E+001  0.1775788E+03  0.7546771E-02  0.1170167E+00
         21   -1    0    0  501  502  0.00000000000E+00  0.00000000000E+00  0.72851780291E+02  0.72851780291E+02  0.00000000000E+00 0. -1.
          2   -1    0    0  502    0 -0.00000000000E+00 -0.00000000000E+00 -0.10821366672E+03  0.10821366672E+03  0.00000000000E+00 0. -1.
         24    2    1    2    0    0  0.84027628957E+01 -0.54286025414E+02 -0.70423253526E+02  0.11589736861E+03  0.73859233916E+02 0.  0.
        -13    1    3    3    0    0  0.55389608985E+01  0.17763914380E+02 -0.23039784435E+02  0.29615340766E+02  0.00000000000E+00 0.  1.
         14    1    3    3    0    0  0.28638019972E+01 -0.72049939793E+02 -0.47383469092E+02  0.86282027846E+02  0.00000000000E+00 0. -1.
          1    1    1    2  501    0 -0.84027628957E+01  0.54286025414E+02  0.35061367096E+02  0.65168078399E+02  0.00000000000E+00 0. -1.
<mgrwt>
<rscale>  1 0.17757881E+03</rscale>
<asrwt>0</asrwt>
<pdfrwt beam="1">  1       21 0.11207966E-01 0.17757881E+03</pdfrwt>
<pdfrwt beam="2">  1        2 0.16648256E-01 0.17757881E+03</pdfrwt>
<totfact> 0.27718127E+05</totfact>
</mgrwt>
</event>
<event>
 6    2  0.4900839E+001  0.2968797E+03  0.7546771E-02  0.1086811E+00
         -1   -1    0    0    0  501 -0.00000000000E+00  0.00000000000E+00  0.22305692945E+03  0.22305692945E+03  0.00000000000E+00 0.  1.
         21   -1    0    0  501  502  0.00000000000E+00 -0.00000000000E+00 -0.98783726835E+02  0.98783726835E+02  0.00000000000E+00 0.  1.
         24    2    1    2    0    0  0.10139837125E+03  0.74425206805E+02  0.73796076611E+01  0.15012911433E+03  0.81630577969E+02 0.  0.
        -13    1    3    3    0    0  0.97014794591E+02  0.72159378355E+02 -0.19788018191E+02  0.12251698624E+03  0.00000000000E+00 0.  1.
         14    1    3    3    0    0  0.43835766588E+01  0.22658284494E+01  0.27167625853E+02  0.27612128084E+02  0.00000000000E+00 0. -1.
         -2    1    1    2    0  502 -0.10139837125E+03 -0.74425206805E+02  0.11689359495E+03  0.17171154196E+03  0.00000000000E+00 0.  1.
<mgrwt>
<rscale>  1 0.29687974E+03</rscale>
<asrwt>0</asrwt>
<pdfrwt beam="1">  1       21 0.15197496E-01 0.29687974E+03</pdfrwt>
<pdfrwt beam="2">  1       -1 0.34316451E-01 0.29687974E+03</pdfrwt>
<totfact> 0.28380238E+04</totfact>
</mgrwt>
</event>
<event>
 6    2  0.4900839E+001  0.1213357E+03  0.7546771E-02  0.1240910E+00
          2   -1    0    0  502    0 -0.00000000000E+00  0.00000000000E+00  0.35388891298E+03  0.35388891298E+03  0.00000000000E+00 0. -1.
         21   -1    0    0  501  502  0.00000000000E+00 -0.00000000000E+00 -0.10400400153E+02  0.10400400153E+02  0.00000000000E+00 0.  1.
         24    2    1    2    0    0  0.15746574097E+02 -0.25750302079E+02  0.18797162156E+03  0.20587045023E+03  0.78347170428E+02 0.  0.
        -11    1    3    3    0    0  0.36344316402E+02  0.72010562153E+01  0.48184115388E+02  0.60782180950E+02  0.00000000000E+00 0.  1.
         12    1    3    3    0    0 -0.20597742305E+02 -0.32951358295E+02  0.13978750617E+03  0.14508826928E+03  0.00000000000E+00 0. -1.
          1    1    1    2  501    0 -0.15746574097E+02  0.25750302079E+02  0.15551689127E+03  0.15841886290E+03  0.00000000000E+00 0. -1.
<mgrwt>
<rscale>  1 0.12133567E+03</rscale>
<asrwt>0</asrwt>
<pdfrwt beam="1">  1       21 0.16000618E-02 0.12133567E+03</pdfrwt>
<pdfrwt beam="2">  1        2 0.54444439E-01 0.12133567E+03</pdfrwt>
<totfact> 0.19231023E+06</totfact>
</mgrwt>
</event>
<event>
 6    2  0.4900839E+001  0.1824365E+03  0.7546771E-02  0.1165466E+00
          2   -1    0    0  502    0 -0.00000000000E+00  0.00000000000E+00  0.47852291407E+03  0.47852291407E+03  0.00000000000E+00 0. -1.
         21   -1    0    0  501  502  0.00000000000E+00 -0.00000000000E+00 -0.17388453261E+02  0.17388453261E+02  0.00000000000E+00 0. -1.
         24    2    1    2    0    0  0.58431912292E+02 -0.82187544090E+01  0.15539770271E+03  0.18453249594E+03  0.80137130911E+02 0.  0.
        -11    1    3    3    0    0  0.40960366026E+02 -0.35489508992E+02  0.13689401742E+03  0.14723188798E+03  0.00000000000E+00 0.  1.
         12    1    3    3    0    0  0.17471546266E+02  0.27270754583E+02  0.18503685291E+02  0.37300607955E+02  0.00000000000E+00 0. -1.
          1    1    1    2  501    0 -0.58431912292E+02  0.82187544090E+01  0.30573675810E+03  0.31137887140E+03  0.00000000000E+00 0. -1.
<mgrwt>
<rscale>  1 0.18243655E+03</rscale>
<asrwt>0</asrwt>
<pdfrwt beam="1">  1       21 0.26751470E-02 0.18243655E+03</pdfrwt>
<pdfrwt beam="2">  1        2 0.73618900E-01 0.18243655E+03</pdfrwt>
<totfact> 0.62387626E+05</totfact>
</mgrwt>
</event>
<event>
 6    2  0.4900839E+001  0.1399414E+03  0.7546771E-02  0.1213408E+00
         21   -1    0    0  501  502  0.00000000000E+00  0.00000000000E+00  0.15233663259E+02  0.15233663259E+02  0.00000000000E+00 0. -1.
          2   -1    0    0  502    0 -0.00000000000E+00 -0.00000000000E+00 -0.32138696449E+03  0.32138696449E+03  0.00000000000E+00 0. -1.
         24    2    1    2    0    0 -0.33736874720E+02  0.10221503241E+02 -0.27870118377E+03  0.29194093888E+03  0.79451281383E+02 0.  0.
        -13    1    3    3    0    0  0.24995016734E+02  0.38233297527E+01 -0.54395655333E+02  0.59985465165E+02  0.00000000000E+00 0.  1.
         14    1    3    3    0    0 -0.58731891454E+02  0.63981734881E+01 -0.22430552844E+03  0.23195547371E+03  0.00000000000E+00 0. -1.
          1    1    1    2  501    0  0.33736874720E+02 -0.10221503241E+02 -0.27452117454E+02  0.44679688865E+02  0.00000000000E+00 0. -1.
<mgrwt>
<rscale>  1 0.13994143E+03</rscale>
<asrwt>0</asrwt>
<pdfrwt beam="1">  1       21 0.23436404E-02 0.13994143E+03</pdfrwt>
<pdfrwt beam="2">  1        2 0.49444151E-01 0.13994143E+03</pdfrwt>
<totfact> 0.11669697E+06</totfact>
</mgrwt>
</event>
<event>
 6    2  0.4900839E+001  0.1314337E+03  0.7546771E-02  0.1225344E+00
         21   -1    0    0  501  502  0.00000000000E+00  0.00000000000E+00  0.60240680502E+01  0.60240680502E+01  0.00000000000E+00 0.  1.
         -1   -1    0    0    0  501 -0.00000000000E+00 -0.00000000000E+00 -0.71690875114E+03  0.71690875114E+03  0.00000000000E+00 0.  1.
         24    2    1    2    0    0  0.28093514208E+02  0.32799393072E+02 -0.41087498556E+03  0.41983075002E+03  0.74662970560E+02 0.  0.
        -13    1    3    3    0    0  0.43225457231E+02  0.28748633621E+02 -0.15471173766E+03  0.16318898816E+03  0.00000000000E+00 0.  1.
         14    1    3    3    0    0 -0.15131943023E+02  0.40507594508E+01 -0.25616324790E+03  0.25664176185E+03  0.00000000000E+00 0. -1.
         -2    1    1    2    0  502 -0.28093514208E+02 -0.32799393072E+02 -0.30000969753E+03  0.30310206918E+03  0.00000000000E+00 0.  1.
<mgrwt>
<rscale>  1 0.13143374E+03</rscale>
<asrwt>0</asrwt>
<pdfrwt beam="1">  1       21 0.92677972E-03 0.13143374E+03</pdfrwt>
<pdfrwt beam="2">  1       -1 0.11029365E+00 0.13143374E+03</pdfrwt>
<totfact> 0.31322944E+05</totfact>
</mgrwt>
</event>
