<event>
 8    2  0.7266322E-052  0.1299898E+04  0.7818608E-02  0.9029646E-01
          2   -1    0    0  501    0  0.00000000000E+00  0.00000000000E+00  0.91949248694E+03  0.91949248695E+03  0.25500000000E-02 0.  1.
         -2   -1    0    0    0  501 -0.00000000000E+00 -0.00000000000E+00 -0.45942063780E+03  0.45942063781E+03  0.25500000000E-02 0. -1.
    -200001    2    1    2    0    0 -0.20983457814E+02 -0.16746230605E+03  0.37247559047E+03  0.73709848330E+03  0.61326354786E+03 0.  0.
   -5000001    2    3    3    0    0 -0.24973193231E+03 -0.69839850649E+02 -0.66408302574E+01  0.27257047677E+03  0.83707355847E+02 0.  0.
     200001    1    1    2    0    0  0.20983457814E+02  0.16746230605E+03  0.87596258667E+02  0.64181464145E+03  0.61300000000E+03 0. -1.
         11    1    4    4    0    0 -0.93625075030E+02  0.93290995913E+01  0.77142201609E+01  0.94404427685E+02  0.51100000000E-03 0.  1.
    -200002    1    4    4    0    0 -0.15610685728E+03 -0.79168950241E+02 -0.14355050418E+02  0.17816604908E+03  0.30000000000E+02 0.  1.
    -200000    1    3    3    0    0  0.22874847450E+03 -0.97622455405E+02  0.37911642073E+03  0.46452800653E+03  0.10100000000E+03 0.  1.
<mgrwt>
<rscale>  0 0.12998982E+04</rscale>
<asrwt>0</asrwt>
<pdfrwt beam="1">  1        2 0.13135607E+00 0.12998982E+04</pdfrwt>
<pdfrwt beam="2">  1       -2 0.65631521E-01 0.12998982E+04</pdfrwt>
<totfact> 0.66266239E+01</totfact>
</mgrwt>
</event>
<event>
 8    2  0.7266322E-052  0.1868898E+04  0.7818608E-02  0.8670495E-01
         -2   -1    0    0    0  501 -0.00000000000E+00  0.00000000000E+00  0.43847880010E+03  0.43847880011E+03  0.25500000000E-02 0. -1.
          2   -1    0    0  501    0  0.00000000000E+00 -0.00000000000E+00 -0.19914188851E+04  0.19914188851E+04  0.25500000000E-02 0.  1.
    -200001    2    1    2    0    0  0.37162167046E+03  0.59678005600E+03 -0.70502900981E+03  0.11693536389E+04  0.61324785121E+03 0.  0.
   -5000001    2    3    3    0    0  0.10796633386E+03  0.21881470598E+03 -0.64331341400E+03  0.69355771934E+03  0.87370227323E+02 0.  0.
     200001    1    1    2    0    0 -0.37162167046E+03 -0.59678005600E+03 -0.84791107521E+03  0.12605440463E+04  0.61300000000E+03 0.  1.
         11    1    4    4    0    0  0.22167551084E+02  0.12962311955E+03 -0.30951351472E+03  0.33629179181E+03  0.51100000000E-03 0.  1.
    -200002    1    4    4    0    0  0.85798782779E+02  0.89191586436E+02 -0.33379989928E+03  0.35726592753E+03  0.30000000000E+02 0.  1.
    -200000    1    3    3    0    0  0.26365533660E+03  0.37796535002E+03 -0.61715595808E+02  0.47579591959E+03  0.10100000000E+03 0. -1.
<mgrwt>
<rscale>  0 0.18688980E+04</rscale>
<asrwt>0</asrwt>
<pdfrwt beam="1">  1        2 0.28448841E+00 0.18688980E+04</pdfrwt>
<pdfrwt beam="2">  1       -2 0.62639829E-01 0.18688980E+04</pdfrwt>
<totfact> 0.18040134E+01</totfact>
</mgrwt>
</event>
<event>
 8    2  0.7266322E-052  0.1550130E+04  0.7818608E-02  0.8851785E-01
          2   -1    0    0  501    0  0.00000000000E+00  0.00000000000E+00  0.10945515854E+04  0.10945515854E+04  0.25500000000E-02 0. -1.
         -2   -1    0    0    0  501 -0.00000000000E+00 -0.00000000000E+00 -0.54883255579E+03  0.54883255580E+03  0.25500000000E-02 0.  1.
    -200001    2    1    2    0    0 -0.20535266842E+03  0.46096219965E+02  0.72315439240E+03  0.97141175493E+03  0.61350952922E+03 0.  0.
   -5000001    2    3    3    0    0  0.91059653807E+02  0.24358405006E+03  0.22288258367E+03  0.34904964938E+03  0.67334698619E+02 0.  0.
     200001    1    1    2    0    0  0.20535266842E+03 -0.46096219965E+02 -0.17743536281E+03  0.67197238626E+03  0.61300000000E+03 0.  1.
         11    1    4    4    0    0  0.48464946297E+02  0.15725573803E+03  0.11131094649E+03  0.19866641632E+03  0.51100000000E-03 0.  1.
    -200002    1    4    4    0    0  0.42594707510E+02  0.86328312030E+02  0.11157163718E+03  0.15038323307E+03  0.30000000000E+02 0.  1.
    -200000    1    3    3    0    0 -0.29641232223E+03 -0.19748783009E+03  0.50027180873E+03  0.62236210554E+03  0.10100000000E+03 0. -1.
<mgrwt>
<rscale>  0 0.15501297E+04</rscale>
<asrwt>0</asrwt>
<pdfrwt beam="1">  1        2 0.15636451E+00 0.15501297E+04</pdfrwt>
<pdfrwt beam="2">  1       -2 0.78404652E-01 0.15501297E+04</pdfrwt>
<totfact> 0.34341844E+01</totfact>
</mgrwt>
</event>
<event>
 8    2  0.7266322E-052  0.1688675E+04  0.7818608E-02  0.8767850E-01
         -2   -1    0    0    0  501 -0.00000000000E+00  0.00000000000E+00  0.67946671088E+03  0.67946671088E+03  0.25500000000E-02 0. -1.
          2   -1    0    0  501    0  0.00000000000E+00 -0.00000000000E+00 -0.10492139252E+04  0.10492139252E+04  0.25500000000E-02 0.  1.
    -200001    2    1    2    0    0  0.19561411588E+03 -0.43191141109E+03  0.14939401742E+03  0.79589504023E+03  0.62154484413E+03 0.  0.
   -5000001    2    3    3    0    0  0.24892025768E+03  0.43175876890E+02 -0.39206018435E+02  0.27213894292E+03  0.93257929104E+02 0.  0.
     200001    1    1    2    0    0 -0.19561411588E+03  0.43191141109E+03 -0.51914123175E+03  0.93278559587E+03  0.61300000000E+03 0.  1.
         11    1    4    4    0    0  0.15201230805E+02  0.26764715153E+02 -0.16283072395E+02  0.34821916117E+02  0.51100000000E-03 0.  1.
    -200002    1    4    4    0    0  0.23371902688E+03  0.16411161737E+02 -0.22922946040E+02  0.23731702680E+03  0.30000000000E+02 0.  1.
    -200000    1    3    3    0    0 -0.53306141802E+02 -0.47508728798E+03  0.18860003585E+03  0.52375609731E+03  0.10100000000E+03 0.  1.
<mgrwt>
<rscale>  0 0.16886751E+04</rscale>
<asrwt>0</asrwt>
<pdfrwt beam="1">  1        2 0.14988770E+00 0.16886751E+04</pdfrwt>
<pdfrwt beam="2">  1       -2 0.97066673E-01 0.16886751E+04</pdfrwt>
<totfact> 0.22177299E+01</totfact>
</mgrwt>
</event>
<event>
 8    2  0.7266322E-052  0.1498717E+04  0.7818608E-02  0.8885307E-01
          2   -1    0    0  501    0  0.00000000000E+00  0.00000000000E+00  0.20867561741E+04  0.20867561741E+04  0.25500000000E-02 0.  1.
         -2   -1    0    0    0  501 -0.00000000000E+00 -0.00000000000E+00 -0.26909614965E+03  0.26909614966E+03  0.25500000000E-02 0. -1.
    -200001    2    1    2    0    0  0.85723602207E+02  0.40523584025E+03  0.72540178722E+03  0.10366246410E+04  0.61385525264E+03 0.  0.
   -5000001    2    3    3    0    0  0.11459058816E+03  0.42239562143E+03  0.18045126447E+03  0.48137709869E+03  0.87247856151E+02 0.  0.
     200001    1    1    2    0    0 -0.85723602207E+02 -0.40523584025E+03  0.10922582372E+04  0.13192276827E+04  0.61300000000E+03 0. -1.
         11    1    4    4    0    0  0.83671840264E+02  0.30192375649E+03  0.16005346181E+03  0.35181819484E+03  0.51100000000E-03 0.  1.
    -200002    1    4    4    0    0  0.30918747899E+02  0.12047186494E+03  0.20397802653E+02  0.12955890385E+03  0.30000000000E+02 0.  1.
    -200000    1    3    3    0    0 -0.28866985956E+02 -0.17159781179E+02  0.54495052276E+03  0.55524754229E+03  0.10100000000E+03 0. -1.
<mgrwt>
<rscale>  0 0.14987169E+04</rscale>
<asrwt>0</asrwt>
<pdfrwt beam="1">  1        2 0.29810803E+00 0.14987169E+04</pdfrwt>
<pdfrwt beam="2">  1       -2 0.38442307E-01 0.14987169E+04</pdfrwt>
<totfact> 0.44767100E+01</totfact>
</mgrwt>
</event>
<event>
 8    2  0.7266322E-052  0.1585830E+04  0.7818608E-02  0.8829301E-01
         -2   -1    0    0    0  501 -0.00000000000E+00  0.00000000000E+00  0.53075381747E+03  0.53075381747E+03  0.25500000000E-02 0.  1.
          2   -1    0    0  501    0  0.00000000000E+00 -0.00000000000E+00 -0.11845685313E+04  0.11845685313E+04  0.25500000000E-02 0. -1.
    -200001    2    1    2    0    0 -0.28659152918E+03 -0.24136864291E+03  0.35274937479E+02  0.71982896661E+03  0.61360890930E+03 0.  0.
   -5000001    2    3    3    0    0 -0.35791217276E+03  0.50641252083E+02 -0.81531699833E+02  0.38189228097E+03  0.92350616482E+02 0.  0.
     200001    1    1    2    0    0  0.28659152918E+03  0.24136864291E+03 -0.68908965128E+03  0.99549338214E+03  0.61300000000E+03 0. -1.
         11    1    4    4    0    0 -0.46824128094E+02  0.16724945900E+02  0.16837468366E+02  0.52494981935E+02  0.51100000000E-03 0.  1.
    -200002    1    4    4    0    0 -0.31108804467E+03  0.33916306183E+02 -0.98369168199E+02  0.32939729904E+03  0.30000000000E+02 0.  1.
    -200000    1    3    3    0    0  0.71320643585E+02 -0.29200989500E+03  0.11680663731E+03  0.33793668563E+03  0.10100000000E+03 0. -1.
<mgrwt>
<rscale>  0 0.15858301E+04</rscale>
<asrwt>0</asrwt>
<pdfrwt beam="1">  1        2 0.16922408E+00 0.15858301E+04</pdfrwt>
<pdfrwt beam="2">  1       -2 0.75821974E-01 0.15858301E+04</pdfrwt>
<totfact> 0.32706887E+01</totfact>
</mgrwt>
</event>
<event>
 8    2  0.7266322E-052  0.2083033E+04  0.7818608E-02  0.8568755E-01
         -2   -1    0    0    0  501 -0.00000000000E+00  0.00000000000E+00  0.73796740624E+03  0.73796740624E+03  0.25500000000E-02 0. -1.
          2   -1    0    0  501    0  0.00000000000E+00 -0.00000000000E+00 -0.14699245055E+04  0.14699245055E+04  0.25500000000E-02 0.  1.
    -200001    2    1    2    0    0  0.80107468114E+03 -0.25595078136E+03 -0.40837735635E+03  0.11180734419E+04  0.61325745739E+03 0.  0.
   -5000001    2    3    3    0    0  0.50455063333E+03 -0.44209940479E+03 -0.24867987170E+03  0.72022660260E+03  0.82833901166E+02 0.  0.
     200001    1    1    2    0    0 -0.80107468114E+03  0.25595078136E+03 -0.32357974293E+03  0.10898184699E+04  0.61300000000E+03 0.  1.
         11    1    4    4    0    0  0.33357583904E+03 -0.28813343320E+03 -0.19540851291E+03  0.48215993470E+03  0.51100000000E-03 0.  1.
    -200002    1    4    4    0    0  0.17097479430E+03 -0.15396597159E+03 -0.53271358791E+02  0.23806666789E+03  0.30000000000E+02 0. -1.
    -200000    1    3    3    0    0  0.29652404781E+03  0.18614862343E+03 -0.15969748465E+03  0.39784683930E+03  0.10100000000E+03 0.  1.
<mgrwt>
<rscale>  0 0.20830328E+04</rscale>
<asrwt>0</asrwt>
<pdfrwt beam="1">  1        2 0.20998921E+00 0.20830328E+04</pdfrwt>
<pdfrwt beam="2">  1       -2 0.10542392E+00 0.20830328E+04</pdfrwt>
<totfact> 0.10237398E+01</totfact>
</mgrwt>
</event>
<event>
 8    2  0.7266322E-052  0.1326806E+04  0.7818608E-02  0.9008574E-01
         -2   -1    0    0    0  501 -0.00000000000E+00  0.00000000000E+00  0.40912374491E+03  0.40912374492E+03  0.25500000000E-02 0. -1.
          2   -1    0    0  501    0  0.00000000000E+00 -0.00000000000E+00 -0.10757216762E+04  0.10757216762E+04  0.25500000000E-02 0.  1.
    -200001    2    1    2    0    0 -0.17168960294E+03  0.16921165240E+03 -0.35983659022E+03  0.75822211884E+03  0.62234114983E+03 0.  0.
   -5000001    2    3    3    0    0 -0.22657422675E+03  0.18809798531E+03 -0.48781124561E+03  0.58516857821E+03  0.13321306721E+03 0.  0.
     200001    1    1    2    0    0  0.17168960294E+03 -0.16921165240E+03 -0.30676134109E+03  0.72662330230E+03  0.61300000000E+03 0. -1.
         11    1    4    4    0    0  0.77642490124E+01  0.11014348442E+02  0.16249575367E+01  0.13573500712E+02  0.51100000000E-03 0.  1.
    -200002    1    4    4    0    0 -0.23433847576E+03  0.17708363687E+03 -0.48943620315E+03  0.57159507750E+03  0.30000000000E+02 0.  1.
    -200000    1    3    3    0    0  0.54884623814E+02 -0.18886332908E+02  0.12797465539E+03  0.17305354063E+03  0.10100000000E+03 0. -1.
<mgrwt>
<rscale>  0 0.13268056E+04</rscale>
<asrwt>0</asrwt>
<pdfrwt beam="1">  1        2 0.15367452E+00 0.13268056E+04</pdfrwt>
<pdfrwt beam="2">  1       -2 0.58446250E-01 0.13268056E+04</pdfrwt>
<totfact> 0.67711129E+01</totfact>
</mgrwt>
</event>
<event>
 8    2  0.7266322E-052  0.1424181E+04  0.7818608E-02  0.8936498E-01
          2   -1    0    0  501    0  0.00000000000E+00  0.00000000000E+00  0.16928138400E+04  0.16928138400E+04  0.25500000000E-02 0. -1.
         -2   -1    0    0    0  501 -0.00000000000E+00 -0.00000000000E+00 -0.29954453240E+03  0.29954453241E+03  0.25500000000E-02 0.  1.
    -200001    2    1    2    0    0 -0.38905876776E+01 -0.48307211581E+02  0.11980675624E+04  0.13472061077E+04  0.61420655237E+03 0.  0.
   -5000001    2    3    3    0    0 -0.18420185516E+01  0.97102265377E+02 -0.11024681463E+02  0.12521872356E+03  0.78268398194E+02 0.  0.
     200001    1    1    2    0    0  0.38905876776E+01  0.48307211581E+02  0.19520174513E+03  0.64515226471E+03  0.61300000000E+03 0.  1.
         11    1    4    4    0    0  0.27895651475E+02  0.50449455979E+02  0.10713426992E+02  0.58635249620E+02  0.51100000000E-03 0.  1.
    -200002    1    4    4    0    0 -0.29737670026E+02  0.46652809398E+02 -0.21738108454E+02  0.66583473944E+02  0.30000000000E+02 0.  1.
    -200000    1    3    3    0    0 -0.20485691260E+01 -0.14540947696E+03  0.12090922439E+04  0.12219873841E+04  0.10100000000E+03 0. -1.
<mgrwt>
<rscale>  0 0.14241814E+04</rscale>
<asrwt>0</asrwt>
<pdfrwt beam="1">  1        2 0.24183054E+00 0.14241814E+04</pdfrwt>
<pdfrwt beam="2">  1       -2 0.42792077E-01 0.14241814E+04</pdfrwt>
<totfact> 0.58244091E+01</totfact>
</mgrwt>
</event>
<event>
 8    2  0.7266322E-052  0.1824616E+04  0.7818608E-02  0.8693317E-01
         -2   -1    0    0    0  501 -0.00000000000E+00  0.00000000000E+00  0.49480074021E+03  0.49480074022E+03  0.25500000000E-02 0. -1.
          2   -1    0    0  501    0  0.00000000000E+00 -0.00000000000E+00 -0.16821033910E+04  0.16821033910E+04  0.25500000000E-02 0.  1.
    -200001    2    1    2    0    0 -0.42014269261E+02 -0.65752135387E+03 -0.77400781127E+03  0.11866106626E+04  0.61225586402E+03 0.  0.
   -5000001    2    3    3    0    0 -0.58984463974E+02 -0.56555752307E+03 -0.85354895043E+03  0.10276354239E+04  0.64453664308E+02 0.  0.
     200001    1    1    2    0    0  0.42014269261E+02  0.65752135387E+03 -0.41329483950E+03  0.99029346861E+03  0.61300000000E+03 0. -1.
         11    1    4    4    0    0 -0.39675318808E+02 -0.21950260945E+03 -0.29988594788E+03  0.37374738556E+03  0.51100000000E-03 0.  1.
    -200002    1    4    4    0    0 -0.19309145166E+02 -0.34605491361E+03 -0.55366300255E+03  0.65388803836E+03  0.30000000000E+02 0.  1.
    -200000    1    3    3    0    0  0.16970194713E+02 -0.91963830809E+02  0.79541139164E+02  0.15897523865E+03  0.10100000000E+03 0. -1.
<mgrwt>
<rscale>  0 0.18246161E+04</rscale>
<asrwt>0</asrwt>
<pdfrwt beam="1">  1        2 0.24030048E+00 0.18246161E+04</pdfrwt>
<pdfrwt beam="2">  1       -2 0.70685821E-01 0.18246161E+04</pdfrwt>
<totfact> 0.20154972E+01</totfact>
</mgrwt>
</event>
<event>
 8    2  0.7266322E-052  0.1516128E+04  0.7818608E-02  0.8873798E-01
          2   -1    0    0  501    0  0.00000000000E+00  0.00000000000E+00  0.58315941611E+03  0.58315941612E+03  0.25500000000E-02 0.  1.
         -2   -1    0    0    0  501 -0.00000000000E+00 -0.00000000000E+00 -0.98542685841E+03  0.98542685842E+03  0.25500000000E-02 0. -1.
    -200001    2    1    2    0    0 -0.47581801845E+01  0.11830373577E+03  0.24457744263E+03  0.66958921151E+03  0.61197481366E+03 0.  0.
   -5000001    2    3    3    0    0  0.79720689348E+02  0.26703597852E+03  0.34182177492E+03  0.44842090547E+03  0.81089953236E+02 0.  0.
     200001    1    1    2    0    0  0.47581801845E+01 -0.11830373577E+03 -0.64684488493E+03  0.89899706303E+03  0.61300000000E+03 0.  1.
         11    1    4    4    0    0  0.56272976490E+02  0.72705022520E+02  0.11758907899E+03  0.14926439522E+03  0.51100000000E-03 0.  1.
    -200002    1    4    4    0    0  0.23447712858E+02  0.19433095600E+03  0.22423269593E+03  0.29915651025E+03  0.30000000000E+02 0.  1.
    -200000    1    3    3    0    0 -0.84478869532E+02 -0.14873224275E+03 -0.97244332294E+02  0.22116830604E+03  0.10100000000E+03 0. -1.
<mgrwt>
<rscale>  0 0.15161279E+04</rscale>
<asrwt>0</asrwt>
<pdfrwt beam="1">  1        2 0.83308488E-01 0.15161279E+04</pdfrwt>
<pdfrwt beam="2">  1       -2 0.14077527E+00 0.15161279E+04</pdfrwt>
<totfact> 0.19204587E+01</totfact>
</mgrwt>
</event>
<event>
 8    2  0.7266322E-052  0.1901154E+04  0.7818608E-02  0.8654282E-01
          2   -1    0    0  501    0  0.00000000000E+00  0.00000000000E+00  0.16784187507E+04  0.16784187507E+04  0.25500000000E-02 0.  1.
         -2   -1    0    0    0  501 -0.00000000000E+00 -0.00000000000E+00 -0.53836163898E+03  0.53836163899E+03  0.25500000000E-02 0. -1.
    -200001    2    1    2    0    0  0.40940017476E+03 -0.20744715500E+01 -0.13080794153E+03  0.74760382096E+03  0.61170903951E+03 0.  0.
   -5000001    2    3    3    0    0  0.49043304201E+03 -0.14753407002E+03 -0.17744112838E+03  0.54735279230E+03  0.76281417726E+02 0.  0.
     200001    1    1    2    0    0 -0.40940017476E+03  0.20744715500E+01  0.12708650533E+04  0.14691765687E+04  0.61300000000E+03 0.  1.
         11    1    4    4    0    0  0.15399862232E+03 -0.42578286945E+02 -0.88467737106E+02  0.18263358592E+03  0.51100000000E-03 0.  1.
    -200002    1    4    4    0    0  0.33643441969E+03 -0.10495578308E+03 -0.88973391269E+02  0.36471920639E+03  0.30000000000E+02 0.  1.
    -200000    1    3    3    0    0 -0.81032867251E+02  0.14545959847E+03  0.46633186847E+02  0.20025102866E+03  0.10100000000E+03 0.  1.
<mgrwt>
<rscale>  0 0.19011536E+04</rscale>
<asrwt>0</asrwt>
<pdfrwt beam="1">  1        2 0.23977411E+00 0.19011536E+04</pdfrwt>
<pdfrwt beam="2">  1       -2 0.76908804E-01 0.19011536E+04</pdfrwt>
<totfact> 0.16703214E+01</totfact>
</mgrwt>
</event>
<event>
 8    2  0.7266322E-052  0.1274997E+04  0.7818608E-02  0.9049631E-01
         -2   -1    0    0    0  501 -0.00000000000E+00  0.00000000000E+00  0.24359762688E+03  0.24359762690E+03  0.25500000000E-02 0. -1.
          2   -1    0    0  501    0  0.00000000000E+00 -0.00000000000E+00 -0.16683432909E+04  0.16683432909E+04  0.25500000000E-02 0.  1.
    -200001    2    1    2    0    0 -0.61912196583E+02  0.14221607303E+03 -0.83557799707E+03  0.10476804991E+04  0.61268695719E+03 0.  0.
   -5000001    2    3    3    0    0  0.50957235699E+02  0.35493318008E+03 -0.47750141385E+03  0.60450117217E+03  0.94020554810E+02 0.  0.
     200001    1    1    2    0    0  0.61912196583E+02 -0.14221607303E+03 -0.58916766691E+03  0.86426041865E+03  0.61300000000E+03 0. -1.
         11    1    4    4    0    0  0.72941585677E+01  0.16730800179E+03 -0.15813833803E+03  0.23033216486E+03  0.51100000000E-03 0.  1.
    -200002    1    4    4    0    0  0.43663077132E+02  0.18762517829E+03 -0.31936307582E+03  0.37416900731E+03  0.30000000000E+02 0.  1.
    -200000    1    3    3    0    0 -0.11286943228E+03 -0.21271710705E+03 -0.35807658321E+03  0.44317932694E+03  0.10100000000E+03 0. -1.
<mgrwt>
<rscale>  0 0.12749972E+04</rscale>
<asrwt>0</asrwt>
<pdfrwt beam="1">  1        2 0.23833475E+00 0.12749972E+04</pdfrwt>
<pdfrwt beam="2">  1       -2 0.34799662E-01 0.12749972E+04</pdfrwt>
<totfact> 0.90592302E+01</totfact>
</mgrwt>
</event>
<event>
 8    2  0.7266322E-052  0.1238188E+04  0.7818608E-02  0.9080072E-01
          2   -1    0    0  501    0  0.00000000000E+00  0.00000000000E+00  0.10462343520E+04  0.10462343520E+04  0.25500000000E-02 0.  1.
         -2   -1    0    0    0  501 -0.00000000000E+00 -0.00000000000E+00 -0.36633977146E+03  0.36633977147E+03  0.25500000000E-02 0. -1.
    -200001    2    1    2    0    0  0.22751479753E+01 -0.17607337795E+02  0.43878152204E+03  0.75362063374E+03  0.61245378672E+03 0.  0.
   -5000001    2    3    3    0    0 -0.10104792273E+03 -0.27593155620E+03  0.14978965469E+03  0.33994883370E+03  0.82336884106E+02 0.  0.
     200001    1    1    2    0    0 -0.22751479753E+01  0.17607337795E+02  0.24111305849E+03  0.65895348972E+03  0.61300000000E+03 0. -1.
         11    1    4    4    0    0 -0.77680229490E+02 -0.20282020415E+03  0.78357834438E+02  0.23089002465E+03  0.51100000000E-03 0.  1.
    -200002    1    4    4    0    0 -0.23367693244E+02 -0.73111352048E+02  0.71431820252E+02  0.10905880905E+03  0.30000000000E+02 0.  1.
    -200000    1    3    3    0    0  0.10332307071E+03  0.25832421840E+03  0.28899186735E+03  0.41367180004E+03  0.10100000000E+03 0.  1.
<mgrwt>
<rscale>  0 0.12381878E+04</rscale>
<asrwt>0</asrwt>
<pdfrwt beam="1">  1        2 0.14946205E+00 0.12381878E+04</pdfrwt>
<pdfrwt beam="2">  1       -2 0.52334252E-01 0.12381878E+04</pdfrwt>
<totfact> 0.89274997E+01</totfact>
</mgrwt>
</event>
<event>
 8    2  0.7266322E-052  0.1345069E+04  0.7818608E-02  0.8994570E-01
          2   -1    0    0  501    0  0.00000000000E+00  0.00000000000E+00  0.30241690636E+04  0.30241690636E+04  0.25500000000E-02 0.  1.
         -2   -1    0    0    0  501 -0.00000000000E+00 -0.00000000000E+00 -0.14956253319E+03  0.14956253321E+03  0.25500000000E-02 0. -1.
    -200001    2    1    2    0    0  0.22149858008E+03 -0.13800755156E+03  0.16775589902E+04  0.18037682693E+04  0.60931773190E+03 0.  0.
   -5000001    2    3    3    0    0 -0.12430535393E+03 -0.14785685653E+03  0.41797366717E+03  0.49364096418E+03  0.17794927375E+03 0.  0.
     200001    1    1    2    0    0 -0.22149858008E+03  0.13800755156E+03  0.11970475402E+04  0.13699633275E+04  0.61300000000E+03 0. -1.
         11    1    4    4    0    0  0.16149980944E+02 -0.10120605815E+03  0.10827414215E+03  0.14908647809E+03  0.51100000000E-03 0.  1.
    -200002    1    4    4    0    0 -0.14045533487E+03 -0.46650798378E+02  0.30969952503E+03  0.34455448609E+03  0.30000000000E+02 0.  1.
    -200000    1    3    3    0    0  0.34580393401E+03  0.98493049730E+01  0.12595853231E+04  0.13101273051E+04  0.10100000000E+03 0.  1.
<mgrwt>
<rscale>  0 0.13450686E+04</rscale>
<asrwt>0</asrwt>
<pdfrwt beam="1">  1        2 0.43202418E+00 0.13450686E+04</pdfrwt>
<pdfrwt beam="2">  1       -2 0.21366075E-01 0.13450686E+04</pdfrwt>
<totfact> 0.42854594E+01</totfact>
</mgrwt>
</event>
<event>
 8    2  0.7266322E-052  0.1942271E+04  0.7818608E-02  0.8634097E-01
          2   -1    0    0  501    0  0.00000000000E+00  0.00000000000E+00  0.21141593700E+04  0.21141593700E+04  0.25500000000E-02 0.  1.
         -2   -1    0    0    0  501 -0.00000000000E+00 -0.00000000000E+00 -0.44608963930E+03  0.44608963931E+03  0.25500000000E-02 0. -1.
    -200001    2    1    2    0    0 -0.55925156696E+03  0.47401770524E+03  0.60488901288E+03  0.11307115531E+04  0.61250534556E+03 0.  0.
   -5000001    2    3    3    0    0 -0.29438216760E+03  0.55872789713E+03  0.29331714592E+03  0.70104930944E+03  0.81224765582E+02 0.  0.
     200001    1    1    2    0    0  0.55925156696E+03 -0.47401770524E+03  0.10631807178E+04  0.14295374562E+04  0.61300000000E+03 0. -1.
         11    1    4    4    0    0 -0.18674597614E+03  0.30510133854E+03  0.13851799429E+03  0.38359890658E+03  0.51100000000E-03 0.  1.
    -200002    1    4    4    0    0 -0.10763619146E+03  0.25362655859E+03  0.15479915163E+03  0.31745040287E+03  0.30000000000E+02 0.  1.
    -200000    1    3    3    0    0 -0.26486939936E+03 -0.84710191893E+02  0.31157186696E+03  0.42966224364E+03  0.10100000000E+03 0.  1.
<mgrwt>
<rscale>  0 0.19422714E+04</rscale>
<asrwt>0</asrwt>
<pdfrwt beam="1">  1        2 0.30202276E+00 0.19422714E+04</pdfrwt>
<pdfrwt beam="2">  1       -2 0.63727093E-01 0.19422714E+04</pdfrwt>
<totfact> 0.14944948E+01</totfact>
</mgrwt>
</event>
<event>
 8    2  0.7266322E-052  0.1694238E+04  0.7818608E-02  0.8764657E-01
          2   -1    0    0  501    0  0.00000000000E+00  0.00000000000E+00  0.94823315007E+03  0.94823315007E+03  0.25500000000E-02 0.  1.
         -2   -1    0    0    0  501 -0.00000000000E+00 -0.00000000000E+00 -0.75678723459E+03  0.75678723459E+03  0.25500000000E-02 0. -1.
    -200001    2    1    2    0    0  0.55389823363E+03  0.15810417410E+03  0.19892606641E+03  0.86381581042E+03  0.61221400780E+03 0.  0.
   -5000001    2    3    3    0    0  0.24308887555E+03 -0.22013464355E+03  0.90094338862E+02  0.35223746337E+03  0.91666667890E+02 0.  0.
     200001    1    1    2    0    0 -0.55389823363E+03 -0.15810417410E+03 -0.74801509296E+01  0.84120457425E+03  0.61300000000E+03 0.  1.
         11    1    4    4    0    0  0.12987799373E+03 -0.14750219955E+03  0.19785310925E+02  0.19752632902E+03  0.51100000000E-03 0.  1.
    -200002    1    4    4    0    0  0.11321088182E+03 -0.72632444002E+02  0.70309027937E+02  0.15471113436E+03  0.30000000000E+02 0.  1.
    -200000    1    3    3    0    0  0.31080935808E+03  0.37823881765E+03  0.10883172755E+03  0.51157834705E+03  0.10100000000E+03 0. -1.
<mgrwt>
<rscale>  0 0.16942382E+04</rscale>
<asrwt>0</asrwt>
<pdfrwt beam="1">  1        2 0.13546188E+00 0.16942382E+04</pdfrwt>
<pdfrwt beam="2">  1       -2 0.10811246E+00 0.16942382E+04</pdfrwt>
<totfact> 0.19797512E+01</totfact>
</mgrwt>
</event>
<event>
 8    2  0.7266322E-052  0.1885766E+04  0.7818608E-02  0.8661974E-01
         -2   -1    0    0    0  501 -0.00000000000E+00  0.00000000000E+00  0.15705064327E+04  0.15705064327E+04  0.25500000000E-02 0. -1.
          2   -1    0    0  501    0  0.00000000000E+00 -0.00000000000E+00 -0.56607735062E+03  0.56607735062E+03  0.25500000000E-02 0.  1.
    -200001    2    1    2    0    0 -0.10870062257E+03 -0.25745000139E+03 -0.24560641208E+03  0.71656474640E+03  0.61241015469E+03 0.  0.
   -5000001    2    3    3    0    0 -0.23586657988E+02 -0.41220807801E+03 -0.28613791391E+03  0.50910811988E+03  0.82730538117E+02 0.  0.
     200001    1    1    2    0    0  0.10870062257E+03  0.25745000139E+03  0.12500354942E+04  0.14200190370E+04  0.61300000000E+03 0. -1.
         11    1    4    4    0    0 -0.29278772418E+02 -0.19003470297E+03 -0.16953254306E+03  0.25634296948E+03  0.51100000000E-03 0.  1.
    -200002    1    4    4    0    0  0.56921144305E+01 -0.22217337504E+03 -0.11660537086E+03  0.25276515040E+03  0.30000000000E+02 0. -1.
    -200000    1    3    3    0    0 -0.85113964584E+02  0.15475807662E+03  0.40531501831E+02  0.20745662652E+03  0.10100000000E+03 0.  1.
<mgrwt>
<rscale>  0 0.18857658E+04</rscale>
<asrwt>0</asrwt>
<pdfrwt beam="1">  1        2 0.80868192E-01 0.18857658E+04</pdfrwt>
<pdfrwt beam="2">  1       -2 0.22435806E+00 0.18857658E+04</pdfrwt>
<totfact> 0.50685925E+00</totfact>
</mgrwt>
</event>
<event>
 8    2  0.7266322E-052  0.1784707E+04  0.7818608E-02  0.8714475E-01
         -2   -1    0    0    0  501 -0.00000000000E+00  0.00000000000E+00  0.33323721533E+03  0.33323721534E+03  0.25500000000E-02 0. -1.
          2   -1    0    0  501    0  0.00000000000E+00 -0.00000000000E+00 -0.23895727401E+04  0.23895727401E+04  0.25500000000E-02 0.  1.
    -200001    2    1    2    0    0  0.53782526292E+03  0.92268393293E+02 -0.49457232406E+03  0.95854161844E+03  0.61353955106E+03 0.  0.
   -5000001    2    3    3    0    0  0.80433719542E+02 -0.14607882349E+03 -0.38090977944E+03  0.42082738788E+03  0.64767464058E+02 0.  0.
     200001    1    1    2    0    0 -0.53782526292E+03 -0.92268393293E+02 -0.15617632007E+04  0.17642683370E+04  0.61300000000E+03 0.  1.
         11    1    4    4    0    0 -0.80412615360E+01 -0.12749882431E+02 -0.21426749674E+02  0.26197843250E+02  0.51100000000E-03 0.  1.
    -200002    1    4    4    0    0  0.88474981078E+02 -0.13332894106E+03 -0.35948302977E+03  0.39462954463E+03  0.30000000000E+02 0.  1.
    -200000    1    3    3    0    0  0.45739154338E+03  0.23834721678E+03 -0.11366254462E+03  0.53771423056E+03  0.10100000000E+03 0. -1.
<mgrwt>
<rscale>  0 0.17847068E+04</rscale>
<asrwt>0</asrwt>
<pdfrwt beam="1">  1        2 0.34136752E+00 0.17847068E+04</pdfrwt>
<pdfrwt beam="2">  1       -2 0.47605318E-01 0.17847068E+04</pdfrwt>
<totfact> 0.19975140E+01</totfact>
</mgrwt>
</event>
<event>
 8    2  0.7266322E-052  0.1785089E+04  0.7818608E-02  0.8714269E-01
          2   -1    0    0  501    0  0.00000000000E+00  0.00000000000E+00  0.33469538142E+04  0.33469538142E+04  0.25500000000E-02 0. -1.
         -2   -1    0    0    0  501 -0.00000000000E+00 -0.00000000000E+00 -0.23801823181E+03  0.23801823182E+03  0.25500000000E-02 0.  1.
    -200001    2    1    2    0    0  0.40660308173E+03 -0.47781762209E+03  0.18636650802E+04  0.20617834925E+04  0.61973211361E+03 0.  0.
   -5000001    2    3    3    0    0  0.14882809482E+03 -0.55728550900E+03  0.10978110899E+04  0.12435558815E+04  0.92331473116E+02 0.  0.
     200001    1    1    2    0    0 -0.40660308173E+03  0.47781762209E+03  0.12452705022E+04  0.15231885536E+04  0.61300000000E+03 0.  1.
         11    1    4    4    0    0  0.44033445218E+02 -0.15810066884E+03  0.39874783560E+03  0.43120134761E+03  0.51100000000E-03 0.  1.
    -200002    1    4    4    0    0  0.10479464961E+03 -0.39918484016E+03  0.69906325429E+03  0.81235453387E+03  0.30000000000E+02 0.  1.
    -200000    1    3    3    0    0  0.25777498691E+03  0.79467886910E+02  0.76585399028E+03  0.81822761097E+03  0.10100000000E+03 0.  1.
<mgrwt>
<rscale>  0 0.17850894E+04</rscale>
<asrwt>0</asrwt>
<pdfrwt beam="1">  1        2 0.47813628E+00 0.17850894E+04</pdfrwt>
<pdfrwt beam="2">  1       -2 0.34002603E-01 0.17850894E+04</pdfrwt>
<totfact> 0.11460807E+01</totfact>
</mgrwt>
</event>
<event>
 8    2  0.7266322E-052  0.1756443E+04  0.7818608E-02  0.8729812E-01
         -2   -1    0    0    0  501 -0.00000000000E+00  0.00000000000E+00  0.57020802015E+03  0.57020802016E+03  0.25500000000E-02 0. -1.
          2   -1    0    0  501    0  0.00000000000E+00 -0.00000000000E+00 -0.13526168842E+04  0.13526168842E+04  0.25500000000E-02 0.  1.
    -200001    2    1    2    0    0  0.25571126154E+03 -0.23879108180E+03  0.18038351709E+03  0.72902944482E+03  0.61362552763E+03 0.  0.
   -5000001    2    3    3    0    0  0.16509332449E+03 -0.17825160713E+02 -0.19224978563E+03  0.27505353456E+03  0.10545579480E+03 0.  0.
     200001    1    1    2    0    0 -0.25571126154E+03  0.23879108180E+03 -0.96279238116E+03  0.11937954595E+04  0.61300000000E+03 0.  1.
         11    1    4    4    0    0  0.10085973295E+03 -0.73887181998E+01 -0.17376275677E+03  0.20104918435E+03  0.51100000000E-03 0.  1.
    -200002    1    4    4    0    0  0.64233591541E+02 -0.10436442513E+02 -0.18487028855E+02  0.74004350213E+02  0.30000000000E+02 0.  1.
    -200000    1    3    3    0    0  0.90617937058E+02 -0.22096592109E+03  0.37263330272E+03  0.45397591026E+03  0.10100000000E+03 0. -1.
<mgrwt>
<rscale>  0 0.17564430E+04</rscale>
<asrwt>0</asrwt>
<pdfrwt beam="1">  1        2 0.19323098E+00 0.17564430E+04</pdfrwt>
<pdfrwt beam="2">  1       -2 0.81458289E-01 0.17564430E+04</pdfrwt>
<totfact> 0.22142399E+01</totfact>
</mgrwt>
</event>
<event>
 8    2  0.7266322E-052  0.1526899E+04  0.7818608E-02  0.8866760E-01
          2   -1    0    0  501    0  0.00000000000E+00  0.00000000000E+00  0.13908551123E+04  0.13908551123E+04  0.25500000000E-02 0. -1.
         -2   -1    0    0    0  501 -0.00000000000E+00 -0.00000000000E+00 -0.41906252623E+03  0.41906252623E+03  0.25500000000E-02 0.  1.
    -200001    2    1    2    0    0  0.27336103582E+03  0.35582440989E+03  0.39346517577E+03  0.85515648511E+03  0.61248714510E+03 0.  0.
   -5000001    2    3    3    0    0 -0.16400266192E+03  0.54470184191E+02  0.14934690318E+03  0.26194817055E+03  0.12825159836E+03 0.  0.
     200001    1    1    2    0    0 -0.27336103582E+03 -0.35582440989E+03  0.57832741031E+03  0.95476115343E+03  0.61300000000E+03 0.  1.
         11    1    4    4    0    0 -0.15130636852E+03  0.16958524356E+01  0.12105850945E+03  0.19378249607E+03  0.51100000000E-03 0.  1.
    -200002    1    4    4    0    0 -0.12696293404E+02  0.52774331755E+02  0.28288393726E+02  0.68165674485E+02  0.30000000000E+02 0.  1.
    -200000    1    3    3    0    0  0.43736369775E+03  0.30135422570E+03  0.24411827259E+03  0.59320831456E+03  0.10100000000E+03 0. -1.
<mgrwt>
<rscale>  0 0.15268992E+04</rscale>
<asrwt>0</asrwt>
<pdfrwt beam="1">  1        2 0.19869359E+00 0.15268992E+04</pdfrwt>
<pdfrwt beam="2">  1       -2 0.59866074E-01 0.15268992E+04</pdfrwt>
<totfact> 0.42062165E+01</totfact>
</mgrwt>
</event>
<event>
 8    2  0.7266322E-052  0.2288902E+04  0.7818608E-02  0.8482310E-01
         -2   -1    0    0    0  501 -0.00000000000E+00  0.00000000000E+00  0.15463966160E+04  0.15463966160E+04  0.25500000000E-02 0. -1.
          2   -1    0    0  501    0  0.00000000000E+00 -0.00000000000E+00 -0.84698088693E+03  0.84698088693E+03  0.25500000000E-02 0.  1.
    -200001    2    1    2    0    0 -0.55316556884E+03 -0.52708363203E+03 -0.26920637796E+03  0.10157683102E+04  0.61278371741E+03 0.  0.
   -5000001    2    3    3    0    0 -0.35399989660E+03 -0.19968365849E+03 -0.42223021656E+03  0.59094481407E+03  0.75815085803E+02 0.  0.
     200001    1    1    2    0    0  0.55316556884E+03  0.52708363203E+03  0.96862210701E+03  0.13776091927E+04  0.61300000000E+03 0. -1.
         11    1    4    4    0    0 -0.76687269122E+02 -0.44287544231E+02 -0.13507717934E+03  0.16151832156E+03  0.51100000000E-03 0.  1.
    -200002    1    4    4    0    0 -0.27731262748E+03 -0.15539611426E+03 -0.28715303722E+03  0.42942649251E+03  0.30000000000E+02 0.  1.
    -200000    1    3    3    0    0 -0.19916567224E+03 -0.32739997354E+03  0.15302383860E+03  0.42482349611E+03  0.10100000000E+03 0.  1.
<mgrwt>
<rscale>  0 0.22889022E+04</rscale>
<asrwt>0</asrwt>
<pdfrwt beam="1">  1        2 0.12099727E+00 0.22889022E+04</pdfrwt>
<pdfrwt beam="2">  1       -2 0.22091380E+00 0.22889022E+04</pdfrwt>
<totfact> 0.31349316E+00</totfact>
</mgrwt>
</event>
<event>
 8    2  0.7266322E-052  0.1441334E+04  0.7818608E-02  0.8924430E-01
         -2   -1    0    0    0  501 -0.00000000000E+00  0.00000000000E+00  0.52614996165E+03  0.52614996166E+03  0.25500000000E-02 0. -1.
          2   -1    0    0  501    0  0.00000000000E+00 -0.00000000000E+00 -0.98709732419E+03  0.98709732420E+03  0.25500000000E-02 0.  1.
    -200001    2    1    2    0    0 -0.15730689491E+03 -0.33864936742E+03 -0.15981514943E+03  0.73486533397E+03  0.61241923864E+03 0.  0.
   -5000001    2    3    3    0    0 -0.84740570235E+01  0.16398782306E+03 -0.30828098495E+02  0.18565315440E+03  0.80950023640E+02 0.  0.
     200001    1    1    2    0    0  0.15730689491E+03  0.33864936742E+03 -0.30113221311E+03  0.77838195188E+03  0.61300000000E+03 0. -1.
         11    1    4    4    0    0 -0.13138111552E+02  0.23544879992E+02  0.19643794360E+02  0.33359406561E+02  0.51100000000E-03 0.  1.
    -200002    1    4    4    0    0  0.46640545280E+01  0.14044294307E+03 -0.50471892856E+02  0.15229374784E+03  0.30000000000E+02 0.  1.
    -200000    1    3    3    0    0 -0.14883283789E+03 -0.50263719048E+03 -0.12898705093E+03  0.54921217957E+03  0.10100000000E+03 0. -1.
<mgrwt>
<rscale>  0 0.14413344E+04</rscale>
<asrwt>0</asrwt>
<pdfrwt beam="1">  1        2 0.14101390E+00 0.14413344E+04</pdfrwt>
<pdfrwt beam="2">  1       -2 0.75164281E-01 0.14413344E+04</pdfrwt>
<totfact> 0.44195268E+01</totfact>
</mgrwt>
</event>
<event>
 8    2  0.7266322E-052  0.4485768E+04  0.7818608E-02  0.7913133E-01
          2   -1    0    0  501    0  0.00000000000E+00  0.00000000000E+00  0.22795138489E+04  0.22795138489E+04  0.25500000000E-02 0.  1.
         -2   -1    0    0    0  501 -0.00000000000E+00 -0.00000000000E+00 -0.22068428764E+04  0.22068428764E+04  0.25500000000E-02 0. -1.
    -200001    2    1    2    0    0  0.30967804702E+03  0.82467939164E+03  0.20063520949E+04  0.22748214498E+04  0.61103789381E+03 0.  0.
   -5000001    2    3    3    0    0  0.20126724281E+03 -0.19532037437E+02  0.39673150814E+03  0.45121917052E+03  0.72889277514E+02 0.  0.
     200001    1    1    2    0    0 -0.30967804702E+03 -0.82467939164E+03 -0.19336811225E+04  0.22115352756E+04  0.61300000000E+03 0. -1.
         11    1    4    4    0    0  0.12770635257E+02 -0.16954280086E+02  0.66288837031E+02  0.69604214335E+02  0.51100000000E-03 0.  1.
    -200002    1    4    4    0    0  0.18849660755E+03 -0.25777573512E+01  0.33044267111E+03  0.38161495619E+03  0.30000000000E+02 0.  1.
    -200000    1    3    3    0    0  0.10841080421E+03  0.84421142907E+03  0.16096205868E+04  0.18236022792E+04  0.10100000000E+03 0.  1.
<mgrwt>
<rscale>  0 0.44857681E+04</rscale>
<asrwt>0</asrwt>
<pdfrwt beam="1">  1        2 0.32564484E+00 0.44857681E+04</pdfrwt>
<pdfrwt beam="2">  1       -2 0.31526326E+00 0.44857681E+04</pdfrwt>
<totfact> 0.11316655E-01</totfact>
</mgrwt>
</event>
<event>
 8    2  0.7266322E-052  0.1662341E+04  0.7818608E-02  0.8783139E-01
          2   -1    0    0  501    0  0.00000000000E+00  0.00000000000E+00  0.27847630615E+04  0.27847630615E+04  0.25500000000E-02 0.  1.
         -2   -1    0    0    0  501 -0.00000000000E+00 -0.00000000000E+00 -0.24808027474E+03  0.24808027475E+03  0.25500000000E-02 0. -1.
    -200001    2    1    2    0    0 -0.17662545026E+03  0.57518492878E+02  0.22347498500E+04  0.23247208715E+04  0.61295620704E+03 0.  0.
   -5000001    2    3    3    0    0 -0.18803870969E+03  0.25314781471E+03  0.69191682083E+03  0.76621650838E+03  0.94321144720E+02 0.  0.
     200001    1    1    2    0    0  0.17662545026E+03 -0.57518492878E+02  0.30193293672E+03  0.70812246467E+03  0.61300000000E+03 0. -1.
         11    1    4    4    0    0 -0.14954791510E+03  0.22877567659E+03  0.60024273233E+03  0.65954092126E+03  0.51100000000E-03 0.  1.
    -200002    1    4    4    0    0 -0.38490794593E+02  0.24372138112E+02  0.91674088504E+02  0.10667558712E+03  0.30000000000E+02 0. -1.
    -200000    1    3    3    0    0  0.11413259427E+02 -0.19562932183E+03  0.15428330292E+04  0.15585043631E+04  0.10100000000E+03 0.  1.
<mgrwt>
<rscale>  0 0.16623415E+04</rscale>
<asrwt>0</asrwt>
<pdfrwt beam="1">  1        2 0.39782327E+00 0.16623415E+04</pdfrwt>
<pdfrwt beam="2">  1       -2 0.35440041E-01 0.16623415E+04</pdfrwt>
<totfact> 0.22232822E+01</totfact>
</mgrwt>
</event>
<event>
 8    2  0.7266322E-052  0.1867784E+04  0.7818608E-02  0.8671060E-01
          2   -1    0    0  501    0  0.00000000000E+00  0.00000000000E+00  0.12717454973E+04  0.12717454973E+04  0.25500000000E-02 0.  1.
         -2   -1    0    0    0  501 -0.00000000000E+00 -0.00000000000E+00 -0.68579326148E+03  0.68579326149E+03  0.25500000000E-02 0. -1.
    -200001    2    1    2    0    0  0.38503813349E+03  0.51287074320E+03 -0.14785091969E+02  0.88611675955E+03  0.61130479234E+03 0.  0.
   -5000001    2    3    3    0    0 -0.12571616204E+02  0.39612403057E+03  0.14597686502E+03  0.43030022324E+03  0.82320980722E+02 0.  0.
     200001    1    1    2    0    0 -0.38503813349E+03 -0.51287074320E+03  0.60073732778E+03  0.10714219992E+04  0.61300000000E+03 0. -1.
         11    1    4    4    0    0  0.16673395232E+02  0.28608769917E+03  0.94003948133E+02  0.30159727451E+03  0.51100000000E-03 0.  1.
    -200002    1    4    4    0    0 -0.29245011436E+02  0.11003633140E+03  0.51972916890E+02  0.12870294873E+03  0.30000000000E+02 0.  1.
    -200000    1    3    3    0    0  0.39760974969E+03  0.11674671263E+03 -0.16076195699E+03  0.45581653631E+03  0.10100000000E+03 0. -1.
<mgrwt>
<rscale>  0 0.18677842E+04</rscale>
<asrwt>0</asrwt>
<pdfrwt beam="1">  1        2 0.18167793E+00 0.18677842E+04</pdfrwt>
<pdfrwt beam="2">  1       -2 0.97970467E-01 0.18677842E+04</pdfrwt>
<totfact> 0.15904704E+01</totfact>
</mgrwt>
</event>
<event>
 8    2  0.7266322E-052  0.1652141E+04  0.7818608E-02  0.8789141E-01
         -2   -1    0    0    0  501 -0.00000000000E+00  0.00000000000E+00  0.13888583248E+03  0.13888583251E+03  0.25500000000E-02 0. -1.
          2   -1    0    0  501    0  0.00000000000E+00 -0.00000000000E+00 -0.49133312018E+04  0.49133312018E+04  0.25500000000E-02 0.  1.
    -200001    2    1    2    0    0 -0.31608479607E+03  0.45452569442E+03 -0.23783058167E+04  0.25177038738E+04  0.61318107701E+03 0.  0.
   -5000001    2    3    3    0    0 -0.32209698121E+03  0.45245834146E+03 -0.23452961273E+04  0.24112564224E+04  0.72653931302E+02 0.  0.
     200001    1    1    2    0    0  0.31608479607E+03 -0.45452569442E+03 -0.23961395526E+04  0.25345131605E+04  0.61300000000E+03 0.  1.
         11    1    4    4    0    0 -0.21552528133E+03  0.33811435291E+03 -0.16825808175E+04  0.17296966988E+04  0.51100000000E-03 0.  1.
    -200002    1    4    4    0    0 -0.10657169988E+03  0.11434398855E+03 -0.66271530980E+03  0.68155972355E+03  0.30000000000E+02 0.  1.
    -200000    1    3    3    0    0  0.60121851473E+01  0.20673529607E+01 -0.33009689414E+02  0.10644745142E+03  0.10100000000E+03 0. -1.
<mgrwt>
<rscale>  0 0.16521405E+04</rscale>
<asrwt>0</asrwt>
<pdfrwt beam="1">  1        2 0.70190435E+00 0.16521405E+04</pdfrwt>
<pdfrwt beam="2">  1       -2 0.19840836E-01 0.16521405E+04</pdfrwt>
<totfact> 0.22806138E+00</totfact>
</mgrwt>
</event>
<event>
 8    2  0.7266322E-052  0.1540030E+04  0.7818608E-02  0.8858261E-01
          2   -1    0    0  501    0  0.00000000000E+00  0.00000000000E+00  0.18385172547E+04  0.18385172547E+04  0.25500000000E-02 0.  1.
         -2   -1    0    0    0  501 -0.00000000000E+00 -0.00000000000E+00 -0.32250058500E+03  0.32250058501E+03  0.25500000000E-02 0. -1.
    -200001    2    1    2    0    0  0.36458721020E+03  0.22625904309E+03  0.50350500210E+03  0.90202385028E+03  0.61319878580E+03 0.  0.
   -5000001    2    3    3    0    0 -0.52950856964E+02  0.16030292524E+03  0.10355024432E+03  0.31138601261E+03  0.24028685910E+03 0.  0.
     200001    1    1    2    0    0 -0.36458721020E+03 -0.22625904309E+03  0.10125116676E+04  0.12589939894E+04  0.61300000000E+03 0.  1.
         11    1    4    4    0    0  0.43780751439E+02  0.12014021157E+03  0.14634035344E+03  0.19433456635E+03  0.51100000000E-03 0.  1.
    -200002    1    4    4    0    0 -0.96731608403E+02  0.40162713675E+02 -0.42790109118E+02  0.11705144626E+03  0.30000000000E+02 0.  1.
    -200000    1    3    3    0    0  0.41753806717E+03  0.65956117848E+02  0.39995475778E+03  0.59063783767E+03  0.10100000000E+03 0.  1.
<mgrwt>
<rscale>  0 0.15400297E+04</rscale>
<asrwt>0</asrwt>
<pdfrwt beam="1">  1        2 0.26264532E+00 0.15400297E+04</pdfrwt>
<pdfrwt beam="2">  1       -2 0.46071513E-01 0.15400297E+04</pdfrwt>
<totfact> 0.41890083E+01</totfact>
</mgrwt>
</event>
<event>
 8    2  0.7266322E-052  0.1283114E+04  0.7818608E-02  0.9043064E-01
         -2   -1    0    0    0  501 -0.00000000000E+00  0.00000000000E+00  0.11917810886E+04  0.11917810886E+04  0.25500000000E-02 0. -1.
          2   -1    0    0  501    0  0.00000000000E+00 -0.00000000000E+00 -0.34536137743E+03  0.34536137743E+03  0.25500000000E-02 0.  1.
    -200001    2    1    2    0    0  0.61511583050E+02  0.17328754826E+03  0.47812617867E+03  0.79875139396E+03  0.61285144806E+03 0.  0.
   -5000001    2    3    3    0    0  0.24983095947E+03  0.22451620652E+03  0.46225130509E+03  0.57842986851E+03  0.89898878909E+02 0.  0.
     200001    1    1    2    0    0 -0.61511583050E+02 -0.17328754826E+03  0.36829353250E+03  0.73839107207E+03  0.61300000000E+03 0. -1.
         11    1    4    4    0    0  0.20455963015E+03  0.20070099886E+03  0.40386541897E+03  0.49520986447E+03  0.51100000000E-03 0.  1.
    -200002    1    4    4    0    0  0.45271329320E+02  0.23815207656E+02  0.58385886124E+02  0.83220004041E+02  0.30000000000E+02 0.  1.
    -200000    1    3    3    0    0 -0.18831937642E+03 -0.51228658259E+02  0.15874873575E+02  0.22032152545E+03  0.10100000000E+03 0.  1.
<mgrwt>
<rscale>  0 0.12831136E+04</rscale>
<asrwt>0</asrwt>
<pdfrwt beam="1">  1        2 0.49337340E-01 0.12831136E+04</pdfrwt>
<pdfrwt beam="2">  1       -2 0.17025444E+00 0.12831136E+04</pdfrwt>
<totfact> 0.21234822E+01</totfact>
</mgrwt>
</event>
<event>
 8    2  0.7266322E-052  0.1700390E+04  0.7818608E-02  0.8761142E-01
          2   -1    0    0  501    0  0.00000000000E+00  0.00000000000E+00  0.24226651923E+04  0.24226651923E+04  0.25500000000E-02 0.  1.
         -2   -1    0    0    0  501 -0.00000000000E+00 -0.00000000000E+00 -0.29836225579E+03  0.29836225580E+03  0.25500000000E-02 0. -1.
    -200001    2    1    2    0    0  0.11952936043E+03  0.20769174382E+03  0.19898521947E+03  0.68631851560E+03  0.61156754232E+03 0.  0.
   -5000001    2    3    3    0    0 -0.11639066113E+03 -0.86266709283E+02 -0.40724258321E+02  0.22835403830E+03  0.17175089654E+03 0.  0.
     200001    1    1    2    0    0 -0.11952936043E+03 -0.20769174382E+03  0.19253177171E+04  0.20347089325E+04  0.61300000000E+03 0.  1.
         11    1    4    4    0    0 -0.28614779782E+02 -0.87664014662E+02  0.44488602226E+02  0.10238662421E+03  0.51100000000E-03 0.  1.
    -200002    1    4    4    0    0 -0.87775881350E+02  0.13973053787E+01 -0.85212860547E+02  0.12596741409E+03  0.30000000000E+02 0.  1.
    -200000    1    3    3    0    0  0.23592002156E+03  0.29395845310E+03  0.23970947779E+03  0.45796447730E+03  0.10100000000E+03 0. -1.
<mgrwt>
<rscale>  0 0.17003904E+04</rscale>
<asrwt>0</asrwt>
<pdfrwt beam="1">  1        2 0.34609505E+00 0.17003904E+04</pdfrwt>
<pdfrwt beam="2">  1       -2 0.42623177E-01 0.17003904E+04</pdfrwt>
<totfact> 0.24107699E+01</totfact>
</mgrwt>
</event>
<event>
 8    2  0.7266322E-052  0.1365515E+04  0.7818608E-02  0.8979166E-01
          2   -1    0    0  501    0  0.00000000000E+00  0.00000000000E+00  0.15125831054E+04  0.15125831054E+04  0.25500000000E-02 0.  1.
         -2   -1    0    0    0  501 -0.00000000000E+00 -0.00000000000E+00 -0.30818657193E+03  0.30818657194E+03  0.25500000000E-02 0. -1.
    -200001    2    1    2    0    0  0.27317640614E+03 -0.97797019695E+02  0.49623473291E+03  0.84023322126E+03  0.61282407755E+03 0.  0.
   -5000001    2    3    3    0    0 -0.50208747547E+02 -0.12501202350E+03 -0.70653048077E+02  0.17926319902E+03  0.94839427301E+02 0.  0.
     200001    1    1    2    0    0 -0.27317640614E+03  0.97797019695E+02  0.70816180055E+03  0.98053645607E+03  0.61300000000E+03 0. -1.
         11    1    4    4    0    0 -0.39250826099E+02 -0.10919090332E+03 -0.81744754826E+02  0.14193479369E+03  0.51100000000E-03 0.  1.
    -200002    1    4    4    0    0 -0.10957921448E+02 -0.15821120185E+02  0.11091706749E+02  0.37328405337E+02  0.30000000000E+02 0. -1.
    -200000    1    3    3    0    0  0.32338515369E+03  0.27215003807E+02  0.56688778099E+03  0.66097002224E+03  0.10100000000E+03 0.  1.
<mgrwt>
<rscale>  0 0.13655150E+04</rscale>
<asrwt>0</asrwt>
<pdfrwt beam="1">  1        2 0.21608330E+00 0.13655150E+04</pdfrwt>
<pdfrwt beam="2">  1       -2 0.44026653E-01 0.13655150E+04</pdfrwt>
<totfact> 0.68741761E+01</totfact>
</mgrwt>
</event>
<event>
 8    2  0.7266322E-052  0.1285465E+04  0.7818608E-02  0.9041172E-01
         -2   -1    0    0    0  501 -0.00000000000E+00  0.00000000000E+00  0.29556915096E+03  0.29556915097E+03  0.25500000000E-02 0. -1.
          2   -1    0    0  501    0  0.00000000000E+00 -0.00000000000E+00 -0.13976589571E+04  0.13976589571E+04  0.25500000000E-02 0.  1.
    -200001    2    1    2    0    0  0.48891096933E+02 -0.18750937053E+03 -0.51948467088E+03  0.82561768455E+03  0.61174352008E+03 0.  0.
   -5000001    2    3    3    0    0  0.12609538188E+03  0.16736756278E+03 -0.26689704660E+03  0.37185602095E+03  0.15208852826E+03 0.  0.
     200001    1    1    2    0    0 -0.48891096933E+02  0.18750937053E+03 -0.58260513527E+03  0.86761042354E+03  0.61300000000E+03 0.  1.
         11    1    4    4    0    0 -0.96880441897E+01  0.68340383135E+02 -0.20325144395E+02  0.71953996847E+02  0.51100000000E-03 0.  1.
    -200002    1    4    4    0    0  0.13578342607E+03  0.99027179648E+02 -0.24657190221E+03  0.29990202410E+03  0.30000000000E+02 0.  1.
    -200000    1    3    3    0    0 -0.77204284950E+02 -0.35487693331E+03 -0.25258762428E+03  0.45376166360E+03  0.10100000000E+03 0. -1.
<mgrwt>
<rscale>  0 0.12854647E+04</rscale>
<asrwt>0</asrwt>
<pdfrwt beam="1">  1        2 0.19966556E+00 0.12854647E+04</pdfrwt>
<pdfrwt beam="2">  1       -2 0.42224165E-01 0.12854647E+04</pdfrwt>
<totfact> 0.86543477E+01</totfact>
</mgrwt>
</event>
<event>
 8    2  0.7266322E-052  0.1336719E+04  0.7818608E-02  0.9000943E-01
         -2   -1    0    0    0  501 -0.00000000000E+00  0.00000000000E+00  0.22838310793E+03  0.22838310795E+03  0.25500000000E-02 0. -1.
          2   -1    0    0  501    0  0.00000000000E+00 -0.00000000000E+00 -0.19559422320E+04  0.19559422320E+04  0.25500000000E-02 0.  1.
    -200001    2    1    2    0    0  0.18055912107E+03  0.85111621528E+02 -0.11209695579E+04  0.12991329958E+04  0.62556231247E+03 0.  0.
   -5000001    2    3    3    0    0 -0.14810064588E+03 -0.75462999721E+01 -0.74293590518E+02  0.19354070501E+03  0.99738252178E+02 0.  0.
     200001    1    1    2    0    0 -0.18055912107E+03 -0.85111621528E+02 -0.60658956620E+03  0.88519234415E+03  0.61300000000E+03 0. -1.
         11    1    4    4    0    0 -0.13640881642E+03  0.16918315386E+02 -0.65003397052E+02  0.15204945321E+03  0.51100000000E-03 0.  1.
    -200002    1    4    4    0    0 -0.11691829460E+02 -0.24464615358E+02 -0.92901934655E+01  0.41491251793E+02  0.30000000000E+02 0.  1.
    -200000    1    3    3    0    0  0.32865976695E+03  0.92657921500E+02 -0.10466759673E+04  0.11055922908E+04  0.10100000000E+03 0.  1.
<mgrwt>
<rscale>  0 0.13367186E+04</rscale>
<asrwt>0</asrwt>
<pdfrwt beam="1">  1        2 0.27942031E+00 0.13367186E+04</pdfrwt>
<pdfrwt beam="2">  1       -2 0.32626159E-01 0.13367186E+04</pdfrwt>
<totfact> 0.72428814E+01</totfact>
</mgrwt>
</event>
<event>
 8    2  0.7266322E-052  0.1321135E+04  0.7818608E-02  0.9012971E-01
          2   -1    0    0  501    0  0.00000000000E+00  0.00000000000E+00  0.20036140313E+03  0.20036140315E+03  0.25500000000E-02 0.  1.
         -2   -1    0    0    0  501 -0.00000000000E+00 -0.00000000000E+00 -0.21778130451E+04  0.21778130451E+04  0.25500000000E-02 0. -1.
    -200001    2    1    2    0    0  0.10585261182E+03  0.19493621490E+03 -0.79444503793E+03  0.10274418587E+04  0.61260831809E+03 0.  0.
   -5000001    2    3    3    0    0 -0.16670240189E+03  0.24968180326E+03 -0.59429474757E+03  0.67030819509E+03  0.77434719262E+02 0.  0.
     200001    1    1    2    0    0 -0.10585261182E+03 -0.19493621490E+03 -0.11830066041E+04  0.13507325896E+04  0.61300000000E+03 0. -1.
         11    1    4    4    0    0  0.40773133332E+01 -0.17909395425E+01 -0.64378279616E+01  0.78279995904E+01  0.51100000000E-03 0.  1.
    -200002    1    4    4    0    0 -0.17077971523E+03  0.25147274280E+03 -0.58785691961E+03  0.66248019550E+03  0.30000000000E+02 0.  1.
    -200000    1    3    3    0    0  0.27255501371E+03 -0.54745588360E+02 -0.20015029037E+03  0.35713366360E+03  0.10100000000E+03 0.  1.
<mgrwt>
<rscale>  0 0.13211354E+04</rscale>
<asrwt>0</asrwt>
<pdfrwt beam="1">  1        2 0.28623059E-01 0.13211354E+04</pdfrwt>
<pdfrwt beam="2">  1       -2 0.31111613E+00 0.13211354E+04</pdfrwt>
<totfact> 0.50375574E+00</totfact>
</mgrwt>
</event>
<event>
 8    2  0.7266322E-052  0.1451599E+04  0.7818608E-02  0.8917293E-01
         -2   -1    0    0    0  501 -0.00000000000E+00  0.00000000000E+00  0.19778520175E+03  0.19778520176E+03  0.25500000000E-02 0. -1.
          2   -1    0    0  501    0  0.00000000000E+00 -0.00000000000E+00 -0.26634178078E+04  0.26634178078E+04  0.25500000000E-02 0.  1.
    -200001    2    1    2    0    0  0.10374064102E+03 -0.14137885047E+03 -0.19170716702E+04  0.20201095544E+04  0.61231423568E+03 0.  0.
   -5000001    2    3    3    0    0  0.10413338147E+03 -0.16302571939E+03 -0.45146459524E+03  0.55086694704E+03  0.24942527190E+03 0.  0.
     200001    1    1    2    0    0 -0.10374064102E+03  0.14137885047E+03 -0.54856093590E+03  0.84109345518E+03  0.61300000000E+03 0. -1.
         11    1    4    4    0    0  0.14951117452E+03 -0.86097562852E+02 -0.13040454049E+03  0.21626771792E+03  0.51100000000E-03 0.  1.
    -200002    1    4    4    0    0 -0.45377793041E+02 -0.76928156541E+02 -0.32106005475E+03  0.33459922912E+03  0.30000000000E+02 0.  1.
    -200000    1    3    3    0    0 -0.39274045344E+00  0.21646868925E+02 -0.14656070749E+04  0.14692426074E+04  0.10100000000E+03 0.  1.
<mgrwt>
<rscale>  0 0.14515986E+04</rscale>
<asrwt>0</asrwt>
<pdfrwt beam="1">  1        2 0.38048824E+00 0.14515986E+04</pdfrwt>
<pdfrwt beam="2">  1       -2 0.28255030E-01 0.14515986E+04</pdfrwt>
<totfact> 0.40266441E+01</totfact>
</mgrwt>
</event>
<event>
 8    2  0.7266322E-052  0.1294659E+04  0.7818608E-02  0.9033812E-01
         -2   -1    0    0    0  501 -0.00000000000E+00  0.00000000000E+00  0.62214966732E+03  0.62214966733E+03  0.25500000000E-02 0. -1.
          2   -1    0    0  501    0  0.00000000000E+00 -0.00000000000E+00 -0.67352803105E+03  0.67352803106E+03  0.25500000000E-02 0.  1.
    -200001    2    1    2    0    0  0.20793316095E+03  0.18752391132E+02 -0.30719026065E+02  0.64777056011E+03  0.61243382368E+03 0.  0.
   -5000001    2    3    3    0    0 -0.27582203515E+02 -0.22854419380E+03 -0.76062611590E+02  0.28877177380E+03  0.15687699000E+03 0.  0.
     200001    1    1    2    0    0 -0.20793316095E+03 -0.18752391132E+02 -0.20659337663E+02  0.64790713828E+03  0.61300000000E+03 0.  1.
         11    1    4    4    0    0 -0.70092781086E+02 -0.16424758213E+03 -0.32982529492E+01  0.17860891543E+03  0.51100000000E-03 0.  1.
    -200002    1    4    4    0    0  0.42510577571E+02 -0.64296611669E+02 -0.72764358641E+02  0.11016285838E+03  0.30000000000E+02 0.  1.
    -200000    1    3    3    0    0  0.23551536447E+03  0.24729658493E+03  0.45343585525E+02  0.35899878630E+03  0.10100000000E+03 0. -1.
<mgrwt>
<rscale>  0 0.12946586E+04</rscale>
<asrwt>0</asrwt>
<pdfrwt beam="1">  1        2 0.96218290E-01 0.12946586E+04</pdfrwt>
<pdfrwt beam="2">  1       -2 0.88878524E-01 0.12946586E+04</pdfrwt>
<totfact> 0.50424194E+01</totfact>
</mgrwt>
</event>
<event>
 8    2  0.7266322E-052  0.1305716E+04  0.7818608E-02  0.9025045E-01
         -2   -1    0    0    0  501 -0.00000000000E+00  0.00000000000E+00  0.17511539808E+03  0.17511539810E+03  0.25500000000E-02 0. -1.
          2   -1    0    0  501    0  0.00000000000E+00 -0.00000000000E+00 -0.24339580700E+04  0.24339580700E+04  0.25500000000E-02 0.  1.
    -200001    2    1    2    0    0 -0.18135831562E+03  0.11746058849E+03 -0.10096632530E+04  0.12009164991E+04  0.61326399291E+03 0.  0.
   -5000001    2    3    3    0    0 -0.21717780647E+02  0.32564451607E+03 -0.37037609418E+03  0.50255075005E+03  0.94142404821E+02 0.  0.
     200001    1    1    2    0    0  0.18135831562E+03 -0.11746058849E+03 -0.12491794189E+04  0.14081569689E+04  0.61300000000E+03 0.  1.
         11    1    4    4    0    0  0.37121082599E+01  0.10717093967E+03 -0.66329156423E+02  0.12609102684E+03  0.51100000000E-03 0.  1.
    -200002    1    4    4    0    0 -0.25429888907E+02  0.21847357640E+03 -0.30404693776E+03  0.37645972321E+03  0.30000000000E+02 0.  1.
    -200000    1    3    3    0    0 -0.15964053498E+03 -0.20818392758E+03 -0.63928715878E+03  0.69836574908E+03  0.10100000000E+03 0. -1.
<mgrwt>
<rscale>  0 0.13057160E+04</rscale>
<asrwt>0</asrwt>
<pdfrwt beam="1">  1        2 0.34770828E+00 0.13057160E+04</pdfrwt>
<pdfrwt beam="2">  1       -2 0.25016487E-01 0.13057160E+04</pdfrwt>
<totfact> 0.67261677E+01</totfact>
</mgrwt>
</event>
<event>
 8    2  0.7266322E-052  0.1583750E+04  0.7818608E-02  0.8830593E-01
          2   -1    0    0  501    0  0.00000000000E+00  0.00000000000E+00  0.47541075940E+03  0.47541075940E+03  0.25500000000E-02 0.  1.
         -2   -1    0    0    0  501 -0.00000000000E+00 -0.00000000000E+00 -0.13189989334E+04  0.13189989334E+04  0.25500000000E-02 0. -1.
    -200001    2    1    2    0    0 -0.22844811437E+03  0.18731825984E+03  0.38225925842E+02  0.68056869063E+03  0.61191163564E+03 0.  0.
   -5000001    2    3    3    0    0 -0.15549807747E+03  0.34520373757E+03 -0.13952505198E+03  0.41215493897E+03  0.84018932776E+02 0.  0.
     200001    1    1    2    0    0  0.22844811437E+03 -0.18731825984E+03 -0.88181409982E+03  0.11138410022E+04  0.61300000000E+03 0. -1.
         11    1    4    4    0    0 -0.88878655406E+02  0.26241184068E+03 -0.10755771192E+03  0.29720035483E+03  0.51100000000E-03 0.  1.
    -200002    1    4    4    0    0 -0.66619422060E+02  0.82791896889E+02 -0.31967340055E+02  0.11495458415E+03  0.30000000000E+02 0. -1.
    -200000    1    3    3    0    0 -0.72950036904E+02 -0.15788547773E+03  0.17775097782E+03  0.26841375165E+03  0.10100000000E+03 0.  1.
<mgrwt>
<rscale>  0 0.15837503E+04</rscale>
<asrwt>0</asrwt>
<pdfrwt beam="1">  1        2 0.67915823E-01 0.15837503E+04</pdfrwt>
<pdfrwt beam="2">  1       -2 0.18842842E+00 0.15837503E+04</pdfrwt>
<totfact> 0.10860642E+01</totfact>
</mgrwt>
</event>
<event>
 8    2  0.7266322E-052  0.1410454E+04  0.7818608E-02  0.8946286E-01
         -2   -1    0    0    0  501 -0.00000000000E+00  0.00000000000E+00  0.17429816430E+04  0.17429816430E+04  0.25500000000E-02 0. -1.
          2   -1    0    0  501    0  0.00000000000E+00 -0.00000000000E+00 -0.28534171822E+03  0.28534171824E+03  0.25500000000E-02 0.  1.
    -200001    2    1    2    0    0 -0.82556950392E+02 -0.15628269797E+03  0.11612813745E+04  0.13248766170E+04  0.61276723770E+03 0.  0.
   -5000001    2    3    3    0    0  0.49722186784E+02 -0.31885808898E+03  0.36812070676E+03  0.49829729663E+03  0.92976149201E+02 0.  0.
     200001    1    1    2    0    0  0.82556950392E+02  0.15628269797E+03  0.29635855026E+03  0.70344674429E+03  0.61300000000E+03 0.  1.
         11    1    4    4    0    0  0.61053825165E+02 -0.21973296705E+03  0.21741843648E+03  0.31508875400E+03  0.51100000000E-03 0.  1.
    -200002    1    4    4    0    0 -0.11331638381E+02 -0.99125121926E+02  0.15070227028E+03  0.18320854263E+03  0.30000000000E+02 0.  1.
    -200000    1    3    3    0    0 -0.13227913718E+03  0.16257539101E+03  0.79316066777E+03  0.82657932033E+03  0.10100000000E+03 0. -1.
<mgrwt>
<rscale>  0 0.14104544E+04</rscale>
<asrwt>0</asrwt>
<pdfrwt beam="1">  1        2 0.40763103E-01 0.14104544E+04</pdfrwt>
<pdfrwt beam="2">  1       -2 0.24899737E+00 0.14104544E+04</pdfrwt>
<totfact> 0.80177562E+00</totfact>
</mgrwt>
</event>
<event>
 8    2  0.7266322E-052  0.1272233E+04  0.7818608E-02  0.9051879E-01
         -2   -1    0    0    0  501 -0.00000000000E+00  0.00000000000E+00  0.33493756656E+03  0.33493756657E+03  0.25500000000E-02 0. -1.
          2   -1    0    0  501    0  0.00000000000E+00 -0.00000000000E+00 -0.12081177512E+04  0.12081177512E+04  0.25500000000E-02 0.  1.
    -200001    2    1    2    0    0 -0.12963586363E+03  0.53768021434E+02 -0.55005754546E+03  0.83603785180E+03  0.61375852666E+03 0.  0.
   -5000001    2    3    3    0    0 -0.29953015034E+03  0.14126993465E+03 -0.51141349934E+03  0.61645867297E+03  0.93819095960E+02 0.  0.
     200001    1    1    2    0    0  0.12963586363E+03 -0.53768021434E+02 -0.32312263921E+03  0.70701746601E+03  0.61300000000E+03 0. -1.
         11    1    4    4    0    0 -0.10118438995E+03  0.65333755980E+02 -0.25606208509E+03  0.28297450744E+03  0.51100000000E-03 0.  1.
    -200002    1    4    4    0    0 -0.19834576040E+03  0.75936178673E+02 -0.25535141425E+03  0.33348416553E+03  0.30000000000E+02 0.  1.
    -200000    1    3    3    0    0  0.16989428671E+03 -0.87501913220E+02 -0.38644046119E+02  0.21957917883E+03  0.10100000000E+03 0.  1.
<mgrwt>
<rscale>  0 0.12722327E+04</rscale>
<asrwt>0</asrwt>
<pdfrwt beam="1">  1        2 0.17258825E+00 0.12722327E+04</pdfrwt>
<pdfrwt beam="2">  1       -2 0.47848224E-01 0.12722327E+04</pdfrwt>
<totfact> 0.85946387E+01</totfact>
</mgrwt>
</event>
<event>
 8    2  0.7266322E-052  0.1790670E+04  0.7818608E-02  0.8711277E-01
          2   -1    0    0  501    0  0.00000000000E+00  0.00000000000E+00  0.65642325133E+03  0.65642325134E+03  0.25500000000E-02 0.  1.
         -2   -1    0    0    0  501 -0.00000000000E+00 -0.00000000000E+00 -0.12212012935E+04  0.12212012935E+04  0.25500000000E-02 0. -1.
    -200001    2    1    2    0    0  0.37412941860E+03  0.53998946397E+03 -0.22400955836E+03  0.91665961174E+03  0.59876800055E+03 0.  0.
   -5000001    2    3    3    0    0  0.43457553346E+03  0.13083709475E+03 -0.10747550688E+03  0.47525211385E+03  0.91320027893E+02 0.  0.
     200001    1    1    2    0    0 -0.37412941860E+03 -0.53998946397E+03 -0.34076848377E+03  0.96096493307E+03  0.61300000000E+03 0.  1.
         11    1    4    4    0    0  0.34679521028E+03  0.75483255961E+02 -0.82322334953E+02  0.36433721555E+03  0.51100000000E-03 0.  1.
    -200002    1    4    4    0    0  0.87780323180E+02  0.55353838792E+02 -0.25153171931E+02  0.11091489830E+03  0.30000000000E+02 0. -1.
    -200000    1    3    3    0    0 -0.60446114854E+02  0.40915236922E+03 -0.11653405148E+03  0.44140749789E+03  0.10100000000E+03 0. -1.
<mgrwt>
<rscale>  0 0.17906702E+04</rscale>
<asrwt>0</asrwt>
<pdfrwt beam="1">  1        2 0.93774751E-01 0.17906702E+04</pdfrwt>
<pdfrwt beam="2">  1       -2 0.17445733E+00 0.17906702E+04</pdfrwt>
<totfact> 0.91408428E+00</totfact>
</mgrwt>
</event>
<event>
 8    2  0.7266322E-052  0.1470473E+04  0.7818608E-02  0.8904329E-01
          2   -1    0    0  501    0  0.00000000000E+00  0.00000000000E+00  0.55792858421E+03  0.55792858422E+03  0.25500000000E-02 0.  1.
         -2   -1    0    0    0  501 -0.00000000000E+00 -0.00000000000E+00 -0.96889207887E+03  0.96889207887E+03  0.25500000000E-02 0. -1.
    -200001    2    1    2    0    0  0.47430817255E+02  0.30500453400E+03 -0.47905538000E+03  0.83712293725E+03  0.61319108504E+03 0.  0.
   -5000001    2    3    3    0    0  0.18761469752E+03 -0.32417464773E+02 -0.40197020773E+03  0.45027897733E+03  0.70149431737E+02 0.  0.
     200001    1    1    2    0    0 -0.47430817255E+02 -0.30500453400E+03  0.68091885343E+02  0.68969772584E+03  0.61300000000E+03 0. -1.
         11    1    4    4    0    0  0.15489247664E+03 -0.31585602387E+02 -0.30127842158E+03  0.34023229845E+03  0.51100000000E-03 0.  1.
    -200002    1    4    4    0    0  0.32722220885E+02 -0.83186238602E+00 -0.10069178615E+03  0.11004667888E+03  0.30000000000E+02 0. -1.
    -200000    1    3    3    0    0 -0.14018388027E+03  0.33742199877E+03 -0.77085172271E+02  0.38684395992E+03  0.10100000000E+03 0.  1.
<mgrwt>
<rscale>  0 0.14704728E+04</rscale>
<asrwt>0</asrwt>
<pdfrwt beam="1">  1        2 0.79704084E-01 0.14704728E+04</pdfrwt>
<pdfrwt beam="2">  1       -2 0.13841315E+00 0.14704728E+04</pdfrwt>
<totfact> 0.21209060E+01</totfact>
</mgrwt>
</event>
<event>
 8    2  0.7266322E-052  0.1559192E+04  0.7818608E-02  0.8846018E-01
         -2   -1    0    0    0  501 -0.00000000000E+00  0.00000000000E+00  0.20914136149E+03  0.20914136151E+03  0.25500000000E-02 0. -1.
          2   -1    0    0  501    0  0.00000000000E+00 -0.00000000000E+00 -0.29060244632E+04  0.29060244632E+04  0.25500000000E-02 0.  1.
    -200001    2    1    2    0    0 -0.14027738426E+03 -0.43722332029E+03 -0.10622237190E+04  0.13099726844E+04  0.61389512813E+03 0.  0.
   -5000001    2    3    3    0    0  0.18678036006E+03 -0.30077782507E+02 -0.15745792639E+03  0.26043164351E+03  0.85088580036E+02 0.  0.
     200001    1    1    2    0    0  0.14027738426E+03  0.43722332029E+03 -0.16346593827E+04  0.18051931403E+04  0.61300000000E+03 0.  1.
         11    1    4    4    0    0  0.14542046812E+03 -0.16893153175E+02 -0.14533672697E+03  0.20628925173E+03  0.51100000000E-03 0.  1.
    -200002    1    4    4    0    0  0.41359891941E+02 -0.13184629333E+02 -0.12121199415E+02  0.54142391777E+02  0.30000000000E+02 0.  1.
    -200000    1    3    3    0    0 -0.32705774432E+03 -0.40714553778E+03 -0.90476579261E+03  0.10495410409E+04  0.10100000000E+03 0.  1.
<mgrwt>
<rscale>  0 0.15591920E+04</rscale>
<asrwt>0</asrwt>
<pdfrwt beam="1">  1        2 0.41514633E+00 0.15591920E+04</pdfrwt>
<pdfrwt beam="2">  1       -2 0.29877339E-01 0.15591920E+04</pdfrwt>
<totfact> 0.26587475E+01</totfact>
</mgrwt>
</event>
<event>
 8    2  0.7266322E-052  0.1962665E+04  0.7818608E-02  0.8624278E-01
         -2   -1    0    0    0  501 -0.00000000000E+00  0.00000000000E+00  0.79393130681E+03  0.79393130681E+03  0.25500000000E-02 0. -1.
          2   -1    0    0  501    0  0.00000000000E+00 -0.00000000000E+00 -0.12129679732E+04  0.12129679732E+04  0.25500000000E-02 0.  1.
    -200001    2    1    2    0    0  0.38350087882E+03 -0.60149585840E+03 -0.49598272240E+03  0.10632044738E+04  0.61280886128E+03 0.  0.
   -5000001    2    3    3    0    0  0.38266492751E+03 -0.88948998410E+02 -0.11073656494E+03  0.41411235065E+03  0.69871890496E+02 0.  0.
     200001    1    1    2    0    0 -0.38350087882E+03  0.60149585840E+03  0.76946056009E+02  0.94369480621E+03  0.61300000000E+03 0.  1.
         11    1    4    4    0    0  0.90262821487E+02 -0.46977176030E+02 -0.20668251146E+02  0.10383356209E+03  0.51100000000E-03 0.  1.
    -200002    1    4    4    0    0  0.29240210602E+03 -0.41971822380E+02 -0.90068313793E+02  0.31027878856E+03  0.30000000000E+02 0.  1.
    -200000    1    3    3    0    0  0.83595131221E+00 -0.51254685999E+03 -0.38524615746E+03  0.64909212315E+03  0.10100000000E+03 0.  1.
<mgrwt>
<rscale>  0 0.19626648E+04</rscale>
<asrwt>0</asrwt>
<pdfrwt beam="1">  1        2 0.17328114E+00 0.19626648E+04</pdfrwt>
<pdfrwt beam="2">  1       -2 0.11341876E+00 0.19626648E+04</pdfrwt>
<totfact> 0.11989117E+01</totfact>
</mgrwt>
</event>
<event>
 8    2  0.7266322E-052  0.1394636E+04  0.7818608E-02  0.8957711E-01
         -2   -1    0    0    0  501 -0.00000000000E+00  0.00000000000E+00  0.14807646983E+03  0.14807646985E+03  0.25500000000E-02 0. -1.
          2   -1    0    0  501    0  0.00000000000E+00 -0.00000000000E+00 -0.32837918203E+04  0.32837918203E+04  0.25500000000E-02 0.  1.
    -200001    2    1    2    0    0  0.21711886019E+03  0.21607530465E+03 -0.18763970527E+04  0.19981735138E+04  0.61481896116E+03 0.  0.
   -5000001    2    3    3    0    0  0.20044891100E+03  0.38559085343E+03 -0.91756936480E+03  0.10191102147E+04  0.88272409746E+02 0.  0.
     200001    1    1    2    0    0 -0.21711886019E+03 -0.21607530465E+03 -0.12593182977E+04  0.14336947763E+04  0.61300000000E+03 0. -1.
         11    1    4    4    0    0  0.10812619076E+03  0.19919931973E+03 -0.38776871540E+03  0.44915055244E+03  0.51100000000E-03 0.  1.
    -200002    1    4    4    0    0  0.92322720236E+02  0.18639153370E+03 -0.52980064940E+03  0.56995966226E+03  0.30000000000E+02 0.  1.
    -200000    1    3    3    0    0  0.16669949198E+02 -0.16951554878E+03 -0.95882768795E+03  0.97906329911E+03  0.10100000000E+03 0.  1.
<mgrwt>
<rscale>  0 0.13946359E+04</rscale>
<asrwt>0</asrwt>
<pdfrwt beam="1">  1        2 0.46911307E+00 0.13946359E+04</pdfrwt>
<pdfrwt beam="2">  1       -2 0.21153783E-01 0.13946359E+04</pdfrwt>
<totfact> 0.30895667E+01</totfact>
</mgrwt>
</event>
<event>
 8    2  0.7266322E-052  0.2765610E+04  0.7818608E-02  0.8314025E-01
         -2   -1    0    0    0  501 -0.00000000000E+00  0.00000000000E+00  0.48570063281E+03  0.48570063282E+03  0.25500000000E-02 0. -1.
          2   -1    0    0  501    0  0.00000000000E+00 -0.00000000000E+00 -0.39368880900E+04  0.39368880900E+04  0.25500000000E-02 0.  1.
    -200001    2    1    2    0    0  0.61495267955E+03 -0.85578583594E+01 -0.48687004549E+01  0.86855974037E+03  0.61329624434E+03 0.  0.
   -5000001    2    3    3    0    0  0.51658235763E+03  0.21855111776E+02 -0.25430209655E+03  0.58042836742E+03  0.69946803158E+02 0.  0.
     200001    1    1    2    0    0 -0.61495267955E+03  0.85578583594E+01 -0.34463187567E+04  0.35540289825E+04  0.61300000000E+03 0.  1.
         11    1    4    4    0    0  0.22515805723E+03 -0.13698009457E+02 -0.91861080267E+02  0.24356158208E+03  0.51100000000E-03 0.  1.
    -200002    1    4    4    0    0  0.29142430040E+03  0.35553121233E+02 -0.16244101629E+03  0.33686678534E+03  0.30000000000E+02 0.  1.
    -200000    1    3    3    0    0  0.98370321925E+02 -0.30412970136E+02  0.24943339610E+03  0.28813137295E+03  0.10100000000E+03 0. -1.
<mgrwt>
<rscale>  0 0.27656095E+04</rscale>
<asrwt>0</asrwt>
<pdfrwt beam="1">  1        2 0.56241257E+00 0.27656095E+04</pdfrwt>
<pdfrwt beam="2">  1       -2 0.69385807E-01 0.27656095E+04</pdfrwt>
<totfact> 0.10461172E+00</totfact>
</mgrwt>
</event>
<event>
 8    2  0.7266322E-052  0.1383250E+04  0.7818608E-02  0.8966033E-01
         -2   -1    0    0    0  501 -0.00000000000E+00  0.00000000000E+00  0.18265222503E+03  0.18265222505E+03  0.25500000000E-02 0. -1.
          2   -1    0    0  501    0  0.00000000000E+00 -0.00000000000E+00 -0.26188838417E+04  0.26188838418E+04  0.25500000000E-02 0.  1.
    -200001    2    1    2    0    0 -0.15132308063E+03  0.27763219026E+03 -0.13390205832E+04  0.15055347705E+04  0.61129413159E+03 0.  0.
   -5000001    2    3    3    0    0 -0.27493607202E+02  0.21203215290E+03 -0.13066006442E+04  0.13297816601E+04  0.12409870198E+03 0.  0.
     200001    1    1    2    0    0  0.15132308063E+03 -0.27763219026E+03 -0.10972110336E+04  0.12960012963E+04  0.61300000000E+03 0. -1.
         11    1    4    4    0    0  0.35067896138E+02  0.20003986853E+02 -0.15219434407E+03  0.15745804265E+03  0.51100000000E-03 0.  1.
    -200002    1    4    4    0    0 -0.62561503340E+02  0.19202816605E+03 -0.11544063001E+04  0.11723236174E+04  0.30000000000E+02 0.  1.
    -200000    1    3    3    0    0 -0.12382947342E+03  0.65600037356E+02 -0.32419939004E+02  0.17575311045E+03  0.10100000000E+03 0. -1.
<mgrwt>
<rscale>  0 0.13832497E+04</rscale>
<asrwt>0</asrwt>
<pdfrwt beam="1">  1        2 0.37412624E+00 0.13832497E+04</pdfrwt>
<pdfrwt beam="2">  1       -2 0.26093177E-01 0.13832497E+04</pdfrwt>
<totfact> 0.49492937E+01</totfact>
</mgrwt>
</event>
<event>
 8    2  0.7266322E-052  0.4038868E+04  0.7818608E-02  0.7996751E-01
         -2   -1    0    0    0  501 -0.00000000000E+00  0.00000000000E+00  0.90731662513E+03  0.90731662513E+03  0.25500000000E-02 0. -1.
          2   -1    0    0  501    0  0.00000000000E+00 -0.00000000000E+00 -0.44946970452E+04  0.44946970452E+04  0.25500000000E-02 0.  1.
    -200001    2    1    2    0    0 -0.78043831335E+03 -0.38044706701E+03  0.50298926766E+03  0.11758195061E+04  0.61296767918E+03 0.  0.
   -5000001    2    3    3    0    0 -0.41538650244E+03 -0.27447752558E+03  0.64939485471E+02  0.58710821856E+03  0.30429437239E+03 0.  0.
     200001    1    1    2    0    0  0.78043831335E+03  0.38044706701E+03 -0.40903696877E+04  0.42261941642E+04  0.61300000000E+03 0.  1.
         11    1    4    4    0    0 -0.13415057547E+03  0.57892082866E+02  0.16222418071E+01  0.14611810917E+03  0.51100000000E-03 0.  1.
    -200002    1    4    4    0    0 -0.28123592697E+03 -0.33236960845E+03  0.63317243664E+02  0.44099010939E+03  0.30000000000E+02 0.  1.
    -200000    1    3    3    0    0 -0.36505181091E+03 -0.10596954144E+03  0.43804978219E+03  0.58871128750E+03  0.10100000000E+03 0. -1.
<mgrwt>
<rscale>  0 0.40388678E+04</rscale>
<asrwt>0</asrwt>
<pdfrwt beam="1">  1        2 0.64209957E+00 0.40388678E+04</pdfrwt>
<pdfrwt beam="2">  1       -2 0.12961666E+00 0.40388678E+04</pdfrwt>
<totfact> 0.84719406E-02</totfact>
</mgrwt>
</event>
<event>
 8    2  0.7266322E-052  0.2223886E+04  0.7818608E-02  0.8508551E-01
         -2   -1    0    0    0  501 -0.00000000000E+00  0.00000000000E+00  0.46706770946E+03  0.46706770947E+03  0.25500000000E-02 0. -1.
          2   -1    0    0  501    0  0.00000000000E+00 -0.00000000000E+00 -0.26471913174E+04  0.26471913174E+04  0.25500000000E-02 0.  1.
    -200001    2    1    2    0    0  0.26674037539E+03 -0.40395987084E+03 -0.21986428403E+04  0.23329486103E+04  0.61178825920E+03 0.  0.
   -5000001    2    3    3    0    0  0.52271340182E+02 -0.33626053169E+03 -0.52714238879E+03  0.64336436355E+03  0.14225037098E+03 0.  0.
     200001    1    1    2    0    0 -0.26674037539E+03  0.40395987084E+03  0.18519232311E+02  0.78131041659E+03  0.61300000000E+03 0. -1.
         11    1    4    4    0    0  0.24343063550E+02 -0.28864093740E+03 -0.34382984503E+03  0.44958329353E+03  0.51100000000E-03 0.  1.
    -200002    1    4    4    0    0  0.27928276632E+02 -0.47619594282E+02 -0.18331254376E+03  0.19378107001E+03  0.30000000000E+02 0.  1.
    -200000    1    3    3    0    0  0.21446903521E+03 -0.67699339154E+02 -0.16715004515E+04  0.16895842467E+04  0.10100000000E+03 0.  1.
<mgrwt>
<rscale>  0 0.22238863E+04</rscale>
<asrwt>0</asrwt>
<pdfrwt beam="1">  1        2 0.37817018E+00 0.22238863E+04</pdfrwt>
<pdfrwt beam="2">  1       -2 0.66723960E-01 0.22238863E+04</pdfrwt>
<totfact> 0.69581831E+00</totfact>
</mgrwt>
</event>
<event>
 8    2  0.7266322E-052  0.1283506E+04  0.7818608E-02  0.9042748E-01
         -2   -1    0    0    0  501 -0.00000000000E+00  0.00000000000E+00  0.23369612281E+03  0.23369612282E+03  0.25500000000E-02 0. -1.
          2   -1    0    0  501    0  0.00000000000E+00 -0.00000000000E+00 -0.17623175225E+04  0.17623175225E+04  0.25500000000E-02 0.  1.
    -200001    2    1    2    0    0  0.10911828708E+03 -0.40854799555E+02 -0.52721694098E+03  0.81611712226E+03  0.61197511319E+03 0.  0.
   -5000001    2    3    3    0    0 -0.83473581311E+02 -0.22481646806E+03 -0.15972156188E+03  0.35115757895E+03  0.20072464930E+03 0.  0.
     200001    1    1    2    0    0 -0.10911828708E+03  0.40854799555E+02 -0.10014044587E+04  0.11798965231E+04  0.61300000000E+03 0.  1.
         11    1    4    4    0    0 -0.19401010920E+02 -0.23573762149E+03 -0.95842759263E+02  0.25521453704E+03  0.51100000000E-03 0.  1.
    -200002    1    4    4    0    0 -0.64072570391E+02  0.10921153426E+02 -0.63878802614E+02  0.95943041916E+02  0.30000000000E+02 0.  1.
    -200000    1    3    3    0    0  0.19259186839E+03  0.18396166851E+03 -0.36749537910E+03  0.46495954330E+03  0.10100000000E+03 0.  1.
<mgrwt>
<rscale>  0 0.12835058E+04</rscale>
<asrwt>0</asrwt>
<pdfrwt beam="1">  1        2 0.25175964E+00 0.12835058E+04</pdfrwt>
<pdfrwt beam="2">  1       -2 0.33385161E-01 0.12835058E+04</pdfrwt>
<totfact> 0.87570246E+01</totfact>
</mgrwt>
</event>
<event>
 8    2  0.7266322E-052  0.1567633E+04  0.7818608E-02  0.8840683E-01
         -2   -1    0    0    0  501 -0.00000000000E+00  0.00000000000E+00  0.45951610720E+03  0.45951610720E+03  0.25500000000E-02 0. -1.
          2   -1    0    0  501    0  0.00000000000E+00 -0.00000000000E+00 -0.13369888699E+04  0.13369888699E+04  0.25500000000E-02 0.  1.
    -200001    2    1    2    0    0 -0.13323547180E+03 -0.69112368000E+02  0.94357097224E+02  0.63773386640E+03  0.61259530867E+03 0.  0.
   -5000001    2    3    3    0    0  0.22918958578E+03  0.24993828600E+02  0.24247120865E+02  0.24362181713E+03  0.74907337495E+02 0.  0.
     200001    1    1    2    0    0  0.13323547180E+03  0.69112368000E+02 -0.97182985992E+03  0.11587711107E+04  0.61300000000E+03 0.  1.
         11    1    4    4    0    0  0.11041348272E+03  0.37338399403E+02  0.30020481573E+02  0.12035997072E+03  0.51100000000E-03 0.  1.
    -200002    1    4    4    0    0  0.11877610306E+03 -0.12344570803E+02 -0.57733607076E+01  0.12326184641E+03  0.30000000000E+02 0.  1.
    -200000    1    3    3    0    0 -0.36242505758E+03 -0.94106196600E+02  0.70109976359E+02  0.39411204928E+03  0.10100000000E+03 0.  1.
<mgrwt>
<rscale>  0 0.15676325E+04</rscale>
<asrwt>0</asrwt>
<pdfrwt beam="1">  1        2 0.19099841E+00 0.15676325E+04</pdfrwt>
<pdfrwt beam="2">  1       -2 0.65645159E-01 0.15676325E+04</pdfrwt>
<totfact> 0.36868075E+01</totfact>
</mgrwt>
</event>
<event>
 8    2  0.7266322E-052  0.1533270E+04  0.7818608E-02  0.8862626E-01
         -2   -1    0    0    0  501 -0.00000000000E+00  0.00000000000E+00  0.45789045413E+03  0.45789045414E+03  0.25500000000E-02 0. -1.
          2   -1    0    0  501    0  0.00000000000E+00 -0.00000000000E+00 -0.12835577604E+04  0.12835577604E+04  0.25500000000E-02 0.  1.
    -200001    2    1    2    0    0  0.26619249912E+03  0.12746905437E+03 -0.81443840934E+03  0.10610057889E+04  0.61263084734E+03 0.  0.
   -5000001    2    3    3    0    0  0.43448438315E+03  0.17464925654E+03 -0.52861200419E+03  0.71108313521E+03  0.83243811772E+02 0.  0.
     200001    1    1    2    0    0 -0.26619249912E+03 -0.12746905437E+03 -0.11228896896E+02  0.68044242559E+03  0.61300000000E+03 0. -1.
         11    1    4    4    0    0  0.26879707338E+03  0.14006495942E+03 -0.35452253363E+03  0.46642929407E+03  0.51100000000E-03 0.  1.
    -200002    1    4    4    0    0  0.16568730977E+03  0.34584297121E+02 -0.17408947056E+03  0.24465384114E+03  0.30000000000E+02 0.  1.
    -200000    1    3    3    0    0 -0.16829188402E+03 -0.47180202165E+02 -0.28582640514E+03  0.34992265371E+03  0.10100000000E+03 0.  1.
<mgrwt>
<rscale>  0 0.15332695E+04</rscale>
<asrwt>0</asrwt>
<pdfrwt beam="1">  1        2 0.18336539E+00 0.15332695E+04</pdfrwt>
<pdfrwt beam="2">  1       -2 0.65412922E-01 0.15332695E+04</pdfrwt>
<totfact> 0.39868103E+01</totfact>
</mgrwt>
</event>
<event>
 8    2  0.7266322E-052  0.3148280E+04  0.7818608E-02  0.8202611E-01
          2   -1    0    0  501    0  0.00000000000E+00  0.00000000000E+00  0.30350999866E+04  0.30350999866E+04  0.25500000000E-02 0.  1.
         -2   -1    0    0    0  501 -0.00000000000E+00 -0.00000000000E+00 -0.81642010911E+03  0.81642010911E+03  0.25500000000E-02 0. -1.
    -200001    2    1    2    0    0  0.11517305057E+04 -0.84779434219E+03  0.14109354577E+04  0.20983919053E+04  0.60602913944E+03 0.  0.
   -5000001    2    3    3    0    0  0.25742158794E+03 -0.52141090954E+03  0.64634091198E+03  0.87318971589E+03  0.81046251606E+02 0.  0.
     200001    1    1    2    0    0 -0.11517305057E+04  0.84779434219E+03  0.80774441980E+03  0.17531281905E+04  0.61300000000E+03 0.  1.
         11    1    4    4    0    0  0.14342820778E+03 -0.22496948684E+03  0.32337268450E+03  0.41922883235E+03  0.51100000000E-03 0.  1.
    -200002    1    4    4    0    0  0.11399338016E+03 -0.29644142270E+03  0.32296822749E+03  0.45396088354E+03  0.30000000000E+02 0.  1.
    -200000    1    3    3    0    0  0.89430891778E+03 -0.32638343265E+03  0.76459454571E+03  0.12252021894E+04  0.10100000000E+03 0. -1.
<mgrwt>
<rscale>  0 0.31482800E+04</rscale>
<asrwt>0</asrwt>
<pdfrwt beam="1">  1        2 0.43358571E+00 0.31482800E+04</pdfrwt>
<pdfrwt beam="2">  1       -2 0.11663145E+00 0.31482800E+04</pdfrwt>
<totfact> 0.10935790E+00</totfact>
</mgrwt>
</event>
<event>
 8    2  0.7266322E-052  0.1649503E+04  0.7818608E-02  0.8790701E-01
         -2   -1    0    0    0  501 -0.00000000000E+00  0.00000000000E+00  0.60182672979E+03  0.60182672979E+03  0.25500000000E-02 0. -1.
          2   -1    0    0  501    0  0.00000000000E+00 -0.00000000000E+00 -0.11302502931E+04  0.11302502931E+04  0.25500000000E-02 0.  1.
    -200001    2    1    2    0    0  0.78964339883E+02  0.20806056081E+03  0.26524510907E+03  0.70484602381E+03  0.61394493683E+03 0.  0.
   -5000001    2    3    3    0    0  0.19296235771E+03  0.35630525572E+03  0.81424253727E+02  0.42384220801E+03  0.93938285310E+02 0.  0.
     200001    1    1    2    0    0 -0.78964339883E+02 -0.20806056081E+03 -0.79366867237E+03  0.10272309991E+04  0.61300000000E+03 0.  1.
         11    1    4    4    0    0  0.12734414619E+03  0.18654841805E+03  0.10149975065E+02  0.22609702749E+03  0.51100000000E-03 0.  1.
    -200002    1    4    4    0    0  0.65618211516E+02  0.16975683767E+03  0.71274278662E+02  0.19774518051E+03  0.30000000000E+02 0.  1.
    -200000    1    3    3    0    0 -0.11399801783E+03 -0.14824469491E+03  0.18382085535E+03  0.28100381581E+03  0.10100000000E+03 0. -1.
<mgrwt>
<rscale>  0 0.16495028E+04</rscale>
<asrwt>0</asrwt>
<pdfrwt beam="1">  1        2 0.16146433E+00 0.16495028E+04</pdfrwt>
<pdfrwt beam="2">  1       -2 0.85975248E-01 0.16495028E+04</pdfrwt>
<totfact> 0.26367972E+01</totfact>
</mgrwt>
</event>
<event>
 8    2  0.7266322E-052  0.1467771E+04  0.7818608E-02  0.8906172E-01
         -2   -1    0    0    0  501 -0.00000000000E+00  0.00000000000E+00  0.20538995045E+03  0.20538995046E+03  0.25500000000E-02 0. -1.
          2   -1    0    0  501    0  0.00000000000E+00 -0.00000000000E+00 -0.26222708357E+04  0.26222708357E+04  0.25500000000E-02 0.  1.
    -200001    2    1    2    0    0  0.34379942868E+03 -0.44529995823E+02 -0.16068181805E+04  0.17542775586E+04  0.61273495049E+03 0.  0.
   -5000001    2    3    3    0    0  0.39662129159E+03 -0.18335531928E+03 -0.14456202460E+04  0.15129305185E+04  0.90626906869E+02 0.  0.
     200001    1    1    2    0    0 -0.34379942868E+03  0.44529995823E+02 -0.81006270473E+03  0.10733832276E+04  0.61300000000E+03 0.  1.
         11    1    4    4    0    0  0.12319276996E+03 -0.87912940080E+02 -0.40531213662E+03  0.43264658983E+03  0.51100000000E-03 0.  1.
    -200002    1    4    4    0    0  0.27342852163E+03 -0.95442379202E+02 -0.10403081094E+04  0.10802839287E+04  0.30000000000E+02 0.  1.
    -200000    1    3    3    0    0 -0.52821862914E+02  0.13882532346E+03 -0.16119793454E+03  0.24134704004E+03  0.10100000000E+03 0. -1.
<mgrwt>
<rscale>  0 0.14677712E+04</rscale>
<asrwt>0</asrwt>
<pdfrwt beam="1">  1        2 0.37461010E+00 0.14677712E+04</pdfrwt>
<pdfrwt beam="2">  1       -2 0.29341423E-01 0.14677712E+04</pdfrwt>
<totfact> 0.39437442E+01</totfact>
</mgrwt>
</event>
<event>
 8    2  0.7266322E-052  0.1532627E+04  0.7818608E-02  0.8863041E-01
         -2   -1    0    0    0  501 -0.00000000000E+00  0.00000000000E+00  0.22458464826E+03  0.22458464827E+03  0.25500000000E-02 0. -1.
          2   -1    0    0  501    0  0.00000000000E+00 -0.00000000000E+00 -0.26147679301E+04  0.26147679301E+04  0.25500000000E-02 0.  1.
    -200001    2    1    2    0    0 -0.18608313059E+03  0.40409192502E+03 -0.14142699069E+04  0.16040011584E+04  0.61216266739E+03 0.  0.
   -5000001    2    3    3    0    0 -0.30279417457E+03  0.23648349758E+03 -0.12809104773E+04  0.13399939801E+04  0.85108513639E+02 0.  0.
     200001    1    1    2    0    0  0.18608313059E+03 -0.40409192502E+03 -0.97591337499E+03  0.12353514200E+04  0.61300000000E+03 0. -1.
         11    1    4    4    0    0 -0.20602753705E+03  0.12710953252E+03 -0.86186607421E+03  0.89521914029E+03  0.51100000000E-03 0.  1.
    -200002    1    4    4    0    0 -0.96766637523E+02  0.10937396506E+03 -0.41904440311E+03  0.44477483984E+03  0.30000000000E+02 0.  1.
    -200000    1    3    3    0    0  0.11671104398E+03  0.16760842744E+03 -0.13335942956E+03  0.26400717829E+03  0.10100000000E+03 0. -1.
<mgrwt>
<rscale>  0 0.15326275E+04</rscale>
<asrwt>0</asrwt>
<pdfrwt beam="1">  1        2 0.37353826E+00 0.15326275E+04</pdfrwt>
<pdfrwt beam="2">  1       -2 0.32083523E-01 0.15326275E+04</pdfrwt>
<totfact> 0.33493416E+01</totfact>
</mgrwt>
</event>
<event>
 8    2  0.7266322E-052  0.1446297E+04  0.7818608E-02  0.8920972E-01
          2   -1    0    0  501    0  0.00000000000E+00  0.00000000000E+00  0.27375184965E+04  0.27375184965E+04  0.25500000000E-02 0.  1.
         -2   -1    0    0    0  501 -0.00000000000E+00 -0.00000000000E+00 -0.19102832313E+03  0.19102832315E+03  0.25500000000E-02 0. -1.
    -200001    2    1    2    0    0  0.11758829901E+03  0.23357193270E+02  0.53613164272E+03  0.82339053369E+03  0.61332068782E+03 0.  0.
   -5000001    2    3    3    0    0  0.25517012720E+03 -0.13570816351E+03  0.50839921290E+03  0.58844238018E+03  0.65315967866E+02 0.  0.
     200001    1    1    2    0    0 -0.11758829901E+03 -0.23357193270E+02  0.20103585307E+04  0.21051562860E+04  0.61300000000E+03 0.  1.
         11    1    4    4    0    0  0.16975556173E+03 -0.88842101177E+02  0.36859975003E+03  0.41542224953E+03  0.51100000000E-03 0.  1.
    -200002    1    4    4    0    0  0.85414565469E+02 -0.46866062330E+02  0.13979946287E+03  0.17302013065E+03  0.30000000000E+02 0.  1.
    -200000    1    3    3    0    0 -0.13758182819E+03  0.15906535678E+03  0.27732429820E+02  0.23494815351E+03  0.10100000000E+03 0. -1.
<mgrwt>
<rscale>  0 0.14462967E+04</rscale>
<asrwt>0</asrwt>
<pdfrwt beam="1">  1        2 0.39107404E+00 0.14462967E+04</pdfrwt>
<pdfrwt beam="2">  1       -2 0.27289762E-01 0.14462967E+04</pdfrwt>
<totfact> 0.39197907E+01</totfact>
</mgrwt>
</event>
<event>
 8    2  0.7266322E-052  0.2428747E+04  0.7818608E-02  0.8428819E-01
          2   -1    0    0  501    0  0.00000000000E+00  0.00000000000E+00  0.16978885768E+04  0.16978885768E+04  0.25500000000E-02 0.  1.
         -2   -1    0    0    0  501 -0.00000000000E+00 -0.00000000000E+00 -0.86855139345E+03  0.86855139345E+03  0.25500000000E-02 0. -1.
    -200001    2    1    2    0    0  0.73830431432E+03  0.38560939591E+03 -0.25816756152E+03  0.10656990076E+04  0.61259776225E+03 0.  0.
   -5000001    2    3    3    0    0  0.28936838913E+03  0.31407874215E+03  0.13795408072E+03  0.45432886215E+03  0.70738007462E+02 0.  0.
     200001    1    1    2    0    0 -0.73830431432E+03 -0.38560939591E+03  0.10875047449E+04  0.15007409626E+04  0.61300000000E+03 0. -1.
         11    1    4    4    0    0  0.17199034474E+03  0.16282959253E+03  0.52797190116E+02  0.24265551337E+03  0.51100000000E-03 0.  1.
    -200002    1    4    4    0    0  0.11737804439E+03  0.15124914962E+03  0.85156890599E+02  0.21167334877E+03  0.30000000000E+02 0. -1.
    -200000    1    3    3    0    0  0.44893592519E+03  0.71530653764E+02 -0.39612164223E+03  0.61137014549E+03  0.10100000000E+03 0. -1.
<mgrwt>
<rscale>  0 0.24287474E+04</rscale>
<asrwt>0</asrwt>
<pdfrwt beam="1">  1        2 0.24255551E+00 0.24287474E+04</pdfrwt>
<pdfrwt beam="2">  1       -2 0.12407877E+00 0.24287474E+04</pdfrwt>
<totfact> 0.50693215E+00</totfact>
</mgrwt>
</event>
<event>
 8    2  0.7266322E-052  0.1756352E+04  0.7818608E-02  0.8729862E-01
         -2   -1    0    0    0  501 -0.00000000000E+00  0.00000000000E+00  0.40154905732E+03  0.40154905732E+03  0.25500000000E-02 0. -1.
          2   -1    0    0  501    0  0.00000000000E+00 -0.00000000000E+00 -0.19205447302E+04  0.19205447302E+04  0.25500000000E-02 0.  1.
    -200001    2    1    2    0    0  0.59363852632E+03 -0.11469520103E+03 -0.98897909244E+03  0.13110308495E+04  0.61250351346E+03 0.  0.
   -5000001    2    3    3    0    0  0.60283281019E+03  0.10655930371E+03 -0.69872147418E+03  0.93223199037E+03  0.77990404149E+02 0.  0.
     200001    1    1    2    0    0 -0.59363852632E+03  0.11469520103E+03 -0.53001658042E+03  0.10110629380E+04  0.61300000000E+03 0.  1.
         11    1    4    4    0    0  0.22058185165E+02  0.42580771225E+01 -0.88035195750E+01  0.24128752780E+02  0.51100000000E-03 0.  1.
    -200002    1    4    4    0    0  0.58077462503E+03  0.10230122659E+03 -0.68991795460E+03  0.90810323759E+03  0.30000000000E+02 0.  1.
    -200000    1    3    3    0    0 -0.91942838695E+01 -0.22125450474E+03 -0.29025761827E+03  0.37879885914E+03  0.10100000000E+03 0. -1.
<mgrwt>
<rscale>  0 0.17563518E+04</rscale>
<asrwt>0</asrwt>
<pdfrwt beam="1">  1        2 0.27436353E+00 0.17563518E+04</pdfrwt>
<pdfrwt beam="2">  1       -2 0.57364152E-01 0.17563518E+04</pdfrwt>
<totfact> 0.23842614E+01</totfact>
</mgrwt>
</event>
<event>
 8    2  0.7266322E-052  0.1290854E+04  0.7818608E-02  0.9036849E-01
         -2   -1    0    0    0  501 -0.00000000000E+00  0.00000000000E+00  0.10023963850E+03  0.10023963853E+03  0.25500000000E-02 0. -1.
          2   -1    0    0  501    0  0.00000000000E+00 -0.00000000000E+00 -0.41558021915E+04  0.41558021915E+04  0.25500000000E-02 0.  1.
    -200001    2    1    2    0    0  0.18845354788E+03  0.56302840100E+02 -0.19109286040E+04  0.20168659716E+04  0.61434149181E+03 0.  0.
   -5000001    2    3    3    0    0  0.10500238887E+03  0.18440950274E+03 -0.21241406617E+03  0.30849597422E+03  0.70835473001E+02 0.  0.
     200001    1    1    2    0    0 -0.18845354788E+03 -0.56302840100E+02 -0.21446339490E+04  0.22391758584E+04  0.61300000000E+03 0.  1.
         11    1    4    4    0    0  0.87927116938E+02  0.15439798082E+03 -0.17518876905E+03  0.24952158059E+03  0.51100000000E-03 0.  1.
    -200002    1    4    4    0    0  0.17075271927E+02  0.30011521914E+02 -0.37225297115E+02  0.58974393632E+02  0.30000000000E+02 0. -1.
    -200000    1    3    3    0    0  0.83451159011E+02 -0.12810666264E+03 -0.16985145378E+04  0.17083699974E+04  0.10100000000E+03 0.  1.
<mgrwt>
<rscale>  0 0.12908542E+04</rscale>
<asrwt>0</asrwt>
<pdfrwt beam="1">  1        2 0.59368592E+00 0.12908542E+04</pdfrwt>
<pdfrwt beam="2">  1       -2 0.14319951E-01 0.12908542E+04</pdfrwt>
<totfact> 0.17017960E+01</totfact>
</mgrwt>
</event>
<event>
 8    2  0.7266322E-052  0.1381459E+04  0.7818608E-02  0.8967350E-01
         -2   -1    0    0    0  501 -0.00000000000E+00  0.00000000000E+00  0.17704587643E+03  0.17704587645E+03  0.25500000000E-02 0. -1.
          2   -1    0    0  501    0  0.00000000000E+00 -0.00000000000E+00 -0.26948217768E+04  0.26948217768E+04  0.25500000000E-02 0.  1.
    -200001    2    1    2    0    0 -0.44681843931E+02 -0.35257394982E+02 -0.19095718171E+04  0.20064655744E+04  0.61335146997E+03 0.  0.
   -5000001    2    3    3    0    0 -0.30699717251E+02  0.26335741160E+03 -0.62171602540E+03  0.68051691677E+03  0.79201381929E+02 0.  0.
     200001    1    1    2    0    0  0.44681843931E+02  0.35257394982E+02 -0.60820408328E+03  0.86540207880E+03  0.61300000000E+03 0. -1.
         11    1    4    4    0    0  0.22714871170E+02  0.84868135019E+02 -0.18713107837E+03  0.20672833915E+03  0.51100000000E-03 0.  1.
    -200002    1    4    4    0    0 -0.53414588421E+02  0.17848927658E+03 -0.43458494702E+03  0.47378857763E+03  0.30000000000E+02 0.  1.
    -200000    1    3    3    0    0 -0.13982126680E+02 -0.29861480658E+03 -0.12878557917E+04  0.13259486577E+04  0.10100000000E+03 0.  1.
<mgrwt>
<rscale>  0 0.13814588E+04</rscale>
<asrwt>0</asrwt>
<pdfrwt beam="1">  1        2 0.38497451E+00 0.13814588E+04</pdfrwt>
<pdfrwt beam="2">  1       -2 0.25292270E-01 0.13814588E+04</pdfrwt>
<totfact> 0.47731677E+01</totfact>
</mgrwt>
</event>
<event>
 8    2  0.7266322E-052  0.1395939E+04  0.7818608E-02  0.8956763E-01
          2   -1    0    0  501    0  0.00000000000E+00  0.00000000000E+00  0.68147373003E+03  0.68147373003E+03  0.25500000000E-02 0.  1.
         -2   -1    0    0    0  501 -0.00000000000E+00 -0.00000000000E+00 -0.71486447477E+03  0.71486447478E+03  0.25500000000E-02 0. -1.
    -200001    2    1    2    0    0 -0.30066003121E+03 -0.11580314393E+02  0.12701006211E+03  0.69489114559E+03  0.61336089726E+03 0.  0.
   -5000001    2    3    3    0    0 -0.38228766805E+03  0.15274881468E+03 -0.49251194703E+02  0.42114643895E+03  0.73909277738E+02 0.  0.
     200001    1    1    2    0    0  0.30066003121E+03  0.11580314393E+02 -0.16040080685E+03  0.70144705922E+03  0.61300000000E+03 0. -1.
         11    1    4    4    0    0 -0.24655508915E+03  0.12123697219E+03 -0.18788140781E+02  0.27539210164E+03  0.51100000000E-03 0.  1.
    -200002    1    4    4    0    0 -0.13573257890E+03  0.31511842492E+02 -0.30463053922E+02  0.14575433731E+03  0.30000000000E+02 0.  1.
    -200000    1    3    3    0    0  0.81627636832E+02 -0.16432912908E+03  0.17626125681E+03  0.27374470663E+03  0.10100000000E+03 0.  1.
<mgrwt>
<rscale>  0 0.13959389E+04</rscale>
<asrwt>0</asrwt>
<pdfrwt beam="1">  1        2 0.97353390E-01 0.13959389E+04</pdfrwt>
<pdfrwt beam="2">  1       -2 0.10212350E+00 0.13959389E+04</pdfrwt>
<totfact> 0.35651327E+01</totfact>
</mgrwt>
</event>
<event>
 8    2  0.7266322E-052  0.1617952E+04  0.7818608E-02  0.8809595E-01
         -2   -1    0    0    0  501 -0.00000000000E+00  0.00000000000E+00  0.12857711486E+04  0.12857711486E+04  0.25500000000E-02 0. -1.
          2   -1    0    0  501    0  0.00000000000E+00 -0.00000000000E+00 -0.50898800736E+03  0.50898800736E+03  0.25500000000E-02 0.  1.
    -200001    2    1    2    0    0  0.39700828017E+03 -0.37848268858E+02  0.48539096744E+01  0.73141922699E+03  0.61310884776E+03 0.  0.
   -5000001    2    3    3    0    0  0.23882714010E+03 -0.23698184767E+03 -0.16759512026E+03  0.40797661507E+03  0.15861272061E+03 0.  0.
     200001    1    1    2    0    0 -0.39700828017E+03  0.37848268858E+02  0.77192923154E+03  0.10633399289E+04  0.61300000000E+03 0. -1.
         11    1    4    4    0    0  0.22461895698E+03 -0.13436093756E+03 -0.13917418622E+03  0.29643884949E+03  0.51100000000E-03 0.  1.
    -200002    1    4    4    0    0  0.14208183118E+02 -0.10262091011E+03 -0.28420934036E+02  0.11153776558E+03  0.30000000000E+02 0.  1.
    -200000    1    3    3    0    0  0.15818114007E+03  0.19913357881E+03  0.17244902993E+03  0.32344261192E+03  0.10100000000E+03 0.  1.
<mgrwt>
<rscale>  0 0.16179519E+04</rscale>
<asrwt>0</asrwt>
<pdfrwt beam="1">  1        2 0.72712573E-01 0.16179519E+04</pdfrwt>
<pdfrwt beam="2">  1       -2 0.18368159E+00 0.16179519E+04</pdfrwt>
<totfact> 0.10790095E+01</totfact>
</mgrwt>
</event>
<event>
 8    2  0.7266322E-052  0.1565253E+04  0.7818608E-02  0.8842183E-01
          2   -1    0    0  501    0  0.00000000000E+00  0.00000000000E+00  0.19588080826E+04  0.19588080826E+04  0.25500000000E-02 0.  1.
         -2   -1    0    0    0  501 -0.00000000000E+00 -0.00000000000E+00 -0.31269237021E+03  0.31269237022E+03  0.25500000000E-02 0. -1.
    -200001    2    1    2    0    0  0.14022787276E+03 -0.25692869514E+02  0.14669577759E+03  0.64535374336E+03  0.61207664803E+03 0.  0.
   -5000001    2    3    3    0    0  0.15254110596E+03  0.20793100054E+03  0.14458328428E+03  0.39052597604E+03  0.25515117455E+03 0.  0.
     200001    1    1    2    0    0 -0.14022787276E+03  0.25692869514E+02  0.14994199348E+04  0.16261467095E+04  0.61300000000E+03 0. -1.
         11    1    4    4    0    0  0.10974002832E+03 -0.32092781097E+02  0.68858888111E+02  0.13347047197E+03  0.51100000000E-03 0.  1.
    -200002    1    4    4    0    0  0.42801077639E+02  0.24002378164E+03  0.75724396168E+02  0.25705550407E+03  0.30000000000E+02 0.  1.
    -200000    1    3    3    0    0 -0.12313233198E+02 -0.23362387006E+03  0.21124933154E+01  0.25482776732E+03  0.10100000000E+03 0.  1.
<mgrwt>
<rscale>  0 0.15652531E+04</rscale>
<asrwt>0</asrwt>
<pdfrwt beam="1">  1        2 0.27982973E+00 0.15652531E+04</pdfrwt>
<pdfrwt beam="2">  1       -2 0.44670338E-01 0.15652531E+04</pdfrwt>
<totfact> 0.38562672E+01</totfact>
</mgrwt>
</event>
<event>
 8    2  0.7266322E-052  0.1257915E+04  0.7818608E-02  0.9063621E-01
         -2   -1    0    0    0  501 -0.00000000000E+00  0.00000000000E+00  0.22014363407E+03  0.22014363408E+03  0.25500000000E-02 0. -1.
          2   -1    0    0  501    0  0.00000000000E+00 -0.00000000000E+00 -0.17969533632E+04  0.17969533632E+04  0.25500000000E-02 0.  1.
    -200001    2    1    2    0    0 -0.30738094475E+02  0.13399918994E+03 -0.78844893604E+03  0.10090382919E+04  0.61449649020E+03 0.  0.
   -5000001    2    3    3    0    0  0.21757691033E+03  0.15082861130E+02 -0.63990398254E+03  0.68030125708E+03  0.75930816544E+02 0.  0.
     200001    1    1    2    0    0  0.30738094475E+02 -0.13399918994E+03 -0.78836079306E+03  0.10080587053E+04  0.61300000000E+03 0.  1.
         11    1    4    4    0    0  0.10311991171E+03  0.18507100662E+02 -0.38923495355E+03  0.40308817649E+03  0.51100000000E-03 0.  1.
    -200002    1    4    4    0    0  0.11445699863E+03 -0.34242395326E+01 -0.25066902899E+03  0.27721308058E+03  0.30000000000E+02 0. -1.
    -200000    1    3    3    0    0 -0.24831500481E+03  0.11891632881E+03 -0.14854495351E+03  0.32873703485E+03  0.10100000000E+03 0. -1.
<mgrwt>
<rscale>  0 0.12579155E+04</rscale>
<asrwt>0</asrwt>
<pdfrwt beam="1">  1        2 0.25670761E+00 0.12579155E+04</pdfrwt>
<pdfrwt beam="2">  1       -2 0.31449092E-01 0.12579155E+04</pdfrwt>
<totfact> 0.94230306E+01</totfact>
</mgrwt>
</event>
<event>
 8    2  0.7266322E-052  0.1439441E+04  0.7818608E-02  0.8925753E-01
         -2   -1    0    0    0  501 -0.00000000000E+00  0.00000000000E+00  0.21006555985E+03  0.21006555987E+03  0.25500000000E-02 0. -1.
          2   -1    0    0  501    0  0.00000000000E+00 -0.00000000000E+00 -0.24658866171E+04  0.24658866171E+04  0.25500000000E-02 0.  1.
    -200001    2    1    2    0    0 -0.33216942121E+03 -0.12068169791E+03 -0.88476722424E+03  0.11330788155E+04  0.61331391994E+03 0.  0.
   -5000001    2    3    3    0    0 -0.12048651341E+03 -0.19004136372E+03 -0.43315411214E+03  0.61948771380E+03  0.38145749809E+03 0.  0.
     200001    1    1    2    0    0  0.33216942121E+03  0.12068169791E+03 -0.13710538330E+04  0.15428733615E+04  0.61300000000E+03 0.  1.
         11    1    4    4    0    0 -0.35267010432E+02 -0.28792067266E+03 -0.20466401872E+03  0.35500624829E+03  0.51100000000E-03 0.  1.
    -200002    1    4    4    0    0 -0.85219502974E+02  0.97879308941E+02 -0.22849009342E+03  0.26448146551E+03  0.30000000000E+02 0.  1.
    -200000    1    3    3    0    0 -0.21168290781E+03  0.69359665808E+02 -0.45161311210E+03  0.51359110168E+03  0.10100000000E+03 0.  1.
<mgrwt>
<rscale>  0 0.14394414E+04</rscale>
<asrwt>0</asrwt>
<pdfrwt beam="1">  1        2 0.35226950E+00 0.14394414E+04</pdfrwt>
<pdfrwt beam="2">  1       -2 0.30009367E-01 0.14394414E+04</pdfrwt>
<totfact> 0.45834053E+01</totfact>
</mgrwt>
</event>
<event>
 8    2  0.7266322E-052  0.1970879E+04  0.7818608E-02  0.8620358E-01
         -2   -1    0    0    0  501 -0.00000000000E+00  0.00000000000E+00  0.32977227724E+03  0.32977227725E+03  0.25500000000E-02 0. -1.
          2   -1    0    0  501    0  0.00000000000E+00 -0.00000000000E+00 -0.29447306632E+04  0.29447306632E+04  0.25500000000E-02 0.  1.
    -200001    2    1    2    0    0 -0.68620085657E+03 -0.50872578509E+02 -0.72884410095E+03  0.11752993460E+04  0.61372240830E+03 0.  0.
   -5000001    2    3    3    0    0 -0.96384930642E+02  0.10520245191E+03 -0.39825682858E+02  0.24945399064E+03  0.20070774197E+03 0.  0.
     200001    1    1    2    0    0  0.68620085657E+03  0.50872578509E+02 -0.18861142850E+04  0.20992035945E+04  0.61300000000E+03 0.  1.
         11    1    4    4    0    0 -0.97117060935E+02  0.15005265081E+03 -0.64627413838E+02  0.19006373710E+03  0.51100000000E-03 0.  1.
    -200002    1    4    4    0    0  0.73213029239E+00 -0.44850198900E+02  0.24801730980E+02  0.59390253542E+02  0.30000000000E+02 0.  1.
    -200000    1    3    3    0    0 -0.58981592593E+03 -0.15607503042E+03 -0.68901841809E+03  0.92584535537E+03  0.10100000000E+03 0.  1.
<mgrwt>
<rscale>  0 0.19708785E+04</rscale>
<asrwt>0</asrwt>
<pdfrwt beam="1">  1        2 0.42067579E+00 0.19708785E+04</pdfrwt>
<pdfrwt beam="2">  1       -2 0.47110327E-01 0.19708785E+04</pdfrwt>
<totfact> 0.10117405E+01</totfact>
</mgrwt>
</event>
<event>
 8    2  0.7266322E-052  0.1475118E+04  0.7818608E-02  0.8901170E-01
         -2   -1    0    0    0  501 -0.00000000000E+00  0.00000000000E+00  0.44699711041E+03  0.44699711042E+03  0.25500000000E-02 0. -1.
          2   -1    0    0  501    0  0.00000000000E+00 -0.00000000000E+00 -0.12169957811E+04  0.12169957811E+04  0.25500000000E-02 0.  1.
    -200001    2    1    2    0    0 -0.12340319446E+03  0.37192551173E+03 -0.24878631389E+03  0.76901341939E+03  0.61313136810E+03 0.  0.
   -5000001    2    3    3    0    0 -0.30717794132E+03  0.17411740902E+03  0.33779707400E+02  0.36534801404E+03  0.87538237251E+02 0.  0.
     200001    1    1    2    0    0  0.12340319446E+03 -0.37192551173E+03 -0.52121235683E+03  0.89497947216E+03  0.61300000000E+03 0.  1.
         11    1    4    4    0    0 -0.22009361982E+03  0.85955224577E+02  0.21691820839E+02  0.23727628876E+03  0.51100000000E-03 0.  1.
    -200002    1    4    4    0    0 -0.87084321499E+02  0.88162184438E+02  0.12087886561E+02  0.12807172528E+03  0.30000000000E+02 0.  1.
    -200000    1    3    3    0    0  0.18377474686E+03  0.19780810271E+03 -0.28256602129E+03  0.40366540535E+03  0.10100000000E+03 0.  1.
<mgrwt>
<rscale>  0 0.14751184E+04</rscale>
<asrwt>0</asrwt>
<pdfrwt beam="1">  1        2 0.17385654E+00 0.14751184E+04</pdfrwt>
<pdfrwt beam="2">  1       -2 0.63856730E-01 0.14751184E+04</pdfrwt>
<totfact> 0.45956195E+01</totfact>
</mgrwt>
</event>
<event>
 8    2  0.7266322E-052  0.1334280E+04  0.7818608E-02  0.9002814E-01
          2   -1    0    0  501    0  0.00000000000E+00  0.00000000000E+00  0.16250746291E+04  0.16250746291E+04  0.25500000000E-02 0.  1.
         -2   -1    0    0    0  501 -0.00000000000E+00 -0.00000000000E+00 -0.27388026536E+03  0.27388026537E+03  0.25500000000E-02 0. -1.
    -200001    2    1    2    0    0 -0.12981743414E+03  0.20664105299E+03  0.53880019556E+03  0.85238603602E+03  0.61376152752E+03 0.  0.
   -5000001    2    3    3    0    0 -0.10711474192E+03  0.91703529365E+02  0.64267198975E+03  0.66606267141E+03  0.10358132364E+03 0.  0.
     200001    1    1    2    0    0  0.12981743414E+03 -0.20664105299E+03  0.81239416817E+03  0.10465688584E+04  0.61300000000E+03 0.  1.
         11    1    4    4    0    0 -0.10483701366E+03  0.97976219528E+02  0.55091153217E+03  0.56929224068E+03  0.51100000000E-03 0.  1.
    -200002    1    4    4    0    0 -0.22777282585E+01 -0.62726901635E+01  0.91760457581E+02  0.96770430729E+02  0.30000000000E+02 0. -1.
    -200000    1    3    3    0    0 -0.22702692219E+02  0.11493752362E+03 -0.10387179418E+03  0.18632336460E+03  0.10100000000E+03 0. -1.
<mgrwt>
<rscale>  0 0.13342801E+04</rscale>
<asrwt>0</asrwt>
<pdfrwt beam="1">  1        2 0.23215352E+00 0.13342801E+04</pdfrwt>
<pdfrwt beam="2">  1       -2 0.39125752E-01 0.13342801E+04</pdfrwt>
<totfact> 0.75820168E+01</totfact>
</mgrwt>
</event>
<event>
 8    2  0.7266322E-052  0.2153321E+04  0.7818608E-02  0.8538112E-01
         -2   -1    0    0    0  501 -0.00000000000E+00  0.00000000000E+00  0.43172789731E+03  0.43172789731E+03  0.25500000000E-02 0. -1.
          2   -1    0    0  501    0  0.00000000000E+00 -0.00000000000E+00 -0.26850193618E+04  0.26850193618E+04  0.25500000000E-02 0.  1.
    -200001    2    1    2    0    0  0.32726703309E+03 -0.78538624416E+03 -0.77225741015E+03  0.13020389813E+04  0.61236324008E+03 0.  0.
   -5000001    2    3    3    0    0 -0.38119620227E+02 -0.49528040549E+03 -0.49462392323E+03  0.74981605790E+03  0.26611183692E+03 0.  0.
     200001    1    1    2    0    0 -0.32726703309E+03  0.78538624416E+03 -0.14810340543E+04  0.18147082778E+04  0.61300000000E+03 0. -1.
         11    1    4    4    0    0  0.63452153007E+02 -0.43663760345E+03 -0.40804088150E+03  0.60097914560E+03  0.51100000000E-03 0.  1.
    -200002    1    4    4    0    0 -0.10157177323E+03 -0.58642802042E+02 -0.86583041727E+02  0.14883691230E+03  0.30000000000E+02 0.  1.
    -200000    1    3    3    0    0  0.36538665332E+03 -0.29010583867E+03 -0.27763348692E+03  0.55222292339E+03  0.10100000000E+03 0.  1.
<mgrwt>
<rscale>  0 0.21533209E+04</rscale>
<asrwt>0</asrwt>
<pdfrwt beam="1">  1        2 0.38357419E+00 0.21533209E+04</pdfrwt>
<pdfrwt beam="2">  1       -2 0.61675415E-01 0.21533209E+04</pdfrwt>
<totfact> 0.79063405E+00</totfact>
</mgrwt>
</event>
<event>
 8    2  0.7266322E-052  0.1465709E+04  0.7818608E-02  0.8907582E-01
          2   -1    0    0  501    0  0.00000000000E+00  0.00000000000E+00  0.19259134647E+04  0.19259134648E+04  0.25500000000E-02 0.  1.
         -2   -1    0    0    0  501 -0.00000000000E+00 -0.00000000000E+00 -0.27886803459E+03  0.27886803460E+03  0.25500000000E-02 0. -1.
    -200001    2    1    2    0    0  0.20938096293E+03  0.22216122034E+03  0.43068814604E+03  0.80889825277E+03  0.61288506976E+03 0.  0.
   -5000001    2    3    3    0    0 -0.10616464521E+03  0.82480725108E+02 -0.80033199076E+02  0.18430481387E+03  0.97411239361E+02 0.  0.
     200001    1    1    2    0    0 -0.20938096293E+03 -0.22216122034E+03  0.12163572841E+04  0.13958832466E+04  0.61300000000E+03 0.  1.
         11    1    4    4    0    0 -0.55911429164E+02  0.83072796158E+02 -0.75860633591E+02  0.12562648249E+03  0.51100000000E-03 0.  1.
    -200002    1    4    4    0    0 -0.50253216046E+02 -0.59207105010E+00 -0.41725654851E+01  0.58678331383E+02  0.30000000000E+02 0.  1.
    -200000    1    3    3    0    0  0.31554560814E+03  0.13968049523E+03  0.51072134511E+03  0.62459343890E+03  0.10100000000E+03 0.  1.
<mgrwt>
<rscale>  0 0.14657090E+04</rscale>
<asrwt>0</asrwt>
<pdfrwt beam="1">  1        2 0.27513049E+00 0.14657090E+04</pdfrwt>
<pdfrwt beam="2">  1       -2 0.39838291E-01 0.14657090E+04</pdfrwt>
<totfact> 0.50649118E+01</totfact>
</mgrwt>
</event>
<event>
 8    2  0.7266322E-052  0.2262864E+04  0.7818608E-02  0.8492709E-01
          2   -1    0    0  501    0  0.00000000000E+00  0.00000000000E+00  0.54169407916E+03  0.54169407917E+03  0.25500000000E-02 0.  1.
         -2   -1    0    0    0  501 -0.00000000000E+00 -0.00000000000E+00 -0.23632125920E+04  0.23632125920E+04  0.25500000000E-02 0. -1.
    -200001    2    1    2    0    0  0.51931842860E+03  0.67248085412E+03 -0.14592465656E+04  0.17963345747E+04  0.61277666021E+03 0.  0.
   -5000001    2    3    3    0    0  0.29877559102E+03  0.64207255528E+03 -0.13471197383E+04  0.15273787544E+04  0.12895832630E+03 0.  0.
     200001    1    1    2    0    0 -0.51931842860E+03 -0.67248085412E+03 -0.36227194717E+03  0.11085720965E+04  0.61300000000E+03 0.  1.
         11    1    4    4    0    0  0.23745301621E+03  0.55347993013E+03 -0.10584811678E+04  0.12178285391E+04  0.51100000000E-03 0.  1.
    -200002    1    4    4    0    0  0.61322574807E+02  0.88592625153E+02 -0.28863857050E+03  0.30955021530E+03  0.30000000000E+02 0.  1.
    -200000    1    3    3    0    0  0.22054283758E+03  0.30408298837E+02 -0.11212682730E+03  0.26895582025E+03  0.10100000000E+03 0.  1.
<mgrwt>
<rscale>  0 0.22628639E+04</rscale>
<asrwt>0</asrwt>
<pdfrwt beam="1">  1        2 0.77384869E-01 0.22628639E+04</pdfrwt>
<pdfrwt beam="2">  1       -2 0.33760179E+00 0.22628639E+04</pdfrwt>
<totfact> 0.10410104E+00</totfact>
</mgrwt>
</event>
<event>
 8    2  0.7266322E-052  0.2035622E+04  0.7818608E-02  0.8590145E-01
          2   -1    0    0  501    0  0.00000000000E+00  0.00000000000E+00  0.17802035726E+04  0.17802035726E+04  0.25500000000E-02 0.  1.
         -2   -1    0    0    0  501 -0.00000000000E+00 -0.00000000000E+00 -0.58192156045E+03  0.58192156046E+03  0.25500000000E-02 0. -1.
    -200001    2    1    2    0    0  0.28322457999E+03 -0.72983095175E+03  0.85354487654E+03  0.13097553912E+04  0.61159704685E+03 0.  0.
   -5000001    2    3    3    0    0 -0.61052051109E+01 -0.50423090061E+03  0.75511295608E+03  0.91669439012E+03  0.12588468444E+03 0.  0.
     200001    1    1    2    0    0 -0.28322457999E+03  0.72983095175E+03  0.34473713557E+03  0.10523697418E+04  0.61300000000E+03 0. -1.
         11    1    4    4    0    0 -0.27837325802E+02 -0.21689825986E+02  0.41867406759E+02  0.54756232596E+02  0.51100000000E-03 0.  1.
    -200002    1    4    4    0    0  0.21732120692E+02 -0.48254107462E+03  0.71324554932E+03  0.86193815752E+03  0.30000000000E+02 0.  1.
    -200000    1    3    3    0    0  0.28932978510E+03 -0.22560005114E+03  0.98431920459E+02  0.39306100110E+03  0.10100000000E+03 0. -1.
<mgrwt>
<rscale>  0 0.20356216E+04</rscale>
<asrwt>0</asrwt>
<pdfrwt beam="1">  1        2 0.25431479E+00 0.20356216E+04</pdfrwt>
<pdfrwt beam="2">  1       -2 0.83131652E-01 0.20356216E+04</pdfrwt>
<totfact> 0.12284129E+01</totfact>
</mgrwt>
</event>
<event>
 8    2  0.7266322E-052  0.1476139E+04  0.7818608E-02  0.8900477E-01
         -2   -1    0    0    0  501 -0.00000000000E+00  0.00000000000E+00  0.24553807637E+03  0.24553807638E+03  0.25500000000E-02 0. -1.
          2   -1    0    0  501    0  0.00000000000E+00 -0.00000000000E+00 -0.22185843020E+04  0.22185843020E+04  0.25500000000E-02 0.  1.
    -200001    2    1    2    0    0  0.15420362535E+03  0.32852099870E+03 -0.67532628710E+03  0.98373363095E+03  0.61641013778E+03 0.  0.
   -5000001    2    3    3    0    0 -0.19223864330E+03  0.19371422054E+03 -0.39961014318E+03  0.51000849445E+03  0.16105745141E+03 0.  0.
     200001    1    1    2    0    0 -0.15420362535E+03 -0.32852099870E+03 -0.12977199385E+04  0.14803887474E+04  0.61300000000E+03 0.  1.
         11    1    4    4    0    0 -0.49945580076E+02 -0.18621088752E+02 -0.11216730946E+03  0.12418861150E+03  0.51100000000E-03 0.  1.
    -200002    1    4    4    0    0 -0.14229306322E+03  0.21233530930E+03 -0.28744283373E+03  0.38581988294E+03  0.30000000000E+02 0.  1.
    -200000    1    3    3    0    0  0.34644226864E+03  0.13480677816E+03 -0.27571614392E+03  0.47372513650E+03  0.10100000000E+03 0.  1.
<mgrwt>
<rscale>  0 0.14761395E+04</rscale>
<asrwt>0</asrwt>
<pdfrwt beam="1">  1        2 0.31694060E+00 0.14761395E+04</pdfrwt>
<pdfrwt beam="2">  1       -2 0.35076869E-01 0.14761395E+04</pdfrwt>
<totfact> 0.45759344E+01</totfact>
</mgrwt>
</event>
<event>
 8    2  0.7266322E-052  0.1458762E+04  0.7818608E-02  0.8912349E-01
          2   -1    0    0  501    0  0.00000000000E+00  0.00000000000E+00  0.18159008552E+04  0.18159008552E+04  0.25500000000E-02 0.  1.
         -2   -1    0    0    0  501 -0.00000000000E+00 -0.00000000000E+00 -0.29296554011E+03  0.29296554012E+03  0.25500000000E-02 0. -1.
    -200001    2    1    2    0    0  0.21905938807E+03 -0.28368622251E+02  0.28685198294E+03  0.71156084597E+03  0.61257079850E+03 0.  0.
   -5000001    2    3    3    0    0 -0.17902490699E+02 -0.58326482620E+02  0.41061641481E+03  0.42421603571E+03  0.87355177845E+02 0.  0.
     200001    1    1    2    0    0 -0.21905938807E+03  0.28368622251E+02  0.12360833321E+04  0.13973055493E+04  0.61300000000E+03 0.  1.
         11    1    4    4    0    0 -0.63820672665E+01 -0.29118034327E+02  0.34007649492E+03  0.34138045214E+03  0.51100000000E-03 0.  1.
    -200002    1    4    4    0    0 -0.11520423433E+02 -0.29208448293E+02  0.70539919887E+02  0.82835583570E+02  0.30000000000E+02 0.  1.
    -200000    1    3    3    0    0  0.23696187876E+03  0.29957860369E+02 -0.12376443187E+03  0.28734481026E+03  0.10100000000E+03 0. -1.
<mgrwt>
<rscale>  0 0.14587616E+04</rscale>
<asrwt>0</asrwt>
<pdfrwt beam="1">  1        2 0.25941440E+00 0.14587616E+04</pdfrwt>
<pdfrwt beam="2">  1       -2 0.41852221E-01 0.14587616E+04</pdfrwt>
<totfact> 0.52411812E+01</totfact>
</mgrwt>
</event>
<event>
 8    2  0.7266322E-052  0.1314847E+04  0.7818608E-02  0.9017873E-01
         -2   -1    0    0    0  501 -0.00000000000E+00  0.00000000000E+00  0.41486860579E+03  0.41486860579E+03  0.25500000000E-02 0. -1.
          2   -1    0    0  501    0  0.00000000000E+00 -0.00000000000E+00 -0.10417898691E+04  0.10417898691E+04  0.25500000000E-02 0.  1.
    -200001    2    1    2    0    0  0.20150997769E+03  0.12262175234E+03 -0.27822612654E+03  0.71301900336E+03  0.61265321056E+03 0.  0.
   -5000001    2    3    3    0    0  0.13422040323E+03 -0.21150773013E+03 -0.10942250820E+02  0.26825831703E+03  0.95352793642E+02 0.  0.
     200001    1    1    2    0    0 -0.20150997769E+03 -0.12262175234E+03 -0.34869513682E+03  0.74363947158E+03  0.61300000000E+03 0.  1.
         11    1    4    4    0    0  0.29073601500E+01 -0.27657717689E+02  0.25162599566E+02  0.37504113214E+02  0.51100000000E-03 0.  1.
    -200002    1    4    4    0    0  0.13131304308E+03 -0.18385001244E+03 -0.36104850386E+02  0.23075420382E+03  0.30000000000E+02 0.  1.
    -200000    1    3    3    0    0  0.67289574455E+02  0.33412948247E+03 -0.26728387572E+03  0.44476068633E+03  0.10100000000E+03 0.  1.
<mgrwt>
<rscale>  0 0.13148474E+04</rscale>
<asrwt>0</asrwt>
<pdfrwt beam="1">  1        2 0.14882712E+00 0.13148474E+04</pdfrwt>
<pdfrwt beam="2">  1       -2 0.59266944E-01 0.13148474E+04</pdfrwt>
<totfact> 0.68976421E+01</totfact>
</mgrwt>
</event>
<event>
 8    2  0.7266322E-052  0.1552883E+04  0.7818608E-02  0.8850029E-01
         -2   -1    0    0    0  501 -0.00000000000E+00  0.00000000000E+00  0.43798049664E+03  0.43798049664E+03  0.25500000000E-02 0. -1.
          2   -1    0    0  501    0  0.00000000000E+00 -0.00000000000E+00 -0.13764565868E+04  0.13764565868E+04  0.25500000000E-02 0.  1.
    -200001    2    1    2    0    0 -0.23550424038E+02 -0.33527939115E+03 -0.86530605316E+03  0.11115219058E+04  0.61135872353E+03 0.  0.
   -5000001    2    3    3    0    0  0.10491340258E+03  0.94746203754E+02 -0.96854083956E+02  0.21589676324E+03  0.13132796211E+03 0.  0.
     200001    1    1    2    0    0  0.23550424038E+02  0.33527939115E+03 -0.73170036966E+02  0.70291517761E+03  0.61300000000E+03 0. -1.
         11    1    4    4    0    0  0.12658333524E+03  0.90276371901E+02 -0.81931472549E+02  0.17574393383E+03  0.51100000000E-03 0.  1.
    -200002    1    4    4    0    0 -0.21669932660E+02  0.44698318526E+01 -0.14922611407E+02  0.40152829408E+02  0.30000000000E+02 0.  1.
    -200000    1    3    3    0    0 -0.12846382661E+03 -0.43002559491E+03 -0.76845196921E+03  0.89562514257E+03  0.10100000000E+03 0.  1.
<mgrwt>
<rscale>  0 0.15528827E+04</rscale>
<asrwt>0</asrwt>
<pdfrwt beam="1">  1        2 0.19663665E+00 0.15528827E+04</pdfrwt>
<pdfrwt beam="2">  1       -2 0.62568643E-01 0.15528827E+04</pdfrwt>
<totfact> 0.38922174E+01</totfact>
</mgrwt>
</event>
<event>
 8    2  0.7266322E-052  0.1636105E+04  0.7818608E-02  0.8798669E-01
          2   -1    0    0  501    0  0.00000000000E+00  0.00000000000E+00  0.10978663228E+04  0.10978663228E+04  0.25500000000E-02 0.  1.
         -2   -1    0    0    0  501 -0.00000000000E+00 -0.00000000000E+00 -0.60955503059E+03  0.60955503060E+03  0.25500000000E-02 0. -1.
    -200001    2    1    2    0    0  0.37800893824E+03 -0.25378097544E+03  0.55073071789E+03  0.94128773220E+03  0.61271749631E+03 0.  0.
   -5000001    2    3    3    0    0  0.25311862077E+03 -0.22718465363E+03  0.65951264650E+03  0.74548307515E+03  0.71457549776E+02 0.  0.
     200001    1    1    2    0    0 -0.37800893824E+03  0.25378097544E+03 -0.62419425650E+02  0.76613362123E+03  0.61300000000E+03 0. -1.
         11    1    4    4    0    0  0.16655682208E+03 -0.15872025198E+03  0.48542843026E+03  0.53719089184E+03  0.51100000000E-03 0.  1.
    -200002    1    4    4    0    0  0.86561798689E+02 -0.68464401646E+02  0.17408421624E+03  0.20829218331E+03  0.30000000000E+02 0.  1.
    -200000    1    3    3    0    0  0.12489031747E+03 -0.26596321810E+02 -0.10878192861E+03  0.19580465705E+03  0.10100000000E+03 0. -1.
<mgrwt>
<rscale>  0 0.16361051E+04</rscale>
<asrwt>0</asrwt>
<pdfrwt beam="1">  1        2 0.15683805E+00 0.16361051E+04</pdfrwt>
<pdfrwt beam="2">  1       -2 0.87079290E-01 0.16361051E+04</pdfrwt>
<totfact> 0.26785481E+01</totfact>
</mgrwt>
</event>
<event>
 8    2  0.7266322E-052  0.1659727E+04  0.7818608E-02  0.8784673E-01
         -2   -1    0    0    0  501 -0.00000000000E+00  0.00000000000E+00  0.83580984482E+03  0.83580984482E+03  0.25500000000E-02 0. -1.
          2   -1    0    0  501    0  0.00000000000E+00 -0.00000000000E+00 -0.82395918983E+03  0.82395918984E+03  0.25500000000E-02 0.  1.
    -200001    2    1    2    0    0 -0.40741457017E+03 -0.38434682492E+03 -0.14942137043E+02  0.82898869815E+03  0.61097453334E+03 0.  0.
   -5000001    2    3    3    0    0  0.14257957081E+03 -0.10520769823E+03 -0.53970947053E+02  0.20278070142E+03  0.82520033698E+02 0.  0.
     200001    1    1    2    0    0  0.40741457017E+03  0.38434682492E+03  0.26792792025E+02  0.83078033650E+03  0.61300000000E+03 0. -1.
         11    1    4    4    0    0  0.66227540253E+02 -0.88545222936E+02 -0.19633471071E+02  0.11230234539E+03  0.51100000000E-03 0.  1.
    -200002    1    4    4    0    0  0.76352030559E+02 -0.16662475298E+02 -0.34337475982E+02  0.90478356032E+02  0.30000000000E+02 0.  1.
    -200000    1    3    3    0    0 -0.54999414099E+03 -0.27913912669E+03  0.39028810009E+02  0.62620799674E+03  0.10100000000E+03 0.  1.
<mgrwt>
<rscale>  0 0.16597267E+04</rscale>
<asrwt>0</asrwt>
<pdfrwt beam="1">  1        2 0.11770846E+00 0.16597267E+04</pdfrwt>
<pdfrwt beam="2">  1       -2 0.11940141E+00 0.16597267E+04</pdfrwt>
<totfact> 0.18820292E+01</totfact>
</mgrwt>
</event>
<event>
 8    2  0.7266322E-052  0.1449039E+04  0.7818608E-02  0.8919067E-01
          2   -1    0    0  501    0  0.00000000000E+00  0.00000000000E+00  0.28930197259E+04  0.28930197259E+04  0.25500000000E-02 0. -1.
         -2   -1    0    0    0  501 -0.00000000000E+00 -0.00000000000E+00 -0.18144647669E+03  0.18144647671E+03  0.25500000000E-02 0.  1.
    -200001    2    1    2    0    0 -0.36534688449E+03 -0.19049755548E+02  0.10958273624E+04  0.13080446759E+04  0.61343461495E+03 0.  0.
   -5000001    2    3    3    0    0  0.57577518660E+02 -0.16407863226E+03  0.93408096364E+02  0.20579977991E+03  0.58236661365E+02 0.  0.
     200001    1    1    2    0    0  0.36534688449E+03  0.19049755548E+02  0.16157458869E+04  0.17664215267E+04  0.61300000000E+03 0.  1.
         11    1    4    4    0    0  0.41478920393E+02 -0.11490651579E+03  0.50493291032E+02  0.13218767207E+03  0.51100000000E-03 0.  1.
    -200002    1    4    4    0    0  0.16098598267E+02 -0.49172116463E+02  0.42914805331E+02  0.73612107837E+02  0.30000000000E+02 0. -1.
    -200000    1    3    3    0    0 -0.42292440315E+03  0.14502887671E+03  0.10024192660E+04  0.11022448960E+04  0.10100000000E+03 0.  1.
<mgrwt>
<rscale>  0 0.14490386E+04</rscale>
<asrwt>0</asrwt>
<pdfrwt beam="1">  1        2 0.41328847E+00 0.14490386E+04</pdfrwt>
<pdfrwt beam="2">  1       -2 0.25920929E-01 0.14490386E+04</pdfrwt>
<totfact> 0.35451865E+01</totfact>
</mgrwt>
</event>
<event>
 8    2  0.7266322E-052  0.1823010E+04  0.7818608E-02  0.8694158E-01
          2   -1    0    0  501    0  0.00000000000E+00  0.00000000000E+00  0.44127338398E+03  0.44127338399E+03  0.25500000000E-02 0. -1.
         -2   -1    0    0    0  501 -0.00000000000E+00 -0.00000000000E+00 -0.18828275822E+04  0.18828275822E+04  0.25500000000E-02 0.  1.
    -200001    2    1    2    0    0  0.61069631957E+03 -0.27225635138E+03 -0.83379680118E+03  0.12322165542E+04  0.61324303099E+03 0.  0.
   -5000001    2    3    3    0    0  0.19387599516E+03 -0.40525569591E+03 -0.38212006944E+03  0.59531712843E+03  0.81034902140E+02 0.  0.
     200001    1    1    2    0    0 -0.61069631957E+03  0.27225635138E+03 -0.60775739704E+03  0.10918844120E+04  0.61300000000E+03 0. -1.
         11    1    4    4    0    0  0.11116728953E+03 -0.20754089237E+03 -0.15661077722E+03  0.28276902908E+03  0.51100000000E-03 0.  1.
    -200002    1    4    4    0    0  0.82708705624E+02 -0.19771480354E+03 -0.22550929222E+03  0.31254809934E+03  0.30000000000E+02 0.  1.
    -200000    1    3    3    0    0  0.41682032442E+03  0.13299934453E+03 -0.45167673174E+03  0.63689942572E+03  0.10100000000E+03 0.  1.
<mgrwt>
<rscale>  0 0.18230104E+04</rscale>
<asrwt>0</asrwt>
<pdfrwt beam="1">  1        2 0.63039056E-01 0.18230104E+04</pdfrwt>
<pdfrwt beam="2">  1       -2 0.26897536E+00 0.18230104E+04</pdfrwt>
<totfact> 0.35992929E+00</totfact>
</mgrwt>
</event>
<event>
 8    2  0.7266322E-052  0.1344516E+04  0.7818608E-02  0.8994990E-01
         -2   -1    0    0    0  501 -0.00000000000E+00  0.00000000000E+00  0.16138700975E+03  0.16138700977E+03  0.25500000000E-02 0. -1.
          2   -1    0    0  501    0  0.00000000000E+00 -0.00000000000E+00 -0.28002936683E+04  0.28002936683E+04  0.25500000000E-02 0.  1.
    -200001    2    1    2    0    0  0.23475806543E+03  0.12690717203E+03 -0.11682325164E+04  0.13461720238E+04  0.61334747550E+03 0.  0.
   -5000001    2    3    3    0    0  0.37115283087E+03 -0.50518264354E+02 -0.85885317677E+03  0.95120380571E+03  0.16387001509E+03 0.  0.
     200001    1    1    2    0    0 -0.23475806543E+03 -0.12690717203E+03 -0.14706741421E+04  0.16155086542E+04  0.61300000000E+03 0. -1.
         11    1    4    4    0    0  0.10044945717E+03  0.57244853221E+02 -0.22612232650E+03  0.25396529922E+03  0.51100000000E-03 0.  1.
    -200002    1    4    4    0    0  0.27070337370E+03 -0.10776311758E+03 -0.63273085027E+03  0.69723850649E+03  0.30000000000E+02 0.  1.
    -200000    1    3    3    0    0 -0.13639476545E+03  0.17742543639E+03 -0.30937933965E+03  0.39496821812E+03  0.10100000000E+03 0. -1.
<mgrwt>
<rscale>  0 0.13445163E+04</rscale>
<asrwt>0</asrwt>
<pdfrwt beam="1">  1        2 0.40004192E+00 0.13445163E+04</pdfrwt>
<pdfrwt beam="2">  1       -2 0.23055289E-01 0.13445163E+04</pdfrwt>
<totfact> 0.49658199E+01</totfact>
</mgrwt>
</event>
<event>
 8    2  0.7266322E-052  0.1642057E+04  0.7818608E-02  0.8795120E-01
          2   -1    0    0  501    0  0.00000000000E+00  0.00000000000E+00  0.10406284445E+04  0.10406284445E+04  0.25500000000E-02 0.  1.
         -2   -1    0    0    0  501 -0.00000000000E+00 -0.00000000000E+00 -0.64776958837E+03  0.64776958838E+03  0.25500000000E-02 0. -1.
    -200001    2    1    2    0    0  0.12143106655E+03  0.15497453903E+03 -0.32700308920E+03  0.72261708879E+03  0.61358114784E+03 0.  0.
   -5000001    2    3    3    0    0 -0.13797792466E+03 -0.11415018855E+03  0.25677057003E+02  0.19887533063E+03  0.82606976923E+02 0.  0.
     200001    1    1    2    0    0 -0.12143106655E+03 -0.15497453903E+03  0.71986194537E+03  0.96578094414E+03  0.61300000000E+03 0.  1.
         11    1    4    4    0    0 -0.43966573893E+02 -0.11030561312E+02  0.32825769930E+02  0.55966633582E+02  0.51100000000E-03 0.  1.
    -200002    1    4    4    0    0 -0.94011350766E+02 -0.10311962724E+03 -0.71487129276E+01  0.14290869704E+03  0.30000000000E+02 0.  1.
    -200000    1    3    3    0    0  0.25940899121E+03  0.26912472758E+03 -0.35268014620E+03  0.52374175816E+03  0.10100000000E+03 0. -1.
<mgrwt>
<rscale>  0 0.16420566E+04</rscale>
<asrwt>0</asrwt>
<pdfrwt beam="1">  1        2 0.14866120E+00 0.16420566E+04</pdfrwt>
<pdfrwt beam="2">  1       -2 0.92538514E-01 0.16420566E+04</pdfrwt>
<totfact> 0.25183042E+01</totfact>
</mgrwt>
</event>
<event>
 8    2  0.7266322E-052  0.1331940E+04  0.7818608E-02  0.9004613E-01
          2   -1    0    0  501    0  0.00000000000E+00  0.00000000000E+00  0.33602086371E+03  0.33602086372E+03  0.25500000000E-02 0.  1.
         -2   -1    0    0    0  501 -0.00000000000E+00 -0.00000000000E+00 -0.13199063103E+04  0.13199063103E+04  0.25500000000E-02 0. -1.
    -200001    2    1    2    0    0  0.89922132331E+01  0.25119272597E+03 -0.40797562715E+03  0.77807766207E+03  0.61301067722E+03 0.  0.
   -5000001    2    3    3    0    0 -0.40438531301E+02  0.37997258826E+03 -0.25681401856E+03  0.54987055581E+03  0.30064887390E+03 0.  0.
     200001    1    1    2    0    0 -0.89922132331E+01 -0.25119272597E+03 -0.57590981941E+03  0.87784951192E+03  0.61300000000E+03 0.  1.
         11    1    4    4    0    0 -0.18018829267E+02  0.14536635261E+03  0.56214495189E+02  0.15689526491E+03  0.51100000000E-03 0.  1.
    -200002    1    4    4    0    0 -0.22419702034E+02  0.23460623565E+03 -0.31302851375E+03  0.39297529090E+03  0.30000000000E+02 0.  1.
    -200000    1    3    3    0    0  0.49430744535E+02 -0.12877986229E+03 -0.15116160859E+03  0.22820710626E+03  0.10100000000E+03 0.  1.
<mgrwt>
<rscale>  0 0.13319400E+04</rscale>
<asrwt>0</asrwt>
<pdfrwt beam="1">  1        2 0.48002981E-01 0.13319400E+04</pdfrwt>
<pdfrwt beam="2">  1       -2 0.18855804E+00 0.13319400E+04</pdfrwt>
<totfact> 0.16299794E+01</totfact>
</mgrwt>
</event>
<event>
 8    2  0.7266322E-052  0.1684773E+04  0.7818608E-02  0.8770097E-01
          2   -1    0    0  501    0  0.00000000000E+00  0.00000000000E+00  0.41917495621E+04  0.41917495621E+04  0.25500000000E-02 0.  1.
         -2   -1    0    0    0  501 -0.00000000000E+00 -0.00000000000E+00 -0.16928847397E+03  0.16928847399E+03  0.25500000000E-02 0. -1.
    -200001    2    1    2    0    0  0.31782143271E+03  0.23205228099E+03  0.91537466109E+03  0.11697038654E+04  0.61272966164E+03 0.  0.
   -5000001    2    3    3    0    0 -0.84387931649E+02  0.11327388809E+02  0.56640249592E+03  0.58449072224E+03  0.11648169064E+03 0.  0.
     200001    1    1    2    0    0 -0.31782143271E+03 -0.23205228099E+03  0.31070864270E+04  0.31913341707E+04  0.61300000000E+03 0.  1.
         11    1    4    4    0    0 -0.10033321544E+03 -0.10582501465E+01  0.31757105439E+03  0.33304541522E+03  0.51100000000E-03 0.  1.
    -200002    1    4    4    0    0  0.15945283788E+02  0.12385638955E+02  0.24883144153E+03  0.25144530702E+03  0.30000000000E+02 0.  1.
    -200000    1    3    3    0    0  0.40220936436E+03  0.22072489218E+03  0.34897216517E+03  0.58521314311E+03  0.10100000000E+03 0. -1.
<mgrwt>
<rscale>  0 0.16847728E+04</rscale>
<asrwt>0</asrwt>
<pdfrwt beam="1">  1        2 0.59882132E+00 0.16847728E+04</pdfrwt>
<pdfrwt beam="2">  1       -2 0.24184070E-01 0.16847728E+04</pdfrwt>
<totfact> 0.61565406E+00</totfact>
</mgrwt>
</event>
<event>
 8    2  0.7266322E-052  0.1626730E+04  0.7818608E-02  0.8804293E-01
          2   -1    0    0  501    0  0.00000000000E+00  0.00000000000E+00  0.32229363865E+03  0.32229363866E+03  0.25500000000E-02 0. -1.
         -2   -1    0    0    0  501 -0.00000000000E+00 -0.00000000000E+00 -0.20526714053E+04  0.20526714053E+04  0.25500000000E-02 0.  1.
    -200001    2    1    2    0    0 -0.20940734434E+03  0.10410862569E+03 -0.15673504564E+04  0.16989199673E+04  0.61241453291E+03 0.  0.
   -5000001    2    3    3    0    0 -0.31706130614E+03  0.26888936801E+03 -0.11457380017E+04  0.12227895960E+04  0.98333429156E+02 0.  0.
     200001    1    1    2    0    0  0.20940734434E+03 -0.10410862569E+03 -0.16302731018E+03  0.67604507666E+03  0.61300000000E+03 0. -1.
         11    1    4    4    0    0 -0.13789416824E+03  0.88808995604E+02 -0.34135439823E+03  0.37871448946E+03  0.51100000000E-03 0.  1.
    -200002    1    4    4    0    0 -0.17916713790E+03  0.18008037241E+03 -0.80438360351E+03  0.84407510651E+03  0.30000000000E+02 0.  1.
    -200000    1    3    3    0    0  0.10765396180E+03 -0.16478074232E+03 -0.42161245469E+03  0.47613037131E+03  0.10100000000E+03 0.  1.
<mgrwt>
<rscale>  0 0.16267304E+04</rscale>
<asrwt>0</asrwt>
<pdfrwt beam="1">  1        2 0.46041949E-01 0.16267304E+04</pdfrwt>
<pdfrwt beam="2">  1       -2 0.29323877E+00 0.16267304E+04</pdfrwt>
<totfact> 0.37007346E+00</totfact>
</mgrwt>
</event>
<event>
 8    2  0.7266322E-052  0.1371455E+04  0.7818608E-02  0.8974744E-01
         -2   -1    0    0    0  501 -0.00000000000E+00  0.00000000000E+00  0.23661024842E+03  0.23661024843E+03  0.25500000000E-02 0. -1.
          2   -1    0    0  501    0  0.00000000000E+00 -0.00000000000E+00 -0.19873283476E+04  0.19873283476E+04  0.25500000000E-02 0.  1.
    -200001    2    1    2    0    0  0.73582462569E+02  0.29608359420E+03 -0.81401326605E+03  0.10636520720E+04  0.61290966651E+03 0.  0.
   -5000001    2    3    3    0    0  0.21624794860E+03 -0.33307926612E+01 -0.66872999731E+02  0.23998830953E+03  0.79675097525E+02 0.  0.
     200001    1    1    2    0    0 -0.73582462569E+02 -0.29608359420E+03 -0.93670483312E+03  0.11602865241E+04  0.61300000000E+03 0.  1.
         11    1    4    4    0    0  0.80347107012E+02  0.31732399825E+02 -0.16962642177E+02  0.88035981472E+02  0.51100000000E-03 0.  1.
    -200002    1    4    4    0    0  0.13590084159E+03 -0.35063192486E+02 -0.49910357554E+02  0.15195232806E+03  0.30000000000E+02 0.  1.
    -200000    1    3    3    0    0 -0.14266548603E+03  0.29941438686E+03 -0.74714026632E+03  0.82366376242E+03  0.10100000000E+03 0.  1.
<mgrwt>
<rscale>  0 0.13714551E+04</rscale>
<asrwt>0</asrwt>
<pdfrwt beam="1">  1        2 0.28390404E+00 0.13714551E+04</pdfrwt>
<pdfrwt beam="2">  1       -2 0.33801465E-01 0.13714551E+04</pdfrwt>
<totfact> 0.65097888E+01</totfact>
</mgrwt>
</event>
<event>
 8    2  0.7266322E-052  0.1642334E+04  0.7818608E-02  0.8794955E-01
          2   -1    0    0  501    0  0.00000000000E+00  0.00000000000E+00  0.11459622078E+04  0.11459622078E+04  0.25500000000E-02 0.  1.
         -2   -1    0    0    0  501 -0.00000000000E+00 -0.00000000000E+00 -0.58842707148E+03  0.58842707149E+03  0.25500000000E-02 0. -1.
    -200001    2    1    2    0    0  0.45117080751E+03 -0.29273530108E+03  0.17895224143E+03  0.83531027145E+03  0.61357174872E+03 0.  0.
   -5000001    2    3    3    0    0  0.16637653102E+03 -0.65591586378E+02 -0.12161102110E+03  0.35235963025E+03  0.27818098838E+03 0.  0.
     200001    1    1    2    0    0 -0.45117080751E+03  0.29273530108E+03  0.37858289490E+03  0.89907900785E+03  0.61300000000E+03 0. -1.
         11    1    4    4    0    0  0.17106042060E+03  0.74113664612E+02 -0.53198374423E+02  0.19386740268E+03  0.51100000000E-03 0.  1.
    -200002    1    4    4    0    0 -0.46838895805E+01 -0.13970525099E+03 -0.68412646676E+02  0.15849222757E+03  0.30000000000E+02 0.  1.
    -200000    1    3    3    0    0  0.28479427649E+03 -0.22714371470E+03  0.30056326253E+03  0.48295064120E+03  0.10100000000E+03 0.  1.
<mgrwt>
<rscale>  0 0.16423339E+04</rscale>
<asrwt>0</asrwt>
<pdfrwt beam="1">  1        2 0.16370888E+00 0.16423339E+04</pdfrwt>
<pdfrwt beam="2">  1       -2 0.84061012E-01 0.16423339E+04</pdfrwt>
<totfact> 0.27190603E+01</totfact>
</mgrwt>
</event>
<event>
 8    2  0.7266322E-052  0.1419670E+04  0.7818608E-02  0.8939702E-01
         -2   -1    0    0    0  501 -0.00000000000E+00  0.00000000000E+00  0.28306221239E+03  0.28306221240E+03  0.25500000000E-02 0. -1.
          2   -1    0    0  501    0  0.00000000000E+00 -0.00000000000E+00 -0.17800538399E+04  0.17800538399E+04  0.25500000000E-02 0.  1.
    -200001    2    1    2    0    0 -0.30365603245E+03  0.78723210071E+02 -0.49749684406E+03  0.84937672609E+03  0.61280778644E+03 0.  0.
   -5000001    2    3    3    0    0 -0.33723333517E+03 -0.14965319631E+03 -0.36731972723E+03  0.56577436363E+03  0.22148238531E+03 0.  0.
     200001    1    1    2    0    0  0.30365603245E+03 -0.78723210071E+02 -0.99949478340E+03  0.12137393262E+04  0.61300000000E+03 0.  1.
         11    1    4    4    0    0 -0.12641479147E+03 -0.16134174964E+03 -0.24679359693E+03  0.32080981776E+03  0.51100000000E-03 0.  1.
    -200002    1    4    4    0    0 -0.21081854371E+03  0.11688553336E+02 -0.12052613030E+03  0.24496454587E+03  0.30000000000E+02 0.  1.
    -200000    1    3    3    0    0  0.33577302721E+02  0.22837640638E+03 -0.13017711682E+03  0.28360236246E+03  0.10100000000E+03 0.  1.
<mgrwt>
<rscale>  0 0.14196704E+04</rscale>
<asrwt>0</asrwt>
<pdfrwt beam="1">  1        2 0.25429340E+00 0.14196704E+04</pdfrwt>
<pdfrwt beam="2">  1       -2 0.40437460E-01 0.14196704E+04</pdfrwt>
<totfact> 0.58690050E+01</totfact>
</mgrwt>
</event>
<event>
 8    2  0.7266322E-052  0.1566319E+04  0.7818608E-02  0.8841511E-01
         -2   -1    0    0    0  501 -0.00000000000E+00  0.00000000000E+00  0.10777039024E+04  0.10777039024E+04  0.25500000000E-02 0. -1.
          2   -1    0    0  501    0  0.00000000000E+00 -0.00000000000E+00 -0.56911654350E+03  0.56911654350E+03  0.25500000000E-02 0.  1.
    -200001    2    1    2    0    0  0.30581724612E+03  0.10362395780E+03 -0.12803493560E+03  0.70590649738E+03  0.61453146840E+03 0.  0.
   -5000001    2    3    3    0    0  0.49351881654E+02 -0.20386027636E+02 -0.32366166381E+03  0.34587347605E+03  0.10963754135E+03 0.  0.
     200001    1    1    2    0    0 -0.30581724612E+03 -0.10362395780E+03  0.63662229449E+03  0.94091394851E+03  0.61300000000E+03 0.  1.
         11    1    4    4    0    0  0.29124690197E+01 -0.33490010784E+02 -0.25099499026E+02  0.41952927785E+02  0.51100000000E-03 0.  1.
    -200002    1    4    4    0    0  0.46439412634E+02  0.13103983149E+02 -0.29856216478E+03  0.30392054827E+03  0.30000000000E+02 0.  1.
    -200000    1    3    3    0    0  0.25646536446E+03  0.12400998544E+03  0.19562672820E+03  0.36003302133E+03  0.10100000000E+03 0. -1.
<mgrwt>
<rscale>  0 0.15663194E+04</rscale>
<asrwt>0</asrwt>
<pdfrwt beam="1">  1        2 0.81302363E-01 0.15663194E+04</pdfrwt>
<pdfrwt beam="2">  1       -2 0.15395770E+00 0.15663194E+04</pdfrwt>
<totfact> 0.15545971E+01</totfact>
</mgrwt>
</event>
<event>
 8    2  0.7266322E-052  0.1706777E+04  0.7818608E-02  0.8757509E-01
          2   -1    0    0  501    0  0.00000000000E+00  0.00000000000E+00  0.51371721414E+03  0.51371721415E+03  0.25500000000E-02 0.  1.
         -2   -1    0    0    0  501 -0.00000000000E+00 -0.00000000000E+00 -0.14176509597E+04  0.14176509597E+04  0.25500000000E-02 0. -1.
    -200001    2    1    2    0    0 -0.34160698863E+03 -0.22604068955E+03  0.34885634389E+02  0.73765943375E+03  0.61248241174E+03 0.  0.
   -5000001    2    3    3    0    0 -0.29768214806E+03 -0.34705272560E+03 -0.14645903015E+03  0.49340507483E+03  0.11374561416E+03 0.  0.
     200001    1    1    2    0    0  0.34160698863E+03  0.22604068955E+03 -0.93881937992E+03  0.11937087401E+04  0.61300000000E+03 0. -1.
         11    1    4    4    0    0 -0.72120323340E+02 -0.40502809951E+02 -0.59391460889E+02  0.10182909348E+03  0.51100000000E-03 0.  1.
    -200002    1    4    4    0    0 -0.22556182472E+03 -0.30654991565E+03 -0.87067569265E+02  0.39157598135E+03  0.30000000000E+02 0.  1.
    -200000    1    3    3    0    0 -0.43924840574E+02  0.12101203605E+03  0.18134466454E+03  0.24425435891E+03  0.10100000000E+03 0.  1.
<mgrwt>
<rscale>  0 0.17067767E+04</rscale>
<asrwt>0</asrwt>
<pdfrwt beam="1">  1        2 0.73388174E-01 0.17067767E+04</pdfrwt>
<pdfrwt beam="2">  1       -2 0.20252156E+00 0.17067767E+04</pdfrwt>
<totfact> 0.79384164E+00</totfact>
</mgrwt>
</event>
<event>
 8    2  0.7266322E-052  0.1866259E+04  0.7818608E-02  0.8671836E-01
         -2   -1    0    0    0  501 -0.00000000000E+00  0.00000000000E+00  0.37859058678E+03  0.37859058679E+03  0.25500000000E-02 0. -1.
          2   -1    0    0  501    0  0.00000000000E+00 -0.00000000000E+00 -0.22999270340E+04  0.22999270340E+04  0.25500000000E-02 0.  1.
    -200001    2    1    2    0    0 -0.14115333514E+03  0.54412778300E+03 -0.15675295525E+04  0.17746660694E+04  0.61342599524E+03 0.  0.
   -5000001    2    3    3    0    0  0.10159755162E+03 -0.11586984887E+02 -0.66145427596E+03  0.67971387727E+03  0.11846043666E+03 0.  0.
     200001    1    1    2    0    0  0.14115333514E+03 -0.54412778300E+03 -0.35380689475E+03  0.90385155143E+03  0.61300000000E+03 0. -1.
         11    1    4    4    0    0  0.68203478407E+02 -0.23178168368E+02 -0.15255196837E+03  0.16870401599E+03  0.51100000000E-03 0.  1.
    -200002    1    4    4    0    0  0.33394073208E+02  0.11591183481E+02 -0.50890230759E+03  0.51100986128E+03  0.30000000000E+02 0.  1.
    -200000    1    3    3    0    0 -0.24275088675E+03  0.55571476789E+03 -0.90607527650E+03  0.10949521921E+04  0.10100000000E+03 0. -1.
<mgrwt>
<rscale>  0 0.18662591E+04</rscale>
<asrwt>0</asrwt>
<pdfrwt beam="1">  1        2 0.32856100E+00 0.18662591E+04</pdfrwt>
<pdfrwt beam="2">  1       -2 0.54084371E-01 0.18662591E+04</pdfrwt>
<totfact> 0.17020551E+01</totfact>
</mgrwt>
</event>
<event>
 8    2  0.7266322E-052  0.2099308E+04  0.7818608E-02  0.8561548E-01
         -2   -1    0    0    0  501 -0.00000000000E+00  0.00000000000E+00  0.28395373122E+04  0.28395373122E+04  0.25500000000E-02 0. -1.
          2   -1    0    0  501    0  0.00000000000E+00 -0.00000000000E+00 -0.38801175515E+03  0.38801175516E+03  0.25500000000E-02 0.  1.
    -200001    2    1    2    0    0  0.26324059204E+03 -0.65657776254E+03  0.49569953169E+03  0.10592745439E+04  0.61315134030E+03 0.  0.
   -5000001    2    3    3    0    0 -0.29426670313E+02 -0.17043493246E+03  0.43565074788E+03  0.47979561063E+03  0.10246101073E+03 0.  0.
     200001    1    1    2    0    0 -0.26324059204E+03  0.65657776254E+03  0.19558260253E+04  0.21682745234E+04  0.61300000000E+03 0. -1.
         11    1    4    4    0    0  0.82019409009E+01 -0.62480881069E+02  0.64059343886E+02  0.89859511868E+02  0.51100000000E-03 0.  1.
    -200002    1    4    4    0    0 -0.37628611214E+02 -0.10795405139E+03  0.37159140399E+03  0.38993609876E+03  0.30000000000E+02 0.  1.
    -200000    1    3    3    0    0  0.29266726235E+03 -0.48614283008E+03  0.60048783814E+02  0.57947893329E+03  0.10100000000E+03 0.  1.
<mgrwt>
<rscale>  0 0.20993083E+04</rscale>
<asrwt>0</asrwt>
<pdfrwt beam="1">  1        2 0.55430250E-01 0.20993083E+04</pdfrwt>
<pdfrwt beam="2">  1       -2 0.40564819E+00 0.20993083E+04</pdfrwt>
<totfact> 0.56523607E-01</totfact>
</mgrwt>
</event>
<event>
 8    2  0.7266322E-052  0.3517658E+04  0.7818608E-02  0.8109618E-01
         -2   -1    0    0    0  501 -0.00000000000E+00  0.00000000000E+00  0.22423800249E+04  0.22423800249E+04  0.25500000000E-02 0. -1.
          2   -1    0    0  501    0  0.00000000000E+00 -0.00000000000E+00 -0.13795517082E+04  0.13795517082E+04  0.25500000000E-02 0.  1.
    -200001    2    1    2    0    0  0.60309141468E+03  0.14150115783E+04  0.10415662906E+04  0.19564908652E+04  0.61401884902E+03 0.  0.
   -5000001    2    3    3    0    0  0.64436124299E+03  0.91387938388E+03  0.85044785564E+03  0.14091665271E+04  0.11005365092E+03 0.  0.
     200001    1    1    2    0    0 -0.60309141468E+03 -0.14150115783E+04 -0.17873797393E+03  0.16654408679E+04  0.61300000000E+03 0.  1.
         11    1    4    4    0    0  0.49068885577E+03  0.63381908812E+03  0.63620945922E+03  0.10233594997E+04  0.51100000000E-03 0.  1.
    -200002    1    4    4    0    0  0.15367238722E+03  0.28006029576E+03  0.21423839642E+03  0.38580702736E+03  0.30000000000E+02 0.  1.
    -200000    1    3    3    0    0 -0.41269828311E+02  0.50113219438E+03  0.19111843497E+03  0.54732433817E+03  0.10100000000E+03 0. -1.
<mgrwt>
<rscale>  0 0.35176579E+04</rscale>
<asrwt>0</asrwt>
<pdfrwt beam="1">  1        2 0.19707882E+00 0.35176579E+04</pdfrwt>
<pdfrwt beam="2">  1       -2 0.32034000E+00 0.35176579E+04</pdfrwt>
<totfact> 0.33467671E-01</totfact>
</mgrwt>
</event>
<event>
 8    2  0.7266322E-052  0.1469948E+04  0.7818608E-02  0.8904687E-01
         -2   -1    0    0    0  501 -0.00000000000E+00  0.00000000000E+00  0.45440879138E+03  0.45440879139E+03  0.25500000000E-02 0. -1.
          2   -1    0    0  501    0  0.00000000000E+00 -0.00000000000E+00 -0.11887676819E+04  0.11887676819E+04  0.25500000000E-02 0.  1.
    -200001    2    1    2    0    0  0.24348909810E+03  0.19322572587E+03 -0.76069546249E+02  0.69147432304E+03  0.61296577517E+03 0.  0.
   -5000001    2    3    3    0    0  0.41611320741E+03  0.17917708363E+03  0.39584238948E+02  0.46001537313E+03  0.69228627525E+02 0.  0.
     200001    1    1    2    0    0 -0.24348909810E+03 -0.19322572587E+03 -0.65828934431E+03  0.95170215029E+03  0.61300000000E+03 0.  1.
         11    1    4    4    0    0  0.10671551367E+03  0.37063808769E+02 -0.14757301765E+02  0.11392850712E+03  0.51100000000E-03 0.  1.
    -200002    1    4    4    0    0  0.30939769374E+03  0.14211327486E+03  0.54341540714E+02  0.34608686601E+03  0.30000000000E+02 0.  1.
    -200000    1    3    3    0    0 -0.17262410931E+03  0.14048642242E+02 -0.11565378520E+03  0.23145894991E+03  0.10100000000E+03 0. -1.
<mgrwt>
<rscale>  0 0.14699476E+04</rscale>
<asrwt>0</asrwt>
<pdfrwt beam="1">  1        2 0.16982395E+00 0.14699476E+04</pdfrwt>
<pdfrwt beam="2">  1       -2 0.64915542E-01 0.14699476E+04</pdfrwt>
<totfact> 0.46056168E+01</totfact>
</mgrwt>
</event>
<event>
 8    2  0.7266322E-052  0.1898514E+04  0.7818608E-02  0.8655596E-01
          2   -1    0    0  501    0  0.00000000000E+00  0.00000000000E+00  0.96418614462E+03  0.96418614462E+03  0.25500000000E-02 0.  1.
         -2   -1    0    0    0  501 -0.00000000000E+00 -0.00000000000E+00 -0.93455918453E+03  0.93455918453E+03  0.25500000000E-02 0. -1.
    -200001    2    1    2    0    0 -0.44849252255E+03 -0.53079376958E+03 -0.19043962458E+03  0.94633477153E+03  0.61351013079E+03 0.  0.
   -5000001    2    3    3    0    0 -0.50484739741E+03 -0.40850985506E+03  0.18572266417E+02  0.67797643227E+03  0.19379349133E+03 0.  0.
     200001    1    1    2    0    0  0.44849252255E+03  0.53079376958E+03  0.22006658467E+03  0.95241055763E+03  0.61300000000E+03 0.  1.
         11    1    4    4    0    0 -0.33343284838E+03 -0.30526014571E+03  0.94536166574E+02  0.46184229747E+03  0.51100000000E-03 0.  1.
    -200002    1    4    4    0    0 -0.17141454903E+03 -0.10324970934E+03 -0.75963900157E+02  0.21613413480E+03  0.30000000000E+02 0.  1.
    -200000    1    3    3    0    0  0.56354874864E+02 -0.12228391452E+03 -0.20901189099E+03  0.26835833926E+03  0.10100000000E+03 0.  1.
<mgrwt>
<rscale>  0 0.18985142E+04</rscale>
<asrwt>0</asrwt>
<pdfrwt beam="1">  1        2 0.13774088E+00 0.18985142E+04</pdfrwt>
<pdfrwt beam="2">  1       -2 0.13350845E+00 0.18985142E+04</pdfrwt>
<totfact> 0.11280930E+01</totfact>
</mgrwt>
</event>
<event>
 8    2  0.7266322E-052  0.2778611E+04  0.7818608E-02  0.8309940E-01
         -2   -1    0    0    0  501 -0.00000000000E+00  0.00000000000E+00  0.70693689564E+03  0.70693689565E+03  0.25500000000E-02 0. -1.
          2   -1    0    0  501    0  0.00000000000E+00 -0.00000000000E+00 -0.27303288844E+04  0.27303288844E+04  0.25500000000E-02 0.  1.
    -200001    2    1    2    0    0  0.17728379853E+03  0.92105588363E+03 -0.20274494564E+04  0.23167485116E+04  0.61400234662E+03 0.  0.
   -5000001    2    3    3    0    0  0.23798096249E+03  0.96229373312E+02 -0.71155684146E+03  0.75925138737E+03  0.65226526891E+02 0.  0.
     200001    1    1    2    0    0 -0.17728379853E+03 -0.92105588363E+03  0.40574675918E+01  0.11205172685E+04  0.61300000000E+03 0. -1.
         11    1    4    4    0    0  0.46794248446E+02 -0.36164255870E+01 -0.11639413388E+03  0.12550049651E+03  0.51100000000E-03 0.  1.
    -200002    1    4    4    0    0  0.19118671405E+03  0.99845798899E+02 -0.59516270757E+03  0.63375089086E+03  0.30000000000E+02 0.  1.
    -200000    1    3    3    0    0 -0.60697163964E+02  0.82482651032E+03 -0.13158926149E+04  0.15574971242E+04  0.10100000000E+03 0.  1.
<mgrwt>
<rscale>  0 0.27786113E+04</rscale>
<asrwt>0</asrwt>
<pdfrwt beam="1">  1        2 0.39004698E+00 0.27786113E+04</pdfrwt>
<pdfrwt beam="2">  1       -2 0.10099099E+00 0.27786113E+04</pdfrwt>
<totfact> 0.23498288E+00</totfact>
</mgrwt>
</event>
<event>
 8    2  0.7266322E-052  0.1688622E+04  0.7818608E-02  0.8767881E-01
         -2   -1    0    0    0  501 -0.00000000000E+00  0.00000000000E+00  0.68941841780E+03  0.68941841780E+03  0.25500000000E-02 0. -1.
          2   -1    0    0  501    0  0.00000000000E+00 -0.00000000000E+00 -0.10340029541E+04  0.10340029541E+04  0.25500000000E-02 0.  1.
    -200001    2    1    2    0    0 -0.24381037413E+03 -0.15630855797E+03  0.34129576624E+03  0.75901655377E+03  0.61298243450E+03 0.  0.
   -5000001    2    3    3    0    0  0.18254766102E+03 -0.67379666418E+02  0.19471882036E+03  0.28851116277E+03  0.86368999349E+02 0.  0.
     200001    1    1    2    0    0  0.24381037413E+03  0.15630855797E+03 -0.68588030255E+03  0.96440481814E+03  0.61300000000E+03 0.  1.
         11    1    4    4    0    0  0.69933277213E+02 -0.20145457904E+02  0.24314531457E+02  0.76731344157E+02  0.51100000000E-03 0.  1.
    -200002    1    4    4    0    0  0.11261438381E+03 -0.47234208514E+02  0.17040428891E+03  0.21177981861E+03  0.30000000000E+02 0.  1.
    -200000    1    3    3    0    0 -0.42635803515E+03 -0.88928891556E+02  0.14657694588E+03  0.47050539099E+03  0.10100000000E+03 0.  1.
<mgrwt>
<rscale>  0 0.16886215E+04</rscale>
<asrwt>0</asrwt>
<pdfrwt beam="1">  1        2 0.14771471E+00 0.16886215E+04</pdfrwt>
<pdfrwt beam="2">  1       -2 0.98488346E-01 0.16886215E+04</pdfrwt>
<totfact> 0.21891418E+01</totfact>
</mgrwt>
</event>
<event>
 8    2  0.7266322E-052  0.1398392E+04  0.7818608E-02  0.8954983E-01
          2   -1    0    0  501    0  0.00000000000E+00  0.00000000000E+00  0.10026275089E+04  0.10026275089E+04  0.25500000000E-02 0.  1.
         -2   -1    0    0    0  501 -0.00000000000E+00 -0.00000000000E+00 -0.48759409795E+03  0.48759409795E+03  0.25500000000E-02 0. -1.
    -200001    2    1    2    0    0  0.28300509173E+03  0.56763929213E+02  0.44092765955E+03  0.80862444723E+03  0.61330438618E+03 0.  0.
   -5000001    2    3    3    0    0 -0.15611770842E+03 -0.82921410596E+02  0.70305825014E+02  0.20870580942E+03  0.85828355670E+02 0.  0.
     200001    1    1    2    0    0 -0.28300509173E+03 -0.56763929213E+02  0.74105751395E+02  0.68159715961E+03  0.61300000000E+03 0. -1.
         11    1    4    4    0    0 -0.91572902651E+02 -0.75947410588E+02  0.18504877361E+02  0.12039948572E+03  0.51100000000E-03 0.  1.
    -200002    1    4    4    0    0 -0.64544805766E+02 -0.69740000090E+01  0.51800947653E+02  0.88306323699E+02  0.30000000000E+02 0. -1.
    -200000    1    3    3    0    0  0.43912280014E+03  0.13968533981E+03  0.37062183453E+03  0.59991863781E+03  0.10100000000E+03 0.  1.
<mgrwt>
<rscale>  0 0.13983923E+04</rscale>
<asrwt>0</asrwt>
<pdfrwt beam="1">  1        2 0.14323250E+00 0.13983923E+04</pdfrwt>
<pdfrwt beam="2">  1       -2 0.69656300E-01 0.13983923E+04</pdfrwt>
<totfact> 0.51257991E+01</totfact>
</mgrwt>
</event>
<event>
 8    2  0.7266322E-052  0.1332335E+04  0.7818608E-02  0.9004309E-01
         -2   -1    0    0    0  501 -0.00000000000E+00  0.00000000000E+00  0.15016128892E+03  0.15016128894E+03  0.25500000000E-02 0. -1.
          2   -1    0    0  501    0  0.00000000000E+00 -0.00000000000E+00 -0.29553493726E+04  0.29553493726E+04  0.25500000000E-02 0.  1.
    -200001    2    1    2    0    0 -0.10784072357E+03 -0.86254339305E+02 -0.19180356219E+04  0.20183685718E+04  0.61309184654E+03 0.  0.
   -5000001    2    3    3    0    0  0.90233365039E+02  0.15296879593E+03 -0.37781779156E+03  0.44390580066E+03  0.15087930125E+03 0.  0.
     200001    1    1    2    0    0  0.10784072357E+03  0.86254339305E+02 -0.88715246183E+03  0.10871420897E+04  0.61300000000E+03 0. -1.
         11    1    4    4    0    0  0.22813402030E+02  0.14438358004E+03 -0.31244370875E+03  0.34494657649E+03  0.51100000000E-03 0.  1.
    -200002    1    4    4    0    0  0.67419963008E+02  0.85852158840E+01 -0.65374082813E+02  0.98959224166E+02  0.30000000000E+02 0.  1.
    -200000    1    3    3    0    0 -0.19807408861E+03 -0.23922313523E+03 -0.15402178303E+04  0.15744627712E+04  0.10100000000E+03 0. -1.
<mgrwt>
<rscale>  0 0.13323349E+04</rscale>
<asrwt>0</asrwt>
<pdfrwt beam="1">  1        2 0.42219273E+00 0.13323349E+04</pdfrwt>
<pdfrwt beam="2">  1       -2 0.21451615E-01 0.13323349E+04</pdfrwt>
<totfact> 0.46514169E+01</totfact>
</mgrwt>
</event>
<event>
 8    2  0.7266322E-052  0.1731489E+04  0.7818608E-02  0.8743606E-01
         -2   -1    0    0    0  501 -0.00000000000E+00  0.00000000000E+00  0.68664327331E+03  0.68664327331E+03  0.25500000000E-02 0. -1.
          2   -1    0    0  501    0  0.00000000000E+00 -0.00000000000E+00 -0.10915616746E+04  0.10915616746E+04  0.25500000000E-02 0.  1.
    -200001    2    1    2    0    0 -0.53622683222E+03  0.13655857799E+03  0.67165424034E+02  0.82698488981E+03  0.61090535517E+03 0.  0.
   -5000001    2    3    3    0    0 -0.19234813252E+02  0.20259815584E+03 -0.13994968140E+03  0.25712557347E+03  0.71495848937E+02 0.  0.
     200001    1    1    2    0    0  0.53622683222E+03 -0.13655857799E+03 -0.47208382533E+03  0.95122005811E+03  0.61300000000E+03 0.  1.
         11    1    4    4    0    0 -0.36780694324E+02  0.10351161181E+03 -0.82912627701E+02  0.13762985536E+03  0.51100000000E-03 0.  1.
    -200002    1    4    4    0    0  0.17545881072E+02  0.99086544032E+02 -0.57037053702E+02  0.11949571811E+03  0.30000000000E+02 0.  1.
    -200000    1    3    3    0    0 -0.51699201896E+03 -0.66039577853E+02  0.20711510544E+03  0.56985931634E+03  0.10100000000E+03 0. -1.
<mgrwt>
<rscale>  0 0.17314889E+04</rscale>
<asrwt>0</asrwt>
<pdfrwt beam="1">  1        2 0.15593738E+00 0.17314889E+04</pdfrwt>
<pdfrwt beam="2">  1       -2 0.98091897E-01 0.17314889E+04</pdfrwt>
<totfact> 0.20341999E+01</totfact>
</mgrwt>
</event>
<event>
 8    2  0.7266322E-052  0.1437836E+04  0.7818608E-02  0.8926877E-01
          2   -1    0    0  501    0  0.00000000000E+00  0.00000000000E+00  0.31821634909E+04  0.31821634909E+04  0.25500000000E-02 0.  1.
         -2   -1    0    0    0  501 -0.00000000000E+00 -0.00000000000E+00 -0.16241872023E+03  0.16241872025E+03  0.25500000000E-02 0. -1.
    -200001    2    1    2    0    0 -0.21418168194E+03 -0.30784922137E+03  0.14517838250E+04  0.16197878863E+04  0.61269208090E+03 0.  0.
   -5000001    2    3    3    0    0  0.89513566845E+02 -0.12924841422E+03  0.10922274630E+04  0.11063574334E+04  0.79675017290E+02 0.  0.
     200001    1    1    2    0    0  0.21418168194E+03  0.30784922137E+03  0.15679609457E+04  0.17247943249E+04  0.61300000000E+03 0. -1.
         11    1    4    4    0    0  0.12820066133E+02 -0.50602105911E+02  0.19249032260E+03  0.19944285275E+03  0.51100000000E-03 0.  1.
    -200002    1    4    4    0    0  0.76693500712E+02 -0.78646308306E+02  0.89973714035E+03  0.90691458065E+03  0.30000000000E+02 0.  1.
    -200000    1    3    3    0    0 -0.30369524878E+03 -0.17860080715E+03  0.35955636204E+03  0.51343045287E+03  0.10100000000E+03 0. -1.
<mgrwt>
<rscale>  0 0.14378358E+04</rscale>
<asrwt>0</asrwt>
<pdfrwt beam="1">  1        2 0.45459477E+00 0.14378358E+04</pdfrwt>
<pdfrwt beam="2">  1       -2 0.23202675E-01 0.14378358E+04</pdfrwt>
<totfact> 0.29869097E+01</totfact>
</mgrwt>
</event>
<event>
 8    2  0.7266322E-052  0.2054817E+04  0.7818608E-02  0.8581412E-01
         -2   -1    0    0    0  501 -0.00000000000E+00  0.00000000000E+00  0.12854156971E+04  0.12854156971E+04  0.25500000000E-02 0. -1.
          2   -1    0    0  501    0  0.00000000000E+00 -0.00000000000E+00 -0.82118850867E+03  0.82118850867E+03  0.25500000000E-02 0.  1.
    -200001    2    1    2    0    0  0.22791462668E+03  0.95058221915E+02  0.10384461768E+04  0.12311171475E+04  0.61343119098E+03 0.  0.
   -5000001    2    3    3    0    0  0.41376780655E+03  0.30902213723E+02  0.80239247639E+03  0.90772922665E+03  0.89330387857E+02 0.  0.
     200001    1    1    2    0    0 -0.22791462668E+03 -0.95058221915E+02 -0.57421898839E+03  0.87548705829E+03  0.61300000000E+03 0.  1.
         11    1    4    4    0    0  0.74503874045E+01 -0.12636963889E+02  0.29130949117E+02  0.32616151298E+02  0.51100000000E-03 0.  1.
    -200002    1    4    4    0    0  0.40631741915E+03  0.43539177612E+02  0.77326152727E+03  0.87511307535E+03  0.30000000000E+02 0.  1.
    -200000    1    3    3    0    0 -0.18585317987E+03  0.64156008191E+02  0.23605370043E+03  0.32338792084E+03  0.10100000000E+03 0.  1.
<mgrwt>
<rscale>  0 0.20548174E+04</rscale>
<asrwt>0</asrwt>
<pdfrwt beam="1">  1        2 0.11731265E+00 0.20548174E+04</pdfrwt>
<pdfrwt beam="2">  1       -2 0.18363081E+00 0.20548174E+04</pdfrwt>
<totfact> 0.58376656E+00</totfact>
</mgrwt>
</event>
<event>
 8    2  0.7266322E-052  0.1803434E+04  0.7818608E-02  0.8704475E-01
          2   -1    0    0  501    0  0.00000000000E+00  0.00000000000E+00  0.12078362388E+04  0.12078362388E+04  0.25500000000E-02 0. -1.
         -2   -1    0    0    0  501 -0.00000000000E+00 -0.00000000000E+00 -0.67318213243E+03  0.67318213244E+03  0.25500000000E-02 0.  1.
    -200001    2    1    2    0    0  0.35943720437E+03 -0.41186224126E+03 -0.11985647555E+03  0.83079043812E+03  0.61402082023E+03 0.  0.
   -5000001    2    3    3    0    0 -0.89173659071E+02 -0.98958792639E+02 -0.21970806836E+03  0.26569609596E+03  0.67660889681E+02 0.  0.
     200001    1    1    2    0    0 -0.35943720437E+03  0.41186224126E+03  0.65451058191E+03  0.10502279331E+04  0.61300000000E+03 0. -1.
         11    1    4    4    0    0 -0.31348442051E+02 -0.15023582111E+02 -0.98802304523E+02  0.10473933463E+03  0.51100000000E-03 0.  1.
    -200002    1    4    4    0    0 -0.57825217019E+02 -0.83935210528E+02 -0.12090576383E+03  0.16095676133E+03  0.30000000000E+02 0.  1.
    -200000    1    3    3    0    0  0.44861086344E+03 -0.31290344862E+03  0.99851592807E+02  0.56509434216E+03  0.10100000000E+03 0.  1.
<mgrwt>
<rscale>  0 0.18034343E+04</rscale>
<asrwt>0</asrwt>
<pdfrwt beam="1">  1        2 0.17254803E+00 0.18034343E+04</pdfrwt>
<pdfrwt beam="2">  1       -2 0.96168876E-01 0.18034343E+04</pdfrwt>
<totfact> 0.18140912E+01</totfact>
</mgrwt>
</event>
<event>
 8    2  0.7266322E-052  0.1563818E+04  0.7818608E-02  0.8843090E-01
         -2   -1    0    0    0  501 -0.00000000000E+00  0.00000000000E+00  0.45562225332E+03  0.45562225333E+03  0.25500000000E-02 0.  1.
          2   -1    0    0  501    0  0.00000000000E+00 -0.00000000000E+00 -0.13418607185E+04  0.13418607185E+04  0.25500000000E-02 0. -1.
    -200001    2    1    2    0    0 -0.82182952005E+02  0.24640346240E+03  0.27791964108E+02  0.66669151026E+03  0.61338118059E+03 0.  0.
   -5000001    2    3    3    0    0 -0.26610713130E+03  0.16106048687E+03  0.20221009492E+03  0.38079955243E+03  0.85824768465E+02 0.  0.
     200001    1    1    2    0    0  0.82182952005E+02 -0.24640346240E+03 -0.91403042927E+03  0.11307914615E+04  0.61300000000E+03 0. -1.
         11    1    4    4    0    0 -0.14734017930E+03  0.12131331234E+03  0.14593676724E+03  0.24025733750E+03  0.51100000000E-03 0.  1.
    -200002    1    4    4    0    0 -0.11876695199E+03  0.39747174530E+02  0.56273327680E+02  0.14054221493E+03  0.30000000000E+02 0.  1.
    -200000    1    3    3    0    0  0.18392417929E+03  0.85342975529E+02 -0.17441813081E+03  0.28589195784E+03  0.10100000000E+03 0.  1.
<mgrwt>
<rscale>  0 0.15638179E+04</rscale>
<asrwt>0</asrwt>
<pdfrwt beam="1">  1        2 0.19169439E+00 0.15638179E+04</pdfrwt>
<pdfrwt beam="2">  1       -2 0.65088894E-01 0.15638179E+04</pdfrwt>
<totfact> 0.37329235E+01</totfact>
</mgrwt>
</event>
<event>
 8    2  0.7266322E-052  0.1561357E+04  0.7818608E-02  0.8844646E-01
         -2   -1    0    0    0  501 -0.00000000000E+00  0.00000000000E+00  0.41603796295E+03  0.41603796296E+03  0.25500000000E-02 0. -1.
          2   -1    0    0  501    0  0.00000000000E+00 -0.00000000000E+00 -0.14649114204E+04  0.14649114204E+04  0.25500000000E-02 0.  1.
    -200001    2    1    2    0    0  0.10324225558E+03 -0.16527186633E+03  0.58803827337E+01  0.64553511417E+03  0.61539194957E+03 0.  0.
   -5000001    2    3    3    0    0  0.11527122534E+03  0.15692549214E+03  0.13154452205E+03  0.28505167513E+03  0.16136118101E+03 0.  0.
     200001    1    1    2    0    0 -0.10324225558E+03  0.16527186633E+03 -0.10547538402E+04  0.12354142692E+04  0.61300000000E+03 0.  1.
         11    1    4    4    0    0  0.90966073335E+02  0.17269952326E+03  0.14280098609E+03  0.24185134579E+03  0.51100000000E-03 0.  1.
    -200002    1    4    4    0    0  0.24305152007E+02 -0.15774031125E+02 -0.11256464038E+02  0.43200329335E+02  0.30000000000E+02 0.  1.
    -200000    1    3    3    0    0 -0.12028969761E+02 -0.32219735846E+03 -0.12566413932E+03  0.36048343905E+03  0.10100000000E+03 0. -1.
<mgrwt>
<rscale>  0 0.15613568E+04</rscale>
<asrwt>0</asrwt>
<pdfrwt beam="1">  1        2 0.20927306E+00 0.15613568E+04</pdfrwt>
<pdfrwt beam="2">  1       -2 0.59433995E-01 0.15613568E+04</pdfrwt>
<totfact> 0.38858967E+01</totfact>
</mgrwt>
</event>
<event>
 8    2  0.7266322E-052  0.2229200E+04  0.7818608E-02  0.8506372E-01
         -2   -1    0    0    0  501 -0.00000000000E+00  0.00000000000E+00  0.13457962821E+04  0.13457962821E+04  0.25500000000E-02 0. -1.
          2   -1    0    0  501    0  0.00000000000E+00 -0.00000000000E+00 -0.92312154066E+03  0.92312154067E+03  0.25500000000E-02 0.  1.
    -200001    2    1    2    0    0 -0.91519146176E+03 -0.56435874342E+02  0.37460126245E+03  0.11649067363E+04  0.61312411372E+03 0.  0.
   -5000001    2    3    3    0    0 -0.90588435732E+03  0.47352119649E+02  0.43335134314E+03  0.10083463905E+04  0.78104830630E+02 0.  0.
     200001    1    1    2    0    0  0.91519146176E+03  0.56435874342E+02  0.48073478948E+02  0.11040110864E+04  0.61300000000E+03 0.  1.
         11    1    4    4    0    0 -0.38853303597E+03 -0.12202965111E+02  0.17690361501E+03  0.42708514538E+03  0.51100000000E-03 0.  1.
    -200002    1    4    4    0    0 -0.51735132135E+03  0.59555084759E+02  0.25644772813E+03  0.58126124513E+03  0.30000000000E+02 0.  1.
    -200000    1    3    3    0    0 -0.93071044402E+01 -0.10378799399E+03 -0.58750080696E+02  0.15656034578E+03  0.10100000000E+03 0.  1.
<mgrwt>
<rscale>  0 0.22292003E+04</rscale>
<asrwt>0</asrwt>
<pdfrwt beam="1">  1        2 0.13187451E+00 0.22292003E+04</pdfrwt>
<pdfrwt beam="2">  1       -2 0.19225661E+00 0.22292003E+04</pdfrwt>
<totfact> 0.43057021E+00</totfact>
</mgrwt>
</event>
<event>
 8    2  0.7266322E-052  0.1255587E+04  0.7818608E-02  0.9065546E-01
         -2   -1    0    0    0  501 -0.00000000000E+00  0.00000000000E+00  0.23117891524E+03  0.23117891525E+03  0.25500000000E-02 0. -1.
          2   -1    0    0  501    0  0.00000000000E+00 -0.00000000000E+00 -0.17048466726E+04  0.17048466726E+04  0.25500000000E-02 0.  1.
    -200001    2    1    2    0    0  0.33818533942E+02  0.96741828330E+02 -0.87414607862E+03  0.10724875644E+04  0.61285849468E+03 0.  0.
   -5000001    2    3    3    0    0  0.80829912992E+02 -0.52993292332E+01 -0.91037562358E+03  0.91712975958E+03  0.76037242005E+02 0.  0.
     200001    1    1    2    0    0 -0.33818533942E+02 -0.96741828330E+02 -0.59952167870E+03  0.86353802338E+03  0.61300000000E+03 0. -1.
         11    1    4    4    0    0  0.17536634087E+02 -0.73033566803E+01 -0.53084224898E+03  0.53118204587E+03  0.51100000000E-03 0.  1.
    -200002    1    4    4    0    0  0.63293278905E+02  0.20040274471E+01 -0.37953337460E+03  0.38594771371E+03  0.30000000000E+02 0.  1.
    -200000    1    3    3    0    0 -0.47011379051E+02  0.10204115756E+03  0.36229544968E+02  0.15535780484E+03  0.10100000000E+03 0. -1.
<mgrwt>
<rscale>  0 0.12555869E+04</rscale>
<asrwt>0</asrwt>
<pdfrwt beam="1">  1        2 0.24354952E+00 0.12555869E+04</pdfrwt>
<pdfrwt beam="2">  1       -2 0.33025560E-01 0.12555869E+04</pdfrwt>
<totfact> 0.95913152E+01</totfact>
</mgrwt>
</event>
<event>
 8    2  0.7266322E-052  0.1719407E+04  0.7818608E-02  0.8750373E-01
          2   -1    0    0  501    0  0.00000000000E+00  0.00000000000E+00  0.21658820597E+04  0.21658820597E+04  0.25500000000E-02 0.  1.
         -2   -1    0    0    0  501 -0.00000000000E+00 -0.00000000000E+00 -0.34124194620E+03  0.34124194621E+03  0.25500000000E-02 0. -1.
    -200001    2    1    2    0    0 -0.15419215532E+03 -0.25237848359E+03  0.14765472791E+03  0.69728448175E+03  0.61394919177E+03 0.  0.
   -5000001    2    3    3    0    0 -0.28040059160E+03 -0.53491071452E+01  0.25075679680E+03  0.38458155752E+03  0.79817908565E+02 0.  0.
     200001    1    1    2    0    0  0.15419215532E+03  0.25237848359E+03  0.16769853856E+04  0.18098395241E+04  0.61300000000E+03 0.  1.
         11    1    4    4    0    0 -0.17429935016E+03 -0.53463591707E+01  0.11159120113E+03  0.20703005384E+03  0.51100000000E-03 0.  1.
    -200002    1    4    4    0    0 -0.10610124145E+03 -0.27479745294E-02  0.13916559567E+03  0.17755150369E+03  0.30000000000E+02 0.  1.
    -200000    1    3    3    0    0  0.12620843628E+03 -0.24702937644E+03 -0.10310206889E+03  0.31270292423E+03  0.10100000000E+03 0. -1.
<mgrwt>
<rscale>  0 0.17194067E+04</rscale>
<asrwt>0</asrwt>
<pdfrwt beam="1">  1        2 0.30941174E+00 0.17194067E+04</pdfrwt>
<pdfrwt beam="2">  1       -2 0.48748847E-01 0.17194067E+04</pdfrwt>
<totfact> 0.25001027E+01</totfact>
</mgrwt>
</event>
<event>
 8    2  0.7266322E-052  0.1422229E+04  0.7818608E-02  0.8937883E-01
         -2   -1    0    0    0  501 -0.00000000000E+00  0.00000000000E+00  0.22486702168E+03  0.22486702170E+03  0.25500000000E-02 0. -1.
          2   -1    0    0  501    0  0.00000000000E+00 -0.00000000000E+00 -0.22488126859E+04  0.22488126859E+04  0.25500000000E-02 0.  1.
    -200001    2    1    2    0    0 -0.10167889363E+03 -0.34409866151E+03 -0.99323798961E+03  0.12219330093E+04  0.61469999910E+03 0.  0.
   -5000001    2    3    3    0    0 -0.76685951494E+02  0.36661610817E+02 -0.74386344694E+03  0.75503720219E+03  0.97588627072E+02 0.  0.
     200001    1    1    2    0    0  0.10167889363E+03  0.34409866151E+03 -0.10307076746E+04  0.12517466983E+04  0.61300000000E+03 0.  1.
         11    1    4    4    0    0 -0.82538055745E+02  0.67762348995E+01 -0.39673019526E+03  0.40528174871E+03  0.51100000000E-03 0.  1.
    -200002    1    4    4    0    0  0.58521042504E+01  0.29885375917E+02 -0.34713325168E+03  0.34975545348E+03  0.30000000000E+02 0.  1.
    -200000    1    3    3    0    0 -0.24992942136E+02 -0.38076027233E+03 -0.24937454266E+03  0.46689580708E+03  0.10100000000E+03 0. -1.
<mgrwt>
<rscale>  0 0.14222290E+04</rscale>
<asrwt>0</asrwt>
<pdfrwt beam="1">  1        2 0.32125894E+00 0.14222290E+04</pdfrwt>
<pdfrwt beam="2">  1       -2 0.32123862E-01 0.14222290E+04</pdfrwt>
<totfact> 0.52383201E+01</totfact>
</mgrwt>
</event>
<event>
 8    2  0.7266322E-052  0.1409419E+04  0.7818608E-02  0.8947029E-01
         -2   -1    0    0    0  501 -0.00000000000E+00  0.00000000000E+00  0.45441350618E+03  0.45441350618E+03  0.25500000000E-02 0. -1.
          2   -1    0    0  501    0  0.00000000000E+00 -0.00000000000E+00 -0.10928714049E+04  0.10928714049E+04  0.25500000000E-02 0.  1.
    -200001    2    1    2    0    0 -0.25194981373E+03 -0.18000238467E+03 -0.14861821235E+03  0.70372608949E+03  0.61421776990E+03 0.  0.
   -5000001    2    3    3    0    0  0.50807966006E+02 -0.17915784393E+03 -0.29460466968E+03  0.35276165801E+03  0.54496729389E+02 0.  0.
     200001    1    1    2    0    0  0.25194981373E+03  0.18000238467E+03 -0.48983968635E+03  0.84355882157E+03  0.61300000000E+03 0. -1.
         11    1    4    4    0    0 -0.62630031175E+01 -0.30221012438E+02 -0.60293313217E+02  0.67733436498E+02  0.51100000000E-03 0.  1.
    -200002    1    4    4    0    0  0.57070969123E+02 -0.14893683150E+03 -0.23431135646E+03  0.28502822152E+03  0.30000000000E+02 0.  1.
    -200000    1    3    3    0    0 -0.30275777974E+03 -0.84454073516E+00  0.14598645733E+03  0.35096443148E+03  0.10100000000E+03 0. -1.
<mgrwt>
<rscale>  0 0.14094191E+04</rscale>
<asrwt>0</asrwt>
<pdfrwt beam="1">  1        2 0.15612449E+00 0.14094191E+04</pdfrwt>
<pdfrwt beam="2">  1       -2 0.64916215E-01 0.14094191E+04</pdfrwt>
<totfact> 0.52607793E+01</totfact>
</mgrwt>
</event>
<event>
 8    2  0.7266322E-052  0.1573059E+04  0.7818608E-02  0.8837272E-01
         -2   -1    0    0    0  501 -0.00000000000E+00  0.00000000000E+00  0.25678646120E+03  0.25678646121E+03  0.25500000000E-02 0. -1.
          2   -1    0    0  501    0  0.00000000000E+00 -0.00000000000E+00 -0.24091184572E+04  0.24091184572E+04  0.25500000000E-02 0.  1.
    -200001    2    1    2    0    0 -0.35988672061E+02  0.41512175609E+03 -0.15221630521E+04  0.16930209815E+04  0.61295875035E+03 0.  0.
   -5000001    2    3    3    0    0  0.33950685739E+02  0.37783889755E+03 -0.15152720580E+04  0.15644518907E+04  0.86864417256E+02 0.  0.
     200001    1    1    2    0    0  0.35988672061E+02 -0.41512175609E+03 -0.63016894388E+03  0.97288393693E+03  0.61300000000E+03 0. -1.
         11    1    4    4    0    0  0.24470325734E+02  0.31040792912E+03 -0.12967355370E+04  0.13335947406E+04  0.51100000000E-03 0.  1.
    -200002    1    4    4    0    0  0.94803600050E+01  0.67430968429E+02 -0.21853652104E+03  0.23085715011E+03  0.30000000000E+02 0.  1.
    -200000    1    3    3    0    0 -0.69939357800E+02  0.37282858549E+02 -0.68909941340E+01  0.12856909081E+03  0.10100000000E+03 0. -1.
<mgrwt>
<rscale>  0 0.15730594E+04</rscale>
<asrwt>0</asrwt>
<pdfrwt beam="1">  1        2 0.34415977E+00 0.15730594E+04</pdfrwt>
<pdfrwt beam="2">  1       -2 0.36683782E-01 0.15730594E+04</pdfrwt>
<totfact> 0.33184461E+01</totfact>
</mgrwt>
</event>
<event>
 8    2  0.7266322E-052  0.1408066E+04  0.7818608E-02  0.8948001E-01
          2   -1    0    0  501    0  0.00000000000E+00  0.00000000000E+00  0.13016670930E+04  0.13016670930E+04  0.25500000000E-02 0. -1.
         -2   -1    0    0    0  501 -0.00000000000E+00 -0.00000000000E+00 -0.38079027025E+03  0.38079027026E+03  0.25500000000E-02 0.  1.
    -200001    2    1    2    0    0 -0.10583918292E+02 -0.27375646677E+03  0.21120248115E+03  0.70549201406E+03  0.61486410810E+03 0.  0.
   -5000001    2    3    3    0    0  0.20358849920E+03 -0.13195533811E+03  0.31988792364E+03  0.40885939631E+03  0.77312573374E+02 0.  0.
     200001    1    1    2    0    0  0.10583918292E+02  0.27375646677E+03  0.70967434161E+03  0.97696534921E+03  0.61300000000E+03 0. -1.
         11    1    4    4    0    0  0.53912549369E+02 -0.67373253336E+02  0.82897059391E+02  0.11965634417E+03  0.51100000000E-03 0.  1.
    -200002    1    4    4    0    0  0.14967594983E+03 -0.64582084776E+02  0.23699086425E+03  0.28920305214E+03  0.30000000000E+02 0.  1.
    -200000    1    3    3    0    0 -0.21417241749E+03 -0.14180112865E+03 -0.10868544248E+03  0.29663261774E+03  0.10100000000E+03 0.  1.
<mgrwt>
<rscale>  0 0.14080656E+04</rscale>
<asrwt>0</asrwt>
<pdfrwt beam="1">  1        2 0.18595244E+00 0.14080656E+04</pdfrwt>
<pdfrwt beam="2">  1       -2 0.54398610E-01 0.14080656E+04</pdfrwt>
<totfact> 0.58022345E+01</totfact>
</mgrwt>
</event>
<event>
 8    2  0.7266322E-052  0.2029987E+04  0.7818608E-02  0.8592728E-01
          2   -1    0    0  501    0  0.00000000000E+00  0.00000000000E+00  0.19413953423E+04  0.19413953423E+04  0.25500000000E-02 0. -1.
         -2   -1    0    0    0  501 -0.00000000000E+00 -0.00000000000E+00 -0.53065534354E+03  0.53065534354E+03  0.25500000000E-02 0.  1.
    -200001    2    1    2    0    0 -0.50559567238E+03 -0.11601149970E+03  0.14615564156E+04  0.16674160108E+04  0.61240782597E+03 0.  0.
   -5000001    2    3    3    0    0 -0.12179121725E+03 -0.58718542393E+02  0.40106509821E+03  0.53364743792E+03  0.32503139414E+03 0.  0.
     200001    1    1    2    0    0  0.50559567238E+03  0.11601149970E+03 -0.50816416820E+02  0.80463467500E+03  0.61300000000E+03 0.  1.
         11    1    4    4    0    0 -0.86028883926E+01  0.12971227245E+03  0.13991462889E+03  0.19098530491E+03  0.51100000000E-03 0.  1.
    -200002    1    4    4    0    0 -0.11318832885E+03 -0.18843081485E+03  0.26115046932E+03  0.34266213301E+03  0.30000000000E+02 0.  1.
    -200000    1    3    3    0    0 -0.38380445513E+03 -0.57292957303E+02  0.10604913173E+04  0.11337685729E+04  0.10100000000E+03 0. -1.
<mgrwt>
<rscale>  0 0.20299870E+04</rscale>
<asrwt>0</asrwt>
<pdfrwt beam="1">  1        2 0.27734218E+00 0.20299870E+04</pdfrwt>
<pdfrwt beam="2">  1       -2 0.75807909E-01 0.20299870E+04</pdfrwt>
<totfact> 0.12478221E+01</totfact>
</mgrwt>
</event>
<event>
 8    2  0.7266322E-052  0.1466559E+04  0.7818608E-02  0.8907000E-01
          2   -1    0    0  501    0  0.00000000000E+00  0.00000000000E+00  0.14922413052E+04  0.14922413052E+04  0.25500000000E-02 0.  1.
         -2   -1    0    0    0  501 -0.00000000000E+00 -0.00000000000E+00 -0.36032979706E+03  0.36032979707E+03  0.25500000000E-02 0. -1.
    -200001    2    1    2    0    0 -0.18012680637E+03  0.11809257064E+03  0.99037635029E+03  0.11875953715E+04  0.61898782672E+03 0.  0.
   -5000001    2    3    3    0    0  0.82127811175E+02  0.29652065258E+03  0.38207153570E+03  0.49416202050E+03  0.59564833090E+02 0.  0.
     200001    1    1    2    0    0  0.18012680637E+03 -0.11809257064E+03  0.14153515789E+03  0.66497573079E+03  0.61300000000E+03 0. -1.
         11    1    4    4    0    0  0.92878722426E+01  0.10651344063E+02  0.34541458466E+02  0.37320611656E+02  0.51100000000E-03 0.  1.
    -200002    1    4    4    0    0  0.72839938933E+02  0.28586930852E+03  0.34753007723E+03  0.45684140885E+03  0.30000000000E+02 0.  1.
    -200000    1    3    3    0    0 -0.26225461755E+03 -0.17842808194E+03  0.60830481460E+03  0.69343335102E+03  0.10100000000E+03 0.  1.
<mgrwt>
<rscale>  0 0.14665592E+04</rscale>
<asrwt>0</asrwt>
<pdfrwt beam="1">  1        2 0.21317734E+00 0.14665592E+04</pdfrwt>
<pdfrwt beam="2">  1       -2 0.51475684E-01 0.14665592E+04</pdfrwt>
<totfact> 0.51024261E+01</totfact>
</mgrwt>
</event>
<event>
 8    2  0.7266322E-052  0.1447301E+04  0.7818608E-02  0.8920274E-01
          2   -1    0    0  501    0  0.00000000000E+00  0.00000000000E+00  0.20568312289E+04  0.20568312289E+04  0.25500000000E-02 0. -1.
         -2   -1    0    0    0  501 -0.00000000000E+00 -0.00000000000E+00 -0.25460044763E+03  0.25460044765E+03  0.25500000000E-02 0.  1.
    -200001    2    1    2    0    0  0.15946074957E+03 -0.13118493986E+03  0.14197101672E+04  0.15599476519E+04  0.61255407825E+03 0.  0.
   -5000001    2    3    3    0    0 -0.20748923098E+02 -0.63890791304E+02 -0.69212260603E+01  0.11686686389E+03  0.95380341172E+02 0.  0.
     200001    1    1    2    0    0 -0.15946074957E+03  0.13118493986E+03  0.38252061409E+03  0.75148402465E+03  0.61300000000E+03 0.  1.
         11    1    4    4    0    0  0.27259969274E+02 -0.33947104578E+01  0.14813940111E+02  0.31210299675E+02  0.51100000000E-03 0.  1.
    -200002    1    4    4    0    0 -0.48008892372E+02 -0.60496080846E+02 -0.21735166171E+02  0.85656564214E+02  0.30000000000E+02 0.  1.
    -200000    1    3    3    0    0  0.18020967266E+03 -0.67294148552E+02  0.14266313932E+04  0.14430807880E+04  0.10100000000E+03 0. -1.
<mgrwt>
<rscale>  0 0.14473011E+04</rscale>
<asrwt>0</asrwt>
<pdfrwt beam="1">  1        2 0.29383303E+00 0.14473011E+04</pdfrwt>
<pdfrwt beam="2">  1       -2 0.36371493E-01 0.14473011E+04</pdfrwt>
<totfact> 0.51825531E+01</totfact>
</mgrwt>
</event>
<event>
 8    2  0.7266322E-052  0.1316962E+04  0.7818608E-02  0.9016221E-01
         -2   -1    0    0    0  501 -0.00000000000E+00  0.00000000000E+00  0.29839585536E+03  0.29839585538E+03  0.25500000000E-02 0. -1.
          2   -1    0    0  501    0  0.00000000000E+00 -0.00000000000E+00 -0.14530941684E+04  0.14530941684E+04  0.25500000000E-02 0.  1.
    -200001    2    1    2    0    0 -0.16535333675E+03  0.92250252726E+02 -0.77348121786E+03  0.10052009988E+04  0.61343623840E+03 0.  0.
   -5000001    2    3    3    0    0 -0.30884770618E+03  0.23229899314E+03 -0.59874117081E+03  0.72070254930E+03  0.10757066103E+03 0.  0.
     200001    1    1    2    0    0  0.16535333675E+03 -0.92250252726E+02 -0.38121709520E+03  0.74628902496E+03  0.61300000000E+03 0. -1.
         11    1    4    4    0    0  0.67745322320E+01  0.15802063780E+02 -0.23539416375E+02  0.29149676331E+02  0.51100000000E-03 0.  1.
    -200002    1    4    4    0    0 -0.31562223841E+03  0.21649692936E+03 -0.57520175444E+03  0.69155287297E+03  0.30000000000E+02 0.  1.
    -200000    1    3    3    0    0  0.14349436943E+03 -0.14004874041E+03 -0.17474004705E+03  0.28449844954E+03  0.10100000000E+03 0.  1.
<mgrwt>
<rscale>  0 0.13169621E+04</rscale>
<asrwt>0</asrwt>
<pdfrwt beam="1">  1        2 0.20758488E+00 0.13169621E+04</pdfrwt>
<pdfrwt beam="2">  1       -2 0.42627980E-01 0.13169621E+04</pdfrwt>
<totfact> 0.79113877E+01</totfact>
</mgrwt>
</event>
<event>
 8    2  0.7266322E-052  0.1391876E+04  0.7818608E-02  0.8959720E-01
         -2   -1    0    0    0  501 -0.00000000000E+00  0.00000000000E+00  0.27646493069E+04  0.27646493069E+04  0.25500000000E-02 0. -1.
          2   -1    0    0  501    0  0.00000000000E+00 -0.00000000000E+00 -0.17518656193E+03  0.17518656195E+03  0.25500000000E-02 0.  1.
    -200001    2    1    2    0    0  0.57307392101E+02  0.26857391853E+03  0.90985184625E+03  0.11308920173E+04  0.61291947741E+03 0.  0.
   -5000001    2    3    3    0    0 -0.18435514544E+03  0.71578367617E+02  0.97659387047E+02  0.25506919281E+03  0.12811188423E+03 0.  0.
     200001    1    1    2    0    0 -0.57307392101E+02 -0.26857391853E+03  0.16796108987E+04  0.18089438515E+04  0.61300000000E+03 0. -1.
         11    1    4    4    0    0 -0.75897736776E+02  0.92237358707E+02  0.65477348147E+02  0.13621850061E+03  0.51100000000E-03 0.  1.
    -200002    1    4    4    0    0 -0.10845740867E+03 -0.20658991091E+02  0.32182038900E+02  0.11885069220E+03  0.30000000000E+02 0.  1.
    -200000    1    3    3    0    0  0.24166253754E+03  0.19699555092E+03  0.81219245920E+03  0.87582282450E+03  0.10100000000E+03 0. -1.
<mgrwt>
<rscale>  0 0.13918756E+04</rscale>
<asrwt>0</asrwt>
<pdfrwt beam="1">  1        2 0.25026651E-01 0.13918756E+04</pdfrwt>
<pdfrwt beam="2">  1       -2 0.39494991E+00 0.13918756E+04</pdfrwt>
<totfact> 0.17327222E+00</totfact>
</mgrwt>
</event>
<event>
 8    2  0.7266322E-052  0.1325596E+04  0.7818608E-02  0.9009510E-01
          2   -1    0    0  501    0  0.00000000000E+00  0.00000000000E+00  0.51693111989E+03  0.51693111990E+03  0.25500000000E-02 0.  1.
         -2   -1    0    0    0  501 -0.00000000000E+00 -0.00000000000E+00 -0.84982567230E+03  0.84982567231E+03  0.25500000000E-02 0. -1.
    -200001    2    1    2    0    0  0.70252189399E+02  0.24102893965E+03 -0.17083066143E+03  0.68480076384E+03  0.61379039697E+03 0.  0.
   -5000001    2    3    3    0    0 -0.83768891289E+02 -0.60452618362E+02  0.15622079258E+03  0.20336823826E+03  0.79258804459E+02 0.  0.
     200001    1    1    2    0    0 -0.70252189399E+02 -0.24102893965E+03 -0.16206389097E+03  0.68195602836E+03  0.61300000000E+03 0.  1.
         11    1    4    4    0    0 -0.76685967882E+02 -0.54466729280E+02  0.13817449088E+03  0.16715128536E+03  0.51100000000E-03 0.  1.
    -200002    1    4    4    0    0 -0.70829234067E+01 -0.59858890828E+01  0.18046301699E+02  0.36216952896E+02  0.30000000000E+02 0. -1.
    -200000    1    3    3    0    0  0.15402108069E+03  0.30148155801E+03 -0.32705145401E+03  0.48143252558E+03  0.10100000000E+03 0. -1.
<mgrwt>
<rscale>  0 0.13255962E+04</rscale>
<asrwt>0</asrwt>
<pdfrwt beam="1">  1        2 0.73847303E-01 0.13255962E+04</pdfrwt>
<pdfrwt beam="2">  1       -2 0.12140367E+00 0.13255962E+04</pdfrwt>
<totfact> 0.32650470E+01</totfact>
</mgrwt>
</event>
<event>
 8    2  0.7266322E-052  0.1358699E+04  0.7818608E-02  0.8984269E-01
         -2   -1    0    0    0  501 -0.00000000000E+00  0.00000000000E+00  0.10282584245E+04  0.10282584245E+04  0.25500000000E-02 0. -1.
          2   -1    0    0  501    0  0.00000000000E+00 -0.00000000000E+00 -0.44883251283E+03  0.44883251283E+03  0.25500000000E-02 0.  1.
    -200001    2    1    2    0    0 -0.26155313782E+03 -0.13091632357E+03  0.31711785699E+03  0.74899503483E+03  0.61227501934E+03 0.  0.
   -5000001    2    3    3    0    0 -0.31814013440E+03  0.12405784213E+03  0.83094694450E+02  0.38405428079E+03  0.15488534159E+03 0.  0.
     200001    1    1    2    0    0  0.26155313782E+03  0.13091632357E+03  0.26230805468E+03  0.72809590250E+03  0.61300000000E+03 0.  1.
         11    1    4    4    0    0 -0.30227323620E+03  0.14474988471E+03  0.72073103733E+02  0.34280631664E+03  0.51100000000E-03 0.  1.
    -200002    1    4    4    0    0 -0.15866898201E+02 -0.20692042582E+02  0.11021590718E+02  0.41247964152E+02  0.30000000000E+02 0.  1.
    -200000    1    3    3    0    0  0.56586996580E+02 -0.25497416570E+03  0.23402316254E+03  0.36494075404E+03  0.10100000000E+03 0.  1.
<mgrwt>
<rscale>  0 0.13586991E+04</rscale>
<asrwt>0</asrwt>
<pdfrwt beam="1">  1        2 0.64118930E-01 0.13586991E+04</pdfrwt>
<pdfrwt beam="2">  1       -2 0.14689406E+00 0.13586991E+04</pdfrwt>
<totfact> 0.23494223E+01</totfact>
</mgrwt>
</event>
<event>
 8    2  0.7266322E-052  0.1777491E+04  0.7818608E-02  0.8718362E-01
         -2   -1    0    0    0  501 -0.00000000000E+00  0.00000000000E+00  0.13833975691E+04  0.13833975691E+04  0.25500000000E-02 0. -1.
          2   -1    0    0  501    0  0.00000000000E+00 -0.00000000000E+00 -0.57096276299E+03  0.57096276300E+03  0.25500000000E-02 0.  1.
    -200001    2    1    2    0    0 -0.43447089640E+03  0.39702489617E+03  0.69241966898E+03  0.10961258879E+04  0.61290556871E+03 0.  0.
   -5000001    2    3    3    0    0 -0.49745420899E+03  0.16033744676E+03  0.63378354820E+03  0.82478285587E+03  0.73596103795E+02 0.  0.
     200001    1    1    2    0    0  0.43447089640E+03 -0.39702489617E+03  0.12001513710E+03  0.85823444415E+03  0.61300000000E+03 0.  1.
         11    1    4    4    0    0 -0.35617706569E+03  0.93667971461E+02  0.45805260957E+03  0.58774823193E+03  0.51100000000E-03 0.  1.
    -200002    1    4    4    0    0 -0.14127714330E+03  0.66669475296E+02  0.17573093863E+03  0.23703462394E+03  0.30000000000E+02 0. -1.
    -200000    1    3    3    0    0  0.62983312591E+02  0.23668744942E+03  0.58636120778E+02  0.27134303204E+03  0.10100000000E+03 0. -1.
<mgrwt>
<rscale>  0 0.17774909E+04</rscale>
<asrwt>0</asrwt>
<pdfrwt beam="1">  1        2 0.81566109E-01 0.17774909E+04</pdfrwt>
<pdfrwt beam="2">  1       -2 0.19762822E+00 0.17774909E+04</pdfrwt>
<totfact> 0.75183429E+00</totfact>
</mgrwt>
</event>
<event>
 8    2  0.7266322E-052  0.1636105E+04  0.7818608E-02  0.8798669E-01
          2   -1    0    0  501    0  0.00000000000E+00  0.00000000000E+00  0.12441256601E+04  0.12441256601E+04  0.25500000000E-02 0.  1.
         -2   -1    0    0    0  501 -0.00000000000E+00 -0.00000000000E+00 -0.53789562292E+03  0.53789562293E+03  0.25500000000E-02 0. -1.
    -200001    2    1    2    0    0  0.25760996541E+03 -0.57837100578E+02  0.86833095251E+03  0.10951779739E+04  0.61295034630E+03 0.  0.
   -5000001    2    3    3    0    0  0.42106412244E+03 -0.14673675117E+03  0.54537518466E+03  0.70901500663E+03  0.80259069569E+02 0.  0.
     200001    1    1    2    0    0 -0.25760996541E+03  0.57837100578E+02 -0.16210091534E+03  0.68684330909E+03  0.61300000000E+03 0.  1.
         11    1    4    4    0    0  0.21884899739E+03 -0.10262146325E+03  0.32713258438E+03  0.40674534557E+03  0.51100000000E-03 0.  1.
    -200002    1    4    4    0    0  0.20221512505E+03 -0.44115287913E+02  0.21824260028E+03  0.30226966107E+03  0.30000000000E+02 0.  1.
    -200000    1    3    3    0    0 -0.16345415703E+03  0.88899650590E+02  0.32295576786E+03  0.38616296730E+03  0.10100000000E+03 0.  1.
<mgrwt>
<rscale>  0 0.16361048E+04</rscale>
<asrwt>0</asrwt>
<pdfrwt beam="1">  1        2 0.17773224E+00 0.16361048E+04</pdfrwt>
<pdfrwt beam="2">  1       -2 0.76842232E-01 0.16361048E+04</pdfrwt>
<totfact> 0.29257928E+01</totfact>
</mgrwt>
</event>
<event>
 8    2  0.7266322E-052  0.1311217E+04  0.7818608E-02  0.9020717E-01
         -2   -1    0    0    0  501 -0.00000000000E+00  0.00000000000E+00  0.89483677761E+03  0.89483677761E+03  0.25500000000E-02 0. -1.
          2   -1    0    0  501    0  0.00000000000E+00 -0.00000000000E+00 -0.48033625602E+03  0.48033625602E+03  0.25500000000E-02 0.  1.
    -200001    2    1    2    0    0 -0.13355318877E+03 -0.14319099153E+03  0.75765272710E+02  0.64795182717E+03  0.61299353953E+03 0.  0.
   -5000001    2    3    3    0    0 -0.10102657177E+03  0.40902029183E+02  0.30595436699E+03  0.33468478420E+03  0.80786669079E+02 0.  0.
     200001    1    1    2    0    0  0.13355318877E+03  0.14319099153E+03  0.33873524888E+03  0.72722120646E+03  0.61300000000E+03 0. -1.
         11    1    4    4    0    0 -0.31450455842E+02  0.12945164863E+02  0.19214602256E+03  0.19513278160E+03  0.51100000000E-03 0.  1.
    -200002    1    4    4    0    0 -0.69576115926E+02  0.27956864320E+02  0.11380834442E+03  0.13955200260E+03  0.30000000000E+02 0.  1.
    -200000    1    3    3    0    0 -0.32526616998E+02 -0.18409302072E+03 -0.23018909428E+03  0.31326704298E+03  0.10100000000E+03 0.  1.
<mgrwt>
<rscale>  0 0.13112171E+04</rscale>
<asrwt>0</asrwt>
<pdfrwt beam="1">  1        2 0.68619465E-01 0.13112171E+04</pdfrwt>
<pdfrwt beam="2">  1       -2 0.12783383E+00 0.13112171E+04</pdfrwt>
<totfact> 0.31233149E+01</totfact>
</mgrwt>
</event>
<event>
 8    2  0.7266322E-052  0.1267784E+04  0.7818608E-02  0.9055510E-01
          2   -1    0    0  501    0  0.00000000000E+00  0.00000000000E+00  0.49021837072E+03  0.49021837073E+03  0.25500000000E-02 0.  1.
         -2   -1    0    0    0  501 -0.00000000000E+00 -0.00000000000E+00 -0.81967425955E+03  0.81967425955E+03  0.25500000000E-02 0. -1.
    -200001    2    1    2    0    0 -0.11239531788E+03 -0.15813722231E+02 -0.49407378975E+02  0.62646088594E+03  0.61410859889E+03 0.  0.
   -5000001    2    3    3    0    0  0.39349012371E+02  0.98181423840E+01  0.16996496347E+03  0.34008952062E+03  0.29176712038E+03 0.  0.
     200001    1    1    2    0    0  0.11239531788E+03  0.15813722231E+02 -0.28004850985E+03  0.68343174433E+03  0.61300000000E+03 0. -1.
         11    1    4    4    0    0  0.89378369960E+02  0.82285367330E+02  0.20695293510E+03  0.23997685730E+03  0.51100000000E-03 0.  1.
    -200002    1    4    4    0    0 -0.50029357589E+02 -0.72467224946E+02 -0.36987971627E+02  0.10011266332E+03  0.30000000000E+02 0.  1.
    -200000    1    3    3    0    0 -0.15174433025E+03 -0.25631864615E+02 -0.21937234245E+03  0.28637136532E+03  0.10100000000E+03 0. -1.
<mgrwt>
<rscale>  0 0.12677845E+04</rscale>
<asrwt>0</asrwt>
<pdfrwt beam="1">  1        2 0.70031196E-01 0.12677845E+04</pdfrwt>
<pdfrwt beam="2">  1       -2 0.11709632E+00 0.12677845E+04</pdfrwt>
<totfact> 0.38102778E+01</totfact>
</mgrwt>
</event>
<event>
 8    2  0.7266322E-052  0.1476554E+04  0.7818608E-02  0.8900196E-01
          2   -1    0    0  501    0  0.00000000000E+00  0.00000000000E+00  0.49242999654E+03  0.49242999655E+03  0.25500000000E-02 0.  1.
         -2   -1    0    0    0  501 -0.00000000000E+00 -0.00000000000E+00 -0.11068633638E+04  0.11068633638E+04  0.25500000000E-02 0. -1.
    -200001    2    1    2    0    0 -0.39163042083E+03 -0.87750825121E+02 -0.22112930238E+03  0.76770952133E+03  0.61595872179E+03 0.  0.
   -5000001    2    3    3    0    0 -0.38650667944E+03 -0.24760443457E+03  0.13317272055E+02  0.46646937553E+03  0.81981457078E+02 0.  0.
     200001    1    1    2    0    0  0.39163042083E+03  0.87750825121E+02 -0.39330406485E+03  0.83158383898E+03  0.61300000000E+03 0.  1.
         11    1    4    4    0    0 -0.18390980630E+03 -0.15882149577E+03  0.31553445417E+01  0.24301654382E+03  0.51100000000E-03 0.  1.
    -200002    1    4    4    0    0 -0.20259687315E+03 -0.88782938796E+02  0.10161927514E+02  0.22345283171E+03  0.30000000000E+02 0. -1.
    -200000    1    3    3    0    0 -0.51237413915E+01  0.15985360945E+03 -0.23444657443E+03  0.30124014580E+03  0.10100000000E+03 0. -1.
<mgrwt>
<rscale>  0 0.14765537E+04</rscale>
<asrwt>0</asrwt>
<pdfrwt beam="1">  1        2 0.70347143E-01 0.14765537E+04</pdfrwt>
<pdfrwt beam="2">  1       -2 0.15812334E+00 0.14765537E+04</pdfrwt>
<totfact> 0.17219692E+01</totfact>
</mgrwt>
</event>
<event>
 8    2  0.7266322E-052  0.2380118E+04  0.7818608E-02  0.8446985E-01
         -2   -1    0    0    0  501 -0.00000000000E+00  0.00000000000E+00  0.39950159065E+03  0.39950159066E+03  0.25500000000E-02 0. -1.
          2   -1    0    0  501    0  0.00000000000E+00 -0.00000000000E+00 -0.35450182862E+04  0.35450182862E+04  0.25500000000E-02 0.  1.
    -200001    2    1    2    0    0  0.26810549477E+03  0.61344841714E+03 -0.28468582063E+04  0.29889229901E+04  0.61713813460E+03 0.  0.
   -5000001    2    3    3    0    0  0.11671713174E+02  0.12519163284E+03 -0.13352731687E+03  0.21826991055E+03  0.11833442304E+03 0.  0.
     200001    1    1    2    0    0 -0.26810549477E+03 -0.61344841714E+03 -0.29865848928E+03  0.95559688679E+03  0.61300000000E+03 0. -1.
         11    1    4    4    0    0 -0.13364450875E+02  0.12511404113E+03 -0.70826383238E+02  0.14439012569E+03  0.51100000000E-03 0.  1.
    -200002    1    4    4    0    0  0.25036164048E+02  0.77591713134E-01 -0.62700933636E+02  0.73879784851E+02  0.30000000000E+02 0.  1.
    -200000    1    3    3    0    0  0.25643378160E+03  0.48825678430E+03 -0.27133308894E+04  0.27706530796E+04  0.10100000000E+03 0.  1.
<mgrwt>
<rscale>  0 0.23801180E+04</rscale>
<asrwt>0</asrwt>
<pdfrwt beam="1">  1        2 0.50643116E+00 0.23801180E+04</pdfrwt>
<pdfrwt beam="2">  1       -2 0.57071658E-01 0.23801180E+04</pdfrwt>
<totfact> 0.29399715E+00</totfact>
</mgrwt>
</event>
<event>
 8    2  0.7266322E-052  0.1363415E+04  0.7818608E-02  0.8980734E-01
          2   -1    0    0  501    0  0.00000000000E+00  0.00000000000E+00  0.41125805193E+03  0.41125805194E+03  0.25500000000E-02 0.  1.
         -2   -1    0    0    0  501 -0.00000000000E+00 -0.00000000000E+00 -0.11300093574E+04  0.11300093574E+04  0.25500000000E-02 0. -1.
    -200001    2    1    2    0    0  0.26010526442E+03 -0.12820365644E+03 -0.28009938495E+03  0.73363170342E+03  0.61291833445E+03 0.  0.
   -5000001    2    3    3    0    0  0.18608793319E+03  0.15137550265E+03  0.81792168354E+02  0.25949082998E+03  0.55698028298E+02 0.  0.
     200001    1    1    2    0    0 -0.26010526442E+03  0.12820365644E+03 -0.43865192054E+03  0.80763570593E+03  0.61300000000E+03 0.  1.
         11    1    4    4    0    0  0.36121108521E+02  0.49143451392E+02  0.89936019378E+01  0.61649802689E+02  0.51100000000E-03 0.  1.
    -200002    1    4    4    0    0  0.14996682467E+03  0.10223205125E+03  0.72798566416E+02  0.19784102729E+03  0.30000000000E+02 0.  1.
    -200000    1    3    3    0    0  0.74017331230E+02 -0.27957915909E+03 -0.36189155330E+03  0.47414087344E+03  0.10100000000E+03 0. -1.
<mgrwt>
<rscale>  0 0.13634155E+04</rscale>
<asrwt>0</asrwt>
<pdfrwt beam="1">  1        2 0.58751151E-01 0.13634155E+04</pdfrwt>
<pdfrwt beam="2">  1       -2 0.16142991E+00 0.13634155E+04</pdfrwt>
<totfact> 0.20120893E+01</totfact>
</mgrwt>
</event>
<event>
 8    2  0.7266322E-052  0.1363948E+04  0.7818608E-02  0.8980336E-01
         -2   -1    0    0    0  501 -0.00000000000E+00  0.00000000000E+00  0.66970448101E+03  0.66970448101E+03  0.25500000000E-02 0. -1.
          2   -1    0    0  501    0  0.00000000000E+00 -0.00000000000E+00 -0.69446843791E+03  0.69446843792E+03  0.25500000000E-02 0.  1.
    -200001    2    1    2    0    0 -0.10737010773E+03 -0.60731871870E+02 -0.27498701559E+03  0.69067660907E+03  0.62144961121E+03 0.  0.
   -5000001    2    3    3    0    0 -0.23196892832E+03 -0.24482181023E+03 -0.44737074486E+02  0.35507266559E+03  0.10162622468E+03 0.  0.
     200001    1    1    2    0    0  0.10737010773E+03  0.60731871870E+02  0.25022305869E+03  0.67349630986E+03  0.61300000000E+03 0. -1.
         11    1    4    4    0    0 -0.94999004729E+02 -0.37904528968E+02 -0.14221598439E+02  0.10326576431E+03  0.51100000000E-03 0.  1.
    -200002    1    4    4    0    0 -0.13696992359E+03 -0.20691728127E+03 -0.30515476047E+02  0.25180690128E+03  0.30000000000E+02 0.  1.
    -200000    1    3    3    0    0  0.12459882059E+03  0.18408993836E+03 -0.23024994110E+03  0.33560394348E+03  0.10100000000E+03 0.  1.
<mgrwt>
<rscale>  0 0.13639481E+04</rscale>
<asrwt>0</asrwt>
<pdfrwt beam="1">  1        2 0.99209777E-01 0.13639481E+04</pdfrwt>
<pdfrwt beam="2">  1       -2 0.95672069E-01 0.13639481E+04</pdfrwt>
<totfact> 0.40733464E+01</totfact>
</mgrwt>
</event>
<event>
 8    2  0.7266322E-052  0.1637376E+04  0.7818608E-02  0.8797910E-01
         -2   -1    0    0    0  501 -0.00000000000E+00  0.00000000000E+00  0.70617929904E+03  0.70617929904E+03  0.25500000000E-02 0. -1.
          2   -1    0    0  501    0  0.00000000000E+00 -0.00000000000E+00 -0.94912137875E+03  0.94912137875E+03  0.25500000000E-02 0.  1.
    -200001    2    1    2    0    0  0.53118716103E+03 -0.87353886078E+02 -0.18939318123E+03  0.83772683649E+03  0.61329110056E+03 0.  0.
   -5000001    2    3    3    0    0 -0.26674435781E+02 -0.96706858793E+02  0.12145572037E+03  0.19110091765E+03  0.10818653637E+03 0.  0.
     200001    1    1    2    0    0 -0.53118716103E+03  0.87353886078E+02 -0.53548898477E+02  0.81757384130E+03  0.61300000000E+03 0. -1.
         11    1    4    4    0    0  0.72350443643E+00  0.76021341942E+01  0.65516706413E+02  0.65960251079E+02  0.51100000000E-03 0.  1.
    -200002    1    4    4    0    0 -0.27397940217E+02 -0.10430899299E+03  0.55939013958E+02  0.12514066657E+03  0.30000000000E+02 0.  1.
    -200000    1    3    3    0    0  0.55786159681E+03  0.93529727146E+01 -0.31084890161E+03  0.64662591884E+03  0.10100000000E+03 0.  1.
<mgrwt>
<rscale>  0 0.16373758E+04</rscale>
<asrwt>0</asrwt>
<pdfrwt beam="1">  1        2 0.13558877E+00 0.16373758E+04</pdfrwt>
<pdfrwt beam="2">  1       -2 0.10088276E+00 0.16373758E+04</pdfrwt>
<totfact> 0.23443138E+01</totfact>
</mgrwt>
</event>
<event>
 8    2  0.7266322E-052  0.1719996E+04  0.7818608E-02  0.8750042E-01
          2   -1    0    0  501    0  0.00000000000E+00  0.00000000000E+00  0.49868815100E+03  0.49868815100E+03  0.25500000000E-02 0.  1.
         -2   -1    0    0    0  501 -0.00000000000E+00 -0.00000000000E+00 -0.14830835768E+04  0.14830835768E+04  0.25500000000E-02 0. -1.
    -200001    2    1    2    0    0  0.35535635243E+03 -0.43567423080E+03 -0.75462640507E+03  0.11188389521E+04  0.60518544006E+03 0.  0.
   -5000001    2    3    3    0    0 -0.71182447570E+02 -0.60051805499E+02  0.31139709729E+02  0.14382257198E+03  0.10508135183E+03 0.  0.
     200001    1    1    2    0    0 -0.35535635243E+03  0.43567423080E+03 -0.22976902078E+03  0.86293277577E+03  0.61300000000E+03 0.  1.
         11    1    4    4    0    0  0.96494541950E+01 -0.42690458565E+02  0.34618903187E+02  0.55803724579E+02  0.51100000000E-03 0.  1.
    -200002    1    4    4    0    0 -0.80831901765E+02 -0.17361346935E+02 -0.34791934582E+01  0.88018847399E+02  0.30000000000E+02 0.  1.
    -200000    1    3    3    0    0  0.42653880000E+03 -0.37562242530E+03 -0.78576611480E+03  0.97501638010E+03  0.10100000000E+03 0. -1.
<mgrwt>
<rscale>  0 0.17199956E+04</rscale>
<asrwt>0</asrwt>
<pdfrwt beam="1">  1        2 0.71241165E-01 0.17199956E+04</pdfrwt>
<pdfrwt beam="2">  1       -2 0.21186908E+00 0.17199956E+04</pdfrwt>
<totfact> 0.71395233E+00</totfact>
</mgrwt>
</event>
<event>
 8    2  0.7266322E-052  0.1318901E+04  0.7818608E-02  0.9014709E-01
         -2   -1    0    0    0  501 -0.00000000000E+00  0.00000000000E+00  0.12799371604E+04  0.12799371604E+04  0.25500000000E-02 0. -1.
          2   -1    0    0  501    0  0.00000000000E+00 -0.00000000000E+00 -0.33976294750E+03  0.33976294751E+03  0.25500000000E-02 0.  1.
    -200001    2    1    2    0    0  0.10140933056E+03 -0.20738715337E+03  0.39034270977E+03  0.76449430487E+03  0.61545985035E+03 0.  0.
   -5000001    2    3    3    0    0 -0.21804078173E+03  0.39000500551E+02  0.81315167881E+02  0.24636857505E+03  0.70869575314E+02 0.  0.
     200001    1    1    2    0    0 -0.10140933056E+03  0.20738715337E+03  0.54983150309E+03  0.85520580301E+03  0.61300000000E+03 0.  1.
         11    1    4    4    0    0 -0.13923914526E+03  0.86248930216E+01  0.69846313165E+02  0.15601421671E+03  0.51100000000E-03 0.  1.
    -200002    1    4    4    0    0 -0.78801636476E+02  0.30375607529E+02  0.11468854716E+02  0.90354358348E+02  0.30000000000E+02 0.  1.
    -200000    1    3    3    0    0  0.31945011229E+03 -0.24638765393E+03  0.30902754189E+03  0.51812572981E+03  0.10100000000E+03 0.  1.
<mgrwt>
<rscale>  0 0.13189014E+04</rscale>
<asrwt>0</asrwt>
<pdfrwt beam="1">  1        2 0.48537563E-01 0.13189014E+04</pdfrwt>
<pdfrwt beam="2">  1       -2 0.18284817E+00 0.13189014E+04</pdfrwt>
<totfact> 0.17619141E+01</totfact>
</mgrwt>
</event>
<event>
 8    2  0.7266322E-052  0.1294806E+04  0.7818608E-02  0.9033694E-01
          2   -1    0    0  501    0  0.00000000000E+00  0.00000000000E+00  0.21061296940E+04  0.21061296940E+04  0.25500000000E-02 0.  1.
         -2   -1    0    0    0  501 -0.00000000000E+00 -0.00000000000E+00 -0.19900525009E+03  0.19900525011E+03  0.25500000000E-02 0. -1.
    -200001    2    1    2    0    0 -0.11226081679E+03  0.88772582260E+02  0.68236683078E+03  0.92807892736E+03  0.61255443947E+03 0.  0.
   -5000001    2    3    3    0    0 -0.10918397546E+03  0.16052855988E+03  0.29331218822E+02  0.26338734643E+03  0.17556199709E+03 0.  0.
     200001    1    1    2    0    0  0.11226081679E+03 -0.88772582260E+02  0.12247576131E+04  0.13770560167E+04  0.61300000000E+03 0.  1.
         11    1    4    4    0    0 -0.93880703858E+02  0.45118116429E+01 -0.20461783121E+02  0.96190579424E+02  0.51100000000E-03 0.  1.
    -200002    1    4    4    0    0 -0.15303271602E+02  0.15601674824E+03  0.49793001943E+02  0.16719676700E+03  0.30000000000E+02 0.  1.
    -200000    1    3    3    0    0 -0.30768413310E+01 -0.71755977622E+02  0.65303561196E+03  0.66469158093E+03  0.10100000000E+03 0.  1.
<mgrwt>
<rscale>  0 0.12948063E+04</rscale>
<asrwt>0</asrwt>
<pdfrwt beam="1">  1        2 0.30087568E+00 0.12948063E+04</pdfrwt>
<pdfrwt beam="2">  1       -2 0.28429321E-01 0.12948063E+04</pdfrwt>
<totfact> 0.78681980E+01</totfact>
</mgrwt>
</event>
<event>
 8    2  0.7266322E-052  0.1357062E+04  0.7818608E-02  0.8985500E-01
          2   -1    0    0  501    0  0.00000000000E+00  0.00000000000E+00  0.25110610324E+04  0.25110610324E+04  0.25500000000E-02 0.  1.
         -2   -1    0    0    0  501 -0.00000000000E+00 -0.00000000000E+00 -0.18335044008E+03  0.18335044010E+03  0.25500000000E-02 0. -1.
    -200001    2    1    2    0    0 -0.22561108010E+03 -0.71340578486E+02  0.15004398611E+04  0.16379382356E+04  0.61280669807E+03 0.  0.
   -5000001    2    3    3    0    0  0.10431180038E+02  0.10142509123E+03  0.76475489884E+03  0.83981713643E+03  0.33173318903E+03 0.  0.
     200001    1    1    2    0    0  0.22561108010E+03  0.71340578486E+02  0.82727073121E+03  0.10564732369E+04  0.61300000000E+03 0. -1.
         11    1    4    4    0    0 -0.12734319758E+03  0.13916857047E+03  0.31711552975E+03  0.36898027072E+03  0.51100000000E-03 0.  1.
    -200002    1    4    4    0    0  0.13777437761E+03 -0.37743479239E+02  0.44763936909E+03  0.47083686571E+03  0.30000000000E+02 0.  1.
    -200000    1    3    3    0    0 -0.23604226014E+03 -0.17276566972E+03  0.73568496226E+03  0.79812109915E+03  0.10100000000E+03 0. -1.
<mgrwt>
<rscale>  0 0.13570617E+04</rscale>
<asrwt>0</asrwt>
<pdfrwt beam="1">  1        2 0.35872300E+00 0.13570617E+04</pdfrwt>
<pdfrwt beam="2">  1       -2 0.26192921E-01 0.13570617E+04</pdfrwt>
<totfact> 0.56149565E+01</totfact>
</mgrwt>
</event>
<event>
 8    2  0.7266322E-052  0.1481265E+04  0.7818608E-02  0.8897008E-01
         -2   -1    0    0    0  501 -0.00000000000E+00  0.00000000000E+00  0.99011630175E+03  0.99011630175E+03  0.25500000000E-02 0. -1.
          2   -1    0    0  501    0  0.00000000000E+00 -0.00000000000E+00 -0.55401198669E+03  0.55401198669E+03  0.25500000000E-02 0.  1.
    -200001    2    1    2    0    0 -0.25628895476E+02  0.16456613676E+03 -0.17692312306E+03  0.66134264428E+03  0.61508816280E+03 0.  0.
   -5000001    2    3    3    0    0 -0.27411117669E+02 -0.73042874168E+02  0.12980611750E+03  0.26041241917E+03  0.21184515355E+03 0.  0.
     200001    1    1    2    0    0  0.25628895476E+02 -0.16456613676E+03  0.61302743812E+03  0.88278564416E+03  0.61300000000E+03 0. -1.
         11    1    4    4    0    0 -0.14217330617E+02  0.18770457820E+01 -0.55787918588E+02  0.57601628896E+02  0.51100000000E-03 0.  1.
    -200002    1    4    4    0    0 -0.13193787052E+02 -0.74919919950E+02  0.18559403609E+03  0.20281079028E+03  0.30000000000E+02 0.  1.
    -200000    1    3    3    0    0  0.17822221931E+01  0.23760901092E+03 -0.30672924056E+03  0.40093022511E+03  0.10100000000E+03 0.  1.
<mgrwt>
<rscale>  0 0.14812647E+04</rscale>
<asrwt>0</asrwt>
<pdfrwt beam="1">  1        2 0.79144570E-01 0.14812647E+04</pdfrwt>
<pdfrwt beam="2">  1       -2 0.14144519E+00 0.14812647E+04</pdfrwt>
<totfact> 0.20196468E+01</totfact>
</mgrwt>
</event>
<event>
 8    2  0.7266322E-052  0.1536935E+04  0.7818608E-02  0.8860256E-01
         -2   -1    0    0    0  501 -0.00000000000E+00  0.00000000000E+00  0.20521952302E+03  0.20521952304E+03  0.25500000000E-02 0. -1.
          2   -1    0    0  501    0  0.00000000000E+00 -0.00000000000E+00 -0.28776120116E+04  0.28776120116E+04  0.25500000000E-02 0.  1.
    -200001    2    1    2    0    0 -0.72498204925E+02 -0.40445714298E+03 -0.17661158902E+04  0.19140938211E+04  0.61298307336E+03 0.  0.
   -5000001    2    3    3    0    0 -0.30371879086E+03 -0.30118119159E+03 -0.13275772557E+04  0.13977160374E+04  0.90518161157E+02 0.  0.
     200001    1    1    2    0    0  0.72498204925E+02  0.40445714298E+03 -0.90627659839E+03  0.11687377135E+04  0.61300000000E+03 0. -1.
         11    1    4    4    0    0 -0.23526820007E+03 -0.19479035917E+03 -0.87189399658E+03  0.92384714713E+03  0.51100000000E-03 0.  1.
    -200002    1    4    4    0    0 -0.68450590788E+02 -0.10639083242E+03 -0.45568325908E+03  0.47386889031E+03  0.30000000000E+02 0.  1.
    -200000    1    3    3    0    0  0.23122058593E+03 -0.10327595140E+03 -0.43853863457E+03  0.51637778371E+03  0.10100000000E+03 0. -1.
<mgrwt>
<rscale>  0 0.15369348E+04</rscale>
<asrwt>0</asrwt>
<pdfrwt beam="1">  1        2 0.41108740E+00 0.15369348E+04</pdfrwt>
<pdfrwt beam="2">  1       -2 0.29317077E-01 0.15369348E+04</pdfrwt>
<totfact> 0.28601408E+01</totfact>
</mgrwt>
</event>
<event>
 8    2  0.7266322E-052  0.1624970E+04  0.7818608E-02  0.8805353E-01
         -2   -1    0    0    0  501 -0.00000000000E+00  0.00000000000E+00  0.55084461008E+03  0.55084461008E+03  0.25500000000E-02 0. -1.
          2   -1    0    0  501    0  0.00000000000E+00 -0.00000000000E+00 -0.11983992071E+04  0.11983992071E+04  0.25500000000E-02 0.  1.
    -200001    2    1    2    0    0  0.18727335129E+03  0.48727392621E+03 -0.20805828817E+03  0.83194714068E+03  0.61346605965E+03 0.  0.
   -5000001    2    3    3    0    0  0.25801182801E+03  0.30058686734E+03  0.12937454180E+03  0.42707937859E+03  0.93469007395E+02 0.  0.
     200001    1    1    2    0    0 -0.18727335129E+03 -0.48727392621E+03 -0.43949630890E+03  0.91729667655E+03  0.61300000000E+03 0. -1.
         11    1    4    4    0    0  0.22878375733E+03  0.24764663445E+03  0.12448034095E+03  0.35939702065E+03  0.51100000000E-03 0.  1.
    -200002    1    4    4    0    0  0.29228070685E+02  0.52940232893E+02  0.48942008467E+01  0.67682357943E+02  0.30000000000E+02 0. -1.
    -200000    1    3    3    0    0 -0.70738476721E+02  0.18668705887E+03 -0.33743282996E+03  0.40486776208E+03  0.10100000000E+03 0.  1.
<mgrwt>
<rscale>  0 0.16249698E+04</rscale>
<asrwt>0</asrwt>
<pdfrwt beam="1">  1        2 0.17119989E+00 0.16249698E+04</pdfrwt>
<pdfrwt beam="2">  1       -2 0.78692088E-01 0.16249698E+04</pdfrwt>
<totfact> 0.29474855E+01</totfact>
</mgrwt>
</event>
<event>
 8    2  0.7266322E-052  0.1608098E+04  0.7818608E-02  0.8815589E-01
          2   -1    0    0  501    0  0.00000000000E+00  0.00000000000E+00  0.13846247379E+04  0.13846247379E+04  0.25500000000E-02 0.  1.
         -2   -1    0    0    0  501 -0.00000000000E+00 -0.00000000000E+00 -0.46690948193E+03  0.46690948193E+03  0.25500000000E-02 0. -1.
    -200001    2    1    2    0    0 -0.31973542336E+03 -0.22001706825E+03  0.60633728737E+02  0.72859343975E+03  0.61362341882E+03 0.  0.
   -5000001    2    3    3    0    0 -0.22295861780E+03 -0.38076443951E+03 -0.10186400913E+03  0.46061586182E+03  0.84253143304E+02 0.  0.
     200001    1    1    2    0    0  0.31973542336E+03  0.22001706825E+03  0.85708152727E+03  0.11229407801E+04  0.61300000000E+03 0.  1.
         11    1    4    4    0    0 -0.88822476844E+01 -0.14311866095E+02 -0.22028269174E+02  0.27730280887E+02  0.51100000000E-03 0.  1.
    -200002    1    4    4    0    0 -0.21407637011E+03 -0.36645257341E+03 -0.79835739958E+02  0.43288558093E+03  0.30000000000E+02 0.  1.
    -200000    1    3    3    0    0 -0.96776805557E+02  0.16074737126E+03  0.16249773787E+03  0.26797757793E+03  0.10100000000E+03 0.  1.
<mgrwt>
<rscale>  0 0.16080975E+04</rscale>
<asrwt>0</asrwt>
<pdfrwt beam="1">  1        2 0.19780353E+00 0.16080975E+04</pdfrwt>
<pdfrwt beam="2">  1       -2 0.66701354E-01 0.16080975E+04</pdfrwt>
<totfact> 0.33446094E+01</totfact>
</mgrwt>
</event>
<event>
 8    2  0.7266322E-052  0.1265888E+04  0.7818608E-02  0.9057062E-01
          2   -1    0    0  501    0  0.00000000000E+00  0.00000000000E+00  0.17170200908E+04  0.17170200908E+04  0.25500000000E-02 0.  1.
         -2   -1    0    0    0  501 -0.00000000000E+00 -0.00000000000E+00 -0.23332175741E+03  0.23332175743E+03  0.25500000000E-02 0. -1.
    -200001    2    1    2    0    0 -0.83025034302E+02 -0.73889652714E+02  0.91359100533E+03  0.11058631909E+04  0.61313296678E+03 0.  0.
   -5000001    2    3    3    0    0 -0.51921106970E+02  0.14545565295E+03  0.39590551685E+02  0.19858285368E+03  0.11838323220E+03 0.  0.
     200001    1    1    2    0    0  0.83025034302E+02  0.73889652714E+02  0.57010732805E+03  0.84447865728E+03  0.61300000000E+03 0.  1.
         11    1    4    4    0    0 -0.80691069528E+02  0.68622894110E+02  0.33145251223E+02  0.11098990034E+03  0.51100000000E-03 0.  1.
    -200002    1    4    4    0    0  0.28769962559E+02  0.76832758843E+02  0.64453004616E+01  0.87592953341E+02  0.30000000000E+02 0.  1.
    -200000    1    3    3    0    0 -0.31103927333E+02 -0.21934530567E+03  0.87400045364E+03  0.90728033726E+03  0.10100000000E+03 0.  1.
<mgrwt>
<rscale>  0 0.12658881E+04</rscale>
<asrwt>0</asrwt>
<pdfrwt beam="1">  1        2 0.24528858E+00 0.12658881E+04</pdfrwt>
<pdfrwt beam="2">  1       -2 0.33331680E-01 0.12658881E+04</pdfrwt>
<totfact> 0.92824569E+01</totfact>
</mgrwt>
</event>
<event>
 8    2  0.7266322E-052  0.1503476E+04  0.7818608E-02  0.8882145E-01
         -2   -1    0    0    0  501 -0.00000000000E+00  0.00000000000E+00  0.21418225779E+03  0.21418225781E+03  0.25500000000E-02 0. -1.
          2   -1    0    0  501    0  0.00000000000E+00 -0.00000000000E+00 -0.26384527427E+04  0.26384527427E+04  0.25500000000E-02 0.  1.
    -200001    2    1    2    0    0 -0.62738582373E+02 -0.39495340730E+03 -0.15368177595E+04  0.17023021515E+04  0.61326948848E+03 0.  0.
   -5000001    2    3    3    0    0  0.20451925141E+03 -0.34661044749E+03 -0.11378188339E+04  0.12091845853E+04  0.74355470810E+02 0.  0.
     200001    1    1    2    0    0  0.62738582373E+02  0.39495340730E+03 -0.88745272543E+03  0.11503328490E+04  0.61300000000E+03 0. -1.
         11    1    4    4    0    0  0.16694869012E+03 -0.29307029993E+03 -0.93352159007E+03  0.99258482003E+03  0.51100000000E-03 0.  1.
    -200002    1    4    4    0    0  0.37570561290E+02 -0.53540147564E+02 -0.20429724384E+03  0.21659976528E+03  0.30000000000E+02 0. -1.
    -200000    1    3    3    0    0 -0.26725783379E+03 -0.48342959809E+02 -0.39899892560E+03  0.49311756622E+03  0.10100000000E+03 0. -1.
<mgrwt>
<rscale>  0 0.15034757E+04</rscale>
<asrwt>0</asrwt>
<pdfrwt beam="1">  1        2 0.37692180E+00 0.15034757E+04</pdfrwt>
<pdfrwt beam="2">  1       -2 0.30597467E-01 0.15034757E+04</pdfrwt>
<totfact> 0.35651676E+01</totfact>
</mgrwt>
</event>
<event>
 8    2  0.7266322E-052  0.1250227E+04  0.7818608E-02  0.9069994E-01
          2   -1    0    0  501    0  0.00000000000E+00  0.00000000000E+00  0.18592239743E+04  0.18592239743E+04  0.25500000000E-02 0.  1.
         -2   -1    0    0    0  501 -0.00000000000E+00 -0.00000000000E+00 -0.21017741359E+03  0.21017741361E+03  0.25500000000E-02 0. -1.
    -200001    2    1    2    0    0 -0.59350350948E+02  0.34279939635E+02  0.99168908592E+03  0.11679661833E+04  0.61318853855E+03 0.  0.
   -5000001    2    3    3    0    0 -0.22094012036E+03  0.22637077450E+03  0.41133419607E+03  0.52763584623E+03  0.95632113009E+02 0.  0.
     200001    1    1    2    0    0  0.59350350948E+02 -0.34279939635E+02  0.65735747476E+03  0.90143520458E+03  0.61300000000E+03 0. -1.
         11    1    4    4    0    0 -0.20685066034E+03  0.19509067676E+03  0.34350728950E+03  0.44592020114E+03  0.51100000000E-03 0.  1.
    -200002    1    4    4    0    0 -0.14089460020E+02  0.31280097734E+02  0.67826906565E+02  0.81715645088E+02  0.30000000000E+02 0. -1.
    -200000    1    3    3    0    0  0.16158976941E+03 -0.19209083486E+03  0.58035488985E+03  0.64033033709E+03  0.10100000000E+03 0.  1.
<mgrwt>
<rscale>  0 0.12502270E+04</rscale>
<asrwt>0</asrwt>
<pdfrwt beam="1">  1        2 0.26560341E+00 0.12502270E+04</pdfrwt>
<pdfrwt beam="2">  1       -2 0.30025346E-01 0.12502270E+04</pdfrwt>
<totfact> 0.95496467E+01</totfact>
</mgrwt>
</event>
<event>
 8    2  0.7266322E-052  0.1322723E+04  0.7818608E-02  0.9011737E-01
          2   -1    0    0  501    0  0.00000000000E+00  0.00000000000E+00  0.52079329148E+03  0.52079329149E+03  0.25500000000E-02 0.  1.
         -2   -1    0    0    0  501 -0.00000000000E+00 -0.00000000000E+00 -0.83987115000E+03  0.83987115001E+03  0.25500000000E-02 0. -1.
    -200001    2    1    2    0    0  0.87645761842E+02 -0.19586605581E+03 -0.30607918480E+02  0.65001037819E+03  0.61280613223E+03 0.  0.
   -5000001    2    3    3    0    0  0.27481547502E+03 -0.10431808938E+03  0.16494558905E+03  0.34693331539E+03  0.82157585756E+02 0.  0.
     200001    1    1    2    0    0 -0.87645761842E+02  0.19586605581E+03 -0.28846994004E+03  0.71065406331E+03  0.61300000000E+03 0. -1.
         11    1    4    4    0    0  0.22468965321E+03 -0.91017486172E+02  0.11227922874E+03  0.26716333629E+03  0.51100000000E-03 0.  1.
    -200002    1    4    4    0    0  0.50125821812E+02 -0.13300603209E+02  0.52666360310E+02  0.79769979104E+02  0.30000000000E+02 0. -1.
    -200000    1    3    3    0    0 -0.18716971318E+03 -0.91547966429E+02 -0.19555350753E+03  0.30307706280E+03  0.10100000000E+03 0.  1.
<mgrwt>
<rscale>  0 0.13227233E+04</rscale>
<asrwt>0</asrwt>
<pdfrwt beam="1">  1        2 0.74399042E-01 0.13227233E+04</pdfrwt>
<pdfrwt beam="2">  1       -2 0.11998159E+00 0.13227233E+04</pdfrwt>
<totfact> 0.33342359E+01</totfact>
</mgrwt>
</event>
<event>
 8    2  0.7266322E-052  0.1745681E+04  0.7818608E-02  0.8735731E-01
         -2   -1    0    0    0  501 -0.00000000000E+00  0.00000000000E+00  0.30731465426E+03  0.30731465427E+03  0.25500000000E-02 0. -1.
          2   -1    0    0  501    0  0.00000000000E+00 -0.00000000000E+00 -0.24790582861E+04  0.24790582861E+04  0.25500000000E-02 0.  1.
    -200001    2    1    2    0    0 -0.45233388255E+03  0.41798647065E+02 -0.17641231083E+04  0.19213431378E+04  0.61079951171E+03 0.  0.
   -5000001    2    3    3    0    0 -0.55140403155E+02 -0.20729982179E+03 -0.86875089555E+03  0.90561428287E+03  0.13926747876E+03 0.  0.
     200001    1    1    2    0    0  0.45233388255E+03 -0.41798647065E+02 -0.40762052351E+03  0.86502980260E+03  0.61300000000E+03 0. -1.
         11    1    4    4    0    0 -0.57568154951E+02 -0.18984316894E+03 -0.54469396284E+03  0.57969477694E+03  0.51100000000E-03 0.  1.
    -200002    1    4    4    0    0  0.24277517959E+01 -0.17456652858E+02 -0.32405693271E+03  0.32591950593E+03  0.30000000000E+02 0.  1.
    -200000    1    3    3    0    0 -0.39719347939E+03  0.24909846886E+03 -0.89537221279E+03  0.10157288549E+04  0.10100000000E+03 0.  1.
<mgrwt>
<rscale>  0 0.17456815E+04</rscale>
<asrwt>0</asrwt>
<pdfrwt beam="1">  1        2 0.35415117E+00 0.17456815E+04</pdfrwt>
<pdfrwt beam="2">  1       -2 0.43902095E-01 0.17456815E+04</pdfrwt>
<totfact> 0.21159271E+01</totfact>
</mgrwt>
</event>
<event>
 8    2  0.7266322E-052  0.1259057E+04  0.7818608E-02  0.9062679E-01
         -2   -1    0    0    0  501 -0.00000000000E+00  0.00000000000E+00  0.25317208401E+03  0.25317208402E+03  0.25500000000E-02 0. -1.
          2   -1    0    0  501    0  0.00000000000E+00 -0.00000000000E+00 -0.15653623353E+04  0.15653623353E+04  0.25500000000E-02 0.  1.
    -200001    2    1    2    0    0 -0.12441255771E+03 -0.70422272224E+02 -0.68320771357E+03  0.92868846990E+03  0.61257792427E+03 0.  0.
   -5000001    2    3    3    0    0 -0.43516066756E+02 -0.32566022762E+03 -0.34979824393E+03  0.48930989672E+03  0.95483672163E+02 0.  0.
     200001    1    1    2    0    0  0.12441255771E+03  0.70422272224E+02 -0.62898253772E+03  0.88984594942E+03  0.61300000000E+03 0.  1.
         11    1    4    4    0    0  0.52573036871E+01 -0.76317072085E+01 -0.42088362211E+02  0.43096547784E+02  0.51100000000E-03 0.  1.
    -200002    1    4    4    0    0 -0.48773370443E+02 -0.31802852041E+03 -0.30770988172E+03  0.44621334894E+03  0.30000000000E+02 0.  1.
    -200000    1    3    3    0    0 -0.80896490958E+02  0.25523795540E+03 -0.33340946963E+03  0.43937857318E+03  0.10100000000E+03 0. -1.
<mgrwt>
<rscale>  0 0.12590569E+04</rscale>
<asrwt>0</asrwt>
<pdfrwt beam="1">  1        2 0.22362319E+00 0.12590569E+04</pdfrwt>
<pdfrwt beam="2">  1       -2 0.36167441E-01 0.12590569E+04</pdfrwt>
<totfact> 0.95375081E+01</totfact>
</mgrwt>
</event>
<event>
 8    2  0.7266322E-052  0.1751747E+04  0.7818608E-02  0.8732389E-01
         -2   -1    0    0    0  501 -0.00000000000E+00  0.00000000000E+00  0.65565134272E+03  0.65565134273E+03  0.25500000000E-02 0. -1.
          2   -1    0    0  501    0  0.00000000000E+00 -0.00000000000E+00 -0.11700641903E+04  0.11700641903E+04  0.25500000000E-02 0.  1.
    -200001    2    1    2    0    0  0.13496859101E+03 -0.60455021831E+03 -0.34996866401E+03  0.93886245806E+03  0.61260685790E+03 0.  0.
   -5000001    2    3    3    0    0  0.15798110239E+03 -0.50174385004E+03  0.28430416106E+02  0.53329422845E+03  0.83003167265E+02 0.  0.
     200001    1    1    2    0    0 -0.13496859101E+03  0.60455021831E+03 -0.16444418353E+03  0.88685307493E+03  0.61300000000E+03 0.  1.
         11    1    4    4    0    0  0.14006387941E+03 -0.43443431190E+03  0.29988373741E+02  0.45743891858E+03  0.51100000000E-03 0.  1.
    -200002    1    4    4    0    0  0.17917222972E+02 -0.67309538142E+02 -0.15579576354E+01  0.75855309873E+02  0.30000000000E+02 0. -1.
    -200000    1    3    3    0    0 -0.23012511374E+02 -0.10280636827E+03 -0.37839908012E+03  0.40556822961E+03  0.10100000000E+03 0.  1.
<mgrwt>
<rscale>  0 0.17517467E+04</rscale>
<asrwt>0</asrwt>
<pdfrwt beam="1">  1        2 0.16715203E+00 0.17517467E+04</pdfrwt>
<pdfrwt beam="2">  1       -2 0.93664479E-01 0.17517467E+04</pdfrwt>
<totfact> 0.20361064E+01</totfact>
</mgrwt>
</event>
<event>
 8    2  0.7266322E-052  0.1377545E+04  0.7818608E-02  0.8970235E-01
         -2   -1    0    0    0  501 -0.00000000000E+00  0.00000000000E+00  0.41541321057E+03  0.41541321058E+03  0.25500000000E-02 0. -1.
          2   -1    0    0  501    0  0.00000000000E+00 -0.00000000000E+00 -0.11420142188E+04  0.11420142188E+04  0.25500000000E-02 0.  1.
    -200001    2    1    2    0    0  0.31507153190E+02 -0.23845457201E+03 -0.13627541557E+03  0.67305952576E+03  0.61366509818E+03 0.  0.
   -5000001    2    3    3    0    0  0.26704874097E+03  0.38567643156E+02 -0.79122189640E+02  0.29136771488E+03  0.76369700983E+02 0.  0.
     200001    1    1    2    0    0 -0.31507153190E+02  0.23845457201E+03 -0.59032559267E+03  0.88436790363E+03  0.61300000000E+03 0.  1.
         11    1    4    4    0    0  0.75817118098E+02  0.56032504781E+01  0.82085877151E+01  0.76465761784E+02  0.51100000000E-03 0.  1.
    -200002    1    4    4    0    0  0.19123162287E+03  0.32964392678E+02 -0.87330777355E+02  0.21490195309E+03  0.30000000000E+02 0.  1.
    -200000    1    3    3    0    0 -0.23554158778E+03 -0.27702221516E+03 -0.57153225927E+02  0.38169181089E+03  0.10100000000E+03 0.  1.
<mgrwt>
<rscale>  0 0.13775453E+04</rscale>
<asrwt>0</asrwt>
<pdfrwt beam="1">  1        2 0.16314489E+00 0.13775453E+04</pdfrwt>
<pdfrwt beam="2">  1       -2 0.59344745E-01 0.13775453E+04</pdfrwt>
<totfact> 0.59715397E+01</totfact>
</mgrwt>
</event>
<event>
 8    2  0.7266322E-052  0.1413360E+04  0.7818608E-02  0.8944205E-01
          2   -1    0    0  501    0  0.00000000000E+00  0.00000000000E+00  0.10862094330E+04  0.10862094330E+04  0.25500000000E-02 0. -1.
         -2   -1    0    0    0  501 -0.00000000000E+00 -0.00000000000E+00 -0.45976060859E+03  0.45976060860E+03  0.25500000000E-02 0.  1.
    -200001    2    1    2    0    0  0.51524128490E+02  0.30538607855E+03  0.13209533956E+03  0.69976098894E+03  0.61343367214E+03 0.  0.
   -5000001    2    3    3    0    0  0.27017925614E+03  0.14638222707E+02  0.15632798692E+03  0.32143229359E+03  0.75293903164E+02 0.  0.
     200001    1    1    2    0    0 -0.51524128490E+02 -0.30538607855E+03  0.49435348481E+03  0.84620905262E+03  0.61300000000E+03 0.  1.
         11    1    4    4    0    0  0.84017898765E+02 -0.17170553264E+02  0.73871810163E+02  0.11318515605E+03  0.51100000000E-03 0.  1.
    -200002    1    4    4    0    0  0.18616135738E+03  0.31808775971E+02  0.82456176761E+02  0.20824713754E+03  0.30000000000E+02 0. -1.
    -200000    1    3    3    0    0 -0.21865512765E+03  0.29074785585E+03 -0.24232647365E+02  0.37832869535E+03  0.10100000000E+03 0.  1.
<mgrwt>
<rscale>  0 0.14133596E+04</rscale>
<asrwt>0</asrwt>
<pdfrwt beam="1">  1        2 0.15517278E+00 0.14133596E+04</pdfrwt>
<pdfrwt beam="2">  1       -2 0.65680086E-01 0.14133596E+04</pdfrwt>
<totfact> 0.51755758E+01</totfact>
</mgrwt>
</event>
<event>
 8    2  0.7266322E-052  0.1758282E+04  0.7818608E-02  0.8728805E-01
         -2   -1    0    0    0  501 -0.00000000000E+00  0.00000000000E+00  0.55970293847E+03  0.55970293848E+03  0.25500000000E-02 0. -1.
          2   -1    0    0  501    0  0.00000000000E+00 -0.00000000000E+00 -0.13808914506E+04  0.13808914506E+04  0.25500000000E-02 0.  1.
    -200001    2    1    2    0    0 -0.21687278242E+03 -0.35929924947E+03  0.10821671471E+03  0.75076548117E+03  0.61303196976E+03 0.  0.
   -5000001    2    3    3    0    0 -0.21105005849E+02 -0.17546473880E+03 -0.13887922606E+03  0.37211319529E+03  0.29655942886E+03 0.  0.
     200001    1    1    2    0    0  0.21687278242E+03  0.35929924947E+03 -0.92940522688E+03  0.11898289079E+04  0.61300000000E+03 0.  1.
         11    1    4    4    0    0  0.24958338695E+01 -0.10616055441E+03  0.84134424879E+02  0.13548023454E+03  0.51100000000E-03 0.  1.
    -200002    1    4    4    0    0 -0.23600839718E+02 -0.69304184388E+02 -0.22301365094E+03  0.23663296075E+03  0.30000000000E+02 0.  1.
    -200000    1    3    3    0    0 -0.19576777657E+03 -0.18383451067E+03  0.24709594078E+03  0.37865228588E+03  0.10100000000E+03 0. -1.
<mgrwt>
<rscale>  0 0.17582821E+04</rscale>
<asrwt>0</asrwt>
<pdfrwt beam="1">  1        2 0.19727021E+00 0.17582821E+04</pdfrwt>
<pdfrwt beam="2">  1       -2 0.79957563E-01 0.17582821E+04</pdfrwt>
<totfact> 0.22280152E+01</totfact>
</mgrwt>
</event>
<event>
 8    2  0.7266322E-052  0.1569044E+04  0.7818608E-02  0.8839794E-01
          2   -1    0    0  501    0  0.00000000000E+00  0.00000000000E+00  0.18576817411E+04  0.18576817411E+04  0.25500000000E-02 0.  1.
         -2   -1    0    0    0  501 -0.00000000000E+00 -0.00000000000E+00 -0.33131345562E+03  0.33131345563E+03  0.25500000000E-02 0. -1.
    -200001    2    1    2    0    0  0.32047820808E+03 -0.26624306458E+03  0.40393836474E+03  0.84392658203E+03  0.61274319421E+03 0.  0.
   -5000001    2    3    3    0    0  0.16241517232E+03 -0.17632432457E+03 -0.82492246740E+02  0.31488495525E+03  0.18675815547E+03 0.  0.
     200001    1    1    2    0    0 -0.32047820808E+03  0.26624306458E+03  0.11224299208E+04  0.13450686147E+04  0.61300000000E+03 0.  1.
         11    1    4    4    0    0 -0.23707654536E+02 -0.16096442319E+02 -0.59946978843E+02  0.66443875652E+02  0.51100000000E-03 0.  1.
    -200002    1    4    4    0    0  0.18612282685E+03 -0.16022788225E+03 -0.22545267897E+02  0.24844107960E+03  0.30000000000E+02 0.  1.
    -200000    1    3    3    0    0  0.15806303577E+03 -0.89918740011E+02  0.48643061148E+03  0.52904162678E+03  0.10100000000E+03 0.  1.
<mgrwt>
<rscale>  0 0.15690442E+04</rscale>
<asrwt>0</asrwt>
<pdfrwt beam="1">  1        2 0.26538311E+00 0.15690442E+04</pdfrwt>
<pdfrwt beam="2">  1       -2 0.47330493E-01 0.15690442E+04</pdfrwt>
<totfact> 0.38699857E+01</totfact>
</mgrwt>
</event>
<event>
 8    2  0.7266322E-052  0.1286130E+04  0.7818608E-02  0.9040637E-01
         -2   -1    0    0    0  501 -0.00000000000E+00  0.00000000000E+00  0.83431420744E+03  0.83431420744E+03  0.25500000000E-02 0. -1.
          2   -1    0    0  501    0  0.00000000000E+00 -0.00000000000E+00 -0.49565561612E+03  0.49565561612E+03  0.25500000000E-02 0.  1.
    -200001    2    1    2    0    0  0.11917177535E+03 -0.35949093549E+02  0.32310802689E+03  0.70426616414E+03  0.61326811717E+03 0.  0.
   -5000001    2    3    3    0    0  0.30448713848E+03 -0.12126897885E+03  0.30696307691E+03  0.47604932416E+03  0.15804444222E+03 0.  0.
     200001    1    1    2    0    0 -0.11917177535E+03  0.35949093549E+02  0.15550564424E+02  0.62570365943E+03  0.61300000000E+03 0.  1.
         11    1    4    4    0    0  0.30812717828E+03 -0.11733748255E+03  0.25922745428E+03  0.41941544542E+03  0.51100000000E-03 0.  1.
    -200002    1    4    4    0    0 -0.36400398014E+01 -0.39314963006E+01  0.47735622626E+02  0.56633878733E+02  0.30000000000E+02 0.  1.
    -200000    1    3    3    0    0 -0.18531536313E+03  0.85319885306E+02  0.16144949985E+02  0.22821683998E+03  0.10100000000E+03 0. -1.
<mgrwt>
<rscale>  0 0.12861299E+04</rscale>
<asrwt>0</asrwt>
<pdfrwt beam="1">  1        2 0.70807945E-01 0.12861299E+04</pdfrwt>
<pdfrwt beam="2">  1       -2 0.11918774E+00 0.12861299E+04</pdfrwt>
<totfact> 0.35972304E+01</totfact>
</mgrwt>
</event>
<event>
 8    2  0.7266322E-052  0.2414918E+04  0.7818608E-02  0.8433940E-01
         -2   -1    0    0    0  501 -0.00000000000E+00  0.00000000000E+00  0.43824241471E+03  0.43824241472E+03  0.25500000000E-02 0. -1.
          2   -1    0    0  501    0  0.00000000000E+00 -0.00000000000E+00 -0.33268282987E+04  0.33268282987E+04  0.25500000000E-02 0.  1.
    -200001    2    1    2    0    0 -0.91975707320E+03  0.66177716111E+02 -0.69254465775E+03  0.13056604932E+04  0.61220801758E+03 0.  0.
   -5000001    2    3    3    0    0  0.21465341795E+02  0.53085458698E+02 -0.23214524481E+03  0.25293086928E+03  0.82485047898E+02 0.  0.
     200001    1    1    2    0    0  0.91975707320E+03 -0.66177716111E+02 -0.21960412262E+04  0.24594102202E+04  0.61300000000E+03 0. -1.
         11    1    4    4    0    0  0.85755675699E+01  0.29231020337E+02 -0.19704105168E+03  0.19938196748E+03  0.51100000000E-03 0.  1.
    -200002    1    4    4    0    0  0.12889774226E+02  0.23854438362E+02 -0.35104193123E+02  0.53548901800E+02  0.30000000000E+02 0. -1.
    -200000    1    3    3    0    0 -0.94122241500E+03  0.13092257412E+02 -0.46039941294E+03  0.10527296239E+04  0.10100000000E+03 0. -1.
<mgrwt>
<rscale>  0 0.24149180E+04</rscale>
<asrwt>0</asrwt>
<pdfrwt beam="1">  1        2 0.47526117E+00 0.24149180E+04</pdfrwt>
<pdfrwt beam="2">  1       -2 0.62606061E-01 0.24149180E+04</pdfrwt>
<totfact> 0.32656807E+00</totfact>
</mgrwt>
</event>
<event>
 8    2  0.7266322E-052  0.1418803E+04  0.7818608E-02  0.8940319E-01
          2   -1    0    0  501    0  0.00000000000E+00  0.00000000000E+00  0.99583422394E+03  0.99583422394E+03  0.25500000000E-02 0. -1.
         -2   -1    0    0    0  501 -0.00000000000E+00 -0.00000000000E+00 -0.50535603880E+03  0.50535603880E+03  0.25500000000E-02 0.  1.
    -200001    2    1    2    0    0  0.27456906966E+03 -0.22216127093E+03  0.31126953268E+03  0.77137621422E+03  0.61105542921E+03 0.  0.
   -5000001    2    3    3    0    0  0.25956273216E+02  0.74632527555E+02  0.35362259249E+03  0.36902106879E+03  0.69884683637E+02 0.  0.
     200001    1    1    2    0    0 -0.27456906966E+03  0.22216127093E+03  0.17920865246E+03  0.72981404853E+03  0.61300000000E+03 0.  1.
         11    1    4    4    0    0  0.10803640455E+02  0.69455543034E+02  0.21098437281E+03  0.22238524383E+03  0.51100000000E-03 0.  1.
    -200002    1    4    4    0    0  0.15152632761E+02  0.51769845203E+01  0.14263821968E+03  0.14663582496E+03  0.30000000000E+02 0.  1.
    -200000    1    3    3    0    0  0.24861279644E+03 -0.29679379848E+03 -0.42353059807E+02  0.40235514542E+03  0.10100000000E+03 0.  1.
<mgrwt>
<rscale>  0 0.14188035E+04</rscale>
<asrwt>0</asrwt>
<pdfrwt beam="1">  1        2 0.14226203E+00 0.14188035E+04</pdfrwt>
<pdfrwt beam="2">  1       -2 0.72193720E-01 0.14188035E+04</pdfrwt>
<totfact> 0.47787286E+01</totfact>
</mgrwt>
</event>
<event>
 8    2  0.7266322E-052  0.1345385E+04  0.7818608E-02  0.8994329E-01
          2   -1    0    0  501    0  0.00000000000E+00  0.00000000000E+00  0.13590069452E+04  0.13590069452E+04  0.25500000000E-02 0.  1.
         -2   -1    0    0    0  501 -0.00000000000E+00 -0.00000000000E+00 -0.33297466040E+03  0.33297466041E+03  0.25500000000E-02 0. -1.
    -200001    2    1    2    0    0  0.25426336656E+03  0.57452689358E+02  0.39885384004E+03  0.77706495769E+03  0.61383620915E+03 0.  0.
   -5000001    2    3    3    0    0  0.36618746160E+03  0.97258717649E+02  0.45460576123E+03  0.61147268837E+03  0.15388286224E+03 0.  0.
     200001    1    1    2    0    0 -0.25426336656E+03 -0.57452689358E+02  0.62717844477E+03  0.91491664793E+03  0.61300000000E+03 0. -1.
         11    1    4    4    0    0  0.30657121780E+03  0.13023077168E+03  0.35088225497E+03  0.48380194536E+03  0.51100000000E-03 0.  1.
    -200002    1    4    4    0    0  0.59616243797E+02 -0.32972054032E+02  0.10372350626E+03  0.12767074301E+03  0.30000000000E+02 0. -1.
    -200000    1    3    3    0    0 -0.11192409505E+03 -0.39806028291E+02 -0.55751921188E+02  0.16559226931E+03  0.10100000000E+03 0. -1.
<mgrwt>
<rscale>  0 0.13453845E+04</rscale>
<asrwt>0</asrwt>
<pdfrwt beam="1">  1        2 0.19414385E+00 0.13453845E+04</pdfrwt>
<pdfrwt beam="2">  1       -2 0.47567809E-01 0.13453845E+04</pdfrwt>
<totfact> 0.71311978E+01</totfact>
</mgrwt>
</event>
<event>
 8    2  0.7266322E-052  0.2097585E+04  0.7818608E-02  0.8562308E-01
         -2   -1    0    0    0  501 -0.00000000000E+00  0.00000000000E+00  0.12018065478E+04  0.12018065478E+04  0.25500000000E-02 0. -1.
          2   -1    0    0  501    0  0.00000000000E+00 -0.00000000000E+00 -0.91526055027E+03  0.91526055028E+03  0.25500000000E-02 0.  1.
    -200001    2    1    2    0    0 -0.59852113230E+03  0.15015936663E+02  0.75367246463E+03  0.11411423261E+04  0.61296867814E+03 0.  0.
   -5000001    2    3    3    0    0 -0.57260671377E+03  0.71681686241E+02  0.40576510165E+03  0.77355138843E+03  0.31736370307E+03 0.  0.
     200001    1    1    2    0    0  0.59852113230E+03 -0.15015936663E+02 -0.46712646713E+03  0.97592477193E+03  0.61300000000E+03 0.  1.
         11    1    4    4    0    0  0.54957989016E+01 -0.43134122739E+02  0.99656587582E+02  0.10872990297E+03  0.51100000000E-03 0.  1.
    -200002    1    4    4    0    0 -0.57810251267E+03  0.11481580898E+03  0.30610851407E+03  0.66482148547E+03  0.30000000000E+02 0.  1.
    -200000    1    3    3    0    0 -0.25914418528E+02 -0.56665749579E+02  0.34790736298E+03  0.36759093770E+03  0.10100000000E+03 0. -1.
<mgrwt>
<rscale>  0 0.20975854E+04</rscale>
<asrwt>0</asrwt>
<pdfrwt beam="1">  1        2 0.13075151E+00 0.20975854E+04</pdfrwt>
<pdfrwt beam="2">  1       -2 0.17168665E+00 0.20975854E+04</pdfrwt>
<totfact> 0.60969693E+00</totfact>
</mgrwt>
</event>
<event>
 8    2  0.7266322E-052  0.1403627E+04  0.7818608E-02  0.8951197E-01
         -2   -1    0    0    0  501 -0.00000000000E+00  0.00000000000E+00  0.21332035549E+03  0.21332035550E+03  0.25500000000E-02 0. -1.
          2   -1    0    0  501    0  0.00000000000E+00 -0.00000000000E+00 -0.23089329316E+04  0.23089329316E+04  0.25500000000E-02 0.  1.
    -200001    2    1    2    0    0  0.17021173884E+03 -0.22752912451E+03 -0.13894656738E+04  0.15449334898E+04  0.61275043103E+03 0.  0.
   -5000001    2    3    3    0    0 -0.92018702704E+02 -0.13798699954E+03 -0.11993685630E+03  0.24159661276E+03  0.12835972931E+03 0.  0.
     200001    1    1    2    0    0 -0.17021173884E+03  0.22752912451E+03 -0.70614690234E+03  0.97731979731E+03  0.61300000000E+03 0. -1.
         11    1    4    4    0    0  0.15811242886E+02 -0.22454399762E+02  0.15306258815E+02  0.31440054539E+02  0.51100000000E-03 0.  1.
    -200002    1    4    4    0    0 -0.10782994559E+03 -0.11553259978E+03 -0.13524311512E+03  0.21015655822E+03  0.30000000000E+02 0.  1.
    -200000    1    3    3    0    0  0.26223044155E+03 -0.89542124965E+02 -0.12695288175E+04  0.13033368770E+04  0.10100000000E+03 0.  1.
<mgrwt>
<rscale>  0 0.14036273E+04</rscale>
<asrwt>0</asrwt>
<pdfrwt beam="1">  1        2 0.32984755E+00 0.14036273E+04</pdfrwt>
<pdfrwt beam="2">  1       -2 0.30474338E-01 0.14036273E+04</pdfrwt>
<totfact> 0.53911935E+01</totfact>
</mgrwt>
</event>
<event>
 8    2  0.7266322E-052  0.1266756E+04  0.7818608E-02  0.9056352E-01
         -2   -1    0    0    0  501 -0.00000000000E+00  0.00000000000E+00  0.17737775037E+03  0.17737775039E+03  0.25500000000E-02 0. -1.
          2   -1    0    0  501    0  0.00000000000E+00 -0.00000000000E+00 -0.22616557250E+04  0.22616557250E+04  0.25500000000E-02 0.  1.
    -200001    2    1    2    0    0 -0.10649419945E+03 -0.76824404002E+02 -0.87192026571E+03  0.10741806562E+04  0.61349501131E+03 0.  0.
   -5000001    2    3    3    0    0 -0.22826617432E+03  0.81701007470E+02 -0.12605389494E+03  0.29541473312E+03  0.11224873789E+03 0.  0.
     200001    1    1    2    0    0  0.10649419945E+03  0.76824404002E+02 -0.12123577089E+04  0.13648528191E+04  0.61300000000E+03 0.  1.
         11    1    4    4    0    0 -0.20011047785E+03  0.90310576562E+02 -0.81560212853E+02  0.23420561886E+03  0.51100000000E-03 0.  1.
    -200002    1    4    4    0    0 -0.28155696466E+02 -0.86095690917E+01 -0.44493682083E+02  0.61209114262E+02  0.30000000000E+02 0.  1.
    -200000    1    3    3    0    0  0.12177197487E+03 -0.15852541147E+03 -0.74586637077E+03  0.77876592311E+03  0.10100000000E+03 0.  1.
<mgrwt>
<rscale>  0 0.12667555E+04</rscale>
<asrwt>0</asrwt>
<pdfrwt beam="1">  1        2 0.32309366E+00 0.12667555E+04</pdfrwt>
<pdfrwt beam="2">  1       -2 0.25339680E-01 0.12667555E+04</pdfrwt>
<totfact> 0.80964270E+01</totfact>
</mgrwt>
</event>
<event>
 8    2  0.7266322E-052  0.1652582E+04  0.7818608E-02  0.8788880E-01
         -2   -1    0    0    0  501 -0.00000000000E+00  0.00000000000E+00  0.52081786226E+03  0.52081786227E+03  0.25500000000E-02 0. -1.
          2   -1    0    0  501    0  0.00000000000E+00 -0.00000000000E+00 -0.13109320762E+04  0.13109320762E+04  0.25500000000E-02 0.  1.
    -200001    2    1    2    0    0 -0.25686037673E+03  0.44074110221E+02 -0.93689939502E+03  0.11496688072E+04  0.61321946270E+03 0.  0.
   -5000001    2    3    3    0    0 -0.17209553176E+03  0.29181977707E+03 -0.32146071724E+03  0.47326008420E+03  0.76566704390E+02 0.  0.
     200001    1    1    2    0    0  0.25686037673E+03 -0.44074110221E+02  0.14678518107E+03  0.68208113132E+03  0.61300000000E+03 0. -1.
         11    1    4    4    0    0 -0.53710303672E+02  0.72821726671E+02 -0.12702219147E+03  0.15595652510E+03  0.51100000000E-03 0.  1.
    -200002    1    4    4    0    0 -0.11838522809E+03  0.21899805040E+03 -0.19443852577E+03  0.31730355909E+03  0.30000000000E+02 0.  1.
    -200000    1    3    3    0    0 -0.84764844968E+02 -0.24774566685E+03 -0.61543867778E+03  0.67640872296E+03  0.10100000000E+03 0.  1.
<mgrwt>
<rscale>  0 0.16525820E+04</rscale>
<asrwt>0</asrwt>
<pdfrwt beam="1">  1        2 0.18727601E+00 0.16525820E+04</pdfrwt>
<pdfrwt beam="2">  1       -2 0.74402552E-01 0.16525820E+04</pdfrwt>
<totfact> 0.28809926E+01</totfact>
</mgrwt>
</event>
<event>
 8    2  0.7266322E-052  0.1287480E+04  0.7818608E-02  0.9039553E-01
         -2   -1    0    0    0  501 -0.00000000000E+00  0.00000000000E+00  0.33182521291E+03  0.33182521292E+03  0.25500000000E-02 0. -1.
          2   -1    0    0  501    0  0.00000000000E+00 -0.00000000000E+00 -0.12488534410E+04  0.12488534410E+04  0.25500000000E-02 0.  1.
    -200001    2    1    2    0    0 -0.37708928541E+02  0.14982262723E+03 -0.28901254594E+03  0.68958860240E+03  0.60674163028E+03 0.  0.
   -5000001    2    3    3    0    0 -0.11114871699E+03 -0.20141801637E+03 -0.67118141624E+02  0.25576661250E+03  0.89378188221E+02 0.  0.
     200001    1    1    2    0    0  0.37708928541E+02 -0.14982262723E+03 -0.62801568215E+03  0.89109005154E+03  0.61300000000E+03 0.  1.
         11    1    4    4    0    0 -0.10062397802E+03 -0.13962498015E+03 -0.70978681237E+02  0.18616737959E+03  0.51100000000E-03 0.  1.
    -200002    1    4    4    0    0 -0.10524738975E+02 -0.61793036223E+02  0.38605396130E+01  0.69599232914E+02  0.30000000000E+02 0.  1.
    -200000    1    3    3    0    0  0.73439788452E+02  0.35124064360E+03 -0.22189440432E+03  0.43382198989E+03  0.10100000000E+03 0. -1.
<mgrwt>
<rscale>  0 0.12874798E+04</rscale>
<asrwt>0</asrwt>
<pdfrwt beam="1">  1        2 0.17840763E+00 0.12874798E+04</pdfrwt>
<pdfrwt beam="2">  1       -2 0.47403602E-01 0.12874798E+04</pdfrwt>
<totfact> 0.82972395E+01</totfact>
</mgrwt>
</event>
<event>
 8    2  0.7266322E-052  0.1430440E+04  0.7818608E-02  0.8932074E-01
         -2   -1    0    0    0  501 -0.00000000000E+00  0.00000000000E+00  0.20092326502E+03  0.20092326503E+03  0.25500000000E-02 0.  1.
          2   -1    0    0  501    0  0.00000000000E+00 -0.00000000000E+00 -0.25459456344E+04  0.25459456344E+04  0.25500000000E-02 0. -1.
    -200001    2    1    2    0    0 -0.27209838660E+03  0.15221065001E+03 -0.15497581318E+04  0.16954794276E+04  0.61293931859E+03 0.  0.
   -5000001    2    3    3    0    0 -0.25860118093E+03  0.20487248700E+03 -0.15390697237E+04  0.15802809653E+04  0.14037452847E+03 0.  0.
     200001    1    1    2    0    0  0.27209838660E+03 -0.15221065001E+03 -0.79526423760E+03  0.10513894719E+04  0.61300000000E+03 0. -1.
         11    1    4    4    0    0 -0.38879802745E+02  0.21133772072E+02 -0.50263281372E+03  0.50457707123E+03  0.51100000000E-03 0.  1.
    -200002    1    4    4    0    0 -0.21972137819E+03  0.18373871492E+03 -0.10364369100E+04  0.10757038941E+04  0.30000000000E+02 0.  1.
    -200000    1    3    3    0    0 -0.13497205667E+02 -0.52661836983E+02 -0.10688408087E+02  0.11519846224E+03  0.10100000000E+03 0.  1.
<mgrwt>
<rscale>  0 0.14304401E+04</rscale>
<asrwt>0</asrwt>
<pdfrwt beam="1">  1        2 0.36370650E+00 0.14304401E+04</pdfrwt>
<pdfrwt beam="2">  1       -2 0.28703325E-01 0.14304401E+04</pdfrwt>
<totfact> 0.45221453E+01</totfact>
</mgrwt>
</event>
<event>
 8    2  0.7266322E-052  0.1380014E+04  0.7818608E-02  0.8968414E-01
         -2   -1    0    0    0  501 -0.00000000000E+00  0.00000000000E+00  0.28692224843E+03  0.28692224844E+03  0.25500000000E-02 0. -1.
          2   -1    0    0  501    0  0.00000000000E+00 -0.00000000000E+00 -0.16593679676E+04  0.16593679676E+04  0.25500000000E-02 0.  1.
    -200001    2    1    2    0    0 -0.28716671784E+03  0.78856578095E+02 -0.53056808690E+03  0.86314201221E+03  0.61223243517E+03 0.  0.
   -5000001    2    3    3    0    0 -0.39971930737E+03  0.22590503199E+03 -0.32900058157E+03  0.57138561999E+03  0.86206356477E+02 0.  0.
     200001    1    1    2    0    0  0.28716671784E+03 -0.78856578095E+02 -0.84187763228E+03  0.10831482038E+04  0.61300000000E+03 0.  1.
         11    1    4    4    0    0 -0.15156876443E+03  0.75229897024E+02 -0.77505244377E+02  0.18611741096E+03  0.51100000000E-03 0.  1.
    -200002    1    4    4    0    0 -0.24815054294E+03  0.15067513496E+03 -0.25149533720E+03  0.38526820903E+03  0.30000000000E+02 0.  1.
    -200000    1    3    3    0    0  0.11255258953E+03 -0.14704845389E+03 -0.20156750532E+03  0.29175639222E+03  0.10100000000E+03 0. -1.
<mgrwt>
<rscale>  0 0.13800139E+04</rscale>
<asrwt>0</asrwt>
<pdfrwt beam="1">  1        2 0.23705256E+00 0.13800139E+04</pdfrwt>
<pdfrwt beam="2">  1       -2 0.40988894E-01 0.13800139E+04</pdfrwt>
<totfact> 0.66212011E+01</totfact>
</mgrwt>
</event>
<event>
 8    2  0.7266322E-052  0.1334364E+04  0.7818608E-02  0.9002749E-01
          2   -1    0    0  501    0  0.00000000000E+00  0.00000000000E+00  0.12298037910E+04  0.12298037910E+04  0.25500000000E-02 0.  1.
         -2   -1    0    0    0  501 -0.00000000000E+00 -0.00000000000E+00 -0.36195365723E+03  0.36195365724E+03  0.25500000000E-02 0. -1.
    -200001    2    1    2    0    0 -0.19912433263E+03 -0.89821438795E+02  0.26114950971E+03  0.70205354360E+03  0.61397208482E+03 0.  0.
   -5000001    2    3    3    0    0  0.75849980879E+02  0.17698150974E+03  0.21528546605E+03  0.30318113676E+03  0.92169926778E+02 0.  0.
     200001    1    1    2    0    0  0.19912433263E+03  0.89821438795E+02  0.60670062406E+03  0.88970390465E+03  0.61300000000E+03 0.  1.
         11    1    4    4    0    0  0.23614012111E+02  0.11553205279E+03  0.16722181440E+03  0.20461772163E+03  0.51100000000E-03 0.  1.
    -200002    1    4    4    0    0  0.52235968768E+02  0.61449456952E+02  0.48063651645E+02  0.98563415131E+02  0.30000000000E+02 0.  1.
    -200000    1    3    3    0    0 -0.27497431351E+03 -0.26680294854E+03  0.45864043664E+02  0.39887240684E+03  0.10100000000E+03 0. -1.
<mgrwt>
<rscale>  0 0.13343642E+04</rscale>
<asrwt>0</asrwt>
<pdfrwt beam="1">  1        2 0.17568626E+00 0.13343642E+04</pdfrwt>
<pdfrwt beam="2">  1       -2 0.51707664E-01 0.13343642E+04</pdfrwt>
<totfact> 0.71038503E+01</totfact>
</mgrwt>
</event>
<event>
 8    2  0.7266322E-052  0.1338849E+04  0.7818608E-02  0.8999313E-01
         -2   -1    0    0    0  501 -0.00000000000E+00  0.00000000000E+00  0.44833093075E+03  0.44833093075E+03  0.25500000000E-02 0. -1.
          2   -1    0    0  501    0  0.00000000000E+00 -0.00000000000E+00 -0.99954954394E+03  0.99954954394E+03  0.25500000000E-02 0.  1.
    -200001    2    1    2    0    0  0.20554660636E+03  0.17349860260E+03 -0.26347342121E+03  0.71923963862E+03  0.61281011870E+03 0.  0.
   -5000001    2    3    3    0    0  0.25630019833E+03 -0.12640313197E+03  0.11264149973E+02  0.29710374757E+03  0.80474917297E+02 0.  0.
     200001    1    1    2    0    0 -0.20554660636E+03 -0.17349860260E+03 -0.28774519198E+03  0.72864083608E+03  0.61300000000E+03 0. -1.
         11    1    4    4    0    0  0.28938070746E+02 -0.44290510579E+02 -0.38454437635E+01  0.53045722767E+02  0.51100000000E-03 0.  1.
    -200002    1    4    4    0    0  0.22736212758E+03 -0.82112621386E+02  0.15109593736E+02  0.24405802480E+03  0.30000000000E+02 0.  1.
    -200000    1    3    3    0    0 -0.50753591966E+02  0.29990173456E+03 -0.27473757118E+03  0.42213589105E+03  0.10100000000E+03 0.  1.
<mgrwt>
<rscale>  0 0.13388487E+04</rscale>
<asrwt>0</asrwt>
<pdfrwt beam="1">  1        2 0.14279279E+00 0.13388487E+04</pdfrwt>
<pdfrwt beam="2">  1       -2 0.64047276E-01 0.13388487E+04</pdfrwt>
<totfact> 0.61984890E+01</totfact>
</mgrwt>
</event>
<event>
 8    2  0.7266322E-052  0.2415300E+04  0.7818608E-02  0.8433798E-01
         -2   -1    0    0    0  501 -0.00000000000E+00  0.00000000000E+00  0.48638513699E+03  0.48638513700E+03  0.25500000000E-02 0. -1.
          2   -1    0    0  501    0  0.00000000000E+00 -0.00000000000E+00 -0.29984848258E+04  0.29984848258E+04  0.25500000000E-02 0.  1.
    -200001    2    1    2    0    0 -0.86403850291E+03  0.12543352294E+03 -0.20725594472E+04  0.23310672383E+04  0.61325011532E+03 0.  0.
   -5000001    2    3    3    0    0 -0.35550249933E+03  0.19305761638E+03 -0.38020518713E+03  0.55978357195E+03  0.71752301991E+02 0.  0.
     200001    1    1    2    0    0  0.86403850291E+03 -0.12543352294E+03 -0.43954024164E+03  0.11538027246E+04  0.61300000000E+03 0. -1.
         11    1    4    4    0    0 -0.80055080783E+02  0.63496181672E+02 -0.68147240396E+02  0.12281949121E+03  0.51100000000E-03 0.  1.
    -200002    1    4    4    0    0 -0.27544741854E+03  0.12956143471E+03 -0.31205794673E+03  0.43696408075E+03  0.30000000000E+02 0. -1.
    -200000    1    3    3    0    0 -0.50853600359E+03 -0.67624093440E+02 -0.16923542601E+04  0.17712836663E+04  0.10100000000E+03 0.  1.
<mgrwt>
<rscale>  0 0.24152999E+04</rscale>
<asrwt>0</asrwt>
<pdfrwt beam="1">  1        2 0.42835497E+00 0.24152999E+04</pdfrwt>
<pdfrwt beam="2">  1       -2 0.69483592E-01 0.24152999E+04</pdfrwt>
<totfact> 0.40296852E+00</totfact>
</mgrwt>
</event>
<event>
 8    2  0.7266322E-052  0.2160629E+04  0.7818608E-02  0.8534996E-01
         -2   -1    0    0    0  501 -0.00000000000E+00  0.00000000000E+00  0.67205458388E+03  0.67205458388E+03  0.25500000000E-02 0. -1.
          2   -1    0    0  501    0  0.00000000000E+00 -0.00000000000E+00 -0.17365847633E+04  0.17365847633E+04  0.25500000000E-02 0.  1.
    -200001    2    1    2    0    0  0.62352725586E+03  0.22209319736E+03  0.13568628596E+03  0.90717333329E+03  0.60534375468E+03 0.  0.
   -5000001    2    3    3    0    0  0.46015329066E+03  0.39337987273E+03 -0.36682858821E+01  0.61451162695E+03  0.10546235428E+03 0.  0.
     200001    1    1    2    0    0 -0.62352725586E+03 -0.22209319736E+03 -0.12002164654E+04  0.15014660139E+04  0.61300000000E+03 0.  1.
         11    1    4    4    0    0  0.18673850642E+03  0.22281774697E+03  0.46373789415E+01  0.29075853114E+03  0.51100000000E-03 0.  1.
    -200002    1    4    4    0    0  0.27341478424E+03  0.17056212575E+03 -0.83056648236E+01  0.32375309581E+03  0.30000000000E+02 0.  1.
    -200000    1    3    3    0    0  0.16337396520E+03 -0.17128667537E+03  0.13935457184E+03  0.29266170634E+03  0.10100000000E+03 0. -1.
<mgrwt>
<rscale>  0 0.21606293E+04</rscale>
<asrwt>0</asrwt>
<pdfrwt beam="1">  1        2 0.24808353E+00 0.21606293E+04</pdfrwt>
<pdfrwt beam="2">  1       -2 0.96007799E-01 0.21606293E+04</pdfrwt>
<totfact> 0.91968296E+00</totfact>
</mgrwt>
</event>
<event>
 8    2  0.7266322E-052  0.2371179E+04  0.7818608E-02  0.8450373E-01
          2   -1    0    0  501    0  0.00000000000E+00  0.00000000000E+00  0.20505380835E+04  0.20505380835E+04  0.25500000000E-02 0.  1.
         -2   -1    0    0    0  501 -0.00000000000E+00 -0.00000000000E+00 -0.68548955608E+03  0.68548955608E+03  0.25500000000E-02 0. -1.
    -200001    2    1    2    0    0  0.12123718556E+03  0.25999030721E+03  0.18057744055E+04  0.19283756635E+04  0.61279530082E+03 0.  0.
   -5000001    2    3    3    0    0  0.34994962603E+03  0.92453899790E+02  0.11204330369E+04  0.11798627245E+04  0.75454583119E+02 0.  0.
     200001    1    1    2    0    0 -0.12123718556E+03 -0.25999030721E+03 -0.44072587808E+03  0.80765197617E+03  0.61300000000E+03 0. -1.
         11    1    4    4    0    0  0.29471346047E+03  0.80881102227E+02  0.94138106001E+03  0.98974546052E+03  0.51100000000E-03 0.  1.
    -200002    1    4    4    0    0  0.55236165564E+02  0.11572797562E+02  0.17905197686E+03  0.19011726394E+03  0.30000000000E+02 0. -1.
    -200000    1    3    3    0    0 -0.22871244047E+03  0.16753640742E+03  0.68534136867E+03  0.74851293900E+03  0.10100000000E+03 0.  1.
<mgrwt>
<rscale>  0 0.23711790E+04</rscale>
<asrwt>0</asrwt>
<pdfrwt beam="1">  1        2 0.29293401E+00 0.23711790E+04</pdfrwt>
<pdfrwt beam="2">  1       -2 0.97927079E-01 0.23711790E+04</pdfrwt>
<totfact> 0.59427384E+00</totfact>
</mgrwt>
</event>
<event>
 8    2  0.7266322E-052  0.1728015E+04  0.7818608E-02  0.8745546E-01
         -2   -1    0    0    0  501 -0.00000000000E+00  0.00000000000E+00  0.42255463835E+03  0.42255463836E+03  0.25500000000E-02 0. -1.
          2   -1    0    0  501    0  0.00000000000E+00 -0.00000000000E+00 -0.17666573943E+04  0.17666573943E+04  0.25500000000E-02 0.  1.
    -200001    2    1    2    0    0 -0.28456406376E+03 -0.49394696859E+03 -0.40048072396E+03  0.92780335447E+03  0.61275928400E+03 0.  0.
   -5000001    2    3    3    0    0 -0.41808758464E+03 -0.37351447530E+03 -0.44017498492E+03  0.71778156888E+03  0.84534440256E+02 0.  0.
     200001    1    1    2    0    0  0.28456406376E+03  0.49394696859E+03 -0.94362203198E+03  0.12614086782E+04  0.61300000000E+03 0. -1.
         11    1    4    4    0    0 -0.36118434948E+03 -0.32748865682E+03 -0.38699131347E+03  0.62246705242E+03  0.51100000000E-03 0.  1.
    -200002    1    4    4    0    0 -0.56903235156E+02 -0.46025818482E+02 -0.53183671455E+02  0.95314516457E+02  0.30000000000E+02 0. -1.
    -200000    1    3    3    0    0  0.13352352088E+03 -0.12043249329E+03  0.39694260959E+02  0.21002178559E+03  0.10100000000E+03 0. -1.
<mgrwt>
<rscale>  0 0.17280154E+04</rscale>
<asrwt>0</asrwt>
<pdfrwt beam="1">  1        2 0.25237962E+00 0.17280154E+04</pdfrwt>
<pdfrwt beam="2">  1       -2 0.60364949E-01 0.17280154E+04</pdfrwt>
<totfact> 0.25773862E+01</totfact>
</mgrwt>
</event>
<event>
 8    2  0.7266322E-052  0.1934125E+04  0.7818608E-02  0.8638054E-01
         -2   -1    0    0    0  501 -0.00000000000E+00  0.00000000000E+00  0.38223888211E+03  0.38223888212E+03  0.25500000000E-02 0. -1.
          2   -1    0    0  501    0  0.00000000000E+00 -0.00000000000E+00 -0.24466622079E+04  0.24466622079E+04  0.25500000000E-02 0.  1.
    -200001    2    1    2    0    0  0.62307413067E+03 -0.10134668001E+03 -0.44544338636E+03  0.98625148521E+03  0.61300869469E+03 0.  0.
   -5000001    2    3    3    0    0 -0.35151848986E+00 -0.19483743689E+03 -0.15859413331E+03  0.28633466470E+03  0.13738155157E+03 0.  0.
     200001    1    1    2    0    0 -0.62307413067E+03  0.10134668001E+03 -0.16189799394E+04  0.18426496048E+04  0.61300000000E+03 0. -1.
         11    1    4    4    0    0  0.29211606215E+02 -0.19408736009E+03 -0.13113610396E+03  0.23605062814E+03  0.51100000000E-03 0.  1.
    -200002    1    4    4    0    0 -0.29563124705E+02 -0.75007680393E+00 -0.27458029350E+02  0.50284036566E+02  0.30000000000E+02 0.  1.
    -200000    1    3    3    0    0  0.62342564916E+03  0.93490756879E+02 -0.28684925306E+03  0.69991682051E+03  0.10100000000E+03 0.  1.
<mgrwt>
<rscale>  0 0.19341245E+04</rscale>
<asrwt>0</asrwt>
<pdfrwt beam="1">  1        2 0.34952317E+00 0.19341245E+04</pdfrwt>
<pdfrwt beam="2">  1       -2 0.54605556E-01 0.19341245E+04</pdfrwt>
<totfact> 0.13910813E+01</totfact>
</mgrwt>
</event>
<event>
 8    2  0.7266322E-052  0.1569762E+04  0.7818608E-02  0.8839343E-01
         -2   -1    0    0    0  501 -0.00000000000E+00  0.00000000000E+00  0.18161861875E+03  0.18161861877E+03  0.25500000000E-02 0. -1.
          2   -1    0    0  501    0  0.00000000000E+00 -0.00000000000E+00 -0.33919314593E+04  0.33919314593E+04  0.25500000000E-02 0.  1.
    -200001    2    1    2    0    0 -0.23227003748E+03 -0.39106859531E+03 -0.20214331124E+04  0.21607202849E+04  0.61289175634E+03 0.  0.
   -5000001    2    3    3    0    0 -0.37266635084E+03 -0.24620432402E+03 -0.13035896516E+04  0.14082596439E+04  0.29043496144E+03 0.  0.
     200001    1    1    2    0    0  0.23227003748E+03  0.39106859531E+03 -0.11888797282E+04  0.14128297932E+04  0.61300000000E+03 0. -1.
         11    1    4    4    0    0 -0.25814004639E+03 -0.30060593409E+03 -0.88013757957E+03  0.96521622973E+03  0.51100000000E-03 0.  1.
    -200002    1    4    4    0    0 -0.11452630445E+03  0.54401610062E+02 -0.42345207200E+03  0.44304341420E+03  0.30000000000E+02 0.  1.
    -200000    1    3    3    0    0  0.14039631336E+03 -0.14486427129E+03 -0.71784346086E+03  0.75246064096E+03  0.10100000000E+03 0. -1.
<mgrwt>
<rscale>  0 0.15697616E+04</rscale>
<asrwt>0</asrwt>
<pdfrwt beam="1">  1        2 0.48456160E+00 0.15697616E+04</pdfrwt>
<pdfrwt beam="2">  1       -2 0.25945519E-01 0.15697616E+04</pdfrwt>
<totfact> 0.18188043E+01</totfact>
</mgrwt>
</event>
<event>
 8    2  0.7266322E-052  0.1297617E+04  0.7818608E-02  0.9031457E-01
          2   -1    0    0  501    0  0.00000000000E+00  0.00000000000E+00  0.28612883191E+04  0.28612883191E+04  0.25500000000E-02 0. -1.
         -2   -1    0    0    0  501 -0.00000000000E+00 -0.00000000000E+00 -0.14711986548E+03  0.14711986550E+03  0.25500000000E-02 0.  1.
    -200001    2    1    2    0    0  0.70498145467E+02 -0.18729022280E+03  0.11929004423E+04  0.13561149363E+04  0.61317912487E+03 0.  0.
   -5000001    2    3    3    0    0  0.26772882038E+03 -0.10396404978E+03  0.26012396811E+03  0.39376565407E+03  0.69997618712E+02 0.  0.
     200001    1    1    2    0    0 -0.70498145467E+02  0.18729022280E+03  0.15212680113E+04  0.16522932483E+04  0.61300000000E+03 0.  1.
         11    1    4    4    0    0  0.19457676392E+03 -0.73713577479E+02  0.20877441858E+03  0.29475509566E+03  0.51100000000E-03 0.  1.
    -200002    1    4    4    0    0  0.73152056463E+02 -0.30250472303E+02  0.51349549532E+02  0.99010558409E+02  0.30000000000E+02 0. -1.
    -200000    1    3    3    0    0 -0.19723067491E+03 -0.83326173022E+02  0.93277647421E+03  0.96234928226E+03  0.10100000000E+03 0. -1.
<mgrwt>
<rscale>  0 0.12976168E+04</rscale>
<asrwt>0</asrwt>
<pdfrwt beam="1">  1        2 0.40875542E+00 0.12976168E+04</pdfrwt>
<pdfrwt beam="2">  1       -2 0.21017126E-01 0.12976168E+04</pdfrwt>
<totfact> 0.54478123E+01</totfact>
</mgrwt>
</event>
<event>
 8    2  0.7266322E-052  0.1799031E+04  0.7818608E-02  0.8706815E-01
         -2   -1    0    0    0  501 -0.00000000000E+00  0.00000000000E+00  0.70923369063E+03  0.70923369064E+03  0.25500000000E-02 0. -1.
          2   -1    0    0  501    0  0.00000000000E+00 -0.00000000000E+00 -0.11408478774E+04  0.11408478774E+04  0.25500000000E-02 0.  1.
    -200001    2    1    2    0    0 -0.25606240128E+03  0.59359070008E+03 -0.34558924602E+03  0.95504684080E+03  0.61218025825E+03 0.  0.
   -5000001    2    3    3    0    0  0.11635453339E+03  0.43297559623E+03 -0.28189503513E+03  0.53225902485E+03  0.53184719061E+02 0.  0.
     200001    1    1    2    0    0  0.25606240128E+03 -0.59359070008E+03 -0.86024940777E+02  0.89503472726E+03  0.61300000000E+03 0.  1.
         11    1    4    4    0    0  0.77582980459E+02  0.25774705329E+03 -0.15782060475E+03  0.31202564898E+03  0.51100000000E-03 0.  1.
    -200002    1    4    4    0    0  0.38771552927E+02  0.17522854294E+03 -0.12407443037E+03  0.22023337588E+03  0.30000000000E+02 0. -1.
    -200000    1    3    3    0    0 -0.37241693467E+03  0.16061510385E+03 -0.63694210886E+02  0.42278781595E+03  0.10100000000E+03 0. -1.
<mgrwt>
<rscale>  0 0.17990306E+04</rscale>
<asrwt>0</asrwt>
<pdfrwt beam="1">  1        2 0.16297827E+00 0.17990306E+04</pdfrwt>
<pdfrwt beam="2">  1       -2 0.10131910E+00 0.17990306E+04</pdfrwt>
<totfact> 0.17533511E+01</totfact>
</mgrwt>
</event>
<event>
 8    2  0.7266322E-052  0.1886916E+04  0.7818608E-02  0.8661397E-01
         -2   -1    0    0    0  501 -0.00000000000E+00  0.00000000000E+00  0.14553235069E+04  0.14553235069E+04  0.25500000000E-02 0. -1.
          2   -1    0    0  501    0  0.00000000000E+00 -0.00000000000E+00 -0.61162523139E+03  0.61162523139E+03  0.25500000000E-02 0.  1.
    -200001    2    1    2    0    0  0.37235278066E+02  0.14978253071E+03  0.11887077031E+04  0.13467947425E+04  0.61401042542E+03 0.  0.
   -5000001    2    3    3    0    0 -0.13001513686E+03  0.21289779326E+03  0.18259386528E+03  0.31994407548E+03  0.82427456649E+02 0.  0.
     200001    1    1    2    0    0 -0.37235278066E+02 -0.14978253071E+03 -0.34500942765E+03  0.72015399576E+03  0.61300000000E+03 0.  1.
         11    1    4    4    0    0 -0.43464908556E+02  0.13576303324E+03  0.90200585372E+02  0.16869186427E+03  0.51100000000E-03 0.  1.
    -200002    1    4    4    0    0 -0.86550228304E+02  0.77134760018E+02  0.92393279913E+02  0.15125221121E+03  0.30000000000E+02 0. -1.
    -200000    1    3    3    0    0  0.16725041493E+03 -0.63115262552E+02  0.10061138379E+04  0.10268506670E+04  0.10100000000E+03 0. -1.
<mgrwt>
<rscale>  0 0.18869156E+04</rscale>
<asrwt>0</asrwt>
<pdfrwt beam="1">  1        2 0.87375033E-01 0.18869156E+04</pdfrwt>
<pdfrwt beam="2">  1       -2 0.20790336E+00 0.18869156E+04</pdfrwt>
<totfact> 0.58882230E+00</totfact>
</mgrwt>
</event>
<event>
 8    2  0.7266322E-052  0.1310509E+04  0.7818608E-02  0.9021273E-01
          2   -1    0    0  501    0  0.00000000000E+00  0.00000000000E+00  0.49453666141E+03  0.49453666142E+03  0.25500000000E-02 0.  1.
         -2   -1    0    0    0  501 -0.00000000000E+00 -0.00000000000E+00 -0.86820381677E+03  0.86820381678E+03  0.25500000000E-02 0. -1.
    -200001    2    1    2    0    0  0.11018444280E+03  0.19822480305E+03 -0.23597843444E+03  0.69478773447E+03  0.61287069637E+03 0.  0.
   -5000001    2    3    3    0    0  0.16941285231E+03  0.37699939992E+03 -0.76922283285E+02  0.42838912299E+03  0.82285727562E+02 0.  0.
     200001    1    1    2    0    0 -0.11018444280E+03 -0.19822480305E+03 -0.13768872092E+03  0.66795274372E+03  0.61300000000E+03 0.  1.
         11    1    4    4    0    0  0.15439257371E+03  0.31126677702E+03 -0.68093386760E+02  0.35406324663E+03  0.51100000000E-03 0.  1.
    -200002    1    4    4    0    0  0.15020278601E+02  0.65732622902E+02 -0.88288965249E+01  0.74325876360E+02  0.30000000000E+02 0. -1.
    -200000    1    3    3    0    0 -0.59228409515E+02 -0.17877459687E+03 -0.15905615115E+03  0.26639861148E+03  0.10100000000E+03 0. -1.
<mgrwt>
<rscale>  0 0.13105092E+04</rscale>
<asrwt>0</asrwt>
<pdfrwt beam="1">  1        2 0.70648094E-01 0.13105092E+04</pdfrwt>
<pdfrwt beam="2">  1       -2 0.12402912E+00 0.13105092E+04</pdfrwt>
<totfact> 0.32598789E+01</totfact>
</mgrwt>
</event>
<event>
 8    2  0.7266322E-052  0.2454139E+04  0.7818608E-02  0.8419508E-01
         -2   -1    0    0    0  501 -0.00000000000E+00  0.00000000000E+00  0.13165988416E+04  0.13165988416E+04  0.25500000000E-02 0. -1.
          2   -1    0    0  501    0  0.00000000000E+00 -0.00000000000E+00 -0.11436283083E+04  0.11436283083E+04  0.25500000000E-02 0.  1.
    -200001    2    1    2    0    0  0.18620863826E+03  0.57626489894E+03  0.96202768637E+03  0.12918371972E+04  0.61367025679E+03 0.  0.
   -5000001    2    3    3    0    0  0.32883331404E+03  0.38360083124E+03  0.32856324283E+03  0.60704566518E+03  0.72592623118E+02 0.  0.
     200001    1    1    2    0    0 -0.18620863826E+03 -0.57626489894E+03 -0.78905715303E+03  0.11683899527E+04  0.61300000000E+03 0.  1.
         11    1    4    4    0    0  0.23678262566E+03  0.26701714543E+03  0.20542160796E+03  0.41177931563E+03  0.51100000000E-03 0.  1.
    -200002    1    4    4    0    0  0.92050688380E+02  0.11658368581E+03  0.12314163487E+03  0.19526634955E+03  0.30000000000E+02 0. -1.
    -200000    1    3    3    0    0 -0.14262467577E+03  0.19266406771E+03  0.63346444354E+03  0.68479153204E+03  0.10100000000E+03 0. -1.
<mgrwt>
<rscale>  0 0.24541391E+04</rscale>
<asrwt>0</asrwt>
<pdfrwt beam="1">  1        2 0.16337547E+00 0.24541391E+04</pdfrwt>
<pdfrwt beam="2">  1       -2 0.18808555E+00 0.24541391E+04</pdfrwt>
<totfact> 0.33101014E+00</totfact>
</mgrwt>
</event>
<event>
 8    2  0.7266322E-052  0.1625050E+04  0.7818608E-02  0.8805305E-01
          2   -1    0    0  501    0  0.00000000000E+00  0.00000000000E+00  0.10124146280E+04  0.10124146280E+04  0.25500000000E-02 0.  1.
         -2   -1    0    0    0  501 -0.00000000000E+00 -0.00000000000E+00 -0.65210099579E+03  0.65210099579E+03  0.25500000000E-02 0. -1.
    -200001    2    1    2    0    0 -0.32897834015E+03 -0.24808446243E+03 -0.16722080363E+03  0.75686247982E+03  0.61245846178E+03 0.  0.
   -5000001    2    3    3    0    0 -0.43849020799E+03 -0.34308966124E+03 -0.11559628053E+03  0.57278388687E+03  0.68809176880E+02 0.  0.
     200001    1    1    2    0    0  0.32897834015E+03  0.24808446243E+03  0.52753443586E+03  0.90765314400E+03  0.61300000000E+03 0.  1.
         11    1    4    4    0    0 -0.29955695698E+03 -0.25261243157E+03 -0.68065578776E+02  0.39771891340E+03  0.51100000000E-03 0.  1.
    -200002    1    4    4    0    0 -0.13893325102E+03 -0.90477229668E+02 -0.47530701752E+02  0.17506497347E+03  0.30000000000E+02 0. -1.
    -200000    1    3    3    0    0  0.10951186784E+03  0.95005198810E+02 -0.51624523101E+02  0.18407859296E+03  0.10100000000E+03 0. -1.
<mgrwt>
<rscale>  0 0.16250496E+04</rscale>
<asrwt>0</asrwt>
<pdfrwt beam="1">  1        2 0.14463066E+00 0.16250496E+04</pdfrwt>
<pdfrwt beam="2">  1       -2 0.93157285E-01 0.16250496E+04</pdfrwt>
<totfact> 0.25832768E+01</totfact>
</mgrwt>
</event>
<event>
 8    2  0.7266322E-052  0.1435547E+04  0.7818608E-02  0.8928482E-01
          2   -1    0    0  501    0  0.00000000000E+00  0.00000000000E+00  0.28987418763E+04  0.28987418763E+04  0.25500000000E-02 0.  1.
         -2   -1    0    0    0  501 -0.00000000000E+00 -0.00000000000E+00 -0.17773198219E+03  0.17773198221E+03  0.25500000000E-02 0. -1.
    -200001    2    1    2    0    0  0.17600040945E+03  0.29887879689E+03  0.16568758603E+04  0.18003645680E+04  0.61300104567E+03 0.  0.
   -5000001    2    3    3    0    0 -0.15765852681E+03  0.26590159562E+03  0.10741303080E+04  0.11205049058E+04  0.78838162143E+02 0.  0.
     200001    1    1    2    0    0 -0.17600040945E+03 -0.29887879689E+03  0.10641340338E+04  0.12761092905E+04  0.61300000000E+03 0.  1.
         11    1    4    4    0    0 -0.11293841346E+03  0.18251011253E+03  0.63487710802E+03  0.67017458076E+03  0.51100000000E-03 0.  1.
    -200002    1    4    4    0    0 -0.44720113355E+02  0.83391483085E+02  0.43925319995E+03  0.45033032504E+03  0.30000000000E+02 0.  1.
    -200000    1    3    3    0    0  0.33365893626E+03  0.32977201275E+02  0.58274555232E+03  0.67985966221E+03  0.10100000000E+03 0. -1.
<mgrwt>
<rscale>  0 0.14355475E+04</rscale>
<asrwt>0</asrwt>
<pdfrwt beam="1">  1        2 0.41410599E+00 0.14355475E+04</pdfrwt>
<pdfrwt beam="2">  1       -2 0.25390283E-01 0.14355475E+04</pdfrwt>
<totfact> 0.36589601E+01</totfact>
</mgrwt>
</event>
<event>
 8    2  0.7266322E-052  0.1274710E+04  0.7818608E-02  0.9049864E-01
         -2   -1    0    0    0  501 -0.00000000000E+00  0.00000000000E+00  0.19722462235E+03  0.19722462236E+03  0.25500000000E-02 0. -1.
          2   -1    0    0  501    0  0.00000000000E+00 -0.00000000000E+00 -0.20596897513E+04  0.20596897513E+04  0.25500000000E-02 0.  1.
    -200001    2    1    2    0    0 -0.24543092038E+02 -0.52156053069E+02 -0.12194020479E+04  0.13666213076E+04  0.61432062214E+03 0.  0.
   -5000001    2    3    3    0    0 -0.16216118404E+03 -0.20018267873E+03 -0.94891896542E+03  0.10141830591E+04  0.24849692122E+03 0.  0.
     200001    1    1    2    0    0  0.24543092038E+02  0.52156053069E+02 -0.64306308107E+03  0.89029306606E+03  0.61300000000E+03 0. -1.
         11    1    4    4    0    0  0.20707397232E+02 -0.16751770462E+03 -0.41147697935E+03  0.44475193333E+03  0.51100000000E-03 0.  1.
    -200002    1    4    4    0    0 -0.18286858127E+03 -0.32664974101E+02 -0.53744198607E+03  0.56943112573E+03  0.30000000000E+02 0.  1.
    -200000    1    3    3    0    0  0.13761809200E+03  0.14802662566E+03 -0.27048308247E+03  0.35243824856E+03  0.10100000000E+03 0. -1.
<mgrwt>
<rscale>  0 0.12747102E+04</rscale>
<asrwt>0</asrwt>
<pdfrwt beam="1">  1        2 0.29424138E+00 0.12747102E+04</pdfrwt>
<pdfrwt beam="2">  1       -2 0.28174947E-01 0.12747102E+04</pdfrwt>
<totfact> 0.84636983E+01</totfact>
</mgrwt>
</event>
<event>
 8    2  0.7266322E-052  0.1609527E+04  0.7818608E-02  0.8814717E-01
          2   -1    0    0  501    0  0.00000000000E+00  0.00000000000E+00  0.25085620559E+04  0.25085620559E+04  0.25500000000E-02 0.  1.
         -2   -1    0    0    0  501 -0.00000000000E+00 -0.00000000000E+00 -0.25817350805E+03  0.25817350806E+03  0.25500000000E-02 0. -1.
    -200001    2    1    2    0    0 -0.58641055639E+01 -0.49759803572E+03  0.85941584341E+03  0.11672943311E+04  0.61346741611E+03 0.  0.
   -5000001    2    3    3    0    0 -0.70157801924E+02 -0.48337979982E+02  0.64103922998E+03  0.65362359768E+03  0.95046491742E+02 0.  0.
     200001    1    1    2    0    0  0.58641055639E+01  0.49759803572E+03  0.13909727045E+04  0.15994412329E+04  0.61300000000E+03 0.  1.
         11    1    4    4    0    0 -0.10654667366E+02 -0.36240633256E+02  0.79534560012E+02  0.88049143505E+02  0.51100000000E-03 0.  1.
    -200002    1    4    4    0    0 -0.59503134557E+02 -0.12097346726E+02  0.56150466997E+03  0.56557445418E+03  0.30000000000E+02 0.  1.
    -200000    1    3    3    0    0  0.64293696360E+02 -0.44926005574E+03  0.21837661342E+03  0.51367073342E+03  0.10100000000E+03 0. -1.
<mgrwt>
<rscale>  0 0.16095270E+04</rscale>
<asrwt>0</asrwt>
<pdfrwt beam="1">  1        2 0.35836602E+00 0.16095270E+04</pdfrwt>
<pdfrwt beam="2">  1       -2 0.36881928E-01 0.16095270E+04</pdfrwt>
<totfact> 0.29041331E+01</totfact>
</mgrwt>
</event>
<event>
 8    2  0.7266322E-052  0.2208839E+04  0.7818608E-02  0.8514758E-01
         -2   -1    0    0    0  501 -0.00000000000E+00  0.00000000000E+00  0.55378548094E+03  0.55378548094E+03  0.25500000000E-02 0. -1.
          2   -1    0    0  501    0  0.00000000000E+00 -0.00000000000E+00 -0.22025534607E+04  0.22025534607E+04  0.25500000000E-02 0.  1.
    -200001    2    1    2    0    0  0.17902288835E+03 -0.87925042473E+03 -0.57778758284E+03  0.12305937091E+04  0.61269232258E+03 0.  0.
   -5000001    2    3    3    0    0 -0.10516244656E+03  0.23325042874E+02 -0.92244221277E+02  0.16225053616E+03  0.78822854121E+02 0.  0.
     200001    1    1    2    0    0 -0.17902288835E+03  0.87925042473E+03 -0.10709803970E+04  0.15257452325E+04  0.61300000000E+03 0.  1.
         11    1    4    4    0    0 -0.29556910464E+02  0.40301774821E+02 -0.40841759612E+02  0.64543731984E+02  0.51100000000E-03 0.  1.
    -200002    1    4    4    0    0 -0.75605536098E+02 -0.16976731947E+02 -0.51402461665E+02  0.97706804172E+02  0.30000000000E+02 0. -1.
    -200000    1    3    3    0    0  0.28418533491E+03 -0.90257546761E+03 -0.48554336157E+03  0.10683431730E+04  0.10100000000E+03 0. -1.
<mgrwt>
<rscale>  0 0.22088387E+04</rscale>
<asrwt>0</asrwt>
<pdfrwt beam="1">  1        2 0.31465049E+00 0.22088387E+04</pdfrwt>
<pdfrwt beam="2">  1       -2 0.79112213E-01 0.22088387E+04</pdfrwt>
<totfact> 0.81997687E+00</totfact>
</mgrwt>
</event>
<event>
 8    2  0.7266322E-052  0.1583442E+04  0.7818608E-02  0.8830785E-01
         -2   -1    0    0    0  501 -0.00000000000E+00  0.00000000000E+00  0.18630481359E+03  0.18630481361E+03  0.25500000000E-02 0. -1.
          2   -1    0    0  501    0  0.00000000000E+00 -0.00000000000E+00 -0.33644980722E+04  0.33644980722E+04  0.25500000000E-02 0.  1.
    -200001    2    1    2    0    0  0.21455651114E+03  0.29627675353E+02 -0.57805556506E+03  0.87061682491E+03  0.61393250761E+03 0.  0.
   -5000001    2    3    3    0    0  0.27735546079E+03 -0.29059336351E+02 -0.33175680602E+02  0.30982902020E+03  0.13085449673E+03 0.  0.
     200001    1    1    2    0    0 -0.21455651114E+03 -0.29627675353E+02 -0.26001376936E+04  0.26801860609E+04  0.61300000000E+03 0.  1.
         11    1    4    4    0    0  0.24636713239E+03 -0.10921517124E+02  0.90896382812E+01  0.24677654869E+03  0.51100000000E-03 0.  1.
    -200002    1    4    4    0    0  0.30988328401E+02 -0.18137819227E+02 -0.42265318883E+02  0.63052471511E+02  0.30000000000E+02 0.  1.
    -200000    1    3    3    0    0 -0.62798949657E+02  0.58687011704E+02 -0.54487988445E+03  0.56078780470E+03  0.10100000000E+03 0.  1.
<mgrwt>
<rscale>  0 0.15834421E+04</rscale>
<asrwt>0</asrwt>
<pdfrwt beam="1">  1        2 0.48064255E+00 0.15834421E+04</pdfrwt>
<pdfrwt beam="2">  1       -2 0.26614975E-01 0.15834421E+04</pdfrwt>
<totfact> 0.18001867E+01</totfact>
</mgrwt>
</event>
<event>
 8    2  0.7266322E-052  0.1624372E+04  0.7818608E-02  0.8805714E-01
         -2   -1    0    0    0  501 -0.00000000000E+00  0.00000000000E+00  0.24058265798E+04  0.24058265798E+04  0.25500000000E-02 0. -1.
          2   -1    0    0  501    0  0.00000000000E+00 -0.00000000000E+00 -0.27418680220E+03  0.27418680221E+03  0.25500000000E-02 0.  1.
    -200001    2    1    2    0    0  0.13490756620E+01  0.38439435767E+03  0.16746827008E+04  0.18242449482E+04  0.61281860335E+03 0.  0.
   -5000001    2    3    3    0    0 -0.20140553626E+03  0.25375350868E+03  0.38778345269E+03  0.51104765200E+03  0.76411145977E+02 0.  0.
     200001    1    1    2    0    0 -0.13490756620E+01 -0.38439435767E+03  0.45695707681E+03  0.85576843378E+03  0.61300000000E+03 0.  1.
         11    1    4    4    0    0 -0.59137739416E+02  0.10946616872E+03  0.18391648821E+03  0.22204816810E+03  0.51100000000E-03 0.  1.
    -200002    1    4    4    0    0 -0.14226779684E+03  0.14428733996E+03  0.20386696448E+03  0.28899948390E+03  0.30000000000E+02 0.  1.
    -200000    1    3    3    0    0  0.20275461192E+03  0.13064084899E+03  0.12868992481E+04  0.13131972962E+04  0.10100000000E+03 0. -1.
<mgrwt>
<rscale>  0 0.16243718E+04</rscale>
<asrwt>0</asrwt>
<pdfrwt beam="1">  1        2 0.39169543E-01 0.16243718E+04</pdfrwt>
<pdfrwt beam="2">  1       -2 0.34368951E+00 0.16243718E+04</pdfrwt>
<totfact> 0.21678542E+00</totfact>
</mgrwt>
</event>
<event>
 8    2  0.7266322E-052  0.1651730E+04  0.7818608E-02  0.8789384E-01
         -2   -1    0    0    0  501 -0.00000000000E+00  0.00000000000E+00  0.26158248973E+03  0.26158248975E+03  0.25500000000E-02 0. -1.
          2   -1    0    0  501    0  0.00000000000E+00 -0.00000000000E+00 -0.26074116926E+04  0.26074116926E+04  0.25500000000E-02 0.  1.
    -200001    2    1    2    0    0  0.54906681899E+03  0.50667002394E+02 -0.11082366679E+04  0.13819011121E+04  0.61434571278E+03 0.  0.
   -5000001    2    3    3    0    0  0.23234323915E+03  0.18877171222E+03 -0.92062479878E+03  0.97596275433E+03  0.12383512260E+03 0.  0.
     200001    1    1    2    0    0 -0.54906681899E+03 -0.50667002394E+02 -0.12375925350E+04  0.14870930702E+04  0.61300000000E+03 0. -1.
         11    1    4    4    0    0  0.94027691727E+02  0.12627039522E+03 -0.59460070629E+03  0.61508976536E+03  0.51100000000E-03 0.  1.
    -200002    1    4    4    0    0  0.13831554743E+03  0.62501316999E+02 -0.32602409249E+03  0.36087298897E+03  0.30000000000E+02 0.  1.
    -200000    1    3    3    0    0  0.31672357984E+03 -0.13810470983E+03 -0.18761186909E+03  0.40593835779E+03  0.10100000000E+03 0. -1.
<mgrwt>
<rscale>  0 0.16517303E+04</rscale>
<asrwt>0</asrwt>
<pdfrwt beam="1">  1        2 0.37248737E+00 0.16517303E+04</pdfrwt>
<pdfrwt beam="2">  1       -2 0.37368929E-01 0.16517303E+04</pdfrwt>
<totfact> 0.25017220E+01</totfact>
</mgrwt>
</event>
<event>
 8    2  0.7266322E-052  0.1311485E+04  0.7818608E-02  0.9020507E-01
         -2   -1    0    0    0  501 -0.00000000000E+00  0.00000000000E+00  0.10228257179E+04  0.10228257179E+04  0.25500000000E-02 0. -1.
          2   -1    0    0  501    0  0.00000000000E+00 -0.00000000000E+00 -0.42040220196E+03  0.42040220197E+03  0.25500000000E-02 0.  1.
    -200001    2    1    2    0    0  0.29141151244E+02  0.51394012736E+02  0.54945028138E+03  0.82511327454E+03  0.61271996285E+03 0.  0.
   -5000001    2    3    3    0    0 -0.26099078308E+03 -0.91530372748E+01  0.38768472278E+03  0.47267664119E+03  0.70169764906E+02 0.  0.
     200001    1    1    2    0    0 -0.29141151244E+02 -0.51394012736E+02  0.52973234597E+02  0.61811464537E+03  0.61300000000E+03 0.  1.
         11    1    4    4    0    0 -0.16187870350E+03  0.18449390762E+02  0.22253752297E+03  0.27580435782E+03  0.51100000000E-03 0.  1.
    -200002    1    4    4    0    0 -0.99112079581E+02 -0.27602428037E+02  0.16514719981E+03  0.19687228337E+03  0.30000000000E+02 0. -1.
    -200000    1    3    3    0    0  0.29013193432E+03  0.60547050011E+02  0.16176555860E+03  0.35243663335E+03  0.10100000000E+03 0.  1.
<mgrwt>
<rscale>  0 0.13114849E+04</rscale>
<asrwt>0</asrwt>
<pdfrwt beam="1">  1        2 0.60057457E-01 0.13114849E+04</pdfrwt>
<pdfrwt beam="2">  1       -2 0.14611796E+00 0.13114849E+04</pdfrwt>
<totfact> 0.25733208E+01</totfact>
</mgrwt>
</event>
<event>
 8    2  0.7266322E-052  0.1883792E+04  0.7818608E-02  0.8662967E-01
          2   -1    0    0  501    0  0.00000000000E+00  0.00000000000E+00  0.14403538607E+04  0.14403538607E+04  0.25500000000E-02 0.  1.
         -2   -1    0    0    0  501 -0.00000000000E+00 -0.00000000000E+00 -0.61593736346E+03  0.61593736346E+03  0.25500000000E-02 0. -1.
    -200001    2    1    2    0    0  0.66911108656E+03  0.22136133463E+03  0.55759851560E+03  0.10848637580E+04  0.60770287328E+03 0.  0.
   -5000001    2    3    3    0    0 -0.11290600676E+02  0.11385876326E+03  0.57377306092E+02  0.22758578833E+03  0.18818033946E+03 0.  0.
     200001    1    1    2    0    0 -0.66911108656E+03 -0.22136133463E+03  0.26681798159E+03  0.97142746612E+03  0.61300000000E+03 0. -1.
         11    1    4    4    0    0  0.94635456256E+01 -0.48499155333E+02 -0.54528076596E+01  0.49713779533E+02  0.51100000000E-03 0.  1.
    -200002    1    4    4    0    0 -0.20754146302E+02  0.16235791859E+03  0.62830113751E+02  0.17787200879E+03  0.30000000000E+02 0.  1.
    -200000    1    3    3    0    0  0.68040168723E+03  0.10750257138E+03  0.50022120951E+03  0.85727796967E+03  0.10100000000E+03 0.  1.
<mgrwt>
<rscale>  0 0.18837917E+04</rscale>
<asrwt>0</asrwt>
<pdfrwt beam="1">  1        2 0.20576484E+00 0.18837917E+04</pdfrwt>
<pdfrwt beam="2">  1       -2 0.87991052E-01 0.18837917E+04</pdfrwt>
<totfact> 0.16485268E+01</totfact>
</mgrwt>
</event>
<event>
 8    2  0.7266322E-052  0.1606970E+04  0.7818608E-02  0.8816277E-01
          2   -1    0    0  501    0  0.00000000000E+00  0.00000000000E+00  0.21987252663E+04  0.21987252663E+04  0.25500000000E-02 0.  1.
         -2   -1    0    0    0  501 -0.00000000000E+00 -0.00000000000E+00 -0.29361939893E+03  0.29361939894E+03  0.25500000000E-02 0. -1.
    -200001    2    1    2    0    0  0.17078502756E+03  0.32462309612E+03  0.15235031750E+04  0.16824451066E+04  0.61238217849E+03 0.  0.
   -5000001    2    3    3    0    0  0.16344049689E+03 -0.11603639553E+02  0.10397290855E+03  0.22012860971E+03  0.10391726817E+03 0.  0.
     200001    1    1    2    0    0 -0.17078502756E+03 -0.32462309612E+03  0.38160269239E+03  0.80989955860E+03  0.61300000000E+03 0. -1.
         11    1    4    4    0    0  0.35496221116E+02 -0.91687935009E+01  0.77949233937E+02  0.86140185509E+02  0.51100000000E-03 0.  1.
    -200002    1    4    4    0    0  0.12794427578E+03 -0.24348460524E+01  0.26023674615E+02  0.13398842420E+03  0.30000000000E+02 0.  1.
    -200000    1    3    3    0    0  0.73445306726E+01  0.33622673568E+03  0.14195302664E+04  0.14623164969E+04  0.10100000000E+03 0.  1.
<mgrwt>
<rscale>  0 0.16069703E+04</rscale>
<asrwt>0</asrwt>
<pdfrwt beam="1">  1        2 0.31410361E+00 0.16069703E+04</pdfrwt>
<pdfrwt beam="2">  1       -2 0.41945629E-01 0.16069703E+04</pdfrwt>
<totfact> 0.32769113E+01</totfact>
</mgrwt>
</event>
<event>
 8    2  0.7266322E-052  0.1414200E+04  0.7818608E-02  0.8943603E-01
         -2   -1    0    0    0  501 -0.00000000000E+00  0.00000000000E+00  0.12181643302E+04  0.12181643302E+04  0.25500000000E-02 0. -1.
          2   -1    0    0  501    0  0.00000000000E+00 -0.00000000000E+00 -0.41044589025E+03  0.41044589026E+03  0.25500000000E-02 0.  1.
    -200001    2    1    2    0    0 -0.22076118623E+03  0.97941364014E+01  0.71954716565E+03  0.97105824527E+03  0.61349373726E+03 0.  0.
   -5000001    2    3    3    0    0  0.85197577496E+02  0.23480420400E+03  0.28644297431E+03  0.38623302678E+03  0.68809389017E+02 0.  0.
     200001    1    1    2    0    0  0.22076118623E+03 -0.97941364014E+01  0.88171274290E+02  0.65755197518E+03  0.61300000000E+03 0.  1.
         11    1    4    4    0    0  0.38973028047E+02  0.12730025694E+03  0.18817125214E+03  0.23050525474E+03  0.51100000000E-03 0.  1.
    -200002    1    4    4    0    0  0.46224549449E+02  0.10750394706E+03  0.98271722173E+02  0.15572777204E+03  0.30000000000E+02 0.  1.
    -200000    1    3    3    0    0 -0.30595876373E+03 -0.22501006760E+03  0.43310419133E+03  0.58482521848E+03  0.10100000000E+03 0.  1.
<mgrwt>
<rscale>  0 0.14142002E+04</rscale>
<asrwt>0</asrwt>
<pdfrwt beam="1">  1        2 0.58635129E-01 0.14142002E+04</pdfrwt>
<pdfrwt beam="2">  1       -2 0.17402347E+00 0.14142002E+04</pdfrwt>
<totfact> 0.16315404E+01</totfact>
</mgrwt>
</event>
<event>
 8    2  0.7266322E-052  0.2207698E+04  0.7818608E-02  0.8515231E-01
          2   -1    0    0  501    0  0.00000000000E+00  0.00000000000E+00  0.13774268725E+04  0.13774268725E+04  0.25500000000E-02 0.  1.
         -2   -1    0    0    0  501 -0.00000000000E+00 -0.00000000000E+00 -0.88460821522E+03  0.88460821523E+03  0.25500000000E-02 0. -1.
    -200001    2    1    2    0    0  0.23472244265E+03  0.58615853639E+03  0.92890347190E+03  0.12798867178E+04  0.61365454082E+03 0.  0.
   -5000001    2    3    3    0    0  0.81170713766E+02  0.20468350227E+03  0.33820346585E+02  0.28969676820E+03  0.18519282056E+03 0.  0.
     200001    1    1    2    0    0 -0.23472244265E+03 -0.58615853639E+03 -0.43608481466E+03  0.98214836987E+03  0.61300000000E+03 0. -1.
         11    1    4    4    0    0  0.12280992935E+03  0.78624053399E+02 -0.11421831014E+02  0.14626851590E+03  0.51100000000E-03 0.  1.
    -200002    1    4    4    0    0 -0.41639215582E+02  0.12605944887E+03  0.45242177599E+02  0.14342825230E+03  0.30000000000E+02 0. -1.
    -200000    1    3    3    0    0  0.15355172889E+03  0.38147503412E+03  0.89508312532E+03  0.99018994962E+03  0.10100000000E+03 0.  1.
<mgrwt>
<rscale>  0 0.22076985E+04</rscale>
<asrwt>0</asrwt>
<pdfrwt beam="1">  1        2 0.19677527E+00 0.22076985E+04</pdfrwt>
<pdfrwt beam="2">  1       -2 0.12637260E+00 0.22076985E+04</pdfrwt>
<totfact> 0.72891349E+00</totfact>
</mgrwt>
</event>
<event>
 8    2  0.7266322E-052  0.1527213E+04  0.7818608E-02  0.8866555E-01
          2   -1    0    0  501    0  0.00000000000E+00  0.00000000000E+00  0.23885267800E+04  0.23885267800E+04  0.25500000000E-02 0.  1.
         -2   -1    0    0    0  501 -0.00000000000E+00 -0.00000000000E+00 -0.24412328357E+03  0.24412328358E+03  0.25500000000E-02 0. -1.
    -200001    2    1    2    0    0 -0.13172333822E+03  0.88635469897E+02  0.18076621478E+04  0.19154534237E+04  0.61327978391E+03 0.  0.
   -5000001    2    3    3    0    0  0.50208615820E+02  0.11781197166E+03  0.16339217989E+04  0.16428049082E+04  0.11272513388E+03 0.  0.
     200001    1    1    2    0    0  0.13172333822E+03 -0.88635469897E+02  0.33674134857E+03  0.71719663983E+03  0.61300000000E+03 0. -1.
         11    1    4    4    0    0  0.29188193316E+01 -0.14754043621E+02  0.43761358895E+03  0.43787196136E+03  0.51100000000E-03 0.  1.
    -200002    1    4    4    0    0  0.47289796489E+02  0.13256601528E+03  0.11963082099E+04  0.12049329468E+04  0.30000000000E+02 0.  1.
    -200000    1    3    3    0    0 -0.18193195404E+03 -0.29176501765E+02  0.17374034897E+03  0.27264851552E+03  0.10100000000E+03 0. -1.
<mgrwt>
<rscale>  0 0.15272131E+04</rscale>
<asrwt>0</asrwt>
<pdfrwt beam="1">  1        2 0.34121811E+00 0.15272131E+04</pdfrwt>
<pdfrwt beam="2">  1       -2 0.34874755E-01 0.15272131E+04</pdfrwt>
<totfact> 0.37618087E+01</totfact>
</mgrwt>
</event>
<event>
 8    2  0.7266322E-052  0.1426858E+04  0.7818608E-02  0.8934604E-01
          2   -1    0    0  501    0  0.00000000000E+00  0.00000000000E+00  0.25062485309E+03  0.25062485311E+03  0.25500000000E-02 0.  1.
         -2   -1    0    0    0  501 -0.00000000000E+00 -0.00000000000E+00 -0.20308468516E+04  0.20308468516E+04  0.25500000000E-02 0. -1.
    -200001    2    1    2    0    0 -0.14502814044E+03  0.19464026999E+03 -0.45594820414E+03  0.80215156402E+03  0.61371033116E+03 0.  0.
   -5000001    2    3    3    0    0  0.21370860754E+03  0.84806656203E+02 -0.29225349615E+03  0.38054459716E+03  0.80861279648E+02 0.  0.
     200001    1    1    2    0    0  0.14502814044E+03 -0.19464026999E+03 -0.13242737944E+04  0.14793201407E+04  0.61300000000E+03 0. -1.
         11    1    4    4    0    0  0.14317521354E+03  0.85930490496E+02 -0.19556061954E+03  0.25715199179E+03  0.51100000000E-03 0.  1.
    -200002    1    4    4    0    0  0.70533394005E+02 -0.11238342932E+01 -0.96692876612E+02  0.12339260537E+03  0.30000000000E+02 0.  1.
    -200000    1    3    3    0    0 -0.35873674798E+03  0.10983361379E+03 -0.16369470800E+03  0.42160696685E+03  0.10100000000E+03 0.  1.
<mgrwt>
<rscale>  0 0.14268577E+04</rscale>
<asrwt>0</asrwt>
<pdfrwt beam="1">  1        2 0.35803552E-01 0.14268577E+04</pdfrwt>
<pdfrwt beam="2">  1       -2 0.29012097E+00 0.14268577E+04</pdfrwt>
<totfact> 0.52040475E+00</totfact>
</mgrwt>
</event>
<event>
 8    2  0.7266322E-052  0.1447101E+04  0.7818608E-02  0.8920413E-01
         -2   -1    0    0    0  501 -0.00000000000E+00  0.00000000000E+00  0.17549411352E+04  0.17549411352E+04  0.25500000000E-02 0.  1.
          2   -1    0    0  501    0  0.00000000000E+00 -0.00000000000E+00 -0.29831506215E+03  0.29831506216E+03  0.25500000000E-02 0. -1.
    -200001    2    1    2    0    0  0.28652725945E+03 -0.25664210243E+03  0.71364090057E+03  0.10160681692E+04  0.61249338806E+03 0.  0.
   -5000001    2    3    3    0    0 -0.42826936659E+02 -0.35428539298E+03  0.35023912523E+03  0.50590128575E+03  0.76918007640E+02 0.  0.
     200001    1    1    2    0    0 -0.28652725945E+03  0.25664210243E+03  0.74298517248E+03  0.10371880281E+04  0.61300000000E+03 0.  1.
         11    1    4    4    0    0 -0.54567134214E+02 -0.19372029364E+03  0.18957315988E+03  0.27648346651E+03  0.51100000000E-03 0.  1.
    -200002    1    4    4    0    0  0.11740197555E+02 -0.16056509934E+03  0.16066596535E+03  0.22941781924E+03  0.30000000000E+02 0.  1.
    -200000    1    3    3    0    0  0.32935419611E+03  0.97643290550E+02  0.36340177534E+03  0.51016688348E+03  0.10100000000E+03 0.  1.
<mgrwt>
<rscale>  0 0.14471011E+04</rscale>
<asrwt>0</asrwt>
<pdfrwt beam="1">  1        2 0.42616438E-01 0.14471011E+04</pdfrwt>
<pdfrwt beam="2">  1       -2 0.25070587E+00 0.14471011E+04</pdfrwt>
<totfact> 0.74272668E+00</totfact>
</mgrwt>
</event>
<event>
 8    2  0.7266322E-052  0.1278672E+04  0.7818608E-02  0.9046652E-01
         -2   -1    0    0    0  501 -0.00000000000E+00  0.00000000000E+00  0.32341136404E+03  0.32341136405E+03  0.25500000000E-02 0. -1.
          2   -1    0    0  501    0  0.00000000000E+00 -0.00000000000E+00 -0.12638715881E+04  0.12638715881E+04  0.25500000000E-02 0.  1.
    -200001    2    1    2    0    0 -0.95924566260E+02  0.78422103259E+01 -0.28135646929E+03  0.68204829625E+03  0.61381218051E+03 0.  0.
   -5000001    2    3    3    0    0 -0.25300426000E+03 -0.42468469151E+02 -0.38073000369E+03  0.46460567395E+03  0.71332812240E+02 0.  0.
     200001    1    1    2    0    0  0.95924566260E+02 -0.78422103259E+01 -0.65910375475E+03  0.90523465587E+03  0.61300000000E+03 0.  1.
         11    1    4    4    0    0 -0.80540737862E+02 -0.41981192163E+02 -0.14226891183E+03  0.16878884508E+03  0.51100000000E-03 0.  1.
    -200002    1    4    4    0    0 -0.17246352214E+03 -0.48727698800E+00 -0.23846109186E+03  0.29581682886E+03  0.30000000000E+02 0.  1.
    -200000    1    3    3    0    0  0.15707969374E+03  0.50310679477E+02  0.99373534404E+02  0.21744262231E+03  0.10100000000E+03 0. -1.
<mgrwt>
<rscale>  0 0.12786719E+04</rscale>
<asrwt>0</asrwt>
<pdfrwt beam="1">  1        2 0.18055308E+00 0.12786719E+04</pdfrwt>
<pdfrwt beam="2">  1       -2 0.46201624E-01 0.12786719E+04</pdfrwt>
<totfact> 0.85746274E+01</totfact>
</mgrwt>
</event>
<event>
 8    2  0.7266322E-052  0.1389978E+04  0.7818608E-02  0.8961105E-01
         -2   -1    0    0    0  501 -0.00000000000E+00  0.00000000000E+00  0.15554475037E+03  0.15554475039E+03  0.25500000000E-02 0. -1.
          2   -1    0    0  501    0  0.00000000000E+00 -0.00000000000E+00 -0.31052787811E+04  0.31052787811E+04  0.25500000000E-02 0.  1.
    -200001    2    1    2    0    0  0.10566288461E+03  0.27745849578E+03 -0.17984386736E+04  0.19231397642E+04  0.61313703824E+03 0.  0.
   -5000001    2    3    3    0    0 -0.21974642893E+03  0.24620525596E+02 -0.41933746419E+03  0.48024704245E+03  0.76802666631E+02 0.  0.
     200001    1    1    2    0    0 -0.10566288461E+03 -0.27745849578E+03 -0.11512953571E+04  0.13376837673E+04  0.61300000000E+03 0. -1.
         11    1    4    4    0    0 -0.19138675480E+03  0.17489516643E+02 -0.34366743138E+03  0.39375382728E+03  0.51100000000E-03 0.  1.
    -200002    1    4    4    0    0 -0.28359674134E+02  0.71310089534E+01 -0.75670032812E+02  0.86493215176E+02  0.30000000000E+02 0. -1.
    -200000    1    3    3    0    0  0.32540931354E+03  0.25283797018E+03 -0.13791012095E+04  0.14428927217E+04  0.10100000000E+03 0.  1.
<mgrwt>
<rscale>  0 0.13899781E+04</rscale>
<asrwt>0</asrwt>
<pdfrwt beam="1">  1        2 0.44361122E+00 0.13899781E+04</pdfrwt>
<pdfrwt beam="2">  1       -2 0.22220681E-01 0.13899781E+04</pdfrwt>
<totfact> 0.35845029E+01</totfact>
</mgrwt>
</event>
<event>
 8    2  0.7266322E-052  0.1672555E+04  0.7818608E-02  0.8777174E-01
          2   -1    0    0  501    0  0.00000000000E+00  0.00000000000E+00  0.24055682445E+04  0.24055682445E+04  0.25500000000E-02 0.  1.
         -2   -1    0    0    0  501 -0.00000000000E+00 -0.00000000000E+00 -0.29072539997E+03  0.29072539999E+03  0.25500000000E-02 0. -1.
    -200001    2    1    2    0    0 -0.31138433349E+03  0.40022167460E+03  0.14741799598E+04  0.16748458858E+04  0.61218019834E+03 0.  0.
   -5000001    2    3    3    0    0 -0.38395587606E+03  0.71857413746E+02  0.98476979549E+03  0.10725062594E+04  0.16707041513E+03 0.  0.
     200001    1    1    2    0    0  0.31138433349E+03 -0.40022167460E+03  0.64066288477E+03  0.10214477588E+04  0.61300000000E+03 0.  1.
         11    1    4    4    0    0 -0.13601388285E+03  0.64068116844E+02  0.55865798283E+03  0.57853542821E+03  0.51100000000E-03 0.  1.
    -200002    1    4    4    0    0 -0.24794199321E+03  0.77892969027E+01  0.42611181266E+03  0.49397083116E+03  0.30000000000E+02 0.  1.
    -200000    1    3    3    0    0  0.72571542574E+02  0.32836426085E+03  0.48941016431E+03  0.60233962640E+03  0.10100000000E+03 0. -1.
<mgrwt>
<rscale>  0 0.16725547E+04</rscale>
<asrwt>0</asrwt>
<pdfrwt beam="1">  1        2 0.34365260E+00 0.16725547E+04</pdfrwt>
<pdfrwt beam="2">  1       -2 0.41532201E-01 0.16725547E+04</pdfrwt>
<totfact> 0.25960023E+01</totfact>
</mgrwt>
</event>
<event>
 8    2  0.7266322E-052  0.1283714E+04  0.7818608E-02  0.9042580E-01
          2   -1    0    0  501    0  0.00000000000E+00  0.00000000000E+00  0.18000935867E+04  0.18000935867E+04  0.25500000000E-02 0.  1.
         -2   -1    0    0    0  501 -0.00000000000E+00 -0.00000000000E+00 -0.22886624143E+03  0.22886624145E+03  0.25500000000E-02 0. -1.
    -200001    2    1    2    0    0  0.12478061595E+02  0.14154691043E+03  0.98656916815E+03  0.11700154679E+04  0.61272036180E+03 0.  0.
   -5000001    2    3    3    0    0 -0.10901615997E+02 -0.22882671027E+03  0.44224223807E+03  0.50352013032E+03  0.73985241362E+02 0.  0.
     200001    1    1    2    0    0 -0.12478061595E+02 -0.14154691043E+03  0.58465817709E+03  0.85894436019E+03  0.61300000000E+03 0. -1.
         11    1    4    4    0    0 -0.26526887916E+02 -0.85662814104E+02  0.12509986558E+03  0.15392131064E+03  0.51100000000E-03 0.  1.
    -200002    1    4    4    0    0  0.15625271918E+02 -0.14316389617E+03  0.31714237249E+03  0.34959881968E+03  0.30000000000E+02 0.  1.
    -200000    1    3    3    0    0  0.23379677592E+02  0.37037362070E+03  0.54432693008E+03  0.66649533760E+03  0.10100000000E+03 0. -1.
<mgrwt>
<rscale>  0 0.12837144E+04</rscale>
<asrwt>0</asrwt>
<pdfrwt beam="1">  1        2 0.25715622E+00 0.12837144E+04</pdfrwt>
<pdfrwt beam="2">  1       -2 0.32695178E-01 0.12837144E+04</pdfrwt>
<totfact> 0.87097229E+01</totfact>
</mgrwt>
</event>
<event>
 8    2  0.7266322E-052  0.1642225E+04  0.7818608E-02  0.8795019E-01
         -2   -1    0    0    0  501 -0.00000000000E+00  0.00000000000E+00  0.44527810262E+03  0.44527810263E+03  0.25500000000E-02 0. -1.
          2   -1    0    0  501    0  0.00000000000E+00 -0.00000000000E+00 -0.15141685101E+04  0.15141685101E+04  0.25500000000E-02 0.  1.
    -200001    2    1    2    0    0 -0.35139895045E+03 -0.40991637145E+03 -0.63491352287E+03  0.10344506180E+04  0.61274810941E+03 0.  0.
   -5000001    2    3    3    0    0 -0.25397745528E+03  0.80329837058E+02 -0.27678605049E+03  0.41132255800E+03  0.14703162403E+03 0.  0.
     200001    1    1    2    0    0  0.35139895045E+03  0.40991637145E+03 -0.43397688465E+03  0.92499599478E+03  0.61300000000E+03 0. -1.
         11    1    4    4    0    0 -0.17335906802E+03 -0.93838499108E+01 -0.11908080296E+03  0.21052710215E+03  0.51100000000E-03 0.  1.
    -200002    1    4    4    0    0 -0.80618387251E+02  0.89713686969E+02 -0.15770524753E+03  0.20079545586E+03  0.30000000000E+02 0.  1.
    -200000    1    3    3    0    0 -0.97421495170E+02 -0.49024620850E+03 -0.35812747238E+03  0.62312805999E+03  0.10100000000E+03 0. -1.
<mgrwt>
<rscale>  0 0.16422254E+04</rscale>
<asrwt>0</asrwt>
<pdfrwt beam="1">  1        2 0.21630978E+00 0.16422254E+04</pdfrwt>
<pdfrwt beam="2">  1       -2 0.63611158E-01 0.16422254E+04</pdfrwt>
<totfact> 0.31471315E+01</totfact>
</mgrwt>
</event>
<event>
 8    2  0.7266322E-052  0.2396475E+04  0.7818608E-02  0.8440825E-01
         -2   -1    0    0    0  501 -0.00000000000E+00  0.00000000000E+00  0.45139835835E+03  0.45139835836E+03  0.25500000000E-02 0. -1.
          2   -1    0    0  501    0  0.00000000000E+00 -0.00000000000E+00 -0.31807222749E+04  0.31807222749E+04  0.25500000000E-02 0.  1.
    -200001    2    1    2    0    0  0.77167153460E+03  0.19388201775E+03 -0.23542308145E+04  0.25599587848E+04  0.61475121609E+03 0.  0.
   -5000001    2    3    3    0    0  0.34468392798E+03 -0.19357932963E+03 -0.73073936245E+03  0.83416325610E+03  0.74621410638E+02 0.  0.
     200001    1    1    2    0    0 -0.77167153460E+03 -0.19388201775E+03 -0.37509310204E+03  0.10721618485E+04  0.61300000000E+03 0. -1.
         11    1    4    4    0    0  0.31955340187E+01  0.40551897246E+01 -0.20454489803E+02  0.21096022249E+02  0.51100000000E-03 0.  1.
    -200002    1    4    4    0    0  0.34148839396E+03 -0.19763451935E+03 -0.71028487265E+03  0.81306723385E+03  0.30000000000E+02 0.  1.
    -200000    1    3    3    0    0  0.42698760662E+03  0.38746134738E+03 -0.16234914520E+04  0.17257955287E+04  0.10100000000E+03 0.  1.
<mgrwt>
<rscale>  0 0.23964748E+04</rscale>
<asrwt>0</asrwt>
<pdfrwt beam="1">  1        2 0.45438888E+00 0.23964748E+04</pdfrwt>
<pdfrwt beam="2">  1       -2 0.64485482E-01 0.23964748E+04</pdfrwt>
<totfact> 0.37368216E+00</totfact>
</mgrwt>
</event>
<event>
 8    2  0.7266322E-052  0.1669771E+04  0.7818608E-02  0.8778795E-01
          2   -1    0    0  501    0  0.00000000000E+00  0.00000000000E+00  0.88694223694E+03  0.88694223694E+03  0.25500000000E-02 0.  1.
         -2   -1    0    0    0  501 -0.00000000000E+00 -0.00000000000E+00 -0.78588455535E+03  0.78588455535E+03  0.25500000000E-02 0. -1.
    -200001    2    1    2    0    0 -0.55891206128E+03 -0.40587302088E+02 -0.36295468943E+02  0.83100441833E+03  0.61255282294E+03 0.  0.
   -5000001    2    3    3    0    0 -0.54970297637E+03 -0.23747564411E+03 -0.47973074776E+01  0.60730157829E+03  0.10111453433E+03 0.  0.
     200001    1    1    2    0    0  0.55891206128E+03  0.40587302088E+02  0.13735315053E+03  0.84182237396E+03  0.61300000000E+03 0. -1.
         11    1    4    4    0    0 -0.97047710951E+02 -0.71423295220E+02 -0.27828734775E+02  0.12366884725E+03  0.51100000000E-03 0.  1.
    -200002    1    4    4    0    0 -0.45265526542E+03 -0.16605234889E+03  0.23031427297E+02  0.48363273104E+03  0.30000000000E+02 0.  1.
    -200000    1    3    3    0    0 -0.92090849042E+01  0.19688834202E+03 -0.31498161466E+02  0.22370284005E+03  0.10100000000E+03 0. -1.
<mgrwt>
<rscale>  0 0.16697715E+04</rscale>
<asrwt>0</asrwt>
<pdfrwt beam="1">  1        2 0.12670603E+00 0.16697715E+04</pdfrwt>
<pdfrwt beam="2">  1       -2 0.11226922E+00 0.16697715E+04</pdfrwt>
<totfact> 0.19832871E+01</totfact>
</mgrwt>
</event>
<event>
 8    2  0.7266322E-052  0.1340426E+04  0.7818608E-02  0.8998107E-01
          2   -1    0    0  501    0  0.00000000000E+00  0.00000000000E+00  0.11395856312E+04  0.11395856312E+04  0.25500000000E-02 0.  1.
         -2   -1    0    0    0  501 -0.00000000000E+00 -0.00000000000E+00 -0.39416588429E+03  0.39416588430E+03  0.25500000000E-02 0. -1.
    -200001    2    1    2    0    0  0.20310981286E+03  0.16691949935E+03  0.44608945743E+03  0.80266784207E+03  0.61332221981E+03 0.  0.
   -5000001    2    3    3    0    0  0.93362635129E+02 -0.71843876221E+01  0.54114061184E+03  0.55448982443E+03  0.76535002138E+02 0.  0.
     200001    1    1    2    0    0 -0.20310981286E+03 -0.16691949935E+03  0.29933028946E+03  0.73108367341E+03  0.61300000000E+03 0.  1.
         11    1    4    4    0    0  0.40221211624E+02  0.28869086085E+02  0.19701248437E+03  0.20313810326E+03  0.51100000000E-03 0.  1.
    -200002    1    4    4    0    0  0.53141423504E+02 -0.36053473707E+02  0.34412812747E+03  0.35135172117E+03  0.30000000000E+02 0.  1.
    -200000    1    3    3    0    0  0.10974717774E+03  0.17410388697E+03 -0.95051154414E+02  0.24817801763E+03  0.10100000000E+03 0. -1.
<mgrwt>
<rscale>  0 0.13404265E+04</rscale>
<asrwt>0</asrwt>
<pdfrwt beam="1">  1        2 0.16279795E+00 0.13404265E+04</pdfrwt>
<pdfrwt beam="2">  1       -2 0.56309412E-01 0.13404265E+04</pdfrwt>
<totfact> 0.67058037E+01</totfact>
</mgrwt>
</event>
<event>
 8    2  0.7266322E-052  0.1413528E+04  0.7818608E-02  0.8944084E-01
          2   -1    0    0  501    0  0.00000000000E+00  0.00000000000E+00  0.15438951279E+04  0.15438951279E+04  0.25500000000E-02 0.  1.
         -2   -1    0    0    0  501 -0.00000000000E+00 -0.00000000000E+00 -0.32354248569E+03  0.32354248570E+03  0.25500000000E-02 0. -1.
    -200001    2    1    2    0    0 -0.27110298726E+03 -0.21620274184E+03  0.68929767367E+03  0.98537818542E+03  0.61286085704E+03 0.  0.
   -5000001    2    3    3    0    0 -0.31198280916E+03 -0.18599351252E+03  0.94907139453E+02  0.38032871261E+03  0.60956579726E+02 0.  0.
     200001    1    1    2    0    0  0.27110298726E+03  0.21620274184E+03  0.53105496858E+03  0.88205942823E+03  0.61300000000E+03 0. -1.
         11    1    4    4    0    0 -0.23808947772E+03 -0.13777335390E+03  0.69040617694E+02  0.28361012559E+03  0.51100000000E-03 0.  1.
    -200002    1    4    4    0    0 -0.73893331437E+02 -0.48220158621E+02  0.25866521759E+02  0.96718587026E+02  0.30000000000E+02 0. -1.
    -200000    1    3    3    0    0  0.40879821899E+02 -0.30209229319E+02  0.59439053422E+03  0.60504947281E+03  0.10100000000E+03 0.  1.
<mgrwt>
<rscale>  0 0.14135284E+04</rscale>
<asrwt>0</asrwt>
<pdfrwt beam="1">  1        2 0.22055644E+00 0.14135284E+04</pdfrwt>
<pdfrwt beam="2">  1       -2 0.46220356E-01 0.14135284E+04</pdfrwt>
<totfact> 0.59830526E+01</totfact>
</mgrwt>
</event>
<event>
 8    2  0.7266322E-052  0.1301168E+04  0.7818608E-02  0.9028639E-01
         -2   -1    0    0    0  501 -0.00000000000E+00  0.00000000000E+00  0.10474592132E+04  0.10474592132E+04  0.25500000000E-02 0. -1.
          2   -1    0    0  501    0  0.00000000000E+00 -0.00000000000E+00 -0.40408234896E+03  0.40408234897E+03  0.25500000000E-02 0.  1.
    -200001    2    1    2    0    0  0.20655497689E+03  0.69948505070E+02  0.31221591623E+03  0.72147695864E+03  0.61277440519E+03 0.  0.
   -5000001    2    3    3    0    0  0.17760126109E+03 -0.24291135906E+03  0.91146381790E+02  0.32424610473E+03  0.79244792990E+02 0.  0.
     200001    1    1    2    0    0 -0.20655497689E+03 -0.69948505070E+02  0.33116094800E+03  0.73006460352E+03  0.61300000000E+03 0. -1.
         11    1    4    4    0    0  0.29837536624E+02 -0.96307216833E+02  0.32164156020E+02  0.10582954001E+03  0.51100000000E-03 0.  1.
    -200002    1    4    4    0    0  0.14776372446E+03 -0.14660414223E+03  0.58982225770E+02  0.21841656472E+03  0.30000000000E+02 0. -1.
    -200000    1    3    3    0    0  0.28953715805E+02  0.31285986413E+03  0.22106953444E+03  0.39723085391E+03  0.10100000000E+03 0.  1.
<mgrwt>
<rscale>  0 0.13011684E+04</rscale>
<asrwt>0</asrwt>
<pdfrwt beam="1">  1        2 0.57726049E-01 0.13011684E+04</pdfrwt>
<pdfrwt beam="2">  1       -2 0.14963703E+00 0.13011684E+04</pdfrwt>
<totfact> 0.25280457E+01</totfact>
</mgrwt>
</event>
<event>
 8    2  0.7266322E-052  0.2161748E+04  0.7818608E-02  0.8534520E-01
          2   -1    0    0  501    0  0.00000000000E+00  0.00000000000E+00  0.20108293536E+04  0.20108293536E+04  0.25500000000E-02 0.  1.
         -2   -1    0    0    0  501 -0.00000000000E+00 -0.00000000000E+00 -0.58099865011E+03  0.58099865012E+03  0.25500000000E-02 0. -1.
    -200001    2    1    2    0    0  0.30832117632E+03 -0.12675967156E+03  0.17046972806E+04  0.18418609396E+04  0.61264095519E+03 0.  0.
   -5000001    2    3    3    0    0  0.31998947111E+03 -0.19497260353E+03  0.16712344611E+04  0.17149361056E+04  0.87026687857E+02 0.  0.
     200001    1    1    2    0    0 -0.30832117632E+03  0.12675967156E+03 -0.27486657714E+03  0.74996706417E+03  0.61300000000E+03 0. -1.
         11    1    4    4    0    0  0.13210277596E+03 -0.10747988416E+03  0.88830102007E+03  0.90447872898E+03  0.51100000000E-03 0.  1.
    -200002    1    4    4    0    0  0.18788669515E+03 -0.87492719364E+02  0.78293344108E+03  0.81045737662E+03  0.30000000000E+02 0. -1.
    -200000    1    3    3    0    0 -0.11668294787E+02  0.68212931963E+02  0.33462819489E+02  0.12692483397E+03  0.10100000000E+03 0. -1.
<mgrwt>
<rscale>  0 0.21617485E+04</rscale>
<asrwt>0</asrwt>
<pdfrwt beam="1">  1        2 0.28726134E+00 0.21617485E+04</pdfrwt>
<pdfrwt beam="2">  1       -2 0.82999807E-01 0.21617485E+04</pdfrwt>
<totfact> 0.92784926E+00</totfact>
</mgrwt>
</event>
<event>
 8    2  0.7266322E-052  0.1522520E+04  0.7818608E-02  0.8869614E-01
          2   -1    0    0  501    0  0.00000000000E+00  0.00000000000E+00  0.61015888125E+03  0.61015888126E+03  0.25500000000E-02 0.  1.
         -2   -1    0    0    0  501 -0.00000000000E+00 -0.00000000000E+00 -0.94977969135E+03  0.94977969136E+03  0.25500000000E-02 0. -1.
    -200001    2    1    2    0    0 -0.10559512489E+03  0.20137270690E+03 -0.56837535973E+03  0.86726336628E+03  0.61432393691E+03 0.  0.
   -5000001    2    3    3    0    0 -0.50239409266E+02  0.96082009565E+02  0.97891929872E+02  0.18296556021E+03  0.11017175447E+03 0.  0.
     200001    1    1    2    0    0  0.10559512489E+03 -0.20137270690E+03  0.22875454963E+03  0.69267520633E+03  0.61300000000E+03 0.  1.
         11    1    4    4    0    0 -0.62923464986E+02  0.33350954756E+02  0.85383391942E+02  0.11118440650E+03  0.51100000000E-03 0.  1.
    -200002    1    4    4    0    0  0.12684055721E+02  0.62731054809E+02  0.12508537931E+02  0.71781153711E+02  0.30000000000E+02 0. -1.
    -200000    1    3    3    0    0 -0.55355715625E+02  0.10529069733E+03 -0.66626728961E+03  0.68429780607E+03  0.10100000000E+03 0. -1.
<mgrwt>
<rscale>  0 0.15225196E+04</rscale>
<asrwt>0</asrwt>
<pdfrwt beam="1">  1        2 0.87165555E-01 0.15225196E+04</pdfrwt>
<pdfrwt beam="2">  1       -2 0.13568281E+00 0.15225196E+04</pdfrwt>
<totfact> 0.20012942E+01</totfact>
</mgrwt>
</event>
<event>
 8    2  0.7266322E-052  0.1289332E+04  0.7818608E-02  0.9038068E-01
         -2   -1    0    0    0  501 -0.00000000000E+00  0.00000000000E+00  0.21603564286E+03  0.21603564288E+03  0.25500000000E-02 0. -1.
          2   -1    0    0  501    0  0.00000000000E+00 -0.00000000000E+00 -0.19237299862E+04  0.19237299862E+04  0.25500000000E-02 0.  1.
    -200001    2    1    2    0    0  0.85450270452E+02  0.16245212458E+03 -0.72622425469E+03  0.96812362897E+03  0.61332638242E+03 0.  0.
   -5000001    2    3    3    0    0 -0.20568651960E+03  0.39293435390E+02 -0.73770653080E+02  0.23612267577E+03  0.80379663752E+02 0.  0.
     200001    1    1    2    0    0 -0.85450270452E+02 -0.16245212458E+03 -0.98147008865E+03  0.11716420001E+04  0.61300000000E+03 0. -1.
         11    1    4    4    0    0 -0.17890888958E+03  0.34415632097E+02 -0.70952741511E+02  0.19551756451E+03  0.51100000000E-03 0.  1.
    -200002    1    4    4    0    0 -0.26777630016E+02  0.48778032935E+01 -0.28179115690E+01  0.40605111253E+02  0.30000000000E+02 0. -1.
    -200000    1    3    3    0    0  0.29113679005E+03  0.12315868919E+03 -0.65245360161E+03  0.73200095321E+03  0.10100000000E+03 0. -1.
<mgrwt>
<rscale>  0 0.12893320E+04</rscale>
<asrwt>0</asrwt>
<pdfrwt beam="1">  1        2 0.27481856E+00 0.12893320E+04</pdfrwt>
<pdfrwt beam="2">  1       -2 0.30862236E-01 0.12893320E+04</pdfrwt>
<totfact> 0.83816784E+01</totfact>
</mgrwt>
</event>
<event>
 8    2  0.7266322E-052  0.1340616E+04  0.7818608E-02  0.8997962E-01
          2   -1    0    0  501    0  0.00000000000E+00  0.00000000000E+00  0.16937010258E+04  0.16937010258E+04  0.25500000000E-02 0.  1.
         -2   -1    0    0    0  501 -0.00000000000E+00 -0.00000000000E+00 -0.26528479572E+03  0.26528479573E+03  0.25500000000E-02 0. -1.
    -200001    2    1    2    0    0  0.14584402867E+02  0.20483460495E+03  0.45657425581E+03  0.79176016077E+03  0.61339561534E+03 0.  0.
   -5000001    2    3    3    0    0 -0.13873859655E+03  0.26276358173E+03  0.47898529869E+03  0.59793817196E+03  0.19952454254E+03 0.  0.
     200001    1    1    2    0    0 -0.14584402867E+02 -0.20483460495E+03  0.97184197429E+03  0.11672256608E+04  0.61300000000E+03 0.  1.
         11    1    4    4    0    0  0.36272461145E+01  0.66640278486E+02  0.26492192080E+03  0.27319902590E+03  0.51100000000E-03 0.  1.
    -200002    1    4    4    0    0 -0.14236584267E+03  0.19612330324E+03  0.21406337788E+03  0.32473914606E+03  0.30000000000E+02 0.  1.
    -200000    1    3    3    0    0  0.15332299942E+03 -0.57928976782E+02 -0.22411042881E+02  0.19382198881E+03  0.10100000000E+03 0. -1.
<mgrwt>
<rscale>  0 0.13406165E+04</rscale>
<asrwt>0</asrwt>
<pdfrwt beam="1">  1        2 0.24195730E+00 0.13406165E+04</pdfrwt>
<pdfrwt beam="2">  1       -2 0.37897827E-01 0.13406165E+04</pdfrwt>
<totfact> 0.74248949E+01</totfact>
</mgrwt>
</event>
<event>
 8    2  0.7266322E-052  0.1314238E+04  0.7818608E-02  0.9018350E-01
          2   -1    0    0  501    0  0.00000000000E+00  0.00000000000E+00  0.12274376498E+04  0.12274376498E+04  0.25500000000E-02 0.  1.
         -2   -1    0    0    0  501 -0.00000000000E+00 -0.00000000000E+00 -0.35179420053E+03  0.35179420054E+03  0.25500000000E-02 0. -1.
    -200001    2    1    2    0    0  0.19603692514E+03  0.11450901239E+03  0.35847123418E+03  0.74569787383E+03  0.61320543325E+03 0.  0.
   -5000001    2    3    3    0    0 -0.22258929054E+02 -0.29787325191E+02  0.35762684260E+03  0.46520504684E+03  0.29518813051E+03 0.  0.
     200001    1    1    2    0    0 -0.19603692514E+03 -0.11450901239E+03  0.51717221509E+03  0.83353397651E+03  0.61300000000E+03 0. -1.
         11    1    4    4    0    0  0.52474782505E+02  0.75132681156E+02  0.31217839432E+03  0.32535192093E+03  0.51100000000E-03 0.  1.
    -200002    1    4    4    0    0 -0.74733711559E+02 -0.10492000635E+03  0.45448448285E+02  0.13985312591E+03  0.30000000000E+02 0.  1.
    -200000    1    3    3    0    0  0.21829585419E+03  0.14429633758E+03  0.84439158412E+00  0.28049282699E+03  0.10100000000E+03 0. -1.
<mgrwt>
<rscale>  0 0.13142381E+04</rscale>
<asrwt>0</asrwt>
<pdfrwt beam="1">  1        2 0.17534824E+00 0.13142381E+04</pdfrwt>
<pdfrwt beam="2">  1       -2 0.50256314E-01 0.13142381E+04</pdfrwt>
<totfact> 0.75636347E+01</totfact>
</mgrwt>
</event>
<event>
 8    2  0.7266322E-052  0.1423712E+04  0.7818608E-02  0.8936831E-01
          2   -1    0    0  501    0  0.00000000000E+00  0.00000000000E+00  0.13863318536E+04  0.13863318536E+04  0.25500000000E-02 0.  1.
         -2   -1    0    0    0  501 -0.00000000000E+00 -0.00000000000E+00 -0.36552512856E+03  0.36552512857E+03  0.25500000000E-02 0. -1.
    -200001    2    1    2    0    0 -0.51039182587E+02 -0.18660914413E+03  0.88682676121E+03  0.10952386748E+04  0.61290951986E+03 0.  0.
   -5000001    2    3    3    0    0  0.22359068247E+03 -0.19571824892E+03  0.64797693615E+03  0.71740964268E+03  0.80647748814E+02 0.  0.
     200001    1    1    2    0    0  0.51039182587E+02  0.18660914413E+03  0.13397996379E+03  0.65661830734E+03  0.61300000000E+03 0. -1.
         11    1    4    4    0    0  0.67506233098E+02 -0.88115371586E+02  0.17832993259E+03  0.21005469543E+03  0.51100000000E-03 0.  1.
    -200002    1    4    4    0    0  0.15608444937E+03 -0.10760287734E+03  0.46964700356E+03  0.50735494725E+03  0.30000000000E+02 0.  1.
    -200000    1    3    3    0    0 -0.27462986506E+03  0.91091047963E+01  0.23884982507E+03  0.37782903211E+03  0.10100000000E+03 0.  1.
<mgrwt>
<rscale>  0 0.14237122E+04</rscale>
<asrwt>0</asrwt>
<pdfrwt beam="1">  1        2 0.19804741E+00 0.14237122E+04</pdfrwt>
<pdfrwt beam="2">  1       -2 0.52217875E-01 0.14237122E+04</pdfrwt>
<totfact> 0.56668389E+01</totfact>
</mgrwt>
</event>
<event>
 8    2  0.7266322E-052  0.1461399E+04  0.7818608E-02  0.8910536E-01
          2   -1    0    0  501    0  0.00000000000E+00  0.00000000000E+00  0.86759335908E+03  0.86759335909E+03  0.25500000000E-02 0.  1.
         -2   -1    0    0    0  501 -0.00000000000E+00 -0.00000000000E+00 -0.61540580259E+03  0.61540580260E+03  0.25500000000E-02 0. -1.
    -200001    2    1    2    0    0 -0.34960704897E+03 -0.16144806801E+03  0.21222585497E+02  0.72312786654E+03  0.61169677609E+03 0.  0.
   -5000001    2    3    3    0    0 -0.75336860066E+02 -0.29541951718E+03  0.18383233340E+03  0.36282880211E+03  0.70014850012E+02 0.  0.
     200001    1    1    2    0    0  0.34960704897E+03  0.16144806801E+03  0.23096497099E+03  0.75987129514E+03  0.61300000000E+03 0.  1.
         11    1    4    4    0    0 -0.63571738920E+02 -0.14228541831E+03  0.10178614119E+03  0.18613684426E+03  0.51100000000E-03 0.  1.
    -200002    1    4    4    0    0 -0.11765121146E+02 -0.15313409887E+03  0.82046192208E+02  0.17669195785E+03  0.30000000000E+02 0.  1.
    -200000    1    3    3    0    0 -0.27427018890E+03  0.13397144918E+03 -0.16260974790E+03  0.36029906443E+03  0.10100000000E+03 0. -1.
<mgrwt>
<rscale>  0 0.14613993E+04</rscale>
<asrwt>0</asrwt>
<pdfrwt beam="1">  1        2 0.12394191E+00 0.14613993E+04</pdfrwt>
<pdfrwt beam="2">  1       -2 0.87915114E-01 0.14613993E+04</pdfrwt>
<totfact> 0.37001657E+01</totfact>
</mgrwt>
</event>
<event>
 8    2  0.7266322E-052  0.1552860E+04  0.7818608E-02  0.8850043E-01
          2   -1    0    0  501    0  0.00000000000E+00  0.00000000000E+00  0.19379219394E+04  0.19379219394E+04  0.25500000000E-02 0.  1.
         -2   -1    0    0    0  501 -0.00000000000E+00 -0.00000000000E+00 -0.31107717716E+03  0.31107717717E+03  0.25500000000E-02 0. -1.
    -200001    2    1    2    0    0 -0.30670605542E+03  0.35653339937E+03  0.69896578170E+03  0.10415584051E+04  0.61245904178E+03 0.  0.
   -5000001    2    3    3    0    0 -0.84643035049E+02  0.33623123065E+03  0.68219105429E+02  0.36497394418E+03  0.91303065347E+02 0.  0.
     200001    1    1    2    0    0  0.30670605542E+03 -0.35653339937E+03  0.92787898051E+03  0.12074407115E+04  0.61300000000E+03 0.  1.
         11    1    4    4    0    0 -0.47870370705E+02  0.74674281486E+02  0.41120783529E+02  0.97768806606E+02  0.51100000000E-03 0.  1.
    -200002    1    4    4    0    0 -0.36772664344E+02  0.26155694916E+03  0.27098321900E+02  0.26720513758E+03  0.30000000000E+02 0.  1.
    -200000    1    3    3    0    0 -0.22206302037E+03  0.20302168722E+02  0.63074667627E+03  0.67658446087E+03  0.10100000000E+03 0.  1.
<mgrwt>
<rscale>  0 0.15528597E+04</rscale>
<asrwt>0</asrwt>
<pdfrwt beam="1">  1        2 0.27684599E+00 0.15528597E+04</pdfrwt>
<pdfrwt beam="2">  1       -2 0.44439597E-01 0.15528597E+04</pdfrwt>
<totfact> 0.39977063E+01</totfact>
</mgrwt>
</event>
<event>
 8    2  0.7266322E-052  0.2116640E+04  0.7818608E-02  0.8553948E-01
          2   -1    0    0  501    0  0.00000000000E+00  0.00000000000E+00  0.13324840264E+04  0.13324840264E+04  0.25500000000E-02 0.  1.
         -2   -1    0    0    0  501 -0.00000000000E+00 -0.00000000000E+00 -0.84056658633E+03  0.84056658633E+03  0.25500000000E-02 0. -1.
    -200001    2    1    2    0    0  0.50895351810E+03  0.43738562021E+03 -0.30839618943E+03  0.96201354893E+03  0.61645923978E+03 0.  0.
   -5000001    2    3    3    0    0  0.52848353476E+02  0.24539425500E+03  0.12084420557E+03  0.29918557561E+03  0.10907519324E+03 0.  0.
     200001    1    1    2    0    0 -0.50895351810E+03 -0.43738562021E+03  0.80031362949E+03  0.12110370638E+04  0.61300000000E+03 0.  1.
         11    1    4    4    0    0  0.38048591936E+02  0.19840203352E+02  0.43523689301E+01  0.43130872156E+02  0.51100000000E-03 0.  1.
    -200002    1    4    4    0    0  0.14799761540E+02  0.22555405165E+03  0.11649183664E+03  0.25605470345E+03  0.30000000000E+02 0.  1.
    -200000    1    3    3    0    0  0.45610516462E+03  0.19199136520E+03 -0.42924039500E+03  0.66282797332E+03  0.10100000000E+03 0. -1.
<mgrwt>
<rscale>  0 0.21166403E+04</rscale>
<asrwt>0</asrwt>
<pdfrwt beam="1">  1        2 0.19035486E+00 0.21166403E+04</pdfrwt>
<pdfrwt beam="2">  1       -2 0.12008094E+00 0.21166403E+04</pdfrwt>
<totfact> 0.88287322E+00</totfact>
</mgrwt>
</event>
<event>
 8    2  0.7266322E-052  0.1396718E+04  0.7818608E-02  0.8956198E-01
          2   -1    0    0  501    0  0.00000000000E+00  0.00000000000E+00  0.30885439292E+04  0.30885439292E+04  0.25500000000E-02 0.  1.
         -2   -1    0    0    0  501 -0.00000000000E+00 -0.00000000000E+00 -0.15790788076E+03  0.15790788078E+03  0.25500000000E-02 0. -1.
    -200001    2    1    2    0    0 -0.20928384965E+03  0.25347127077E+03  0.12982086318E+04  0.14720122688E+04  0.61108678015E+03 0.  0.
   -5000001    2    3    3    0    0 -0.25172995060E+03  0.37901637616E+03  0.66888665271E+03  0.82100505042E+03  0.14006626007E+03 0.  0.
     200001    1    1    2    0    0  0.20928384965E+03 -0.25347127077E+03  0.16324274167E+04  0.17744395412E+04  0.61300000000E+03 0. -1.
         11    1    4    4    0    0 -0.13600557013E+03  0.26101696634E+03  0.51512577144E+03  0.59328065216E+03  0.51100000000E-03 0.  1.
    -200002    1    4    4    0    0 -0.11572438047E+03  0.11799940982E+03  0.15376088127E+03  0.22772439826E+03  0.30000000000E+02 0.  1.
    -200000    1    3    3    0    0  0.42446100946E+02 -0.12554510539E+03  0.62932197909E+03  0.65100721835E+03  0.10100000000E+03 0. -1.
<mgrwt>
<rscale>  0 0.13967182E+04</rscale>
<asrwt>0</asrwt>
<pdfrwt beam="1">  1        2 0.44122053E+00 0.13967182E+04</pdfrwt>
<pdfrwt beam="2">  1       -2 0.22558270E-01 0.13967182E+04</pdfrwt>
<totfact> 0.35638090E+01</totfact>
</mgrwt>
</event>
<event>
 8    2  0.7266322E-052  0.1668020E+04  0.7818608E-02  0.8779817E-01
         -2   -1    0    0    0  501 -0.00000000000E+00  0.00000000000E+00  0.36253021228E+03  0.36253021229E+03  0.25500000000E-02 0. -1.
          2   -1    0    0  501    0  0.00000000000E+00 -0.00000000000E+00 -0.19186610342E+04  0.19186610342E+04  0.25500000000E-02 0.  1.
    -200001    2    1    2    0    0  0.36222315460E+03 -0.33286567742E+03 -0.11649090240E+04  0.14032227573E+04  0.60828932209E+03 0.  0.
   -5000001    2    3    3    0    0  0.46894776254E+03 -0.17364114126E+03 -0.57522799395E+03  0.77499723083E+03  0.14025053599E+03 0.  0.
     200001    1    1    2    0    0 -0.36222315460E+03  0.33286567742E+03 -0.39122179795E+03  0.87796848925E+03  0.61300000000E+03 0.  1.
         11    1    4    4    0    0  0.37237150936E+03 -0.16131913952E+03 -0.51838090250E+03  0.65833362806E+03  0.51100000000E-03 0.  1.
    -200002    1    4    4    0    0  0.96576253180E+02 -0.12322001738E+02 -0.56847091446E+02  0.11666360277E+03  0.30000000000E+02 0.  1.
    -200000    1    3    3    0    0 -0.10672460794E+03 -0.15922453616E+03 -0.58968103007E+03  0.62822552645E+03  0.10100000000E+03 0.  1.
<mgrwt>
<rscale>  0 0.16680199E+04</rscale>
<asrwt>0</asrwt>
<pdfrwt beam="1">  1        2 0.27409443E+00 0.16680199E+04</pdfrwt>
<pdfrwt beam="2">  1       -2 0.51790032E-01 0.16680199E+04</pdfrwt>
<totfact> 0.29743870E+01</totfact>
</mgrwt>
</event>
<event>
 8    2  0.7266322E-052  0.1392487E+04  0.7818608E-02  0.8959275E-01
         -2   -1    0    0    0  501 -0.00000000000E+00  0.00000000000E+00  0.50800678794E+03  0.50800678795E+03  0.25500000000E-02 0. -1.
          2   -1    0    0  501    0  0.00000000000E+00 -0.00000000000E+00 -0.95422883086E+03  0.95422883086E+03  0.25500000000E-02 0.  1.
    -200001    2    1    2    0    0 -0.54618492054E+02 -0.10847711388E+03  0.99895230552E+02  0.63231782752E+03  0.61245107070E+03 0.  0.
   -5000001    2    3    3    0    0  0.24353049213E+03  0.67195328694E+02  0.33510515646E+02  0.26576421040E+03  0.75401247193E+02 0.  0.
     200001    1    1    2    0    0  0.54618492054E+02  0.10847711388E+03 -0.54611727347E+03  0.82991779129E+03  0.61300000000E+03 0.  1.
         11    1    4    4    0    0  0.15331726499E+03  0.60385935813E+02  0.15062674624E+00  0.16478066536E+03  0.51100000000E-03 0.  1.
    -200002    1    4    4    0    0  0.90213227141E+02  0.68093928812E+01  0.33359888900E+02  0.10098354505E+03  0.30000000000E+02 0.  1.
    -200000    1    3    3    0    0 -0.29814898418E+03 -0.17567244258E+03  0.66384714906E+02  0.36655361712E+03  0.10100000000E+03 0.  1.
<mgrwt>
<rscale>  0 0.13924866E+04</rscale>
<asrwt>0</asrwt>
<pdfrwt beam="1">  1        2 0.13631840E+00 0.13924866E+04</pdfrwt>
<pdfrwt beam="2">  1       -2 0.72572399E-01 0.13924866E+04</pdfrwt>
<totfact> 0.50259257E+01</totfact>
</mgrwt>
</event>
<event>
 8    2  0.7266322E-052  0.1302230E+04  0.7818608E-02  0.9027798E-01
         -2   -1    0    0    0  501 -0.00000000000E+00  0.00000000000E+00  0.21927900698E+03  0.21927900699E+03  0.25500000000E-02 0. -1.
          2   -1    0    0  501    0  0.00000000000E+00 -0.00000000000E+00 -0.19333856073E+04  0.19333856073E+04  0.25500000000E-02 0.  1.
    -200001    2    1    2    0    0 -0.87040922855E+02 -0.19027472587E+03 -0.96597932360E+03  0.11630970240E+04  0.61310524391E+03 0.  0.
   -5000001    2    3    3    0    0  0.34923768141E+02 -0.12668613357E+03 -0.72842337030E+02  0.25380412748E+03  0.20455190794E+03 0.  0.
     200001    1    1    2    0    0  0.87040922855E+02  0.19027472587E+03 -0.74812727677E+03  0.98956759031E+03  0.61300000000E+03 0. -1.
         11    1    4    4    0    0  0.66325410935E+02 -0.42635569102E+02 -0.12347305917E+03  0.14650067655E+03  0.51100000000E-03 0.  1.
    -200002    1    4    4    0    0 -0.31401642794E+02 -0.84050564468E+02  0.50630722140E+02  0.10730345093E+03  0.30000000000E+02 0.  1.
    -200000    1    3    3    0    0 -0.12196469100E+03 -0.63588592297E+02 -0.89313698657E+03  0.90929289654E+03  0.10100000000E+03 0.  1.
<mgrwt>
<rscale>  0 0.13022302E+04</rscale>
<asrwt>0</asrwt>
<pdfrwt beam="1">  1        2 0.27619793E+00 0.13022302E+04</pdfrwt>
<pdfrwt beam="2">  1       -2 0.31325573E-01 0.13022302E+04</pdfrwt>
<totfact> 0.80508421E+01</totfact>
</mgrwt>
</event>
<event>
 8    2  0.7266322E-052  0.1420036E+04  0.7818608E-02  0.8939442E-01
         -2   -1    0    0    0  501 -0.00000000000E+00  0.00000000000E+00  0.60744047179E+03  0.60744047179E+03  0.25500000000E-02 0. -1.
          2   -1    0    0  501    0  0.00000000000E+00 -0.00000000000E+00 -0.82991751785E+03  0.82991751785E+03  0.25500000000E-02 0.  1.
    -200001    2    1    2    0    0  0.19316885203E+03  0.29485078708E+03 -0.48131454036E+02  0.70906095031E+03  0.61335112485E+03 0.  0.
   -5000001    2    3    3    0    0  0.23093239281E+03  0.61146288929E+02  0.21681983673E+03  0.33967759396E+03  0.10630798437E+03 0.  0.
     200001    1    1    2    0    0 -0.19316885203E+03 -0.29485078708E+03 -0.17434559202E+03  0.72829703933E+03  0.61300000000E+03 0.  1.
         11    1    4    4    0    0  0.15937689826E+03  0.84013693700E+02  0.14057500764E+03  0.22851833450E+03  0.51100000000E-03 0.  1.
    -200002    1    4    4    0    0  0.71555494549E+02 -0.22867404771E+02  0.76244829091E+02  0.11115925946E+03  0.30000000000E+02 0.  1.
    -200000    1    3    3    0    0 -0.37763540780E+02  0.23370449815E+03 -0.26495129077E+03  0.36938335635E+03  0.10100000000E+03 0. -1.
<mgrwt>
<rscale>  0 0.14200359E+04</rscale>
<asrwt>0</asrwt>
<pdfrwt beam="1">  1        2 0.11855965E+00 0.14200359E+04</pdfrwt>
<pdfrwt beam="2">  1       -2 0.86777211E-01 0.14200359E+04</pdfrwt>
<totfact> 0.40551065E+01</totfact>
</mgrwt>
</event>
<event>
 8    2  0.7266322E-052  0.1369589E+04  0.7818608E-02  0.8976131E-01
         -2   -1    0    0    0  501 -0.00000000000E+00  0.00000000000E+00  0.10214603352E+04  0.10214603352E+04  0.25500000000E-02 0. -1.
          2   -1    0    0  501    0  0.00000000000E+00 -0.00000000000E+00 -0.45909121423E+03  0.45909121424E+03  0.25500000000E-02 0.  1.
    -200001    2    1    2    0    0  0.23716466411E+03 -0.10888727027E+03  0.45034476908E+03  0.80496145855E+03  0.61404317697E+03 0.  0.
   -5000001    2    3    3    0    0 -0.29469286065E+02 -0.19603640587E+03 -0.53284541103E+02  0.21969902400E+03  0.78292449039E+02 0.  0.
     200001    1    1    2    0    0 -0.23716466411E+03  0.10888727027E+03  0.11202435192E+03  0.67559009092E+03  0.61300000000E+03 0. -1.
         11    1    4    4    0    0  0.15537450654E+02 -0.96989756936E+02 -0.96324043270E+01  0.98697560946E+02  0.51100000000E-03 0.  1.
    -200002    1    4    4    0    0 -0.45006736718E+02 -0.99046648938E+02 -0.43652136776E+02  0.12100146305E+03  0.30000000000E+02 0.  1.
    -200000    1    3    3    0    0  0.26663395018E+03  0.87149135603E+02  0.50362931018E+03  0.58526243455E+03  0.10100000000E+03 0. -1.
<mgrwt>
<rscale>  0 0.13695889E+04</rscale>
<asrwt>0</asrwt>
<pdfrwt beam="1">  1        2 0.65584459E-01 0.13695889E+04</pdfrwt>
<pdfrwt beam="2">  1       -2 0.14592290E+00 0.13695889E+04</pdfrwt>
<totfact> 0.23286441E+01</totfact>
</mgrwt>
</event>
<event>
 8    2  0.7266322E-052  0.1355598E+04  0.7818608E-02  0.8986601E-01
          2   -1    0    0  501    0  0.00000000000E+00  0.00000000000E+00  0.63364635999E+03  0.63364635999E+03  0.25500000000E-02 0.  1.
         -2   -1    0    0    0  501 -0.00000000000E+00 -0.00000000000E+00 -0.72502828735E+03  0.72502828736E+03  0.25500000000E-02 0. -1.
    -200001    2    1    2    0    0 -0.10148380325E+03 -0.26190730747E+03 -0.11557690170E+03  0.68395337392E+03  0.61281301998E+03 0.  0.
   -5000001    2    3    3    0    0 -0.19885537914E+03  0.25472045297E+02 -0.25514938296E+03  0.33502702967E+03  0.83364357385E+02 0.  0.
     200001    1    1    2    0    0  0.10148380325E+03  0.26190730747E+03  0.24194974342E+02  0.67472127343E+03  0.61300000000E+03 0. -1.
         11    1    4    4    0    0 -0.16709184440E+03  0.36086354521E+02 -0.18676692518E+03  0.25318727019E+03  0.51100000000E-03 0.  1.
    -200002    1    4    4    0    0 -0.31763534745E+02 -0.10614309224E+02 -0.68382457781E+02  0.81839759482E+02  0.30000000000E+02 0. -1.
    -200000    1    3    3    0    0  0.97371575886E+02 -0.28737935277E+03  0.13957248125E+03  0.34892634425E+03  0.10100000000E+03 0.  1.
<mgrwt>
<rscale>  0 0.13555981E+04</rscale>
<asrwt>0</asrwt>
<pdfrwt beam="1">  1        2 0.90520909E-01 0.13555981E+04</pdfrwt>
<pdfrwt beam="2">  1       -2 0.10357547E+00 0.13555981E+04</pdfrwt>
<totfact> 0.37761023E+01</totfact>
</mgrwt>
</event>
<event>
 8    2  0.7266322E-052  0.1944103E+04  0.7818608E-02  0.8633209E-01
          2   -1    0    0  501    0  0.00000000000E+00  0.00000000000E+00  0.19264190837E+04  0.19264190837E+04  0.25500000000E-02 0.  1.
         -2   -1    0    0    0  501 -0.00000000000E+00 -0.00000000000E+00 -0.49048754458E+03  0.49048754459E+03  0.25500000000E-02 0. -1.
    -200001    2    1    2    0    0 -0.27103858955E+03 -0.74383867082E+02  0.15883777590E+04  0.17255284924E+04  0.61278854114E+03 0.  0.
   -5000001    2    3    3    0    0  0.57653588338E+01  0.15943620166E+03  0.27300918543E+03  0.35743210154E+03  0.16664498228E+03 0.  0.
     200001    1    1    2    0    0  0.27103858955E+03  0.74383867082E+02 -0.15244621994E+03  0.69137813582E+03  0.61300000000E+03 0. -1.
         11    1    4    4    0    0  0.79074186831E+02  0.76554355619E+02  0.93387598251E+02  0.14434174689E+03  0.51100000000E-03 0.  1.
    -200002    1    4    4    0    0 -0.73308827997E+02  0.82881846044E+02  0.17962158718E+03  0.21309035465E+03  0.30000000000E+02 0.  1.
    -200000    1    3    3    0    0 -0.27680394839E+03 -0.23382006875E+03  0.13153685736E+04  0.13680963909E+04  0.10100000000E+03 0.  1.
<mgrwt>
<rscale>  0 0.19441035E+04</rscale>
<asrwt>0</asrwt>
<pdfrwt beam="1">  1        2 0.27520272E+00 0.19441035E+04</pdfrwt>
<pdfrwt beam="2">  1       -2 0.70069650E-01 0.19441035E+04</pdfrwt>
<totfact> 0.15209571E+01</totfact>
</mgrwt>
</event>
<event>
 8    2  0.7266322E-052  0.1584804E+04  0.7818608E-02  0.8829938E-01
          2   -1    0    0  501    0  0.00000000000E+00  0.00000000000E+00  0.15895659954E+04  0.15895659954E+04  0.25500000000E-02 0.  1.
         -2   -1    0    0    0  501 -0.00000000000E+00 -0.00000000000E+00 -0.39501388065E+03  0.39501388066E+03  0.25500000000E-02 0. -1.
    -200001    2    1    2    0    0 -0.46331193047E+02 -0.11355622237E+03 -0.14585999408E+02  0.62339451976E+03  0.61103713537E+03 0.  0.
   -5000001    2    3    3    0    0 -0.30547937562E+03 -0.10141951549E+03  0.58047296589E+02  0.33567647050E+03  0.75535668087E+02 0.  0.
     200001    1    1    2    0    0  0.46331193047E+02  0.11355622237E+03  0.12091381142E+04  0.13611853563E+04  0.61300000000E+03 0.  1.
         11    1    4    4    0    0 -0.41857892488E+02 -0.15028117129E+02 -0.15526212885E+02  0.47106164722E+02  0.51100000000E-03 0.  1.
    -200002    1    4    4    0    0 -0.26362148313E+03 -0.86391398363E+02  0.73573509474E+02  0.28857030578E+03  0.30000000000E+02 0.  1.
    -200000    1    3    3    0    0  0.25914818257E+03 -0.12136706874E+02 -0.72633295997E+02  0.28771804926E+03  0.10100000000E+03 0. -1.
<mgrwt>
<rscale>  0 0.15848036E+04</rscale>
<asrwt>0</asrwt>
<pdfrwt beam="1">  1        2 0.22708086E+00 0.15848036E+04</pdfrwt>
<pdfrwt beam="2">  1       -2 0.56430555E-01 0.15848036E+04</pdfrwt>
<totfact> 0.37140700E+01</totfact>
</mgrwt>
</event>
<event>
 8    2  0.7266322E-052  0.1479514E+04  0.7818608E-02  0.8898191E-01
         -2   -1    0    0    0  501 -0.00000000000E+00  0.00000000000E+00  0.36092654181E+03  0.36092654182E+03  0.25500000000E-02 0. -1.
          2   -1    0    0  501    0  0.00000000000E+00 -0.00000000000E+00 -0.15162093682E+04  0.15162093682E+04  0.25500000000E-02 0.  1.
    -200001    2    1    2    0    0  0.33519396795E+03  0.63290870572E+02 -0.27207263822E+03  0.74922192086E+03  0.60905602023E+03 0.  0.
   -5000001    2    3    3    0    0  0.24100663004E+03  0.14141562331E+03 -0.43368095511E+03  0.52274238602E+03  0.84248780869E+02 0.  0.
     200001    1    1    2    0    0 -0.33519396795E+03 -0.63290870572E+02 -0.88321018817E+03  0.11279139892E+04  0.61300000000E+03 0. -1.
         11    1    4    4    0    0  0.13653058959E+03  0.10685611038E+03 -0.21586015768E+03  0.27686537865E+03  0.51100000000E-03 0.  1.
    -200002    1    4    4    0    0  0.10447604045E+03  0.34559512931E+02 -0.21782079743E+03  0.24587700737E+03  0.30000000000E+02 0.  1.
    -200000    1    3    3    0    0  0.94187337908E+02 -0.78124752740E+02  0.16160831689E+03  0.22647953484E+03  0.10100000000E+03 0.  1.
<mgrwt>
<rscale>  0 0.14795137E+04</rscale>
<asrwt>0</asrwt>
<pdfrwt beam="1">  1        2 0.21660133E+00 0.14795137E+04</pdfrwt>
<pdfrwt beam="2">  1       -2 0.51560936E-01 0.14795137E+04</pdfrwt>
<totfact> 0.49332973E+01</totfact>
</mgrwt>
</event>
<event>
 8    2  0.7266322E-052  0.1980499E+04  0.7818608E-02  0.8615793E-01
          2   -1    0    0  501    0  0.00000000000E+00  0.00000000000E+00  0.15392611859E+04  0.15392611859E+04  0.25500000000E-02 0.  1.
         -2   -1    0    0    0  501 -0.00000000000E+00 -0.00000000000E+00 -0.63705502582E+03  0.63705502582E+03  0.25500000000E-02 0. -1.
    -200001    2    1    2    0    0  0.45158965941E+03  0.10498999470E+03 -0.23619410291E+03  0.80275140499E+03  0.61128229526E+03 0.  0.
   -5000001    2    3    3    0    0  0.10247847817E+03 -0.13863014951E+03 -0.29826132104E+03  0.36084334771E+03  0.10736828728E+03 0.  0.
     200001    1    1    2    0    0 -0.45158965941E+03 -0.10498999470E+03  0.11384002629E+04  0.13735648067E+04  0.61300000000E+03 0.  1.
         11    1    4    4    0    0  0.99864571216E+02 -0.10808974736E+03 -0.16618207574E+03  0.22197479219E+03  0.51100000000E-03 0.  1.
    -200002    1    4    4    0    0  0.26139069550E+01 -0.30540402143E+02 -0.13207924530E+03  0.13886855552E+03  0.30000000000E+02 0.  1.
    -200000    1    3    3    0    0  0.34911118124E+03  0.24362014421E+03  0.62067218133E+02  0.44190805729E+03  0.10100000000E+03 0. -1.
<mgrwt>
<rscale>  0 0.19804990E+04</rscale>
<asrwt>0</asrwt>
<pdfrwt beam="1">  1        2 0.21989445E+00 0.19804990E+04</pdfrwt>
<pdfrwt beam="2">  1       -2 0.91007861E-01 0.19804990E+04</pdfrwt>
<totfact> 0.13405982E+01</totfact>
</mgrwt>
</event>
<event>
 8    2  0.7266322E-052  0.1606529E+04  0.7818608E-02  0.8816547E-01
          2   -1    0    0  501    0  0.00000000000E+00  0.00000000000E+00  0.10277947449E+04  0.10277947449E+04  0.25500000000E-02 0.  1.
         -2   -1    0    0    0  501 -0.00000000000E+00 -0.00000000000E+00 -0.62778481855E+03  0.62778481855E+03  0.25500000000E-02 0. -1.
    -200001    2    1    2    0    0 -0.27813132864E+03  0.33877571716E+03  0.48682341556E+03  0.89700748095E+03  0.61278002615E+03 0.  0.
   -5000001    2    3    3    0    0 -0.24292201645E+03  0.46714829304E+03  0.49864181067E+03  0.72949662051E+03  0.79265567762E+02 0.  0.
     200001    1    1    2    0    0  0.27813132864E+03 -0.33877571716E+03 -0.86813489169E+02  0.75857208254E+03  0.61300000000E+03 0. -1.
         11    1    4    4    0    0 -0.12014674378E+03  0.23872074662E+03  0.29767583671E+03  0.40004217112E+03  0.51100000000E-03 0.  1.
    -200002    1    4    4    0    0 -0.12277527267E+03  0.22842754642E+03  0.20096597396E+03  0.32945444940E+03  0.30000000000E+02 0.  1.
    -200000    1    3    3    0    0 -0.35209312186E+02 -0.12837257588E+03 -0.11818395109E+02  0.16751086044E+03  0.10100000000E+03 0.  1.
<mgrwt>
<rscale>  0 0.16065291E+04</rscale>
<asrwt>0</asrwt>
<pdfrwt beam="1">  1        2 0.14682782E+00 0.16065291E+04</pdfrwt>
<pdfrwt beam="2">  1       -2 0.89683547E-01 0.16065291E+04</pdfrwt>
<totfact> 0.27642272E+01</totfact>
</mgrwt>
</event>
<event>
 8    2  0.7266322E-052  0.1232621E+04  0.7818608E-02  0.9084773E-01
         -2   -1    0    0    0  501 -0.00000000000E+00  0.00000000000E+00  0.43003790866E+03  0.43003790866E+03  0.25500000000E-02 0. -1.
          2   -1    0    0  501    0  0.00000000000E+00 -0.00000000000E+00 -0.88326778671E+03  0.88326778672E+03  0.25500000000E-02 0.  1.
    -200001    2    1    2    0    0  0.66550725882E+02  0.80705600332E+01 -0.31564274762E+03  0.68148819680E+03  0.60025135168E+03 0.  0.
   -5000001    2    3    3    0    0  0.12613440967E+03  0.16649059021E+02 -0.46051932926E+03  0.49490301537E+03  0.12908858017E+03 0.  0.
     200001    1    1    2    0    0 -0.66550725882E+02 -0.80705600332E+01 -0.13758713044E+03  0.63181749858E+03  0.61300000000E+03 0. -1.
         11    1    4    4    0    0  0.12381936165E+03  0.49452129937E+02 -0.38259301493E+03  0.40515942856E+03  0.51100000000E-03 0.  1.
    -200002    1    4    4    0    0  0.23150480216E+01 -0.32803070916E+02 -0.77926314328E+02  0.89743586810E+02  0.30000000000E+02 0.  1.
    -200000    1    3    3    0    0 -0.59583683790E+02 -0.85784989879E+01  0.14487658165E+03  0.18658518143E+03  0.10100000000E+03 0. -1.
<mgrwt>
<rscale>  0 0.12326210E+04</rscale>
<asrwt>0</asrwt>
<pdfrwt beam="1">  1        2 0.12618111E+00 0.12326210E+04</pdfrwt>
<pdfrwt beam="2">  1       -2 0.61433987E-01 0.12326210E+04</pdfrwt>
<totfact> 0.80969981E+01</totfact>
</mgrwt>
</event>
<event>
 8    2  0.7266322E-052  0.1261636E+04  0.7818608E-02  0.9060554E-01
          2   -1    0    0  501    0  0.00000000000E+00  0.00000000000E+00  0.70470698070E+03  0.70470698070E+03  0.25500000000E-02 0.  1.
         -2   -1    0    0    0  501 -0.00000000000E+00 -0.00000000000E+00 -0.56467598806E+03  0.56467598807E+03  0.25500000000E-02 0. -1.
    -200001    2    1    2    0    0 -0.32940973979E+02  0.86396465828E+02  0.18645058810E+03  0.64771325267E+03  0.61336708324E+03 0.  0.
   -5000001    2    3    3    0    0  0.10708361518E+03 -0.84906108088E+02  0.32021851999E+03  0.37014106927E+03  0.12565254787E+03 0.  0.
     200001    1    1    2    0    0  0.32940973979E+02 -0.86396465828E+02 -0.46419595468E+02  0.62166971610E+03  0.61300000000E+03 0. -1.
         11    1    4    4    0    0  0.96519878385E+02 -0.98823840753E+02  0.29921896930E+03  0.32956673074E+03  0.51100000000E-03 0.  1.
    -200002    1    4    4    0    0  0.10563736795E+02  0.13917732665E+02  0.20999550688E+02  0.40574338525E+02  0.30000000000E+02 0.  1.
    -200000    1    3    3    0    0 -0.14002458916E+03  0.17130257392E+03 -0.13376793188E+03  0.27757218340E+03  0.10100000000E+03 0. -1.
<mgrwt>
<rscale>  0 0.12616356E+04</rscale>
<asrwt>0</asrwt>
<pdfrwt beam="1">  1        2 0.10067243E+00 0.12616356E+04</pdfrwt>
<pdfrwt beam="2">  1       -2 0.80667998E-01 0.12616356E+04</pdfrwt>
<totfact> 0.59599192E+01</totfact>
</mgrwt>
</event>
<event>
 8    2  0.7266322E-052  0.1610645E+04  0.7818608E-02  0.8814035E-01
          2   -1    0    0  501    0  0.00000000000E+00  0.00000000000E+00  0.72711549990E+03  0.72711549990E+03  0.25500000000E-02 0.  1.
         -2   -1    0    0    0  501 -0.00000000000E+00 -0.00000000000E+00 -0.89194099349E+03  0.89194099349E+03  0.25500000000E-02 0. -1.
    -200001    2    1    2    0    0 -0.69116985884E+02  0.41794723092E+03  0.22486273986E+03  0.77817423953E+03  0.61280898306E+03 0.  0.
   -5000001    2    3    3    0    0 -0.16924989373E+03  0.39125509113E+03 -0.67946572159E+02  0.45155923258E+03  0.13252520891E+03 0.  0.
     200001    1    1    2    0    0  0.69116985884E+02 -0.41794723092E+03 -0.38968823345E+03  0.84088225386E+03  0.61300000000E+03 0. -1.
         11    1    4    4    0    0 -0.11373579136E+03  0.20260076678E+03 -0.94582652728E+02  0.25085609248E+03  0.51100000000E-03 0.  1.
    -200002    1    4    4    0    0 -0.55514102363E+02  0.18865432435E+03  0.26636080569E+02  0.20070314010E+03  0.30000000000E+02 0.  1.
    -200000    1    3    3    0    0  0.10013290784E+03  0.26692139787E+02  0.29280931202E+03  0.32661500695E+03  0.10100000000E+03 0.  1.
<mgrwt>
<rscale>  0 0.16106447E+04</rscale>
<asrwt>0</asrwt>
<pdfrwt beam="1">  1        2 0.10387364E+00 0.16106447E+04</pdfrwt>
<pdfrwt beam="2">  1       -2 0.12742014E+00 0.16106447E+04</pdfrwt>
<totfact> 0.18833693E+01</totfact>
</mgrwt>
</event>
<event>
 8    2  0.7266322E-052  0.1631707E+04  0.7818608E-02  0.8801303E-01
         -2   -1    0    0    0  501 -0.00000000000E+00  0.00000000000E+00  0.12380043801E+04  0.12380043801E+04  0.25500000000E-02 0. -1.
          2   -1    0    0  501    0  0.00000000000E+00 -0.00000000000E+00 -0.53765295414E+03  0.53765295415E+03  0.25500000000E-02 0.  1.
    -200001    2    1    2    0    0  0.31476811536E+03 -0.22835605857E+03 -0.48028047564E+02  0.73303262119E+03  0.61951971271E+03 0.  0.
   -5000001    2    3    3    0    0  0.14377952756E+03  0.96670406602E+02  0.12751477517E+03  0.31363354771E+03  0.22822853526E+03 0.  0.
     200001    1    1    2    0    0 -0.31476811536E+03  0.22835605857E+03  0.74837947356E+03  0.10426247131E+04  0.61300000000E+03 0. -1.
         11    1    4    4    0    0 -0.50003302475E+02 -0.24168783607E+02  0.16467530190E+02  0.57927885429E+02  0.51100000000E-03 0.  1.
    -200002    1    4    4    0    0  0.19378283004E+03  0.12083919021E+03  0.11104724498E+03  0.25570566229E+03  0.30000000000E+02 0.  1.
    -200000    1    3    3    0    0  0.17098858779E+03 -0.32502646517E+03 -0.17554282273E+03  0.41939907347E+03  0.10100000000E+03 0.  1.
<mgrwt>
<rscale>  0 0.16317067E+04</rscale>
<asrwt>0</asrwt>
<pdfrwt beam="1">  1        2 0.76807565E-01 0.16317067E+04</pdfrwt>
<pdfrwt beam="2">  1       -2 0.17685777E+00 0.16317067E+04</pdfrwt>
<totfact> 0.11277389E+01</totfact>
</mgrwt>
</event>
<event>
 8    2  0.7266322E-052  0.1729482E+04  0.7818608E-02  0.8744726E-01
          2   -1    0    0  501    0  0.00000000000E+00  0.00000000000E+00  0.10502574701E+04  0.10502574701E+04  0.25500000000E-02 0.  1.
         -2   -1    0    0    0  501 -0.00000000000E+00 -0.00000000000E+00 -0.71199415874E+03  0.71199415875E+03  0.25500000000E-02 0. -1.
    -200001    2    1    2    0    0 -0.54446046176E+03  0.27386663898E+03  0.19448099969E+03  0.88596258779E+03  0.61291656640E+03 0.  0.
   -5000001    2    3    3    0    0 -0.64798030519E+02  0.34444289736E+03  0.93774795395E+02  0.38059163911E+03  0.11496342552E+03 0.  0.
     200001    1    1    2    0    0  0.54446046176E+03 -0.27386663898E+03  0.14378231170E+03  0.87628904108E+03  0.61300000000E+03 0. -1.
         11    1    4    4    0    0 -0.23372849295E+02  0.97771971721E+02 -0.22688699030E+02  0.10305544916E+03  0.51100000000E-03 0.  1.
    -200002    1    4    4    0    0 -0.41425181224E+02  0.24667092564E+03  0.11646349443E+03  0.27753618995E+03  0.30000000000E+02 0.  1.
    -200000    1    3    3    0    0 -0.47966243124E+03 -0.70576258385E+02  0.10070620429E+03  0.50537094868E+03  0.10100000000E+03 0.  1.
<mgrwt>
<rscale>  0 0.17294822E+04</rscale>
<asrwt>0</asrwt>
<pdfrwt beam="1">  1        2 0.15003678E+00 0.17294822E+04</pdfrwt>
<pdfrwt beam="2">  1       -2 0.10171345E+00 0.17294822E+04</pdfrwt>
<totfact> 0.19763862E+01</totfact>
</mgrwt>
</event>
<event>
 8    2  0.7266322E-052  0.1789397E+04  0.7818608E-02  0.8711959E-01
          2   -1    0    0  501    0  0.00000000000E+00  0.00000000000E+00  0.17475560439E+04  0.17475560439E+04  0.25500000000E-02 0.  1.
         -2   -1    0    0    0  501 -0.00000000000E+00 -0.00000000000E+00 -0.45805969250E+03  0.45805969250E+03  0.25500000000E-02 0. -1.
    -200001    2    1    2    0    0 -0.32975127636E+03 -0.40962199731E+02 -0.44877099706E+02  0.70004763329E+03  0.61452333457E+03 0.  0.
   -5000001    2    3    3    0    0 -0.22696135547E+03  0.22667093309E+03 -0.24870114657E+02  0.39542566909E+03  0.22989512476E+03 0.  0.
     200001    1    1    2    0    0  0.32975127636E+03  0.40962199731E+02  0.13343734511E+04  0.15055681031E+04  0.61300000000E+03 0.  1.
         11    1    4    4    0    0 -0.26951551820E+03  0.18792407828E+03 -0.32075720888E+02  0.33012562097E+03  0.51100000000E-03 0.  1.
    -200002    1    4    4    0    0  0.42554162733E+02  0.38746854814E+02  0.72056062309E+01  0.65300048124E+02  0.30000000000E+02 0. -1.
    -200000    1    3    3    0    0 -0.10278992089E+03 -0.26763313282E+03 -0.20006985049E+02  0.30462196420E+03  0.10100000000E+03 0. -1.
<mgrwt>
<rscale>  0 0.17893965E+04</rscale>
<asrwt>0</asrwt>
<pdfrwt beam="1">  1        2 0.24965086E+00 0.17893965E+04</pdfrwt>
<pdfrwt beam="2">  1       -2 0.65437099E-01 0.17893965E+04</pdfrwt>
<totfact> 0.22092087E+01</totfact>
</mgrwt>
</event>
<event>
 8    2  0.7266322E-052  0.1648458E+04  0.7818608E-02  0.8791319E-01
          2   -1    0    0  501    0  0.00000000000E+00  0.00000000000E+00  0.65110692607E+03  0.65110692607E+03  0.25500000000E-02 0.  1.
         -2   -1    0    0    0  501 -0.00000000000E+00 -0.00000000000E+00 -0.10433828962E+04  0.10433828962E+04  0.25500000000E-02 0. -1.
    -200001    2    1    2    0    0 -0.20645985108E+03  0.23610846352E+03  0.26846641870E+03  0.74017206544E+03  0.61433508106E+03 0.  0.
   -5000001    2    3    3    0    0 -0.25616543880E+03  0.11689001714E+03 -0.12256729653E+03  0.31615313915E+03  0.75140249373E+02 0.  0.
     200001    1    1    2    0    0  0.20645985108E+03 -0.23610846352E+03 -0.66074238887E+03  0.95431775689E+03  0.61300000000E+03 0. -1.
         11    1    4    4    0    0 -0.21526725241E+03  0.10408103295E+03 -0.99824879505E+02  0.25910974113E+03  0.51100000000E-03 0.  1.
    -200002    1    4    4    0    0 -0.40898186382E+02  0.12808984193E+02 -0.22742417021E+02  0.57043398018E+02  0.30000000000E+02 0. -1.
    -200000    1    3    3    0    0  0.49705587710E+02  0.11921844638E+03  0.39103371522E+03  0.42401892629E+03  0.10100000000E+03 0.  1.
<mgrwt>
<rscale>  0 0.16484585E+04</rscale>
<asrwt>0</asrwt>
<pdfrwt beam="1">  1        2 0.93015275E-01 0.16484585E+04</pdfrwt>
<pdfrwt beam="2">  1       -2 0.14905470E+00 0.16484585E+04</pdfrwt>
<totfact> 0.14345510E+01</totfact>
</mgrwt>
</event>
<event>
 8    2  0.7266322E-052  0.1404961E+04  0.7818608E-02  0.8950235E-01
         -2   -1    0    0    0  501 -0.00000000000E+00  0.00000000000E+00  0.16562566363E+04  0.16562566363E+04  0.25500000000E-02 0. -1.
          2   -1    0    0  501    0  0.00000000000E+00 -0.00000000000E+00 -0.29794847748E+03  0.29794847749E+03  0.25500000000E-02 0.  1.
    -200001    2    1    2    0    0  0.72302601846E+02  0.86602441757E+02  0.11300299134E+04  0.12904223131E+04  0.61277605352E+03 0.  0.
   -5000001    2    3    3    0    0 -0.19178512448E+03 -0.11535624547E+03  0.26567333262E+03  0.35884143239E+03  0.89979200883E+02 0.  0.
     200001    1    1    2    0    0 -0.72302601846E+02 -0.86602441757E+02  0.22827824537E+03  0.66378280067E+03  0.61300000000E+03 0.  1.
         11    1    4    4    0    0 -0.10705561989E+03 -0.18948314663E+02  0.13362660340E+03  0.17226727349E+03  0.51100000000E-03 0.  1.
    -200002    1    4    4    0    0 -0.84729504583E+02 -0.96407930811E+02  0.13204672922E+03  0.18657415890E+03  0.30000000000E+02 0.  1.
    -200000    1    3    3    0    0  0.26408772632E+03  0.20195868723E+03  0.86435658080E+03  0.93158088071E+03  0.10100000000E+03 0. -1.
<mgrwt>
<rscale>  0 0.14049614E+04</rscale>
<asrwt>0</asrwt>
<pdfrwt beam="1">  1        2 0.42564068E-01 0.14049614E+04</pdfrwt>
<pdfrwt beam="2">  1       -2 0.23660809E+00 0.14049614E+04</pdfrwt>
<totfact> 0.91112741E+00</totfact>
</mgrwt>
</event>
<event>
 8    2  0.7266322E-052  0.2335238E+04  0.7818608E-02  0.8464155E-01
         -2   -1    0    0    0  501 -0.00000000000E+00  0.00000000000E+00  0.19442082449E+04  0.19442082449E+04  0.25500000000E-02 0. -1.
          2   -1    0    0  501    0  0.00000000000E+00 -0.00000000000E+00 -0.70122848741E+03  0.70122848741E+03  0.25500000000E-02 0.  1.
    -200001    2    1    2    0    0  0.33211535282E+02 -0.45561556812E+03 -0.37945537328E+03  0.85190577201E+03  0.61079334646E+03 0.  0.
   -5000001    2    3    3    0    0  0.27634039218E+03 -0.27387144445E+03 -0.71938528893E+02  0.40816014992E+03  0.10024956661E+03 0.  0.
     200001    1    1    2    0    0 -0.33211535282E+02  0.45561556812E+03  0.16224351307E+04  0.17935309603E+04  0.61300000000E+03 0. -1.
         11    1    4    4    0    0  0.15815677314E+03 -0.10177126222E+03 -0.57874826924E+02  0.19677512621E+03  0.51100000000E-03 0.  1.
    -200002    1    4    4    0    0  0.11818361904E+03 -0.17210018224E+03 -0.14063701969E+02  0.21138502371E+03  0.30000000000E+02 0.  1.
    -200000    1    3    3    0    0 -0.24312885690E+03 -0.18174412367E+03 -0.30751684439E+03  0.44374562209E+03  0.10100000000E+03 0. -1.
<mgrwt>
<rscale>  0 0.23352381E+04</rscale>
<asrwt>0</asrwt>
<pdfrwt beam="1">  1        2 0.10017550E+00 0.23352381E+04</pdfrwt>
<pdfrwt beam="2">  1       -2 0.27774404E+00 0.23352381E+04</pdfrwt>
<totfact> 0.17726685E+00</totfact>
</mgrwt>
</event>
<event>
 8    2  0.7266322E-052  0.1329766E+04  0.7818608E-02  0.9006288E-01
         -2   -1    0    0    0  501 -0.00000000000E+00  0.00000000000E+00  0.20150757117E+03  0.20150757118E+03  0.25500000000E-02 0. -1.
          2   -1    0    0  501    0  0.00000000000E+00 -0.00000000000E+00 -0.21938116932E+04  0.21938116932E+04  0.25500000000E-02 0.  1.
    -200001    2    1    2    0    0 -0.22910016020E+03  0.95704919803E+02 -0.11200133302E+04  0.13006473772E+04  0.61286819536E+03 0.  0.
   -5000001    2    3    3    0    0  0.78303054521E+01  0.31878819135E+02 -0.10021808061E+04  0.10103108132E+04  0.12362846850E+03 0.  0.
     200001    1    1    2    0    0  0.22910016020E+03 -0.95704919803E+02 -0.87229079176E+03  0.10946718871E+04  0.61300000000E+03 0. -1.
         11    1    4    4    0    0  0.51407718686E+02 -0.18189367270E+02 -0.47557825650E+03  0.47869435413E+03  0.51100000000E-03 0.  1.
    -200002    1    4    4    0    0 -0.43577413234E+02  0.50068186405E+02 -0.52660254965E+03  0.53161645905E+03  0.30000000000E+02 0.  1.
    -200000    1    3    3    0    0 -0.23693046566E+03  0.63826100668E+02 -0.11783252408E+03  0.29033656403E+03  0.10100000000E+03 0.  1.
<mgrwt>
<rscale>  0 0.13297664E+04</rscale>
<asrwt>0</asrwt>
<pdfrwt beam="1">  1        2 0.31340165E+00 0.13297664E+04</pdfrwt>
<pdfrwt beam="2">  1       -2 0.28786797E-01 0.13297664E+04</pdfrwt>
<totfact> 0.69122828E+01</totfact>
</mgrwt>
</event>
<event>
 8    2  0.7266322E-052  0.1323758E+04  0.7818608E-02  0.9010934E-01
         -2   -1    0    0    0  501 -0.00000000000E+00  0.00000000000E+00  0.13588731249E+04  0.13588731249E+04  0.25500000000E-02 0. -1.
          2   -1    0    0  501    0  0.00000000000E+00 -0.00000000000E+00 -0.32238763346E+03  0.32238763347E+03  0.25500000000E-02 0.  1.
    -200001    2    1    2    0    0 -0.21753224573E+03 -0.12031347803E+03  0.51244074597E+03  0.83734873324E+03  0.61380923095E+03 0.  0.
   -5000001    2    3    3    0    0 -0.27886476345E+03  0.13202434733E+03  0.86339735915E+02  0.32823270854E+03  0.71317433866E+02 0.  0.
     200001    1    1    2    0    0  0.21753224573E+03  0.12031347803E+03  0.52404474551E+03  0.84391202517E+03  0.61300000000E+03 0.  1.
         11    1    4    4    0    0 -0.82692953647E+02  0.17753986190E+02  0.44047626523E+02  0.95359960209E+02  0.51100000000E-03 0.  1.
    -200002    1    4    4    0    0 -0.19617180980E+03  0.11427036114E+03  0.42292109392E+02  0.23287274833E+03  0.30000000000E+02 0.  1.
    -200000    1    3    3    0    0  0.61332517716E+02 -0.25233782537E+03  0.42610101005E+03  0.50911602470E+03  0.10100000000E+03 0. -1.
<mgrwt>
<rscale>  0 0.13237581E+04</rscale>
<asrwt>0</asrwt>
<pdfrwt beam="1">  1        2 0.46055377E-01 0.13237581E+04</pdfrwt>
<pdfrwt beam="2">  1       -2 0.19412473E+00 0.13237581E+04</pdfrwt>
<totfact> 0.15675504E+01</totfact>
</mgrwt>
</event>
<event>
 8    2  0.7266322E-052  0.1531997E+04  0.7818608E-02  0.8863450E-01
          2   -1    0    0  501    0  0.00000000000E+00  0.00000000000E+00  0.28179453739E+04  0.28179453739E+04  0.25500000000E-02 0.  1.
         -2   -1    0    0    0  501 -0.00000000000E+00 -0.00000000000E+00 -0.20822046076E+03  0.20822046077E+03  0.25500000000E-02 0. -1.
    -200001    2    1    2    0    0 -0.64580525108E+02  0.24094703615E+03  0.54359150901E+03  0.85662616872E+03  0.61326221620E+03 0.  0.
   -5000001    2    3    3    0    0 -0.40831116339E+02  0.37083035504E+03  0.11877486639E+03  0.40044211509E+03  0.84048119377E+02 0.  0.
     200001    1    1    2    0    0  0.64580525108E+02 -0.24094703615E+03  0.20661334041E+04  0.21695396659E+04  0.61300000000E+03 0.  1.
         11    1    4    4    0    0  0.19893461773E+02  0.64095616344E+02  0.91171101028E+01  0.67728277350E+02  0.51100000000E-03 0.  1.
    -200002    1    4    4    0    0 -0.60724578112E+02  0.30673473870E+03  0.10965775629E+03  0.33271383774E+03  0.30000000000E+02 0.  1.
    -200000    1    3    3    0    0 -0.23749408768E+02 -0.12988331889E+03  0.42481664261E+03  0.45618405363E+03  0.10100000000E+03 0.  1.
<mgrwt>
<rscale>  0 0.15319972E+04</rscale>
<asrwt>0</asrwt>
<pdfrwt beam="1">  1        2 0.40256363E+00 0.15319972E+04</pdfrwt>
<pdfrwt beam="2">  1       -2 0.29745780E-01 0.15319972E+04</pdfrwt>
<totfact> 0.30018937E+01</totfact>
</mgrwt>
</event>
<event>
 8    2  0.7266322E-052  0.2592477E+04  0.7818608E-02  0.8370761E-01
         -2   -1    0    0    0  501 -0.00000000000E+00  0.00000000000E+00  0.90810405019E+03  0.90810405020E+03  0.25500000000E-02 0. -1.
          2   -1    0    0  501    0  0.00000000000E+00 -0.00000000000E+00 -0.18502658617E+04  0.18502658617E+04  0.25500000000E-02 0.  1.
    -200001    2    1    2    0    0  0.56618755074E+03 -0.87109921857E+03 -0.97536987400E+03  0.15516164297E+04  0.61382812144E+03 0.  0.
   -5000001    2    3    3    0    0  0.52854774044E+03 -0.89064411584E+03 -0.99532664730E+03  0.14402699833E+04  0.10532252841E+03 0.  0.
     200001    1    1    2    0    0 -0.56618755074E+03  0.87109921857E+03  0.33208062535E+02  0.12067534821E+04  0.61300000000E+03 0.  1.
         11    1    4    4    0    0  0.42398083126E+03 -0.70557451519E+03 -0.83326516289E+03  0.11712924372E+04  0.51100000000E-03 0.  1.
    -200002    1    4    4    0    0  0.10456690918E+03 -0.18506960065E+03 -0.16206148441E+03  0.26897754610E+03  0.30000000000E+02 0. -1.
    -200000    1    3    3    0    0  0.37639810303E+02  0.19544897265E+02  0.19956773303E+02  0.11134644642E+03  0.10100000000E+03 0. -1.
<mgrwt>
<rscale>  0 0.25924767E+04</rscale>
<asrwt>0</asrwt>
<pdfrwt beam="1">  1        2 0.26432369E+00 0.25924767E+04</pdfrwt>
<pdfrwt beam="2">  1       -2 0.12972915E+00 0.25924767E+04</pdfrwt>
<totfact> 0.37286801E+00</totfact>
</mgrwt>
</event>
<event>
 8    2  0.7266322E-052  0.1490288E+04  0.7818608E-02  0.8890937E-01
          2   -1    0    0  501    0  0.00000000000E+00  0.00000000000E+00  0.20706073007E+04  0.20706073007E+04  0.25500000000E-02 0.  1.
         -2   -1    0    0    0  501 -0.00000000000E+00 -0.00000000000E+00 -0.26815313197E+03  0.26815313198E+03  0.25500000000E-02 0. -1.
    -200001    2    1    2    0    0  0.41839776310E+03  0.69429523084E+01  0.10092013278E+04  0.12524253267E+04  0.61235364477E+03 0.  0.
   -5000001    2    3    3    0    0  0.50039187682E+03  0.12658336511E+03  0.90178393019E+03  0.10456008592E+04  0.11683972479E+03 0.  0.
     200001    1    1    2    0    0 -0.41839776310E+03 -0.69429523084E+01  0.79325284089E+03  0.10863351059E+04  0.61300000000E+03 0. -1.
         11    1    4    4    0    0  0.81585644202E+02 -0.99208512441E+01  0.20320728841E+03  0.21919818132E+03  0.51100000000E-03 0.  1.
    -200002    1    4    4    0    0  0.41880623262E+03  0.13650421636E+03  0.69857664178E+03  0.82640267788E+03  0.30000000000E+02 0.  1.
    -200000    1    3    3    0    0 -0.81994113726E+02 -0.11964041281E+03  0.10741739760E+03  0.20682446753E+03  0.10100000000E+03 0. -1.
<mgrwt>
<rscale>  0 0.14902883E+04</rscale>
<asrwt>0</asrwt>
<pdfrwt beam="1">  1        2 0.29580106E+00 0.14902883E+04</pdfrwt>
<pdfrwt beam="2">  1       -2 0.38307588E-01 0.14902883E+04</pdfrwt>
<totfact> 0.45973532E+01</totfact>
</mgrwt>
</event>
<event>
 8    2  0.7266322E-052  0.1754246E+04  0.7818608E-02  0.8731017E-01
         -2   -1    0    0    0  501 -0.00000000000E+00  0.00000000000E+00  0.32906474859E+03  0.32906474860E+03  0.25500000000E-02 0. -1.
          2   -1    0    0  501    0  0.00000000000E+00 -0.00000000000E+00 -0.23379731014E+04  0.23379731014E+04  0.25500000000E-02 0.  1.
    -200001    2    1    2    0    0 -0.62479964722E+03  0.61075477644E+02 -0.10294954697E+04  0.13520764784E+04  0.61167398851E+03 0.  0.
   -5000001    2    3    3    0    0 -0.10103516382E+03  0.18562325065E+03 -0.57542896371E+02  0.23639991837E+03  0.88936162347E+02 0.  0.
     200001    1    1    2    0    0  0.62479964722E+03 -0.61075477644E+02 -0.97941288313E+03  0.13149613716E+04  0.61300000000E+03 0. -1.
         11    1    4    4    0    0  0.12734713820E+00  0.31608309179E+02  0.16383903009E+02  0.35602439587E+02  0.51100000000E-03 0.  1.
    -200002    1    4    4    0    0 -0.10116251096E+03  0.15401494147E+03 -0.73926799380E+02  0.20079747879E+03  0.30000000000E+02 0.  1.
    -200000    1    3    3    0    0 -0.52376448340E+03 -0.12454777301E+03 -0.97195257329E+03  0.11156765600E+04  0.10100000000E+03 0. -1.
<mgrwt>
<rscale>  0 0.17542457E+04</rscale>
<asrwt>0</asrwt>
<pdfrwt beam="1">  1        2 0.33399615E+00 0.17542457E+04</pdfrwt>
<pdfrwt beam="2">  1       -2 0.47009251E-01 0.17542457E+04</pdfrwt>
<totfact> 0.21852728E+01</totfact>
</mgrwt>
</event>
<event>
 8    2  0.7266322E-052  0.2009874E+04  0.7818608E-02  0.8602018E-01
          2   -1    0    0  501    0  0.00000000000E+00  0.00000000000E+00  0.53093018122E+03  0.53093018122E+03  0.25500000000E-02 0.  1.
         -2   -1    0    0    0  501 -0.00000000000E+00 -0.00000000000E+00 -0.19021306040E+04  0.19021306040E+04  0.25500000000E-02 0. -1.
    -200001    2    1    2    0    0  0.67460751101E+03  0.25995090865E+03 -0.28100872406E+03  0.98843048346E+03  0.61266560930E+03 0.  0.
   -5000001    2    3    3    0    0  0.95780451863E+02  0.23128020757E+03 -0.30230686416E+03  0.39977321113E+03  0.75925956343E+02 0.  0.
     200001    1    1    2    0    0 -0.67460751101E+03 -0.25995090865E+03 -0.10901916987E+04  0.14446303018E+04  0.61300000000E+03 0. -1.
         11    1    4    4    0    0  0.53951164007E+02  0.12552392478E+03 -0.11492154425E+03  0.17853275644E+03  0.51100000000E-03 0.  1.
    -200002    1    4    4    0    0  0.41829287856E+02  0.10575628279E+03 -0.18738531991E+03  0.22124045469E+03  0.30000000000E+02 0.  1.
    -200000    1    3    3    0    0  0.57882705914E+03  0.28670701087E+02  0.21298140100E+02  0.58865727233E+03  0.10100000000E+03 0.  1.
<mgrwt>
<rscale>  0 0.20098742E+04</rscale>
<asrwt>0</asrwt>
<pdfrwt beam="1">  1        2 0.75847170E-01 0.20098742E+04</pdfrwt>
<pdfrwt beam="2">  1       -2 0.27173294E+00 0.20098742E+04</pdfrwt>
<totfact> 0.27607460E+00</totfact>
</mgrwt>
</event>
<event>
 8    2  0.7266322E-052  0.1350750E+04  0.7818608E-02  0.8990260E-01
         -2   -1    0    0    0  501 -0.00000000000E+00  0.00000000000E+00  0.48629141987E+03  0.48629141988E+03  0.25500000000E-02 0.  1.
          2   -1    0    0  501    0  0.00000000000E+00 -0.00000000000E+00 -0.93798002699E+03  0.93798002699E+03  0.25500000000E-02 0. -1.
    -200001    2    1    2    0    0  0.46594640299E+02 -0.18062720683E+03 -0.45606619124E+03  0.78350205654E+03  0.60916488199E+03 0.  0.
   -5000001    2    3    3    0    0  0.27124583912E+02 -0.38267932497E+03 -0.32585131664E+03  0.52204258528E+03  0.13845638837E+03 0.  0.
     200001    1    1    2    0    0 -0.46594640299E+02  0.18062720683E+03  0.43775841222E+01  0.64076939034E+03  0.61300000000E+03 0. -1.
         11    1    4    4    0    0  0.16008247748E+02 -0.66168832929E+02 -0.13465074067E+03  0.15088207451E+03  0.51100000000E-03 0.  1.
    -200002    1    4    4    0    0  0.11116336164E+02 -0.31651049204E+03 -0.19120057597E+03  0.37116051077E+03  0.30000000000E+02 0.  1.
    -200000    1    3    3    0    0  0.19470056387E+02  0.20205211814E+03 -0.13021487460E+03  0.26145947125E+03  0.10100000000E+03 0.  1.
<mgrwt>
<rscale>  0 0.13507504E+04</rscale>
<asrwt>0</asrwt>
<pdfrwt beam="1">  1        2 0.13399715E+00 0.13507504E+04</pdfrwt>
<pdfrwt beam="2">  1       -2 0.69470204E-01 0.13507504E+04</pdfrwt>
<totfact> 0.56805977E+01</totfact>
</mgrwt>
</event>
<event>
 8    2  0.7266322E-052  0.1383096E+04  0.7818608E-02  0.8966146E-01
         -2   -1    0    0    0  501 -0.00000000000E+00  0.00000000000E+00  0.37108617027E+03  0.37108617027E+03  0.25500000000E-02 0. -1.
          2   -1    0    0  501    0  0.00000000000E+00 -0.00000000000E+00 -0.12887533041E+04  0.12887533041E+04  0.25500000000E-02 0.  1.
    -200001    2    1    2    0    0 -0.14173697817E+03 -0.79929443282E+02 -0.12733878572E+03  0.64649551267E+03  0.61258729555E+03 0.  0.
   -5000001    2    3    3    0    0 -0.14639837933E+03 -0.32648534441E+03 -0.53390487980E+02  0.36994372406E+03  0.77347586765E+02 0.  0.
     200001    1    1    2    0    0  0.14173697817E+03  0.79929443282E+02 -0.79032834806E+03  0.10133439617E+04  0.61300000000E+03 0. -1.
         11    1    4    4    0    0 -0.35390726378E+02 -0.88083811254E+02 -0.45182182478E+02  0.10513177889E+03  0.51100000000E-03 0.  1.
    -200002    1    4    4    0    0 -0.11100765296E+03 -0.23840153316E+03 -0.82083055016E+01  0.26481194517E+03  0.30000000000E+02 0.  1.
    -200000    1    3    3    0    0  0.46614011663E+01  0.24655590113E+03 -0.73948297742E+02  0.27655178861E+03  0.10100000000E+03 0. -1.
<mgrwt>
<rscale>  0 0.13830958E+04</rscale>
<asrwt>0</asrwt>
<pdfrwt beam="1">  1        2 0.18410761E+00 0.13830958E+04</pdfrwt>
<pdfrwt beam="2">  1       -2 0.53012311E-01 0.13830958E+04</pdfrwt>
<totfact> 0.62332046E+01</totfact>
</mgrwt>
</event>
<event>
 8    2  0.7266322E-052  0.2352093E+04  0.7818608E-02  0.8457660E-01
          2   -1    0    0  501    0  0.00000000000E+00  0.00000000000E+00  0.23018356557E+04  0.23018356557E+04  0.25500000000E-02 0.  1.
         -2   -1    0    0    0  501 -0.00000000000E+00 -0.00000000000E+00 -0.60086183186E+03  0.60086183186E+03  0.25500000000E-02 0. -1.
    -200001    2    1    2    0    0  0.12877523914E+03  0.20520171839E+03  0.20525673006E+04  0.21556514513E+04  0.61246212004E+03 0.  0.
   -5000001    2    3    3    0    0 -0.64298497478E+02 -0.16532968484E+02  0.31894180042E+02  0.11120419120E+03  0.83315650355E+02 0.  0.
     200001    1    1    2    0    0 -0.12877523914E+03 -0.20520171839E+03 -0.35159347675E+03  0.74704603629E+03  0.61300000000E+03 0. -1.
         11    1    4    4    0    0 -0.36636153184E+02 -0.22634642601E+02 -0.17813517707E+02  0.46603177780E+02  0.51100000000E-03 0.  1.
    -200002    1    4    4    0    0 -0.27662344293E+02  0.61016741168E+01  0.49707697749E+02  0.64601013416E+02  0.30000000000E+02 0.  1.
    -200000    1    3    3    0    0  0.19307373662E+03  0.22173468688E+03  0.20206731206E+04  0.20444472601E+04  0.10100000000E+03 0.  1.
<mgrwt>
<rscale>  0 0.23520928E+04</rscale>
<asrwt>0</asrwt>
<pdfrwt beam="1">  1        2 0.32883367E+00 0.23520928E+04</pdfrwt>
<pdfrwt beam="2">  1       -2 0.85837404E-01 0.23520928E+04</pdfrwt>
<totfact> 0.59860554E+00</totfact>
</mgrwt>
</event>
<event>
 8    2  0.7266322E-052  0.1438429E+04  0.7818608E-02  0.8926462E-01
         -2   -1    0    0    0  501 -0.00000000000E+00  0.00000000000E+00  0.43279529050E+03  0.43279529051E+03  0.25500000000E-02 0. -1.
          2   -1    0    0  501    0  0.00000000000E+00 -0.00000000000E+00 -0.11951835884E+04  0.11951835884E+04  0.25500000000E-02 0.  1.
    -200001    2    1    2    0    0 -0.12814437800E+02 -0.24772045512E+02  0.43251260125E+02  0.61525879839E+03  0.61310264511E+03 0.  0.
   -5000001    2    3    3    0    0 -0.74769039914E+02 -0.24038063600E+03 -0.15064303019E+03  0.30201539011E+03  0.71740600925E+02 0.  0.
     200001    1    1    2    0    0  0.12814437800E+02  0.24772045512E+02 -0.80563955806E+03  0.10127200806E+04  0.61300000000E+03 0.  1.
         11    1    4    4    0    0  0.41379431487E+01 -0.92956945550E+01 -0.22339516308E+02  0.24547637359E+02  0.51100000000E-03 0.  1.
    -200002    1    4    4    0    0 -0.78906983063E+02 -0.23108494145E+03 -0.12830351388E+03  0.27746775275E+03  0.30000000000E+02 0.  1.
    -200000    1    3    3    0    0  0.61954602114E+02  0.21560859049E+03  0.19389429031E+03  0.31324340828E+03  0.10100000000E+03 0. -1.
<mgrwt>
<rscale>  0 0.14384295E+04</rscale>
<asrwt>0</asrwt>
<pdfrwt beam="1">  1        2 0.17074051E+00 0.14384295E+04</pdfrwt>
<pdfrwt beam="2">  1       -2 0.61827899E-01 0.14384295E+04</pdfrwt>
<totfact> 0.50797453E+01</totfact>
</mgrwt>
</event>
<event>
 8    2  0.7266322E-052  0.1410115E+04  0.7818608E-02  0.8946529E-01
         -2   -1    0    0    0  501 -0.00000000000E+00  0.00000000000E+00  0.31985937894E+03  0.31985937895E+03  0.25500000000E-02 0. -1.
          2   -1    0    0  501    0  0.00000000000E+00 -0.00000000000E+00 -0.15541392597E+04  0.15541392597E+04  0.25500000000E-02 0.  1.
    -200001    2    1    2    0    0 -0.26639567859E+03  0.94583823541E+02 -0.35295216951E+03  0.76385437242E+03  0.61561799117E+03 0.  0.
   -5000001    2    3    3    0    0 -0.11377408133E+03  0.33417955765E+03 -0.15810694535E+03  0.40487647737E+03  0.11961035671E+03 0.  0.
     200001    1    1    2    0    0  0.26639567859E+03 -0.94583823541E+02 -0.88132771126E+03  0.11101442662E+04  0.61300000000E+03 0.  1.
         11    1    4    4    0    0 -0.74716413778E+02  0.12996696342E+03 -0.11853629411E+03  0.19111464384E+03  0.51100000000E-03 0.  1.
    -200002    1    4    4    0    0 -0.39057667551E+02  0.20421259423E+03 -0.39570651231E+02  0.21376183353E+03  0.30000000000E+02 0.  1.
    -200000    1    3    3    0    0 -0.15262159726E+03 -0.23959573410E+03 -0.19484522417E+03  0.35897789505E+03  0.10100000000E+03 0.  1.
<mgrwt>
<rscale>  0 0.14101149E+04</rscale>
<asrwt>0</asrwt>
<pdfrwt beam="1">  1        2 0.22201989E+00 0.14101149E+04</pdfrwt>
<pdfrwt beam="2">  1       -2 0.45694198E-01 0.14101149E+04</pdfrwt>
<totfact> 0.60476954E+01</totfact>
</mgrwt>
</event>
<event>
 8    2  0.7266322E-052  0.1741799E+04  0.7818608E-02  0.8737877E-01
          2   -1    0    0  501    0  0.00000000000E+00  0.00000000000E+00  0.15801647304E+04  0.15801647304E+04  0.25500000000E-02 0.  1.
         -2   -1    0    0    0  501 -0.00000000000E+00 -0.00000000000E+00 -0.47999183424E+03  0.47999183425E+03  0.25500000000E-02 0. -1.
    -200001    2    1    2    0    0 -0.37103407074E+02  0.33021529326E+03 -0.73351257381E+02  0.69511197137E+03  0.60611999066E+03 0.  0.
   -5000001    2    3    3    0    0 -0.22987790049E+03  0.38353996258E+03  0.13102673526E+02  0.45494368072E+03  0.82796863109E+02 0.  0.
     200001    1    1    2    0    0  0.37103407074E+02 -0.33021529326E+03  0.11735241536E+04  0.13650445933E+04  0.61300000000E+03 0.  1.
         11    1    4    4    0    0 -0.16126775346E+02  0.18980124691E+02 -0.17085028173E+02  0.30202917149E+02  0.51100000000E-03 0.  1.
    -200002    1    4    4    0    0 -0.21375112514E+03  0.36455983789E+03  0.30187701699E+02  0.42474076357E+03  0.30000000000E+02 0.  1.
    -200000    1    3    3    0    0  0.19277449341E+03 -0.53324669325E+02 -0.86453930907E+02  0.24016829066E+03  0.10100000000E+03 0. -1.
<mgrwt>
<rscale>  0 0.17417993E+04</rscale>
<asrwt>0</asrwt>
<pdfrwt beam="1">  1        2 0.22573782E+00 0.17417993E+04</pdfrwt>
<pdfrwt beam="2">  1       -2 0.68570261E-01 0.17417993E+04</pdfrwt>
<totfact> 0.24512175E+01</totfact>
</mgrwt>
</event>
<event>
 8    2  0.7266322E-052  0.1359058E+04  0.7818608E-02  0.8983999E-01
         -2   -1    0    0    0  501 -0.00000000000E+00  0.00000000000E+00  0.28843274887E+03  0.28843274888E+03  0.25500000000E-02 0. -1.
          2   -1    0    0  501    0  0.00000000000E+00 -0.00000000000E+00 -0.16009277461E+04  0.16009277461E+04  0.25500000000E-02 0.  1.
    -200001    2    1    2    0    0 -0.15468507081E+03  0.50214582145E+02 -0.31882247382E+03  0.71054623516E+03  0.61382343316E+03 0.  0.
   -5000001    2    3    3    0    0 -0.11581566335E+03 -0.87685809184E+02 -0.43996079361E+03  0.49746681034E+03  0.18112332392E+03 0.  0.
     200001    1    1    2    0    0  0.15468507081E+03 -0.50214582145E+02 -0.99367252342E+03  0.11788142598E+04  0.61300000000E+03 0.  1.
         11    1    4    4    0    0 -0.13172036510E+02 -0.11221056620E+03 -0.15258747139E+03  0.18986218722E+03  0.51100000000E-03 0.  1.
    -200002    1    4    4    0    0 -0.10264362684E+03  0.24524757016E+02 -0.28737332222E+03  0.30760462311E+03  0.30000000000E+02 0.  1.
    -200000    1    3    3    0    0 -0.38869407463E+02  0.13790039133E+03  0.12113831978E+03  0.21307942483E+03  0.10100000000E+03 0. -1.
<mgrwt>
<rscale>  0 0.13590585E+04</rscale>
<asrwt>0</asrwt>
<pdfrwt beam="1">  1        2 0.22870396E+00 0.13590585E+04</pdfrwt>
<pdfrwt beam="2">  1       -2 0.41204679E-01 0.13590585E+04</pdfrwt>
<totfact> 0.70418018E+01</totfact>
</mgrwt>
</event>
<event>
 8    2  0.7266322E-052  0.1938884E+04  0.7818608E-02  0.8635740E-01
         -2   -1    0    0    0  501 -0.00000000000E+00  0.00000000000E+00  0.81952455062E+03  0.81952455063E+03  0.25500000000E-02 0. -1.
          2   -1    0    0  501    0  0.00000000000E+00 -0.00000000000E+00 -0.11467839733E+04  0.11467839733E+04  0.25500000000E-02 0.  1.
    -200001    2    1    2    0    0  0.41018692728E+02 -0.67001013752E+03  0.17879700059E+03  0.92589599946E+03  0.61214288925E+03 0.  0.
   -5000001    2    3    3    0    0 -0.25295791878E+03 -0.40598655717E+03  0.18597425303E+03  0.51799501632E+03  0.70140009001E+02 0.  0.
     200001    1    1    2    0    0 -0.41018692728E+02  0.67001013752E+03 -0.50605642327E+03  0.10404125245E+04  0.61300000000E+03 0. -1.
         11    1    4    4    0    0 -0.39635787002E+02 -0.63288056453E+02  0.57253491395E+01  0.74894280982E+02  0.51100000000E-03 0.  1.
    -200002    1    4    4    0    0 -0.21332213178E+03 -0.34269850072E+03  0.18024890389E+03  0.44310073534E+03  0.30000000000E+02 0.  1.
    -200000    1    3    3    0    0  0.29397661151E+03 -0.26402358035E+03 -0.71772524376E+01  0.40790098314E+03  0.10100000000E+03 0.  1.
<mgrwt>
<rscale>  0 0.19388838E+04</rscale>
<asrwt>0</asrwt>
<pdfrwt beam="1">  1        2 0.16382628E+00 0.19388838E+04</pdfrwt>
<pdfrwt beam="2">  1       -2 0.11707494E+00 0.19388838E+04</pdfrwt>
<totfact> 0.12132161E+01</totfact>
</mgrwt>
</event>
<event>
 8    2  0.7266322E-052  0.1645223E+04  0.7818608E-02  0.8793238E-01
          2   -1    0    0  501    0  0.00000000000E+00  0.00000000000E+00  0.39330627549E+03  0.39330627550E+03  0.25500000000E-02 0.  1.
         -2   -1    0    0    0  501 -0.00000000000E+00 -0.00000000000E+00 -0.17205155699E+04  0.17205155699E+04  0.25500000000E-02 0. -1.
    -200001    2    1    2    0    0  0.26901055291E+03 -0.11258120592E+03 -0.64525469764E+02  0.68023172038E+03  0.61115501443E+03 0.  0.
   -5000001    2    3    3    0    0  0.13559466094E+03  0.17555541280E+03 -0.21161742733E+03  0.31600712585E+03  0.76635194251E+02 0.  0.
     200001    1    1    2    0    0 -0.26901055291E+03  0.11258120592E+03 -0.12626838246E+04  0.14335901250E+04  0.61300000000E+03 0. -1.
         11    1    4    4    0    0 -0.39933683140E+01 -0.35537882796E+01 -0.27006358482E+01  0.59891431669E+01  0.51100000000E-03 0.  1.
    -200002    1    4    4    0    0  0.13958802925E+03  0.17910920108E+03 -0.20891679148E+03  0.31001798268E+03  0.30000000000E+02 0.  1.
    -200000    1    3    3    0    0  0.13341589197E+03 -0.28813661873E+03  0.14709195757E+03  0.36422459453E+03  0.10100000000E+03 0.  1.
<mgrwt>
<rscale>  0 0.16452229E+04</rscale>
<asrwt>0</asrwt>
<pdfrwt beam="1">  1        2 0.56186612E-01 0.16452229E+04</pdfrwt>
<pdfrwt beam="2">  1       -2 0.24578793E+00 0.16452229E+04</pdfrwt>
<totfact> 0.57595081E+00</totfact>
</mgrwt>
</event>
<event>
 8    2  0.7266322E-052  0.1666952E+04  0.7818608E-02  0.8780440E-01
          2   -1    0    0  501    0  0.00000000000E+00  0.00000000000E+00  0.14244697631E+04  0.14244697631E+04  0.25500000000E-02 0.  1.
         -2   -1    0    0    0  501 -0.00000000000E+00 -0.00000000000E+00 -0.48767796420E+03  0.48767796421E+03  0.25500000000E-02 0. -1.
    -200001    2    1    2    0    0  0.45926672984E+03 -0.45881937811E+02  0.94442027455E+02  0.77269469239E+03  0.61245955764E+03 0.  0.
   -5000001    2    3    3    0    0  0.52199566632E+03  0.12272074607E+03  0.14312318039E+03  0.56072148857E+03  0.79902977468E+02 0.  0.
     200001    1    1    2    0    0 -0.45926672984E+03  0.45881937811E+02  0.84234977145E+03  0.11394530349E+04  0.61300000000E+03 0. -1.
         11    1    4    4    0    0  0.39939449655E+03  0.96848777323E+02  0.86439418734E+02  0.41996121566E+03  0.51100000000E-03 0.  1.
    -200002    1    4    4    0    0  0.12260116977E+03  0.25871968749E+02  0.56683761659E+02  0.14076027291E+03  0.30000000000E+02 0. -1.
    -200000    1    3    3    0    0 -0.62728936482E+02 -0.16860268388E+03 -0.48681152938E+02  0.21197320382E+03  0.10100000000E+03 0. -1.
<mgrwt>
<rscale>  0 0.16669523E+04</rscale>
<asrwt>0</asrwt>
<pdfrwt beam="1">  1        2 0.20349569E+00 0.16669523E+04</pdfrwt>
<pdfrwt beam="2">  1       -2 0.69668279E-01 0.16669523E+04</pdfrwt>
<totfact> 0.28827101E+01</totfact>
</mgrwt>
</event>
<event>
 8    2  0.7266322E-052  0.1252456E+04  0.7818608E-02  0.9068142E-01
         -2   -1    0    0    0  501 -0.00000000000E+00  0.00000000000E+00  0.14968952167E+03  0.14968952169E+03  0.25500000000E-02 0. -1.
          2   -1    0    0  501    0  0.00000000000E+00 -0.00000000000E+00 -0.26198322491E+04  0.26198322491E+04  0.25500000000E-02 0.  1.
    -200001    2    1    2    0    0  0.10629587461E+03  0.72322960020E+02 -0.12560252605E+04  0.14033667112E+04  0.61262488310E+03 0.  0.
   -5000001    2    3    3    0    0 -0.14245391657E+03  0.21289184599E+03 -0.43790476109E+03  0.53092288952E+03  0.15653267516E+03 0.  0.
     200001    1    1    2    0    0 -0.10629587461E+03 -0.72322960020E+02 -0.12141174669E+04  0.13661550596E+04  0.61300000000E+03 0.  1.
         11    1    4    4    0    0 -0.16066565914E+03  0.20472660404E+03 -0.35190567941E+03  0.43768029843E+03  0.51100000000E-03 0.  1.
    -200002    1    4    4    0    0  0.18211742576E+02  0.81652419564E+01 -0.85999081684E+02  0.93242591096E+02  0.30000000000E+02 0.  1.
    -200000    1    3    3    0    0  0.24874979118E+03 -0.14056888598E+03 -0.81812049944E+03  0.87244382164E+03  0.10100000000E+03 0.  1.
<mgrwt>
<rscale>  0 0.12524559E+04</rscale>
<asrwt>0</asrwt>
<pdfrwt beam="1">  1        2 0.37426172E+00 0.12524559E+04</pdfrwt>
<pdfrwt beam="2">  1       -2 0.21384219E-01 0.12524559E+04</pdfrwt>
<totfact> 0.71475062E+01</totfact>
</mgrwt>
</event>
<event>
 8    2  0.7266322E-052  0.1575023E+04  0.7818608E-02  0.8836041E-01
         -2   -1    0    0    0  501 -0.00000000000E+00  0.00000000000E+00  0.36667487561E+03  0.36667487561E+03  0.25500000000E-02 0. -1.
          2   -1    0    0  501    0  0.00000000000E+00 -0.00000000000E+00 -0.16913471751E+04  0.16913471751E+04  0.25500000000E-02 0.  1.
    -200001    2    1    2    0    0 -0.34416423782E+03  0.14128873396E+03 -0.10886566608E+04  0.13031154931E+04  0.61198458677E+03 0.  0.
   -5000001    2    3    3    0    0 -0.14648259090E+03  0.69624391789E+02 -0.10480643983E+04  0.10663401920E+04  0.11107527480E+03 0.  0.
     200001    1    1    2    0    0  0.34416423782E+03 -0.14128873396E+03 -0.23601563869E+03  0.75490655756E+03  0.61300000000E+03 0. -1.
         11    1    4    4    0    0 -0.35339588706E+02 -0.16822086667E+02 -0.42784913834E+03  0.42963560643E+03  0.51100000000E-03 0.  1.
    -200002    1    4    4    0    0 -0.11114300220E+03  0.86446478456E+02 -0.62021525995E+03  0.63670458554E+03  0.30000000000E+02 0.  1.
    -200000    1    3    3    0    0 -0.19768164692E+03  0.71664342174E+02 -0.40592262485E+02  0.23677530116E+03  0.10100000000E+03 0. -1.
<mgrwt>
<rscale>  0 0.15750232E+04</rscale>
<asrwt>0</asrwt>
<pdfrwt beam="1">  1        2 0.24162102E+00 0.15750232E+04</pdfrwt>
<pdfrwt beam="2">  1       -2 0.52382126E-01 0.15750232E+04</pdfrwt>
<totfact> 0.38364203E+01</totfact>
</mgrwt>
</event>
<event>
 8    2  0.7266322E-052  0.1980667E+04  0.7818608E-02  0.8615713E-01
          2   -1    0    0  501    0  0.00000000000E+00  0.00000000000E+00  0.48712158451E+04  0.48712158451E+04  0.25500000000E-02 0.  1.
         -2   -1    0    0    0  501 -0.00000000000E+00 -0.00000000000E+00 -0.20133799986E+03  0.20133799988E+03  0.25500000000E-02 0. -1.
    -200001    2    1    2    0    0 -0.55467340467E+03 -0.54380458217E+03  0.24370219511E+04  0.26302597486E+04  0.61302882910E+03 0.  0.
   -5000001    2    3    3    0    0 -0.22369771782E+03  0.10104179031E+03  0.71812035634E+03  0.76205327125E+03  0.69124740026E+02 0.  0.
     200001    1    1    2    0    0  0.55467340467E+03  0.54380458217E+03  0.22328558942E+04  0.24422940964E+04  0.61300000000E+03 0.  1.
         11    1    4    4    0    0 -0.96774242658E+02  0.56923566349E+02  0.39908393937E+03  0.41457633448E+03  0.51100000000E-03 0.  1.
    -200002    1    4    4    0    0 -0.12692347516E+03  0.44118223966E+02  0.31903641697E+03  0.34747693677E+03  0.30000000000E+02 0. -1.
    -200000    1    3    3    0    0 -0.33097568685E+03 -0.64484637248E+03  0.17189015948E+04  0.18682064773E+04  0.10100000000E+03 0. -1.
<mgrwt>
<rscale>  0 0.19806674E+04</rscale>
<asrwt>0</asrwt>
<pdfrwt beam="1">  1        2 0.69588797E+00 0.19806674E+04</pdfrwt>
<pdfrwt beam="2">  1       -2 0.28762572E-01 0.19806674E+04</pdfrwt>
<totfact> 0.12290505E+00</totfact>
</mgrwt>
</event>
<event>
 8    2  0.7266322E-052  0.1445489E+04  0.7818608E-02  0.8921534E-01
         -2   -1    0    0    0  501 -0.00000000000E+00  0.00000000000E+00  0.27809226877E+03  0.27809226878E+03  0.25500000000E-02 0. -1.
          2   -1    0    0  501    0  0.00000000000E+00 -0.00000000000E+00 -0.18783677168E+04  0.18783677168E+04  0.25500000000E-02 0.  1.
    -200001    2    1    2    0    0  0.78187358843E+01  0.18656299729E+03 -0.30139913527E+03  0.70811073197E+03  0.61295390153E+03 0.  0.
   -5000001    2    3    3    0    0  0.29438270251E+02 -0.18650557927E+03 -0.34403072840E+01  0.21961505107E+03  0.11210705637E+03 0.  0.
     200001    1    1    2    0    0 -0.78187358843E+01 -0.18656299729E+03 -0.12988763128E+04  0.14483492536E+04  0.61300000000E+03 0.  1.
         11    1    4    4    0    0  0.65193346179E+02 -0.85231323621E+02  0.75007411632E+01  0.10756770905E+03  0.51100000000E-03 0.  1.
    -200002    1    4    4    0    0 -0.35755075927E+02 -0.10127425565E+03 -0.10941048447E+02  0.11204734202E+03  0.30000000000E+02 0.  1.
    -200000    1    3    3    0    0 -0.21619534367E+02  0.37306857656E+03 -0.29795882798E+03  0.48849568090E+03  0.10100000000E+03 0.  1.
<mgrwt>
<rscale>  0 0.14454889E+04</rscale>
<asrwt>0</asrwt>
<pdfrwt beam="1">  1        2 0.26833824E+00 0.14454889E+04</pdfrwt>
<pdfrwt beam="2">  1       -2 0.39727468E-01 0.14454889E+04</pdfrwt>
<totfact> 0.53959051E+01</totfact>
</mgrwt>
</event>
<event>
 8    2  0.7266322E-052  0.1379887E+04  0.7818608E-02  0.8968507E-01
          2   -1    0    0  501    0  0.00000000000E+00  0.00000000000E+00  0.13399814123E+04  0.13399814123E+04  0.25500000000E-02 0.  1.
         -2   -1    0    0    0  501 -0.00000000000E+00 -0.00000000000E+00 -0.35524524703E+03  0.35524524704E+03  0.25500000000E-02 0. -1.
    -200001    2    1    2    0    0  0.12580596529E+02 -0.29964347102E+03  0.36956276719E+03  0.77644932459E+03  0.61347569929E+03 0.  0.
   -5000001    2    3    3    0    0  0.14392575289E+03  0.13611414810E+03  0.66323745696E+02  0.22030981252E+03  0.69970640933E+02 0.  0.
     200001    1    1    2    0    0 -0.12580596529E+02  0.29964347102E+03  0.61517339804E+03  0.91877733472E+03  0.61300000000E+03 0.  1.
         11    1    4    4    0    0  0.43262876444E+02  0.22590929958E+02  0.40678185063E+02  0.63535354999E+02  0.51100000000E-03 0.  1.
    -200002    1    4    4    0    0  0.10066287645E+03  0.11352321814E+03  0.25645560633E+02  0.15677445752E+03  0.30000000000E+02 0.  1.
    -200000    1    3    3    0    0 -0.13134515636E+03 -0.43575761912E+03  0.30323902150E+03  0.55613951206E+03  0.10100000000E+03 0.  1.
<mgrwt>
<rscale>  0 0.13798870E+04</rscale>
<asrwt>0</asrwt>
<pdfrwt beam="1">  1        2 0.19142592E+00 0.13798870E+04</pdfrwt>
<pdfrwt beam="2">  1       -2 0.50749320E-01 0.13798870E+04</pdfrwt>
<totfact> 0.63886677E+01</totfact>
</mgrwt>
</event>
<event>
 8    2  0.7266322E-052  0.1430498E+04  0.7818608E-02  0.8932033E-01
          2   -1    0    0  501    0  0.00000000000E+00  0.00000000000E+00  0.39151963209E+04  0.39151963209E+04  0.25500000000E-02 0.  1.
         -2   -1    0    0    0  501 -0.00000000000E+00 -0.00000000000E+00 -0.13066557082E+03  0.13066557085E+03  0.25500000000E-02 0. -1.
    -200001    2    1    2    0    0 -0.21204269825E+03  0.10701022291E+03  0.11009686794E+04  0.12829489940E+04  0.61433931533E+03 0.  0.
   -5000001    2    3    3    0    0 -0.84881425579E+02 -0.20565351720E+03  0.69481300688E+03  0.74527619943E+03  0.15222770237E+03 0.  0.
     200001    1    1    2    0    0  0.21204269825E+03 -0.10701022291E+03  0.26835620706E+04  0.27629128978E+04  0.61300000000E+03 0.  1.
         11    1    4    4    0    0 -0.11159134745E+03 -0.98003027151E+02  0.31115373310E+03  0.34478089822E+03  0.51100000000E-03 0.  1.
    -200002    1    4    4    0    0  0.26709921876E+02 -0.10765049004E+03  0.38365927377E+03  0.40049530120E+03  0.30000000000E+02 0.  1.
    -200000    1    3    3    0    0 -0.12716127267E+03  0.31266374011E+03  0.40615567256E+03  0.53767279455E+03  0.10100000000E+03 0. -1.
<mgrwt>
<rscale>  0 0.14304983E+04</rscale>
<asrwt>0</asrwt>
<pdfrwt beam="1">  1        2 0.55931380E+00 0.14304983E+04</pdfrwt>
<pdfrwt beam="2">  1       -2 0.18666509E-01 0.14304983E+04</pdfrwt>
<totfact> 0.15554969E+01</totfact>
</mgrwt>
</event>
<event>
 8    2  0.7266322E-052  0.1278794E+04  0.7818608E-02  0.9046553E-01
          2   -1    0    0  501    0  0.00000000000E+00  0.00000000000E+00  0.12969784903E+04  0.12969784903E+04  0.25500000000E-02 0.  1.
         -2   -1    0    0    0  501 -0.00000000000E+00 -0.00000000000E+00 -0.31521616659E+03  0.31521616660E+03  0.25500000000E-02 0. -1.
    -200001    2    1    2    0    0 -0.17493641208E+03 -0.48334199777E+02  0.47502325608E+03  0.79641746563E+03  0.61293942818E+03 0.  0.
   -5000001    2    3    3    0    0  0.14459920938E+03 -0.16590860717E+03  0.34848084557E+03  0.41940190056E+03  0.77617376780E+02 0.  0.
     200001    1    1    2    0    0  0.17493641208E+03  0.48334199777E+02  0.50673906766E+03  0.81577719129E+03  0.61300000000E+03 0. -1.
         11    1    4    4    0    0  0.30682179374E+02 -0.85194066609E+02  0.13744191347E+03  0.16458950360E+03  0.51100000000E-03 0.  1.
    -200002    1    4    4    0    0  0.11391703000E+03 -0.80714540560E+02  0.21103893209E+03  0.25481239696E+03  0.30000000000E+02 0.  1.
    -200000    1    3    3    0    0 -0.31953562145E+03  0.11757440739E+03  0.12654241051E+03  0.37701556508E+03  0.10100000000E+03 0. -1.
<mgrwt>
<rscale>  0 0.12787941E+04</rscale>
<asrwt>0</asrwt>
<pdfrwt beam="1">  1        2 0.18528264E+00 0.12787941E+04</pdfrwt>
<pdfrwt beam="2">  1       -2 0.45030881E-01 0.12787941E+04</pdfrwt>
<totfact> 0.86514914E+01</totfact>
</mgrwt>
</event>
<event>
 8    2  0.7266322E-052  0.1329899E+04  0.7818608E-02  0.9006185E-01
         -2   -1    0    0    0  501 -0.00000000000E+00  0.00000000000E+00  0.35428470440E+03  0.35428470440E+03  0.25500000000E-02 0. -1.
          2   -1    0    0  501    0  0.00000000000E+00 -0.00000000000E+00 -0.12480302977E+04  0.12480302977E+04  0.25500000000E-02 0.  1.
    -200001    2    1    2    0    0 -0.23368643301E+03  0.88111078925E+02 -0.37011525848E+03  0.75831817821E+03  0.61293412668E+03 0.  0.
   -5000001    2    3    3    0    0  0.33761860892E+01  0.68780241221E+02 -0.46895521310E+03  0.48165465823E+03  0.85615989671E+02 0.  0.
     200001    1    1    2    0    0  0.23368643301E+03 -0.88111078925E+02 -0.52363033484E+03  0.84399682391E+03  0.61300000000E+03 0.  1.
         11    1    4    4    0    0  0.18563414635E+02 -0.87015676469E+01 -0.46203127216E+02  0.50547468851E+02  0.51100000000E-03 0.  1.
    -200002    1    4    4    0    0 -0.15187228546E+02  0.77481808868E+02 -0.42275208588E+03  0.43110718938E+03  0.30000000000E+02 0.  1.
    -200000    1    3    3    0    0 -0.23706261910E+03  0.19330837704E+02  0.98839954616E+02  0.27666351998E+03  0.10100000000E+03 0. -1.
<mgrwt>
<rscale>  0 0.13298993E+04</rscale>
<asrwt>0</asrwt>
<pdfrwt beam="1">  1        2 0.17829004E+00 0.13298993E+04</pdfrwt>
<pdfrwt beam="2">  1       -2 0.50612101E-01 0.13298993E+04</pdfrwt>
<totfact> 0.72509460E+01</totfact>
</mgrwt>
</event>
<event>
 8    2  0.7266322E-052  0.2470026E+04  0.7818608E-02  0.8413743E-01
          2   -1    0    0  501    0  0.00000000000E+00  0.00000000000E+00  0.93164378387E+03  0.93164378387E+03  0.25500000000E-02 0.  1.
         -2   -1    0    0    0  501 -0.00000000000E+00 -0.00000000000E+00 -0.16371672246E+04  0.16371672246E+04  0.25500000000E-02 0. -1.
    -200001    2    1    2    0    0 -0.12684200228E+03 -0.11880733031E+03 -0.14528938113E+04  0.15867033025E+04  0.61361459239E+03 0.  0.
   -5000001    2    3    3    0    0 -0.35593516215E+03 -0.54204388914E+02 -0.86112028875E+03  0.94090602942E+03  0.11894557187E+03 0.  0.
     200001    1    1    2    0    0  0.12684200228E+03  0.11880733031E+03  0.74737037058E+03  0.98210770596E+03  0.61300000000E+03 0.  1.
         11    1    4    4    0    0 -0.23391024862E+03 -0.85906058874E+02 -0.58660921498E+03  0.63734153047E+03  0.51100000000E-03 0.  1.
    -200002    1    4    4    0    0 -0.12202491353E+03  0.31701669960E+02 -0.27451107377E+03  0.30356449895E+03  0.30000000000E+02 0.  1.
    -200000    1    3    3    0    0  0.22909315987E+03 -0.64602941397E+02 -0.59177352257E+03  0.64579727311E+03  0.10100000000E+03 0. -1.
<mgrwt>
<rscale>  0 0.24700256E+04</rscale>
<asrwt>0</asrwt>
<pdfrwt beam="1">  1        2 0.13309197E+00 0.24700256E+04</pdfrwt>
<pdfrwt beam="2">  1       -2 0.23388103E+00 0.24700256E+04</pdfrwt>
<totfact> 0.22532258E+00</totfact>
</mgrwt>
</event>
<event>
 8    2  0.7266322E-052  0.1667395E+04  0.7818608E-02  0.8780182E-01
         -2   -1    0    0    0  501 -0.00000000000E+00  0.00000000000E+00  0.65260518655E+03  0.65260518655E+03  0.25500000000E-02 0. -1.
          2   -1    0    0  501    0  0.00000000000E+00 -0.00000000000E+00 -0.10650410494E+04  0.10650410494E+04  0.25500000000E-02 0.  1.
    -200001    2    1    2    0    0 -0.36897785303E+03  0.80412042759E+02  0.22735917505E+03  0.75446533750E+03  0.61230302822E+03 0.  0.
   -5000001    2    3    3    0    0 -0.26435912918E+02  0.68910508614E+02  0.35593409794E+03  0.37472888045E+03  0.91022722883E+02 0.  0.
     200001    1    1    2    0    0  0.36897785303E+03 -0.80412042759E+02 -0.63979503794E+03  0.96318089849E+03  0.61300000000E+03 0. -1.
         11    1    4    4    0    0 -0.27950781826E+02  0.64512854408E+02  0.13991093126E+03  0.15658295972E+03  0.51100000000E-03 0.  1.
    -200002    1    4    4    0    0  0.15148689080E+01  0.43976542065E+01  0.21602316668E+03  0.21814592073E+03  0.30000000000E+02 0.  1.
    -200000    1    3    3    0    0 -0.34254194011E+03  0.11501534145E+02 -0.12857492289E+03  0.37973645705E+03  0.10100000000E+03 0.  1.
<mgrwt>
<rscale>  0 0.16673947E+04</rscale>
<asrwt>0</asrwt>
<pdfrwt beam="1">  1        2 0.15214872E+00 0.16673947E+04</pdfrwt>
<pdfrwt beam="2">  1       -2 0.93229313E-01 0.16673947E+04</pdfrwt>
<totfact> 0.23879991E+01</totfact>
</mgrwt>
</event>
<event>
 8    2  0.7266322E-052  0.1612106E+04  0.7818608E-02  0.8813145E-01
          2   -1    0    0  501    0  0.00000000000E+00  0.00000000000E+00  0.53680428159E+03  0.53680428160E+03  0.25500000000E-02 0.  1.
         -2   -1    0    0    0  501 -0.00000000000E+00 -0.00000000000E+00 -0.12103503471E+04  0.12103503471E+04  0.25500000000E-02 0. -1.
    -200001    2    1    2    0    0 -0.17334102780E+03  0.40807706120E+03 -0.35993739063E+02  0.75780334188E+03  0.61351149616E+03 0.  0.
   -5000001    2    3    3    0    0 -0.21899795250E+03  0.12620905371E+03 -0.26460618101E+03  0.37833163406E+03  0.96070629565E+02 0.  0.
     200001    1    1    2    0    0  0.17334102780E+03 -0.40807706120E+03 -0.63755232648E+03  0.98935128685E+03  0.61300000000E+03 0.  1.
         11    1    4    4    0    0 -0.93815341312E+02  0.43175368128E+02 -0.50205679813E+02  0.11483048796E+03  0.51100000000E-03 0.  1.
    -200002    1    4    4    0    0 -0.12518261119E+03  0.83033685586E+02 -0.21440050120E+03  0.26350114611E+03  0.30000000000E+02 0.  1.
    -200000    1    3    3    0    0  0.45656924707E+02  0.28186800749E+03  0.22861244195E+03  0.37947170782E+03  0.10100000000E+03 0.  1.
<mgrwt>
<rscale>  0 0.16121058E+04</rscale>
<asrwt>0</asrwt>
<pdfrwt beam="1">  1        2 0.76686326E-01 0.16121058E+04</pdfrwt>
<pdfrwt beam="2">  1       -2 0.17290719E+00 0.16121058E+04</pdfrwt>
<totfact> 0.12061251E+01</totfact>
</mgrwt>
</event>
<event>
 8    2  0.7266322E-052  0.1428160E+04  0.7818608E-02  0.8933684E-01
          2   -1    0    0  501    0  0.00000000000E+00  0.00000000000E+00  0.59974779552E+03  0.59974779553E+03  0.25500000000E-02 0.  1.
         -2   -1    0    0    0  501 -0.00000000000E+00 -0.00000000000E+00 -0.85020760369E+03  0.85020760370E+03  0.25500000000E-02 0. -1.
    -200001    2    1    2    0    0  0.14723607315E+03  0.12470915930E+02  0.21684725545E+03  0.66511218132E+03  0.61116077799E+03 0.  0.
   -5000001    2    3    3    0    0 -0.59794787214E+02 -0.52428770622E+02 -0.16606384726E+03  0.21356411185E+03  0.10820460221E+03 0.  0.
     200001    1    1    2    0    0 -0.14723607315E+03 -0.12470915930E+02 -0.46730706363E+03  0.78484321791E+03  0.61300000000E+03 0. -1.
         11    1    4    4    0    0 -0.55759602274E+01  0.28371813088E+02 -0.59607179494E+02  0.66250033644E+02  0.51100000000E-03 0.  1.
    -200002    1    4    4    0    0 -0.54218826986E+02 -0.80800583710E+02 -0.10645666776E+03  0.14731407821E+03  0.30000000000E+02 0.  1.
    -200000    1    3    3    0    0  0.20703086036E+03  0.64899686552E+02  0.38291110271E+03  0.45154806946E+03  0.10100000000E+03 0.  1.
<mgrwt>
<rscale>  0 0.14281598E+04</rscale>
<asrwt>0</asrwt>
<pdfrwt beam="1">  1        2 0.85678257E-01 0.14281598E+04</pdfrwt>
<pdfrwt beam="2">  1       -2 0.12145823E+00 0.14281598E+04</pdfrwt>
<totfact> 0.27213766E+01</totfact>
</mgrwt>
</event>
<event>
 8    2  0.7266322E-052  0.1810336E+04  0.7818608E-02  0.8700822E-01
          2   -1    0    0  501    0  0.00000000000E+00  0.00000000000E+00  0.44241338703E+04  0.44241338703E+04  0.25500000000E-02 0. -1.
         -2   -1    0    0    0  501 -0.00000000000E+00 -0.00000000000E+00 -0.18519535264E+03  0.18519535266E+03  0.25500000000E-02 0.  1.
    -200001    2    1    2    0    0  0.37481931355E+01 -0.25030823023E+02  0.42512798357E+03  0.74648566142E+03  0.61307948036E+03 0.  0.
   -5000001    2    3    3    0    0 -0.11271952106E+03  0.19317721708E+03  0.10387187269E+02  0.25313953005E+03  0.11810419294E+03 0.  0.
     200001    1    1    2    0    0 -0.37481931355E+01  0.25030823023E+02  0.38138105341E+04  0.38628435615E+04  0.61300000000E+03 0. -1.
         11    1    4    4    0    0 -0.94031189888E+02  0.11767040129E+03 -0.39843812412E+02  0.15580666674E+03  0.51100000000E-03 0.  1.
    -200002    1    4    4    0    0 -0.18688331168E+02  0.75506815787E+02  0.50230999681E+02  0.97332863315E+02  0.30000000000E+02 0.  1.
    -200000    1    3    3    0    0  0.11646771419E+03 -0.21820804010E+03  0.41474079630E+03  0.49334613136E+03  0.10100000000E+03 0. -1.
<mgrwt>
<rscale>  0 0.18103359E+04</rscale>
<asrwt>0</asrwt>
<pdfrwt beam="1">  1        2 0.63201914E+00 0.18103359E+04</pdfrwt>
<pdfrwt beam="2">  1       -2 0.26456478E-01 0.18103359E+04</pdfrwt>
<totfact> 0.34616293E+00</totfact>
</mgrwt>
</event>
<event>
 8    2  0.7266322E-052  0.1559177E+04  0.7818608E-02  0.8846027E-01
         -2   -1    0    0    0  501 -0.00000000000E+00  0.00000000000E+00  0.45895510355E+03  0.45895510356E+03  0.25500000000E-02 0. -1.
          2   -1    0    0  501    0  0.00000000000E+00 -0.00000000000E+00 -0.13242222299E+04  0.13242222299E+04  0.25500000000E-02 0.  1.
    -200001    2    1    2    0    0  0.46049324091E+03  0.82983521609E+02 -0.56286392048E+03  0.95483139804E+03  0.61314510186E+03 0.  0.
   -5000001    2    3    3    0    0  0.26599194688E+03 -0.20122851672E+03 -0.78500931255E+02  0.35199166691E+03  0.80567397991E+02 0.  0.
     200001    1    1    2    0    0 -0.46049324091E+03 -0.82983521609E+02 -0.30240320586E+03  0.82834593540E+03  0.61300000000E+03 0. -1.
         11    1    4    4    0    0  0.22791407919E+03 -0.15191373898E+03 -0.59758492198E+02  0.28034565981E+03  0.51100000000E-03 0.  1.
    -200002    1    4    4    0    0  0.38077867688E+02 -0.49314777742E+02 -0.18742439057E+02  0.71646007099E+02  0.30000000000E+02 0. -1.
    -200000    1    3    3    0    0  0.19450129403E+03  0.28421203833E+03 -0.48436298922E+03  0.60283973114E+03  0.10100000000E+03 0.  1.
<mgrwt>
<rscale>  0 0.15591774E+04</rscale>
<asrwt>0</asrwt>
<pdfrwt beam="1">  1        2 0.18917460E+00 0.15591774E+04</pdfrwt>
<pdfrwt beam="2">  1       -2 0.65565015E-01 0.15591774E+04</pdfrwt>
<totfact> 0.37591749E+01</totfact>
</mgrwt>
</event>
<event>
 8    2  0.7266322E-052  0.1435765E+04  0.7818608E-02  0.8928329E-01
          2   -1    0    0  501    0  0.00000000000E+00  0.00000000000E+00  0.25655033736E+04  0.25655033736E+04  0.25500000000E-02 0.  1.
         -2   -1    0    0    0  501 -0.00000000000E+00 -0.00000000000E+00 -0.20087878084E+03  0.20087878086E+03  0.25500000000E-02 0. -1.
    -200001    2    1    2    0    0 -0.19912519788E+02  0.77875811639E+02  0.47944266226E+03  0.78241112101E+03  0.61305851711E+03 0.  0.
   -5000001    2    3    3    0    0 -0.84529063397E+02  0.22709749226E+03  0.52556655975E+03  0.58550804435E+03  0.88775152616E+02 0.  0.
     200001    1    1    2    0    0  0.19912519788E+02 -0.77875811639E+02  0.18851819305E+04  0.19839710335E+04  0.61300000000E+03 0.  1.
         11    1    4    4    0    0 -0.63865624320E+02  0.20469628117E+03  0.45498808864E+03  0.50298463823E+03  0.51100000000E-03 0.  1.
    -200002    1    4    4    0    0 -0.20663439077E+02  0.22401211084E+02  0.70578471118E+02  0.82523406122E+02  0.30000000000E+02 0. -1.
    -200000    1    3    3    0    0  0.64616543609E+02 -0.14922168062E+03 -0.46123897500E+02  0.19690307665E+03  0.10100000000E+03 0. -1.
<mgrwt>
<rscale>  0 0.14357649E+04</rscale>
<asrwt>0</asrwt>
<pdfrwt beam="1">  1        2 0.36650048E+00 0.14357649E+04</pdfrwt>
<pdfrwt beam="2">  1       -2 0.28696969E-01 0.14357649E+04</pdfrwt>
<totfact> 0.44158402E+01</totfact>
</mgrwt>
</event>
<event>
 8    2  0.7266322E-052  0.1339566E+04  0.7818608E-02  0.8998765E-01
         -2   -1    0    0    0  501 -0.00000000000E+00  0.00000000000E+00  0.40607703609E+03  0.40607703610E+03  0.25500000000E-02 0. -1.
          2   -1    0    0  501    0  0.00000000000E+00 -0.00000000000E+00 -0.11047386845E+04  0.11047386845E+04  0.25500000000E-02 0.  1.
    -200001    2    1    2    0    0 -0.48751010494E+02 -0.89262741371E+01 -0.50381124132E+02  0.61723137788E+03  0.61317206132E+03 0.  0.
   -5000001    2    3    3    0    0 -0.61095221914E+02 -0.84026928533E+01  0.26684442353E+03  0.28408621165E+03  0.75470510092E+02 0.  0.
     200001    1    1    2    0    0  0.48751010494E+02  0.89262741371E+01 -0.64828052427E+03  0.89358434272E+03  0.61300000000E+03 0.  1.
         11    1    4    4    0    0 -0.71762885108E+01 -0.30826537703E+02  0.79307168308E+02  0.85389703646E+02  0.51100000000E-03 0.  1.
    -200002    1    4    4    0    0 -0.53918933403E+02  0.22423844850E+02  0.18753725522E+03  0.19869650801E+03  0.30000000000E+02 0.  1.
    -200000    1    3    3    0    0  0.12344211420E+02 -0.52358128383E+00 -0.31722554766E+03  0.33314516623E+03  0.10100000000E+03 0.  1.
<mgrwt>
<rscale>  0 0.13395656E+04</rscale>
<asrwt>0</asrwt>
<pdfrwt beam="1">  1        2 0.15781981E+00 0.13395656E+04</pdfrwt>
<pdfrwt beam="2">  1       -2 0.58011005E-01 0.13395656E+04</pdfrwt>
<totfact> 0.66047668E+01</totfact>
</mgrwt>
</event>
<event>
 8    2  0.7266322E-052  0.2382968E+04  0.7818608E-02  0.8445908E-01
         -2   -1    0    0    0  501 -0.00000000000E+00  0.00000000000E+00  0.44536323933E+03  0.44536323934E+03  0.25500000000E-02 0. -1.
          2   -1    0    0  501    0  0.00000000000E+00 -0.00000000000E+00 -0.31875858583E+04  0.31875858583E+04  0.25500000000E-02 0.  1.
    -200001    2    1    2    0    0  0.39218218707E+03  0.49448256551E+02 -0.28074299927E+04  0.29006424682E+04  0.61303471876E+03 0.  0.
   -5000001    2    3    3    0    0  0.26568031039E+03 -0.16691298484E+03 -0.23265913839E+04  0.23490795259E+04  0.81860732988E+02 0.  0.
     200001    1    1    2    0    0 -0.39218218707E+03 -0.49448256551E+02  0.65207373747E+02  0.73230662944E+03  0.61300000000E+03 0. -1.
         11    1    4    4    0    0  0.12323017119E+03 -0.92183329779E+02 -0.89105301774E+03  0.90424494569E+03  0.51100000000E-03 0.  1.
    -200002    1    4    4    0    0  0.14245013920E+03 -0.74729655065E+02 -0.14355383661E+04  0.14448345802E+04  0.30000000000E+02 0.  1.
    -200000    1    3    3    0    0  0.12650187668E+03  0.21636124140E+03 -0.48083860887E+03  0.55156294234E+03  0.10100000000E+03 0.  1.
<mgrwt>
<rscale>  0 0.23829675E+04</rscale>
<asrwt>0</asrwt>
<pdfrwt beam="1">  1        2 0.45536940E+00 0.23829675E+04</pdfrwt>
<pdfrwt beam="2">  1       -2 0.63623322E-01 0.23829675E+04</pdfrwt>
<totfact> 0.38155697E+00</totfact>
</mgrwt>
</event>
<event>
 8    2  0.7266322E-052  0.1725957E+04  0.7818608E-02  0.8746697E-01
          2   -1    0    0  501    0  0.00000000000E+00  0.00000000000E+00  0.24876778160E+04  0.24876778160E+04  0.25500000000E-02 0.  1.
         -2   -1    0    0    0  501 -0.00000000000E+00 -0.00000000000E+00 -0.29936834385E+03  0.29936834386E+03  0.25500000000E-02 0. -1.
    -200001    2    1    2    0    0  0.12609485914E+03  0.59455751682E+03  0.10741830783E+04  0.13776330991E+04  0.61204992917E+03 0.  0.
   -5000001    2    3    3    0    0  0.30877961144E+03  0.29147119397E+03  0.81439726586E+03  0.92716145056E+03  0.12682721869E+03 0.  0.
     200001    1    1    2    0    0 -0.12609485914E+03 -0.59455751682E+03  0.11141263938E+04  0.14094130607E+04  0.61300000000E+03 0.  1.
         11    1    4    4    0    0  0.29401504061E+03  0.23065234329E+03  0.69223178388E+03  0.78665760671E+03  0.51100000000E-03 0.  1.
    -200002    1    4    4    0    0  0.14764570829E+02  0.60818850679E+02  0.12216548198E+03  0.14050384385E+03  0.30000000000E+02 0. -1.
    -200000    1    3    3    0    0 -0.18268475230E+03  0.30308632285E+03  0.25978581244E+03  0.45047164857E+03  0.10100000000E+03 0. -1.
<mgrwt>
<rscale>  0 0.17259571E+04</rscale>
<asrwt>0</asrwt>
<pdfrwt beam="1">  1        2 0.35538255E+00 0.17259571E+04</pdfrwt>
<pdfrwt beam="2">  1       -2 0.42766905E-01 0.17259571E+04</pdfrwt>
<totfact> 0.22092906E+01</totfact>
</mgrwt>
</event>
<event>
 8    2  0.7266322E-052  0.1412556E+04  0.7818608E-02  0.8944780E-01
          2   -1    0    0  501    0  0.00000000000E+00  0.00000000000E+00  0.16905118786E+04  0.16905118786E+04  0.25500000000E-02 0.  1.
         -2   -1    0    0    0  501 -0.00000000000E+00 -0.00000000000E+00 -0.29507559571E+03  0.29507559573E+03  0.25500000000E-02 0. -1.
    -200001    2    1    2    0    0  0.25166731676E+02 -0.12443148877E+03  0.11565120050E+04  0.13155349612E+04  0.61399972035E+03 0.  0.
   -5000001    2    3    3    0    0  0.15331351237E+03 -0.31985656136E+03  0.78324940948E+03  0.86371804957E+03  0.81951075592E+02 0.  0.
     200001    1    1    2    0    0 -0.25166731676E+02  0.12443148877E+03  0.23892427784E+03  0.67005251311E+03  0.61300000000E+03 0. -1.
         11    1    4    4    0    0  0.94883061177E+02 -0.21734399759E+03  0.58262579886E+03  0.62904215287E+03  0.51100000000E-03 0.  1.
    -200002    1    4    4    0    0  0.58430451190E+02 -0.10251256377E+03  0.20062361062E+03  0.23467589670E+03  0.30000000000E+02 0.  1.
    -200000    1    3    3    0    0 -0.12814678069E+03  0.19542507259E+03  0.37326259556E+03  0.45181691164E+03  0.10100000000E+03 0. -1.
<mgrwt>
<rscale>  0 0.14125563E+04</rscale>
<asrwt>0</asrwt>
<pdfrwt beam="1">  1        2 0.24150170E+00 0.14125563E+04</pdfrwt>
<pdfrwt beam="2">  1       -2 0.42153657E-01 0.14125563E+04</pdfrwt>
<totfact> 0.60217674E+01</totfact>
</mgrwt>
</event>
<event>
 8    2  0.7266322E-052  0.1254266E+04  0.7818608E-02  0.9066640E-01
          2   -1    0    0  501    0  0.00000000000E+00  0.00000000000E+00  0.77764750056E+03  0.77764750056E+03  0.25500000000E-02 0.  1.
         -2   -1    0    0    0  501 -0.00000000000E+00 -0.00000000000E+00 -0.50575086728E+03  0.50575086729E+03  0.25500000000E-02 0. -1.
    -200001    2    1    2    0    0  0.10491153585E+03 -0.16789822643E+02  0.51635472976E+02  0.62341934755E+03  0.61212509533E+03 0.  0.
   -5000001    2    3    3    0    0  0.75275945134E+02  0.66476946469E+02  0.29683265872E+03  0.34389424497E+03  0.14166147012E+03 0.  0.
     200001    1    1    2    0    0 -0.10491153585E+03  0.16789822643E+02  0.22026116030E+03  0.65997902030E+03  0.61300000000E+03 0.  1.
         11    1    4    4    0    0 -0.25796999100E+02  0.61591858564E+02  0.13622051471E+03  0.15170718780E+03  0.51100000000E-03 0.  1.
    -200002    1    4    4    0    0  0.10107294423E+03  0.48850879047E+01  0.16061214401E+03  0.19218705717E+03  0.30000000000E+02 0.  1.
    -200000    1    3    3    0    0  0.29635590720E+02 -0.83266769111E+02 -0.24519718574E+03  0.27952510258E+03  0.10100000000E+03 0. -1.
<mgrwt>
<rscale>  0 0.12542662E+04</rscale>
<asrwt>0</asrwt>
<pdfrwt beam="1">  1        2 0.11109250E+00 0.12542662E+04</pdfrwt>
<pdfrwt beam="2">  1       -2 0.72250124E-01 0.12542662E+04</pdfrwt>
<totfact> 0.67313757E+01</totfact>
</mgrwt>
</event>
<event>
 8    2  0.7266322E-052  0.1310066E+04  0.7818608E-02  0.9021621E-01
          2   -1    0    0  501    0  0.00000000000E+00  0.00000000000E+00  0.64973363384E+03  0.64973363385E+03  0.25500000000E-02 0.  1.
         -2   -1    0    0    0  501 -0.00000000000E+00 -0.00000000000E+00 -0.66037523659E+03  0.66037523659E+03  0.25500000000E-02 0. -1.
    -200001    2    1    2    0    0  0.15728564481E+03  0.26638309235E+01 -0.17392170029E+03  0.65652241074E+03  0.61321044341E+03 0.  0.
   -5000001    2    3    3    0    0  0.30411793921E+03  0.11062665727E+03  0.65688618791E+02  0.33898532698E+03  0.76616440915E+02 0.  0.
     200001    1    1    2    0    0 -0.15728564481E+03 -0.26638309235E+01  0.16328009754E+03  0.65358645971E+03  0.61300000000E+03 0.  1.
         11    1    4    4    0    0  0.10809457459E+02  0.88794881947E+01 -0.10998602616E+02  0.17794913344E+02  0.51100000000E-03 0.  1.
    -200002    1    4    4    0    0  0.29330848175E+03  0.10174716908E+03  0.76687221407E+02  0.32119041364E+03  0.30000000000E+02 0.  1.
    -200000    1    3    3    0    0 -0.14683229440E+03 -0.10796282635E+03 -0.23961031908E+03  0.31753708376E+03  0.10100000000E+03 0.  1.
<mgrwt>
<rscale>  0 0.13100657E+04</rscale>
<asrwt>0</asrwt>
<pdfrwt beam="1">  1        2 0.92819091E-01 0.13100657E+04</pdfrwt>
<pdfrwt beam="2">  1       -2 0.94339319E-01 0.13100657E+04</pdfrwt>
<totfact> 0.45832580E+01</totfact>
</mgrwt>
</event>
<event>
 8    2  0.7266322E-052  0.1284526E+04  0.7818608E-02  0.9041927E-01
         -2   -1    0    0    0  501 -0.00000000000E+00  0.00000000000E+00  0.29663012646E+03  0.29663012647E+03  0.25500000000E-02 0. -1.
          2   -1    0    0  501    0  0.00000000000E+00 -0.00000000000E+00 -0.13906260328E+04  0.13906260328E+04  0.25500000000E-02 0.  1.
    -200001    2    1    2    0    0  0.68970240399E+02  0.11620442920E+03 -0.36837354679E+03  0.72779945254E+03  0.61297031716E+03 0.  0.
   -5000001    2    3    3    0    0  0.73493764071E+01 -0.76765526082E+02 -0.46330686578E+03  0.48234503809E+03  0.10980220655E+03 0.  0.
     200001    1    1    2    0    0 -0.68970240399E+02 -0.11620442920E+03 -0.72562235958E+03  0.95945670676E+03  0.61300000000E+03 0.  1.
         11    1    4    4    0    0  0.40644045041E+02 -0.79487178124E+02 -0.30954625147E+03  0.32216305139E+03  0.51100000000E-03 0.  1.
    -200002    1    4    4    0    0 -0.33294668634E+02  0.27216520426E+01 -0.15376061431E+03  0.16018198670E+03  0.30000000000E+02 0.  1.
    -200000    1    3    3    0    0  0.61620863992E+02  0.19296995528E+03  0.94933318991E+02  0.24545441446E+03  0.10100000000E+03 0. -1.
<mgrwt>
<rscale>  0 0.12845257E+04</rscale>
<asrwt>0</asrwt>
<pdfrwt beam="1">  1        2 0.19866086E+00 0.12845257E+04</pdfrwt>
<pdfrwt beam="2">  1       -2 0.42375733E-01 0.12845257E+04</pdfrwt>
<totfact> 0.86696599E+01</totfact>
</mgrwt>
</event>
<event>
 8    2  0.7266322E-052  0.1554608E+04  0.7818608E-02  0.8848930E-01
          2   -1    0    0  501    0  0.00000000000E+00  0.00000000000E+00  0.38721429048E+03  0.38721429049E+03  0.25500000000E-02 0.  1.
         -2   -1    0    0    0  501 -0.00000000000E+00 -0.00000000000E+00 -0.15603808074E+04  0.15603808074E+04  0.25500000000E-02 0. -1.
    -200001    2    1    2    0    0 -0.50936797172E+02 -0.14222751968E+03 -0.11546777909E+04  0.13159828295E+04  0.61294924917E+03 0.  0.
   -5000001    2    3    3    0    0  0.94871530293E+02 -0.16958971197E+03 -0.11110975199E+04  0.11312966147E+04  0.86793167243E+02 0.  0.
     200001    1    1    2    0    0  0.50936797172E+02  0.14222751968E+03 -0.18488726060E+02  0.63161226845E+03  0.61300000000E+03 0.  1.
         11    1    4    4    0    0  0.79317020965E+02 -0.15804880900E+03 -0.94518799576E+03  0.96158773035E+03  0.51100000000E-03 0.  1.
    -200002    1    4    4    0    0  0.15554509329E+02 -0.11540902978E+02 -0.16590952419E+03  0.16970888432E+03  0.30000000000E+02 0. -1.
    -200000    1    3    3    0    0 -0.14580832747E+03  0.27362192295E+02 -0.43580270950E+02  0.18468621481E+03  0.10100000000E+03 0.  1.
<mgrwt>
<rscale>  0 0.15546083E+04</rscale>
<asrwt>0</asrwt>
<pdfrwt beam="1">  1        2 0.55316328E-01 0.15546083E+04</pdfrwt>
<pdfrwt beam="2">  1       -2 0.22291154E+00 0.15546083E+04</pdfrwt>
<totfact> 0.81888484E+00</totfact>
</mgrwt>
</event>
<event>
 8    2  0.7266322E-052  0.1624891E+04  0.7818608E-02  0.8805401E-01
         -2   -1    0    0    0  501 -0.00000000000E+00  0.00000000000E+00  0.22648322834E+03  0.22648322836E+03  0.25500000000E-02 0. -1.
          2   -1    0    0  501    0  0.00000000000E+00 -0.00000000000E+00 -0.29144203757E+04  0.29144203757E+04  0.25500000000E-02 0.  1.
    -200001    2    1    2    0    0 -0.36033227873E+03  0.26281939290E+03 -0.19075976233E+04  0.20529641953E+04  0.61385658770E+03 0.  0.
   -5000001    2    3    3    0    0 -0.38311418940E+03  0.23782081077E+03 -0.18858345512E+04  0.19442509216E+04  0.14284422121E+03 0.  0.
     200001    1    1    2    0    0  0.36033227873E+03 -0.26281939290E+03 -0.78033952406E+03  0.10879394088E+04  0.61300000000E+03 0. -1.
         11    1    4    4    0    0 -0.79361759269E+02  0.36148260292E+02 -0.63676122319E+03  0.64270509638E+03  0.51100000000E-03 0.  1.
    -200002    1    4    4    0    0 -0.30375243013E+03  0.20167255048E+03 -0.12490733280E+04  0.13015458252E+04  0.30000000000E+02 0.  1.
    -200000    1    3    3    0    0  0.22781910670E+02  0.24998582129E+02 -0.21763072098E+02  0.10871327366E+03  0.10100000000E+03 0. -1.
<mgrwt>
<rscale>  0 0.16248906E+04</rscale>
<asrwt>0</asrwt>
<pdfrwt beam="1">  1        2 0.41634574E+00 0.16248906E+04</pdfrwt>
<pdfrwt beam="2">  1       -2 0.32354749E-01 0.16248906E+04</pdfrwt>
<totfact> 0.22529266E+01</totfact>
</mgrwt>
</event>
<event>
 8    2  0.7266322E-052  0.2243956E+04  0.7818608E-02  0.8500352E-01
          2   -1    0    0  501    0  0.00000000000E+00  0.00000000000E+00  0.31688372097E+04  0.31688372097E+04  0.25500000000E-02 0.  1.
         -2   -1    0    0    0  501 -0.00000000000E+00 -0.00000000000E+00 -0.39725460833E+03  0.39725460833E+03  0.25500000000E-02 0. -1.
    -200001    2    1    2    0    0 -0.40896331367E+03  0.84483241152E+03  0.14499418244E+04  0.18330320560E+04  0.61374459564E+03 0.  0.
   -5000001    2    3    3    0    0 -0.47078336406E+03  0.79071557529E+03  0.13353618384E+04  0.16595964086E+04  0.35242148501E+03 0.  0.
     200001    1    1    2    0    0  0.40896331367E+03 -0.84483241152E+03  0.13216407771E+04  0.17330597621E+04  0.61300000000E+03 0. -1.
         11    1    4    4    0    0 -0.33644607823E+03  0.73195824460E+03  0.94638470064E+03  0.12428205168E+04  0.51100000000E-03 0.  1.
    -200002    1    4    4    0    0 -0.13433728583E+03  0.58757330692E+02  0.38897713779E+03  0.41677589182E+03  0.30000000000E+02 0.  1.
    -200000    1    3    3    0    0  0.61820050383E+02  0.54116836231E+02  0.11457998592E+03  0.17343564734E+03  0.10100000000E+03 0. -1.
<mgrwt>
<rscale>  0 0.22439565E+04</rscale>
<asrwt>0</asrwt>
<pdfrwt beam="1">  1        2 0.45269104E+00 0.22439565E+04</pdfrwt>
<pdfrwt beam="2">  1       -2 0.56750658E-01 0.22439565E+04</pdfrwt>
<totfact> 0.50398919E+00</totfact>
</mgrwt>
</event>
<event>
 8    2  0.7266322E-052  0.1449667E+04  0.7818608E-02  0.8918632E-01
          2   -1    0    0  501    0  0.00000000000E+00  0.00000000000E+00  0.28070984602E+03  0.28070984603E+03  0.25500000000E-02 0.  1.
         -2   -1    0    0    0  501 -0.00000000000E+00 -0.00000000000E+00 -0.18716240170E+04  0.18716240170E+04  0.25500000000E-02 0. -1.
    -200001    2    1    2    0    0  0.38331414699E+03  0.41280246332E+02 -0.71884147722E+03  0.10187935782E+04  0.61038798456E+03 0.  0.
   -5000001    2    3    3    0    0  0.45684017530E+03 -0.25424123715E+02 -0.74341384430E+03  0.87505648823E+03  0.60912903899E+02 0.  0.
     200001    1    1    2    0    0 -0.38331414699E+03 -0.41280246332E+02 -0.87207269372E+03  0.11335402848E+04  0.61300000000E+03 0. -1.
         11    1    4    4    0    0  0.14922710085E+03  0.95254248209E+01 -0.21481786707E+03  0.26173684754E+03  0.51100000000E-03 0.  1.
    -200002    1    4    4    0    0  0.30761307446E+03 -0.34949548536E+02 -0.52859597723E+03  0.61331964069E+03  0.30000000000E+02 0.  1.
    -200000    1    3    3    0    0 -0.73526028318E+02  0.66704370047E+02  0.24572367078E+02  0.14373709002E+03  0.10100000000E+03 0.  1.
<mgrwt>
<rscale>  0 0.14496666E+04</rscale>
<asrwt>0</asrwt>
<pdfrwt beam="1">  1        2 0.40101408E-01 0.14496666E+04</pdfrwt>
<pdfrwt beam="2">  1       -2 0.26737485E+00 0.14496666E+04</pdfrwt>
<totfact> 0.62885245E+00</totfact>
</mgrwt>
</event>
<event>
 8    2  0.7266322E-052  0.1551934E+04  0.7818608E-02  0.8850633E-01
          2   -1    0    0  501    0  0.00000000000E+00  0.00000000000E+00  0.25464174369E+04  0.25464174369E+04  0.25500000000E-02 0.  1.
         -2   -1    0    0    0  501 -0.00000000000E+00 -0.00000000000E+00 -0.23645968417E+03  0.23645968419E+03  0.25500000000E-02 0. -1.
    -200001    2    1    2    0    0 -0.30181710127E+03 -0.32262166882E+03  0.14721849109E+04  0.16546880242E+04  0.61276891388E+03 0.  0.
   -5000001    2    3    3    0    0 -0.23678557036E+03 -0.35501869629E+03  0.48337818739E+03  0.65808459063E+03  0.13158713971E+03 0.  0.
     200001    1    1    2    0    0  0.30181710127E+03  0.32262166882E+03  0.83777284190E+03  0.11281890969E+04  0.61300000000E+03 0.  1.
         11    1    4    4    0    0 -0.11028566444E+03 -0.63344784345E+02  0.14196945649E+03  0.19060644286E+03  0.51100000000E-03 0.  1.
    -200002    1    4    4    0    0 -0.12649990592E+03 -0.29167391194E+03  0.34140873090E+03  0.46747814777E+03  0.30000000000E+02 0.  1.
    -200000    1    3    3    0    0 -0.65031530909E+02  0.32397027463E+02  0.98880672346E+03  0.99660343355E+03  0.10100000000E+03 0.  1.
<mgrwt>
<rscale>  0 0.15519344E+04</rscale>
<asrwt>0</asrwt>
<pdfrwt beam="1">  1        2 0.36377389E+00 0.15519344E+04</pdfrwt>
<pdfrwt beam="2">  1       -2 0.33779957E-01 0.15519344E+04</pdfrwt>
<totfact> 0.32970791E+01</totfact>
</mgrwt>
</event>
<event>
 8    2  0.7266322E-052  0.2040608E+04  0.7818608E-02  0.8587867E-01
         -2   -1    0    0    0  501 -0.00000000000E+00  0.00000000000E+00  0.90659926255E+03  0.90659926255E+03  0.25500000000E-02 0. -1.
          2   -1    0    0  501    0  0.00000000000E+00 -0.00000000000E+00 -0.11482693515E+04  0.11482693515E+04  0.25500000000E-02 0.  1.
    -200001    2    1    2    0    0  0.37984480532E+03 -0.66756799705E+03 -0.39751789354E+03  0.10598878881E+04  0.61270935437E+03 0.  0.
   -5000001    2    3    3    0    0  0.13260192998E+03 -0.69611883278E+03 -0.30319260157E+03  0.77520833086E+03  0.82810032022E+02 0.  0.
     200001    1    1    2    0    0 -0.37984480532E+03  0.66756799705E+03  0.15584780455E+03  0.99498072594E+03  0.61300000000E+03 0. -1.
         11    1    4    4    0    0  0.11864414720E+03 -0.48081358375E+03 -0.19870716212E+03  0.53361284866E+03  0.51100000000E-03 0.  1.
    -200002    1    4    4    0    0  0.13957782782E+02 -0.21530524903E+03 -0.10448543945E+03  0.24159548220E+03  0.30000000000E+02 0. -1.
    -200000    1    3    3    0    0  0.24724287534E+03  0.28550835731E+02 -0.94325291965E+02  0.28467955728E+03  0.10100000000E+03 0. -1.
<mgrwt>
<rscale>  0 0.20406079E+04</rscale>
<asrwt>0</asrwt>
<pdfrwt beam="1">  1        2 0.16403848E+00 0.20406079E+04</pdfrwt>
<pdfrwt beam="2">  1       -2 0.12951418E+00 0.20406079E+04</pdfrwt>
<totfact> 0.93323354E+00</totfact>
</mgrwt>
</event>
<event>
 8    2  0.7266322E-052  0.1610250E+04  0.7818608E-02  0.8814276E-01
         -2   -1    0    0    0  501 -0.00000000000E+00  0.00000000000E+00  0.15184444114E+04  0.15184444114E+04  0.25500000000E-02 0. -1.
          2   -1    0    0  501    0  0.00000000000E+00 -0.00000000000E+00 -0.42690129792E+03  0.42690129793E+03  0.25500000000E-02 0.  1.
    -200001    2    1    2    0    0 -0.17673825122E+03 -0.12932082042E+03  0.11174544838E+04  0.12938852860E+04  0.61438939279E+03 0.  0.
   -5000001    2    3    3    0    0  0.15770072387E+03 -0.22504344020E+03  0.56676329631E+03  0.63473884404E+03  0.78477371257E+02 0.  0.
     200001    1    1    2    0    0  0.17673825122E+03  0.12932082042E+03 -0.25911370311E+02  0.65146042332E+03  0.61300000000E+03 0.  1.
         11    1    4    4    0    0  0.71889584165E+02 -0.15298221852E+03  0.31322927378E+03  0.35592730922E+03  0.51100000000E-03 0.  1.
    -200002    1    4    4    0    0  0.85811139702E+02 -0.72061221681E+02  0.25353402254E+03  0.27881153482E+03  0.30000000000E+02 0. -1.
    -200000    1    3    3    0    0 -0.33443897509E+03  0.95722619788E+02  0.55069118750E+03  0.65914644199E+03  0.10100000000E+03 0. -1.
<mgrwt>
<rscale>  0 0.16102495E+04</rscale>
<asrwt>0</asrwt>
<pdfrwt beam="1">  1        2 0.60985899E-01 0.16102495E+04</pdfrwt>
<pdfrwt beam="2">  1       -2 0.21692063E+00 0.16102495E+04</pdfrwt>
<totfact> 0.79749079E+00</totfact>
</mgrwt>
</event>
<event>
 8    2  0.7266322E-052  0.1790558E+04  0.7818608E-02  0.8711337E-01
          2   -1    0    0  501    0  0.00000000000E+00  0.00000000000E+00  0.35551363825E+04  0.35551363825E+04  0.25500000000E-02 0.  1.
         -2   -1    0    0    0  501 -0.00000000000E+00 -0.00000000000E+00 -0.22545537029E+03  0.22545537031E+03  0.25500000000E-02 0. -1.
    -200001    2    1    2    0    0 -0.26118995511E+03  0.28593555632E+03  0.27773111843E+04  0.28690761129E+04  0.60676271500E+03 0.  0.
   -5000001    2    3    3    0    0  0.11347207048E+02 -0.82871180153E+02  0.13026717191E+04  0.13214787926E+04  0.20580621925E+03 0.  0.
     200001    1    1    2    0    0  0.26118995511E+03 -0.28593555632E+03  0.55236982798E+03  0.91151563995E+03  0.61300000000E+03 0. -1.
         11    1    4    4    0    0  0.80140094757E+02  0.73862316142E+01  0.85121827243E+03  0.85501434990E+03  0.51100000000E-03 0.  1.
    -200002    1    4    4    0    0 -0.68792887709E+02 -0.90257411767E+02  0.45145344667E+03  0.46646444269E+03  0.30000000000E+02 0.  1.
    -200000    1    3    3    0    0 -0.27253716216E+03  0.36880673647E+03  0.14746394652E+04  0.15475973203E+04  0.10100000000E+03 0.  1.
<mgrwt>
<rscale>  0 0.17905581E+04</rscale>
<asrwt>0</asrwt>
<pdfrwt beam="1">  1        2 0.50787662E+00 0.17905581E+04</pdfrwt>
<pdfrwt beam="2">  1       -2 0.32207910E-01 0.17905581E+04</pdfrwt>
<totfact> 0.95055685E+00</totfact>
</mgrwt>
</event>
<event>
 8    2  0.7266322E-052  0.1499401E+04  0.7818608E-02  0.8884851E-01
         -2   -1    0    0    0  501 -0.00000000000E+00  0.00000000000E+00  0.20868635905E+03  0.20868635906E+03  0.25500000000E-02 0. -1.
          2   -1    0    0  501    0  0.00000000000E+00 -0.00000000000E+00 -0.26932805979E+04  0.26932805979E+04  0.25500000000E-02 0.  1.
    -200001    2    1    2    0    0 -0.35986941349E+03 -0.22082704790E+03 -0.14191263825E+04  0.16022510908E+04  0.61238736809E+03 0.  0.
   -5000001    2    3    3    0    0 -0.19031774932E+03 -0.40636311642E+03 -0.74025826040E+03  0.87133773975E+03  0.99475306105E+02 0.  0.
     200001    1    1    2    0    0  0.35986941349E+03  0.22082704790E+03 -0.10654678564E+04  0.12997158662E+04  0.61300000000E+03 0. -1.
         11    1    4    4    0    0  0.32971085994E+01 -0.36058896666E+02 -0.31364763494E+02  0.47904731950E+02  0.51100000000E-03 0.  1.
    -200002    1    4    4    0    0 -0.19361485792E+03 -0.37030421975E+03 -0.70889349691E+03  0.82343300780E+03  0.30000000000E+02 0.  1.
    -200000    1    3    3    0    0 -0.16955166417E+03  0.18553606851E+03 -0.67886812211E+03  0.73091335106E+03  0.10100000000E+03 0.  1.
<mgrwt>
<rscale>  0 0.14994011E+04</rscale>
<asrwt>0</asrwt>
<pdfrwt beam="1">  1        2 0.38475435E+00 0.14994011E+04</pdfrwt>
<pdfrwt beam="2">  1       -2 0.29812339E-01 0.14994011E+04</pdfrwt>
<totfact> 0.34996748E+01</totfact>
</mgrwt>
</event>
<event>
 8    2  0.7266322E-052  0.1386600E+04  0.7818608E-02  0.8963576E-01
         -2   -1    0    0    0  501 -0.00000000000E+00  0.00000000000E+00  0.35262666352E+03  0.35262666353E+03  0.25500000000E-02 0. -1.
          2   -1    0    0  501    0  0.00000000000E+00 -0.00000000000E+00 -0.13630985851E+04  0.13630985851E+04  0.25500000000E-02 0.  1.
    -200001    2    1    2    0    0  0.12564212918E+03 -0.26946658198E+03 -0.66652429639E+03  0.95252989206E+03  0.61209506954E+03 0.  0.
   -5000001    2    3    3    0    0  0.35526769018E+03 -0.99065331745E+02 -0.36736656233E+03  0.52654769267E+03  0.79153078874E+02 0.  0.
     200001    1    1    2    0    0 -0.12564212918E+03  0.26946658198E+03 -0.34394762520E+03  0.76319535658E+03  0.61300000000E+03 0. -1.
         11    1    4    4    0    0  0.24399983418E+03 -0.40300287406E+02 -0.22748159056E+03  0.33601771722E+03  0.51100000000E-03 0.  1.
    -200002    1    4    4    0    0  0.11126785600E+03 -0.58765044339E+02 -0.13988497177E+03  0.19052997544E+03  0.30000000000E+02 0. -1.
    -200000    1    3    3    0    0 -0.22962556101E+03 -0.17040125023E+03 -0.29915773407E+03  0.42598219939E+03  0.10100000000E+03 0.  1.
<mgrwt>
<rscale>  0 0.13866000E+04</rscale>
<asrwt>0</asrwt>
<pdfrwt beam="1">  1        2 0.19472837E+00 0.13866000E+04</pdfrwt>
<pdfrwt beam="2">  1       -2 0.50375238E-01 0.13866000E+04</pdfrwt>
<totfact> 0.62966801E+01</totfact>
</mgrwt>
</event>
<event>
 8    2  0.7266322E-052  0.2016077E+04  0.7818608E-02  0.8599141E-01
          2   -1    0    0  501    0  0.00000000000E+00  0.00000000000E+00  0.19633253323E+04  0.19633253323E+04  0.25500000000E-02 0.  1.
         -2   -1    0    0    0  501 -0.00000000000E+00 -0.00000000000E+00 -0.51756173303E+03  0.51756173303E+03  0.25500000000E-02 0. -1.
    -200001    2    1    2    0    0  0.54329329213E+03  0.42381124580E+03  0.12238093384E+04  0.15323006079E+04  0.61274161173E+03 0.  0.
   -5000001    2    3    3    0    0  0.30236696205E+03  0.35261263116E+03  0.11634049820E+04  0.12548759775E+04  0.73763944028E+02 0.  0.
     200001    1    1    2    0    0 -0.54329329213E+03 -0.42381124580E+03  0.22195426084E+03  0.94858645744E+03  0.61300000000E+03 0. -1.
         11    1    4    4    0    0  0.12362406421E+03  0.18775090232E+03  0.58616392693E+03  0.62779093638E+03  0.51100000000E-03 0.  1.
    -200002    1    4    4    0    0  0.17874289784E+03  0.16486172884E+03  0.57724105506E+03  0.62708504113E+03  0.30000000000E+02 0.  1.
    -200000    1    3    3    0    0  0.24092633008E+03  0.71198614641E+02  0.60404356426E+02  0.27742463035E+03  0.10100000000E+03 0.  1.
<mgrwt>
<rscale>  0 0.20160774E+04</rscale>
<asrwt>0</asrwt>
<pdfrwt beam="1">  1        2 0.28047506E+00 0.20160774E+04</pdfrwt>
<pdfrwt beam="2">  1       -2 0.73937388E-01 0.20160774E+04</pdfrwt>
<totfact> 0.12863700E+01</totfact>
</mgrwt>
</event>
<event>
 8    2  0.7266322E-052  0.1243681E+04  0.7818608E-02  0.9075459E-01
         -2   -1    0    0    0  501 -0.00000000000E+00  0.00000000000E+00  0.66228588447E+03  0.66228588448E+03  0.25500000000E-02 0. -1.
          2   -1    0    0  501    0  0.00000000000E+00 -0.00000000000E+00 -0.58386516102E+03  0.58386516102E+03  0.25500000000E-02 0.  1.
    -200001    2    1    2    0    0 -0.27042302177E+02 -0.10109302863E+03  0.39242590014E+02  0.62304991993E+03  0.61294382721E+03 0.  0.
   -5000001    2    3    3    0    0 -0.15875450591E+03 -0.77810812690E+02  0.26144531643E+03  0.34472417945E+03  0.13864916406E+03 0.  0.
     200001    1    1    2    0    0  0.27042302177E+02  0.10109302863E+03  0.39178133440E+02  0.62310112557E+03  0.61300000000E+03 0. -1.
         11    1    4    4    0    0 -0.19516073882E+02 -0.95823012734E+01 -0.14952853113E+02  0.26387221414E+02  0.51100000000E-03 0.  1.
    -200002    1    4    4    0    0 -0.13923843203E+03 -0.68228511417E+02  0.27639816954E+03  0.31833695803E+03  0.30000000000E+02 0.  1.
    -200000    1    3    3    0    0  0.13171220373E+03 -0.23282215943E+02 -0.22220272641E+03  0.27832574049E+03  0.10100000000E+03 0.  1.
<mgrwt>
<rscale>  0 0.12436811E+04</rscale>
<asrwt>0</asrwt>
<pdfrwt beam="1">  1        2 0.83409308E-01 0.12436811E+04</pdfrwt>
<pdfrwt beam="2">  1       -2 0.94612270E-01 0.12436811E+04</pdfrwt>
<totfact> 0.51962785E+01</totfact>
</mgrwt>
</event>
<event>
 8    2  0.7266322E-052  0.1445753E+04  0.7818608E-02  0.8921350E-01
         -2   -1    0    0    0  501 -0.00000000000E+00  0.00000000000E+00  0.24950261909E+03  0.24950261911E+03  0.25500000000E-02 0. -1.
          2   -1    0    0  501    0  0.00000000000E+00 -0.00000000000E+00 -0.20943672667E+04  0.20943672667E+04  0.25500000000E-02 0.  1.
    -200001    2    1    2    0    0 -0.18460590210E+03 -0.30702431434E+03 -0.11714065719E+04  0.13652698406E+04  0.60284750345E+03 0.  0.
   -5000001    2    3    3    0    0 -0.34701631081E+03 -0.91378104982E+02 -0.88836256697E+03  0.96129541423E+03  0.78297796870E+02 0.  0.
     200001    1    1    2    0    0  0.18460590210E+03  0.30702431434E+03 -0.67345807580E+03  0.97860004524E+03  0.61300000000E+03 0. -1.
         11    1    4    4    0    0 -0.29082218162E+03 -0.81503652634E+02 -0.70667766801E+03  0.76851396421E+03  0.51100000000E-03 0.  1.
    -200002    1    4    4    0    0 -0.56194129185E+02 -0.98744523476E+01 -0.18168489896E+03  0.19278145002E+03  0.30000000000E+02 0. -1.
    -200000    1    3    3    0    0  0.16241040871E+03 -0.21564620936E+03 -0.28304400489E+03  0.40397442638E+03  0.10100000000E+03 0.  1.
<mgrwt>
<rscale>  0 0.14457526E+04</rscale>
<asrwt>0</asrwt>
<pdfrwt beam="1">  1        2 0.29919531E+00 0.14457526E+04</pdfrwt>
<pdfrwt beam="2">  1       -2 0.35643233E-01 0.14457526E+04</pdfrwt>
<totfact> 0.51542569E+01</totfact>
</mgrwt>
</event>
<event>
 8    2  0.7266322E-052  0.1302157E+04  0.7818608E-02  0.9027856E-01
          2   -1    0    0  501    0  0.00000000000E+00  0.00000000000E+00  0.23832463900E+04  0.23832463900E+04  0.25500000000E-02 0.  1.
         -2   -1    0    0    0  501 -0.00000000000E+00 -0.00000000000E+00 -0.17786798671E+03  0.17786798673E+03  0.25500000000E-02 0. -1.
    -200001    2    1    2    0    0  0.17758048431E+03  0.13110599289E+03  0.10230268821E+04  0.12111337364E+04  0.60953860910E+03 0.  0.
   -5000001    2    3    3    0    0  0.16780290929E+03  0.30432245683E+01  0.42296757652E+03  0.58922711646E+03  0.37432598950E+03 0.  0.
     200001    1    1    2    0    0 -0.17758048431E+03 -0.13110599289E+03  0.11823515211E+04  0.13499806403E+04  0.61300000000E+03 0. -1.
         11    1    4    4    0    0  0.65822856417E+02 -0.98615163056E+02 -0.21992083307E+02  0.12058710769E+03  0.51100000000E-03 0.  1.
    -200002    1    4    4    0    0  0.10198005287E+03  0.10165838762E+03  0.44495965982E+03  0.46864000878E+03  0.30000000000E+02 0.  1.
    -200000    1    3    3    0    0  0.97775750271E+01  0.12806276833E+03  0.60005930563E+03  0.62190661990E+03  0.10100000000E+03 0.  1.
<mgrwt>
<rscale>  0 0.13021570E+04</rscale>
<asrwt>0</asrwt>
<pdfrwt beam="1">  1        2 0.34046376E+00 0.13021570E+04</pdfrwt>
<pdfrwt beam="2">  1       -2 0.25409713E-01 0.13021570E+04</pdfrwt>
<totfact> 0.69501591E+01</totfact>
</mgrwt>
</event>
<event>
 8    2  0.7266322E-052  0.1232644E+04  0.7818608E-02  0.9084754E-01
          2   -1    0    0  501    0  0.00000000000E+00  0.00000000000E+00  0.27435231983E+03  0.27435231985E+03  0.25500000000E-02 0.  1.
         -2   -1    0    0    0  501 -0.00000000000E+00 -0.00000000000E+00 -0.13845436819E+04  0.13845436819E+04  0.25500000000E-02 0. -1.
    -200001    2    1    2    0    0  0.39547736714E+02  0.10959329200E+02 -0.62487840763E+03  0.87596446315E+03  0.61250027430E+03 0.  0.
   -5000001    2    3    3    0    0 -0.89795327989E+02  0.12436437282E+03 -0.65035881089E+03  0.67486602145E+03  0.94593159639E+02 0.  0.
     200001    1    1    2    0    0 -0.39547736714E+02 -0.10959329200E+02 -0.48531295443E+03  0.78293153859E+03  0.61300000000E+03 0.  1.
         11    1    4    4    0    0 -0.74413626775E+02  0.60021895687E+02 -0.48381217449E+03  0.49316755368E+03  0.51100000000E-03 0.  1.
    -200002    1    4    4    0    0 -0.15381701214E+02  0.64342477136E+02 -0.16654663639E+03  0.18169846777E+03  0.30000000000E+02 0.  1.
    -200000    1    3    3    0    0  0.12934306470E+03 -0.11340504362E+03  0.25480403260E+02  0.20109844171E+03  0.10100000000E+03 0.  1.
<mgrwt>
<rscale>  0 0.12326439E+04</rscale>
<asrwt>0</asrwt>
<pdfrwt beam="1">  1        2 0.39193189E-01 0.12326439E+04</pdfrwt>
<pdfrwt beam="2">  1       -2 0.19779195E+00 0.12326439E+04</pdfrwt>
<totfact> 0.17855222E+01</totfact>
</mgrwt>
</event>
<event>
 8    2  0.7266322E-052  0.1535117E+04  0.7818608E-02  0.8861430E-01
          2   -1    0    0  501    0  0.00000000000E+00  0.00000000000E+00  0.28056634003E+04  0.28056634003E+04  0.25500000000E-02 0.  1.
         -2   -1    0    0    0  501 -0.00000000000E+00 -0.00000000000E+00 -0.20998463945E+03  0.20998463947E+03  0.25500000000E-02 0. -1.
    -200001    2    1    2    0    0 -0.68746242270E+02  0.44520052741E+03  0.14961874843E+04  0.16786440672E+04  0.61346504446E+03 0.  0.
   -5000001    2    3    3    0    0 -0.23563932540E+03  0.42253784490E+03  0.67929106413E+03  0.83847285866E+03  0.86811651643E+02 0.  0.
     200001    1    1    2    0    0  0.68746242270E+02 -0.44520052741E+03  0.10994912765E+04  0.13370039725E+04  0.61300000000E+03 0. -1.
         11    1    4    4    0    0 -0.10999112754E+02  0.10277877862E+01  0.29224443339E+02  0.31242677828E+02  0.51100000000E-03 0.  1.
    -200002    1    4    4    0    0 -0.22464021265E+03  0.42151005712E+03  0.65006662079E+03  0.80723018083E+03  0.30000000000E+02 0.  1.
    -200000    1    3    3    0    0  0.16689308313E+03  0.22662682505E+02  0.81689642019E+03  0.84017120856E+03  0.10100000000E+03 0.  1.
<mgrwt>
<rscale>  0 0.15351172E+04</rscale>
<asrwt>0</asrwt>
<pdfrwt beam="1">  1        2 0.40080909E+00 0.15351172E+04</pdfrwt>
<pdfrwt beam="2">  1       -2 0.29997803E-01 0.15351172E+04</pdfrwt>
<totfact> 0.30000232E+01</totfact>
</mgrwt>
</event>
<event>
 8    2  0.7266322E-052  0.2122520E+04  0.7818608E-02  0.8551388E-01
         -2   -1    0    0    0  501 -0.00000000000E+00  0.00000000000E+00  0.14558663233E+04  0.14558663233E+04  0.25500000000E-02 0. -1.
          2   -1    0    0  501    0  0.00000000000E+00 -0.00000000000E+00 -0.77360971037E+03  0.77360971038E+03  0.25500000000E-02 0.  1.
    -200001    2    1    2    0    0 -0.24262709530E+03  0.43987025301E+03 -0.39989454713E+03  0.88814315924E+03  0.61361948764E+03 0.  0.
   -5000001    2    3    3    0    0 -0.17840885627E+03  0.49189179133E+03 -0.49806634013E+03  0.72483693273E+03  0.59424283821E+02 0.  0.
     200001    1    1    2    0    0  0.24262709530E+03 -0.43987025301E+03  0.10821511601E+04  0.13413328744E+04  0.61300000000E+03 0. -1.
         11    1    4    4    0    0 -0.24854656404E+02  0.38036004241E+02 -0.57191715311E+02  0.73043712009E+02  0.51100000000E-03 0.  1.
    -200002    1    4    4    0    0 -0.15355419987E+03  0.45385578709E+03 -0.44087462482E+03  0.65179322072E+03  0.30000000000E+02 0.  1.
    -200000    1    3    3    0    0 -0.64218239032E+02 -0.52021538314E+02  0.98171793006E+02  0.16330622650E+03  0.10100000000E+03 0. -1.
<mgrwt>
<rscale>  0 0.21225196E+04</rscale>
<asrwt>0</asrwt>
<pdfrwt beam="1">  1        2 0.11051567E+00 0.21225196E+04</pdfrwt>
<pdfrwt beam="2">  1       -2 0.20798090E+00 0.21225196E+04</pdfrwt>
<totfact> 0.43227654E+00</totfact>
</mgrwt>
</event>
<event>
 8    2  0.7266322E-052  0.1920475E+04  0.7818608E-02  0.8644731E-01
         -2   -1    0    0    0  501 -0.00000000000E+00  0.00000000000E+00  0.19395332730E+04  0.19395332730E+04  0.25500000000E-02 0. -1.
          2   -1    0    0  501    0  0.00000000000E+00 -0.00000000000E+00 -0.47540092745E+03  0.47540092746E+03  0.25500000000E-02 0.  1.
    -200001    2    1    2    0    0  0.70299897612E+03 -0.22829320306E+03  0.77478440407E+03  0.12328618967E+04  0.61100919506E+03 0.  0.
   -5000001    2    3    3    0    0  0.27077027095E+03  0.66698040124E+02 -0.49699490444E+01  0.28837296695E+03  0.73274139312E+02 0.  0.
     200001    1    1    2    0    0 -0.70299897612E+03  0.22829320306E+03  0.68934794145E+03  0.11820723038E+04  0.61300000000E+03 0.  1.
         11    1    4    4    0    0  0.86816259125E+02  0.31114549770E+01 -0.25071251262E+02  0.90417429961E+02  0.51100000000E-03 0.  1.
    -200002    1    4    4    0    0  0.18395401182E+03  0.63586585147E+02  0.20101302218E+02  0.19795553699E+03  0.30000000000E+02 0.  1.
    -200000    1    3    3    0    0  0.43222870517E+03 -0.29499124318E+03  0.77975435312E+03  0.94448892970E+03  0.10100000000E+03 0. -1.
<mgrwt>
<rscale>  0 0.19204749E+04</rscale>
<asrwt>0</asrwt>
<pdfrwt beam="1">  1        2 0.67914417E-01 0.19204749E+04</pdfrwt>
<pdfrwt beam="2">  1       -2 0.27707619E+00 0.19204749E+04</pdfrwt>
<totfact> 0.29292425E+00</totfact>
</mgrwt>
</event>
<event>
 8    2  0.7266322E-052  0.1244414E+04  0.7818608E-02  0.9074845E-01
          2   -1    0    0  501    0  0.00000000000E+00  0.00000000000E+00  0.39301219249E+04  0.39301219249E+04  0.25500000000E-02 0. -1.
         -2   -1    0    0    0  501 -0.00000000000E+00 -0.00000000000E+00 -0.98506309073E+02  0.98506309106E+02  0.25500000000E-02 0.  1.
    -200001    2    1    2    0    0 -0.44512194880E+02 -0.58001848461E+02  0.21684209152E+04  0.22545563183E+04  0.61288610441E+03 0.  0.
   -5000001    2    3    3    0    0  0.23393290287E+03 -0.59002391357E+02  0.52135548900E+03  0.58106948186E+03  0.87317304179E+02 0.  0.
     200001    1    1    2    0    0  0.44512194880E+02  0.58001848461E+02  0.16631947006E+04  0.17740719157E+04  0.61300000000E+03 0.  1.
         11    1    4    4    0    0  0.47656402245E+02 -0.45759875725E+01  0.44496638756E+02  0.65360716016E+02  0.51100000000E-03 0.  1.
    -200002    1    4    4    0    0  0.18627650062E+03 -0.54426403784E+02  0.47685885025E+03  0.51570876584E+03  0.30000000000E+02 0.  1.
    -200000    1    3    3    0    0 -0.27844509775E+03  0.10005428952E+01  0.16470654262E+04  0.16734868364E+04  0.10100000000E+03 0. -1.
<mgrwt>
<rscale>  0 0.12444144E+04</rscale>
<asrwt>0</asrwt>
<pdfrwt beam="1">  1        2 0.56144604E+00 0.12444144E+04</pdfrwt>
<pdfrwt beam="2">  1       -2 0.14072329E-01 0.12444144E+04</pdfrwt>
<totfact> 0.25182083E+01</totfact>
</mgrwt>
</event>
<event>
 8    2  0.7266322E-052  0.1488438E+04  0.7818608E-02  0.8892178E-01
         -2   -1    0    0    0  501 -0.00000000000E+00  0.00000000000E+00  0.31288521746E+03  0.31288521747E+03  0.25500000000E-02 0. -1.
          2   -1    0    0  501    0  0.00000000000E+00 -0.00000000000E+00 -0.17701765714E+04  0.17701765714E+04  0.25500000000E-02 0.  1.
    -200001    2    1    2    0    0  0.36624221448E+03 -0.13950978532E+03 -0.52369959186E+03  0.89944068477E+03  0.61736208422E+03 0.  0.
   -5000001    2    3    3    0    0 -0.12183130931E+03 -0.42458856647E+02 -0.31334234308E+03  0.34981734147E+03  0.86851171499E+02 0.  0.
     200001    1    1    2    0    0 -0.36624221448E+03  0.13950978532E+03 -0.93359176208E+03  0.11836211041E+04  0.61300000000E+03 0.  1.
         11    1    4    4    0    0  0.55800829209E+01 -0.11869223630E+02 -0.75381276780E+02  0.76513741800E+02  0.51100000000E-03 0.  1.
    -200002    1    4    4    0    0 -0.12741139223E+03 -0.30589633017E+02 -0.23796106630E+03  0.27330359967E+03  0.30000000000E+02 0.  1.
    -200000    1    3    3    0    0  0.48807352379E+03 -0.97050928677E+02 -0.21035724878E+03  0.54962334330E+03  0.10100000000E+03 0. -1.
<mgrwt>
<rscale>  0 0.14884382E+04</rscale>
<asrwt>0</asrwt>
<pdfrwt beam="1">  1        2 0.25288236E+00 0.14884382E+04</pdfrwt>
<pdfrwt beam="2">  1       -2 0.44697889E-01 0.14884382E+04</pdfrwt>
<totfact> 0.48464939E+01</totfact>
</mgrwt>
</event>
<event>
 8    2  0.7266322E-052  0.1530616E+04  0.7818608E-02  0.8864345E-01
         -2   -1    0    0    0  501 -0.00000000000E+00  0.00000000000E+00  0.22224248510E+03  0.22224248512E+03  0.25500000000E-02 0. -1.
          2   -1    0    0  501    0  0.00000000000E+00 -0.00000000000E+00 -0.26353933176E+04  0.26353933176E+04  0.25500000000E-02 0.  1.
    -200001    2    1    2    0    0 -0.60221643496E+01 -0.39812816444E+03 -0.78517577413E+03  0.10730870944E+04  0.61357364191E+03 0.  0.
   -5000001    2    3    3    0    0  0.27258523844E+03 -0.88931561282E+02 -0.33582097284E+03  0.45232517404E+03  0.98034700308E+02 0.  0.
     200001    1    1    2    0    0  0.60221643496E+01  0.39812816444E+03 -0.16279750584E+04  0.17845487083E+04  0.61300000000E+03 0.  1.
         11    1    4    4    0    0  0.80095748720E+02 -0.68194978926E+02 -0.93744963414E+02  0.14090423088E+03  0.51100000000E-03 0.  1.
    -200002    1    4    4    0    0  0.19248948972E+03 -0.20736582356E+02 -0.24207600943E+03  0.31142094317E+03  0.30000000000E+02 0. -1.
    -200000    1    3    3    0    0 -0.27860740279E+03 -0.30919660316E+03 -0.44935480128E+03  0.62076192033E+03  0.10100000000E+03 0. -1.
<mgrwt>
<rscale>  0 0.15306160E+04</rscale>
<asrwt>0</asrwt>
<pdfrwt beam="1">  1        2 0.37648474E+00 0.15306160E+04</pdfrwt>
<pdfrwt beam="2">  1       -2 0.31748928E-01 0.15306160E+04</pdfrwt>
<totfact> 0.33314593E+01</totfact>
</mgrwt>
</event>
<event>
 8    2  0.7266322E-052  0.1258457E+04  0.7818608E-02  0.9063174E-01
          2   -1    0    0  501    0  0.00000000000E+00  0.00000000000E+00  0.15026184555E+04  0.15026184555E+04  0.25500000000E-02 0.  1.
         -2   -1    0    0    0  501 -0.00000000000E+00 -0.00000000000E+00 -0.26349227317E+03  0.26349227318E+03  0.25500000000E-02 0. -1.
    -200001    2    1    2    0    0 -0.14166882919E+03  0.18152655507E+02  0.58881916286E+03  0.86108708500E+03  0.61185242120E+03 0.  0.
   -5000001    2    3    3    0    0 -0.30287390972E+03 -0.12517081199E+03  0.41209965011E+03  0.56450744896E+03  0.20357357625E+03 0.  0.
     200001    1    1    2    0    0  0.14166882919E+03 -0.18152655507E+02  0.65030701949E+03  0.90502364371E+03  0.61300000000E+03 0. -1.
         11    1    4    4    0    0 -0.12417649780E+03 -0.10746874096E+03  0.32180270170E+03  0.36128425334E+03  0.51100000000E-03 0.  1.
    -200002    1    4    4    0    0 -0.17869741192E+03 -0.17702071026E+02  0.90296948411E+02  0.20322319562E+03  0.30000000000E+02 0.  1.
    -200000    1    3    3    0    0  0.16120508053E+03  0.14332346750E+03  0.17671951274E+03  0.29657963603E+03  0.10100000000E+03 0.  1.
<mgrwt>
<rscale>  0 0.12584568E+04</rscale>
<asrwt>0</asrwt>
<pdfrwt beam="1">  1        2 0.21465978E+00 0.12584568E+04</pdfrwt>
<pdfrwt beam="2">  1       -2 0.37641753E-01 0.12584568E+04</pdfrwt>
<totfact> 0.95324934E+01</totfact>
</mgrwt>
</event>
<event>
 8    2  0.7266322E-052  0.1281833E+04  0.7818608E-02  0.9044097E-01
         -2   -1    0    0    0  501 -0.00000000000E+00  0.00000000000E+00  0.15275167729E+04  0.15275167729E+04  0.25500000000E-02 0. -1.
          2   -1    0    0  501    0  0.00000000000E+00 -0.00000000000E+00 -0.26891628398E+03  0.26891628399E+03  0.25500000000E-02 0.  1.
    -200001    2    1    2    0    0 -0.38376846859E+02 -0.54789873858E+02  0.87651196991E+03  0.10710122487E+04  0.61181638644E+03 0.  0.
   -5000001    2    3    3    0    0  0.24115322301E+03 -0.10602785429E+02  0.17695743478E+03  0.30965352481E+03  0.79398209521E+02 0.  0.
     200001    1    1    2    0    0  0.38376846859E+02  0.54789873858E+02  0.38208851898E+03  0.72542080821E+03  0.61300000000E+03 0.  1.
         11    1    4    4    0    0  0.68884896753E+02  0.81494039651E+01  0.15855445652E+02  0.71154317808E+02  0.51100000000E-03 0.  1.
    -200002    1    4    4    0    0  0.17226832626E+03 -0.18752189394E+02  0.16110198913E+03  0.23849920701E+03  0.30000000000E+02 0.  1.
    -200000    1    3    3    0    0 -0.27953006987E+03 -0.44187088430E+02  0.69955453513E+03  0.76135872384E+03  0.10100000000E+03 0. -1.
<mgrwt>
<rscale>  0 0.12818333E+04</rscale>
<asrwt>0</asrwt>
<pdfrwt beam="1">  1        2 0.38416613E-01 0.12818333E+04</pdfrwt>
<pdfrwt beam="2">  1       -2 0.21821668E+00 0.12818333E+04</pdfrwt>
<totfact> 0.13435244E+01</totfact>
</mgrwt>
</event>
<event>
 8    2  0.7266322E-052  0.1326709E+04  0.7818608E-02  0.9008649E-01
          2   -1    0    0  501    0  0.00000000000E+00  0.00000000000E+00  0.11107751663E+04  0.11107751663E+04  0.25500000000E-02 0.  1.
         -2   -1    0    0    0  501 -0.00000000000E+00 -0.00000000000E+00 -0.39615520192E+03  0.39615520193E+03  0.25500000000E-02 0. -1.
    -200001    2    1    2    0    0 -0.13859813680E+03  0.87940827672E+02  0.57550840284E+03  0.85726579378E+03  0.61380101560E+03 0.  0.
   -5000001    2    3    3    0    0 -0.13585031409E+03  0.32630004903E+03  0.42605583612E+03  0.55833480068E+03  0.72712752117E+02 0.  0.
     200001    1    1    2    0    0  0.13859813680E+03 -0.87940827672E+02  0.13911156149E+03  0.64966457440E+03  0.61300000000E+03 0. -1.
         11    1    4    4    0    0 -0.54053933218E+02  0.11213330042E+03  0.10598397425E+03  0.16348794316E+03  0.51100000000E-03 0.  1.
    -200002    1    4    4    0    0 -0.81796380872E+02  0.21416674861E+03  0.32007186187E+03  0.39484685752E+03  0.30000000000E+02 0.  1.
    -200000    1    3    3    0    0 -0.27478227068E+01 -0.23835922136E+03  0.14945256672E+03  0.29893099310E+03  0.10100000000E+03 0. -1.
<mgrwt>
<rscale>  0 0.13267093E+04</rscale>
<asrwt>0</asrwt>
<pdfrwt beam="1">  1        2 0.15868217E+00 0.13267093E+04</pdfrwt>
<pdfrwt beam="2">  1       -2 0.56593600E-01 0.13267093E+04</pdfrwt>
<totfact> 0.69051958E+01</totfact>
</mgrwt>
</event>
<event>
 8    2  0.7266322E-052  0.2111002E+04  0.7818608E-02  0.8556412E-01
         -2   -1    0    0    0  501 -0.00000000000E+00  0.00000000000E+00  0.65446171503E+03  0.65446171503E+03  0.25500000000E-02 0.  1.
          2   -1    0    0  501    0  0.00000000000E+00 -0.00000000000E+00 -0.17022875721E+04  0.17022875721E+04  0.25500000000E-02 0. -1.
    -200001    2    1    2    0    0  0.23901310384E+03 -0.80355193366E+01  0.39748392701E+03  0.76870608705E+03  0.61296308426E+03 0.  0.
   -5000001    2    3    3    0    0  0.11716042882E+03 -0.24517630280E+03  0.32608148035E+01  0.28219124885E+03  0.76047895952E+02 0.  0.
     200001    1    1    2    0    0 -0.23901310384E+03  0.80355193366E+01 -0.14453097840E+04  0.15880432001E+04  0.61300000000E+03 0. -1.
         11    1    4    4    0    0  0.69099502642E+02 -0.74035230291E+02  0.10189584118E+02  0.10178302518E+03  0.51100000000E-03 0.  1.
    -200002    1    4    4    0    0  0.48060926180E+02 -0.17114107251E+03 -0.69287693143E+01  0.18040822367E+03  0.30000000000E+02 0.  1.
    -200000    1    3    3    0    0  0.12185267501E+03  0.23714078346E+03  0.39422311220E+03  0.48651483820E+03  0.10100000000E+03 0.  1.
<mgrwt>
<rscale>  0 0.21110017E+04</rscale>
<asrwt>0</asrwt>
<pdfrwt beam="1">  1        2 0.24318394E+00 0.21110017E+04</pdfrwt>
<pdfrwt beam="2">  1       -2 0.93494531E-01 0.21110017E+04</pdfrwt>
<totfact> 0.10235085E+01</totfact>
</mgrwt>
</event>
<event>
 8    2  0.7266322E-052  0.1430299E+04  0.7818608E-02  0.8932174E-01
         -2   -1    0    0    0  501 -0.00000000000E+00  0.00000000000E+00  0.17140883518E+03  0.17140883520E+03  0.25500000000E-02 0. -1.
          2   -1    0    0  501    0  0.00000000000E+00 -0.00000000000E+00 -0.29837379800E+04  0.29837379800E+04  0.25500000000E-02 0.  1.
    -200001    2    1    2    0    0  0.58879047961E+02 -0.27211869765E+02 -0.22057812959E+04  0.22903482715E+04  0.61320212920E+03 0.  0.
   -5000001    2    3    3    0    0 -0.72275249657E+02 -0.22812520032E+03 -0.46529274726E+03  0.53049912906E+03  0.87562358052E+02 0.  0.
     200001    1    1    2    0    0 -0.58879047961E+02  0.27211869765E+02 -0.60654784891E+03  0.86479854369E+03  0.61300000000E+03 0. -1.
         11    1    4    4    0    0 -0.17103181939E+02 -0.91955541430E+02 -0.25970217513E+03  0.27603181013E+03  0.51100000000E-03 0.  1.
    -200002    1    4    4    0    0 -0.55172067717E+02 -0.13616965889E+03 -0.20559057213E+03  0.25446731894E+03  0.30000000000E+02 0.  1.
    -200000    1    3    3    0    0  0.13115429762E+03  0.20091333056E+03 -0.17404885486E+04  0.17598491424E+04  0.10100000000E+03 0.  1.
<mgrwt>
<rscale>  0 0.14302993E+04</rscale>
<asrwt>0</asrwt>
<pdfrwt beam="1">  1        2 0.42624825E+00 0.14302993E+04</pdfrwt>
<pdfrwt beam="2">  1       -2 0.24486978E-01 0.14302993E+04</pdfrwt>
<totfact> 0.35089481E+01</totfact>
</mgrwt>
</event>
<event>
 8    2  0.7266322E-052  0.2451623E+04  0.7818608E-02  0.8420425E-01
         -2   -1    0    0    0  501 -0.00000000000E+00  0.00000000000E+00  0.73425337930E+03  0.73425337931E+03  0.25500000000E-02 0. -1.
          2   -1    0    0  501    0  0.00000000000E+00 -0.00000000000E+00 -0.20464521839E+04  0.20464521839E+04  0.25500000000E-02 0.  1.
    -200001    2    1    2    0    0 -0.34572798852E+03  0.92571264929E+03 -0.23009053726E+03  0.11922474891E+04  0.62613151071E+03 0.  0.
   -5000001    2    3    3    0    0  0.12080312942E+02  0.72729543088E+03 -0.22875971774E+03  0.77082259154E+03  0.11283563902E+03 0.  0.
     200001    1    1    2    0    0  0.34572798852E+03 -0.92571264929E+03 -0.10821082673E+04  0.15884580742E+04  0.61300000000E+03 0.  1.
         11    1    4    4    0    0 -0.41470764308E+01  0.37328431663E+03 -0.63570224482E+02  0.37868133401E+03  0.51100000000E-03 0.  1.
    -200002    1    4    4    0    0  0.16227389373E+02  0.35401111425E+03 -0.16518949325E+03  0.39214125753E+03  0.30000000000E+02 0.  1.
    -200000    1    3    3    0    0 -0.35780830146E+03  0.19841721841E+03 -0.13308195254E+01  0.42142489751E+03  0.10100000000E+03 0. -1.
<mgrwt>
<rscale>  0 0.24516235E+04</rscale>
<asrwt>0</asrwt>
<pdfrwt beam="1">  1        2 0.29235031E+00 0.24516235E+04</pdfrwt>
<pdfrwt beam="2">  1       -2 0.10489334E+00 0.24516235E+04</pdfrwt>
<totfact> 0.50386037E+00</totfact>
</mgrwt>
</event>
<event>
 8    2  0.7266322E-052  0.1547255E+04  0.7818608E-02  0.8853623E-01
          2   -1    0    0  501    0  0.00000000000E+00  0.00000000000E+00  0.16275896993E+04  0.16275896993E+04  0.25500000000E-02 0.  1.
         -2   -1    0    0    0  501 -0.00000000000E+00 -0.00000000000E+00 -0.36772121886E+03  0.36772121886E+03  0.25500000000E-02 0. -1.
    -200001    2    1    2    0    0 -0.40362595040E+03 -0.13163297165E+03  0.89489056078E+03  0.11651187543E+04  0.61354009558E+03 0.  0.
   -5000001    2    3    3    0    0  0.63073462871E+02  0.63368612431E+02  0.51000670964E+03  0.52155792660E+03  0.62625746777E+02 0.  0.
     200001    1    1    2    0    0  0.40362595040E+03  0.13163297165E+03  0.36497791970E+03  0.83019216386E+03  0.61300000000E+03 0. -1.
         11    1    4    4    0    0  0.50123406419E+02  0.50343820155E+02  0.39332956838E+03  0.39969363951E+03  0.51100000000E-03 0.  1.
    -200002    1    4    4    0    0  0.12950056451E+02  0.13024792276E+02  0.11667714126E+03  0.12186428709E+03  0.30000000000E+02 0. -1.
    -200000    1    3    3    0    0 -0.46669941327E+03 -0.19500158408E+03  0.38488385115E+03  0.64356082775E+03  0.10100000000E+03 0. -1.
<mgrwt>
<rscale>  0 0.15472547E+04</rscale>
<asrwt>0</asrwt>
<pdfrwt beam="1">  1        2 0.23251281E+00 0.15472547E+04</pdfrwt>
<pdfrwt beam="2">  1       -2 0.52531603E-01 0.15472547E+04</pdfrwt>
<totfact> 0.41264846E+01</totfact>
</mgrwt>
</event>
<event>
 8    2  0.7266322E-052  0.1517796E+04  0.7818608E-02  0.8872705E-01
         -2   -1    0    0    0  501 -0.00000000000E+00  0.00000000000E+00  0.79773066633E+03  0.79773066634E+03  0.25500000000E-02 0. -1.
          2   -1    0    0  501    0  0.00000000000E+00 -0.00000000000E+00 -0.72195521789E+03  0.72195521789E+03  0.25500000000E-02 0.  1.
    -200001    2    1    2    0    0  0.21754150834E+03  0.39134605668E+03  0.47608414505E+02  0.76005543083E+03  0.61232479361E+03 0.  0.
   -5000001    2    3    3    0    0  0.25700092530E+03  0.33163317444E+03 -0.11945672222E+03  0.55212651557E+03  0.33844311593E+03 0.  0.
     200001    1    1    2    0    0 -0.21754150834E+03 -0.39134605668E+03  0.28167033938E+02  0.75963045340E+03  0.61300000000E+03 0. -1.
         11    1    4    4    0    0  0.27100915057E+03  0.27993654329E+03 -0.21008882809E+03  0.44265985096E+03  0.51100000000E-03 0.  1.
    -200002    1    4    4    0    0 -0.14008225275E+02  0.51696631148E+02  0.90632105864E+02  0.10946666461E+03  0.30000000000E+02 0.  1.
    -200000    1    3    3    0    0 -0.39459416961E+02  0.59712882242E+02  0.16706513673E+03  0.20792891526E+03  0.10100000000E+03 0. -1.
<mgrwt>
<rscale>  0 0.15177955E+04</rscale>
<asrwt>0</asrwt>
<pdfrwt beam="1">  1        2 0.10313646E+00 0.15177955E+04</pdfrwt>
<pdfrwt beam="2">  1       -2 0.11396152E+00 0.15177955E+04</pdfrwt>
<totfact> 0.25246969E+01</totfact>
</mgrwt>
</event>
<event>
 8    2  0.7266322E-052  0.1412121E+04  0.7818608E-02  0.8945091E-01
         -2   -1    0    0    0  501 -0.00000000000E+00  0.00000000000E+00  0.21814356576E+04  0.21814356576E+04  0.25500000000E-02 0. -1.
          2   -1    0    0  501    0  0.00000000000E+00 -0.00000000000E+00 -0.22852921173E+03  0.22852921175E+03  0.25500000000E-02 0.  1.
    -200001    2    1    2    0    0 -0.25356876702E+02  0.32800789249E+03  0.78899169313E+03  0.10539786230E+04  0.61654756274E+03 0.  0.
   -5000001    2    3    3    0    0  0.19293681391E+02  0.57862953496E+02  0.75179022222E+03  0.75977306585E+03  0.91357571263E+02 0.  0.
     200001    1    1    2    0    0  0.25356876702E+02 -0.32800789249E+03  0.11639147527E+04  0.13559862464E+04  0.61300000000E+03 0.  1.
         11    1    4    4    0    0 -0.17208355103E+02  0.12758769380E+02  0.47092832477E+03  0.47141531663E+03  0.51100000000E-03 0.  1.
    -200002    1    4    4    0    0  0.36502036494E+02  0.45104184116E+02  0.28086189745E+03  0.28835774922E+03  0.30000000000E+02 0.  1.
    -200000    1    3    3    0    0 -0.44650558094E+02  0.27014493899E+03  0.37201470903E+02  0.29420555712E+03  0.10100000000E+03 0.  1.
<mgrwt>
<rscale>  0 0.14121215E+04</rscale>
<asrwt>0</asrwt>
<pdfrwt beam="1">  1        2 0.32647030E-01 0.14121215E+04</pdfrwt>
<pdfrwt beam="2">  1       -2 0.31163367E+00 0.14121215E+04</pdfrwt>
<totfact> 0.42748826E+00</totfact>
</mgrwt>
</event>
<event>
 8    2  0.7266322E-052  0.1278386E+04  0.7818608E-02  0.9046883E-01
         -2   -1    0    0    0  501 -0.00000000000E+00  0.00000000000E+00  0.16718297868E+03  0.16718297870E+03  0.25500000000E-02 0. -1.
          2   -1    0    0  501    0  0.00000000000E+00 -0.00000000000E+00 -0.24438349849E+04  0.24438349849E+04  0.25500000000E-02 0.  1.
    -200001    2    1    2    0    0  0.20764179985E+02 -0.17799170344E+03 -0.12006376455E+04  0.13597433726E+04  0.61258394186E+03 0.  0.
   -5000001    2    3    3    0    0 -0.12203026153E+03  0.16973985782E+03 -0.59812280272E+03  0.64243407598E+03  0.10614919116E+03 0.  0.
     200001    1    1    2    0    0 -0.20764179985E+02  0.17799170344E+03 -0.10760143607E+04  0.12512745910E+04  0.61300000000E+03 0. -1.
         11    1    4    4    0    0 -0.23529401810E+02  0.84540416232E+01 -0.16037938756E+02  0.29703855795E+02  0.51100000000E-03 0.  1.
    -200002    1    4    4    0    0 -0.98500859721E+02  0.16128581620E+03 -0.58208486397E+03  0.61273022019E+03  0.30000000000E+02 0.  1.
    -200000    1    3    3    0    0  0.14279444152E+03 -0.34773156126E+03 -0.60251484282E+03  0.71730929663E+03  0.10100000000E+03 0. -1.
<mgrwt>
<rscale>  0 0.12783859E+04</rscale>
<asrwt>0</asrwt>
<pdfrwt beam="1">  1        2 0.34911926E+00 0.12783859E+04</pdfrwt>
<pdfrwt beam="2">  1       -2 0.23883284E-01 0.12783859E+04</pdfrwt>
<totfact> 0.72430933E+01</totfact>
</mgrwt>
</event>
<event>
 8    2  0.7266322E-052  0.1588638E+04  0.7818608E-02  0.8827558E-01
         -2   -1    0    0    0  501 -0.00000000000E+00  0.00000000000E+00  0.10299807752E+04  0.10299807752E+04  0.25500000000E-02 0. -1.
          2   -1    0    0  501    0  0.00000000000E+00 -0.00000000000E+00 -0.61257735059E+03  0.61257735059E+03  0.25500000000E-02 0.  1.
    -200001    2    1    2    0    0 -0.16220622609E+03 -0.21242790749E+03 -0.23440233631E+03  0.70871861837E+03  0.61310777935E+03 0.  0.
   -5000001    2    3    3    0    0 -0.33610444845E+03 -0.23115742510E+03 -0.27745503578E+03  0.50220972873E+03  0.93985952667E+02 0.  0.
     200001    1    1    2    0    0  0.16220622609E+03  0.21242790749E+03  0.65180576095E+03  0.93383950745E+03  0.61300000000E+03 0. -1.
         11    1    4    4    0    0 -0.16325522403E+03 -0.12626698294E+03 -0.91056260920E+02  0.22558116457E+03  0.51100000000E-03 0.  1.
    -200002    1    4    4    0    0 -0.17284922443E+03 -0.10489044216E+03 -0.18639877486E+03  0.27662856416E+03  0.30000000000E+02 0.  1.
    -200000    1    3    3    0    0  0.17389822236E+03  0.18729517619E+02  0.43052699470E+02  0.20650888964E+03  0.10100000000E+03 0. -1.
<mgrwt>
<rscale>  0 0.15886383E+04</rscale>
<asrwt>0</asrwt>
<pdfrwt beam="1">  1        2 0.87511050E-01 0.15886383E+04</pdfrwt>
<pdfrwt beam="2">  1       -2 0.14714011E+00 0.15886383E+04</pdfrwt>
<totfact> 0.16045519E+01</totfact>
</mgrwt>
</event>
<event>
 8    2  0.7266322E-052  0.1892824E+04  0.7818608E-02  0.8658437E-01
         -2   -1    0    0    0  501 -0.00000000000E+00  0.00000000000E+00  0.52896474268E+03  0.52896474268E+03  0.25500000000E-02 0. -1.
          2   -1    0    0  501    0  0.00000000000E+00 -0.00000000000E+00 -0.16932995656E+04  0.16932995656E+04  0.25500000000E-02 0.  1.
    -200001    2    1    2    0    0  0.52614256131E+03  0.49096121532E+03 -0.53219758349E+03  0.10850592260E+04  0.61339248953E+03 0.  0.
   -5000001    2    3    3    0    0  0.55474921155E+03  0.29047615200E+03 -0.17246538141E+03  0.66006409862E+03  0.11754668818E+03 0.  0.
     200001    1    1    2    0    0 -0.52614256131E+03 -0.49096121532E+03 -0.63213723944E+03  0.11372050823E+04  0.61300000000E+03 0.  1.
         11    1    4    4    0    0  0.41252859949E+03  0.16336344616E+03 -0.11014225190E+03  0.45716383998E+03  0.51100000000E-03 0.  1.
    -200002    1    4    4    0    0  0.14222061207E+03  0.12711270584E+03 -0.62323129505E+02  0.20290025863E+03  0.30000000000E+02 0.  1.
    -200000    1    3    3    0    0 -0.28606650245E+02  0.20048506332E+03 -0.35973220209E+03  0.42499512735E+03  0.10100000000E+03 0.  1.
<mgrwt>
<rscale>  0 0.18928241E+04</rscale>
<asrwt>0</asrwt>
<pdfrwt beam="1">  1        2 0.24189994E+00 0.18928241E+04</pdfrwt>
<pdfrwt beam="2">  1       -2 0.75566392E-01 0.18928241E+04</pdfrwt>
<totfact> 0.17073874E+01</totfact>
</mgrwt>
</event>
<event>
 8    2  0.7266322E-052  0.1449340E+04  0.7818608E-02  0.8918858E-01
         -2   -1    0    0    0  501 -0.00000000000E+00  0.00000000000E+00  0.20591655715E+03  0.20591655716E+03  0.25500000000E-02 0. -1.
          2   -1    0    0  501    0  0.00000000000E+00 -0.00000000000E+00 -0.25502873679E+04  0.25502873679E+04  0.25500000000E-02 0.  1.
    -200001    2    1    2    0    0  0.32220254288E+03  0.47029946470E+02 -0.77557579537E+03  0.10407118397E+04  0.61281075751E+03 0.  0.
   -5000001    2    3    3    0    0 -0.11332740524E+03  0.51730493767E+02 -0.14048777532E+02  0.15763039970E+03  0.95555376598E+02 0.  0.
     200001    1    1    2    0    0 -0.32220254288E+03 -0.47029946470E+02 -0.15687950154E+04  0.17154920854E+04  0.61300000000E+03 0.  1.
         11    1    4    4    0    0  0.49113177398E+01  0.19386197082E+02 -0.23760884509E+02  0.31056807823E+02  0.51100000000E-03 0.  1.
    -200002    1    4    4    0    0 -0.11823872298E+03  0.32344296685E+02  0.97121069769E+01  0.12657359188E+03  0.30000000000E+02 0.  1.
    -200000    1    3    3    0    0  0.43552994812E+03 -0.47005472970E+01 -0.76152701784E+03  0.88308144004E+03  0.10100000000E+03 0.  1.
<mgrwt>
<rscale>  0 0.14493397E+04</rscale>
<asrwt>0</asrwt>
<pdfrwt beam="1">  1        2 0.36432675E+00 0.14493397E+04</pdfrwt>
<pdfrwt beam="2">  1       -2 0.29416653E-01 0.14493397E+04</pdfrwt>
<totfact> 0.42914858E+01</totfact>
</mgrwt>
</event>
<event>
 8    2  0.7266322E-052  0.1872125E+04  0.7818608E-02  0.8668857E-01
          2   -1    0    0  501    0  0.00000000000E+00  0.00000000000E+00  0.72149545940E+03  0.72149545940E+03  0.25500000000E-02 0.  1.
         -2   -1    0    0    0  501 -0.00000000000E+00 -0.00000000000E+00 -0.12144401504E+04  0.12144401504E+04  0.25500000000E-02 0. -1.
    -200001    2    1    2    0    0  0.54212556795E+03  0.43874152067E+03 -0.34657507448E+03  0.99594235552E+03  0.62079999991E+03 0.  0.
   -5000001    2    3    3    0    0 -0.12192586524E+03  0.12135497086E+03 -0.11143878034E+03  0.21671927787E+03  0.70396719194E+02 0.  0.
     200001    1    1    2    0    0 -0.54212556795E+03 -0.43874152067E+03 -0.14636961648E+03  0.93999325424E+03  0.61300000000E+03 0.  1.
         11    1    4    4    0    0 -0.48786329424E+02  0.57505715979E+02 -0.80932694340E+02  0.11062149123E+03  0.51100000000E-03 0.  1.
    -200002    1    4    4    0    0 -0.73139535811E+02  0.63849254878E+02 -0.30506085997E+02  0.10609778664E+03  0.30000000000E+02 0.  1.
    -200000    1    3    3    0    0  0.66405143319E+03  0.31738654981E+03 -0.23513629414E+03  0.77922307765E+03  0.10100000000E+03 0. -1.
<mgrwt>
<rscale>  0 0.18721251E+04</rscale>
<asrwt>0</asrwt>
<pdfrwt beam="1">  1        2 0.10307078E+00 0.18721251E+04</pdfrwt>
<pdfrwt beam="2">  1       -2 0.17349145E+00 0.18721251E+04</pdfrwt>
<totfact> 0.82139153E+00</totfact>
</mgrwt>
</event>
<event>
 8    2  0.7266322E-052  0.1779429E+04  0.7818608E-02  0.8717316E-01
         -2   -1    0    0    0  501 -0.00000000000E+00  0.00000000000E+00  0.16165146156E+04  0.16165146156E+04  0.25500000000E-02 0. -1.
          2   -1    0    0  501    0  0.00000000000E+00 -0.00000000000E+00 -0.48969057632E+03  0.48969057632E+03  0.25500000000E-02 0.  1.
    -200001    2    1    2    0    0  0.39717302806E+03  0.14171719570E+03  0.11413446454E+04  0.13620210576E+04  0.61204867787E+03 0.  0.
   -5000001    2    3    3    0    0  0.24054265532E+03 -0.80713060616E+02  0.10083832066E+04  0.10428220025E+04  0.79155987796E+02 0.  0.
     200001    1    1    2    0    0 -0.39717302806E+03 -0.14171719570E+03 -0.14520606089E+02  0.74418413432E+03  0.61300000000E+03 0.  1.
         11    1    4    4    0    0  0.18311916257E+02 -0.30823258386E+02  0.15059617082E+03  0.15480505870E+03  0.51100000000E-03 0.  1.
    -200002    1    4    4    0    0  0.22223073907E+03 -0.49889802230E+02  0.85778703576E+03  0.88801694380E+03  0.30000000000E+02 0.  1.
    -200000    1    3    3    0    0  0.15663037273E+03  0.22243025632E+03  0.13296143884E+03  0.31919905514E+03  0.10100000000E+03 0. -1.
<mgrwt>
<rscale>  0 0.17794291E+04</rscale>
<asrwt>0</asrwt>
<pdfrwt beam="1">  1        2 0.69955797E-01 0.17794291E+04</pdfrwt>
<pdfrwt beam="2">  1       -2 0.23093066E+00 0.17794291E+04</pdfrwt>
<totfact> 0.54982615E+00</totfact>
</mgrwt>
</event>
<event>
 8    2  0.7266322E-052  0.1492957E+04  0.7818608E-02  0.8889150E-01
          2   -1    0    0  501    0  0.00000000000E+00  0.00000000000E+00  0.25578195597E+04  0.25578195597E+04  0.25500000000E-02 0.  1.
         -2   -1    0    0    0  501 -0.00000000000E+00 -0.00000000000E+00 -0.21785362199E+03  0.21785362200E+03  0.25500000000E-02 0. -1.
    -200001    2    1    2    0    0 -0.59987565009E+02  0.40217682728E+03  0.93371896192E+03  0.11886494688E+04  0.61295330287E+03 0.  0.
   -5000001    2    3    3    0    0 -0.39227419221E+02  0.42031231469E+03  0.98310359396E+03  0.10728923030E+04  0.80024902880E+02 0.  0.
     200001    1    1    2    0    0  0.59987565009E+02 -0.40217682728E+03  0.14062469758E+04  0.15870237129E+04  0.61300000000E+03 0.  1.
         11    1    4    4    0    0 -0.22730523663E+02  0.28809318730E+03  0.73328678828E+03  0.78817756575E+03  0.51100000000E-03 0.  1.
    -200002    1    4    4    0    0 -0.16496895559E+02  0.13221912739E+03  0.24981680567E+03  0.28471473725E+03  0.30000000000E+02 0.  1.
    -200000    1    3    3    0    0 -0.20760145787E+02 -0.18135487413E+02 -0.49384632035E+02  0.11575716582E+03  0.10100000000E+03 0. -1.
<mgrwt>
<rscale>  0 0.14929571E+04</rscale>
<asrwt>0</asrwt>
<pdfrwt beam="1">  1        2 0.36540280E+00 0.14929571E+04</pdfrwt>
<pdfrwt beam="2">  1       -2 0.31121945E-01 0.14929571E+04</pdfrwt>
<totfact> 0.38140741E+01</totfact>
</mgrwt>
</event>
<event>
 8    2  0.8333861E-052  0.1299049E+04  0.7818608E-02  0.9030320E-01
         -2   -1    0    0    0  501 -0.00000000000E+00  0.00000000000E+00  0.24407322387E+03  0.24407322388E+03  0.25500000000E-02 0. -1.
          2   -1    0    0  501    0  0.00000000000E+00 -0.00000000000E+00 -0.17285056177E+04  0.17285056177E+04  0.25500000000E-02 0.  1.
    -200001    2    1    2    0    0 -0.10100073459E+03  0.83392326280E+02 -0.48445433898E+03  0.79237524108E+03  0.61319416799E+03 0.  0.
   -5000001    2    3    3    0    0  0.24383803862E+02 -0.82877391820E+02 -0.11936580823E+03  0.36010502822E+03  0.32857906691E+03 0.  0.
     200001    1    1    2    0    0  0.10100073459E+03 -0.83392326280E+02 -0.99997805488E+03  0.11802036005E+04  0.61300000000E+03 0.  1.
         11    1    4    4    0    0 -0.85898956461E+02 -0.39770476971E+02  0.81569156745E+02  0.12495538761E+03  0.51100000000E-03 0.  1.
    -200002    1    4    4    0    0  0.11028276032E+03 -0.43106914849E+02 -0.20093496498E+03  0.23514964062E+03  0.30000000000E+02 0.  1.
    -200000    1    3    3    0    0 -0.12538453845E+03  0.16626971810E+03 -0.36508853075E+03  0.43227021286E+03  0.10100000000E+03 0.  1.
<mgrwt>
<rscale>  0 0.12990488E+04</rscale>
<asrwt>0</asrwt>
<pdfrwt beam="1">  1        2 0.24692937E+00 0.12990488E+04</pdfrwt>
<pdfrwt beam="2">  1       -2 0.34867604E-01 0.12990488E+04</pdfrwt>
<totfact> 0.83847568E+01</totfact>
</mgrwt>
</event>
<event>
 8    2  0.7266322E-052  0.1393156E+04  0.7818608E-02  0.8958788E-01
         -2   -1    0    0    0  501 -0.00000000000E+00  0.00000000000E+00  0.14612600652E+04  0.14612600652E+04  0.25500000000E-02 0. -1.
          2   -1    0    0  501    0  0.00000000000E+00 -0.00000000000E+00 -0.33205634938E+03  0.33205634939E+03  0.25500000000E-02 0.  1.
    -200001    2    1    2    0    0 -0.45393707984E+02  0.62041038520E+01  0.98633359624E+03  0.11622221659E+04  0.61303125557E+03 0.  0.
   -5000001    2    3    3    0    0  0.20496816389E+02  0.20833520874E+03  0.99776013552E+02  0.24495236256E+03  0.78884271948E+02 0.  0.
     200001    1    1    2    0    0  0.45393707984E+02 -0.62041038520E+01  0.14287011961E+03  0.63109424867E+03  0.61300000000E+03 0.  1.
         11    1    4    4    0    0 -0.62996262796E+01  0.11799354731E+03  0.83602179688E+02  0.14474628474E+03  0.51100000000E-03 0.  1.
    -200002    1    4    4    0    0  0.26796442668E+02  0.90341661434E+02  0.16173833864E+02  0.10020607782E+03  0.30000000000E+02 0.  1.
    -200000    1    3    3    0    0 -0.65890524373E+02 -0.20213110489E+03  0.88655758269E+03  0.91726980338E+03  0.10100000000E+03 0.  1.
<mgrwt>
<rscale>  0 0.13931557E+04</rscale>
<asrwt>0</asrwt>
<pdfrwt beam="1">  1        2 0.47436620E-01 0.13931557E+04</pdfrwt>
<pdfrwt beam="2">  1       -2 0.20875144E+00 0.13931557E+04</pdfrwt>
<totfact> 0.12109575E+01</totfact>
</mgrwt>
</event>
<event>
 8    2  0.7266322E-052  0.1398030E+04  0.7818608E-02  0.8955246E-01
          2   -1    0    0  501    0  0.00000000000E+00  0.00000000000E+00  0.21998154557E+04  0.21998154557E+04  0.25500000000E-02 0.  1.
         -2   -1    0    0    0  501 -0.00000000000E+00 -0.00000000000E+00 -0.22211944997E+03  0.22211944998E+03  0.25500000000E-02 0. -1.
    -200001    2    1    2    0    0 -0.61076207692E+00 -0.31632748201E+03  0.11885493698E+04  0.13738009152E+04  0.61205874012E+03 0.  0.
   -5000001    2    3    3    0    0  0.25837649754E+03 -0.51790464820E+02  0.69714892336E+03  0.75031905274E+03  0.86725963981E+02 0.  0.
     200001    1    1    2    0    0  0.61076207692E+00  0.31632748201E+03  0.78914663592E+03  0.10481339904E+04  0.61300000000E+03 0. -1.
         11    1    4    4    0    0  0.74934557235E+02 -0.47022190695E+02  0.17579533775E+03  0.19680008907E+03  0.51100000000E-03 0.  1.
    -200002    1    4    4    0    0  0.18344194030E+03 -0.47682741255E+01  0.52135358562E+03  0.55351896367E+03  0.30000000000E+02 0.  1.
    -200000    1    3    3    0    0 -0.25898725962E+03 -0.26453701719E+03  0.49140044641E+03  0.62348186247E+03  0.10100000000E+03 0. -1.
<mgrwt>
<rscale>  0 0.13980298E+04</rscale>
<asrwt>0</asrwt>
<pdfrwt beam="1">  1        2 0.31425936E+00 0.13980298E+04</pdfrwt>
<pdfrwt beam="2">  1       -2 0.31731349E-01 0.13980298E+04</pdfrwt>
<totfact> 0.56929600E+01</totfact>
</mgrwt>
</event>
<event>
 8    2  0.7266322E-052  0.1961018E+04  0.7818608E-02  0.8625066E-01
          2   -1    0    0  501    0  0.00000000000E+00  0.00000000000E+00  0.17578747786E+04  0.17578747786E+04  0.25500000000E-02 0.  1.
         -2   -1    0    0    0  501 -0.00000000000E+00 -0.00000000000E+00 -0.54690902504E+03  0.54690902504E+03  0.25500000000E-02 0. -1.
    -200001    2    1    2    0    0 -0.34364238286E+03 -0.27831455583E+03 -0.12817265472E+03  0.76705503828E+03  0.61351130637E+03 0.  0.
   -5000001    2    3    3    0    0  0.13480816663E+03  0.59526828748E+01  0.52726067825E+02  0.17321319139E+03  0.94942589072E+02 0.  0.
     200001    1    1    2    0    0  0.34364238286E+03  0.27831455583E+03  0.13391384083E+04  0.15377287654E+04  0.61300000000E+03 0.  1.
         11    1    4    4    0    0  0.50246028204E+02 -0.18255420028E+02  0.59553539604E+02  0.80028418642E+02  0.51100000000E-03 0.  1.
    -200002    1    4    4    0    0  0.84562138422E+02  0.24208102903E+02 -0.68274717790E+01  0.93184772745E+02  0.30000000000E+02 0.  1.
    -200000    1    3    3    0    0 -0.47845054948E+03 -0.28426723870E+03 -0.18089872255E+03  0.59384184689E+03  0.10100000000E+03 0. -1.
<mgrwt>
<rscale>  0 0.19610177E+04</rscale>
<asrwt>0</asrwt>
<pdfrwt beam="1">  1        2 0.25112498E+00 0.19610177E+04</pdfrwt>
<pdfrwt beam="2">  1       -2 0.78129858E-01 0.19610177E+04</pdfrwt>
<totfact> 0.14593406E+01</totfact>
</mgrwt>
</event>
<event>
 8    2  0.7266322E-052  0.1678173E+04  0.7818608E-02  0.8773912E-01
          2   -1    0    0  501    0  0.00000000000E+00  0.00000000000E+00  0.29545923362E+04  0.29545923362E+04  0.25500000000E-02 0.  1.
         -2   -1    0    0    0  501 -0.00000000000E+00 -0.00000000000E+00 -0.23829565463E+03  0.23829565464E+03  0.25500000000E-02 0. -1.
    -200001    2    1    2    0    0 -0.31419057675E+02  0.52698443394E+03  0.17811573251E+04  0.19563790476E+04  0.61334966383E+03 0.  0.
   -5000001    2    3    3    0    0 -0.21292463568E+03  0.12180523141E+03  0.24314914817E+03  0.35238883145E+03  0.69878218340E+02 0.  0.
     200001    1    1    2    0    0  0.31419057675E+02 -0.52698443394E+03  0.93513935641E+03  0.12365089432E+04  0.61300000000E+03 0. -1.
         11    1    4    4    0    0 -0.12162644168E+03  0.71928444822E+02  0.17301704116E+03  0.22338663573E+03  0.51100000000E-03 0.  1.
    -200002    1    4    4    0    0 -0.91298193998E+02  0.49876786590E+02  0.70132107010E+02  0.12900219572E+03  0.30000000000E+02 0.  1.
    -200000    1    3    3    0    0  0.18150557800E+03  0.40517920253E+03  0.15380081769E+04  0.16039902161E+04  0.10100000000E+03 0.  1.
<mgrwt>
<rscale>  0 0.16781734E+04</rscale>
<asrwt>0</asrwt>
<pdfrwt beam="1">  1        2 0.42208461E+00 0.16781734E+04</pdfrwt>
<pdfrwt beam="2">  1       -2 0.34042237E-01 0.16781734E+04</pdfrwt>
<totfact> 0.19351792E+01</totfact>
</mgrwt>
</event>
<event>
 8    2  0.7266322E-052  0.1871759E+04  0.7818608E-02  0.8669043E-01
          2   -1    0    0  501    0  0.00000000000E+00  0.00000000000E+00  0.87684258120E+03  0.87684258120E+03  0.25500000000E-02 0.  1.
         -2   -1    0    0    0  501 -0.00000000000E+00 -0.00000000000E+00 -0.99889102746E+03  0.99889102746E+03  0.25500000000E-02 0. -1.
    -200001    2    1    2    0    0 -0.64214695966E+03  0.51276829085E+02 -0.35316831751E+03  0.95694776534E+03  0.61322029816E+03 0.  0.
   -5000001    2    3    3    0    0 -0.68908035459E+03  0.13064604679E+03 -0.25023485191E+03  0.78577967655E+03  0.25086270016E+03 0.  0.
     200001    1    1    2    0    0  0.64214695966E+03 -0.51276829085E+02  0.23111987125E+03  0.91878584332E+03  0.61300000000E+03 0.  1.
         11    1    4    4    0    0 -0.44081125379E+03  0.18847972426E+03 -0.21948383371E+03  0.52726873716E+03  0.51100000000E-03 0.  1.
    -200002    1    4    4    0    0 -0.24826910081E+03 -0.57833677467E+02 -0.30751018206E+02  0.25851093939E+03  0.30000000000E+02 0.  1.
    -200000    1    3    3    0    0  0.46933394931E+02 -0.79369217706E+02 -0.10293346560E+03  0.17116808879E+03  0.10100000000E+03 0. -1.
<mgrwt>
<rscale>  0 0.18717587E+04</rscale>
<asrwt>0</asrwt>
<pdfrwt beam="1">  1        2 0.12526323E+00 0.18717587E+04</pdfrwt>
<pdfrwt beam="2">  1       -2 0.14269872E+00 0.18717587E+04</pdfrwt>
<totfact> 0.10838376E+01</totfact>
</mgrwt>
</event>
<event>
 8    2  0.7266322E-052  0.1963591E+04  0.7818608E-02  0.8623835E-01
         -2   -1    0    0    0  501 -0.00000000000E+00  0.00000000000E+00  0.28808884046E+03  0.28808884047E+03  0.25500000000E-02 0. -1.
          2   -1    0    0  501    0  0.00000000000E+00 -0.00000000000E+00 -0.33459198913E+04  0.33459198913E+04  0.25500000000E-02 0.  1.
    -200001    2    1    2    0    0  0.28345879323E+03 -0.71173114693E+03 -0.15932882270E+04  0.18711800969E+04  0.61305584403E+03 0.  0.
   -5000001    2    3    3    0    0 -0.12074625035E+03 -0.46522984970E+03 -0.92721532935E+03  0.10477733252E+04  0.84155831272E+02 0.  0.
     200001    1    1    2    0    0 -0.28345879323E+03  0.71173114693E+03 -0.14645428239E+04  0.17628286349E+04  0.61300000000E+03 0. -1.
         11    1    4    4    0    0 -0.43892232579E+02 -0.15774257066E+03 -0.39521758592E+03  0.42779222398E+03  0.51100000000E-03 0.  1.
    -200002    1    4    4    0    0 -0.76854017774E+02 -0.30748727904E+03 -0.53199774343E+03  0.61998110119E+03  0.30000000000E+02 0.  1.
    -200000    1    3    3    0    0  0.40420504358E+03 -0.24650129723E+03 -0.66607289761E+03  0.82340677173E+03  0.10100000000E+03 0.  1.
<mgrwt>
<rscale>  0 0.19635908E+04</rscale>
<asrwt>0</asrwt>
<pdfrwt beam="1">  1        2 0.47798853E+00 0.19635908E+04</pdfrwt>
<pdfrwt beam="2">  1       -2 0.41155551E-01 0.19635908E+04</pdfrwt>
<totfact> 0.78083801E+00</totfact>
</mgrwt>
</event>
<event>
 8    2  0.7266322E-052  0.1528555E+04  0.7818608E-02  0.8865683E-01
         -2   -1    0    0    0  501 -0.00000000000E+00  0.00000000000E+00  0.35093517324E+03  0.35093517325E+03  0.25500000000E-02 0. -1.
          2   -1    0    0  501    0  0.00000000000E+00 -0.00000000000E+00 -0.16644669256E+04  0.16644669256E+04  0.25500000000E-02 0.  1.
    -200001    2    1    2    0    0  0.31327826816E+03  0.31011975599E+03 -0.81584490860E+03  0.11110909075E+04  0.61204783591E+03 0.  0.
   -5000001    2    3    3    0    0  0.97316315243E+02  0.11582364112E+03 -0.77560238127E+03  0.80091191662E+03  0.13044256704E+03 0.  0.
     200001    1    1    2    0    0 -0.31327826816E+03 -0.31011975599E+03 -0.49768684373E+03  0.90431119134E+03  0.61300000000E+03 0. -1.
         11    1    4    4    0    0  0.34543192765E+02 -0.30297044932E+01 -0.41860152787E+02  0.54357002008E+02  0.51100000000E-03 0.  1.
    -200002    1    4    4    0    0  0.62773122478E+02  0.11885334561E+03 -0.73374222849E+03  0.74655491461E+03  0.30000000000E+02 0.  1.
    -200000    1    3    3    0    0  0.21596195292E+03  0.19429611488E+03 -0.40242527328E+02  0.31017899086E+03  0.10100000000E+03 0. -1.
<mgrwt>
<rscale>  0 0.15285549E+04</rscale>
<asrwt>0</asrwt>
<pdfrwt beam="1">  1        2 0.23778099E+00 0.15285549E+04</pdfrwt>
<pdfrwt beam="2">  1       -2 0.50133597E-01 0.15285549E+04</pdfrwt>
<totfact> 0.43499753E+01</totfact>
</mgrwt>
</event>
<event>
 8    2  0.7266322E-052  0.1318780E+04  0.7818608E-02  0.9014804E-01
          2   -1    0    0  501    0  0.00000000000E+00  0.00000000000E+00  0.14158530081E+04  0.14158530081E+04  0.25500000000E-02 0.  1.
         -2   -1    0    0    0  501 -0.00000000000E+00 -0.00000000000E+00 -0.30709042807E+03  0.30709042808E+03  0.25500000000E-02 0. -1.
    -200001    2    1    2    0    0  0.66752083514E+02 -0.29181298451E+02  0.86555052958E+03  0.10594462694E+04  0.60658164303E+03 0.  0.
   -5000001    2    3    3    0    0  0.74774158814E+02  0.13421160855E+03  0.17172814942E+03  0.33947954034E+03  0.24930276835E+03 0.  0.
     200001    1    1    2    0    0 -0.66752083514E+02  0.29181298451E+02  0.24321205045E+03  0.66349716677E+03  0.61300000000E+03 0. -1.
         11    1    4    4    0    0  0.40606774578E+02  0.18556193207E+03  0.44737077676E+02  0.19515006250E+03  0.51100000000E-03 0.  1.
    -200002    1    4    4    0    0  0.34167384236E+02 -0.51350323514E+02  0.12699107175E+03  0.14432947784E+03  0.30000000000E+02 0.  1.
    -200000    1    3    3    0    0 -0.80220752998E+01 -0.16339290700E+03  0.69382238015E+03  0.71996672906E+03  0.10100000000E+03 0.  1.
<mgrwt>
<rscale>  0 0.13187796E+04</rscale>
<asrwt>0</asrwt>
<pdfrwt beam="1">  1        2 0.20226472E+00 0.13187796E+04</pdfrwt>
<pdfrwt beam="2">  1       -2 0.43870060E-01 0.13187796E+04</pdfrwt>
<totfact> 0.78252867E+01</totfact>
</mgrwt>
</event>
<event>
 8    2  0.7266322E-052  0.1519927E+04  0.7818608E-02  0.8871309E-01
          2   -1    0    0  501    0  0.00000000000E+00  0.00000000000E+00  0.20804300975E+04  0.20804300975E+04  0.25500000000E-02 0.  1.
         -2   -1    0    0    0  501 -0.00000000000E+00 -0.00000000000E+00 -0.27760834462E+03  0.27760834464E+03  0.25500000000E-02 0. -1.
    -200001    2    1    2    0    0 -0.14511062500E+03 -0.18299355466E+03  0.30854185515E+03  0.72611162170E+03  0.61440725602E+03 0.  0.
   -5000001    2    3    3    0    0 -0.12925934265E+03 -0.22306920396E+03 -0.90073922812E+02  0.31264716220E+03  0.15220738828E+03 0.  0.
     200001    1    1    2    0    0  0.14511062500E+03  0.18299355466E+03  0.14942798977E+04  0.16319268204E+04  0.61300000000E+03 0.  1.
         11    1    4    4    0    0 -0.13065375918E+03 -0.15555257360E+03 -0.95661030949E+01  0.20336793816E+03  0.51100000000E-03 0.  1.
    -200002    1    4    4    0    0  0.13944165335E+01 -0.67516630355E+02 -0.80507819717E+02  0.10927922404E+03  0.30000000000E+02 0. -1.
    -200000    1    3    3    0    0 -0.15851282352E+02  0.40075649299E+02  0.39861577797E+03  0.41346445949E+03  0.10100000000E+03 0.  1.
<mgrwt>
<rscale>  0 0.15199273E+04</rscale>
<asrwt>0</asrwt>
<pdfrwt beam="1">  1        2 0.29720430E+00 0.15199273E+04</pdfrwt>
<pdfrwt beam="2">  1       -2 0.39658335E-01 0.15199273E+04</pdfrwt>
<totfact> 0.42379741E+01</totfact>
</mgrwt>
</event>
<event>
 8    2  0.7266322E-052  0.1589990E+04  0.7818608E-02  0.8826721E-01
         -2   -1    0    0    0  501 -0.00000000000E+00  0.00000000000E+00  0.52355488506E+03  0.52355488506E+03  0.25500000000E-02 0. -1.
          2   -1    0    0  501    0  0.00000000000E+00 -0.00000000000E+00 -0.12071655544E+04  0.12071655544E+04  0.25500000000E-02 0.  1.
    -200001    2    1    2    0    0 -0.49117466761E+03 -0.71916311873E+02 -0.23290868252E+03  0.82224600894E+03  0.61271325660E+03 0.  0.
   -5000001    2    3    3    0    0 -0.24052181123E+02 -0.16207228854E+02 -0.31516097104E+03  0.33411348771E+03  0.10707101998E+03 0.  0.
     200001    1    1    2    0    0  0.49117466761E+03  0.71916311873E+02 -0.45070198687E+03  0.90847443056E+03  0.61300000000E+03 0.  1.
         11    1    4    4    0    0  0.28853556030E+02  0.93646439615E+01 -0.19211523720E+03  0.19449547197E+03  0.51100000000E-03 0.  1.
    -200002    1    4    4    0    0 -0.52905737153E+02 -0.25571872815E+02 -0.12304573384E+03  0.13961801574E+03  0.30000000000E+02 0.  1.
    -200000    1    3    3    0    0 -0.46712248649E+03 -0.55709083019E+02  0.82252288529E+02  0.48813252123E+03  0.10100000000E+03 0. -1.
<mgrwt>
<rscale>  0 0.15899905E+04</rscale>
<asrwt>0</asrwt>
<pdfrwt beam="1">  1        2 0.17245222E+00 0.15899905E+04</pdfrwt>
<pdfrwt beam="2">  1       -2 0.74793556E-01 0.15899905E+04</pdfrwt>
<totfact> 0.32715003E+01</totfact>
</mgrwt>
</event>
<event>
 8    2  0.7266322E-052  0.1463954E+04  0.7818608E-02  0.8908783E-01
         -2   -1    0    0    0  501 -0.00000000000E+00  0.00000000000E+00  0.16170674242E+03  0.16170674244E+03  0.25500000000E-02 0. -1.
          2   -1    0    0  501    0  0.00000000000E+00 -0.00000000000E+00 -0.33133467630E+04  0.33133467630E+04  0.25500000000E-02 0.  1.
    -200001    2    1    2    0    0 -0.32276294605E+03  0.14955698082E+03 -0.11456705900E+04  0.13475607167E+04  0.61385305610E+03 0.  0.
   -5000001    2    3    3    0    0  0.68267866792E+02  0.17289006826E+03 -0.96924038264E+02  0.22349672413E+03  0.77492187745E+02 0.  0.
     200001    1    1    2    0    0  0.32276294605E+03 -0.14955698082E+03 -0.20059694306E+04  0.21274927888E+04  0.61300000000E+03 0.  1.
         11    1    4    4    0    0  0.38611182815E+02  0.32034011367E+02 -0.45491792968E+02  0.67723736979E+02  0.51100000000E-03 0.  1.
    -200002    1    4    4    0    0  0.29656683977E+02  0.14085605689E+03 -0.51432245296E+02  0.15577298715E+03  0.30000000000E+02 0.  1.
    -200000    1    3    3    0    0 -0.39103081284E+03 -0.23333087445E+02 -0.10487465518E+04  0.11240639926E+04  0.10100000000E+03 0. -1.
<mgrwt>
<rscale>  0 0.14639543E+04</rscale>
<asrwt>0</asrwt>
<pdfrwt beam="1">  1        2 0.47333521E+00 0.14639543E+04</pdfrwt>
<pdfrwt beam="2">  1       -2 0.23100965E-01 0.14639543E+04</pdfrwt>
<totfact> 0.25214303E+01</totfact>
</mgrwt>
</event>
<event>
 8    2  0.7266322E-052  0.1814392E+04  0.7818608E-02  0.8698683E-01
          2   -1    0    0  501    0  0.00000000000E+00  0.00000000000E+00  0.11987134474E+04  0.11987134474E+04  0.25500000000E-02 0.  1.
         -2   -1    0    0    0  501 -0.00000000000E+00 -0.00000000000E+00 -0.68657306575E+03  0.68657306575E+03  0.25500000000E-02 0. -1.
    -200001    2    1    2    0    0  0.65808637790E+03 -0.98024766921E+02  0.20704336841E+03  0.93054061856E+03  0.61672712821E+03 0.  0.
   -5000001    2    3    3    0    0  0.25499354409E+03  0.18259890395E+03 -0.10875317414E+03  0.33795144078E+03  0.63402335823E+02 0.  0.
     200001    1    1    2    0    0 -0.65808637790E+03  0.98024766921E+02  0.30509701321E+03  0.95474589456E+03  0.61300000000E+03 0. -1.
         11    1    4    4    0    0  0.19169852592E+02  0.70813593030E+01  0.54536572855E+01  0.21151153066E+02  0.51100000000E-03 0.  1.
    -200002    1    4    4    0    0  0.23582369149E+03  0.17551754465E+03 -0.11420683143E+03  0.31680028771E+03  0.30000000000E+02 0.  1.
    -200000    1    3    3    0    0  0.40309283382E+03 -0.28062367087E+03  0.31579654256E+03  0.59258917778E+03  0.10100000000E+03 0.  1.
<mgrwt>
<rscale>  0 0.18143918E+04</rscale>
<asrwt>0</asrwt>
<pdfrwt beam="1">  1        2 0.17124478E+00 0.18143918E+04</pdfrwt>
<pdfrwt beam="2">  1       -2 0.98081866E-01 0.18143918E+04</pdfrwt>
<totfact> 0.17514320E+01</totfact>
</mgrwt>
</event>
<event>
 8    2  0.7266322E-052  0.1336647E+04  0.7818608E-02  0.9000998E-01
         -2   -1    0    0    0  501 -0.00000000000E+00  0.00000000000E+00  0.22010403427E+03  0.22010403428E+03  0.25500000000E-02 0. -1.
          2   -1    0    0  501    0  0.00000000000E+00 -0.00000000000E+00 -0.20292949737E+04  0.20292949737E+04  0.25500000000E-02 0.  1.
    -200001    2    1    2    0    0 -0.64588664662E+02 -0.35315086131E+02 -0.13352335705E+04  0.14710524024E+04  0.61296625670E+03 0.  0.
   -5000001    2    3    3    0    0  0.21564469042E+02  0.15316950869E+03 -0.11778822899E+04  0.11919301524E+04  0.96772282042E+02 0.  0.
     200001    1    1    2    0    0  0.64588664662E+02  0.35315086131E+02 -0.47395736896E+03  0.77834660563E+03  0.61300000000E+03 0. -1.
         11    1    4    4    0    0 -0.20844446416E+02  0.34710375658E+02 -0.13173271011E+03  0.13781439706E+03  0.51100000000E-03 0.  1.
    -200002    1    4    4    0    0  0.42408915457E+02  0.11845913303E+03 -0.10461495798E+04  0.10541157554E+04  0.30000000000E+02 0.  1.
    -200000    1    3    3    0    0 -0.86153133704E+02 -0.18848459482E+03 -0.15735128057E+03  0.27912224997E+03  0.10100000000E+03 0. -1.
<mgrwt>
<rscale>  0 0.13366466E+04</rscale>
<asrwt>0</asrwt>
<pdfrwt beam="1">  1        2 0.28989927E+00 0.13366466E+04</pdfrwt>
<pdfrwt beam="2">  1       -2 0.31443435E-01 0.13366466E+04</pdfrwt>
<totfact> 0.71195946E+01</totfact>
</mgrwt>
</event>
<event>
 8    2  0.7266322E-052  0.1429936E+04  0.7818608E-02  0.8932430E-01
         -2   -1    0    0    0  501 -0.00000000000E+00  0.00000000000E+00  0.20520142075E+03  0.20520142076E+03  0.25500000000E-02 0. -1.
          2   -1    0    0  501    0  0.00000000000E+00 -0.00000000000E+00 -0.24911111921E+04  0.24911111921E+04  0.25500000000E-02 0.  1.
    -200001    2    1    2    0    0  0.13963220490E+03  0.26412432177E+03 -0.15495252332E+04  0.16926742328E+04  0.61225713546E+03 0.  0.
   -5000001    2    3    3    0    0 -0.14021396198E+03 -0.73396513490E+02 -0.80897170633E+03  0.82615549810E+03  0.55232979939E+02 0.  0.
     200001    1    1    2    0    0 -0.13963220490E+03 -0.26412432177E+03 -0.73638453815E+03  0.10036383801E+04  0.61300000000E+03 0. -1.
         11    1    4    4    0    0 -0.22989487912E+02  0.44153103188E+00 -0.17662277380E+03  0.17811321043E+03  0.51100000000E-03 0.  1.
    -200002    1    4    4    0    0 -0.11722447407E+03 -0.73838044522E+02 -0.63234893252E+03  0.64804228767E+03  0.30000000000E+02 0.  1.
    -200000    1    3    3    0    0  0.27984616688E+03  0.33752083526E+03 -0.74055352690E+03  0.86651873468E+03  0.10100000000E+03 0.  1.
<mgrwt>
<rscale>  0 0.14299364E+04</rscale>
<asrwt>0</asrwt>
<pdfrwt beam="1">  1        2 0.35587301E+00 0.14299364E+04</pdfrwt>
<pdfrwt beam="2">  1       -2 0.29314490E-01 0.14299364E+04</pdfrwt>
<totfact> 0.46476356E+01</totfact>
</mgrwt>
</event>
<event>
 8    2  0.7266322E-052  0.1268132E+04  0.7818608E-02  0.9055226E-01
          2   -1    0    0  501    0  0.00000000000E+00  0.00000000000E+00  0.13734826555E+04  0.13734826555E+04  0.25500000000E-02 0.  1.
         -2   -1    0    0    0  501 -0.00000000000E+00 -0.00000000000E+00 -0.29271540420E+03  0.29271540421E+03  0.25500000000E-02 0. -1.
    -200001    2    1    2    0    0  0.14896812225E+03  0.40123553730E+02  0.60804992474E+03  0.87687425301E+03  0.61268453841E+03 0.  0.
   -5000001    2    3    3    0    0 -0.95422353447E+02 -0.12115481314E+03 -0.32096939808E+02  0.16572980607E+03  0.51499910580E+02 0.  0.
     200001    1    1    2    0    0 -0.14896812225E+03 -0.40123553730E+02  0.47271732658E+03  0.78932380672E+03  0.61300000000E+03 0. -1.
         11    1    4    4    0    0 -0.52654090958E+02 -0.40860335765E+02 -0.96692893451E+01  0.67346235901E+02  0.51100000000E-03 0.  1.
    -200002    1    4    4    0    0 -0.42768262489E+02 -0.80294477373E+02 -0.22427650463E+02  0.98383570164E+02  0.30000000000E+02 0.  1.
    -200000    1    3    3    0    0  0.24439047570E+03  0.16127836687E+03  0.64014686455E+03  0.71114444694E+03  0.10100000000E+03 0.  1.
<mgrwt>
<rscale>  0 0.12681317E+04</rscale>
<asrwt>0</asrwt>
<pdfrwt beam="1">  1        2 0.19621180E+00 0.12681317E+04</pdfrwt>
<pdfrwt beam="2">  1       -2 0.41816487E-01 0.12681317E+04</pdfrwt>
<totfact> 0.91030143E+01</totfact>
</mgrwt>
</event>
<event>
 8    2  0.7266322E-052  0.1476402E+04  0.7818608E-02  0.8900299E-01
         -2   -1    0    0    0  501 -0.00000000000E+00  0.00000000000E+00  0.54988972635E+03  0.54988972635E+03  0.25500000000E-02 0. -1.
          2   -1    0    0  501    0  0.00000000000E+00 -0.00000000000E+00 -0.99100031831E+03  0.99100031831E+03  0.25500000000E-02 0.  1.
    -200001    2    1    2    0    0  0.31894568720E+03  0.20161125332E+03 -0.51216564939E+02  0.72225715920E+03  0.61372536093E+03 0.  0.
   -5000001    2    3    3    0    0  0.21065780656E+03  0.23403794242E+03 -0.29509467628E+03  0.43510687025E+03  0.55557633274E+02 0.  0.
     200001    1    1    2    0    0 -0.31894568720E+03 -0.20161125332E+03 -0.38989402702E+03  0.81863288546E+03  0.61300000000E+03 0.  1.
         11    1    4    4    0    0  0.83956769087E+02  0.11108923676E+03 -0.14956378293E+03  0.20434990277E+03  0.51100000000E-03 0.  1.
    -200002    1    4    4    0    0  0.12670103747E+03  0.12294870565E+03 -0.14553089335E+03  0.23075696747E+03  0.30000000000E+02 0.  1.
    -200000    1    3    3    0    0  0.10828788064E+03 -0.32426689090E+02  0.24387811134E+03  0.28715028896E+03  0.10100000000E+03 0. -1.
<mgrwt>
<rscale>  0 0.14764022E+04</rscale>
<asrwt>0</asrwt>
<pdfrwt beam="1">  1        2 0.14157147E+00 0.14764022E+04</pdfrwt>
<pdfrwt beam="2">  1       -2 0.78555676E-01 0.14764022E+04</pdfrwt>
<totfact> 0.39731016E+01</totfact>
</mgrwt>
</event>
<event>
 8    2  0.7266322E-052  0.1705962E+04  0.7818608E-02  0.8757971E-01
          2   -1    0    0  501    0  0.00000000000E+00  0.00000000000E+00  0.78325677134E+03  0.78325677135E+03  0.25500000000E-02 0.  1.
         -2   -1    0    0    0  501 -0.00000000000E+00 -0.00000000000E+00 -0.92891220409E+03  0.92891220410E+03  0.25500000000E-02 0. -1.
    -200001    2    1    2    0    0  0.43970364012E+03  0.15273218590E+03  0.28643397348E+03  0.82948179036E+03  0.62396250499E+03 0.  0.
   -5000001    2    3    3    0    0 -0.48950464538E+02 -0.16479207873E+03  0.56398994585E+02  0.19487830459E+03  0.72416364307E+02 0.  0.
     200001    1    1    2    0    0 -0.43970364012E+03 -0.15273218590E+03 -0.43208940622E+03  0.88268718509E+03  0.61300000000E+03 0. -1.
         11    1    4    4    0    0  0.42901037781E+00 -0.97900319132E+02  0.24626973495E+02  0.10095119791E+03  0.51100000000E-03 0.  1.
    -200002    1    4    4    0    0 -0.49379474916E+02 -0.66891759602E+02  0.31772021090E+02  0.93927106683E+02  0.30000000000E+02 0.  1.
    -200000    1    3    3    0    0  0.48865410466E+03  0.31752426463E+03  0.23003497889E+03  0.63460348576E+03  0.10100000000E+03 0. -1.
<mgrwt>
<rscale>  0 0.17059622E+04</rscale>
<asrwt>0</asrwt>
<pdfrwt beam="1">  1        2 0.11189382E+00 0.17059622E+04</pdfrwt>
<pdfrwt beam="2">  1       -2 0.13270174E+00 0.17059622E+04</pdfrwt>
<totfact> 0.15352654E+01</totfact>
</mgrwt>
</event>
<event>
 8    2  0.7266322E-052  0.1593052E+04  0.7818608E-02  0.8824828E-01
         -2   -1    0    0    0  501 -0.00000000000E+00  0.00000000000E+00  0.34092583372E+03  0.34092583373E+03  0.25500000000E-02 0.  1.
          2   -1    0    0  501    0  0.00000000000E+00 -0.00000000000E+00 -0.18609738400E+04  0.18609738400E+04  0.25500000000E-02 0. -1.
    -200001    2    1    2    0    0 -0.26514903479E+03 -0.80423409757E+02 -0.16989994507E+03  0.69344326976E+03  0.61255664355E+03 0.  0.
   -5000001    2    3    3    0    0 -0.39565086338E+03 -0.14918653112E+03 -0.12257863588E+03  0.50851247074E+03  0.25448611780E+03 0.  0.
     200001    1    1    2    0    0  0.26514903479E+03  0.80423409757E+02 -0.13501480612E+04  0.15084564039E+04  0.61300000000E+03 0. -1.
         11    1    4    4    0    0 -0.22704055678E+03 -0.50163599084E+02 -0.18920292062E+03  0.29976915496E+03  0.51100000000E-03 0.  1.
    -200002    1    4    4    0    0 -0.16861030661E+03 -0.99022932036E+02  0.66624284739E+02  0.20874331577E+03  0.30000000000E+02 0.  1.
    -200000    1    3    3    0    0  0.13050182859E+03  0.68763121363E+02 -0.47321309186E+02  0.18493079902E+03  0.10100000000E+03 0.  1.
<mgrwt>
<rscale>  0 0.15930525E+04</rscale>
<asrwt>0</asrwt>
<pdfrwt beam="1">  1        2 0.26585340E+00 0.15930525E+04</pdfrwt>
<pdfrwt beam="2">  1       -2 0.48703691E-01 0.15930525E+04</pdfrwt>
<totfact> 0.36315284E+01</totfact>
</mgrwt>
</event>
<event>
 8    2  0.7266322E-052  0.1616903E+04  0.7818608E-02  0.8810231E-01
          2   -1    0    0  501    0  0.00000000000E+00  0.00000000000E+00  0.17085396192E+04  0.17085396192E+04  0.25500000000E-02 0.  1.
         -2   -1    0    0    0  501 -0.00000000000E+00 -0.00000000000E+00 -0.38254518986E+03  0.38254518987E+03  0.25500000000E-02 0. -1.
    -200001    2    1    2    0    0  0.47948953061E+03 -0.19826237154E+03  0.78306776809E+03  0.11216744019E+04  0.61297647315E+03 0.  0.
   -5000001    2    3    3    0    0 -0.13314706496E+02 -0.26340357113E+03  0.17979420129E+03  0.33348699505E+03  0.96586222386E+02 0.  0.
     200001    1    1    2    0    0 -0.47948953061E+03  0.19826237154E+03  0.54292666126E+03  0.96941040713E+03  0.61300000000E+03 0. -1.
         11    1    4    4    0    0 -0.15884612380E+02 -0.18407924805E+03  0.16427607114E+03  0.24723292261E+03  0.51100000000E-03 0.  1.
    -200002    1    4    4    0    0  0.25699058845E+01 -0.79324323084E+02  0.15518130151E+02  0.86254072439E+02  0.30000000000E+02 0. -1.
    -200000    1    3    3    0    0  0.49280423711E+03  0.65141199595E+02  0.60327356679E+03  0.78818740690E+03  0.10100000000E+03 0.  1.
<mgrwt>
<rscale>  0 0.16169027E+04</rscale>
<asrwt>0</asrwt>
<pdfrwt beam="1">  1        2 0.24407708E+00 0.16169027E+04</pdfrwt>
<pdfrwt beam="2">  1       -2 0.54649314E-01 0.16169027E+04</pdfrwt>
<totfact> 0.34322571E+01</totfact>
</mgrwt>
</event>
<event>
 8    2  0.7266322E-052  0.1247282E+04  0.7818608E-02  0.9072448E-01
         -2   -1    0    0    0  501 -0.00000000000E+00  0.00000000000E+00  0.47524586456E+03  0.47524586457E+03  0.25500000000E-02 0. -1.
          2   -1    0    0  501    0  0.00000000000E+00 -0.00000000000E+00 -0.81837296217E+03  0.81837296218E+03  0.25500000000E-02 0.  1.
    -200001    2    1    2    0    0  0.10927034504E+03 -0.29718470712E+02 -0.19150860887E+03  0.65207353455E+03  0.61294465606E+03 0.  0.
   -5000001    2    3    3    0    0  0.25673765322E+03  0.37330882409E+02  0.54816401463E+02  0.34043394552E+03  0.21350085722E+03 0.  0.
     200001    1    1    2    0    0 -0.10927034504E+03  0.29718470712E+02 -0.15161848874E+03  0.64154529219E+03  0.61300000000E+03 0. -1.
         11    1    4    4    0    0  0.10168844293E+02  0.81666111319E+02  0.29357555790E+00  0.82297298371E+02  0.51100000000E-03 0.  1.
    -200002    1    4    4    0    0  0.24656880893E+03 -0.44335228910E+02  0.54522825905E+02  0.25813664715E+03  0.30000000000E+02 0.  1.
    -200000    1    3    3    0    0 -0.14746730818E+03 -0.67049353121E+02 -0.24632501033E+03  0.31163958903E+03  0.10100000000E+03 0.  1.
<mgrwt>
<rscale>  0 0.12472824E+04</rscale>
<asrwt>0</asrwt>
<pdfrwt beam="1">  1        2 0.11691042E+00 0.12472824E+04</pdfrwt>
<pdfrwt beam="2">  1       -2 0.67892266E-01 0.12472824E+04</pdfrwt>
<totfact> 0.72219749E+01</totfact>
</mgrwt>
</event>
<event>
 8    2  0.7266322E-052  0.1658122E+04  0.7818608E-02  0.8785616E-01
         -2   -1    0    0    0  501 -0.00000000000E+00  0.00000000000E+00  0.41835685619E+03  0.41835685620E+03  0.25500000000E-02 0. -1.
          2   -1    0    0  501    0  0.00000000000E+00 -0.00000000000E+00 -0.16429563554E+04  0.16429563554E+04  0.25500000000E-02 0.  1.
    -200001    2    1    2    0    0 -0.27704943140E+03  0.43875307966E+03 -0.86812993983E+03  0.11826208882E+04  0.61292896855E+03 0.  0.
   -5000001    2    3    3    0    0  0.13978672998E+03  0.31802955566E+03 -0.43866763304E+03  0.56377888284E+03  0.68805583375E+02 0.  0.
     200001    1    1    2    0    0  0.27704943140E+03 -0.43875307966E+03 -0.35646955932E+03  0.87869232333E+03  0.61300000000E+03 0. -1.
         11    1    4    4    0    0  0.62578596936E+02  0.20251400221E+03 -0.25858863833E+03  0.33435921665E+03  0.51100000000E-03 0.  1.
    -200002    1    4    4    0    0  0.77208133042E+02  0.11551555345E+03 -0.18007899471E+03  0.22941966618E+03  0.30000000000E+02 0. -1.
    -200000    1    3    3    0    0 -0.41683616138E+03  0.12072352400E+03 -0.42946230679E+03  0.61884200539E+03  0.10100000000E+03 0. -1.
<mgrwt>
<rscale>  0 0.16581219E+04</rscale>
<asrwt>0</asrwt>
<pdfrwt beam="1">  1        2 0.23470805E+00 0.16581219E+04</pdfrwt>
<pdfrwt beam="2">  1       -2 0.59765266E-01 0.16581219E+04</pdfrwt>
<totfact> 0.30695364E+01</totfact>
</mgrwt>
</event>
<event>
 8    2  0.7266322E-052  0.1521693E+04  0.7818608E-02  0.8870154E-01
         -2   -1    0    0    0  501 -0.00000000000E+00  0.00000000000E+00  0.23791843543E+03  0.23791843544E+03  0.25500000000E-02 0. -1.
          2   -1    0    0  501    0  0.00000000000E+00 -0.00000000000E+00 -0.24331328691E+04  0.24331328691E+04  0.25500000000E-02 0.  1.
    -200001    2    1    2    0    0  0.65676536518E+02 -0.13884743405E+03 -0.18411536694E+04  0.19466756823E+04  0.61327592497E+03 0.  0.
   -5000001    2    3    3    0    0  0.26799136953E+03  0.51317933276E+02 -0.12920600614E+04  0.13231382344E+04  0.82599518953E+02 0.  0.
     200001    1    1    2    0    0 -0.65676536518E+02  0.13884743405E+03 -0.35406076429E+03  0.72437562231E+03  0.61300000000E+03 0. -1.
         11    1    4    4    0    0  0.13945476215E+03  0.53913476134E+02 -0.58117824185E+03  0.60010202665E+03  0.51100000000E-03 0.  1.
    -200002    1    4    4    0    0  0.12853660738E+03 -0.25955428585E+01 -0.71088181959E+03  0.72303620774E+03  0.30000000000E+02 0.  1.
    -200000    1    3    3    0    0 -0.20231483301E+03 -0.19016536732E+03 -0.54909360798E+03  0.62353744788E+03  0.10100000000E+03 0. -1.
<mgrwt>
<rscale>  0 0.15216927E+04</rscale>
<asrwt>0</asrwt>
<pdfrwt beam="1">  1        2 0.34759039E+00 0.15216927E+04</pdfrwt>
<pdfrwt beam="2">  1       -2 0.33988349E-01 0.15216927E+04</pdfrwt>
<totfact> 0.37464370E+01</totfact>
</mgrwt>
</event>
<event>
 8    2  0.7266322E-052  0.2030450E+04  0.7818608E-02  0.8592515E-01
          2   -1    0    0  501    0  0.00000000000E+00  0.00000000000E+00  0.11332734390E+04  0.11332734390E+04  0.25500000000E-02 0.  1.
         -2   -1    0    0    0  501 -0.00000000000E+00 -0.00000000000E+00 -0.90947348745E+03  0.90947348746E+03  0.25500000000E-02 0. -1.
    -200001    2    1    2    0    0  0.34091758707E+03 -0.71479578453E+03 -0.55653086609E+02  0.10030254179E+04  0.61302928819E+03 0.  0.
   -5000001    2    3    3    0    0  0.17867594378E+03 -0.36515108223E+03  0.26331014407E+03  0.49262135133E+03  0.89906385084E+02 0.  0.
     200001    1    1    2    0    0 -0.34091758707E+03  0.71479578453E+03  0.27945303813E+03  0.10397215085E+04  0.61300000000E+03 0.  1.
         11    1    4    4    0    0  0.12897926119E+03 -0.18331094979E+03  0.16170936808E+03  0.27638464837E+03  0.51100000000E-03 0.  1.
    -200002    1    4    4    0    0  0.49696682588E+02 -0.18184013243E+03  0.10160077599E+03  0.21623670296E+03  0.30000000000E+02 0.  1.
    -200000    1    3    3    0    0  0.16224164330E+03 -0.34964470230E+03 -0.31896323068E+03  0.51040406659E+03  0.10100000000E+03 0. -1.
<mgrwt>
<rscale>  0 0.20304503E+04</rscale>
<asrwt>0</asrwt>
<pdfrwt beam="1">  1        2 0.16189621E+00 0.20304503E+04</pdfrwt>
<pdfrwt beam="2">  1       -2 0.12992478E+00 0.20304503E+04</pdfrwt>
<totfact> 0.94533302E+00</totfact>
</mgrwt>
</event>
<event>
 8    2  0.7266322E-052  0.1429867E+04  0.7818608E-02  0.8932479E-01
          2   -1    0    0  501    0  0.00000000000E+00  0.00000000000E+00  0.18299425907E+04  0.18299425907E+04  0.25500000000E-02 0.  1.
         -2   -1    0    0    0  501 -0.00000000000E+00 -0.00000000000E+00 -0.27931472877E+03  0.27931472878E+03  0.25500000000E-02 0. -1.
    -200001    2    1    2    0    0 -0.37138544586E+02  0.25761013213E+03  0.11594063925E+04  0.13368807987E+04  0.61260495857E+03 0.  0.
   -5000001    2    3    3    0    0 -0.39221811758E+02 -0.61827700326E+02  0.90543599103E+03  0.91646810428E+03  0.12140196565E+03 0.  0.
     200001    1    1    2    0    0  0.37138544586E+02 -0.25761013213E+03  0.39122146935E+03  0.77237652071E+03  0.61300000000E+03 0. -1.
         11    1    4    4    0    0  0.14220614930E+02 -0.61679158057E+02  0.67703293659E+03  0.67998539812E+03  0.51100000000E-03 0.  1.
    -200002    1    4    4    0    0 -0.53442426687E+02 -0.14854226937E+00  0.22840305444E+03  0.23648270616E+03  0.30000000000E+02 0.  1.
    -200000    1    3    3    0    0  0.20832671712E+01  0.31943783246E+03  0.25397040151E+03  0.42041269445E+03  0.10100000000E+03 0. -1.
<mgrwt>
<rscale>  0 0.14298670E+04</rscale>
<asrwt>0</asrwt>
<pdfrwt beam="1">  1        2 0.26142038E+00 0.14298670E+04</pdfrwt>
<pdfrwt beam="2">  1       -2 0.39902103E-01 0.14298670E+04</pdfrwt>
<totfact> 0.56728662E+01</totfact>
</mgrwt>
</event>
<event>
 8    2  0.7266322E-052  0.1709379E+04  0.7818608E-02  0.8756033E-01
         -2   -1    0    0    0  501 -0.00000000000E+00  0.00000000000E+00  0.22876377817E+03  0.22876377818E+03  0.25500000000E-02 0. -1.
          2   -1    0    0  501    0  0.00000000000E+00 -0.00000000000E+00 -0.31932253966E+04  0.31932253966E+04  0.25500000000E-02 0.  1.
    -200001    2    1    2    0    0 -0.57198874518E+03 -0.91351172354E+02 -0.12027733318E+04  0.14688299953E+04  0.61260240449E+03 0.  0.
   -5000001    2    3    3    0    0 -0.30018021862E+03 -0.34133605941E+03 -0.65753763165E+03  0.80260534277E+03  0.72118860967E+02 0.  0.
     200001    1    1    2    0    0  0.57198874518E+03  0.91351172354E+02 -0.17616882866E+04  0.19531591795E+04  0.61300000000E+03 0. -1.
         11    1    4    4    0    0 -0.62826200518E+02 -0.10518752414E+03 -0.20589444566E+03  0.23959146366E+03  0.51100000000E-03 0.  1.
    -200002    1    4    4    0    0 -0.23735401810E+03 -0.23614853527E+03 -0.45164318599E+03  0.56301387911E+03  0.30000000000E+02 0.  1.
    -200000    1    3    3    0    0 -0.27180852656E+03  0.24998488705E+03 -0.54523570017E+03  0.66622465250E+03  0.10100000000E+03 0. -1.
<mgrwt>
<rscale>  0 0.17093792E+04</rscale>
<asrwt>0</asrwt>
<pdfrwt beam="1">  1        2 0.45617503E+00 0.17093792E+04</pdfrwt>
<pdfrwt beam="2">  1       -2 0.32680542E-01 0.17093792E+04</pdfrwt>
<totfact> 0.15292659E+01</totfact>
</mgrwt>
</event>
<event>
 8    2  0.7266322E-052  0.1881663E+04  0.7818608E-02  0.8664038E-01
          2   -1    0    0  501    0  0.00000000000E+00  0.00000000000E+00  0.49774785290E+04  0.49774785290E+04  0.25500000000E-02 0. -1.
         -2   -1    0    0    0  501 -0.00000000000E+00 -0.00000000000E+00 -0.17783378686E+03  0.17783378688E+03  0.25500000000E-02 0.  1.
    -200001    2    1    2    0    0  0.26011027165E+03  0.28815951762E+03  0.75776455028E+03  0.10488226049E+04  0.61247733172E+03 0.  0.
   -5000001    2    3    3    0    0  0.19837940037E+03  0.13119805057E+03 -0.18352434407E+02  0.24819399154E+03  0.68528319880E+02 0.  0.
     200001    1    1    2    0    0 -0.26011027165E+03 -0.28815951762E+03  0.40418801919E+04  0.41064897110E+04  0.61300000000E+03 0. -1.
         11    1    4    4    0    0  0.11040702906E+03  0.86815181545E+02  0.11593907272E+02  0.14092908322E+03  0.51100000000E-03 0.  1.
    -200002    1    4    4    0    0  0.87972371307E+02  0.44382869021E+02 -0.29946341678E+02  0.10726490831E+03  0.30000000000E+02 0.  1.
    -200000    1    3    3    0    0  0.61730871286E+02  0.15696146705E+03  0.77611698468E+03  0.80062861335E+03  0.10100000000E+03 0. -1.
<mgrwt>
<rscale>  0 0.18816629E+04</rscale>
<asrwt>0</asrwt>
<pdfrwt beam="1">  1        2 0.71106824E+00 0.18816629E+04</pdfrwt>
<pdfrwt beam="2">  1       -2 0.25404831E-01 0.18816629E+04</pdfrwt>
<totfact> 0.12420180E+00</totfact>
</mgrwt>
</event>
<event>
 8    2  0.7266322E-052  0.1537350E+04  0.7818608E-02  0.8859988E-01
         -2   -1    0    0    0  501 -0.00000000000E+00  0.00000000000E+00  0.42590452584E+03  0.42590452585E+03  0.25500000000E-02 0. -1.
          2   -1    0    0  501    0  0.00000000000E+00 -0.00000000000E+00 -0.13873095643E+04  0.13873095643E+04  0.25500000000E-02 0.  1.
    -200001    2    1    2    0    0  0.33508356173E+03  0.26220883903E+03 -0.26251254229E+03  0.79083735441E+03  0.61276130562E+03 0.  0.
   -5000001    2    3    3    0    0 -0.73407074066E+02  0.13067819931E+03 -0.30251604455E+03  0.34815666936E+03  0.85039513846E+02 0.  0.
     200001    1    1    2    0    0 -0.33508356173E+03 -0.26220883903E+03 -0.69889249622E+03  0.10223767358E+04  0.61300000000E+03 0. -1.
         11    1    4    4    0    0 -0.37477458596E+02  0.17507454618E+02 -0.13120889158E+03  0.13757486725E+03  0.51100000000E-03 0.  1.
    -200002    1    4    4    0    0 -0.35929615470E+02  0.11317074469E+03 -0.17130715297E+03  0.21058180211E+03  0.30000000000E+02 0.  1.
    -200000    1    3    3    0    0  0.40849063580E+03  0.13153063972E+03  0.40003502263E+02  0.44268068505E+03  0.10100000000E+03 0.  1.
<mgrwt>
<rscale>  0 0.15373502E+04</rscale>
<asrwt>0</asrwt>
<pdfrwt beam="1">  1        2 0.19818708E+00 0.15373502E+04</pdfrwt>
<pdfrwt beam="2">  1       -2 0.60843505E-01 0.15373502E+04</pdfrwt>
<totfact> 0.40794455E+01</totfact>
</mgrwt>
</event>
<event>
 8    2  0.7266322E-052  0.1504945E+04  0.7818608E-02  0.8881171E-01
         -2   -1    0    0    0  501 -0.00000000000E+00  0.00000000000E+00  0.23868414619E+03  0.23868414620E+03  0.25500000000E-02 0. -1.
          2   -1    0    0  501    0  0.00000000000E+00 -0.00000000000E+00 -0.23722342016E+04  0.23722342016E+04  0.25500000000E-02 0.  1.
    -200001    2    1    2    0    0  0.95891971996E+02 -0.25960232807E+03 -0.48117575613E+03  0.82690644651E+03  0.61290743507E+03 0.  0.
   -5000001    2    3    3    0    0  0.32308539868E+03 -0.24520562069E+03 -0.34194746894E+03  0.54158271061E+03  0.10896692002E+03 0.  0.
     200001    1    1    2    0    0 -0.95891971996E+02  0.25960232807E+03 -0.16523742993E+04  0.17840119013E+04  0.61300000000E+03 0.  1.
         11    1    4    4    0    0  0.60973088100E+02 -0.23964300179E+02 -0.10448621237E+03  0.12332628970E+03  0.51100000000E-03 0.  1.
    -200002    1    4    4    0    0  0.26211231058E+03 -0.22124132051E+03 -0.23746125657E+03  0.41825642091E+03  0.30000000000E+02 0.  1.
    -200000    1    3    3    0    0 -0.22719342669E+03 -0.14396707378E+02 -0.13922828718E+03  0.28532373590E+03  0.10100000000E+03 0. -1.
<mgrwt>
<rscale>  0 0.15049448E+04</rscale>
<asrwt>0</asrwt>
<pdfrwt beam="1">  1        2 0.33889059E+00 0.15049448E+04</pdfrwt>
<pdfrwt beam="2">  1       -2 0.34097737E-01 0.15049448E+04</pdfrwt>
<totfact> 0.40116159E+01</totfact>
</mgrwt>
</event>
<event>
 8    2  0.7266322E-052  0.1858153E+04  0.7818608E-02  0.8675972E-01
          2   -1    0    0  501    0  0.00000000000E+00  0.00000000000E+00  0.12872176196E+04  0.12872176196E+04  0.25500000000E-02 0.  1.
         -2   -1    0    0    0  501 -0.00000000000E+00 -0.00000000000E+00 -0.67058032094E+03  0.67058032094E+03  0.25500000000E-02 0. -1.
    -200001    2    1    2    0    0 -0.61522731255E+03  0.46586737722E+02 -0.36532470185E+02  0.87010555887E+03  0.61243292854E+03 0.  0.
   -5000001    2    3    3    0    0 -0.98979117392E+02  0.26272340145E+03  0.85797571488E+01  0.29961158917E+03  0.10427387392E+03 0.  0.
     200001    1    1    2    0    0  0.61522731255E+03 -0.46586737722E+02  0.65316976888E+03  0.10876923817E+04  0.61300000000E+03 0.  1.
         11    1    4    4    0    0 -0.44015922825E+02  0.56226166809E+02  0.39535408881E+02  0.81620045649E+02  0.51100000000E-03 0.  1.
    -200002    1    4    4    0    0 -0.54963194567E+02  0.20649723464E+03 -0.30955651732E+02  0.21799154352E+03  0.30000000000E+02 0.  1.
    -200000    1    3    3    0    0 -0.51624819516E+03 -0.21613666373E+03 -0.45112227334E+02  0.57049396970E+03  0.10100000000E+03 0. -1.
<mgrwt>
<rscale>  0 0.18581526E+04</rscale>
<asrwt>0</asrwt>
<pdfrwt beam="1">  1        2 0.18388823E+00 0.18581526E+04</pdfrwt>
<pdfrwt beam="2">  1       -2 0.95797188E-01 0.18581526E+04</pdfrwt>
<totfact> 0.16447418E+01</totfact>
</mgrwt>
</event>
<event>
 8    2  0.7266322E-052  0.1259024E+04  0.7818608E-02  0.9062706E-01
          2   -1    0    0  501    0  0.00000000000E+00  0.00000000000E+00  0.16651488201E+04  0.16651488201E+04  0.25500000000E-02 0.  1.
         -2   -1    0    0    0  501 -0.00000000000E+00 -0.00000000000E+00 -0.23798781423E+03  0.23798781425E+03  0.25500000000E-02 0. -1.
    -200001    2    1    2    0    0 -0.12739425191E+03  0.64147192675E+02  0.69402693456E+03  0.93690750818E+03  0.61300745122E+03 0.  0.
   -5000001    2    3    3    0    0 -0.95341389008E+02  0.78269252763E+02  0.74170730638E+03  0.81985522730E+03  0.32682840911E+03 0.  0.
     200001    1    1    2    0    0  0.12739425191E+03 -0.64147192675E+02  0.73313407134E+03  0.96622912620E+03  0.61300000000E+03 0.  1.
         11    1    4    4    0    0 -0.26617448796E+01 -0.12417054366E+03  0.28480823189E+03  0.31071069783E+03  0.51100000000E-03 0.  1.
    -200002    1    4    4    0    0 -0.92679644129E+02  0.20243979642E+03  0.45689907450E+03  0.50914452947E+03  0.30000000000E+02 0.  1.
    -200000    1    3    3    0    0 -0.32052862906E+02 -0.14122060089E+02 -0.47680371828E+02  0.11705228088E+03  0.10100000000E+03 0. -1.
<mgrwt>
<rscale>  0 0.12590236E+04</rscale>
<asrwt>0</asrwt>
<pdfrwt beam="1">  1        2 0.23787840E+00 0.12590236E+04</pdfrwt>
<pdfrwt beam="2">  1       -2 0.33998260E-01 0.12590236E+04</pdfrwt>
<totfact> 0.95171634E+01</totfact>
</mgrwt>
</event>
<event>
 8    2  0.7266322E-052  0.1506463E+04  0.7818608E-02  0.8880167E-01
         -2   -1    0    0    0  501 -0.00000000000E+00  0.00000000000E+00  0.31808176521E+03  0.31808176522E+03  0.25500000000E-02 0. -1.
          2   -1    0    0  501    0  0.00000000000E+00 -0.00000000000E+00 -0.17836847592E+04  0.17836847592E+04  0.25500000000E-02 0.  1.
    -200001    2    1    2    0    0  0.34055316707E+02 -0.24316544648E+03 -0.22879910220E+03  0.69971728644E+03  0.61397561256E+03 0.  0.
   -5000001    2    3    3    0    0  0.21894249415E+03  0.70667076344E+02 -0.21096314987E+03  0.32130845732E+03  0.76184136924E+02 0.  0.
     200001    1    1    2    0    0 -0.34055316707E+02  0.24316544648E+03 -0.12368038917E+04  0.14020492379E+04  0.61300000000E+03 0.  1.
         11    1    4    4    0    0  0.13908933824E+03  0.71422243064E+02 -0.14789208123E+03  0.21521860633E+03  0.51100000000E-03 0.  1.
    -200002    1    4    4    0    0  0.79853155903E+02 -0.75516671995E+00 -0.63071068639E+02  0.10608985099E+03  0.30000000000E+02 0.  1.
    -200000    1    3    3    0    0 -0.18488717744E+03 -0.31383252282E+03 -0.17835952328E+02  0.37840882912E+03  0.10100000000E+03 0. -1.
<mgrwt>
<rscale>  0 0.15064629E+04</rscale>
<asrwt>0</asrwt>
<pdfrwt beam="1">  1        2 0.25481210E+00 0.15064629E+04</pdfrwt>
<pdfrwt beam="2">  1       -2 0.45440253E-01 0.15064629E+04</pdfrwt>
<totfact> 0.46083958E+01</totfact>
</mgrwt>
</event>
<event>
 8    2  0.7266322E-052  0.1694379E+04  0.7818608E-02  0.8764577E-01
         -2   -1    0    0    0  501 -0.00000000000E+00  0.00000000000E+00  0.65251987660E+03  0.65251987661E+03  0.25500000000E-02 0. -1.
          2   -1    0    0  501    0  0.00000000000E+00 -0.00000000000E+00 -0.10999358719E+04  0.10999358719E+04  0.25500000000E-02 0.  1.
    -200001    2    1    2    0    0  0.28337892003E+02 -0.29092458698E+03 -0.74749983562E+03  0.10099872558E+04  0.61308898308E+03 0.  0.
   -5000001    2    3    3    0    0 -0.42607335664E+02 -0.42393931440E+03 -0.68673043617E+03  0.81862356292E+03  0.13040674240E+03 0.  0.
     200001    1    1    2    0    0 -0.28337892003E+02  0.29092458698E+03  0.30008384034E+03  0.74246849271E+03  0.61300000000E+03 0. -1.
         11    1    4    4    0    0 -0.43345543289E+02 -0.35770981991E+02 -0.82284640199E+02  0.99645176946E+02  0.51100000000E-03 0.  1.
    -200002    1    4    4    0    0  0.73820762452E+00 -0.38816833241E+03 -0.60444579597E+03  0.71897838598E+03  0.30000000000E+02 0.  1.
    -200000    1    3    3    0    0  0.70945227667E+02  0.13301472742E+03 -0.60769399452E+02  0.19136369287E+03  0.10100000000E+03 0.  1.
<mgrwt>
<rscale>  0 0.16943790E+04</rscale>
<asrwt>0</asrwt>
<pdfrwt beam="1">  1        2 0.15713370E+00 0.16943790E+04</pdfrwt>
<pdfrwt beam="2">  1       -2 0.93217125E-01 0.16943790E+04</pdfrwt>
<totfact> 0.22723949E+01</totfact>
</mgrwt>
</event>
<event>
 8    2  0.7266322E-052  0.2345538E+04  0.7818608E-02  0.8460179E-01
          2   -1    0    0  501    0  0.00000000000E+00  0.00000000000E+00  0.25412249434E+04  0.25412249434E+04  0.25500000000E-02 0.  1.
         -2   -1    0    0    0  501 -0.00000000000E+00 -0.00000000000E+00 -0.54122999228E+03  0.54122999228E+03  0.25500000000E-02 0. -1.
    -200001    2    1    2    0    0 -0.27047976042E+03 -0.54293392629E+03  0.20444131747E+04  0.22189281395E+04  0.61325387120E+03 0.  0.
   -5000001    2    3    3    0    0 -0.35787064871E+03 -0.33557016828E+03  0.14830174406E+04  0.16057372511E+04  0.37198474596E+03 0.  0.
     200001    1    1    2    0    0  0.27047976042E+03  0.54293392629E+03 -0.44418223528E+02  0.86352679617E+03  0.61300000000E+03 0. -1.
         11    1    4    4    0    0 -0.32106362531E+03 -0.20369471035E+03  0.13809741355E+04  0.14323627158E+04  0.51100000000E-03 0.  1.
    -200002    1    4    4    0    0 -0.36807023403E+02 -0.13187545793E+03  0.10204330510E+03  0.17337453530E+03  0.30000000000E+02 0.  1.
    -200000    1    3    3    0    0  0.87390888291E+02 -0.20736375801E+03  0.56139573407E+03  0.61319088849E+03  0.10100000000E+03 0. -1.
<mgrwt>
<rscale>  0 0.23455380E+04</rscale>
<asrwt>0</asrwt>
<pdfrwt beam="1">  1        2 0.36303213E+00 0.23455380E+04</pdfrwt>
<pdfrwt beam="2">  1       -2 0.77318571E-01 0.23455380E+04</pdfrwt>
<totfact> 0.56771989E+00</totfact>
</mgrwt>
</event>
<event>
 8    2  0.7266322E-052  0.2130830E+04  0.7818608E-02  0.8547783E-01
          2   -1    0    0  501    0  0.00000000000E+00  0.00000000000E+00  0.13098696194E+04  0.13098696194E+04  0.25500000000E-02 0.  1.
         -2   -1    0    0    0  501 -0.00000000000E+00 -0.00000000000E+00 -0.86658156097E+03  0.86658156098E+03  0.25500000000E-02 0. -1.
    -200001    2    1    2    0    0  0.84122825865E+03 -0.14692915710E+03  0.47964453143E+02  0.10533737506E+04  0.61485161573E+03 0.  0.
   -5000001    2    3    3    0    0  0.31644768066E+03 -0.10597240333E+03  0.30229409976E+03  0.46011438081E+03  0.94626823981E+02 0.  0.
     200001    1    1    2    0    0 -0.84122825865E+03  0.14692915710E+03  0.39532360529E+03  0.11230774298E+04  0.61300000000E+03 0.  1.
         11    1    4    4    0    0  0.25413128553E+03 -0.54485548696E+02  0.21359071173E+03  0.33641102456E+03  0.51100000000E-03 0.  1.
    -200002    1    4    4    0    0  0.62316395132E+02 -0.51486854635E+02  0.88703388023E+02  0.12370335626E+03  0.30000000000E+02 0.  1.
    -200000    1    3    3    0    0  0.52478057799E+03 -0.40956753767E+02 -0.25432964661E+03  0.59325936980E+03  0.10100000000E+03 0. -1.
<mgrwt>
<rscale>  0 0.21308298E+04</rscale>
<asrwt>0</asrwt>
<pdfrwt beam="1">  1        2 0.18712423E+00 0.21308298E+04</pdfrwt>
<pdfrwt beam="2">  1       -2 0.12379737E+00 0.21308298E+04</pdfrwt>
<totfact> 0.84108755E+00</totfact>
</mgrwt>
</event>
<event>
 8    2  0.7266322E-052  0.2013151E+04  0.7818608E-02  0.8600497E-01
         -2   -1    0    0    0  501 -0.00000000000E+00  0.00000000000E+00  0.25793301687E+04  0.25793301687E+04  0.25500000000E-02 0. -1.
          2   -1    0    0  501    0  0.00000000000E+00 -0.00000000000E+00 -0.39281296835E+03  0.39281296836E+03  0.25500000000E-02 0.  1.
    -200001    2    1    2    0    0  0.10418907786E+02 -0.52358158557E+03  0.19828735946E+04  0.21405867959E+04  0.61325191253E+03 0.  0.
   -5000001    2    3    3    0    0  0.28960786237E+03 -0.26670639542E+03  0.11974630642E+04  0.12625195793E+04  0.70942812028E+02 0.  0.
     200001    1    1    2    0    0 -0.10418907786E+02  0.52358158557E+03  0.20364360577E+03  0.83155634118E+03  0.61300000000E+03 0.  1.
         11    1    4    4    0    0  0.19876281256E+03 -0.17079430260E+03  0.85404060194E+03  0.89334355050E+03  0.51100000000E-03 0.  1.
    -200002    1    4    4    0    0  0.90845049810E+02 -0.95912092817E+02  0.34342246227E+03  0.36917602877E+03  0.30000000000E+02 0.  1.
    -200000    1    3    3    0    0 -0.27918895458E+03 -0.25687519016E+03  0.78541053040E+03  0.87806721664E+03  0.10100000000E+03 0. -1.
<mgrwt>
<rscale>  0 0.20131511E+04</rscale>
<asrwt>0</asrwt>
<pdfrwt beam="1">  1        2 0.56116135E-01 0.20131511E+04</pdfrwt>
<pdfrwt beam="2">  1       -2 0.36847576E+00 0.20131511E+04</pdfrwt>
<totfact> 0.97829169E-01</totfact>
</mgrwt>
</event>
<event>
 8    2  0.7266322E-052  0.1485989E+04  0.7818608E-02  0.8893824E-01
         -2   -1    0    0    0  501 -0.00000000000E+00  0.00000000000E+00  0.45291099780E+03  0.45291099781E+03  0.25500000000E-02 0. -1.
          2   -1    0    0  501    0  0.00000000000E+00 -0.00000000000E+00 -0.12188724995E+04  0.12188724995E+04  0.25500000000E-02 0.  1.
    -200001    2    1    2    0    0 -0.11888376865E+03  0.10075318602E+03 -0.82150314533E+03  0.10368516670E+04  0.61311451356E+03 0.  0.
   -5000001    2    3    3    0    0  0.22191748268E+03  0.96999797374E+02 -0.24492222167E+03  0.35949936406E+03  0.10293963417E+03 0.  0.
     200001    1    1    2    0    0  0.11888376865E+03 -0.10075318602E+03  0.55541643603E+02  0.63493183029E+03  0.61300000000E+03 0. -1.
         11    1    4    4    0    0  0.11569291197E+02  0.90903930337E+01 -0.67440970623E+02  0.69027300853E+02  0.51100000000E-03 0.  1.
    -200002    1    4    4    0    0  0.21034819148E+03  0.87909404340E+02 -0.17748125105E+03  0.29047206321E+03  0.30000000000E+02 0.  1.
    -200000    1    3    3    0    0 -0.34080125133E+03  0.37533886438E+01 -0.57658092366E+03  0.67735230298E+03  0.10100000000E+03 0.  1.
<mgrwt>
<rscale>  0 0.14859889E+04</rscale>
<asrwt>0</asrwt>
<pdfrwt beam="1">  1        2 0.17412464E+00 0.14859889E+04</pdfrwt>
<pdfrwt beam="2">  1       -2 0.64701571E-01 0.14859889E+04</pdfrwt>
<totfact> 0.44534527E+01</totfact>
</mgrwt>
</event>
<event>
 8    2  0.7266322E-052  0.2021684E+04  0.7818608E-02  0.8596549E-01
         -2   -1    0    0    0  501 -0.00000000000E+00  0.00000000000E+00  0.59420655853E+03  0.59420655853E+03  0.25500000000E-02 0. -1.
          2   -1    0    0  501    0  0.00000000000E+00 -0.00000000000E+00 -0.17196060301E+04  0.17196060301E+04  0.25500000000E-02 0.  1.
    -200001    2    1    2    0    0 -0.20866555117E+03  0.76292281964E+03 -0.72650087879E+03  0.12365560601E+04  0.61292317779E+03 0.  0.
   -5000001    2    3    3    0    0 -0.20747736496E+03 -0.27346462811E+01 -0.18718960444E+03  0.29459511739E+03  0.93230895741E+02 0.  0.
     200001    1    1    2    0    0  0.20866555117E+03 -0.76292281964E+03 -0.39889859278E+03  0.10772565285E+04  0.61300000000E+03 0.  1.
         11    1    4    4    0    0 -0.16032517121E+03 -0.14369048792E+02 -0.17189595412E+03  0.23549702574E+03  0.51100000000E-03 0.  1.
    -200002    1    4    4    0    0 -0.47152193752E+02  0.11634402511E+02 -0.15293650312E+02  0.59098091655E+02  0.30000000000E+02 0. -1.
    -200000    1    3    3    0    0 -0.11881862030E+01  0.76565746592E+03 -0.53931127436E+03  0.94196094269E+03  0.10100000000E+03 0. -1.
<mgrwt>
<rscale>  0 0.20216836E+04</rscale>
<asrwt>0</asrwt>
<pdfrwt beam="1">  1        2 0.24565800E+00 0.20216836E+04</pdfrwt>
<pdfrwt beam="2">  1       -2 0.84886652E-01 0.20216836E+04</pdfrwt>
<totfact> 0.12609009E+01</totfact>
</mgrwt>
</event>
<event>
 8    2  0.7266322E-052  0.1249416E+04  0.7818608E-02  0.9070669E-01
          2   -1    0    0  501    0  0.00000000000E+00  0.00000000000E+00  0.29404410368E+04  0.29404410368E+04  0.25500000000E-02 0. -1.
         -2   -1    0    0    0  501 -0.00000000000E+00 -0.00000000000E+00 -0.13272169043E+03  0.13272169046E+03  0.25500000000E-02 0.  1.
    -200001    2    1    2    0    0 -0.93453595044E+02  0.71461888584E+02  0.14821507295E+04  0.16079864464E+04  0.61237998899E+03 0.  0.
   -5000001    2    3    3    0    0 -0.77258198919E+02  0.23661223095E+03  0.13471737800E+04  0.13714347537E+04  0.63260673840E+02 0.  0.
     200001    1    1    2    0    0  0.93453595044E+02 -0.71461888584E+02  0.13255686169E+04  0.14651762809E+04  0.61300000000E+03 0.  1.
         11    1    4    4    0    0 -0.20142061156E+01  0.35142668851E+02  0.11475239223E+03  0.12002989512E+03  0.51100000000E-03 0.  1.
    -200002    1    4    4    0    0 -0.75243992804E+02  0.20146956210E+03  0.12324213878E+04  0.12514048586E+04  0.30000000000E+02 0.  1.
    -200000    1    3    3    0    0 -0.16195396124E+02 -0.16515034237E+03  0.13497694945E+03  0.23655169271E+03  0.10100000000E+03 0.  1.
<mgrwt>
<rscale>  0 0.12494164E+04</rscale>
<asrwt>0</asrwt>
<pdfrwt beam="1">  1        2 0.42006297E+00 0.12494164E+04</pdfrwt>
<pdfrwt beam="2">  1       -2 0.18960243E-01 0.12494164E+04</pdfrwt>
<totfact> 0.59344981E+01</totfact>
</mgrwt>
</event>
<event>
 8    2  0.7266322E-052  0.1487992E+04  0.7818608E-02  0.8892478E-01
          2   -1    0    0  501    0  0.00000000000E+00  0.00000000000E+00  0.28885547213E+04  0.28885547213E+04  0.25500000000E-02 0.  1.
         -2   -1    0    0    0  501 -0.00000000000E+00 -0.00000000000E+00 -0.19162866022E+03  0.19162866024E+03  0.25500000000E-02 0. -1.
    -200001    2    1    2    0    0  0.21397685135E+03 -0.18836841677E+02  0.20986512095E+04  0.21970963431E+04  0.61380332510E+03 0.  0.
   -5000001    2    3    3    0    0  0.21008611611E+03  0.26090879710E+03  0.10756866704E+04  0.11317653107E+04  0.10761658325E+03 0.  0.
     200001    1    1    2    0    0 -0.21397685135E+03  0.18836841677E+02  0.59827485149E+03  0.88308703843E+03  0.61300000000E+03 0. -1.
         11    1    4    4    0    0  0.93473576837E+02  0.14024486234E+03  0.38356772610E+03  0.41896316244E+03  0.51100000000E-03 0.  1.
    -200002    1    4    4    0    0  0.11661253928E+03  0.12066393476E+03  0.69211894432E+03  0.71280214826E+03  0.30000000000E+02 0.  1.
    -200000    1    3    3    0    0  0.38907352309E+01 -0.27974563878E+03  0.10229645391E+04  0.10653310324E+04  0.10100000000E+03 0. -1.
<mgrwt>
<rscale>  0 0.14879918E+04</rscale>
<asrwt>0</asrwt>
<pdfrwt beam="1">  1        2 0.41265065E+00 0.14879918E+04</pdfrwt>
<pdfrwt beam="2">  1       -2 0.27375524E-01 0.14879918E+04</pdfrwt>
<totfact> 0.32153082E+01</totfact>
</mgrwt>
</event>
<event>
 8    2  0.7266322E-052  0.1323866E+04  0.7818608E-02  0.9010850E-01
          2   -1    0    0  501    0  0.00000000000E+00  0.00000000000E+00  0.25313913610E+04  0.25313913610E+04  0.25500000000E-02 0.  1.
         -2   -1    0    0    0  501 -0.00000000000E+00 -0.00000000000E+00 -0.17308879353E+03  0.17308879355E+03  0.25500000000E-02 0. -1.
    -200001    2    1    2    0    0  0.13791382294E+03 -0.62012355917E+02  0.15856944878E+04  0.17067036266E+04  0.61281686152E+03 0.  0.
   -5000001    2    3    3    0    0  0.56266730949E+02 -0.13686561054E+03  0.15401817060E+04  0.15500458127E+04  0.92650923862E+02 0.  0.
     200001    1    1    2    0    0 -0.13791382294E+03  0.62012355917E+02  0.77260807970E+03  0.99777652792E+03  0.61300000000E+03 0. -1.
         11    1    4    4    0    0  0.13124653102E+02 -0.10921542450E+03  0.11666018897E+04  0.11717765292E+04  0.51100000000E-03 0.  1.
    -200002    1    4    4    0    0  0.43142077848E+02 -0.27650186044E+02  0.37357981632E+03  0.37826928349E+03  0.30000000000E+02 0.  1.
    -200000    1    3    3    0    0  0.81647091989E+02  0.74853254623E+02  0.45512781797E+02  0.15665781393E+03  0.10100000000E+03 0. -1.
<mgrwt>
<rscale>  0 0.13238663E+04</rscale>
<asrwt>0</asrwt>
<pdfrwt beam="1">  1        2 0.36162732E+00 0.13238663E+04</pdfrwt>
<pdfrwt beam="2">  1       -2 0.24726972E-01 0.13238663E+04</pdfrwt>
<totfact> 0.60993426E+01</totfact>
</mgrwt>
</event>
<event>
 8    2  0.7266322E-052  0.1583999E+04  0.7818608E-02  0.8830439E-01
          2   -1    0    0  501    0  0.00000000000E+00  0.00000000000E+00  0.78793550545E+03  0.78793550545E+03  0.25500000000E-02 0. -1.
         -2   -1    0    0    0  501 -0.00000000000E+00 -0.00000000000E+00 -0.79608405881E+03  0.79608405881E+03  0.25500000000E-02 0.  1.
    -200001    2    1    2    0    0  0.39052171485E+02  0.40167862104E+03  0.29377350873E+03  0.79042223672E+03  0.61285695817E+03 0.  0.
   -5000001    2    3    3    0    0 -0.78744070962E+02  0.45227612738E+03  0.38501807514E+03  0.60343926081E+03  0.71733529100E+02 0.  0.
     200001    1    1    2    0    0 -0.39052171485E+02 -0.40167862104E+03 -0.30192206210E+03  0.79359732754E+03  0.61300000000E+03 0.  1.
         11    1    4    4    0    0  0.41283554623E+00  0.91934938378E+02  0.52527254904E+02  0.10588350124E+03  0.51100000000E-03 0.  1.
    -200002    1    4    4    0    0 -0.79156906508E+02  0.36034118900E+03  0.33249082023E+03  0.49755575957E+03  0.30000000000E+02 0.  1.
    -200000    1    3    3    0    0  0.11779624245E+03 -0.50597506340E+02 -0.91244566402E+02  0.18698297591E+03  0.10100000000E+03 0.  1.
<mgrwt>
<rscale>  0 0.15839986E+04</rscale>
<asrwt>0</asrwt>
<pdfrwt beam="1">  1        2 0.11256222E+00 0.15839986E+04</pdfrwt>
<pdfrwt beam="2">  1       -2 0.11372629E+00 0.15839986E+04</pdfrwt>
<totfact> 0.22602914E+01</totfact>
</mgrwt>
</event>
<event>
 8    2  0.7266322E-052  0.1793014E+04  0.7818608E-02  0.8710023E-01
          2   -1    0    0  501    0  0.00000000000E+00  0.00000000000E+00  0.47168076911E+04  0.47168076911E+04  0.25500000000E-02 0.  1.
         -2   -1    0    0    0  501 -0.00000000000E+00 -0.00000000000E+00 -0.17039598694E+03  0.17039598696E+03  0.25500000000E-02 0. -1.
    -200001    2    1    2    0    0  0.46967529284E+03 -0.38401881327E+03  0.29408789446E+04  0.30646862510E+04  0.61275404614E+03 0.  0.
   -5000001    2    3    3    0    0  0.42095351674E+03 -0.32352040009E+03  0.17631950533E+04  0.18801297023E+04  0.37968880532E+03 0.  0.
     200001    1    1    2    0    0 -0.46967529284E+03  0.38401881327E+03  0.16055327595E+04  0.18225174270E+04  0.61300000000E+03 0. -1.
         11    1    4    4    0    0  0.20691228337E+03 -0.37366113613E+03  0.10622031171E+04  0.11448627864E+04  0.51100000000E-03 0.  1.
    -200002    1    4    4    0    0  0.21404123338E+03  0.50140736049E+02  0.70099193620E+03  0.73526691590E+03  0.30000000000E+02 0.  1.
    -200000    1    3    3    0    0  0.48721776097E+02 -0.60498413182E+02  0.11776838912E+04  0.11845565487E+04  0.10100000000E+03 0.  1.
<mgrwt>
<rscale>  0 0.17930143E+04</rscale>
<asrwt>0</asrwt>
<pdfrwt beam="1">  1        2 0.67382967E+00 0.17930143E+04</pdfrwt>
<pdfrwt beam="2">  1       -2 0.24342284E-01 0.17930143E+04</pdfrwt>
<totfact> 0.23315973E+00</totfact>
</mgrwt>
</event>
<event>
 8    2  0.7266322E-052  0.1526002E+04  0.7818608E-02  0.8867344E-01
          2   -1    0    0  501    0  0.00000000000E+00  0.00000000000E+00  0.23889691018E+04  0.23889691018E+04  0.25500000000E-02 0. -1.
         -2   -1    0    0    0  501 -0.00000000000E+00 -0.00000000000E+00 -0.24369101230E+03  0.24369101232E+03  0.25500000000E-02 0.  1.
    -200001    2    1    2    0    0  0.91140429715E+02 -0.32137614680E+03  0.16055085641E+04  0.17502150188E+04  0.61156001918E+03 0.  0.
   -5000001    2    3    3    0    0  0.17143926110E+03 -0.45953612658E+03  0.10327715622E+04  0.11470858821E+04  0.92865758710E+02 0.  0.
     200001    1    1    2    0    0 -0.91140429715E+02  0.32137614680E+03  0.53976952541E+03  0.88244509530E+03  0.61300000000E+03 0. -1.
         11    1    4    4    0    0 -0.58158850963E+01 -0.55885083196E+02  0.14275670292E+03  0.15341591596E+03  0.51100000000E-03 0.  1.
    -200002    1    4    4    0    0  0.17725514620E+03 -0.40365104338E+03  0.89001485933E+03  0.99366996609E+03  0.30000000000E+02 0.  1.
    -200000    1    3    3    0    0 -0.80298831387E+02  0.13815997977E+03  0.57273700186E+03  0.60312913678E+03  0.10100000000E+03 0. -1.
<mgrwt>
<rscale>  0 0.15260017E+04</rscale>
<asrwt>0</asrwt>
<pdfrwt beam="1">  1        2 0.34128130E+00 0.15260017E+04</pdfrwt>
<pdfrwt beam="2">  1       -2 0.34813002E-01 0.15260017E+04</pdfrwt>
<totfact> 0.37729254E+01</totfact>
</mgrwt>
</event>
<event>
 8    2  0.7266322E-052  0.1482567E+04  0.7818608E-02  0.8896129E-01
          2   -1    0    0  501    0  0.00000000000E+00  0.00000000000E+00  0.21968559918E+03  0.21968559920E+03  0.25500000000E-02 0.  1.
         -2   -1    0    0    0  501 -0.00000000000E+00 -0.00000000000E+00 -0.25013081380E+04  0.25013081380E+04  0.25500000000E-02 0. -1.
    -200001    2    1    2    0    0 -0.21312105760E+03  0.29117157513E+02 -0.17952250093E+04  0.19094397028E+04  0.61388822315E+03 0.  0.
   -5000001    2    3    3    0    0 -0.14463229547E+02 -0.24880247739E+03 -0.10311163212E+04  0.10663695140E+04  0.10877138699E+03 0.  0.
     200001    1    1    2    0    0  0.21312105760E+03 -0.29117157513E+02 -0.48639752953E+03  0.81155403442E+03  0.61300000000E+03 0.  1.
         11    1    4    4    0    0  0.40466341607E+02 -0.55461711783E+02 -0.25152665885E+03  0.26072818488E+03  0.51100000000E-03 0.  1.
    -200002    1    4    4    0    0 -0.54929571153E+02 -0.19334076561E+03 -0.77958966238E+03  0.80564132908E+03  0.30000000000E+02 0.  1.
    -200000    1    3    3    0    0 -0.19865782805E+03  0.27791963490E+03 -0.76410868807E+03  0.84307018883E+03  0.10100000000E+03 0.  1.
<mgrwt>
<rscale>  0 0.14825672E+04</rscale>
<asrwt>0</asrwt>
<pdfrwt beam="1">  1        2 0.31383658E-01 0.14825672E+04</pdfrwt>
<pdfrwt beam="2">  1       -2 0.35732972E+00 0.14825672E+04</pdfrwt>
<totfact> 0.23116976E+00</totfact>
</mgrwt>
</event>
<event>
 8    2  0.7266322E-052  0.1538369E+04  0.7818608E-02  0.8859331E-01
         -2   -1    0    0    0  501 -0.00000000000E+00  0.00000000000E+00  0.78933768615E+03  0.78933768616E+03  0.25500000000E-02 0. -1.
          2   -1    0    0  501    0  0.00000000000E+00 -0.00000000000E+00 -0.74954612360E+03  0.74954612360E+03  0.25500000000E-02 0.  1.
    -200001    2    1    2    0    0 -0.22816877349E+02  0.44672613992E+03 -0.10499713729E+03  0.76634408808E+03  0.61333026056E+03 0.  0.
   -5000001    2    3    3    0    0 -0.13104762228E+03  0.54199857828E+03 -0.46052231664E+02  0.58069325033E+03  0.15539596126E+03 0.  0.
     200001    1    1    2    0    0  0.22816877349E+02 -0.44672613992E+03  0.14478869984E+03  0.77253972169E+03  0.61300000000E+03 0. -1.
         11    1    4    4    0    0 -0.15176821624E+03  0.48118700283E+03 -0.19340035979E+02  0.50492431130E+03  0.51100000000E-03 0.  1.
    -200002    1    4    4    0    0  0.20720593964E+02  0.60811575450E+02 -0.26712195685E+02  0.75768939027E+02  0.30000000000E+02 0.  1.
    -200000    1    3    3    0    0  0.10823074493E+03 -0.95272438357E+02 -0.58944905625E+02  0.18565083775E+03  0.10100000000E+03 0. -1.
<mgrwt>
<rscale>  0 0.15383693E+04</rscale>
<asrwt>0</asrwt>
<pdfrwt beam="1">  1        2 0.10707802E+00 0.15383693E+04</pdfrwt>
<pdfrwt beam="2">  1       -2 0.11276253E+00 0.15383693E+04</pdfrwt>
<totfact> 0.24676703E+01</totfact>
</mgrwt>
</event>
<event>
 8    2  0.7266322E-052  0.1397012E+04  0.7818608E-02  0.8955985E-01
          2   -1    0    0  501    0  0.00000000000E+00  0.00000000000E+00  0.24708816855E+04  0.24708816855E+04  0.25500000000E-02 0.  1.
         -2   -1    0    0    0  501 -0.00000000000E+00 -0.00000000000E+00 -0.19746405698E+03  0.19746405700E+03  0.25500000000E-02 0. -1.
    -200001    2    1    2    0    0  0.13678636081E+03  0.19858358007E+03  0.68684433590E+03  0.95046048450E+03  0.61112522780E+03 0.  0.
   -5000001    2    3    3    0    0  0.26929663311E+02  0.22662887085E+03 -0.80314832980E+01  0.23918807787E+03  0.71137753723E+02 0.  0.
     200001    1    1    2    0    0 -0.13678636081E+03 -0.19858358007E+03  0.15865732926E+04  0.17178852580E+04  0.61300000000E+03 0.  1.
         11    1    4    4    0    0 -0.17798386537E+02  0.37804509603E+02 -0.93974757141E+01  0.42828449186E+02  0.51100000000E-03 0.  1.
    -200002    1    4    4    0    0  0.44728049848E+02  0.18882436125E+03  0.13659924161E+01  0.19635962869E+03  0.30000000000E+02 0.  1.
    -200000    1    3    3    0    0  0.10985669750E+03 -0.28045290778E+02  0.69487581920E+03  0.71127240662E+03  0.10100000000E+03 0.  1.
<mgrwt>
<rscale>  0 0.13970116E+04</rscale>
<asrwt>0</asrwt>
<pdfrwt beam="1">  1        2 0.35298307E+00 0.13970116E+04</pdfrwt>
<pdfrwt beam="2">  1       -2 0.28209153E-01 0.13970116E+04</pdfrwt>
<totfact> 0.51274537E+01</totfact>
</mgrwt>
</event>
<event>
 8    2  0.7266322E-052  0.1741412E+04  0.7818608E-02  0.8738092E-01
         -2   -1    0    0    0  501 -0.00000000000E+00  0.00000000000E+00  0.55410725197E+03  0.55410725198E+03  0.25500000000E-02 0. -1.
          2   -1    0    0  501    0  0.00000000000E+00 -0.00000000000E+00 -0.13681988127E+04  0.13681988127E+04  0.25500000000E-02 0.  1.
    -200001    2    1    2    0    0 -0.55665035885E+03 -0.26051288459E+03 -0.48134949919E+03  0.99267556576E+03  0.61317277618E+03 0.  0.
   -5000001    2    3    3    0    0 -0.59761985647E+03 -0.17735199240E+03 -0.54049535842E+03  0.84336559828E+03  0.17471999837E+03 0.  0.
     200001    1    1    2    0    0  0.55665035885E+03  0.26051288459E+03 -0.33274206159E+03  0.92963049896E+03  0.61300000000E+03 0.  1.
         11    1    4    4    0    0 -0.12085753796E+01  0.17062045728E+02 -0.27842502426E+02  0.32676887864E+02  0.51100000000E-03 0.  1.
    -200002    1    4    4    0    0 -0.59641128109E+03 -0.19441403813E+03 -0.51265285600E+03  0.81068871041E+03  0.30000000000E+02 0.  1.
    -200000    1    3    3    0    0  0.40969497616E+02 -0.83160892195E+02  0.59145859239E+02  0.14930996749E+03  0.10100000000E+03 0. -1.
<mgrwt>
<rscale>  0 0.17414119E+04</rscale>
<asrwt>0</asrwt>
<pdfrwt beam="1">  1        2 0.19545697E+00 0.17414119E+04</pdfrwt>
<pdfrwt beam="2">  1       -2 0.79158179E-01 0.17414119E+04</pdfrwt>
<totfact> 0.23184538E+01</totfact>
</mgrwt>
</event>
<event>
 8    2  0.7266322E-052  0.1392918E+04  0.7818608E-02  0.8958961E-01
          2   -1    0    0  501    0  0.00000000000E+00  0.00000000000E+00  0.92634117424E+03  0.92634117424E+03  0.25500000000E-02 0.  1.
         -2   -1    0    0    0  501 -0.00000000000E+00 -0.00000000000E+00 -0.52362471429E+03  0.52362471430E+03  0.25500000000E-02 0. -1.
    -200001    2    1    2    0    0  0.21800923973E+03  0.24688975721E+03  0.16536333503E+03  0.71471893225E+03  0.61236879306E+03 0.  0.
   -5000001    2    3    3    0    0 -0.57888689674E+01  0.36676810317E+03  0.22006729002E+03  0.43606155484E+03  0.84662358634E+02 0.  0.
     200001    1    1    2    0    0 -0.21800923973E+03 -0.24688975721E+03  0.23735312492E+03  0.73524695629E+03  0.61300000000E+03 0. -1.
         11    1    4    4    0    0 -0.90123416232E+01  0.30404299511E+03  0.19840514335E+03  0.36316382817E+03  0.51100000000E-03 0.  1.
    -200002    1    4    4    0    0  0.32234726558E+01  0.62725108057E+02  0.21662146669E+02  0.72897726679E+02  0.30000000000E+02 0. -1.
    -200000    1    3    3    0    0  0.22379810870E+03 -0.11987834596E+03 -0.54703954995E+02  0.27865737740E+03  0.10100000000E+03 0. -1.
<mgrwt>
<rscale>  0 0.13929180E+04</rscale>
<asrwt>0</asrwt>
<pdfrwt beam="1">  1        2 0.13233445E+00 0.13929180E+04</pdfrwt>
<pdfrwt beam="2">  1       -2 0.74803531E-01 0.13929180E+04</pdfrwt>
<totfact> 0.48976472E+01</totfact>
</mgrwt>
</event>
<event>
 8    2  0.7266322E-052  0.1726703E+04  0.7818608E-02  0.8746280E-01
          2   -1    0    0  501    0  0.00000000000E+00  0.00000000000E+00  0.31163837660E+04  0.31163837660E+04  0.25500000000E-02 0.  1.
         -2   -1    0    0    0  501 -0.00000000000E+00 -0.00000000000E+00 -0.23917971770E+03  0.23917971771E+03  0.25500000000E-02 0. -1.
    -200001    2    1    2    0    0 -0.17966467151E+03  0.51773639343E+03  0.19501993243E+04  0.21164359174E+04  0.61293818664E+03 0.  0.
   -5000001    2    3    3    0    0 -0.34034212974E+03  0.10968503156E+03  0.10115351013E+04  0.10754677704E+04  0.74592845356E+02 0.  0.
     200001    1    1    2    0    0  0.17966467151E+03 -0.51773639343E+03  0.92700472394E+03  0.12391275663E+04  0.61300000000E+03 0. -1.
         11    1    4    4    0    0 -0.19131691805E+03  0.30960472506E+02  0.55812361865E+03  0.59081527375E+03  0.51100000000E-03 0.  1.
    -200002    1    4    4    0    0 -0.14902521169E+03  0.78724559050E+02  0.45341148266E+03  0.48465249667E+03  0.30000000000E+02 0. -1.
    -200000    1    3    3    0    0  0.16067745823E+03  0.40805136188E+03  0.93866422300E+03  0.10409681470E+04  0.10100000000E+03 0.  1.
<mgrwt>
<rscale>  0 0.17267030E+04</rscale>
<asrwt>0</asrwt>
<pdfrwt beam="1">  1        2 0.44519765E+00 0.17267030E+04</pdfrwt>
<pdfrwt beam="2">  1       -2 0.34168534E-01 0.17267030E+04</pdfrwt>
<totfact> 0.15525838E+01</totfact>
</mgrwt>
</event>
<event>
 8    2  0.7266322E-052  0.1579824E+04  0.7818608E-02  0.8833040E-01
          2   -1    0    0  501    0  0.00000000000E+00  0.00000000000E+00  0.13190424555E+04  0.13190424555E+04  0.25500000000E-02 0.  1.
         -2   -1    0    0    0  501 -0.00000000000E+00 -0.00000000000E+00 -0.47304063615E+03  0.47304063616E+03  0.25500000000E-02 0. -1.
    -200001    2    1    2    0    0 -0.37600427932E+03  0.88865888285E+02  0.66370436556E+02  0.72771921724E+03  0.61310183503E+03 0.  0.
   -5000001    2    3    3    0    0 -0.49554219860E+03 -0.70772195106E+01 -0.57635807327E+02  0.50619508176E+03  0.85436624986E+02 0.  0.
     200001    1    1    2    0    0  0.37600427932E+03 -0.88865888285E+02  0.77963138282E+03  0.10643638745E+04  0.61300000000E+03 0.  1.
         11    1    4    4    0    0 -0.15383294123E+03  0.28112616466E+02 -0.37326242426E+02  0.16077357179E+03  0.51100000000E-03 0.  1.
    -200002    1    4    4    0    0 -0.34170925736E+03 -0.35189835977E+02 -0.20309564901E+02  0.34542150997E+03  0.30000000000E+02 0.  1.
    -200000    1    3    3    0    0  0.11953791927E+03  0.95943107795E+02  0.12400624388E+03  0.22152413548E+03  0.10100000000E+03 0. -1.
<mgrwt>
<rscale>  0 0.15798236E+04</rscale>
<asrwt>0</asrwt>
<pdfrwt beam="1">  1        2 0.18843464E+00 0.15798236E+04</pdfrwt>
<pdfrwt beam="2">  1       -2 0.67577234E-01 0.15798236E+04</pdfrwt>
<totfact> 0.35393884E+01</totfact>
</mgrwt>
</event>
<event>
 8    2  0.7266322E-052  0.2327306E+04  0.7818608E-02  0.8467232E-01
          2   -1    0    0  501    0  0.00000000000E+00  0.00000000000E+00  0.26691522236E+04  0.26691522236E+04  0.25500000000E-02 0.  1.
         -2   -1    0    0    0  501 -0.00000000000E+00 -0.00000000000E+00 -0.50731023953E+03  0.50731023954E+03  0.25500000000E-02 0. -1.
    -200001    2    1    2    0    0 -0.60608809355E+03  0.78135181010E+03  0.10647802891E+04  0.15773480861E+04  0.61352790673E+03 0.  0.
   -5000001    2    3    3    0    0 -0.47207976362E+03  0.17642117357E+03  0.64304502977E+03  0.82106709568E+03  0.81612079861E+02 0.  0.
     200001    1    1    2    0    0  0.60608809355E+03 -0.78135181010E+03  0.10970616949E+04  0.15991143770E+04  0.61300000000E+03 0. -1.
         11    1    4    4    0    0 -0.86599236968E+02  0.26041997691E+02  0.16461250576E+03  0.18781610831E+03  0.51100000000E-03 0.  1.
    -200002    1    4    4    0    0 -0.38548052665E+03  0.15037917588E+03  0.47843252401E+03  0.63325098737E+03  0.30000000000E+02 0. -1.
    -200000    1    3    3    0    0 -0.13400832992E+03  0.60493063653E+03  0.42173525935E+03  0.75628099042E+03  0.10100000000E+03 0.  1.
<mgrwt>
<rscale>  0 0.23273060E+04</rscale>
<asrwt>0</asrwt>
<pdfrwt beam="1">  1        2 0.38130746E+00 0.23273060E+04</pdfrwt>
<pdfrwt beam="2">  1       -2 0.72472892E-01 0.23273060E+04</pdfrwt>
<totfact> 0.56080360E+00</totfact>
</mgrwt>
</event>
<event>
 8    2  0.7266322E-052  0.1799463E+04  0.7818608E-02  0.8706585E-01
          2   -1    0    0  501    0  0.00000000000E+00  0.00000000000E+00  0.11483073727E+04  0.11483073727E+04  0.25500000000E-02 0.  1.
         -2   -1    0    0    0  501 -0.00000000000E+00 -0.00000000000E+00 -0.70496554708E+03  0.70496554708E+03  0.25500000000E-02 0. -1.
    -200001    2    1    2    0    0  0.59883246843E+03  0.52966584427E+02 -0.54052983372E+02  0.86101469720E+03  0.61401856606E+03 0.  0.
   -5000001    2    3    3    0    0  0.56299922758E+03  0.17199809179E+03 -0.20959477757E+03  0.63775079363E+03  0.12745442384E+03 0.  0.
     200001    1    1    2    0    0 -0.59883246843E+03 -0.52966584427E+02  0.49739480904E+03  0.99225822263E+03  0.61300000000E+03 0.  1.
         11    1    4    4    0    0  0.25560803819E+03  0.80828067290E+02 -0.31964781411E+02  0.26998220849E+03  0.51100000000E-03 0.  1.
    -200002    1    4    4    0    0  0.30739118939E+03  0.91170024497E+02 -0.17762999616E+03  0.36776858514E+03  0.30000000000E+02 0.  1.
    -200000    1    3    3    0    0  0.35833240854E+02 -0.11903150736E+03  0.15554179420E+03  0.22326390357E+03  0.10100000000E+03 0.  1.
<mgrwt>
<rscale>  0 0.17994634E+04</rscale>
<asrwt>0</asrwt>
<pdfrwt beam="1">  1        2 0.16404391E+00 0.17994634E+04</pdfrwt>
<pdfrwt beam="2">  1       -2 0.10070937E+00 0.17994634E+04</pdfrwt>
<totfact> 0.17609989E+01</totfact>
</mgrwt>
</event>
<event>
 8    2  0.7266322E-052  0.1962123E+04  0.7818608E-02  0.8624537E-01
          2   -1    0    0  501    0  0.00000000000E+00  0.00000000000E+00  0.14605047005E+04  0.14605047005E+04  0.25500000000E-02 0.  1.
         -2   -1    0    0    0  501 -0.00000000000E+00 -0.00000000000E+00 -0.65900620198E+03  0.65900620199E+03  0.25500000000E-02 0. -1.
    -200001    2    1    2    0    0  0.17184209272E+03 -0.69454775640E+03  0.10488000030E+03  0.94777175797E+03  0.61265422546E+03 0.  0.
   -5000001    2    3    3    0    0  0.30788986655E+03 -0.67766302396E+03  0.13610364913E+02  0.75457435297E+03  0.12318225587E+03 0.  0.
     200001    1    1    2    0    0 -0.17184209272E+03  0.69454775640E+03  0.69661849823E+03  0.11717391445E+04  0.61300000000E+03 0.  1.
         11    1    4    4    0    0  0.28086469600E+03 -0.51294211493E+03  0.68878999833E+01  0.58484359780E+03  0.51100000000E-03 0.  1.
    -200002    1    4    4    0    0  0.27025170559E+02 -0.16472090903E+03  0.67224649300E+01  0.16973075516E+03  0.30000000000E+02 0.  1.
    -200000    1    3    3    0    0 -0.13604777383E+03 -0.16884732447E+02  0.91269635389E+02  0.19319740500E+03  0.10100000000E+03 0. -1.
<mgrwt>
<rscale>  0 0.19621230E+04</rscale>
<asrwt>0</asrwt>
<pdfrwt beam="1">  1        2 0.20864353E+00 0.19621230E+04</pdfrwt>
<pdfrwt beam="2">  1       -2 0.94143743E-01 0.19621230E+04</pdfrwt>
<totfact> 0.13668623E+01</totfact>
</mgrwt>
</event>
<event>
 8    2  0.7266322E-052  0.1415201E+04  0.7818608E-02  0.8942888E-01
          2   -1    0    0  501    0  0.00000000000E+00  0.00000000000E+00  0.13184154717E+04  0.13184154717E+04  0.25500000000E-02 0.  1.
         -2   -1    0    0    0  501 -0.00000000000E+00 -0.00000000000E+00 -0.37977292502E+03  0.37977292502E+03  0.25500000000E-02 0. -1.
    -200001    2    1    2    0    0 -0.15249632133E+03 -0.52083393405E+02  0.91836033361E+02  0.64044642493E+03  0.61300078164E+03 0.  0.
   -5000001    2    3    3    0    0  0.78675699770E+02 -0.26505527098E+03 -0.29964278683E+02  0.28854609815E+03  0.76920935718E+02 0.  0.
     200001    1    1    2    0    0  0.15249632133E+03  0.52083393405E+02  0.84680651329E+03  0.10577419718E+04  0.61300000000E+03 0.  1.
         11    1    4    4    0    0  0.15803507701E+02 -0.34166076018E+01 -0.29379767786E+00  0.16171282587E+02  0.51100000000E-03 0.  1.
    -200002    1    4    4    0    0  0.62872192068E+02 -0.26163866337E+03 -0.29670481006E+02  0.27237481556E+03  0.30000000000E+02 0.  1.
    -200000    1    3    3    0    0 -0.23117202110E+03  0.21297187757E+03  0.12180031204E+03  0.35190032678E+03  0.10100000000E+03 0. -1.
<mgrwt>
<rscale>  0 0.14152010E+04</rscale>
<asrwt>0</asrwt>
<pdfrwt beam="1">  1        2 0.18834507E+00 0.14152010E+04</pdfrwt>
<pdfrwt beam="2">  1       -2 0.54253275E-01 0.14152010E+04</pdfrwt>
<totfact> 0.57084585E+01</totfact>
</mgrwt>
</event>
<event>
 8    2  0.7266322E-052  0.1396794E+04  0.7818608E-02  0.8956142E-01
         -2   -1    0    0    0  501 -0.00000000000E+00  0.00000000000E+00  0.73209687579E+03  0.73209687579E+03  0.25500000000E-02 0. -1.
          2   -1    0    0  501    0  0.00000000000E+00 -0.00000000000E+00 -0.66624840863E+03  0.66624840864E+03  0.25500000000E-02 0.  1.
    -200001    2    1    2    0    0 -0.31829599124E+03 -0.34989776252E+02 -0.62585037209E+02  0.69492450885E+03  0.61356871142E+03 0.  0.
   -5000001    2    3    3    0    0 -0.17793542230E+03 -0.28730896995E+03 -0.37899274067E+02  0.38804268840E+03  0.18690455940E+03 0.  0.
     200001    1    1    2    0    0  0.31829599124E+03  0.34989776252E+02  0.12843350436E+03  0.70342077559E+03  0.61300000000E+03 0. -1.
         11    1    4    4    0    0  0.18349427520E+01 -0.16872734364E+03 -0.14990108259E+02  0.16940185020E+03  0.51100000000E-03 0.  1.
    -200002    1    4    4    0    0 -0.17977036506E+03 -0.11858162631E+03 -0.22909165808E+02  0.21864083820E+03  0.30000000000E+02 0.  1.
    -200000    1    3    3    0    0 -0.14036056894E+03  0.25231919370E+03 -0.24685763142E+02  0.30688182045E+03  0.10100000000E+03 0.  1.
<mgrwt>
<rscale>  0 0.13967940E+04</rscale>
<asrwt>0</asrwt>
<pdfrwt beam="1">  1        2 0.95178344E-01 0.13967940E+04</pdfrwt>
<pdfrwt beam="2">  1       -2 0.10458527E+00 0.13967940E+04</pdfrwt>
<totfact> 0.34616594E+01</totfact>
</mgrwt>
</event>
<event>
 8    2  0.7266322E-052  0.1311366E+04  0.7818608E-02  0.9020600E-01
          2   -1    0    0  501    0  0.00000000000E+00  0.00000000000E+00  0.22963415549E+04  0.22963415549E+04  0.25500000000E-02 0.  1.
         -2   -1    0    0    0  501 -0.00000000000E+00 -0.00000000000E+00 -0.18721966141E+03  0.18721966142E+03  0.25500000000E-02 0. -1.
    -200001    2    1    2    0    0 -0.16100263706E+03  0.83867365540E+01  0.13707210639E+04  0.15104235223E+04  0.61360475475E+03 0.  0.
   -5000001    2    3    3    0    0 -0.13253484252E+03  0.20881749240E+03  0.23049950779E+03  0.34797391034E+03  0.82374690088E+02 0.  0.
     200001    1    1    2    0    0  0.16100263706E+03 -0.83867365540E+01  0.73840082957E+03  0.97313769406E+03  0.61300000000E+03 0. -1.
         11    1    4    4    0    0 -0.45117291563E+01  0.46700524906E+01 -0.61206929403E+01  0.89234507101E+01  0.51100000000E-03 0.  1.
    -200002    1    4    4    0    0 -0.12802311336E+03  0.20414743991E+03  0.23662020073E+03  0.33905045963E+03  0.30000000000E+02 0.  1.
    -200000    1    3    3    0    0 -0.28467794540E+02 -0.20043075585E+03  0.11402215562E+04  0.11624496120E+04  0.10100000000E+03 0.  1.
<mgrwt>
<rscale>  0 0.13113661E+04</rscale>
<asrwt>0</asrwt>
<pdfrwt beam="1">  1        2 0.32804879E+00 0.13113661E+04</pdfrwt>
<pdfrwt beam="2">  1       -2 0.26745666E-01 0.13113661E+04</pdfrwt>
<totfact> 0.70169433E+01</totfact>
</mgrwt>
</event>
<event>
 8    2  0.7266322E-052  0.1247080E+04  0.7818608E-02  0.9072617E-01
         -2   -1    0    0    0  501 -0.00000000000E+00  0.00000000000E+00  0.49859393638E+03  0.49859393639E+03  0.25500000000E-02 0. -1.
          2   -1    0    0  501    0  0.00000000000E+00 -0.00000000000E+00 -0.77979684479E+03  0.77979684479E+03  0.25500000000E-02 0.  1.
    -200001    2    1    2    0    0 -0.10349540881E+03  0.51002842789E+02 -0.13127868495E+03  0.63686224526E+03  0.61241067651E+03 0.  0.
   -5000001    2    3    3    0    0 -0.19716978237E+03  0.93056470473E+02 -0.32249822136E+03  0.39746862176E+03  0.80254424967E+02 0.  0.
     200001    1    1    2    0    0  0.10349540881E+03 -0.51002842789E+02 -0.14992422346E+03  0.64152853592E+03  0.61300000000E+03 0.  1.
         11    1    4    4    0    0 -0.51944637677E+02 -0.65037629294E+01 -0.92184895603E+02  0.10601226011E+03  0.51100000000E-03 0.  1.
    -200002    1    4    4    0    0 -0.14522514469E+03  0.99560233402E+02 -0.23031332576E+03  0.29145636165E+03  0.30000000000E+02 0.  1.
    -200000    1    3    3    0    0  0.93674373563E+02 -0.42053627684E+02  0.19121953642E+03  0.23939362350E+03  0.10100000000E+03 0. -1.
<mgrwt>
<rscale>  0 0.12470798E+04</rscale>
<asrwt>0</asrwt>
<pdfrwt beam="1">  1        2 0.11139955E+00 0.12470798E+04</pdfrwt>
<pdfrwt beam="2">  1       -2 0.71227705E-01 0.12470798E+04</pdfrwt>
<totfact> 0.69241075E+01</totfact>
</mgrwt>
</event>
<event>
 8    2  0.7266322E-052  0.1601048E+04  0.7818608E-02  0.8819904E-01
          2   -1    0    0  501    0  0.00000000000E+00  0.00000000000E+00  0.82917503227E+03  0.82917503228E+03  0.25500000000E-02 0.  1.
         -2   -1    0    0    0  501 -0.00000000000E+00 -0.00000000000E+00 -0.77286292959E+03  0.77286292960E+03  0.25500000000E-02 0. -1.
    -200001    2    1    2    0    0 -0.39907674056E+03  0.29190827558E+03 -0.11524167989E+03  0.79601538990E+03  0.61309637903E+03 0.  0.
   -5000001    2    3    3    0    0  0.51279861070E+02  0.36736476874E+02  0.64292022050E+02  0.23890941649E+03  0.22128048333E+03 0.  0.
     200001    1    1    2    0    0  0.39907674056E+03 -0.29190827558E+03  0.17155378257E+03  0.80602257197E+03  0.61300000000E+03 0. -1.
         11    1    4    4    0    0  0.31548376672E+02  0.66752243312E+02 -0.66891641478E+02  0.99627575288E+02  0.51100000000E-03 0.  1.
    -200002    1    4    4    0    0  0.19731484398E+02 -0.30015766437E+02  0.13118366353E+03  0.13928184120E+03  0.30000000000E+02 0.  1.
    -200000    1    3    3    0    0 -0.45035660163E+03  0.25517179870E+03 -0.17953370194E+03  0.55710597342E+03  0.10100000000E+03 0. -1.
<mgrwt>
<rscale>  0 0.16010480E+04</rscale>
<asrwt>0</asrwt>
<pdfrwt beam="1">  1        2 0.11845358E+00 0.16010480E+04</pdfrwt>
<pdfrwt beam="2">  1       -2 0.11040899E+00 0.16010480E+04</pdfrwt>
<totfact> 0.22704989E+01</totfact>
</mgrwt>
</event>
<event>
 8    2  0.7266322E-052  0.1697728E+04  0.7818608E-02  0.8762661E-01
         -2   -1    0    0    0  501 -0.00000000000E+00  0.00000000000E+00  0.27260240566E+03  0.27260240567E+03  0.25500000000E-02 0. -1.
          2   -1    0    0  501    0  0.00000000000E+00 -0.00000000000E+00 -0.26433011619E+04  0.26433011619E+04  0.25500000000E-02 0.  1.
    -200001    2    1    2    0    0 -0.26180558364E+03 -0.34886732757E+03 -0.50984214704E+03  0.90871476333E+03  0.61284005281E+03 0.  0.
   -5000001    2    3    3    0    0  0.48065846160E+02 -0.31303752606E+03 -0.47796896096E+03  0.57928954014E+03  0.82578601307E+02 0.  0.
     200001    1    1    2    0    0  0.26180558364E+03  0.34886732757E+03 -0.18608566092E+04  0.20071888042E+04  0.61300000000E+03 0.  1.
         11    1    4    4    0    0  0.39383298573E+02 -0.21711799081E+03 -0.37524980779E+03  0.43532020903E+03  0.51100000000E-03 0.  1.
    -200002    1    4    4    0    0  0.86825475868E+01 -0.95919535251E+02 -0.10271915316E+03  0.14396933112E+03  0.30000000000E+02 0. -1.
    -200000    1    3    3    0    0 -0.30987142980E+03 -0.35829801507E+02 -0.31873186085E+02  0.32942522319E+03  0.10100000000E+03 0. -1.
<mgrwt>
<rscale>  0 0.16977282E+04</rscale>
<asrwt>0</asrwt>
<pdfrwt beam="1">  1        2 0.37761444E+00 0.16977282E+04</pdfrwt>
<pdfrwt beam="2">  1       -2 0.38943202E-01 0.16977282E+04</pdfrwt>
<totfact> 0.22014513E+01</totfact>
</mgrwt>
</event>
<event>
 8    2  0.7266322E-052  0.1251295E+04  0.7818608E-02  0.9069106E-01
         -2   -1    0    0    0  501 -0.00000000000E+00  0.00000000000E+00  0.46855825397E+03  0.46855825398E+03  0.25500000000E-02 0. -1.
          2   -1    0    0  501    0  0.00000000000E+00 -0.00000000000E+00 -0.83540208635E+03  0.83540208636E+03  0.25500000000E-02 0.  1.
    -200001    2    1    2    0    0 -0.19617485552E+02  0.30863665324E+02 -0.30413614633E+03  0.68667704600E+03  0.61456420204E+03 0.  0.
   -5000001    2    3    3    0    0  0.19423595068E+03 -0.50893094723E+02 -0.37131971464E+03  0.42757843186E+03  0.68024063998E+02 0.  0.
     200001    1    1    2    0    0  0.19617485552E+02 -0.30863665324E+02 -0.62707686051E+02  0.61728329434E+03  0.61300000000E+03 0. -1.
         11    1    4    4    0    0  0.12988787047E+03 -0.54294037495E+02 -0.25410542764E+03  0.29049659164E+03  0.51100000000E-03 0.  1.
    -200002    1    4    4    0    0  0.64348080217E+02  0.34009427712E+01 -0.11721428700E+03  0.13708184021E+03  0.30000000000E+02 0.  1.
    -200000    1    3    3    0    0 -0.21385343624E+03  0.81756760047E+02  0.67183568307E+02  0.25909861415E+03  0.10100000000E+03 0. -1.
<mgrwt>
<rscale>  0 0.12512946E+04</rscale>
<asrwt>0</asrwt>
<pdfrwt beam="1">  1        2 0.11934316E+00 0.12512946E+04</pdfrwt>
<pdfrwt beam="2">  1       -2 0.66936893E-01 0.12512946E+04</pdfrwt>
<totfact> 0.72468855E+01</totfact>
</mgrwt>
</event>
<event>
 8    2  0.7266322E-052  0.1241236E+04  0.7818608E-02  0.9077509E-01
         -2   -1    0    0    0  501 -0.00000000000E+00  0.00000000000E+00  0.37434080334E+03  0.37434080335E+03  0.25500000000E-02 0.  1.
          2   -1    0    0  501    0  0.00000000000E+00 -0.00000000000E+00 -0.10289197800E+04  0.10289197800E+04  0.25500000000E-02 0. -1.
    -200001    2    1    2    0    0 -0.84817684576E+02  0.39461116940E+02 -0.32899818984E+03  0.70288706291E+03  0.61405145951E+03 0.  0.
   -5000001    2    3    3    0    0  0.56873338785E+02  0.72328413564E+02  0.14627606122E+03  0.19569556160E+03  0.91837305442E+02 0.  0.
     200001    1    1    2    0    0  0.84817684576E+02 -0.39461116940E+02 -0.32558078678E+03  0.70037352041E+03  0.61300000000E+03 0. -1.
         11    1    4    4    0    0  0.31508036936E+02  0.80439125729E+02  0.77410079647E+02  0.11599797313E+03  0.51100000000E-03 0.  1.
    -200002    1    4    4    0    0  0.25365301849E+02 -0.81107121651E+01  0.68865981569E+02  0.79697588465E+02  0.30000000000E+02 0.  1.
    -200000    1    3    3    0    0 -0.14169102336E+03 -0.32867296624E+02 -0.47527425105E+03  0.50719150131E+03  0.10100000000E+03 0. -1.
<mgrwt>
<rscale>  0 0.12412359E+04</rscale>
<asrwt>0</asrwt>
<pdfrwt beam="1">  1        2 0.14698854E+00 0.12412359E+04</pdfrwt>
<pdfrwt beam="2">  1       -2 0.53477258E-01 0.12412359E+04</pdfrwt>
<totfact> 0.87464098E+01</totfact>
</mgrwt>
</event>
<event>
 8    2  0.7266322E-052  0.2047985E+04  0.7818608E-02  0.8584509E-01
         -2   -1    0    0    0  501 -0.00000000000E+00  0.00000000000E+00  0.51377332093E+03  0.51377332094E+03  0.25500000000E-02 0. -1.
          2   -1    0    0  501    0  0.00000000000E+00 -0.00000000000E+00 -0.20409013509E+04  0.20409013509E+04  0.25500000000E-02 0.  1.
    -200001    2    1    2    0    0 -0.17667916249E+01  0.54138237798E+03 -0.15324706808E+04  0.17368143264E+04  0.61233946148E+03 0.  0.
   -5000001    2    3    3    0    0 -0.10212914556E+03  0.23270227457E+03 -0.12939242535E+04  0.13215295972E+04  0.87291416542E+02 0.  0.
     200001    1    1    2    0    0  0.17667916249E+01 -0.54138237798E+03  0.53426508292E+01  0.81786034545E+03  0.61300000000E+03 0. -1.
         11    1    4    4    0    0 -0.30782416544E+02  0.14427010290E+02 -0.24470204765E+03  0.24705219675E+03  0.51100000000E-03 0.  1.
    -200002    1    4    4    0    0 -0.71346729020E+02  0.21827526428E+03 -0.10492222059E+04  0.10744774004E+04  0.30000000000E+02 0.  1.
    -200000    1    3    3    0    0  0.10036235394E+03  0.30868010342E+03 -0.23854642723E+03  0.41528472916E+03  0.10100000000E+03 0. -1.
<mgrwt>
<rscale>  0 0.20479850E+04</rscale>
<asrwt>0</asrwt>
<pdfrwt beam="1">  1        2 0.29155733E+00 0.20479850E+04</pdfrwt>
<pdfrwt beam="2">  1       -2 0.73396190E-01 0.20479850E+04</pdfrwt>
<totfact> 0.11893959E+01</totfact>
</mgrwt>
</event>
<event>
 8    2  0.7266322E-052  0.1872127E+04  0.7818608E-02  0.8668856E-01
          2   -1    0    0  501    0  0.00000000000E+00  0.00000000000E+00  0.11120298848E+04  0.11120298848E+04  0.25500000000E-02 0.  1.
         -2   -1    0    0    0  501 -0.00000000000E+00 -0.00000000000E+00 -0.78794182380E+03  0.78794182381E+03  0.25500000000E-02 0. -1.
    -200001    2    1    2    0    0  0.63821412201E+03 -0.23777466709E+03 -0.34992708173E+02  0.91581620433E+03  0.61126162372E+03 0.  0.
   -5000001    2    3    3    0    0  0.25136311397E+03  0.70705037660E+02 -0.24918737362E+03  0.36727834294E+03  0.67944216897E+02 0.  0.
     200001    1    1    2    0    0 -0.63821412201E+03  0.23777466709E+03  0.35908076918E+03  0.98415550430E+03  0.61300000000E+03 0.  1.
         11    1    4    4    0    0  0.64426631485E+02 -0.50144137571E+01 -0.45260498543E+02  0.78895170438E+02  0.51100000000E-03 0.  1.
    -200002    1    4    4    0    0  0.18693648248E+03  0.75719451417E+02 -0.20392687507E+03  0.28838317250E+03  0.30000000000E+02 0.  1.
    -200000    1    3    3    0    0  0.38685100804E+03 -0.30847970475E+03  0.21419466544E+03  0.54853786138E+03  0.10100000000E+03 0.  1.
<mgrwt>
<rscale>  0 0.18721270E+04</rscale>
<asrwt>0</asrwt>
<pdfrwt beam="1">  1        2 0.15886141E+00 0.18721270E+04</pdfrwt>
<pdfrwt beam="2">  1       -2 0.11256312E+00 0.18721270E+04</pdfrwt>
<totfact> 0.14066686E+01</totfact>
</mgrwt>
</event>
<event>
 8    2  0.7266322E-052  0.1627742E+04  0.7818608E-02  0.8803684E-01
          2   -1    0    0  501    0  0.00000000000E+00  0.00000000000E+00  0.55856428591E+03  0.55856428592E+03  0.25500000000E-02 0.  1.
         -2   -1    0    0    0  501 -0.00000000000E+00 -0.00000000000E+00 -0.11858728958E+04  0.11858728958E+04  0.25500000000E-02 0. -1.
    -200001    2    1    2    0    0  0.45638111324E+03  0.71746888898E+02 -0.60243349849E+03  0.97644036681E+03  0.61406704296E+03 0.  0.
   -5000001    2    3    3    0    0  0.57742135830E+03  0.13242074605E+03 -0.43492298766E+03  0.73854789298E+03  0.73104760645E+02 0.  0.
     200001    1    1    2    0    0 -0.45638111324E+03 -0.71746888898E+02 -0.24875111423E+02  0.76799681494E+03  0.61300000000E+03 0.  1.
         11    1    4    4    0    0  0.27003872410E+03  0.68263641380E+02 -0.24058534041E+03  0.36805182144E+03  0.51100000000E-03 0.  1.
    -200002    1    4    4    0    0  0.30738263420E+03  0.64157104670E+02 -0.19433764725E+03  0.37049607154E+03  0.30000000000E+02 0.  1.
    -200000    1    3    3    0    0 -0.12104024506E+03 -0.60673857152E+02 -0.16751051084E+03  0.23789247383E+03  0.10100000000E+03 0.  1.
<mgrwt>
<rscale>  0 0.16277423E+04</rscale>
<asrwt>0</asrwt>
<pdfrwt beam="1">  1        2 0.79794898E-01 0.16277423E+04</pdfrwt>
<pdfrwt beam="2">  1       -2 0.16941041E+00 0.16277423E+04</pdfrwt>
<totfact> 0.12177835E+01</totfact>
</mgrwt>
</event>
<event>
 8    2  0.7266322E-052  0.1974011E+04  0.7818608E-02  0.8618869E-01
          2   -1    0    0  501    0  0.00000000000E+00  0.00000000000E+00  0.18426452140E+04  0.18426452140E+04  0.25500000000E-02 0. -1.
         -2   -1    0    0    0  501 -0.00000000000E+00 -0.00000000000E+00 -0.52868557002E+03  0.52868557003E+03  0.25500000000E-02 0.  1.
    -200001    2    1    2    0    0 -0.51350547298E+03  0.24252877068E+03  0.12883840533E+04  0.15353097399E+04  0.61215557928E+03 0.  0.
   -5000001    2    3    3    0    0 -0.19221131820E+02 -0.46109758313E+02  0.70915979051E+03  0.71474227957E+03  0.73846841602E+02 0.  0.
     200001    1    1    2    0    0  0.51350547298E+03 -0.24252877068E+03  0.25575590674E+02  0.83602104413E+03  0.61300000000E+03 0.  1.
         11    1    4    4    0    0 -0.31406521931E+02 -0.17079968687E+02  0.16403622558E+03  0.16788680190E+03  0.51100000000E-03 0.  1.
    -200002    1    4    4    0    0  0.12185390112E+02 -0.29029789626E+02  0.54512356493E+03  0.54685547767E+03  0.30000000000E+02 0.  1.
    -200000    1    3    3    0    0 -0.49428434116E+03  0.28863852899E+03  0.57922426277E+03  0.82056746030E+03  0.10100000000E+03 0. -1.
<mgrwt>
<rscale>  0 0.19740111E+04</rscale>
<asrwt>0</asrwt>
<pdfrwt beam="1">  1        2 0.26323503E+00 0.19740111E+04</pdfrwt>
<pdfrwt beam="2">  1       -2 0.75526510E-01 0.19740111E+04</pdfrwt>
<totfact> 0.14210788E+01</totfact>
</mgrwt>
</event>
<event>
 8    2  0.7266322E-052  0.1722494E+04  0.7818608E-02  0.8748638E-01
         -2   -1    0    0    0  501 -0.00000000000E+00  0.00000000000E+00  0.14029425035E+04  0.14029425035E+04  0.25500000000E-02 0. -1.
          2   -1    0    0  501    0  0.00000000000E+00 -0.00000000000E+00 -0.52870744334E+03  0.52870744335E+03  0.25500000000E-02 0.  1.
    -200001    2    1    2    0    0  0.38765030977E+03  0.43566743267E+03  0.25790530155E+03  0.88488815642E+03  0.61354138431E+03 0.  0.
   -5000001    2    3    3    0    0  0.31162776385E+03  0.14726246026E+03  0.38977415938E+03  0.54349798190E+03  0.15706070675E+03 0.  0.
     200001    1    1    2    0    0 -0.38765030977E+03 -0.43566743267E+03  0.61632975859E+03  0.10467617904E+04  0.61300000000E+03 0.  1.
         11    1    4    4    0    0  0.28351193729E+02  0.72960910648E+02  0.45582923182E+02  0.90580834367E+02  0.51100000000E-03 0.  1.
    -200002    1    4    4    0    0  0.28327657012E+03  0.74301549609E+02  0.34419123620E+03  0.45291714753E+03  0.30000000000E+02 0.  1.
    -200000    1    3    3    0    0  0.76022545926E+02  0.28840497241E+03 -0.13186885783E+03  0.34139017453E+03  0.10100000000E+03 0.  1.
<mgrwt>
<rscale>  0 0.17224937E+04</rscale>
<asrwt>0</asrwt>
<pdfrwt beam="1">  1        2 0.75529636E-01 0.17224937E+04</pdfrwt>
<pdfrwt beam="2">  1       -2 0.20042036E+00 0.17224937E+04</pdfrwt>
<totfact> 0.79164386E+00</totfact>
</mgrwt>
</event>
<event>
 8    2  0.7266322E-052  0.1442627E+04  0.7818608E-02  0.8923528E-01
         -2   -1    0    0    0  501 -0.00000000000E+00  0.00000000000E+00  0.40484747415E+03  0.40484747416E+03  0.25500000000E-02 0. -1.
          2   -1    0    0  501    0  0.00000000000E+00 -0.00000000000E+00 -0.12851592247E+04  0.12851592247E+04  0.25500000000E-02 0.  1.
    -200001    2    1    2    0    0 -0.21404185710E+03 -0.29238875847E+03 -0.57054820047E+03  0.91345820735E+03  0.61447176083E+03 0.  0.
   -5000001    2    3    3    0    0  0.18180451194E+03 -0.13638695798E+03 -0.20488260115E+03  0.34342027865E+03  0.15590485773E+03 0.  0.
     200001    1    1    2    0    0  0.21404185710E+03  0.29238875847E+03 -0.30976355003E+03  0.77654849147E+03  0.61300000000E+03 0.  1.
         11    1    4    4    0    0  0.13189300797E+03 -0.10859433622E+03 -0.53770546827E+02  0.17910825530E+03  0.51100000000E-03 0.  1.
    -200002    1    4    4    0    0  0.49911503966E+02 -0.27792621756E+02 -0.15111205433E+03  0.16431202334E+03  0.30000000000E+02 0.  1.
    -200000    1    3    3    0    0 -0.39584636904E+03 -0.15600180049E+03 -0.36566559931E+03  0.57003792870E+03  0.10100000000E+03 0. -1.
<mgrwt>
<rscale>  0 0.14426274E+04</rscale>
<asrwt>0</asrwt>
<pdfrwt beam="1">  1        2 0.18359417E+00 0.14426274E+04</pdfrwt>
<pdfrwt beam="2">  1       -2 0.57835354E-01 0.14426274E+04</pdfrwt>
<totfact> 0.52023902E+01</totfact>
</mgrwt>
</event>
<event>
 8    2  0.7266322E-052  0.1961932E+04  0.7818608E-02  0.8624628E-01
         -2   -1    0    0    0  501 -0.00000000000E+00  0.00000000000E+00  0.43718607364E+03  0.43718607364E+03  0.25500000000E-02 0. -1.
          2   -1    0    0  501    0  0.00000000000E+00 -0.00000000000E+00 -0.22011090971E+04  0.22011090971E+04  0.25500000000E-02 0.  1.
    -200001    2    1    2    0    0  0.61523384376E+03  0.13173327191E+03 -0.14695864421E+04  0.17118668893E+04  0.61232148295E+03 0.  0.
   -5000001    2    3    3    0    0  0.20493472570E+03 -0.12593082453E+03 -0.99238389642E+03  0.10243645821E+04  0.81487328675E+02 0.  0.
     200001    1    1    2    0    0 -0.61523384376E+03 -0.13173327191E+03 -0.29433658130E+03  0.92642828137E+03  0.61300000000E+03 0. -1.
         11    1    4    4    0    0  0.12136134618E+03 -0.94443625789E+02 -0.50251078356E+03  0.52551428372E+03  0.51100000000E-03 0.  1.
    -200002    1    4    4    0    0  0.83573379520E+02 -0.31487198746E+02 -0.48987311285E+03  0.49885029833E+03  0.30000000000E+02 0. -1.
    -200000    1    3    3    0    0  0.41029911806E+03  0.25766409645E+03 -0.47720254570E+03  0.68750230728E+03  0.10100000000E+03 0.  1.
<mgrwt>
<rscale>  0 0.19619319E+04</rscale>
<asrwt>0</asrwt>
<pdfrwt beam="1">  1        2 0.31444415E+00 0.19619319E+04</pdfrwt>
<pdfrwt beam="2">  1       -2 0.62455154E-01 0.19619319E+04</pdfrwt>
<totfact> 0.14047411E+01</totfact>
</mgrwt>
</event>
<event>
 8    2  0.7266322E-052  0.1512919E+04  0.7818608E-02  0.8875907E-01
         -2   -1    0    0    0  501 -0.00000000000E+00  0.00000000000E+00  0.78263966405E+03  0.78263966406E+03  0.25500000000E-02 0. -1.
          2   -1    0    0  501    0  0.00000000000E+00 -0.00000000000E+00 -0.73115506053E+03  0.73115506053E+03  0.25500000000E-02 0.  1.
    -200001    2    1    2    0    0 -0.15650943256E+02 -0.36789409939E+03 -0.22096242530E+03  0.74855789595E+03  0.61312601462E+03 0.  0.
   -5000001    2    3    3    0    0  0.14061890236E+03 -0.46197445256E+03 -0.84224896421E+02  0.49921971334E+03  0.94511472816E+02 0.  0.
     200001    1    1    2    0    0  0.15650943256E+02  0.36789409939E+03  0.27244702882E+03  0.76523682864E+03  0.61300000000E+03 0. -1.
         11    1    4    4    0    0  0.45445743637E+02 -0.27880627842E+03 -0.32772315670E+02  0.28438052180E+03  0.51100000000E-03 0.  1.
    -200002    1    4    4    0    0  0.95173158727E+02 -0.18316817414E+03 -0.51452580751E+02  0.21483919155E+03  0.30000000000E+02 0.  1.
    -200000    1    3    3    0    0 -0.15626984562E+03  0.94080353171E+02 -0.13673752888E+03  0.24933818261E+03  0.10100000000E+03 0. -1.
<mgrwt>
<rscale>  0 0.15129190E+04</rscale>
<asrwt>0</asrwt>
<pdfrwt beam="1">  1        2 0.10445072E+00 0.15129190E+04</pdfrwt>
<pdfrwt beam="2">  1       -2 0.11180567E+00 0.15129190E+04</pdfrwt>
<totfact> 0.26042655E+01</totfact>
</mgrwt>
</event>
<event>
 8    2  0.7266322E-052  0.1514990E+04  0.7818608E-02  0.8874546E-01
         -2   -1    0    0    0  501 -0.00000000000E+00  0.00000000000E+00  0.22556814440E+03  0.22556814441E+03  0.25500000000E-02 0. -1.
          2   -1    0    0  501    0  0.00000000000E+00 -0.00000000000E+00 -0.25437923533E+04  0.25437923533E+04  0.25500000000E-02 0.  1.
    -200001    2    1    2    0    0  0.13194416002E+02 -0.42686609682E+03 -0.93004252460E+03  0.11929068365E+04  0.61291016131E+03 0.  0.
   -5000001    2    3    3    0    0  0.13082515213E+03 -0.47590536404E+03 -0.89630677468E+03  0.10268317311E+04  0.86118719057E+02 0.  0.
     200001    1    1    2    0    0 -0.13194416002E+02  0.42686609682E+03 -0.13881816843E+04  0.15764536612E+04  0.61300000000E+03 0.  1.
         11    1    4    4    0    0  0.80974558892E+02 -0.36748691578E+03 -0.63778653888E+03  0.74052358615E+03  0.51100000000E-03 0.  1.
    -200002    1    4    4    0    0  0.49850593234E+02 -0.10841844825E+03 -0.25852023579E+03  0.28630814498E+03  0.30000000000E+02 0.  1.
    -200000    1    3    3    0    0 -0.11763073612E+03  0.49039267222E+02 -0.33735749928E+02  0.16607510540E+03  0.10100000000E+03 0. -1.
<mgrwt>
<rscale>  0 0.15149898E+04</rscale>
<asrwt>0</asrwt>
<pdfrwt beam="1">  1        2 0.36339889E+00 0.15149898E+04</pdfrwt>
<pdfrwt beam="2">  1       -2 0.32224022E-01 0.15149898E+04</pdfrwt>
<totfact> 0.36273297E+01</totfact>
</mgrwt>
</event>
<event>
 8    2  0.7266322E-052  0.1652797E+04  0.7818608E-02  0.8788754E-01
         -2   -1    0    0    0  501 -0.00000000000E+00  0.00000000000E+00  0.26725222507E+03  0.26725222508E+03  0.25500000000E-02 0. -1.
          2   -1    0    0  501    0  0.00000000000E+00 -0.00000000000E+00 -0.25553918356E+04  0.25553918356E+04  0.25500000000E-02 0.  1.
    -200001    2    1    2    0    0  0.46261078322E+03 -0.15357021079E+03 -0.69382857596E+03  0.10463588298E+04  0.61308740123E+03 0.  0.
   -5000001    2    3    3    0    0  0.11033588893E+03 -0.34408415921E+03 -0.36336005179E+03  0.51739417018E+03  0.71402262516E+02 0.  0.
     200001    1    1    2    0    0 -0.46261078322E+03  0.15357021079E+03 -0.15943110346E+04  0.17762852309E+04  0.61300000000E+03 0.  1.
         11    1    4    4    0    0  0.31360073141E+02 -0.54641265821E+02 -0.93517960478E+02  0.11275961622E+03  0.51100000000E-03 0.  1.
    -200002    1    4    4    0    0  0.78975815794E+02 -0.28944289339E+03 -0.26984209131E+03  0.40463455396E+03  0.30000000000E+02 0.  1.
    -200000    1    3    3    0    0  0.35227489428E+03  0.19051394843E+03 -0.33046852417E+03  0.52896465965E+03  0.10100000000E+03 0. -1.
<mgrwt>
<rscale>  0 0.16527966E+04</rscale>
<asrwt>0</asrwt>
<pdfrwt beam="1">  1        2 0.36505596E+00 0.16527966E+04</pdfrwt>
<pdfrwt beam="2">  1       -2 0.38178891E-01 0.16527966E+04</pdfrwt>
<totfact> 0.25570711E+01</totfact>
</mgrwt>
</event>
<event>
 8    2  0.7266322E-052  0.1254046E+04  0.7818608E-02  0.9066822E-01
         -2   -1    0    0    0  501 -0.00000000000E+00  0.00000000000E+00  0.33125974859E+03  0.33125974860E+03  0.25500000000E-02 0. -1.
          2   -1    0    0  501    0  0.00000000000E+00 -0.00000000000E+00 -0.11868571518E+04  0.11868571518E+04  0.25500000000E-02 0.  1.
    -200001    2    1    2    0    0 -0.64370933353E+02  0.49250613471E+02 -0.29819479772E+03  0.68562911994E+03  0.61204404476E+03 0.  0.
   -5000001    2    3    3    0    0 -0.12737036605E+03  0.84253313994E+02 -0.45308161543E+03  0.48717246506E+03  0.93446398610E+02 0.  0.
     200001    1    1    2    0    0  0.64370933353E+02 -0.49250613471E+02 -0.55740260544E+03  0.83248778042E+03  0.61300000000E+03 0.  1.
         11    1    4    4    0    0 -0.50697551924E+02  0.50949348516E+02 -0.10037216424E+03  0.12345302442E+03  0.51100000000E-03 0.  1.
    -200002    1    4    4    0    0 -0.76672814121E+02  0.33303965478E+02 -0.35270945119E+03  0.36371944064E+03  0.30000000000E+02 0.  1.
    -200000    1    3    3    0    0  0.62999432692E+02 -0.35002700523E+02  0.15488681771E+03  0.19845665487E+03  0.10100000000E+03 0. -1.
<mgrwt>
<rscale>  0 0.12540463E+04</rscale>
<asrwt>0</asrwt>
<pdfrwt beam="1">  1        2 0.16955102E+00 0.12540463E+04</pdfrwt>
<pdfrwt beam="2">  1       -2 0.47322822E-01 0.12540463E+04</pdfrwt>
<totfact> 0.90484713E+01</totfact>
</mgrwt>
</event>
<event>
 8    2  0.7266322E-052  0.1646765E+04  0.7818608E-02  0.8792323E-01
          2   -1    0    0  501    0  0.00000000000E+00  0.00000000000E+00  0.14804852981E+04  0.14804852981E+04  0.25500000000E-02 0.  1.
         -2   -1    0    0    0  501 -0.00000000000E+00 -0.00000000000E+00 -0.45792986794E+03  0.45792986794E+03  0.25500000000E-02 0. -1.
    -200001    2    1    2    0    0  0.20855559774E+03  0.22415304650E+02  0.11096556111E+04  0.12846924995E+04  0.61245519001E+03 0.  0.
   -5000001    2    3    3    0    0  0.80224153637E+02 -0.26066144089E+03  0.30230775853E+03  0.41370859697E+03  0.73379293698E+02 0.  0.
     200001    1    1    2    0    0 -0.20855559774E+03 -0.22415304650E+02 -0.87100180951E+02  0.65372266654E+03  0.61300000000E+03 0. -1.
         11    1    4    4    0    0  0.32223376981E+02 -0.76436690149E+02  0.13522900949E+03  0.15864362147E+03  0.51100000000E-03 0.  1.
    -200002    1    4    4    0    0  0.48000776656E+02 -0.18422475074E+03  0.16707874904E+03  0.25506497550E+03  0.30000000000E+02 0.  1.
    -200000    1    3    3    0    0  0.12833144410E+03  0.28307674554E+03  0.80734785258E+03  0.87098390254E+03  0.10100000000E+03 0.  1.
<mgrwt>
<rscale>  0 0.16467646E+04</rscale>
<asrwt>0</asrwt>
<pdfrwt beam="1">  1        2 0.21149789E+00 0.16467646E+04</pdfrwt>
<pdfrwt beam="2">  1       -2 0.65418554E-01 0.16467646E+04</pdfrwt>
<totfact> 0.30875107E+01</totfact>
</mgrwt>
</event>
<event>
 8    2  0.7266322E-052  0.1459614E+04  0.7818608E-02  0.8911763E-01
         -2   -1    0    0    0  501 -0.00000000000E+00  0.00000000000E+00  0.21283122814E+03  0.21283122816E+03  0.25500000000E-02 0. -1.
          2   -1    0    0  501    0  0.00000000000E+00 -0.00000000000E+00 -0.25025369856E+04  0.25025369856E+04  0.25500000000E-02 0.  1.
    -200001    2    1    2    0    0 -0.29546682465E+03  0.10071018878E+03 -0.69060211456E+03  0.97457970067E+03  0.61272434726E+03 0.  0.
   -5000001    2    3    3    0    0 -0.40505002559E+03  0.24068688494E+03 -0.44083124886E+03  0.65179736108E+03  0.92260013713E+02 0.  0.
     200001    1    1    2    0    0  0.29546682465E+03 -0.10071018878E+03 -0.15991036429E+04  0.17407885131E+04  0.61300000000E+03 0.  1.
         11    1    4    4    0    0 -0.35801539410E+03  0.21826442017E+03 -0.37352985716E+03  0.56155047298E+03  0.51100000000E-03 0.  1.
    -200002    1    4    4    0    0 -0.47034631494E+02  0.22422464770E+02 -0.67301391704E+02  0.90246888099E+02  0.30000000000E+02 0. -1.
    -200000    1    3    3    0    0  0.10958320094E+03 -0.13997669615E+03 -0.24977086570E+03  0.32278233958E+03  0.10100000000E+03 0. -1.
<mgrwt>
<rscale>  0 0.14596137E+04</rscale>
<asrwt>0</asrwt>
<pdfrwt beam="1">  1        2 0.35750527E+00 0.14596137E+04</pdfrwt>
<pdfrwt beam="2">  1       -2 0.30404463E-01 0.14596137E+04</pdfrwt>
<totfact> 0.42722090E+01</totfact>
</mgrwt>
</event>
<event>
 8    2  0.7266322E-052  0.1450407E+04  0.7818608E-02  0.8918118E-01
          2   -1    0    0  501    0  0.00000000000E+00  0.00000000000E+00  0.10484901309E+04  0.10484901309E+04  0.25500000000E-02 0.  1.
         -2   -1    0    0    0  501 -0.00000000000E+00 -0.00000000000E+00 -0.50159779912E+03  0.50159779913E+03  0.25500000000E-02 0. -1.
    -200001    2    1    2    0    0  0.31118232344E+03 -0.15437872562E+03  0.45676262736E+03  0.83976434675E+03  0.61311078198E+03 0.  0.
   -5000001    2    3    3    0    0  0.33619344565E+03  0.13926519337E+03  0.34891660806E+03  0.51009167383E+03  0.77652362165E+02 0.  0.
     200001    1    1    2    0    0 -0.31118232344E+03  0.15437872562E+03  0.90129704419E+02  0.71032358328E+03  0.61300000000E+03 0. -1.
         11    1    4    4    0    0  0.16497905046E+03  0.10286712251E+03  0.17721915616E+03  0.26307101948E+03  0.51100000000E-03 0.  1.
    -200002    1    4    4    0    0  0.17121439520E+03  0.36398070855E+02  0.17169745190E+03  0.24702065435E+03  0.30000000000E+02 0.  1.
    -200000    1    3    3    0    0 -0.25011122217E+02 -0.29364391899E+03  0.10784601930E+03  0.32967267292E+03  0.10100000000E+03 0. -1.
<mgrwt>
<rscale>  0 0.14504073E+04</rscale>
<asrwt>0</asrwt>
<pdfrwt beam="1">  1        2 0.14978430E+00 0.14504073E+04</pdfrwt>
<pdfrwt beam="2">  1       -2 0.71656829E-01 0.14504073E+04</pdfrwt>
<totfact> 0.44998926E+01</totfact>
</mgrwt>
</event>
<event>
 8    2  0.7266322E-052  0.1311756E+04  0.7818608E-02  0.9020294E-01
         -2   -1    0    0    0  501 -0.00000000000E+00  0.00000000000E+00  0.25112465815E+03  0.25112465816E+03  0.25500000000E-02 0. -1.
          2   -1    0    0  501    0  0.00000000000E+00 -0.00000000000E+00 -0.17129968733E+04  0.17129968733E+04  0.25500000000E-02 0.  1.
    -200001    2    1    2    0    0  0.14871610698E+03 -0.12903404889E+03 -0.91431255056E+03  0.11189251918E+04  0.61421484721E+03 0.  0.
   -5000001    2    3    3    0    0  0.58637205753E+02 -0.34728028944E+03 -0.36396417586E+03  0.51161146442E+03  0.72349484347E+02 0.  0.
     200001    1    1    2    0    0 -0.14871610698E+03  0.12903404889E+03 -0.54755966459E+03  0.84519633964E+03  0.61300000000E+03 0. -1.
         11    1    4    4    0    0 -0.58389445665E+01 -0.64171742993E+02 -0.41467676089E+02  0.76626849295E+02  0.51100000000E-03 0.  1.
    -200002    1    4    4    0    0  0.64476150320E+02 -0.28310854644E+03 -0.32249649978E+03  0.43498461513E+03  0.30000000000E+02 0.  1.
    -200000    1    3    3    0    0  0.90078901231E+02  0.21824624054E+03 -0.55034837470E+03  0.60731372740E+03  0.10100000000E+03 0.  1.
<mgrwt>
<rscale>  0 0.13117557E+04</rscale>
<asrwt>0</asrwt>
<pdfrwt beam="1">  1        2 0.24471383E+00 0.13117557E+04</pdfrwt>
<pdfrwt beam="2">  1       -2 0.35874952E-01 0.13117557E+04</pdfrwt>
<totfact> 0.80811548E+01</totfact>
</mgrwt>
</event>
<event>
 8    2  0.7266322E-052  0.1406694E+04  0.7818608E-02  0.8948987E-01
          2   -1    0    0  501    0  0.00000000000E+00  0.00000000000E+00  0.43625134408E+04  0.43625134408E+04  0.25500000000E-02 0.  1.
         -2   -1    0    0    0  501 -0.00000000000E+00 -0.00000000000E+00 -0.11339725728E+03  0.11339725730E+03  0.25500000000E-02 0. -1.
    -200001    2    1    2    0    0 -0.15576376965E+03  0.26972237667E+03  0.25955414925E+04  0.26850754820E+04  0.61301076042E+03 0.  0.
   -5000001    2    3    3    0    0  0.12709248488E+03 -0.61987125284E+02  0.13821142005E+04  0.13917674570E+04  0.82353432969E+02 0.  0.
     200001    1    1    2    0    0  0.15576376965E+03 -0.26972237667E+03  0.16535746910E+04  0.17908352161E+04  0.61300000000E+03 0. -1.
         11    1    4    4    0    0  0.13284803235E+02  0.17217269732E+02  0.17551045578E+03  0.17685259529E+03  0.51100000000E-03 0.  1.
    -200002    1    4    4    0    0  0.11380768165E+03 -0.79204395016E+02  0.12066037447E+04  0.12149148618E+04  0.30000000000E+02 0.  1.
    -200000    1    3    3    0    0 -0.28285625453E+03  0.33170950195E+03  0.12134272921E+04  0.12933080250E+04  0.10100000000E+03 0. -1.
<mgrwt>
<rscale>  0 0.14066941E+04</rscale>
<asrwt>0</asrwt>
<pdfrwt beam="1">  1        2 0.62321630E+00 0.14066941E+04</pdfrwt>
<pdfrwt beam="2">  1       -2 0.16199606E-01 0.14066941E+04</pdfrwt>
<totfact> 0.96086657E+00</totfact>
</mgrwt>
</event>
<event>
 8    2  0.7266322E-052  0.1639000E+04  0.7818608E-02  0.8796941E-01
          2   -1    0    0  501    0  0.00000000000E+00  0.00000000000E+00  0.86959124613E+03  0.86959124613E+03  0.25500000000E-02 0.  1.
         -2   -1    0    0    0  501 -0.00000000000E+00 -0.00000000000E+00 -0.77229438715E+03  0.77229438716E+03  0.25500000000E-02 0. -1.
    -200001    2    1    2    0    0  0.17438430744E+03 -0.41108033330E+03 -0.26278741766E+03  0.80234610867E+03  0.61262151783E+03 0.  0.
   -5000001    2    3    3    0    0  0.24163277862E+02 -0.33755291444E+03 -0.41453294736E+03  0.55495907418E+03  0.14702440452E+03 0.  0.
     200001    1    1    2    0    0 -0.17438430744E+03  0.41108033330E+03  0.36008427663E+03  0.83953952461E+03  0.61300000000E+03 0.  1.
         11    1    4    4    0    0  0.40552685209E+02 -0.41613952924E+02 -0.21887690773E+02  0.62091161716E+02  0.51100000000E-03 0.  1.
    -200002    1    4    4    0    0 -0.16389407347E+02 -0.29593896151E+03 -0.39264525658E+03  0.49286791246E+03  0.30000000000E+02 0.  1.
    -200000    1    3    3    0    0  0.15022102958E+03 -0.73527418865E+02  0.15174552970E+03  0.24738703449E+03  0.10100000000E+03 0.  1.
<mgrwt>
<rscale>  0 0.16390002E+04</rscale>
<asrwt>0</asrwt>
<pdfrwt beam="1">  1        2 0.12422732E+00 0.16390002E+04</pdfrwt>
<pdfrwt beam="2">  1       -2 0.11032777E+00 0.16390002E+04</pdfrwt>
<totfact> 0.21296367E+01</totfact>
</mgrwt>
</event>
<event>
 8    2  0.7266322E-052  0.1308091E+04  0.7818608E-02  0.9023173E-01
         -2   -1    0    0    0  501 -0.00000000000E+00  0.00000000000E+00  0.21785005654E+03  0.21785005655E+03  0.25500000000E-02 0. -1.
          2   -1    0    0  501    0  0.00000000000E+00 -0.00000000000E+00 -0.19636238545E+04  0.19636238545E+04  0.25500000000E-02 0.  1.
    -200001    2    1    2    0    0  0.75387809240E+02  0.17176805656E+03 -0.11009334549E+04  0.12722018642E+04  0.60930741359E+03 0.  0.
   -5000001    2    3    3    0    0  0.91086773095E+01  0.35828009491E+03 -0.44415664207E+03  0.57885026106E+03  0.96669062367E+02 0.  0.
     200001    1    1    2    0    0 -0.75387809240E+02 -0.17176805656E+03 -0.64484034304E+03  0.90927204678E+03  0.61300000000E+03 0. -1.
         11    1    4    4    0    0  0.46749664734E+02  0.16566428994E+03 -0.22174017329E+03  0.28071140441E+03  0.51100000000E-03 0.  1.
    -200002    1    4    4    0    0 -0.37640987424E+02  0.19261580497E+03 -0.22241646878E+03  0.29813885665E+03  0.30000000000E+02 0. -1.
    -200000    1    3    3    0    0  0.66279131931E+02 -0.18651203835E+03 -0.65677681281E+03  0.69335160318E+03  0.10100000000E+03 0. -1.
<mgrwt>
<rscale>  0 0.13080911E+04</rscale>
<asrwt>0</asrwt>
<pdfrwt beam="1">  1        2 0.28051768E+00 0.13080911E+04</pdfrwt>
<pdfrwt beam="2">  1       -2 0.31121438E-01 0.13080911E+04</pdfrwt>
<totfact> 0.78606251E+01</totfact>
</mgrwt>
</event>
<event>
 8    2  0.7266322E-052  0.1446755E+04  0.7818608E-02  0.8920653E-01
         -2   -1    0    0    0  501 -0.00000000000E+00  0.00000000000E+00  0.17873568426E+03  0.17873568428E+03  0.25500000000E-02 0. -1.
          2   -1    0    0  501    0  0.00000000000E+00 -0.00000000000E+00 -0.29276484725E+04  0.29276484725E+04  0.25500000000E-02 0.  1.
    -200001    2    1    2    0    0 -0.17785617058E+03 -0.31012490623E+03 -0.10702954178E+04  0.12839309883E+04  0.61248365408E+03 0.  0.
   -5000001    2    3    3    0    0 -0.13528227445E+03 -0.22394924502E+03 -0.88287554059E+02  0.29207453415E+03  0.95175013382E+02 0.  0.
     200001    1    1    2    0    0  0.17785617058E+03  0.31012490623E+03 -0.16786173704E+04  0.18224531684E+04  0.61300000000E+03 0. -1.
         11    1    4    4    0    0 -0.46773219434E+01 -0.66200969593E+02  0.16717076797E+01  0.66387049358E+02  0.51100000000E-03 0.  1.
    -200002    1    4    4    0    0 -0.13060495251E+03 -0.15774827543E+03 -0.89959261739E+02  0.22568748480E+03  0.30000000000E+02 0.  1.
    -200000    1    3    3    0    0 -0.42573896132E+02 -0.86175661211E+02 -0.98200786375E+03  0.99185645417E+03  0.10100000000E+03 0.  1.
<mgrwt>
<rscale>  0 0.14467553E+04</rscale>
<asrwt>0</asrwt>
<pdfrwt beam="1">  1        2 0.41823547E+00 0.14467553E+04</pdfrwt>
<pdfrwt beam="2">  1       -2 0.25533671E-01 0.14467553E+04</pdfrwt>
<totfact> 0.34881857E+01</totfact>
</mgrwt>
</event>
<event>
 8    2  0.7266322E-052  0.1878213E+04  0.7818608E-02  0.8665778E-01
          2   -1    0    0  501    0  0.00000000000E+00  0.00000000000E+00  0.12477554497E+04  0.12477554497E+04  0.25500000000E-02 0.  1.
         -2   -1    0    0    0  501 -0.00000000000E+00 -0.00000000000E+00 -0.70680624340E+03  0.70680624340E+03  0.25500000000E-02 0. -1.
    -200001    2    1    2    0    0  0.11613840521E+03 -0.10119875852E+03  0.99477399876E+03  0.11764516365E+04  0.60887915591E+03 0.  0.
   -5000001    2    3    3    0    0  0.22695224422E+03 -0.19516922368E+03  0.94209779727E+03  0.99182786380E+03  0.81091952467E+02 0.  0.
     200001    1    1    2    0    0 -0.11613840521E+03  0.10119875852E+03 -0.45382479248E+03  0.77811005659E+03  0.61300000000E+03 0. -1.
         11    1    4    4    0    0  0.15144558870E+03 -0.13853804605E+03  0.53942956959E+03  0.57715926493E+03  0.51100000000E-03 0.  1.
    -200002    1    4    4    0    0  0.75506655518E+02 -0.56631177628E+02  0.40266822768E+03  0.41466859887E+03  0.30000000000E+02 0.  1.
    -200000    1    3    3    0    0 -0.11081383901E+03  0.93970465161E+02  0.52676201484E+02  0.18462377269E+03  0.10100000000E+03 0. -1.
<mgrwt>
<rscale>  0 0.18782133E+04</rscale>
<asrwt>0</asrwt>
<pdfrwt beam="1">  1        2 0.17825078E+00 0.18782133E+04</pdfrwt>
<pdfrwt beam="2">  1       -2 0.10097232E+00 0.18782133E+04</pdfrwt>
<totfact> 0.15261932E+01</totfact>
</mgrwt>
</event>
<event>
 8    2  0.7266322E-052  0.1697170E+04  0.7818608E-02  0.8762980E-01
         -2   -1    0    0    0  501 -0.00000000000E+00  0.00000000000E+00  0.29223403379E+03  0.29223403380E+03  0.25500000000E-02 0. -1.
          2   -1    0    0  501    0  0.00000000000E+00 -0.00000000000E+00 -0.24641097398E+04  0.24641097398E+04  0.25500000000E-02 0.  1.
    -200001    2    1    2    0    0  0.58540178950E+03  0.21388976287E+02 -0.10244897135E+04  0.13296635855E+04  0.61259557127E+03 0.  0.
   -5000001    2    3    3    0    0 -0.49191530172E+02 -0.15434125249E+03 -0.19376875437E+03  0.26482176310E+03  0.79644253903E+02 0.  0.
     200001    1    1    2    0    0 -0.58540178950E+03 -0.21388976287E+02 -0.11473859924E+04  0.14266801881E+04  0.61300000000E+03 0.  1.
         11    1    4    4    0    0  0.63452848207E+01 -0.79084810642E+01  0.38912437401E+01  0.10860409307E+02  0.51100000000E-03 0.  1.
    -200002    1    4    4    0    0 -0.55536814993E+02 -0.14643277143E+03 -0.19765999811E+03  0.25396135380E+03  0.30000000000E+02 0.  1.
    -200000    1    3    3    0    0  0.63459331967E+03  0.17573022878E+03 -0.83072095916E+03  0.10648418224E+04  0.10100000000E+03 0. -1.
<mgrwt>
<rscale>  0 0.16971703E+04</rscale>
<asrwt>0</asrwt>
<pdfrwt beam="1">  1        2 0.35201566E+00 0.16971703E+04</pdfrwt>
<pdfrwt beam="2">  1       -2 0.41747721E-01 0.16971703E+04</pdfrwt>
<totfact> 0.23897584E+01</totfact>
</mgrwt>
</event>
<event>
 8    2  0.7266322E-052  0.2342558E+04  0.7818608E-02  0.8461328E-01
          2   -1    0    0  501    0  0.00000000000E+00  0.00000000000E+00  0.15824555580E+04  0.15824555580E+04  0.25500000000E-02 0.  1.
         -2   -1    0    0    0  501 -0.00000000000E+00 -0.00000000000E+00 -0.86694011873E+03  0.86694011873E+03  0.25500000000E-02 0. -1.
    -200001    2    1    2    0    0  0.92655340449E+03  0.34595061396E+03  0.20173185596E+03  0.11774186293E+04  0.60616486888E+03 0.  0.
   -5000001    2    3    3    0    0  0.19062546860E+03 -0.47214505685E+02 -0.15895403800E+03  0.26283454229E+03  0.72445369754E+02 0.  0.
     200001    1    1    2    0    0 -0.92655340449E+03 -0.34595061396E+03  0.51378358328E+03  0.12719770474E+04  0.61300000000E+03 0.  1.
         11    1    4    4    0    0  0.16221032292E+03 -0.32335522454E+02 -0.12516250803E+03  0.20742089647E+03  0.51100000000E-03 0.  1.
    -200002    1    4    4    0    0  0.28415145684E+02 -0.14878983231E+02 -0.33791529964E+02  0.55413645825E+02  0.30000000000E+02 0. -1.
    -200000    1    3    3    0    0  0.73592793589E+03  0.39316511964E+03  0.36068589396E+03  0.91458408702E+03  0.10100000000E+03 0.  1.
<mgrwt>
<rscale>  0 0.23425578E+04</rscale>
<asrwt>0</asrwt>
<pdfrwt beam="1">  1        2 0.22606508E+00 0.23425578E+04</pdfrwt>
<pdfrwt beam="2">  1       -2 0.12384859E+00 0.23425578E+04</pdfrwt>
<totfact> 0.58937968E+00</totfact>
</mgrwt>
</event>
<event>
 8    2  0.7266322E-052  0.1360939E+04  0.7818608E-02  0.8982588E-01
          2   -1    0    0  501    0  0.00000000000E+00  0.00000000000E+00  0.77076510812E+03  0.77076510812E+03  0.25500000000E-02 0.  1.
         -2   -1    0    0    0  501 -0.00000000000E+00 -0.00000000000E+00 -0.60075218580E+03  0.60075218580E+03  0.25500000000E-02 0. -1.
    -200001    2    1    2    0    0  0.22430809006E+02 -0.13407347892E+03  0.34916674551E+03  0.71856711872E+03  0.61314145921E+03 0.  0.
   -5000001    2    3    3    0    0 -0.14778388211E+03 -0.26033036148E+03  0.36812952261E+03  0.48303701792E+03  0.90517635522E+02 0.  0.
     200001    1    1    2    0    0 -0.22430809006E+02  0.13407347892E+03 -0.17915382319E+03  0.65295017521E+03  0.61300000000E+03 0. -1.
         11    1    4    4    0    0 -0.13643602044E+03 -0.18370458961E+03  0.28529891506E+03  0.36572890896E+03  0.51100000000E-03 0.  1.
    -200002    1    4    4    0    0 -0.11347861673E+02 -0.76625771869E+02  0.82830607556E+02  0.11730810896E+03  0.30000000000E+02 0.  1.
    -200000    1    3    3    0    0  0.17021469112E+03  0.12625688257E+03 -0.18962777108E+02  0.23553010080E+03  0.10100000000E+03 0. -1.
<mgrwt>
<rscale>  0 0.13609391E+04</rscale>
<asrwt>0</asrwt>
<pdfrwt beam="1">  1        2 0.11010930E+00 0.13609391E+04</pdfrwt>
<pdfrwt beam="2">  1       -2 0.85821741E-01 0.13609391E+04</pdfrwt>
<totfact> 0.45956512E+01</totfact>
</mgrwt>
</event>
<event>
 8    2  0.7266322E-052  0.1752083E+04  0.7818608E-02  0.8732205E-01
          2   -1    0    0  501    0  0.00000000000E+00  0.00000000000E+00  0.83931813762E+03  0.83931813762E+03  0.25500000000E-02 0.  1.
         -2   -1    0    0    0  501 -0.00000000000E+00 -0.00000000000E+00 -0.91437127529E+03  0.91437127529E+03  0.25500000000E-02 0. -1.
    -200001    2    1    2    0    0  0.57389045541E+03  0.25034738151E+03 -0.59402766280E+02  0.87731164029E+03  0.61165591578E+03 0.  0.
   -5000001    2    3    3    0    0  0.17616402894E+03  0.34058558755E+02 -0.29819330175E+03  0.35559420241E+03  0.73035888878E+02 0.  0.
     200001    1    1    2    0    0 -0.57389045541E+03 -0.25034738151E+03 -0.15650371388E+02  0.87637777263E+03  0.61300000000E+03 0.  1.
         11    1    4    4    0    0  0.14356221959E+03  0.36635810405E+02 -0.24502584950E+03  0.28633889087E+03  0.51100000000E-03 0.  1.
    -200002    1    4    4    0    0  0.32601809344E+02 -0.25772516494E+01 -0.53167452246E+02  0.69255311543E+02  0.30000000000E+02 0. -1.
    -200000    1    3    3    0    0  0.39772642647E+03  0.21628882275E+03  0.23879053547E+03  0.52171743788E+03  0.10100000000E+03 0.  1.
<mgrwt>
<rscale>  0 0.17520826E+04</rscale>
<asrwt>0</asrwt>
<pdfrwt beam="1">  1        2 0.11990259E+00 0.17520826E+04</pdfrwt>
<pdfrwt beam="2">  1       -2 0.13062447E+00 0.17520826E+04</pdfrwt>
<totfact> 0.14556884E+01</totfact>
</mgrwt>
</event>
<event>
 8    2  0.7266322E-052  0.1696384E+04  0.7818608E-02  0.8763429E-01
          2   -1    0    0  501    0  0.00000000000E+00  0.00000000000E+00  0.19054092618E+04  0.19054092618E+04  0.25500000000E-02 0.  1.
         -2   -1    0    0    0  501 -0.00000000000E+00 -0.00000000000E+00 -0.37757219471E+03  0.37757219472E+03  0.25500000000E-02 0. -1.
    -200001    2    1    2    0    0  0.33609284439E+03  0.72199578097E+02  0.14028819477E+04  0.15691509718E+04  0.61317683737E+03 0.  0.
   -5000001    2    3    3    0    0  0.13875218636E+03  0.24335158160E+03  0.25610890749E+03  0.38867405570E+03  0.83687439885E+02 0.  0.
     200001    1    1    2    0    0 -0.33609284439E+03 -0.72199578097E+02  0.12495511941E+03  0.71383048478E+03  0.61300000000E+03 0. -1.
         11    1    4    4    0    0  0.40041874815E+02  0.73553063194E+02  0.12560283714E+03  0.15096184134E+03  0.51100000000E-03 0.  1.
    -200002    1    4    4    0    0  0.98710311541E+02  0.16979851840E+03  0.13050607035E+03  0.23771221436E+03  0.30000000000E+02 0.  1.
    -200000    1    3    3    0    0  0.19734065804E+03 -0.17115200350E+03  0.11467730402E+04  0.11804769161E+04  0.10100000000E+03 0.  1.
<mgrwt>
<rscale>  0 0.16963839E+04</rscale>
<asrwt>0</asrwt>
<pdfrwt beam="1">  1        2 0.27220132E+00 0.16963839E+04</pdfrwt>
<pdfrwt beam="2">  1       -2 0.53938886E-01 0.16963839E+04</pdfrwt>
<totfact> 0.27725024E+01</totfact>
</mgrwt>
</event>
<event>
 8    2  0.7266322E-052  0.1842694E+04  0.7818608E-02  0.8683919E-01
         -2   -1    0    0    0  501 -0.00000000000E+00  0.00000000000E+00  0.50223096081E+03  0.50223096082E+03  0.25500000000E-02 0. -1.
          2   -1    0    0  501    0  0.00000000000E+00 -0.00000000000E+00 -0.16902192847E+04  0.16902192847E+04  0.25500000000E-02 0.  1.
    -200001    2    1    2    0    0  0.30716400470E+03 -0.13083142931E+03 -0.13094439329E+04  0.14839397984E+04  0.61316174313E+03 0.  0.
   -5000001    2    3    3    0    0  0.12308216186E+03 -0.35568887287E+03 -0.70878848588E+03  0.80908058286E+03  0.10279338011E+03 0.  0.
     200001    1    1    2    0    0 -0.30716400470E+03  0.13083142931E+03  0.12145560902E+03  0.70851044709E+03  0.61300000000E+03 0. -1.
         11    1    4    4    0    0  0.74469092955E+02 -0.13668002915E+03 -0.21049555366E+03  0.26179276973E+03  0.51100000000E-03 0.  1.
    -200002    1    4    4    0    0  0.48613068901E+02 -0.21900884372E+03 -0.49829293222E+03  0.54728781313E+03  0.30000000000E+02 0.  1.
    -200000    1    3    3    0    0  0.18408184284E+03  0.22485744356E+03 -0.60065544705E+03  0.67485921559E+03  0.10100000000E+03 0.  1.
<mgrwt>
<rscale>  0 0.18426942E+04</rscale>
<asrwt>0</asrwt>
<pdfrwt beam="1">  1        2 0.24145990E+00 0.18426942E+04</pdfrwt>
<pdfrwt beam="2">  1       -2 0.71747281E-01 0.18426942E+04</pdfrwt>
<totfact> 0.19290785E+01</totfact>
</mgrwt>
</event>
<event>
 8    2  0.7266322E-052  0.1971104E+04  0.7818608E-02  0.8620251E-01
          2   -1    0    0  501    0  0.00000000000E+00  0.00000000000E+00  0.29369341266E+04  0.29369341266E+04  0.25500000000E-02 0.  1.
         -2   -1    0    0    0  501 -0.00000000000E+00 -0.00000000000E+00 -0.33072330497E+03  0.33072330498E+03  0.25500000000E-02 0. -1.
    -200001    2    1    2    0    0 -0.24435089140E+03  0.53489615628E+03  0.21306228226E+04  0.22941204775E+04  0.61450296730E+03 0.  0.
   -5000001    2    3    3    0    0 -0.30382258919E+03  0.45974678266E+03  0.20163159068E+04  0.21139778057E+04  0.31574840787E+03 0.  0.
     200001    1    1    2    0    0  0.24435089140E+03 -0.53489615628E+03  0.47558799897E+03  0.97353695405E+03  0.61300000000E+03 0.  1.
         11    1    4    4    0    0 -0.29110935175E+03  0.39726326358E+03  0.19676165603E+04  0.20283189304E+04  0.51100000000E-03 0.  1.
    -200002    1    4    4    0    0 -0.12713237443E+02  0.62483519081E+02  0.48699346579E+02  0.85658875316E+02  0.30000000000E+02 0.  1.
    -200000    1    3    3    0    0  0.59471697789E+02  0.75149373625E+02  0.11430691579E+03  0.18014267177E+03  0.10100000000E+03 0. -1.
<mgrwt>
<rscale>  0 0.19711038E+04</rscale>
<asrwt>0</asrwt>
<pdfrwt beam="1">  1        2 0.41956200E+00 0.19711038E+04</pdfrwt>
<pdfrwt beam="2">  1       -2 0.47246189E-01 0.19711038E+04</pdfrwt>
<totfact> 0.10159236E+01</totfact>
</mgrwt>
</event>
<event>
 8    2  0.7266322E-052  0.1782096E+04  0.7818608E-02  0.8715879E-01
          2   -1    0    0  501    0  0.00000000000E+00  0.00000000000E+00  0.27960117986E+04  0.27960117986E+04  0.25500000000E-02 0.  1.
         -2   -1    0    0    0  501 -0.00000000000E+00 -0.00000000000E+00 -0.28396386571E+03  0.28396386573E+03  0.25500000000E-02 0. -1.
    -200001    2    1    2    0    0 -0.10090515560E+03  0.39330147898E+03  0.38519587020E+03  0.82961200475E+03  0.61238249176E+03 0.  0.
   -5000001    2    3    3    0    0 -0.78991822258E+02 -0.31889219200E+02  0.37252860060E+03  0.39185775438E+03  0.86708195198E+02 0.  0.
     200001    1    1    2    0    0  0.10090515560E+03 -0.39330147898E+03  0.21268520627E+04  0.22503636596E+04  0.61300000000E+03 0.  1.
         11    1    4    4    0    0  0.10837398556E+02  0.12009534013E+02  0.35025331446E+02  0.38580460830E+02  0.51100000000E-03 0.  1.
    -200002    1    4    4    0    0 -0.89829220814E+02 -0.43898753213E+02  0.33750326916E+03  0.35327729355E+03  0.30000000000E+02 0.  1.
    -200000    1    3    3    0    0 -0.21913333339E+02  0.42519069818E+03  0.12667269595E+02  0.43775425037E+03  0.10100000000E+03 0. -1.
<mgrwt>
<rscale>  0 0.17820958E+04</rscale>
<asrwt>0</asrwt>
<pdfrwt beam="1">  1        2 0.39943027E+00 0.17820958E+04</pdfrwt>
<pdfrwt beam="2">  1       -2 0.40566266E-01 0.17820958E+04</pdfrwt>
<totfact> 0.16702371E+01</totfact>
</mgrwt>
</event>
<event>
 8    2  0.7266322E-052  0.1343839E+04  0.7818608E-02  0.8995505E-01
          2   -1    0    0  501    0  0.00000000000E+00  0.00000000000E+00  0.22788463887E+04  0.22788463887E+04  0.25500000000E-02 0. -1.
         -2   -1    0    0    0  501 -0.00000000000E+00 -0.00000000000E+00 -0.19811600242E+03  0.19811600244E+03  0.25500000000E-02 0.  1.
    -200001    2    1    2    0    0 -0.25236253713E+02 -0.27190525580E+03  0.98461568878E+03  0.11917364317E+04  0.61335008886E+03 0.  0.
   -5000001    2    3    3    0    0 -0.29437000810E+03 -0.58518481939E+02  0.42129170983E+03  0.52427722079E+03  0.85450483164E+02 0.  0.
     200001    1    1    2    0    0  0.25236253713E+02  0.27190525580E+03  0.10961146975E+04  0.12852259594E+04  0.61300000000E+03 0. -1.
         11    1    4    4    0    0 -0.14842715109E+03  0.72768420545E+01  0.21694640121E+03  0.26296256884E+03  0.51100000000E-03 0.  1.
    -200002    1    4    4    0    0 -0.14594285701E+03 -0.65795323993E+02  0.20434530862E+03  0.26131465195E+03  0.30000000000E+02 0.  1.
    -200000    1    3    3    0    0  0.26913375439E+03 -0.21338677386E+03  0.56332397895E+03  0.66745921095E+03  0.10100000000E+03 0.  1.
<mgrwt>
<rscale>  0 0.13438392E+04</rscale>
<asrwt>0</asrwt>
<pdfrwt beam="1">  1        2 0.32554947E+00 0.13438392E+04</pdfrwt>
<pdfrwt beam="2">  1       -2 0.28302288E-01 0.13438392E+04</pdfrwt>
<totfact> 0.64406265E+01</totfact>
</mgrwt>
</event>
<event>
 8    2  0.7266322E-052  0.1503683E+04  0.7818608E-02  0.8882007E-01
          2   -1    0    0  501    0  0.00000000000E+00  0.00000000000E+00  0.45399944604E+03  0.45399944604E+03  0.25500000000E-02 0.  1.
         -2   -1    0    0    0  501 -0.00000000000E+00 -0.00000000000E+00 -0.12450807500E+04  0.12450807500E+04  0.25500000000E-02 0. -1.
    -200001    2    1    2    0    0 -0.25757041297E+03  0.60678202196E+02 -0.78774068840E+03  0.10313942507E+04  0.61091271581E+03 0.  0.
   -5000001    2    3    3    0    0  0.61524244259E+02  0.10520870229E+03 -0.65111283134E+03  0.66715183549E+03  0.79306675595E+02 0.  0.
     200001    1    1    2    0    0  0.25757041297E+03 -0.60678202196E+02 -0.33406155258E+01  0.66768594531E+03  0.61300000000E+03 0.  1.
         11    1    4    4    0    0  0.53278189197E+02  0.28226829972E+02 -0.21980241843E+03  0.22792196586E+03  0.51100000000E-03 0.  1.
    -200002    1    4    4    0    0  0.82460550615E+01  0.76981872313E+02 -0.43131041291E+03  0.43922986963E+03  0.30000000000E+02 0.  1.
    -200000    1    3    3    0    0 -0.31909465723E+03 -0.44530500089E+02 -0.13662785706E+03  0.36424241521E+03  0.10100000000E+03 0.  1.
<mgrwt>
<rscale>  0 0.15036834E+04</rscale>
<asrwt>0</asrwt>
<pdfrwt beam="1">  1        2 0.64857065E-01 0.15036834E+04</pdfrwt>
<pdfrwt beam="2">  1       -2 0.17786868E+00 0.15036834E+04</pdfrwt>
<totfact> 0.13597953E+01</totfact>
</mgrwt>
</event>
<event>
 8    2  0.7266322E-052  0.1583848E+04  0.7818608E-02  0.8830533E-01
          2   -1    0    0  501    0  0.00000000000E+00  0.00000000000E+00  0.59874447718E+03  0.59874447718E+03  0.25500000000E-02 0.  1.
         -2   -1    0    0    0  501 -0.00000000000E+00 -0.00000000000E+00 -0.10474310926E+04  0.10474310926E+04  0.25500000000E-02 0. -1.
    -200001    2    1    2    0    0 -0.41779154617E+03 -0.18092690238E+03 -0.44296446852E+03  0.88257484752E+03  0.61272874997E+03 0.  0.
   -5000001    2    3    3    0    0 -0.12983240038E+03 -0.26966115129E+03 -0.23441839070E+03  0.50246078155E+03  0.32854416201E+03 0.  0.
     200001    1    1    2    0    0  0.41779154617E+03  0.18092690238E+03 -0.57221468833E+01  0.76360072225E+03  0.61300000000E+03 0. -1.
         11    1    4    4    0    0 -0.11623211924E+03 -0.17635266052E+03  0.36225213670E+02  0.21429519949E+03  0.51100000000E-03 0.  1.
    -200002    1    4    4    0    0 -0.13600281135E+02 -0.93308490765E+02 -0.27064360437E+03  0.28816558206E+03  0.30000000000E+02 0.  1.
    -200000    1    3    3    0    0 -0.28795914579E+03  0.88734248910E+02 -0.20854607782E+03  0.38011406597E+03  0.10100000000E+03 0.  1.
<mgrwt>
<rscale>  0 0.15838479E+04</rscale>
<asrwt>0</asrwt>
<pdfrwt beam="1">  1        2 0.85534926E-01 0.15838479E+04</pdfrwt>
<pdfrwt beam="2">  1       -2 0.14963301E+00 0.15838479E+04</pdfrwt>
<totfact> 0.15776347E+01</totfact>
</mgrwt>
</event>
<event>
 8    2  0.7266322E-052  0.1677076E+04  0.7818608E-02  0.8774548E-01
          2   -1    0    0  501    0  0.00000000000E+00  0.00000000000E+00  0.16928717953E+04  0.16928717953E+04  0.25500000000E-02 0.  1.
         -2   -1    0    0    0  501 -0.00000000000E+00 -0.00000000000E+00 -0.41535703709E+03  0.41535703710E+03  0.25500000000E-02 0. -1.
    -200001    2    1    2    0    0  0.10154143293E+02  0.27065184440E+03  0.51878476433E+01  0.67019535057E+03  0.61300845562E+03 0.  0.
   -5000001    2    3    3    0    0  0.19325628161E+03  0.28470537456E+02  0.12783268442E+03  0.32752796888E+03  0.22972769381E+03 0.  0.
     200001    1    1    2    0    0 -0.10154143293E+02 -0.27065184440E+03  0.12723269106E+04  0.14380334818E+04  0.61300000000E+03 0.  1.
         11    1    4    4    0    0  0.46884982047E+02 -0.59067351549E+02 -0.40862976623E+02  0.85772585476E+02  0.51100000000E-03 0.  1.
    -200002    1    4    4    0    0  0.14637129956E+03  0.87537889005E+02  0.16869566105E+03  0.24175538340E+03  0.30000000000E+02 0.  1.
    -200000    1    3    3    0    0 -0.18310213832E+03  0.24218130694E+03 -0.12264483678E+03  0.34266738169E+03  0.10100000000E+03 0. -1.
<mgrwt>
<rscale>  0 0.16770763E+04</rscale>
<asrwt>0</asrwt>
<pdfrwt beam="1">  1        2 0.24183883E+00 0.16770763E+04</pdfrwt>
<pdfrwt beam="2">  1       -2 0.59336718E-01 0.16770763E+04</pdfrwt>
<totfact> 0.29307626E+01</totfact>
</mgrwt>
</event>
<event>
 8    2  0.7266322E-052  0.1372816E+04  0.7818608E-02  0.8973734E-01
          2   -1    0    0  501    0  0.00000000000E+00  0.00000000000E+00  0.74214466477E+03  0.74214466477E+03  0.25500000000E-02 0.  1.
         -2   -1    0    0    0  501 -0.00000000000E+00 -0.00000000000E+00 -0.63485717623E+03  0.63485717623E+03  0.25500000000E-02 0. -1.
    -200001    2    1    2    0    0 -0.30659273022E+03 -0.35700955520E+02  0.60906319296E+02  0.68911095336E+03  0.61309923003E+03 0.  0.
   -5000001    2    3    3    0    0 -0.27393550142E+03 -0.62119993440E+02  0.30437295738E+03  0.42219998689E+03  0.81916904370E+02 0.  0.
     200001    1    1    2    0    0  0.30659273022E+03  0.35700955520E+02  0.46381169243E+02  0.68789088765E+03  0.61300000000E+03 0.  1.
         11    1    4    4    0    0 -0.14709837207E+03 -0.40781035252E+02  0.21112065528E+03  0.26052438463E+03  0.51100000000E-03 0.  1.
    -200002    1    4    4    0    0 -0.12683712935E+03 -0.21338958188E+02  0.93252302105E+02  0.16167560226E+03  0.30000000000E+02 0.  1.
    -200000    1    3    3    0    0 -0.32657228800E+02  0.26419037921E+02 -0.24346663809E+03  0.26691096647E+03  0.10100000000E+03 0. -1.
<mgrwt>
<rscale>  0 0.13728159E+04</rscale>
<asrwt>0</asrwt>
<pdfrwt beam="1">  1        2 0.10602067E+00 0.13728159E+04</pdfrwt>
<pdfrwt beam="2">  1       -2 0.90693883E-01 0.13728159E+04</pdfrwt>
<totfact> 0.42435634E+01</totfact>
</mgrwt>
</event>
<event>
 8    2  0.7266322E-052  0.1463979E+04  0.7818608E-02  0.8908766E-01
         -2   -1    0    0    0  501 -0.00000000000E+00  0.00000000000E+00  0.86617012588E+03  0.86617012589E+03  0.25500000000E-02 0. -1.
          2   -1    0    0  501    0  0.00000000000E+00 -0.00000000000E+00 -0.61859553965E+03  0.61859553966E+03  0.25500000000E-02 0.  1.
    -200001    2    1    2    0    0 -0.11178786123E+03  0.21783418695E+02 -0.26516211630E+03  0.67752408500E+03  0.61299012601E+03 0.  0.
   -5000001    2    3    3    0    0  0.11742463180E+03  0.43029967564E+02 -0.37260190561E+03  0.40414871828E+03  0.94148203181E+02 0.  0.
     200001    1    1    2    0    0  0.11178786123E+03 -0.21783418695E+02  0.51273670253E+03  0.80724158055E+03  0.61300000000E+03 0. -1.
         11    1    4    4    0    0  0.10403388288E+02  0.75248046815E+01 -0.16897052935E+03  0.16945764356E+03  0.51100000000E-03 0.  1.
    -200002    1    4    4    0    0  0.10702124351E+03  0.35505162882E+02 -0.20363137626E+03  0.23469107472E+03  0.30000000000E+02 0.  1.
    -200000    1    3    3    0    0 -0.22921249303E+03 -0.21246548869E+02  0.10743978931E+03  0.27337536672E+03  0.10100000000E+03 0. -1.
<mgrwt>
<rscale>  0 0.14639795E+04</rscale>
<asrwt>0</asrwt>
<pdfrwt beam="1">  1        2 0.88370791E-01 0.14639795E+04</pdfrwt>
<pdfrwt beam="2">  1       -2 0.12373859E+00 0.14639795E+04</pdfrwt>
<totfact> 0.24971644E+01</totfact>
</mgrwt>
</event>
<event>
 8    2  0.7266322E-052  0.1374768E+04  0.7818608E-02  0.8972288E-01
          2   -1    0    0  501    0  0.00000000000E+00  0.00000000000E+00  0.24245136927E+04  0.24245136927E+04  0.25500000000E-02 0.  1.
         -2   -1    0    0    0  501 -0.00000000000E+00 -0.00000000000E+00 -0.19488320604E+03  0.19488320606E+03  0.25500000000E-02 0. -1.
    -200001    2    1    2    0    0 -0.10875553923E+03 -0.27214992154E+03  0.13095338097E+04  0.14756135967E+04  0.61372904520E+03 0.  0.
   -5000001    2    3    3    0    0 -0.30570113522E+03 -0.69280149891E+02  0.37841127560E+03  0.49728140080E+03  0.76424962117E+02 0.  0.
     200001    1    1    2    0    0  0.10875553923E+03  0.27214992154E+03  0.92009667697E+03  0.11437833021E+04  0.61300000000E+03 0. -1.
         11    1    4    4    0    0 -0.72061820641E+02 -0.25061058503E+02  0.13874139622E+03  0.15833552246E+03  0.51100000000E-03 0.  1.
    -200002    1    4    4    0    0 -0.23363931458E+03 -0.44219091389E+02  0.23966987939E+03  0.33894587834E+03  0.30000000000E+02 0.  1.
    -200000    1    3    3    0    0  0.19694559600E+03 -0.20286977165E+03  0.93112253410E+03  0.97833219590E+03  0.10100000000E+03 0. -1.
<mgrwt>
<rscale>  0 0.13747683E+04</rscale>
<asrwt>0</asrwt>
<pdfrwt beam="1">  1        2 0.34635908E+00 0.13747683E+04</pdfrwt>
<pdfrwt beam="2">  1       -2 0.27840459E-01 0.13747683E+04</pdfrwt>
<totfact> 0.55647502E+01</totfact>
</mgrwt>
</event>
<event>
 8    2  0.7266322E-052  0.2058825E+04  0.7818608E-02  0.8579601E-01
          2   -1    0    0  501    0  0.00000000000E+00  0.00000000000E+00  0.19435002563E+04  0.19435002563E+04  0.25500000000E-02 0.  1.
         -2   -1    0    0    0  501 -0.00000000000E+00 -0.00000000000E+00 -0.54524832702E+03  0.54524832703E+03  0.25500000000E-02 0. -1.
    -200001    2    1    2    0    0  0.41250675277E+03  0.48853479091E+03  0.13337300369E+04  0.16006268926E+04  0.61183541481E+03 0.  0.
   -5000001    2    3    3    0    0  0.48726501919E+03  0.14949354597E+03  0.88626210973E+03  0.10253301778E+04  0.77884062071E+02 0.  0.
     200001    1    1    2    0    0 -0.41250675277E+03 -0.48853479091E+03  0.64521892348E+02  0.88812169076E+03  0.61300000000E+03 0. -1.
         11    1    4    4    0    0  0.20553409132E+03  0.43208314069E+02  0.30998838128E+03  0.37443826945E+03  0.51100000000E-03 0.  1.
    -200002    1    4    4    0    0  0.28173092788E+03  0.10628523190E+03  0.57627372845E+03  0.65089190834E+03  0.30000000000E+02 0.  1.
    -200000    1    3    3    0    0 -0.74758266426E+02  0.33904124494E+03  0.44746792720E+03  0.57529671479E+03  0.10100000000E+03 0.  1.
<mgrwt>
<rscale>  0 0.20588252E+04</rscale>
<asrwt>0</asrwt>
<pdfrwt beam="1">  1        2 0.27764289E+00 0.20588252E+04</pdfrwt>
<pdfrwt beam="2">  1       -2 0.77892619E-01 0.20588252E+04</pdfrwt>
<totfact> 0.11690190E+01</totfact>
</mgrwt>
</event>
<event>
 8    2  0.7266322E-052  0.1378898E+04  0.7818608E-02  0.8969237E-01
         -2   -1    0    0    0  501 -0.00000000000E+00  0.00000000000E+00  0.72564896474E+03  0.72564896474E+03  0.25500000000E-02 0. -1.
          2   -1    0    0  501    0  0.00000000000E+00 -0.00000000000E+00 -0.65505477653E+03  0.65505477653E+03  0.25500000000E-02 0.  1.
    -200001    2    1    2    0    0 -0.12274564831E+03  0.28970243491E+03  0.10295343214E+02  0.68903984480E+03  0.61292407251E+03 0.  0.
   -5000001    2    3    3    0    0 -0.35292614001E+03  0.14350361955E+03 -0.24657651837E+02  0.39615784769E+03  0.10574919085E+03 0.  0.
     200001    1    1    2    0    0  0.12274564831E+03 -0.28970243491E+03  0.60298844996E+02  0.69166389647E+03  0.61300000000E+03 0.  1.
         11    1    4    4    0    0 -0.11436355324E+03  0.97562518207E+02 -0.22249067984E+01  0.15034100399E+03  0.51100000000E-03 0.  1.
    -200002    1    4    4    0    0 -0.23856258677E+03  0.45941101345E+02 -0.22432745039E+02  0.24581684370E+03  0.30000000000E+02 0.  1.
    -200000    1    3    3    0    0  0.23018049170E+03  0.14619881536E+03  0.34952995051E+02  0.29288199711E+03  0.10100000000E+03 0. -1.
<mgrwt>
<rscale>  0 0.13788979E+04</rscale>
<asrwt>0</asrwt>
<pdfrwt beam="1">  1        2 0.93579254E-01 0.13788979E+04</pdfrwt>
<pdfrwt beam="2">  1       -2 0.10366414E+00 0.13788979E+04</pdfrwt>
<totfact> 0.36141099E+01</totfact>
</mgrwt>
</event>
<event>
 8    2  0.7266322E-052  0.1339389E+04  0.7818608E-02  0.8998900E-01
         -2   -1    0    0    0  501 -0.00000000000E+00  0.00000000000E+00  0.97397119994E+02  0.97397120028E+02  0.25500000000E-02 0. -1.
          2   -1    0    0  501    0  0.00000000000E+00 -0.00000000000E+00 -0.46047614774E+04  0.46047614774E+04  0.25500000000E-02 0.  1.
    -200001    2    1    2    0    0 -0.84287180659E+02 -0.21721650284E+03 -0.27290126460E+04  0.28067454110E+04  0.61320668788E+03 0.  0.
   -5000001    2    3    3    0    0 -0.28934012111E+03 -0.27972157101E+03 -0.15005228318E+04  0.15556092012E+04  0.79933440953E+02 0.  0.
     200001    1    1    2    0    0  0.84287180659E+02  0.21721650284E+03 -0.17783517114E+04  0.18954131864E+04  0.61300000000E+03 0. -1.
         11    1    4    4    0    0 -0.22270630207E+03 -0.17865407744E+03 -0.10301953900E+04  0.10690266217E+04  0.51100000000E-03 0.  1.
    -200002    1    4    4    0    0 -0.66633819037E+02 -0.10106749357E+03 -0.47032744188E+03  0.48658257951E+03  0.30000000000E+02 0.  1.
    -200000    1    3    3    0    0  0.20505294045E+03  0.62505068170E+02 -0.12284898142E+04  0.12511362098E+04  0.10100000000E+03 0. -1.
<mgrwt>
<rscale>  0 0.13393887E+04</rscale>
<asrwt>0</asrwt>
<pdfrwt beam="1">  1        2 0.65782293E+00 0.13393887E+04</pdfrwt>
<pdfrwt beam="2">  1       -2 0.13913877E-01 0.13393887E+04</pdfrwt>
<totfact> 0.80951658E+00</totfact>
</mgrwt>
</event>
<event>
 8    2  0.7266322E-052  0.1495301E+04  0.7818608E-02  0.8887584E-01
         -2   -1    0    0    0  501 -0.00000000000E+00  0.00000000000E+00  0.27700483561E+03  0.27700483562E+03  0.25500000000E-02 0. -1.
          2   -1    0    0  501    0  0.00000000000E+00 -0.00000000000E+00 -0.20179480662E+04  0.20179480662E+04  0.25500000000E-02 0.  1.
    -200001    2    1    2    0    0 -0.16794360421E+03 -0.94975745771E+02 -0.28278341922E+03  0.70145847698E+03  0.61225165273E+03 0.  0.
   -5000001    2    3    3    0    0 -0.34242349677E+03  0.91683227960E+02 -0.19764250176E+03  0.41382193340E+03  0.80785943274E+02 0.  0.
     200001    1    1    2    0    0  0.16794360421E+03  0.94975745771E+02 -0.14581598114E+04  0.15934944249E+04  0.61300000000E+03 0.  1.
         11    1    4    4    0    0 -0.17031418825E+03  0.40666490856E+02 -0.13583686418E+03  0.22161304084E+03  0.51100000000E-03 0.  1.
    -200002    1    4    4    0    0 -0.17210930851E+03  0.51016737104E+02 -0.61805637582E+02  0.19220889256E+03  0.30000000000E+02 0.  1.
    -200000    1    3    3    0    0  0.17447989255E+03 -0.18665897373E+03 -0.85140917452E+02  0.28763654358E+03  0.10100000000E+03 0. -1.
<mgrwt>
<rscale>  0 0.14953011E+04</rscale>
<asrwt>0</asrwt>
<pdfrwt beam="1">  1        2 0.28827829E+00 0.14953011E+04</pdfrwt>
<pdfrwt beam="2">  1       -2 0.39572120E-01 0.14953011E+04</pdfrwt>
<totfact> 0.45915576E+01</totfact>
</mgrwt>
</event>
<event>
 8    2  0.7266322E-052  0.1678624E+04  0.7818608E-02  0.8773651E-01
         -2   -1    0    0    0  501 -0.00000000000E+00  0.00000000000E+00  0.29263635735E+03  0.29263635737E+03  0.25500000000E-02 0.  1.
          2   -1    0    0  501    0  0.00000000000E+00 -0.00000000000E+00 -0.24072355551E+04  0.24072355551E+04  0.25500000000E-02 0. -1.
    -200001    2    1    2    0    0  0.40420485339E+03  0.14211934632E+03 -0.16746610045E+04  0.18321772162E+04  0.60729268016E+03 0.  0.
   -5000001    2    3    3    0    0 -0.13974426657E+03  0.89961430011E+02 -0.47461187105E+03  0.50970981921E+03  0.83223510686E+02 0.  0.
     200001    1    1    2    0    0 -0.40420485339E+03 -0.14211934632E+03 -0.43993819325E+03  0.86769469630E+03  0.61300000000E+03 0.  1.
         11    1    4    4    0    0 -0.12358665491E+03  0.51527216728E+02 -0.36078882212E+03  0.38483410647E+03  0.51100000000E-03 0.  1.
    -200002    1    4    4    0    0 -0.16157611661E+02  0.38434213283E+02 -0.11382304893E+03  0.12487571274E+03  0.30000000000E+02 0.  1.
    -200000    1    3    3    0    0  0.54394911996E+03  0.52157916312E+02 -0.12000491335E+04  0.13224673970E+04  0.10100000000E+03 0. -1.
<mgrwt>
<rscale>  0 0.16786240E+04</rscale>
<asrwt>0</asrwt>
<pdfrwt beam="1">  1        2 0.34389078E+00 0.16786240E+04</pdfrwt>
<pdfrwt beam="2">  1       -2 0.41805195E-01 0.16786240E+04</pdfrwt>
<totfact> 0.25563096E+01</totfact>
</mgrwt>
</event>
<event>
 8    2  0.7266322E-052  0.1330566E+04  0.7818608E-02  0.9005671E-01
         -2   -1    0    0    0  501 -0.00000000000E+00  0.00000000000E+00  0.32998522336E+03  0.32998522337E+03  0.25500000000E-02 0. -1.
          2   -1    0    0  501    0  0.00000000000E+00 -0.00000000000E+00 -0.13412770605E+04  0.13412770605E+04  0.25500000000E-02 0.  1.
    -200001    2    1    2    0    0  0.81069496790E+02  0.51188223018E+01 -0.80096625929E+03  0.10181127494E+04  0.62322400171E+03 0.  0.
   -5000001    2    3    3    0    0  0.25982142036E+02  0.13066338707E+03 -0.80909740653E+03  0.84763351327E+03  0.21469971386E+03 0.  0.
     200001    1    1    2    0    0 -0.81069496790E+02 -0.51188223018E+01 -0.21032557781E+03  0.65314953443E+03  0.61300000000E+03 0. -1.
         11    1    4    4    0    0 -0.82032451273E+02  0.92417940246E+02 -0.29067256891E+03  0.31584955447E+03  0.51100000000E-03 0.  1.
    -200002    1    4    4    0    0  0.10801459331E+03  0.38245446824E+02 -0.51842483763E+03  0.53178395880E+03  0.30000000000E+02 0.  1.
    -200000    1    3    3    0    0  0.55087354754E+02 -0.12554456477E+03  0.81311472412E+01  0.17047923613E+03  0.10100000000E+03 0. -1.
<mgrwt>
<rscale>  0 0.13305662E+04</rscale>
<asrwt>0</asrwt>
<pdfrwt beam="1">  1        2 0.19161101E+00 0.13305662E+04</pdfrwt>
<pdfrwt beam="2">  1       -2 0.47140747E-01 0.13305662E+04</pdfrwt>
<totfact> 0.74339221E+01</totfact>
</mgrwt>
</event>
<event>
 8    2  0.7266322E-052  0.1237820E+04  0.7818608E-02  0.9080382E-01
         -2   -1    0    0    0  501 -0.00000000000E+00  0.00000000000E+00  0.30813610355E+03  0.30813610357E+03  0.25500000000E-02 0. -1.
          2   -1    0    0  501    0  0.00000000000E+00 -0.00000000000E+00 -0.12431186353E+04  0.12431186353E+04  0.25500000000E-02 0.  1.
    -200001    2    1    2    0    0  0.57643266418E+02 -0.62159011617E+02 -0.46457898858E+03  0.77392920710E+03  0.61314459314E+03 0.  0.
   -5000001    2    3    3    0    0  0.25038995207E+02 -0.23167161962E+03 -0.10841547080E+03  0.36545520038E+03  0.25981704825E+03 0.  0.
     200001    1    1    2    0    0 -0.57643266418E+02  0.62159011617E+02 -0.47040354314E+03  0.77732553174E+03  0.61300000000E+03 0. -1.
         11    1    4    4    0    0  0.22044843051E+02 -0.26659553344E+03 -0.14706737591E+03  0.30526704148E+03  0.51100000000E-03 0.  1.
    -200002    1    4    4    0    0  0.29941521557E+01  0.34923913823E+02  0.38651905107E+02  0.60188158904E+02  0.30000000000E+02 0.  1.
    -200000    1    3    3    0    0  0.32604271211E+02  0.16951260800E+03 -0.35616351777E+03  0.40847400672E+03  0.10100000000E+03 0.  1.
<mgrwt>
<rscale>  0 0.12378202E+04</rscale>
<asrwt>0</asrwt>
<pdfrwt beam="1">  1        2 0.17758837E+00 0.12378202E+04</pdfrwt>
<pdfrwt beam="2">  1       -2 0.44019444E-01 0.12378202E+04</pdfrwt>
<totfact> 0.97282732E+01</totfact>
</mgrwt>
</event>
<event>
 8    2  0.7266322E-052  0.1426118E+04  0.7818608E-02  0.8935127E-01
          2   -1    0    0  501    0  0.00000000000E+00  0.00000000000E+00  0.72695346024E+03  0.72695346024E+03  0.25500000000E-02 0. -1.
         -2   -1    0    0    0  501 -0.00000000000E+00 -0.00000000000E+00 -0.69942972599E+03  0.69942972599E+03  0.25500000000E-02 0.  1.
    -200001    2    1    2    0    0  0.20955533888E+03  0.19608772889E+03  0.23914503754E+03  0.71721718770E+03  0.61224693374E+03 0.  0.
   -5000001    2    3    3    0    0  0.15301078535E+03 -0.17961844700E+03  0.19916594491E+03  0.32205678358E+03  0.91533662132E+02 0.  0.
     200001    1    1    2    0    0 -0.20955533888E+03 -0.19608772889E+03 -0.21162130329E+03  0.70916599854E+03  0.61300000000E+03 0. -1.
         11    1    4    4    0    0  0.45408171347E+02 -0.10859708481E+02  0.16761167220E+02  0.49606169175E+02  0.51100000000E-03 0.  1.
    -200002    1    4    4    0    0  0.10760261401E+03 -0.16875873852E+03  0.18240477769E+03  0.27245061441E+03  0.30000000000E+02 0.  1.
    -200000    1    3    3    0    0  0.56544553527E+02  0.37570617589E+03  0.39979092628E+02  0.39516040412E+03  0.10100000000E+03 0.  1.
<mgrwt>
<rscale>  0 0.14261176E+04</rscale>
<asrwt>0</asrwt>
<pdfrwt beam="1">  1        2 0.10385049E+00 0.14261176E+04</pdfrwt>
<pdfrwt beam="2">  1       -2 0.99918532E-01 0.14261176E+04</pdfrwt>
<totfact> 0.34590117E+01</totfact>
</mgrwt>
</event>
<event>
 8    2  0.7266322E-052  0.1930309E+04  0.7818608E-02  0.8639915E-01
         -2   -1    0    0    0  501 -0.00000000000E+00  0.00000000000E+00  0.36032018686E+03  0.36032018687E+03  0.25500000000E-02 0. -1.
          2   -1    0    0  501    0  0.00000000000E+00 -0.00000000000E+00 -0.25852640678E+04  0.25852640678E+04  0.25500000000E-02 0.  1.
    -200001    2    1    2    0    0 -0.62041538095E+03 -0.33889052586E+03 -0.14730174248E+04  0.17451991378E+04  0.61333323993E+03 0.  0.
   -5000001    2    3    3    0    0 -0.21908580093E+03 -0.13777728664E+03 -0.84997745494E+02  0.28290245208E+03  0.76341415807E+02 0.  0.
     200001    1    1    2    0    0  0.62041538095E+03  0.33889052586E+03 -0.75192645609E+03  0.12003851169E+04  0.61300000000E+03 0. -1.
         11    1    4    4    0    0 -0.61895193779E+01 -0.20425566811E+02  0.50522718843E+01  0.21932609994E+02  0.51100000000E-03 0.  1.
    -200002    1    4    4    0    0 -0.21289628156E+03 -0.11735171983E+03 -0.90050017379E+02  0.26096984208E+03  0.30000000000E+02 0.  1.
    -200000    1    3    3    0    0 -0.40132958002E+03 -0.20111323923E+03 -0.13880196793E+04  0.14622966857E+04  0.10100000000E+03 0.  1.
<mgrwt>
<rscale>  0 0.19303086E+04</rscale>
<asrwt>0</asrwt>
<pdfrwt beam="1">  1        2 0.36932343E+00 0.19303086E+04</pdfrwt>
<pdfrwt beam="2">  1       -2 0.51474314E-01 0.19303086E+04</pdfrwt>
<totfact> 0.13280463E+01</totfact>
</mgrwt>
</event>
<event>
 8    2  0.7266322E-052  0.2265718E+04  0.7818608E-02  0.8491562E-01
          2   -1    0    0  501    0  0.00000000000E+00  0.00000000000E+00  0.20460010432E+04  0.20460010432E+04  0.25500000000E-02 0.  1.
         -2   -1    0    0    0  501 -0.00000000000E+00 -0.00000000000E+00 -0.62725763652E+03  0.62725763653E+03  0.25500000000E-02 0. -1.
    -200001    2    1    2    0    0  0.76767840398E+03 -0.17452697391E+03  0.13423170020E+04  0.16725590285E+04  0.61306522770E+03 0.  0.
   -5000001    2    3    3    0    0  0.43684580318E+03 -0.26679104060E+03  0.38176015686E+03  0.64745741379E+03  0.10699799157E+03 0.  0.
     200001    1    1    2    0    0 -0.76767840398E+03  0.17452697391E+03  0.76426404641E+02  0.10006996512E+04  0.61300000000E+03 0. -1.
         11    1    4    4    0    0  0.21657475124E+03 -0.17339889084E+03  0.24569234845E+03  0.37058943361E+03  0.51100000000E-03 0.  1.
    -200002    1    4    4    0    0  0.22027105194E+03 -0.93392149760E+02  0.13606780842E+03  0.27686798018E+03  0.30000000000E+02 0.  1.
    -200000    1    3    3    0    0  0.33083260080E+03  0.92264066687E+02  0.96055684515E+03  0.10251016147E+04  0.10100000000E+03 0.  1.
<mgrwt>
<rscale>  0 0.22657182E+04</rscale>
<asrwt>0</asrwt>
<pdfrwt beam="1">  1        2 0.29228587E+00 0.22657182E+04</pdfrwt>
<pdfrwt beam="2">  1       -2 0.89608233E-01 0.22657182E+04</pdfrwt>
<totfact> 0.74087489E+00</totfact>
</mgrwt>
</event>
<event>
 8    2  0.7266322E-052  0.1905128E+04  0.7818608E-02  0.8652308E-01
          2   -1    0    0  501    0  0.00000000000E+00  0.00000000000E+00  0.84798968556E+03  0.84798968556E+03  0.25500000000E-02 0.  1.
         -2   -1    0    0    0  501 -0.00000000000E+00 -0.00000000000E+00 -0.10700345098E+04  0.10700345098E+04  0.25500000000E-02 0. -1.
    -200001    2    1    2    0    0 -0.40759174185E+03 -0.27403827121E+03 -0.65157817594E+03  0.10227611601E+04  0.61665084866E+03 0.  0.
   -5000001    2    3    3    0    0 -0.53985969789E+03 -0.26546137325E+03 -0.44788080158E+03  0.75958442160E+03  0.12022082604E+03 0.  0.
     200001    1    1    2    0    0  0.40759174185E+03  0.27403827121E+03  0.42953335168E+03  0.89526303527E+03  0.61300000000E+03 0.  1.
         11    1    4    4    0    0 -0.33918406152E+02 -0.20691943298E+01 -0.60621761591E+02  0.69496315152E+02  0.51100000000E-03 0.  1.
    -200002    1    4    4    0    0 -0.50594129174E+03 -0.26339217892E+03 -0.38725903999E+03  0.69008810645E+03  0.30000000000E+02 0.  1.
    -200000    1    3    3    0    0  0.13226795604E+03 -0.85768979585E+01 -0.20369737435E+03  0.26317673851E+03  0.10100000000E+03 0. -1.
<mgrwt>
<rscale>  0 0.19051281E+04</rscale>
<asrwt>0</asrwt>
<pdfrwt beam="1">  1        2 0.12114138E+00 0.19051281E+04</pdfrwt>
<pdfrwt beam="2">  1       -2 0.15286207E+00 0.19051281E+04</pdfrwt>
<totfact> 0.94240148E+00</totfact>
</mgrwt>
</event>
<event>
 8    2  0.7266322E-052  0.1833585E+04  0.7818608E-02  0.8688641E-01
         -2   -1    0    0    0  501 -0.00000000000E+00  0.00000000000E+00  0.40921353398E+03  0.40921353399E+03  0.25500000000E-02 0. -1.
          2   -1    0    0  501    0  0.00000000000E+00 -0.00000000000E+00 -0.20539601609E+04  0.20539601609E+04  0.25500000000E-02 0.  1.
    -200001    2    1    2    0    0 -0.47581287011E+03  0.22986334051E+03 -0.14009235223E+04  0.16179200353E+04  0.61306074966E+03 0.  0.
   -5000001    2    3    3    0    0  0.88186523989E+02  0.18939166164E+03 -0.52421350738E+03  0.56980042213E+03  0.78909158099E+02 0.  0.
     200001    1    1    2    0    0  0.47581287011E+03 -0.22986334051E+03 -0.24382310466E+03  0.84525365958E+03  0.61300000000E+03 0.  1.
         11    1    4    4    0    0  0.18405992145E+02  0.90894739571E+02 -0.29199307995E+03  0.30636676218E+03  0.51100000000E-03 0.  1.
    -200002    1    4    4    0    0  0.69780531845E+02  0.98496922073E+02 -0.23222042742E+03  0.26343365995E+03  0.30000000000E+02 0.  1.
    -200000    1    3    3    0    0 -0.56399939410E+03  0.40471678862E+02 -0.87671001489E+03  0.10481196132E+04  0.10100000000E+03 0. -1.
<mgrwt>
<rscale>  0 0.18335848E+04</rscale>
<asrwt>0</asrwt>
<pdfrwt beam="1">  1        2 0.29342287E+00 0.18335848E+04</pdfrwt>
<pdfrwt beam="2">  1       -2 0.58459077E-01 0.18335848E+04</pdfrwt>
<totfact> 0.19442517E+01</totfact>
</mgrwt>
</event>
<event>
 8    2  0.7266322E-052  0.1604673E+04  0.7818608E-02  0.8817682E-01
          2   -1    0    0  501    0  0.00000000000E+00  0.00000000000E+00  0.34430450820E+04  0.34430450820E+04  0.25500000000E-02 0.  1.
         -2   -1    0    0    0  501 -0.00000000000E+00 -0.00000000000E+00 -0.18696939092E+03  0.18696939094E+03  0.25500000000E-02 0. -1.
    -200001    2    1    2    0    0 -0.80719891067E+02  0.43074659501E+03  0.22518200403E+04  0.23744840106E+04  0.61271730220E+03 0.  0.
   -5000001    2    3    3    0    0 -0.31145881061E+03  0.36476499394E+03  0.12761148472E+04  0.13646346928E+04  0.60816527629E+02 0.  0.
     200001    1    1    2    0    0  0.80719891067E+02 -0.43074659501E+03  0.10042556508E+04  0.12555304624E+04  0.61300000000E+03 0. -1.
         11    1    4    4    0    0 -0.20777790985E+02  0.45682707915E+02  0.11274430253E+03  0.12340949782E+03  0.51100000000E-03 0.  1.
    -200002    1    4    4    0    0 -0.29068101962E+03  0.31908228603E+03  0.11633705447E+04  0.12412251950E+04  0.30000000000E+02 0.  1.
    -200000    1    3    3    0    0  0.23073891954E+03  0.65981601063E+02  0.97570519314E+03  0.10098493178E+04  0.10100000000E+03 0.  1.
<mgrwt>
<rscale>  0 0.16046732E+04</rscale>
<asrwt>0</asrwt>
<pdfrwt beam="1">  1        2 0.49186355E+00 0.16046732E+04</pdfrwt>
<pdfrwt beam="2">  1       -2 0.26709915E-01 0.16046732E+04</pdfrwt>
<totfact> 0.16024137E+01</totfact>
</mgrwt>
</event>
<event>
 8    2  0.7266322E-052  0.2225263E+04  0.7818608E-02  0.8507986E-01
          2   -1    0    0  501    0  0.00000000000E+00  0.00000000000E+00  0.46463707356E+04  0.46463707356E+04  0.25500000000E-02 0.  1.
         -2   -1    0    0    0  501 -0.00000000000E+00 -0.00000000000E+00 -0.26643353792E+03  0.26643353793E+03  0.25500000000E-02 0. -1.
    -200001    2    1    2    0    0 -0.53246963495E+03 -0.73501053508E+03  0.26294022946E+04  0.28478815521E+04  0.61066235249E+03 0.  0.
   -5000001    2    3    3    0    0 -0.35156978554E+03 -0.62960461267E+03  0.12114494622E+04  0.14110007640E+04  0.57533244716E+02 0.  0.
     200001    1    1    2    0    0  0.53246963495E+03  0.73501053508E+03  0.17505349030E+04  0.20649227214E+04  0.61300000000E+03 0. -1.
         11    1    4    4    0    0 -0.22895732804E+03 -0.38770672831E+03  0.77349272847E+03  0.89500221577E+03  0.51100000000E-03 0.  1.
    -200002    1    4    4    0    0 -0.12261245750E+03 -0.24189788436E+03  0.43795673373E+03  0.51599854826E+03  0.30000000000E+02 0. -1.
    -200000    1    3    3    0    0 -0.18089984941E+03 -0.10540592241E+03  0.14179528324E+04  0.14368807880E+04  0.10100000000E+03 0.  1.
<mgrwt>
<rscale>  0 0.22252631E+04</rscale>
<asrwt>0</asrwt>
<pdfrwt beam="1">  1        2 0.66376721E+00 0.22252631E+04</pdfrwt>
<pdfrwt beam="2">  1       -2 0.38061936E-01 0.22252631E+04</pdfrwt>
<totfact> 0.11076165E+00</totfact>
</mgrwt>
</event>
<event>
 8    2  0.7266322E-052  0.1448456E+04  0.7818608E-02  0.8919472E-01
          2   -1    0    0  501    0  0.00000000000E+00  0.00000000000E+00  0.11670924414E+04  0.11670924414E+04  0.25500000000E-02 0.  1.
         -2   -1    0    0    0  501 -0.00000000000E+00 -0.00000000000E+00 -0.44941272873E+03  0.44941272874E+03  0.25500000000E-02 0. -1.
    -200001    2    1    2    0    0 -0.35789512421E+03  0.14045758487E+03  0.33706595446E+03  0.79891536711E+03  0.61386892173E+03 0.  0.
   -5000001    2    3    3    0    0 -0.39998252337E+03  0.18865458997E+03  0.44698387105E+03  0.63650462591E+03  0.98828055230E+02 0.  0.
     200001    1    1    2    0    0  0.35789512421E+03 -0.14045758487E+03  0.38061375821E+03  0.81758980303E+03  0.61300000000E+03 0.  1.
         11    1    4    4    0    0 -0.62897839237E+02 -0.51520826747E+01  0.65779246011E+02  0.91156959924E+02  0.51100000000E-03 0.  1.
    -200002    1    4    4    0    0 -0.33708468414E+03  0.19380667265E+03  0.38120462504E+03  0.54534766599E+03  0.30000000000E+02 0.  1.
    -200000    1    3    3    0    0  0.42087399164E+02 -0.48197005108E+02 -0.10991791659E+03  0.16241074120E+03  0.10100000000E+03 0. -1.
<mgrwt>
<rscale>  0 0.14484560E+04</rscale>
<asrwt>0</asrwt>
<pdfrwt beam="1">  1        2 0.16672749E+00 0.14484560E+04</pdfrwt>
<pdfrwt beam="2">  1       -2 0.64201819E-01 0.14484560E+04</pdfrwt>
<totfact> 0.48610396E+01</totfact>
</mgrwt>
</event>
<event>
 8    2  0.7266322E-052  0.1390446E+04  0.7818608E-02  0.8960764E-01
         -2   -1    0    0    0  501 -0.00000000000E+00  0.00000000000E+00  0.21809436261E+03  0.21809436263E+03  0.25500000000E-02 0. -1.
          2   -1    0    0  501    0  0.00000000000E+00 -0.00000000000E+00 -0.22161728944E+04  0.22161728944E+04  0.25500000000E-02 0.  1.
    -200001    2    1    2    0    0  0.24211986943E+03 -0.20748095076E+03 -0.11256028408E+04  0.13213192765E+04  0.61419255855E+03 0.  0.
   -5000001    2    3    3    0    0  0.80358095233E+02 -0.26316963540E+03 -0.14690741070E+03  0.32266325653E+03  0.82547618564E+02 0.  0.
     200001    1    1    2    0    0 -0.24211986943E+03  0.20748095076E+03 -0.87247569093E+03  0.11129479805E+04  0.61300000000E+03 0. -1.
         11    1    4    4    0    0  0.76217878710E+02 -0.21352786486E+03 -0.99319801486E+02  0.24752320512E+03  0.51100000000E-03 0.  1.
    -200002    1    4    4    0    0  0.41402165222E+01 -0.49641770549E+02 -0.47587609212E+02  0.75140051415E+02  0.30000000000E+02 0.  1.
    -200000    1    3    3    0    0  0.16176177420E+03  0.55688684640E+02 -0.97869543015E+03  0.99865601995E+03  0.10100000000E+03 0.  1.
<mgrwt>
<rscale>  0 0.13904457E+04</rscale>
<asrwt>0</asrwt>
<pdfrwt beam="1">  1        2 0.31659611E+00 0.13904457E+04</pdfrwt>
<pdfrwt beam="2">  1       -2 0.31156339E-01 0.13904457E+04</pdfrwt>
<totfact> 0.57819299E+01</totfact>
</mgrwt>
</event>
<event>
 8    2  0.7266322E-052  0.1543085E+04  0.7818608E-02  0.8856297E-01
         -2   -1    0    0    0  501 -0.00000000000E+00  0.00000000000E+00  0.15955466803E+03  0.15955466805E+03  0.25500000000E-02 0. -1.
          2   -1    0    0  501    0  0.00000000000E+00 -0.00000000000E+00 -0.37308709227E+04  0.37308709227E+04  0.25500000000E-02 0.  1.
    -200001    2    1    2    0    0  0.26855637532E+01  0.45764666185E+03 -0.15361847983E+04  0.17162644366E+04  0.61339400273E+03 0.  0.
   -5000001    2    3    3    0    0  0.10064054513E+03 -0.60510976926E+02 -0.74602973083E+03  0.76094849537E+03  0.93231730976E+02 0.  0.
     200001    1    1    2    0    0 -0.26855637532E+01 -0.45764666185E+03 -0.20351314564E+04  0.21741611542E+04  0.61300000000E+03 0.  1.
         11    1    4    4    0    0 -0.91172562942E+01 -0.23327458636E+02 -0.22263396428E+03  0.22403833765E+03  0.51100000000E-03 0.  1.
    -200002    1    4    4    0    0  0.10975780143E+03 -0.37183518290E+02 -0.52339576656E+03  0.53691015771E+03  0.30000000000E+02 0.  1.
    -200000    1    3    3    0    0 -0.97954981378E+02  0.51815763878E+03 -0.79015506742E+03  0.95531594123E+03  0.10100000000E+03 0.  1.
<mgrwt>
<rscale>  0 0.15430851E+04</rscale>
<asrwt>0</asrwt>
<pdfrwt beam="1">  1        2 0.53298151E+00 0.15430851E+04</pdfrwt>
<pdfrwt beam="2">  1       -2 0.22793526E-01 0.15430851E+04</pdfrwt>
<totfact> 0.14248130E+01</totfact>
</mgrwt>
</event>
<event>
 8    2  0.7266322E-052  0.1343248E+04  0.7818608E-02  0.8995955E-01
         -2   -1    0    0    0  501 -0.00000000000E+00  0.00000000000E+00  0.18980374488E+04  0.18980374488E+04  0.25500000000E-02 0. -1.
          2   -1    0    0  501    0  0.00000000000E+00 -0.00000000000E+00 -0.23765527867E+03  0.23765527868E+03  0.25500000000E-02 0.  1.
    -200001    2    1    2    0    0 -0.13749824134E+03  0.23788142105E+03  0.82446403150E+03  0.10633021870E+04  0.61268039364E+03 0.  0.
   -5000001    2    3    3    0    0  0.18529048111E+03  0.26324018512E+03  0.45454925489E+03  0.56143211594E+03  0.70448834154E+02 0.  0.
     200001    1    1    2    0    0  0.13749824134E+03 -0.23788142105E+03  0.83591813859E+03  0.10723905405E+04  0.61300000000E+03 0. -1.
         11    1    4    4    0    0  0.40371268854E+02  0.95636293574E+02  0.11549051609E+03  0.15528747311E+03  0.51100000000E-03 0.  1.
    -200002    1    4    4    0    0  0.14491921226E+03  0.16760389155E+03  0.33905873880E+03  0.40614464283E+03  0.30000000000E+02 0.  1.
    -200000    1    3    3    0    0 -0.32278872245E+03 -0.25358764068E+02  0.36991477661E+03  0.50187007104E+03  0.10100000000E+03 0.  1.
<mgrwt>
<rscale>  0 0.13432477E+04</rscale>
<asrwt>0</asrwt>
<pdfrwt beam="1">  1        2 0.33950754E-01 0.13432477E+04</pdfrwt>
<pdfrwt beam="2">  1       -2 0.27114821E+00 0.13432477E+04</pdfrwt>
<totfact> 0.72498235E+00</totfact>
</mgrwt>
</event>
<event>
 8    2  0.7266322E-052  0.1489509E+04  0.7818608E-02  0.8891459E-01
         -2   -1    0    0    0  501 -0.00000000000E+00  0.00000000000E+00  0.12132429204E+04  0.12132429204E+04  0.25500000000E-02 0. -1.
          2   -1    0    0  501    0  0.00000000000E+00 -0.00000000000E+00 -0.45717092277E+03  0.45717092278E+03  0.25500000000E-02 0.  1.
    -200001    2    1    2    0    0  0.33879150720E+03  0.46237203967E+02  0.97743739372E+02  0.70808195657E+03  0.61229784766E+03 0.  0.
   -5000001    2    3    3    0    0  0.37783939150E+03  0.24410040538E+03  0.19368688268E+02  0.46929704838E+03  0.13235165228E+03 0.  0.
     200001    1    1    2    0    0 -0.33879150720E+03 -0.46237203967E+02  0.65832825829E+03  0.96233188664E+03  0.61300000000E+03 0. -1.
         11    1    4    4    0    0  0.30586777418E+03  0.13409978097E+03  0.96126320890E+01  0.33411113306E+03  0.51100000000E-03 0.  1.
    -200002    1    4    4    0    0  0.71971617320E+02  0.11000062441E+03  0.97560561786E+01  0.13518591532E+03  0.30000000000E+02 0. -1.
    -200000    1    3    3    0    0 -0.39047884301E+02 -0.19786320141E+03  0.78375051105E+02  0.23878490819E+03  0.10100000000E+03 0. -1.
<mgrwt>
<rscale>  0 0.14895092E+04</rscale>
<asrwt>0</asrwt>
<pdfrwt beam="1">  1        2 0.65310132E-01 0.14895092E+04</pdfrwt>
<pdfrwt beam="2">  1       -2 0.17332042E+00 0.14895092E+04</pdfrwt>
<totfact> 0.14533752E+01</totfact>
</mgrwt>
</event>
<event>
 8    2  0.7266322E-052  0.1576186E+04  0.7818608E-02  0.8835313E-01
         -2   -1    0    0    0  501 -0.00000000000E+00  0.00000000000E+00  0.20028633294E+04  0.20028633294E+04  0.25500000000E-02 0. -1.
          2   -1    0    0  501    0  0.00000000000E+00 -0.00000000000E+00 -0.31010144985E+03  0.31010144986E+03  0.25500000000E-02 0.  1.
    -200001    2    1    2    0    0  0.49517831516E+03 -0.24765581465E+02  0.85421169494E+03  0.11619867995E+04  0.61214443111E+03 0.  0.
   -5000001    2    3    3    0    0  0.60088736899E+03 -0.22563606410E+02  0.53310724299E+03  0.80915777315E+03  0.94647888342E+02 0.  0.
     200001    1    1    2    0    0 -0.49517831516E+03  0.24765581465E+02  0.83855018458E+03  0.11509779798E+04  0.61300000000E+03 0.  1.
         11    1    4    4    0    0  0.44266689990E+03  0.89282219698E+00  0.35106646145E+03  0.56498003660E+03  0.51100000000E-03 0.  1.
    -200002    1    4    4    0    0  0.15822046909E+03 -0.23456428607E+02  0.18204078154E+03  0.24417773655E+03  0.30000000000E+02 0.  1.
    -200000    1    3    3    0    0 -0.10570905383E+03 -0.22019750548E+01  0.32110445195E+03  0.35282902633E+03  0.10100000000E+03 0. -1.
<mgrwt>
<rscale>  0 0.15761863E+04</rscale>
<asrwt>0</asrwt>
<pdfrwt beam="1">  1        2 0.44300208E-01 0.15761863E+04</pdfrwt>
<pdfrwt beam="2">  1       -2 0.28612333E+00 0.15761863E+04</pdfrwt>
<totfact> 0.42856831E+00</totfact>
</mgrwt>
</event>
<event>
 8    2  0.7266322E-052  0.1460011E+04  0.7818608E-02  0.8911489E-01
         -2   -1    0    0    0  501 -0.00000000000E+00  0.00000000000E+00  0.19674977078E+03  0.19674977080E+03  0.25500000000E-02 0. -1.
          2   -1    0    0  501    0  0.00000000000E+00 -0.00000000000E+00 -0.27085571517E+04  0.27085571517E+04  0.25500000000E-02 0.  1.
    -200001    2    1    2    0    0 -0.19540724030E+01 -0.39709588276E+03 -0.12443739520E+04  0.14424858619E+04  0.61205389546E+03 0.  0.
   -5000001    2    3    3    0    0 -0.23344436892E+03 -0.88941228970E+02 -0.20719651825E+03  0.33141202230E+03  0.67057555552E+02 0.  0.
     200001    1    1    2    0    0  0.19540724030E+01  0.39709588276E+03 -0.12674334289E+04  0.14628210606E+04  0.61300000000E+03 0. -1.
         11    1    4    4    0    0 -0.13200966998E+03 -0.64097255621E+02 -0.14457354854E+03  0.20600126719E+03  0.51100000000E-03 0.  1.
    -200002    1    4    4    0    0 -0.10143469895E+03 -0.24843973350E+02 -0.62622969714E+02  0.12541075511E+03  0.30000000000E+02 0.  1.
    -200000    1    3    3    0    0  0.23149029652E+03 -0.30815465379E+03 -0.10371774337E+04  0.11110738396E+04  0.10100000000E+03 0.  1.
<mgrwt>
<rscale>  0 0.14600110E+04</rscale>
<asrwt>0</asrwt>
<pdfrwt beam="1">  1        2 0.38693671E+00 0.14600110E+04</pdfrwt>
<pdfrwt beam="2">  1       -2 0.28107112E-01 0.14600110E+04</pdfrwt>
<totfact> 0.38433407E+01</totfact>
</mgrwt>
</event>
<event>
 8    2  0.7266322E-052  0.1619338E+04  0.7818608E-02  0.8808755E-01
         -2   -1    0    0    0  501 -0.00000000000E+00  0.00000000000E+00  0.18219860511E+03  0.18219860512E+03  0.25500000000E-02 0. -1.
          2   -1    0    0  501    0  0.00000000000E+00 -0.00000000000E+00 -0.35980724412E+04  0.35980724412E+04  0.25500000000E-02 0.  1.
    -200001    2    1    2    0    0  0.44626397954E+03  0.18669017010E+03 -0.12072796469E+04  0.14376951027E+04  0.61273020449E+03 0.  0.
   -5000001    2    3    3    0    0  0.47902485100E+03  0.25421637438E+03 -0.11861591874E+04  0.13101014635E+04  0.12369904509E+03 0.  0.
     200001    1    1    2    0    0 -0.44626397954E+03 -0.18669017010E+03 -0.22085941892E+04  0.23425759437E+04  0.61300000000E+03 0.  1.
         11    1    4    4    0    0  0.72458667053E+02  0.88947915988E+02 -0.28774008700E+03  0.30976821634E+03  0.51100000000E-03 0.  1.
    -200002    1    4    4    0    0  0.40656618394E+03  0.16526845839E+03 -0.89841910045E+03  0.10003332471E+04  0.30000000000E+02 0.  1.
    -200000    1    3    3    0    0 -0.32760871453E+02 -0.67526204274E+02 -0.21120459425E+02  0.12759363922E+03  0.10100000000E+03 0. -1.
<mgrwt>
<rscale>  0 0.16193379E+04</rscale>
<asrwt>0</asrwt>
<pdfrwt beam="1">  1        2 0.51401030E+00 0.16193379E+04</pdfrwt>
<pdfrwt beam="2">  1       -2 0.26028374E-01 0.16193379E+04</pdfrwt>
<totfact> 0.13490023E+01</totfact>
</mgrwt>
</event>
<event>
 8    2  0.7266322E-052  0.1629237E+04  0.7818608E-02  0.8802785E-01
          2   -1    0    0  501    0  0.00000000000E+00  0.00000000000E+00  0.15945731838E+04  0.15945731838E+04  0.25500000000E-02 0.  1.
         -2   -1    0    0    0  501 -0.00000000000E+00 -0.00000000000E+00 -0.41616339238E+03  0.41616339239E+03  0.25500000000E-02 0. -1.
    -200001    2    1    2    0    0  0.26244363557E+03 -0.41675094014E+03  0.85127435798E+03  0.11590649260E+04  0.61335590166E+03 0.  0.
   -5000001    2    3    3    0    0  0.19753877869E+03  0.13944419699E+02  0.21724628550E+02  0.21669297869E+03  0.85251812880E+02 0.  0.
     200001    1    1    2    0    0 -0.26244363557E+03  0.41675094014E+03  0.32713543344E+03  0.85167165021E+03  0.61300000000E+03 0. -1.
         11    1    4    4    0    0  0.19462237262E+01  0.82761375871E+01  0.16617448038E+02  0.18666060637E+02  0.51100000000E-03 0.  1.
    -200002    1    4    4    0    0  0.19559255496E+03  0.56682821116E+01  0.51071805125E+01  0.19802691805E+03  0.30000000000E+02 0.  1.
    -200000    1    3    3    0    0  0.64904856882E+02 -0.43069535984E+03  0.82954972943E+03  0.94237194728E+03  0.10100000000E+03 0.  1.
<mgrwt>
<rscale>  0 0.16292366E+04</rscale>
<asrwt>0</asrwt>
<pdfrwt beam="1">  1        2 0.22779617E+00 0.16292366E+04</pdfrwt>
<pdfrwt beam="2">  1       -2 0.59451912E-01 0.16292366E+04</pdfrwt>
<totfact> 0.32977930E+01</totfact>
</mgrwt>
</event>
<event>
 8    2  0.7266322E-052  0.1244701E+04  0.7818608E-02  0.9074605E-01
         -2   -1    0    0    0  501 -0.00000000000E+00  0.00000000000E+00  0.16287372971E+04  0.16287372971E+04  0.25500000000E-02 0. -1.
          2   -1    0    0  501    0  0.00000000000E+00 -0.00000000000E+00 -0.23780390274E+03  0.23780390276E+03  0.25500000000E-02 0.  1.
    -200001    2    1    2    0    0  0.92693242999E+02 -0.51326494420E+01  0.78060083309E+03  0.99654509831E+03  0.61249170684E+03 0.  0.
   -5000001    2    3    3    0    0  0.32842778068E+03 -0.55961692712E+02  0.36804112147E+03  0.50811815438E+03  0.10832023610E+03 0.  0.
     200001    1    1    2    0    0 -0.92693242999E+02  0.51326494420E+01  0.61033256127E+03  0.86999610157E+03  0.61300000000E+03 0.  1.
         11    1    4    4    0    0  0.27955717092E+03 -0.62253794836E+02  0.33816874115E+03  0.44315442486E+03  0.51100000000E-03 0.  1.
    -200002    1    4    4    0    0  0.48870609761E+02  0.62921021240E+01  0.29872380323E+02  0.64963729524E+02  0.30000000000E+02 0.  1.
    -200000    1    3    3    0    0 -0.23573453768E+03  0.50829043270E+02  0.41255971163E+03  0.48842694393E+03  0.10100000000E+03 0. -1.
<mgrwt>
<rscale>  0 0.12447009E+04</rscale>
<asrwt>0</asrwt>
<pdfrwt beam="1">  1        2 0.33971988E-01 0.12447009E+04</pdfrwt>
<pdfrwt beam="2">  1       -2 0.23267674E+00 0.12447009E+04</pdfrwt>
<totfact> 0.12551742E+01</totfact>
</mgrwt>
</event>
<event>
 8    2  0.7266322E-052  0.1621761E+04  0.7818608E-02  0.8807290E-01
         -2   -1    0    0    0  501 -0.00000000000E+00  0.00000000000E+00  0.12665817171E+04  0.12665817171E+04  0.25500000000E-02 0. -1.
          2   -1    0    0  501    0  0.00000000000E+00 -0.00000000000E+00 -0.51913543119E+03  0.51913543120E+03  0.25500000000E-02 0.  1.
    -200001    2    1    2    0    0 -0.39626711604E+03 -0.11645156319E+03  0.76161922881E+01  0.73991307428E+03  0.61386053569E+03 0.  0.
   -5000001    2    3    3    0    0 -0.73881468962E+02  0.22470439096E+03 -0.50842365740E+02  0.25624139483E+03  0.84404807335E+02 0.  0.
     200001    1    1    2    0    0  0.39626711604E+03  0.11645156319E+03  0.73983009364E+03  0.10458040740E+04  0.61300000000E+03 0. -1.
         11    1    4    4    0    0  0.37431841739E+01  0.10309765043E+03 -0.29853129768E+02  0.10739807405E+03  0.51100000000E-03 0.  1.
    -200002    1    4    4    0    0 -0.77624653136E+02  0.12160674053E+03 -0.20989235972E+02  0.14884332079E+03  0.30000000000E+02 0.  1.
    -200000    1    3    3    0    0 -0.32238564708E+03 -0.34115595415E+03  0.58458558028E+02  0.48367167945E+03  0.10100000000E+03 0.  1.
<mgrwt>
<rscale>  0 0.16217613E+04</rscale>
<asrwt>0</asrwt>
<pdfrwt beam="1">  1        2 0.74162207E-01 0.16217613E+04</pdfrwt>
<pdfrwt beam="2">  1       -2 0.18094024E+00 0.16217613E+04</pdfrwt>
<totfact> 0.11011232E+01</totfact>
</mgrwt>
</event>
<event>
 8    2  0.7266322E-052  0.1333582E+04  0.7818608E-02  0.9003350E-01
         -2   -1    0    0    0  501 -0.00000000000E+00  0.00000000000E+00  0.14040581609E+03  0.14040581611E+03  0.25500000000E-02 0.  1.
          2   -1    0    0  501    0  0.00000000000E+00 -0.00000000000E+00 -0.31666091576E+04  0.31666091576E+04  0.25500000000E-02 0. -1.
    -200001    2    1    2    0    0  0.25586651623E+03  0.56651341358E+02 -0.15173713432E+04  0.16574635051E+04  0.61326375145E+03 0.  0.
   -5000001    2    3    3    0    0 -0.47218352012E+02 -0.12936878715E+03 -0.96449165507E+03  0.99237638662E+03  0.18868196568E+03 0.  0.
     200001    1    1    2    0    0 -0.25586651623E+03 -0.56651341358E+02 -0.15088319983E+04  0.16495514687E+04  0.61300000000E+03 0. -1.
         11    1    4    4    0    0 -0.61339714616E+02  0.31726397887E+02 -0.27469829559E+03  0.28324596822E+03  0.51100000000E-03 0.  1.
    -200002    1    4    4    0    0  0.14121362604E+02 -0.16109518504E+03 -0.68979335947E+03  0.70913041840E+03  0.30000000000E+02 0.  1.
    -200000    1    3    3    0    0  0.30308486824E+03  0.18602012851E+03 -0.55287968815E+03  0.66508711846E+03  0.10100000000E+03 0.  1.
<mgrwt>
<rscale>  0 0.13335822E+04</rscale>
<asrwt>0</asrwt>
<pdfrwt beam="1">  1        2 0.45237269E+00 0.13335822E+04</pdfrwt>
<pdfrwt beam="2">  1       -2 0.20057976E-01 0.13335822E+04</pdfrwt>
<totfact> 0.39869511E+01</totfact>
</mgrwt>
</event>
<event>
 8    2  0.7266322E-052  0.1423294E+04  0.7818608E-02  0.8937128E-01
          2   -1    0    0  501    0  0.00000000000E+00  0.00000000000E+00  0.28549785770E+03  0.28549785771E+03  0.25500000000E-02 0. -1.
         -2   -1    0    0    0  501 -0.00000000000E+00 -0.00000000000E+00 -0.17738881780E+04  0.17738881780E+04  0.25500000000E-02 0.  1.
    -200001    2    1    2    0    0 -0.10273933852E+03  0.11069364491E+03 -0.12196183361E+04  0.13732258254E+04  0.61275755973E+03 0.  0.
   -5000001    2    3    3    0    0  0.12141583867E+02  0.31325547604E+03 -0.40191211176E+03  0.51702877381E+03  0.86654463478E+02 0.  0.
     200001    1    1    2    0    0  0.10273933852E+03 -0.11069364491E+03 -0.26877198412E+03  0.68616021027E+03  0.61300000000E+03 0. -1.
         11    1    4    4    0    0  0.46390230146E+01  0.11253837786E+03 -0.87045060508E+02  0.14234904139E+03  0.51100000000E-03 0.  1.
    -200002    1    4    4    0    0  0.75025608526E+01  0.20071709818E+03 -0.31486705125E+03  0.37467973242E+03  0.30000000000E+02 0.  1.
    -200000    1    3    3    0    0 -0.11488092239E+03 -0.20256183113E+03 -0.81770622439E+03  0.85619705160E+03  0.10100000000E+03 0.  1.
<mgrwt>
<rscale>  0 0.14232937E+04</rscale>
<asrwt>0</asrwt>
<pdfrwt beam="1">  1        2 0.40785409E-01 0.14232937E+04</pdfrwt>
<pdfrwt beam="2">  1       -2 0.25341259E+00 0.14232937E+04</pdfrwt>
<totfact> 0.75218476E+00</totfact>
</mgrwt>
</event>
<event>
 8    2  0.7266322E-052  0.1312965E+04  0.7818608E-02  0.9019346E-01
          2   -1    0    0  501    0  0.00000000000E+00  0.00000000000E+00  0.34026338116E+04  0.34026338116E+04  0.25500000000E-02 0.  1.
         -2   -1    0    0    0  501 -0.00000000000E+00 -0.00000000000E+00 -0.12665757398E+03  0.12665757400E+03  0.25500000000E-02 0. -1.
    -200001    2    1    2    0    0  0.14363668444E+03  0.18581155875E+03  0.16834970508E+04  0.18068174692E+04  0.61259253521E+03 0.  0.
   -5000001    2    3    3    0    0  0.21050732575E+03  0.37137673809E+03  0.11596246813E+04  0.12380034591E+04  0.75426437863E+02 0.  0.
     200001    1    1    2    0    0 -0.14363668444E+03 -0.18581155875E+03  0.15924791868E+04  0.17224739165E+04  0.61300000000E+03 0. -1.
         11    1    4    4    0    0  0.15111194671E+03  0.25660805846E+03  0.86680453301E+03  0.91653293152E+03  0.51100000000E-03 0.  1.
    -200002    1    4    4    0    0  0.59395379043E+02  0.11476867963E+03  0.29282014831E+03  0.32147052763E+03  0.30000000000E+02 0. -1.
    -200000    1    3    3    0    0 -0.66870641312E+02 -0.18556517933E+03  0.52387236952E+03  0.56881401002E+03  0.10100000000E+03 0.  1.
<mgrwt>
<rscale>  0 0.13129651E+04</rscale>
<asrwt>0</asrwt>
<pdfrwt beam="1">  1        2 0.48609049E+00 0.13129651E+04</pdfrwt>
<pdfrwt beam="2">  1       -2 0.18093941E-01 0.13129651E+04</pdfrwt>
<totfact> 0.34867680E+01</totfact>
</mgrwt>
</event>
<event>
 8    2  0.7266322E-052  0.1538612E+04  0.7818608E-02  0.8859175E-01
          2   -1    0    0  501    0  0.00000000000E+00  0.00000000000E+00  0.29313677509E+03  0.29313677510E+03  0.25500000000E-02 0. -1.
         -2   -1    0    0    0  501 -0.00000000000E+00 -0.00000000000E+00 -0.20189598068E+04  0.20189598068E+04  0.25500000000E-02 0.  1.
    -200001    2    1    2    0    0 -0.31770436761E+03  0.26870614436E+03 -0.55052949425E+03  0.92277194151E+03  0.61260613348E+03 0.  0.
   -5000001    2    3    3    0    0 -0.23623067559E+03  0.14865928816E+03 -0.65353948184E+03  0.71817167828E+03  0.10369276305E+03 0.  0.
     200001    1    1    2    0    0  0.31770436761E+03 -0.26870614436E+03 -0.11752935375E+04  0.13893246404E+04  0.61300000000E+03 0.  1.
         11    1    4    4    0    0 -0.17063069291E+02 -0.10504524307E+01 -0.67183618978E+01  0.18368129213E+02  0.51100000000E-03 0.  1.
    -200002    1    4    4    0    0 -0.21916760630E+03  0.14970974060E+03 -0.64682111994E+03  0.69980354906E+03  0.30000000000E+02 0.  1.
    -200000    1    3    3    0    0 -0.81473692012E+02  0.12004685620E+03  0.10300998758E+03  0.20460026323E+03  0.10100000000E+03 0. -1.
<mgrwt>
<rscale>  0 0.15386115E+04</rscale>
<asrwt>0</asrwt>
<pdfrwt beam="1">  1        2 0.41876683E-01 0.15386115E+04</pdfrwt>
<pdfrwt beam="2">  1       -2 0.28842282E+00 0.15386115E+04</pdfrwt>
<totfact> 0.44318438E+00</totfact>
</mgrwt>
</event>
<event>
 8    2  0.7266322E-052  0.1261610E+04  0.7818608E-02  0.9060576E-01
          2   -1    0    0  501    0  0.00000000000E+00  0.00000000000E+00  0.18632041179E+04  0.18632041179E+04  0.25500000000E-02 0.  1.
         -2   -1    0    0    0  501 -0.00000000000E+00 -0.00000000000E+00 -0.21356471794E+03  0.21356471796E+03  0.25500000000E-02 0. -1.
    -200001    2    1    2    0    0  0.26956657597E+02 -0.99891318472E+02  0.10012463863E+04  0.11784997019E+04  0.61291295008E+03 0.  0.
   -5000001    2    3    3    0    0  0.14332320790E+03  0.11493074600E+03  0.77247630215E+02  0.21742509778E+03  0.86924441178E+02 0.  0.
     200001    1    1    2    0    0 -0.26956657597E+02  0.99891318472E+02  0.64839301367E+03  0.89826913398E+03  0.61300000000E+03 0. -1.
         11    1    4    4    0    0  0.88973711551E+02  0.10600738672E+03  0.67406936886E+02  0.15394019139E+03  0.51100000000E-03 0.  1.
    -200002    1    4    4    0    0  0.54349496347E+02  0.89233592815E+01  0.98406933288E+01  0.63484906389E+02  0.30000000000E+02 0.  1.
    -200000    1    3    3    0    0 -0.11636655030E+03 -0.21482206447E+03  0.92399875605E+03  0.96107460407E+03  0.10100000000E+03 0.  1.
<mgrwt>
<rscale>  0 0.12616095E+04</rscale>
<asrwt>0</asrwt>
<pdfrwt beam="1">  1        2 0.26617201E+00 0.12616095E+04</pdfrwt>
<pdfrwt beam="2">  1       -2 0.30509246E-01 0.12616095E+04</pdfrwt>
<totfact> 0.92179147E+01</totfact>
</mgrwt>
</event>
<event>
 8    2  0.7266322E-052  0.1546641E+04  0.7818608E-02  0.8854016E-01
         -2   -1    0    0    0  501 -0.00000000000E+00  0.00000000000E+00  0.33341422180E+03  0.33341422181E+03  0.25500000000E-02 0. -1.
          2   -1    0    0  501    0  0.00000000000E+00 -0.00000000000E+00 -0.17936386275E+04  0.17936386275E+04  0.25500000000E-02 0.  1.
    -200001    2    1    2    0    0  0.27011659866E+03 -0.13017376237E+03 -0.23055372210E+03  0.72072174486E+03  0.61349541926E+03 0.  0.
   -5000001    2    3    3    0    0  0.40384589408E+02 -0.21933860774E+03 -0.35397209102E+03  0.42719106586E+03  0.86345964696E+02 0.  0.
     200001    1    1    2    0    0 -0.27011659866E+03  0.13017376237E+03 -0.12296706836E+04  0.14063311045E+04  0.61300000000E+03 0.  1.
         11    1    4    4    0    0  0.56966069501E+02 -0.10776218810E+03 -0.19516107120E+03  0.23009925244E+03  0.51100000000E-03 0.  1.
    -200002    1    4    4    0    0 -0.16581480093E+02 -0.11157641964E+03 -0.15881101982E+03  0.19709181342E+03  0.30000000000E+02 0.  1.
    -200000    1    3    3    0    0  0.22973200925E+03  0.89164845376E+02  0.12341836892E+03  0.29353067900E+03  0.10100000000E+03 0. -1.
<mgrwt>
<rscale>  0 0.15466410E+04</rscale>
<asrwt>0</asrwt>
<pdfrwt beam="1">  1        2 0.25623408E+00 0.15466410E+04</pdfrwt>
<pdfrwt beam="2">  1       -2 0.47630604E-01 0.15466410E+04</pdfrwt>
<totfact> 0.41302169E+01</totfact>
</mgrwt>
</event>
<event>
 8    2  0.7266322E-052  0.2679673E+04  0.7818608E-02  0.8341631E-01
          2   -1    0    0  501    0  0.00000000000E+00  0.00000000000E+00  0.90085779933E+03  0.90085779933E+03  0.25500000000E-02 0.  1.
         -2   -1    0    0    0  501 -0.00000000000E+00 -0.00000000000E+00 -0.19927248168E+04  0.19927248168E+04  0.25500000000E-02 0. -1.
    -200001    2    1    2    0    0  0.40514341316E+03  0.45856179050E+03  0.55281079010E+03  0.10347781101E+04  0.62509668575E+03 0.  0.
   -5000001    2    3    3    0    0  0.38653853290E+03  0.63283922244E+02  0.33229131940E+03  0.57064389280E+03  0.24859613676E+03 0.  0.
     200001    1    1    2    0    0 -0.40514341316E+03 -0.45856179050E+03 -0.16446778075E+04  0.18588045060E+04  0.61300000000E+03 0. -1.
         11    1    4    4    0    0  0.15654261069E+03 -0.85229829356E+02  0.73769382163E+02  0.19290317395E+03  0.51100000000E-03 0.  1.
    -200002    1    4    4    0    0  0.22999592220E+03  0.14851375160E+03  0.25852193724E+03  0.37774071885E+03  0.30000000000E+02 0.  1.
    -200000    1    3    3    0    0  0.18604880264E+02  0.39527786826E+03  0.22051947070E+03  0.46413421729E+03  0.10100000000E+03 0.  1.
<mgrwt>
<rscale>  0 0.26796729E+04</rscale>
<asrwt>0</asrwt>
<pdfrwt beam="1">  1        2 0.12869397E+00 0.26796729E+04</pdfrwt>
<pdfrwt beam="2">  1       -2 0.28467497E+00 0.26796729E+04</pdfrwt>
<totfact> 0.11316353E+00</totfact>
</mgrwt>
</event>
<event>
 8    2  0.7266322E-052  0.1673459E+04  0.7818608E-02  0.8776648E-01
         -2   -1    0    0    0  501 -0.00000000000E+00  0.00000000000E+00  0.56673367489E+03  0.56673367489E+03  0.25500000000E-02 0. -1.
          2   -1    0    0  501    0  0.00000000000E+00 -0.00000000000E+00 -0.12353526184E+04  0.12353526184E+04  0.25500000000E-02 0.  1.
    -200001    2    1    2    0    0  0.93295863989E+02  0.34058048212E+03  0.14719226787E+03  0.72226403215E+03  0.61261781347E+03 0.  0.
   -5000001    2    3    3    0    0  0.31505024173E+02  0.16098010747E+03  0.36859116264E+03  0.41356859476E+03  0.90952602194E+02 0.  0.
     200001    1    1    2    0    0 -0.93295863989E+02 -0.34058048212E+03 -0.81581121138E+03  0.10798222611E+04  0.61300000000E+03 0.  1.
         11    1    4    4    0    0 -0.16617666715E+02  0.11016449633E+03  0.22064683150E+03  0.24717885701E+03  0.51100000000E-03 0.  1.
    -200002    1    4    4    0    0  0.48122690888E+02  0.50815611140E+02  0.14794433114E+03  0.16638973775E+03  0.30000000000E+02 0.  1.
    -200000    1    3    3    0    0  0.61790839816E+02  0.17960037466E+03 -0.22139889477E+03  0.30869543739E+03  0.10100000000E+03 0. -1.
<mgrwt>
<rscale>  0 0.16734586E+04</rscale>
<asrwt>0</asrwt>
<pdfrwt beam="1">  1        2 0.17647894E+00 0.16734586E+04</pdfrwt>
<pdfrwt beam="2">  1       -2 0.80961954E-01 0.16734586E+04</pdfrwt>
<totfact> 0.26249929E+01</totfact>
</mgrwt>
</event>
<event>
 8    2  0.7266322E-052  0.1821449E+04  0.7818608E-02  0.8694976E-01
          2   -1    0    0  501    0  0.00000000000E+00  0.00000000000E+00  0.76908888512E+03  0.76908888512E+03  0.25500000000E-02 0.  1.
         -2   -1    0    0    0  501 -0.00000000000E+00 -0.00000000000E+00 -0.10784438194E+04  0.10784438194E+04  0.25500000000E-02 0. -1.
    -200001    2    1    2    0    0  0.24427158065E+03 -0.62740520011E+03 -0.18062268939E+03  0.92794209938E+03  0.61249170903E+03 0.  0.
   -5000001    2    3    3    0    0  0.63004480582E+01 -0.57850794059E+03  0.38148851363E+02  0.58576789085E+03  0.83411954332E+02 0.  0.
     200001    1    1    2    0    0 -0.24427158065E+03  0.62740520011E+03 -0.12873224491E+03  0.91959060517E+03  0.61300000000E+03 0.  1.
         11    1    4    4    0    0 -0.28833846457E+01 -0.48525015492E+03  0.43666286712E+02  0.48721942834E+03  0.51100000000E-03 0.  1.
    -200002    1    4    4    0    0  0.91838327039E+01 -0.93257785668E+02 -0.55174353494E+01  0.98548462513E+02  0.30000000000E+02 0. -1.
    -200000    1    3    3    0    0  0.23797113259E+03 -0.48897259526E+02 -0.21877154076E+03  0.34217420852E+03  0.10100000000E+03 0. -1.
<mgrwt>
<rscale>  0 0.18214490E+04</rscale>
<asrwt>0</asrwt>
<pdfrwt beam="1">  1        2 0.10986984E+00 0.18214490E+04</pdfrwt>
<pdfrwt beam="2">  1       -2 0.15406340E+00 0.18214490E+04</pdfrwt>
<totfact> 0.10543379E+01</totfact>
</mgrwt>
</event>
<event>
 8    2  0.7266322E-052  0.1534055E+04  0.7818608E-02  0.8862118E-01
         -2   -1    0    0    0  501 -0.00000000000E+00  0.00000000000E+00  0.24046352771E+03  0.24046352772E+03  0.25500000000E-02 0. -1.
          2   -1    0    0  501    0  0.00000000000E+00 -0.00000000000E+00 -0.24466530615E+04  0.24466530615E+04  0.25500000000E-02 0.  1.
    -200001    2    1    2    0    0 -0.45881275570E+03 -0.10530688046E+02 -0.10371167746E+04  0.12895758362E+04  0.61381967456E+03 0.  0.
   -5000001    2    3    3    0    0 -0.24411527444E+03 -0.15312286259E+03 -0.95619150956E+03  0.10011708514E+04  0.70724765858E+02 0.  0.
     200001    1    1    2    0    0  0.45881275570E+03  0.10530688046E+02 -0.11690727592E+04  0.13975407531E+04  0.61300000000E+03 0. -1.
         11    1    4    4    0    0 -0.82648590954E+02 -0.19376603574E+02 -0.26757718088E+03  0.28072012768E+03  0.51100000000E-03 0.  1.
    -200002    1    4    4    0    0 -0.16146668348E+03 -0.13374625902E+03 -0.68861432868E+03  0.72045072374E+03  0.30000000000E+02 0. -1.
    -200000    1    3    3    0    0 -0.21469748127E+03  0.14259217455E+03 -0.80925265031E+02  0.28840498474E+03  0.10100000000E+03 0. -1.
<mgrwt>
<rscale>  0 0.15340545E+04</rscale>
<asrwt>0</asrwt>
<pdfrwt beam="1">  1        2 0.34952185E+00 0.15340545E+04</pdfrwt>
<pdfrwt beam="2">  1       -2 0.34351934E-01 0.15340545E+04</pdfrwt>
<totfact> 0.36084125E+01</totfact>
</mgrwt>
</event>
<event>
 8    2  0.7266322E-052  0.1424338E+04  0.7818608E-02  0.8936388E-01
         -2   -1    0    0    0  501 -0.00000000000E+00  0.00000000000E+00  0.10928838791E+04  0.10928838791E+04  0.25500000000E-02 0. -1.
          2   -1    0    0  501    0  0.00000000000E+00 -0.00000000000E+00 -0.46407917009E+03  0.46407917009E+03  0.25500000000E-02 0.  1.
    -200001    2    1    2    0    0 -0.23428632702E+03  0.18518043182E+03  0.90519273903E+02  0.68822713706E+03  0.61341745808E+03 0.  0.
   -5000001    2    3    3    0    0  0.94865543724E+02 -0.80091489476E+02  0.15781181245E+03  0.24840963856E+03  0.14624863182E+03 0.  0.
     200001    1    1    2    0    0  0.23428632702E+03 -0.18518043182E+03  0.53828543507E+03  0.86873591209E+03  0.61300000000E+03 0. -1.
         11    1    4    4    0    0  0.81773146194E+02  0.11689689552E+02  0.11592505228E+03  0.14234505270E+03  0.51100000000E-03 0.  1.
    -200002    1    4    4    0    0  0.13092397530E+02 -0.91781179028E+02  0.41886760162E+02  0.10606458586E+03  0.30000000000E+02 0.  1.
    -200000    1    3    3    0    0 -0.32915187075E+03  0.26527192130E+03 -0.67292538544E+02  0.43981749850E+03  0.10100000000E+03 0. -1.
<mgrwt>
<rscale>  0 0.14243379E+04</rscale>
<asrwt>0</asrwt>
<pdfrwt beam="1">  1        2 0.66297025E-01 0.14243379E+04</pdfrwt>
<pdfrwt beam="2">  1       -2 0.15612627E+00 0.14243379E+04</pdfrwt>
<totfact> 0.19141519E+01</totfact>
</mgrwt>
</event>
<event>
 8    2  0.7266322E-052  0.1355454E+04  0.7818608E-02  0.8986709E-01
         -2   -1    0    0    0  501 -0.00000000000E+00  0.00000000000E+00  0.25963377629E+04  0.25963377629E+04  0.25500000000E-02 0. -1.
          2   -1    0    0  501    0  0.00000000000E+00 -0.00000000000E+00 -0.17690849052E+03  0.17690849054E+03  0.25500000000E-02 0.  1.
    -200001    2    1    2    0    0 -0.13446694970E+03 -0.11167157533E+03  0.73745388565E+03  0.97453501957E+03  0.61264048969E+03 0.  0.
   -5000001    2    3    3    0    0  0.85878471488E+02  0.62905702676E+02  0.64937325961E+03  0.66310520835E+03  0.81796379801E+02 0.  0.
     200001    1    1    2    0    0  0.13446694970E+03  0.11167157533E+03  0.16819753867E+04  0.17987112338E+04  0.61300000000E+03 0. -1.
         11    1    4    4    0    0  0.78544346658E+02  0.20175930848E+02  0.41908901581E+03  0.42686284185E+03  0.51100000000E-03 0.  1.
    -200002    1    4    4    0    0  0.73341248307E+01  0.42729771828E+02  0.23028424380E+03  0.23624236650E+03  0.30000000000E+02 0.  1.
    -200000    1    3    3    0    0 -0.22034542119E+03 -0.17457727801E+03  0.88080626042E+02  0.31142981122E+03  0.10100000000E+03 0.  1.
<mgrwt>
<rscale>  0 0.13554545E+04</rscale>
<asrwt>0</asrwt>
<pdfrwt beam="1">  1        2 0.25272643E-01 0.13554545E+04</pdfrwt>
<pdfrwt beam="2">  1       -2 0.37090538E+00 0.13554545E+04</pdfrwt>
<totfact> 0.24560920E+00</totfact>
</mgrwt>
</event>
<event>
 8    2  0.7266322E-052  0.1638831E+04  0.7818608E-02  0.8797041E-01
         -2   -1    0    0    0  501 -0.00000000000E+00  0.00000000000E+00  0.74147866155E+03  0.74147866155E+03  0.25500000000E-02 0. -1.
          2   -1    0    0  501    0  0.00000000000E+00 -0.00000000000E+00 -0.90554470529E+03  0.90554470529E+03  0.25500000000E-02 0.  1.
    -200001    2    1    2    0    0 -0.42708092437E+03 -0.27896540074E+03 -0.27309198683E+03  0.84211624982E+03  0.61185025470E+03 0.  0.
   -5000001    2    3    3    0    0 -0.15149719764E+02 -0.33203282957E+03 -0.13939114288E+03  0.39425423423E+03  0.15978484464E+03 0.  0.
     200001    1    1    2    0    0  0.42708092437E+03  0.27896540074E+03  0.10902594309E+03  0.80490711703E+03  0.61300000000E+03 0.  1.
         11    1    4    4    0    0 -0.83903660453E+01 -0.24517370857E+03 -0.16851332936E+03  0.29761936729E+03  0.51100000000E-03 0.  1.
    -200002    1    4    4    0    0 -0.67593537183E+01 -0.86859121003E+02  0.29122186474E+02  0.96634866943E+02  0.30000000000E+02 0.  1.
    -200000    1    3    3    0    0 -0.41193120461E+03  0.53067428833E+02 -0.13370084395E+03  0.44786201559E+03  0.10100000000E+03 0. -1.
<mgrwt>
<rscale>  0 0.16388314E+04</rscale>
<asrwt>0</asrwt>
<pdfrwt beam="1">  1        2 0.12936353E+00 0.16388314E+04</pdfrwt>
<pdfrwt beam="2">  1       -2 0.10592552E+00 0.16388314E+04</pdfrwt>
<totfact> 0.22248910E+01</totfact>
</mgrwt>
</event>
<event>
 8    2  0.7266322E-052  0.1313402E+04  0.7818608E-02  0.9019004E-01
         -2   -1    0    0    0  501 -0.00000000000E+00  0.00000000000E+00  0.34856956909E+03  0.34856956910E+03  0.25500000000E-02 0. -1.
          2   -1    0    0  501    0  0.00000000000E+00 -0.00000000000E+00 -0.12372171705E+04  0.12372171705E+04  0.25500000000E-02 0.  1.
    -200001    2    1    2    0    0  0.18549459096E+03 -0.53094942125E+01 -0.27508473072E+03  0.69884546180E+03  0.61504222326E+03 0.  0.
   -5000001    2    3    3    0    0 -0.73136914742E+02 -0.11155586953E+03 -0.35795230559E+03  0.39022501047E+03  0.79699343773E+02 0.  0.
     200001    1    1    2    0    0 -0.18549459096E+03  0.53094942125E+01 -0.61356287073E+03  0.88694127785E+03  0.61300000000E+03 0.  1.
         11    1    4    4    0    0 -0.95458092683E+01  0.10601233515E+02 -0.38602585755E+02  0.41154200926E+02  0.51100000000E-03 0.  1.
    -200002    1    4    4    0    0 -0.63591105474E+02 -0.12215710305E+03 -0.31934971983E+03  0.34907080955E+03  0.30000000000E+02 0.  1.
    -200000    1    3    3    0    0  0.25863150570E+03  0.10624637532E+03  0.82867574869E+02  0.30862045132E+03  0.10100000000E+03 0. -1.
<mgrwt>
<rscale>  0 0.13134021E+04</rscale>
<asrwt>0</asrwt>
<pdfrwt beam="1">  1        2 0.17674531E+00 0.13134021E+04</pdfrwt>
<pdfrwt beam="2">  1       -2 0.49795653E-01 0.13134021E+04</pdfrwt>
<totfact> 0.76099834E+01</totfact>
</mgrwt>
</event>
<event>
 8    2  0.7266322E-052  0.1573613E+04  0.7818608E-02  0.8836925E-01
         -2   -1    0    0    0  501 -0.00000000000E+00  0.00000000000E+00  0.23242092967E+03  0.23242092968E+03  0.25500000000E-02 0. -1.
          2   -1    0    0  501    0  0.00000000000E+00 -0.00000000000E+00 -0.26635485009E+04  0.26635485009E+04  0.25500000000E-02 0.  1.
    -200001    2    1    2    0    0  0.14330739981E+03 -0.45641050088E+03 -0.14367635117E+04  0.16336792741E+04  0.61300165255E+03 0.  0.
   -5000001    2    3    3    0    0  0.18791201411E+03  0.83319540240E+02 -0.52932790392E+03  0.57210569159E+03  0.69741104391E+02 0.  0.
     200001    1    1    2    0    0 -0.14330739981E+03  0.45641050088E+03 -0.99436405948E+03  0.12622901564E+04  0.61300000000E+03 0.  1.
         11    1    4    4    0    0  0.11393375271E+03  0.33436934943E+02 -0.34967266106E+03  0.36928295184E+03  0.51100000000E-03 0.  1.
    -200002    1    4    4    0    0  0.73978261403E+02  0.49882605297E+02 -0.17965524286E+03  0.20282273975E+03  0.30000000000E+02 0.  1.
    -200000    1    3    3    0    0 -0.44604614295E+02 -0.53973004112E+03 -0.90743560778E+03  0.10615735825E+04  0.10100000000E+03 0.  1.
<mgrwt>
<rscale>  0 0.15736129E+04</rscale>
<asrwt>0</asrwt>
<pdfrwt beam="1">  1        2 0.38050691E+00 0.15736129E+04</pdfrwt>
<pdfrwt beam="2">  1       -2 0.33202992E-01 0.15736129E+04</pdfrwt>
<totfact> 0.29469175E+01</totfact>
</mgrwt>
</event>
<event>
 8    2  0.7266322E-052  0.1342935E+04  0.7818608E-02  0.8996193E-01
          2   -1    0    0  501    0  0.00000000000E+00  0.00000000000E+00  0.99270730567E+03  0.99270730567E+03  0.25500000000E-02 0.  1.
         -2   -1    0    0    0  501 -0.00000000000E+00 -0.00000000000E+00 -0.45418106695E+03  0.45418106696E+03  0.25500000000E-02 0. -1.
    -200001    2    1    2    0    0  0.27174071839E+03  0.38444410416E+02  0.26994419047E+03  0.72354453505E+03  0.61263842314E+03 0.  0.
   -5000001    2    3    3    0    0  0.12330110818E+02 -0.23038785569E+03  0.21868909430E+03  0.33316941352E+03  0.99731351437E+02 0.  0.
     200001    1    1    2    0    0 -0.27174071839E+03 -0.38444410416E+02  0.26858204825E+03  0.72334383758E+03  0.61300000000E+03 0. -1.
         11    1    4    4    0    0 -0.12422794913E+02 -0.11053303678E+03  0.48335439989E+02  0.12127733841E+03  0.51100000000E-03 0.  1.
    -200002    1    4    4    0    0  0.24752905731E+02 -0.11985481891E+03  0.17035365431E+03  0.21189207511E+03  0.30000000000E+02 0.  1.
    -200000    1    3    3    0    0  0.25941060757E+03  0.26883226611E+03  0.51255096175E+02  0.39037512152E+03  0.10100000000E+03 0. -1.
<mgrwt>
<rscale>  0 0.13429354E+04</rscale>
<asrwt>0</asrwt>
<pdfrwt beam="1">  1        2 0.14181533E+00 0.13429354E+04</pdfrwt>
<pdfrwt beam="2">  1       -2 0.64883010E-01 0.13429354E+04</pdfrwt>
<totfact> 0.60859532E+01</totfact>
</mgrwt>
</event>
<event>
 8    2  0.7266322E-052  0.1589522E+04  0.7818608E-02  0.8827011E-01
         -2   -1    0    0    0  501 -0.00000000000E+00  0.00000000000E+00  0.29381603561E+03  0.29381603562E+03  0.25500000000E-02 0. -1.
          2   -1    0    0  501    0  0.00000000000E+00 -0.00000000000E+00 -0.21497982395E+04  0.21497982395E+04  0.25500000000E-02 0.  1.
    -200001    2    1    2    0    0  0.28781751541E+03  0.87952208306E+02 -0.15537665381E+04  0.16968359802E+04  0.61195373649E+03 0.  0.
   -5000001    2    3    3    0    0  0.45995659592E+03  0.46211266555E+01 -0.10657544268E+04  0.11630450539E+04  0.72524990248E+02 0.  0.
     200001    1    1    2    0    0 -0.28781751541E+03 -0.87952208306E+02 -0.30221566577E+03  0.74677829492E+03  0.61300000000E+03 0. -1.
         11    1    4    4    0    0  0.31858300329E+03 -0.13783392075E+02 -0.69365016167E+03  0.76343674176E+03  0.51100000000E-03 0.  1.
    -200002    1    4    4    0    0  0.14137359263E+03  0.18404518731E+02 -0.37210426511E+03  0.39960831212E+03  0.30000000000E+02 0.  1.
    -200000    1    3    3    0    0 -0.17213908051E+03  0.83331081651E+02 -0.48801211131E+03  0.53379092630E+03  0.10100000000E+03 0.  1.
<mgrwt>
<rscale>  0 0.15895222E+04</rscale>
<asrwt>0</asrwt>
<pdfrwt beam="1">  1        2 0.30711403E+00 0.15895222E+04</pdfrwt>
<pdfrwt beam="2">  1       -2 0.41973721E-01 0.15895222E+04</pdfrwt>
<totfact> 0.34731576E+01</totfact>
</mgrwt>
</event>
<event>
 8    2  0.7266322E-052  0.1957862E+04  0.7818608E-02  0.8626579E-01
          2   -1    0    0  501    0  0.00000000000E+00  0.00000000000E+00  0.10725757691E+04  0.10725757691E+04  0.25500000000E-02 0.  1.
         -2   -1    0    0    0  501 -0.00000000000E+00 -0.00000000000E+00 -0.89346254089E+03  0.89346254089E+03  0.25500000000E-02 0. -1.
    -200001    2    1    2    0    0 -0.70551395677E+03 -0.26831998547E+03  0.20344562112E+03  0.99335818624E+03  0.61288237665E+03 0.  0.
   -5000001    2    3    3    0    0 -0.45941883772E+03 -0.44998342984E+03  0.16124307988E+03  0.66847902543E+03  0.85522634736E+02 0.  0.
     200001    1    1    2    0    0  0.70551395677E+03  0.26831998547E+03 -0.24332392906E+02  0.97268012376E+03  0.61300000000E+03 0. -1.
         11    1    4    4    0    0 -0.41891197326E+02 -0.60791591361E+02 -0.26322109474E+01  0.73874342829E+02  0.51100000000E-03 0.  1.
    -200002    1    4    4    0    0 -0.41752764039E+03 -0.38919183848E+03  0.16387529083E+03  0.59460468260E+03  0.30000000000E+02 0.  1.
    -200000    1    3    3    0    0 -0.24609511905E+03  0.18166344436E+03  0.42202541238E+02  0.32487916081E+03  0.10100000000E+03 0.  1.
<mgrwt>
<rscale>  0 0.19578624E+04</rscale>
<asrwt>0</asrwt>
<pdfrwt beam="1">  1        2 0.15322511E+00 0.19578624E+04</pdfrwt>
<pdfrwt beam="2">  1       -2 0.12763751E+00 0.19578624E+04</pdfrwt>
<totfact> 0.10799657E+01</totfact>
</mgrwt>
</event>
<event>
 8    2  0.7266322E-052  0.1841910E+04  0.7818608E-02  0.8684324E-01
          2   -1    0    0  501    0  0.00000000000E+00  0.00000000000E+00  0.68036246354E+03  0.68036246354E+03  0.25500000000E-02 0.  1.
         -2   -1    0    0    0  501 -0.00000000000E+00 -0.00000000000E+00 -0.12466269738E+04  0.12466269738E+04  0.25500000000E-02 0. -1.
    -200001    2    1    2    0    0  0.55002917728E+03 -0.30275213452E+03 -0.58268725146E+03  0.10493621490E+04  0.60617285973E+03 0.  0.
   -5000001    2    3    3    0    0  0.38025959737E+03 -0.27954512120E+03 -0.53153157117E+02  0.48370533358E+03  0.91666544845E+02 0.  0.
     200001    1    1    2    0    0 -0.55002917728E+03  0.30275213452E+03  0.16422741225E+02  0.87762728834E+03  0.61300000000E+03 0. -1.
         11    1    4    4    0    0  0.18339303296E+03 -0.13049581607E+03  0.15643865216E+02  0.22562555943E+03  0.51100000000E-03 0.  1.
    -200002    1    4    4    0    0  0.19686656441E+03 -0.14904930513E+03 -0.68797022334E+02  0.25807977415E+03  0.30000000000E+02 0.  1.
    -200000    1    3    3    0    0  0.16976957991E+03 -0.23207013316E+02 -0.52953409435E+03  0.56565681540E+03  0.10100000000E+03 0. -1.
<mgrwt>
<rscale>  0 0.18419101E+04</rscale>
<asrwt>0</asrwt>
<pdfrwt beam="1">  1        2 0.97194638E-01 0.18419101E+04</pdfrwt>
<pdfrwt beam="2">  1       -2 0.17808957E+00 0.18419101E+04</pdfrwt>
<totfact> 0.82199459E+00</totfact>
</mgrwt>
</event>
<event>
 8    2  0.7266322E-052  0.1930108E+04  0.7818608E-02  0.8640013E-01
         -2   -1    0    0    0  501 -0.00000000000E+00  0.00000000000E+00  0.32491838467E+03  0.32491838468E+03  0.25500000000E-02 0. -1.
          2   -1    0    0  501    0  0.00000000000E+00 -0.00000000000E+00 -0.28663469829E+04  0.28663469829E+04  0.25500000000E-02 0.  1.
    -200001    2    1    2    0    0  0.51547676072E+03  0.28429847952E+03 -0.51518186141E+03  0.99399734688E+03  0.61325073092E+03 0.  0.
   -5000001    2    3    3    0    0  0.59193612850E+03  0.28061594753E+03 -0.55091294781E+03  0.86232614085E+03  0.10472634289E+03 0.  0.
     200001    1    1    2    0    0 -0.51547676072E+03 -0.28429847952E+03 -0.20262467368E+04  0.21972680207E+04  0.61300000000E+03 0. -1.
         11    1    4    4    0    0  0.20214658115E+03  0.11435651027E+03 -0.25308709313E+03  0.34350215199E+03  0.51100000000E-03 0.  1.
    -200002    1    4    4    0    0  0.38978954735E+03  0.16625943726E+03 -0.29782585468E+03  0.51882398886E+03  0.30000000000E+02 0.  1.
    -200000    1    3    3    0    0 -0.76459367780E+02  0.36825319964E+01  0.35731086393E+02  0.13167120603E+03  0.10100000000E+03 0. -1.
<mgrwt>
<rscale>  0 0.19301076E+04</rscale>
<asrwt>0</asrwt>
<pdfrwt beam="1">  1        2 0.40947813E+00 0.19301076E+04</pdfrwt>
<pdfrwt beam="2">  1       -2 0.46416914E-01 0.19301076E+04</pdfrwt>
<totfact> 0.11555032E+01</totfact>
</mgrwt>
</event>
<event>
 8    2  0.7266322E-052  0.1287015E+04  0.7818608E-02  0.9039927E-01
         -2   -1    0    0    0  501 -0.00000000000E+00  0.00000000000E+00  0.20376497721E+03  0.20376497722E+03  0.25500000000E-02 0. -1.
          2   -1    0    0  501    0  0.00000000000E+00 -0.00000000000E+00 -0.20322513271E+04  0.20322513271E+04  0.25500000000E-02 0.  1.
    -200001    2    1    2    0    0  0.78503020323E+02  0.17185746051E+03 -0.10019378699E+04  0.11897615071E+04  0.61315188797E+03 0.  0.
   -5000001    2    3    3    0    0 -0.73431839613E+02  0.22010333032E+03 -0.94039665253E+02  0.26245788065E+03  0.78758932126E+02 0.  0.
     200001    1    1    2    0    0 -0.78503020323E+02 -0.17185746051E+03 -0.82654847997E+03  0.10462547972E+04  0.61300000000E+03 0.  1.
         11    1    4    4    0    0  0.12540405931E+00  0.95274682352E+02 -0.21499846118E+02  0.97670487901E+02  0.51100000000E-03 0.  1.
    -200002    1    4    4    0    0 -0.73557243672E+02  0.12482864797E+03 -0.72539819135E+02  0.16478739275E+03  0.30000000000E+02 0.  1.
    -200000    1    3    3    0    0  0.15193485994E+03 -0.48245869810E+02 -0.90789820469E+03  0.92730362649E+03  0.10100000000E+03 0. -1.
<mgrwt>
<rscale>  0 0.12870146E+04</rscale>
<asrwt>0</asrwt>
<pdfrwt beam="1">  1        2 0.29032161E+00 0.12870146E+04</pdfrwt>
<pdfrwt beam="2">  1       -2 0.29109284E-01 0.12870146E+04</pdfrwt>
<totfact> 0.82230511E+01</totfact>
</mgrwt>
</event>
<event>
 8    2  0.7266322E-052  0.1315908E+04  0.7818608E-02  0.9017044E-01
          2   -1    0    0  501    0  0.00000000000E+00  0.00000000000E+00  0.26624117885E+04  0.26624117885E+04  0.25500000000E-02 0. -1.
         -2   -1    0    0    0  501 -0.00000000000E+00 -0.00000000000E+00 -0.16259827204E+03  0.16259827206E+03  0.25500000000E-02 0.  1.
    -200001    2    1    2    0    0  0.92654098602E+02 -0.11535019380E+03  0.16521585397E+04  0.17685166111E+04  0.61329659560E+03 0.  0.
   -5000001    2    3    3    0    0  0.21850433466E+03 -0.43184585937E+02  0.15351533693E+04  0.15565322561E+04  0.12840461101E+03 0.  0.
     200001    1    1    2    0    0 -0.92654098602E+02  0.11535019380E+03  0.84765497681E+03  0.10564934495E+04  0.61300000000E+03 0.  1.
         11    1    4    4    0    0  0.76971982038E+02 -0.31181284492E+00  0.22679433884E+03  0.23950042876E+03  0.51100000000E-03 0.  1.
    -200002    1    4    4    0    0  0.14153235262E+03 -0.42872773092E+02  0.13083590305E+04  0.13170318273E+04  0.30000000000E+02 0.  1.
    -200000    1    3    3    0    0 -0.12585023606E+03 -0.72165607858E+02  0.11700517037E+03  0.21198435500E+03  0.10100000000E+03 0.  1.
<mgrwt>
<rscale>  0 0.13159081E+04</rscale>
<asrwt>0</asrwt>
<pdfrwt beam="1">  1        2 0.38034452E+00 0.13159081E+04</pdfrwt>
<pdfrwt beam="2">  1       -2 0.23228326E-01 0.13159081E+04</pdfrwt>
<totfact> 0.58235673E+01</totfact>
</mgrwt>
</event>
<event>
 8    2  0.7266322E-052  0.1755671E+04  0.7818608E-02  0.8730235E-01
          2   -1    0    0  501    0  0.00000000000E+00  0.00000000000E+00  0.13093559233E+04  0.13093559233E+04  0.25500000000E-02 0.  1.
         -2   -1    0    0    0  501 -0.00000000000E+00 -0.00000000000E+00 -0.58852976177E+03  0.58852976177E+03  0.25500000000E-02 0. -1.
    -200001    2    1    2    0    0  0.48080401128E+03  0.26717516529E+03  0.68870384849E+03  0.10736551899E+04  0.61308026358E+03 0.  0.
   -5000001    2    3    3    0    0  0.91985699246E+02  0.24254718676E+03  0.60577898480E+03  0.66272484282E+03  0.70324478014E+02 0.  0.
     200001    1    1    2    0    0 -0.48080401128E+03 -0.26717516529E+03  0.32122313028E+02  0.82423049519E+03  0.61300000000E+03 0. -1.
         11    1    4    4    0    0  0.98979594802E+01  0.85584007522E+02  0.15271136173E+03  0.17533782235E+03  0.51100000000E-03 0.  1.
    -200002    1    4    4    0    0  0.82087739766E+02  0.15696317923E+03  0.45306762306E+03  0.48738702047E+03  0.30000000000E+02 0.  1.
    -200000    1    3    3    0    0  0.38881831204E+03  0.24627978533E+02  0.82924863694E+02  0.41093034704E+03  0.10100000000E+03 0. -1.
<mgrwt>
<rscale>  0 0.17556707E+04</rscale>
<asrwt>0</asrwt>
<pdfrwt beam="1">  1        2 0.18705084E+00 0.17556707E+04</pdfrwt>
<pdfrwt beam="2">  1       -2 0.84075681E-01 0.17556707E+04</pdfrwt>
<totfact> 0.21775127E+01</totfact>
</mgrwt>
</event>
<event>
 8    2  0.7266322E-052  0.2115647E+04  0.7818608E-02  0.8554382E-01
         -2   -1    0    0    0  501 -0.00000000000E+00  0.00000000000E+00  0.70294685238E+03  0.70294685239E+03  0.25500000000E-02 0. -1.
          2   -1    0    0  501    0  0.00000000000E+00 -0.00000000000E+00 -0.15918568582E+04  0.15918568582E+04  0.25500000000E-02 0.  1.
    -200001    2    1    2    0    0  0.54116129467E+03  0.47164372744E+03 -0.96265973044E+03  0.13479608650E+04  0.61235723598E+03 0.  0.
   -5000001    2    3    3    0    0  0.39691571804E+03  0.15717297503E+03 -0.15616053500E+03  0.46459197673E+03  0.95990420586E+02 0.  0.
     200001    1    1    2    0    0 -0.54116129467E+03 -0.47164372744E+03  0.73749724580E+02  0.94684284565E+03  0.61300000000E+03 0. -1.
         11    1    4    4    0    0  0.26222979642E+02  0.15196401149E+02 -0.39458487324E+02  0.49754874046E+02  0.51100000000E-03 0.  1.
    -200002    1    4    4    0    0  0.37069273840E+03  0.14197657388E+03 -0.11670204768E+03  0.41483710269E+03  0.30000000000E+02 0.  1.
    -200000    1    3    3    0    0  0.14424557663E+03  0.31447075241E+03 -0.80649919543E+03  0.88336888825E+03  0.10100000000E+03 0.  1.
<mgrwt>
<rscale>  0 0.21156472E+04</rscale>
<asrwt>0</asrwt>
<pdfrwt beam="1">  1        2 0.22740812E+00 0.21156472E+04</pdfrwt>
<pdfrwt beam="2">  1       -2 0.10042098E+00 0.21156472E+04</pdfrwt>
<totfact> 0.98820981E+00</totfact>
</mgrwt>
</event>
<event>
 8    2  0.7266322E-052  0.1811389E+04  0.7818608E-02  0.8700266E-01
         -2   -1    0    0    0  501 -0.00000000000E+00  0.00000000000E+00  0.27728184948E+03  0.27728184949E+03  0.25500000000E-02 0. -1.
          2   -1    0    0  501    0  0.00000000000E+00 -0.00000000000E+00 -0.29582978550E+04  0.29582978550E+04  0.25500000000E-02 0.  1.
    -200001    2    1    2    0    0  0.52964566804E+02 -0.35404151361E+03 -0.33549626038E+03  0.78499150704E+03  0.61278322978E+03 0.  0.
   -5000001    2    3    3    0    0  0.73469585742E+02  0.30895240842E+02 -0.83516306240E+02  0.31351334422E+03  0.29148472972E+03 0.  0.
     200001    1    1    2    0    0 -0.52964566804E+02  0.35404151361E+03 -0.23455197452E+04  0.24505881975E+04  0.61300000000E+03 0. -1.
         11    1    4    4    0    0  0.15519397715E+03 -0.66695376481E+02 -0.27069304718E+02  0.17107364217E+03  0.51100000000E-03 0.  1.
    -200002    1    4    4    0    0 -0.81724391403E+02  0.97590617323E+02 -0.56447001522E+02  0.14243970205E+03  0.30000000000E+02 0.  1.
    -200000    1    3    3    0    0 -0.20505018938E+02 -0.38493675445E+03 -0.25197995414E+03  0.47147816282E+03  0.10100000000E+03 0. -1.
<mgrwt>
<rscale>  0 0.18113887E+04</rscale>
<asrwt>0</asrwt>
<pdfrwt beam="1">  1        2 0.42261396E+00 0.18113887E+04</pdfrwt>
<pdfrwt beam="2">  1       -2 0.39611695E-01 0.18113887E+04</pdfrwt>
<totfact> 0.14217614E+01</totfact>
</mgrwt>
</event>
<event>
 8    2  0.7266322E-052  0.1286241E+04  0.7818608E-02  0.9040548E-01
         -2   -1    0    0    0  501 -0.00000000000E+00  0.00000000000E+00  0.13239113203E+03  0.13239113205E+03  0.25500000000E-02 0. -1.
          2   -1    0    0  501    0  0.00000000000E+00 -0.00000000000E+00 -0.31241045875E+04  0.31241045875E+04  0.25500000000E-02 0.  1.
    -200001    2    1    2    0    0 -0.19081732771E+03  0.38923696555E+02 -0.15448060750E+04  0.16730702320E+04  0.61221882151E+03 0.  0.
   -5000001    2    3    3    0    0 -0.28076269026E+03  0.29549959656E+02 -0.40094232707E+03  0.52120074771E+03  0.17661987834E+03 0.  0.
     200001    1    1    2    0    0  0.19081732771E+03 -0.38923696555E+02 -0.14469073805E+04  0.15834254875E+04  0.61300000000E+03 0. -1.
         11    1    4    4    0    0 -0.10187734918E+03  0.47101584235E+02 -0.44235372131E+02  0.12064129335E+03  0.51100000000E-03 0.  1.
    -200002    1    4    4    0    0 -0.17888534108E+03 -0.17551624579E+02 -0.35670695494E+03  0.40055945436E+03  0.30000000000E+02 0.  1.
    -200000    1    3    3    0    0  0.89945362558E+02  0.93737368997E+01 -0.11438637479E+04  0.11518694843E+04  0.10100000000E+03 0.  1.
<mgrwt>
<rscale>  0 0.12862406E+04</rscale>
<asrwt>0</asrwt>
<pdfrwt beam="1">  1        2 0.44630061E+00 0.12862406E+04</pdfrwt>
<pdfrwt beam="2">  1       -2 0.18913021E-01 0.12862406E+04</pdfrwt>
<totfact> 0.46925303E+01</totfact>
</mgrwt>
</event>
<event>
 8    2  0.7266322E-052  0.1531642E+04  0.7818608E-02  0.8863680E-01
         -2   -1    0    0    0  501 -0.00000000000E+00  0.00000000000E+00  0.37877374382E+03  0.37877374382E+03  0.25500000000E-02 0. -1.
          2   -1    0    0  501    0  0.00000000000E+00 -0.00000000000E+00 -0.15483692945E+04  0.15483692945E+04  0.25500000000E-02 0.  1.
    -200001    2    1    2    0    0  0.17367866446E+03  0.15539739922E+03 -0.10824671252E+04  0.12655744533E+04  0.61288742000E+03 0.  0.
   -5000001    2    3    3    0    0 -0.27764178990E+01 -0.19851495299E+03 -0.22914067921E+03  0.31965829818E+03  0.10129206124E+03 0.  0.
     200001    1    1    2    0    0 -0.17367866446E+03 -0.15539739922E+03 -0.87128425524E+02  0.66156858504E+03  0.61300000000E+03 0. -1.
         11    1    4    4    0    0 -0.34501103389E+02 -0.16009649627E+03 -0.15564351621E+03  0.22593388058E+03  0.51100000000E-03 0.  1.
    -200002    1    4    4    0    0  0.31724685490E+02 -0.38418456717E+02 -0.73497163007E+02  0.93724417608E+02  0.30000000000E+02 0.  1.
    -200000    1    3    3    0    0  0.17645508236E+03  0.35391235221E+03 -0.85332644597E+03  0.94591615513E+03  0.10100000000E+03 0. -1.
<mgrwt>
<rscale>  0 0.15316418E+04</rscale>
<asrwt>0</asrwt>
<pdfrwt beam="1">  1        2 0.22119561E+00 0.15316418E+04</pdfrwt>
<pdfrwt beam="2">  1       -2 0.54110536E-01 0.15316418E+04</pdfrwt>
<totfact> 0.42777726E+01</totfact>
</mgrwt>
</event>
<event>
 8    2  0.7266322E-052  0.1848293E+04  0.7818608E-02  0.8681031E-01
          2   -1    0    0  501    0  0.00000000000E+00  0.00000000000E+00  0.12267774757E+04  0.12267774757E+04  0.25500000000E-02 0.  1.
         -2   -1    0    0    0  501 -0.00000000000E+00 -0.00000000000E+00 -0.69617104747E+03  0.69617104748E+03  0.25500000000E-02 0. -1.
    -200001    2    1    2    0    0  0.24188797067E+03 -0.31296344399E+03 -0.32466448107E+03  0.79879851720E+03  0.61336460461E+03 0.  0.
   -5000001    2    3    3    0    0  0.23214283837E+02  0.65511253614E+02  0.11027889827E+03  0.17394811809E+03  0.11517762394E+03 0.  0.
     200001    1    1    2    0    0 -0.24188797067E+03  0.31296344399E+03  0.85527090925E+03  0.11241500059E+04  0.61300000000E+03 0.  1.
         11    1    4    4    0    0  0.29912486445E+02 -0.21748167700E+02  0.54677055271E+02  0.66009999371E+02  0.51100000000E-03 0.  1.
    -200002    1    4    4    0    0 -0.66982026079E+01  0.87259421314E+02  0.55601843003E+02  0.10793811871E+03  0.30000000000E+02 0.  1.
    -200000    1    3    3    0    0  0.21867368684E+03 -0.37847469760E+03 -0.43494337934E+03  0.62485039911E+03  0.10100000000E+03 0. -1.
<mgrwt>
<rscale>  0 0.18482932E+04</rscale>
<asrwt>0</asrwt>
<pdfrwt beam="1">  1        2 0.17525392E+00 0.18482932E+04</pdfrwt>
<pdfrwt beam="2">  1       -2 0.99453007E-01 0.18482932E+04</pdfrwt>
<totfact> 0.16295845E+01</totfact>
</mgrwt>
</event>
<event>
 8    2  0.7266322E-052  0.1624550E+04  0.7818608E-02  0.8805607E-01
         -2   -1    0    0    0  501 -0.00000000000E+00  0.00000000000E+00  0.20839967544E+03  0.20839967545E+03  0.25500000000E-02 0. -1.
          2   -1    0    0  501    0  0.00000000000E+00 -0.00000000000E+00 -0.31659859174E+04  0.31659859174E+04  0.25500000000E-02 0.  1.
    -200001    2    1    2    0    0 -0.10072504199E+03  0.32232269902E+03 -0.62456195972E+03  0.93864981944E+03  0.61396122485E+03 0.  0.
   -5000001    2    3    3    0    0 -0.13167173589E+03  0.45033293627E+03 -0.28123771750E+03  0.55731420085E+03  0.10661737759E+03 0.  0.
     200001    1    1    2    0    0  0.10072504199E+03 -0.32232269902E+03 -0.23330242822E+04  0.24357357734E+04  0.61300000000E+03 0.  1.
         11    1    4    4    0    0 -0.95990543181E+02  0.16122160446E+03 -0.95574900656E+02  0.21057338807E+03  0.51100000000E-03 0.  1.
    -200002    1    4    4    0    0 -0.35681192707E+02  0.28911133181E+03 -0.18566281685E+03  0.34674081279E+03  0.30000000000E+02 0.  1.
    -200000    1    3    3    0    0  0.30946693899E+02 -0.12801023726E+03 -0.34332424222E+03  0.38133561858E+03  0.10100000000E+03 0.  1.
<mgrwt>
<rscale>  0 0.16245497E+04</rscale>
<asrwt>0</asrwt>
<pdfrwt beam="1">  1        2 0.45228367E+00 0.16245497E+04</pdfrwt>
<pdfrwt beam="2">  1       -2 0.29771384E-01 0.16245497E+04</pdfrwt>
<totfact> 0.19026206E+01</totfact>
</mgrwt>
</event>
<event>
 8    2  0.7266322E-052  0.1929638E+04  0.7818608E-02  0.8640243E-01
          2   -1    0    0  501    0  0.00000000000E+00  0.00000000000E+00  0.10552410099E+04  0.10552410099E+04  0.25500000000E-02 0.  1.
         -2   -1    0    0    0  501 -0.00000000000E+00 -0.00000000000E+00 -0.88214529854E+03  0.88214529854E+03  0.25500000000E-02 0. -1.
    -200001    2    1    2    0    0  0.21295898310E+03 -0.70711148375E+03 -0.11645758273E+02  0.96001402037E+03  0.61329692375E+03 0.  0.
   -5000001    2    3    3    0    0  0.38332418317E+02  0.79142863850E+02  0.88086608445E+01  0.14803512931E+03  0.11875958830E+03 0.  0.
     200001    1    1    2    0    0 -0.21295898310E+03  0.70711148375E+03  0.18474146965E+03  0.97737228810E+03  0.61300000000E+03 0.  1.
         11    1    4    4    0    0  0.36951718250E+02 -0.20733159381E+02  0.10788706868E+02  0.43722872455E+02  0.51100000000E-03 0.  1.
    -200002    1    4    4    0    0  0.13807000670E+01  0.99876023231E+02 -0.19800460235E+01  0.10431225686E+03  0.30000000000E+02 0.  1.
    -200000    1    3    3    0    0  0.17462656478E+03 -0.78625434760E+03 -0.20454419117E+02  0.81197889105E+03  0.10100000000E+03 0. -1.
<mgrwt>
<rscale>  0 0.19296382E+04</rscale>
<asrwt>0</asrwt>
<pdfrwt beam="1">  1        2 0.15074872E+00 0.19296382E+04</pdfrwt>
<pdfrwt beam="2">  1       -2 0.12602076E+00 0.19296382E+04</pdfrwt>
<totfact> 0.11447775E+01</totfact>
</mgrwt>
</event>
<event>
 8    2  0.7266322E-052  0.1671691E+04  0.7818608E-02  0.8777677E-01
          2   -1    0    0  501    0  0.00000000000E+00  0.00000000000E+00  0.36015012447E+04  0.36015012447E+04  0.25500000000E-02 0.  1.
         -2   -1    0    0    0  501 -0.00000000000E+00 -0.00000000000E+00 -0.19398510634E+03  0.19398510635E+03  0.25500000000E-02 0. -1.
    -200001    2    1    2    0    0 -0.10809419470E+02 -0.54530669136E+02  0.42091455318E+03  0.74611781543E+03  0.61354078593E+03 0.  0.
   -5000001    2    3    3    0    0  0.25800582770E+03 -0.10737864732E+03  0.26654941294E+03  0.41583892959E+03  0.15419547595E+03 0.  0.
     200001    1    1    2    0    0  0.10809419470E+02  0.54530669136E+02  0.29866015852E+04  0.30493685357E+04  0.61300000000E+03 0.  1.
         11    1    4    4    0    0  0.87345878117E+02 -0.89310195258E+02  0.42344862882E+02  0.13190413494E+03  0.51100000000E-03 0.  1.
    -200002    1    4    4    0    0  0.17065994958E+03 -0.18068452057E+02  0.22420455006E+03  0.28393479466E+03  0.30000000000E+02 0.  1.
    -200000    1    3    3    0    0 -0.26881524717E+03  0.52847978179E+02  0.15436514024E+03  0.33027888584E+03  0.10100000000E+03 0. -1.
<mgrwt>
<rscale>  0 0.16716909E+04</rscale>
<asrwt>0</asrwt>
<pdfrwt beam="1">  1        2 0.51450015E+00 0.16716909E+04</pdfrwt>
<pdfrwt beam="2">  1       -2 0.27712159E-01 0.16716909E+04</pdfrwt>
<totfact> 0.11907803E+01</totfact>
</mgrwt>
</event>
<event>
 8    2  0.7266322E-052  0.1724449E+04  0.7818608E-02  0.8747542E-01
          2   -1    0    0  501    0  0.00000000000E+00  0.00000000000E+00  0.28141039591E+04  0.28141039591E+04  0.25500000000E-02 0. -1.
         -2   -1    0    0    0  501 -0.00000000000E+00 -0.00000000000E+00 -0.26418041339E+03  0.26418041340E+03  0.25500000000E-02 0.  1.
    -200001    2    1    2    0    0  0.17129890926E+03 -0.54362453027E+03  0.16433368051E+04  0.18443721129E+04  0.61341803808E+03 0.  0.
   -5000001    2    3    3    0    0  0.29738975189E+03 -0.17125334360E+03  0.11317219650E+04  0.11912948235E+04  0.14359797420E+03 0.  0.
     200001    1    1    2    0    0 -0.17129890926E+03  0.54362453027E+03  0.90658674057E+03  0.12339122596E+04  0.61300000000E+03 0. -1.
         11    1    4    4    0    0  0.63133229501E+02 -0.60245939508E+02  0.50386382896E+03  0.51136497340E+03  0.51100000000E-03 0.  1.
    -200002    1    4    4    0    0  0.23425652239E+03 -0.11100740409E+03  0.62785813605E+03  0.67992985009E+03  0.30000000000E+02 0.  1.
    -200000    1    3    3    0    0 -0.12609084264E+03 -0.37237118667E+03  0.51161484010E+03  0.65307728936E+03  0.10100000000E+03 0.  1.
<mgrwt>
<rscale>  0 0.17244491E+04</rscale>
<asrwt>0</asrwt>
<pdfrwt beam="1">  1        2 0.40201489E+00 0.17244491E+04</pdfrwt>
<pdfrwt beam="2">  1       -2 0.37740056E-01 0.17244491E+04</pdfrwt>
<totfact> 0.18887916E+01</totfact>
</mgrwt>
</event>
<event>
 8    2  0.7266322E-052  0.1274889E+04  0.7818608E-02  0.9049719E-01
         -2   -1    0    0    0  501 -0.00000000000E+00  0.00000000000E+00  0.25557344780E+03  0.25557344781E+03  0.25500000000E-02 0. -1.
          2   -1    0    0  501    0  0.00000000000E+00 -0.00000000000E+00 -0.15898960997E+04  0.15898960997E+04  0.25500000000E-02 0.  1.
    -200001    2    1    2    0    0 -0.15698626646E+03 -0.66313997594E+01 -0.80787395327E+03  0.10223013414E+04  0.60642480561E+03 0.  0.
   -5000001    2    3    3    0    0 -0.19238713160E+03 -0.20156378281E+03 -0.73240204303E+03  0.78746338776E+03  0.77750031993E+02 0.  0.
     200001    1    1    2    0    0  0.15698626646E+03  0.66313997594E+01 -0.52644869861E+03  0.82316820613E+03  0.61300000000E+03 0. -1.
         11    1    4    4    0    0 -0.14612375467E+03 -0.17527480762E+03 -0.57938378212E+03  0.62270296037E+03  0.51100000000E-03 0.  1.
    -200002    1    4    4    0    0 -0.46263376938E+02 -0.26288975193E+02 -0.15301826091E+03  0.16476042739E+03  0.30000000000E+02 0. -1.
    -200000    1    3    3    0    0  0.35400865144E+02  0.19493238305E+03 -0.75471910237E+02  0.23483795360E+03  0.10100000000E+03 0. -1.
<mgrwt>
<rscale>  0 0.12748886E+04</rscale>
<asrwt>0</asrwt>
<pdfrwt beam="1">  1        2 0.22712801E+00 0.12748886E+04</pdfrwt>
<pdfrwt beam="2">  1       -2 0.36510493E-01 0.12748886E+04</pdfrwt>
<totfact> 0.90819181E+01</totfact>
</mgrwt>
</event>
<event>
 8    2  0.7266322E-052  0.2786841E+04  0.7818608E-02  0.8307365E-01
          2   -1    0    0  501    0  0.00000000000E+00  0.00000000000E+00  0.15028132359E+04  0.15028132359E+04  0.25500000000E-02 0.  1.
         -2   -1    0    0    0  501 -0.00000000000E+00 -0.00000000000E+00 -0.12919904032E+04  0.12919904032E+04  0.25500000000E-02 0. -1.
    -200001    2    1    2    0    0 -0.10912831351E+04  0.59622603315E+03  0.24477908926E+03  0.14079704153E+04  0.61325323012E+03 0.  0.
   -5000001    2    3    3    0    0 -0.99605073739E+03  0.37884604940E+03  0.26686595814E+02  0.10702003713E+04  0.94737847683E+02 0.  0.
     200001    1    1    2    0    0  0.10912831351E+04 -0.59622603315E+03 -0.33956256552E+02  0.13868332239E+04  0.61300000000E+03 0.  1.
         11    1    4    4    0    0 -0.53235237504E+03  0.17173351718E+03  0.44664345498E+02  0.56114735666E+03  0.51100000000E-03 0.  1.
    -200002    1    4    4    0    0 -0.46369836235E+03  0.20711253222E+03 -0.17977749684E+02  0.50905301466E+03  0.30000000000E+02 0.  1.
    -200000    1    3    3    0    0 -0.95232397707E+02  0.21737998375E+03  0.21809249344E+03  0.33777004397E+03  0.10100000000E+03 0.  1.
<mgrwt>
<rscale>  0 0.27868407E+04</rscale>
<asrwt>0</asrwt>
<pdfrwt beam="1">  1        2 0.21468761E+00 0.27868407E+04</pdfrwt>
<pdfrwt beam="2">  1       -2 0.18457006E+00 0.27868407E+04</pdfrwt>
<totfact> 0.21558686E+00</totfact>
</mgrwt>
</event>
<event>
 8    2  0.7266322E-052  0.1448235E+04  0.7818608E-02  0.8919625E-01
         -2   -1    0    0    0  501 -0.00000000000E+00  0.00000000000E+00  0.24803593338E+03  0.24803593339E+03  0.25500000000E-02 0. -1.
          2   -1    0    0  501    0  0.00000000000E+00 -0.00000000000E+00 -0.21139925263E+04  0.21139925263E+04  0.25500000000E-02 0.  1.
    -200001    2    1    2    0    0  0.25996696727E+03  0.16528566733E+03 -0.55367318014E+03  0.88123173788E+03  0.61246486393E+03 0.  0.
   -5000001    2    3    3    0    0  0.71589137266E+02  0.37285703803E+03 -0.32973315008E+03  0.50850902884E+03  0.75565248394E+02 0.  0.
     200001    1    1    2    0    0 -0.25996696727E+03 -0.16528566733E+03 -0.13122834128E+04  0.14807967218E+04  0.61300000000E+03 0.  1.
         11    1    4    4    0    0 -0.24525760094E+01  0.17077513226E+01  0.25918310712E+01  0.39558984093E+01  0.51100000000E-03 0.  1.
    -200002    1    4    4    0    0  0.74041713275E+02  0.37114928671E+03 -0.33232498115E+03  0.50455313043E+03  0.30000000000E+02 0.  1.
    -200000    1    3    3    0    0  0.18837783000E+03 -0.20757137070E+03 -0.22394003007E+03  0.37272270904E+03  0.10100000000E+03 0.  1.
<mgrwt>
<rscale>  0 0.14482349E+04</rscale>
<asrwt>0</asrwt>
<pdfrwt beam="1">  1        2 0.30199892E+00 0.14482349E+04</pdfrwt>
<pdfrwt beam="2">  1       -2 0.35433706E-01 0.14482349E+04</pdfrwt>
<totfact> 0.50920829E+01</totfact>
</mgrwt>
</event>
<event>
 8    2  0.7266322E-052  0.1455062E+04  0.7818608E-02  0.8914899E-01
         -2   -1    0    0    0  501 -0.00000000000E+00  0.00000000000E+00  0.43190921387E+03  0.43190921388E+03  0.25500000000E-02 0. -1.
          2   -1    0    0  501    0  0.00000000000E+00 -0.00000000000E+00 -0.12254915907E+04  0.12254915907E+04  0.25500000000E-02 0.  1.
    -200001    2    1    2    0    0 -0.38329701203E+03  0.13636988728E+02 -0.29825719806E+03  0.78092000067E+03  0.61137232875E+03 0.  0.
   -5000001    2    3    3    0    0  0.52030097735E+02  0.44631938820E+01 -0.88358523188E+02  0.28710596207E+03  0.26813346241E+03 0.  0.
     200001    1    1    2    0    0  0.38329701203E+03 -0.13636988728E+02 -0.49532517878E+03  0.87648080391E+03  0.61300000000E+03 0. -1.
         11    1    4    4    0    0  0.11884111628E+03  0.14158447484E+02 -0.14929248381E+03  0.19134241108E+03  0.51100000000E-03 0.  1.
    -200002    1    4    4    0    0 -0.66811018550E+02 -0.96952536020E+01  0.60933960620E+02  0.95763550994E+02  0.30000000000E+02 0.  1.
    -200000    1    3    3    0    0 -0.43532710977E+03  0.91737948455E+01 -0.20989867487E+03  0.49381403860E+03  0.10100000000E+03 0.  1.
<mgrwt>
<rscale>  0 0.14550617E+04</rscale>
<asrwt>0</asrwt>
<pdfrwt beam="1">  1        2 0.17507023E+00 0.14550617E+04</pdfrwt>
<pdfrwt beam="2">  1       -2 0.61701317E-01 0.14550617E+04</pdfrwt>
<totfact> 0.48974619E+01</totfact>
</mgrwt>
</event>
<event>
 8    2  0.7266322E-052  0.1482181E+04  0.7818608E-02  0.8896390E-01
         -2   -1    0    0    0  501 -0.00000000000E+00  0.00000000000E+00  0.51260084009E+03  0.51260084010E+03  0.25500000000E-02 0.  1.
          2   -1    0    0  501    0  0.00000000000E+00 -0.00000000000E+00 -0.10714277557E+04  0.10714277557E+04  0.25500000000E-02 0. -1.
    -200001    2    1    2    0    0 -0.37224847037E+03 -0.30693499980E+02 -0.80553550640E+02  0.72145951086E+03  0.61196726763E+03 0.  0.
   -5000001    2    3    3    0    0  0.11063393265E+03  0.13995635911E+03  0.39092639298E+01  0.19265732042E+03  0.72621699635E+02 0.  0.
     200001    1    1    2    0    0  0.37224847037E+03  0.30693499980E+02 -0.47827336492E+03  0.86256908490E+03  0.61300000000E+03 0. -1.
         11    1    4    4    0    0  0.29050903875E+02  0.66208944778E+02 -0.22351892000E+02  0.75678176913E+02  0.51100000000E-03 0.  1.
    -200002    1    4    4    0    0  0.81583028779E+02  0.73747414334E+02  0.26261155930E+02  0.11697914351E+03  0.30000000000E+02 0.  1.
    -200000    1    3    3    0    0 -0.48288240303E+03 -0.17064985909E+03 -0.84462814570E+02  0.52880219043E+03  0.10100000000E+03 0. -1.
<mgrwt>
<rscale>  0 0.14821805E+04</rscale>
<asrwt>0</asrwt>
<pdfrwt beam="1">  1        2 0.15306111E+00 0.14821805E+04</pdfrwt>
<pdfrwt beam="2">  1       -2 0.73228692E-01 0.14821805E+04</pdfrwt>
<totfact> 0.41463619E+01</totfact>
</mgrwt>
</event>
<event>
 8    2  0.7266322E-052  0.2325413E+04  0.7818608E-02  0.8467968E-01
          2   -1    0    0  501    0  0.00000000000E+00  0.00000000000E+00  0.14315859541E+04  0.14315859541E+04  0.25500000000E-02 0.  1.
         -2   -1    0    0    0  501 -0.00000000000E+00 -0.00000000000E+00 -0.94432764195E+03  0.94432764195E+03  0.25500000000E-02 0. -1.
    -200001    2    1    2    0    0 -0.48280365063E+03  0.18975269448E+03  0.11027593033E+04  0.13641251200E+04  0.61290603857E+03 0.  0.
   -5000001    2    3    3    0    0 -0.54952732880E+03  0.29814458029E+02  0.57432789667E+03  0.79890565810E+03  0.74354089623E+02 0.  0.
     200001    1    1    2    0    0  0.48280365063E+03 -0.18975269448E+03 -0.61550099110E+03  0.10117884760E+04  0.61300000000E+03 0. -1.
         11    1    4    4    0    0 -0.34104945346E+03  0.36651662966E+02  0.38467026267E+03  0.51539236033E+03  0.51100000000E-03 0.  1.
    -200002    1    4    4    0    0 -0.20847787533E+03 -0.68372049375E+01  0.18965763400E+03  0.28351329777E+03  0.30000000000E+02 0.  1.
    -200000    1    3    3    0    0  0.66723678167E+02  0.15993823645E+03  0.52843140658E+03  0.56521946195E+03  0.10100000000E+03 0. -1.
<mgrwt>
<rscale>  0 0.23254128E+04</rscale>
<asrwt>0</asrwt>
<pdfrwt beam="1">  1        2 0.20451228E+00 0.23254128E+04</pdfrwt>
<pdfrwt beam="2">  1       -2 0.13490395E+00 0.23254128E+04</pdfrwt>
<totfact> 0.57194163E+00</totfact>
</mgrwt>
</event>
<event>
 8    2  0.7266322E-052  0.1725011E+04  0.7818608E-02  0.8747227E-01
          2   -1    0    0  501    0  0.00000000000E+00  0.00000000000E+00  0.60013147591E+03  0.60013147592E+03  0.25500000000E-02 0.  1.
         -2   -1    0    0    0  501 -0.00000000000E+00 -0.00000000000E+00 -0.12395876159E+04  0.12395876159E+04  0.25500000000E-02 0. -1.
    -200001    2    1    2    0    0  0.16540035320E+03  0.46413111068E+03  0.53497580992E+02  0.79151642815E+03  0.61713961153E+03 0.  0.
   -5000001    2    3    3    0    0  0.33593091018E+03  0.45382301451E+03  0.10898589407E+03  0.58544148888E+03  0.10981305422E+03 0.  0.
     200001    1    1    2    0    0 -0.16540035320E+03 -0.46413111068E+03 -0.69295372102E+03  0.10482026637E+04  0.61300000000E+03 0. -1.
         11    1    4    4    0    0  0.89131960434E+02  0.55402763877E+02  0.30611048154E+02  0.10932066998E+03  0.51100000000E-03 0.  1.
    -200002    1    4    4    0    0  0.24679894974E+03  0.39842025064E+03  0.78374845915E+02  0.47612081889E+03  0.30000000000E+02 0.  1.
    -200000    1    3    3    0    0 -0.17053055697E+03  0.10308096165E+02 -0.55488313078E+02  0.20607493927E+03  0.10100000000E+03 0. -1.
<mgrwt>
<rscale>  0 0.17250108E+04</rscale>
<asrwt>0</asrwt>
<pdfrwt beam="1">  1        2 0.85733069E-01 0.17250108E+04</pdfrwt>
<pdfrwt beam="2">  1       -2 0.17708394E+00 0.17250108E+04</pdfrwt>
<totfact> 0.98063745E+00</totfact>
</mgrwt>
</event>
<event>
 8    2  0.7266322E-052  0.1290769E+04  0.7818608E-02  0.9036918E-01
         -2   -1    0    0    0  501 -0.00000000000E+00  0.00000000000E+00  0.19655476156E+03  0.19655476158E+03  0.25500000000E-02 0. -1.
          2   -1    0    0  501    0  0.00000000000E+00 -0.00000000000E+00 -0.21191101171E+04  0.21191101171E+04  0.25500000000E-02 0.  1.
    -200001    2    1    2    0    0 -0.88281395608E+02  0.12347778210E+03 -0.72641236565E+03  0.96304984855E+03  0.61379941214E+03 0.  0.
   -5000001    2    3    3    0    0  0.87480773415E+02 -0.18560818599E+03 -0.44643893176E+03  0.49935533767E+03  0.89133321747E+02 0.  0.
     200001    1    1    2    0    0  0.88281395608E+02 -0.12347778210E+03 -0.11961429899E+04  0.13526150302E+04  0.61300000000E+03 0.  1.
         11    1    4    4    0    0  0.71560542513E+02 -0.13821392127E+03 -0.25039829731E+03  0.29482758788E+03  0.51100000000E-03 0.  1.
    -200002    1    4    4    0    0  0.15920230902E+02 -0.47394264723E+02 -0.19604063445E+03  0.20452774979E+03  0.30000000000E+02 0.  1.
    -200000    1    3    3    0    0 -0.17576216902E+03  0.30908596810E+03 -0.27997343389E+03  0.46369451088E+03  0.10100000000E+03 0. -1.
<mgrwt>
<rscale>  0 0.12907690E+04</rscale>
<asrwt>0</asrwt>
<pdfrwt beam="1">  1        2 0.30273000E+00 0.12907690E+04</pdfrwt>
<pdfrwt beam="2">  1       -2 0.28079253E-01 0.12907690E+04</pdfrwt>
<totfact> 0.79300285E+01</totfact>
</mgrwt>
</event>
<event>
 8    2  0.7266322E-052  0.1717888E+04  0.7818608E-02  0.8751228E-01
         -2   -1    0    0    0  501 -0.00000000000E+00  0.00000000000E+00  0.10732623236E+04  0.10732623236E+04  0.25500000000E-02 0. -1.
          2   -1    0    0  501    0  0.00000000000E+00 -0.00000000000E+00 -0.68742253320E+03  0.68742253321E+03  0.25500000000E-02 0.  1.
    -200001    2    1    2    0    0 -0.48912223805E+03  0.42448562959E+02  0.54881313414E+03  0.95858027826E+03  0.61370827713E+03 0.  0.
   -5000001    2    3    3    0    0 -0.15575992292E+01  0.23209893726E+03  0.11353002219E+03  0.27056942875E+03  0.80289520134E+02 0.  0.
     200001    1    1    2    0    0  0.48912223805E+03 -0.42448562959E+02 -0.16297334370E+03  0.80210457860E+03  0.61300000000E+03 0.  1.
         11    1    4    4    0    0 -0.11661255823E+02  0.14122434927E+03  0.99898916879E+02  0.17337847417E+03  0.51100000000E-03 0.  1.
    -200002    1    4    4    0    0  0.10103656594E+02  0.90874587991E+02  0.13631105312E+02  0.97190954575E+02  0.30000000000E+02 0. -1.
    -200000    1    3    3    0    0 -0.48756463882E+03 -0.18965037430E+03  0.43528311195E+03  0.68801084951E+03  0.10100000000E+03 0. -1.
<mgrwt>
<rscale>  0 0.17178879E+04</rscale>
<asrwt>0</asrwt>
<pdfrwt beam="1">  1        2 0.98203218E-01 0.17178879E+04</pdfrwt>
<pdfrwt beam="2">  1       -2 0.15332319E+00 0.17178879E+04</pdfrwt>
<totfact> 0.12388960E+01</totfact>
</mgrwt>
</event>
<event>
 8    2  0.7266322E-052  0.1310078E+04  0.7818608E-02  0.9021611E-01
         -2   -1    0    0    0  501 -0.00000000000E+00  0.00000000000E+00  0.45387431817E+03  0.45387431818E+03  0.25500000000E-02 0. -1.
          2   -1    0    0  501    0  0.00000000000E+00 -0.00000000000E+00 -0.94536319471E+03  0.94536319471E+03  0.25500000000E-02 0.  1.
    -200001    2    1    2    0    0  0.43564074805E+01  0.16951187323E+03 -0.41198428097E+03  0.75826697210E+03  0.61358332748E+03 0.  0.
   -5000001    2    3    3    0    0  0.23582172788E+03 -0.57482364748E+02 -0.48923767477E+02  0.26115881981E+03  0.83031828491E+02 0.  0.
     200001    1    1    2    0    0 -0.43564074805E+01 -0.16951187323E+03 -0.79504595572E+02  0.64097054080E+03  0.61300000000E+03 0. -1.
         11    1    4    4    0    0  0.18248756822E+03 -0.63640542315E+02 -0.23810561240E+02  0.19472743517E+03  0.51100000000E-03 0.  1.
    -200002    1    4    4    0    0  0.53334159658E+02  0.61581775666E+01 -0.25113206237E+02  0.66431384638E+02  0.30000000000E+02 0. -1.
    -200000    1    3    3    0    0 -0.23146532040E+03  0.22699423797E+03 -0.36306051349E+03  0.49710815229E+03  0.10100000000E+03 0. -1.
<mgrwt>
<rscale>  0 0.13100780E+04</rscale>
<asrwt>0</asrwt>
<pdfrwt beam="1">  1        2 0.13505188E+00 0.13100780E+04</pdfrwt>
<pdfrwt beam="2">  1       -2 0.64839188E-01 0.13100780E+04</pdfrwt>
<totfact> 0.65422164E+01</totfact>
</mgrwt>
</event>
<event>
 8    2  0.7266322E-052  0.2029000E+04  0.7818608E-02  0.8593181E-01
         -2   -1    0    0    0  501 -0.00000000000E+00  0.00000000000E+00  0.72498971586E+03  0.72498971586E+03  0.25500000000E-02 0. -1.
          2   -1    0    0  501    0  0.00000000000E+00 -0.00000000000E+00 -0.14196209445E+04  0.14196209445E+04  0.25500000000E-02 0.  1.
    -200001    2    1    2    0    0 -0.50226492412E+03 -0.12274491201E+03  0.30852421517E+03  0.86031076865E+03  0.61450065898E+03 0.  0.
   -5000001    2    3    3    0    0  0.36442372480E+02 -0.47815002117E+01 -0.12671205779E+03  0.15055550715E+03  0.72526587455E+02 0.  0.
     200001    1    1    2    0    0  0.50226492412E+03  0.12274491201E+03 -0.10031554438E+04  0.12842998917E+04  0.61300000000E+03 0.  1.
         11    1    4    4    0    0  0.27551467765E+02  0.24424092254E+02 -0.43575425830E+02  0.57047676508E+02  0.51100000000E-03 0.  1.
    -200002    1    4    4    0    0  0.88909047149E+01 -0.29205592465E+02 -0.83136631959E+02  0.93507830642E+02  0.30000000000E+02 0.  1.
    -200000    1    3    3    0    0 -0.53870729660E+03 -0.11796341180E+03  0.43523627295E+03  0.70975526150E+03  0.10100000000E+03 0. -1.
<mgrwt>
<rscale>  0 0.20290003E+04</rscale>
<asrwt>0</asrwt>
<pdfrwt beam="1">  1        2 0.20280299E+00 0.20290003E+04</pdfrwt>
<pdfrwt beam="2">  1       -2 0.10356996E+00 0.20290003E+04</pdfrwt>
<totfact> 0.11417301E+01</totfact>
</mgrwt>
</event>
<event>
 8    2  0.7266322E-052  0.1281326E+04  0.7818608E-02  0.9044506E-01
          2   -1    0    0  501    0  0.00000000000E+00  0.00000000000E+00  0.40043668925E+04  0.40043668925E+04  0.25500000000E-02 0.  1.
         -2   -1    0    0    0  501 -0.00000000000E+00 -0.00000000000E+00 -0.10250033175E+03  0.10250033178E+03  0.25500000000E-02 0. -1.
    -200001    2    1    2    0    0 -0.36966253321E+02 -0.39595159622E+02  0.25212783385E+04  0.25953358419E+04  0.61317973824E+03 0.  0.
   -5000001    2    3    3    0    0 -0.13780166938E+03 -0.27166485568E+03  0.10477924872E+04  0.10968747383E+04  0.11168706902E+03 0.  0.
     200001    1    1    2    0    0  0.36966253321E+02  0.39595159622E+02  0.13805882222E+04  0.15115313824E+04  0.61300000000E+03 0. -1.
         11    1    4    4    0    0 -0.31424675070E+02 -0.17315306465E+03  0.59632915029E+03  0.62175393001E+03  0.51100000000E-03 0.  1.
    -200002    1    4    4    0    0 -0.10637699431E+03 -0.98511791026E+02  0.45146333694E+03  0.47512080831E+03  0.30000000000E+02 0.  1.
    -200000    1    3    3    0    0  0.10083541606E+03  0.23206969606E+03  0.14734858513E+04  0.14984611036E+04  0.10100000000E+03 0.  1.
<mgrwt>
<rscale>  0 0.12813258E+04</rscale>
<asrwt>0</asrwt>
<pdfrwt beam="1">  1        2 0.57205236E+00 0.12813258E+04</pdfrwt>
<pdfrwt beam="2">  1       -2 0.14642906E-01 0.12813258E+04</pdfrwt>
<totfact> 0.20897331E+01</totfact>
</mgrwt>
</event>
<event>
 8    2  0.7266322E-052  0.1455113E+04  0.7818608E-02  0.8914863E-01
          2   -1    0    0  501    0  0.00000000000E+00  0.00000000000E+00  0.76961529703E+03  0.76961529704E+03  0.25500000000E-02 0.  1.
         -2   -1    0    0    0  501 -0.00000000000E+00 -0.00000000000E+00 -0.68779649224E+03  0.68779649225E+03  0.25500000000E-02 0. -1.
    -200001    2    1    2    0    0  0.36912564557E+03 -0.51746340802E+02 -0.81698113430E+02  0.72158694019E+03  0.61243914352E+03 0.  0.
   -5000001    2    3    3    0    0  0.11428022668E+03 -0.20981886163E+03  0.16792209932E+03  0.31854307163E+03  0.12723180475E+03 0.  0.
     200001    1    1    2    0    0 -0.36912564557E+03  0.51746340802E+02  0.16351691822E+03  0.73582484909E+03  0.61300000000E+03 0.  1.
         11    1    4    4    0    0  0.16431095591E+02  0.84936200184E+01 -0.79209925146E+01  0.20121247625E+02  0.51100000000E-03 0.  1.
    -200002    1    4    4    0    0  0.97849131089E+02 -0.21831248165E+03  0.17584309183E+03  0.29842182401E+03  0.30000000000E+02 0.  1.
    -200000    1    3    3    0    0  0.25484541889E+03  0.15807252083E+03 -0.24962021275E+03  0.40304386856E+03  0.10100000000E+03 0. -1.
<mgrwt>
<rscale>  0 0.14551133E+04</rscale>
<asrwt>0</asrwt>
<pdfrwt beam="1">  1        2 0.10994504E+00 0.14551133E+04</pdfrwt>
<pdfrwt beam="2">  1       -2 0.98256642E-01 0.14551133E+04</pdfrwt>
<totfact> 0.33416617E+01</totfact>
</mgrwt>
</event>
<event>
 8    2  0.7266322E-052  0.1740755E+04  0.7818608E-02  0.8738456E-01
          2   -1    0    0  501    0  0.00000000000E+00  0.00000000000E+00  0.21408900170E+04  0.21408900170E+04  0.25500000000E-02 0.  1.
         -2   -1    0    0    0  501 -0.00000000000E+00 -0.00000000000E+00 -0.35385141689E+03  0.35385141690E+03  0.25500000000E-02 0. -1.
    -200001    2    1    2    0    0  0.64216935916E+02  0.53573182940E+03  0.13239053360E+04  0.15559156629E+04  0.61401612648E+03 0.  0.
   -5000001    2    3    3    0    0  0.29984556520E+03  0.18170934287E+03  0.44113273082E+03  0.57085665741E+03  0.91397969631E+02 0.  0.
     200001    1    1    2    0    0 -0.64216935916E+02 -0.53573182940E+03  0.46313326408E+03  0.93882577094E+03  0.61300000000E+03 0. -1.
         11    1    4    4    0    0  0.15879398144E+02  0.34245741875E+01  0.37470624474E+00  0.16248796842E+02  0.51100000000E-03 0.  1.
    -200002    1    4    4    0    0  0.28396616705E+03  0.17828476868E+03  0.44075802457E+03  0.55460786056E+03  0.30000000000E+02 0.  1.
    -200000    1    3    3    0    0 -0.23562862928E+03  0.35402248653E+03  0.88277260517E+03  0.98505900552E+03  0.10100000000E+03 0.  1.
<mgrwt>
<rscale>  0 0.17407550E+04</rscale>
<asrwt>0</asrwt>
<pdfrwt beam="1">  1        2 0.30584143E+00 0.17407550E+04</pdfrwt>
<pdfrwt beam="2">  1       -2 0.50550203E-01 0.17407550E+04</pdfrwt>
<totfact> 0.23879504E+01</totfact>
</mgrwt>
</event>
<event>
 8    2  0.7266322E-052  0.1347900E+04  0.7818608E-02  0.8992419E-01
         -2   -1    0    0    0  501 -0.00000000000E+00  0.00000000000E+00  0.15510064972E+03  0.15510064974E+03  0.25500000000E-02 0. -1.
          2   -1    0    0  501    0  0.00000000000E+00 -0.00000000000E+00 -0.29284769780E+04  0.29284769780E+04  0.25500000000E-02 0.  1.
    -200001    2    1    2    0    0  0.13205950824E+03  0.15331694708E+03 -0.18260213368E+04  0.19371936258E+04  0.61434470901E+03 0.  0.
   -5000001    2    3    3    0    0  0.18472289474E+03 -0.15721187354E+03 -0.40324243520E+03  0.47647380890E+03  0.74730903869E+02 0.  0.
     200001    1    1    2    0    0 -0.13205950824E+03 -0.15331694708E+03 -0.94735499145E+03  0.11463840019E+04  0.61300000000E+03 0. -1.
         11    1    4    4    0    0  0.14203158771E+03 -0.13503099560E+03 -0.29286904255E+03  0.35238986615E+03  0.51100000000E-03 0.  1.
    -200002    1    4    4    0    0  0.42691307036E+02 -0.22180877939E+02 -0.11037339265E+03  0.12408394275E+03  0.30000000000E+02 0.  1.
    -200000    1    3    3    0    0 -0.52663386505E+02  0.31052882062E+03 -0.14227789016E+04  0.14607198169E+04  0.10100000000E+03 0. -1.
<mgrwt>
<rscale>  0 0.13479001E+04</rscale>
<asrwt>0</asrwt>
<pdfrwt beam="1">  1        2 0.41835382E+00 0.13479001E+04</pdfrwt>
<pdfrwt beam="2">  1       -2 0.22157237E-01 0.13479001E+04</pdfrwt>
<totfact> 0.45372855E+01</totfact>
</mgrwt>
</event>
<event>
 8    2  0.7266322E-052  0.1698401E+04  0.7818608E-02  0.8762277E-01
          2   -1    0    0  501    0  0.00000000000E+00  0.00000000000E+00  0.13677165573E+04  0.13677165573E+04  0.25500000000E-02 0.  1.
         -2   -1    0    0    0  501 -0.00000000000E+00 -0.00000000000E+00 -0.52725953978E+03  0.52725953979E+03  0.25500000000E-02 0. -1.
    -200001    2    1    2    0    0 -0.44604995822E+03 -0.28861832728E+03  0.70030634258E+03  0.10717675477E+04  0.61318479990E+03 0.  0.
   -5000001    2    3    3    0    0 -0.49196838525E+03 -0.30834296014E+03  0.72473490994E+03  0.95646222267E+03  0.22906553769E+03 0.  0.
     200001    1    1    2    0    0  0.44604995822E+03  0.28861832728E+03  0.14015067495E+03  0.82320854937E+03  0.61300000000E+03 0.  1.
         11    1    4    4    0    0 -0.33103760682E+03 -0.21710973471E+03  0.63590972292E+03  0.74906856144E+03  0.51100000000E-03 0.  1.
    -200002    1    4    4    0    0 -0.16093077843E+03 -0.91233225431E+02  0.88825187020E+02  0.20739366123E+03  0.30000000000E+02 0.  1.
    -200000    1    3    3    0    0  0.45918427032E+02  0.19724632861E+02 -0.24428567361E+02  0.11530532505E+03  0.10100000000E+03 0. -1.
<mgrwt>
<rscale>  0 0.16984011E+04</rscale>
<asrwt>0</asrwt>
<pdfrwt beam="1">  1        2 0.19538808E+00 0.16984011E+04</pdfrwt>
<pdfrwt beam="2">  1       -2 0.75322792E-01 0.16984011E+04</pdfrwt>
<totfact> 0.26002016E+01</totfact>
</mgrwt>
</event>
<event>
 8    2  0.7266322E-052  0.1360720E+04  0.7818608E-02  0.8982753E-01
         -2   -1    0    0    0  501 -0.00000000000E+00  0.00000000000E+00  0.43928111278E+03  0.43928111278E+03  0.25500000000E-02 0. -1.
          2   -1    0    0  501    0  0.00000000000E+00 -0.00000000000E+00 -0.10537432475E+04  0.10537432475E+04  0.25500000000E-02 0.  1.
    -200001    2    1    2    0    0 -0.91437374328E+02 -0.27851113255E+03 -0.26875099952E+03  0.73065015203E+03  0.61293825182E+03 0.  0.
   -5000001    2    3    3    0    0  0.59685125834E+02  0.16593234743E+03 -0.13634275831E+03  0.23255281286E+03  0.66299357898E+02 0.  0.
     200001    1    1    2    0    0  0.91437374328E+02  0.27851113255E+03 -0.34571113517E+03  0.76237420822E+03  0.61300000000E+03 0.  1.
         11    1    4    4    0    0  0.51041150078E-02  0.77650007291E+02 -0.53934335636E+02  0.94543303407E+02  0.51100000000E-03 0.  1.
    -200002    1    4    4    0    0  0.59680021719E+02  0.88282340139E+02 -0.82408422675E+02  0.13800950946E+03  0.30000000000E+02 0.  1.
    -200000    1    3    3    0    0 -0.15112250016E+03 -0.44444347998E+03 -0.13240824120E+03  0.49809733917E+03  0.10100000000E+03 0. -1.
<mgrwt>
<rscale>  0 0.13607197E+04</rscale>
<asrwt>0</asrwt>
<pdfrwt beam="1">  1        2 0.15053475E+00 0.13607197E+04</pdfrwt>
<pdfrwt beam="2">  1       -2 0.62754445E-01 0.13607197E+04</pdfrwt>
<totfact> 0.59901773E+01</totfact>
</mgrwt>
</event>
<event>
 8    2  0.7266322E-052  0.1256223E+04  0.7818608E-02  0.9065020E-01
         -2   -1    0    0    0  501 -0.00000000000E+00  0.00000000000E+00  0.22134021165E+03  0.22134021167E+03  0.25500000000E-02 0. -1.
          2   -1    0    0  501    0  0.00000000000E+00 -0.00000000000E+00 -0.17824332997E+04  0.17824332997E+04  0.25500000000E-02 0.  1.
    -200001    2    1    2    0    0 -0.75263554350E+02  0.12711037299E+03 -0.74301745435E+03  0.97089481956E+03  0.60723979090E+03 0.  0.
   -5000001    2    3    3    0    0 -0.28252235993E+03  0.10337797463E+03 -0.65347399211E+03  0.72242254576E+03  0.66031710218E+02 0.  0.
     200001    1    1    2    0    0  0.75263554350E+02 -0.12711037299E+03 -0.81807563369E+03  0.10328786918E+04  0.61300000000E+03 0. -1.
         11    1    4    4    0    0 -0.11517878385E+03  0.69498299762E+02 -0.27526651494E+03  0.30637855696E+03  0.51100000000E-03 0.  1.
    -200002    1    4    4    0    0 -0.16734357608E+03  0.33879674869E+02 -0.37820747717E+03  0.41604398880E+03  0.30000000000E+02 0.  1.
    -200000    1    3    3    0    0  0.20725880558E+03  0.23732398356E+02 -0.89543462241E+02  0.24847227381E+03  0.10100000000E+03 0. -1.
<mgrwt>
<rscale>  0 0.12562232E+04</rscale>
<asrwt>0</asrwt>
<pdfrwt beam="1">  1        2 0.25463332E+00 0.12562232E+04</pdfrwt>
<pdfrwt beam="2">  1       -2 0.31620031E-01 0.12562232E+04</pdfrwt>
<totfact> 0.94910424E+01</totfact>
</mgrwt>
</event>
<event>
 8    2  0.7266322E-052  0.2337527E+04  0.7818608E-02  0.8463270E-01
         -2   -1    0    0    0  501 -0.00000000000E+00  0.00000000000E+00  0.13286779034E+04  0.13286779034E+04  0.25500000000E-02 0. -1.
          2   -1    0    0  501    0  0.00000000000E+00 -0.00000000000E+00 -0.10280960430E+04  0.10280960430E+04  0.25500000000E-02 0.  1.
    -200001    2    1    2    0    0  0.21504038165E+03  0.36723692071E+03  0.10569435140E+04  0.12942499360E+04  0.61387945341E+03 0.  0.
   -5000001    2    3    3    0    0  0.15786879873E+03  0.28426432858E+03  0.13361538401E+03  0.35996471370E+03  0.77412906861E+02 0.  0.
     200001    1    1    2    0    0 -0.21504038165E+03 -0.36723692071E+03 -0.75636165359E+03  0.10625240104E+04  0.61300000000E+03 0.  1.
         11    1    4    4    0    0  0.63968773046E+02  0.13696334775E+03  0.28290844952E+02  0.15378990363E+03  0.51100000000E-03 0.  1.
    -200002    1    4    4    0    0  0.93900025681E+02  0.14730098083E+03  0.10532453906E+03  0.20617481007E+03  0.30000000000E+02 0.  1.
    -200000    1    3    3    0    0  0.57171582923E+02  0.82972592135E+02  0.92332813002E+03  0.93428522231E+03  0.10100000000E+03 0. -1.
<mgrwt>
<rscale>  0 0.23375273E+04</rscale>
<asrwt>0</asrwt>
<pdfrwt beam="1">  1        2 0.14687086E+00 0.23375273E+04</pdfrwt>
<pdfrwt beam="2">  1       -2 0.18981113E+00 0.23375273E+04</pdfrwt>
<totfact> 0.38102732E+00</totfact>
</mgrwt>
</event>
<event>
 8    2  0.7266322E-052  0.1571550E+04  0.7818608E-02  0.8838219E-01
         -2   -1    0    0    0  501 -0.00000000000E+00  0.00000000000E+00  0.54905910989E+03  0.54905910990E+03  0.25500000000E-02 0. -1.
          2   -1    0    0  501    0  0.00000000000E+00 -0.00000000000E+00 -0.11245457505E+04  0.11245457505E+04  0.25500000000E-02 0.  1.
    -200001    2    1    2    0    0  0.78135280775E+02  0.30392476019E+03 -0.69051076963E+03  0.97541080989E+03  0.61330721757E+03 0.  0.
   -5000001    2    3    3    0    0  0.16775980101E+03 -0.81454177301E+02 -0.44694967594E+02  0.21132408036E+03  0.88781152138E+02 0.  0.
     200001    1    1    2    0    0 -0.78135280775E+02 -0.30392476019E+03  0.11502412899E+03  0.69819405054E+03  0.61300000000E+03 0. -1.
         11    1    4    4    0    0  0.63147300790E+02 -0.36079188069E+02 -0.57512506832E+02  0.92719889188E+02  0.51100000000E-03 0.  1.
    -200002    1    4    4    0    0  0.10461250022E+03 -0.45374989232E+02  0.12817539238E+02  0.11860419117E+03  0.30000000000E+02 0.  1.
    -200000    1    3    3    0    0 -0.89624520238E+02  0.38537893749E+03 -0.64581580203E+03  0.76408672953E+03  0.10100000000E+03 0.  1.
<mgrwt>
<rscale>  0 0.15715497E+04</rscale>
<asrwt>0</asrwt>
<pdfrwt beam="1">  1        2 0.16064939E+00 0.15715497E+04</pdfrwt>
<pdfrwt beam="2">  1       -2 0.78437016E-01 0.15715497E+04</pdfrwt>
<totfact> 0.32889155E+01</totfact>
</mgrwt>
</event>
<event>
 8    2  0.7266322E-052  0.1462850E+04  0.7818608E-02  0.8909540E-01
         -2   -1    0    0    0  501 -0.00000000000E+00  0.00000000000E+00  0.25892217733E+03  0.25892217734E+03  0.25500000000E-02 0. -1.
          2   -1    0    0  501    0  0.00000000000E+00 -0.00000000000E+00 -0.20661900507E+04  0.20661900507E+04  0.25500000000E-02 0.  1.
    -200001    2    1    2    0    0 -0.27818256451E+03 -0.27864748560E+02 -0.13563119164E+04  0.15143766001E+04  0.61285600977E+03 0.  0.
   -5000001    2    3    3    0    0 -0.25697344246E+03 -0.27644186590E+03 -0.88453935931E+03  0.97122767408E+03  0.13571242160E+03 0.  0.
     200001    1    1    2    0    0  0.27818256451E+03  0.27864748560E+02 -0.45095595696E+03  0.81073562801E+03  0.61300000000E+03 0. -1.
         11    1    4    4    0    0 -0.78045878525E+01 -0.53140693222E+02 -0.58099596290E+02  0.79122739823E+02  0.51100000000E-03 0.  1.
    -200002    1    4    4    0    0 -0.24916885461E+03 -0.22330117268E+03 -0.82643976302E+03  0.89210493426E+03  0.30000000000E+02 0.  1.
    -200000    1    3    3    0    0 -0.21209122049E+02  0.24857711734E+03 -0.47177255713E+03  0.54314892597E+03  0.10100000000E+03 0. -1.
<mgrwt>
<rscale>  0 0.14628499E+04</rscale>
<asrwt>0</asrwt>
<pdfrwt beam="1">  1        2 0.29517000E+00 0.14628499E+04</pdfrwt>
<pdfrwt beam="2">  1       -2 0.36988884E-01 0.14628499E+04</pdfrwt>
<totfact> 0.49560370E+01</totfact>
</mgrwt>
</event>
<event>
 8    2  0.7266322E-052  0.1709933E+04  0.7818608E-02  0.8755720E-01
          2   -1    0    0  501    0  0.00000000000E+00  0.00000000000E+00  0.19387509255E+04  0.19387509255E+04  0.25500000000E-02 0.  1.
         -2   -1    0    0    0  501 -0.00000000000E+00 -0.00000000000E+00 -0.37703012979E+03  0.37703012980E+03  0.25500000000E-02 0. -1.
    -200001    2    1    2    0    0  0.24125393417E+03  0.44396109247E+03  0.35109043013E+03  0.86778250750E+03  0.61194532256E+03 0.  0.
   -5000001    2    3    3    0    0  0.78284778334E+02  0.52126097817E+03  0.12258396812E+03  0.55964224517E+03  0.14258716444E+03 0.  0.
     200001    1    1    2    0    0 -0.24125393417E+03 -0.44396109247E+03  0.12106303655E+04  0.14479985478E+04  0.61300000000E+03 0.  1.
         11    1    4    4    0    0 -0.36737428212E+02  0.87753536844E+02  0.36901835761E+02  0.10203953814E+03  0.51100000000E-03 0.  1.
    -200002    1    4    4    0    0  0.11502220655E+03  0.43350744132E+03  0.85682132357E+02  0.45760270704E+03  0.30000000000E+02 0.  1.
    -200000    1    3    3    0    0  0.16296915584E+03 -0.77299885695E+02  0.22850646201E+03  0.30814026232E+03  0.10100000000E+03 0.  1.
<mgrwt>
<rscale>  0 0.17099328E+04</rscale>
<asrwt>0</asrwt>
<pdfrwt beam="1">  1        2 0.27696442E+00 0.17099328E+04</pdfrwt>
<pdfrwt beam="2">  1       -2 0.53861446E-01 0.17099328E+04</pdfrwt>
<totfact> 0.26701079E+01</totfact>
</mgrwt>
</event>
<event>
 8    2  0.7266322E-052  0.1401861E+04  0.7818608E-02  0.8952473E-01
          2   -1    0    0  501    0  0.00000000000E+00  0.00000000000E+00  0.65477658430E+03  0.65477658430E+03  0.25500000000E-02 0. -1.
         -2   -1    0    0    0  501 -0.00000000000E+00 -0.00000000000E+00 -0.75033744870E+03  0.75033744870E+03  0.25500000000E-02 0.  1.
    -200001    2    1    2    0    0 -0.14046393724E+03 -0.23457097669E+03  0.15409301852E+03  0.68897876504E+03  0.61334608465E+03 0.  0.
   -5000001    2    3    3    0    0 -0.26479434120E+02  0.18724924942E+03  0.12586665028E+03  0.23962089211E+03  0.76238549581E+02 0.  0.
     200001    1    1    2    0    0  0.14046393724E+03  0.23457097669E+03 -0.24965388292E+03  0.71613526797E+03  0.61300000000E+03 0.  1.
         11    1    4    4    0    0  0.32817122116E+01  0.12776501820E+03  0.59465623700E+02  0.14096393125E+03  0.51100000000E-03 0.  1.
    -200002    1    4    4    0    0 -0.29761146332E+02  0.59484231213E+02  0.66401026582E+02  0.98656960855E+02  0.30000000000E+02 0.  1.
    -200000    1    3    3    0    0 -0.11398450312E+03 -0.42182022611E+03  0.28226368235E+02  0.44935787294E+03  0.10100000000E+03 0. -1.
<mgrwt>
<rscale>  0 0.14018608E+04</rscale>
<asrwt>0</asrwt>
<pdfrwt beam="1">  1        2 0.93539512E-01 0.14018608E+04</pdfrwt>
<pdfrwt beam="2">  1       -2 0.10719106E+00 0.14018608E+04</pdfrwt>
<totfact> 0.33310854E+01</totfact>
</mgrwt>
</event>
<event>
 8    2  0.7266322E-052  0.1592366E+04  0.7818608E-02  0.8825252E-01
         -2   -1    0    0    0  501 -0.00000000000E+00  0.00000000000E+00  0.35426342757E+03  0.35426342758E+03  0.25500000000E-02 0. -1.
          2   -1    0    0  501    0  0.00000000000E+00 -0.00000000000E+00 -0.17893670281E+04  0.17893670281E+04  0.25500000000E-02 0.  1.
    -200001    2    1    2    0    0  0.17912791470E+03 -0.27743296661E+03 -0.19826998606E+03  0.72427065257E+03  0.61335237019E+03 0.  0.
   -5000001    2    3    3    0    0 -0.10646303457E+03 -0.18400348744E+02 -0.12963869848E+02  0.28472606538E+03  0.26311199103E+03 0.  0.
     200001    1    1    2    0    0 -0.17912791470E+03  0.27743296661E+03 -0.12368336144E+04  0.14193598031E+04  0.61300000000E+03 0.  1.
         11    1    4    4    0    0 -0.11297279282E+03 -0.11409617372E+03  0.47497085756E+02  0.16744181656E+03  0.51100000000E-03 0.  1.
    -200002    1    4    4    0    0  0.65097582568E+01  0.95695824977E+02 -0.60460955604E+02  0.11728424883E+03  0.30000000000E+02 0.  1.
    -200000    1    3    3    0    0  0.28559094926E+03 -0.25903261787E+03 -0.18530611621E+03  0.43954458719E+03  0.10100000000E+03 0.  1.
<mgrwt>
<rscale>  0 0.15923659E+04</rscale>
<asrwt>0</asrwt>
<pdfrwt beam="1">  1        2 0.25562386E+00 0.15923659E+04</pdfrwt>
<pdfrwt beam="2">  1       -2 0.50609062E-01 0.15923659E+04</pdfrwt>
<totfact> 0.36572853E+01</totfact>
</mgrwt>
</event>
<event>
 8    2  0.7266322E-052  0.1382111E+04  0.7818608E-02  0.8966870E-01
         -2   -1    0    0    0  501 -0.00000000000E+00  0.00000000000E+00  0.95768829395E+03  0.95768829395E+03  0.25500000000E-02 0. -1.
          2   -1    0    0  501    0  0.00000000000E+00 -0.00000000000E+00 -0.49865658648E+03  0.49865658649E+03  0.25500000000E-02 0.  1.
    -200001    2    1    2    0    0 -0.41744166824E+02 -0.28903996998E+03  0.36506903984E+03  0.77086354399E+03  0.61291803684E+03 0.  0.
   -5000001    2    3    3    0    0 -0.30452162490E+02  0.14602452455E+03 -0.23325013616E+02  0.17886729018E+03  0.95911184260E+02 0.  0.
     200001    1    1    2    0    0  0.41744166824E+02  0.28903996998E+03  0.93962667626E+02  0.68548133645E+03  0.61300000000E+03 0.  1.
         11    1    4    4    0    0 -0.16967184887E+02  0.14324931830E+03 -0.16870051233E+02  0.14523378115E+03  0.51100000000E-03 0.  1.
    -200002    1    4    4    0    0 -0.13484977603E+02  0.27752062477E+01 -0.64549623832E+01  0.33633509035E+02  0.30000000000E+02 0.  1.
    -200000    1    3    3    0    0 -0.11292004334E+02 -0.43506449453E+03  0.38839405346E+03  0.59199625381E+03  0.10100000000E+03 0. -1.
<mgrwt>
<rscale>  0 0.13821108E+04</rscale>
<asrwt>0</asrwt>
<pdfrwt beam="1">  1        2 0.71236655E-01 0.13821108E+04</pdfrwt>
<pdfrwt beam="2">  1       -2 0.13681261E+00 0.13821108E+04</pdfrwt>
<totfact> 0.25050278E+01</totfact>
</mgrwt>
</event>
<event>
 8    2  0.7266322E-052  0.1298653E+04  0.7818608E-02  0.9030634E-01
         -2   -1    0    0    0  501 -0.00000000000E+00  0.00000000000E+00  0.10910370120E+04  0.10910370120E+04  0.25500000000E-02 0. -1.
          2   -1    0    0  501    0  0.00000000000E+00 -0.00000000000E+00 -0.38644398211E+03  0.38644398211E+03  0.25500000000E-02 0.  1.
    -200001    2    1    2    0    0 -0.13519598402E+03 -0.16057651196E+03  0.35971514663E+03  0.74346973761E+03  0.61586483399E+03 0.  0.
   -5000001    2    3    3    0    0  0.15591105574E+03 -0.26099097617E+03  0.12892041175E+03  0.34560847679E+03  0.10198136947E+03 0.  0.
     200001    1    1    2    0    0  0.13519598402E+03  0.16057651196E+03  0.34487788324E+03  0.73401125648E+03  0.61300000000E+03 0. -1.
         11    1    4    4    0    0  0.29029725080E+01  0.32281677098E-01  0.23688550774E+02  0.23865785752E+02  0.51100000000E-03 0.  1.
    -200002    1    4    4    0    0  0.15300808323E+03 -0.26102325785E+03  0.10523186097E+03  0.32174269104E+03  0.30000000000E+02 0.  1.
    -200000    1    3    3    0    0 -0.29110703975E+03  0.10041446421E+03  0.23079473488E+03  0.39786126082E+03  0.10100000000E+03 0. -1.
<mgrwt>
<rscale>  0 0.12986527E+04</rscale>
<asrwt>0</asrwt>
<pdfrwt beam="1">  1        2 0.55206283E-01 0.12986527E+04</pdfrwt>
<pdfrwt beam="2">  1       -2 0.15586243E+00 0.12986527E+04</pdfrwt>
<totfact> 0.23839580E+01</totfact>
</mgrwt>
</event>
<event>
 8    2  0.7266322E-052  0.3699825E+04  0.7818608E-02  0.8068001E-01
         -2   -1    0    0    0  501 -0.00000000000E+00  0.00000000000E+00  0.19047565825E+04  0.19047565825E+04  0.25500000000E-02 0. -1.
          2   -1    0    0  501    0  0.00000000000E+00 -0.00000000000E+00 -0.17966472713E+04  0.17966472713E+04  0.25500000000E-02 0.  1.
    -200001    2    1    2    0    0  0.48769893757E+02 -0.16540162599E+04 -0.50118618112E+03  0.18345459890E+04  0.61337028544E+03 0.  0.
   -5000001    2    3    3    0    0  0.36171917118E+02 -0.46454434315E+03 -0.43000875376E+03  0.63860728826E+03  0.76170112107E+02 0.  0.
     200001    1    1    2    0    0 -0.48769893757E+02  0.16540162599E+04  0.60929549233E+03  0.18668578648E+04  0.61300000000E+03 0. -1.
         11    1    4    4    0    0 -0.16752701891E+02 -0.19288967387E+03 -0.16886978152E+03  0.25691259684E+03  0.51100000000E-03 0.  1.
    -200002    1    4    4    0    0  0.52924619008E+02 -0.27165466928E+03 -0.26113897224E+03  0.38169469142E+03  0.30000000000E+02 0.  1.
    -200000    1    3    3    0    0  0.12597976640E+02 -0.11894719167E+04 -0.71177427369E+02  0.11959387007E+04  0.10100000000E+03 0.  1.
<mgrwt>
<rscale>  0 0.36998247E+04</rscale>
<asrwt>0</asrwt>
<pdfrwt beam="1">  1        2 0.25666389E+00 0.36998247E+04</pdfrwt>
<pdfrwt beam="2">  1       -2 0.27210808E+00 0.36998247E+04</pdfrwt>
<totfact> 0.39256751E-01</totfact>
</mgrwt>
</event>
<event>
 8    2  0.7266322E-052  0.1468690E+04  0.7818608E-02  0.8905545E-01
         -2   -1    0    0    0  501 -0.00000000000E+00  0.00000000000E+00  0.15021785359E+03  0.15021785361E+03  0.25500000000E-02 0. -1.
          2   -1    0    0  501    0  0.00000000000E+00 -0.00000000000E+00 -0.35898693433E+04  0.35898693433E+04  0.25500000000E-02 0.  1.
    -200001    2    1    2    0    0  0.22374158564E+02 -0.40262088143E+03 -0.16606871686E+04  0.18157464701E+04  0.61355455711E+03 0.  0.
   -5000001    2    3    3    0    0  0.14041317816E+03 -0.53669629087E+01 -0.10948359135E+04  0.11071333677E+04  0.85638493594E+02 0.  0.
     200001    1    1    2    0    0 -0.22374158564E+02  0.40262088143E+03 -0.17789643211E+04  0.19243407268E+04  0.61300000000E+03 0. -1.
         11    1    4    4    0    0  0.10385552181E+03 -0.30669963398E+02 -0.81932973215E+03  0.82645497521E+03  0.51100000000E-03 0.  1.
    -200002    1    4    4    0    0  0.36557656347E+02  0.25303000490E+02 -0.27550618136E+03  0.28067839254E+03  0.30000000000E+02 0. -1.
    -200000    1    3    3    0    0 -0.11803901960E+03 -0.39725391852E+03 -0.56585125514E+03  0.70861310238E+03  0.10100000000E+03 0. -1.
<mgrwt>
<rscale>  0 0.14686898E+04</rscale>
<asrwt>0</asrwt>
<pdfrwt beam="1">  1        2 0.51283842E+00 0.14686898E+04</pdfrwt>
<pdfrwt beam="2">  1       -2 0.21459696E-01 0.14686898E+04</pdfrwt>
<totfact> 0.19599407E+01</totfact>
</mgrwt>
</event>
<event>
 8    2  0.7266322E-052  0.1290673E+04  0.7818608E-02  0.9036994E-01
          2   -1    0    0  501    0  0.00000000000E+00  0.00000000000E+00  0.18370636582E+04  0.18370636582E+04  0.25500000000E-02 0.  1.
         -2   -1    0    0    0  501 -0.00000000000E+00 -0.00000000000E+00 -0.22669840519E+03  0.22669840520E+03  0.25500000000E-02 0. -1.
    -200001    2    1    2    0    0 -0.96730412104E+02 -0.17463510230E+03  0.71854987173E+03  0.96332675595E+03  0.60977891812E+03 0.  0.
   -5000001    2    3    3    0    0  0.34371172776E+02 -0.36826789784E+03  0.38626729715E+03  0.54464549958E+03  0.10311970360E+03 0.  0.
     200001    1    1    2    0    0  0.96730412104E+02  0.17463510230E+03  0.89181538126E+03  0.11004353074E+04  0.61300000000E+03 0.  1.
         11    1    4    4    0    0  0.32762728459E+02 -0.35645860813E+02  0.66607608308E+02  0.82344382043E+02  0.51100000000E-03 0.  1.
    -200002    1    4    4    0    0  0.16084443167E+01 -0.33262203702E+03  0.31965968884E+03  0.46230111754E+03  0.30000000000E+02 0.  1.
    -200000    1    3    3    0    0 -0.13110158488E+03  0.19363279554E+03  0.33228257458E+03  0.41868125637E+03  0.10100000000E+03 0. -1.
<mgrwt>
<rscale>  0 0.12906733E+04</rscale>
<asrwt>0</asrwt>
<pdfrwt beam="1">  1        2 0.26243767E+00 0.12906733E+04</pdfrwt>
<pdfrwt beam="2">  1       -2 0.32385486E-01 0.12906733E+04</pdfrwt>
<totfact> 0.84827667E+01</totfact>
</mgrwt>
</event>
<event>
 8    2  0.7266322E-052  0.1759196E+04  0.7818608E-02  0.8728304E-01
          2   -1    0    0  501    0  0.00000000000E+00  0.00000000000E+00  0.26814660580E+04  0.26814660580E+04  0.25500000000E-02 0.  1.
         -2   -1    0    0    0  501 -0.00000000000E+00 -0.00000000000E+00 -0.28853357005E+03  0.28853357006E+03  0.25500000000E-02 0. -1.
    -200001    2    1    2    0    0  0.10721556007E+03 -0.11034882592E+03  0.16349874213E+03  0.65271331285E+03  0.61288725748E+03 0.  0.
   -5000001    2    3    3    0    0  0.11529007877E+03  0.17876464610E+03  0.48040479705E+02  0.32532454101E+03  0.24141161599E+03 0.  0.
     200001    1    1    2    0    0 -0.10721556007E+03  0.11034882592E+03  0.22294337458E+04  0.23172863152E+04  0.61300000000E+03 0.  1.
         11    1    4    4    0    0 -0.68945146885E+02  0.68228332832E+02 -0.17801375752E+02  0.98617582910E+02  0.51100000000E-03 0.  1.
    -200002    1    4    4    0    0  0.18423522565E+03  0.11053631327E+03  0.65841855457E+02  0.22670695810E+03  0.30000000000E+02 0.  1.
    -200000    1    3    3    0    0 -0.80745186965E+01 -0.28911347202E+03  0.11545826243E+03  0.32738877183E+03  0.10100000000E+03 0.  1.
<mgrwt>
<rscale>  0 0.17591964E+04</rscale>
<asrwt>0</asrwt>
<pdfrwt beam="1">  1        2 0.38306659E+00 0.17591964E+04</pdfrwt>
<pdfrwt beam="2">  1       -2 0.41219080E-01 0.17591964E+04</pdfrwt>
<totfact> 0.18698235E+01</totfact>
</mgrwt>
</event>
<event>
 8    2  0.7266322E-052  0.2127710E+04  0.7818608E-02  0.8549134E-01
          2   -1    0    0  501    0  0.00000000000E+00  0.00000000000E+00  0.90171990996E+03  0.90171990996E+03  0.25500000000E-02 0.  1.
         -2   -1    0    0    0  501 -0.00000000000E+00 -0.00000000000E+00 -0.12551425208E+04  0.12551425208E+04  0.25500000000E-02 0. -1.
    -200001    2    1    2    0    0  0.17133646125E+03  0.57900318753E+03  0.45766656665E+03  0.97439233474E+03  0.61268332901E+03 0.  0.
   -5000001    2    3    3    0    0  0.11090161438E+03  0.38869599738E+03  0.58052105456E+03  0.71912106229E+03  0.12940889068E+03 0.  0.
     200001    1    1    2    0    0 -0.17133646125E+03 -0.57900318753E+03 -0.81108917747E+03  0.11824700960E+04  0.61300000000E+03 0. -1.
         11    1    4    4    0    0  0.11856649138E+03  0.31985428023E+03  0.52213837189E+03  0.62369323618E+03  0.51100000000E-03 0.  1.
    -200002    1    4    4    0    0 -0.76648769971E+01  0.68841717150E+02  0.58382682673E+02  0.95427826108E+02  0.30000000000E+02 0. -1.
    -200000    1    3    3    0    0  0.60434846869E+02  0.19030719015E+03 -0.12285448791E+03  0.25527127246E+03  0.10100000000E+03 0. -1.
<mgrwt>
<rscale>  0 0.21277096E+04</rscale>
<asrwt>0</asrwt>
<pdfrwt beam="1">  1        2 0.12881713E+00 0.21277096E+04</pdfrwt>
<pdfrwt beam="2">  1       -2 0.17930607E+00 0.21277096E+04</pdfrwt>
<totfact> 0.54888177E+00</totfact>
</mgrwt>
</event>
<event>
 8    2  0.7266322E-052  0.1392562E+04  0.7818608E-02  0.8959220E-01
         -2   -1    0    0    0  501 -0.00000000000E+00  0.00000000000E+00  0.22327645253E+03  0.22327645255E+03  0.25500000000E-02 0. -1.
          2   -1    0    0  501    0  0.00000000000E+00 -0.00000000000E+00 -0.21713308851E+04  0.21713308851E+04  0.25500000000E-02 0.  1.
    -200001    2    1    2    0    0  0.19494036862E+03 -0.20998543663E+03 -0.12565735136E+04  0.14271309853E+04  0.61288679492E+03 0.  0.
   -5000001    2    3    3    0    0  0.27306661510E+03 -0.29724141575E+03 -0.11906467850E+04  0.12590100473E+04  0.67444027883E+02 0.  0.
     200001    1    1    2    0    0 -0.19494036862E+03  0.20998543663E+03 -0.69148091895E+03  0.96747635226E+03  0.61300000000E+03 0.  1.
         11    1    4    4    0    0  0.47232644541E+01 -0.24480973969E+02 -0.59089902214E+02  0.64134576147E+02  0.51100000000E-03 0.  1.
    -200002    1    4    4    0    0  0.26834335065E+03 -0.27276044178E+03 -0.11315568828E+04  0.11948754711E+04  0.30000000000E+02 0.  1.
    -200000    1    3    3    0    0 -0.78126246484E+02  0.87255979116E+02 -0.65926728541E+02  0.16812093807E+03  0.10100000000E+03 0. -1.
<mgrwt>
<rscale>  0 0.13925618E+04</rscale>
<asrwt>0</asrwt>
<pdfrwt beam="1">  1        2 0.31019011E+00 0.13925618E+04</pdfrwt>
<pdfrwt beam="2">  1       -2 0.31896637E-01 0.13925618E+04</pdfrwt>
<totfact> 0.58337641E+01</totfact>
</mgrwt>
</event>
<event>
 8    2  0.7266322E-052  0.1506095E+04  0.7818608E-02  0.8880410E-01
         -2   -1    0    0    0  501 -0.00000000000E+00  0.00000000000E+00  0.34545577273E+03  0.34545577274E+03  0.25500000000E-02 0. -1.
          2   -1    0    0  501    0  0.00000000000E+00 -0.00000000000E+00 -0.16415437634E+04  0.16415437634E+04  0.25500000000E-02 0.  1.
    -200001    2    1    2    0    0  0.20609709437E+03 -0.11629493338E+03 -0.16222462307E+03  0.67649747195E+03  0.61264302607E+03 0.  0.
   -5000001    2    3    3    0    0  0.28604250417E+02  0.17785364959E+03 -0.24094972899E+03  0.30985631112E+03  0.74189202895E+02 0.  0.
     200001    1    1    2    0    0 -0.20609709437E+03  0.11629493338E+03 -0.11338633676E+04  0.13105020642E+04  0.61300000000E+03 0.  1.
         11    1    4    4    0    0  0.33656461618E+02  0.11000919840E+03 -0.10943851444E+03  0.15878151525E+03  0.51100000000E-03 0.  1.
    -200002    1    4    4    0    0 -0.50522112014E+01  0.67844451185E+02 -0.13151121455E+03  0.15107479587E+03  0.30000000000E+02 0.  1.
    -200000    1    3    3    0    0  0.17749284396E+03 -0.29414858297E+03  0.78725105920E+02  0.36664116083E+03  0.10100000000E+03 0. -1.
<mgrwt>
<rscale>  0 0.15060953E+04</rscale>
<asrwt>0</asrwt>
<pdfrwt beam="1">  1        2 0.23450625E+00 0.15060953E+04</pdfrwt>
<pdfrwt beam="2">  1       -2 0.49350825E-01 0.15060953E+04</pdfrwt>
<totfact> 0.46250181E+01</totfact>
</mgrwt>
</event>
<event>
 8    2  0.7266322E-052  0.1230714E+04  0.7818608E-02  0.9086389E-01
          2   -1    0    0  501    0  0.00000000000E+00  0.00000000000E+00  0.41876107321E+03  0.41876107322E+03  0.25500000000E-02 0.  1.
         -2   -1    0    0    0  501 -0.00000000000E+00 -0.00000000000E+00 -0.90424928853E+03  0.90424928854E+03  0.25500000000E-02 0. -1.
    -200001    2    1    2    0    0  0.11792264101E+02  0.41361991684E+02 -0.28145290251E+03  0.67551574346E+03  0.61258135090E+03 0.  0.
   -5000001    2    3    3    0    0  0.16163370564E+03  0.25054809574E+03 -0.52276940439E+02  0.31644206672E+03  0.92211170738E+02 0.  0.
     200001    1    1    2    0    0 -0.11792264101E+02 -0.41361991684E+02 -0.20403531281E+03  0.64749461830E+03  0.61300000000E+03 0.  1.
         11    1    4    4    0    0  0.12249445822E+02  0.51089156792E+02  0.18429842031E+02  0.55675936833E+02  0.51100000000E-03 0.  1.
    -200002    1    4    4    0    0  0.14938425982E+03  0.19945893895E+03 -0.70706782470E+02  0.26076612989E+03  0.30000000000E+02 0.  1.
    -200000    1    3    3    0    0 -0.14984144154E+03 -0.20918610406E+03 -0.22917596207E+03  0.35907367674E+03  0.10100000000E+03 0. -1.
<mgrwt>
<rscale>  0 0.12307143E+04</rscale>
<asrwt>0</asrwt>
<pdfrwt beam="1">  1        2 0.59823011E-01 0.12307143E+04</pdfrwt>
<pdfrwt beam="2">  1       -2 0.12917847E+00 0.12307143E+04</pdfrwt>
<totfact> 0.35719022E+01</totfact>
</mgrwt>
</event>
<event>
 8    2  0.7266322E-052  0.1494192E+04  0.7818608E-02  0.8888325E-01
          2   -1    0    0  501    0  0.00000000000E+00  0.00000000000E+00  0.30757816758E+04  0.30757816758E+04  0.25500000000E-02 0.  1.
         -2   -1    0    0    0  501 -0.00000000000E+00 -0.00000000000E+00 -0.18146679445E+03  0.18146679447E+03  0.25500000000E-02 0. -1.
    -200001    2    1    2    0    0  0.36307774514E+03  0.19848862516E+03  0.16759300771E+04  0.18319577229E+04  0.61327342336E+03 0.  0.
   -5000001    2    3    3    0    0 -0.14855303570E+03  0.12511947733E+01  0.56518083270E+03  0.58912485247E+03  0.74626726093E+02 0.  0.
     200001    1    1    2    0    0 -0.36307774514E+03 -0.19848862516E+03  0.12183848043E+04  0.14252907474E+04  0.61300000000E+03 0.  1.
         11    1    4    4    0    0 -0.93832135377E+02 -0.13936885050E+02  0.24836523400E+03  0.26586461941E+03  0.51100000000E-03 0.  1.
    -200002    1    4    4    0    0 -0.54720900328E+02  0.15188079823E+02  0.31681559870E+03  0.32326023307E+03  0.30000000000E+02 0.  1.
    -200000    1    3    3    0    0  0.51163078084E+03  0.19723743039E+03  0.11107492444E+04  0.12428328704E+04  0.10100000000E+03 0. -1.
<mgrwt>
<rscale>  0 0.14941917E+04</rscale>
<asrwt>0</asrwt>
<pdfrwt beam="1">  1        2 0.43939743E+00 0.14941917E+04</pdfrwt>
<pdfrwt beam="2">  1       -2 0.25923825E-01 0.14941917E+04</pdfrwt>
<totfact> 0.27944808E+01</totfact>
</mgrwt>
</event>
<event>
 8    2  0.7266322E-052  0.1491311E+04  0.7818608E-02  0.8890251E-01
          2   -1    0    0  501    0  0.00000000000E+00  0.00000000000E+00  0.24685131059E+04  0.24685131059E+04  0.25500000000E-02 0.  1.
         -2   -1    0    0    0  501 -0.00000000000E+00 -0.00000000000E+00 -0.22523780463E+03  0.22523780464E+03  0.25500000000E-02 0. -1.
    -200001    2    1    2    0    0 -0.27308835895E+03 -0.32268368449E+03  0.11991789759E+04  0.14113281454E+04  0.61246624852E+03 0.  0.
   -5000001    2    3    3    0    0 -0.22177454522E+03  0.13213094318E+03  0.41540256552E+03  0.49809437764E+03  0.94319576642E+02 0.  0.
     200001    1    1    2    0    0  0.27308835895E+03  0.32268368449E+03  0.10440963254E+04  0.12824227652E+04  0.61300000000E+03 0. -1.
         11    1    4    4    0    0 -0.24871850913E+02 -0.12104612097E+02  0.58037593275E+02  0.64292245529E+02  0.51100000000E-03 0.  1.
    -200002    1    4    4    0    0 -0.19690269431E+03  0.14423555528E+03  0.35736497225E+03  0.43380213211E+03  0.30000000000E+02 0.  1.
    -200000    1    3    3    0    0 -0.51313813731E+02 -0.45481462767E+03  0.78377641038E+03  0.91323376771E+03  0.10100000000E+03 0. -1.
<mgrwt>
<rscale>  0 0.14913115E+04</rscale>
<asrwt>0</asrwt>
<pdfrwt beam="1">  1        2 0.35264474E+00 0.14913115E+04</pdfrwt>
<pdfrwt beam="2">  1       -2 0.32176828E-01 0.14913115E+04</pdfrwt>
<totfact> 0.39921942E+01</totfact>
</mgrwt>
</event>
<event>
 8    2  0.7266322E-052  0.2033946E+04  0.7818608E-02  0.8590912E-01
          2   -1    0    0  501    0  0.00000000000E+00  0.00000000000E+00  0.46441652762E+03  0.46441652762E+03  0.25500000000E-02 0.  1.
         -2   -1    0    0    0  501 -0.00000000000E+00 -0.00000000000E+00 -0.22269541090E+04  0.22269541090E+04  0.25500000000E-02 0. -1.
    -200001    2    1    2    0    0 -0.13589540642E+03  0.79576680563E+03 -0.77753360908E+03  0.12779654591E+04  0.61394204200E+03 0.  0.
   -5000001    2    3    3    0    0 -0.18627735713E+03 -0.69341302835E+01 -0.16399194569E+03  0.26135269791E+03  0.81636624804E+02 0.  0.
     200001    1    1    2    0    0  0.13589540642E+03 -0.79576680563E+03 -0.98500397230E+03  0.14134051775E+04  0.61300000000E+03 0. -1.
         11    1    4    4    0    0 -0.61129390177E+02  0.17335618429E+02 -0.92286766419E+02  0.11204540716E+03  0.51100000000E-03 0.  1.
    -200002    1    4    4    0    0 -0.12514796695E+03 -0.24269748713E+02 -0.71705179273E+02  0.14930729075E+03  0.30000000000E+02 0.  1.
    -200000    1    3    3    0    0  0.50381950707E+02  0.80270093592E+03 -0.61354166339E+03  0.10166127612E+04  0.10100000000E+03 0. -1.
<mgrwt>
<rscale>  0 0.20339462E+04</rscale>
<asrwt>0</asrwt>
<pdfrwt beam="1">  1        2 0.66345220E-01 0.20339462E+04</pdfrwt>
<pdfrwt beam="2">  1       -2 0.31813629E+00 0.20339462E+04</pdfrwt>
<totfact> 0.16722486E+00</totfact>
</mgrwt>
</event>
<event>
 8    2  0.7266322E-052  0.2103956E+04  0.7818608E-02  0.8559503E-01
          2   -1    0    0  501    0  0.00000000000E+00  0.00000000000E+00  0.12007975828E+04  0.12007975828E+04  0.25500000000E-02 0.  1.
         -2   -1    0    0    0  501 -0.00000000000E+00 -0.00000000000E+00 -0.92160253648E+03  0.92160253648E+03  0.25500000000E-02 0. -1.
    -200001    2    1    2    0    0  0.30313312303E+03 -0.18052530215E+03 -0.64660274322E+03  0.95734663461E+03  0.61150502555E+03 0.  0.
   -5000001    2    3    3    0    0  0.43453747391E+03 -0.16979947182E+03 -0.32704007013E+03  0.59720298425E+03  0.17900145268E+03 0.  0.
     200001    1    1    2    0    0 -0.30313312303E+03  0.18052530215E+03  0.92579778951E+03  0.11650534846E+04  0.61300000000E+03 0.  1.
         11    1    4    4    0    0  0.27637389689E+02 -0.30564901945E+02  0.18051111187E+02  0.44987566672E+02  0.51100000000E-03 0.  1.
    -200002    1    4    4    0    0  0.40690008422E+03 -0.13923456988E+03 -0.34509118132E+03  0.55221541758E+03  0.30000000000E+02 0.  1.
    -200000    1    3    3    0    0 -0.13140435088E+03 -0.10725830332E+02 -0.31956267309E+03  0.36014365036E+03  0.10100000000E+03 0. -1.
<mgrwt>
<rscale>  0 0.21039564E+04</rscale>
<asrwt>0</asrwt>
<pdfrwt beam="1">  1        2 0.17154251E+00 0.21039564E+04</pdfrwt>
<pdfrwt beam="2">  1       -2 0.13165751E+00 0.21039564E+04</pdfrwt>
<totfact> 0.83085256E+00</totfact>
</mgrwt>
</event>
<event>
 8    2  0.7266322E-052  0.1634514E+04  0.7818608E-02  0.8799621E-01
          2   -1    0    0  501    0  0.00000000000E+00  0.00000000000E+00  0.13174340364E+04  0.13174340364E+04  0.25500000000E-02 0.  1.
         -2   -1    0    0    0  501 -0.00000000000E+00 -0.00000000000E+00 -0.50697731605E+03  0.50697731606E+03  0.25500000000E-02 0. -1.
    -200001    2    1    2    0    0 -0.27613264505E+03 -0.44587296319E+03  0.26070908621E+03  0.84817193602E+03  0.61349365804E+03 0.  0.
   -5000001    2    3    3    0    0 -0.34807663539E+03 -0.25500564019E+03  0.38872444973E+03  0.58702981757E+03  0.85510749416E+02 0.  0.
     200001    1    1    2    0    0  0.27613264505E+03  0.44587296319E+03  0.54974763411E+03  0.97623941642E+03  0.61300000000E+03 0.  1.
         11    1    4    4    0    0 -0.29125916287E+02 -0.54941908263E+02  0.54405214378E+02  0.82624812465E+02  0.51100000000E-03 0.  1.
    -200002    1    4    4    0    0 -0.31895071910E+03 -0.20006373193E+03  0.33431923535E+03  0.50440500510E+03  0.30000000000E+02 0.  1.
    -200000    1    3    3    0    0  0.71943990340E+02 -0.19086732300E+03 -0.12801536352E+03  0.26114211845E+03  0.10100000000E+03 0. -1.
<mgrwt>
<rscale>  0 0.16345142E+04</rscale>
<asrwt>0</asrwt>
<pdfrwt beam="1">  1        2 0.18820486E+00 0.16345142E+04</pdfrwt>
<pdfrwt beam="2">  1       -2 0.72425331E-01 0.16345142E+04</pdfrwt>
<totfact> 0.30363105E+01</totfact>
</mgrwt>
</event>
<event>
 8    2  0.7266322E-052  0.2211781E+04  0.7818608E-02  0.8513541E-01
          2   -1    0    0  501    0  0.00000000000E+00  0.00000000000E+00  0.31557020283E+04  0.31557020283E+04  0.25500000000E-02 0. -1.
         -2   -1    0    0    0  501 -0.00000000000E+00 -0.00000000000E+00 -0.38755047573E+03  0.38755047574E+03  0.25500000000E-02 0.  1.
    -200001    2    1    2    0    0  0.34106514938E+03  0.48173537663E+03  0.25158198695E+04  0.26556519815E+04  0.61216290487E+03 0.  0.
   -5000001    2    3    3    0    0  0.19987455751E+03  0.14563278983E+03  0.19737152152E+04  0.19946087240E+04  0.14749055252E+03 0.  0.
     200001    1    1    2    0    0 -0.34106514938E+03 -0.48173537663E+03  0.25233168305E+03  0.88760052247E+03  0.61300000000E+03 0.  1.
         11    1    4    4    0    0 -0.20505873955E+02  0.32298701696E+02  0.24850280126E+03  0.25143058531E+03  0.51100000000E-03 0.  1.
    -200002    1    4    4    0    0  0.22038043146E+03  0.11333408814E+03  0.17252124139E+04  0.17431781387E+04  0.30000000000E+02 0.  1.
    -200000    1    3    3    0    0  0.14119059187E+03  0.33610258679E+03  0.54210465430E+03  0.66104325751E+03  0.10100000000E+03 0.  1.
<mgrwt>
<rscale>  0 0.22117810E+04</rscale>
<asrwt>0</asrwt>
<pdfrwt beam="1">  1        2 0.45081458E+00 0.22117810E+04</pdfrwt>
<pdfrwt beam="2">  1       -2 0.55364353E-01 0.22117810E+04</pdfrwt>
<totfact> 0.54144819E+00</totfact>
</mgrwt>
</event>
<event>
 8    2  0.7266322E-052  0.1424239E+04  0.7818608E-02  0.8936458E-01
         -2   -1    0    0    0  501 -0.00000000000E+00  0.00000000000E+00  0.22510767419E+03  0.22510767421E+03  0.25500000000E-02 0. -1.
          2   -1    0    0  501    0  0.00000000000E+00 -0.00000000000E+00 -0.22527614836E+04  0.22527614836E+04  0.25500000000E-02 0.  1.
    -200001    2    1    2    0    0  0.20794283323E+03 -0.25621761416E+03 -0.75368769535E+03  0.10260956398E+04  0.61313899915E+03 0.  0.
   -5000001    2    3    3    0    0  0.44354875491E+02 -0.20165474491E+03 -0.78010659358E+03  0.82450921965E+03  0.16916608648E+03 0.  0.
     200001    1    1    2    0    0 -0.20794283323E+03  0.25621761416E+03 -0.12739661140E+04  0.14517735179E+04  0.61300000000E+03 0.  1.
         11    1    4    4    0    0  0.99444242225E+02 -0.85953313836E+02 -0.31985389494E+03  0.34580868060E+03  0.51100000000E-03 0.  1.
    -200002    1    4    4    0    0 -0.55089366734E+02 -0.11570143107E+03 -0.46025269864E+03  0.47870053905E+03  0.30000000000E+02 0.  1.
    -200000    1    3    3    0    0  0.16358795774E+03 -0.54562869251E+02  0.26418898235E+02  0.20158642019E+03  0.10100000000E+03 0. -1.
<mgrwt>
<rscale>  0 0.14242386E+04</rscale>
<asrwt>0</asrwt>
<pdfrwt beam="1">  1        2 0.32182306E+00 0.14242386E+04</pdfrwt>
<pdfrwt beam="2">  1       -2 0.32158240E-01 0.14242386E+04</pdfrwt>
<totfact> 0.52024589E+01</totfact>
</mgrwt>
</event>
<event>
 8    2  0.7266322E-052  0.1948285E+04  0.7818608E-02  0.8631188E-01
         -2   -1    0    0    0  501 -0.00000000000E+00  0.00000000000E+00  0.17122657591E+04  0.17122657591E+04  0.25500000000E-02 0. -1.
          2   -1    0    0  501    0  0.00000000000E+00 -0.00000000000E+00 -0.55420905533E+03  0.55420905533E+03  0.25500000000E-02 0.  1.
    -200001    2    1    2    0    0 -0.27848665924E+03  0.40704707231E+03 -0.88781749960E+02  0.79215555859E+03  0.61350313073E+03 0.  0.
   -5000001    2    3    3    0    0  0.66316468576E+02  0.62019736823E+02  0.47611763103E+02  0.27568944199E+03  0.25591691362E+03 0.  0.
     200001    1    1    2    0    0  0.27848665924E+03 -0.40704707231E+03  0.12468384537E+04  0.14743192559E+04  0.61300000000E+03 0. -1.
         11    1    4    4    0    0  0.58762462012E+02  0.11425098145E+03  0.12370269335E+03  0.17834985294E+03  0.51100000000E-03 0.  1.
    -200002    1    4    4    0    0  0.75540065643E+01 -0.52231244624E+02 -0.76090930245E+02  0.97339589046E+02  0.30000000000E+02 0.  1.
    -200000    1    3    3    0    0 -0.34480312782E+03  0.34502733549E+03 -0.13639351306E+03  0.51646611660E+03  0.10100000000E+03 0.  1.
<mgrwt>
<rscale>  0 0.19482846E+04</rscale>
<asrwt>0</asrwt>
<pdfrwt beam="1">  1        2 0.79172720E-01 0.19482846E+04</pdfrwt>
<pdfrwt beam="2">  1       -2 0.24460940E+00 0.19482846E+04</pdfrwt>
<totfact> 0.38681039E+00</totfact>
</mgrwt>
</event>
<event>
 8    2  0.7266322E-052  0.1231505E+04  0.7818608E-02  0.9085718E-01
         -2   -1    0    0    0  501 -0.00000000000E+00  0.00000000000E+00  0.77011502994E+02  0.77011503036E+02  0.25500000000E-02 0. -1.
          2   -1    0    0  501    0  0.00000000000E+00 -0.00000000000E+00 -0.49233086825E+04  0.49233086825E+04  0.25500000000E-02 0.  1.
    -200001    2    1    2    0    0  0.19987879051E+02 -0.14267701721E+02 -0.22099058879E+04  0.22934897282E+04  0.61303182389E+03 0.  0.
   -5000001    2    3    3    0    0 -0.10325914724E+03  0.17673275828E+03 -0.16981805690E+04  0.17245127452E+04  0.21961339622E+03 0.  0.
     200001    1    1    2    0    0 -0.19987879051E+02  0.14267701721E+02 -0.26363912916E+04  0.27068304574E+04  0.61300000000E+03 0. -1.
         11    1    4    4    0    0 -0.24968157661E+02  0.19468598787E+03 -0.14175862082E+04  0.14311103034E+04  0.51100000000E-03 0.  1.
    -200002    1    4    4    0    0 -0.78290989583E+02 -0.17953229589E+02 -0.28059436081E+03  0.29340244174E+03  0.30000000000E+02 0.  1.
    -200000    1    3    3    0    0  0.12324702629E+03 -0.19100046000E+03 -0.51172531891E+03  0.56897698304E+03  0.10100000000E+03 0.  1.
<mgrwt>
<rscale>  0 0.12315054E+04</rscale>
<asrwt>0</asrwt>
<pdfrwt beam="1">  1        2 0.70332961E+00 0.12315054E+04</pdfrwt>
<pdfrwt beam="2">  1       -2 0.11001646E-01 0.12315054E+04</pdfrwt>
<totfact> 0.64255512E+00</totfact>
</mgrwt>
</event>
<event>
 8    2  0.7266322E-052  0.1620588E+04  0.7818608E-02  0.8807999E-01
          2   -1    0    0  501    0  0.00000000000E+00  0.00000000000E+00  0.52926707232E+03  0.52926707233E+03  0.25500000000E-02 0.  1.
         -2   -1    0    0    0  501 -0.00000000000E+00 -0.00000000000E+00 -0.12405385305E+04  0.12405385305E+04  0.25500000000E-02 0. -1.
    -200001    2    1    2    0    0 -0.22951279134E+03 -0.30268078438E+03 -0.75823943976E+03  0.10471253347E+04  0.61420895463E+03 0.  0.
   -5000001    2    3    3    0    0  0.13788163605E+02 -0.66772616918E+02  0.61482509206E+02  0.15438063897E+03  0.12411521633E+03 0.  0.
     200001    1    1    2    0    0  0.22951279134E+03  0.30268078438E+03  0.46967981603E+02  0.72268026811E+03  0.61300000000E+03 0. -1.
         11    1    4    4    0    0  0.55861988459E+02 -0.38475568704E+02  0.66832665163E+02  0.95223611960E+02  0.51100000000E-03 0.  1.
    -200002    1    4    4    0    0 -0.42073824854E+02 -0.28297048214E+02 -0.53501559561E+01  0.59157027006E+02  0.30000000000E+02 0.  1.
    -200000    1    3    3    0    0 -0.24330095495E+03 -0.23590816746E+03 -0.81972194897E+03  0.89274469574E+03  0.10100000000E+03 0.  1.
<mgrwt>
<rscale>  0 0.16205878E+04</rscale>
<asrwt>0</asrwt>
<pdfrwt beam="1">  1        2 0.75609582E-01 0.16205878E+04</pdfrwt>
<pdfrwt beam="2">  1       -2 0.17721979E+00 0.16205878E+04</pdfrwt>
<totfact> 0.11427812E+01</totfact>
</mgrwt>
</event>
<event>
 8    2  0.7266322E-052  0.1314912E+04  0.7818608E-02  0.9017823E-01
         -2   -1    0    0    0  501 -0.00000000000E+00  0.00000000000E+00  0.44498058022E+03  0.44498058023E+03  0.25500000000E-02 0. -1.
          2   -1    0    0  501    0  0.00000000000E+00 -0.00000000000E+00 -0.97138714357E+03  0.97138714357E+03  0.25500000000E-02 0.  1.
    -200001    2    1    2    0    0 -0.20751710502E+03 -0.11029813261E+02 -0.14124920463E+03  0.66317439096E+03  0.61372952460E+03 0.  0.
   -5000001    2    3    3    0    0  0.39270370959E+02  0.14325051979E+02 -0.17365872523E+03  0.39336278165E+03  0.35047047806E+03 0.  0.
     200001    1    1    2    0    0  0.20751710502E+03  0.11029813261E+02 -0.38515735871E+03  0.75319333284E+03  0.61300000000E+03 0.  1.
         11    1    4    4    0    0  0.15990586836E+03 -0.18622934288E+02  0.18600420848E+02  0.16205763195E+03  0.51100000000E-03 0.  1.
    -200002    1    4    4    0    0 -0.12063549740E+03  0.32947986267E+02 -0.19225914608E+03  0.23130514971E+03  0.30000000000E+02 0.  1.
    -200000    1    3    3    0    0 -0.24678747598E+03 -0.25354865240E+02  0.32409520600E+02  0.26981160931E+03  0.10100000000E+03 0. -1.
<mgrwt>
<rscale>  0 0.13149120E+04</rscale>
<asrwt>0</asrwt>
<pdfrwt beam="1">  1        2 0.13876959E+00 0.13149120E+04</pdfrwt>
<pdfrwt beam="2">  1       -2 0.63568654E-01 0.13149120E+04</pdfrwt>
<totfact> 0.65695669E+01</totfact>
</mgrwt>
</event>
<event>
 8    2  0.7266322E-052  0.1302114E+04  0.7818608E-02  0.9027891E-01
         -2   -1    0    0    0  501 -0.00000000000E+00  0.00000000000E+00  0.14147784951E+03  0.14147784953E+03  0.25500000000E-02 0. -1.
          2   -1    0    0  501    0  0.00000000000E+00 -0.00000000000E+00 -0.29960525266E+04  0.29960525266E+04  0.25500000000E-02 0.  1.
    -200001    2    1    2    0    0 -0.10799598149E+03 -0.17818264784E+03 -0.15807785834E+04  0.17086365115E+04  0.61413810399E+03 0.  0.
   -5000001    2    3    3    0    0  0.18026429587E+03 -0.80157862789E+02 -0.20627674358E+03  0.29719782931E+03  0.82800697305E+02 0.  0.
     200001    1    1    2    0    0  0.10799598149E+03  0.17818264784E+03 -0.12737960937E+04  0.14288938646E+04  0.61300000000E+03 0. -1.
         11    1    4    4    0    0  0.72626288731E+02 -0.47514025316E+02 -0.43503038621E+02  0.97080764243E+02  0.51100000000E-03 0.  1.
    -200002    1    4    4    0    0  0.10763800713E+03 -0.32643837473E+02 -0.16277370496E+03  0.20011706507E+03  0.30000000000E+02 0.  1.
    -200000    1    3    3    0    0 -0.28826027735E+03 -0.98024785051E+02 -0.13745018398E+04  0.14114386822E+04  0.10100000000E+03 0.  1.
<mgrwt>
<rscale>  0 0.13021138E+04</rscale>
<asrwt>0</asrwt>
<pdfrwt beam="1">  1        2 0.42800746E+00 0.13021138E+04</pdfrwt>
<pdfrwt beam="2">  1       -2 0.20211123E-01 0.13021138E+04</pdfrwt>
<totfact> 0.49199114E+01</totfact>
</mgrwt>
</event>
<event>
 8    2  0.7266322E-052  0.1363406E+04  0.7818608E-02  0.8980742E-01
          2   -1    0    0  501    0  0.00000000000E+00  0.00000000000E+00  0.62490842583E+03  0.62490842584E+03  0.25500000000E-02 0.  1.
         -2   -1    0    0    0  501 -0.00000000000E+00 -0.00000000000E+00 -0.74365882272E+03  0.74365882273E+03  0.25500000000E-02 0. -1.
    -200001    2    1    2    0    0 -0.15368702697E+03 -0.13511851453E+03 -0.27397828148E+03  0.70393094849E+03  0.61528689754E+03 0.  0.
   -5000001    2    3    3    0    0 -0.29222388680E+03 -0.24210753314E+02 -0.37157847801E+03  0.47761304952E+03  0.63739306186E+02 0.  0.
     200001    1    1    2    0    0  0.15368702697E+03  0.13511851453E+03  0.15522788459E+03  0.66463630008E+03  0.61300000000E+03 0.  1.
         11    1    4    4    0    0 -0.34653370892E+02 -0.18056914249E+02 -0.66903753679E+02  0.77479161863E+02  0.51100000000E-03 0.  1.
    -200002    1    4    4    0    0 -0.25757051591E+03 -0.61538390649E+01 -0.30467472433E+03  0.40013388765E+03  0.30000000000E+02 0.  1.
    -200000    1    3    3    0    0  0.13853685983E+03 -0.11090776122E+03  0.97600196529E+02  0.22631789897E+03  0.10100000000E+03 0.  1.
<mgrwt>
<rscale>  0 0.13634055E+04</rscale>
<asrwt>0</asrwt>
<pdfrwt beam="1">  1        2 0.89272632E-01 0.13634055E+04</pdfrwt>
<pdfrwt beam="2">  1       -2 0.10623697E+00 0.13634055E+04</pdfrwt>
<totfact> 0.36106461E+01</totfact>
</mgrwt>
</event>
<event>
 8    2  0.7266322E-052  0.1530944E+04  0.7818608E-02  0.8864133E-01
          2   -1    0    0  501    0  0.00000000000E+00  0.00000000000E+00  0.24887271231E+04  0.24887271231E+04  0.25500000000E-02 0.  1.
         -2   -1    0    0    0  501 -0.00000000000E+00 -0.00000000000E+00 -0.23544047505E+03  0.23544047506E+03  0.25500000000E-02 0. -1.
    -200001    2    1    2    0    0  0.26482289190E+03  0.15259465918E+03  0.51835862448E+03  0.85891679973E+03  0.61288344015E+03 0.  0.
   -5000001    2    3    3    0    0 -0.16171794751E+03 -0.60863931306E+02  0.10708242100E+03  0.22106824946E+03  0.86875850214E+02 0.  0.
     200001    1    1    2    0    0 -0.26482289190E+03 -0.15259465918E+03  0.17349280236E+04  0.18652507985E+04  0.61300000000E+03 0.  1.
         11    1    4    4    0    0 -0.83325263019E+02  0.45788043289E+01  0.68131431454E+02  0.10773094661E+03  0.51100000000E-03 0.  1.
    -200002    1    4    4    0    0 -0.78392684491E+02 -0.65442735635E+02  0.38950989541E+02  0.11333730284E+03  0.30000000000E+02 0.  1.
    -200000    1    3    3    0    0  0.42654083941E+03  0.21345859048E+03  0.41127620348E+03  0.63784855027E+03  0.10100000000E+03 0. -1.
<mgrwt>
<rscale>  0 0.15309436E+04</rscale>
<asrwt>0</asrwt>
<pdfrwt beam="1">  1        2 0.35553242E+00 0.15309436E+04</pdfrwt>
<pdfrwt beam="2">  1       -2 0.33634356E-01 0.15309436E+04</pdfrwt>
<totfact> 0.35711122E+01</totfact>
</mgrwt>
</event>
<event>
 8    2  0.7266322E-052  0.1529343E+04  0.7818608E-02  0.8865171E-01
          2   -1    0    0  501    0  0.00000000000E+00  0.00000000000E+00  0.16540739351E+04  0.16540739351E+04  0.25500000000E-02 0. -1.
         -2   -1    0    0    0  501 -0.00000000000E+00 -0.00000000000E+00 -0.35350434582E+03  0.35350434583E+03  0.25500000000E-02 0.  1.
    -200001    2    1    2    0    0  0.18354479324E+03 -0.27318899919E+03  0.10672590855E+04  0.12737365326E+04  0.61240662842E+03 0.  0.
   -5000001    2    3    3    0    0  0.69583517126E+02 -0.35676655462E+03  0.10295015275E+04  0.10959754193E+04  0.95731312426E+02 0.  0.
     200001    1    1    2    0    0 -0.18354479324E+03  0.27318899919E+03  0.23331050378E+03  0.73384174832E+03  0.61300000000E+03 0.  1.
         11    1    4    4    0    0  0.11948647671E+02 -0.10031089282E+03  0.41167640133E+03  0.42388973190E+03  0.51100000000E-03 0.  1.
    -200002    1    4    4    0    0  0.57634869455E+02 -0.25645566180E+03  0.61782512621E+03  0.67208568741E+03  0.30000000000E+02 0.  1.
    -200000    1    3    3    0    0  0.11396127612E+03  0.83577555425E+02  0.37757557983E+02  0.17776111332E+03  0.10100000000E+03 0.  1.
<mgrwt>
<rscale>  0 0.15293428E+04</rscale>
<asrwt>0</asrwt>
<pdfrwt beam="1">  1        2 0.23629628E+00 0.15293428E+04</pdfrwt>
<pdfrwt beam="2">  1       -2 0.50500621E-01 0.15293428E+04</pdfrwt>
<totfact> 0.43393178E+01</totfact>
</mgrwt>
</event>
<event>
 8    2  0.7266322E-052  0.1504125E+04  0.7818608E-02  0.8881715E-01
          2   -1    0    0  501    0  0.00000000000E+00  0.00000000000E+00  0.28818510846E+04  0.28818510846E+04  0.25500000000E-02 0.  1.
         -2   -1    0    0    0  501 -0.00000000000E+00 -0.00000000000E+00 -0.19626193252E+03  0.19626193253E+03  0.25500000000E-02 0. -1.
    -200001    2    1    2    0    0  0.30593003034E+03  0.31010137612E+03  0.13665616327E+04  0.15597722636E+04  0.61289703165E+03 0.  0.
   -5000001    2    3    3    0    0  0.43212511937E+03  0.28216486590E+03  0.12483179045E+04  0.13575638851E+04  0.13539933857E+03 0.  0.
     200001    1    1    2    0    0 -0.30593003034E+03 -0.31010137612E+03  0.13190275194E+04  0.15183407535E+04  0.61300000000E+03 0.  1.
         11    1    4    4    0    0  0.17918660321E+03  0.17343397529E+03  0.48109017988E+03  0.54188093133E+03  0.51100000000E-03 0.  1.
    -200002    1    4    4    0    0  0.25293851616E+03  0.10873089061E+03  0.76722772465E+03  0.81568295373E+03  0.30000000000E+02 0.  1.
    -200000    1    3    3    0    0 -0.12619508903E+03  0.27936510221E+02  0.11824372813E+03  0.20220837851E+03  0.10100000000E+03 0. -1.
<mgrwt>
<rscale>  0 0.15041245E+04</rscale>
<asrwt>0</asrwt>
<pdfrwt beam="1">  1        2 0.41169298E+00 0.15041245E+04</pdfrwt>
<pdfrwt beam="2">  1       -2 0.28037421E-01 0.15041245E+04</pdfrwt>
<totfact> 0.30986937E+01</totfact>
</mgrwt>
</event>
<event>
 8    2  0.7266322E-052  0.1255980E+04  0.7818608E-02  0.9065221E-01
         -2   -1    0    0    0  501 -0.00000000000E+00  0.00000000000E+00  0.87219059534E+03  0.87219059534E+03  0.25500000000E-02 0. -1.
          2   -1    0    0  501    0  0.00000000000E+00 -0.00000000000E+00 -0.45216196085E+03  0.45216196085E+03  0.25500000000E-02 0.  1.
    -200001    2    1    2    0    0  0.95233094571E+02  0.96750220214E+02  0.22502151978E+03  0.66691303639E+03  0.61295054150E+03 0.  0.
   -5000001    2    3    3    0    0 -0.93007777695E+02 -0.19332157433E+03  0.30975318211E+02  0.25772945861E+03  0.13943215441E+03 0.  0.
     200001    1    1    2    0    0 -0.95233094571E+02 -0.96750220214E+02  0.19500711471E+03  0.65743951980E+03  0.61300000000E+03 0. -1.
         11    1    4    4    0    0 -0.12047220108E+02 -0.15752963863E+03 -0.37181238962E+01  0.15803337307E+03  0.51100000000E-03 0.  1.
    -200002    1    4    4    0    0 -0.80960557587E+02 -0.35791935699E+02  0.34693442108E+02  0.99696085536E+02  0.30000000000E+02 0.  1.
    -200000    1    3    3    0    0  0.18824087227E+03  0.29007179454E+03  0.19404620157E+03  0.40918357778E+03  0.10100000000E+03 0.  1.
<mgrwt>
<rscale>  0 0.12559800E+04</rscale>
<asrwt>0</asrwt>
<pdfrwt beam="1">  1        2 0.64594567E-01 0.12559800E+04</pdfrwt>
<pdfrwt beam="2">  1       -2 0.12459865E+00 0.12559800E+04</pdfrwt>
<totfact> 0.35818752E+01</totfact>
</mgrwt>
</event>
<event>
 8    2  0.7266322E-052  0.2072264E+04  0.7818608E-02  0.8573561E-01
          2   -1    0    0  501    0  0.00000000000E+00  0.00000000000E+00  0.16071782999E+04  0.16071782999E+04  0.25500000000E-02 0.  1.
         -2   -1    0    0    0  501 -0.00000000000E+00 -0.00000000000E+00 -0.66798410581E+03  0.66798410582E+03  0.25500000000E-02 0. -1.
    -200001    2    1    2    0    0  0.29563896153E+03  0.77933199757E+03  0.53000560654E+03  0.11625236242E+04  0.61302077923E+03 0.  0.
   -5000001    2    3    3    0    0 -0.35836697885E+02  0.46232426603E+03  0.92689023264E+02  0.52079407938E+03  0.21819079313E+03 0.  0.
     200001    1    1    2    0    0 -0.29563896153E+03 -0.77933199757E+03  0.40918858752E+03  0.11126387815E+04  0.61300000000E+03 0.  1.
         11    1    4    4    0    0  0.37326033269E+02  0.31113676317E+03  0.14076569142E+03  0.34353209171E+03  0.51100000000E-03 0.  1.
    -200002    1    4    4    0    0 -0.73162731154E+02  0.15118750286E+03 -0.48076668154E+02  0.17726198767E+03  0.30000000000E+02 0.  1.
    -200000    1    3    3    0    0  0.33147565941E+03  0.31700773154E+03  0.43731658328E+03  0.64172954478E+03  0.10100000000E+03 0.  1.
<mgrwt>
<rscale>  0 0.20722640E+04</rscale>
<asrwt>0</asrwt>
<pdfrwt beam="1">  1        2 0.22959690E+00 0.20722640E+04</pdfrwt>
<pdfrwt beam="2">  1       -2 0.95426300E-01 0.20722640E+04</pdfrwt>
<totfact> 0.10975988E+01</totfact>
</mgrwt>
</event>
<event>
 8    2  0.7266322E-052  0.1375700E+04  0.7818608E-02  0.8971598E-01
         -2   -1    0    0    0  501 -0.00000000000E+00  0.00000000000E+00  0.28023088728E+03  0.28023088730E+03  0.25500000000E-02 0. -1.
          2   -1    0    0  501    0  0.00000000000E+00 -0.00000000000E+00 -0.16883851473E+04  0.16883851473E+04  0.25500000000E-02 0.  1.
    -200001    2    1    2    0    0 -0.18918856031E+03 -0.24752157011E+03 -0.70463999104E+03  0.98486781190E+03  0.61350456471E+03 0.  0.
   -5000001    2    3    3    0    0  0.13835155697E+03 -0.43829559783E+02 -0.49059232032E+03  0.53233011310E+03  0.14707936946E+03 0.  0.
     200001    1    1    2    0    0  0.18918856031E+03  0.24752157011E+03 -0.70351426898E+03  0.98374822271E+03  0.61300000000E+03 0.  1.
         11    1    4    4    0    0  0.71070703008E+02 -0.53502666565E+02 -0.42178660786E+03  0.43106556662E+03  0.51100000000E-03 0.  1.
    -200002    1    4    4    0    0  0.67280853966E+02  0.96731067821E+01 -0.68805712465E+02  0.10126454648E+03  0.30000000000E+02 0.  1.
    -200000    1    3    3    0    0 -0.32754011728E+03 -0.20369201032E+03 -0.21404767072E+03  0.45253769880E+03  0.10100000000E+03 0. -1.
<mgrwt>
<rscale>  0 0.13757001E+04</rscale>
<asrwt>0</asrwt>
<pdfrwt beam="1">  1        2 0.24119787E+00 0.13757001E+04</pdfrwt>
<pdfrwt beam="2">  1       -2 0.40032985E-01 0.13757001E+04</pdfrwt>
<totfact> 0.66994571E+01</totfact>
</mgrwt>
</event>
<event>
 8    2  0.7266322E-052  0.1407898E+04  0.7818608E-02  0.8948121E-01
         -2   -1    0    0    0  501 -0.00000000000E+00  0.00000000000E+00  0.18551647020E+03  0.18551647022E+03  0.25500000000E-02 0. -1.
          2   -1    0    0  501    0  0.00000000000E+00 -0.00000000000E+00 -0.26711601032E+04  0.26711601032E+04  0.25500000000E-02 0.  1.
    -200001    2    1    2    0    0  0.83700777918E+02 -0.20376234876E+03 -0.70675766545E+03  0.96228242211E+03  0.61478138166E+03 0.  0.
   -5000001    2    3    3    0    0 -0.16483507491E+03 -0.30503229112E+03 -0.48174712494E+03  0.59778768318E+03  0.71095156116E+02 0.  0.
     200001    1    1    2    0    0 -0.83700777918E+02  0.20376234876E+03 -0.17788859675E+04  0.18943941513E+04  0.61300000000E+03 0.  1.
         11    1    4    4    0    0 -0.11494942118E+02 -0.48956441486E+02 -0.10311777891E+03  0.11472638400E+03  0.51100000000E-03 0.  1.
    -200002    1    4    4    0    0 -0.15334013280E+03 -0.25607584963E+03 -0.37862934603E+03  0.48306129918E+03  0.30000000000E+02 0.  1.
    -200000    1    3    3    0    0  0.24853585283E+03  0.10126994236E+03 -0.22501054051E+03  0.36449473893E+03  0.10100000000E+03 0. -1.
<mgrwt>
<rscale>  0 0.14078980E+04</rscale>
<asrwt>0</asrwt>
<pdfrwt beam="1">  1        2 0.38159428E+00 0.14078980E+04</pdfrwt>
<pdfrwt beam="2">  1       -2 0.26502354E-01 0.14078980E+04</pdfrwt>
<totfact> 0.45030329E+01</totfact>
</mgrwt>
</event>
<event>
 8    2  0.7266322E-052  0.1355421E+04  0.7818608E-02  0.8986734E-01
          2   -1    0    0  501    0  0.00000000000E+00  0.00000000000E+00  0.42574451220E+03  0.42574451221E+03  0.25500000000E-02 0.  1.
         -2   -1    0    0    0  501 -0.00000000000E+00 -0.00000000000E+00 -0.10787964873E+04  0.10787964874E+04  0.25500000000E-02 0. -1.
    -200001    2    1    2    0    0  0.26481011084E+03 -0.10950928526E+03 -0.28295698896E+03  0.73327193033E+03  0.61278576015E+03 0.  0.
   -5000001    2    3    3    0    0 -0.11495319006E+03  0.58297275692E+01 -0.16139727747E+03  0.30607055387E+03  0.23319923059E+03 0.  0.
     200001    1    1    2    0    0 -0.26481011084E+03  0.10950928526E+03 -0.37009498618E+03  0.77126906923E+03  0.61300000000E+03 0.  1.
         11    1    4    4    0    0 -0.12487992304E+03 -0.18169002512E+02  0.13327765629E+02  0.12689656090E+03  0.51100000000E-03 0.  1.
    -200002    1    4    4    0    0  0.99267329826E+01  0.23998730081E+02 -0.17472504310E+03  0.17917399297E+03  0.30000000000E+02 0.  1.
    -200000    1    3    3    0    0  0.37976330090E+03 -0.11533901283E+03 -0.12155971150E+03  0.42720137646E+03  0.10100000000E+03 0. -1.
<mgrwt>
<rscale>  0 0.13554212E+04</rscale>
<asrwt>0</asrwt>
<pdfrwt beam="1">  1        2 0.60820645E-01 0.13554212E+04</pdfrwt>
<pdfrwt beam="2">  1       -2 0.15411378E+00 0.13554212E+04</pdfrwt>
<totfact> 0.21957124E+01</totfact>
</mgrwt>
</event>
<event>
 8    2  0.7266322E-052  0.1825740E+04  0.7818608E-02  0.8692730E-01
          2   -1    0    0  501    0  0.00000000000E+00  0.00000000000E+00  0.19283967542E+04  0.19283967542E+04  0.25500000000E-02 0.  1.
         -2   -1    0    0    0  501 -0.00000000000E+00 -0.00000000000E+00 -0.43213693728E+03  0.43213693728E+03  0.25500000000E-02 0. -1.
    -200001    2    1    2    0    0  0.66634141633E+03 -0.96097021723E+02  0.83558990028E+03  0.12355895776E+04  0.61255661128E+03 0.  0.
   -5000001    2    3    3    0    0  0.63588301930E+03  0.71727436685E+02  0.40534010978E+03  0.76187168153E+03  0.81583179153E+02 0.  0.
     200001    1    1    2    0    0 -0.66634141633E+03  0.96097021723E+02  0.66066991665E+03  0.11249441139E+04  0.61300000000E+03 0. -1.
         11    1    4    4    0    0  0.24811632666E+02  0.77939353644E+01  0.15683864920E+01  0.26054220013E+02  0.51100000000E-03 0.  1.
    -200002    1    4    4    0    0  0.61107138663E+03  0.63933501320E+02  0.40377172329E+03  0.73581746152E+03  0.30000000000E+02 0.  1.
    -200000    1    3    3    0    0  0.30458397031E+02 -0.16782445841E+03  0.43024979050E+03  0.47371789603E+03  0.10100000000E+03 0.  1.
<mgrwt>
<rscale>  0 0.18257398E+04</rscale>
<asrwt>0</asrwt>
<pdfrwt beam="1">  1        2 0.27548525E+00 0.18257398E+04</pdfrwt>
<pdfrwt beam="2">  1       -2 0.61733848E-01 0.18257398E+04</pdfrwt>
<totfact> 0.20121366E+01</totfact>
</mgrwt>
</event>
<event>
 8    2  0.7266322E-052  0.1360163E+04  0.7818608E-02  0.8983170E-01
          2   -1    0    0  501    0  0.00000000000E+00  0.00000000000E+00  0.69772899832E+03  0.69772899832E+03  0.25500000000E-02 0.  1.
         -2   -1    0    0    0  501 -0.00000000000E+00 -0.00000000000E+00 -0.66288011680E+03  0.66288011680E+03  0.25500000000E-02 0. -1.
    -200001    2    1    2    0    0  0.17555408376E+03 -0.18066492889E+03  0.16985829520E+03  0.68425447839E+03  0.61310137652E+03 0.  0.
   -5000001    2    3    3    0    0  0.23484068920E+03 -0.26666874049E+03  0.31253937942E+03  0.48061153353E+03  0.83929827911E+02 0.  0.
     200001    1    1    2    0    0 -0.17555408376E+03  0.18066492889E+03 -0.13500941368E+03  0.67635463674E+03  0.61300000000E+03 0. -1.
         11    1    4    4    0    0  0.50744928746E+02 -0.19298157722E+02  0.59961094613E+02  0.80887573534E+02  0.51100000000E-03 0.  1.
    -200002    1    4    4    0    0  0.18409576046E+03 -0.24737058277E+03  0.25257828481E+03  0.39972396000E+03  0.30000000000E+02 0.  1.
    -200000    1    3    3    0    0 -0.59286605441E+02  0.86003811605E+02 -0.14268108422E+03  0.20364294486E+03  0.10100000000E+03 0.  1.
<mgrwt>
<rscale>  0 0.13601628E+04</rscale>
<asrwt>0</asrwt>
<pdfrwt beam="1">  1        2 0.99675571E-01 0.13601628E+04</pdfrwt>
<pdfrwt beam="2">  1       -2 0.94697160E-01 0.13601628E+04</pdfrwt>
<totfact> 0.41491565E+01</totfact>
</mgrwt>
</event>
<event>
 8    2  0.7266322E-052  0.1294228E+04  0.7818608E-02  0.9034155E-01
          2   -1    0    0  501    0  0.00000000000E+00  0.00000000000E+00  0.13962472278E+04  0.13962472278E+04  0.25500000000E-02 0.  1.
         -2   -1    0    0    0  501 -0.00000000000E+00 -0.00000000000E+00 -0.29991557012E+03  0.29991557013E+03  0.25500000000E-02 0. -1.
    -200001    2    1    2    0    0 -0.17693569527E+02  0.17204563511E+03  0.40661161728E+03  0.75733613816E+03  0.61507093566E+03 0.  0.
   -5000001    2    3    3    0    0 -0.42367998672E+02  0.13193988313E+03 -0.13121598349E+03  0.20808498710E+03  0.82937008993E+02 0.  0.
     200001    1    1    2    0    0  0.17693569527E+02 -0.17204563511E+03  0.68972004040E+03  0.93882665977E+03  0.61300000000E+03 0. -1.
         11    1    4    4    0    0 -0.39738289145E+02  0.23086775916E+02 -0.21919830139E+02  0.50917676694E+02  0.51100000000E-03 0.  1.
    -200002    1    4    4    0    0 -0.26297095269E+01  0.10885310722E+03 -0.10929615335E+03  0.15716731040E+03  0.30000000000E+02 0.  1.
    -200000    1    3    3    0    0  0.24674429145E+02  0.40105751981E+02  0.53782760077E+03  0.54925115106E+03  0.10100000000E+03 0.  1.
<mgrwt>
<rscale>  0 0.12942276E+04</rscale>
<asrwt>0</asrwt>
<pdfrwt beam="1">  1        2 0.19946389E+00 0.12942276E+04</pdfrwt>
<pdfrwt beam="2">  1       -2 0.42845081E-01 0.12942276E+04</pdfrwt>
<totfact> 0.84179657E+01</totfact>
</mgrwt>
</event>
<event>
 8    2  0.7266322E-052  0.1326927E+04  0.7818608E-02  0.9008480E-01
         -2   -1    0    0    0  501 -0.00000000000E+00  0.00000000000E+00  0.15581104327E+03  0.15581104329E+03  0.25500000000E-02 0. -1.
          2   -1    0    0  501    0  0.00000000000E+00 -0.00000000000E+00 -0.28251133662E+04  0.28251133662E+04  0.25500000000E-02 0.  1.
    -200001    2    1    2    0    0  0.15865919318E+03 -0.19307910244E+03 -0.12426501862E+04  0.14081696293E+04  0.61344106500E+03 0.  0.
   -5000001    2    3    3    0    0  0.13051434714E+03  0.47235498295E+02 -0.10924838581E+04  0.11060203851E+04  0.10244474083E+03 0.  0.
     200001    1    1    2    0    0 -0.15865919318E+03  0.19307910244E+03 -0.14266521367E+04  0.15727547802E+04  0.61300000000E+03 0.  1.
         11    1    4    4    0    0  0.85428200445E+02  0.47703874857E+02 -0.41513415426E+03  0.42650908916E+03  0.51100000000E-03 0.  1.
    -200002    1    4    4    0    0  0.45086146696E+02 -0.46837656243E+00 -0.67734970381E+03  0.67951129589E+03  0.30000000000E+02 0.  1.
    -200000    1    3    3    0    0  0.28144846039E+02 -0.24031460074E+03 -0.15016632813E+03  0.30214924423E+03  0.10100000000E+03 0. -1.
<mgrwt>
<rscale>  0 0.13269271E+04</rscale>
<asrwt>0</asrwt>
<pdfrwt beam="1">  1        2 0.40358759E+00 0.13269271E+04</pdfrwt>
<pdfrwt beam="2">  1       -2 0.22258722E-01 0.13269271E+04</pdfrwt>
<totfact> 0.51345394E+01</totfact>
</mgrwt>
</event>
<event>
 8    2  0.7266322E-052  0.1247892E+04  0.7818608E-02  0.9071939E-01
         -2   -1    0    0    0  501 -0.00000000000E+00  0.00000000000E+00  0.47618012688E+03  0.47618012689E+03  0.25500000000E-02 0. -1.
          2   -1    0    0  501    0  0.00000000000E+00 -0.00000000000E+00 -0.81756611748E+03  0.81756611749E+03  0.25500000000E-02 0.  1.
    -200001    2    1    2    0    0 -0.14221434340E+02 -0.30587438583E+02 -0.27980313881E+03  0.67673790713E+03  0.61526137362E+03 0.  0.
   -5000001    2    3    3    0    0  0.61577689789E+02 -0.28454063804E+03 -0.24744798626E+03  0.39128109669E+03  0.84351669518E+02 0.  0.
     200001    1    1    2    0    0  0.14221434340E+02  0.30587438583E+02 -0.61582851794E+02  0.61700833724E+03  0.61300000000E+03 0. -1.
         11    1    4    4    0    0  0.17176549752E+02 -0.13909992444E+03 -0.73373233196E+02  0.15820067696E+03  0.51100000000E-03 0.  1.
    -200002    1    4    4    0    0  0.44401140037E+02 -0.14544071359E+03 -0.17407475307E+03  0.23308041973E+03  0.30000000000E+02 0.  1.
    -200000    1    3    3    0    0 -0.75799124129E+02  0.25395319945E+03 -0.32355152546E+02  0.28545681044E+03  0.10100000000E+03 0. -1.
<mgrwt>
<rscale>  0 0.12478922E+04</rscale>
<asrwt>0</asrwt>
<pdfrwt beam="1">  1        2 0.11679516E+00 0.12478922E+04</pdfrwt>
<pdfrwt beam="2">  1       -2 0.68025733E-01 0.12478922E+04</pdfrwt>
<totfact> 0.72002372E+01</totfact>
</mgrwt>
</event>
<event>
 8    2  0.7266322E-052  0.2034863E+04  0.7818608E-02  0.8590492E-01
          2   -1    0    0  501    0  0.00000000000E+00  0.00000000000E+00  0.68730450425E+03  0.68730450425E+03  0.25500000000E-02 0.  1.
         -2   -1    0    0    0  501 -0.00000000000E+00 -0.00000000000E+00 -0.15061253051E+04  0.15061253051E+04  0.25500000000E-02 0. -1.
    -200001    2    1    2    0    0  0.38588490226E+03 -0.63943289598E+03 -0.66046823302E+02  0.96859543381E+03  0.61321557815E+03 0.  0.
   -5000001    2    3    3    0    0  0.31986334110E+03 -0.50388551112E+03 -0.29833447354E+03  0.67382350073E+03  0.93922770084E+02 0.  0.
     200001    1    1    2    0    0 -0.38588490226E+03  0.63943289598E+03 -0.75277397757E+03  0.12248343756E+04  0.61300000000E+03 0. -1.
         11    1    4    4    0    0  0.19213119386E+03 -0.23013242752E+03 -0.13072741301E+03  0.32705502039E+03  0.51100000000E-03 0.  1.
    -200002    1    4    4    0    0  0.12773214724E+03 -0.27375308360E+03 -0.16760706053E+03  0.34676848034E+03  0.30000000000E+02 0.  1.
    -200000    1    3    3    0    0  0.66021561157E+02 -0.13554738486E+03  0.23228765024E+03  0.29477193308E+03  0.10100000000E+03 0.  1.
<mgrwt>
<rscale>  0 0.20348629E+04</rscale>
<asrwt>0</asrwt>
<pdfrwt beam="1">  1        2 0.98186358E-01 0.20348629E+04</pdfrwt>
<pdfrwt beam="2">  1       -2 0.21516076E+00 0.20348629E+04</pdfrwt>
<totfact> 0.45393666E+00</totfact>
</mgrwt>
</event>
<event>
 8    2  0.7266322E-052  0.1840858E+04  0.7818608E-02  0.8684868E-01
          2   -1    0    0  501    0  0.00000000000E+00  0.00000000000E+00  0.13047113004E+04  0.13047113004E+04  0.25500000000E-02 0.  1.
         -2   -1    0    0    0  501 -0.00000000000E+00 -0.00000000000E+00 -0.64933115076E+03  0.64933115076E+03  0.25500000000E-02 0. -1.
    -200001    2    1    2    0    0  0.41157972099E+02  0.67931744709E+03  0.22985593643E+03  0.94408897273E+03  0.61262065288E+03 0.  0.
   -5000001    2    3    3    0    0 -0.25587566689E+03  0.17402949312E+03  0.70401706625E+02  0.32831990034E+03  0.84136408763E+02 0.  0.
     200001    1    1    2    0    0 -0.41157972099E+02 -0.67931744709E+03  0.42552421323E+03  0.10099534784E+04  0.61300000000E+03 0. -1.
         11    1    4    4    0    0 -0.21418333791E+03  0.15513249070E+03  0.46157342491E+02  0.26846059706E+03  0.51100000000E-03 0.  1.
    -200002    1    4    4    0    0 -0.41692328984E+02  0.18897002418E+02  0.24244364134E+02  0.59859303276E+02  0.30000000000E+02 0. -1.
    -200000    1    3    3    0    0  0.29703363899E+03  0.50528795397E+03  0.15945422980E+03  0.61576907239E+03  0.10100000000E+03 0.  1.
<mgrwt>
<rscale>  0 0.18408582E+04</rscale>
<asrwt>0</asrwt>
<pdfrwt beam="1">  1        2 0.18638733E+00 0.18408582E+04</pdfrwt>
<pdfrwt beam="2">  1       -2 0.92761595E-01 0.18408582E+04</pdfrwt>
<totfact> 0.17361476E+01</totfact>
</mgrwt>
</event>
<event>
 8    2  0.7266322E-052  0.1628259E+04  0.7818608E-02  0.8803373E-01
          2   -1    0    0  501    0  0.00000000000E+00  0.00000000000E+00  0.48658783313E+03  0.48658783314E+03  0.25500000000E-02 0.  1.
         -2   -1    0    0    0  501 -0.00000000000E+00 -0.00000000000E+00 -0.13621524328E+04  0.13621524328E+04  0.25500000000E-02 0. -1.
    -200001    2    1    2    0    0 -0.11983676136E+03  0.38164513665E+03 -0.84183672498E+03  0.11159917216E+04  0.61378708967E+03 0.  0.
   -5000001    2    3    3    0    0 -0.64381003364E+02 -0.12791474191E+03 -0.55594739778E+02  0.17200863371E+03  0.77389276957E+02 0.  0.
     200001    1    1    2    0    0  0.11983676136E+03 -0.38164513665E+03 -0.33727874677E+02  0.73274854434E+03  0.61300000000E+03 0. -1.
         11    1    4    4    0    0  0.73617369388E+01 -0.28509340130E+02 -0.32232202138E+02  0.43656528725E+02  0.51100000000E-03 0.  1.
    -200002    1    4    4    0    0 -0.71742740303E+02 -0.99405401777E+02 -0.23362537640E+02  0.12835210498E+03  0.30000000000E+02 0.  1.
    -200000    1    3    3    0    0 -0.55455757992E+02  0.50955987855E+03 -0.78624198520E+03  0.94398308789E+03  0.10100000000E+03 0. -1.
<mgrwt>
<rscale>  0 0.16282589E+04</rscale>
<asrwt>0</asrwt>
<pdfrwt beam="1">  1        2 0.69512548E-01 0.16282589E+04</pdfrwt>
<pdfrwt beam="2">  1       -2 0.19459320E+00 0.16282589E+04</pdfrwt>
<totfact> 0.95855442E+00</totfact>
</mgrwt>
</event>
<event>
 8    2  0.7266322E-052  0.1328063E+04  0.7818608E-02  0.9007603E-01
         -2   -1    0    0    0  501 -0.00000000000E+00  0.00000000000E+00  0.39698861268E+03  0.39698861269E+03  0.25500000000E-02 0. -1.
          2   -1    0    0  501    0  0.00000000000E+00 -0.00000000000E+00 -0.11107058064E+04  0.11107058064E+04  0.25500000000E-02 0.  1.
    -200001    2    1    2    0    0 -0.77078382981E+02  0.16468330499E+03 -0.55954616113E+03  0.84997154783E+03  0.61343137971E+03 0.  0.
   -5000001    2    3    3    0    0  0.24182123845E+03  0.13704334038E+03 -0.33446946583E+03  0.44584105534E+03  0.98214227794E+02 0.  0.
     200001    1    1    2    0    0  0.77078382981E+02 -0.16468330499E+03 -0.15417103256E+03  0.65772287123E+03  0.61300000000E+03 0. -1.
         11    1    4    4    0    0  0.17884252359E+03  0.10323933095E+03 -0.18403066451E+03  0.27660494063E+03  0.51100000000E-03 0.  1.
    -200002    1    4    4    0    0  0.62978714860E+02  0.33804009434E+02 -0.15043880132E+03  0.16923611471E+03  0.30000000000E+02 0.  1.
    -200000    1    3    3    0    0 -0.31889962143E+03  0.27639964608E+02 -0.22507669530E+03  0.40413049249E+03  0.10100000000E+03 0. -1.
<mgrwt>
<rscale>  0 0.13280626E+04</rscale>
<asrwt>0</asrwt>
<pdfrwt beam="1">  1        2 0.15867226E+00 0.13280626E+04</pdfrwt>
<pdfrwt beam="2">  1       -2 0.56712660E-01 0.13280626E+04</pdfrwt>
<totfact> 0.68749451E+01</totfact>
</mgrwt>
</event>
<event>
 8    2  0.7266322E-052  0.1380596E+04  0.7818608E-02  0.8967985E-01
         -2   -1    0    0    0  501 -0.00000000000E+00  0.00000000000E+00  0.53427362504E+03  0.53427362505E+03  0.25500000000E-02 0. -1.
          2   -1    0    0  501    0  0.00000000000E+00 -0.00000000000E+00 -0.89188577847E+03  0.89188577847E+03  0.25500000000E-02 0.  1.
    -200001    2    1    2    0    0  0.24969800914E+01  0.29375788717E+03 -0.30015748541E+03  0.74397909740E+03  0.61409319336E+03 0.  0.
   -5000001    2    3    3    0    0 -0.58874378474E+02  0.42912626642E+03 -0.99828853838E+02  0.47486276125E+03  0.16707272966E+03 0.  0.
     200001    1    1    2    0    0 -0.24969800914E+01 -0.29375788717E+03 -0.57454668014E+02  0.68218030612E+03  0.61300000000E+03 0. -1.
         11    1    4    4    0    0 -0.91810166704E+02  0.30697231525E+03 -0.17333416320E+02  0.32087623215E+03  0.51100000000E-03 0.  1.
    -200002    1    4    4    0    0  0.32935788229E+02  0.12215395117E+03 -0.82495437519E+02  0.15398652910E+03  0.30000000000E+02 0.  1.
    -200000    1    3    3    0    0  0.61371358566E+02 -0.13536837925E+03 -0.20032863157E+03  0.26911633615E+03  0.10100000000E+03 0.  1.
<mgrwt>
<rscale>  0 0.13805956E+04</rscale>
<asrwt>0</asrwt>
<pdfrwt beam="1">  1        2 0.12741225E+00 0.13805956E+04</pdfrwt>
<pdfrwt beam="2">  1       -2 0.76324803E-01 0.13805956E+04</pdfrwt>
<totfact> 0.49360861E+01</totfact>
</mgrwt>
</event>
<event>
 8    2  0.7266322E-052  0.1269687E+04  0.7818608E-02  0.9053955E-01
          2   -1    0    0  501    0  0.00000000000E+00  0.00000000000E+00  0.17752630697E+04  0.17752630697E+04  0.25500000000E-02 0.  1.
         -2   -1    0    0    0  501 -0.00000000000E+00 -0.00000000000E+00 -0.22702353112E+03  0.22702353114E+03  0.25500000000E-02 0. -1.
    -200001    2    1    2    0    0 -0.99590258735E+02 -0.12586405183E+03  0.69859353105E+03  0.94236805807E+03  0.61177173527E+03 0.  0.
   -5000001    2    3    3    0    0 -0.14519857939E+03 -0.29729116557E+03  0.20587521589E+03  0.40903916112E+03  0.12435339251E+03 0.  0.
     200001    1    1    2    0    0  0.99590258735E+02  0.12586405183E+03  0.84964600749E+03  0.10599185427E+04  0.61300000000E+03 0.  1.
         11    1    4    4    0    0 -0.98104049154E+02 -0.23693211793E+03  0.20248446796E+03  0.32674331322E+03  0.51100000000E-03 0.  1.
    -200002    1    4    4    0    0 -0.47094530237E+02 -0.60359047636E+02  0.33907479309E+01  0.82295847899E+02  0.30000000000E+02 0.  1.
    -200000    1    3    3    0    0  0.45608320656E+02  0.17142711374E+03  0.49271831515E+03  0.53332889695E+03  0.10100000000E+03 0.  1.
<mgrwt>
<rscale>  0 0.12696873E+04</rscale>
<asrwt>0</asrwt>
<pdfrwt beam="1">  1        2 0.25360903E+00 0.12696873E+04</pdfrwt>
<pdfrwt beam="2">  1       -2 0.32431930E-01 0.12696873E+04</pdfrwt>
<totfact> 0.91175183E+01</totfact>
</mgrwt>
</event>
<event>
 8    2  0.7266322E-052  0.1532559E+04  0.7818608E-02  0.8863086E-01
         -2   -1    0    0    0  501 -0.00000000000E+00  0.00000000000E+00  0.18763691624E+03  0.18763691626E+03  0.25500000000E-02 0. -1.
          2   -1    0    0  501    0  0.00000000000E+00 -0.00000000000E+00 -0.31293628867E+04  0.31293628867E+04  0.25500000000E-02 0.  1.
    -200001    2    1    2    0    0 -0.33999599545E+01  0.41225645802E+03 -0.19127944477E+04  0.20503364595E+04  0.61247861303E+03 0.  0.
   -5000001    2    3    3    0    0 -0.97361380139E+02 -0.12208144670E+03 -0.63489314061E+03  0.65836717272E+03  0.77297581779E+02 0.  0.
     200001    1    1    2    0    0  0.33999599545E+01 -0.41225645802E+03 -0.10289315227E+04  0.12666633434E+04  0.61300000000E+03 0. -1.
         11    1    4    4    0    0 -0.56192852105E+02 -0.22335880083E+02 -0.26917307771E+03  0.27588163029E+03  0.51100000000E-03 0.  1.
    -200002    1    4    4    0    0 -0.41168528033E+02 -0.99745566615E+02 -0.36572006290E+03  0.38248554243E+03  0.30000000000E+02 0.  1.
    -200000    1    3    3    0    0  0.93961420184E+02  0.53433790472E+03 -0.12779013071E+04  0.13919692868E+04  0.10100000000E+03 0.  1.
<mgrwt>
<rscale>  0 0.15325586E+04</rscale>
<asrwt>0</asrwt>
<pdfrwt beam="1">  1        2 0.44705181E+00 0.15325586E+04</pdfrwt>
<pdfrwt beam="2">  1       -2 0.26805276E-01 0.15325586E+04</pdfrwt>
<totfact> 0.24432245E+01</totfact>
</mgrwt>
</event>
<event>
 8    2  0.7266322E-052  0.1674286E+04  0.7818608E-02  0.8776167E-01
          2   -1    0    0  501    0  0.00000000000E+00  0.00000000000E+00  0.23544322842E+03  0.23544322843E+03  0.25500000000E-02 0.  1.
         -2   -1    0    0    0  501 -0.00000000000E+00 -0.00000000000E+00 -0.29765507328E+04  0.29765507328E+04  0.25500000000E-02 0. -1.
    -200001    2    1    2    0    0  0.24861294213E+03  0.33690130290E+03 -0.21125135664E+04  0.22392605847E+04  0.61340322408E+03 0.  0.
   -5000001    2    3    3    0    0  0.20358769516E+03  0.59786957896E+02 -0.17697069355E+04  0.17847971437E+04  0.92821207632E+02 0.  0.
     200001    1    1    2    0    0 -0.24861294213E+03 -0.33690130290E+03 -0.62859393802E+03  0.97273337653E+03  0.61300000000E+03 0.  1.
         11    1    4    4    0    0  0.14635136174E+00  0.22603257250E+02 -0.17971355123E+03  0.18112948174E+03  0.51100000000E-03 0.  1.
    -200002    1    4    4    0    0  0.20344134379E+03  0.37183700646E+02 -0.15899933843E+04  0.16036676620E+04  0.30000000000E+02 0.  1.
    -200000    1    3    3    0    0  0.45025246973E+02  0.27711434500E+03 -0.34280663086E+03  0.45446344103E+03  0.10100000000E+03 0.  1.
<mgrwt>
<rscale>  0 0.16742864E+04</rscale>
<asrwt>0</asrwt>
<pdfrwt beam="1">  1        2 0.33634749E-01 0.16742864E+04</pdfrwt>
<pdfrwt beam="2">  1       -2 0.42522151E+00 0.16742864E+04</pdfrwt>
<totfact> 0.76208344E-01</totfact>
</mgrwt>
</event>
<event>
 8    2  0.7266322E-052  0.1445941E+04  0.7818608E-02  0.8921220E-01
         -2   -1    0    0    0  501 -0.00000000000E+00  0.00000000000E+00  0.19008727830E+03  0.19008727831E+03  0.25500000000E-02 0. -1.
          2   -1    0    0  501    0  0.00000000000E+00 -0.00000000000E+00 -0.27497163305E+04  0.27497163305E+04  0.25500000000E-02 0.  1.
    -200001    2    1    2    0    0 -0.30613056423E+03  0.21279374245E+03 -0.10916199975E+04  0.13058462397E+04  0.61204826915E+03 0.  0.
   -5000001    2    3    3    0    0  0.39853237356E+02  0.29751211212E+03 -0.50502941756E+03  0.61218097351E+03  0.17207293323E+03 0.  0.
     200001    1    1    2    0    0  0.30613056423E+03 -0.21279374245E+03 -0.14680090547E+04  0.16339573690E+04  0.61300000000E+03 0.  1.
         11    1    4    4    0    0  0.87090381767E+01  0.80816572601E+02 -0.27169614042E+02  0.85705038827E+02  0.51100000000E-03 0.  1.
    -200002    1    4    4    0    0  0.31144199179E+02  0.21669553952E+03 -0.47785980351E+03  0.52647593469E+03  0.30000000000E+02 0.  1.
    -200000    1    3    3    0    0 -0.34598380158E+03 -0.84718369665E+02 -0.58659057993E+03  0.69366526623E+03  0.10100000000E+03 0. -1.
<mgrwt>
<rscale>  0 0.14459407E+04</rscale>
<asrwt>0</asrwt>
<pdfrwt beam="1">  1        2 0.39281659E+00 0.14459407E+04</pdfrwt>
<pdfrwt beam="2">  1       -2 0.27155327E-01 0.14459407E+04</pdfrwt>
<totfact> 0.38962846E+01</totfact>
</mgrwt>
</event>
<event>
 8    2  0.7266322E-052  0.1641024E+04  0.7818608E-02  0.8795735E-01
          2   -1    0    0  501    0  0.00000000000E+00  0.00000000000E+00  0.13724651918E+04  0.13724651918E+04  0.25500000000E-02 0.  1.
         -2   -1    0    0    0  501 -0.00000000000E+00 -0.00000000000E+00 -0.49053308173E+03  0.49053308173E+03  0.25500000000E-02 0. -1.
    -200001    2    1    2    0    0 -0.52846977672E+03 -0.45521025449E+02  0.29438110218E+03  0.86183012806E+03  0.61215885819E+03 0.  0.
   -5000001    2    3    3    0    0 -0.44679344005E+03  0.17527726882E+03  0.15454261827E+03  0.56997620517E+03  0.26578742364E+03 0.  0.
     200001    1    1    2    0    0  0.52846977672E+03  0.45521025449E+02  0.58755100793E+03  0.10011681455E+04  0.61300000000E+03 0. -1.
         11    1    4    4    0    0 -0.25226963476E+02  0.43426475198E+02  0.11500427961E+03  0.12549200278E+03  0.51100000000E-03 0.  1.
    -200002    1    4    4    0    0 -0.42156647657E+03  0.13185079362E+03  0.39538338658E+02  0.44448420239E+03  0.30000000000E+02 0.  1.
    -200000    1    3    3    0    0 -0.81676336669E+02 -0.22079829427E+03  0.13983848391E+03  0.29185392289E+03  0.10100000000E+03 0. -1.
<mgrwt>
<rscale>  0 0.16410236E+04</rscale>
<asrwt>0</asrwt>
<pdfrwt beam="1">  1        2 0.19606646E+00 0.16410236E+04</pdfrwt>
<pdfrwt beam="2">  1       -2 0.70076154E-01 0.16410236E+04</pdfrwt>
<totfact> 0.30431690E+01</totfact>
</mgrwt>
</event>
<event>
 8    2  0.7266322E-052  0.1636035E+04  0.7818608E-02  0.8798711E-01
         -2   -1    0    0    0  501 -0.00000000000E+00  0.00000000000E+00  0.31152900007E+03  0.31152900008E+03  0.25500000000E-02 0. -1.
          2   -1    0    0  501    0  0.00000000000E+00 -0.00000000000E+00 -0.21479615515E+04  0.21479615515E+04  0.25500000000E-02 0.  1.
    -200001    2    1    2    0    0  0.11423767235E+03  0.41379399662E+02 -0.12517883579E+03  0.63770000935E+03  0.61337513847E+03 0.  0.
   -5000001    2    3    3    0    0 -0.16371638432E+03  0.11592245750E+03  0.43412301230E+02  0.28921888135E+03  0.20376914091E+03 0.  0.
     200001    1    1    2    0    0 -0.11423767235E+03 -0.41379399662E+02 -0.17112537157E+04  0.18217905423E+04  0.61300000000E+03 0.  1.
         11    1    4    4    0    0 -0.49539269242E+02  0.15325456161E+03  0.36886171233E+02  0.16523222894E+03  0.51100000000E-03 0.  1.
    -200002    1    4    4    0    0 -0.11417711507E+03 -0.37332104113E+02  0.65261299969E+01  0.12398665241E+03  0.30000000000E+02 0.  1.
    -200000    1    3    3    0    0  0.27795405666E+03 -0.74543057834E+02 -0.16859113702E+03  0.34848112799E+03  0.10100000000E+03 0. -1.
<mgrwt>
<rscale>  0 0.16360346E+04</rscale>
<asrwt>0</asrwt>
<pdfrwt beam="1">  1        2 0.30685164E+00 0.16360346E+04</pdfrwt>
<pdfrwt beam="2">  1       -2 0.44504144E-01 0.16360346E+04</pdfrwt>
<totfact> 0.30878482E+01</totfact>
</mgrwt>
</event>
<event>
 8    2  0.7266322E-052  0.1311067E+04  0.7818608E-02  0.9020835E-01
         -2   -1    0    0    0  501 -0.00000000000E+00  0.00000000000E+00  0.52575781240E+03  0.52575781240E+03  0.25500000000E-02 0. -1.
          2   -1    0    0  501    0  0.00000000000E+00 -0.00000000000E+00 -0.81734268726E+03  0.81734268727E+03  0.25500000000E-02 0.  1.
    -200001    2    1    2    0    0  0.11500325349E+03 -0.19430475025E+03 -0.20276833592E+03  0.68383009849E+03  0.61280381956E+03 0.  0.
   -5000001    2    3    3    0    0 -0.18479863672E+03 -0.15849131746E+03  0.69145715157E+02  0.26513925011E+03  0.79042129136E+02 0.  0.
     200001    1    1    2    0    0 -0.11500325349E+03  0.19430475025E+03 -0.88816538949E+02  0.65927040118E+03  0.61300000000E+03 0. -1.
         11    1    4    4    0    0 -0.22999661011E+02 -0.37786290041E+02  0.38750848746E+02  0.58808302139E+02  0.51100000000E-03 0.  1.
    -200002    1    4    4    0    0 -0.16179897571E+03 -0.12070502742E+03  0.30394866411E+02  0.20633094797E+03  0.30000000000E+02 0.  1.
    -200000    1    3    3    0    0  0.29980189021E+03 -0.35813432785E+02 -0.27191405107E+03  0.41869084838E+03  0.10100000000E+03 0. -1.
<mgrwt>
<rscale>  0 0.13110672E+04</rscale>
<asrwt>0</asrwt>
<pdfrwt beam="1">  1        2 0.11676324E+00 0.13110672E+04</pdfrwt>
<pdfrwt beam="2">  1       -2 0.75108259E-01 0.13110672E+04</pdfrwt>
<totfact> 0.57715641E+01</totfact>
</mgrwt>
</event>
<event>
 8    2  0.7266322E-052  0.1480743E+04  0.7818608E-02  0.8897360E-01
         -2   -1    0    0    0  501 -0.00000000000E+00  0.00000000000E+00  0.45597403356E+03  0.45597403357E+03  0.25500000000E-02 0. -1.
          2   -1    0    0  501    0  0.00000000000E+00 -0.00000000000E+00 -0.12021521758E+04  0.12021521758E+04  0.25500000000E-02 0.  1.
    -200001    2    1    2    0    0 -0.35867912190E+03  0.72247691419E+02 -0.59957717690E+03  0.92933866528E+03  0.60852865365E+03 0.  0.
   -5000001    2    3    3    0    0 -0.10853442616E+02  0.23145509566E+03 -0.43832868391E+03  0.50210128720E+03  0.79274264085E+02 0.  0.
     200001    1    1    2    0    0  0.35867912190E+03 -0.72247691419E+02 -0.14660096535E+03  0.72878754411E+03  0.61300000000E+03 0. -1.
         11    1    4    4    0    0  0.33304983979E+01  0.38695105249E+02 -0.29097420441E+02  0.48528994080E+02  0.51100000000E-03 0.  1.
    -200002    1    4    4    0    0 -0.14183941014E+02  0.19275999041E+03 -0.40923126347E+03  0.45357229312E+03  0.30000000000E+02 0.  1.
    -200000    1    3    3    0    0 -0.34782567929E+03 -0.15920740424E+03 -0.16124849300E+03  0.42723737808E+03  0.10100000000E+03 0. -1.
<mgrwt>
<rscale>  0 0.14807433E+04</rscale>
<asrwt>0</asrwt>
<pdfrwt beam="1">  1        2 0.17173602E+00 0.14807433E+04</pdfrwt>
<pdfrwt beam="2">  1       -2 0.65139148E-01 0.14807433E+04</pdfrwt>
<totfact> 0.44883424E+01</totfact>
</mgrwt>
</event>
<event>
 8    2  0.7266322E-052  0.1318019E+04  0.7818608E-02  0.9015397E-01
          2   -1    0    0  501    0  0.00000000000E+00  0.00000000000E+00  0.70436221540E+03  0.70436221541E+03  0.25500000000E-02 0.  1.
         -2   -1    0    0    0  501 -0.00000000000E+00 -0.00000000000E+00 -0.61657669156E+03  0.61657669157E+03  0.25500000000E-02 0. -1.
    -200001    2    1    2    0    0  0.29448256563E+02 -0.23777604433E+03  0.94615150069E+02  0.66274418589E+03  0.61063342705E+03 0.  0.
   -5000001    2    3    3    0    0 -0.34133479133E+02 -0.33791395252E+03  0.52944502925E+02  0.50147521614E+03  0.36513468515E+03 0.  0.
     200001    1    1    2    0    0 -0.29448256563E+02  0.23777604433E+03 -0.68296262281E+01  0.65819472109E+03  0.61300000000E+03 0. -1.
         11    1    4    4    0    0 -0.12176203601E+03 -0.37568527675E+03  0.17356437061E+02  0.39530578859E+03  0.51100000000E-03 0.  1.
    -200002    1    4    4    0    0  0.87628556877E+02  0.37771324231E+02  0.35588065864E+02  0.10616942755E+03  0.30000000000E+02 0.  1.
    -200000    1    3    3    0    0  0.63581735696E+02  0.10013790819E+03  0.41670647145E+02  0.16126896975E+03  0.10100000000E+03 0.  1.
<mgrwt>
<rscale>  0 0.13180187E+04</rscale>
<asrwt>0</asrwt>
<pdfrwt beam="1">  1        2 0.10062317E+00 0.13180187E+04</pdfrwt>
<pdfrwt beam="2">  1       -2 0.88082384E-01 0.13180187E+04</pdfrwt>
<totfact> 0.48639491E+01</totfact>
</mgrwt>
</event>
<event>
 8    2  0.7266322E-052  0.1548221E+04  0.7818608E-02  0.8853005E-01
         -2   -1    0    0    0  501 -0.00000000000E+00  0.00000000000E+00  0.94370400103E+03  0.94370400104E+03  0.25500000000E-02 0. -1.
          2   -1    0    0  501    0  0.00000000000E+00 -0.00000000000E+00 -0.63499507494E+03  0.63499507494E+03  0.25500000000E-02 0.  1.
    -200001    2    1    2    0    0 -0.28589043127E+02  0.32947714699E+03 -0.19026789345E+03  0.72189140198E+03  0.61282362977E+03 0.  0.
   -5000001    2    3    3    0    0 -0.18839172973E+03  0.36755759474E+03 -0.28259454130E+03  0.50808721809E+03  0.87766264186E+02 0.  0.
     200001    1    1    2    0    0  0.28589043127E+02 -0.32947714699E+03  0.49897681955E+03  0.85680767400E+03  0.61300000000E+03 0. -1.
         11    1    4    4    0    0 -0.17365028762E+03  0.30030409679E+03 -0.23887124161E+03  0.42118457119E+03  0.51100000000E-03 0.  1.
    -200002    1    4    4    0    0 -0.14741442109E+02  0.67253497953E+02 -0.43723299693E+02  0.86902646901E+02  0.30000000000E+02 0.  1.
    -200000    1    3    3    0    0  0.15980268660E+03 -0.38080447748E+02  0.92326647853E+02  0.21380418389E+03  0.10100000000E+03 0.  1.
<mgrwt>
<rscale>  0 0.15482214E+04</rscale>
<asrwt>0</asrwt>
<pdfrwt beam="1">  1        2 0.90713583E-01 0.15482214E+04</pdfrwt>
<pdfrwt beam="2">  1       -2 0.13481486E+00 0.15482214E+04</pdfrwt>
<totfact> 0.19358381E+01</totfact>
</mgrwt>
</event>
<event>
 8    2  0.7266322E-052  0.1989594E+04  0.7818608E-02  0.8611501E-01
          2   -1    0    0  501    0  0.00000000000E+00  0.00000000000E+00  0.70332647035E+03  0.70332647035E+03  0.25500000000E-02 0.  1.
         -2   -1    0    0    0  501 -0.00000000000E+00 -0.00000000000E+00 -0.14070585822E+04  0.14070585822E+04  0.25500000000E-02 0. -1.
    -200001    2    1    2    0    0  0.24036361378E+03 -0.72114367560E+03 -0.14805629045E+03  0.98683376926E+03  0.61163498536E+03 0.  0.
   -5000001    2    3    3    0    0  0.39585217847E+03 -0.54616678565E+03 -0.22058911656E+03  0.72177600832E+03  0.13154445220E+03 0.  0.
     200001    1    1    2    0    0 -0.24036361378E+03  0.72114367560E+03 -0.55567582138E+03  0.11235512833E+04  0.61300000000E+03 0. -1.
         11    1    4    4    0    0  0.30541119061E+03 -0.32400914149E+03 -0.13365820774E+03  0.46488970264E+03  0.51100000000E-03 0.  1.
    -200002    1    4    4    0    0  0.90440987854E+02 -0.22215764416E+03 -0.86930908826E+02  0.25688630569E+03  0.30000000000E+02 0.  1.
    -200000    1    3    3    0    0 -0.15548856469E+03 -0.17497688996E+03  0.72532826109E+02  0.26505776094E+03  0.10100000000E+03 0. -1.
<mgrwt>
<rscale>  0 0.19895945E+04</rscale>
<asrwt>0</asrwt>
<pdfrwt beam="1">  1        2 0.10047521E+00 0.19895945E+04</pdfrwt>
<pdfrwt beam="2">  1       -2 0.20100837E+00 0.19895945E+04</pdfrwt>
<totfact> 0.54659571E+00</totfact>
</mgrwt>
</event>
<event>
 8    2  0.7266322E-052  0.1647567E+04  0.7818608E-02  0.8791847E-01
          2   -1    0    0  501    0  0.00000000000E+00  0.00000000000E+00  0.21813355506E+04  0.21813355507E+04  0.25500000000E-02 0.  1.
         -2   -1    0    0    0  501 -0.00000000000E+00 -0.00000000000E+00 -0.31110252129E+03  0.31110252130E+03  0.25500000000E-02 0. -1.
    -200001    2    1    2    0    0  0.48829821615E+03 -0.19591212011E+03  0.11798312417E+04  0.14297808671E+04  0.61274371660E+03 0.  0.
   -5000001    2    3    3    0    0  0.24620358609E+03  0.50154076909E+02  0.88316575910E+02  0.28053605030E+03  0.88142048441E+02 0.  0.
     200001    1    1    2    0    0 -0.48829821615E+03  0.19591212011E+03  0.69040178765E+03  0.10626572049E+04  0.61300000000E+03 0.  1.
         11    1    4    4    0    0  0.45517198392E+02 -0.27740614792E+01 -0.13308144918E+02  0.47503868137E+02  0.51100000000E-03 0.  1.
    -200002    1    4    4    0    0  0.20068638770E+03  0.52928138388E+02  0.10162472083E+03  0.23303218216E+03  0.30000000000E+02 0.  1.
    -200000    1    3    3    0    0  0.24209463006E+03 -0.24606619702E+03  0.10915146658E+04  0.11492448168E+04  0.10100000000E+03 0.  1.
<mgrwt>
<rscale>  0 0.16475667E+04</rscale>
<asrwt>0</asrwt>
<pdfrwt beam="1">  1        2 0.31161937E+00 0.16475667E+04</pdfrwt>
<pdfrwt beam="2">  1       -2 0.44443217E-01 0.16475667E+04</pdfrwt>
<totfact> 0.29732538E+01</totfact>
</mgrwt>
</event>
<event>
 8    2  0.7266322E-052  0.1434060E+04  0.7818608E-02  0.8929526E-01
         -2   -1    0    0    0  501 -0.00000000000E+00  0.00000000000E+00  0.53498186652E+03  0.53498186653E+03  0.25500000000E-02 0. -1.
          2   -1    0    0  501    0  0.00000000000E+00 -0.00000000000E+00 -0.96102766688E+03  0.96102766688E+03  0.25500000000E-02 0.  1.
    -200001    2    1    2    0    0 -0.23844871338E+02  0.18638711665E+03 -0.54453077787E+03  0.84400000508E+03  0.61685776755E+03 0.  0.
   -5000001    2    3    3    0    0 -0.22572708803E+02  0.11338429445E+02  0.12023931513E+03  0.14918784498E+03  0.84625250499E+02 0.  0.
     200001    1    1    2    0    0  0.23844871338E+02 -0.18638711665E+03  0.11848497751E+03  0.65200952833E+03  0.61300000000E+03 0. -1.
         11    1    4    4    0    0 -0.50393556032E+01  0.88527852950E+01  0.11318699965E+03  0.11364446226E+03  0.51100000000E-03 0.  1.
    -200002    1    4    4    0    0 -0.17533353200E+02  0.24856441496E+01  0.70523154738E+01  0.35543382715E+02  0.30000000000E+02 0. -1.
    -200000    1    3    3    0    0 -0.12721625351E+01  0.17504868720E+03 -0.66477009299E+03  0.69481216010E+03  0.10100000000E+03 0.  1.
<mgrwt>
<rscale>  0 0.14340605E+04</rscale>
<asrwt>0</asrwt>
<pdfrwt beam="1">  1        2 0.13728967E+00 0.14340605E+04</pdfrwt>
<pdfrwt beam="2">  1       -2 0.76425982E-01 0.14340605E+04</pdfrwt>
<totfact> 0.44247994E+01</totfact>
</mgrwt>
</event>
<event>
 8    2  0.7266322E-052  0.1328301E+04  0.7818608E-02  0.9007419E-01
          2   -1    0    0  501    0  0.00000000000E+00  0.00000000000E+00  0.39626199449E+04  0.39626199449E+04  0.25500000000E-02 0.  1.
         -2   -1    0    0    0  501 -0.00000000000E+00 -0.00000000000E+00 -0.11131412864E+03  0.11131412867E+03  0.25500000000E-02 0. -1.
    -200001    2    1    2    0    0  0.83480797749E+02 -0.22410600797E+03  0.22250973473E+04  0.23196491677E+04  0.61034540211E+03 0.  0.
   -5000001    2    3    3    0    0 -0.11060496833E+03 -0.28783793321E+02  0.17765578950E+04  0.17837306176E+04  0.11169152110E+03 0.  0.
     200001    1    1    2    0    0 -0.83480797749E+02  0.22410600797E+03  0.16262084690E+04  0.17542849059E+04  0.61300000000E+03 0. -1.
         11    1    4    4    0    0 -0.30774497925E+01 -0.14723350893E+02  0.30071032966E+02  0.33623128686E+02  0.51100000000E-03 0.  1.
    -200002    1    4    4    0    0 -0.10752751854E+03 -0.14060442428E+02  0.17464868621E+04  0.17501074889E+04  0.30000000000E+02 0.  1.
    -200000    1    3    3    0    0  0.19408576608E+03 -0.19532221465E+03  0.44853945223E+03  0.53591855010E+03  0.10100000000E+03 0. -1.
<mgrwt>
<rscale>  0 0.13283005E+04</rscale>
<asrwt>0</asrwt>
<pdfrwt beam="1">  1        2 0.56608858E+00 0.13283005E+04</pdfrwt>
<pdfrwt beam="2">  1       -2 0.15902018E-01 0.13283005E+04</pdfrwt>
<totfact> 0.19278946E+01</totfact>
</mgrwt>
</event>
<event>
 8    2  0.7266322E-052  0.1736443E+04  0.7818608E-02  0.8740848E-01
         -2   -1    0    0    0  501 -0.00000000000E+00  0.00000000000E+00  0.34195822092E+03  0.34195822093E+03  0.25500000000E-02 0. -1.
          2   -1    0    0  501    0  0.00000000000E+00 -0.00000000000E+00 -0.22043878581E+04  0.22043878581E+04  0.25500000000E-02 0.  1.
    -200001    2    1    2    0    0 -0.34567849848E+03 -0.24947057591E+03 -0.28079678477E+03  0.79732902011E+03  0.61250105259E+03 0.  0.
   -5000001    2    3    3    0    0 -0.27050144233E+03 -0.16774570562E+03 -0.46023214386E+03  0.56338759093E+03  0.65439279614E+02 0.  0.
     200001    1    1    2    0    0  0.34567849848E+03  0.24947057591E+03 -0.15816328524E+04  0.17490170589E+04  0.61300000000E+03 0. -1.
         11    1    4    4    0    0 -0.16730033140E+02 -0.26183787453E+02 -0.28868022362E+02  0.42412821759E+02  0.51100000000E-03 0.  1.
    -200002    1    4    4    0    0 -0.25377140919E+03 -0.14156191817E+03 -0.43136412150E+03  0.52097476917E+03  0.30000000000E+02 0.  1.
    -200000    1    3    3    0    0 -0.75177056153E+02 -0.81724870290E+02  0.17943535909E+03  0.23394142918E+03  0.10100000000E+03 0. -1.
<mgrwt>
<rscale>  0 0.17364430E+04</rscale>
<asrwt>0</asrwt>
<pdfrwt beam="1">  1        2 0.31491254E+00 0.17364430E+04</pdfrwt>
<pdfrwt beam="2">  1       -2 0.48851176E-01 0.17364430E+04</pdfrwt>
<totfact> 0.23748272E+01</totfact>
</mgrwt>
</event>
<event>
 8    2  0.7266322E-052  0.1914985E+04  0.7818608E-02  0.8647433E-01
          2   -1    0    0  501    0  0.00000000000E+00  0.00000000000E+00  0.39897877190E+04  0.39897877190E+04  0.25500000000E-02 0.  1.
         -2   -1    0    0    0  501 -0.00000000000E+00 -0.00000000000E+00 -0.22978452707E+03  0.22978452708E+03  0.25500000000E-02 0. -1.
    -200001    2    1    2    0    0  0.58807363827E+03  0.91781042222E+00  0.28531276496E+04  0.29769847459E+04  0.61340797666E+03 0.  0.
   -5000001    2    3    3    0    0  0.41192227797E+03  0.20482718696E+03  0.10046225446E+04  0.11062147283E+04  0.53013472820E+02 0.  0.
     200001    1    1    2    0    0 -0.58807363827E+03 -0.91781042222E+00  0.90687554233E+03  0.12425875002E+04  0.61300000000E+03 0. -1.
         11    1    4    4    0    0  0.10699083938E+03  0.65403108302E+02  0.30682901361E+03  0.33146440213E+03  0.51100000000E-03 0.  1.
    -200002    1    4    4    0    0  0.30493143859E+03  0.13942407866E+03  0.69779353102E+03  0.77475032616E+03  0.30000000000E+02 0.  1.
    -200000    1    3    3    0    0  0.17615136031E+03 -0.20390937654E+03  0.18485051050E+04  0.18707700176E+04  0.10100000000E+03 0.  1.
<mgrwt>
<rscale>  0 0.19149846E+04</rscale>
<asrwt>0</asrwt>
<pdfrwt beam="1">  1        2 0.56996969E+00 0.19149846E+04</pdfrwt>
<pdfrwt beam="2">  1       -2 0.32826360E-01 0.19149846E+04</pdfrwt>
<totfact> 0.47397046E+00</totfact>
</mgrwt>
</event>
<event>
 8    2  0.7266322E-052  0.1387614E+04  0.7818608E-02  0.8962833E-01
         -2   -1    0    0    0  501 -0.00000000000E+00  0.00000000000E+00  0.92909721697E+03  0.92909721697E+03  0.25500000000E-02 0. -1.
          2   -1    0    0  501    0  0.00000000000E+00 -0.00000000000E+00 -0.51810330709E+03  0.51810330709E+03  0.25500000000E-02 0.  1.
    -200001    2    1    2    0    0 -0.24288264236E+03  0.20084642666E+02  0.42962917935E+03  0.78726746375E+03  0.61303626067E+03 0.  0.
   -5000001    2    3    3    0    0 -0.70030220486E+02  0.19122692588E+03  0.47241377005E+03  0.52043575264E+03  0.78782190433E+02 0.  0.
     200001    1    1    2    0    0  0.24288264236E+03 -0.20084642666E+02 -0.18635269468E+02  0.65993306032E+03  0.61300000000E+03 0.  1.
         11    1    4    4    0    0  0.60078341892E+01  0.79706992964E+02  0.16380148104E+03  0.18226415992E+03  0.51100000000E-03 0.  1.
    -200002    1    4    4    0    0 -0.76038054675E+02  0.11151993292E+03  0.30861228901E+03  0.33817159272E+03  0.30000000000E+02 0.  1.
    -200000    1    3    3    0    0 -0.17285242187E+03 -0.17114228321E+03 -0.42784590699E+02  0.26683171111E+03  0.10100000000E+03 0.  1.
<mgrwt>
<rscale>  0 0.13876143E+04</rscale>
<asrwt>0</asrwt>
<pdfrwt beam="1">  1        2 0.74014759E-01 0.13876143E+04</pdfrwt>
<pdfrwt beam="2">  1       -2 0.13272817E+00 0.13876143E+04</pdfrwt>
<totfact> 0.25894197E+01</totfact>
</mgrwt>
</event>
<event>
 8    2  0.7266322E-052  0.1701520E+04  0.7818608E-02  0.8760498E-01
         -2   -1    0    0    0  501 -0.00000000000E+00  0.00000000000E+00  0.27555447766E+03  0.27555447768E+03  0.25500000000E-02 0. -1.
          2   -1    0    0  501    0  0.00000000000E+00 -0.00000000000E+00 -0.26266756856E+04  0.26266756856E+04  0.25500000000E-02 0.  1.
    -200001    2    1    2    0    0  0.14212476268E+03 -0.35591314198E+03 -0.41010031752E+03  0.83094922873E+03  0.61271587011E+03 0.  0.
   -5000001    2    3    3    0    0  0.31810993576E+03 -0.38674612915E+03 -0.23375089869E+03  0.56035438073E+03  0.92687915748E+02 0.  0.
     200001    1    1    2    0    0 -0.14212476268E+03  0.35591314198E+03 -0.19410208904E+04  0.20712809346E+04  0.61300000000E+03 0.  1.
         11    1    4    4    0    0  0.18040434596E+03 -0.26907463922E+03 -0.17106380369E+03  0.36634644047E+03  0.51100000000E-03 0.  1.
    -200002    1    4    4    0    0  0.13770558980E+03 -0.11767148993E+03 -0.62687094995E+02  0.19400794026E+03  0.30000000000E+02 0.  1.
    -200000    1    3    3    0    0 -0.17598517308E+03  0.30832987161E+02 -0.17634941883E+03  0.27059484800E+03  0.10100000000E+03 0.  1.
<mgrwt>
<rscale>  0 0.17015196E+04</rscale>
<asrwt>0</asrwt>
<pdfrwt beam="1">  1        2 0.37523937E+00 0.17015196E+04</pdfrwt>
<pdfrwt beam="2">  1       -2 0.39364927E-01 0.17015196E+04</pdfrwt>
<totfact> 0.21994780E+01</totfact>
</mgrwt>
</event>
<event>
 8    2  0.7266322E-052  0.1358377E+04  0.7818608E-02  0.8984511E-01
          2   -1    0    0  501    0  0.00000000000E+00  0.00000000000E+00  0.10047340492E+04  0.10047340492E+04  0.25500000000E-02 0.  1.
         -2   -1    0    0    0  501 -0.00000000000E+00 -0.00000000000E+00 -0.45912327305E+03  0.45912327306E+03  0.25500000000E-02 0. -1.
    -200001    2    1    2    0    0  0.16268751784E+03 -0.18632120102E+03  0.10474228398E+03  0.66930282710E+03  0.61303548828E+03 0.  0.
   -5000001    2    3    3    0    0  0.29574902256E+03  0.32205451807E+02  0.21544208434E+03  0.37279868238E+03  0.63709421656E+02 0.  0.
     200001    1    1    2    0    0 -0.16268751784E+03  0.18632120102E+03  0.44086849220E+03  0.79455449519E+03  0.61300000000E+03 0.  1.
         11    1    4    4    0    0  0.12832495768E+03 -0.59009899922E+01  0.73443715264E+02  0.14797329407E+03  0.51100000000E-03 0.  1.
    -200002    1    4    4    0    0  0.16742406489E+03  0.38106441799E+02  0.14199836907E+03  0.22482538831E+03  0.30000000000E+02 0.  1.
    -200000    1    3    3    0    0 -0.13306150472E+03 -0.21852665283E+03 -0.11069980036E+03  0.29650414472E+03  0.10100000000E+03 0. -1.
<mgrwt>
<rscale>  0 0.13583767E+04</rscale>
<asrwt>0</asrwt>
<pdfrwt beam="1">  1        2 0.14353343E+00 0.13583767E+04</pdfrwt>
<pdfrwt beam="2">  1       -2 0.65589040E-01 0.13583767E+04</pdfrwt>
<totfact> 0.58385473E+01</totfact>
</mgrwt>
</event>
<event>
 8    2  0.7266322E-052  0.1477575E+04  0.7818608E-02  0.8899503E-01
         -2   -1    0    0    0  501 -0.00000000000E+00  0.00000000000E+00  0.23776123808E+03  0.23776123810E+03  0.25500000000E-02 0. -1.
          2   -1    0    0  501    0  0.00000000000E+00 -0.00000000000E+00 -0.22956108478E+04  0.22956108478E+04  0.25500000000E-02 0.  1.
    -200001    2    1    2    0    0  0.45085007643E+01 -0.21713169424E+03 -0.16291536672E+04  0.17544525070E+04  0.61383664668E+03 0.  0.
   -5000001    2    3    3    0    0 -0.18505534026E+03  0.11828723822E+03 -0.78511599001E+03  0.82115678187E+03  0.98254734994E+02 0.  0.
     200001    1    1    2    0    0 -0.45085007643E+01  0.21713169424E+03 -0.42869594250E+03  0.77891957886E+03  0.61300000000E+03 0. -1.
         11    1    4    4    0    0 -0.12995464158E+03  0.90112230416E+02 -0.40330684235E+03  0.43320299171E+03  0.51100000000E-03 0.  1.
    -200002    1    4    4    0    0 -0.55100698681E+02  0.28175007801E+02 -0.38180914766E+03  0.38795379015E+03  0.30000000000E+02 0.  1.
    -200000    1    3    3    0    0  0.18956384103E+03 -0.33541893246E+03 -0.84403767720E+03  0.93329572516E+03  0.10100000000E+03 0.  1.
<mgrwt>
<rscale>  0 0.14775754E+04</rscale>
<asrwt>0</asrwt>
<pdfrwt beam="1">  1        2 0.32794439E+00 0.14775754E+04</pdfrwt>
<pdfrwt beam="2">  1       -2 0.33965892E-01 0.14775754E+04</pdfrwt>
<totfact> 0.44387029E+01</totfact>
</mgrwt>
</event>
<event>
 8    2  0.7266322E-052  0.1338448E+04  0.7818608E-02  0.8999619E-01
         -2   -1    0    0    0  501 -0.00000000000E+00  0.00000000000E+00  0.15068264947E+03  0.15068264949E+03  0.25500000000E-02 0. -1.
          2   -1    0    0  501    0  0.00000000000E+00 -0.00000000000E+00 -0.29722114497E+04  0.29722114497E+04  0.25500000000E-02 0.  1.
    -200001    2    1    2    0    0  0.14117345482E+03  0.11071259497E+03 -0.18780107626E+04  0.19835159748E+04  0.61255528298E+03 0.  0.
   -5000001    2    3    3    0    0  0.93484888557E+02  0.23377627135E+03 -0.17523241877E+04  0.17751485519E+04  0.13084935304E+03 0.  0.
     200001    1    1    2    0    0 -0.14117345482E+03 -0.11071259497E+03 -0.94351803759E+03  0.11393781244E+04  0.61300000000E+03 0. -1.
         11    1    4    4    0    0  0.53189688937E+02  0.18586069065E+03 -0.15319017136E+04  0.15440518772E+04  0.51100000000E-03 0.  1.
    -200002    1    4    4    0    0  0.40295199621E+02  0.47915580692E+02 -0.22042247409E+03  0.23109667473E+03  0.30000000000E+02 0.  1.
    -200000    1    3    3    0    0  0.47688566265E+02 -0.12306367637E+03 -0.12568657492E+03  0.20836742286E+03  0.10100000000E+03 0. -1.
<mgrwt>
<rscale>  0 0.13384479E+04</rscale>
<asrwt>0</asrwt>
<pdfrwt beam="1">  1        2 0.42460160E+00 0.13384479E+04</pdfrwt>
<pdfrwt beam="2">  1       -2 0.21526095E-01 0.13384479E+04</pdfrwt>
<totfact> 0.45223082E+01</totfact>
</mgrwt>
</event>
<event>
 8    2  0.7266322E-052  0.1332224E+04  0.7818608E-02  0.9004394E-01
          2   -1    0    0  501    0  0.00000000000E+00  0.00000000000E+00  0.80122528103E+03  0.80122528103E+03  0.25500000000E-02 0.  1.
         -2   -1    0    0    0  501 -0.00000000000E+00 -0.00000000000E+00 -0.55378352080E+03  0.55378352081E+03  0.25500000000E-02 0. -1.
    -200001    2    1    2    0    0  0.91093191498E+02  0.16905875458E+03 -0.54645580754E+02  0.64514642531E+03  0.61347285071E+03 0.  0.
   -5000001    2    3    3    0    0  0.89986774665E+02 -0.64439664062E+01  0.25446398439E+03  0.27561678848E+03  0.55439610566E+02 0.  0.
     200001    1    1    2    0    0 -0.91093191498E+02 -0.16905875458E+03  0.30208734098E+03  0.70986237653E+03  0.61300000000E+03 0. -1.
         11    1    4    4    0    0  0.49052108419E+02 -0.20599512423E+02  0.12796311084E+03  0.13858213084E+03  0.51100000000E-03 0.  1.
    -200002    1    4    4    0    0  0.40934666246E+02  0.14155546017E+02  0.12650087355E+03  0.13703465763E+03  0.30000000000E+02 0. -1.
    -200000    1    3    3    0    0  0.11064168330E+01  0.17550272099E+03 -0.30910956515E+03  0.36952963683E+03  0.10100000000E+03 0. -1.
<mgrwt>
<rscale>  0 0.13322242E+04</rscale>
<asrwt>0</asrwt>
<pdfrwt beam="1">  1        2 0.11446075E+00 0.13322242E+04</pdfrwt>
<pdfrwt beam="2">  1       -2 0.79111932E-01 0.13322242E+04</pdfrwt>
<totfact> 0.52673531E+01</totfact>
</mgrwt>
</event>
<event>
 8    2  0.7266322E-052  0.2245201E+04  0.7818608E-02  0.8499846E-01
         -2   -1    0    0    0  501 -0.00000000000E+00  0.00000000000E+00  0.66018655974E+03  0.66018655975E+03  0.25500000000E-02 0. -1.
          2   -1    0    0  501    0  0.00000000000E+00 -0.00000000000E+00 -0.19089028404E+04  0.19089028404E+04  0.25500000000E-02 0.  1.
    -200001    2    1    2    0    0 -0.85801482516E+03  0.58739395677E+02 -0.18755081866E+03  0.10719317950E+04  0.61173744928E+03 0.  0.
   -5000001    2    3    3    0    0 -0.19837239043E+03  0.22514435735E+03  0.88194846038E+02  0.33094905262E+03  0.10820054360E+03 0.  0.
     200001    1    1    2    0    0  0.85801482516E+03 -0.58739395677E+02 -0.10611654620E+04  0.14971576051E+04  0.61300000000E+03 0.  1.
         11    1    4    4    0    0 -0.15511395694E+03  0.16232818160E+03  0.10406595141E+03  0.24746818063E+03  0.51100000000E-03 0.  1.
    -200002    1    4    4    0    0 -0.43258433485E+02  0.62816175746E+02 -0.15871105375E+02  0.83480871993E+02  0.30000000000E+02 0.  1.
    -200000    1    3    3    0    0 -0.65964243473E+03 -0.16640496167E+03 -0.27574566470E+03  0.74098274242E+03  0.10100000000E+03 0. -1.
<mgrwt>
<rscale>  0 0.22452011E+04</rscale>
<asrwt>0</asrwt>
<pdfrwt beam="1">  1        2 0.27270040E+00 0.22452011E+04</pdfrwt>
<pdfrwt beam="2">  1       -2 0.94312366E-01 0.22452011E+04</pdfrwt>
<totfact> 0.77559801E+00</totfact>
</mgrwt>
</event>
<event>
 8    2  0.7266322E-052  0.1823440E+04  0.7818608E-02  0.8693933E-01
          2   -1    0    0  501    0  0.00000000000E+00  0.00000000000E+00  0.81390196069E+03  0.81390196070E+03  0.25500000000E-02 0.  1.
         -2   -1    0    0    0  501 -0.00000000000E+00 -0.00000000000E+00 -0.10212942233E+04  0.10212942233E+04  0.25500000000E-02 0. -1.
    -200001    2    1    2    0    0  0.41769695812E+02 -0.69656410095E+02 -0.77832585869E+03  0.99357222159E+03  0.61220739481E+03 0.  0.
   -5000001    2    3    3    0    0  0.22499180530E+02  0.77782020940E+02  0.64158111472E+02  0.13212594719E+03  0.82369574160E+02 0.  0.
     200001    1    1    2    0    0 -0.41769695812E+02  0.69656410095E+02  0.57093359608E+03  0.84162396240E+03  0.61300000000E+03 0.  1.
         11    1    4    4    0    0  0.21947594340E+02 -0.40710448378E+01 -0.23902032981E+01  0.22449574059E+02  0.51100000000E-03 0.  1.
    -200002    1    4    4    0    0  0.55158619033E+00  0.81853065778E+02  0.66548314770E+02  0.10967637313E+03  0.30000000000E+02 0.  1.
    -200000    1    3    3    0    0  0.19270515283E+02 -0.14743843103E+03 -0.84248397016E+03  0.86144627440E+03  0.10100000000E+03 0. -1.
<mgrwt>
<rscale>  0 0.18234400E+04</rscale>
<asrwt>0</asrwt>
<pdfrwt beam="1">  1        2 0.11627171E+00 0.18234400E+04</pdfrwt>
<pdfrwt beam="2">  1       -2 0.14589917E+00 0.18234400E+04</pdfrwt>
<totfact> 0.11324423E+01</totfact>
</mgrwt>
</event>
<event>
 8    2  0.7266322E-052  0.1648865E+04  0.7818608E-02  0.8791078E-01
          2   -1    0    0  501    0  0.00000000000E+00  0.00000000000E+00  0.85967901467E+03  0.85967901467E+03  0.25500000000E-02 0. -1.
         -2   -1    0    0    0  501 -0.00000000000E+00 -0.00000000000E+00 -0.79063153712E+03  0.79063153713E+03  0.25500000000E-02 0.  1.
    -200001    2    1    2    0    0 -0.32425186828E+03 -0.36008434962E+03  0.29671658233E+03  0.83642958127E+03  0.61381894828E+03 0.  0.
   -5000001    2    3    3    0    0 -0.42408210941E+03 -0.32210038464E+03  0.95790512943E+02  0.58746945596E+03  0.22880176137E+03 0.  0.
     200001    1    1    2    0    0  0.32425186828E+03  0.36008434962E+03 -0.22766910478E+03  0.81388097053E+03  0.61300000000E+03 0.  1.
         11    1    4    4    0    0 -0.78310285300E+02  0.28950828467E+02  0.33254221351E+02  0.89869318962E+02  0.51100000000E-03 0.  1.
    -200002    1    4    4    0    0 -0.34577182411E+03 -0.35105121311E+03  0.62536291592E+02  0.49760013699E+03  0.30000000000E+02 0.  1.
    -200000    1    3    3    0    0  0.99830241124E+02 -0.37983964977E+02  0.20092606938E+03  0.24896012531E+03  0.10100000000E+03 0. -1.
<mgrwt>
<rscale>  0 0.16488655E+04</rscale>
<asrwt>0</asrwt>
<pdfrwt beam="1">  1        2 0.12281129E+00 0.16488655E+04</pdfrwt>
<pdfrwt beam="2">  1       -2 0.11294736E+00 0.16488655E+04</pdfrwt>
<totfact> 0.20410626E+01</totfact>
</mgrwt>
</event>
<event>
 8    2  0.7266322E-052  0.2228342E+04  0.7818608E-02  0.8506723E-01
         -2   -1    0    0    0  501 -0.00000000000E+00  0.00000000000E+00  0.10170878210E+04  0.10170878210E+04  0.25500000000E-02 0. -1.
          2   -1    0    0  501    0  0.00000000000E+00 -0.00000000000E+00 -0.12205210660E+04  0.12205210660E+04  0.25500000000E-02 0.  1.
    -200001    2    1    2    0    0  0.71253901431E+03  0.17345336575E+03  0.47334228846E+03  0.10664590078E+04  0.61276747321E+03 0.  0.
   -5000001    2    3    3    0    0  0.11589468655E+02 -0.15493209561E+03  0.85193484111E+02  0.19466329139E+03  0.80607674856E+02 0.  0.
     200001    1    1    2    0    0 -0.71253901431E+03 -0.17345336575E+03 -0.67677553343E+03  0.11711498792E+04  0.61300000000E+03 0.  1.
         11    1    4    4    0    0  0.16932294638E+01 -0.36291444656E+01  0.30415620964E+02  0.30678130883E+02  0.51100000000E-03 0.  1.
    -200002    1    4    4    0    0  0.98962391915E+01 -0.15130295115E+03  0.54777863147E+02  0.16398516051E+03  0.30000000000E+02 0.  1.
    -200000    1    3    3    0    0  0.70094954566E+03  0.32838546137E+03  0.38814880435E+03  0.87179571639E+03  0.10100000000E+03 0.  1.
<mgrwt>
<rscale>  0 0.22283421E+04</rscale>
<asrwt>0</asrwt>
<pdfrwt beam="1">  1        2 0.17436015E+00 0.22283421E+04</pdfrwt>
<pdfrwt beam="2">  1       -2 0.14529826E+00 0.22283421E+04</pdfrwt>
<totfact> 0.62135292E+00</totfact>
</mgrwt>
</event>
<event>
 8    2  0.7266322E-052  0.2132261E+04  0.7818608E-02  0.8547164E-01
          2   -1    0    0  501    0  0.00000000000E+00  0.00000000000E+00  0.32171729532E+04  0.32171729532E+04  0.25500000000E-02 0.  1.
         -2   -1    0    0    0  501 -0.00000000000E+00 -0.00000000000E+00 -0.35330203586E+03  0.35330203587E+03  0.25500000000E-02 0. -1.
    -200001    2    1    2    0    0  0.70899872844E+03  0.38813318314E+03  0.19944241930E+04  0.22344236535E+04  0.60132739575E+03 0.  0.
   -5000001    2    3    3    0    0  0.44520221482E+03  0.24377155395E+03  0.54105465040E+03  0.74683738442E+03  0.86002101443E+02 0.  0.
     200001    1    1    2    0    0 -0.70899872844E+03 -0.38813318314E+03  0.86944672429E+03  0.13360513355E+04  0.61300000000E+03 0.  1.
         11    1    4    4    0    0  0.32701629341E+03  0.17910948536E+03  0.35198258387E+03  0.51274906460E+03  0.51100000000E-03 0.  1.
    -200002    1    4    4    0    0  0.11818592141E+03  0.64662068591E+02  0.18907206653E+03  0.23408831982E+03  0.30000000000E+02 0.  1.
    -200000    1    3    3    0    0  0.26379651363E+03  0.14436162919E+03  0.14533695426E+04  0.14875862691E+04  0.10100000000E+03 0. -1.
<mgrwt>
<rscale>  0 0.21322605E+04</rscale>
<asrwt>0</asrwt>
<pdfrwt beam="1">  1        2 0.45959611E+00 0.21322605E+04</pdfrwt>
<pdfrwt beam="2">  1       -2 0.50471722E-01 0.21322605E+04</pdfrwt>
<totfact> 0.60806427E+00</totfact>
</mgrwt>
</event>
<event>
 8    2  0.7266322E-052  0.1976098E+04  0.7818608E-02  0.8617878E-01
         -2   -1    0    0    0  501 -0.00000000000E+00  0.00000000000E+00  0.74198483412E+03  0.74198483412E+03  0.25500000000E-02 0.  1.
          2   -1    0    0  501    0  0.00000000000E+00 -0.00000000000E+00 -0.13157147409E+04  0.13157147409E+04  0.25500000000E-02 0. -1.
    -200001    2    1    2    0    0  0.75640581113E+03 -0.15861388673E+03 -0.34560649859E+03  0.10452187577E+04  0.61296841954E+03 0.  0.
   -5000001    2    3    3    0    0  0.21859104052E+02 -0.48935418507E+02 -0.27610541790E+03  0.29247734690E+03  0.80226560719E+02 0.  0.
     200001    1    1    2    0    0 -0.75640581113E+03  0.15861388673E+03 -0.22812340822E+03  0.10124808174E+04  0.61300000000E+03 0. -1.
         11    1    4    4    0    0 -0.97049958526E+00 -0.34480277868E+02 -0.22359094732E+03  0.22623603417E+03  0.51100000000E-03 0.  1.
    -200002    1    4    4    0    0  0.22829603638E+02 -0.14455140639E+02 -0.52514470577E+02  0.66241312737E+02  0.30000000000E+02 0.  1.
    -200000    1    3    3    0    0  0.73454670708E+03 -0.10967846822E+03 -0.69501080693E+02  0.75274141077E+03  0.10100000000E+03 0. -1.
<mgrwt>
<rscale>  0 0.19760976E+04</rscale>
<asrwt>0</asrwt>
<pdfrwt beam="1">  1        2 0.18795925E+00 0.19760976E+04</pdfrwt>
<pdfrwt beam="2">  1       -2 0.10599783E+00 0.19760976E+04</pdfrwt>
<totfact> 0.12357828E+01</totfact>
</mgrwt>
</event>
<event>
 8    2  0.7266322E-052  0.1520227E+04  0.7818608E-02  0.8871112E-01
          2   -1    0    0  501    0  0.00000000000E+00  0.00000000000E+00  0.93403620200E+03  0.93403620201E+03  0.25500000000E-02 0.  1.
         -2   -1    0    0    0  501 -0.00000000000E+00 -0.00000000000E+00 -0.61857636267E+03  0.61857636268E+03  0.25500000000E-02 0. -1.
    -200001    2    1    2    0    0  0.59661373596E+01 -0.39608107617E+02  0.61543233246E+03  0.86897750589E+03  0.61217689675E+03 0.  0.
   -5000001    2    3    3    0    0 -0.21041549847E+03 -0.20208322253E+03  0.25466732923E+03  0.40683947148E+03  0.12470202945E+03 0.  0.
     200001    1    1    2    0    0 -0.59661373596E+01  0.39608107617E+02 -0.29997249313E+03  0.68363505880E+03  0.61300000000E+03 0. -1.
         11    1    4    4    0    0 -0.97376145089E+02 -0.37946817409E+02  0.38709068057E+02  0.11144714682E+03  0.51100000000E-03 0.  1.
    -200002    1    4    4    0    0 -0.11303935339E+03 -0.16413640512E+03  0.21595826117E+03  0.29539232466E+03  0.30000000000E+02 0.  1.
    -200000    1    3    3    0    0  0.21638163583E+03  0.16247511491E+03  0.36076500323E+03  0.46213803441E+03  0.10100000000E+03 0.  1.
<mgrwt>
<rscale>  0 0.15202272E+04</rscale>
<asrwt>0</asrwt>
<pdfrwt beam="1">  1        2 0.13343374E+00 0.15202272E+04</pdfrwt>
<pdfrwt beam="2">  1       -2 0.88368052E-01 0.15202272E+04</pdfrwt>
<totfact> 0.32941587E+01</totfact>
</mgrwt>
</event>
<event>
 8    2  0.7266322E-052  0.1760925E+04  0.7818608E-02  0.8727360E-01
          2   -1    0    0  501    0  0.00000000000E+00  0.00000000000E+00  0.21158805305E+04  0.21158805305E+04  0.25500000000E-02 0.  1.
         -2   -1    0    0    0  501 -0.00000000000E+00 -0.00000000000E+00 -0.36637903550E+03  0.36637903551E+03  0.25500000000E-02 0. -1.
    -200001    2    1    2    0    0  0.37768208961E+02  0.51472776245E+03  0.13926105546E+04  0.16050416625E+04  0.60862424722E+03 0.  0.
   -5000001    2    3    3    0    0  0.11094985692E+03  0.19028412440E+03  0.11669270592E+04  0.11906104040E+04  0.85536272451E+02 0.  0.
     200001    1    1    2    0    0 -0.37768208961E+02 -0.51472776245E+03  0.35689094040E+03  0.87721790359E+03  0.61300000000E+03 0. -1.
         11    1    4    4    0    0  0.81933791695E+02  0.78493530105E+02  0.46715090864E+03  0.48073314004E+03  0.51100000000E-03 0.  1.
    -200002    1    4    4    0    0  0.29016065221E+02  0.11179059429E+03  0.69977615055E+03  0.70987726397E+03  0.30000000000E+02 0.  1.
    -200000    1    3    3    0    0 -0.73181647955E+02  0.32444363805E+03  0.22568349545E+03  0.41443125846E+03  0.10100000000E+03 0. -1.
<mgrwt>
<rscale>  0 0.17609251E+04</rscale>
<asrwt>0</asrwt>
<pdfrwt beam="1">  1        2 0.30226864E+00 0.17609251E+04</pdfrwt>
<pdfrwt beam="2">  1       -2 0.52339863E-01 0.17609251E+04</pdfrwt>
<totfact> 0.22868744E+01</totfact>
</mgrwt>
</event>
<event>
 8    2  0.7266322E-052  0.2289228E+04  0.7818608E-02  0.8482180E-01
         -2   -1    0    0    0  501 -0.00000000000E+00  0.00000000000E+00  0.48494255395E+03  0.48494255396E+03  0.25500000000E-02 0. -1.
          2   -1    0    0  501    0  0.00000000000E+00 -0.00000000000E+00 -0.27016431095E+04  0.27016431095E+04  0.25500000000E-02 0.  1.
    -200001    2    1    2    0    0  0.64739082163E+03  0.29732092416E+03 -0.20189675283E+04  0.22261784801E+04  0.61002142322E+03 0.  0.
   -5000001    2    3    3    0    0  0.10618237108E+03 -0.16845317708E+03 -0.52805016862E+03  0.57001192026E+03  0.80158841451E+02 0.  0.
     200001    1    1    2    0    0 -0.64739082163E+03 -0.29732092416E+03 -0.19773302723E+03  0.96040718340E+03  0.61300000000E+03 0. -1.
         11    1    4    4    0    0 -0.10927441815E+02 -0.20374834164E+02 -0.47219147729E+02  0.52575571936E+02  0.51100000000E-03 0.  1.
    -200002    1    4    4    0    0  0.11710981289E+03 -0.14807834292E+03 -0.48083102089E+03  0.51743634832E+03  0.30000000000E+02 0.  1.
    -200000    1    3    3    0    0  0.54120845056E+03  0.46577410124E+03 -0.14909173597E+04  0.16561665598E+04  0.10100000000E+03 0.  1.
<mgrwt>
<rscale>  0 0.22892284E+04</rscale>
<asrwt>0</asrwt>
<pdfrwt beam="1">  1        2 0.38594901E+00 0.22892284E+04</pdfrwt>
<pdfrwt beam="2">  1       -2 0.69277509E-01 0.22892284E+04</pdfrwt>
<totfact> 0.59641922E+00</totfact>
</mgrwt>
</event>
<event>
 8    2  0.7266322E-052  0.1472350E+04  0.7818608E-02  0.8903051E-01
          2   -1    0    0  501    0  0.00000000000E+00  0.00000000000E+00  0.18905748613E+04  0.18905748613E+04  0.25500000000E-02 0.  1.
         -2   -1    0    0    0  501 -0.00000000000E+00 -0.00000000000E+00 -0.28666063806E+03  0.28666063807E+03  0.25500000000E-02 0. -1.
    -200001    2    1    2    0    0  0.13012401784E+03 -0.32754194095E+03  0.11044040252E+04  0.13115014634E+04  0.61327958917E+03 0.  0.
   -5000001    2    3    3    0    0  0.27478210457E+03 -0.30834724769E+03  0.39199055184E+03  0.57731595868E+03  0.95151948292E+02 0.  0.
     200001    1    1    2    0    0 -0.13012401784E+03  0.32754194095E+03  0.49951019802E+03  0.86573403596E+03  0.61300000000E+03 0. -1.
         11    1    4    4    0    0  0.11894993607E+03 -0.14445214885E+03  0.11990647563E+03  0.22224552525E+03  0.51100000000E-03 0.  1.
    -200002    1    4    4    0    0  0.15583216850E+03 -0.16389509884E+03  0.27208407621E+03  0.35507043343E+03  0.30000000000E+02 0.  1.
    -200000    1    3    3    0    0 -0.14465808673E+03 -0.19194693256E+02  0.71241347334E+03  0.73418550469E+03  0.10100000000E+03 0. -1.
<mgrwt>
<rscale>  0 0.14723497E+04</rscale>
<asrwt>0</asrwt>
<pdfrwt beam="1">  1        2 0.27008212E+00 0.14723497E+04</pdfrwt>
<pdfrwt beam="2">  1       -2 0.40951520E-01 0.14723497E+04</pdfrwt>
<totfact> 0.50013520E+01</totfact>
</mgrwt>
</event>
<event>
 8    2  0.7266322E-052  0.1411167E+04  0.7818608E-02  0.8945775E-01
          2   -1    0    0  501    0  0.00000000000E+00  0.00000000000E+00  0.22614591450E+04  0.22614591450E+04  0.25500000000E-02 0.  1.
         -2   -1    0    0    0  501 -0.00000000000E+00 -0.00000000000E+00 -0.22014456599E+03  0.22014456600E+03  0.25500000000E-02 0. -1.
    -200001    2    1    2    0    0 -0.10743224188E+03 -0.32513895778E+03  0.11394546478E+04  0.13386350482E+04  0.61345730871E+03 0.  0.
   -5000001    2    3    3    0    0  0.32866696376E+01 -0.47127851909E+03  0.76992078631E+03  0.91393312511E+03  0.14276377424E+03 0.  0.
     200001    1    1    2    0    0  0.10743224188E+03  0.32513895778E+03  0.90185993123E+03  0.11429686627E+04  0.61300000000E+03 0.  1.
         11    1    4    4    0    0  0.65574276884E+02 -0.31135319743E+03  0.50195050754E+03  0.59430220541E+03  0.51100000000E-03 0.  1.
    -200002    1    4    4    0    0 -0.62287607246E+02 -0.15992532166E+03  0.26797027877E+03  0.31963091970E+03  0.30000000000E+02 0.  1.
    -200000    1    3    3    0    0 -0.11071891152E+03  0.14613956131E+03  0.36953386145E+03  0.42470192313E+03  0.10100000000E+03 0. -1.
<mgrwt>
<rscale>  0 0.14111668E+04</rscale>
<asrwt>0</asrwt>
<pdfrwt beam="1">  1        2 0.32306558E+00 0.14111668E+04</pdfrwt>
<pdfrwt beam="2">  1       -2 0.31449225E-01 0.14111668E+04</pdfrwt>
<totfact> 0.53749275E+01</totfact>
</mgrwt>
</event>
<event>
 8    2  0.7266322E-052  0.1291803E+04  0.7818608E-02  0.9036091E-01
         -2   -1    0    0    0  501 -0.00000000000E+00  0.00000000000E+00  0.22355443520E+03  0.22355443522E+03  0.25500000000E-02 0. -1.
          2   -1    0    0  501    0  0.00000000000E+00 -0.00000000000E+00 -0.18661615714E+04  0.18661615714E+04  0.25500000000E-02 0.  1.
    -200001    2    1    2    0    0 -0.54807442473E+02 -0.75504105808E+02 -0.52838845384E+03  0.81458581803E+03  0.61290372086E+03 0.  0.
   -5000001    2    3    3    0    0  0.18634738029E+03  0.10236450576E+03 -0.64382133702E+02  0.25307379087E+03  0.12123302480E+03 0.  0.
     200001    1    1    2    0    0  0.54807442473E+02  0.75504105808E+02 -0.11142186824E+04  0.12751301886E+04  0.61300000000E+03 0.  1.
         11    1    4    4    0    0  0.10139016998E+03  0.10913901599E+03 -0.65458056946E+02  0.16271462319E+03  0.51100000000E-03 0.  1.
    -200002    1    4    4    0    0  0.84957210312E+02 -0.67745102272E+01  0.10759232438E+01  0.90359167679E+02  0.30000000000E+02 0. -1.
    -200000    1    3    3    0    0 -0.24115482277E+03 -0.17786861157E+03 -0.46400632014E+03  0.56151202717E+03  0.10100000000E+03 0. -1.
<mgrwt>
<rscale>  0 0.12918029E+04</rscale>
<asrwt>0</asrwt>
<pdfrwt beam="1">  1        2 0.26659450E+00 0.12918029E+04</pdfrwt>
<pdfrwt beam="2">  1       -2 0.31936349E-01 0.12918029E+04</pdfrwt>
<totfact> 0.84130525E+01</totfact>
</mgrwt>
</event>
<event>
 8    2  0.7266322E-052  0.1502621E+04  0.7818608E-02  0.8882712E-01
         -2   -1    0    0    0  501 -0.00000000000E+00  0.00000000000E+00  0.55945419314E+03  0.55945419314E+03  0.25500000000E-02 0. -1.
          2   -1    0    0  501    0  0.00000000000E+00 -0.00000000000E+00 -0.10089611158E+04  0.10089611158E+04  0.25500000000E-02 0.  1.
    -200001    2    1    2    0    0  0.99247298992E+02  0.42266560718E+03 -0.21112200885E+03  0.78032101958E+03  0.61305150609E+03 0.  0.
   -5000001    2    3    3    0    0  0.18575886410E+03  0.57262335417E+01 -0.16518208206E+03  0.34028219281E+03  0.23230950297E+03 0.  0.
     200001    1    1    2    0    0 -0.99247298992E+02 -0.42266560718E+03 -0.23838491386E+03  0.78809428941E+03  0.61300000000E+03 0. -1.
         11    1    4    4    0    0 -0.68777120815E+01 -0.78400653896E+02 -0.77814260463E+02  0.11067531155E+03  0.51100000000E-03 0.  1.
    -200002    1    4    4    0    0  0.19263657618E+03  0.84126887438E+02 -0.87367821595E+02  0.22960688126E+03  0.30000000000E+02 0.  1.
    -200000    1    3    3    0    0 -0.86511565108E+02  0.41693937364E+03 -0.45939926791E+02  0.44003882677E+03  0.10100000000E+03 0.  1.
<mgrwt>
<rscale>  0 0.15026211E+04</rscale>
<asrwt>0</asrwt>
<pdfrwt beam="1">  1        2 0.14413730E+00 0.15026211E+04</pdfrwt>
<pdfrwt beam="2">  1       -2 0.79922028E-01 0.15026211E+04</pdfrwt>
<totfact> 0.37185781E+01</totfact>
</mgrwt>
</event>
<event>
 8    2  0.7266322E-052  0.2000073E+04  0.7818608E-02  0.8606586E-01
          2   -1    0    0  501    0  0.00000000000E+00  0.00000000000E+00  0.28414872628E+04  0.28414872628E+04  0.25500000000E-02 0.  1.
         -2   -1    0    0    0  501 -0.00000000000E+00 -0.00000000000E+00 -0.35195421307E+03  0.35195421308E+03  0.25500000000E-02 0. -1.
    -200001    2    1    2    0    0  0.50400835271E+03  0.46228171681E+03  0.61180068198E+03  0.11031360795E+04  0.61227471783E+03 0.  0.
   -5000001    2    3    3    0    0  0.21603091294E+03  0.43713127732E+03  0.62278642648E+03  0.79672910012E+03  0.95714246645E+02 0.  0.
     200001    1    1    2    0    0 -0.50400835271E+03 -0.46228171681E+03  0.18777323678E+04  0.20903053964E+04  0.61300000000E+03 0.  1.
         11    1    4    4    0    0 -0.34465807853E+01  0.51991852747E+02  0.54910927846E+02  0.75698359747E+02  0.51100000000E-03 0.  1.
    -200002    1    4    4    0    0  0.21947749373E+03  0.38513942458E+03  0.56787549863E+03  0.72103074037E+03  0.30000000000E+02 0.  1.
    -200000    1    3    3    0    0  0.28797743977E+03  0.25150439488E+02 -0.10985744498E+02  0.30640697937E+03  0.10100000000E+03 0. -1.
<mgrwt>
<rscale>  0 0.20000734E+04</rscale>
<asrwt>0</asrwt>
<pdfrwt beam="1">  1        2 0.40592678E+00 0.20000734E+04</pdfrwt>
<pdfrwt beam="2">  1       -2 0.50279170E-01 0.20000734E+04</pdfrwt>
<totfact> 0.10081262E+01</totfact>
</mgrwt>
</event>
<event>
 8    2  0.7266322E-052  0.1596581E+04  0.7818608E-02  0.8822651E-01
          2   -1    0    0  501    0  0.00000000000E+00  0.00000000000E+00  0.27636792919E+04  0.27636792919E+04  0.25500000000E-02 0.  1.
         -2   -1    0    0    0  501 -0.00000000000E+00 -0.00000000000E+00 -0.23058681562E+03  0.23058681563E+03  0.25500000000E-02 0. -1.
    -200001    2    1    2    0    0  0.19916750182E+03  0.38357831576E+03  0.17775012514E+04  0.19296125878E+04  0.61407981721E+03 0.  0.
   -5000001    2    3    3    0    0  0.16027672998E+03  0.38788252612E+02  0.86266933208E+02  0.20020020232E+03  0.73790097782E+02 0.  0.
     200001    1    1    2    0    0 -0.19916750182E+03 -0.38357831576E+03  0.75559122485E+03  0.10646535198E+04  0.61300000000E+03 0. -1.
         11    1    4    4    0    0  0.78779144462E+02  0.14902269135E+01  0.67691918528E+02  0.10387766946E+03  0.51100000000E-03 0.  1.
    -200002    1    4    4    0    0  0.81497585519E+02  0.37298025698E+02  0.18575014680E+02  0.96322532861E+02  0.30000000000E+02 0.  1.
    -200000    1    3    3    0    0  0.38890771838E+02  0.34479006315E+03  0.16912343182E+04  0.17294123854E+04  0.10100000000E+03 0.  1.
<mgrwt>
<rscale>  0 0.15965814E+04</rscale>
<asrwt>0</asrwt>
<pdfrwt beam="1">  1        2 0.39481136E+00 0.15965814E+04</pdfrwt>
<pdfrwt beam="2">  1       -2 0.32940971E-01 0.15965814E+04</pdfrwt>
<totfact> 0.26379721E+01</totfact>
</mgrwt>
</event>
<event>
 8    2  0.7266322E-052  0.1294234E+04  0.7818608E-02  0.9034150E-01
          2   -1    0    0  501    0  0.00000000000E+00  0.00000000000E+00  0.18165343201E+04  0.18165343201E+04  0.25500000000E-02 0.  1.
         -2   -1    0    0    0  501 -0.00000000000E+00 -0.00000000000E+00 -0.23052707080E+03  0.23052707082E+03  0.25500000000E-02 0. -1.
    -200001    2    1    2    0    0  0.33601846917E+02 -0.77004983010E+02  0.10929603722E+04  0.12559083877E+04  0.61293119635E+03 0.  0.
   -5000001    2    3    3    0    0 -0.77901973860E+02 -0.17739483121E+02 -0.22289062363E+02  0.12899765347E+03  0.98793651146E+02 0.  0.
     200001    1    1    2    0    0 -0.33601846917E+02  0.77004983010E+02  0.49304687704E+03  0.79115300321E+03  0.61300000000E+03 0. -1.
         11    1    4    4    0    0 -0.28677094538E+02  0.11080433230E+02  0.32259728730E+02  0.44562785479E+02  0.51100000000E-03 0.  1.
    -200002    1    4    4    0    0 -0.49224879322E+02 -0.28819916351E+02 -0.54548791092E+02  0.84434867989E+02  0.30000000000E+02 0.  1.
    -200000    1    3    3    0    0  0.11150382078E+03 -0.59265499890E+02  0.11152494346E+04  0.11269107342E+04  0.10100000000E+03 0.  1.
<mgrwt>
<rscale>  0 0.12942339E+04</rscale>
<asrwt>0</asrwt>
<pdfrwt beam="1">  1        2 0.25950490E+00 0.12942339E+04</pdfrwt>
<pdfrwt beam="2">  1       -2 0.32932440E-01 0.12942339E+04</pdfrwt>
<totfact> 0.84191380E+01</totfact>
</mgrwt>
</event>
<event>
 8    2  0.7266322E-052  0.1753888E+04  0.7818608E-02  0.8731213E-01
          2   -1    0    0  501    0  0.00000000000E+00  0.00000000000E+00  0.61232657741E+03  0.61232657742E+03  0.25500000000E-02 0.  1.
         -2   -1    0    0    0  501 -0.00000000000E+00 -0.00000000000E+00 -0.12559158562E+04  0.12559158562E+04  0.25500000000E-02 0. -1.
    -200001    2    1    2    0    0  0.11680554158E+03 -0.51620040348E+03  0.37410534018E+02  0.81011383269E+03  0.61219154091E+03 0.  0.
   -5000001    2    3    3    0    0 -0.15768940356E+03 -0.40949337216E+02 -0.12953140291E+03  0.22763493933E+03  0.92176380123E+02 0.  0.
     200001    1    1    2    0    0 -0.11680554158E+03  0.51620040348E+03 -0.68099981283E+03  0.10581286010E+04  0.61300000000E+03 0. -1.
         11    1    4    4    0    0 -0.20156007574E+02  0.15106205741E+02  0.42063387957E+01  0.25537333054E+02  0.51100000000E-03 0.  1.
    -200002    1    4    4    0    0 -0.13753339599E+03 -0.56055542957E+02 -0.13373774171E+03  0.20209760628E+03  0.30000000000E+02 0.  1.
    -200000    1    3    3    0    0  0.27449494514E+03 -0.47525106627E+03  0.16694193693E+03  0.58247889335E+03  0.10100000000E+03 0.  1.
<mgrwt>
<rscale>  0 0.17538879E+04</rscale>
<asrwt>0</asrwt>
<pdfrwt beam="1">  1        2 0.87475225E-01 0.17538879E+04</pdfrwt>
<pdfrwt beam="2">  1       -2 0.17941655E+00 0.17538879E+04</pdfrwt>
<totfact> 0.92030372E+00</totfact>
</mgrwt>
</event>
<event>
 8    2  0.7266322E-052  0.1754670E+04  0.7818608E-02  0.8730784E-01
          2   -1    0    0  501    0  0.00000000000E+00  0.00000000000E+00  0.31486991332E+04  0.31486991332E+04  0.25500000000E-02 0.  1.
         -2   -1    0    0    0  501 -0.00000000000E+00 -0.00000000000E+00 -0.24445538535E+03  0.24445538536E+03  0.25500000000E-02 0. -1.
    -200001    2    1    2    0    0  0.81587356787E+02 -0.15761798401E+02  0.26553707907E+04  0.27263624371E+04  0.61249748672E+03 0.  0.
   -5000001    2    3    3    0    0 -0.15382943638E+03 -0.21251494546E+03  0.93355622681E+03  0.97451219812E+03  0.96543762749E+02 0.  0.
     200001    1    1    2    0    0 -0.81587356787E+02  0.15761798401E+02  0.24887295712E+03  0.66679208144E+03  0.61300000000E+03 0. -1.
         11    1    4    4    0    0 -0.13345303892E+03 -0.18175587797E+03  0.67636684030E+03  0.71296354425E+03  0.51100000000E-03 0.  1.
    -200002    1    4    4    0    0 -0.20376397460E+02 -0.30759067489E+02  0.25718938651E+03  0.26154865387E+03  0.30000000000E+02 0. -1.
    -200000    1    3    3    0    0  0.23541679317E+03  0.19675314706E+03  0.17218145639E+04  0.17518502390E+04  0.10100000000E+03 0. -1.
<mgrwt>
<rscale>  0 0.17546697E+04</rscale>
<asrwt>0</asrwt>
<pdfrwt beam="1">  1        2 0.44981413E+00 0.17546697E+04</pdfrwt>
<pdfrwt beam="2">  1       -2 0.34922200E-01 0.17546697E+04</pdfrwt>
<totfact> 0.14239600E+01</totfact>
</mgrwt>
</event>
<event>
 8    2  0.7266322E-052  0.1499315E+04  0.7818608E-02  0.8884909E-01
         -2   -1    0    0    0  501 -0.00000000000E+00  0.00000000000E+00  0.19300608225E+03  0.19300608227E+03  0.25500000000E-02 0. -1.
          2   -1    0    0  501    0  0.00000000000E+00 -0.00000000000E+00 -0.29117527951E+04  0.29117527951E+04  0.25500000000E-02 0.  1.
    -200001    2    1    2    0    0  0.21091338494E+03  0.31088104073E+03 -0.18034826844E+04  0.19408822863E+04  0.61101782216E+03 0.  0.
   -5000001    2    3    3    0    0 -0.12302311431E+02 -0.15662863497E+03 -0.44564162176E+03  0.48406249810E+03  0.10505318111E+03 0.  0.
     200001    1    1    2    0    0 -0.21091338494E+03 -0.31088104073E+03 -0.91526402845E+03  0.11638765911E+04  0.61300000000E+03 0. -1.
         11    1    4    4    0    0  0.14615831016E+02 -0.13780805404E+03 -0.27809632659E+03  0.31071248630E+03  0.51100000000E-03 0.  1.
    -200002    1    4    4    0    0 -0.26918142447E+02 -0.18820580924E+02 -0.16754529517E+03  0.17335001180E+03  0.30000000000E+02 0.  1.
    -200000    1    3    3    0    0  0.22321569637E+03  0.46750967569E+03 -0.13578410626E+04  0.14568197882E+04  0.10100000000E+03 0. -1.
<mgrwt>
<rscale>  0 0.14993145E+04</rscale>
<asrwt>0</asrwt>
<pdfrwt beam="1">  1        2 0.41596466E+00 0.14993145E+04</pdfrwt>
<pdfrwt beam="2">  1       -2 0.27572299E-01 0.14993145E+04</pdfrwt>
<totfact> 0.30784802E+01</totfact>
</mgrwt>
</event>
<event>
 8    2  0.7266322E-052  0.1723307E+04  0.7818608E-02  0.8748182E-01
         -2   -1    0    0    0  501 -0.00000000000E+00  0.00000000000E+00  0.43075650656E+03  0.43075650657E+03  0.25500000000E-02 0. -1.
          2   -1    0    0  501    0  0.00000000000E+00 -0.00000000000E+00 -0.17235876082E+04  0.17235876082E+04  0.25500000000E-02 0.  1.
    -200001    2    1    2    0    0 -0.55006547450E+03  0.44108779669E+02 -0.33490902283E+03  0.89026289912E+03  0.61309572279E+03 0.  0.
   -5000001    2    3    3    0    0 -0.48231886587E+03  0.64820742083E+02  0.40969349140E+02  0.49465685913E+03  0.78572919864E+02 0.  0.
     200001    1    1    2    0    0  0.55006547450E+03 -0.44108779669E+02 -0.95792207882E+03  0.12640812157E+04  0.61300000000E+03 0. -1.
         11    1    4    4    0    0 -0.56755304056E+02 -0.10324839952E+02  0.19663203469E+02  0.60945946784E+02  0.51100000000E-03 0.  1.
    -200002    1    4    4    0    0 -0.42556356181E+03  0.75145582036E+02  0.21306145671E+02  0.43371091234E+03  0.30000000000E+02 0.  1.
    -200000    1    3    3    0    0 -0.67746608633E+02 -0.20711962415E+02 -0.37587837197E+03  0.39560604000E+03  0.10100000000E+03 0.  1.
<mgrwt>
<rscale>  0 0.17233068E+04</rscale>
<asrwt>0</asrwt>
<pdfrwt beam="1">  1        2 0.24622680E+00 0.17233068E+04</pdfrwt>
<pdfrwt beam="2">  1       -2 0.61536645E-01 0.17233068E+04</pdfrwt>
<totfact> 0.26060772E+01</totfact>
</mgrwt>
</event>
<event>
 8    2  0.7266322E-052  0.1413928E+04  0.7818608E-02  0.8943798E-01
         -2   -1    0    0    0  501 -0.00000000000E+00  0.00000000000E+00  0.39844067338E+03  0.39844067339E+03  0.25500000000E-02 0. -1.
          2   -1    0    0  501    0  0.00000000000E+00 -0.00000000000E+00 -0.12543858607E+04  0.12543858607E+04  0.25500000000E-02 0.  1.
    -200001    2    1    2    0    0  0.48800952840E+02  0.26380280576E+03 -0.69400790300E+03  0.96437454786E+03  0.61351271040E+03 0.  0.
   -5000001    2    3    3    0    0  0.12461499711E+03  0.24648525764E+03 -0.76546363684E+03  0.81824245460E+03  0.85453235408E+02 0.  0.
     200001    1    1    2    0    0 -0.48800952840E+02 -0.26380280576E+03 -0.16193728436E+03  0.68845198626E+03  0.61300000000E+03 0. -1.
         11    1    4    4    0    0  0.21716264011E+02  0.34710586164E+01 -0.84491350062E+02  0.87306543891E+02  0.51100000000E-03 0.  1.
    -200002    1    4    4    0    0  0.10289873310E+03  0.24301419903E+03 -0.68097228678E+03  0.73093591071E+03  0.30000000000E+02 0.  1.
    -200000    1    3    3    0    0 -0.75814044269E+02  0.17317548113E+02  0.71455733847E+02  0.14613209326E+03  0.10100000000E+03 0. -1.
<mgrwt>
<rscale>  0 0.14139284E+04</rscale>
<asrwt>0</asrwt>
<pdfrwt beam="1">  1        2 0.17919798E+00 0.14139284E+04</pdfrwt>
<pdfrwt beam="2">  1       -2 0.56920097E-01 0.14139284E+04</pdfrwt>
<totfact> 0.56080081E+01</totfact>
</mgrwt>
</event>
<event>
 8    2  0.7266322E-052  0.1494323E+04  0.7818608E-02  0.8888237E-01
         -2   -1    0    0    0  501 -0.00000000000E+00  0.00000000000E+00  0.20604757021E+03  0.20604757023E+03  0.25500000000E-02 0. -1.
          2   -1    0    0  501    0  0.00000000000E+00 -0.00000000000E+00 -0.27093271024E+04  0.27093271024E+04  0.25500000000E-02 0.  1.
    -200001    2    1    2    0    0  0.37940942939E+03 -0.16151640055E+03 -0.14752730782E+04  0.16494341795E+04  0.61168896868E+03 0.  0.
   -5000001    2    3    3    0    0  0.31791219792E+03 -0.36103414467E+03 -0.11508535683E+04  0.12506381689E+04  0.90653596056E+02 0.  0.
     200001    1    1    2    0    0 -0.37940942939E+03  0.16151640055E+03 -0.10280064539E+04  0.12659404931E+04  0.61300000000E+03 0. -1.
         11    1    4    4    0    0  0.14679320713E+03 -0.20648280152E+03 -0.67589680082E+03  0.72181706709E+03  0.51100000000E-03 0.  1.
    -200002    1    4    4    0    0  0.17111899079E+03 -0.15455134315E+03 -0.47495676751E+03  0.52882110177E+03  0.30000000000E+02 0. -1.
    -200000    1    3    3    0    0  0.61497231479E+02  0.19951774412E+03 -0.32441950988E+03  0.39879601063E+03  0.10100000000E+03 0.  1.
<mgrwt>
<rscale>  0 0.14943229E+04</rscale>
<asrwt>0</asrwt>
<pdfrwt beam="1">  1        2 0.38704671E+00 0.14943229E+04</pdfrwt>
<pdfrwt beam="2">  1       -2 0.29435369E-01 0.14943229E+04</pdfrwt>
<totfact> 0.35147763E+01</totfact>
</mgrwt>
</event>
<event>
 8    2  0.7266322E-052  0.1590092E+04  0.7818608E-02  0.8826658E-01
         -2   -1    0    0    0  501 -0.00000000000E+00  0.00000000000E+00  0.14164469960E+04  0.14164469960E+04  0.25500000000E-02 0. -1.
          2   -1    0    0  501    0  0.00000000000E+00 -0.00000000000E+00 -0.44625614237E+03  0.44625614237E+03  0.25500000000E-02 0.  1.
    -200001    2    1    2    0    0  0.38275279301E+03  0.17315812043E+03  0.15233574378E+03  0.75765136767E+03  0.61183819828E+03 0.  0.
   -5000001    2    3    3    0    0  0.53321567470E+03  0.11782919477E+03  0.12372904081E+03  0.56602748546E+03  0.82919019917E+02 0.  0.
     200001    1    1    2    0    0 -0.38275279301E+03 -0.17315812043E+03  0.81785510989E+03  0.11050517707E+04  0.61300000000E+03 0. -1.
         11    1    4    4    0    0  0.53368634464E+02  0.36129449564E+02  0.19549304485E+02  0.67347780783E+02  0.51100000000E-03 0.  1.
    -200002    1    4    4    0    0  0.47984704024E+03  0.81699745207E+02  0.10417973633E+03  0.49867970467E+03  0.30000000000E+02 0.  1.
    -200000    1    3    3    0    0 -0.15046288169E+03  0.55328925656E+02  0.28606702966E+02  0.19162388222E+03  0.10100000000E+03 0.  1.
<mgrwt>
<rscale>  0 0.15900920E+04</rscale>
<asrwt>0</asrwt>
<pdfrwt beam="1">  1        2 0.63750877E-01 0.15900920E+04</pdfrwt>
<pdfrwt beam="2">  1       -2 0.20234957E+00 0.15900920E+04</pdfrwt>
<totfact> 0.94292427E+00</totfact>
</mgrwt>
</event>
<event>
 8    2  0.7266322E-052  0.1453332E+04  0.7818608E-02  0.8916094E-01
         -2   -1    0    0    0  501 -0.00000000000E+00  0.00000000000E+00  0.65149931658E+03  0.65149931658E+03  0.25500000000E-02 0. -1.
          2   -1    0    0  501    0  0.00000000000E+00 -0.00000000000E+00 -0.81050501714E+03  0.81050501715E+03  0.25500000000E-02 0.  1.
    -200001    2    1    2    0    0  0.25676041482E+03 -0.98166124339E+02  0.19805766493E+03  0.70119834954E+03  0.61391350219E+03 0.  0.
   -5000001    2    3    3    0    0 -0.16787805929E+03 -0.23920572930E+02  0.35544983137E+02  0.22956119309E+03  0.15059767245E+03 0.  0.
     200001    1    1    2    0    0 -0.25676041482E+03  0.98166124339E+02 -0.35706336550E+03  0.76080598419E+03  0.61300000000E+03 0.  1.
         11    1    4    4    0    0 -0.29953133712E+02 -0.35984306778E+02 -0.46389088826E+02  0.65909089781E+02  0.51100000000E-03 0.  1.
    -200002    1    4    4    0    0 -0.13792492558E+03  0.12063733848E+02  0.81934071963E+02  0.16365210331E+03  0.30000000000E+02 0.  1.
    -200000    1    3    3    0    0  0.42463847411E+03 -0.74245551409E+02  0.16251268180E+03  0.47163715645E+03  0.10100000000E+03 0.  1.
<mgrwt>
<rscale>  0 0.14533320E+04</rscale>
<asrwt>0</asrwt>
<pdfrwt beam="1">  1        2 0.11578643E+00 0.14533320E+04</pdfrwt>
<pdfrwt beam="2">  1       -2 0.93071331E-01 0.14533320E+04</pdfrwt>
<totfact> 0.35499000E+01</totfact>
</mgrwt>
</event>
<event>
 8    2  0.7266322E-052  0.1314780E+04  0.7818608E-02  0.9017926E-01
          2   -1    0    0  501    0  0.00000000000E+00  0.00000000000E+00  0.18815573380E+04  0.18815573380E+04  0.25500000000E-02 0.  1.
         -2   -1    0    0    0  501 -0.00000000000E+00 -0.00000000000E+00 -0.22968302264E+03  0.22968302265E+03  0.25500000000E-02 0. -1.
    -200001    2    1    2    0    0 -0.23251160994E+03  0.21209292729E+02  0.75377199885E+03  0.99909457265E+03  0.61278565257E+03 0.  0.
   -5000001    2    3    3    0    0  0.11840963463E+03  0.13030410083E+03  0.51767220064E+03  0.55077380382E+03  0.66085364455E+02 0.  0.
     200001    1    1    2    0    0  0.23251160994E+03 -0.21209292729E+02  0.89810231652E+03  0.11121457880E+04  0.61300000000E+03 0.  1.
         11    1    4    4    0    0  0.53733694399E+02  0.86152250655E+02  0.23681143514E+03  0.25766097109E+03  0.51100000000E-03 0.  1.
    -200002    1    4    4    0    0  0.64675940233E+02  0.44151850175E+02  0.28086076550E+03  0.29311283274E+03  0.30000000000E+02 0.  1.
    -200000    1    3    3    0    0 -0.35092124457E+03 -0.10909480810E+03  0.23609979821E+03  0.44832076882E+03  0.10100000000E+03 0. -1.
<mgrwt>
<rscale>  0 0.13147803E+04</rscale>
<asrwt>0</asrwt>
<pdfrwt beam="1">  1        2 0.26879390E+00 0.13147803E+04</pdfrwt>
<pdfrwt beam="2">  1       -2 0.32811862E-01 0.13147803E+04</pdfrwt>
<totfact> 0.78373009E+01</totfact>
</mgrwt>
</event>
<event>
 8    2  0.7266322E-052  0.1508395E+04  0.7818608E-02  0.8878889E-01
         -2   -1    0    0    0  501 -0.00000000000E+00  0.00000000000E+00  0.23570803706E+03  0.23570803707E+03  0.25500000000E-02 0. -1.
          2   -1    0    0  501    0  0.00000000000E+00 -0.00000000000E+00 -0.24132152621E+04  0.24132152621E+04  0.25500000000E-02 0.  1.
    -200001    2    1    2    0    0  0.16296479273E+03 -0.18598509827E+03 -0.45077861566E+03  0.80000235146E+03  0.61290653574E+03 0.  0.
   -5000001    2    3    3    0    0 -0.12000913140E+03  0.59177682516E+02 -0.37176219975E+03  0.40424532397E+03  0.85457352338E+02 0.  0.
     200001    1    1    2    0    0 -0.16296479273E+03  0.18598509827E+03 -0.17267286094E+04  0.18489209477E+04  0.61300000000E+03 0.  1.
         11    1    4    4    0    0 -0.93627087532E+02  0.12619461983E+02 -0.26184069334E+03  0.27836276876E+03  0.51100000000E-03 0.  1.
    -200002    1    4    4    0    0 -0.26382043864E+02  0.46558220533E+02 -0.10992150640E+03  0.12588255521E+03  0.30000000000E+02 0.  1.
    -200000    1    3    3    0    0  0.28297392412E+03 -0.24516278079E+03 -0.79016415919E+02  0.39575702748E+03  0.10100000000E+03 0. -1.
<mgrwt>
<rscale>  0 0.15083955E+04</rscale>
<asrwt>0</asrwt>
<pdfrwt beam="1">  1        2 0.34474502E+00 0.15083955E+04</pdfrwt>
<pdfrwt beam="2">  1       -2 0.33672578E-01 0.15083955E+04</pdfrwt>
<totfact> 0.39101773E+01</totfact>
</mgrwt>
</event>
<event>
 8    2  0.7266322E-052  0.1328791E+04  0.7818608E-02  0.9007040E-01
         -2   -1    0    0    0  501 -0.00000000000E+00  0.00000000000E+00  0.31626769757E+03  0.31626769758E+03  0.25500000000E-02 0. -1.
          2   -1    0    0  501    0  0.00000000000E+00 -0.00000000000E+00 -0.13957198503E+04  0.13957198503E+04  0.25500000000E-02 0.  1.
    -200001    2    1    2    0    0  0.26235811903E+02 -0.12541537511E+03 -0.82542699688E+03  0.10361805385E+04  0.61312563720E+03 0.  0.
   -5000001    2    3    3    0    0  0.10643127375E+03 -0.31355509877E+02  0.38768935609E+02  0.15736646253E+03  0.10464410700E+03 0.  0.
     200001    1    1    2    0    0 -0.26235811903E+02  0.12541537511E+03 -0.25402515584E+03  0.67580700939E+03  0.61300000000E+03 0. -1.
         11    1    4    4    0    0  0.11535106420E+03 -0.35771888954E+02  0.27994618792E+02  0.12397255637E+03  0.51100000000E-03 0.  1.
    -200002    1    4    4    0    0 -0.89197904481E+01  0.44163790774E+01  0.10774316817E+02  0.33393906161E+02  0.30000000000E+02 0. -1.
    -200000    1    3    3    0    0 -0.80195461845E+02 -0.94059865237E+02 -0.86419593249E+03  0.87881407595E+03  0.10100000000E+03 0.  1.
<mgrwt>
<rscale>  0 0.13287906E+04</rscale>
<asrwt>0</asrwt>
<pdfrwt beam="1">  1        2 0.19938855E+00 0.13287906E+04</pdfrwt>
<pdfrwt beam="2">  1       -2 0.45181101E-01 0.13287906E+04</pdfrwt>
<totfact> 0.75612770E+01</totfact>
</mgrwt>
</event>
<event>
 8    2  0.7266322E-052  0.1614271E+04  0.7818608E-02  0.8811828E-01
         -2   -1    0    0    0  501 -0.00000000000E+00  0.00000000000E+00  0.40603257816E+03  0.40603257816E+03  0.25500000000E-02 0. -1.
          2   -1    0    0  501    0  0.00000000000E+00 -0.00000000000E+00 -0.16044715676E+04  0.16044715676E+04  0.25500000000E-02 0.  1.
    -200001    2    1    2    0    0 -0.10375865737E+03 -0.51081598549E+03 -0.68263824257E+03  0.10547226642E+04  0.61216509062E+03 0.  0.
   -5000001    2    3    3    0    0  0.15323332830E+03 -0.37743179222E+03 -0.61016900415E+03  0.73962107070E+03  0.93797142404E+02 0.  0.
     200001    1    1    2    0    0  0.10375865737E+03  0.51081598549E+03 -0.51580074686E+03  0.95578148155E+03  0.61300000000E+03 0. -1.
         11    1    4    4    0    0  0.45670365808E+02 -0.17760200570E+03 -0.21171801111E+03  0.28009421802E+03  0.51100000000E-03 0.  1.
    -200002    1    4    4    0    0  0.10756296250E+03 -0.19982978653E+03 -0.39845099303E+03  0.45952685268E+03  0.30000000000E+02 0.  1.
    -200000    1    3    3    0    0 -0.25699198567E+03 -0.13338419326E+03 -0.72469238426E+02  0.31510159351E+03  0.10100000000E+03 0. -1.
<mgrwt>
<rscale>  0 0.16142710E+04</rscale>
<asrwt>0</asrwt>
<pdfrwt beam="1">  1        2 0.22921022E+00 0.16142710E+04</pdfrwt>
<pdfrwt beam="2">  1       -2 0.58004655E-01 0.16142710E+04</pdfrwt>
<totfact> 0.34358451E+01</totfact>
</mgrwt>
</event>
<event>
 8    2  0.7266322E-052  0.1621311E+04  0.7818608E-02  0.8807562E-01
          2   -1    0    0  501    0  0.00000000000E+00  0.00000000000E+00  0.24111329900E+04  0.24111329900E+04  0.25500000000E-02 0.  1.
         -2   -1    0    0    0  501 -0.00000000000E+00 -0.00000000000E+00 -0.27255321813E+03  0.27255321814E+03  0.25500000000E-02 0. -1.
    -200001    2    1    2    0    0 -0.48802751854E+01  0.59040069269E+02  0.19544154518E+03  0.64528862305E+03  0.61211964728E+03 0.  0.
   -5000001    2    3    3    0    0  0.27843291527E+03  0.11043753091E+03  0.54924355678E+02  0.30935091529E+03  0.54405582443E+02 0.  0.
     200001    1    1    2    0    0  0.48802751854E+01 -0.59040069269E+02  0.19431382267E+04  0.20383975851E+04  0.61300000000E+03 0.  1.
         11    1    4    4    0    0  0.19039368859E+03  0.78054717671E+02  0.32194931047E+02  0.20827580078E+03  0.51100000000E-03 0.  1.
    -200002    1    4    4    0    0  0.88039226685E+02  0.32382813236E+02  0.22729424631E+02  0.10107511451E+03  0.30000000000E+02 0. -1.
    -200000    1    3    3    0    0 -0.28331319046E+03 -0.51397461638E+02  0.14051718950E+03  0.33593770776E+03  0.10100000000E+03 0. -1.
<mgrwt>
<rscale>  0 0.16213106E+04</rscale>
<asrwt>0</asrwt>
<pdfrwt beam="1">  1        2 0.34444757E+00 0.16213106E+04</pdfrwt>
<pdfrwt beam="2">  1       -2 0.38936174E-01 0.16213106E+04</pdfrwt>
<totfact> 0.29382100E+01</totfact>
</mgrwt>
</event>
<event>
 8    2  0.7266322E-052  0.1612280E+04  0.7818608E-02  0.8813039E-01
         -2   -1    0    0    0  501 -0.00000000000E+00  0.00000000000E+00  0.91915734151E+03  0.91915734151E+03  0.25500000000E-02 0. -1.
          2   -1    0    0  501    0  0.00000000000E+00 -0.00000000000E+00 -0.70701920648E+03  0.70701920649E+03  0.25500000000E-02 0.  1.
    -200001    2    1    2    0    0  0.48189507561E+03 -0.12907592278E+03  0.26805817392E+03  0.83385116756E+03  0.61202052849E+03 0.  0.
   -5000001    2    3    3    0    0  0.72199914478E+02 -0.29233486160E+03  0.47985664416E+02  0.33072442845E+03  0.12807624536E+03 0.  0.
     200001    1    1    2    0    0 -0.48189507561E+03  0.12907592278E+03 -0.55920038897E+02  0.79232538044E+03  0.61300000000E+03 0.  1.
         11    1    4    4    0    0 -0.17282675009E+02 -0.17713246883E+03  0.33469825695E+02  0.18109343334E+03  0.51100000000E-03 0.  1.
    -200002    1    4    4    0    0  0.89482589487E+02 -0.11520239278E+03  0.14515838721E+02  0.14963099511E+03  0.30000000000E+02 0.  1.
    -200000    1    3    3    0    0  0.40969516114E+03  0.16325893882E+03  0.22007250951E+03  0.50312673911E+03  0.10100000000E+03 0. -1.
<mgrwt>
<rscale>  0 0.16122802E+04</rscale>
<asrwt>0</asrwt>
<pdfrwt beam="1">  1        2 0.10100274E+00 0.16122802E+04</pdfrwt>
<pdfrwt beam="2">  1       -2 0.13130819E+00 0.16122802E+04</pdfrwt>
<totfact> 0.18071392E+01</totfact>
</mgrwt>
</event>
<event>
 8    2  0.7266322E-052  0.1629468E+04  0.7818608E-02  0.8802646E-01
          2   -1    0    0  501    0  0.00000000000E+00  0.00000000000E+00  0.37199963852E+04  0.37199963852E+04  0.25500000000E-02 0.  1.
         -2   -1    0    0    0  501 -0.00000000000E+00 -0.00000000000E+00 -0.17843882487E+03  0.17843882489E+03  0.25500000000E-02 0. -1.
    -200001    2    1    2    0    0  0.44419823560E+03  0.19954699893E+03  0.12348437455E+04  0.14624900750E+04  0.61392757438E+03 0.  0.
   -5000001    2    3    3    0    0  0.39510307863E+02 -0.18879706629E+03  0.42622180930E+03  0.47322071460E+03  0.71185794517E+02 0.  0.
     200001    1    1    2    0    0 -0.44419823560E+03 -0.19954699893E+03  0.23067138148E+04  0.24359451350E+04  0.61300000000E+03 0.  1.
         11    1    4    4    0    0  0.42131079496E+02 -0.76516081631E+02  0.15080371334E+03  0.17427420511E+03  0.51100000000E-03 0.  1.
    -200002    1    4    4    0    0 -0.26207716324E+01 -0.11228098466E+03  0.27541809596E+03  0.29894650950E+03  0.30000000000E+02 0.  1.
    -200000    1    3    3    0    0  0.40468792773E+03  0.38834406522E+03  0.80862193616E+03  0.98926936043E+03  0.10100000000E+03 0. -1.
<mgrwt>
<rscale>  0 0.16294684E+04</rscale>
<asrwt>0</asrwt>
<pdfrwt beam="1">  1        2 0.53142805E+00 0.16294684E+04</pdfrwt>
<pdfrwt beam="2">  1       -2 0.25491261E-01 0.16294684E+04</pdfrwt>
<totfact> 0.11732699E+01</totfact>
</mgrwt>
</event>
<event>
 8    2  0.7266322E-052  0.1282512E+04  0.7818608E-02  0.9043550E-01
         -2   -1    0    0    0  501 -0.00000000000E+00  0.00000000000E+00  0.21058050294E+03  0.21058050296E+03  0.25500000000E-02 0. -1.
          2   -1    0    0  501    0  0.00000000000E+00 -0.00000000000E+00 -0.19527404608E+04  0.19527404608E+04  0.25500000000E-02 0.  1.
    -200001    2    1    2    0    0  0.44100348542E+02  0.16303176885E+03 -0.73678115532E+03  0.97374972377E+03  0.61385491389E+03 0.  0.
   -5000001    2    3    3    0    0 -0.26441102609E+01  0.37906036038E+03 -0.46955564860E+03  0.61255189954E+03  0.10508841213E+03 0.  0.
     200001    1    1    2    0    0 -0.44100348542E+02 -0.16303176885E+03 -0.10053788025E+04  0.11895712399E+04  0.61300000000E+03 0.  1.
         11    1    4    4    0    0 -0.29252249266E+02  0.62077597591E+02 -0.12538150300E+03  0.14293300355E+03  0.51100000000E-03 0.  1.
    -200002    1    4    4    0    0  0.26608139005E+02  0.31698276279E+03 -0.34417414561E+03  0.46961889599E+03  0.30000000000E+02 0.  1.
    -200000    1    3    3    0    0  0.46744458803E+02 -0.21602859153E+03 -0.26722550672E+03  0.36119782423E+03  0.10100000000E+03 0.  1.
<mgrwt>
<rscale>  0 0.12825117E+04</rscale>
<asrwt>0</asrwt>
<pdfrwt beam="1">  1        2 0.27896291E+00 0.12825117E+04</pdfrwt>
<pdfrwt beam="2">  1       -2 0.30082930E-01 0.12825117E+04</pdfrwt>
<totfact> 0.84996047E+01</totfact>
</mgrwt>
</event>
<event>
 8    2  0.7266322E-052  0.1547309E+04  0.7818608E-02  0.8853589E-01
          2   -1    0    0  501    0  0.00000000000E+00  0.00000000000E+00  0.10351015382E+04  0.10351015382E+04  0.25500000000E-02 0.  1.
         -2   -1    0    0    0  501 -0.00000000000E+00 -0.00000000000E+00 -0.57824384007E+03  0.57824384008E+03  0.25500000000E-02 0. -1.
    -200001    2    1    2    0    0 -0.25327202491E+03 -0.60378806735E+02 -0.18222865530E+03  0.69031087944E+03  0.61280462511E+03 0.  0.
   -5000001    2    3    3    0    0  0.63038845505E+02  0.20082189510E+03 -0.96036452151E+02  0.25913983535E+03  0.11673527542E+03 0.  0.
     200001    1    1    2    0    0  0.25327202491E+03  0.60378806735E+02  0.63908635340E+03  0.92303449882E+03  0.61300000000E+03 0. -1.
         11    1    4    4    0    0  0.23180018578E+02  0.16765854783E+03 -0.10408571253E+03  0.19869709981E+03  0.51100000000E-03 0.  1.
    -200002    1    4    4    0    0  0.39858826926E+02  0.33163347272E+02  0.80492603794E+01  0.60442735534E+02  0.30000000000E+02 0.  1.
    -200000    1    3    3    0    0 -0.31631087042E+03 -0.26120070183E+03 -0.86192203145E+02  0.43117104409E+03  0.10100000000E+03 0. -1.
<mgrwt>
<rscale>  0 0.15473087E+04</rscale>
<asrwt>0</asrwt>
<pdfrwt beam="1">  1        2 0.14787165E+00 0.15473087E+04</pdfrwt>
<pdfrwt beam="2">  1       -2 0.82606263E-01 0.15473087E+04</pdfrwt>
<totfact> 0.33156675E+01</totfact>
</mgrwt>
</event>
<event>
 8    2  0.7266322E-052  0.1527305E+04  0.7818608E-02  0.8866496E-01
          2   -1    0    0  501    0  0.00000000000E+00  0.00000000000E+00  0.25947405989E+04  0.25947405989E+04  0.25500000000E-02 0.  1.
         -2   -1    0    0    0  501 -0.00000000000E+00 -0.00000000000E+00 -0.22474884888E+03  0.22474884890E+03  0.25500000000E-02 0. -1.
    -200001    2    1    2    0    0 -0.21608843563E+03  0.22041269929E+03  0.18034547730E+04  0.19295405075E+04  0.61270015642E+03 0.  0.
   -5000001    2    3    3    0    0 -0.24603357846E+03 -0.11968232349E+03  0.87409642765E+03  0.93431728117E+03  0.18452055921E+03 0.  0.
     200001    1    1    2    0    0  0.21608843563E+03 -0.22041269929E+03  0.56653697694E+03  0.88994894026E+03  0.61300000000E+03 0. -1.
         11    1    4    4    0    0 -0.75915302254E+02 -0.11678978228E+03  0.54629329136E+03  0.56377242443E+03  0.51100000000E-03 0.  1.
    -200002    1    4    4    0    0 -0.17011827620E+03 -0.28925412123E+01  0.32780313629E+03  0.37054485674E+03  0.30000000000E+02 0. -1.
    -200000    1    3    3    0    0  0.29945142831E+02  0.34009502278E+03  0.92935834539E+03  0.99522322634E+03  0.10100000000E+03 0.  1.
<mgrwt>
<rscale>  0 0.15273048E+04</rscale>
<asrwt>0</asrwt>
<pdfrwt beam="1">  1        2 0.37067720E+00 0.15273048E+04</pdfrwt>
<pdfrwt beam="2">  1       -2 0.32106981E-01 0.15273048E+04</pdfrwt>
<totfact> 0.34290898E+01</totfact>
</mgrwt>
</event>
<event>
 8    2  0.7266322E-052  0.1458612E+04  0.7818608E-02  0.8912452E-01
         -2   -1    0    0    0  501 -0.00000000000E+00  0.00000000000E+00  0.73216633716E+03  0.73216633717E+03  0.25500000000E-02 0.  1.
          2   -1    0    0  501    0  0.00000000000E+00 -0.00000000000E+00 -0.72645689549E+03  0.72645689549E+03  0.25500000000E-02 0. -1.
    -200001    2    1    2    0    0 -0.79764677281E+02  0.14462538327E+03 -0.35829769346E+03  0.72681103020E+03  0.61040816775E+03 0.  0.
   -5000001    2    3    3    0    0 -0.22258840983E+03  0.84975649113E+02 -0.18124391271E+03  0.47087011780E+03  0.36345955870E+03 0.  0.
     200001    1    1    2    0    0  0.79764677281E+02 -0.14462538327E+03  0.36400713514E+03  0.73181220245E+03  0.61300000000E+03 0.  1.
         11    1    4    4    0    0 -0.44644054308E+02  0.19954597428E+03 -0.24788551940E+02  0.20597611450E+03  0.51100000000E-03 0.  1.
    -200002    1    4    4    0    0 -0.17794435553E+03 -0.11457032516E+03 -0.15645536077E+03  0.26489400330E+03  0.30000000000E+02 0.  1.
    -200000    1    3    3    0    0  0.14282373255E+03  0.59649734158E+02 -0.17705378075E+03  0.25594091240E+03  0.10100000000E+03 0.  1.
<mgrwt>
<rscale>  0 0.14586121E+04</rscale>
<asrwt>0</asrwt>
<pdfrwt beam="1">  1        2 0.10377956E+00 0.14586121E+04</pdfrwt>
<pdfrwt beam="2">  1       -2 0.10459519E+00 0.14586121E+04</pdfrwt>
<totfact> 0.30964100E+01</totfact>
</mgrwt>
</event>
<event>
 8    2  0.7266322E-052  0.2022745E+04  0.7818608E-02  0.8596060E-01
         -2   -1    0    0    0  501 -0.00000000000E+00  0.00000000000E+00  0.96124099532E+03  0.96124099532E+03  0.25500000000E-02 0. -1.
          2   -1    0    0  501    0  0.00000000000E+00 -0.00000000000E+00 -0.10641183260E+04  0.10641183260E+04  0.25500000000E-02 0.  1.
    -200001    2    1    2    0    0 -0.31854358679E+03 -0.85435027501E+02  0.68328470925E+03  0.97531698235E+03  0.61285892467E+03 0.  0.
   -5000001    2    3    3    0    0 -0.12766822356E+03 -0.24105454760E+03  0.23386254844E+03  0.45298364247E+03  0.27585506803E+03 0.  0.
     200001    1    1    2    0    0  0.31854358679E+03  0.85435027501E+02 -0.78616203993E+03  0.10500423390E+04  0.61300000000E+03 0.  1.
         11    1    4    4    0    0 -0.17776021571E+03 -0.11914450736E+03  0.23496332252E+03  0.31780791502E+03  0.51100000000E-03 0.  1.
    -200002    1    4    4    0    0  0.50091992141E+02 -0.12191004024E+03 -0.11007740761E+01  0.13517572745E+03  0.30000000000E+02 0.  1.
    -200000    1    3    3    0    0 -0.19087536323E+03  0.15561952009E+03  0.44942216081E+03  0.52233333988E+03  0.10100000000E+03 0.  1.
<mgrwt>
<rscale>  0 0.20227448E+04</rscale>
<asrwt>0</asrwt>
<pdfrwt beam="1">  1        2 0.15201690E+00 0.20227448E+04</pdfrwt>
<pdfrwt beam="2">  1       -2 0.13732014E+00 0.20227448E+04</pdfrwt>
<totfact> 0.90242240E+00</totfact>
</mgrwt>
</event>
<event>
 8    2  0.7266322E-052  0.1445030E+04  0.7818608E-02  0.8921854E-01
         -2   -1    0    0    0  501 -0.00000000000E+00  0.00000000000E+00  0.25916122275E+03  0.25916122276E+03  0.25500000000E-02 0. -1.
          2   -1    0    0  501    0  0.00000000000E+00 -0.00000000000E+00 -0.20142969254E+04  0.20142969254E+04  0.25500000000E-02 0.  1.
    -200001    2    1    2    0    0 -0.23356961609E+03  0.47952756779E+02 -0.13476805476E+04  0.14997379560E+04  0.61328365839E+03 0.  0.
   -5000001    2    3    3    0    0  0.15924439481E+03 -0.87686985975E+01 -0.44777600736E+03  0.51102700110E+03  0.18764214808E+03 0.  0.
     200001    1    1    2    0    0  0.23356961609E+03 -0.47952756779E+02 -0.40745515500E+03  0.77372019217E+03  0.61300000000E+03 0. -1.
         11    1    4    4    0    0  0.13917893103E+02  0.63315790272E+02 -0.22284343251E+03  0.23208143498E+03  0.51100000000E-03 0.  1.
    -200002    1    4    4    0    0  0.14532650171E+03 -0.72084488869E+02 -0.22493257485E+03  0.27894556613E+03  0.30000000000E+02 0.  1.
    -200000    1    3    3    0    0 -0.39281401090E+03  0.56721455377E+02 -0.89990454028E+03  0.98871095487E+03  0.10100000000E+03 0.  1.
<mgrwt>
<rscale>  0 0.14450296E+04</rscale>
<asrwt>0</asrwt>
<pdfrwt beam="1">  1        2 0.28775670E+00 0.14450296E+04</pdfrwt>
<pdfrwt beam="2">  1       -2 0.37023033E-01 0.14450296E+04</pdfrwt>
<totfact> 0.52677133E+01</totfact>
</mgrwt>
</event>
<event>
 8    2  0.7266322E-052  0.1579031E+04  0.7818608E-02  0.8833534E-01
          2   -1    0    0  501    0  0.00000000000E+00  0.00000000000E+00  0.70658238062E+03  0.70658238062E+03  0.25500000000E-02 0.  1.
         -2   -1    0    0    0  501 -0.00000000000E+00 -0.00000000000E+00 -0.88218291810E+03  0.88218291810E+03  0.25500000000E-02 0. -1.
    -200001    2    1    2    0    0  0.19670263769E+03  0.42323970289E+03  0.85733826909E+02  0.77520004395E+03  0.61299351161E+03 0.  0.
   -5000001    2    3    3    0    0  0.11883608007E+03  0.24379626960E+03 -0.24445691514E+03  0.37834985473E+03  0.99150361670E+02 0.  0.
     200001    1    1    2    0    0 -0.19670263769E+03 -0.42323970289E+03 -0.26133436439E+03  0.81356525478E+03  0.61300000000E+03 0. -1.
         11    1    4    4    0    0  0.14891653384E+02  0.97397574613E+02 -0.45020216963E+02  0.10832759952E+03  0.51100000000E-03 0.  1.
    -200002    1    4    4    0    0  0.10394442668E+03  0.14639869498E+03 -0.19943669817E+03  0.27002225521E+03  0.30000000000E+02 0.  1.
    -200000    1    3    3    0    0  0.77866557625E+02  0.17944343329E+03  0.33019074205E+03  0.39685018922E+03  0.10100000000E+03 0.  1.
<mgrwt>
<rscale>  0 0.15790312E+04</rscale>
<asrwt>0</asrwt>
<pdfrwt beam="1">  1        2 0.10094034E+00 0.15790312E+04</pdfrwt>
<pdfrwt beam="2">  1       -2 0.12602613E+00 0.15790312E+04</pdfrwt>
<totfact> 0.20113911E+01</totfact>
</mgrwt>
</event>
<event>
 8    2  0.7266322E-052  0.1655369E+04  0.7818608E-02  0.8787237E-01
          2   -1    0    0  501    0  0.00000000000E+00  0.00000000000E+00  0.12018306952E+04  0.12018306952E+04  0.25500000000E-02 0.  1.
         -2   -1    0    0    0  501 -0.00000000000E+00 -0.00000000000E+00 -0.57001481856E+03  0.57001481857E+03  0.25500000000E-02 0. -1.
    -200001    2    1    2    0    0  0.37972116306E+03 -0.30988699392E+03  0.31591586631E+02  0.78378867888E+03  0.61082612429E+03 0.  0.
   -5000001    2    3    3    0    0  0.17730324019E+03 -0.46381090856E+03 -0.27097299312E+02  0.50394770202E+03  0.81682463615E+02 0.  0.
     200001    1    1    2    0    0 -0.37972116306E+03  0.30988699392E+03  0.60022429002E+03  0.98805683491E+03  0.61300000000E+03 0.  1.
         11    1    4    4    0    0  0.12144376188E+03 -0.25230581995E+03 -0.39553740175E+02  0.28279199501E+03  0.51100000000E-03 0.  1.
    -200002    1    4    4    0    0  0.55859478317E+02 -0.21150508861E+03  0.12456440863E+02  0.22115570701E+03  0.30000000000E+02 0.  1.
    -200000    1    3    3    0    0  0.20241792287E+03  0.15392391464E+03  0.58688885943E+02  0.27984097686E+03  0.10100000000E+03 0. -1.
<mgrwt>
<rscale>  0 0.16553686E+04</rscale>
<asrwt>0</asrwt>
<pdfrwt beam="1">  1        2 0.17169010E+00 0.16553686E+04</pdfrwt>
<pdfrwt beam="2">  1       -2 0.81430689E-01 0.16553686E+04</pdfrwt>
<totfact> 0.27107469E+01</totfact>
</mgrwt>
</event>
<event>
 8    2  0.7266322E-052  0.1436452E+04  0.7818608E-02  0.8927848E-01
         -2   -1    0    0    0  501 -0.00000000000E+00  0.00000000000E+00  0.73193281804E+03  0.73193281805E+03  0.25500000000E-02 0. -1.
          2   -1    0    0  501    0  0.00000000000E+00 -0.00000000000E+00 -0.70477560301E+03  0.70477560301E+03  0.25500000000E-02 0.  1.
    -200001    2    1    2    0    0 -0.27037703419E+03 -0.11811982035E+03 -0.21934544598E+03  0.71311420158E+03  0.61103470216E+03 0.  0.
   -5000001    2    3    3    0    0 -0.16621821210E+03  0.14343106346E+03  0.12015897974E+03  0.26065184942E+03  0.72802762262E+02 0.  0.
     200001    1    1    2    0    0  0.27037703419E+03  0.11811982035E+03  0.24650266102E+03  0.72359421948E+03  0.61300000000E+03 0. -1.
         11    1    4    4    0    0 -0.58215304800E+02  0.88842503915E+02  0.63012350835E+02  0.12350128976E+03  0.51100000000E-03 0.  1.
    -200002    1    4    4    0    0 -0.10800290730E+03  0.54588559545E+02  0.57146628909E+02  0.13715055966E+03  0.30000000000E+02 0.  1.
    -200000    1    3    3    0    0 -0.10415882209E+03 -0.26155088381E+03 -0.33950442572E+03  0.45246235216E+03  0.10100000000E+03 0.  1.
<mgrwt>
<rscale>  0 0.14364517E+04</rscale>
<asrwt>0</asrwt>
<pdfrwt beam="1">  1        2 0.10068223E+00 0.14364517E+04</pdfrwt>
<pdfrwt beam="2">  1       -2 0.10456183E+00 0.14364517E+04</pdfrwt>
<totfact> 0.32230990E+01</totfact>
</mgrwt>
</event>
<event>
 8    2  0.7266322E-052  0.1440721E+04  0.7818608E-02  0.8924859E-01
          2   -1    0    0  501    0  0.00000000000E+00  0.00000000000E+00  0.18966266822E+04  0.18966266822E+04  0.25500000000E-02 0.  1.
         -2   -1    0    0    0  501 -0.00000000000E+00 -0.00000000000E+00 -0.27360101838E+03  0.27360101839E+03  0.25500000000E-02 0. -1.
    -200001    2    1    2    0    0  0.10288928866E+03 -0.36254258434E+03  0.85938832147E+03  0.11209735265E+04  0.61319656629E+03 0.  0.
   -5000001    2    3    3    0    0  0.49441908433E+02  0.15968658243E+03  0.22328136552E+03  0.29006258997E+03  0.79607983244E+02 0.  0.
     200001    1    1    2    0    0 -0.10288928866E+03  0.36254258434E+03  0.76363734238E+03  0.10492541741E+04  0.61300000000E+03 0. -1.
         11    1    4    4    0    0 -0.66643824523E+01  0.65968956816E+02  0.50006914385E+02  0.83048231429E+02  0.51100000000E-03 0.  1.
    -200002    1    4    4    0    0  0.56106290886E+02  0.93717625612E+02  0.17327445113E+03  0.20701435854E+03  0.30000000000E+02 0.  1.
    -200000    1    3    3    0    0  0.53447380224E+02 -0.52222916677E+03  0.63610695595E+03  0.83091093655E+03  0.10100000000E+03 0. -1.
<mgrwt>
<rscale>  0 0.14407206E+04</rscale>
<asrwt>0</asrwt>
<pdfrwt beam="1">  1        2 0.27094666E+00 0.14407206E+04</pdfrwt>
<pdfrwt beam="2">  1       -2 0.39085861E-01 0.14407206E+04</pdfrwt>
<totfact> 0.54527151E+01</totfact>
</mgrwt>
</event>
<event>
 8    2  0.7266322E-052  0.1266900E+04  0.7818608E-02  0.9056234E-01
          2   -1    0    0  501    0  0.00000000000E+00  0.00000000000E+00  0.26746228626E+04  0.26746228626E+04  0.25500000000E-02 0.  1.
         -2   -1    0    0    0  501 -0.00000000000E+00 -0.00000000000E+00 -0.15002443069E+03  0.15002443071E+03  0.25500000000E-02 0. -1.
    -200001    2    1    2    0    0  0.52808865173E+02  0.39287627637E+00  0.15585646046E+04  0.16793179581E+04  0.62305396801E+03 0.  0.
   -5000001    2    3    3    0    0 -0.10084666587E+03  0.26931492901E+03  0.71070187109E+03  0.77102213208E+03  0.81715344833E+02 0.  0.
     200001    1    1    2    0    0 -0.52808865173E+02 -0.39287627637E+00  0.96603382725E+03  0.11453293352E+04  0.61300000000E+03 0. -1.
         11    1    4    4    0    0 -0.86485233329E+02  0.13986687296E+03  0.42096054906E+03  0.45194050670E+03  0.51100000000E-03 0.  1.
    -200002    1    4    4    0    0 -0.14361432540E+02  0.12944805605E+03  0.28974132203E+03  0.31908162537E+03  0.30000000000E+02 0.  1.
    -200000    1    3    3    0    0  0.15365553104E+03 -0.26892205273E+03  0.84786273353E+03  0.90829582602E+03  0.10100000000E+03 0.  1.
<mgrwt>
<rscale>  0 0.12668998E+04</rscale>
<asrwt>0</asrwt>
<pdfrwt beam="1">  1        2 0.38208897E+00 0.12668998E+04</pdfrwt>
<pdfrwt beam="2">  1       -2 0.21432062E-01 0.12668998E+04</pdfrwt>
<totfact> 0.66498369E+01</totfact>
</mgrwt>
</event>
<event>
 8    2  0.7266322E-052  0.1806270E+04  0.7818608E-02  0.8702972E-01
         -2   -1    0    0    0  501 -0.00000000000E+00  0.00000000000E+00  0.62483582418E+03  0.62483582419E+03  0.25500000000E-02 0. -1.
          2   -1    0    0  501    0  0.00000000000E+00 -0.00000000000E+00 -0.13053873531E+04  0.13053873531E+04  0.25500000000E-02 0.  1.
    -200001    2    1    2    0    0 -0.13756829071E+03 -0.44986803243E+03  0.15983242907E+03  0.78859255488E+03  0.61239328132E+03 0.  0.
   -5000001    2    3    3    0    0 -0.25345771577E+03 -0.46626338121E+03  0.26909143895E+03  0.59928408296E+03  0.71336212626E+02 0.  0.
     200001    1    1    2    0    0  0.13756829071E+03  0.44986803243E+03 -0.84038395802E+03  0.11416306224E+04  0.61300000000E+03 0.  1.
         11    1    4    4    0    0 -0.10323229756E+03 -0.14206628901E+03  0.10823555934E+03  0.20628784268E+03  0.51100000000E-03 0.  1.
    -200002    1    4    4    0    0 -0.15022541821E+03 -0.32419709219E+03  0.16085587961E+03  0.39299624027E+03  0.30000000000E+02 0.  1.
    -200000    1    3    3    0    0  0.11588942506E+03  0.16395348776E+02 -0.10925900988E+03  0.18930847192E+03  0.10100000000E+03 0. -1.
<mgrwt>
<rscale>  0 0.18062699E+04</rscale>
<asrwt>0</asrwt>
<pdfrwt beam="1">  1        2 0.18648391E+00 0.18062699E+04</pdfrwt>
<pdfrwt beam="2">  1       -2 0.89262261E-01 0.18062699E+04</pdfrwt>
<totfact> 0.19011153E+01</totfact>
</mgrwt>
</event>
<event>
 8    2  0.7266322E-052  0.2195120E+04  0.7818608E-02  0.8520462E-01
          2   -1    0    0  501    0  0.00000000000E+00  0.00000000000E+00  0.11565906803E+04  0.11565906803E+04  0.25500000000E-02 0.  1.
         -2   -1    0    0    0  501 -0.00000000000E+00 -0.00000000000E+00 -0.10415422366E+04  0.10415422366E+04  0.25500000000E-02 0. -1.
    -200001    2    1    2    0    0 -0.56560262803E+03  0.35100265091E+03 -0.56397200096E+03  0.10667855088E+04  0.61388737575E+03 0.  0.
   -5000001    2    3    3    0    0  0.11252959074E+03  0.13571882452E+02 -0.67368748832E+02  0.15544659287E+03  0.82328549906E+02 0.  0.
     200001    1    1    2    0    0  0.56560262803E+03 -0.35100265091E+03  0.67902044462E+03  0.11313474082E+04  0.61300000000E+03 0.  1.
         11    1    4    4    0    0  0.10383673954E+03  0.25036866665E+02 -0.51941873037E+02  0.11877235093E+03  0.51100000000E-03 0.  1.
    -200002    1    4    4    0    0  0.86928512026E+01 -0.11464984213E+02 -0.15426875795E+02  0.36674241939E+02  0.30000000000E+02 0. -1.
    -200000    1    3    3    0    0 -0.67813221877E+03  0.33743076846E+03 -0.49660325212E+03  0.91133891591E+03  0.10100000000E+03 0. -1.
<mgrwt>
<rscale>  0 0.21951201E+04</rscale>
<asrwt>0</asrwt>
<pdfrwt beam="1">  1        2 0.16522724E+00 0.21951201E+04</pdfrwt>
<pdfrwt beam="2">  1       -2 0.14879175E+00 0.21951201E+04</pdfrwt>
<totfact> 0.63660132E+00</totfact>
</mgrwt>
</event>
<event>
 8    2  0.7266322E-052  0.1407196E+04  0.7818608E-02  0.8948626E-01
          2   -1    0    0  501    0  0.00000000000E+00  0.00000000000E+00  0.15574567458E+04  0.15574567458E+04  0.25500000000E-02 0.  1.
         -2   -1    0    0    0  501 -0.00000000000E+00 -0.00000000000E+00 -0.31785788177E+03  0.31785788178E+03  0.25500000000E-02 0. -1.
    -200001    2    1    2    0    0 -0.23515195178E+03  0.24580683125E+03  0.53711382527E+03  0.88285723888E+03  0.61255873534E+03 0.  0.
   -5000001    2    3    3    0    0 -0.41075793019E+03  0.11313754417E+03  0.45604305376E+03  0.62749069961E+03  0.65170009213E+02 0.  0.
     200001    1    1    2    0    0  0.23515195178E+03 -0.24580683125E+03  0.70248503878E+03  0.99245738872E+03  0.61300000000E+03 0. -1.
         11    1    4    4    0    0 -0.10963632520E+02  0.11523286414E+02  0.82515424967E+01  0.17918574766E+02  0.51100000000E-03 0.  1.
    -200002    1    4    4    0    0 -0.39979429767E+03  0.10161425775E+03  0.44779151126E+03  0.60957212484E+03  0.30000000000E+02 0.  1.
    -200000    1    3    3    0    0  0.17560597841E+03  0.13266928708E+03  0.81070771508E+02  0.25536653927E+03  0.10100000000E+03 0. -1.
<mgrwt>
<rscale>  0 0.14071957E+04</rscale>
<asrwt>0</asrwt>
<pdfrwt beam="1">  1        2 0.22249382E+00 0.14071957E+04</pdfrwt>
<pdfrwt beam="2">  1       -2 0.45408269E-01 0.14071957E+04</pdfrwt>
<totfact> 0.61008312E+01</totfact>
</mgrwt>
</event>
<event>
 8    2  0.7266322E-052  0.1339453E+04  0.7818608E-02  0.8998851E-01
          2   -1    0    0  501    0  0.00000000000E+00  0.00000000000E+00  0.89908346608E+03  0.89908346608E+03  0.25500000000E-02 0. -1.
         -2   -1    0    0    0  501 -0.00000000000E+00 -0.00000000000E+00 -0.49887874227E+03  0.49887874228E+03  0.25500000000E-02 0.  1.
    -200001    2    1    2    0    0  0.94821081222E+02 -0.16481714450E+03  0.76379663396E+00  0.64200071274E+03  0.61319540377E+03 0.  0.
   -5000001    2    3    3    0    0  0.28460682502E+02 -0.18047240649E+03  0.26659660739E+03  0.34956803156E+03  0.13320569681E+03 0.  0.
     200001    1    1    2    0    0 -0.94821081222E+02  0.16481714450E+03  0.39944092717E+03  0.75596149562E+03  0.61300000000E+03 0. -1.
         11    1    4    4    0    0  0.55235981912E+02 -0.13756518960E+03  0.24609151570E+03  0.28729119232E+03  0.51100000000E-03 0.  1.
    -200002    1    4    4    0    0 -0.26775299410E+02 -0.42907216898E+02  0.20505091693E+02  0.62276839240E+02  0.30000000000E+02 0.  1.
    -200000    1    3    3    0    0  0.66360398720E+02  0.15655261990E+02 -0.26583281076E+03  0.29243268118E+03  0.10100000000E+03 0.  1.
<mgrwt>
<rscale>  0 0.13394531E+04</rscale>
<asrwt>0</asrwt>
<pdfrwt beam="1">  1        2 0.12844049E+00 0.13394531E+04</pdfrwt>
<pdfrwt beam="2">  1       -2 0.71268392E-01 0.13394531E+04</pdfrwt>
<totfact> 0.56971097E+01</totfact>
</mgrwt>
</event>
<event>
 8    2  0.7266322E-052  0.1348470E+04  0.7818608E-02  0.8991987E-01
          2   -1    0    0  501    0  0.00000000000E+00  0.00000000000E+00  0.96304992295E+03  0.96304992295E+03  0.25500000000E-02 0.  1.
         -2   -1    0    0    0  501 -0.00000000000E+00 -0.00000000000E+00 -0.47203440908E+03  0.47203440908E+03  0.25500000000E-02 0. -1.
    -200001    2    1    2    0    0  0.40531749578E+02  0.27565723999E+03  0.28726096333E+03  0.73158262376E+03  0.61242512820E+03 0.  0.
   -5000001    2    3    3    0    0 -0.25530178291E+03  0.19962703174E+02  0.79330602012E+02  0.27734346841E+03  0.71053115190E+02 0.  0.
     200001    1    1    2    0    0 -0.40531749578E+02 -0.27565723999E+03  0.20375455054E+03  0.70350170828E+03  0.61300000000E+03 0. -1.
         11    1    4    4    0    0 -0.14209130273E+03 -0.14108309642E+01  0.68651960914E+02  0.15781324562E+03  0.51100000000E-03 0.  1.
    -200002    1    4    4    0    0 -0.11321048018E+03  0.21373534139E+02  0.10678641098E+02  0.11953022279E+03  0.30000000000E+02 0.  1.
    -200000    1    3    3    0    0  0.29583353249E+03  0.25569453681E+03  0.20793036132E+03  0.45423915535E+03  0.10100000000E+03 0. -1.
<mgrwt>
<rscale>  0 0.13484698E+04</rscale>
<asrwt>0</asrwt>
<pdfrwt beam="1">  1        2 0.13757856E+00 0.13484698E+04</pdfrwt>
<pdfrwt beam="2">  1       -2 0.67433487E-01 0.13484698E+04</pdfrwt>
<totfact> 0.58426880E+01</totfact>
</mgrwt>
</event>
<event>
 8    2  0.7266322E-052  0.1329728E+04  0.7818608E-02  0.9006317E-01
         -2   -1    0    0    0  501 -0.00000000000E+00  0.00000000000E+00  0.60419784235E+03  0.60419784236E+03  0.25500000000E-02 0. -1.
          2   -1    0    0  501    0  0.00000000000E+00 -0.00000000000E+00 -0.73162116201E+03  0.73162116202E+03  0.25500000000E-02 0.  1.
    -200001    2    1    2    0    0  0.71769802033E+02  0.19358903126E+03 -0.21738014330E+03  0.68275786817E+03  0.61341385893E+03 0.  0.
   -5000001    2    3    3    0    0  0.59809793687E+02  0.10026365793E+03  0.19678370945E+03  0.24619703159E+03  0.90879797192E+02 0.  0.
     200001    1    1    2    0    0 -0.71769802033E+02 -0.19358903126E+03  0.89956823641E+02  0.65306113621E+03  0.61300000000E+03 0. -1.
         11    1    4    4    0    0  0.41972680300E+02  0.58387618882E+02  0.17177793706E+03  0.18622158734E+03  0.51100000000E-03 0.  1.
    -200002    1    4    4    0    0  0.17837113387E+02  0.41876039049E+02  0.25005772386E+02  0.59975444251E+02  0.30000000000E+02 0. -1.
    -200000    1    3    3    0    0  0.11960008346E+02  0.93325373333E+02 -0.41416385275E+03  0.43656083658E+03  0.10100000000E+03 0.  1.
<mgrwt>
<rscale>  0 0.13297277E+04</rscale>
<asrwt>0</asrwt>
<pdfrwt beam="1">  1        2 0.10451731E+00 0.13297277E+04</pdfrwt>
<pdfrwt beam="2">  1       -2 0.86313977E-01 0.13297277E+04</pdfrwt>
<totfact> 0.48557455E+01</totfact>
</mgrwt>
</event>
<event>
 8    2  0.7266322E-052  0.1697120E+04  0.7818608E-02  0.8763009E-01
          2   -1    0    0  501    0  0.00000000000E+00  0.00000000000E+00  0.35598086702E+03  0.35598086703E+03  0.25500000000E-02 0.  1.
         -2   -1    0    0    0  501 -0.00000000000E+00 -0.00000000000E+00 -0.20227328412E+04  0.20227328412E+04  0.25500000000E-02 0. -1.
    -200001    2    1    2    0    0  0.21856365345E+03 -0.63008301629E+02 -0.15909126306E+04  0.17204882736E+04  0.61427744927E+03 0.  0.
   -5000001    2    3    3    0    0  0.22823049102E+03  0.20365860179E+03 -0.11683235899E+04  0.12105988910E+04  0.83687998820E+02 0.  0.
     200001    1    1    2    0    0 -0.21856365345E+03  0.63008301629E+02 -0.75839343509E+02  0.65822543456E+03  0.61300000000E+03 0.  1.
         11    1    4    4    0    0  0.19715171747E+03  0.14942133740E+03 -0.88612979556E+03  0.92001171207E+03  0.51100000000E-03 0.  1.
    -200002    1    4    4    0    0  0.31078773552E+02  0.54237264391E+02 -0.28219379433E+03  0.29058717895E+03  0.30000000000E+02 0. -1.
    -200000    1    3    3    0    0 -0.96668375703E+01 -0.26666690342E+03 -0.42258904076E+03  0.50988938261E+03  0.10100000000E+03 0.  1.
<mgrwt>
<rscale>  0 0.16971201E+04</rscale>
<asrwt>0</asrwt>
<pdfrwt beam="1">  1        2 0.50854411E-01 0.16971201E+04</pdfrwt>
<pdfrwt beam="2">  1       -2 0.28896183E+00 0.16971201E+04</pdfrwt>
<totfact> 0.34969695E+00</totfact>
</mgrwt>
</event>
<event>
 8    2  0.7266322E-052  0.1492414E+04  0.7818608E-02  0.8889513E-01
         -2   -1    0    0    0  501 -0.00000000000E+00  0.00000000000E+00  0.21414396701E+03  0.21414396702E+03  0.25500000000E-02 0. -1.
          2   -1    0    0  501    0  0.00000000000E+00 -0.00000000000E+00 -0.26002364274E+04  0.26002364274E+04  0.25500000000E-02 0.  1.
    -200001    2    1    2    0    0  0.45009269004E+02 -0.20719766976E+03 -0.18885441909E+04  0.19968964563E+04  0.61322066782E+03 0.  0.
   -5000001    2    3    3    0    0 -0.19430335695E+02  0.18470865161E+03 -0.97361496384E+03  0.99437986393E+03  0.79814735884E+02 0.  0.
     200001    1    1    2    0    0 -0.45009269004E+02  0.20719766976E+03 -0.49754826946E+03  0.81748393813E+03  0.61300000000E+03 0. -1.
         11    1    4    4    0    0  0.54261054261E+01  0.12300063120E+03 -0.48695328851E+03  0.50227691873E+03  0.51100000000E-03 0.  1.
    -200002    1    4    4    0    0 -0.24856441121E+02  0.61708020410E+02 -0.48666167532E+03  0.49210294520E+03  0.30000000000E+02 0.  1.
    -200000    1    3    3    0    0  0.64439604699E+02 -0.39190632137E+03 -0.91492922711E+03  0.10025165924E+04  0.10100000000E+03 0. -1.
<mgrwt>
<rscale>  0 0.14924141E+04</rscale>
<asrwt>0</asrwt>
<pdfrwt beam="1">  1        2 0.37146233E+00 0.14924141E+04</pdfrwt>
<pdfrwt beam="2">  1       -2 0.30591997E-01 0.14924141E+04</pdfrwt>
<totfact> 0.37404982E+01</totfact>
</mgrwt>
</event>
<event>
 8    2  0.7266322E-052  0.1366464E+04  0.7818608E-02  0.8978457E-01
         -2   -1    0    0    0  501 -0.00000000000E+00  0.00000000000E+00  0.31339391807E+03  0.31339391808E+03  0.25500000000E-02 0. -1.
          2   -1    0    0  501    0  0.00000000000E+00 -0.00000000000E+00 -0.14895192222E+04  0.14895192222E+04  0.25500000000E-02 0.  1.
    -200001    2    1    2    0    0 -0.21376615257E+03 -0.98060608124E+01 -0.87054623499E+03  0.10853201537E+04  0.61178179284E+03 0.  0.
   -5000001    2    3    3    0    0 -0.36026894488E+03 -0.95587504051E+02 -0.60534188615E+03  0.75463016175E+03  0.25317424497E+03 0.  0.
     200001    1    1    2    0    0  0.21376615257E+03  0.98060608124E+01 -0.30557906913E+03  0.71759298652E+03  0.61300000000E+03 0.  1.
         11    1    4    4    0    0  0.71948782887E+01  0.52685210395E+02 -0.74155294117E+02  0.91249686650E+02  0.51100000000E-03 0.  1.
    -200002    1    4    4    0    0 -0.36746382317E+03 -0.14827271445E+03 -0.53118659203E+03  0.66338047510E+03  0.30000000000E+02 0.  1.
    -200000    1    3    3    0    0  0.14650279231E+03  0.85781443239E+02 -0.26520434885E+03  0.33068999200E+03  0.10100000000E+03 0.  1.
<mgrwt>
<rscale>  0 0.13664644E+04</rscale>
<asrwt>0</asrwt>
<pdfrwt beam="1">  1        2 0.21278846E+00 0.13664644E+04</pdfrwt>
<pdfrwt beam="2">  1       -2 0.44770561E-01 0.13664644E+04</pdfrwt>
<totfact> 0.68384985E+01</totfact>
</mgrwt>
</event>
<event>
 8    2  0.7266322E-052  0.1672785E+04  0.7818608E-02  0.8777040E-01
          2   -1    0    0  501    0  0.00000000000E+00  0.00000000000E+00  0.17080259059E+04  0.17080259059E+04  0.25500000000E-02 0. -1.
         -2   -1    0    0    0  501 -0.00000000000E+00 -0.00000000000E+00 -0.40956782555E+03  0.40956782556E+03  0.25500000000E-02 0.  1.
    -200001    2    1    2    0    0 -0.48555948180E+03  0.78753402437E+02  0.28778323890E+03  0.83728019803E+03  0.61339125251E+03 0.  0.
   -5000001    2    3    3    0    0  0.14452058457E+02 -0.15503309897E+03 -0.39682985959E+02  0.18758581060E+03  0.96796555688E+02 0.  0.
     200001    1    1    2    0    0  0.48555948180E+03 -0.78753402437E+02  0.10106748415E+04  0.12803135335E+04  0.61300000000E+03 0. -1.
         11    1    4    4    0    0  0.42037604669E+02 -0.40023683221E+02 -0.29593750414E+02  0.65152478761E+02  0.51100000000E-03 0.  1.
    -200002    1    4    4    0    0 -0.27585546211E+02 -0.11500941575E+03 -0.10089235545E+02  0.12243333184E+03  0.30000000000E+02 0.  1.
    -200000    1    3    3    0    0 -0.50001154026E+03  0.23378650141E+03  0.32746622485E+03  0.64969438743E+03  0.10100000000E+03 0.  1.
<mgrwt>
<rscale>  0 0.16727851E+04</rscale>
<asrwt>0</asrwt>
<pdfrwt beam="1">  1        2 0.24400370E+00 0.16727851E+04</pdfrwt>
<pdfrwt beam="2">  1       -2 0.58509690E-01 0.16727851E+04</pdfrwt>
<totfact> 0.29653096E+01</totfact>
</mgrwt>
</event>
<event>
 8    2  0.7266322E-052  0.1475018E+04  0.7818608E-02  0.8901238E-01
          2   -1    0    0  501    0  0.00000000000E+00  0.00000000000E+00  0.18247815869E+04  0.18247815869E+04  0.25500000000E-02 0.  1.
         -2   -1    0    0    0  501 -0.00000000000E+00 -0.00000000000E+00 -0.29807388649E+03  0.29807388650E+03  0.25500000000E-02 0. -1.
    -200001    2    1    2    0    0  0.25236104968E+03 -0.27256380601E+03  0.51229588421E+03  0.88076954217E+03  0.61264246154E+03 0.  0.
   -5000001    2    3    3    0    0  0.34935141584E+03 -0.81015676762E+02  0.69845957331E+02  0.37871301672E+03  0.99675170671E+02 0.  0.
     200001    1    1    2    0    0 -0.25236104968E+03  0.27256380601E+03  0.10144118162E+04  0.12420859313E+04  0.61300000000E+03 0.  1.
         11    1    4    4    0    0  0.60871129190E+01 -0.16649850662E+02  0.16359939171E+02  0.24122978272E+02  0.51100000000E-03 0.  1.
    -200002    1    4    4    0    0  0.34326430292E+03 -0.64365826100E+02  0.53486018160E+02  0.35459003845E+03  0.30000000000E+02 0.  1.
    -200000    1    3    3    0    0 -0.96990366156E+02 -0.19154812925E+03  0.44244992688E+03  0.50205652545E+03  0.10100000000E+03 0.  1.
<mgrwt>
<rscale>  0 0.14750183E+04</rscale>
<asrwt>0</asrwt>
<pdfrwt beam="1">  1        2 0.26068309E+00 0.14750183E+04</pdfrwt>
<pdfrwt beam="2">  1       -2 0.42581983E-01 0.14750183E+04</pdfrwt>
<totfact> 0.50059904E+01</totfact>
</mgrwt>
</event>
<event>
 8    2  0.7266322E-052  0.1409784E+04  0.7818608E-02  0.8946767E-01
         -2   -1    0    0    0  501 -0.00000000000E+00  0.00000000000E+00  0.35886814989E+03  0.35886814990E+03  0.25500000000E-02 0. -1.
          2   -1    0    0  501    0  0.00000000000E+00 -0.00000000000E+00 -0.13845542552E+04  0.13845542552E+04  0.25500000000E-02 0.  1.
    -200001    2    1    2    0    0  0.24741808596E+03 -0.21968803018E+03 -0.38246184909E+03  0.79527421856E+03  0.61376337201E+03 0.  0.
   -5000001    2    3    3    0    0  0.56886837813E+02  0.79119494229E+02  0.11517665690E+03  0.17605440637E+03  0.90738553128E+02 0.  0.
     200001    1    1    2    0    0 -0.24741808596E+03  0.21968803018E+03 -0.64322425621E+03  0.94814818654E+03  0.61300000000E+03 0.  1.
         11    1    4    4    0    0  0.27762142824E+02  0.39675916633E+02  0.10770485083E+03  0.11809000731E+03  0.51100000000E-03 0.  1.
    -200002    1    4    4    0    0  0.29124694989E+02  0.39443577596E+02  0.74718060682E+01  0.57964399054E+02  0.30000000000E+02 0.  1.
    -200000    1    3    3    0    0  0.19053124814E+03 -0.29880752441E+03 -0.49763850599E+03  0.61921981219E+03  0.10100000000E+03 0.  1.
<mgrwt>
<rscale>  0 0.14097836E+04</rscale>
<asrwt>0</asrwt>
<pdfrwt beam="1">  1        2 0.19779346E+00 0.14097836E+04</pdfrwt>
<pdfrwt beam="2">  1       -2 0.51266879E-01 0.14097836E+04</pdfrwt>
<totfact> 0.59036792E+01</totfact>
</mgrwt>
</event>
<event>
 8    2  0.7266322E-052  0.1304743E+04  0.7818608E-02  0.9025812E-01
         -2   -1    0    0    0  501 -0.00000000000E+00  0.00000000000E+00  0.35905238781E+03  0.35905238782E+03  0.25500000000E-02 0. -1.
          2   -1    0    0  501    0  0.00000000000E+00 -0.00000000000E+00 -0.11853110527E+04  0.11853110527E+04  0.25500000000E-02 0.  1.
    -200001    2    1    2    0    0 -0.90755356806E+02  0.24726438615E+02 -0.65380526714E+03  0.90065768014E+03  0.61227036340E+03 0.  0.
   -5000001    2    3    3    0    0 -0.60389636832E+02 -0.27530165843E+03 -0.25546543342E+03  0.39093760098E+03  0.90175988053E+02 0.  0.
     200001    1    1    2    0    0  0.90755356806E+02 -0.24726438615E+02 -0.17245339775E+03  0.64370576038E+03  0.61300000000E+03 0. -1.
         11    1    4    4    0    0 -0.43509567696E+02 -0.49081579159E+02 -0.74067665963E+02  0.98934842373E+02  0.51100000000E-03 0.  1.
    -200002    1    4    4    0    0 -0.16880069136E+02 -0.22622007927E+03 -0.18139776745E+03  0.29200275861E+03  0.30000000000E+02 0.  1.
    -200000    1    3    3    0    0 -0.30365719974E+02  0.30002809704E+03 -0.39833983373E+03  0.50972007916E+03  0.10100000000E+03 0.  1.
<mgrwt>
<rscale>  0 0.13047433E+04</rscale>
<asrwt>0</asrwt>
<pdfrwt beam="1">  1        2 0.16933015E+00 0.13047433E+04</pdfrwt>
<pdfrwt beam="2">  1       -2 0.51293199E-01 0.13047433E+04</pdfrwt>
<totfact> 0.76713151E+01</totfact>
</mgrwt>
</event>
<event>
 8    2  0.7266322E-052  0.1374805E+04  0.7818608E-02  0.8972260E-01
         -2   -1    0    0    0  501 -0.00000000000E+00  0.00000000000E+00  0.97891568368E+03  0.97891568368E+03  0.25500000000E-02 0. -1.
          2   -1    0    0  501    0  0.00000000000E+00 -0.00000000000E+00 -0.48269972663E+03  0.48269972664E+03  0.25500000000E-02 0.  1.
    -200001    2    1    2    0    0  0.17190152943E+03 -0.74024815445E+02  0.51266921364E+03  0.82046837666E+03  0.61262453865E+03 0.  0.
   -5000001    2    3    3    0    0 -0.29708982240E+02 -0.15517045693E+03  0.52958348735E+03  0.58022161559E+03  0.17674263433E+03 0.  0.
     200001    1    1    2    0    0 -0.17190152943E+03  0.74024815445E+02 -0.16453256594E+02  0.64114703366E+03  0.61300000000E+03 0. -1.
         11    1    4    4    0    0 -0.20637650267E+02 -0.17998645665E+03  0.32794478720E+03  0.37465827181E+03  0.51100000000E-03 0.  1.
    -200002    1    4    4    0    0 -0.90713319727E+01  0.24815999718E+02  0.20163870016E+03  0.20556334378E+03  0.30000000000E+02 0.  1.
    -200000    1    3    3    0    0  0.20161051167E+03  0.81145641483E+02 -0.16914273710E+02  0.24024676106E+03  0.10100000000E+03 0.  1.
<mgrwt>
<rscale>  0 0.13748052E+04</rscale>
<asrwt>0</asrwt>
<pdfrwt beam="1">  1        2 0.68957105E-01 0.13748052E+04</pdfrwt>
<pdfrwt beam="2">  1       -2 0.13984510E+00 0.13748052E+04</pdfrwt>
<totfact> 0.24576161E+01</totfact>
</mgrwt>
</event>
<event>
 8    2  0.7266322E-052  0.1901110E+04  0.7818608E-02  0.8654304E-01
          2   -1    0    0  501    0  0.00000000000E+00  0.00000000000E+00  0.13695504068E+04  0.13695504068E+04  0.25500000000E-02 0.  1.
         -2   -1    0    0    0  501 -0.00000000000E+00 -0.00000000000E+00 -0.65974576705E+03  0.65974576705E+03  0.25500000000E-02 0. -1.
    -200001    2    1    2    0    0 -0.73899408676E+02  0.66456791984E+03  0.65818893248E+03  0.11207012014E+04  0.61290037473E+03 0.  0.
   -5000001    2    3    3    0    0  0.49087304424E+02  0.56334059935E+02 -0.97535929526E+02  0.13764717086E+03  0.62051561898E+02 0.  0.
     200001    1    1    2    0    0  0.73899408676E+02 -0.66456791984E+03  0.51615707266E+02  0.90859497243E+03  0.61300000000E+03 0. -1.
         11    1    4    4    0    0  0.12562254128E+02 -0.81861763210E+01 -0.27565314799E+02  0.31379456524E+02  0.51100000000E-03 0.  1.
    -200002    1    4    4    0    0  0.36525050296E+02  0.64520236256E+02 -0.69970614727E+02  0.10626771434E+03  0.30000000000E+02 0. -1.
    -200000    1    3    3    0    0 -0.12298671310E+03  0.60823385990E+03  0.75572486201E+03  0.98305403056E+03  0.10100000000E+03 0.  1.
<mgrwt>
<rscale>  0 0.19011103E+04</rscale>
<asrwt>0</asrwt>
<pdfrwt beam="1">  1        2 0.19565006E+00 0.19011103E+04</pdfrwt>
<pdfrwt beam="2">  1       -2 0.94249396E-01 0.19011103E+04</pdfrwt>
<totfact> 0.15340302E+01</totfact>
</mgrwt>
</event>
<event>
 8    2  0.7266322E-052  0.1905180E+04  0.7818608E-02  0.8652282E-01
          2   -1    0    0  501    0  0.00000000000E+00  0.00000000000E+00  0.17279358723E+04  0.17279358723E+04  0.25500000000E-02 0.  1.
         -2   -1    0    0    0  501 -0.00000000000E+00 -0.00000000000E+00 -0.52515150153E+03  0.52515150154E+03  0.25500000000E-02 0. -1.
    -200001    2    1    2    0    0 -0.26226980517E+03 -0.40902314764E+03 -0.42533474511E+02  0.78248514286E+03  0.61187295767E+03 0.  0.
   -5000001    2    3    3    0    0 -0.30776979550E+03 -0.17624607377E+02  0.12928180757E+03  0.34091458497E+03  0.66903622203E+02 0.  0.
     200001    1    1    2    0    0  0.26226980517E+03  0.40902314764E+03  0.12453178453E+04  0.14706022310E+04  0.61300000000E+03 0.  1.
         11    1    4    4    0    0 -0.10640666497E+03  0.11687130811E+01  0.17317165676E+02  0.10781293274E+03  0.51100000000E-03 0.  1.
    -200002    1    4    4    0    0 -0.20136313054E+03 -0.18793320458E+02  0.11196464190E+03  0.23310165222E+03  0.30000000000E+02 0.  1.
    -200000    1    3    3    0    0  0.45499990332E+02 -0.39139854026E+03 -0.17181528209E+03  0.44157055789E+03  0.10100000000E+03 0.  1.
<mgrwt>
<rscale>  0 0.19051804E+04</rscale>
<asrwt>0</asrwt>
<pdfrwt beam="1">  1        2 0.24684799E+00 0.19051804E+04</pdfrwt>
<pdfrwt beam="2">  1       -2 0.75021641E-01 0.19051804E+04</pdfrwt>
<totfact> 0.16628595E+01</totfact>
</mgrwt>
</event>
<event>
 8    2  0.7266322E-052  0.1555337E+04  0.7818608E-02  0.8848466E-01
         -2   -1    0    0    0  501 -0.00000000000E+00  0.00000000000E+00  0.40045479425E+03  0.40045479426E+03  0.25500000000E-02 0. -1.
          2   -1    0    0  501    0  0.00000000000E+00 -0.00000000000E+00 -0.15102036256E+04  0.15102036256E+04  0.25500000000E-02 0.  1.
    -200001    2    1    2    0    0 -0.17539342374E+03 -0.37768258751E+03 -0.26582791104E+03  0.78754733466E+03  0.61331829912E+03 0.  0.
   -5000001    2    3    3    0    0 -0.25064387208E+03 -0.46722189616E+03 -0.74920270658E+02  0.54193250423E+03  0.83421468028E+02 0.  0.
     200001    1    1    2    0    0  0.17539342374E+03  0.37768258751E+03 -0.84392092035E+03  0.11231110853E+04  0.61300000000E+03 0.  1.
         11    1    4    4    0    0 -0.16667620225E+03 -0.23819716691E+03 -0.32563847003E+02  0.29253931506E+03  0.51100000000E-03 0.  1.
    -200002    1    4    4    0    0 -0.83967669828E+02 -0.22902472924E+03 -0.42356423656E+02  0.24939318918E+03  0.30000000000E+02 0.  1.
    -200000    1    3    3    0    0  0.75250448339E+02  0.89539308650E+02 -0.19090764038E+03  0.24561483042E+03  0.10100000000E+03 0.  1.
<mgrwt>
<rscale>  0 0.15553370E+04</rscale>
<asrwt>0</asrwt>
<pdfrwt beam="1">  1        2 0.21574337E+00 0.15553370E+04</pdfrwt>
<pdfrwt beam="2">  1       -2 0.57207828E-01 0.15553370E+04</pdfrwt>
<totfact> 0.39842967E+01</totfact>
</mgrwt>
</event>
<event>
 8    2  0.7266322E-052  0.1904185E+04  0.7818608E-02  0.8652776E-01
         -2   -1    0    0    0  501 -0.00000000000E+00  0.00000000000E+00  0.19035275800E+04  0.19035275800E+04  0.25500000000E-02 0. -1.
          2   -1    0    0  501    0  0.00000000000E+00 -0.00000000000E+00 -0.47621069121E+03  0.47621069122E+03  0.25500000000E-02 0.  1.
    -200001    2    1    2    0    0  0.48782146120E+03 -0.51941496915E+03  0.88809028139E+03  0.12960888712E+04  0.61917713607E+03 0.  0.
   -5000001    2    3    3    0    0  0.53653585339E+03 -0.57565890932E+03  0.63899954568E+03  0.10171916366E+04  0.84288222088E+02 0.  0.
     200001    1    1    2    0    0 -0.48782146120E+03  0.51941496915E+03  0.53922660744E+03  0.10836494001E+04  0.61300000000E+03 0. -1.
         11    1    4    4    0    0  0.17787693150E+03 -0.15621647264E+03  0.22540592368E+03  0.32688165980E+03  0.51100000000E-03 0.  1.
    -200002    1    4    4    0    0  0.35865892188E+03 -0.41944243668E+03  0.41359362200E+03  0.69030997682E+03  0.30000000000E+02 0. -1.
    -200000    1    3    3    0    0 -0.48714392185E+02  0.56243940168E+02  0.24909073571E+03  0.27889723453E+03  0.10100000000E+03 0. -1.
<mgrwt>
<rscale>  0 0.19041851E+04</rscale>
<asrwt>0</asrwt>
<pdfrwt beam="1">  1        2 0.68030099E-01 0.19041851E+04</pdfrwt>
<pdfrwt beam="2">  1       -2 0.27193251E+00 0.19041851E+04</pdfrwt>
<totfact> 0.31463265E+00</totfact>
</mgrwt>
</event>
<event>
 8    2  0.7266322E-052  0.1594304E+04  0.7818608E-02  0.8824055E-01
          2   -1    0    0  501    0  0.00000000000E+00  0.00000000000E+00  0.15453224072E+04  0.15453224072E+04  0.25500000000E-02 0.  1.
         -2   -1    0    0    0  501 -0.00000000000E+00 -0.00000000000E+00 -0.41120928200E+03  0.41120928201E+03  0.25500000000E-02 0. -1.
    -200001    2    1    2    0    0  0.15421008517E+03 -0.14056775040E+03 -0.33525760257E+01  0.64766299286E+03  0.61311994727E+03 0.  0.
   -5000001    2    3    3    0    0  0.16175952924E+03  0.19036930465E+03  0.40676803614E+02  0.29878491274E+03  0.15878036489E+03 0.  0.
     200001    1    1    2    0    0 -0.15421008517E+03  0.14056775040E+03  0.11374657012E+04  0.13088686963E+04  0.61300000000E+03 0.  1.
         11    1    4    4    0    0  0.50382425707E+02  0.51653941796E+02 -0.58520505620E+02  0.92904080112E+02  0.51100000000E-03 0.  1.
    -200002    1    4    4    0    0  0.11137710354E+03  0.13871536286E+03  0.99197309233E+02  0.20588083263E+03  0.30000000000E+02 0.  1.
    -200000    1    3    3    0    0 -0.75494440723E+01 -0.33093705506E+03 -0.44029379639E+02  0.34887808012E+03  0.10100000000E+03 0.  1.
<mgrwt>
<rscale>  0 0.15943035E+04</rscale>
<asrwt>0</asrwt>
<pdfrwt beam="1">  1        2 0.22076035E+00 0.15943035E+04</pdfrwt>
<pdfrwt beam="2">  1       -2 0.58744183E-01 0.15943035E+04</pdfrwt>
<totfact> 0.36000239E+01</totfact>
</mgrwt>
</event>
<event>
 8    2  0.7266322E-052  0.1307635E+04  0.7818608E-02  0.9023532E-01
          2   -1    0    0  501    0  0.00000000000E+00  0.00000000000E+00  0.39330770224E+03  0.39330770225E+03  0.25500000000E-02 0.  1.
         -2   -1    0    0    0  501 -0.00000000000E+00 -0.00000000000E+00 -0.10868774640E+04  0.10868774640E+04  0.25500000000E-02 0. -1.
    -200001    2    1    2    0    0  0.76889442127E+02 -0.13496289349E+03 -0.14266213333E+03  0.64149858356E+03  0.60583907062E+03 0.  0.
   -5000001    2    3    3    0    0 -0.14490906478E+03 -0.28907066328E+03 -0.62378108271E+02  0.34218218398E+03  0.92936178166E+02 0.  0.
     200001    1    1    2    0    0 -0.76889442127E+02  0.13496289349E+03 -0.55090762842E+03  0.83868658269E+03  0.61300000000E+03 0. -1.
         11    1    4    4    0    0 -0.53316818373E+02 -0.93563798600E+02 -0.61895147280E+02  0.12420900445E+03  0.51100000000E-03 0.  1.
    -200002    1    4    4    0    0 -0.91592246409E+02 -0.19550686468E+03 -0.48296099117E+00  0.21797317952E+03  0.30000000000E+02 0.  1.
    -200000    1    3    3    0    0  0.22179850691E+03  0.15410776980E+03 -0.80284025061E+02  0.29931639958E+03  0.10100000000E+03 0.  1.
<mgrwt>
<rscale>  0 0.13076349E+04</rscale>
<asrwt>0</asrwt>
<pdfrwt beam="1">  1        2 0.56186815E-01 0.13076349E+04</pdfrwt>
<pdfrwt beam="2">  1       -2 0.15526821E+00 0.13076349E+04</pdfrwt>
<totfact> 0.23601852E+01</totfact>
</mgrwt>
</event>
<event>
 8    2  0.7266322E-052  0.1259512E+04  0.7818608E-02  0.9062303E-01
         -2   -1    0    0    0  501 -0.00000000000E+00  0.00000000000E+00  0.22616598283E+03  0.22616598284E+03  0.25500000000E-02 0. -1.
          2   -1    0    0  501    0  0.00000000000E+00 -0.00000000000E+00 -0.17535477103E+04  0.17535477103E+04  0.25500000000E-02 0.  1.
    -200001    2    1    2    0    0  0.10363996234E+02  0.64782695387E+02 -0.57745460935E+03  0.84726734132E+03  0.61652567810E+03 0.  0.
   -5000001    2    3    3    0    0 -0.17912915236E+03 -0.18857330633E+03 -0.33471199732E+03  0.43590145471E+03  0.10164060201E+03 0.  0.
     200001    1    1    2    0    0 -0.10363996234E+02 -0.64782695387E+02 -0.94992711810E+03  0.11324463518E+04  0.61300000000E+03 0.  1.
         11    1    4    4    0    0 -0.61163358226E+02 -0.12825539656E+03 -0.15003119964E+03  0.20663921215E+03  0.51100000000E-03 0.  1.
    -200002    1    4    4    0    0 -0.11796579414E+03 -0.60317909772E+02 -0.18468079769E+03  0.22926224255E+03  0.30000000000E+02 0. -1.
    -200000    1    3    3    0    0  0.18949314860E+03  0.25335600171E+03 -0.24274261203E+03  0.41136588661E+03  0.10100000000E+03 0. -1.
<mgrwt>
<rscale>  0 0.12595124E+04</rscale>
<asrwt>0</asrwt>
<pdfrwt beam="1">  1        2 0.25050681E+00 0.12595124E+04</pdfrwt>
<pdfrwt beam="2">  1       -2 0.32309427E-01 0.12595124E+04</pdfrwt>
<totfact> 0.94299473E+01</totfact>
</mgrwt>
</event>
<event>
 8    2  0.7266322E-052  0.2272844E+04  0.7818608E-02  0.8488706E-01
          2   -1    0    0  501    0  0.00000000000E+00  0.00000000000E+00  0.29162224434E+04  0.29162224434E+04  0.25500000000E-02 0.  1.
         -2   -1    0    0    0  501 -0.00000000000E+00 -0.00000000000E+00 -0.44285183830E+03  0.44285183831E+03  0.25500000000E-02 0. -1.
    -200001    2    1    2    0    0 -0.82564788339E+03  0.39184911815E+03  0.16553232923E+04  0.19878665787E+04  0.61341517265E+03 0.  0.
   -5000001    2    3    3    0    0 -0.47191887166E+03  0.42558442423E+03  0.63068512138E+03  0.89867115736E+03  0.77566765810E+02 0.  0.
     200001    1    1    2    0    0  0.82564788339E+03 -0.39184911815E+03  0.81804731278E+03  0.13712077030E+04  0.61300000000E+03 0. -1.
         11    1    4    4    0    0 -0.25483854054E+03  0.20419324617E+03  0.28612331333E+03  0.43417060467E+03  0.51100000000E-03 0.  1.
    -200002    1    4    4    0    0 -0.21708033112E+03  0.22139117806E+03  0.34456180805E+03  0.46450055269E+03  0.30000000000E+02 0.  1.
    -200000    1    3    3    0    0 -0.35372901172E+03 -0.33735306087E+02  0.10246381709E+04  0.10891954213E+04  0.10100000000E+03 0.  1.
<mgrwt>
<rscale>  0 0.22728436E+04</rscale>
<asrwt>0</asrwt>
<pdfrwt beam="1">  1        2 0.41660320E+00 0.22728436E+04</pdfrwt>
<pdfrwt beam="2">  1       -2 0.63264549E-01 0.22728436E+04</pdfrwt>
<totfact> 0.55473582E+00</totfact>
</mgrwt>
</event>
<event>
 8    2  0.7266322E-052  0.1832874E+04  0.7818608E-02  0.8689010E-01
          2   -1    0    0  501    0  0.00000000000E+00  0.00000000000E+00  0.16400005949E+04  0.16400005949E+04  0.25500000000E-02 0.  1.
         -2   -1    0    0    0  501 -0.00000000000E+00 -0.00000000000E+00 -0.51210754388E+03  0.51210754389E+03  0.25500000000E-02 0. -1.
    -200001    2    1    2    0    0 -0.13073488449E+03  0.54142022367E+03  0.10274792493E+03  0.83418591112E+03  0.61243900073E+03 0.  0.
   -5000001    2    3    3    0    0 -0.11807700592E+03  0.63260748126E+03 -0.22385435907E+02  0.64888967309E+03  0.80139225326E+02 0.  0.
     200001    1    1    2    0    0  0.13073488449E+03 -0.54142022367E+03  0.10251451261E+04  0.13179222276E+04  0.61300000000E+03 0.  1.
         11    1    4    4    0    0 -0.59534291288E+02  0.29902928683E+03  0.23512146782E+02  0.30580331468E+03  0.51100000000E-03 0.  1.
    -200002    1    4    4    0    0 -0.58542714635E+02  0.33357819443E+03 -0.45897582689E+02  0.34308635841E+03  0.30000000000E+02 0.  1.
    -200000    1    3    3    0    0 -0.12657878564E+02 -0.91187257584E+02  0.12513336083E+03  0.18529623803E+03  0.10100000000E+03 0.  1.
<mgrwt>
<rscale>  0 0.18328739E+04</rscale>
<asrwt>0</asrwt>
<pdfrwt beam="1">  1        2 0.23428580E+00 0.18328739E+04</pdfrwt>
<pdfrwt beam="2">  1       -2 0.73158219E-01 0.18328739E+04</pdfrwt>
<totfact> 0.19647768E+01</totfact>
</mgrwt>
</event>
<event>
 8    2  0.7266322E-052  0.1455129E+04  0.7818608E-02  0.8914853E-01
         -2   -1    0    0    0  501 -0.00000000000E+00  0.00000000000E+00  0.12470929311E+04  0.12470929311E+04  0.25500000000E-02 0.  1.
          2   -1    0    0  501    0  0.00000000000E+00 -0.00000000000E+00 -0.42446706640E+03  0.42446706641E+03  0.25500000000E-02 0. -1.
    -200001    2    1    2    0    0  0.14855704047E+03  0.32030364817E+03  0.60945286252E+03  0.93272622039E+03  0.61145873882E+03 0.  0.
   -5000001    2    3    3    0    0  0.66874213741E+02  0.34434328596E+03  0.59967541068E+02  0.36758455067E+03  0.92075169608E+02 0.  0.
     200001    1    1    2    0    0 -0.14855704047E+03 -0.32030364817E+03  0.21317300214E+03  0.73883377707E+03  0.61300000000E+03 0. -1.
         11    1    4    4    0    0  0.78782697226E+01  0.10489835628E+03 -0.19033133407E+02  0.10690178881E+03  0.51100000000E-03 0.  1.
    -200002    1    4    4    0    0  0.58995944018E+02  0.23944492969E+03  0.79000674475E+02  0.26068276186E+03  0.30000000000E+02 0.  1.
    -200000    1    3    3    0    0  0.81682826725E+02 -0.24039637798E+02  0.54948532145E+03  0.56514166972E+03  0.10100000000E+03 0.  1.
<mgrwt>
<rscale>  0 0.14551287E+04</rscale>
<asrwt>0</asrwt>
<pdfrwt beam="1">  1        2 0.60638151E-01 0.14551287E+04</pdfrwt>
<pdfrwt beam="2">  1       -2 0.17815614E+00 0.14551287E+04</pdfrwt>
<totfact> 0.14655511E+01</totfact>
</mgrwt>
</event>
<event>
 8    2  0.7266322E-052  0.2031617E+04  0.7818608E-02  0.8591980E-01
         -2   -1    0    0    0  501 -0.00000000000E+00  0.00000000000E+00  0.19382348187E+03  0.19382348188E+03  0.25500000000E-02 0. -1.
          2   -1    0    0  501    0  0.00000000000E+00 -0.00000000000E+00 -0.53237457358E+04  0.53237457358E+04  0.25500000000E-02 0.  1.
    -200001    2    1    2    0    0 -0.98149827001E+02  0.53041036942E+03 -0.92411562336E+03  0.12332318171E+04  0.61310886535E+03 0.  0.
   -5000001    2    3    3    0    0 -0.17351195459E+03  0.57376363577E+03 -0.48689526169E+03  0.77615239220E+03  0.77681606204E+02 0.  0.
     200001    1    1    2    0    0  0.98149827001E+02 -0.53041036942E+03 -0.42058066306E+04  0.42843374006E+04  0.61300000000E+03 0.  1.
         11    1    4    4    0    0 -0.12631366573E+03  0.32392218843E+03 -0.29922772224E+03  0.45871337027E+03  0.51100000000E-03 0.  1.
    -200002    1    4    4    0    0 -0.47198288868E+02  0.24984144734E+03 -0.18766753944E+03  0.31743902193E+03  0.30000000000E+02 0. -1.
    -200000    1    3    3    0    0  0.75362127593E+02 -0.43353266348E+02 -0.43722036168E+03  0.45707942488E+03  0.10100000000E+03 0.  1.
<mgrwt>
<rscale>  0 0.20316170E+04</rscale>
<asrwt>0</asrwt>
<pdfrwt beam="1">  1        2 0.76053501E+00 0.20316170E+04</pdfrwt>
<pdfrwt beam="2">  1       -2 0.27689072E-01 0.20316170E+04</pdfrwt>
<totfact> 0.45656845E-01</totfact>
</mgrwt>
</event>
<event>
 8    2  0.7266322E-052  0.2795977E+04  0.7818608E-02  0.8304518E-01
         -2   -1    0    0    0  501 -0.00000000000E+00  0.00000000000E+00  0.53632409953E+03  0.53632409953E+03  0.25500000000E-02 0. -1.
          2   -1    0    0  501    0  0.00000000000E+00 -0.00000000000E+00 -0.36440132717E+04  0.36440132717E+04  0.25500000000E-02 0.  1.
    -200001    2    1    2    0    0 -0.79216652890E+03 -0.26146955115E+03 -0.15021213105E+03  0.10469153466E+04  0.61447044106E+03 0.  0.
   -5000001    2    3    3    0    0 -0.52566671374E+03 -0.24875242952E+03  0.17919397990E+03  0.61114790564E+03  0.56462509799E+02 0.  0.
     200001    1    1    2    0    0  0.79216652890E+03  0.26146955115E+03 -0.29574770411E+04  0.31334220246E+04  0.61300000000E+03 0. -1.
         11    1    4    4    0    0 -0.37271086552E+03 -0.17793535208E+03  0.13119400082E+03  0.43334310269E+03  0.51100000000E-03 0.  1.
    -200002    1    4    4    0    0 -0.15295584823E+03 -0.70817077437E+02  0.47999979082E+02  0.17780480296E+03  0.30000000000E+02 0. -1.
    -200000    1    3    3    0    0 -0.26649981516E+03 -0.12717121636E+02 -0.32940611095E+03  0.43576744096E+03  0.10100000000E+03 0.  1.
<mgrwt>
<rscale>  0 0.27959772E+04</rscale>
<asrwt>0</asrwt>
<pdfrwt beam="1">  1        2 0.52057331E+00 0.27959772E+04</pdfrwt>
<pdfrwt beam="2">  1       -2 0.76617731E-01 0.27959772E+04</pdfrwt>
<totfact> 0.13034207E+00</totfact>
</mgrwt>
</event>
<event>
 8    2  0.7266322E-052  0.2708632E+04  0.7818608E-02  0.8332210E-01
          2   -1    0    0  501    0  0.00000000000E+00  0.00000000000E+00  0.13737075169E+04  0.13737075169E+04  0.25500000000E-02 0.  1.
         -2   -1    0    0    0  501 -0.00000000000E+00 -0.00000000000E+00 -0.13351984781E+04  0.13351984781E+04  0.25500000000E-02 0. -1.
    -200001    2    1    2    0    0 -0.18802421155E+03 -0.52951883334E+03 -0.10497456014E+04  0.13393036948E+04  0.61320898580E+03 0.  0.
   -5000001    2    3    3    0    0  0.96239144731E+02 -0.99886737189E+02 -0.62612953997E+03  0.66473645481E+03  0.17492003967E+03 0.  0.
     200001    1    1    2    0    0  0.18802421155E+03  0.52951883334E+03  0.10882546402E+04  0.13696023002E+04  0.61300000000E+03 0.  1.
         11    1    4    4    0    0  0.53364746098E+02 -0.19111325041E+01 -0.36369764175E+02  0.64608113268E+02  0.51100000000E-03 0.  1.
    -200002    1    4    4    0    0  0.42874398633E+02 -0.97975604685E+02 -0.58975977580E+03  0.60012834154E+03  0.30000000000E+02 0.  1.
    -200000    1    3    3    0    0 -0.28426335628E+03 -0.42963209615E+03 -0.42361606138E+03  0.67456723996E+03  0.10100000000E+03 0. -1.
<mgrwt>
<rscale>  0 0.27086323E+04</rscale>
<asrwt>0</asrwt>
<pdfrwt beam="1">  1        2 0.19624393E+00 0.27086323E+04</pdfrwt>
<pdfrwt beam="2">  1       -2 0.19074264E+00 0.27086323E+04</pdfrwt>
<totfact> 0.23123495E+00</totfact>
</mgrwt>
</event>
<event>
 8    2  0.7266322E-052  0.1640890E+04  0.7818608E-02  0.8795814E-01
         -2   -1    0    0    0  501 -0.00000000000E+00  0.00000000000E+00  0.33869726162E+03  0.33869726163E+03  0.25500000000E-02 0. -1.
          2   -1    0    0  501    0  0.00000000000E+00 -0.00000000000E+00 -0.19874085462E+04  0.19874085462E+04  0.25500000000E-02 0.  1.
    -200001    2    1    2    0    0 -0.46663121230E+03  0.15715204649E+03 -0.49151319999E+03  0.92706404256E+03  0.61271613267E+03 0.  0.
   -5000001    2    3    3    0    0  0.47230498312E+02  0.69525344207E+02  0.61044420189E+02  0.16073955502E+03  0.12266331911E+03 0.  0.
     200001    1    1    2    0    0  0.46663121230E+03 -0.15715204649E+03 -0.11571980846E+04  0.13990417653E+04  0.61300000000E+03 0. -1.
         11    1    4    4    0    0 -0.31275124032E+02  0.39110266667E+02  0.49858466272E+02  0.70665500785E+02  0.51100000000E-03 0.  1.
    -200002    1    4    4    0    0  0.78505622344E+02  0.30415077540E+02  0.11185953917E+02  0.90074054235E+02  0.30000000000E+02 0.  1.
    -200000    1    3    3    0    0 -0.51386171062E+03  0.87626702286E+02 -0.55255762018E+03  0.76632448754E+03  0.10100000000E+03 0. -1.
<mgrwt>
<rscale>  0 0.16408898E+04</rscale>
<asrwt>0</asrwt>
<pdfrwt beam="1">  1        2 0.28391550E+00 0.16408898E+04</pdfrwt>
<pdfrwt beam="2">  1       -2 0.48385324E-01 0.16408898E+04</pdfrwt>
<totfact> 0.31561275E+01</totfact>
</mgrwt>
</event>
<event>
 8    2  0.7266322E-052  0.1532205E+04  0.7818608E-02  0.8863315E-01
          2   -1    0    0  501    0  0.00000000000E+00  0.00000000000E+00  0.40118941468E+03  0.40118941469E+03  0.25500000000E-02 0.  1.
         -2   -1    0    0    0  501 -0.00000000000E+00 -0.00000000000E+00 -0.14629328395E+04  0.14629328395E+04  0.25500000000E-02 0. -1.
    -200001    2    1    2    0    0  0.61163222533E+01 -0.20125307628E+03 -0.10337490701E+04  0.12182949599E+04  0.61242571740E+03 0.  0.
   -5000001    2    3    3    0    0 -0.66261283046E+02  0.23033579924E+01 -0.80459827502E+03  0.88756118999E+03  0.36876905880E+03 0.  0.
     200001    1    1    2    0    0 -0.61163222533E+01  0.20125307628E+03 -0.27994354710E+02  0.64582729426E+03  0.61300000000E+03 0.  1.
         11    1    4    4    0    0  0.81959475151E+02 -0.14032754603E+03 -0.28763240907E+03  0.33036582524E+03  0.51100000000E-03 0.  1.
    -200002    1    4    4    0    0 -0.14822075820E+03  0.14263090402E+03 -0.51696586595E+03  0.55719536475E+03  0.30000000000E+02 0.  1.
    -200000    1    3    3    0    0  0.72377605300E+02 -0.20355643427E+03 -0.22915079505E+03  0.33073376990E+03  0.10100000000E+03 0. -1.
<mgrwt>
<rscale>  0 0.15322052E+04</rscale>
<asrwt>0</asrwt>
<pdfrwt beam="1">  1        2 0.57312774E-01 0.15322052E+04</pdfrwt>
<pdfrwt beam="2">  1       -2 0.20899040E+00 0.15322052E+04</pdfrwt>
<totfact> 0.96685144E+00</totfact>
</mgrwt>
</event>
<event>
 8    2  0.7266322E-052  0.2312800E+04  0.7818608E-02  0.8472891E-01
         -2   -1    0    0    0  501 -0.00000000000E+00  0.00000000000E+00  0.72428560458E+03  0.72428560459E+03  0.25500000000E-02 0. -1.
          2   -1    0    0  501    0  0.00000000000E+00 -0.00000000000E+00 -0.18463175562E+04  0.18463175562E+04  0.25500000000E-02 0.  1.
    -200001    2    1    2    0    0  0.54432298775E+03  0.74971311581E+01 -0.14674490616E+04  0.16809820606E+04  0.61314779441E+03 0.  0.
   -5000001    2    3    3    0    0  0.44016193255E+03 -0.18715776007E+02 -0.39883858420E+03  0.60224854658E+03  0.97664161652E+02 0.  0.
     200001    1    1    2    0    0 -0.54432298775E+03 -0.74971311581E+01  0.34541710999E+03  0.88962110016E+03  0.61300000000E+03 0. -1.
         11    1    4    4    0    0  0.17313170835E+03  0.19445004311E+02 -0.11070724408E+03  0.20641896841E+03  0.51100000000E-03 0.  1.
    -200002    1    4    4    0    0  0.26703022420E+03 -0.38160780318E+02 -0.28813134012E+03  0.39582957816E+03  0.30000000000E+02 0.  1.
    -200000    1    3    3    0    0  0.10416105520E+03  0.26212907165E+02 -0.10686104774E+04  0.10787335140E+04  0.10100000000E+03 0.  1.
<mgrwt>
<rscale>  0 0.23128002E+04</rscale>
<asrwt>0</asrwt>
<pdfrwt beam="1">  1        2 0.26375965E+00 0.23128002E+04</pdfrwt>
<pdfrwt beam="2">  1       -2 0.10346937E+00 0.23128002E+04</pdfrwt>
<totfact> 0.66770006E+00</totfact>
</mgrwt>
</event>
<event>
 8    2  0.7266322E-052  0.2337506E+04  0.7818608E-02  0.8463278E-01
          2   -1    0    0  501    0  0.00000000000E+00  0.00000000000E+00  0.95354605778E+03  0.95354605778E+03  0.25500000000E-02 0.  1.
         -2   -1    0    0    0  501 -0.00000000000E+00 -0.00000000000E+00 -0.14325298570E+04  0.14325298570E+04  0.25500000000E-02 0. -1.
    -200001    2    1    2    0    0 -0.83302745531E+03 -0.46471827069E+03 -0.52853170801E+03  0.12511213749E+04  0.61323822118E+03 0.  0.
   -5000001    2    3    3    0    0 -0.33304708291E+03 -0.51487422513E+03 -0.31507945247E+03  0.69591073203E+03  0.94872854091E+02 0.  0.
     200001    1    1    2    0    0  0.83302745531E+03  0.46471827069E+03  0.49547908775E+02  0.11349545399E+04  0.61300000000E+03 0.  1.
         11    1    4    4    0    0 -0.61593090153E+02 -0.56816635654E+02 -0.69136948237E+02  0.10863588934E+03  0.51100000000E-03 0.  1.
    -200002    1    4    4    0    0 -0.27145399276E+03 -0.45805758948E+03 -0.24594250424E+03  0.58727484269E+03  0.30000000000E+02 0.  1.
    -200000    1    3    3    0    0 -0.49998037239E+03  0.50155954444E+02 -0.21345225554E+03  0.55521064286E+03  0.10100000000E+03 0. -1.
<mgrwt>
<rscale>  0 0.23375057E+04</rscale>
<asrwt>0</asrwt>
<pdfrwt beam="1">  1        2 0.13622087E+00 0.23375057E+04</pdfrwt>
<pdfrwt beam="2">  1       -2 0.20464712E+00 0.23375057E+04</pdfrwt>
<totfact> 0.33817743E+00</totfact>
</mgrwt>
</event>
<event>
 8    2  0.7266322E-052  0.1280394E+04  0.7818608E-02  0.9045259E-01
          2   -1    0    0  501    0  0.00000000000E+00  0.00000000000E+00  0.64669912117E+03  0.64669912118E+03  0.25500000000E-02 0.  1.
         -2   -1    0    0    0  501 -0.00000000000E+00 -0.00000000000E+00 -0.63376038227E+03  0.63376038227E+03  0.25500000000E-02 0. -1.
    -200001    2    1    2    0    0 -0.90604088144E+02  0.15637842581E+03 -0.30522644050E+02  0.63989631011E+03  0.61308428707E+03 0.  0.
   -5000001    2    3    3    0    0 -0.11233680605E+02  0.27261953496E+03  0.19954059975E+03  0.35190021084E+03  0.97824848651E+02 0.  0.
     200001    1    1    2    0    0  0.90604088144E+02 -0.15637842581E+03  0.43461382955E+02  0.64056319333E+03  0.61300000000E+03 0. -1.
         11    1    4    4    0    0 -0.10607076092E+02  0.16541909229E+03  0.66936083386E+02  0.17876360205E+03  0.51100000000E-03 0.  1.
    -200002    1    4    4    0    0 -0.62660451275E+00  0.10720044267E+03  0.13260451636E+03  0.17313660879E+03  0.30000000000E+02 0.  1.
    -200000    1    3    3    0    0 -0.79370407539E+02 -0.11624110916E+03 -0.23006324380E+03  0.28799609928E+03  0.10100000000E+03 0. -1.
<mgrwt>
<rscale>  0 0.12803941E+04</rscale>
<asrwt>0</asrwt>
<pdfrwt beam="1">  1        2 0.92385589E-01 0.12803941E+04</pdfrwt>
<pdfrwt beam="2">  1       -2 0.90537197E-01 0.12803941E+04</pdfrwt>
<totfact> 0.50817768E+01</totfact>
</mgrwt>
</event>
<event>
 8    2  0.7266322E-052  0.1518230E+04  0.7818608E-02  0.8872420E-01
         -2   -1    0    0    0  501 -0.00000000000E+00  0.00000000000E+00  0.25957413455E+03  0.25957413456E+03  0.25500000000E-02 0. -1.
          2   -1    0    0  501    0  0.00000000000E+00 -0.00000000000E+00 -0.22200048257E+04  0.22200048257E+04  0.25500000000E-02 0.  1.
    -200001    2    1    2    0    0 -0.27236425082E+03  0.34016754885E+03 -0.81974056599E+03  0.11132557159E+04  0.61438379457E+03 0.  0.
   -5000001    2    3    3    0    0 -0.24906447459E+03  0.49710065218E+03 -0.64474292168E+03  0.85635874432E+03  0.92275094212E+02 0.  0.
     200001    1    1    2    0    0  0.27236425082E+03 -0.34016754885E+03 -0.11406901251E+04  0.13663232443E+04  0.61300000000E+03 0.  1.
         11    1    4    4    0    0 -0.16389078019E+03  0.39270962545E+03 -0.48213917036E+03  0.64307014963E+03  0.51100000000E-03 0.  1.
    -200002    1    4    4    0    0 -0.85173694398E+02  0.10439102673E+03 -0.16260375132E+03  0.21328859468E+03  0.30000000000E+02 0.  1.
    -200000    1    3    3    0    0 -0.23299776231E+02 -0.15693310333E+03 -0.17499764431E+03  0.25689697158E+03  0.10100000000E+03 0. -1.
<mgrwt>
<rscale>  0 0.15182303E+04</rscale>
<asrwt>0</asrwt>
<pdfrwt beam="1">  1        2 0.31714354E+00 0.15182303E+04</pdfrwt>
<pdfrwt beam="2">  1       -2 0.37082020E-01 0.15182303E+04</pdfrwt>
<totfact> 0.40919532E+01</totfact>
</mgrwt>
</event>
<event>
 8    2  0.7266322E-052  0.1426710E+04  0.7818608E-02  0.8934708E-01
         -2   -1    0    0    0  501 -0.00000000000E+00  0.00000000000E+00  0.51704295245E+03  0.51704295245E+03  0.25500000000E-02 0. -1.
          2   -1    0    0  501    0  0.00000000000E+00 -0.00000000000E+00 -0.98420327881E+03  0.98420327882E+03  0.25500000000E-02 0.  1.
    -200001    2    1    2    0    0  0.14168225392E+03 -0.61858165809E+02  0.11420857105E+03  0.64237540941E+03  0.61294557276E+03 0.  0.
   -5000001    2    3    3    0    0 -0.16331964050E+03  0.16217602834E+03  0.47169253865E+02  0.24499304217E+03  0.69442660263E+02 0.  0.
     200001    1    1    2    0    0 -0.14168225392E+03  0.61858165809E+02 -0.58136889742E+03  0.85887082186E+03  0.61300000000E+03 0. -1.
         11    1    4    4    0    0 -0.38362607676E+02  0.89963979082E+01  0.16458891043E+02  0.42702692394E+02  0.51100000000E-03 0.  1.
    -200002    1    4    4    0    0 -0.12495703282E+03  0.15317963043E+03  0.30710362822E+02  0.20229034978E+03  0.30000000000E+02 0.  1.
    -200000    1    3    3    0    0  0.30500189442E+03 -0.22403419414E+03  0.67039317184E+02  0.39738236724E+03  0.10100000000E+03 0. -1.
<mgrwt>
<rscale>  0 0.14267100E+04</rscale>
<asrwt>0</asrwt>
<pdfrwt beam="1">  1        2 0.14060047E+00 0.14267100E+04</pdfrwt>
<pdfrwt beam="2">  1       -2 0.73863279E-01 0.14267100E+04</pdfrwt>
<totfact> 0.46176522E+01</totfact>
</mgrwt>
</event>
<event>
 8    2  0.7266322E-052  0.1263975E+04  0.7818608E-02  0.9058631E-01
          2   -1    0    0  501    0  0.00000000000E+00  0.00000000000E+00  0.21851154913E+04  0.21851154913E+04  0.25500000000E-02 0. -1.
         -2   -1    0    0    0  501 -0.00000000000E+00 -0.00000000000E+00 -0.18278590482E+03  0.18278590484E+03  0.25500000000E-02 0.  1.
    -200001    2    1    2    0    0  0.12053396372E+03 -0.77676674477E+02  0.11042900790E+04  0.12711762441E+04  0.61308267205E+03 0.  0.
   -5000001    2    3    3    0    0  0.24901825521E+02 -0.19915539760E+03  0.10566094878E+04  0.10804486247E+04  0.10326009664E+03 0.  0.
     200001    1    1    2    0    0 -0.12053396372E+03  0.77676674477E+02  0.89803950748E+03  0.10967251521E+04  0.61300000000E+03 0. -1.
         11    1    4    4    0    0 -0.68739307115E+01 -0.16759044640E+03  0.70170093310E+03  0.72146933973E+03  0.51100000000E-03 0.  1.
    -200002    1    4    4    0    0  0.31775756233E+02 -0.31564951199E+02  0.35490855472E+03  0.35897928498E+03  0.30000000000E+02 0.  1.
    -200000    1    3    3    0    0  0.95632138197E+02  0.12147872313E+03  0.47680591220E+02  0.19072761941E+03  0.10100000000E+03 0.  1.
<mgrwt>
<rscale>  0 0.12639752E+04</rscale>
<asrwt>0</asrwt>
<pdfrwt beam="1">  1        2 0.31215935E+00 0.12639752E+04</pdfrwt>
<pdfrwt beam="2">  1       -2 0.26112272E-01 0.12639752E+04</pdfrwt>
<totfact> 0.83959173E+01</totfact>
</mgrwt>
</event>
<event>
 8    2  0.7266322E-052  0.1297790E+04  0.7818608E-02  0.9031320E-01
          2   -1    0    0  501    0  0.00000000000E+00  0.00000000000E+00  0.13381364786E+04  0.13381364786E+04  0.25500000000E-02 0.  1.
         -2   -1    0    0    0  501 -0.00000000000E+00 -0.00000000000E+00 -0.31466492224E+03  0.31466492225E+03  0.25500000000E-02 0. -1.
    -200001    2    1    2    0    0  0.38464858083E+01  0.21359813528E+03  0.52283394945E+03  0.83301729984E+03  0.61230999035E+03 0.  0.
   -5000001    2    3    3    0    0  0.67909836161E+02  0.38606757244E+03  0.28315379178E+03  0.51443073767E+03  0.17550782808E+03 0.  0.
     200001    1    1    2    0    0 -0.38464858083E+01 -0.21359813528E+03  0.50063760695E+03  0.81978410106E+03  0.61300000000E+03 0.  1.
         11    1    4    4    0    0 -0.34740751655E+01  0.26564349780E+02 -0.23474951157E+02  0.35620320178E+02  0.51100000000E-03 0.  1.
    -200002    1    4    4    0    0  0.71383911326E+02  0.35950322266E+03  0.30662874294E+03  0.47881041749E+03  0.30000000000E+02 0.  1.
    -200000    1    3    3    0    0 -0.64063350352E+02 -0.17246943716E+03  0.23968015766E+03  0.31858656216E+03  0.10100000000E+03 0. -1.
<mgrwt>
<rscale>  0 0.12977898E+04</rscale>
<asrwt>0</asrwt>
<pdfrwt beam="1">  1        2 0.19116235E+00 0.12977898E+04</pdfrwt>
<pdfrwt beam="2">  1       -2 0.44952132E-01 0.12977898E+04</pdfrwt>
<totfact> 0.82288701E+01</totfact>
</mgrwt>
</event>
<event>
 8    2  0.7266322E-052  0.2468286E+04  0.7818608E-02  0.8414372E-01
          2   -1    0    0  501    0  0.00000000000E+00  0.00000000000E+00  0.51052050192E+04  0.51052050192E+04  0.25500000000E-02 0.  1.
         -2   -1    0    0    0  501 -0.00000000000E+00 -0.00000000000E+00 -0.29834427323E+03  0.29834427324E+03  0.25500000000E-02 0. -1.
    -200001    2    1    2    0    0 -0.53793048669E+03  0.16936323423E+03  0.43970784554E+04  0.44752478116E+04  0.61277313827E+03 0.  0.
   -5000001    2    3    3    0    0 -0.35928228198E+03  0.27138450864E+03  0.38190021670E+04  0.38533983791E+04  0.24732207170E+03 0.  0.
     200001    1    1    2    0    0  0.53793048669E+03 -0.16936323423E+03  0.40978229058E+03  0.92830148082E+03  0.61300000000E+03 0. -1.
         11    1    4    4    0    0 -0.37963504950E+03  0.22564647976E+03  0.35905910743E+04  0.36176488729E+04  0.51100000000E-03 0.  1.
    -200002    1    4    4    0    0  0.20352767522E+02  0.45738028881E+02  0.22841109263E+03  0.23574950619E+03  0.30000000000E+02 0.  1.
    -200000    1    3    3    0    0 -0.17864820472E+03 -0.10202127441E+03  0.57807628838E+03  0.62184943247E+03  0.10100000000E+03 0.  1.
<mgrwt>
<rscale>  0 0.24682858E+04</rscale>
<asrwt>0</asrwt>
<pdfrwt beam="1">  1        2 0.72931503E+00 0.24682858E+04</pdfrwt>
<pdfrwt beam="2">  1       -2 0.42620609E-01 0.24682858E+04</pdfrwt>
<totfact> 0.32743977E-01</totfact>
</mgrwt>
</event>
<event>
 8    2  0.7266322E-052  0.1346082E+04  0.7818608E-02  0.8993799E-01
         -2   -1    0    0    0  501 -0.00000000000E+00  0.00000000000E+00  0.49662879741E+03  0.49662879741E+03  0.25500000000E-02 0. -1.
          2   -1    0    0  501    0  0.00000000000E+00 -0.00000000000E+00 -0.91211883570E+03  0.91211883570E+03  0.25500000000E-02 0.  1.
    -200001    2    1    2    0    0  0.18795160946E+03  0.32422829434E+02  0.44603098218E+01  0.64160726640E+03  0.61258708977E+03 0.  0.
   -5000001    2    3    3    0    0 -0.15282508393E+03 -0.15698911407E+03 -0.73945993901E+01  0.23868397596E+03  0.94415422821E+02 0.  0.
     200001    1    1    2    0    0 -0.18795160946E+03 -0.32422829434E+02 -0.41995034811E+03  0.76714036672E+03  0.61300000000E+03 0.  1.
         11    1    4    4    0    0 -0.54928051024E+02 -0.63317987630E+01 -0.11521560429E+02  0.56479454847E+02  0.51100000000E-03 0.  1.
    -200002    1    4    4    0    0 -0.97897032905E+02 -0.15065731531E+03  0.41269610392E+01  0.18220452111E+03  0.30000000000E+02 0.  1.
    -200000    1    3    3    0    0  0.34077669339E+03  0.18941194350E+03  0.11854909212E+02  0.40292329043E+03  0.10100000000E+03 0. -1.
<mgrwt>
<rscale>  0 0.13460824E+04</rscale>
<asrwt>0</asrwt>
<pdfrwt beam="1">  1        2 0.13030269E+00 0.13460824E+04</pdfrwt>
<pdfrwt beam="2">  1       -2 0.70946972E-01 0.13460824E+04</pdfrwt>
<totfact> 0.56396367E+01</totfact>
</mgrwt>
</event>
<event>
 8    2  0.7266322E-052  0.1364382E+04  0.7818608E-02  0.8980012E-01
          2   -1    0    0  501    0  0.00000000000E+00  0.00000000000E+00  0.10270685102E+04  0.10270685102E+04  0.25500000000E-02 0.  1.
         -2   -1    0    0    0  501 -0.00000000000E+00 -0.00000000000E+00 -0.45311946214E+03  0.45311946215E+03  0.25500000000E-02 0. -1.
    -200001    2    1    2    0    0 -0.22200874690E+03 -0.64098282005E+02  0.50661162481E+03  0.82162908960E+03  0.60417096009E+03 0.  0.
   -5000001    2    3    3    0    0 -0.18435212099E+02  0.18855151738E+03 -0.52231954559E+00  0.21117029269E+03  0.93279622352E+02 0.  0.
     200001    1    1    2    0    0  0.22200874690E+03  0.64098282005E+02  0.67337423221E+02  0.65855888273E+03  0.61300000000E+03 0.  1.
         11    1    4    4    0    0 -0.59860922645E+01  0.13311210260E+02  0.27135885652E+02  0.30811976723E+02  0.51100000000E-03 0.  1.
    -200002    1    4    4    0    0 -0.12449119834E+02  0.17524030712E+03 -0.27658205198E+02  0.18035831597E+03  0.30000000000E+02 0.  1.
    -200000    1    3    3    0    0 -0.20357353480E+03 -0.25264979938E+03  0.50713394436E+03  0.61045879691E+03  0.10100000000E+03 0.  1.
<mgrwt>
<rscale>  0 0.13643822E+04</rscale>
<asrwt>0</asrwt>
<pdfrwt beam="1">  1        2 0.14672407E+00 0.13643822E+04</pdfrwt>
<pdfrwt beam="2">  1       -2 0.64731352E-01 0.13643822E+04</pdfrwt>
<totfact> 0.58169672E+01</totfact>
</mgrwt>
</event>
<event>
 8    2  0.7266322E-052  0.2456046E+04  0.7818608E-02  0.8418814E-01
          2   -1    0    0  501    0  0.00000000000E+00  0.00000000000E+00  0.16990482360E+04  0.16990482360E+04  0.25500000000E-02 0. -1.
         -2   -1    0    0    0  501 -0.00000000000E+00 -0.00000000000E+00 -0.88757955634E+03  0.88757955635E+03  0.25500000000E-02 0.  1.
    -200001    2    1    2    0    0  0.10598218577E+04  0.90148624898E+02  0.43365392312E+03  0.13021581995E+04  0.61336050307E+03 0.  0.
   -5000001    2    3    3    0    0  0.49692846914E+03  0.29381982526E+03  0.37304959857E+03  0.69207229656E+03  0.80808833164E+02 0.  0.
     200001    1    1    2    0    0 -0.10598218577E+04 -0.90148624898E+02  0.37781475650E+03  0.12844695928E+04  0.61300000000E+03 0.  1.
         11    1    4    4    0    0  0.11576114500E+03  0.10579282065E+03  0.97647668548E+02  0.18473719378E+03  0.51100000000E-03 0.  1.
    -200002    1    4    4    0    0  0.38116732414E+03  0.18802700461E+03  0.27540193002E+03  0.50733510278E+03  0.30000000000E+02 0.  1.
    -200000    1    3    3    0    0  0.56289338859E+03 -0.20367120036E+03  0.60604324550E+02  0.61008590291E+03  0.10100000000E+03 0. -1.
<mgrwt>
<rscale>  0 0.24560460E+04</rscale>
<asrwt>0</asrwt>
<pdfrwt beam="1">  1        2 0.24272117E+00 0.24560460E+04</pdfrwt>
<pdfrwt beam="2">  1       -2 0.12679708E+00 0.24560460E+04</pdfrwt>
<totfact> 0.47836503E+00</totfact>
</mgrwt>
</event>
<event>
 8    2  0.7266322E-052  0.1431645E+04  0.7818608E-02  0.8931225E-01
          2   -1    0    0  501    0  0.00000000000E+00  0.00000000000E+00  0.52913183011E+03  0.52913183012E+03  0.25500000000E-02 0.  1.
         -2   -1    0    0    0  501 -0.00000000000E+00 -0.00000000000E+00 -0.96838282801E+03  0.96838282802E+03  0.25500000000E-02 0. -1.
    -200001    2    1    2    0    0 -0.17699444410E+03  0.98620518684E+02  0.10285863311E+03  0.65448150815E+03  0.61376958719E+03 0.  0.
   -5000001    2    3    3    0    0  0.10551714525E+03 -0.12719499082E+03  0.17461256873E+03  0.27217918050E+03  0.12759123600E+03 0.  0.
     200001    1    1    2    0    0  0.17699444410E+03 -0.98620518684E+02 -0.54210963101E+03  0.84303314999E+03  0.61300000000E+03 0.  1.
         11    1    4    4    0    0  0.38059728143E+02  0.10479603147E+02  0.80871320245E+02  0.89991863115E+02  0.51100000000E-03 0.  1.
    -200002    1    4    4    0    0  0.67457417112E+02 -0.13767459396E+03  0.93741248488E+02  0.18218731738E+03  0.30000000000E+02 0.  1.
    -200000    1    3    3    0    0 -0.28251158935E+03  0.22581550950E+03 -0.71753935625E+02  0.38230232765E+03  0.10100000000E+03 0. -1.
<mgrwt>
<rscale>  0 0.14316455E+04</rscale>
<asrwt>0</asrwt>
<pdfrwt beam="1">  1        2 0.75590262E-01 0.14316455E+04</pdfrwt>
<pdfrwt beam="2">  1       -2 0.13834040E+00 0.14316455E+04</pdfrwt>
<totfact> 0.22652226E+01</totfact>
</mgrwt>
</event>
<event>
 8    2  0.7266322E-052  0.1768884E+04  0.7818608E-02  0.8723024E-01
         -2   -1    0    0    0  501 -0.00000000000E+00  0.00000000000E+00  0.45094584217E+03  0.45094584218E+03  0.25500000000E-02 0.  1.
          2   -1    0    0  501    0  0.00000000000E+00 -0.00000000000E+00 -0.17346600054E+04  0.17346600054E+04  0.25500000000E-02 0. -1.
    -200001    2    1    2    0    0  0.60498631366E+02  0.41060321236E+03 -0.12398464029E+04  0.14440207461E+04  0.61296144247E+03 0.  0.
   -5000001    2    3    3    0    0  0.15428683612E+03 -0.51957197884E+02 -0.10897466082E+03  0.21445567765E+03  0.87245531498E+02 0.  0.
     200001    1    1    2    0    0 -0.60498631366E+02 -0.41060321236E+03 -0.43867760366E+02  0.74158510152E+03  0.61300000000E+03 0.  1.
         11    1    4    4    0    0  0.11886410946E+03 -0.65536307351E+02 -0.87821501713E+02  0.16166725167E+03  0.51100000000E-03 0.  1.
    -200002    1    4    4    0    0  0.35422726658E+02  0.13579109467E+02 -0.21153159104E+02  0.52788425984E+02  0.30000000000E+02 0.  1.
    -200000    1    3    3    0    0 -0.93788204753E+02  0.46256041024E+03 -0.11308717421E+04  0.12295650684E+04  0.10100000000E+03 0. -1.
<mgrwt>
<rscale>  0 0.17688841E+04</rscale>
<asrwt>0</asrwt>
<pdfrwt beam="1">  1        2 0.24780857E+00 0.17688841E+04</pdfrwt>
<pdfrwt beam="2">  1       -2 0.64420836E-01 0.17688841E+04</pdfrwt>
<totfact> 0.23239790E+01</totfact>
</mgrwt>
</event>
<event>
 8    2  0.7266322E-052  0.1258952E+04  0.7818608E-02  0.9062765E-01
         -2   -1    0    0    0  501 -0.00000000000E+00  0.00000000000E+00  0.12787283009E+03  0.12787283012E+03  0.25500000000E-02 0. -1.
          2   -1    0    0  501    0  0.00000000000E+00 -0.00000000000E+00 -0.30987029654E+04  0.30987029654E+04  0.25500000000E-02 0.  1.
    -200001    2    1    2    0    0 -0.12804230529E+03 -0.19491527403E+02 -0.15731751026E+04  0.16949154735E+04  0.61731985816E+03 0.  0.
   -5000001    2    3    3    0    0  0.12130045212E+03 -0.91902204531E+02 -0.12789812486E+04  0.12897412634E+04  0.66930390968E+02 0.  0.
     200001    1    1    2    0    0  0.12804230529E+03  0.19491527403E+02 -0.13976550327E+04  0.15316603220E+04  0.61300000000E+03 0.  1.
         11    1    4    4    0    0  0.20398151315E+02 -0.41014913806E+02 -0.49108257462E+03  0.49321435788E+03  0.51100000000E-03 0.  1.
    -200002    1    4    4    0    0  0.10090230080E+03 -0.50887290725E+02 -0.78789867403E+03  0.79652690551E+03  0.30000000000E+02 0.  1.
    -200000    1    3    3    0    0 -0.24934275741E+03  0.72410677129E+02 -0.29419385400E+03  0.40517421014E+03  0.10100000000E+03 0. -1.
<mgrwt>
<rscale>  0 0.12589518E+04</rscale>
<asrwt>0</asrwt>
<pdfrwt beam="1">  1        2 0.44267181E+00 0.12589518E+04</pdfrwt>
<pdfrwt beam="2">  1       -2 0.18267549E-01 0.12589518E+04</pdfrwt>
<totfact> 0.51653598E+01</totfact>
</mgrwt>
</event>
<event>
 8    2  0.7266322E-052  0.1572567E+04  0.7818608E-02  0.8837581E-01
         -2   -1    0    0    0  501 -0.00000000000E+00  0.00000000000E+00  0.32555581629E+03  0.32555581630E+03  0.25500000000E-02 0. -1.
          2   -1    0    0  501    0  0.00000000000E+00 -0.00000000000E+00 -0.18990343757E+04  0.18990343757E+04  0.25500000000E-02 0.  1.
    -200001    2    1    2    0    0 -0.33003764874E+03  0.25568935229E+03 -0.11567931479E+04  0.13738859975E+04  0.61244628540E+03 0.  0.
   -5000001    2    3    3    0    0 -0.24559849868E+03 -0.12023358004E+03 -0.75678226891E+03  0.80938823446E+03  0.87264971347E+02 0.  0.
     200001    1    1    2    0    0  0.33003764874E+03 -0.25568935229E+03 -0.41668541150E+03  0.85070419455E+03  0.61300000000E+03 0. -1.
         11    1    4    4    0    0 -0.53691629182E+02 -0.57922120832E+01 -0.84218116490E+02  0.10004514936E+03  0.51100000000E-03 0.  1.
    -200002    1    4    4    0    0 -0.19190686950E+03 -0.11444136796E+03 -0.67256415242E+03  0.70934308510E+03  0.30000000000E+02 0.  1.
    -200000    1    3    3    0    0 -0.84439150065E+02  0.37592293233E+03 -0.40001087903E+03  0.56449776303E+03  0.10100000000E+03 0. -1.
<mgrwt>
<rscale>  0 0.15725669E+04</rscale>
<asrwt>0</asrwt>
<pdfrwt beam="1">  1        2 0.27129062E+00 0.15725669E+04</pdfrwt>
<pdfrwt beam="2">  1       -2 0.46507975E-01 0.15725669E+04</pdfrwt>
<totfact> 0.38160840E+01</totfact>
</mgrwt>
</event>
<event>
 8    2  0.7266322E-052  0.1943785E+04  0.7818608E-02  0.8633364E-01
          2   -1    0    0  501    0  0.00000000000E+00  0.00000000000E+00  0.16680257397E+04  0.16680257397E+04  0.25500000000E-02 0.  1.
         -2   -1    0    0    0  501 -0.00000000000E+00 -0.00000000000E+00 -0.56628313134E+03  0.56628313135E+03  0.25500000000E-02 0. -1.
    -200001    2    1    2    0    0  0.54486757021E+03  0.50973219127E+03  0.67387510418E+03  0.11781142029E+04  0.61411549654E+03 0.  0.
   -5000001    2    3    3    0    0  0.59406501847E+03  0.42428381378E+03  0.72113383189E+03  0.10292646094E+04  0.80135085172E+02 0.  0.
     200001    1    1    2    0    0 -0.54486757021E+03 -0.50973219127E+03  0.42786750414E+03  0.10561946681E+04  0.61300000000E+03 0.  1.
         11    1    4    4    0    0  0.40182535548E+03  0.25613886142E+03  0.44625163252E+03  0.65284856756E+03  0.51100000000E-03 0.  1.
    -200002    1    4    4    0    0  0.19223966299E+03  0.16814495236E+03  0.27488219937E+03  0.37641604185E+03  0.30000000000E+02 0. -1.
    -200000    1    3    3    0    0 -0.49197448258E+02  0.85448377491E+02 -0.47258727709E+02  0.14884959347E+03  0.10100000000E+03 0.  1.
<mgrwt>
<rscale>  0 0.19437848E+04</rscale>
<asrwt>0</asrwt>
<pdfrwt beam="1">  1        2 0.23828940E+00 0.19437848E+04</pdfrwt>
<pdfrwt beam="2">  1       -2 0.80897589E-01 0.19437848E+04</pdfrwt>
<totfact> 0.15051010E+01</totfact>
</mgrwt>
</event>
<event>
 8    2  0.7266322E-052  0.1552352E+04  0.7818608E-02  0.8850367E-01
         -2   -1    0    0    0  501 -0.00000000000E+00  0.00000000000E+00  0.45337783543E+03  0.45337783543E+03  0.25500000000E-02 0. -1.
          2   -1    0    0  501    0  0.00000000000E+00 -0.00000000000E+00 -0.13288023940E+04  0.13288023940E+04  0.25500000000E-02 0.  1.
    -200001    2    1    2    0    0  0.12381382888E+03 -0.28165025575E+03 -0.20369862119E+02  0.68603048387E+03  0.61283453129E+03 0.  0.
   -5000001    2    3    3    0    0  0.30759439489E+03 -0.28392561802E+03  0.10544963441E+03  0.44146552436E+03  0.92434384622E+02 0.  0.
     200001    1    1    2    0    0 -0.12381382888E+03  0.28165025575E+03 -0.85505469649E+03  0.10961497456E+04  0.61300000000E+03 0.  1.
         11    1    4    4    0    0 -0.31717432634E+01 -0.16595271891E+02  0.95267669094E+01  0.19396450512E+02  0.51100000000E-03 0.  1.
    -200002    1    4    4    0    0  0.31076613816E+03 -0.26733034613E+03  0.95922867496E+02  0.42206907385E+03  0.30000000000E+02 0.  1.
    -200000    1    3    3    0    0 -0.18378056601E+03  0.22753622770E+01 -0.12581949652E+03  0.24456495952E+03  0.10100000000E+03 0.  1.
<mgrwt>
<rscale>  0 0.15523525E+04</rscale>
<asrwt>0</asrwt>
<pdfrwt beam="1">  1        2 0.18982891E+00 0.15523525E+04</pdfrwt>
<pdfrwt beam="2">  1       -2 0.64768263E-01 0.15523525E+04</pdfrwt>
<totfact> 0.38388894E+01</totfact>
</mgrwt>
</event>
<event>
 8    2  0.7266322E-052  0.1389882E+04  0.7818608E-02  0.8961175E-01
         -2   -1    0    0    0  501 -0.00000000000E+00  0.00000000000E+00  0.27230947040E+03  0.27230947041E+03  0.25500000000E-02 0. -1.
          2   -1    0    0  501    0  0.00000000000E+00 -0.00000000000E+00 -0.17735084294E+04  0.17735084294E+04  0.25500000000E-02 0.  1.
    -200001    2    1    2    0    0 -0.10464908942E+02 -0.30944656399E+03 -0.90677708720E+03  0.11375376281E+04  0.61309092247E+03 0.  0.
   -5000001    2    3    3    0    0 -0.21633319592E+03 -0.17305094010E+03 -0.79891848464E+03  0.84975299346E+03  0.84040021747E+02 0.  0.
     200001    1    1    2    0    0  0.10464908942E+02  0.30944656399E+03 -0.59442187181E+03  0.90828027170E+03  0.61300000000E+03 0.  1.
         11    1    4    4    0    0 -0.82264032200E+02 -0.10810372129E+03 -0.42313417083E+03  0.44440557161E+03  0.51100000000E-03 0.  1.
    -200002    1    4    4    0    0 -0.13406916372E+03 -0.64947218816E+02 -0.37578431381E+03  0.40534742185E+03  0.30000000000E+02 0. -1.
    -200000    1    3    3    0    0  0.20586828698E+03 -0.13639562389E+03 -0.10785860256E+03  0.28778463466E+03  0.10100000000E+03 0. -1.
<mgrwt>
<rscale>  0 0.13898822E+04</rscale>
<asrwt>0</asrwt>
<pdfrwt beam="1">  1        2 0.25335834E+00 0.13898822E+04</pdfrwt>
<pdfrwt beam="2">  1       -2 0.38901354E-01 0.13898822E+04</pdfrwt>
<totfact> 0.63935023E+01</totfact>
</mgrwt>
</event>
<event>
 8    2  0.7266322E-052  0.1334885E+04  0.7818608E-02  0.9002350E-01
         -2   -1    0    0    0  501 -0.00000000000E+00  0.00000000000E+00  0.37842867659E+03  0.37842867660E+03  0.25500000000E-02 0. -1.
          2   -1    0    0  501    0  0.00000000000E+00 -0.00000000000E+00 -0.11771818944E+04  0.11771818944E+04  0.25500000000E-02 0.  1.
    -200001    2    1    2    0    0 -0.27985099050E+02  0.19763617789E+03 -0.59898644625E+03  0.88068910327E+03  0.61399129411E+03 0.  0.
   -5000001    2    3    3    0    0  0.17424914064E+03  0.28431761201E+03 -0.15787873300E+03  0.37750983758E+03  0.79929441536E+02 0.  0.
     200001    1    1    2    0    0  0.27985099050E+02 -0.19763617789E+03 -0.19976677154E+03  0.67492146772E+03  0.61300000000E+03 0. -1.
         11    1    4    4    0    0  0.60789208265E+02  0.62770110998E+02 -0.14143714212E+02  0.88518129941E+02  0.51100000000E-03 0.  1.
    -200002    1    4    4    0    0  0.11345993238E+03  0.22154750102E+03 -0.14373501879E+03  0.28899170764E+03  0.30000000000E+02 0.  1.
    -200000    1    3    3    0    0 -0.20223423969E+03 -0.86681434127E+02 -0.44110771325E+03  0.50317926568E+03  0.10100000000E+03 0.  1.
<mgrwt>
<rscale>  0 0.13348848E+04</rscale>
<asrwt>0</asrwt>
<pdfrwt beam="1">  1        2 0.16816884E+00 0.13348848E+04</pdfrwt>
<pdfrwt beam="2">  1       -2 0.54061240E-01 0.13348848E+04</pdfrwt>
<totfact> 0.69444283E+01</totfact>
</mgrwt>
</event>
<event>
 8    2  0.7266322E-052  0.1445078E+04  0.7818608E-02  0.8921820E-01
         -2   -1    0    0    0  501 -0.00000000000E+00  0.00000000000E+00  0.49616706830E+03  0.49616706830E+03  0.25500000000E-02 0. -1.
          2   -1    0    0  501    0  0.00000000000E+00 -0.00000000000E+00 -0.10521906884E+04  0.10521906884E+04  0.25500000000E-02 0.  1.
    -200001    2    1    2    0    0 -0.17778112522E+02 -0.28412394257E+03 -0.46660278708E+01  0.67611543343E+03  0.61324369665E+03 0.  0.
   -5000001    2    3    3    0    0  0.19209951865E+02  0.16312607669E+03 -0.10016141686E+03  0.20630582736E+03  0.74502656522E+02 0.  0.
     200001    1    1    2    0    0  0.17778112522E+02  0.28412394257E+03 -0.55135759227E+03  0.87224232331E+03  0.61300000000E+03 0.  1.
         11    1    4    4    0    0  0.72764162891E+01  0.91875616560E+02 -0.20013009292E+02  0.94311164204E+02  0.51100000000E-03 0.  1.
    -200002    1    4    4    0    0  0.11933535576E+02  0.71250460133E+02 -0.80148407570E+02  0.11199466316E+03  0.30000000000E+02 0.  1.
    -200000    1    3    3    0    0 -0.36988064387E+02 -0.44725001926E+03  0.95495388992E+02  0.46980960607E+03  0.10100000000E+03 0. -1.
<mgrwt>
<rscale>  0 0.14450777E+04</rscale>
<asrwt>0</asrwt>
<pdfrwt beam="1">  1        2 0.15031296E+00 0.14450777E+04</pdfrwt>
<pdfrwt beam="2">  1       -2 0.70881010E-01 0.14450777E+04</pdfrwt>
<totfact> 0.45866514E+01</totfact>
</mgrwt>
</event>
<event>
 8    2  0.7266322E-052  0.1388592E+04  0.7818608E-02  0.8962118E-01
          2   -1    0    0  501    0  0.00000000000E+00  0.00000000000E+00  0.25379535176E+04  0.25379535176E+04  0.25500000000E-02 0.  1.
         -2   -1    0    0    0  501 -0.00000000000E+00 -0.00000000000E+00 -0.18993518537E+03  0.18993518539E+03  0.25500000000E-02 0. -1.
    -200001    2    1    2    0    0  0.26117462489E+03 -0.13158099105E+03  0.89275226812E+03  0.11219328944E+04  0.61335231746E+03 0.  0.
   -5000001    2    3    3    0    0 -0.70585832951E+01  0.19914581106E+03  0.15713955930E+03  0.26597943244E+03  0.79645086006E+02 0.  0.
     200001    1    1    2    0    0 -0.26117462489E+03  0.13158099105E+03  0.14552660642E+04  0.16059558087E+04  0.61300000000E+03 0.  1.
         11    1    4    4    0    0  0.79778811255E+01  0.12139620965E+03  0.55596830594E+02  0.13375983656E+03  0.51100000000E-03 0.  1.
    -200002    1    4    4    0    0 -0.15036464421E+02  0.77749601405E+02  0.10154272871E+03  0.13221959588E+03  0.30000000000E+02 0.  1.
    -200000    1    3    3    0    0  0.26823320819E+03 -0.33072680211E+03  0.73561270882E+03  0.85595346193E+03  0.10100000000E+03 0. -1.
<mgrwt>
<rscale>  0 0.13885916E+04</rscale>
<asrwt>0</asrwt>
<pdfrwt beam="1">  1        2 0.36256476E+00 0.13885916E+04</pdfrwt>
<pdfrwt beam="2">  1       -2 0.27133600E-01 0.13885916E+04</pdfrwt>
<totfact> 0.50823060E+01</totfact>
</mgrwt>
</event>
<event>
 8    2  0.7266322E-052  0.1988754E+04  0.7818608E-02  0.8611897E-01
          2   -1    0    0  501    0  0.00000000000E+00  0.00000000000E+00  0.26238914309E+04  0.26238914309E+04  0.25500000000E-02 0.  1.
         -2   -1    0    0    0  501 -0.00000000000E+00 -0.00000000000E+00 -0.37683932543E+03  0.37683932544E+03  0.25500000000E-02 0. -1.
    -200001    2    1    2    0    0  0.51912116687E+03  0.39244213185E+03  0.46585808638E+03  0.10077634344E+04  0.61242613456E+03 0.  0.
   -5000001    2    3    3    0    0 -0.97979045318E+02  0.16898427901E+03  0.92145532063E+01  0.20186617029E+03  0.50094539057E+02 0.  0.
     200001    1    1    2    0    0 -0.51912116687E+03 -0.39244213185E+03  0.17811940191E+04  0.19929673220E+04  0.61300000000E+03 0.  1.
         11    1    4    4    0    0 -0.13085626415E+02  0.46860268217E+02 -0.74743703166E+01  0.49223821144E+02  0.51100000000E-03 0.  1.
    -200002    1    4    4    0    0 -0.84893418902E+02  0.12212401080E+03  0.16688923523E+02  0.15264234915E+03  0.30000000000E+02 0.  1.
    -200000    1    3    3    0    0  0.61710021219E+03  0.22345785283E+03  0.45664353317E+03  0.80589726409E+03  0.10100000000E+03 0. -1.
<mgrwt>
<rscale>  0 0.19887539E+04</rscale>
<asrwt>0</asrwt>
<pdfrwt beam="1">  1        2 0.37484163E+00 0.19887539E+04</pdfrwt>
<pdfrwt beam="2">  1       -2 0.53834190E-01 0.19887539E+04</pdfrwt>
<totfact> 0.11493616E+01</totfact>
</mgrwt>
</event>
<event>
 8    2  0.7266322E-052  0.1737670E+04  0.7818608E-02  0.8740167E-01
          2   -1    0    0  501    0  0.00000000000E+00  0.00000000000E+00  0.28365120924E+04  0.28365120924E+04  0.25500000000E-02 0.  1.
         -2   -1    0    0    0  501 -0.00000000000E+00 -0.00000000000E+00 -0.26612767283E+03  0.26612767284E+03  0.25500000000E-02 0. -1.
    -200001    2    1    2    0    0 -0.82597599822E+02  0.45774688949E+03  0.20056625160E+04  0.21481585414E+04  0.61282004896E+03 0.  0.
   -5000001    2    3    3    0    0 -0.61203562330E+02  0.54739041435E+03  0.18028175852E+04  0.19035348869E+04  0.26440816597E+03 0.  0.
     200001    1    1    2    0    0  0.82597599822E+02 -0.45774688949E+03  0.56472190350E+03  0.95448122382E+03  0.61300000000E+03 0. -1.
         11    1    4    4    0    0 -0.14566757783E+02  0.49399641743E+03  0.17236880763E+04  0.17931383760E+04  0.51100000000E-03 0.  1.
    -200002    1    4    4    0    0 -0.46636804547E+02  0.53393996925E+02  0.79129508884E+02  0.11039651092E+03  0.30000000000E+02 0.  1.
    -200000    1    3    3    0    0 -0.21394037492E+02 -0.89643524865E+02  0.20284493083E+03  0.24462365452E+03  0.10100000000E+03 0. -1.
<mgrwt>
<rscale>  0 0.17376701E+04</rscale>
<asrwt>0</asrwt>
<pdfrwt beam="1">  1        2 0.40521600E+00 0.17376701E+04</pdfrwt>
<pdfrwt beam="2">  1       -2 0.38018240E-01 0.17376701E+04</pdfrwt>
<totfact> 0.18084378E+01</totfact>
</mgrwt>
</event>
<event>
 8    2  0.7266322E-052  0.1376390E+04  0.7818608E-02  0.8971088E-01
         -2   -1    0    0    0  501 -0.00000000000E+00  0.00000000000E+00  0.15763839634E+04  0.15763839634E+04  0.25500000000E-02 0.  1.
          2   -1    0    0  501    0  0.00000000000E+00 -0.00000000000E+00 -0.30044213841E+03  0.30044213842E+03  0.25500000000E-02 0. -1.
    -200001    2    1    2    0    0  0.10556635698E+03 -0.28517273655E+03  0.74008992800E+03  0.10077035553E+04  0.61258926569E+03 0.  0.
   -5000001    2    3    3    0    0 -0.19207421615E+03 -0.21268864795E+03  0.56105653231E+03  0.63878918767E+03  0.10553780531E+03 0.  0.
     200001    1    1    2    0    0 -0.10556635698E+03  0.28517273655E+03  0.53585189704E+03  0.86912254657E+03  0.61300000000E+03 0. -1.
         11    1    4    4    0    0 -0.11932430096E+03 -0.12937378706E+03  0.23799461124E+03  0.29600219688E+03  0.51100000000E-03 0.  1.
    -200002    1    4    4    0    0 -0.72749915194E+02 -0.83314860892E+02  0.32306192107E+03  0.34278699079E+03  0.30000000000E+02 0. -1.
    -200000    1    3    3    0    0  0.29764057313E+03 -0.72484088600E+02  0.17903339569E+03  0.36891436763E+03  0.10100000000E+03 0.  1.
<mgrwt>
<rscale>  0 0.13763897E+04</rscale>
<asrwt>0</asrwt>
<pdfrwt beam="1">  1        2 0.42920305E-01 0.13763897E+04</pdfrwt>
<pdfrwt beam="2">  1       -2 0.22519771E+00 0.13763897E+04</pdfrwt>
<totfact> 0.10655375E+01</totfact>
</mgrwt>
</event>
<event>
 8    2  0.7266322E-052  0.1264842E+04  0.7818608E-02  0.9057920E-01
         -2   -1    0    0    0  501 -0.00000000000E+00  0.00000000000E+00  0.40100418623E+03  0.40100418624E+03  0.25500000000E-02 0. -1.
          2   -1    0    0  501    0  0.00000000000E+00 -0.00000000000E+00 -0.99738727408E+03  0.99738727409E+03  0.25500000000E-02 0.  1.
    -200001    2    1    2    0    0 -0.12125487413E+03 -0.26246359214E+02 -0.40557997229E+03  0.74450580917E+03  0.61188411492E+03 0.  0.
   -5000001    2    3    3    0    0 -0.24252264317E+03  0.19629074872E+03 -0.10308763025E+03  0.33715920834E+03  0.75511467812E+02 0.  0.
     200001    1    1    2    0    0  0.12125487413E+03  0.26246359214E+02 -0.19080311556E+03  0.65388565115E+03  0.61300000000E+03 0. -1.
         11    1    4    4    0    0 -0.14319779941E+03  0.11261430000E+03 -0.90090236481E+02  0.20323346434E+03  0.51100000000E-03 0.  1.
    -200002    1    4    4    0    0 -0.99324843766E+02  0.83676448724E+02 -0.12997393771E+02  0.13392574400E+03  0.30000000000E+02 0.  1.
    -200000    1    3    3    0    0  0.12126776904E+03 -0.22253710794E+03 -0.30249234204E+03  0.40734660083E+03  0.10100000000E+03 0.  1.
<mgrwt>
<rscale>  0 0.12648422E+04</rscale>
<asrwt>0</asrwt>
<pdfrwt beam="1">  1        2 0.14248390E+00 0.12648422E+04</pdfrwt>
<pdfrwt beam="2">  1       -2 0.57286313E-01 0.12648422E+04</pdfrwt>
<totfact> 0.79140027E+01</totfact>
</mgrwt>
</event>
<event>
 8    2  0.7266322E-052  0.1693172E+04  0.7818608E-02  0.8765268E-01
          2   -1    0    0  501    0  0.00000000000E+00  0.00000000000E+00  0.34811244637E+04  0.34811244637E+04  0.25500000000E-02 0.  1.
         -2   -1    0    0    0  501 -0.00000000000E+00 -0.00000000000E+00 -0.20588412893E+03  0.20588412894E+03  0.25500000000E-02 0. -1.
    -200001    2    1    2    0    0  0.78559175906E+02 -0.22045108846E+03  0.46866492064E+03  0.80475170234E+03  0.61090774103E+03 0.  0.
   -5000001    2    3    3    0    0  0.31161672606E+03 -0.11418517784E+03  0.29071063201E+03  0.47691486139E+03  0.18108526901E+03 0.  0.
     200001    1    1    2    0    0 -0.78559175906E+02  0.22045108846E+03  0.28065754142E+04  0.28822568903E+04  0.61300000000E+03 0.  1.
         11    1    4    4    0    0  0.34590989792E+02  0.43629293130E+02  0.26050644922E+02  0.61471032974E+02  0.51100000000E-03 0.  1.
    -200002    1    4    4    0    0  0.27702573627E+03 -0.15781447097E+03  0.26465998709E+03  0.41544382842E+03  0.30000000000E+02 0.  1.
    -200000    1    3    3    0    0 -0.23305755015E+03 -0.10626591062E+03  0.17795428863E+03  0.32783684095E+03  0.10100000000E+03 0. -1.
<mgrwt>
<rscale>  0 0.16931725E+04</rscale>
<asrwt>0</asrwt>
<pdfrwt beam="1">  1        2 0.49730354E+00 0.16931725E+04</pdfrwt>
<pdfrwt beam="2">  1       -2 0.29412016E-01 0.16931725E+04</pdfrwt>
<totfact> 0.12618151E+01</totfact>
</mgrwt>
</event>
<event>
 8    2  0.7266322E-052  0.1461480E+04  0.7818608E-02  0.8910480E-01
          2   -1    0    0  501    0  0.00000000000E+00  0.00000000000E+00  0.39845233028E+03  0.39845233029E+03  0.25500000000E-02 0.  1.
         -2   -1    0    0    0  501 -0.00000000000E+00 -0.00000000000E+00 -0.13401381139E+04  0.13401381139E+04  0.25500000000E-02 0. -1.
    -200001    2    1    2    0    0  0.22770043265E+03  0.28334528389E+03 -0.66307644427E+03  0.97339491306E+03  0.61293984118E+03 0.  0.
   -5000001    2    3    3    0    0  0.20357252531E+03 -0.13338498834E+02  0.24835649408E+02  0.21706993564E+03  0.69877456066E+02 0.  0.
     200001    1    1    2    0    0 -0.22770043265E+03 -0.28334528389E+03 -0.27860933939E+03  0.76519553117E+03  0.61300000000E+03 0.  1.
         11    1    4    4    0    0  0.26064749087E+01  0.26062708553E+01  0.12329936450E+02  0.12869098350E+02  0.51100000000E-03 0.  1.
    -200002    1    4    4    0    0  0.20096605040E+03 -0.15944769689E+02  0.12505712958E+02  0.20420083729E+03  0.30000000000E+02 0.  1.
    -200000    1    3    3    0    0  0.24127907342E+02  0.29668378272E+03 -0.68791209368E+03  0.75632497742E+03  0.10100000000E+03 0. -1.
<mgrwt>
<rscale>  0 0.14614803E+04</rscale>
<asrwt>0</asrwt>
<pdfrwt beam="1">  1        2 0.56921762E-01 0.14614803E+04</pdfrwt>
<pdfrwt beam="2">  1       -2 0.19144830E+00 0.14614803E+04</pdfrwt>
<totfact> 0.12767010E+01</totfact>
</mgrwt>
</event>
<event>
 8    2  0.7266322E-052  0.1450536E+04  0.7818608E-02  0.8918029E-01
         -2   -1    0    0    0  501 -0.00000000000E+00  0.00000000000E+00  0.86543011986E+03  0.86543011986E+03  0.25500000000E-02 0. -1.
          2   -1    0    0  501    0  0.00000000000E+00 -0.00000000000E+00 -0.60780599238E+03  0.60780599239E+03  0.25500000000E-02 0.  1.
    -200001    2    1    2    0    0  0.15107360361E+03  0.35401773895E+03  0.82705378535E+02  0.72857688688E+03  0.61305163507E+03 0.  0.
   -5000001    2    3    3    0    0 -0.21544668617E+03  0.59057816870E+02 -0.22719789386E+02  0.23597771464E+03  0.72554756297E+02 0.  0.
     200001    1    1    2    0    0 -0.15107360361E+03 -0.35401773895E+03  0.17491874894E+03  0.74465922537E+03  0.61300000000E+03 0. -1.
         11    1    4    4    0    0 -0.54642985685E+02 -0.53231668008E+00 -0.28813822491E+02  0.61776820997E+02  0.51100000000E-03 0.  1.
    -200002    1    4    4    0    0 -0.16080370049E+03  0.59590133550E+02  0.60940331058E+01  0.17420089365E+03  0.30000000000E+02 0.  1.
    -200000    1    3    3    0    0  0.36652028978E+03  0.29495992208E+03  0.10542516792E+03  0.49259917224E+03  0.10100000000E+03 0. -1.
<mgrwt>
<rscale>  0 0.14505359E+04</rscale>
<asrwt>0</asrwt>
<pdfrwt beam="1">  1        2 0.86829428E-01 0.14505359E+04</pdfrwt>
<pdfrwt beam="2">  1       -2 0.12363287E+00 0.14505359E+04</pdfrwt>
<totfact> 0.25581199E+01</totfact>
</mgrwt>
</event>
<event>
 8    2  0.7266322E-052  0.1303998E+04  0.7818608E-02  0.9026401E-01
          2   -1    0    0  501    0  0.00000000000E+00  0.00000000000E+00  0.25467942973E+04  0.25467942973E+04  0.25500000000E-02 0.  1.
         -2   -1    0    0    0  501 -0.00000000000E+00 -0.00000000000E+00 -0.16691677515E+03  0.16691677517E+03  0.25500000000E-02 0. -1.
    -200001    2    1    2    0    0 -0.16336969168E+03  0.11888784365E+03  0.13009915423E+04  0.14564967180E+04  0.62288018183E+03 0.  0.
   -5000001    2    3    3    0    0  0.13508381157E+03 -0.44571814741E+02  0.92670011714E+03  0.94065892909E+03  0.76366425572E+02 0.  0.
     200001    1    1    2    0    0  0.16336969168E+03 -0.11888784365E+03  0.10788859799E+04  0.12572143545E+04  0.61300000000E+03 0.  1.
         11    1    4    4    0    0  0.97839065158E+01 -0.28988881647E+01  0.11014505355E+02  0.15014916176E+02  0.51100000000E-03 0.  1.
    -200002    1    4    4    0    0  0.12529990505E+03 -0.41672926577E+02  0.91568561178E+03  0.92564401291E+03  0.30000000000E+02 0.  1.
    -200000    1    3    3    0    0 -0.29845350325E+03  0.16345965840E+03  0.37429142513E+03  0.51583778890E+03  0.10100000000E+03 0.  1.
<mgrwt>
<rscale>  0 0.13039980E+04</rscale>
<asrwt>0</asrwt>
<pdfrwt beam="1">  1        2 0.36382774E+00 0.13039980E+04</pdfrwt>
<pdfrwt beam="2">  1       -2 0.23845255E-01 0.13039980E+04</pdfrwt>
<totfact> 0.64023764E+01</totfact>
</mgrwt>
</event>
<event>
 8    2  0.7266322E-052  0.1477737E+04  0.7818608E-02  0.8899394E-01
         -2   -1    0    0    0  501 -0.00000000000E+00  0.00000000000E+00  0.10612147905E+04  0.10612147905E+04  0.25500000000E-02 0. -1.
          2   -1    0    0  501    0  0.00000000000E+00 -0.00000000000E+00 -0.51443528038E+03  0.51443528039E+03  0.25500000000E-02 0.  1.
    -200001    2    1    2    0    0 -0.18659961097E+03 -0.36159394271E+03  0.19817671258E+03  0.76148638671E+03  0.61238706185E+03 0.  0.
   -5000001    2    3    3    0    0 -0.33689359712E+03 -0.33843789215E+03  0.27900648056E+03  0.56183935732E+03  0.98900680559E+02 0.  0.
     200001    1    1    2    0    0  0.18659961097E+03  0.36159394271E+03  0.34860279758E+03  0.81416368422E+03  0.61300000000E+03 0.  1.
         11    1    4    4    0    0 -0.17772729969E+03 -0.22712422905E+03  0.13643554763E+03  0.31904085496E+03  0.51100000000E-03 0.  1.
    -200002    1    4    4    0    0 -0.15916629743E+03 -0.11131366310E+03  0.14257093293E+03  0.24279850236E+03  0.30000000000E+02 0.  1.
    -200000    1    3    3    0    0  0.15029398616E+03 -0.23156050567E+02 -0.80829767981E+02  0.19964702939E+03  0.10100000000E+03 0.  1.
<mgrwt>
<rscale>  0 0.14777366E+04</rscale>
<asrwt>0</asrwt>
<pdfrwt beam="1">  1        2 0.73490755E-01 0.14777366E+04</pdfrwt>
<pdfrwt beam="2">  1       -2 0.15160211E+00 0.14777366E+04</pdfrwt>
<totfact> 0.18337399E+01</totfact>
</mgrwt>
</event>
<event>
 8    2  0.7266322E-052  0.1435888E+04  0.7818608E-02  0.8928243E-01
          2   -1    0    0  501    0  0.00000000000E+00  0.00000000000E+00  0.64972876606E+03  0.64972876607E+03  0.25500000000E-02 0.  1.
         -2   -1    0    0    0  501 -0.00000000000E+00 -0.00000000000E+00 -0.79332169501E+03  0.79332169501E+03  0.25500000000E-02 0. -1.
    -200001    2    1    2    0    0  0.29916428525E+03 -0.10976981805E+03 -0.27174096549E+03  0.74038439402E+03  0.61055484280E+03 0.  0.
   -5000001    2    3    3    0    0  0.16753987970E+03 -0.32096118098E+03 -0.23780983464E+02  0.37485473915E+03  0.94153328678E+02 0.  0.
     200001    1    1    2    0    0 -0.29916428525E+03  0.10976981805E+03  0.12814803655E+03  0.70266606706E+03  0.61300000000E+03 0.  1.
         11    1    4    4    0    0  0.30121254899E+02 -0.17059724776E+02 -0.19961676418E+02  0.39959889037E+02  0.51100000000E-03 0.  1.
    -200002    1    4    4    0    0  0.13741862480E+03 -0.30390145620E+03 -0.38193070460E+01  0.33489485011E+03  0.30000000000E+02 0.  1.
    -200000    1    3    3    0    0  0.13162440555E+03  0.21119136292E+03 -0.24795998203E+03  0.36552965488E+03  0.10100000000E+03 0. -1.
<mgrwt>
<rscale>  0 0.14358885E+04</rscale>
<asrwt>0</asrwt>
<pdfrwt beam="1">  1        2 0.92818396E-01 0.14358885E+04</pdfrwt>
<pdfrwt beam="2">  1       -2 0.11333167E+00 0.14358885E+04</pdfrwt>
<totfact> 0.29304897E+01</totfact>
</mgrwt>
</event>
<event>
 8    2  0.7266322E-052  0.1452799E+04  0.7818608E-02  0.8916462E-01
         -2   -1    0    0    0  501 -0.00000000000E+00  0.00000000000E+00  0.47920722938E+03  0.47920722939E+03  0.25500000000E-02 0. -1.
          2   -1    0    0  501    0  0.00000000000E+00 -0.00000000000E+00 -0.11011030961E+04  0.11011030961E+04  0.25500000000E-02 0.  1.
    -200001    2    1    2    0    0  0.22461181590E+03  0.27677599820E+03 -0.48233386757E+03  0.85760570215E+03  0.61301399621E+03 0.  0.
   -5000001    2    3    3    0    0 -0.15647930167E+03 -0.68630983468E+02 -0.11353635833E+03  0.21670865450E+03  0.69829453183E+02 0.  0.
     200001    1    1    2    0    0 -0.22461181590E+03 -0.27677599820E+03 -0.13956199918E+03  0.72270462336E+03  0.61300000000E+03 0. -1.
         11    1    4    4    0    0 -0.56097451869E+02 -0.10051511398E+02 -0.67024442736E+02  0.87978593486E+02  0.51100000000E-03 0.  1.
    -200002    1    4    4    0    0 -0.10038184980E+03 -0.58579472071E+02 -0.46511915590E+02  0.12873006102E+03  0.30000000000E+02 0.  1.
    -200000    1    3    3    0    0  0.38109111756E+03  0.34540698166E+03 -0.36879750924E+03  0.64089704765E+03  0.10100000000E+03 0.  1.
<mgrwt>
<rscale>  0 0.14527995E+04</rscale>
<asrwt>0</asrwt>
<pdfrwt beam="1">  1        2 0.15730044E+00 0.14527995E+04</pdfrwt>
<pdfrwt beam="2">  1       -2 0.68458176E-01 0.14527995E+04</pdfrwt>
<totfact> 0.46235198E+01</totfact>
</mgrwt>
</event>
<event>
 8    2  0.7266322E-052  0.1595557E+04  0.7818608E-02  0.8823282E-01
         -2   -1    0    0    0  501 -0.00000000000E+00  0.00000000000E+00  0.43268780132E+03  0.43268780133E+03  0.25500000000E-02 0. -1.
          2   -1    0    0  501    0  0.00000000000E+00 -0.00000000000E+00 -0.14709236869E+04  0.14709236869E+04  0.25500000000E-02 0.  1.
    -200001    2    1    2    0    0 -0.48348699590E+03 -0.13992929429E+03 -0.41971592030E+03  0.89779051507E+03  0.61361752956E+03 0.  0.
   -5000001    2    3    3    0    0  0.42454276373E+02 -0.20149701025E+03 -0.25356266185E+03  0.33368705752E+03  0.68188108551E+02 0.  0.
     200001    1    1    2    0    0  0.48348699590E+03  0.13992929429E+03 -0.61851996525E+03  0.10058209731E+04  0.61300000000E+03 0. -1.
         11    1    4    4    0    0  0.14021264257E+02 -0.49594509375E+01 -0.96450572912E+01  0.17726227330E+02  0.51100000000E-03 0.  1.
    -200002    1    4    4    0    0  0.28433012117E+02 -0.19653755931E+03 -0.24391760456E+03  0.31596083019E+03  0.30000000000E+02 0.  1.
    -200000    1    3    3    0    0 -0.52594127227E+03  0.61567715955E+02 -0.16615325845E+03  0.56410345755E+03  0.10100000000E+03 0. -1.
<mgrwt>
<rscale>  0 0.15955573E+04</rscale>
<asrwt>0</asrwt>
<pdfrwt beam="1">  1        2 0.21013195E+00 0.15955573E+04</pdfrwt>
<pdfrwt beam="2">  1       -2 0.61812544E-01 0.15955573E+04</pdfrwt>
<totfact> 0.35405579E+01</totfact>
</mgrwt>
</event>
<event>
 8    2  0.7266322E-052  0.1432348E+04  0.7818608E-02  0.8930731E-01
         -2   -1    0    0    0  501 -0.00000000000E+00  0.00000000000E+00  0.12372968077E+04  0.12372968077E+04  0.25500000000E-02 0. -1.
          2   -1    0    0  501    0  0.00000000000E+00 -0.00000000000E+00 -0.41453679424E+03  0.41453679424E+03  0.25500000000E-02 0.  1.
    -200001    2    1    2    0    0  0.31443674294E+03 -0.12795933242E+03  0.58351361846E+03  0.91139326429E+03  0.61229525820E+03 0.  0.
   -5000001    2    3    3    0    0 -0.31615658077E+02 -0.22300796134E+03  0.30501646845E+02  0.24445267709E+03  0.89970329666E+02 0.  0.
     200001    1    1    2    0    0 -0.31443674294E+03  0.12795933242E+03  0.23924639497E+03  0.74044033762E+03  0.61300000000E+03 0.  1.
         11    1    4    4    0    0  0.26125080416E+02 -0.37121961900E+02  0.96349933940E+01  0.46404665499E+02  0.51100000000E-03 0.  1.
    -200002    1    4    4    0    0 -0.57740738493E+02 -0.18588599944E+03  0.20866653450E+02  0.19804801159E+03  0.30000000000E+02 0.  1.
    -200000    1    3    3    0    0  0.34605240102E+03  0.95048628922E+02  0.55301197162E+03  0.66694058720E+03  0.10100000000E+03 0. -1.
<mgrwt>
<rscale>  0 0.14323478E+04</rscale>
<asrwt>0</asrwt>
<pdfrwt beam="1">  1        2 0.59219542E-01 0.14323478E+04</pdfrwt>
<pdfrwt beam="2">  1       -2 0.17675669E+00 0.14323478E+04</pdfrwt>
<totfact> 0.15417941E+01</totfact>
</mgrwt>
</event>
<event>
 8    2  0.7266322E-052  0.1707041E+04  0.7818608E-02  0.8757359E-01
         -2   -1    0    0    0  501 -0.00000000000E+00  0.00000000000E+00  0.34354050309E+03  0.34354050310E+03  0.25500000000E-02 0. -1.
          2   -1    0    0  501    0  0.00000000000E+00 -0.00000000000E+00 -0.21205566335E+04  0.21205566335E+04  0.25500000000E-02 0.  1.
    -200001    2    1    2    0    0 -0.21459197194E+03  0.20536940180E+03 -0.16306480700E+04  0.17673770244E+04  0.61349988789E+03 0.  0.
   -5000001    2    3    3    0    0  0.60275872649E+02 -0.98934947904E+02 -0.99904464356E+03  0.10075893188E+04  0.61030572657E+02 0.  0.
     200001    1    1    2    0    0  0.21459197194E+03 -0.20536940180E+03 -0.14636806034E+03  0.69672011217E+03  0.61300000000E+03 0. -1.
         11    1    4    4    0    0  0.16249876829E+02 -0.54464493735E+01 -0.28152642024E+03  0.28204759811E+03  0.51100000000E-03 0.  1.
    -200002    1    4    4    0    0  0.44025995820E+02 -0.93488498530E+02 -0.71751822332E+03  0.72554172069E+03  0.30000000000E+02 0.  1.
    -200000    1    3    3    0    0 -0.27486784459E+03  0.30430434970E+03 -0.63160342646E+03  0.75978770558E+03  0.10100000000E+03 0.  1.
<mgrwt>
<rscale>  0 0.17070408E+04</rscale>
<asrwt>0</asrwt>
<pdfrwt beam="1">  1        2 0.30293666E+00 0.17070408E+04</pdfrwt>
<pdfrwt beam="2">  1       -2 0.49077216E-01 0.17070408E+04</pdfrwt>
<totfact> 0.26051954E+01</totfact>
</mgrwt>
</event>
<event>
 8    2  0.7266322E-052  0.1477016E+04  0.7818608E-02  0.8899883E-01
          2   -1    0    0  501    0  0.00000000000E+00  0.00000000000E+00  0.14019250754E+04  0.14019250754E+04  0.25500000000E-02 0.  1.
         -2   -1    0    0    0  501 -0.00000000000E+00 -0.00000000000E+00 -0.38903213076E+03  0.38903213077E+03  0.25500000000E-02 0. -1.
    -200001    2    1    2    0    0 -0.24008363911E+03 -0.30869228828E+03  0.35033266223E+03  0.80724677599E+03  0.61317477159E+03 0.  0.
   -5000001    2    3    3    0    0 -0.28883016158E+03 -0.10464684786E+03 -0.60729859018E+02  0.33482306619E+03  0.11850968261E+03 0.  0.
     200001    1    1    2    0    0  0.24008363911E+03  0.30869228828E+03  0.66256028238E+03  0.98371043016E+03  0.61300000000E+03 0. -1.
         11    1    4    4    0    0 -0.15375559128E+03  0.32763466470E+01 -0.28750491907E+02  0.15645480843E+03  0.51100000000E-03 0.  1.
    -200002    1    4    4    0    0 -0.13507457030E+03 -0.10792319450E+03 -0.31979367111E+02  0.17836825776E+03  0.30000000000E+02 0.  1.
    -200000    1    3    3    0    0  0.48746522468E+02 -0.20404544042E+03  0.41106252124E+03  0.47242370980E+03  0.10100000000E+03 0.  1.
<mgrwt>
<rscale>  0 0.14770158E+04</rscale>
<asrwt>0</asrwt>
<pdfrwt beam="1">  1        2 0.20027501E+00 0.14770158E+04</pdfrwt>
<pdfrwt beam="2">  1       -2 0.55576019E-01 0.14770158E+04</pdfrwt>
<totfact> 0.48663124E+01</totfact>
</mgrwt>
</event>
<event>
 8    2  0.7266322E-052  0.1604244E+04  0.7818608E-02  0.8817945E-01
         -2   -1    0    0    0  501 -0.00000000000E+00  0.00000000000E+00  0.70575297273E+03  0.70575297274E+03  0.25500000000E-02 0. -1.
          2   -1    0    0  501    0  0.00000000000E+00 -0.00000000000E+00 -0.91165051439E+03  0.91165051440E+03  0.25500000000E-02 0.  1.
    -200001    2    1    2    0    0 -0.43178137767E+03  0.27771520253E+03 -0.16810878631E+03  0.81692995113E+03  0.61282386475E+03 0.  0.
   -5000001    2    3    3    0    0 -0.16082809032E+03  0.42708133070E+03 -0.32756040164E+02  0.46444266049E+03  0.79811584653E+02 0.  0.
     200001    1    1    2    0    0  0.43178137767E+03 -0.27771520253E+03 -0.37788755351E+02  0.80047353601E+03  0.61300000000E+03 0. -1.
         11    1    4    4    0    0 -0.26579938318E+02  0.14724727520E+03 -0.30047196472E+02  0.15261417756E+03  0.51100000000E-03 0.  1.
    -200002    1    4    4    0    0 -0.13424815200E+03  0.27983405550E+03 -0.27088436920E+01  0.31182848293E+03  0.30000000000E+02 0.  1.
    -200000    1    3    3    0    0 -0.27095328735E+03 -0.14936612818E+03 -0.13535274615E+03  0.35248729064E+03  0.10100000000E+03 0.  1.
<mgrwt>
<rscale>  0 0.16042444E+04</rscale>
<asrwt>0</asrwt>
<pdfrwt beam="1">  1        2 0.13023579E+00 0.16042444E+04</pdfrwt>
<pdfrwt beam="2">  1       -2 0.10082185E+00 0.16042444E+04</pdfrwt>
<totfact> 0.24876876E+01</totfact>
</mgrwt>
</event>
<event>
 8    2  0.7266322E-052  0.2045313E+04  0.7818608E-02  0.8585723E-01
         -2   -1    0    0    0  501 -0.00000000000E+00  0.00000000000E+00  0.63940344059E+03  0.63940344060E+03  0.25500000000E-02 0. -1.
          2   -1    0    0  501    0  0.00000000000E+00 -0.00000000000E+00 -0.16356289815E+04  0.16356289815E+04  0.25500000000E-02 0.  1.
    -200001    2    1    2    0    0 -0.65064257714E+03  0.49132962000E+03 -0.41593081826E+03  0.11014688218E+04  0.61277611021E+03 0.  0.
   -5000001    2    3    3    0    0 -0.74250264426E+03  0.39351314474E+03 -0.36588910576E+03  0.92622183114E+03  0.13360116372E+03 0.  0.
     200001    1    1    2    0    0  0.65064257714E+03 -0.49132962000E+03 -0.58029472263E+03  0.11735636002E+04  0.61300000000E+03 0.  1.
         11    1    4    4    0    0 -0.53709607745E+03  0.30987753123E+03 -0.31994305866E+03  0.69775342462E+03  0.51100000000E-03 0.  1.
    -200002    1    4    4    0    0 -0.20540656681E+03  0.83635613504E+02 -0.45946047099E+02  0.22846840652E+03  0.30000000000E+02 0. -1.
    -200000    1    3    3    0    0  0.91860067118E+02  0.97816475267E+02 -0.50041712497E+02  0.17524699071E+03  0.10100000000E+03 0. -1.
<mgrwt>
<rscale>  0 0.20453135E+04</rscale>
<asrwt>0</asrwt>
<pdfrwt beam="1">  1        2 0.23366128E+00 0.20453135E+04</pdfrwt>
<pdfrwt beam="2">  1       -2 0.91343349E-01 0.20453135E+04</pdfrwt>
<totfact> 0.11766041E+01</totfact>
</mgrwt>
</event>
<event>
 8    2  0.7266322E-052  0.1415199E+04  0.7818608E-02  0.8942890E-01
         -2   -1    0    0    0  501 -0.00000000000E+00  0.00000000000E+00  0.22731480329E+03  0.22731480330E+03  0.25500000000E-02 0. -1.
          2   -1    0    0  501    0  0.00000000000E+00 -0.00000000000E+00 -0.22026578857E+04  0.22026578857E+04  0.25500000000E-02 0.  1.
    -200001    2    1    2    0    0 -0.31238054346E+03 -0.10410681434E+03 -0.75790918134E+03  0.10277123222E+04  0.61102083221E+03 0.  0.
   -5000001    2    3    3    0    0 -0.10451684543E+03  0.23708853622E+03 -0.34733246314E+03  0.44599432721E+03  0.10552892954E+03 0.  0.
     200001    1    1    2    0    0  0.31238054346E+03  0.10410681434E+03 -0.12174339011E+04  0.14022603668E+04  0.61300000000E+03 0.  1.
         11    1    4    4    0    0 -0.10266891294E+03  0.19421953550E+03 -0.23295483541E+03  0.32020319953E+03  0.51100000000E-03 0.  1.
    -200002    1    4    4    0    0 -0.18479324972E+01  0.42869000725E+02 -0.11437762773E+03  0.12579112768E+03  0.30000000000E+02 0. -1.
    -200000    1    3    3    0    0 -0.20786369803E+03 -0.34119535057E+03 -0.41057671820E+03  0.58171799503E+03  0.10100000000E+03 0. -1.
<mgrwt>
<rscale>  0 0.14151986E+04</rscale>
<asrwt>0</asrwt>
<pdfrwt beam="1">  1        2 0.31466540E+00 0.14151986E+04</pdfrwt>
<pdfrwt beam="2">  1       -2 0.32473545E-01 0.14151986E+04</pdfrwt>
<totfact> 0.54247434E+01</totfact>
</mgrwt>
</event>
<event>
 8    2  0.7266322E-052  0.1506626E+04  0.7818608E-02  0.8880059E-01
          2   -1    0    0  501    0  0.00000000000E+00  0.00000000000E+00  0.50194543827E+03  0.50194543828E+03  0.25500000000E-02 0.  1.
         -2   -1    0    0    0  501 -0.00000000000E+00 -0.00000000000E+00 -0.11305613894E+04  0.11305613894E+04  0.25500000000E-02 0. -1.
    -200001    2    1    2    0    0  0.28411760610E+03  0.29506727632E+03 -0.14391657604E+03  0.75018602671E+03  0.61178393421E+03 0.  0.
   -5000001    2    3    3    0    0  0.14252905986E+03 -0.16330620415E+03  0.96156514149E+01  0.23644804982E+03  0.93977498875E+02 0.  0.
     200001    1    1    2    0    0 -0.28411760610E+03 -0.29506727632E+03 -0.48469937513E+03  0.88232080101E+03  0.61300000000E+03 0.  1.
         11    1    4    4    0    0  0.12633404024E+03 -0.11919087133E+03  0.31562989416E+02  0.17653038218E+03  0.51100000000E-03 0.  1.
    -200002    1    4    4    0    0  0.16195019617E+02 -0.44115332817E+02 -0.21947338001E+02  0.59917667639E+02  0.30000000000E+02 0.  1.
    -200000    1    3    3    0    0  0.14158854625E+03  0.45837348047E+03 -0.15353222745E+03  0.51373797688E+03  0.10100000000E+03 0. -1.
<mgrwt>
<rscale>  0 0.15066255E+04</rscale>
<asrwt>0</asrwt>
<pdfrwt beam="1">  1        2 0.71706492E-01 0.15066255E+04</pdfrwt>
<pdfrwt beam="2">  1       -2 0.16150877E+00 0.15066255E+04</pdfrwt>
<totfact> 0.15866215E+01</totfact>
</mgrwt>
</event>
<event>
 8    2  0.7266322E-052  0.1676396E+04  0.7818608E-02  0.8774942E-01
         -2   -1    0    0    0  501 -0.00000000000E+00  0.00000000000E+00  0.48935357603E+03  0.48935357604E+03  0.25500000000E-02 0. -1.
          2   -1    0    0  501    0  0.00000000000E+00 -0.00000000000E+00 -0.14357226333E+04  0.14357226333E+04  0.25500000000E-02 0.  1.
    -200001    2    1    2    0    0  0.44283751722E+03 -0.19964297076E+03 -0.12493802974E+03  0.79084505326E+03  0.61144419578E+03 0.  0.
   -5000001    2    3    3    0    0  0.42402909158E+02 -0.24068963835E+03 -0.24995174505E+03  0.35741439759E+03  0.74428946230E+02 0.  0.
     200001    1    1    2    0    0 -0.44283751722E+03  0.19964297076E+03 -0.82143102752E+03  0.11342311561E+04  0.61300000000E+03 0.  1.
         11    1    4    4    0    0 -0.39001083695E+01 -0.98817459371E+02 -0.13148985644E+03  0.16452867066E+03  0.51100000000E-03 0.  1.
    -200002    1    4    4    0    0  0.46303017527E+02 -0.14187217898E+03 -0.11846188861E+03  0.19288572693E+03  0.30000000000E+02 0.  1.
    -200000    1    3    3    0    0  0.40043460806E+03  0.41046667595E+02  0.12501371531E+03  0.43343065567E+03  0.10100000000E+03 0. -1.
<mgrwt>
<rscale>  0 0.16763961E+04</rscale>
<asrwt>0</asrwt>
<pdfrwt beam="1">  1        2 0.20510323E+00 0.16763961E+04</pdfrwt>
<pdfrwt beam="2">  1       -2 0.69907654E-01 0.16763961E+04</pdfrwt>
<totfact> 0.28195062E+01</totfact>
</mgrwt>
</event>
<event>
 8    2  0.7266322E-052  0.1893040E+04  0.7818608E-02  0.8658329E-01
          2   -1    0    0  501    0  0.00000000000E+00  0.00000000000E+00  0.51790830043E+04  0.51790830043E+04  0.25500000000E-02 0.  1.
         -2   -1    0    0    0  501 -0.00000000000E+00 -0.00000000000E+00 -0.17298434135E+03  0.17298434137E+03  0.25500000000E-02 0. -1.
    -200001    2    1    2    0    0 -0.65415766797E+03 -0.11125317779E+03  0.16943390886E+04  0.19193104357E+04  0.61046545975E+03 0.  0.
   -5000001    2    3    3    0    0 -0.54072425777E+02  0.73910309023E+01  0.59146834520E+03  0.65412127094E+03  0.27397331832E+03 0.  0.
     200001    1    1    2    0    0  0.65415766797E+03  0.11125317779E+03  0.33117595743E+04  0.34327569099E+04  0.61300000000E+03 0.  1.
         11    1    4    4    0    0  0.98332802215E+02 -0.51711835746E+02  0.27671626562E+03  0.29818676296E+03  0.51100000000E-03 0.  1.
    -200002    1    4    4    0    0 -0.15240522799E+03  0.59102866648E+02  0.31475207958E+03  0.35593450797E+03  0.30000000000E+02 0.  1.
    -200000    1    3    3    0    0 -0.60008524220E+03 -0.11864420869E+03  0.11028707434E+04  0.12651891648E+04  0.10100000000E+03 0.  1.
<mgrwt>
<rscale>  0 0.18930402E+04</rscale>
<asrwt>0</asrwt>
<pdfrwt beam="1">  1        2 0.73986881E+00 0.18930402E+04</pdfrwt>
<pdfrwt beam="2">  1       -2 0.24712055E-01 0.18930402E+04</pdfrwt>
<totfact> 0.82015874E-01</totfact>
</mgrwt>
</event>
<event>
 8    2  0.7266322E-052  0.1844468E+04  0.7818608E-02  0.8683003E-01
          2   -1    0    0  501    0  0.00000000000E+00  0.00000000000E+00  0.83568231282E+03  0.83568231282E+03  0.25500000000E-02 0. -1.
         -2   -1    0    0    0  501 -0.00000000000E+00 -0.00000000000E+00 -0.10177493903E+04  0.10177493904E+04  0.25500000000E-02 0.  1.
    -200001    2    1    2    0    0  0.14859112870E+03  0.46943335795E+03  0.39292860168E+03  0.87934955459E+03  0.61352730343E+03 0.  0.
   -5000001    2    3    3    0    0 -0.10064338901E+03  0.49830725814E+03  0.27872193327E+03  0.58575849539E+03  0.83593561789E+02 0.  0.
     200001    1    1    2    0    0 -0.14859112870E+03 -0.46943335795E+03 -0.57499567921E+03  0.97408214859E+03  0.61300000000E+03 0.  1.
         11    1    4    4    0    0 -0.57431287491E+02  0.32644343485E+03  0.14525195281E+03  0.36188644453E+03  0.51100000000E-03 0.  1.
    -200002    1    4    4    0    0 -0.43212101517E+02  0.17186382329E+03  0.13346998046E+03  0.22387205086E+03  0.30000000000E+02 0.  1.
    -200000    1    3    3    0    0  0.24923451771E+03 -0.28873900190E+02  0.11420666841E+03  0.29359105919E+03  0.10100000000E+03 0.  1.
<mgrwt>
<rscale>  0 0.18444676E+04</rscale>
<asrwt>0</asrwt>
<pdfrwt beam="1">  1        2 0.11938319E+00 0.18444676E+04</pdfrwt>
<pdfrwt beam="2">  1       -2 0.14539277E+00 0.18444676E+04</pdfrwt>
<totfact> 0.11022694E+01</totfact>
</mgrwt>
</event>
<event>
 8    2  0.7266322E-052  0.2361443E+04  0.7818608E-02  0.8454081E-01
          2   -1    0    0  501    0  0.00000000000E+00  0.00000000000E+00  0.21945200102E+04  0.21945200102E+04  0.25500000000E-02 0.  1.
         -2   -1    0    0    0  501 -0.00000000000E+00 -0.00000000000E+00 -0.63526566773E+03  0.63526566773E+03  0.25500000000E-02 0. -1.
    -200001    2    1    2    0    0  0.55379343700E+03  0.72250352097E+03  0.12998415476E+04  0.17020611962E+04  0.61540698570E+03 0.  0.
   -5000001    2    3    3    0    0  0.44858019897E+03  0.69567225563E+03  0.13117358270E+04  0.15532921936E+04  0.82955871112E+02 0.  0.
     200001    1    1    2    0    0 -0.55379343700E+03 -0.72250352097E+03  0.25941279494E+03  0.11277244818E+04  0.61300000000E+03 0. -1.
         11    1    4    4    0    0  0.23009338312E+03  0.32067051838E+03  0.68026614493E+03  0.78646969062E+03  0.51100000000E-03 0.  1.
    -200002    1    4    4    0    0  0.21848681585E+03  0.37500173725E+03  0.63146968208E+03  0.76682250295E+03  0.30000000000E+02 0.  1.
    -200000    1    3    3    0    0  0.10521323802E+03  0.26831265344E+02 -0.11894279438E+02  0.14876900261E+03  0.10100000000E+03 0. -1.
<mgrwt>
<rscale>  0 0.23614430E+04</rscale>
<asrwt>0</asrwt>
<pdfrwt beam="1">  1        2 0.31350286E+00 0.23614430E+04</pdfrwt>
<pdfrwt beam="2">  1       -2 0.90752239E-01 0.23614430E+04</pdfrwt>
<totfact> 0.59840958E+00</totfact>
</mgrwt>
</event>
<event>
 8    2  0.7266322E-052  0.1395899E+04  0.7818608E-02  0.8956792E-01
         -2   -1    0    0    0  501 -0.00000000000E+00  0.00000000000E+00  0.54430994214E+03  0.54430994215E+03  0.25500000000E-02 0. -1.
          2   -1    0    0  501    0  0.00000000000E+00 -0.00000000000E+00 -0.89495651276E+03  0.89495651277E+03  0.25500000000E-02 0.  1.
    -200001    2    1    2    0    0 -0.26287379722E+03  0.12035422148E+03 -0.34611991808E+03  0.76149270028E+03  0.61358321604E+03 0.  0.
   -5000001    2    3    3    0    0 -0.22680821285E+03  0.15954921944E+03  0.96229825733E+02  0.30464341431E+03  0.81544538054E+02 0.  0.
     200001    1    1    2    0    0  0.26287379722E+03 -0.12035422148E+03 -0.45266525441E+01  0.67777375464E+03  0.61300000000E+03 0.  1.
         11    1    4    4    0    0 -0.18090032033E+03  0.97968725048E+02  0.79195476526E+02  0.22044210234E+03  0.51100000000E-03 0.  1.
    -200002    1    4    4    0    0 -0.45907892514E+02  0.61580494390E+02  0.17034349207E+02  0.84201311969E+02  0.30000000000E+02 0.  1.
    -200000    1    3    3    0    0 -0.36065584371E+02 -0.39194997957E+02 -0.44234974381E+03  0.45684928597E+03  0.10100000000E+03 0.  1.
<mgrwt>
<rscale>  0 0.13958993E+04</rscale>
<asrwt>0</asrwt>
<pdfrwt beam="1">  1        2 0.12785093E+00 0.13958993E+04</pdfrwt>
<pdfrwt beam="2">  1       -2 0.77758563E-01 0.13958993E+04</pdfrwt>
<totfact> 0.47083657E+01</totfact>
</mgrwt>
</event>
<event>
 8    2  0.7266322E-052  0.1313348E+04  0.7818608E-02  0.9019047E-01
          2   -1    0    0  501    0  0.00000000000E+00  0.00000000000E+00  0.22447863018E+04  0.22447863018E+04  0.25500000000E-02 0.  1.
         -2   -1    0    0    0  501 -0.00000000000E+00 -0.00000000000E+00 -0.19209871585E+03  0.19209871587E+03  0.25500000000E-02 0. -1.
    -200001    2    1    2    0    0  0.11245558043E+03 -0.20705122170E+03  0.10310314269E+04  0.12223617477E+04  0.61288332740E+03 0.  0.
   -5000001    2    3    3    0    0 -0.62932055883E+01 -0.38097453455E+03  0.48750018547E+03  0.63077252929E+03  0.12262280561E+03 0.  0.
     200001    1    1    2    0    0 -0.11245558043E+03  0.20705122170E+03  0.10216561591E+04  0.12145232700E+04  0.61300000000E+03 0. -1.
         11    1    4    4    0    0  0.49316821697E+02 -0.11120778880E+03  0.12390908345E+03  0.17364556473E+03  0.51100000000E-03 0.  1.
    -200002    1    4    4    0    0 -0.55610027285E+02 -0.26976674575E+03  0.36359110203E+03  0.45712696455E+03  0.30000000000E+02 0.  1.
    -200000    1    3    3    0    0  0.11874878602E+03  0.17392331285E+03  0.54353124142E+03  0.59158921840E+03  0.10100000000E+03 0. -1.
<mgrwt>
<rscale>  0 0.13133477E+04</rscale>
<asrwt>0</asrwt>
<pdfrwt beam="1">  1        2 0.32068374E+00 0.13133477E+04</pdfrwt>
<pdfrwt beam="2">  1       -2 0.27442675E-01 0.13133477E+04</pdfrwt>
<totfact> 0.71155872E+01</totfact>
</mgrwt>
</event>
<event>
 8    2  0.7266322E-052  0.1907369E+04  0.7818608E-02  0.8651197E-01
          2   -1    0    0  501    0  0.00000000000E+00  0.00000000000E+00  0.11479257803E+04  0.11479257803E+04  0.25500000000E-02 0.  1.
         -2   -1    0    0    0  501 -0.00000000000E+00 -0.00000000000E+00 -0.79231067579E+03  0.79231067580E+03  0.25500000000E-02 0. -1.
    -200001    2    1    2    0    0 -0.56384542354E+03  0.15384090069E+03 -0.26813868407E+03  0.88836836878E+03  0.61295295119E+03 0.  0.
   -5000001    2    3    3    0    0  0.54987212096E+02  0.12499742406E+03 -0.19651093424E+03  0.25661104858E+03  0.92653836739E+02 0.  0.
     200001    1    1    2    0    0  0.56384542354E+03 -0.15384090069E+03  0.62375378861E+03  0.10518680873E+04  0.61300000000E+03 0.  1.
         11    1    4    4    0    0  0.17286043198E+01  0.77153310386E+02 -0.14246736213E+03  0.16202645046E+03  0.51100000000E-03 0.  1.
    -200002    1    4    4    0    0  0.53258607776E+02  0.47844113673E+02 -0.54043572116E+02  0.94584598125E+02  0.30000000000E+02 0. -1.
    -200000    1    3    3    0    0 -0.61883263564E+03  0.28843476634E+02 -0.71627749829E+02  0.63175732020E+03  0.10100000000E+03 0. -1.
<mgrwt>
<rscale>  0 0.19073687E+04</rscale>
<asrwt>0</asrwt>
<pdfrwt beam="1">  1        2 0.16398940E+00 0.19073687E+04</pdfrwt>
<pdfrwt beam="2">  1       -2 0.11318724E+00 0.19073687E+04</pdfrwt>
<totfact> 0.13187854E+01</totfact>
</mgrwt>
</event>
<event>
 8    2  0.7266322E-052  0.1541766E+04  0.7818608E-02  0.8857145E-01
         -2   -1    0    0    0  501 -0.00000000000E+00  0.00000000000E+00  0.38272968102E+03  0.38272968103E+03  0.25500000000E-02 0. -1.
          2   -1    0    0  501    0  0.00000000000E+00 -0.00000000000E+00 -0.15526895836E+04  0.15526895836E+04  0.25500000000E-02 0.  1.
    -200001    2    1    2    0    0  0.12581585864E+03  0.45525333256E+03 -0.58974233845E+03  0.96820333795E+03  0.60542253902E+03 0.  0.
   -5000001    2    3    3    0    0  0.24762585131E+03  0.43986940358E+03 -0.60546508971E+03  0.80844556978E+03  0.17942299181E+03 0.  0.
     200001    1    1    2    0    0 -0.12581585864E+03 -0.45525333256E+03 -0.58021756410E+03  0.96721592666E+03  0.61300000000E+03 0. -1.
         11    1    4    4    0    0  0.36363370655E+02  0.23320177926E+03 -0.22857088758E+03  0.32855747629E+03  0.51100000000E-03 0.  1.
    -200002    1    4    4    0    0  0.21126248065E+03  0.20666762432E+03 -0.37689420213E+03  0.47988809349E+03  0.30000000000E+02 0.  1.
    -200000    1    3    3    0    0 -0.12180999267E+03  0.15383928979E+02  0.15722751254E+02  0.15975776817E+03  0.10100000000E+03 0. -1.
<mgrwt>
<rscale>  0 0.15417657E+04</rscale>
<asrwt>0</asrwt>
<pdfrwt beam="1">  1        2 0.22181279E+00 0.15417657E+04</pdfrwt>
<pdfrwt beam="2">  1       -2 0.54675670E-01 0.15417657E+04</pdfrwt>
<totfact> 0.41615381E+01</totfact>
</mgrwt>
</event>
<event>
 8    2  0.7266322E-052  0.1284076E+04  0.7818608E-02  0.9042289E-01
         -2   -1    0    0    0  501 -0.00000000000E+00  0.00000000000E+00  0.68257788427E+03  0.68257788428E+03  0.25500000000E-02 0. -1.
          2   -1    0    0  501    0  0.00000000000E+00 -0.00000000000E+00 -0.60390621072E+03  0.60390621073E+03  0.25500000000E-02 0.  1.
    -200001    2    1    2    0    0 -0.10523370122E+03 -0.15045211930E+03  0.64697798826E+02  0.64642609666E+03  0.61641781382E+03 0.  0.
   -5000001    2    3    3    0    0  0.32863548638E+02  0.12147690258E+03 -0.16857024225E+03  0.24939810981E+03  0.13396581621E+03 0.  0.
     200001    1    1    2    0    0  0.10523370122E+03  0.15045211930E+03  0.13973874724E+02  0.64005799835E+03  0.61300000000E+03 0. -1.
         11    1    4    4    0    0 -0.23378858842E+02  0.73890630040E+02 -0.18699135411E+02  0.79724863837E+02  0.51100000000E-03 0.  1.
    -200002    1    4    4    0    0  0.56242407480E+02  0.47586272542E+02 -0.14987110684E+03  0.16967324597E+03  0.30000000000E+02 0.  1.
    -200000    1    3    3    0    0 -0.13809724985E+03 -0.27192902188E+03  0.23326804107E+03  0.39702798685E+03  0.10100000000E+03 0. -1.
<mgrwt>
<rscale>  0 0.12840764E+04</rscale>
<asrwt>0</asrwt>
<pdfrwt beam="1">  1        2 0.86272316E-01 0.12840764E+04</pdfrwt>
<pdfrwt beam="2">  1       -2 0.97511127E-01 0.12840764E+04</pdfrwt>
<totfact> 0.46388658E+01</totfact>
</mgrwt>
</event>
<event>
 8    2  0.7266322E-052  0.1276379E+04  0.7818608E-02  0.9048509E-01
         -2   -1    0    0    0  501 -0.00000000000E+00  0.00000000000E+00  0.12969408283E+03  0.12969408286E+03  0.25500000000E-02 0. -1.
          2   -1    0    0  501    0  0.00000000000E+00 -0.00000000000E+00 -0.31403579149E+04  0.31403579149E+04  0.25500000000E-02 0.  1.
    -200001    2    1    2    0    0  0.96232159172E+01  0.52712978200E+02 -0.19393399835E+04  0.20345864770E+04  0.61288767050E+03 0.  0.
   -5000001    2    3    3    0    0  0.10166554349E+03  0.29460783725E+03 -0.12654814145E+04  0.13057028897E+04  0.79291646575E+02 0.  0.
     200001    1    1    2    0    0 -0.96232159172E+01 -0.52712978200E+02 -0.10713238486E+04  0.12354655207E+04  0.61300000000E+03 0. -1.
         11    1    4    4    0    0  0.76508738365E+02  0.11854071001E+03 -0.57393373036E+03  0.59102065431E+03  0.51100000000E-03 0.  1.
    -200002    1    4    4    0    0  0.25156805124E+02  0.17606712724E+03 -0.69154768415E+03  0.71468223539E+03  0.30000000000E+02 0.  1.
    -200000    1    3    3    0    0 -0.92042327572E+02 -0.24189485905E+03 -0.67385856895E+03  0.72888358730E+03  0.10100000000E+03 0. -1.
<mgrwt>
<rscale>  0 0.12763790E+04</rscale>
<asrwt>0</asrwt>
<pdfrwt beam="1">  1        2 0.44862251E+00 0.12763790E+04</pdfrwt>
<pdfrwt beam="2">  1       -2 0.18527728E-01 0.12763790E+04</pdfrwt>
<totfact> 0.47662854E+01</totfact>
</mgrwt>
</event>
<event>
 8    2  0.7266322E-052  0.1871787E+04  0.7818608E-02  0.8669029E-01
          2   -1    0    0  501    0  0.00000000000E+00  0.00000000000E+00  0.24634071367E+04  0.24634071367E+04  0.25500000000E-02 0.  1.
         -2   -1    0    0    0  501 -0.00000000000E+00 -0.00000000000E+00 -0.35556296273E+03  0.35556296274E+03  0.25500000000E-02 0. -1.
    -200001    2    1    2    0    0 -0.39355875465E+03  0.57211418890E+03  0.85916572530E+03  0.12642450412E+04  0.61477365122E+03 0.  0.
   -5000001    2    3    3    0    0 -0.22704224016E+03 -0.53039326546E+02  0.12713831912E+03  0.28209953731E+03  0.95155913013E+02 0.  0.
     200001    1    1    2    0    0  0.39355875465E+03 -0.57211418890E+03  0.12486784487E+04  0.15547250582E+04  0.61300000000E+03 0. -1.
         11    1    4    4    0    0 -0.19447226882E+03 -0.20210678202E+02  0.11017960084E+03  0.22442700215E+03  0.51100000000E-03 0.  1.
    -200002    1    4    4    0    0 -0.32569971339E+02 -0.32828648344E+02  0.16958718282E+02  0.57672535152E+02  0.30000000000E+02 0. -1.
    -200000    1    3    3    0    0 -0.16651651448E+03  0.62515351545E+03  0.73202740618E+03  0.98214550392E+03  0.10100000000E+03 0.  1.
<mgrwt>
<rscale>  0 0.18717867E+04</rscale>
<asrwt>0</asrwt>
<pdfrwt beam="1">  1        2 0.35191529E+00 0.18717867E+04</pdfrwt>
<pdfrwt beam="2">  1       -2 0.50794712E-01 0.18717867E+04</pdfrwt>
<totfact> 0.15903117E+01</totfact>
</mgrwt>
</event>
<event>
 8    2  0.7266322E-052  0.1407393E+04  0.7818608E-02  0.8948485E-01
         -2   -1    0    0    0  501 -0.00000000000E+00  0.00000000000E+00  0.69989561519E+03  0.69989561519E+03  0.25500000000E-02 0. -1.
          2   -1    0    0  501    0  0.00000000000E+00 -0.00000000000E+00 -0.70751766010E+03  0.70751766010E+03  0.25500000000E-02 0.  1.
    -200001    2    1    2    0    0  0.23361749096E+03 -0.10959223725E+03  0.22674877526E+03  0.70222800042E+03  0.61247168665E+03 0.  0.
   -5000001    2    3    3    0    0 -0.11413839939E+03 -0.90059964227E+02  0.27628505626E+03  0.33620817568E+03  0.12475629727E+03 0.  0.
     200001    1    1    2    0    0 -0.23361749096E+03  0.10959223725E+03 -0.23437082017E+03  0.70518527487E+03  0.61300000000E+03 0. -1.
         11    1    4    4    0    0 -0.60393525525E+02 -0.32747154614E+02  0.23035441348E+03  0.24038076020E+03  0.51100000000E-03 0.  1.
    -200002    1    4    4    0    0 -0.53744873866E+02 -0.57312809613E+02  0.45930642782E+02  0.95827415488E+02  0.30000000000E+02 0.  1.
    -200000    1    3    3    0    0  0.34775589035E+03 -0.19532273022E+02 -0.49536281003E+02  0.36601982474E+03  0.10100000000E+03 0. -1.
<mgrwt>
<rscale>  0 0.14073926E+04</rscale>
<asrwt>0</asrwt>
<pdfrwt beam="1">  1        2 0.10107395E+00 0.14073926E+04</pdfrwt>
<pdfrwt beam="2">  1       -2 0.99985088E-01 0.14073926E+04</pdfrwt>
<totfact> 0.35769858E+01</totfact>
</mgrwt>
</event>
<event>
 8    2  0.7266322E-052  0.1429840E+04  0.7818608E-02  0.8932498E-01
         -2   -1    0    0    0  501 -0.00000000000E+00  0.00000000000E+00  0.31223697286E+03  0.31223697287E+03  0.25500000000E-02 0. -1.
          2   -1    0    0  501    0  0.00000000000E+00 -0.00000000000E+00 -0.16369318228E+04  0.16369318228E+04  0.25500000000E-02 0.  1.
    -200001    2    1    2    0    0  0.28425336918E+03 -0.11679883619E+03 -0.93806152294E+03  0.11619608971E+04  0.61298593752E+03 0.  0.
   -5000001    2    3    3    0    0  0.28782408897E+03 -0.26906968295E+03 -0.87253131890E+03  0.96781052125E+03  0.14179246140E+03 0.  0.
     200001    1    1    2    0    0 -0.28425336918E+03  0.11679883619E+03 -0.38663332704E+03  0.78720789859E+03  0.61300000000E+03 0. -1.
         11    1    4    4    0    0  0.49207955128E+02 -0.13186941776E+03 -0.26146158741E+03  0.29693960308E+03  0.51100000000E-03 0.  1.
    -200002    1    4    4    0    0  0.23861613384E+03 -0.13720026518E+03 -0.61106973149E+03  0.67087091816E+03  0.30000000000E+02 0.  1.
    -200000    1    3    3    0    0 -0.35707197879E+01  0.15227084676E+03 -0.65530204045E+02  0.19415037588E+03  0.10100000000E+03 0. -1.
<mgrwt>
<rscale>  0 0.14298400E+04</rscale>
<asrwt>0</asrwt>
<pdfrwt beam="1">  1        2 0.23384740E+00 0.14298400E+04</pdfrwt>
<pdfrwt beam="2">  1       -2 0.44605283E-01 0.14298400E+04</pdfrwt>
<totfact> 0.57333174E+01</totfact>
</mgrwt>
</event>
<event>
 8    2  0.7266322E-052  0.1604105E+04  0.7818608E-02  0.8818030E-01
         -2   -1    0    0    0  501 -0.00000000000E+00  0.00000000000E+00  0.35501970693E+03  0.35501970694E+03  0.25500000000E-02 0. -1.
          2   -1    0    0  501    0  0.00000000000E+00 -0.00000000000E+00 -0.18119798069E+04  0.18119798069E+04  0.25500000000E-02 0.  1.
    -200001    2    1    2    0    0  0.60182441114E+02  0.42970594919E+03 -0.34889684180E+03  0.82840237015E+03  0.61339412426E+03 0.  0.
   -5000001    2    3    3    0    0  0.12735485837E+03  0.44453436443E+03 -0.11651795234E+02  0.46970021380E+03  0.81562647079E+02 0.  0.
     200001    1    1    2    0    0 -0.60182441114E+02 -0.42970594919E+03 -0.11080632581E+04  0.13385971437E+04  0.61300000000E+03 0.  1.
         11    1    4    4    0    0  0.61265051193E+02  0.26837926345E+03  0.22269238147E+02  0.27618246598E+03  0.51100000000E-03 0.  1.
    -200002    1    4    4    0    0  0.66089807176E+02  0.17615510099E+03 -0.33921033380E+02  0.19351774782E+03  0.30000000000E+02 0.  1.
    -200000    1    3    3    0    0 -0.67172417256E+02 -0.14828415246E+02 -0.33724504657E+03  0.35870215636E+03  0.10100000000E+03 0.  1.
<mgrwt>
<rscale>  0 0.16041054E+04</rscale>
<asrwt>0</asrwt>
<pdfrwt beam="1">  1        2 0.25885425E+00 0.16041054E+04</pdfrwt>
<pdfrwt beam="2">  1       -2 0.50717102E-01 0.16041054E+04</pdfrwt>
<totfact> 0.35414881E+01</totfact>
</mgrwt>
</event>
<event>
 8    2  0.7266322E-052  0.1414617E+04  0.7818608E-02  0.8943305E-01
          2   -1    0    0  501    0  0.00000000000E+00  0.00000000000E+00  0.53313805619E+03  0.53313805619E+03  0.25500000000E-02 0.  1.
         -2   -1    0    0    0  501 -0.00000000000E+00 -0.00000000000E+00 -0.93837888165E+03  0.93837888166E+03  0.25500000000E-02 0. -1.
    -200001    2    1    2    0    0  0.90611162750E+02  0.17770940628E+03  0.10029254885E+03  0.65229535095E+03  0.61289445553E+03 0.  0.
   -5000001    2    3    3    0    0  0.21068379345E+03  0.14937385116E+03 -0.17616107804E+03  0.33315909769E+03  0.11516097743E+03 0.  0.
     200001    1    1    2    0    0 -0.90611162750E+02 -0.17770940628E+03 -0.50553337431E+03  0.81922158690E+03  0.61300000000E+03 0. -1.
         11    1    4    4    0    0  0.84402262514E+02  0.48276450899E+01 -0.80004573955E+02  0.11639493085E+03  0.51100000000E-03 0.  1.
    -200002    1    4    4    0    0  0.12628153093E+03  0.14454620607E+03 -0.96156504087E+02  0.21676416683E+03  0.30000000000E+02 0.  1.
    -200000    1    3    3    0    0 -0.12007263070E+03  0.28335555120E+02  0.27645362689E+03  0.31913625326E+03  0.10100000000E+03 0.  1.
<mgrwt>
<rscale>  0 0.14146173E+04</rscale>
<asrwt>0</asrwt>
<pdfrwt beam="1">  1        2 0.76162580E-01 0.14146173E+04</pdfrwt>
<pdfrwt beam="2">  1       -2 0.13405413E+00 0.14146173E+04</pdfrwt>
<totfact> 0.24377321E+01</totfact>
</mgrwt>
</event>
<event>
 8    2  0.7266322E-052  0.1904446E+04  0.7818608E-02  0.8652646E-01
         -2   -1    0    0    0  501 -0.00000000000E+00  0.00000000000E+00  0.33096569476E+03  0.33096569477E+03  0.25500000000E-02 0. -1.
          2   -1    0    0  501    0  0.00000000000E+00 -0.00000000000E+00 -0.27396459953E+04  0.27396459953E+04  0.25500000000E-02 0.  1.
    -200001    2    1    2    0    0 -0.10908808709E+03 -0.59273071479E+03 -0.54050682577E+03  0.10141411596E+04  0.61082301187E+03 0.  0.
   -5000001    2    3    3    0    0  0.86488890296E+02 -0.19404559803E+03 -0.13796799316E+02  0.31784766658E+03  0.23601433266E+03 0.  0.
     200001    1    1    2    0    0  0.10908808709E+03  0.59273071479E+03 -0.18681734748E+04  0.20564705305E+04  0.61300000000E+03 0.  1.
         11    1    4    4    0    0 -0.60485829308E+02 -0.11320170242E+03 -0.59430861310E+02  0.14143969830E+03  0.51100000000E-03 0.  1.
    -200002    1    4    4    0    0  0.14697471960E+03 -0.80843895607E+02  0.45634061994E+02  0.17640796828E+03  0.30000000000E+02 0.  1.
    -200000    1    3    3    0    0 -0.19557697738E+03 -0.39868511677E+03 -0.52671002646E+03  0.69629349299E+03  0.10100000000E+03 0. -1.
<mgrwt>
<rscale>  0 0.19044462E+04</rscale>
<asrwt>0</asrwt>
<pdfrwt beam="1">  1        2 0.39137799E+00 0.19044462E+04</pdfrwt>
<pdfrwt beam="2">  1       -2 0.47280815E-01 0.19044462E+04</pdfrwt>
<totfact> 0.13077743E+01</totfact>
</mgrwt>
</event>
<event>
 8    2  0.7266322E-052  0.1442855E+04  0.7818608E-02  0.8923369E-01
          2   -1    0    0  501    0  0.00000000000E+00  0.00000000000E+00  0.31566971789E+03  0.31566971790E+03  0.25500000000E-02 0.  1.
         -2   -1    0    0    0  501 -0.00000000000E+00 -0.00000000000E+00 -0.16487405123E+04  0.16487405123E+04  0.25500000000E-02 0. -1.
    -200001    2    1    2    0    0 -0.15319552735E+03  0.30580818432E+03 -0.45559399901E+03  0.84070117458E+03  0.61824352629E+03 0.  0.
   -5000001    2    3    3    0    0  0.10271312451E+03  0.39563862498E+03 -0.29481752612E+03  0.50962894620E+03  0.75659642974E+02 0.  0.
     200001    1    1    2    0    0  0.15319552735E+03 -0.30580818432E+03 -0.87747679535E+03  0.11237090556E+04  0.61300000000E+03 0.  1.
         11    1    4    4    0    0  0.92480554840E+01  0.87625334272E+02 -0.34708336733E+02  0.94701607038E+02  0.51100000000E-03 0.  1.
    -200002    1    4    4    0    0  0.93465069021E+02  0.30801329071E+03 -0.26010918939E+03  0.41492733917E+03  0.30000000000E+02 0.  1.
    -200000    1    3    3    0    0 -0.25590865186E+03 -0.89830440664E+02 -0.16077647289E+03  0.33107222837E+03  0.10100000000E+03 0. -1.
<mgrwt>
<rscale>  0 0.14428547E+04</rscale>
<asrwt>0</asrwt>
<pdfrwt beam="1">  1        2 0.45095675E-01 0.14428547E+04</pdfrwt>
<pdfrwt beam="2">  1       -2 0.23553436E+00 0.14428547E+04</pdfrwt>
<totfact> 0.86504629E+00</totfact>
</mgrwt>
</event>
<event>
 8    2  0.7266322E-052  0.1367494E+04  0.7818608E-02  0.8977690E-01
         -2   -1    0    0    0  501 -0.00000000000E+00  0.00000000000E+00  0.37102937951E+03  0.37102937952E+03  0.25500000000E-02 0. -1.
          2   -1    0    0  501    0  0.00000000000E+00 -0.00000000000E+00 -0.12600339881E+04  0.12600339881E+04  0.25500000000E-02 0.  1.
    -200001    2    1    2    0    0 -0.14929514494E+03  0.20446715478E+03 -0.64357956280E+03  0.92388707365E+03  0.61259841129E+03 0.  0.
   -5000001    2    3    3    0    0  0.37903137045E+02  0.81708861873E+02 -0.66747209969E+03  0.67713892558E+03  0.69893739069E+02 0.  0.
     200001    1    1    2    0    0  0.14929514494E+03 -0.20446715478E+03 -0.24542504583E+03  0.70717629401E+03  0.61300000000E+03 0. -1.
         11    1    4    4    0    0  0.30402314903E+02  0.73658384759E+02 -0.40820201176E+03  0.41590713002E+03  0.51100000000E-03 0.  1.
    -200002    1    4    4    0    0  0.75008221421E+01  0.80504771145E+01 -0.25927008794E+03  0.26123179556E+03  0.30000000000E+02 0.  1.
    -200000    1    3    3    0    0 -0.18719828198E+03  0.12275829291E+03  0.23892536896E+02  0.24674814807E+03  0.10100000000E+03 0. -1.
<mgrwt>
<rscale>  0 0.13674935E+04</rscale>
<asrwt>0</asrwt>
<pdfrwt beam="1">  1        2 0.18000485E+00 0.13674935E+04</pdfrwt>
<pdfrwt beam="2">  1       -2 0.53004198E-01 0.13674935E+04</pdfrwt>
<totfact> 0.64767328E+01</totfact>
</mgrwt>
</event>
<event>
 8    2  0.7266322E-052  0.1358357E+04  0.7818608E-02  0.8984526E-01
          2   -1    0    0  501    0  0.00000000000E+00  0.00000000000E+00  0.11315166646E+04  0.11315166646E+04  0.25500000000E-02 0.  1.
         -2   -1    0    0    0  501 -0.00000000000E+00 -0.00000000000E+00 -0.40766843826E+03  0.40766843827E+03  0.25500000000E-02 0. -1.
    -200001    2    1    2    0    0  0.16885415367E+03  0.88577417830E+02  0.10605429181E+03  0.64823278670E+03  0.61041014799E+03 0.  0.
   -5000001    2    3    3    0    0  0.19583054670E+03 -0.22616518462E+03  0.49147055419E+02  0.31173603317E+03  0.72550861903E+02 0.  0.
     200001    1    1    2    0    0 -0.16885415367E+03 -0.88577417830E+02  0.61779393452E+03  0.89095231617E+03  0.61300000000E+03 0.  1.
         11    1    4    4    0    0 -0.39734976139E+01  0.50467937327E+00  0.19109421445E+01  0.44379144537E+01  0.51100000000E-03 0.  1.
    -200002    1    4    4    0    0  0.19980404432E+03 -0.22666986400E+03  0.47236113274E+02  0.30729811872E+03  0.30000000000E+02 0.  1.
    -200000    1    3    3    0    0 -0.26976393032E+02  0.31474260245E+03  0.56907236395E+02  0.33649675353E+03  0.10100000000E+03 0. -1.
<mgrwt>
<rscale>  0 0.13583573E+04</rscale>
<asrwt>0</asrwt>
<pdfrwt beam="1">  1        2 0.16164524E+00 0.13583573E+04</pdfrwt>
<pdfrwt beam="2">  1       -2 0.58238347E-01 0.13583573E+04</pdfrwt>
<totfact> 0.63094686E+01</totfact>
</mgrwt>
</event>
<event>
 8    2  0.7266322E-052  0.1295739E+04  0.7818608E-02  0.9032951E-01
          2   -1    0    0  501    0  0.00000000000E+00  0.00000000000E+00  0.50726812382E+03  0.50726812382E+03  0.25500000000E-02 0.  1.
         -2   -1    0    0    0  501 -0.00000000000E+00 -0.00000000000E+00 -0.82744152372E+03  0.82744152373E+03  0.25500000000E-02 0. -1.
    -200001    2    1    2    0    0 -0.11728350487E+03 -0.17160241426E+03 -0.12086194471E+03  0.65743801426E+03  0.61189404623E+03 0.  0.
   -5000001    2    3    3    0    0 -0.33064923889E+03  0.53451539673E+01 -0.90820830318E+02  0.36089316620E+03  0.11241870101E+03 0.  0.
     200001    1    1    2    0    0  0.11728350487E+03  0.17160241426E+03 -0.19931145519E+03  0.67727163330E+03  0.61300000000E+03 0. -1.
         11    1    4    4    0    0  0.13811780302E+01 -0.88400104213E+01  0.89066074892E+01  0.12624622538E+02  0.51100000000E-03 0.  1.
    -200002    1    4    4    0    0 -0.33203041692E+03  0.14185164389E+02 -0.99727437807E+02  0.34826854366E+03  0.30000000000E+02 0.  1.
    -200000    1    3    3    0    0  0.21336573402E+03 -0.17694756823E+03 -0.30041114396E+02  0.29654484806E+03  0.10100000000E+03 0. -1.
<mgrwt>
<rscale>  0 0.12957387E+04</rscale>
<asrwt>0</asrwt>
<pdfrwt beam="1">  1        2 0.72466875E-01 0.12957387E+04</pdfrwt>
<pdfrwt beam="2">  1       -2 0.11820593E+00 0.12957387E+04</pdfrwt>
<totfact> 0.35730711E+01</totfact>
</mgrwt>
</event>
<event>
 8    2  0.7266322E-052  0.1607213E+04  0.7818608E-02  0.8816129E-01
          2   -1    0    0  501    0  0.00000000000E+00  0.00000000000E+00  0.30133627158E+03  0.30133627159E+03  0.25500000000E-02 0.  1.
         -2   -1    0    0    0  501 -0.00000000000E+00 -0.00000000000E+00 -0.21430644200E+04  0.21430644200E+04  0.25500000000E-02 0. -1.
    -200001    2    1    2    0    0 -0.59733834488E+02  0.50591062738E+03 -0.74952613058E+03  0.10922956877E+04  0.60975958788E+03 0.  0.
   -5000001    2    3    3    0    0  0.17274199435E+03  0.47811259843E+03 -0.36561672726E+03  0.63142133238E+03  0.81153276867E+02 0.  0.
     200001    1    1    2    0    0  0.59733834488E+02 -0.50591062738E+03 -0.10922020178E+04  0.13521050039E+04  0.61300000000E+03 0. -1.
         11    1    4    4    0    0  0.11019548781E+03  0.35632175521E+03 -0.24258351171E+03  0.44492134015E+03  0.51100000000E-03 0.  1.
    -200002    1    4    4    0    0  0.62546506545E+02  0.12179084321E+03 -0.12303321555E+03  0.18649999223E+03  0.30000000000E+02 0.  1.
    -200000    1    3    3    0    0 -0.23247582884E+03  0.27798028951E+02 -0.38390940332E+03  0.46087435530E+03  0.10100000000E+03 0. -1.
<mgrwt>
<rscale>  0 0.16072125E+04</rscale>
<asrwt>0</asrwt>
<pdfrwt beam="1">  1        2 0.43048040E-01 0.16072125E+04</pdfrwt>
<pdfrwt beam="2">  1       -2 0.30615205E+00 0.16072125E+04</pdfrwt>
<totfact> 0.33324705E+00</totfact>
</mgrwt>
</event>
<event>
 8    2  0.7266322E-052  0.1418881E+04  0.7818608E-02  0.8940264E-01
         -2   -1    0    0    0  501 -0.00000000000E+00  0.00000000000E+00  0.39229504593E+03  0.39229504594E+03  0.25500000000E-02 0. -1.
          2   -1    0    0  501    0  0.00000000000E+00 -0.00000000000E+00 -0.12829772349E+04  0.12829772349E+04  0.25500000000E-02 0.  1.
    -200001    2    1    2    0    0 -0.26210939079E+03 -0.66504523826E+02 -0.16841738121E+03  0.69010242903E+03  0.61217053492E+03 0.  0.
   -5000001    2    3    3    0    0 -0.23853056380E+03 -0.13849468563E+03  0.12118162559E+03  0.37417976567E+03  0.22191868520E+03 0.  0.
     200001    1    1    2    0    0  0.26210939079E+03  0.66504523826E+02 -0.72226480780E+03  0.98516985186E+03  0.61300000000E+03 0.  1.
         11    1    4    4    0    0 -0.78455201432E+02 -0.13174452309E+03  0.14306811368E+03  0.20971486154E+03  0.51100000000E-03 0.  1.
    -200002    1    4    4    0    0 -0.16007536237E+03 -0.67501625393E+01 -0.21886488089E+02  0.16446490414E+03  0.30000000000E+02 0.  1.
    -200000    1    3    3    0    0 -0.23578826992E+02  0.71990161802E+02 -0.28959900680E+03  0.31592266335E+03  0.10100000000E+03 0. -1.
<mgrwt>
<rscale>  0 0.14188807E+04</rscale>
<asrwt>0</asrwt>
<pdfrwt beam="1">  1        2 0.18328246E+00 0.14188807E+04</pdfrwt>
<pdfrwt beam="2">  1       -2 0.56042150E-01 0.14188807E+04</pdfrwt>
<totfact> 0.55817219E+01</totfact>
</mgrwt>
</event>
<event>
 8    2  0.7266322E-052  0.1321444E+04  0.7818608E-02  0.9012730E-01
         -2   -1    0    0    0  501 -0.00000000000E+00  0.00000000000E+00  0.28581707635E+03  0.28581707637E+03  0.25500000000E-02 0. -1.
          2   -1    0    0  501    0  0.00000000000E+00 -0.00000000000E+00 -0.15273884578E+04  0.15273884578E+04  0.25500000000E-02 0.  1.
    -200001    2    1    2    0    0  0.21863294994E+03  0.13357975111E+02 -0.77575398335E+03  0.10127471338E+04  0.61309355900E+03 0.  0.
   -5000001    2    3    3    0    0 -0.17005563299E+03 -0.42956929443E+01 -0.53864804159E+02  0.18648116361E+03  0.54188891520E+02 0.  0.
     200001    1    1    2    0    0 -0.21863294994E+03 -0.13357975111E+02 -0.46581739808E+03  0.80045840033E+03  0.61300000000E+03 0. -1.
         11    1    4    4    0    0 -0.11099293815E+01  0.44480897162E+01  0.30292302924E+01  0.54948777767E+01  0.51100000000E-03 0.  1.
    -200002    1    4    4    0    0 -0.16894570361E+03 -0.87437826604E+01 -0.56894034452E+02  0.18098628583E+03  0.30000000000E+02 0.  1.
    -200000    1    3    3    0    0  0.38868858294E+03  0.17653668055E+02 -0.72188917919E+03  0.82626597021E+03  0.10100000000E+03 0.  1.
<mgrwt>
<rscale>  0 0.13214442E+04</rscale>
<asrwt>0</asrwt>
<pdfrwt beam="1">  1        2 0.21819835E+00 0.13214442E+04</pdfrwt>
<pdfrwt beam="2">  1       -2 0.40831012E-01 0.13214442E+04</pdfrwt>
<totfact> 0.78591899E+01</totfact>
</mgrwt>
</event>
<event>
 8    2  0.7266322E-052  0.1884248E+04  0.7818608E-02  0.8662737E-01
          2   -1    0    0  501    0  0.00000000000E+00  0.00000000000E+00  0.48101066453E+04  0.48101066453E+04  0.25500000000E-02 0.  1.
         -2   -1    0    0    0  501 -0.00000000000E+00 -0.00000000000E+00 -0.18452761063E+03  0.18452761065E+03  0.25500000000E-02 0. -1.
    -200001    2    1    2    0    0 -0.18326853742E+03  0.16311493697E+03  0.40942988868E+04  0.41471547960E+04  0.61271174986E+03 0.  0.
   -5000001    2    3    3    0    0 -0.12928048888E+03  0.24170899236E+03  0.81931395179E+03  0.86922571513E+03  0.95610200603E+02 0.  0.
     200001    1    1    2    0    0  0.18326853742E+03 -0.16311493697E+03  0.53128014791E+03  0.84747945995E+03  0.61300000000E+03 0. -1.
         11    1    4    4    0    0 -0.72123325516E+02  0.97163050148E+02  0.24151757919E+03  0.27013547241E+03  0.51100000000E-03 0.  1.
    -200002    1    4    4    0    0 -0.57157163368E+02  0.14454594221E+03  0.57779637260E+03  0.59909024272E+03  0.30000000000E+02 0.  1.
    -200000    1    3    3    0    0 -0.53988048533E+02 -0.78594055388E+02  0.32749849350E+04  0.32779290809E+04  0.10100000000E+03 0.  1.
<mgrwt>
<rscale>  0 0.18842478E+04</rscale>
<asrwt>0</asrwt>
<pdfrwt beam="1">  1        2 0.68715807E+00 0.18842478E+04</pdfrwt>
<pdfrwt beam="2">  1       -2 0.26361088E-01 0.18842478E+04</pdfrwt>
<totfact> 0.16553292E+00</totfact>
</mgrwt>
</event>
<event>
 8    2  0.7266322E-052  0.2270678E+04  0.7818608E-02  0.8489573E-01
         -2   -1    0    0    0  501 -0.00000000000E+00  0.00000000000E+00  0.16864300527E+04  0.16864300527E+04  0.25500000000E-02 0. -1.
          2   -1    0    0  501    0  0.00000000000E+00 -0.00000000000E+00 -0.76433333529E+03  0.76433333529E+03  0.25500000000E-02 0.  1.
    -200001    2    1    2    0    0  0.81241741491E+03  0.49410380619E+03  0.56682699388E+03  0.12649530306E+04  0.61208880178E+03 0.  0.
   -5000001    2    3    3    0    0  0.78714031401E+03  0.21901258900E+03  0.50731694152E+03  0.96485878550E+03  0.77624794400E+02 0.  0.
     200001    1    1    2    0    0 -0.81241741491E+03 -0.49410380619E+03  0.35526972356E+03  0.11858103574E+04  0.61300000000E+03 0.  1.
         11    1    4    4    0    0  0.25907010736E+03  0.58250387569E+02  0.19943882282E+03  0.33209377023E+03  0.51100000000E-03 0.  1.
    -200002    1    4    4    0    0  0.52807020665E+03  0.16076220143E+03  0.30787811870E+03  0.63276501526E+03  0.30000000000E+02 0.  1.
    -200000    1    3    3    0    0  0.25277100891E+02  0.27509121719E+03  0.59510052361E+02  0.30009424509E+03  0.10100000000E+03 0.  1.
<mgrwt>
<rscale>  0 0.22706781E+04</rscale>
<asrwt>0</asrwt>
<pdfrwt beam="1">  1        2 0.10919048E+00 0.22706781E+04</pdfrwt>
<pdfrwt beam="2">  1       -2 0.24091858E+00 0.22706781E+04</pdfrwt>
<totfact> 0.26887647E+00</totfact>
</mgrwt>
</event>
<event>
 8    2  0.7266322E-052  0.1823649E+04  0.7818608E-02  0.8693824E-01
         -2   -1    0    0    0  501 -0.00000000000E+00  0.00000000000E+00  0.53614493605E+03  0.53614493606E+03  0.25500000000E-02 0. -1.
          2   -1    0    0  501    0  0.00000000000E+00 -0.00000000000E+00 -0.15507439578E+04  0.15507439578E+04  0.25500000000E-02 0.  1.
    -200001    2    1    2    0    0  0.12982086979E+01  0.21278269695E+03 -0.12403861469E+04  0.13998466919E+04  0.61297210871E+03 0.  0.
   -5000001    2    3    3    0    0  0.11029785199E+03  0.17066399509E+02 -0.32714309211E+02  0.16742709665E+03  0.12043557830E+03 0.  0.
     200001    1    1    2    0    0 -0.12982086979E+01 -0.21278269695E+03  0.22578712508E+03  0.68704220199E+03  0.61300000000E+03 0. -1.
         11    1    4    4    0    0  0.99328573393E+02 -0.27331449950E+02  0.12815725811E+01  0.10302822952E+03  0.51100000000E-03 0.  1.
    -200002    1    4    4    0    0  0.10969278597E+02  0.44397849459E+02 -0.33995881792E+02  0.64398867136E+02  0.30000000000E+02 0.  1.
    -200000    1    3    3    0    0 -0.10899964329E+03  0.19571629744E+03 -0.12076718377E+04  0.12324195953E+04  0.10100000000E+03 0.  1.
<mgrwt>
<rscale>  0 0.18236486E+04</rscale>
<asrwt>0</asrwt>
<pdfrwt beam="1">  1        2 0.22153485E+00 0.18236486E+04</pdfrwt>
<pdfrwt beam="2">  1       -2 0.76592135E-01 0.18236486E+04</pdfrwt>
<totfact> 0.19790429E+01</totfact>
</mgrwt>
</event>
<event>
 8    2  0.7266322E-052  0.3702940E+04  0.7818608E-02  0.8067311E-01
         -2   -1    0    0    0  501 -0.00000000000E+00  0.00000000000E+00  0.17307250549E+04  0.17307250549E+04  0.25500000000E-02 0. -1.
          2   -1    0    0  501    0  0.00000000000E+00 -0.00000000000E+00 -0.19806390689E+04  0.19806390689E+04  0.25500000000E-02 0.  1.
    -200001    2    1    2    0    0  0.86494341100E+03  0.12482298136E+04  0.74062772102E+03  0.17974292502E+04  0.61320283494E+03 0.  0.
   -5000001    2    3    3    0    0  0.67595075032E+03  0.84751069900E+03  0.22403350924E+03  0.11094142691E+04  0.73655994610E+02 0.  0.
     200001    1    1    2    0    0 -0.86494341100E+03 -0.12482298136E+04 -0.99054173501E+03  0.19139348736E+04  0.61300000000E+03 0.  1.
         11    1    4    4    0    0  0.53267514407E+03  0.65481817878E+03  0.16069899785E+03  0.85927517379E+03  0.51100000000E-03 0.  1.
    -200002    1    4    4    0    0  0.14327560625E+03  0.19269252022E+03  0.63334511387E+02  0.25013909536E+03  0.30000000000E+02 0. -1.
    -200000    1    3    3    0    0  0.18899266068E+03  0.40071911456E+03  0.51659421178E+03  0.68801498109E+03  0.10100000000E+03 0.  1.
<mgrwt>
<rscale>  0 0.37029403E+04</rscale>
<asrwt>0</asrwt>
<pdfrwt beam="1">  1        2 0.28294844E+00 0.37029403E+04</pdfrwt>
<pdfrwt beam="2">  1       -2 0.24724644E+00 0.37029403E+04</pdfrwt>
<totfact> 0.44796218E-01</totfact>
</mgrwt>
</event>
<event>
 8    2  0.7266322E-052  0.1286730E+04  0.7818608E-02  0.9040155E-01
          2   -1    0    0  501    0  0.00000000000E+00  0.00000000000E+00  0.15601179506E+04  0.15601179506E+04  0.25500000000E-02 0.  1.
         -2   -1    0    0    0  501 -0.00000000000E+00 -0.00000000000E+00 -0.26531253049E+03  0.26531253050E+03  0.25500000000E-02 0. -1.
    -200001    2    1    2    0    0  0.65265470373E+02  0.49273991947E+02  0.89874697513E+03  0.10910472026E+04  0.61314791453E+03 0.  0.
   -5000001    2    3    3    0    0 -0.21936008056E+03  0.10713889912E+03  0.19957047385E+03  0.32723516311E+03  0.87503653059E+02 0.  0.
     200001    1    1    2    0    0 -0.65265470373E+02 -0.49273991947E+02  0.39605844499E+03  0.73438327851E+03  0.61300000000E+03 0. -1.
         11    1    4    4    0    0 -0.73248542428E+02  0.45135283532E+01  0.87918515735E+02  0.11452242713E+03  0.51100000000E-03 0.  1.
    -200002    1    4    4    0    0 -0.14611153813E+03  0.10262537077E+03  0.11165195811E+03  0.21271273598E+03  0.30000000000E+02 0.  1.
    -200000    1    3    3    0    0  0.28462555093E+03 -0.57864907173E+02  0.69917650129E+03  0.76381203949E+03  0.10100000000E+03 0.  1.
<mgrwt>
<rscale>  0 0.12867305E+04</rscale>
<asrwt>0</asrwt>
<pdfrwt beam="1">  1        2 0.22287399E+00 0.12867305E+04</pdfrwt>
<pdfrwt beam="2">  1       -2 0.37901790E-01 0.12867305E+04</pdfrwt>
<totfact> 0.87527666E+01</totfact>
</mgrwt>
</event>
<event>
 8    2  0.7266322E-052  0.1483945E+04  0.7818608E-02  0.8895200E-01
         -2   -1    0    0    0  501 -0.00000000000E+00  0.00000000000E+00  0.88780334915E+03  0.88780334915E+03  0.25500000000E-02 0. -1.
          2   -1    0    0  501    0  0.00000000000E+00 -0.00000000000E+00 -0.62009566207E+03  0.62009566207E+03  0.25500000000E-02 0.  1.
    -200001    2    1    2    0    0  0.12488640208E+02  0.39540220531E+03 -0.37544289460E+01  0.72946497386E+03  0.61286718157E+03 0.  0.
   -5000001    2    3    3    0    0  0.12725293345E+03  0.51037968891E+03 -0.25224396423E+02  0.53697439164E+03  0.10499757700E+03 0.  0.
     200001    1    1    2    0    0 -0.12488640208E+02 -0.39540220531E+03  0.27146211603E+03  0.77843403737E+03  0.61300000000E+03 0. -1.
         11    1    4    4    0    0  0.65793958991E+02  0.11425105307E+03  0.16305781939E+02  0.13284587571E+03  0.51100000000E-03 0.  1.
    -200002    1    4    4    0    0  0.61458974463E+02  0.39612863584E+03 -0.41530178362E+02  0.40412851593E+03  0.30000000000E+02 0.  1.
    -200000    1    3    3    0    0 -0.11476429325E+03 -0.11497748360E+03  0.21469967477E+02  0.19249058222E+03  0.10100000000E+03 0.  1.
<mgrwt>
<rscale>  0 0.14839448E+04</rscale>
<asrwt>0</asrwt>
<pdfrwt beam="1">  1        2 0.88585096E-01 0.14839448E+04</pdfrwt>
<pdfrwt beam="2">  1       -2 0.12682905E+00 0.14839448E+04</pdfrwt>
<totfact> 0.23368216E+01</totfact>
</mgrwt>
</event>
<event>
 8    2  0.7266322E-052  0.1512638E+04  0.7818608E-02  0.8876092E-01
         -2   -1    0    0    0  501 -0.00000000000E+00  0.00000000000E+00  0.67288301319E+03  0.67288301319E+03  0.25500000000E-02 0. -1.
          2   -1    0    0  501    0  0.00000000000E+00 -0.00000000000E+00 -0.85010112110E+03  0.85010112110E+03  0.25500000000E-02 0.  1.
    -200001    2    1    2    0    0 -0.82162875038E+02  0.40216335718E+03 -0.25895282403E+03  0.78073372661E+03  0.61155742404E+03 0.  0.
   -5000001    2    3    3    0    0 -0.17239013917E+02  0.24214130449E+02 -0.65365298765E+02  0.33944260312E+03  0.33176068305E+03 0.  0.
     200001    1    1    2    0    0  0.82162875038E+02 -0.40216335718E+03  0.81734716114E+02  0.74225040769E+03  0.61300000000E+03 0. -1.
         11    1    4    4    0    0 -0.17277015671E+03  0.44026787328E+01 -0.44409746489E+02  0.17844084794E+03  0.51100000000E-03 0.  1.
    -200002    1    4    4    0    0  0.15553114280E+03  0.19811451717E+02 -0.20955552275E+02  0.16100175518E+03  0.30000000000E+02 0.  1.
    -200000    1    3    3    0    0 -0.64923861121E+02  0.37794922674E+03 -0.19358752526E+03  0.44129112349E+03  0.10100000000E+03 0.  1.
<mgrwt>
<rscale>  0 0.15126382E+04</rscale>
<asrwt>0</asrwt>
<pdfrwt beam="1">  1        2 0.12144302E+00 0.15126382E+04</pdfrwt>
<pdfrwt beam="2">  1       -2 0.96126145E-01 0.15126382E+04</pdfrwt>
<totfact> 0.30789948E+01</totfact>
</mgrwt>
</event>
<event>
 8    2  0.7266322E-052  0.1548881E+04  0.7818608E-02  0.8852583E-01
         -2   -1    0    0    0  501 -0.00000000000E+00  0.00000000000E+00  0.83024743116E+03  0.83024743117E+03  0.25500000000E-02 0. -1.
          2   -1    0    0  501    0  0.00000000000E+00 -0.00000000000E+00 -0.72238446496E+03  0.72238446496E+03  0.25500000000E-02 0.  1.
    -200001    2    1    2    0    0 -0.63753925119E+02 -0.46973998984E+03  0.52204412353E+02  0.77572321704E+03  0.61180142838E+03 0.  0.
   -5000001    2    3    3    0    0 -0.69481063310E+02  0.16082342313E+02 -0.18742802486E+03  0.22465076855E+03  0.10125435009E+03 0.  0.
     200001    1    1    2    0    0  0.63753925119E+02  0.46973998984E+03  0.55658553851E+02  0.77690867908E+03  0.61300000000E+03 0.  1.
         11    1    4    4    0    0  0.13350843729E+02  0.31612874835E+02 -0.48462958588E+02  0.59382465754E+02  0.51100000000E-03 0.  1.
    -200002    1    4    4    0    0 -0.82831907039E+02 -0.15530532522E+02 -0.13896506627E+03  0.16526830279E+03  0.30000000000E+02 0.  1.
    -200000    1    3    3    0    0  0.57271381909E+01 -0.48582233215E+03  0.23963243721E+03  0.55107244850E+03  0.10100000000E+03 0. -1.
<mgrwt>
<rscale>  0 0.15488807E+04</rscale>
<asrwt>0</asrwt>
<pdfrwt beam="1">  1        2 0.10319778E+00 0.15488807E+04</pdfrwt>
<pdfrwt beam="2">  1       -2 0.11860678E+00 0.15488807E+04</pdfrwt>
<totfact> 0.22822864E+01</totfact>
</mgrwt>
</event>
<event>
 8    2  0.7266322E-052  0.1465527E+04  0.7818608E-02  0.8907707E-01
         -2   -1    0    0    0  501 -0.00000000000E+00  0.00000000000E+00  0.28478493925E+03  0.28478493927E+03  0.25500000000E-02 0. -1.
          2   -1    0    0  501    0  0.00000000000E+00 -0.00000000000E+00 -0.18854300168E+04  0.18854300168E+04  0.25500000000E-02 0.  1.
    -200001    2    1    2    0    0 -0.19709131789E+02  0.40073645042E+03 -0.77745672124E+03  0.10682230221E+04  0.61293010938E+03 0.  0.
   -5000001    2    3    3    0    0  0.26039745851E+03  0.19043311221E+03 -0.53479153447E+03  0.63030226574E+03  0.84896137890E+02 0.  0.
     200001    1    1    2    0    0  0.19709131789E+02 -0.40073645042E+03 -0.82318835631E+03  0.11019919340E+04  0.61300000000E+03 0.  1.
         11    1    4    4    0    0  0.13958700348E+02  0.13125406166E+02 -0.82807616048E+02  0.84995428573E+02  0.51100000000E-03 0.  1.
    -200002    1    4    4    0    0  0.24643875816E+03  0.17730770604E+03 -0.45198391842E+03  0.54530683716E+03  0.30000000000E+02 0.  1.
    -200000    1    3    3    0    0 -0.28010659030E+03  0.21030333821E+03 -0.24266518677E+03  0.43792075637E+03  0.10100000000E+03 0. -1.
<mgrwt>
<rscale>  0 0.14655266E+04</rscale>
<asrwt>0</asrwt>
<pdfrwt beam="1">  1        2 0.26934714E+00 0.14655266E+04</pdfrwt>
<pdfrwt beam="2">  1       -2 0.40683564E-01 0.14655266E+04</pdfrwt>
<totfact> 0.50998351E+01</totfact>
</mgrwt>
</event>
<event>
 8    2  0.7266322E-052  0.1628768E+04  0.7818608E-02  0.8803067E-01
         -2   -1    0    0    0  501 -0.00000000000E+00  0.00000000000E+00  0.70377160613E+03  0.70377160614E+03  0.25500000000E-02 0.  1.
          2   -1    0    0  501    0  0.00000000000E+00 -0.00000000000E+00 -0.94238199375E+03  0.94238199376E+03  0.25500000000E-02 0. -1.
    -200001    2    1    2    0    0  0.25082234891E+02 -0.38709986444E+03 -0.49345226006E+03  0.87726556936E+03  0.61288198102E+03 0.  0.
   -5000001    2    3    3    0    0 -0.11091964737E+03 -0.36222889204E+03 -0.56752572576E+03  0.69071006671E+03  0.10715413409E+03 0.  0.
     200001    1    1    2    0    0 -0.25082234891E+02  0.38709986444E+03  0.25484187244E+03  0.76888803054E+03  0.61300000000E+03 0.  1.
         11    1    4    4    0    0 -0.29999357086E+02 -0.23841822717E+03 -0.31012606296E+03  0.39232816290E+03  0.51100000000E-03 0.  1.
    -200002    1    4    4    0    0 -0.80920290283E+02 -0.12381066487E+03 -0.25739966280E+03  0.29838190381E+03  0.30000000000E+02 0.  1.
    -200000    1    3    3    0    0  0.13600188226E+03 -0.24870972399E+02  0.74073465701E+02  0.18655550264E+03  0.10100000000E+03 0.  1.
<mgrwt>
<rscale>  0 0.16287685E+04</rscale>
<asrwt>0</asrwt>
<pdfrwt beam="1">  1        2 0.13462600E+00 0.16287685E+04</pdfrwt>
<pdfrwt beam="2">  1       -2 0.10053880E+00 0.16287685E+04</pdfrwt>
<totfact> 0.23884657E+01</totfact>
</mgrwt>
</event>
<event>
 8    2  0.7266322E-052  0.1276127E+04  0.7818608E-02  0.9048714E-01
         -2   -1    0    0    0  501 -0.00000000000E+00  0.00000000000E+00  0.34778946471E+03  0.34778946472E+03  0.25500000000E-02 0. -1.
          2   -1    0    0  501    0  0.00000000000E+00 -0.00000000000E+00 -0.11706069275E+04  0.11706069275E+04  0.25500000000E-02 0.  1.
    -200001    2    1    2    0    0 -0.17185802779E+03  0.27353536827E+02 -0.37496482405E+03  0.73953543947E+03  0.61321337988E+03 0.  0.
   -5000001    2    3    3    0    0 -0.24483164128E+03  0.15337671367E+03 -0.24614211404E+03  0.52043893110E+03  0.35609520052E+03 0.  0.
     200001    1    1    2    0    0  0.17185802779E+03 -0.27353536827E+02 -0.44785263873E+03  0.77886095274E+03  0.61300000000E+03 0.  1.
         11    1    4    4    0    0 -0.14757464561E+03 -0.95282598860E+02 -0.35939993658E+02  0.17930067712E+03  0.51100000000E-03 0.  1.
    -200002    1    4    4    0    0 -0.97256995672E+02  0.24865931253E+03 -0.21020212038E+03  0.34113825398E+03  0.30000000000E+02 0.  1.
    -200000    1    3    3    0    0  0.72973613492E+02 -0.12602317684E+03 -0.12882271001E+03  0.21909650837E+03  0.10100000000E+03 0.  1.
<mgrwt>
<rscale>  0 0.12761266E+04</rscale>
<asrwt>0</asrwt>
<pdfrwt beam="1">  1        2 0.16722956E+00 0.12761266E+04</pdfrwt>
<pdfrwt beam="2">  1       -2 0.49684210E-01 0.12761266E+04</pdfrwt>
<totfact> 0.83642218E+01</totfact>
</mgrwt>
</event>
<event>
 8    2  0.7266322E-052  0.1967244E+04  0.7818608E-02  0.8622090E-01
          2   -1    0    0  501    0  0.00000000000E+00  0.00000000000E+00  0.13428048041E+04  0.13428048041E+04  0.25500000000E-02 0.  1.
         -2   -1    0    0    0  501 -0.00000000000E+00 -0.00000000000E+00 -0.72051559352E+03  0.72051559352E+03  0.25500000000E-02 0. -1.
    -200001    2    1    2    0    0 -0.28088161928E+03  0.51058633377E+03  0.83752039964E+03  0.11905739551E+04  0.61354138765E+03 0.  0.
   -5000001    2    3    3    0    0 -0.10590528576E+03  0.25605973066E+03 -0.42268554279E+01  0.28827691395E+03  0.79392679694E+02 0.  0.
     200001    1    1    2    0    0  0.28088161928E+03 -0.51058633377E+03 -0.21523118905E+03  0.87274644257E+03  0.61300000000E+03 0. -1.
         11    1    4    4    0    0 -0.48959441936E+01  0.38321753187E+02 -0.24155596739E+02  0.45563361277E+02  0.51100000000E-03 0.  1.
    -200002    1    4    4    0    0 -0.10100934157E+03  0.21773797748E+03  0.19928741311E+02  0.24271355267E+03  0.30000000000E+02 0.  1.
    -200000    1    3    3    0    0 -0.17497633352E+03  0.25452660311E+03  0.84174725506E+03  0.90229704111E+03  0.10100000000E+03 0.  1.
<mgrwt>
<rscale>  0 0.19672436E+04</rscale>
<asrwt>0</asrwt>
<pdfrwt beam="1">  1        2 0.19182926E+00 0.19672436E+04</pdfrwt>
<pdfrwt beam="2">  1       -2 0.10293080E+00 0.19672436E+04</pdfrwt>
<totfact> 0.12820600E+01</totfact>
</mgrwt>
</event>
<event>
 8    2  0.7266322E-052  0.1468204E+04  0.7818608E-02  0.8905877E-01
          2   -1    0    0  501    0  0.00000000000E+00  0.00000000000E+00  0.16944869653E+04  0.16944869653E+04  0.25500000000E-02 0.  1.
         -2   -1    0    0    0  501 -0.00000000000E+00 -0.00000000000E+00 -0.31803470670E+03  0.31803470671E+03  0.25500000000E-02 0. -1.
    -200001    2    1    2    0    0 -0.26966785056E+01  0.39955522844E+03  0.75397752826E+03  0.10518471993E+04  0.61501932068E+03 0.  0.
   -5000001    2    3    3    0    0 -0.11379585157E+03  0.35583000112E+03  0.78424907487E+03  0.89256038783E+03  0.20506815685E+03 0.  0.
     200001    1    1    2    0    0  0.26966785056E+01 -0.39955522844E+03  0.62247473030E+03  0.96067447271E+03  0.61300000000E+03 0. -1.
         11    1    4    4    0    0  0.13535729218E+02  0.14392666598E+03  0.13744758629E+03  0.19947415904E+03  0.51100000000E-03 0.  1.
    -200002    1    4    4    0    0 -0.12733158079E+03  0.21190333514E+03  0.64680148859E+03  0.69308622880E+03  0.30000000000E+02 0.  1.
    -200000    1    3    3    0    0  0.11109917306E+03  0.43725227325E+02 -0.30271546617E+02  0.15928681143E+03  0.10100000000E+03 0. -1.
<mgrwt>
<rscale>  0 0.14682039E+04</rscale>
<asrwt>0</asrwt>
<pdfrwt beam="1">  1        2 0.24206956E+00 0.14682039E+04</pdfrwt>
<pdfrwt beam="2">  1       -2 0.45433531E-01 0.14682039E+04</pdfrwt>
<totfact> 0.51426725E+01</totfact>
</mgrwt>
</event>
<event>
 8    2  0.7266322E-052  0.1925212E+04  0.7818608E-02  0.8642408E-01
         -2   -1    0    0    0  501 -0.00000000000E+00  0.00000000000E+00  0.66075724846E+03  0.66075724846E+03  0.25500000000E-02 0. -1.
          2   -1    0    0  501    0  0.00000000000E+00 -0.00000000000E+00 -0.14023453512E+04  0.14023453513E+04  0.25500000000E-02 0.  1.
    -200001    2    1    2    0    0  0.58299800449E+03  0.22632904264E+02 -0.86228737594E+03  0.12082714842E+04  0.61317333530E+03 0.  0.
   -5000001    2    3    3    0    0  0.55791285530E+01  0.21161686691E+03 -0.29750043789E+03  0.37262037166E+03  0.74341144688E+02 0.  0.
     200001    1    1    2    0    0 -0.58299800449E+03 -0.22632904264E+02  0.12069927315E+03  0.85483111556E+03  0.61300000000E+03 0. -1.
         11    1    4    4    0    0  0.13648704089E+02  0.12194169205E+03 -0.21165651550E+03  0.24465188317E+03  0.51100000000E-03 0.  1.
    -200002    1    4    4    0    0 -0.80695755357E+01  0.89675174853E+02 -0.85843922388E+02  0.12796848849E+03  0.30000000000E+02 0.  1.
    -200000    1    3    3    0    0  0.57741887594E+03 -0.18898396264E+03 -0.56478693805E+03  0.83565111249E+03  0.10100000000E+03 0.  1.
<mgrwt>
<rscale>  0 0.19252115E+04</rscale>
<asrwt>0</asrwt>
<pdfrwt beam="1">  1        2 0.20033505E+00 0.19252115E+04</pdfrwt>
<pdfrwt beam="2">  1       -2 0.94393893E-01 0.19252115E+04</pdfrwt>
<totfact> 0.14643190E+01</totfact>
</mgrwt>
</event>
<event>
 8    2  0.7266322E-052  0.1746945E+04  0.7818608E-02  0.8735034E-01
          2   -1    0    0  501    0  0.00000000000E+00  0.00000000000E+00  0.43369314898E+04  0.43369314898E+04  0.25500000000E-02 0.  1.
         -2   -1    0    0    0  501 -0.00000000000E+00 -0.00000000000E+00 -0.17592028145E+03  0.17592028147E+03  0.25500000000E-02 0. -1.
    -200001    2    1    2    0    0 -0.28916900993E+03 -0.53543285031E+03  0.24169865561E+04  0.25666508461E+04  0.61283399045E+03 0.  0.
   -5000001    2    3    3    0    0  0.61749148092E+02 -0.17756167554E+03  0.17464920017E+03  0.26676103369E+03  0.72924619071E+02 0.  0.
     200001    1    1    2    0    0  0.28916900993E+03  0.53543285031E+03  0.17440246522E+04  0.19462009252E+04  0.61300000000E+03 0.  1.
         11    1    4    4    0    0  0.13923428038E+02 -0.37323431380E+02  0.60197664422E+01  0.40288186439E+02  0.51100000000E-03 0.  1.
    -200002    1    4    4    0    0  0.47825720055E+02 -0.14023824416E+03  0.16862943373E+03  0.22647284725E+03  0.30000000000E+02 0. -1.
    -200000    1    3    3    0    0 -0.35091815803E+03 -0.35787117478E+03  0.22423373559E+04  0.22998898124E+04  0.10100000000E+03 0. -1.
<mgrwt>
<rscale>  0 0.17469450E+04</rscale>
<asrwt>0</asrwt>
<pdfrwt beam="1">  1        2 0.61956158E+00 0.17469450E+04</pdfrwt>
<pdfrwt beam="2">  1       -2 0.25131471E-01 0.17469450E+04</pdfrwt>
<totfact> 0.44609589E+00</totfact>
</mgrwt>
</event>
<event>
 8    2  0.7266322E-052  0.1695365E+04  0.7818608E-02  0.8764012E-01
         -2   -1    0    0    0  501 -0.00000000000E+00  0.00000000000E+00  0.19179122058E+03  0.19179122060E+03  0.25500000000E-02 0.  1.
          2   -1    0    0  501    0  0.00000000000E+00 -0.00000000000E+00 -0.37466049885E+04  0.37466049885E+04  0.25500000000E-02 0. -1.
    -200001    2    1    2    0    0 -0.16527967390E+03 -0.48819126726E+03 -0.24215167214E+04  0.25506717121E+04  0.61362436935E+03 0.  0.
   -5000001    2    3    3    0    0  0.21912595092E+03 -0.21041731674E+03 -0.82326151466E+03  0.88047808321E+03  0.72045152145E+02 0.  0.
     200001    1    1    2    0    0  0.16527967390E+03  0.48819126726E+03 -0.11332970465E+04  0.13877244970E+04  0.61300000000E+03 0.  1.
         11    1    4    4    0    0  0.59538773034E+02 -0.75811258684E+02 -0.19069828315E+03  0.21367743829E+03  0.51100000000E-03 0.  1.
    -200002    1    4    4    0    0  0.15958717788E+03 -0.13460605805E+03 -0.63256323150E+03  0.66680064492E+03  0.30000000000E+02 0.  1.
    -200000    1    3    3    0    0 -0.38440562482E+03 -0.27777395053E+03 -0.15982552068E+04  0.16701936289E+04  0.10100000000E+03 0.  1.
<mgrwt>
<rscale>  0 0.16953654E+04</rscale>
<asrwt>0</asrwt>
<pdfrwt beam="1">  1        2 0.53522924E+00 0.16953654E+04</pdfrwt>
<pdfrwt beam="2">  1       -2 0.27398748E-01 0.16953654E+04</pdfrwt>
<totfact> 0.98244210E+00</totfact>
</mgrwt>
</event>
<event>
 8    2  0.7266322E-052  0.1495262E+04  0.7818608E-02  0.8887610E-01
         -2   -1    0    0    0  501 -0.00000000000E+00  0.00000000000E+00  0.66846447875E+03  0.66846447875E+03  0.25500000000E-02 0. -1.
          2   -1    0    0  501    0  0.00000000000E+00 -0.00000000000E+00 -0.83617278183E+03  0.83617278183E+03  0.25500000000E-02 0.  1.
    -200001    2    1    2    0    0 -0.29801987247E+03  0.29021810825E+03 -0.18721554175E+03  0.76356241477E+03  0.61231977546E+03 0.  0.
   -5000001    2    3    3    0    0 -0.41210197680E+03  0.53248416631E+02 -0.22095044845E+03  0.47982238374E+03  0.93525323358E+02 0.  0.
     200001    1    1    2    0    0  0.29801987247E+03 -0.29021810825E+03  0.19507238670E+02  0.74107484582E+03  0.61300000000E+03 0.  1.
         11    1    4    4    0    0 -0.23228701076E+02 -0.40555130704E+01  0.68066731897E+01  0.24542830727E+02  0.51100000000E-03 0.  1.
    -200002    1    4    4    0    0 -0.38887327573E+03  0.57303929701E+02 -0.22775712164E+03  0.45527955301E+03  0.30000000000E+02 0.  1.
    -200000    1    3    3    0    0  0.11408210433E+03  0.23696969162E+03  0.33734906708E+02  0.28374003102E+03  0.10100000000E+03 0. -1.
<mgrwt>
<rscale>  0 0.14952616E+04</rscale>
<asrwt>0</asrwt>
<pdfrwt beam="1">  1        2 0.11945325E+00 0.14952616E+04</pdfrwt>
<pdfrwt beam="2">  1       -2 0.95494926E-01 0.14952616E+04</pdfrwt>
<totfact> 0.31998934E+01</totfact>
</mgrwt>
</event>
<event>
 8    2  0.7266322E-052  0.1576676E+04  0.7818608E-02  0.8835006E-01
          2   -1    0    0  501    0  0.00000000000E+00  0.00000000000E+00  0.61336889644E+03  0.61336889645E+03  0.25500000000E-02 0.  1.
         -2   -1    0    0    0  501 -0.00000000000E+00 -0.00000000000E+00 -0.10132187926E+04  0.10132187926E+04  0.25500000000E-02 0. -1.
    -200001    2    1    2    0    0 -0.25854066300E+03  0.29069599466E+03  0.11693461843E+03  0.73541841767E+03  0.61304087003E+03 0.  0.
   -5000001    2    3    3    0    0 -0.32585849579E+03  0.42329769539E+03  0.12412980299E+03  0.55550823917E+03  0.88410958559E+02 0.  0.
     200001    1    1    2    0    0  0.25854066300E+03 -0.29069599466E+03 -0.51678451461E+03  0.89116927139E+03  0.61300000000E+03 0. -1.
         11    1    4    4    0    0 -0.23942755804E+03  0.29800714005E+03  0.57129423957E+02  0.38651983410E+03  0.51100000000E-03 0.  1.
    -200002    1    4    4    0    0 -0.86430937753E+02  0.12529055534E+03  0.67000379032E+02  0.16898840507E+03  0.30000000000E+02 0.  1.
    -200000    1    3    3    0    0  0.67317832792E+02 -0.13260170073E+03 -0.71951845554E+01  0.17991017850E+03  0.10100000000E+03 0. -1.
<mgrwt>
<rscale>  0 0.15766761E+04</rscale>
<asrwt>0</asrwt>
<pdfrwt beam="1">  1        2 0.87624128E-01 0.15766761E+04</pdfrwt>
<pdfrwt beam="2">  1       -2 0.14474554E+00 0.15766761E+04</pdfrwt>
<totfact> 0.16743027E+01</totfact>
</mgrwt>
</event>
<event>
 8    2  0.7266322E-052  0.1265648E+04  0.7818608E-02  0.9057259E-01
         -2   -1    0    0    0  501 -0.00000000000E+00  0.00000000000E+00  0.40883166780E+03  0.40883166781E+03  0.25500000000E-02 0. -1.
          2   -1    0    0  501    0  0.00000000000E+00 -0.00000000000E+00 -0.97953855886E+03  0.97953855886E+03  0.25500000000E-02 0.  1.
    -200001    2    1    2    0    0 -0.10329005345E+03  0.11074426571E+03 -0.25436268399E+03  0.68212962682E+03  0.61454643864E+03 0.  0.
   -5000001    2    3    3    0    0  0.10974173015E+03  0.26797845368E+03 -0.29909336618E+02  0.32062522043E+03  0.13435127310E+03 0.  0.
     200001    1    1    2    0    0  0.10329005345E+03 -0.11074426571E+03 -0.31634420707E+03  0.70624059985E+03  0.61300000000E+03 0.  1.
         11    1    4    4    0    0  0.10408614972E+03  0.95368387387E+02 -0.34314539305E+02  0.14528091232E+03  0.51100000000E-03 0.  1.
    -200002    1    4    4    0    0  0.56555804327E+01  0.17261006630E+03  0.44052026867E+01  0.17534430811E+03  0.30000000000E+02 0.  1.
    -200000    1    3    3    0    0 -0.21303178360E+03 -0.15723418797E+03 -0.22445334737E+03  0.36150440639E+03  0.10100000000E+03 0.  1.
<mgrwt>
<rscale>  0 0.12656483E+04</rscale>
<asrwt>0</asrwt>
<pdfrwt beam="1">  1        2 0.13993408E+00 0.12656483E+04</pdfrwt>
<pdfrwt beam="2">  1       -2 0.58404524E-01 0.12656483E+04</pdfrwt>
<totfact> 0.77961228E+01</totfact>
</mgrwt>
</event>
<event>
 8    2  0.7266322E-052  0.1600579E+04  0.7818608E-02  0.8820192E-01
         -2   -1    0    0    0  501 -0.00000000000E+00  0.00000000000E+00  0.70950826368E+03  0.70950826369E+03  0.25500000000E-02 0. -1.
          2   -1    0    0  501    0  0.00000000000E+00 -0.00000000000E+00 -0.90268670250E+03  0.90268670251E+03  0.25500000000E-02 0.  1.
    -200001    2    1    2    0    0 -0.15409016696E+03  0.46918901506E+02  0.39458660693E+03  0.74779811759E+03  0.61445770517E+03 0.  0.
   -5000001    2    3    3    0    0 -0.19357764931E+03  0.27065152294E+03  0.34460377566E+03  0.49419442957E+03  0.12145706585E+03 0.  0.
     200001    1    1    2    0    0  0.15409016696E+03 -0.46918901506E+02 -0.58776504575E+03  0.86439684860E+03  0.61300000000E+03 0.  1.
         11    1    4    4    0    0 -0.13962587510E+03  0.24191970568E+03  0.23435151510E+03  0.36461097299E+03  0.51100000000E-03 0.  1.
    -200002    1    4    4    0    0 -0.53951774206E+02  0.28731817257E+02  0.11025226055E+03  0.12958345658E+03  0.30000000000E+02 0.  1.
    -200000    1    3    3    0    0  0.39487482352E+02 -0.22373262143E+03  0.49982831273E+02  0.25360368802E+03  0.10100000000E+03 0.  1.
<mgrwt>
<rscale>  0 0.16005795E+04</rscale>
<asrwt>0</asrwt>
<pdfrwt beam="1">  1        2 0.12895524E+00 0.16005795E+04</pdfrwt>
<pdfrwt beam="2">  1       -2 0.10135832E+00 0.16005795E+04</pdfrwt>
<totfact> 0.24903715E+01</totfact>
</mgrwt>
</event>
<event>
 8    2  0.7266322E-052  0.1299636E+04  0.7818608E-02  0.9029854E-01
         -2   -1    0    0    0  501 -0.00000000000E+00  0.00000000000E+00  0.27296622796E+03  0.27296622797E+03  0.25500000000E-02 0. -1.
          2   -1    0    0  501    0  0.00000000000E+00 -0.00000000000E+00 -0.15469439238E+04  0.15469439238E+04  0.25500000000E-02 0.  1.
    -200001    2    1    2    0    0  0.99100543085E+02 -0.13784680786E+03 -0.82664186352E+03  0.10422849162E+04  0.61171759497E+03 0.  0.
   -5000001    2    3    3    0    0  0.10180220841E+03 -0.34198133556E+03 -0.51831802854E+03  0.65895373877E+03  0.19557997756E+03 0.  0.
     200001    1    1    2    0    0 -0.99100543085E+02  0.13784680786E+03 -0.44733583232E+03  0.77762523554E+03  0.61300000000E+03 0. -1.
         11    1    4    4    0    0  0.55247651548E+02 -0.32001324867E+03 -0.33660391851E+03  0.46772104965E+03  0.51100000000E-03 0.  1.
    -200002    1    4    4    0    0  0.46554556866E+02 -0.21968086893E+02 -0.18171411002E+03  0.19123268912E+03  0.30000000000E+02 0.  1.
    -200000    1    3    3    0    0 -0.27016653287E+01  0.20413452770E+03 -0.30832383498E+03  0.38333117746E+03  0.10100000000E+03 0.  1.
<mgrwt>
<rscale>  0 0.12996360E+04</rscale>
<asrwt>0</asrwt>
<pdfrwt beam="1">  1        2 0.22099198E+00 0.12996360E+04</pdfrwt>
<pdfrwt beam="2">  1       -2 0.38995176E-01 0.12996360E+04</pdfrwt>
<totfact> 0.84088220E+01</totfact>
</mgrwt>
</event>
<event>
 8    2  0.7266322E-052  0.1563592E+04  0.7818608E-02  0.8843232E-01
          2   -1    0    0  501    0  0.00000000000E+00  0.00000000000E+00  0.33554372895E+03  0.33554372896E+03  0.25500000000E-02 0.  1.
         -2   -1    0    0    0  501 -0.00000000000E+00 -0.00000000000E+00 -0.18215355736E+04  0.18215355736E+04  0.25500000000E-02 0. -1.
    -200001    2    1    2    0    0 -0.18924469230E+03  0.43803804604E+02 -0.13567098665E+04  0.15011714152E+04  0.61247173738E+03 0.  0.
   -5000001    2    3    3    0    0  0.10340449674E+03 -0.86737331383E+02 -0.39822396866E+03  0.48550377645E+03  0.24272563345E+03 0.  0.
     200001    1    1    2    0    0  0.18924469230E+03 -0.43803804604E+02 -0.12928197818E+03  0.65590788739E+03  0.61300000000E+03 0.  1.
         11    1    4    4    0    0 -0.63922157855E+02 -0.83887293460E+02 -0.12327277405E+03  0.16223223197E+03  0.51100000000E-03 0.  1.
    -200002    1    4    4    0    0  0.16732665460E+03 -0.28500379236E+01 -0.27495119461E+03  0.32327154448E+03  0.30000000000E+02 0.  1.
    -200000    1    3    3    0    0 -0.29264918904E+03  0.13054113599E+03 -0.95848589786E+03  0.10156676388E+04  0.10100000000E+03 0. -1.
<mgrwt>
<rscale>  0 0.15635918E+04</rscale>
<asrwt>0</asrwt>
<pdfrwt beam="1">  1        2 0.47934820E-01 0.15635918E+04</pdfrwt>
<pdfrwt beam="2">  1       -2 0.26021936E+00 0.15635918E+04</pdfrwt>
<totfact> 0.56473245E+00</totfact>
</mgrwt>
</event>
<event>
 8    2  0.7266322E-052  0.1918262E+04  0.7818608E-02  0.8645819E-01
          2   -1    0    0  501    0  0.00000000000E+00  0.00000000000E+00  0.27076408839E+04  0.27076408839E+04  0.25500000000E-02 0. -1.
         -2   -1    0    0    0  501 -0.00000000000E+00 -0.00000000000E+00 -0.33975400294E+03  0.33975400295E+03  0.25500000000E-02 0.  1.
    -200001    2    1    2    0    0 -0.12765253919E+03  0.63723474535E+03  0.17401988925E+04  0.19555503456E+04  0.61116419824E+03 0.  0.
   -5000001    2    3    3    0    0 -0.85889591189E+02  0.52311942384E+02  0.91212547175E+03  0.93585165508E+03  0.18366241562E+03 0.  0.
     200001    1    1    2    0    0  0.12765253919E+03 -0.63723474535E+03  0.62768798850E+03  0.10918445413E+04  0.61300000000E+03 0.  1.
         11    1    4    4    0    0  0.80740968226E+01 -0.24449095691E+02  0.14467054841E+02  0.29533794129E+02  0.51100000000E-03 0.  1.
    -200002    1    4    4    0    0 -0.93963688011E+02  0.76761038075E+02  0.89765841691E+03  0.90631786095E+03  0.30000000000E+02 0.  1.
    -200000    1    3    3    0    0 -0.41762948002E+02  0.58492280297E+03  0.82807342072E+03  0.10196986905E+04  0.10100000000E+03 0. -1.
<mgrwt>
<rscale>  0 0.19182615E+04</rscale>
<asrwt>0</asrwt>
<pdfrwt beam="1">  1        2 0.38680584E+00 0.19182615E+04</pdfrwt>
<pdfrwt beam="2">  1       -2 0.48536286E-01 0.19182615E+04</pdfrwt>
<totfact> 0.12890452E+01</totfact>
</mgrwt>
</event>
<event>
 8    2  0.7266322E-052  0.1630549E+04  0.7818608E-02  0.8801998E-01
          2   -1    0    0  501    0  0.00000000000E+00  0.00000000000E+00  0.23991928508E+04  0.23991928508E+04  0.25500000000E-02 0.  1.
         -2   -1    0    0    0  501 -0.00000000000E+00 -0.00000000000E+00 -0.27703991011E+03  0.27703991013E+03  0.25500000000E-02 0. -1.
    -200001    2    1    2    0    0 -0.25804010711E+03 -0.23609590570E+03  0.39163747309E+03  0.80733502238E+03  0.61325684216E+03 0.  0.
   -5000001    2    3    3    0    0  0.14003138159E+03  0.40631997663E+02  0.20204855363E+03  0.27706697601E+03  0.12117237354E+03 0.  0.
     200001    1    1    2    0    0  0.25804010711E+03  0.23609590570E+03  0.17305154676E+04  0.18688977385E+04  0.61300000000E+03 0.  1.
         11    1    4    4    0    0  0.44848716617E+02 -0.37775383392E+02  0.38902754621E+02  0.70369107497E+02  0.51100000000E-03 0.  1.
    -200002    1    4    4    0    0  0.95182664969E+02  0.78407381056E+02  0.16314579901E+03  0.20669786852E+03  0.30000000000E+02 0.  1.
    -200000    1    3    3    0    0 -0.39807148869E+03 -0.27672790337E+03  0.18958891946E+03  0.53026804636E+03  0.10100000000E+03 0. -1.
<mgrwt>
<rscale>  0 0.16305486E+04</rscale>
<asrwt>0</asrwt>
<pdfrwt beam="1">  1        2 0.34274182E+00 0.16305486E+04</pdfrwt>
<pdfrwt beam="2">  1       -2 0.39577131E-01 0.16305486E+04</pdfrwt>
<totfact> 0.28851684E+01</totfact>
</mgrwt>
</event>
<event>
 8    2  0.7266322E-052  0.1481454E+04  0.7818608E-02  0.8896880E-01
          2   -1    0    0  501    0  0.00000000000E+00  0.00000000000E+00  0.60850104401E+03  0.60850104401E+03  0.25500000000E-02 0.  1.
         -2   -1    0    0    0  501 -0.00000000000E+00 -0.00000000000E+00 -0.90168559251E+03  0.90168559252E+03  0.25500000000E-02 0. -1.
    -200001    2    1    2    0    0 -0.18868094136E+03  0.15758282548E+03 -0.48913458496E+03  0.82127571246E+03  0.61221590076E+03 0.  0.
   -5000001    2    3    3    0    0  0.50784736347E+02  0.32978665556E+03 -0.19790368224E+03  0.39464424551E+03  0.72387052997E+02 0.  0.
     200001    1    1    2    0    0  0.18868094136E+03 -0.15758282548E+03  0.19595003646E+03  0.68891092407E+03  0.61300000000E+03 0.  1.
         11    1    4    4    0    0  0.22443575951E+01  0.15588423656E+03 -0.11495494206E+03  0.19369969296E+03  0.51100000000E-03 0.  1.
    -200002    1    4    4    0    0  0.48540378752E+02  0.17390241900E+03 -0.82948740186E+02  0.20094455255E+03  0.30000000000E+02 0.  1.
    -200000    1    3    3    0    0 -0.23946567771E+03 -0.17220383007E+03 -0.29123090272E+03  0.42663146694E+03  0.10100000000E+03 0.  1.
<mgrwt>
<rscale>  0 0.14814542E+04</rscale>
<asrwt>0</asrwt>
<pdfrwt beam="1">  1        2 0.86928721E-01 0.14814542E+04</pdfrwt>
<pdfrwt beam="2">  1       -2 0.12881223E+00 0.14814542E+04</pdfrwt>
<totfact> 0.22986593E+01</totfact>
</mgrwt>
</event>
<event>
 8    2  0.7266322E-052  0.1508037E+04  0.7818608E-02  0.8879126E-01
         -2   -1    0    0    0  501 -0.00000000000E+00  0.00000000000E+00  0.76412642336E+03  0.76412642336E+03  0.25500000000E-02 0. -1.
          2   -1    0    0  501    0  0.00000000000E+00 -0.00000000000E+00 -0.74404473598E+03  0.74404473598E+03  0.25500000000E-02 0.  1.
    -200001    2    1    2    0    0  0.25357585571E+03 -0.15705808104E+03 -0.31181518046E+03  0.74995451068E+03  0.61338006645E+03 0.  0.
   -5000001    2    3    3    0    0 -0.32508098275E+01 -0.31452262205E+02 -0.39754838808E+03  0.43485462058E+03  0.17336091719E+03 0.  0.
     200001    1    1    2    0    0 -0.25357585571E+03  0.15705808104E+03  0.33189686784E+03  0.75821664865E+03  0.61300000000E+03 0. -1.
         11    1    4    4    0    0  0.75070790366E+02 -0.22953141110E+01 -0.26404432087E+03  0.27451829706E+03  0.51100000000E-03 0.  1.
    -200002    1    4    4    0    0 -0.78321600193E+02 -0.29156948094E+02 -0.13350406721E+03  0.16033632352E+03  0.30000000000E+02 0.  1.
    -200000    1    3    3    0    0  0.25682666554E+03 -0.12560581883E+03  0.85733207625E+02  0.31509989011E+03  0.10100000000E+03 0. -1.
<mgrwt>
<rscale>  0 0.15080375E+04</rscale>
<asrwt>0</asrwt>
<pdfrwt beam="1">  1        2 0.10629210E+00 0.15080375E+04</pdfrwt>
<pdfrwt beam="2">  1       -2 0.10916092E+00 0.15080375E+04</pdfrwt>
<totfact> 0.27009580E+01</totfact>
</mgrwt>
</event>
<event>
 8    2  0.7266322E-052  0.1368701E+04  0.7818608E-02  0.8976791E-01
         -2   -1    0    0    0  501 -0.00000000000E+00  0.00000000000E+00  0.37027679065E+03  0.37027679066E+03  0.25500000000E-02 0. -1.
          2   -1    0    0  501    0  0.00000000000E+00 -0.00000000000E+00 -0.12648261843E+04  0.12648261843E+04  0.25500000000E-02 0.  1.
    -200001    2    1    2    0    0  0.27886460660E+03  0.28354037413E+02 -0.59135285936E+03  0.89600449800E+03  0.61201015996E+03 0.  0.
   -5000001    2    3    3    0    0 -0.10944446863E+03  0.17868366652E+03 -0.24925036176E+03  0.34771802710E+03  0.12196777911E+03 0.  0.
     200001    1    1    2    0    0 -0.27886460660E+03 -0.28354037413E+02 -0.30319653429E+03  0.73909847697E+03  0.61300000000E+03 0.  1.
         11    1    4    4    0    0 -0.73655082095E+02  0.10186313795E+03 -0.62342531080E+02  0.14031308269E+03  0.51100000000E-03 0.  1.
    -200002    1    4    4    0    0 -0.35789386535E+02  0.76820528566E+02 -0.18690783068E+03  0.20740494441E+03  0.30000000000E+02 0.  1.
    -200000    1    3    3    0    0  0.38830907523E+03 -0.15032962911E+03 -0.34210249761E+03  0.54828647090E+03  0.10100000000E+03 0. -1.
<mgrwt>
<rscale>  0 0.13687013E+04</rscale>
<asrwt>0</asrwt>
<pdfrwt beam="1">  1        2 0.18068945E+00 0.13687013E+04</pdfrwt>
<pdfrwt beam="2">  1       -2 0.52896685E-01 0.13687013E+04</pdfrwt>
<totfact> 0.64632863E+01</totfact>
</mgrwt>
</event>
<event>
 8    2  0.7266322E-052  0.1796704E+04  0.7818608E-02  0.8708054E-01
          2   -1    0    0  501    0  0.00000000000E+00  0.00000000000E+00  0.25773389524E+04  0.25773389524E+04  0.25500000000E-02 0.  1.
         -2   -1    0    0    0  501 -0.00000000000E+00 -0.00000000000E+00 -0.31312777173E+03  0.31312777174E+03  0.25500000000E-02 0. -1.
    -200001    2    1    2    0    0  0.33841068120E+03  0.23496954905E+03  0.31005477543E+03  0.80139306956E+03  0.61348546032E+03 0.  0.
   -5000001    2    3    3    0    0  0.19120317849E+03  0.31057353230E+02  0.40640783866E+03  0.51375589315E+03  0.24749660960E+03 0.  0.
     200001    1    1    2    0    0 -0.33841068120E+03 -0.23496954905E+03  0.19541564052E+04  0.20890736545E+04  0.61300000000E+03 0.  1.
         11    1    4    4    0    0  0.10018302379E+03  0.26480431435E+02  0.79710619587E+01  0.10392973268E+03  0.51100000000E-03 0.  1.
    -200002    1    4    4    0    0  0.91020154697E+02  0.45769217956E+01  0.39843677671E+03  0.40982616047E+03  0.30000000000E+02 0.  1.
    -200000    1    3    3    0    0  0.14720750271E+03  0.20391219582E+03 -0.96353063230E+02  0.28763717641E+03  0.10100000000E+03 0. -1.
<mgrwt>
<rscale>  0 0.17967041E+04</rscale>
<asrwt>0</asrwt>
<pdfrwt beam="1">  1        2 0.36819126E+00 0.17967041E+04</pdfrwt>
<pdfrwt beam="2">  1       -2 0.44732541E-01 0.17967041E+04</pdfrwt>
<totfact> 0.18011880E+01</totfact>
</mgrwt>
</event>
<event>
 8    2  0.7266322E-052  0.1224023E+04  0.7818608E-02  0.9092085E-01
         -2   -1    0    0    0  501 -0.00000000000E+00  0.00000000000E+00  0.23923980796E+03  0.23923980797E+03  0.25500000000E-02 0. -1.
          2   -1    0    0  501    0  0.00000000000E+00 -0.00000000000E+00 -0.15656188957E+04  0.15656188957E+04  0.25500000000E-02 0.  1.
    -200001    2    1    2    0    0 -0.40126286963E+00 -0.48617870743E+01 -0.66470744429E+03  0.90285972266E+03  0.61097945491E+03 0.  0.
   -5000001    2    3    3    0    0  0.74352972419E+02  0.26685032034E+03 -0.45680735031E+03  0.53838871684E+03  0.66723287908E+02 0.  0.
     200001    1    1    2    0    0  0.40126286963E+00  0.48617870743E+01 -0.66167164342E+03  0.90199898098E+03  0.61300000000E+03 0. -1.
         11    1    4    4    0    0  0.59725854915E+01 -0.41386721456E+00 -0.20100237271E+02  0.20972901614E+02  0.51100000000E-03 0.  1.
    -200002    1    4    4    0    0  0.68380386927E+02  0.26726418755E+03 -0.43670711304E+03  0.51741581522E+03  0.30000000000E+02 0.  1.
    -200000    1    3    3    0    0 -0.74754235288E+02 -0.27171210741E+03 -0.20790009398E+03  0.36447100582E+03  0.10100000000E+03 0. -1.
<mgrwt>
<rscale>  0 0.12240235E+04</rscale>
<asrwt>0</asrwt>
<pdfrwt beam="1">  1        2 0.22365984E+00 0.12240235E+04</pdfrwt>
<pdfrwt beam="2">  1       -2 0.34177116E-01 0.12240235E+04</pdfrwt>
<totfact> 0.10649380E+02</totfact>
</mgrwt>
</event>
<event>
 8    2  0.7266322E-052  0.1263827E+04  0.7818608E-02  0.9058753E-01
         -2   -1    0    0    0  501 -0.00000000000E+00  0.00000000000E+00  0.17295509161E+03  0.17295509163E+03  0.25500000000E-02 0. -1.
          2   -1    0    0  501    0  0.00000000000E+00 -0.00000000000E+00 -0.23087764643E+04  0.23087764643E+04  0.25500000000E-02 0.  1.
    -200001    2    1    2    0    0  0.12850146939E+03 -0.52865777250E+01 -0.92924704913E+03  0.11222716728E+04  0.61599760853E+03 0.  0.
   -5000001    2    3    3    0    0 -0.20604361389E+03 -0.28092463055E+02 -0.60385084279E+03  0.64422961163E+03  0.84574197343E+02 0.  0.
     200001    1    1    2    0    0 -0.12850146939E+03  0.52865777250E+01 -0.12065743235E+04  0.13594598831E+04  0.61300000000E+03 0.  1.
         11    1    4    4    0    0 -0.15711908203E+03 -0.35704286865E+01 -0.36575506511E+03  0.39809034346E+03  0.51100000000E-03 0.  1.
    -200002    1    4    4    0    0 -0.48924531855E+02 -0.24522034368E+02 -0.23809577769E+03  0.24613926818E+03  0.30000000000E+02 0.  1.
    -200000    1    3    3    0    0  0.33454508327E+03  0.22805885330E+02 -0.32539620634E+03  0.47804206117E+03  0.10100000000E+03 0. -1.
<mgrwt>
<rscale>  0 0.12638270E+04</rscale>
<asrwt>0</asrwt>
<pdfrwt beam="1">  1        2 0.32982519E+00 0.12638270E+04</pdfrwt>
<pdfrwt beam="2">  1       -2 0.24707872E-01 0.12638270E+04</pdfrwt>
<totfact> 0.80155447E+01</totfact>
</mgrwt>
</event>
<event>
 8    2  0.7266322E-052  0.1839242E+04  0.7818608E-02  0.8685705E-01
         -2   -1    0    0    0  501 -0.00000000000E+00  0.00000000000E+00  0.59599569408E+03  0.59599569409E+03  0.25500000000E-02 0. -1.
          2   -1    0    0  501    0  0.00000000000E+00 -0.00000000000E+00 -0.14189750023E+04  0.14189750023E+04  0.25500000000E-02 0.  1.
    -200001    2    1    2    0    0  0.39337762465E+03  0.53129334647E+03 -0.21149905725E+03  0.92561507359E+03  0.61238291752E+03 0.  0.
   -5000001    2    3    3    0    0  0.44137360824E+03  0.45571364795E+03 -0.35254869870E+03  0.73039236328E+03  0.81834151865E+02 0.  0.
     200001    1    1    2    0    0 -0.39337762465E+03 -0.53129334647E+03 -0.61148025094E+03  0.10893556228E+04  0.61300000000E+03 0. -1.
         11    1    4    4    0    0  0.14067521449E+03  0.13390045233E+03 -0.70940000340E+02  0.20676394936E+03  0.51100000000E-03 0.  1.
    -200002    1    4    4    0    0  0.30069839375E+03  0.32181319562E+03 -0.28160869836E+03  0.52362841393E+03  0.30000000000E+02 0.  1.
    -200000    1    3    3    0    0 -0.47995983593E+02  0.75579698520E+02  0.14104964144E+03  0.19522271031E+03  0.10100000000E+03 0. -1.
<mgrwt>
<rscale>  0 0.18392422E+04</rscale>
<asrwt>0</asrwt>
<pdfrwt beam="1">  1        2 0.20271071E+00 0.18392422E+04</pdfrwt>
<pdfrwt beam="2">  1       -2 0.85142243E-01 0.18392422E+04</pdfrwt>
<totfact> 0.18314679E+01</totfact>
</mgrwt>
</event>
<event>
 8    2  0.7266322E-052  0.1296387E+04  0.7818608E-02  0.9032435E-01
          2   -1    0    0  501    0  0.00000000000E+00  0.00000000000E+00  0.10525086455E+04  0.10525086455E+04  0.25500000000E-02 0.  1.
         -2   -1    0    0    0  501 -0.00000000000E+00 -0.00000000000E+00 -0.39919370073E+03  0.39919370074E+03  0.25500000000E-02 0. -1.
    -200001    2    1    2    0    0 -0.10459749773E+03  0.61528462143E+02  0.16121163937E+03  0.65630241454E+03  0.62451363354E+03 0.  0.
   -5000001    2    3    3    0    0 -0.32876229290E+02  0.36964027218E+02  0.38693471684E+03  0.39765350286E+03  0.77218181026E+02 0.  0.
     200001    1    1    2    0    0  0.10459749773E+03 -0.61528462143E+02  0.49210330540E+03  0.79539993172E+03  0.61300000000E+03 0.  1.
         11    1    4    4    0    0 -0.32752438544E+02  0.38157113748E+02  0.13728485017E+03  0.14620471143E+03  0.51100000000E-03 0.  1.
    -200002    1    4    4    0    0 -0.12379074615E+00 -0.11930865303E+01  0.24964986668E+03  0.25144879143E+03  0.30000000000E+02 0.  1.
    -200000    1    3    3    0    0 -0.71721268439E+02  0.24564434925E+02 -0.22572307747E+03  0.25864891168E+03  0.10100000000E+03 0. -1.
<mgrwt>
<rscale>  0 0.12963870E+04</rscale>
<asrwt>0</asrwt>
<pdfrwt beam="1">  1        2 0.15035838E+00 0.12963870E+04</pdfrwt>
<pdfrwt beam="2">  1       -2 0.57027672E-01 0.12963870E+04</pdfrwt>
<totfact> 0.73769780E+01</totfact>
</mgrwt>
</event>
<event>
 8    2  0.7266322E-052  0.1523710E+04  0.7818608E-02  0.8868838E-01
         -2   -1    0    0    0  501 -0.00000000000E+00  0.00000000000E+00  0.16660447975E+03  0.16660447977E+03  0.25500000000E-02 0. -1.
          2   -1    0    0  501    0  0.00000000000E+00 -0.00000000000E+00 -0.34838361419E+04  0.34838361419E+04  0.25500000000E-02 0.  1.
    -200001    2    1    2    0    0  0.97800618912E+02 -0.17096538949E+03 -0.26351270357E+04  0.27124481660E+04  0.61211635622E+03 0.  0.
   -5000001    2    3    3    0    0  0.11827398724E+03 -0.16233145135E+03 -0.28993123619E+03  0.36497334362E+03  0.93835940252E+02 0.  0.
     200001    1    1    2    0    0 -0.97800618912E+02  0.17096538949E+03 -0.68210462644E+03  0.93799245566E+03  0.61300000000E+03 0. -1.
         11    1    4    4    0    0  0.94660622588E+02 -0.66051332297E+02 -0.12433640452E+03  0.16965539619E+03  0.51100000000E-03 0.  1.
    -200002    1    4    4    0    0  0.23613364656E+02 -0.96280119049E+02 -0.16559483167E+03  0.19531794743E+03  0.30000000000E+02 0.  1.
    -200000    1    3    3    0    0 -0.20473368332E+02 -0.86339381395E+01 -0.23451957995E+04  0.23474748224E+04  0.10100000000E+03 0.  1.
<mgrwt>
<rscale>  0 0.15237096E+04</rscale>
<asrwt>0</asrwt>
<pdfrwt beam="1">  1        2 0.49769083E+00 0.15237096E+04</pdfrwt>
<pdfrwt beam="2">  1       -2 0.23800642E-01 0.15237096E+04</pdfrwt>
<totfact> 0.18809611E+01</totfact>
</mgrwt>
</event>
<event>
 8    2  0.7266322E-052  0.1567474E+04  0.7818608E-02  0.8840783E-01
          2   -1    0    0  501    0  0.00000000000E+00  0.00000000000E+00  0.15734693905E+04  0.15734693905E+04  0.25500000000E-02 0.  1.
         -2   -1    0    0    0  501 -0.00000000000E+00 -0.00000000000E+00 -0.39037553784E+03  0.39037553784E+03  0.25500000000E-02 0. -1.
    -200001    2    1    2    0    0 -0.12274928616E+03 -0.24403901919E+03  0.10977409817E+04  0.12873269739E+04  0.61445345201E+03 0.  0.
   -5000001    2    3    3    0    0  0.22095806011E+03 -0.88630884886E+02  0.24836387884E+03  0.35248533440E+03  0.76703302214E+02 0.  0.
     200001    1    1    2    0    0  0.12274928616E+03  0.24403901919E+03  0.85352870997E+02  0.67651795448E+03  0.61300000000E+03 0. -1.
         11    1    4    4    0    0  0.13086939247E+03 -0.80151839088E+02  0.13524674403E+03  0.20455511963E+03  0.51100000000E-03 0.  1.
    -200002    1    4    4    0    0  0.90088667644E+02 -0.84790457974E+01  0.11311713481E+03  0.14793021477E+03  0.30000000000E+02 0. -1.
    -200000    1    3    3    0    0 -0.34370734626E+03 -0.15540813431E+03  0.84937710282E+03  0.93484163947E+03  0.10100000000E+03 0.  1.
<mgrwt>
<rscale>  0 0.15674744E+04</rscale>
<asrwt>0</asrwt>
<pdfrwt beam="1">  1        2 0.22478134E+00 0.15674744E+04</pdfrwt>
<pdfrwt beam="2">  1       -2 0.55767934E-01 0.15674744E+04</pdfrwt>
<totfact> 0.38867958E+01</totfact>
</mgrwt>
</event>
<event>
 8    2  0.7266322E-052  0.1393912E+04  0.7818608E-02  0.8958237E-01
          2   -1    0    0  501    0  0.00000000000E+00  0.00000000000E+00  0.97042668339E+03  0.97042668339E+03  0.25500000000E-02 0.  1.
         -2   -1    0    0    0  501 -0.00000000000E+00 -0.00000000000E+00 -0.50055030238E+03  0.50055030239E+03  0.25500000000E-02 0. -1.
    -200001    2    1    2    0    0  0.35386902288E+02 -0.42546210762E+02 -0.10997452267E+03  0.62536567827E+03  0.61312757483E+03 0.  0.
   -5000001    2    3    3    0    0 -0.11633534960E+03 -0.25540968259E+03  0.54084950646E+02  0.30063962428E+03  0.93225437909E+02 0.  0.
     200001    1    1    2    0    0 -0.35386902288E+02  0.42546210762E+02  0.57985090367E+03  0.84561130751E+03  0.61300000000E+03 0.  1.
         11    1    4    4    0    0 -0.20454358441E+02 -0.14383417355E+03  0.33507419202E+02  0.14909526284E+03  0.51100000000E-03 0.  1.
    -200002    1    4    4    0    0 -0.95880991161E+02 -0.11157550904E+03  0.20577531444E+02  0.15154436144E+03  0.30000000000E+02 0.  1.
    -200000    1    3    3    0    0  0.15172225189E+03  0.21286347182E+03 -0.16405947332E+03  0.32472605399E+03  0.10100000000E+03 0.  1.
<mgrwt>
<rscale>  0 0.13939116E+04</rscale>
<asrwt>0</asrwt>
<pdfrwt beam="1">  1        2 0.13863238E+00 0.13939116E+04</pdfrwt>
<pdfrwt beam="2">  1       -2 0.71507187E-01 0.13939116E+04</pdfrwt>
<totfact> 0.50705684E+01</totfact>
</mgrwt>
</event>
<event>
 8    2  0.7266322E-052  0.1553419E+04  0.7818608E-02  0.8849687E-01
          2   -1    0    0  501    0  0.00000000000E+00  0.00000000000E+00  0.15013013788E+04  0.15013013788E+04  0.25500000000E-02 0.  1.
         -2   -1    0    0    0  501 -0.00000000000E+00 -0.00000000000E+00 -0.40183645342E+03  0.40183645343E+03  0.25500000000E-02 0. -1.
    -200001    2    1    2    0    0  0.10610126097E+03 -0.35809532521E+03  0.18704273758E+03  0.74220157717E+03  0.61350505780E+03 0.  0.
   -5000001    2    3    3    0    0  0.37572740455E+02 -0.23413048112E+02 -0.19430534797E+03  0.22034360120E+03  0.94004535498E+02 0.  0.
     200001    1    1    2    0    0 -0.10610126097E+03  0.35809532521E+03  0.91242218781E+03  0.11609362551E+04  0.61300000000E+03 0.  1.
         11    1    4    4    0    0  0.37547209567E+02 -0.50302469064E+02 -0.13173161891E+03  0.14592241349E+03  0.51100000000E-03 0.  1.
    -200002    1    4    4    0    0  0.25530888245E-01  0.26889420952E+02 -0.62573729060E+02  0.74421187706E+02  0.30000000000E+02 0.  1.
    -200000    1    3    3    0    0  0.68528520518E+02 -0.33468227710E+03  0.38134808554E+03  0.52185797597E+03  0.10100000000E+03 0.  1.
<mgrwt>
<rscale>  0 0.15534190E+04</rscale>
<asrwt>0</asrwt>
<pdfrwt beam="1">  1        2 0.21447162E+00 0.15534190E+04</pdfrwt>
<pdfrwt beam="2">  1       -2 0.57405208E-01 0.15534190E+04</pdfrwt>
<totfact> 0.39996170E+01</totfact>
</mgrwt>
</event>
<event>
 8    2  0.7266322E-052  0.1307611E+04  0.7818608E-02  0.9023552E-01
         -2   -1    0    0    0  501 -0.00000000000E+00  0.00000000000E+00  0.48998595739E+03  0.48998595739E+03  0.25500000000E-02 0.  1.
          2   -1    0    0  501    0  0.00000000000E+00 -0.00000000000E+00 -0.87239503350E+03  0.87239503350E+03  0.25500000000E-02 0. -1.
    -200001    2    1    2    0    0  0.98812037639E+02  0.20274155950E+03 -0.21982480027E+03  0.68927579445E+03  0.61311517619E+03 0.  0.
   -5000001    2    3    3    0    0 -0.19163334316E+03  0.15450039586E+03  0.59850118566E+02  0.27082055273E+03  0.95749801857E+02 0.  0.
     200001    1    1    2    0    0 -0.98812037639E+02 -0.20274155950E+03 -0.16258427584E+03  0.67310519644E+03  0.61300000000E+03 0. -1.
         11    1    4    4    0    0 -0.10241139173E+03  0.10415659144E+03  0.72946762331E+02  0.16327252932E+03  0.51100000000E-03 0.  1.
    -200002    1    4    4    0    0 -0.89221951428E+02  0.50343804422E+02 -0.13096643766E+02  0.10754802340E+03  0.30000000000E+02 0.  1.
    -200000    1    3    3    0    0  0.29044538080E+03  0.48241163634E+02 -0.27967491884E+03  0.41845524172E+03  0.10100000000E+03 0. -1.
<mgrwt>
<rscale>  0 0.13076105E+04</rscale>
<asrwt>0</asrwt>
<pdfrwt beam="1">  1        2 0.12462786E+00 0.13076105E+04</pdfrwt>
<pdfrwt beam="2">  1       -2 0.69997994E-01 0.13076105E+04</pdfrwt>
<totfact> 0.61848603E+01</totfact>
</mgrwt>
</event>
<event>
 8    2  0.7266322E-052  0.1342590E+04  0.7818608E-02  0.8996457E-01
          2   -1    0    0  501    0  0.00000000000E+00  0.00000000000E+00  0.51665934481E+04  0.51665934481E+04  0.25500000000E-02 0.  1.
         -2   -1    0    0    0  501 -0.00000000000E+00 -0.00000000000E+00 -0.87221234988E+02  0.87221235025E+02  0.25500000000E-02 0. -1.
    -200001    2    1    2    0    0  0.22583599604E+03 -0.12075078415E+03  0.21606179173E+04  0.22604088824E+04  0.61285877797E+03 0.  0.
   -5000001    2    3    3    0    0 -0.84979488032E+00 -0.29247362078E+03  0.15331080252E+04  0.15641008721E+04  0.10222416617E+03 0.  0.
     200001    1    1    2    0    0 -0.22583599604E+03  0.12075078415E+03  0.29187542957E+04  0.29934058007E+04  0.61300000000E+03 0.  1.
         11    1    4    4    0    0  0.10844766754E+02 -0.24675624806E+03  0.13580696742E+04  0.13803475993E+04  0.51100000000E-03 0.  1.
    -200002    1    4    4    0    0 -0.11694561634E+02 -0.45717372722E+02  0.17503835100E+03  0.18375327279E+03  0.30000000000E+02 0.  1.
    -200000    1    3    3    0    0  0.22668579092E+03  0.17172283663E+03  0.62750989216E+03  0.69630801028E+03  0.10100000000E+03 0. -1.
<mgrwt>
<rscale>  0 0.13425895E+04</rscale>
<asrwt>0</asrwt>
<pdfrwt beam="1">  1        2 0.73808480E+00 0.13425895E+04</pdfrwt>
<pdfrwt beam="2">  1       -2 0.12460176E-01 0.13425895E+04</pdfrwt>
<totfact> 0.29765511E+00</totfact>
</mgrwt>
</event>
<event>
 8    2  0.7266322E-052  0.1466008E+04  0.7818608E-02  0.8907377E-01
          2   -1    0    0  501    0  0.00000000000E+00  0.00000000000E+00  0.24559400531E+04  0.24559400531E+04  0.25500000000E-02 0.  1.
         -2   -1    0    0    0  501 -0.00000000000E+00 -0.00000000000E+00 -0.21877356492E+03  0.21877356494E+03  0.25500000000E-02 0. -1.
    -200001    2    1    2    0    0 -0.26150724546E+03 -0.38073146821E+02  0.56477825114E+03  0.87402291186E+03  0.61245895663E+03 0.  0.
   -5000001    2    3    3    0    0 -0.27929364457E+02 -0.23943149056E+03  0.47062815845E+03  0.53613380425E+03  0.88550011061E+02 0.  0.
     200001    1    1    2    0    0  0.26150724546E+03  0.38073146821E+02  0.16723882370E+04  0.18006907062E+04  0.61300000000E+03 0.  1.
         11    1    4    4    0    0  0.56943593318E+01 -0.10426239682E+03  0.12886485088E+03  0.16585904531E+03  0.51100000000E-03 0.  1.
    -200002    1    4    4    0    0 -0.33623723788E+02 -0.13516909374E+03  0.34176330757E+03  0.37027475893E+03  0.30000000000E+02 0.  1.
    -200000    1    3    3    0    0 -0.23357788100E+03  0.20135834374E+03  0.94150092692E+02  0.33788910761E+03  0.10100000000E+03 0. -1.
<mgrwt>
<rscale>  0 0.14660079E+04</rscale>
<asrwt>0</asrwt>
<pdfrwt beam="1">  1        2 0.35084859E+00 0.14660079E+04</pdfrwt>
<pdfrwt beam="2">  1       -2 0.31253365E-01 0.14660079E+04</pdfrwt>
<totfact> 0.42901512E+01</totfact>
</mgrwt>
</event>
<event>
 8    2  0.7266322E-052  0.1479355E+04  0.7818608E-02  0.8898299E-01
         -2   -1    0    0    0  501 -0.00000000000E+00  0.00000000000E+00  0.90645285991E+03  0.90645285991E+03  0.25500000000E-02 0. -1.
          2   -1    0    0  501    0  0.00000000000E+00 -0.00000000000E+00 -0.60358634215E+03  0.60358634216E+03  0.25500000000E-02 0.  1.
    -200001    2    1    2    0    0 -0.39221762125E+03  0.50826408132E+02  0.26816018301E+03  0.77970262496E+03  0.61612361863E+03 0.  0.
   -5000001    2    3    3    0    0 -0.37429711896E+03 -0.16798194407E+03  0.32263230057E+03  0.53198009674E+03  0.10293179856E+03 0.  0.
     200001    1    1    2    0    0  0.39221762125E+03 -0.50826408132E+02  0.34706334744E+02  0.73033657711E+03  0.61300000000E+03 0.  1.
         11    1    4    4    0    0 -0.21169820404E+03 -0.13668126571E+03  0.16356309702E+03  0.30041768373E+03  0.51100000000E-03 0.  1.
    -200002    1    4    4    0    0 -0.16259891492E+03 -0.31300678364E+02  0.15906920355E+03  0.23156241301E+03  0.30000000000E+02 0.  1.
    -200000    1    3    3    0    0 -0.17920502294E+02  0.21880835221E+03 -0.54472117559E+02  0.24772252822E+03  0.10100000000E+03 0.  1.
<mgrwt>
<rscale>  0 0.14793547E+04</rscale>
<asrwt>0</asrwt>
<pdfrwt beam="1">  1        2 0.86226622E-01 0.14793547E+04</pdfrwt>
<pdfrwt beam="2">  1       -2 0.12949326E+00 0.14793547E+04</pdfrwt>
<totfact> 0.22905273E+01</totfact>
</mgrwt>
</event>
<event>
 8    2  0.7266322E-052  0.1575896E+04  0.7818608E-02  0.8835494E-01
         -2   -1    0    0    0  501 -0.00000000000E+00  0.00000000000E+00  0.53082058476E+03  0.53082058477E+03  0.25500000000E-02 0. -1.
          2   -1    0    0  501    0  0.00000000000E+00 -0.00000000000E+00 -0.11696274536E+04  0.11696274536E+04  0.25500000000E-02 0.  1.
    -200001    2    1    2    0    0 -0.46506741046E+03 -0.15987529392E+03 -0.26009610549E+03  0.82807274749E+03  0.61335689868E+03 0.  0.
   -5000001    2    3    3    0    0 -0.10333345122E+03 -0.30125765641E+03 -0.26816257430E+03  0.42669200853E+03  0.93385899372E+02 0.  0.
     200001    1    1    2    0    0  0.46506741046E+03  0.15987529392E+03 -0.37871076338E+03  0.87237529090E+03  0.61300000000E+03 0.  1.
         11    1    4    4    0    0 -0.17549141277E+02 -0.26719056677E+01 -0.26791048346E+02  0.32138321537E+02  0.51100000000E-03 0.  1.
    -200002    1    4    4    0    0 -0.85784309941E+02 -0.29858575074E+03 -0.24137152595E+03  0.39455368699E+03  0.30000000000E+02 0.  1.
    -200000    1    3    3    0    0 -0.36173395924E+03  0.14138236248E+03  0.80664688089E+01  0.40138073896E+03  0.10100000000E+03 0. -1.
<mgrwt>
<rscale>  0 0.15758964E+04</rscale>
<asrwt>0</asrwt>
<pdfrwt beam="1">  1        2 0.16708964E+00 0.15758964E+04</pdfrwt>
<pdfrwt beam="2">  1       -2 0.75831512E-01 0.15758964E+04</pdfrwt>
<totfact> 0.33375796E+01</totfact>
</mgrwt>
</event>
<event>
 8    2  0.7266322E-052  0.1430052E+04  0.7818608E-02  0.8932348E-01
          2   -1    0    0  501    0  0.00000000000E+00  0.00000000000E+00  0.16297433501E+04  0.16297433501E+04  0.25500000000E-02 0.  1.
         -2   -1    0    0    0  501 -0.00000000000E+00 -0.00000000000E+00 -0.31370737360E+03  0.31370737361E+03  0.25500000000E-02 0. -1.
    -200001    2    1    2    0    0  0.12388812840E+03 -0.12356167027E+03  0.10989020182E+04  0.12700029451E+04  0.61213240409E+03 0.  0.
   -5000001    2    3    3    0    0 -0.18201487104E+03  0.36697435835E+02  0.40893909171E+03  0.49185805746E+03  0.20054189808E+03 0.  0.
     200001    1    1    2    0    0 -0.12388812840E+03  0.12356167027E+03  0.21713395829E+03  0.67344777865E+03  0.61300000000E+03 0. -1.
         11    1    4    4    0    0  0.38719841633E+02  0.30761358575E+02  0.58932507117E+02  0.76931968081E+02  0.51100000000E-03 0.  1.
    -200002    1    4    4    0    0 -0.22073471268E+03  0.59360772600E+01  0.35000658459E+03  0.41492608938E+03  0.30000000000E+02 0.  1.
    -200000    1    3    3    0    0  0.30590299944E+03 -0.16025910611E+03  0.68996292649E+03  0.77814488760E+03  0.10100000000E+03 0.  1.
<mgrwt>
<rscale>  0 0.14300525E+04</rscale>
<asrwt>0</asrwt>
<pdfrwt beam="1">  1        2 0.23282048E+00 0.14300525E+04</pdfrwt>
<pdfrwt beam="2">  1       -2 0.44815338E-01 0.14300525E+04</pdfrwt>
<totfact> 0.57291256E+01</totfact>
</mgrwt>
</event>
<event>
 8    2  0.7266322E-052  0.1461750E+04  0.7818608E-02  0.8910295E-01
          2   -1    0    0  501    0  0.00000000000E+00  0.00000000000E+00  0.17040943100E+04  0.17040943100E+04  0.25500000000E-02 0.  1.
         -2   -1    0    0    0  501 -0.00000000000E+00 -0.00000000000E+00 -0.31346769963E+03  0.31346769964E+03  0.25500000000E-02 0. -1.
    -200001    2    1    2    0    0  0.25359782754E+03  0.19467690863E+03  0.10239594558E+04  0.12349862887E+04  0.61195360042E+03 0.  0.
   -5000001    2    3    3    0    0  0.11566473281E+02  0.36694192120E+03  0.55168493629E+03  0.66797779417E+03  0.84011354784E+02 0.  0.
     200001    1    1    2    0    0 -0.25359782754E+03 -0.19467690863E+03  0.36666715455E+03  0.78257572101E+03  0.61300000000E+03 0. -1.
         11    1    4    4    0    0  0.74233746326E+01  0.32377512470E+03  0.47185510322E+03  0.57230470582E+03  0.51100000000E-03 0.  1.
    -200002    1    4    4    0    0  0.41430986479E+01  0.43166796503E+02  0.79829833066E+02  0.95673088348E+02  0.30000000000E+02 0. -1.
    -200000    1    3    3    0    0  0.24203135426E+03 -0.17226501257E+03  0.47227451955E+03  0.56700849449E+03  0.10100000000E+03 0.  1.
<mgrwt>
<rscale>  0 0.14617504E+04</rscale>
<asrwt>0</asrwt>
<pdfrwt beam="1">  1        2 0.24344205E+00 0.14617504E+04</pdfrwt>
<pdfrwt beam="2">  1       -2 0.44781100E-01 0.14617504E+04</pdfrwt>
<totfact> 0.52354874E+01</totfact>
</mgrwt>
</event>
<event>
 8    2  0.7266322E-052  0.1655272E+04  0.7818608E-02  0.8787294E-01
         -2   -1    0    0    0  501 -0.00000000000E+00  0.00000000000E+00  0.14394379568E+04  0.14394379568E+04  0.25500000000E-02 0. -1.
          2   -1    0    0  501    0  0.00000000000E+00 -0.00000000000E+00 -0.47586733572E+03  0.47586733573E+03  0.25500000000E-02 0.  1.
    -200001    2    1    2    0    0  0.45711678728E+03  0.27620317907E+03  0.66067672665E+03  0.10476892112E+04  0.61311906901E+03 0.  0.
   -5000001    2    3    3    0    0  0.48400423445E+03  0.35781800574E+03  0.38289896974E+03  0.73988180879E+03  0.19626422433E+03 0.  0.
     200001    1    1    2    0    0 -0.45711678728E+03 -0.27620317907E+03  0.30289389446E+03  0.86761608137E+03  0.61300000000E+03 0.  1.
         11    1    4    4    0    0  0.23762082764E+02  0.23537140066E+02  0.96870343162E+02  0.10248169068E+03  0.51100000000E-03 0.  1.
    -200002    1    4    4    0    0  0.46024215169E+03  0.33428086567E+03  0.28602862658E+03  0.63740011811E+03  0.30000000000E+02 0.  1.
    -200000    1    3    3    0    0 -0.26887447172E+02 -0.81614826664E+02  0.27777775690E+03  0.30780740241E+03  0.10100000000E+03 0. -1.
<mgrwt>
<rscale>  0 0.16552722E+04</rscale>
<asrwt>0</asrwt>
<pdfrwt beam="1">  1        2 0.67981048E-01 0.16552722E+04</pdfrwt>
<pdfrwt beam="2">  1       -2 0.20563399E+00 0.16552722E+04</pdfrwt>
<totfact> 0.83039721E+00</totfact>
</mgrwt>
</event>
<event>
 8    2  0.7266322E-052  0.1434577E+04  0.7818608E-02  0.8929164E-01
         -2   -1    0    0    0  501 -0.00000000000E+00  0.00000000000E+00  0.18813216772E+03  0.18813216773E+03  0.25500000000E-02 0. -1.
          2   -1    0    0  501    0  0.00000000000E+00 -0.00000000000E+00 -0.27347926104E+04  0.27347926104E+04  0.25500000000E-02 0.  1.
    -200001    2    1    2    0    0 -0.22633247458E+03  0.13770096521E+03 -0.74165639270E+03  0.99834779466E+03  0.61356024105E+03 0.  0.
   -5000001    2    3    3    0    0 -0.40959991216E+03  0.14524264462E+03 -0.41180703202E+03  0.60764914948E+03  0.10385058201E+03 0.  0.
     200001    1    1    2    0    0  0.22633247458E+03 -0.13770096521E+03 -0.18050040499E+04  0.19245769834E+04  0.61300000000E+03 0.  1.
         11    1    4    4    0    0 -0.24362053868E+03  0.81400584402E+02 -0.30217654616E+03  0.39659511729E+03  0.51100000000E-03 0.  1.
    -200002    1    4    4    0    0 -0.16597937348E+03  0.63842060220E+02 -0.10963048586E+03  0.21105403219E+03  0.30000000000E+02 0.  1.
    -200000    1    3    3    0    0  0.18326743758E+03 -0.75416794155E+01 -0.32984936068E+03  0.39069864518E+03  0.10100000000E+03 0.  1.
<mgrwt>
<rscale>  0 0.14345765E+04</rscale>
<asrwt>0</asrwt>
<pdfrwt beam="1">  1        2 0.39068464E+00 0.14345765E+04</pdfrwt>
<pdfrwt beam="2">  1       -2 0.26876026E-01 0.14345765E+04</pdfrwt>
<totfact> 0.40488331E+01</totfact>
</mgrwt>
</event>
<event>
 8    2  0.7266322E-052  0.2085022E+04  0.7818608E-02  0.8567870E-01
          2   -1    0    0  501    0  0.00000000000E+00  0.00000000000E+00  0.11090325134E+04  0.11090325134E+04  0.25500000000E-02 0.  1.
         -2   -1    0    0    0  501 -0.00000000000E+00 -0.00000000000E+00 -0.97997942424E+03  0.97997942424E+03  0.25500000000E-02 0. -1.
    -200001    2    1    2    0    0  0.72502586707E+03 -0.32488215514E+03  0.34725405166E+03  0.10620788421E+04  0.61336381351E+03 0.  0.
   -5000001    2    3    3    0    0  0.26261711948E+03 -0.26739648827E+02  0.20028824324E+03  0.48370979659E+03  0.35238760857E+03 0.  0.
     200001    1    1    2    0    0 -0.72502586707E+03  0.32488215514E+03 -0.21820096253E+03  0.10269330955E+04  0.61300000000E+03 0. -1.
         11    1    4    4    0    0  0.28031165157E+03 -0.14320807057E+03  0.11462894057E+03  0.33499696640E+03  0.51100000000E-03 0.  1.
    -200002    1    4    4    0    0 -0.17694532090E+02  0.11646842174E+03  0.85659302670E+02  0.14871283019E+03  0.30000000000E+02 0.  1.
    -200000    1    3    3    0    0  0.46240874759E+03 -0.29814250632E+03  0.14696580841E+03  0.57836904548E+03  0.10100000000E+03 0.  1.
<mgrwt>
<rscale>  0 0.20850219E+04</rscale>
<asrwt>0</asrwt>
<pdfrwt beam="1">  1        2 0.15843322E+00 0.20850219E+04</pdfrwt>
<pdfrwt beam="2">  1       -2 0.13999706E+00 0.20850219E+04</pdfrwt>
<totfact> 0.80322505E+00</totfact>
</mgrwt>
</event>
<event>
 8    2  0.7266322E-052  0.1692226E+04  0.7818608E-02  0.8765810E-01
         -2   -1    0    0    0  501 -0.00000000000E+00  0.00000000000E+00  0.47964673559E+03  0.47964673559E+03  0.25500000000E-02 0. -1.
          2   -1    0    0  501    0  0.00000000000E+00 -0.00000000000E+00 -0.14925723959E+04  0.14925723959E+04  0.25500000000E-02 0.  1.
    -200001    2    1    2    0    0 -0.51197545345E+03 -0.10436515236E+03 -0.20431615276E+03  0.83089127077E+03  0.61288193284E+03 0.  0.
   -5000001    2    3    3    0    0 -0.22629261729E+02  0.19828429299E+03 -0.10556367442E+03  0.23843077918E+03  0.76660307652E+02 0.  0.
     200001    1    1    2    0    0  0.51197545345E+03  0.10436515236E+03 -0.80860950756E+03  0.11413278607E+04  0.61300000000E+03 0. -1.
         11    1    4    4    0    0 -0.16076316433E+02  0.13064663839E+03 -0.97302261068E+02  0.16369093464E+03  0.51100000000E-03 0.  1.
    -200002    1    4    4    0    0 -0.65529452959E+01  0.67637654594E+02 -0.82614133549E+01  0.74739844539E+02  0.30000000000E+02 0.  1.
    -200000    1    3    3    0    0 -0.48934619172E+03 -0.30264944535E+03 -0.98752478337E+02  0.59246049160E+03  0.10100000000E+03 0.  1.
<mgrwt>
<rscale>  0 0.16922263E+04</rscale>
<asrwt>0</asrwt>
<pdfrwt beam="1">  1        2 0.21322463E+00 0.16922263E+04</pdfrwt>
<pdfrwt beam="2">  1       -2 0.68520963E-01 0.16922263E+04</pdfrwt>
<totfact> 0.27424434E+01</totfact>
</mgrwt>
</event>
<event>
 8    2  0.7266322E-052  0.2910045E+04  0.7818608E-02  0.8269895E-01
          2   -1    0    0  501    0  0.00000000000E+00  0.00000000000E+00  0.34117926663E+04  0.34117926663E+04  0.25500000000E-02 0.  1.
         -2   -1    0    0    0  501 -0.00000000000E+00 -0.00000000000E+00 -0.62052135631E+03  0.62052135631E+03  0.25500000000E-02 0. -1.
    -200001    2    1    2    0    0 -0.55843047759E+03 -0.91332449772E+03  0.32660834074E+03  0.12761683827E+04  0.61312845010E+03 0.  0.
   -5000001    2    3    3    0    0 -0.33312722441E+03 -0.18302922567E+03  0.32655415791E+03  0.50526388589E+03  0.64657027752E+02 0.  0.
     200001    1    1    2    0    0  0.55843047759E+03  0.91332449772E+03  0.24646629693E+04  0.27561456399E+04  0.61300000000E+03 0.  1.
         11    1    4    4    0    0 -0.22950862987E+03 -0.12813525871E+03  0.20127529847E+03  0.33106585671E+03  0.51100000000E-03 0.  1.
    -200002    1    4    4    0    0 -0.10361859454E+03 -0.54893966962E+02  0.12527885944E+03  0.17419802917E+03  0.30000000000E+02 0.  1.
    -200000    1    3    3    0    0 -0.22530325317E+03 -0.73029527205E+03  0.54182833719E-01  0.77090449681E+03  0.10100000000E+03 0. -1.
<mgrwt>
<rscale>  0 0.29100448E+04</rscale>
<asrwt>0</asrwt>
<pdfrwt beam="1">  1        2 0.48739895E+00 0.29100448E+04</pdfrwt>
<pdfrwt beam="2">  1       -2 0.88645909E-01 0.29100448E+04</pdfrwt>
<totfact> 0.12910937E+00</totfact>
</mgrwt>
</event>
<event>
 8    2  0.7266322E-052  0.1438671E+04  0.7818608E-02  0.8926293E-01
          2   -1    0    0  501    0  0.00000000000E+00  0.00000000000E+00  0.78422147314E+03  0.78422147314E+03  0.25500000000E-02 0.  1.
         -2   -1    0    0    0  501 -0.00000000000E+00 -0.00000000000E+00 -0.65981770438E+03  0.65981770439E+03  0.25500000000E-02 0. -1.
    -200001    2    1    2    0    0 -0.23649684168E+03  0.26458908226E+03 -0.61314934308E+02  0.71178336483E+03  0.61395268441E+03 0.  0.
   -5000001    2    3    3    0    0 -0.13536738306E+03  0.43665862893E+03  0.40174486831E+02  0.46614908608E+03  0.81767318912E+02 0.  0.
     200001    1    1    2    0    0  0.23649684168E+03 -0.26458908226E+03  0.18571870306E+03  0.73225581271E+03  0.61300000000E+03 0. -1.
         11    1    4    4    0    0 -0.52431732704E+02  0.24948764481E+03  0.46499389253E+02  0.25914352145E+03  0.51100000000E-03 0.  1.
    -200002    1    4    4    0    0 -0.82935650359E+02  0.18717098412E+03 -0.63249024224E+01  0.20700556463E+03  0.30000000000E+02 0.  1.
    -200000    1    3    3    0    0 -0.10112945861E+03 -0.17206954667E+03 -0.10148942114E+03  0.24563427875E+03  0.10100000000E+03 0. -1.
<mgrwt>
<rscale>  0 0.14386705E+04</rscale>
<asrwt>0</asrwt>
<pdfrwt beam="1">  1        2 0.11203164E+00 0.14386705E+04</pdfrwt>
<pdfrwt beam="2">  1       -2 0.94259671E-01 0.14386705E+04</pdfrwt>
<totfact> 0.36002259E+01</totfact>
</mgrwt>
</event>
<event>
 8    2  0.7266322E-052  0.1858156E+04  0.7818608E-02  0.8675970E-01
          2   -1    0    0  501    0  0.00000000000E+00  0.00000000000E+00  0.19756929541E+04  0.19756929541E+04  0.25500000000E-02 0.  1.
         -2   -1    0    0    0  501 -0.00000000000E+00 -0.00000000000E+00 -0.43690283383E+03  0.43690283384E+03  0.25500000000E-02 0. -1.
    -200001    2    1    2    0    0  0.17922642360E+03  0.11041902927E+03 -0.93464106362E+02  0.65636763269E+03  0.61462871485E+03 0.  0.
   -5000001    2    3    3    0    0  0.19194112413E+01  0.21077531555E+03  0.19056002522E+03  0.29252718943E+03  0.69491838091E+02 0.  0.
     200001    1    1    2    0    0 -0.17922642360E+03 -0.11041902927E+03  0.16322542267E+04  0.17562281553E+04  0.61300000000E+03 0.  1.
         11    1    4    4    0    0 -0.58249658526E+01  0.17294607226E+03  0.14902004758E+03  0.22836647897E+03  0.51100000000E-03 0.  1.
    -200002    1    4    4    0    0  0.77443770939E+01  0.37829243287E+02  0.41539977643E+02  0.64160710461E+02  0.30000000000E+02 0.  1.
    -200000    1    3    3    0    0  0.17730701236E+03 -0.10035628628E+03 -0.28402413158E+03  0.36384044326E+03  0.10100000000E+03 0.  1.
<mgrwt>
<rscale>  0 0.18581559E+04</rscale>
<asrwt>0</asrwt>
<pdfrwt beam="1">  1        2 0.28224186E+00 0.18581559E+04</pdfrwt>
<pdfrwt beam="2">  1       -2 0.62414689E-01 0.18581559E+04</pdfrwt>
<totfact> 0.18537048E+01</totfact>
</mgrwt>
</event>
<event>
 8    2  0.7266322E-052  0.1650730E+04  0.7818608E-02  0.8789975E-01
         -2   -1    0    0    0  501 -0.00000000000E+00  0.00000000000E+00  0.81006988254E+03  0.81006988254E+03  0.25500000000E-02 0. -1.
          2   -1    0    0  501    0  0.00000000000E+00 -0.00000000000E+00 -0.84094852940E+03  0.84094852940E+03  0.25500000000E-02 0.  1.
    -200001    2    1    2    0    0  0.18376617806E+03 -0.52125254284E+03 -0.73393707093E+02  0.82454956681E+03  0.60747109419E+03 0.  0.
   -5000001    2    3    3    0    0  0.30698465779E+03 -0.98452289651E+02  0.85662608588E+02  0.34554773028E+03  0.90181583135E+02 0.  0.
     200001    1    1    2    0    0 -0.18376617806E+03  0.52125254284E+03  0.42515060232E+02  0.82646884513E+03  0.61300000000E+03 0. -1.
         11    1    4    4    0    0  0.14529660744E+03 -0.65458777087E+02  0.78559572406E+02  0.17767262605E+03  0.51100000000E-03 0.  1.
    -200002    1    4    4    0    0  0.16168805035E+03 -0.32993512564E+02  0.71030361816E+01  0.16787510423E+03  0.30000000000E+02 0.  1.
    -200000    1    3    3    0    0 -0.12321847973E+03 -0.42280025319E+03 -0.15905631568E+03  0.47900183653E+03  0.10100000000E+03 0. -1.
<mgrwt>
<rscale>  0 0.16507296E+04</rscale>
<asrwt>0</asrwt>
<pdfrwt beam="1">  1        2 0.12013550E+00 0.16507296E+04</pdfrwt>
<pdfrwt beam="2">  1       -2 0.11572427E+00 0.16507296E+04</pdfrwt>
<totfact> 0.19802238E+01</totfact>
</mgrwt>
</event>
<event>
 8    2  0.7266322E-052  0.1407155E+04  0.7818608E-02  0.8948656E-01
          2   -1    0    0  501    0  0.00000000000E+00  0.00000000000E+00  0.82649079343E+03  0.82649079344E+03  0.25500000000E-02 0.  1.
         -2   -1    0    0    0  501 -0.00000000000E+00 -0.00000000000E+00 -0.59894338262E+03  0.59894338263E+03  0.25500000000E-02 0. -1.
    -200001    2    1    2    0    0 -0.29031010435E+03 -0.18171690702E+02  0.30314879815E+03  0.74272286314E+03  0.61247684901E+03 0.  0.
   -5000001    2    3    3    0    0 -0.23034025694E+03 -0.22610469693E+03  0.36796213676E+03  0.49526723774E+03  0.75587927301E+02 0.  0.
     200001    1    1    2    0    0  0.29031010435E+03  0.18171690702E+02 -0.75601387340E+02  0.68271131293E+03  0.61300000000E+03 0. -1.
         11    1    4    4    0    0 -0.13973638274E+03 -0.13035586152E+03  0.25762822684E+03  0.32076659826E+03  0.51100000000E-03 0.  1.
    -200002    1    4    4    0    0 -0.90603874200E+02 -0.95748835415E+02  0.11033390992E+03  0.17450063949E+03  0.30000000000E+02 0.  1.
    -200000    1    3    3    0    0 -0.59969847408E+02  0.20793300623E+03 -0.64813338605E+02  0.24745562539E+03  0.10100000000E+03 0. -1.
<mgrwt>
<rscale>  0 0.14071548E+04</rscale>
<asrwt>0</asrwt>
<pdfrwt beam="1">  1        2 0.11807011E+00 0.14071548E+04</pdfrwt>
<pdfrwt beam="2">  1       -2 0.85563340E-01 0.14071548E+04</pdfrwt>
<totfact> 0.42143876E+01</totfact>
</mgrwt>
</event>
<event>
 8    2  0.7266322E-052  0.1500677E+04  0.7818608E-02  0.8884003E-01
         -2   -1    0    0    0  501 -0.00000000000E+00  0.00000000000E+00  0.34291924428E+03  0.34291924429E+03  0.25500000000E-02 0. -1.
          2   -1    0    0  501    0  0.00000000000E+00 -0.00000000000E+00 -0.16418088156E+04  0.16418088156E+04  0.25500000000E-02 0.  1.
    -200001    2    1    2    0    0 -0.12801041138E+03 -0.30127732400E+03 -0.10241068458E+04  0.12374468293E+04  0.61263784758E+03 0.  0.
   -5000001    2    3    3    0    0  0.57836112583E+02  0.58246067503E+00 -0.80161919945E+03  0.80691226290E+03  0.71893698641E+02 0.  0.
     200001    1    1    2    0    0  0.12801041138E+03  0.30127732400E+03 -0.27478272549E+03  0.74728123060E+03  0.61300000000E+03 0.  1.
         11    1    4    4    0    0  0.37277195512E+01  0.52378457991E+01 -0.43734087841E+03  0.43738812839E+03  0.51100000000E-03 0.  1.
    -200002    1    4    4    0    0  0.54108393032E+02 -0.46553851240E+01 -0.36427832104E+03  0.36952413451E+03  0.30000000000E+02 0.  1.
    -200000    1    3    3    0    0 -0.18584652397E+03 -0.30185978467E+03 -0.22248764637E+03  0.43053456639E+03  0.10100000000E+03 0. -1.
<mgrwt>
<rscale>  0 0.15006770E+04</rscale>
<asrwt>0</asrwt>
<pdfrwt beam="1">  1        2 0.23454411E+00 0.15006770E+04</pdfrwt>
<pdfrwt beam="2">  1       -2 0.48988464E-01 0.15006770E+04</pdfrwt>
<totfact> 0.46952061E+01</totfact>
</mgrwt>
</event>
<event>
 8    2  0.7266322E-052  0.1639485E+04  0.7818608E-02  0.8796651E-01
          2   -1    0    0  501    0  0.00000000000E+00  0.00000000000E+00  0.27634007784E+04  0.27634007784E+04  0.25500000000E-02 0.  1.
         -2   -1    0    0    0  501 -0.00000000000E+00 -0.00000000000E+00 -0.24317061288E+03  0.24317061290E+03  0.25500000000E-02 0. -1.
    -200001    2    1    2    0    0  0.20369028796E+03  0.30620991448E+03  0.50276875293E+03  0.86620371344E+03  0.60189551346E+03 0.  0.
   -5000001    2    3    3    0    0 -0.14069877636E+03  0.12823916880E+03 -0.18444128542E+02  0.20882917655E+03  0.83833221439E+02 0.  0.
     200001    1    1    2    0    0 -0.20369028796E+03 -0.30620991448E+03  0.20174614126E+04  0.21403676779E+04  0.61300000000E+03 0.  1.
         11    1    4    4    0    0 -0.50805670708E+02  0.11021867223E+02 -0.25552741184E+02  0.57927888926E+02  0.51100000000E-03 0.  1.
    -200002    1    4    4    0    0 -0.89893105652E+02  0.11721730157E+03  0.71086126414E+01  0.15090128762E+03  0.30000000000E+02 0.  1.
    -200000    1    3    3    0    0  0.34438906432E+03  0.17797074568E+03  0.52121288147E+03  0.65737453689E+03  0.10100000000E+03 0.  1.
<mgrwt>
<rscale>  0 0.16394851E+04</rscale>
<asrwt>0</asrwt>
<pdfrwt beam="1">  1        2 0.39477154E+00 0.16394851E+04</pdfrwt>
<pdfrwt beam="2">  1       -2 0.34738659E-01 0.16394851E+04</pdfrwt>
<totfact> 0.23768026E+01</totfact>
</mgrwt>
</event>
<event>
 8    2  0.7266322E-052  0.1232357E+04  0.7818608E-02  0.9084997E-01
          2   -1    0    0  501    0  0.00000000000E+00  0.00000000000E+00  0.98425117985E+03  0.98425117985E+03  0.25500000000E-02 0.  1.
         -2   -1    0    0    0  501 -0.00000000000E+00 -0.00000000000E+00 -0.38575109664E+03  0.38575109665E+03  0.25500000000E-02 0. -1.
    -200001    2    1    2    0    0 -0.22987266722E+02  0.52449528003E+02  0.27261605247E+03  0.67340427988E+03  0.61308600104E+03 0.  0.
   -5000001    2    3    3    0    0 -0.22547090112E+03  0.33775692860E+02 -0.80833526360E+02  0.25331388592E+03  0.75205991340E+02 0.  0.
     200001    1    1    2    0    0  0.22987266722E+02 -0.52449528003E+02  0.32588403073E+03  0.69659799663E+03  0.61300000000E+03 0.  1.
         11    1    4    4    0    0 -0.18417084663E+03  0.38668168002E+02 -0.56030567356E+02  0.19635058554E+03  0.51100000000E-03 0.  1.
    -200002    1    4    4    0    0 -0.41300054497E+02 -0.48924751426E+01 -0.24802959004E+02  0.56963300377E+02  0.30000000000E+02 0. -1.
    -200000    1    3    3    0    0  0.20248363440E+03  0.18673835144E+02  0.35344957883E+03  0.42009039396E+03  0.10100000000E+03 0.  1.
<mgrwt>
<rscale>  0 0.12323570E+04</rscale>
<asrwt>0</asrwt>
<pdfrwt beam="1">  1        2 0.14060731E+00 0.12323570E+04</pdfrwt>
<pdfrwt beam="2">  1       -2 0.55107300E-01 0.12323570E+04</pdfrwt>
<totfact> 0.87625525E+01</totfact>
</mgrwt>
</event>
<event>
 8    2  0.7266322E-052  0.1266311E+04  0.7818608E-02  0.9056716E-01
          2   -1    0    0  501    0  0.00000000000E+00  0.00000000000E+00  0.98186004741E+03  0.98186004741E+03  0.25500000000E-02 0.  1.
         -2   -1    0    0    0  501 -0.00000000000E+00 -0.00000000000E+00 -0.40829251495E+03  0.40829251496E+03  0.25500000000E-02 0. -1.
    -200001    2    1    2    0    0  0.32943593213E+02 -0.12047141916E+02  0.12715432787E+03  0.63101873807E+03  0.61707860985E+03 0.  0.
   -5000001    2    3    3    0    0 -0.26515115489E+03 -0.98643454285E+02  0.51348754316E+02  0.29589654372E+03  0.69874201268E+02 0.  0.
     200001    1    1    2    0    0 -0.32943593213E+02  0.12047141916E+02  0.44641320460E+03  0.75913382430E+03  0.61300000000E+03 0.  1.
         11    1    4    4    0    0 -0.16351385968E+03 -0.70582654143E+02  0.88334377321E+01  0.17831635651E+03  0.51100000000E-03 0.  1.
    -200002    1    4    4    0    0 -0.10163729521E+03 -0.28060800142E+02  0.42515316584E+02  0.11758018722E+03  0.30000000000E+02 0.  1.
    -200000    1    3    3    0    0  0.29809474810E+03  0.86596312369E+02  0.75805573550E+02  0.33512219435E+03  0.10100000000E+03 0. -1.
<mgrwt>
<rscale>  0 0.12663113E+04</rscale>
<asrwt>0</asrwt>
<pdfrwt beam="1">  1        2 0.14026572E+00 0.12663113E+04</pdfrwt>
<pdfrwt beam="2">  1       -2 0.58327502E-01 0.12663113E+04</pdfrwt>
<totfact> 0.77913434E+01</totfact>
</mgrwt>
</event>
<event>
 8    2  0.7266322E-052  0.1466718E+04  0.7818608E-02  0.8906892E-01
         -2   -1    0    0    0  501 -0.00000000000E+00  0.00000000000E+00  0.24288441816E+03  0.24288441817E+03  0.25500000000E-02 0. -1.
          2   -1    0    0  501    0  0.00000000000E+00 -0.00000000000E+00 -0.22142844956E+04  0.22142844956E+04  0.25500000000E-02 0.  1.
    -200001    2    1    2    0    0  0.12948384557E+03  0.14263618006E+03 -0.15778878566E+04  0.17036889777E+04  0.61295587005E+03 0.  0.
   -5000001    2    3    3    0    0  0.57135571467E+02  0.30471783549E+03 -0.13878771818E+04  0.14247449111E+04  0.87049163843E+02 0.  0.
     200001    1    1    2    0    0 -0.12948384557E+03 -0.14263618006E+03 -0.39351222088E+03  0.75347993610E+03  0.61300000000E+03 0. -1.
         11    1    4    4    0    0  0.35847389622E+02  0.40202860000E+02 -0.28000846843E+03  0.28514215348E+03  0.51100000000E-03 0.  1.
    -200002    1    4    4    0    0  0.21288181845E+02  0.26451497549E+03 -0.11078687134E+04  0.11396027576E+04  0.30000000000E+02 0.  1.
    -200000    1    3    3    0    0  0.72348274099E+02 -0.16208165543E+03 -0.19001067474E+03  0.27894406663E+03  0.10100000000E+03 0. -1.
<mgrwt>
<rscale>  0 0.14667177E+04</rscale>
<asrwt>0</asrwt>
<pdfrwt beam="1">  1        2 0.31632634E+00 0.14667177E+04</pdfrwt>
<pdfrwt beam="2">  1       -2 0.34697775E-01 0.14667177E+04</pdfrwt>
<totfact> 0.46993083E+01</totfact>
</mgrwt>
</event>
<event>
 8    2  0.7266322E-052  0.1457016E+04  0.7818608E-02  0.8913551E-01
         -2   -1    0    0    0  501 -0.00000000000E+00  0.00000000000E+00  0.62485327881E+03  0.62485327881E+03  0.25500000000E-02 0. -1.
          2   -1    0    0  501    0  0.00000000000E+00 -0.00000000000E+00 -0.84935809673E+03  0.84935809674E+03  0.25500000000E-02 0.  1.
    -200001    2    1    2    0    0 -0.24613703044E+03  0.86676894449E+02  0.18802264839E+03  0.69060163068E+03  0.61113155230E+03 0.  0.
   -5000001    2    3    3    0    0  0.88852809036E+01 -0.14769810069E+03 -0.12630919382E+03  0.21208984958E+03  0.84465464463E+02 0.  0.
     200001    1    1    2    0    0  0.24613703044E+03 -0.86676894449E+02 -0.41252746632E+03  0.78360974487E+03  0.61300000000E+03 0.  1.
         11    1    4    4    0    0 -0.33831915909E+00 -0.95278135774E+02 -0.33542343311E+02  0.10101052624E+03  0.51100000000E-03 0.  1.
    -200002    1    4    4    0    0  0.92236000627E+01 -0.52419964915E+02 -0.92766850509E+02  0.11107932334E+03  0.30000000000E+02 0.  1.
    -200000    1    3    3    0    0 -0.25502231134E+03  0.23437499514E+03  0.31433184221E+03  0.47851178111E+03  0.10100000000E+03 0. -1.
<mgrwt>
<rscale>  0 0.14570164E+04</rscale>
<asrwt>0</asrwt>
<pdfrwt beam="1">  1        2 0.12133687E+00 0.14570164E+04</pdfrwt>
<pdfrwt beam="2">  1       -2 0.89264755E-01 0.14570164E+04</pdfrwt>
<totfact> 0.36763117E+01</totfact>
</mgrwt>
</event>
<event>
 8    2  0.7266322E-052  0.1559013E+04  0.7818608E-02  0.8846131E-01
         -2   -1    0    0    0  501 -0.00000000000E+00  0.00000000000E+00  0.37077334105E+03  0.37077334106E+03  0.25500000000E-02 0. -1.
          2   -1    0    0  501    0  0.00000000000E+00 -0.00000000000E+00 -0.16388192650E+04  0.16388192650E+04  0.25500000000E-02 0.  1.
    -200001    2    1    2    0    0 -0.25280628429E+03  0.23711191640E+03 -0.20264703043E+03  0.73249555391E+03  0.61265882780E+03 0.  0.
   -5000001    2    3    3    0    0 -0.23170065375E+03  0.35882221875E+02  0.17158895564E+03  0.29524000979E+03  0.52451567078E+02 0.  0.
     200001    1    1    2    0    0  0.25280628429E+03 -0.23711191640E+03 -0.10653988935E+04  0.12770970521E+04  0.61300000000E+03 0.  1.
         11    1    4    4    0    0 -0.11583334320E+03  0.16532589753E+02  0.10334065861E+03  0.15610887753E+03  0.51100000000E-03 0.  1.
    -200002    1    4    4    0    0 -0.11586731055E+03  0.19349632122E+02  0.68248297029E+02  0.13913113226E+03  0.30000000000E+02 0.  1.
    -200000    1    3    3    0    0 -0.21105630547E+02  0.20122969453E+03 -0.37423598606E+03  0.43725554412E+03  0.10100000000E+03 0. -1.
<mgrwt>
<rscale>  0 0.15590131E+04</rscale>
<asrwt>0</asrwt>
<pdfrwt beam="1">  1        2 0.23411704E+00 0.15590131E+04</pdfrwt>
<pdfrwt beam="2">  1       -2 0.52967621E-01 0.15590131E+04</pdfrwt>
<totfact> 0.39987400E+01</totfact>
</mgrwt>
</event>
<event>
 8    2  0.7266322E-052  0.1354694E+04  0.7818608E-02  0.8987282E-01
         -2   -1    0    0    0  501 -0.00000000000E+00  0.00000000000E+00  0.59499517743E+03  0.59499517743E+03  0.25500000000E-02 0. -1.
          2   -1    0    0  501    0  0.00000000000E+00 -0.00000000000E+00 -0.77109683813E+03  0.77109683814E+03  0.25500000000E-02 0.  1.
    -200001    2    1    2    0    0  0.63194331373E+02  0.23665281654E+03  0.64345659097E+02  0.66353810825E+03  0.61330610478E+03 0.  0.
   -5000001    2    3    3    0    0  0.99503718634E+02 -0.17812610240E+03  0.75924642902E+02  0.23494156596E+03  0.88335098555E+02 0.  0.
     200001    1    1    2    0    0 -0.63194331373E+02 -0.23665281654E+03 -0.24044731980E+03  0.70255390732E+03  0.61300000000E+03 0.  1.
         11    1    4    4    0    0  0.43981132713E+01 -0.55324387676E+02 -0.76571667428E+01  0.56024668449E+02  0.51100000000E-03 0.  1.
    -200002    1    4    4    0    0  0.95105605363E+02 -0.12280171473E+03  0.83581809645E+02  0.17891689751E+03  0.30000000000E+02 0.  1.
    -200000    1    3    3    0    0 -0.36309387262E+02  0.41477891894E+03 -0.11578983806E+02  0.42859654229E+03  0.10100000000E+03 0.  1.
<mgrwt>
<rscale>  0 0.13546939E+04</rscale>
<asrwt>0</asrwt>
<pdfrwt beam="1">  1        2 0.11015669E+00 0.13546939E+04</pdfrwt>
<pdfrwt beam="2">  1       -2 0.84999311E-01 0.13546939E+04</pdfrwt>
<totfact> 0.46971431E+01</totfact>
</mgrwt>
</event>
<event>
 8    2  0.7266322E-052  0.1241491E+04  0.7818608E-02  0.9077296E-01
         -2   -1    0    0    0  501 -0.00000000000E+00  0.00000000000E+00  0.15836052358E+03  0.15836052360E+03  0.25500000000E-02 0. -1.
          2   -1    0    0  501    0  0.00000000000E+00 -0.00000000000E+00 -0.24332117156E+04  0.24332117156E+04  0.25500000000E-02 0.  1.
    -200001    2    1    2    0    0  0.93421085877E+02  0.40806936979E+01 -0.11758665755E+04  0.13297163288E+04  0.61379081149E+03 0.  0.
   -5000001    2    3    3    0    0  0.24239417006E+03 -0.14992856806E+03 -0.42794929430E+03  0.54518265069E+03  0.18124573078E+03 0.  0.
     200001    1    1    2    0    0 -0.93421085877E+02 -0.40806936979E+01 -0.10989846165E+04  0.12618559104E+04  0.61300000000E+03 0. -1.
         11    1    4    4    0    0 -0.15038679222E+02  0.21885645462E+02 -0.28229904471E+02  0.38756558887E+02  0.51100000000E-03 0.  1.
    -200002    1    4    4    0    0  0.25743284928E+03 -0.17181421352E+03 -0.39971938983E+03  0.50642609180E+03  0.30000000000E+02 0.  1.
    -200000    1    3    3    0    0 -0.14897308418E+03  0.15400926175E+03 -0.74791728119E+03  0.78453367807E+03  0.10100000000E+03 0. -1.
<mgrwt>
<rscale>  0 0.12414905E+04</rscale>
<asrwt>0</asrwt>
<pdfrwt beam="1">  1        2 0.34760165E+00 0.12414905E+04</pdfrwt>
<pdfrwt beam="2">  1       -2 0.22622933E-01 0.12414905E+04</pdfrwt>
<totfact> 0.81091580E+01</totfact>
</mgrwt>
</event>
<event>
 8    2  0.7266322E-052  0.1584592E+04  0.7818608E-02  0.8830070E-01
         -2   -1    0    0    0  501 -0.00000000000E+00  0.00000000000E+00  0.12405733101E+04  0.12405733101E+04  0.25500000000E-02 0. -1.
          2   -1    0    0  501    0  0.00000000000E+00 -0.00000000000E+00 -0.50600229293E+03  0.50600229294E+03  0.25500000000E-02 0.  1.
    -200001    2    1    2    0    0  0.74259422884E+02 -0.86931091902E+02 -0.17100003157E+03  0.64707598915E+03  0.61351026749E+03 0.  0.
   -5000001    2    3    3    0    0 -0.22984812876E+03  0.59528545943E+02 -0.15658284745E+03  0.29445624540E+03  0.76239637094E+02 0.  0.
     200001    1    1    2    0    0 -0.74259422884E+02  0.86931091902E+02  0.90557104875E+03  0.10994996139E+04  0.61300000000E+03 0. -1.
         11    1    4    4    0    0 -0.18567773987E+03  0.32728226722E+02 -0.10678604587E+03  0.21668091633E+03  0.51100000000E-03 0.  1.
    -200002    1    4    4    0    0 -0.44170388891E+02  0.26800319221E+02 -0.49796801585E+02  0.77775329078E+02  0.30000000000E+02 0. -1.
    -200000    1    3    3    0    0  0.30410755164E+03 -0.14645963785E+03 -0.14417184117E+02  0.35261974375E+03  0.10100000000E+03 0.  1.
<mgrwt>
<rscale>  0 0.15845920E+04</rscale>
<asrwt>0</asrwt>
<pdfrwt beam="1">  1        2 0.72286043E-01 0.15845920E+04</pdfrwt>
<pdfrwt beam="2">  1       -2 0.17722476E+00 0.15845920E+04</pdfrwt>
<totfact> 0.12067677E+01</totfact>
</mgrwt>
</event>
<event>
 8    2  0.7266322E-052  0.1647507E+04  0.7818608E-02  0.8791883E-01
          2   -1    0    0  501    0  0.00000000000E+00  0.00000000000E+00  0.16349238290E+04  0.16349238290E+04  0.25500000000E-02 0.  1.
         -2   -1    0    0    0  501 -0.00000000000E+00 -0.00000000000E+00 -0.41504687091E+03  0.41504687092E+03  0.25500000000E-02 0. -1.
    -200001    2    1    2    0    0  0.38079249034E+03  0.14199730644E+03  0.10713377213E+04  0.12996380666E+04  0.61329310726E+03 0.  0.
   -5000001    2    3    3    0    0  0.25250888165E+03  0.36364147747E+03  0.76033063735E+03  0.88429576313E+03  0.88771950212E+02 0.  0.
     200001    1    1    2    0    0 -0.38079249034E+03 -0.14199730644E+03  0.14853923681E+03  0.75033263331E+03  0.61300000000E+03 0. -1.
         11    1    4    4    0    0  0.12081510851E+03  0.10765364993E+03  0.25808226002E+03  0.30461787821E+03  0.51100000000E-03 0.  1.
    -200002    1    4    4    0    0  0.13169377314E+03  0.25598782754E+03  0.50224837733E+03  0.57967788492E+03  0.30000000000E+02 0.  1.
    -200000    1    3    3    0    0  0.12828360869E+03 -0.22164417103E+03  0.31100708394E+03  0.41534230350E+03  0.10100000000E+03 0. -1.
<mgrwt>
<rscale>  0 0.16475072E+04</rscale>
<asrwt>0</asrwt>
<pdfrwt beam="1">  1        2 0.23356054E+00 0.16475072E+04</pdfrwt>
<pdfrwt beam="2">  1       -2 0.59292412E-01 0.16475072E+04</pdfrwt>
<totfact> 0.31543345E+01</totfact>
</mgrwt>
</event>
<event>
 8    2  0.7266322E-052  0.3341887E+04  0.7818608E-02  0.8152318E-01
          2   -1    0    0  501    0  0.00000000000E+00  0.00000000000E+00  0.17027247195E+04  0.17027247195E+04  0.25500000000E-02 0.  1.
         -2   -1    0    0    0  501 -0.00000000000E+00 -0.00000000000E+00 -0.16397553387E+04  0.16397553388E+04  0.25500000000E-02 0. -1.
    -200001    2    1    2    0    0  0.85206958525E+03  0.34634618780E+03  0.12849883002E+04  0.16947308360E+04  0.61232296613E+03 0.  0.
   -5000001    2    3    3    0    0  0.23769995134E+03  0.28761327773E+03  0.16939200168E+03  0.41580327623E+03  0.70541122062E+02 0.  0.
     200001    1    1    2    0    0 -0.85206958525E+03 -0.34634618780E+03 -0.12220189195E+04  0.16477492223E+04  0.61300000000E+03 0. -1.
         11    1    4    4    0    0  0.15097826183E+03  0.21236617614E+03  0.10641207778E+03  0.28145578447E+03  0.51100000000E-03 0.  1.
    -200002    1    4    4    0    0  0.86721689509E+02  0.75247101583E+02  0.62979923902E+02  0.13434749176E+03  0.30000000000E+02 0.  1.
    -200000    1    3    3    0    0  0.61436963391E+03  0.58732910071E+02  0.11155962985E+04  0.12789275598E+04  0.10100000000E+03 0.  1.
<mgrwt>
<rscale>  0 0.33418869E+04</rscale>
<asrwt>0</asrwt>
<pdfrwt beam="1">  1        2 0.24324639E+00 0.33418869E+04</pdfrwt>
<pdfrwt beam="2">  1       -2 0.23425076E+00 0.33418869E+04</pdfrwt>
<totfact> 0.77223686E-01</totfact>
</mgrwt>
</event>
<event>
 8    2  0.7266322E-052  0.1694130E+04  0.7818608E-02  0.8764720E-01
         -2   -1    0    0    0  501 -0.00000000000E+00  0.00000000000E+00  0.34727335198E+03  0.34727335199E+03  0.25500000000E-02 0. -1.
          2   -1    0    0  501    0  0.00000000000E+00 -0.00000000000E+00 -0.20661498175E+04  0.20661498175E+04  0.25500000000E-02 0.  1.
    -200001    2    1    2    0    0  0.49548187589E+03  0.23146695132E+03 -0.56583388926E+03  0.99767057050E+03  0.61326938462E+03 0.  0.
   -5000001    2    3    3    0    0 -0.12415318000E+02 -0.13323769968E+03 -0.15901809429E+02  0.15886467254E+03  0.84134962422E+02 0.  0.
     200001    1    1    2    0    0 -0.49548187589E+03 -0.23146695132E+03 -0.11530425762E+04  0.14157525990E+04  0.61300000000E+03 0.  1.
         11    1    4    4    0    0 -0.39350714737E+02 -0.38740816732E+02 -0.83583121506E+01  0.55849718116E+02  0.51100000000E-03 0.  1.
    -200002    1    4    4    0    0  0.26935396737E+02 -0.94496882947E+02 -0.75434972788E+01  0.10301495443E+03  0.30000000000E+02 0.  1.
    -200000    1    3    3    0    0  0.50789719389E+03  0.36470465100E+03 -0.54993207983E+03  0.83880589796E+03  0.10100000000E+03 0. -1.
<mgrwt>
<rscale>  0 0.16941296E+04</rscale>
<asrwt>0</asrwt>
<pdfrwt beam="1">  1        2 0.29516425E+00 0.16941296E+04</pdfrwt>
<pdfrwt beam="2">  1       -2 0.49610480E-01 0.16941296E+04</pdfrwt>
<totfact> 0.27212247E+01</totfact>
</mgrwt>
</event>
<event>
 8    2  0.7266322E-052  0.1499585E+04  0.7818608E-02  0.8884729E-01
         -2   -1    0    0    0  501 -0.00000000000E+00  0.00000000000E+00  0.10884736519E+04  0.10884736519E+04  0.25500000000E-02 0. -1.
          2   -1    0    0  501    0  0.00000000000E+00 -0.00000000000E+00 -0.51649273688E+03  0.51649273689E+03  0.25500000000E-02 0.  1.
    -200001    2    1    2    0    0 -0.42343857818E+03 -0.10553533172E+02  0.33785478421E+03  0.82394420491E+03  0.62074680108E+03 0.  0.
   -5000001    2    3    3    0    0 -0.61906417248E+02  0.13351159069E+03 -0.12502521964E+03  0.21082173651E+03  0.84597574974E+02 0.  0.
     200001    1    1    2    0    0  0.42343857818E+03  0.10553533172E+02  0.23412613077E+03  0.78102218385E+03  0.61300000000E+03 0.  1.
         11    1    4    4    0    0 -0.46967512041E+02  0.10267217122E+03 -0.50956878336E+02  0.12387140663E+03  0.51100000000E-03 0.  1.
    -200002    1    4    4    0    0 -0.14938905207E+02  0.30839419475E+02 -0.74068341307E+02  0.86950329880E+02  0.30000000000E+02 0.  1.
    -200000    1    3    3    0    0 -0.36153216093E+03 -0.14406512386E+03  0.46288000385E+03  0.61312246841E+03  0.10100000000E+03 0. -1.
<mgrwt>
<rscale>  0 0.14995849E+04</rscale>
<asrwt>0</asrwt>
<pdfrwt beam="1">  1        2 0.73784677E-01 0.14995849E+04</pdfrwt>
<pdfrwt beam="2">  1       -2 0.15549624E+00 0.14995849E+04</pdfrwt>
<totfact> 0.17028575E+01</totfact>
</mgrwt>
</event>
<event>
 8    2  0.7266322E-052  0.1596913E+04  0.7818608E-02  0.8822447E-01
          2   -1    0    0  501    0  0.00000000000E+00  0.00000000000E+00  0.14836343473E+04  0.14836343473E+04  0.25500000000E-02 0. -1.
         -2   -1    0    0    0  501 -0.00000000000E+00 -0.00000000000E+00 -0.42970996248E+03  0.42970996249E+03  0.25500000000E-02 0.  1.
    -200001    2    1    2    0    0 -0.84750515064E+02  0.50525445216E+03  0.53681817741E+03  0.96169703219E+03  0.61173745585E+03 0.  0.
   -5000001    2    3    3    0    0 -0.63240339662E+02  0.17273891401E+02 -0.12890813626E+02  0.21942438002E+03  0.20900516163E+03 0.  0.
     200001    1    1    2    0    0  0.84750515064E+02 -0.50525445216E+03  0.51710620740E+03  0.95164727760E+03  0.61300000000E+03 0. -1.
         11    1    4    4    0    0 -0.98953731174E+02 -0.40393148418E+01  0.70473036222E+02  0.12155083633E+03  0.51100000000E-03 0.  1.
    -200002    1    4    4    0    0  0.35713391512E+02  0.21313206243E+02 -0.83363849849E+02  0.97873543694E+02  0.30000000000E+02 0.  1.
    -200000    1    3    3    0    0 -0.21510175402E+02  0.48798056076E+03  0.54970899104E+03  0.74227265216E+03  0.10100000000E+03 0. -1.
<mgrwt>
<rscale>  0 0.15969126E+04</rscale>
<asrwt>0</asrwt>
<pdfrwt beam="1">  1        2 0.21194776E+00 0.15969126E+04</pdfrwt>
<pdfrwt beam="2">  1       -2 0.61387138E-01 0.15969126E+04</pdfrwt>
<totfact> 0.35367667E+01</totfact>
</mgrwt>
</event>
<event>
 8    2  0.7266322E-052  0.1432346E+04  0.7818608E-02  0.8930732E-01
          2   -1    0    0  501    0  0.00000000000E+00  0.00000000000E+00  0.15411883841E+04  0.15411883841E+04  0.25500000000E-02 0.  1.
         -2   -1    0    0    0  501 -0.00000000000E+00 -0.00000000000E+00 -0.33279756256E+03  0.33279756257E+03  0.25500000000E-02 0. -1.
    -200001    2    1    2    0    0  0.25413360327E+03 -0.98179286194E+02  0.27654394338E+03  0.72580013206E+03  0.61325868810E+03 0.  0.
   -5000001    2    3    3    0    0  0.28215497312E+03 -0.20301436702E+03  0.19988073819E+03  0.55890543960E+03  0.38935423312E+03 0.  0.
     200001    1    1    2    0    0 -0.25413360327E+03  0.98179286194E+02  0.93184687819E+03  0.11481858146E+04  0.61300000000E+03 0.  1.
         11    1    4    4    0    0 -0.98375221295E+02 -0.33477120658E+02  0.31626476269E+02  0.10862152537E+03  0.51100000000E-03 0.  1.
    -200002    1    4    4    0    0  0.38053019441E+03 -0.16953724636E+03  0.16825426193E+03  0.45028391423E+03  0.30000000000E+02 0.  1.
    -200000    1    3    3    0    0 -0.28021369849E+02  0.10483508082E+03  0.76663205189E+02  0.16689469245E+03  0.10100000000E+03 0.  1.
<mgrwt>
<rscale>  0 0.14323460E+04</rscale>
<asrwt>0</asrwt>
<pdfrwt beam="1">  1        2 0.22016977E+00 0.14323460E+04</pdfrwt>
<pdfrwt beam="2">  1       -2 0.47542509E-01 0.14323460E+04</pdfrwt>
<totfact> 0.56636922E+01</totfact>
</mgrwt>
</event>
<event>
 8    2  0.7266322E-052  0.2490276E+04  0.7818608E-02  0.8406458E-01
         -2   -1    0    0    0  501 -0.00000000000E+00  0.00000000000E+00  0.53312304047E+03  0.53312304048E+03  0.25500000000E-02 0. -1.
          2   -1    0    0  501    0  0.00000000000E+00 -0.00000000000E+00 -0.29080871624E+04  0.29080871624E+04  0.25500000000E-02 0.  1.
    -200001    2    1    2    0    0 -0.56506244011E+03  0.89106273692E+03 -0.15299412589E+04  0.19569187890E+04  0.61279892996E+03 0.  0.
   -5000001    2    3    3    0    0 -0.23871462602E+03  0.82942990184E+03 -0.11490749035E+04  0.14415920161E+04  0.11347146066E+03 0.  0.
     200001    1    1    2    0    0  0.56506244011E+03 -0.89106273692E+03 -0.84502286301E+03  0.14842914139E+04  0.61300000000E+03 0. -1.
         11    1    4    4    0    0 -0.10671197211E+03  0.24927333077E+03 -0.42222980517E+03  0.50179940893E+03  0.51100000000E-03 0.  1.
    -200002    1    4    4    0    0 -0.13200265392E+03  0.58015657107E+03 -0.72684509829E+03  0.93979260718E+03  0.30000000000E+02 0.  1.
    -200000    1    3    3    0    0 -0.32634781409E+03  0.61632835082E+02 -0.38086635542E+03  0.51532677285E+03  0.10100000000E+03 0.  1.
<mgrwt>
<rscale>  0 0.24902757E+04</rscale>
<asrwt>0</asrwt>
<pdfrwt beam="1">  1        2 0.41544101E+00 0.24902757E+04</pdfrwt>
<pdfrwt beam="2">  1       -2 0.76160436E-01 0.24902757E+04</pdfrwt>
<totfact> 0.36744235E+00</totfact>
</mgrwt>
</event>
<event>
 8    2  0.7266322E-052  0.2409484E+04  0.7818608E-02  0.8435962E-01
         -2   -1    0    0    0  501 -0.00000000000E+00  0.00000000000E+00  0.59890799121E+03  0.59890799122E+03  0.25500000000E-02 0. -1.
          2   -1    0    0  501    0  0.00000000000E+00 -0.00000000000E+00 -0.24234153290E+04  0.24234153290E+04  0.25500000000E-02 0.  1.
    -200001    2    1    2    0    0  0.55132220471E+03  0.66984170547E+03 -0.19747164730E+03  0.10792180163E+04  0.61079652220E+03 0.  0.
   -5000001    2    3    3    0    0  0.16384865316E+03  0.13422775658E+03  0.19273759655E+03  0.30495558708E+03  0.10481725615E+03 0.  0.
     200001    1    1    2    0    0 -0.55132220471E+03 -0.66984170547E+03 -0.16270356904E+04  0.19431053038E+04  0.61300000000E+03 0.  1.
         11    1    4    4    0    0  0.39460963738E+02  0.63255484435E+02  0.17348773645E+02  0.76546743350E+02  0.51100000000E-03 0.  1.
    -200002    1    4    4    0    0  0.12438768942E+03  0.70972272146E+02  0.17538882290E+03  0.22840884373E+03  0.30000000000E+02 0.  1.
    -200000    1    3    3    0    0  0.38747355155E+03  0.53561394889E+03 -0.39020924385E+03  0.77426242927E+03  0.10100000000E+03 0. -1.
<mgrwt>
<rscale>  0 0.24094836E+04</rscale>
<asrwt>0</asrwt>
<pdfrwt beam="1">  1        2 0.34620218E+00 0.24094836E+04</pdfrwt>
<pdfrwt beam="2">  1       -2 0.85558286E-01 0.24094836E+04</pdfrwt>
<totfact> 0.51859482E+00</totfact>
</mgrwt>
</event>
<event>
 8    2  0.7266322E-052  0.2286305E+04  0.7818608E-02  0.8483341E-01
         -2   -1    0    0    0  501 -0.00000000000E+00  0.00000000000E+00  0.72632109362E+03  0.72632109363E+03  0.25500000000E-02 0. -1.
          2   -1    0    0  501    0  0.00000000000E+00 -0.00000000000E+00 -0.17992002323E+04  0.17992002323E+04  0.25500000000E-02 0.  1.
    -200001    2    1    2    0    0  0.22052956305E+03 -0.14976171477E+03  0.48799053799E+03  0.82753869736E+03  0.61288144944E+03 0.  0.
   -5000001    2    3    3    0    0  0.85718627610E+02  0.19654627787E+03  0.35034997602E+03  0.41857764985E+03  0.80523417681E+02 0.  0.
     200001    1    1    2    0    0 -0.22052956305E+03  0.14976171477E+03 -0.15608696767E+04  0.16979826286E+04  0.61300000000E+03 0.  1.
         11    1    4    4    0    0  0.22165014635E+02  0.31755971610E+02  0.22013101690E+02  0.44545552561E+02  0.51100000000E-03 0.  1.
    -200002    1    4    4    0    0  0.63553612975E+02  0.16479030626E+03  0.32833687433E+03  0.37403209729E+03  0.30000000000E+02 0.  1.
    -200000    1    3    3    0    0  0.13481093544E+03 -0.34630799264E+03  0.13764056197E+03  0.40896104751E+03  0.10100000000E+03 0. -1.
<mgrwt>
<rscale>  0 0.22863045E+04</rscale>
<asrwt>0</asrwt>
<pdfrwt beam="1">  1        2 0.25702860E+00 0.22863045E+04</pdfrwt>
<pdfrwt beam="2">  1       -2 0.10376016E+00 0.22863045E+04</pdfrwt>
<totfact> 0.70299090E+00</totfact>
</mgrwt>
</event>
<event>
 8    2  0.7266322E-052  0.1872212E+04  0.7818608E-02  0.8668813E-01
          2   -1    0    0  501    0  0.00000000000E+00  0.00000000000E+00  0.11415959328E+04  0.11415959328E+04  0.25500000000E-02 0. -1.
         -2   -1    0    0    0  501 -0.00000000000E+00 -0.00000000000E+00 -0.76760501153E+03  0.76760501153E+03  0.25500000000E-02 0.  1.
    -200001    2    1    2    0    0  0.55121414479E+03 -0.28202510483E+03  0.53621821711E+03  0.10229380664E+04  0.61277819659E+03 0.  0.
   -5000001    2    3    3    0    0  0.97607473263E+02 -0.19158099077E+03  0.43465712839E+03  0.53873273295E+03  0.23468200492E+03 0.  0.
     200001    1    1    2    0    0 -0.55121414479E+03  0.28202510483E+03 -0.16222729587E+03  0.88626287787E+03  0.61300000000E+03 0.  1.
         11    1    4    4    0    0  0.25351981436E+02 -0.19772662286E+03  0.16777384622E+03  0.26055057825E+03  0.51100000000E-03 0.  1.
    -200002    1    4    4    0    0  0.72255491827E+02  0.61456320904E+01  0.26688328217E+03  0.27818215470E+03  0.30000000000E+02 0.  1.
    -200000    1    3    3    0    0  0.45360667152E+03 -0.90444114053E+02  0.10156108872E+03  0.48420533347E+03  0.10100000000E+03 0. -1.
<mgrwt>
<rscale>  0 0.18722123E+04</rscale>
<asrwt>0</asrwt>
<pdfrwt beam="1">  1        2 0.16308513E+00 0.18722123E+04</pdfrwt>
<pdfrwt beam="2">  1       -2 0.10965786E+00 0.18722123E+04</pdfrwt>
<totfact> 0.14402736E+01</totfact>
</mgrwt>
</event>
<event>
 8    2  0.7266322E-052  0.1316984E+04  0.7818608E-02  0.9016204E-01
          2   -1    0    0  501    0  0.00000000000E+00  0.00000000000E+00  0.89265108162E+03  0.89265108162E+03  0.25500000000E-02 0.  1.
         -2   -1    0    0    0  501 -0.00000000000E+00 -0.00000000000E+00 -0.48575758496E+03  0.48575758497E+03  0.25500000000E-02 0. -1.
    -200001    2    1    2    0    0 -0.74339085057E+02  0.20356265162E+03  0.31325572169E+03  0.72152124427E+03  0.61278030815E+03 0.  0.
   -5000001    2    3    3    0    0 -0.19779695498E+02 -0.13778177858E+03 -0.81735493472E+02  0.18700107901E+03  0.94412169729E+02 0.  0.
     200001    1    1    2    0    0  0.74339085057E+02 -0.20356265162E+03  0.93637774969E+02  0.65688742232E+03  0.61300000000E+03 0. -1.
         11    1    4    4    0    0 -0.39107796689E+02 -0.94721825987E+02 -0.21316074253E+02  0.10467100411E+03  0.51100000000E-03 0.  1.
    -200002    1    4    4    0    0  0.19328101191E+02 -0.43059952596E+02 -0.60419419219E+02  0.82330074894E+02  0.30000000000E+02 0.  1.
    -200000    1    3    3    0    0 -0.54559389559E+02  0.34134443020E+03  0.39499121516E+03  0.53452016526E+03  0.10100000000E+03 0.  1.
<mgrwt>
<rscale>  0 0.13169845E+04</rscale>
<asrwt>0</asrwt>
<pdfrwt beam="1">  1        2 0.12752158E+00 0.13169845E+04</pdfrwt>
<pdfrwt beam="2">  1       -2 0.69393941E-01 0.13169845E+04</pdfrwt>
<totfact> 0.61073130E+01</totfact>
</mgrwt>
</event>
<event>
 8    2  0.7266322E-052  0.1760341E+04  0.7818608E-02  0.8727679E-01
         -2   -1    0    0    0  501 -0.00000000000E+00  0.00000000000E+00  0.31646750762E+03  0.31646750763E+03  0.25500000000E-02 0. -1.
          2   -1    0    0  501    0  0.00000000000E+00 -0.00000000000E+00 -0.24479612486E+04  0.24479612486E+04  0.25500000000E-02 0.  1.
    -200001    2    1    2    0    0  0.33167134504E+03 -0.53472441877E+03 -0.11570756092E+04  0.14524852434E+04  0.61233433017E+03 0.  0.
   -5000001    2    3    3    0    0  0.30513882704E+03 -0.54620367101E+03 -0.55145325991E+03  0.83781852263E+03  0.79943886597E+02 0.  0.
     200001    1    1    2    0    0 -0.33167134504E+03  0.53472441877E+03 -0.97441813178E+03  0.13119435128E+04  0.61300000000E+03 0.  1.
         11    1    4    4    0    0  0.15206340325E+03 -0.23507898254E+03 -0.20737672565E+03  0.34841141339E+03  0.51100000000E-03 0.  1.
    -200002    1    4    4    0    0  0.15307542379E+03 -0.31112468847E+03 -0.34407653427E+03  0.48940710924E+03  0.30000000000E+02 0.  1.
    -200000    1    3    3    0    0  0.26532517999E+02  0.11479252237E+02 -0.60562234925E+03  0.61466672079E+03  0.10100000000E+03 0.  1.
<mgrwt>
<rscale>  0 0.17603411E+04</rscale>
<asrwt>0</asrwt>
<pdfrwt beam="1">  1        2 0.34970874E+00 0.17603411E+04</pdfrwt>
<pdfrwt beam="2">  1       -2 0.45209645E-01 0.17603411E+04</pdfrwt>
<totfact> 0.20695587E+01</totfact>
</mgrwt>
</event>
<event>
 8    2  0.7266322E-052  0.3007020E+04  0.7818608E-02  0.8241729E-01
         -2   -1    0    0    0  501 -0.00000000000E+00  0.00000000000E+00  0.12955928730E+04  0.12955928730E+04  0.25500000000E-02 0. -1.
          2   -1    0    0  501    0  0.00000000000E+00 -0.00000000000E+00 -0.17447934177E+04  0.17447934177E+04  0.25500000000E-02 0.  1.
    -200001    2    1    2    0    0 -0.12077018906E+04  0.64713214871E+03 -0.13625117410E+03  0.15070793472E+04  0.61269886730E+03 0.  0.
   -5000001    2    3    3    0    0  0.11793795660E+02  0.16285523389E+03 -0.38505850109E+01  0.18442112419E+03  0.85646968547E+02 0.  0.
     200001    1    1    2    0    0  0.12077018906E+04 -0.64713214871E+03 -0.31294937066E+03  0.15333069435E+04  0.61300000000E+03 0. -1.
         11    1    4    4    0    0 -0.12505371044E+02  0.11302706459E+03 -0.27673322815E+02  0.11703552636E+03  0.51100000000E-03 0.  1.
    -200002    1    4    4    0    0  0.24299166704E+02  0.49828169300E+02  0.23822737804E+02  0.67385597829E+02  0.30000000000E+02 0.  1.
    -200000    1    3    3    0    0 -0.12194956862E+04  0.48427691482E+03 -0.13240058909E+03  0.13226582230E+04  0.10100000000E+03 0.  1.
<mgrwt>
<rscale>  0 0.30070197E+04</rscale>
<asrwt>0</asrwt>
<pdfrwt beam="1">  1        2 0.24925620E+00 0.30070197E+04</pdfrwt>
<pdfrwt beam="2">  1       -2 0.18508470E+00 0.30070197E+04</pdfrwt>
<totfact> 0.15687834E+00</totfact>
</mgrwt>
</event>
<event>
 8    2  0.7266322E-052  0.1603952E+04  0.7818608E-02  0.8818124E-01
         -2   -1    0    0    0  501 -0.00000000000E+00  0.00000000000E+00  0.20340951462E+04  0.20340951462E+04  0.25500000000E-02 0. -1.
          2   -1    0    0  501    0  0.00000000000E+00 -0.00000000000E+00 -0.31619249378E+03  0.31619249379E+03  0.25500000000E-02 0.  1.
    -200001    2    1    2    0    0 -0.37676651121E+03  0.26245899877E+03  0.50985277672E+03  0.91990614116E+03  0.61273136416E+03 0.  0.
   -5000001    2    3    3    0    0  0.78690664814E+02  0.42913659974E+02 -0.38903739969E+02  0.16692798107E+03  0.13534270183E+03 0.  0.
     200001    1    1    2    0    0  0.37676651121E+03 -0.26245899877E+03  0.12080498757E+04  0.14303814988E+04  0.61300000000E+03 0. -1.
         11    1    4    4    0    0  0.38696722786E+02 -0.20429685953E+02  0.36122983875E+02  0.56742209922E+02  0.51100000000E-03 0.  1.
    -200002    1    4    4    0    0  0.39993942028E+02  0.63343345927E+02 -0.75026723844E+02  0.11018577115E+03  0.30000000000E+02 0.  1.
    -200000    1    3    3    0    0 -0.45545717602E+03  0.21954533880E+03  0.54875651669E+03  0.75297816010E+03  0.10100000000E+03 0.  1.
<mgrwt>
<rscale>  0 0.16039521E+04</rscale>
<asrwt>0</asrwt>
<pdfrwt beam="1">  1        2 0.45170358E-01 0.16039521E+04</pdfrwt>
<pdfrwt beam="2">  1       -2 0.29058501E+00 0.16039521E+04</pdfrwt>
<totfact> 0.39309077E+00</totfact>
</mgrwt>
</event>
<event>
 8    2  0.7266322E-052  0.1781856E+04  0.7818608E-02  0.8716008E-01
         -2   -1    0    0    0  501 -0.00000000000E+00  0.00000000000E+00  0.16646712697E+04  0.16646712697E+04  0.25500000000E-02 0. -1.
          2   -1    0    0  501    0  0.00000000000E+00 -0.00000000000E+00 -0.47682228677E+03  0.47682228677E+03  0.25500000000E-02 0.  1.
    -200001    2    1    2    0    0 -0.42810077697E+03  0.17745545810E+03  0.11357281589E+04  0.13712687223E+04  0.61297532003E+03 0.  0.
   -5000001    2    3    3    0    0  0.53052520514E+02 -0.44527137897E+02  0.56328689117E+03  0.58470990465E+03  0.14069937773E+03 0.  0.
     200001    1    1    2    0    0  0.42810077697E+03 -0.17745545810E+03  0.52120824007E+02  0.77022483415E+03  0.61300000000E+03 0.  1.
         11    1    4    4    0    0  0.86910565680E+01 -0.24645200890E+02  0.92283535224E+01  0.27714308582E+02  0.51100000000E-03 0.  1.
    -200002    1    4    4    0    0  0.44361463946E+02 -0.19881937008E+02  0.55405853765E+03  0.55699559607E+03  0.30000000000E+02 0.  1.
    -200000    1    3    3    0    0 -0.48115329748E+03  0.22198259600E+03  0.57244126773E+03  0.78655881764E+03  0.10100000000E+03 0. -1.
<mgrwt>
<rscale>  0 0.17818556E+04</rscale>
<asrwt>0</asrwt>
<pdfrwt beam="1">  1        2 0.68117470E-01 0.17818556E+04</pdfrwt>
<pdfrwt beam="2">  1       -2 0.23781018E+00 0.17818556E+04</pdfrwt>
<totfact> 0.51351976E+00</totfact>
</mgrwt>
</event>
<event>
 8    2  0.7266322E-052  0.1302835E+04  0.7818608E-02  0.9027320E-01
         -2   -1    0    0    0  501 -0.00000000000E+00  0.00000000000E+00  0.14962315929E+03  0.14962315931E+03  0.25500000000E-02 0. -1.
          2   -1    0    0  501    0  0.00000000000E+00 -0.00000000000E+00 -0.28360896224E+04  0.28360896224E+04  0.25500000000E-02 0.  1.
    -200001    2    1    2    0    0 -0.20787170657E+03  0.63115749271E+02 -0.12476833221E+04  0.14067700434E+04  0.61244921292E+03 0.  0.
   -5000001    2    3    3    0    0 -0.86324931166E+02 -0.19112972804E+03 -0.97046112747E+03  0.99876572164E+03  0.10842324526E+03 0.  0.
     200001    1    1    2    0    0  0.20787170657E+03 -0.63115749271E+02 -0.14387831410E+04  0.15789427383E+04  0.61300000000E+03 0.  1.
         11    1    4    4    0    0 -0.46499404546E+02 -0.16569808103E+03 -0.82815298026E+03  0.84584597144E+03  0.51100000000E-03 0.  1.
    -200002    1    4    4    0    0 -0.39825526620E+02 -0.25431647003E+02 -0.14230814721E+03  0.15291975020E+03  0.30000000000E+02 0.  1.
    -200000    1    3    3    0    0 -0.12154677540E+03  0.25424547731E+03 -0.27722219468E+03  0.40800432175E+03  0.10100000000E+03 0. -1.
<mgrwt>
<rscale>  0 0.13028349E+04</rscale>
<asrwt>0</asrwt>
<pdfrwt beam="1">  1        2 0.40515563E+00 0.13028349E+04</pdfrwt>
<pdfrwt beam="2">  1       -2 0.21374739E-01 0.13028349E+04</pdfrwt>
<totfact> 0.54544043E+01</totfact>
</mgrwt>
</event>
<event>
 8    2  0.7266322E-052  0.1457742E+04  0.7818608E-02  0.8913051E-01
          2   -1    0    0  501    0  0.00000000000E+00  0.00000000000E+00  0.26857762852E+04  0.26857762852E+04  0.25500000000E-02 0.  1.
         -2   -1    0    0    0  501 -0.00000000000E+00 -0.00000000000E+00 -0.19780240561E+03  0.19780240563E+03  0.25500000000E-02 0. -1.
    -200001    2    1    2    0    0 -0.22568772058E+03 -0.31470433463E+03  0.13913484149E+04  0.15689189724E+04  0.61292949421E+03 0.  0.
   -5000001    2    3    3    0    0 -0.18087260543E+03  0.37203546636E+02  0.10386348219E+04  0.10585706304E+04  0.87809356591E+02 0.  0.
     200001    1    1    2    0    0  0.22568772058E+03  0.31470433463E+03  0.10966254648E+04  0.13146597185E+04  0.61300000000E+03 0. -1.
         11    1    4    4    0    0 -0.74017024777E+02  0.54796757961E+02  0.46331257293E+03  0.47237669807E+03  0.51100000000E-03 0.  1.
    -200002    1    4    4    0    0 -0.10685558065E+03 -0.17593211326E+02  0.57532224896E+03  0.58619393237E+03  0.30000000000E+02 0.  1.
    -200000    1    3    3    0    0 -0.44815115148E+02 -0.35190788127E+03  0.35271359296E+03  0.51034834192E+03  0.10100000000E+03 0. -1.
<mgrwt>
<rscale>  0 0.14577421E+04</rscale>
<asrwt>0</asrwt>
<pdfrwt beam="1">  1        2 0.38368228E+00 0.14577421E+04</pdfrwt>
<pdfrwt beam="2">  1       -2 0.28257490E-01 0.14577421E+04</pdfrwt>
<totfact> 0.39148017E+01</totfact>
</mgrwt>
</event>
<event>
 8    2  0.7266322E-052  0.2152198E+04  0.7818608E-02  0.8538592E-01
         -2   -1    0    0    0  501 -0.00000000000E+00  0.00000000000E+00  0.47612527126E+03  0.47612527126E+03  0.25500000000E-02 0.  1.
          2   -1    0    0  501    0  0.00000000000E+00 -0.00000000000E+00 -0.24321105066E+04  0.24321105066E+04  0.25500000000E-02 0. -1.
    -200001    2    1    2    0    0 -0.58688316805E+03  0.29040105490E+01 -0.18720737054E+04  0.20554459849E+04  0.61299098849E+03 0.  0.
   -5000001    2    3    3    0    0 -0.12138323951E+03  0.21194881889E+03 -0.29022271653E+03  0.39026026957E+03  0.91747807358E+02 0.  0.
     200001    1    1    2    0    0  0.58688316805E+03 -0.29040105490E+01 -0.83911529949E+02  0.85278979302E+03  0.61300000000E+03 0.  1.
         11    1    4    4    0    0 -0.87750981888E+02  0.16556881962E+03 -0.25552575750E+03  0.31687013365E+03  0.51100000000E-03 0.  1.
    -200002    1    4    4    0    0 -0.33632257623E+02  0.46379999269E+02 -0.34696959028E+02  0.73390135923E+02  0.30000000000E+02 0.  1.
    -200000    1    3    3    0    0 -0.46549992854E+03 -0.20904480834E+03 -0.15818509889E+04  0.16651857153E+04  0.10100000000E+03 0. -1.
<mgrwt>
<rscale>  0 0.21521982E+04</rscale>
<asrwt>0</asrwt>
<pdfrwt beam="1">  1        2 0.34744435E+00 0.21521982E+04</pdfrwt>
<pdfrwt beam="2">  1       -2 0.68017897E-01 0.21521982E+04</pdfrwt>
<totfact> 0.87286680E+00</totfact>
</mgrwt>
</event>
<event>
 8    2  0.7266322E-052  0.1941891E+04  0.7818608E-02  0.8634281E-01
         -2   -1    0    0    0  501 -0.00000000000E+00  0.00000000000E+00  0.40731312496E+03  0.40731312497E+03  0.25500000000E-02 0. -1.
          2   -1    0    0  501    0  0.00000000000E+00 -0.00000000000E+00 -0.23145220819E+04  0.23145220819E+04  0.25500000000E-02 0.  1.
    -200001    2    1    2    0    0  0.61109648992E+02  0.54116750590E+03 -0.22431584210E+03  0.84980558781E+03  0.61258083663E+03 0.  0.
   -5000001    2    3    3    0    0  0.32056834628E+03  0.30291672804E+03 -0.12927399990E+03  0.47123432567E+03  0.10405485995E+03 0.  0.
     200001    1    1    2    0    0 -0.61109648992E+02 -0.54116750590E+03 -0.16828931148E+04  0.18720296191E+04  0.61300000000E+03 0.  1.
         11    1    4    4    0    0  0.26473438483E+03  0.23556062703E+03 -0.13343139464E+03  0.37865160847E+03  0.51100000000E-03 0.  1.
    -200002    1    4    4    0    0  0.55833961445E+02  0.67356101011E+02  0.41573947365E+01  0.92582717205E+02  0.30000000000E+02 0.  1.
    -200000    1    3    3    0    0 -0.25945869728E+03  0.23825077786E+03 -0.95041842196E+02  0.37857126213E+03  0.10100000000E+03 0. -1.
<mgrwt>
<rscale>  0 0.19418911E+04</rscale>
<asrwt>0</asrwt>
<pdfrwt beam="1">  1        2 0.33064600E+00 0.19418911E+04</pdfrwt>
<pdfrwt beam="2">  1       -2 0.58187591E-01 0.19418911E+04</pdfrwt>
<totfact> 0.14272532E+01</totfact>
</mgrwt>
</event>
<event>
 8    2  0.7266322E-052  0.1426738E+04  0.7818608E-02  0.8934688E-01
          2   -1    0    0  501    0  0.00000000000E+00  0.00000000000E+00  0.18541408545E+04  0.18541408545E+04  0.25500000000E-02 0.  1.
         -2   -1    0    0    0  501 -0.00000000000E+00 -0.00000000000E+00 -0.27446441100E+03  0.27446441101E+03  0.25500000000E-02 0. -1.
    -200001    2    1    2    0    0 -0.19693357790E+03 -0.26115108834E+03  0.10297739264E+04  0.12425214640E+04  0.61354912098E+03 0.  0.
   -5000001    2    3    3    0    0  0.15121600801E+03 -0.34880172964E+02  0.64329505011E+03  0.66634997635E+03  0.78172002287E+02 0.  0.
     200001    1    1    2    0    0  0.19693357790E+03  0.26115108834E+03  0.54990251707E+03  0.88608380152E+03  0.61300000000E+03 0. -1.
         11    1    4    4    0    0  0.61296418701E+02 -0.43078544888E+02  0.21710282547E+03  0.22966638588E+03  0.51100000000E-03 0.  1.
    -200002    1    4    4    0    0  0.89919589305E+02  0.81983719239E+01  0.42619222463E+03  0.43668359046E+03  0.30000000000E+02 0.  1.
    -200000    1    3    3    0    0 -0.34814958591E+03 -0.22627091538E+03  0.38647887629E+03  0.57617148761E+03  0.10100000000E+03 0.  1.
<mgrwt>
<rscale>  0 0.14267385E+04</rscale>
<asrwt>0</asrwt>
<pdfrwt beam="1">  1        2 0.26487727E+00 0.14267385E+04</pdfrwt>
<pdfrwt beam="2">  1       -2 0.39209201E-01 0.14267385E+04</pdfrwt>
<totfact> 0.57052778E+01</totfact>
</mgrwt>
</event>
<event>
 8    2  0.7266322E-052  0.1470594E+04  0.7818608E-02  0.8904246E-01
          2   -1    0    0  501    0  0.00000000000E+00  0.00000000000E+00  0.10988434442E+04  0.10988434442E+04  0.25500000000E-02 0.  1.
         -2   -1    0    0    0  501 -0.00000000000E+00 -0.00000000000E+00 -0.49202820398E+03  0.49202820399E+03  0.25500000000E-02 0. -1.
    -200001    2    1    2    0    0  0.32567875039E+03 -0.15122924936E+03  0.99060749221E+02  0.71764741728E+03  0.61340675671E+03 0.  0.
   -5000001    2    3    3    0    0  0.18603339129E+03  0.82781712584E+02  0.21655301974E+03  0.40417111792E+03  0.27385734897E+03 0.  0.
     200001    1    1    2    0    0 -0.32567875039E+03  0.15122924936E+03  0.50775449098E+03  0.87322423090E+03  0.61300000000E+03 0. -1.
         11    1    4    4    0    0  0.11821506094E+03  0.17826607209E+03  0.17488185482E+03  0.27629197643E+03  0.51100000000E-03 0.  1.
    -200002    1    4    4    0    0  0.67818330356E+02 -0.95484359508E+02  0.41671164925E+02  0.12787914149E+03  0.30000000000E+02 0.  1.
    -200000    1    3    3    0    0  0.13964535910E+03 -0.23401096194E+03 -0.11749227052E+03  0.31347629936E+03  0.10100000000E+03 0.  1.
<mgrwt>
<rscale>  0 0.14705944E+04</rscale>
<asrwt>0</asrwt>
<pdfrwt beam="1">  1        2 0.15697763E+00 0.14705944E+04</pdfrwt>
<pdfrwt beam="2">  1       -2 0.70289743E-01 0.14705944E+04</pdfrwt>
<totfact> 0.43728274E+01</totfact>
</mgrwt>
</event>
<event>
 8    2  0.7266322E-052  0.1673299E+04  0.7818608E-02  0.8776741E-01
         -2   -1    0    0    0  501 -0.00000000000E+00  0.00000000000E+00  0.37749152026E+03  0.37749152027E+03  0.25500000000E-02 0. -1.
          2   -1    0    0  501    0  0.00000000000E+00 -0.00000000000E+00 -0.18543005847E+04  0.18543005847E+04  0.25500000000E-02 0.  1.
    -200001    2    1    2    0    0  0.21453756598E+03  0.51520240381E+03 -0.58548804151E+03  0.10145484769E+04  0.61241528490E+03 0.  0.
   -5000001    2    3    3    0    0  0.36099925184E+03  0.14872922193E+03 -0.40880288875E+03  0.57050764359E+03  0.76930671801E+02 0.  0.
     200001    1    1    2    0    0 -0.21453756598E+03 -0.51520240381E+03 -0.89132102298E+03  0.12172436281E+04  0.61300000000E+03 0.  1.
         11    1    4    4    0    0  0.12953866110E+03  0.54613712186E+02 -0.19438083230E+03  0.23988920410E+03  0.51100000000E-03 0.  1.
    -200002    1    4    4    0    0  0.23146059074E+03  0.94115509743E+02 -0.21442205645E+03  0.33061843949E+03  0.30000000000E+02 0.  1.
    -200000    1    3    3    0    0 -0.14646168586E+03  0.36647318189E+03 -0.17668515276E+03  0.44404083334E+03  0.10100000000E+03 0. -1.
<mgrwt>
<rscale>  0 0.16732994E+04</rscale>
<asrwt>0</asrwt>
<pdfrwt beam="1">  1        2 0.26490008E+00 0.16732994E+04</pdfrwt>
<pdfrwt beam="2">  1       -2 0.53927361E-01 0.16732994E+04</pdfrwt>
<totfact> 0.29525278E+01</totfact>
</mgrwt>
</event>
<event>
 8    2  0.7266322E-052  0.2791142E+04  0.7818608E-02  0.8306024E-01
          2   -1    0    0  501    0  0.00000000000E+00  0.00000000000E+00  0.31107287260E+04  0.31107287260E+04  0.25500000000E-02 0. -1.
         -2   -1    0    0    0  501 -0.00000000000E+00 -0.00000000000E+00 -0.62609710438E+03  0.62609710439E+03  0.25500000000E-02 0.  1.
    -200001    2    1    2    0    0  0.69616827255E+03  0.55148362813E+03  0.57777380867E+02  0.10808561465E+04  0.61329220437E+03 0.  0.
   -5000001    2    3    3    0    0  0.14810132268E+03 -0.58806361054E+02  0.16749378722E+03  0.24714759898E+03  0.87381788962E+02 0.  0.
     200001    1    1    2    0    0 -0.69616827255E+03 -0.55148362813E+03  0.24268542408E+04  0.26559696839E+04  0.61300000000E+03 0. -1.
         11    1    4    4    0    0 -0.10309033492E+02 -0.17592010626E+01  0.12933933169E+02  0.16633027006E+02  0.51100000000E-03 0.  1.
    -200002    1    4    4    0    0  0.15841035618E+03 -0.57047159992E+02  0.15455985405E+03  0.23051457197E+03  0.30000000000E+02 0.  1.
    -200000    1    3    3    0    0  0.54806694986E+03  0.61028998918E+03 -0.10971640635E+03  0.83370854754E+03  0.10100000000E+03 0.  1.
<mgrwt>
<rscale>  0 0.27911419E+04</rscale>
<asrwt>0</asrwt>
<pdfrwt beam="1">  1        2 0.44438983E+00 0.27911419E+04</pdfrwt>
<pdfrwt beam="2">  1       -2 0.89442442E-01 0.27911419E+04</pdfrwt>
<totfact> 0.19171797E+00</totfact>
</mgrwt>
</event>
<event>
 8    2  0.7266322E-052  0.1359985E+04  0.7818608E-02  0.8983304E-01
          2   -1    0    0  501    0  0.00000000000E+00  0.00000000000E+00  0.19086185738E+04  0.19086185738E+04  0.25500000000E-02 0.  1.
         -2   -1    0    0    0  501 -0.00000000000E+00 -0.00000000000E+00 -0.24226417479E+03  0.24226417480E+03  0.25500000000E-02 0. -1.
    -200001    2    1    2    0    0  0.17909924866E+03  0.14491430323E+03  0.11155427172E+04  0.12951729818E+04  0.61640960633E+03 0.  0.
   -5000001    2    3    3    0    0 -0.96601643076E+02  0.12308511253E+03  0.48413406705E+02  0.18817096710E+03  0.92642498558E+02 0.  0.
     200001    1    1    2    0    0 -0.17909924866E+03 -0.14491430323E+03  0.55081168183E+03  0.85570976680E+03  0.61300000000E+03 0.  1.
         11    1    4    4    0    0 -0.59804375775E+02  0.48555565830E+02 -0.16178170412E+02  0.78714290526E+02  0.51100000000E-03 0.  1.
    -200002    1    4    4    0    0 -0.36797267301E+02  0.74529546703E+02  0.64591577117E+02  0.10945667658E+03  0.30000000000E+02 0.  1.
    -200000    1    3    3    0    0  0.27570089174E+03  0.21829190701E+02  0.10671293105E+04  0.11070020147E+04  0.10100000000E+03 0.  1.
<mgrwt>
<rscale>  0 0.13599852E+04</rscale>
<asrwt>0</asrwt>
<pdfrwt beam="1">  1        2 0.27265980E+00 0.13599852E+04</pdfrwt>
<pdfrwt beam="2">  1       -2 0.34609167E-01 0.13599852E+04</pdfrwt>
<totfact> 0.68367734E+01</totfact>
</mgrwt>
</event>
<event>
 8    2  0.7266322E-052  0.1433260E+04  0.7818608E-02  0.8930089E-01
         -2   -1    0    0    0  501 -0.00000000000E+00  0.00000000000E+00  0.11019277848E+03  0.11019277851E+03  0.25500000000E-02 0. -1.
          2   -1    0    0  501    0  0.00000000000E+00 -0.00000000000E+00 -0.46605453897E+04  0.46605453897E+04  0.25500000000E-02 0.  1.
    -200001    2    1    2    0    0 -0.13962133560E+03  0.70583225618E+02 -0.33970757190E+04  0.34553322616E+04  0.61214498945E+03 0.  0.
   -5000001    2    3    3    0    0 -0.16949803035E+03  0.15361565734E+03 -0.30692967363E+04  0.31011754275E+04  0.37997266254E+03 0.  0.
     200001    1    1    2    0    0  0.13962133560E+03 -0.70583225618E+02 -0.11532768922E+04  0.13154059066E+04  0.61300000000E+03 0. -1.
         11    1    4    4    0    0  0.58946434201E+02 -0.54684657904E+02 -0.20688130671E+03  0.22195713321E+03  0.51100000000E-03 0.  1.
    -200002    1    4    4    0    0 -0.22844446455E+03  0.20830031525E+03 -0.28624154296E+04  0.28792182943E+04  0.30000000000E+02 0.  1.
    -200000    1    3    3    0    0  0.29876694746E+02 -0.83032431726E+02 -0.32777898271E+03  0.35415683407E+03  0.10100000000E+03 0. -1.
<mgrwt>
<rscale>  0 0.14332598E+04</rscale>
<asrwt>0</asrwt>
<pdfrwt beam="1">  1        2 0.66579207E+00 0.14332598E+04</pdfrwt>
<pdfrwt beam="2">  1       -2 0.15741828E-01 0.14332598E+04</pdfrwt>
<totfact> 0.58344718E+00</totfact>
</mgrwt>
</event>
<event>
 8    2  0.7266322E-052  0.1251213E+04  0.7818608E-02  0.9069174E-01
          2   -1    0    0  501    0  0.00000000000E+00  0.00000000000E+00  0.15815847429E+04  0.15815847429E+04  0.25500000000E-02 0.  1.
         -2   -1    0    0    0  501 -0.00000000000E+00 -0.00000000000E+00 -0.24746294933E+03  0.24746294934E+03  0.25500000000E-02 0. -1.
    -200001    2    1    2    0    0 -0.81332660144E+02  0.88346933433E+02  0.63273060901E+03  0.88982526065E+03  0.61402018587E+03 0.  0.
   -5000001    2    3    3    0    0  0.55727012671E+02 -0.23095761902E+03  0.23031935976E+03  0.34864454716E+03  0.10981389285E+03 0.  0.
     200001    1    1    2    0    0  0.81332660144E+02 -0.88346933433E+02  0.70139118459E+03  0.93922243163E+03  0.61300000000E+03 0.  1.
         11    1    4    4    0    0  0.32356102692E+02 -0.27630896508E+02  0.87442617449E+02  0.97245026453E+02  0.51100000000E-03 0.  1.
    -200002    1    4    4    0    0  0.23370909979E+02 -0.20332672251E+03  0.14287674231E+03  0.25139952071E+03  0.30000000000E+02 0.  1.
    -200000    1    3    3    0    0 -0.13705967282E+03  0.31930455245E+03  0.40241124925E+03  0.54118071349E+03  0.10100000000E+03 0.  1.
<mgrwt>
<rscale>  0 0.12512132E+04</rscale>
<asrwt>0</asrwt>
<pdfrwt beam="1">  1        2 0.22594068E+00 0.12512132E+04</pdfrwt>
<pdfrwt beam="2">  1       -2 0.35351849E-01 0.12512132E+04</pdfrwt>
<totfact> 0.97751012E+01</totfact>
</mgrwt>
</event>
<event>
 8    2  0.7266322E-052  0.1554221E+04  0.7818608E-02  0.8849176E-01
          2   -1    0    0  501    0  0.00000000000E+00  0.00000000000E+00  0.14488019347E+04  0.14488019348E+04  0.25500000000E-02 0.  1.
         -2   -1    0    0    0  501 -0.00000000000E+00 -0.00000000000E+00 -0.41682778901E+03  0.41682778902E+03  0.25500000000E-02 0. -1.
    -200001    2    1    2    0    0 -0.72339147185E+02 -0.10098712801E+03  0.10685725400E+04  0.12390997606E+04  0.61488990173E+03 0.  0.
   -5000001    2    3    3    0    0  0.21004591209E+03  0.81802503093E+02  0.24929960192E+03  0.34771739707E+03  0.89141247546E+02 0.  0.
     200001    1    1    2    0    0  0.72339147185E+02  0.10098712801E+03 -0.36598394302E+02  0.62652996313E+03  0.61300000000E+03 0. -1.
         11    1    4    4    0    0  0.84786502183E+02  0.68614685413E+02  0.83565461022E+02  0.13740419310E+03  0.51100000000E-03 0.  1.
    -200002    1    4    4    0    0  0.12525940990E+03  0.13187817680E+02  0.16573414090E+03  0.21031320397E+03  0.30000000000E+02 0.  1.
    -200000    1    3    3    0    0 -0.28238505927E+03 -0.18278963110E+03  0.81927293812E+03  0.89138236356E+03  0.10100000000E+03 0.  1.
<mgrwt>
<rscale>  0 0.15542212E+04</rscale>
<asrwt>0</asrwt>
<pdfrwt beam="1">  1        2 0.20697171E+00 0.15542212E+04</pdfrwt>
<pdfrwt beam="2">  1       -2 0.59546827E-01 0.15542212E+04</pdfrwt>
<totfact> 0.39502500E+01</totfact>
</mgrwt>
</event>
<event>
 8    2  0.7266322E-052  0.1637888E+04  0.7818608E-02  0.8797604E-01
         -2   -1    0    0    0  501 -0.00000000000E+00  0.00000000000E+00  0.17399060087E+03  0.17399060088E+03  0.25500000000E-02 0. -1.
          2   -1    0    0  501    0  0.00000000000E+00 -0.00000000000E+00 -0.38546313074E+04  0.38546313074E+04  0.25500000000E-02 0.  1.
    -200001    2    1    2    0    0  0.44924410256E+03 -0.10457894919E+03 -0.25450575795E+04  0.26581931218E+04  0.61311953950E+03 0.  0.
   -5000001    2    3    3    0    0  0.18503438670E+03 -0.31125699247E+03 -0.86980020737E+03  0.94669937356E+03  0.92567075876E+02 0.  0.
     200001    1    1    2    0    0 -0.44924410256E+03  0.10457894919E+03 -0.11355831270E+04  0.13704287864E+04  0.61300000000E+03 0. -1.
         11    1    4    4    0    0  0.23515793784E+02 -0.43481856965E+02 -0.21263205304E+03  0.21830266701E+03  0.51100000000E-03 0.  1.
    -200002    1    4    4    0    0  0.16151859292E+03 -0.26777513550E+03 -0.65716815434E+03  0.72839670656E+03  0.30000000000E+02 0.  1.
    -200000    1    3    3    0    0  0.26420971586E+03  0.20667804327E+03 -0.16752573721E+04  0.17114937483E+04  0.10100000000E+03 0.  1.
<mgrwt>
<rscale>  0 0.16378884E+04</rscale>
<asrwt>0</asrwt>
<pdfrwt beam="1">  1        2 0.55066156E+00 0.16378884E+04</pdfrwt>
<pdfrwt beam="2">  1       -2 0.24855803E-01 0.16378884E+04</pdfrwt>
<totfact> 0.10040198E+01</totfact>
</mgrwt>
</event>
<event>
 8    2  0.7266322E-052  0.2043492E+04  0.7818608E-02  0.8586553E-01
         -2   -1    0    0    0  501 -0.00000000000E+00  0.00000000000E+00  0.26612734273E+03  0.26612734274E+03  0.25500000000E-02 0. -1.
          2   -1    0    0  501    0  0.00000000000E+00 -0.00000000000E+00 -0.39228002390E+04  0.39228002390E+04  0.25500000000E-02 0.  1.
    -200001    2    1    2    0    0  0.54160915670E+03 -0.18919137321E+03 -0.63452936484E+03  0.10523284077E+04  0.61288963803E+03 0.  0.
   -5000001    2    3    3    0    0  0.59454550036E+03 -0.57066990757E+02 -0.29495057669E+03  0.67052497358E+03  0.76595718316E+02 0.  0.
     200001    1    1    2    0    0 -0.54160915670E+03  0.18919137321E+03 -0.30221435315E+04  0.31365991741E+04  0.61300000000E+03 0.  1.
         11    1    4    4    0    0  0.16003610807E+03  0.14866195620E+02 -0.78985490389E+02  0.17908452572E+03  0.51100000000E-03 0.  1.
    -200002    1    4    4    0    0  0.43450939229E+03 -0.71933186378E+02 -0.21596508630E+03  0.49144044786E+03  0.30000000000E+02 0. -1.
    -200000    1    3    3    0    0 -0.52936343658E+02 -0.13212438246E+03 -0.33957878814E+03  0.38180343408E+03  0.10100000000E+03 0.  1.
<mgrwt>
<rscale>  0 0.20434915E+04</rscale>
<asrwt>0</asrwt>
<pdfrwt beam="1">  1        2 0.56040000E+00 0.20434915E+04</pdfrwt>
<pdfrwt beam="2">  1       -2 0.38018194E-01 0.20434915E+04</pdfrwt>
<totfact> 0.39237227E+00</totfact>
</mgrwt>
</event>
<event>
 8    2  0.7266322E-052  0.2021740E+04  0.7818608E-02  0.8596523E-01
          2   -1    0    0  501    0  0.00000000000E+00  0.00000000000E+00  0.99015970409E+03  0.99015970410E+03  0.25500000000E-02 0.  1.
         -2   -1    0    0    0  501 -0.00000000000E+00 -0.00000000000E+00 -0.10320139129E+04  0.10320139129E+04  0.25500000000E-02 0. -1.
    -200001    2    1    2    0    0 -0.27011846006E+02 -0.15368883461E+03 -0.80644988666E+03  0.10298402818E+04  0.62117605279E+03 0.  0.
   -5000001    2    3    3    0    0  0.19365632946E+03 -0.18744146764E+03 -0.12215800372E+03  0.30300462982E+03  0.65208512377E+02 0.  0.
     200001    1    1    2    0    0  0.27011846006E+02  0.15368883461E+03  0.76459567783E+03  0.99233333526E+03  0.61300000000E+03 0.  1.
         11    1    4    4    0    0  0.14152908797E+03 -0.11116111737E+03 -0.84600816234E+02  0.19885817777E+03  0.51100000000E-03 0.  1.
    -200002    1    4    4    0    0  0.52127241486E+02 -0.76280350275E+02 -0.37557187489E+02  0.10414645205E+03  0.30000000000E+02 0. -1.
    -200000    1    3    3    0    0 -0.22066817546E+03  0.33752633037E+02 -0.68429188294E+03  0.72683565195E+03  0.10100000000E+03 0. -1.
<mgrwt>
<rscale>  0 0.20217404E+04</rscale>
<asrwt>0</asrwt>
<pdfrwt beam="1">  1        2 0.14145139E+00 0.20217404E+04</pdfrwt>
<pdfrwt beam="2">  1       -2 0.14743056E+00 0.20217404E+04</pdfrwt>
<totfact> 0.83170209E+00</totfact>
</mgrwt>
</event>
<event>
 8    2  0.7266322E-052  0.1601485E+04  0.7818608E-02  0.8819636E-01
         -2   -1    0    0    0  501 -0.00000000000E+00  0.00000000000E+00  0.50822854702E+03  0.50822854703E+03  0.25500000000E-02 0. -1.
          2   -1    0    0  501    0  0.00000000000E+00 -0.00000000000E+00 -0.12616144432E+04  0.12616144432E+04  0.25500000000E-02 0.  1.
    -200001    2    1    2    0    0  0.32408747503E+03 -0.11218771089E+03 -0.80238353504E+03  0.10657204564E+04  0.61181858425E+03 0.  0.
   -5000001    2    3    3    0    0  0.41262264845E+03 -0.18930689296E+03 -0.78358975637E+03  0.90970747208E+03  0.86372615595E+02 0.  0.
     200001    1    1    2    0    0 -0.32408747503E+03  0.11218771089E+03  0.48997638877E+02  0.70412253377E+03  0.61300000000E+03 0. -1.
         11    1    4    4    0    0  0.29015084907E+02 -0.14425107284E+02 -0.10840635986E+03  0.11314547154E+03  0.51100000000E-03 0.  1.
    -200002    1    4    4    0    0  0.38360756355E+03 -0.17488178568E+03 -0.67518339651E+03  0.79656200054E+03  0.30000000000E+02 0.  1.
    -200000    1    3    3    0    0 -0.88535173420E+02  0.77119182069E+02 -0.18793778669E+02  0.15601298437E+03  0.10100000000E+03 0. -1.
<mgrwt>
<rscale>  0 0.16014849E+04</rscale>
<asrwt>0</asrwt>
<pdfrwt beam="1">  1        2 0.18023063E+00 0.16014849E+04</pdfrwt>
<pdfrwt beam="2">  1       -2 0.72604079E-01 0.16014849E+04</pdfrwt>
<totfact> 0.32517150E+01</totfact>
</mgrwt>
</event>
<event>
 8    2  0.7266322E-052  0.1291743E+04  0.7818608E-02  0.9036139E-01
          2   -1    0    0  501    0  0.00000000000E+00  0.00000000000E+00  0.33600168538E+04  0.33600168538E+04  0.25500000000E-02 0.  1.
         -2   -1    0    0    0  501 -0.00000000000E+00 -0.00000000000E+00 -0.12415111128E+03  0.12415111131E+03  0.25500000000E-02 0. -1.
    -200001    2    1    2    0    0  0.19342570901E+03 -0.47005174172E+02  0.17321780902E+04  0.18481763554E+04  0.61293712010E+03 0.  0.
   -5000001    2    3    3    0    0  0.33589848062E+03  0.68211773975E+02  0.58982563110E+03  0.68682215594E+03  0.79685402670E+02 0.  0.
     200001    1    1    2    0    0 -0.19342570901E+03  0.47005174172E+02  0.15036876523E+04  0.16359916097E+04  0.61300000000E+03 0. -1.
         11    1    4    4    0    0  0.11078070768E+03 -0.93806974386E+01  0.16672476228E+03  0.20039338571E+03  0.51100000000E-03 0.  1.
    -200002    1    4    4    0    0  0.22511777294E+03  0.77592471414E+02  0.42310086882E+03  0.48642877023E+03  0.30000000000E+02 0.  1.
    -200000    1    3    3    0    0 -0.14247277161E+03 -0.11521694815E+03  0.11423524591E+04  0.11613541995E+04  0.10100000000E+03 0. -1.
<mgrwt>
<rscale>  0 0.12917427E+04</rscale>
<asrwt>0</asrwt>
<pdfrwt beam="1">  1        2 0.48000247E+00 0.12917427E+04</pdfrwt>
<pdfrwt beam="2">  1       -2 0.17735871E-01 0.12917427E+04</pdfrwt>
<totfact> 0.38333588E+01</totfact>
</mgrwt>
</event>
<event>
 8    2  0.7266322E-052  0.1449927E+04  0.7818608E-02  0.8918451E-01
          2   -1    0    0  501    0  0.00000000000E+00  0.00000000000E+00  0.16497734096E+04  0.16497734096E+04  0.25500000000E-02 0.  1.
         -2   -1    0    0    0  501 -0.00000000000E+00 -0.00000000000E+00 -0.31857249238E+03  0.31857249239E+03  0.25500000000E-02 0. -1.
    -200001    2    1    2    0    0 -0.21794739164E+03 -0.25132515978E+03  0.38945042548E+03  0.79645495564E+03  0.60992086453E+03 0.  0.
   -5000001    2    3    3    0    0 -0.15345219694E+03 -0.35434262909E+03  0.55543885750E+02  0.42704081622E+03  0.17370221627E+03 0.  0.
     200001    1    1    2    0    0  0.21794739164E+03  0.25132515978E+03  0.94175049171E+03  0.11718909463E+04  0.61300000000E+03 0.  1.
         11    1    4    4    0    0  0.12128681338E+02 -0.15776480827E+03  0.57250883223E+02  0.16826913939E+03  0.51100000000E-03 0.  1.
    -200002    1    4    4    0    0 -0.16558087828E+03 -0.19657782082E+03 -0.17069974729E+01  0.25877167683E+03  0.30000000000E+02 0.  1.
    -200000    1    3    3    0    0 -0.64495194699E+02  0.10301746932E+03  0.33390653973E+03  0.36941413941E+03  0.10100000000E+03 0.  1.
<mgrwt>
<rscale>  0 0.14499275E+04</rscale>
<asrwt>0</asrwt>
<pdfrwt beam="1">  1        2 0.23568192E+00 0.14499275E+04</pdfrwt>
<pdfrwt beam="2">  1       -2 0.45510355E-01 0.14499275E+04</pdfrwt>
<totfact> 0.54152469E+01</totfact>
</mgrwt>
</event>
<event>
 8    2  0.7266322E-052  0.1623075E+04  0.7818608E-02  0.8806496E-01
         -2   -1    0    0    0  501 -0.00000000000E+00  0.00000000000E+00  0.13750783203E+04  0.13750783203E+04  0.25500000000E-02 0. -1.
          2   -1    0    0  501    0  0.00000000000E+00 -0.00000000000E+00 -0.47894940758E+03  0.47894940759E+03  0.25500000000E-02 0.  1.
    -200001    2    1    2    0    0 -0.12214326111E+03  0.12397943595E+03  0.10223603864E+04  0.12044176435E+04  0.61246324275E+03 0.  0.
   -5000001    2    3    3    0    0 -0.16204760185E+03  0.21525898446E+03  0.10256487113E+04  0.10625158273E+04  0.66247629464E+02 0.  0.
     200001    1    1    2    0    0  0.12214326111E+03 -0.12397943595E+03 -0.12623147362E+03  0.64961008436E+03  0.61300000000E+03 0.  1.
         11    1    4    4    0    0 -0.11895276820E+03  0.16769241380E+03  0.72132011902E+03  0.75004881229E+03  0.51100000000E-03 0.  1.
    -200002    1    4    4    0    0 -0.43094833652E+02  0.47566570658E+02  0.30432859233E+03  0.31246701496E+03  0.30000000000E+02 0. -1.
    -200000    1    3    3    0    0  0.39904340740E+02 -0.91279548510E+02 -0.32883249958E+01  0.14190181629E+03  0.10100000000E+03 0.  1.
<mgrwt>
<rscale>  0 0.16230748E+04</rscale>
<asrwt>0</asrwt>
<pdfrwt beam="1">  1        2 0.68421343E-01 0.16230748E+04</pdfrwt>
<pdfrwt beam="2">  1       -2 0.19643976E+00 0.16230748E+04</pdfrwt>
<totfact> 0.94924601E+00</totfact>
</mgrwt>
</event>
<event>
 8    2  0.7266322E-052  0.1743269E+04  0.7818608E-02  0.8737064E-01
         -2   -1    0    0    0  501 -0.00000000000E+00  0.00000000000E+00  0.22985507321E+03  0.22985507323E+03  0.25500000000E-02 0. -1.
          2   -1    0    0  501    0  0.00000000000E+00 -0.00000000000E+00 -0.33053299042E+04  0.33053299042E+04  0.25500000000E-02 0.  1.
    -200001    2    1    2    0    0  0.23701264103E+03 -0.84375028985E+01 -0.37701120859E+03  0.75782632128E+03  0.61312078611E+03 0.  0.
   -5000001    2    3    3    0    0 -0.92260232051E+02 -0.21991616288E+03 -0.11944138747E+03  0.27856954112E+03  0.80372103882E+02 0.  0.
     200001    1    1    2    0    0 -0.23701264103E+03  0.84375028985E+01 -0.26984636224E+04  0.27773586561E+04  0.61300000000E+03 0.  1.
         11    1    4    4    0    0 -0.73423933465E+02 -0.18874528022E+03 -0.10993006968E+03  0.23043540316E+03  0.51100000000E-03 0.  1.
    -200002    1    4    4    0    0 -0.18836298586E+02 -0.31170882661E+02 -0.95113177856E+01  0.48134137952E+02  0.30000000000E+02 0. -1.
    -200000    1    3    3    0    0  0.32927287308E+03  0.21147865998E+03 -0.25756982112E+03  0.47925678016E+03  0.10100000000E+03 0. -1.
<mgrwt>
<rscale>  0 0.17432692E+04</rscale>
<asrwt>0</asrwt>
<pdfrwt beam="1">  1        2 0.47218996E+00 0.17432692E+04</pdfrwt>
<pdfrwt beam="2">  1       -2 0.32836441E-01 0.17432692E+04</pdfrwt>
<totfact> 0.13005730E+01</totfact>
</mgrwt>
</event>
<event>
 8    2  0.7266322E-052  0.1456726E+04  0.7818608E-02  0.8913751E-01
         -2   -1    0    0    0  501 -0.00000000000E+00  0.00000000000E+00  0.65058830186E+03  0.65058830187E+03  0.25500000000E-02 0. -1.
          2   -1    0    0  501    0  0.00000000000E+00 -0.00000000000E+00 -0.81543491248E+03  0.81543491248E+03  0.25500000000E-02 0.  1.
    -200001    2    1    2    0    0 -0.42130685226E+01 -0.30401561243E+03  0.16852879314E+03  0.70487184808E+03  0.61318767563E+03 0.  0.
   -5000001    2    3    3    0    0 -0.59734104266E+02  0.16833657733E+03  0.17463955364E+01  0.19085186331E+03  0.67201319583E+02 0.  0.
     200001    1    1    2    0    0  0.42130685226E+01  0.30401561243E+03 -0.33337540375E+03  0.76115136627E+03  0.61300000000E+03 0.  1.
         11    1    4    4    0    0 -0.16605338238E+01  0.84546199504E+02 -0.24925826833E+00  0.84562872191E+02  0.51100000000E-03 0.  1.
    -200002    1    4    4    0    0 -0.58073570442E+02  0.83790377825E+02  0.19956538047E+01  0.10628899112E+03  0.30000000000E+02 0.  1.
    -200000    1    3    3    0    0  0.55521035743E+02 -0.47235218976E+03  0.16678239760E+03  0.51401998476E+03  0.10100000000E+03 0.  1.
<mgrwt>
<rscale>  0 0.14567257E+04</rscale>
<asrwt>0</asrwt>
<pdfrwt beam="1">  1        2 0.11649070E+00 0.14567257E+04</pdfrwt>
<pdfrwt beam="2">  1       -2 0.92941186E-01 0.14567257E+04</pdfrwt>
<totfact> 0.35326185E+01</totfact>
</mgrwt>
</event>
<event>
 8    2  0.7266322E-052  0.1293736E+04  0.7818608E-02  0.9034547E-01
          2   -1    0    0  501    0  0.00000000000E+00  0.00000000000E+00  0.15453489651E+04  0.15453489651E+04  0.25500000000E-02 0.  1.
         -2   -1    0    0    0  501 -0.00000000000E+00 -0.00000000000E+00 -0.27077266242E+03  0.27077266243E+03  0.25500000000E-02 0. -1.
    -200001    2    1    2    0    0  0.15281955953E+03  0.80651002729E+02  0.47879394175E+03  0.79685867422E+03  0.61309192297E+03 0.  0.
   -5000001    2    3    3    0    0 -0.13959639043E+03  0.94631637794E+02  0.44913839782E+03  0.48575901618E+03  0.76119789206E+02 0.  0.
     200001    1    1    2    0    0 -0.15281955953E+03 -0.80651002729E+02  0.79578236089E+03  0.10192629533E+04  0.61300000000E+03 0.  1.
         11    1    4    4    0    0 -0.62884727279E+02  0.40128802476E+02  0.28122824344E+03  0.29095383590E+03  0.51100000000E-03 0.  1.
    -200002    1    4    4    0    0 -0.76711663151E+02  0.54502835318E+02  0.16791015438E+03  0.19480518028E+03  0.30000000000E+02 0.  1.
    -200000    1    3    3    0    0  0.29241594996E+03 -0.13980635066E+02  0.29655543928E+02  0.31109965804E+03  0.10100000000E+03 0.  1.
<mgrwt>
<rscale>  0 0.12937361E+04</rscale>
<asrwt>0</asrwt>
<pdfrwt beam="1">  1        2 0.22076413E+00 0.12937361E+04</pdfrwt>
<pdfrwt beam="2">  1       -2 0.38681810E-01 0.12937361E+04</pdfrwt>
<totfact> 0.85618786E+01</totfact>
</mgrwt>
</event>
<event>
 8    2  0.7266322E-052  0.2310926E+04  0.7818608E-02  0.8473626E-01
         -2   -1    0    0    0  501 -0.00000000000E+00  0.00000000000E+00  0.75395519787E+03  0.75395519787E+03  0.25500000000E-02 0. -1.
          2   -1    0    0  501    0  0.00000000000E+00 -0.00000000000E+00 -0.17707878610E+04  0.17707878610E+04  0.25500000000E-02 0.  1.
    -200001    2    1    2    0    0 -0.10115552137E+03 -0.18846801651E+03 -0.15527378567E+04  0.16828903346E+04  0.61267641864E+03 0.  0.
   -5000001    2    3    3    0    0  0.14501607081E+03 -0.98385150157E+02 -0.74554385765E+03  0.82820996880E+03  0.31525673692E+03 0.  0.
     200001    1    1    2    0    0  0.10115552137E+03  0.18846801651E+03  0.53590519361E+03  0.84185272423E+03  0.61300000000E+03 0. -1.
         11    1    4    4    0    0 -0.63036999087E+02  0.40595160614E+02 -0.54610586280E+02  0.92757460365E+02  0.51100000000E-03 0.  1.
    -200002    1    4    4    0    0  0.20805306990E+03 -0.13898031077E+03 -0.69093327137E+03  0.73545250844E+03  0.30000000000E+02 0.  1.
    -200000    1    3    3    0    0 -0.24617159218E+03 -0.90082866355E+02 -0.80719399906E+03  0.85468036582E+03  0.10100000000E+03 0.  1.
<mgrwt>
<rscale>  0 0.23109260E+04</rscale>
<asrwt>0</asrwt>
<pdfrwt beam="1">  1        2 0.25296969E+00 0.23109260E+04</pdfrwt>
<pdfrwt beam="2">  1       -2 0.10770789E+00 0.23109260E+04</pdfrwt>
<totfact> 0.66351532E+00</totfact>
</mgrwt>
</event>
<event>
 8    2  0.7266322E-052  0.1437647E+04  0.7818608E-02  0.8927010E-01
          2   -1    0    0  501    0  0.00000000000E+00  0.00000000000E+00  0.23264294061E+03  0.23264294063E+03  0.25500000000E-02 0.  1.
         -2   -1    0    0    0  501 -0.00000000000E+00 -0.00000000000E+00 -0.22210314457E+04  0.22210314457E+04  0.25500000000E-02 0. -1.
    -200001    2    1    2    0    0 -0.34257986548E+03 -0.13956810562E+03 -0.87722614835E+03  0.11318230318E+04  0.61209267250E+03 0.  0.
   -5000001    2    3    3    0    0 -0.37276597753E+03  0.74401593731E+02 -0.30762292242E+03  0.51429321994E+03  0.15929715164E+03 0.  0.
     200001    1    1    2    0    0  0.34257986548E+03  0.13956810562E+03 -0.11111623568E+04  0.13218513545E+04  0.61300000000E+03 0.  1.
         11    1    4    4    0    0 -0.49976007927E+02  0.59915846365E+02 -0.19703274642E+02  0.80471914640E+02  0.51100000000E-03 0.  1.
    -200002    1    4    4    0    0 -0.32278996961E+03  0.14485747366E+02 -0.28791964778E+03  0.43382130530E+03  0.30000000000E+02 0.  1.
    -200000    1    3    3    0    0  0.30186112056E+02 -0.21396969935E+03 -0.56960322593E+03  0.61752981190E+03  0.10100000000E+03 0. -1.
<mgrwt>
<rscale>  0 0.14376471E+04</rscale>
<asrwt>0</asrwt>
<pdfrwt beam="1">  1        2 0.33234707E-01 0.14376471E+04</pdfrwt>
<pdfrwt beam="2">  1       -2 0.31729019E+00 0.14376471E+04</pdfrwt>
<totfact> 0.38600288E+00</totfact>
</mgrwt>
</event>
<event>
 8    2  0.7266322E-052  0.1553899E+04  0.7818608E-02  0.8849381E-01
          2   -1    0    0  501    0  0.00000000000E+00  0.00000000000E+00  0.12795403110E+04  0.12795403110E+04  0.25500000000E-02 0.  1.
         -2   -1    0    0    0  501 -0.00000000000E+00 -0.00000000000E+00 -0.47177148793E+03  0.47177148793E+03  0.25500000000E-02 0. -1.
    -200001    2    1    2    0    0  0.22961379643E+02 -0.27971053800E+03  0.83887564932E+03  0.10764030313E+04  0.61332366722E+03 0.  0.
   -5000001    2    3    3    0    0 -0.43099841126E+02  0.12147272740E+03  0.76030706772E+01  0.14552860513E+03  0.67138278354E+02 0.  0.
     200001    1    1    2    0    0 -0.22961379643E+02  0.27971053800E+03 -0.31106826214E+02  0.67490876766E+03  0.61300000000E+03 0. -1.
         11    1    4    4    0    0 -0.30778438985E+02  0.84218528581E+02 -0.15505099343E+02  0.90997148135E+02  0.51100000000E-03 0.  1.
    -200002    1    4    4    0    0 -0.12321402141E+02  0.37254198816E+02  0.23108170020E+02  0.54531456993E+02  0.30000000000E+02 0. -1.
    -200000    1    3    3    0    0  0.66061220770E+02 -0.40118326539E+03  0.83127257865E+03  0.93087442619E+03  0.10100000000E+03 0.  1.
<mgrwt>
<rscale>  0 0.15538991E+04</rscale>
<asrwt>0</asrwt>
<pdfrwt beam="1">  1        2 0.18279147E+00 0.15538991E+04</pdfrwt>
<pdfrwt beam="2">  1       -2 0.67395927E-01 0.15538991E+04</pdfrwt>
<totfact> 0.37514947E+01</totfact>
</mgrwt>
</event>
<event>
 8    2  0.7266322E-052  0.2865925E+04  0.7818608E-02  0.8283088E-01
         -2   -1    0    0    0  501 -0.00000000000E+00  0.00000000000E+00  0.93783868677E+03  0.93783868678E+03  0.25500000000E-02 0. -1.
          2   -1    0    0  501    0  0.00000000000E+00 -0.00000000000E+00 -0.21894830672E+04  0.21894830672E+04  0.25500000000E-02 0.  1.
    -200001    2    1    2    0    0  0.75499777198E+01 -0.68255939654E+03  0.57483501523E+03  0.10833696228E+04  0.61425573894E+03 0.  0.
   -5000001    2    3    3    0    0  0.10770459637E+03 -0.63815795734E+03  0.25579146837E+03  0.73124433224E+03  0.22459550205E+03 0.  0.
     200001    1    1    2    0    0 -0.75499777198E+01  0.68255939654E+03 -0.18264793957E+04  0.20439521313E+04  0.61300000000E+03 0.  1.
         11    1    4    4    0    0 -0.20771815854E+02 -0.44483154192E+03  0.12232986738E+03  0.46181291177E+03  0.51100000000E-03 0.  1.
    -200002    1    4    4    0    0  0.12847641222E+03 -0.19332641542E+03  0.13346160100E+03  0.26943142047E+03  0.30000000000E+02 0.  1.
    -200000    1    3    3    0    0 -0.10015461865E+03 -0.44401439202E+02  0.31904354686E+03  0.35212529053E+03  0.10100000000E+03 0. -1.
<mgrwt>
<rscale>  0 0.28659253E+04</rscale>
<asrwt>0</asrwt>
<pdfrwt beam="1">  1        2 0.31278329E+00 0.28659253E+04</pdfrwt>
<pdfrwt beam="2">  1       -2 0.13397696E+00 0.28659253E+04</pdfrwt>
<totfact> 0.22462466E+00</totfact>
</mgrwt>
</event>
<event>
 8    2  0.7266322E-052  0.1695267E+04  0.7818608E-02  0.8764069E-01
         -2   -1    0    0    0  501 -0.00000000000E+00  0.00000000000E+00  0.48582652593E+03  0.48582652594E+03  0.25500000000E-02 0. -1.
          2   -1    0    0  501    0  0.00000000000E+00 -0.00000000000E+00 -0.14788861629E+04  0.14788861629E+04  0.25500000000E-02 0.  1.
    -200001    2    1    2    0    0 -0.16028396157E+03 -0.18617482117E+03  0.11993975498E+03  0.67053779384E+03  0.61227720501E+03 0.  0.
   -5000001    2    3    3    0    0 -0.25468902655E+03 -0.35425129726E+03  0.74194715483E+02  0.44815158306E+03  0.70530161924E+02 0.  0.
     200001    1    1    2    0    0  0.16028396157E+03  0.18617482117E+03 -0.11129993919E+04  0.12941748950E+04  0.61300000000E+03 0.  1.
         11    1    4    4    0    0 -0.17905727880E+03 -0.22082026994E+03  0.30804027614E+02  0.28595801934E+03  0.51100000000E-03 0.  1.
    -200002    1    4    4    0    0 -0.75631747747E+02 -0.13343102731E+03  0.43390687868E+02  0.16219356372E+03  0.30000000000E+02 0.  1.
    -200000    1    3    3    0    0  0.94405064974E+02  0.16807647609E+03  0.45745039500E+02  0.22238621078E+03  0.10100000000E+03 0. -1.
<mgrwt>
<rscale>  0 0.16952665E+04</rscale>
<asrwt>0</asrwt>
<pdfrwt beam="1">  1        2 0.21126945E+00 0.16952665E+04</pdfrwt>
<pdfrwt beam="2">  1       -2 0.69403790E-01 0.16952665E+04</pdfrwt>
<totfact> 0.27117157E+01</totfact>
</mgrwt>
</event>
<event>
 8    2  0.7266322E-052  0.1784094E+04  0.7818608E-02  0.8714804E-01
         -2   -1    0    0    0  501 -0.00000000000E+00  0.00000000000E+00  0.29712380801E+03  0.29712380802E+03  0.25500000000E-02 0. -1.
          2   -1    0    0  501    0  0.00000000000E+00 -0.00000000000E+00 -0.26781684963E+04  0.26781684963E+04  0.25500000000E-02 0.  1.
    -200001    2    1    2    0    0 -0.43401176554E+02  0.30159744905E+03 -0.24103767506E+03  0.72846260448E+03  0.61620931665E+03 0.  0.
   -5000001    2    3    3    0    0  0.10484769373E+03  0.40849885157E+03 -0.31750369926E+02  0.43281448003E+03  0.91956171722E+02 0.  0.
     200001    1    1    2    0    0  0.43401176554E+02 -0.30159744905E+03 -0.21400070132E+04  0.22468296998E+04  0.61300000000E+03 0.  1.
         11    1    4    4    0    0  0.14273845991E+02  0.21870745969E+03 -0.12811775979E+02  0.21954689068E+03  0.51100000000E-03 0.  1.
    -200002    1    4    4    0    0  0.90573847737E+02  0.18979139188E+03 -0.18938593947E+02  0.21326758935E+03  0.30000000000E+02 0.  1.
    -200000    1    3    3    0    0 -0.14824887028E+03 -0.10690140252E+03 -0.20928730514E+03  0.29564812445E+03  0.10100000000E+03 0.  1.
<mgrwt>
<rscale>  0 0.17840937E+04</rscale>
<asrwt>0</asrwt>
<pdfrwt beam="1">  1        2 0.38259549E+00 0.17840937E+04</pdfrwt>
<pdfrwt beam="2">  1       -2 0.42446260E-01 0.17840937E+04</pdfrwt>
<totfact> 0.17682090E+01</totfact>
</mgrwt>
</event>
<event>
 8    2  0.7266322E-052  0.1544914E+04  0.7818608E-02  0.8855123E-01
         -2   -1    0    0    0  501 -0.00000000000E+00  0.00000000000E+00  0.73970283140E+03  0.73970283140E+03  0.25500000000E-02 0. -1.
          2   -1    0    0  501    0  0.00000000000E+00 -0.00000000000E+00 -0.80666162817E+03  0.80666162818E+03  0.25500000000E-02 0.  1.
    -200001    2    1    2    0    0 -0.39643633296E+03  0.24885923107E+03 -0.43685671261E+02  0.77474063844E+03  0.61580998367E+03 0.  0.
   -5000001    2    3    3    0    0 -0.50920279678E+03  0.59565796592E+02 -0.98140981215E+02  0.52631628278E+03  0.67391430860E+02 0.  0.
     200001    1    1    2    0    0  0.39643633296E+03 -0.24885923107E+03 -0.23273125514E+02  0.77162382114E+03  0.61300000000E+03 0.  1.
         11    1    4    4    0    0 -0.73273684800E+02 -0.96005069975E+00 -0.33123796255E+02  0.80418533064E+02  0.51100000000E-03 0.  1.
    -200002    1    4    4    0    0 -0.43592911198E+03  0.60525847292E+02 -0.65017184960E+02  0.44589774972E+03  0.30000000000E+02 0.  1.
    -200000    1    3    3    0    0  0.11276646382E+03  0.18929343448E+03  0.54455309954E+02  0.24842435565E+03  0.10100000000E+03 0. -1.
<mgrwt>
<rscale>  0 0.15449141E+04</rscale>
<asrwt>0</asrwt>
<pdfrwt beam="1">  1        2 0.11523737E+00 0.15449141E+04</pdfrwt>
<pdfrwt beam="2">  1       -2 0.10567183E+00 0.15449141E+04</pdfrwt>
<totfact> 0.26273251E+01</totfact>
</mgrwt>
</event>
<event>
 8    2  0.7266322E-052  0.1453622E+04  0.7818608E-02  0.8915893E-01
         -2   -1    0    0    0  501 -0.00000000000E+00  0.00000000000E+00  0.76128531122E+03  0.76128531123E+03  0.25500000000E-02 0.  1.
          2   -1    0    0  501    0  0.00000000000E+00 -0.00000000000E+00 -0.69389772904E+03  0.69389772905E+03  0.25500000000E-02 0. -1.
    -200001    2    1    2    0    0 -0.36716304769E+02 -0.14256367207E+03  0.39897302604E+03  0.74286963018E+03  0.60910042218E+03 0.  0.
   -5000001    2    3    3    0    0  0.17710999701E+03  0.65747411563E+02  0.34572237808E+03  0.42325763665E+03  0.15470097320E+03 0.  0.
     200001    1    1    2    0    0  0.36716304769E+02  0.14256367207E+03 -0.33158544386E+03  0.71231341010E+03  0.61300000000E+03 0. -1.
         11    1    4    4    0    0  0.10230802466E+03  0.10754369834E+03  0.25407185322E+03  0.29425343763E+03  0.51100000000E-03 0.  1.
    -200002    1    4    4    0    0  0.74801972358E+02 -0.41796286774E+02  0.91650524863E+02  0.12900419902E+03  0.30000000000E+02 0.  1.
    -200000    1    3    3    0    0 -0.21382630178E+03 -0.20831108363E+03  0.53250647959E+02  0.31961199353E+03  0.10100000000E+03 0.  1.
<mgrwt>
<rscale>  0 0.14536219E+04</rscale>
<asrwt>0</asrwt>
<pdfrwt beam="1">  1        2 0.99128247E-01 0.14536219E+04</pdfrwt>
<pdfrwt beam="2">  1       -2 0.10875504E+00 0.14536219E+04</pdfrwt>
<totfact> 0.29849942E+01</totfact>
</mgrwt>
</event>
<event>
 8    2  0.7266322E-052  0.1371038E+04  0.7818608E-02  0.8975053E-01
         -2   -1    0    0    0  501 -0.00000000000E+00  0.00000000000E+00  0.42694727283E+03  0.42694727284E+03  0.25500000000E-02 0. -1.
          2   -1    0    0  501    0  0.00000000000E+00 -0.00000000000E+00 -0.11006899299E+04  0.11006899299E+04  0.25500000000E-02 0.  1.
    -200001    2    1    2    0    0 -0.24314676466E+02 -0.72931593249E+02 -0.66385207051E+03  0.90975611020E+03  0.61728954935E+03 0.  0.
   -5000001    2    3    3    0    0 -0.10791211887E+03  0.17506107467E+03 -0.56336545175E+03  0.61178386943E+03  0.12086134784E+03 0.  0.
     200001    1    1    2    0    0  0.24314676466E+02  0.72931593249E+02 -0.98905865268E+01  0.61788109251E+03  0.61300000000E+03 0. -1.
         11    1    4    4    0    0  0.11479082469E+02  0.11675857572E+00 -0.10875633683E+03  0.10936052198E+03  0.51100000000E-03 0.  1.
    -200002    1    4    4    0    0 -0.11939120134E+03  0.17494431610E+03 -0.45460911492E+03  0.50242334745E+03  0.30000000000E+02 0.  1.
    -200000    1    3    3    0    0  0.83597442408E+02 -0.24799266792E+03 -0.10048661876E+03  0.29797224077E+03  0.10100000000E+03 0.  1.
<mgrwt>
<rscale>  0 0.13710384E+04</rscale>
<asrwt>0</asrwt>
<pdfrwt beam="1">  1        2 0.15724142E+00 0.13710384E+04</pdfrwt>
<pdfrwt beam="2">  1       -2 0.60992468E-01 0.13710384E+04</pdfrwt>
<totfact> 0.59619089E+01</totfact>
</mgrwt>
</event>
<event>
 8    2  0.7266322E-052  0.1496699E+04  0.7818608E-02  0.8886651E-01
          2   -1    0    0  501    0  0.00000000000E+00  0.00000000000E+00  0.20200245016E+04  0.20200245016E+04  0.25500000000E-02 0.  1.
         -2   -1    0    0    0  501 -0.00000000000E+00 -0.00000000000E+00 -0.27723779691E+03  0.27723779692E+03  0.25500000000E-02 0. -1.
    -200001    2    1    2    0    0  0.78170695424E+02 -0.41718754509E+03  0.96774785729E+03  0.12218041076E+04  0.61328073236E+03 0.  0.
   -5000001    2    3    3    0    0 -0.24544778577E+03 -0.78734450603E+02  0.34434475447E+03  0.43560321271E+03  0.68797672493E+02 0.  0.
     200001    1    1    2    0    0 -0.78170695424E+02  0.41718754509E+03  0.77503884739E+03  0.10754581909E+04  0.61300000000E+03 0. -1.
         11    1    4    4    0    0 -0.16724951945E+03 -0.65577183621E+02  0.20582764758E+03  0.27319917511E+03  0.51100000000E-03 0.  1.
    -200002    1    4    4    0    0 -0.78198266317E+02 -0.13157266982E+02  0.13851710689E+03  0.16240403760E+03  0.30000000000E+02 0. -1.
    -200000    1    3    3    0    0  0.32361848119E+03 -0.33845309449E+03  0.62340310282E+03  0.78620089490E+03  0.10100000000E+03 0. -1.
<mgrwt>
<rscale>  0 0.14966992E+04</rscale>
<asrwt>0</asrwt>
<pdfrwt beam="1">  1        2 0.28857493E+00 0.14966992E+04</pdfrwt>
<pdfrwt beam="2">  1       -2 0.39605399E-01 0.14966992E+04</pdfrwt>
<totfact> 0.45722833E+01</totfact>
</mgrwt>
</event>
<event>
 8    2  0.7266322E-052  0.1345113E+04  0.7818608E-02  0.8994536E-01
         -2   -1    0    0    0  501 -0.00000000000E+00  0.00000000000E+00  0.22344905636E+03  0.22344905638E+03  0.25500000000E-02 0. -1.
          2   -1    0    0  501    0  0.00000000000E+00 -0.00000000000E+00 -0.20243178436E+04  0.20243178436E+04  0.25500000000E-02 0.  1.
    -200001    2    1    2    0    0  0.57601860577E+02  0.21909680312E+03 -0.11654155382E+04  0.13362345554E+04  0.61319493387E+03 0.  0.
   -5000001    2    3    3    0    0  0.23392092946E+03 -0.77644300148E+02 -0.69115319119E+03  0.74102915371E+03  0.10336263530E+03 0.  0.
     200001    1    1    2    0    0 -0.57601860577E+02 -0.21909680312E+03 -0.63545324906E+03  0.91153234459E+03  0.61300000000E+03 0. -1.
         11    1    4    4    0    0  0.20789089739E+03 -0.55408737070E+02 -0.49625711824E+03  0.54088804827E+03  0.51100000000E-03 0.  1.
    -200002    1    4    4    0    0  0.26030032069E+02 -0.22235563079E+02 -0.19489607295E+03  0.20014110544E+03  0.30000000000E+02 0. -1.
    -200000    1    3    3    0    0 -0.17631906888E+03  0.29674110327E+03 -0.47426234696E+03  0.59520540166E+03  0.10100000000E+03 0. -1.
<mgrwt>
<rscale>  0 0.13451125E+04</rscale>
<asrwt>0</asrwt>
<pdfrwt beam="1">  1        2 0.28918825E+00 0.13451125E+04</pdfrwt>
<pdfrwt beam="2">  1       -2 0.31921295E-01 0.13451125E+04</pdfrwt>
<totfact> 0.69570300E+01</totfact>
</mgrwt>
</event>
<event>
 8    2  0.7266322E-052  0.1615240E+04  0.7818608E-02  0.8811240E-01
         -2   -1    0    0    0  501 -0.00000000000E+00  0.00000000000E+00  0.15618318363E+04  0.15618318363E+04  0.25500000000E-02 0. -1.
          2   -1    0    0  501    0  0.00000000000E+00 -0.00000000000E+00 -0.41761866535E+03  0.41761866535E+03  0.25500000000E-02 0.  1.
    -200001    2    1    2    0    0  0.33982326521E+03  0.26467416235E+03  0.20239189214E+03  0.77598526119E+03  0.61290976806E+03 0.  0.
   -5000001    2    3    3    0    0  0.41770454512E+03 -0.11205163308E+02  0.10979778658E+03  0.45825964927E+03  0.15278648339E+03 0.  0.
     200001    1    1    2    0    0 -0.33982326521E+03 -0.26467416235E+03  0.94182127879E+03  0.12034652405E+04  0.61300000000E+03 0.  1.
         11    1    4    4    0    0  0.35418107384E+03  0.14518864690E+02  0.13500108352E+03  0.37931559822E+03  0.51100000000E-03 0.  1.
    -200002    1    4    4    0    0  0.63523471280E+02 -0.25724027998E+02 -0.25203296933E+02  0.78944051050E+02  0.30000000000E+02 0.  1.
    -200000    1    3    3    0    0 -0.77881279915E+02  0.27587932565E+03  0.92594105561E+02  0.31772561192E+03  0.10100000000E+03 0. -1.
<mgrwt>
<rscale>  0 0.16152401E+04</rscale>
<asrwt>0</asrwt>
<pdfrwt beam="1">  1        2 0.59659809E-01 0.16152401E+04</pdfrwt>
<pdfrwt beam="2">  1       -2 0.22311884E+00 0.16152401E+04</pdfrwt>
<totfact> 0.74659492E+00</totfact>
</mgrwt>
</event>
<event>
 8    2  0.7266322E-052  0.1468646E+04  0.7818608E-02  0.8905575E-01
          2   -1    0    0  501    0  0.00000000000E+00  0.00000000000E+00  0.34380873503E+04  0.34380873503E+04  0.25500000000E-02 0.  1.
         -2   -1    0    0    0  501 -0.00000000000E+00 -0.00000000000E+00 -0.15684026798E+03  0.15684026800E+03  0.25500000000E-02 0. -1.
    -200001    2    1    2    0    0  0.19803521405E+03  0.30550844916E+03  0.20676603974E+04  0.21874067480E+04  0.61398322755E+03 0.  0.
   -5000001    2    3    3    0    0  0.33150272894E+03  0.27790295347E+03  0.83044635486E+03  0.93861724293E+03  0.65092776676E+02 0.  0.
     200001    1    1    2    0    0 -0.19803521405E+03 -0.30550844916E+03  0.12135866850E+04  0.14075208703E+04  0.61300000000E+03 0.  1.
         11    1    4    4    0    0  0.20701098164E+03  0.17846894140E+03  0.47693860251E+03  0.54970459351E+03  0.51100000000E-03 0.  1.
    -200002    1    4    4    0    0  0.12449174730E+03  0.99434012065E+02  0.35350775235E+03  0.38891264941E+03  0.30000000000E+02 0. -1.
    -200000    1    3    3    0    0 -0.13346751490E+03  0.27605495690E+02  0.12372140425E+04  0.12487895051E+04  0.10100000000E+03 0.  1.
<mgrwt>
<rscale>  0 0.14686464E+04</rscale>
<asrwt>0</asrwt>
<pdfrwt beam="1">  1        2 0.49115529E+00 0.14686464E+04</pdfrwt>
<pdfrwt beam="2">  1       -2 0.22405754E-01 0.14686464E+04</pdfrwt>
<totfact> 0.22453633E+01</totfact>
</mgrwt>
</event>
<event>
 8    2  0.7266322E-052  0.1355315E+04  0.7818608E-02  0.8986815E-01
          2   -1    0    0  501    0  0.00000000000E+00  0.00000000000E+00  0.20872519618E+04  0.20872519618E+04  0.25500000000E-02 0.  1.
         -2   -1    0    0    0  501 -0.00000000000E+00 -0.00000000000E+00 -0.22001152423E+03  0.22001152425E+03  0.25500000000E-02 0. -1.
    -200001    2    1    2    0    0  0.22115609745E+03 -0.77211725046E+02  0.65407090805E+03  0.92798070965E+03  0.61519734622E+03 0.  0.
   -5000001    2    3    3    0    0 -0.10097260994E+03 -0.13311116695E+03  0.53004934268E+03  0.56401093013E+03  0.96135180397E+02 0.  0.
     200001    1    1    2    0    0 -0.22115609745E+03  0.77211725046E+02  0.12131695295E+04  0.13792827764E+04  0.61300000000E+03 0. -1.
         11    1    4    4    0    0 -0.32307662910E+02 -0.59932893010E+02  0.34246145784E+03  0.34916412595E+03  0.51100000000E-03 0.  1.
    -200002    1    4    4    0    0 -0.68664947027E+02 -0.73178273940E+02  0.18758788484E+03  0.21484680418E+03  0.30000000000E+02 0.  1.
    -200000    1    3    3    0    0  0.32212870739E+03  0.55899441903E+02  0.12402156538E+03  0.36396977952E+03  0.10100000000E+03 0.  1.
<mgrwt>
<rscale>  0 0.13553147E+04</rscale>
<asrwt>0</asrwt>
<pdfrwt beam="1">  1        2 0.29817886E+00 0.13553147E+04</pdfrwt>
<pdfrwt beam="2">  1       -2 0.31430217E-01 0.13553147E+04</pdfrwt>
<totfact> 0.66440875E+01</totfact>
</mgrwt>
</event>
<event>
 8    2  0.7266322E-052  0.1624385E+04  0.7818608E-02  0.8805706E-01
         -2   -1    0    0    0  501 -0.00000000000E+00  0.00000000000E+00  0.19168065268E+04  0.19168065268E+04  0.25500000000E-02 0. -1.
          2   -1    0    0  501    0  0.00000000000E+00 -0.00000000000E+00 -0.34414372825E+03  0.34414372826E+03  0.25500000000E-02 0.  1.
    -200001    2    1    2    0    0  0.26300638080E+03 -0.43069020111E+03  0.54862785834E+03  0.96515591780E+03  0.61307994017E+03 0.  0.
   -5000001    2    3    3    0    0  0.12695955855E+02 -0.20880240441E+02  0.45753903565E+03  0.46605904712E+03  0.85275403972E+02 0.  0.
     200001    1    1    2    0    0 -0.26300638080E+03  0.43069020111E+03  0.10240349402E+04  0.12957943372E+04  0.61300000000E+03 0. -1.
         11    1    4    4    0    0  0.32915863795E+02 -0.60707534482E+01  0.35068644464E+03  0.35228013085E+03  0.51100000000E-03 0.  1.
    -200002    1    4    4    0    0 -0.20219907940E+02 -0.14809486993E+02  0.10685259101E+03  0.11377891627E+03  0.30000000000E+02 0.  1.
    -200000    1    3    3    0    0  0.25031042494E+03 -0.40980996067E+03  0.91088822690E+02  0.49909687068E+03  0.10100000000E+03 0.  1.
<mgrwt>
<rscale>  0 0.16243854E+04</rscale>
<asrwt>0</asrwt>
<pdfrwt beam="1">  1        2 0.49163388E-01 0.16243854E+04</pdfrwt>
<pdfrwt beam="2">  1       -2 0.27382951E+00 0.16243854E+04</pdfrwt>
<totfact> 0.45148565E+00</totfact>
</mgrwt>
</event>
<event>
 8    2  0.7266322E-052  0.1494754E+04  0.7818608E-02  0.8887949E-01
          2   -1    0    0  501    0  0.00000000000E+00  0.00000000000E+00  0.28635455015E+04  0.28635455015E+04  0.25500000000E-02 0.  1.
         -2   -1    0    0    0  501 -0.00000000000E+00 -0.00000000000E+00 -0.19506323549E+03  0.19506323551E+03  0.25500000000E-02 0. -1.
    -200001    2    1    2    0    0  0.25427166474E+03 -0.30245471424E+03  0.16598055119E+04  0.18138875924E+04  0.61571172370E+03 0.  0.
   -5000001    2    3    3    0    0  0.44516838160E+02  0.31576706737E+02  0.10655213680E+04  0.10935066367E+04  0.23967090296E+03 0.  0.
     200001    1    1    2    0    0 -0.25427166474E+03  0.30245471424E+03  0.10086767540E+04  0.12447211446E+04  0.61300000000E+03 0. -1.
         11    1    4    4    0    0  0.10997254754E+03  0.60057442564E+02  0.31508569500E+03  0.33908679245E+03  0.51100000000E-03 0.  1.
    -200002    1    4    4    0    0 -0.65455709383E+02 -0.28480735827E+02  0.75043567297E+03  0.75441984430E+03  0.30000000000E+02 0.  1.
    -200000    1    3    3    0    0  0.20975482658E+03 -0.33403142097E+03  0.59428414395E+03  0.72038095562E+03  0.10100000000E+03 0.  1.
<mgrwt>
<rscale>  0 0.14947541E+04</rscale>
<asrwt>0</asrwt>
<pdfrwt beam="1">  1        2 0.40907793E+00 0.14947541E+04</pdfrwt>
<pdfrwt beam="2">  1       -2 0.27866176E-01 0.14947541E+04</pdfrwt>
<totfact> 0.32096186E+01</totfact>
</mgrwt>
</event>
<event>
 8    2  0.7266322E-052  0.1324113E+04  0.7818608E-02  0.9010659E-01
         -2   -1    0    0    0  501 -0.00000000000E+00  0.00000000000E+00  0.20012686464E+03  0.20012686465E+03  0.25500000000E-02 0. -1.
          2   -1    0    0  501    0  0.00000000000E+00 -0.00000000000E+00 -0.21902049684E+04  0.21902049684E+04  0.25500000000E-02 0.  1.
    -200001    2    1    2    0    0 -0.93769784721E+01  0.20694086823E+03 -0.12427251897E+04  0.14017885468E+04  0.61459969256E+03 0.  0.
   -5000001    2    3    3    0    0 -0.18666705151E+03  0.28063596258E+03 -0.10721831111E+04  0.11258386646E+04  0.65840286175E+02 0.  0.
     200001    1    1    2    0    0  0.93769784721E+01 -0.20694086823E+03 -0.74735291402E+03  0.98854328624E+03  0.61300000000E+03 0. -1.
         11    1    4    4    0    0 -0.27103048135E+01  0.32037216928E+02 -0.83234002480E+02  0.89227956324E+02  0.51100000000E-03 0.  1.
    -200002    1    4    4    0    0 -0.18395674669E+03  0.24859874566E+03 -0.98894910863E+03  0.10366107082E+04  0.30000000000E+02 0.  1.
    -200000    1    3    3    0    0  0.17729007303E+03 -0.73695094350E+02 -0.17054207864E+03  0.27594988225E+03  0.10100000000E+03 0. -1.
<mgrwt>
<rscale>  0 0.13241131E+04</rscale>
<asrwt>0</asrwt>
<pdfrwt beam="1">  1        2 0.31288641E+00 0.13241131E+04</pdfrwt>
<pdfrwt beam="2">  1       -2 0.28589553E-01 0.13241131E+04</pdfrwt>
<totfact> 0.70338124E+01</totfact>
</mgrwt>
</event>
<event>
 8    2  0.7266322E-052  0.1570714E+04  0.7818608E-02  0.8838744E-01
         -2   -1    0    0    0  501 -0.00000000000E+00  0.00000000000E+00  0.23661007115E+03  0.23661007116E+03  0.25500000000E-02 0. -1.
          2   -1    0    0  501    0  0.00000000000E+00 -0.00000000000E+00 -0.26067588427E+04  0.26067588427E+04  0.25500000000E-02 0.  1.
    -200001    2    1    2    0    0  0.43352279469E+01  0.45574045711E+03 -0.15142367067E+04  0.16961668300E+04  0.61347449240E+03 0.  0.
   -5000001    2    3    3    0    0 -0.26850484555E+03  0.29252954338E+03 -0.60338860735E+03  0.72615406299E+03  0.74521982588E+02 0.  0.
     200001    1    1    2    0    0 -0.43352279469E+01 -0.45574045711E+03 -0.85591206482E+03  0.11472020838E+04  0.61300000000E+03 0.  1.
         11    1    4    4    0    0 -0.93102113823E+02  0.63068943164E+02 -0.19409286959E+03  0.22431615461E+03  0.51100000000E-03 0.  1.
    -200002    1    4    4    0    0 -0.17540273173E+03  0.22946060022E+03 -0.40929573776E+03  0.50183790839E+03  0.30000000000E+02 0.  1.
    -200000    1    3    3    0    0  0.27284007350E+03  0.16321091373E+03 -0.91084809934E+03  0.97001276700E+03  0.10100000000E+03 0.  1.
<mgrwt>
<rscale>  0 0.15707137E+04</rscale>
<asrwt>0</asrwt>
<pdfrwt beam="1">  1        2 0.37239410E+00 0.15707137E+04</pdfrwt>
<pdfrwt beam="2">  1       -2 0.33801440E-01 0.15707137E+04</pdfrwt>
<totfact> 0.30548678E+01</totfact>
</mgrwt>
</event>
<event>
 8    2  0.7266322E-052  0.1350186E+04  0.7818608E-02  0.8990687E-01
         -2   -1    0    0    0  501 -0.00000000000E+00  0.00000000000E+00  0.51800474062E+03  0.51800474063E+03  0.25500000000E-02 0. -1.
          2   -1    0    0  501    0  0.00000000000E+00 -0.00000000000E+00 -0.87981963428E+03  0.87981963428E+03  0.25500000000E-02 0.  1.
    -200001    2    1    2    0    0 -0.89670457990E+02 -0.39821100355E+02  0.98708427021E+02  0.62485785561E+03  0.60916128823E+03 0.  0.
   -5000001    2    3    3    0    0  0.19335133806E+03  0.47999529458E+01 -0.12560709053E+03  0.24721936863E+03  0.89064558351E+02 0.  0.
     200001    1    1    2    0    0  0.89670457990E+02  0.39821100355E+02 -0.46052332068E+03  0.77296651930E+03  0.61300000000E+03 0.  1.
         11    1    4    4    0    0  0.66213395167E+02  0.38271900766E+02 -0.31151322738E+02  0.82579398135E+02  0.51100000000E-03 0.  1.
    -200002    1    4    4    0    0  0.12713794289E+03 -0.33471947820E+02 -0.94455767792E+02  0.16463997049E+03  0.30000000000E+02 0.  1.
    -200000    1    3    3    0    0 -0.28302179605E+03 -0.44621053300E+02  0.22431551755E+03  0.37763848698E+03  0.10100000000E+03 0. -1.
<mgrwt>
<rscale>  0 0.13501863E+04</rscale>
<asrwt>0</asrwt>
<pdfrwt beam="1">  1        2 0.12568852E+00 0.13501863E+04</pdfrwt>
<pdfrwt beam="2">  1       -2 0.74000678E-01 0.13501863E+04</pdfrwt>
<totfact> 0.53959071E+01</totfact>
</mgrwt>
</event>
<event>
 8    2  0.7266322E-052  0.1317605E+04  0.7818608E-02  0.9015719E-01
         -2   -1    0    0    0  501 -0.00000000000E+00  0.00000000000E+00  0.30971614065E+03  0.30971614066E+03  0.25500000000E-02 0. -1.
          2   -1    0    0  501    0  0.00000000000E+00 -0.00000000000E+00 -0.14013507232E+04  0.14013507232E+04  0.25500000000E-02 0.  1.
    -200001    2    1    2    0    0  0.18321042981E+02  0.19554243619E+03 -0.72873256547E+03  0.97212208990E+03  0.61269707094E+03 0.  0.
   -5000001    2    3    3    0    0  0.87437807185E+02 -0.16654071725E+03 -0.43329494865E+03  0.48904267352E+03  0.12663744855E+03 0.  0.
     200001    1    1    2    0    0 -0.18321042981E+02 -0.19554243619E+03 -0.36290201710E+03  0.73894477397E+03  0.61300000000E+03 0.  1.
         11    1    4    4    0    0 -0.21798774227E+02  0.18936234412E+00 -0.21802258437E+02  0.30831167495E+02  0.51100000000E-03 0.  1.
    -200002    1    4    4    0    0  0.10923658141E+03 -0.16673007959E+03 -0.41149269021E+03  0.45821150603E+03  0.30000000000E+02 0.  1.
    -200000    1    3    3    0    0 -0.69116764204E+02  0.36208315344E+03 -0.29543761682E+03  0.48307941638E+03  0.10100000000E+03 0.  1.
<mgrwt>
<rscale>  0 0.13176053E+04</rscale>
<asrwt>0</asrwt>
<pdfrwt beam="1">  1        2 0.20019296E+00 0.13176053E+04</pdfrwt>
<pdfrwt beam="2">  1       -2 0.44245164E-01 0.13176053E+04</pdfrwt>
<totfact> 0.78346479E+01</totfact>
</mgrwt>
</event>
<event>
 8    2  0.7266322E-052  0.1670685E+04  0.7818608E-02  0.8778262E-01
          2   -1    0    0  501    0  0.00000000000E+00  0.00000000000E+00  0.66933198255E+03  0.66933198255E+03  0.25500000000E-02 0.  1.
         -2   -1    0    0    0  501 -0.00000000000E+00 -0.00000000000E+00 -0.10425280747E+04  0.10425280747E+04  0.25500000000E-02 0. -1.
    -200001    2    1    2    0    0 -0.19561731489E+03 -0.13553092175E+03 -0.71451976549E+03  0.97097841045E+03  0.61288319740E+03 0.  0.
   -5000001    2    3    3    0    0 -0.80575488510E+02 -0.26566538931E+03 -0.63277024011E+03  0.75406002404E+03  0.30189043486E+03 0.  0.
     200001    1    1    2    0    0  0.19561731489E+03  0.13553092175E+03  0.34132367331E+03  0.74088164682E+03  0.61300000000E+03 0.  1.
         11    1    4    4    0    0  0.26958427178E+02 -0.86310457971E+02 -0.37389987551E+01  0.90499900901E+02  0.51100000000E-03 0.  1.
    -200002    1    4    4    0    0 -0.10753391569E+03 -0.17935493134E+03 -0.62903124136E+03  0.66356012314E+03  0.30000000000E+02 0.  1.
    -200000    1    3    3    0    0 -0.11504182638E+03  0.13013446756E+03 -0.81749525375E+02  0.21691838641E+03  0.10100000000E+03 0. -1.
<mgrwt>
<rscale>  0 0.16706853E+04</rscale>
<asrwt>0</asrwt>
<pdfrwt beam="1">  1        2 0.95618855E-01 0.16706853E+04</pdfrwt>
<pdfrwt beam="2">  1       -2 0.14893258E+00 0.16706853E+04</pdfrwt>
<totfact> 0.13878807E+01</totfact>
</mgrwt>
</event>
<event>
 8    2  0.7266322E-052  0.1651997E+04  0.7818608E-02  0.8789226E-01
         -2   -1    0    0    0  501 -0.00000000000E+00  0.00000000000E+00  0.64054213435E+03  0.64054213435E+03  0.25500000000E-02 0. -1.
          2   -1    0    0  501    0  0.00000000000E+00 -0.00000000000E+00 -0.10651506560E+04  0.10651506560E+04  0.25500000000E-02 0.  1.
    -200001    2    1    2    0    0  0.50008880767E+03  0.20020951572E+03 -0.81719563437E+02  0.82052924424E+03  0.61352871804E+03 0.  0.
   -5000001    2    3    3    0    0 -0.77303094613E+02  0.69340950663E+02  0.10198171301E+03  0.19247259941E+03  0.12594243073E+03 0.  0.
     200001    1    1    2    0    0 -0.50008880767E+03 -0.20020951572E+03 -0.34288895824E+03  0.88516354615E+03  0.61300000000E+03 0. -1.
         11    1    4    4    0    0 -0.25410596024E+02 -0.56370883723E+01 -0.23101025792E+02  0.34801329694E+02  0.51100000000E-03 0.  1.
    -200002    1    4    4    0    0 -0.51892498589E+02  0.74978039035E+02  0.12508273880E+03  0.15767126972E+03  0.30000000000E+02 0.  1.
    -200000    1    3    3    0    0  0.57739190228E+03  0.13086856506E+03 -0.18370127645E+03  0.62805664483E+03  0.10100000000E+03 0.  1.
<mgrwt>
<rscale>  0 0.16519974E+04</rscale>
<asrwt>0</asrwt>
<pdfrwt beam="1">  1        2 0.15216438E+00 0.16519974E+04</pdfrwt>
<pdfrwt beam="2">  1       -2 0.91506019E-01 0.16519974E+04</pdfrwt>
<totfact> 0.24962376E+01</totfact>
</mgrwt>
</event>
<event>
 8    2  0.7266322E-052  0.1254702E+04  0.7818608E-02  0.9066279E-01
         -2   -1    0    0    0  501 -0.00000000000E+00  0.00000000000E+00  0.24241932051E+03  0.24241932052E+03  0.25500000000E-02 0. -1.
          2   -1    0    0  501    0  0.00000000000E+00 -0.00000000000E+00 -0.16235072184E+04  0.16235072184E+04  0.25500000000E-02 0.  1.
    -200001    2    1    2    0    0 -0.71078438303E+02  0.12259989536E+03 -0.70225605312E+03  0.94036478937E+03  0.60913011272E+03 0.  0.
   -5000001    2    3    3    0    0  0.23752171931E+02  0.31338039790E+03 -0.19395238321E+03  0.38004018200E+03  0.89674821001E+02 0.  0.
     200001    1    1    2    0    0  0.71078438303E+02 -0.12259989536E+03 -0.67883184473E+03  0.92556174951E+03  0.61300000000E+03 0. -1.
         11    1    4    4    0    0  0.42016343795E+01  0.26932147125E+03 -0.16931557726E+03  0.31815007985E+03  0.51100000000E-03 0.  1.
    -200002    1    4    4    0    0  0.19550537551E+02  0.44058926650E+02 -0.24636805947E+02  0.61890102144E+02  0.30000000000E+02 0.  1.
    -200000    1    3    3    0    0 -0.94830610234E+02 -0.19078050254E+03 -0.50830366991E+03  0.56032460737E+03  0.10100000000E+03 0. -1.
<mgrwt>
<rscale>  0 0.12547024E+04</rscale>
<asrwt>0</asrwt>
<pdfrwt beam="1">  1        2 0.23192960E+00 0.12547024E+04</pdfrwt>
<pdfrwt beam="2">  1       -2 0.34631333E-01 0.12547024E+04</pdfrwt>
<totfact> 0.96631190E+01</totfact>
</mgrwt>
</event>
<event>
 8    2  0.7266322E-052  0.1641387E+04  0.7818608E-02  0.8795518E-01
          2   -1    0    0  501    0  0.00000000000E+00  0.00000000000E+00  0.14505143194E+04  0.14505143194E+04  0.25500000000E-02 0.  1.
         -2   -1    0    0    0  501 -0.00000000000E+00 -0.00000000000E+00 -0.46434391698E+03  0.46434391699E+03  0.25500000000E-02 0. -1.
    -200001    2    1    2    0    0  0.10019785659E+03 -0.59054157847E+02 -0.12924111531E+03  0.63679765179E+03  0.61260181147E+03 0.  0.
   -5000001    2    3    3    0    0 -0.24276022153E+03  0.26805246658E+02 -0.69841534789E+02  0.26434444552E+03  0.73137538177E+02 0.  0.
     200001    1    1    2    0    0 -0.10019785659E+03  0.59054157847E+02  0.11154115178E+04  0.12780605846E+04  0.61300000000E+03 0.  1.
         11    1    4    4    0    0 -0.34584003777E+02 -0.12634564302E+02 -0.28103472655E+02  0.46319442007E+02  0.51100000000E-03 0.  1.
    -200002    1    4    4    0    0 -0.20817621776E+03  0.39439810959E+02 -0.41738062133E+02  0.21802500352E+03  0.30000000000E+02 0.  1.
    -200000    1    3    3    0    0  0.34295807813E+03 -0.85859404505E+02 -0.59399580525E+02  0.37245320627E+03  0.10100000000E+03 0.  1.
<mgrwt>
<rscale>  0 0.16413866E+04</rscale>
<asrwt>0</asrwt>
<pdfrwt beam="1">  1        2 0.20721633E+00 0.16413866E+04</pdfrwt>
<pdfrwt beam="2">  1       -2 0.66334845E-01 0.16413866E+04</pdfrwt>
<totfact> 0.31104359E+01</totfact>
</mgrwt>
</event>
<event>
 8    2  0.7266322E-052  0.2182868E+04  0.7818608E-02  0.8525593E-01
          2   -1    0    0  501    0  0.00000000000E+00  0.00000000000E+00  0.21210751841E+04  0.21210751841E+04  0.25500000000E-02 0.  1.
         -2   -1    0    0    0  501 -0.00000000000E+00 -0.00000000000E+00 -0.56161533824E+03  0.56161533825E+03  0.25500000000E-02 0. -1.
    -200001    2    1    2    0    0 -0.78993071739E+03 -0.12485064946E+03  0.26368349302E+03  0.10412327618E+04  0.61242016371E+03 0.  0.
   -5000001    2    3    3    0    0 -0.30500991013E+03  0.72251010244E+01 -0.17338434197E+03  0.36757002312E+03  0.10937250337E+03 0.  0.
     200001    1    1    2    0    0  0.78993071739E+03  0.12485064946E+03  0.12957763529E+04  0.16414577605E+04  0.61300000000E+03 0. -1.
         11    1    4    4    0    0 -0.11028243124E+03  0.48524637701E+02 -0.86461208864E+02  0.14829833358E+03  0.51100000000E-03 0.  1.
    -200002    1    4    4    0    0 -0.19472747889E+03 -0.41299536676E+02 -0.86923133103E+02  0.21927168954E+03  0.30000000000E+02 0.  1.
    -200000    1    3    3    0    0 -0.48492080726E+03 -0.13207575048E+03  0.43706783498E+03  0.67366273873E+03  0.10100000000E+03 0.  1.
<mgrwt>
<rscale>  0 0.21828682E+04</rscale>
<asrwt>0</asrwt>
<pdfrwt beam="1">  1        2 0.30301075E+00 0.21828682E+04</pdfrwt>
<pdfrwt beam="2">  1       -2 0.80230761E-01 0.21828682E+04</pdfrwt>
<totfact> 0.87729180E+00</totfact>
</mgrwt>
</event>
<event>
 8    2  0.7266322E-052  0.1321713E+04  0.7818608E-02  0.9012521E-01
          2   -1    0    0  501    0  0.00000000000E+00  0.00000000000E+00  0.10308593907E+04  0.10308593907E+04  0.25500000000E-02 0.  1.
         -2   -1    0    0    0  501 -0.00000000000E+00 -0.00000000000E+00 -0.42365764754E+03  0.42365764754E+03  0.25500000000E-02 0. -1.
    -200001    2    1    2    0    0  0.19488119279E+02  0.22975316057E+03  0.40048428564E+03  0.76773657201E+03  0.61307868938E+03 0.  0.
   -5000001    2    3    3    0    0  0.29151729189E+03  0.11048273219E+03  0.29700610010E+03  0.43738215518E+03  0.76822917096E+02 0.  0.
     200001    1    1    2    0    0 -0.19488119279E+02 -0.22975316057E+03  0.20671745756E+03  0.68678046627E+03  0.61300000000E+03 0. -1.
         11    1    4    4    0    0  0.19257513072E+03  0.87380385049E+02  0.22787387746E+03  0.31088103302E+03  0.51100000000E-03 0.  1.
    -200002    1    4    4    0    0  0.98942161173E+02  0.23102347137E+02  0.69132222637E+02  0.12650112216E+03  0.30000000000E+02 0.  1.
    -200000    1    3    3    0    0 -0.27202917261E+03  0.11927042839E+03  0.10347818555E+03  0.33035441683E+03  0.10100000000E+03 0.  1.
<mgrwt>
<rscale>  0 0.13217132E+04</rscale>
<asrwt>0</asrwt>
<pdfrwt beam="1">  1        2 0.14726563E+00 0.13217132E+04</pdfrwt>
<pdfrwt beam="2">  1       -2 0.60522521E-01 0.13217132E+04</pdfrwt>
<totfact> 0.66975030E+01</totfact>
</mgrwt>
</event>
<event>
 8    2  0.7266322E-052  0.1298379E+04  0.7818608E-02  0.9030852E-01
          2   -1    0    0  501    0  0.00000000000E+00  0.00000000000E+00  0.13699306015E+04  0.13699306016E+04  0.25500000000E-02 0.  1.
         -2   -1    0    0    0  501 -0.00000000000E+00 -0.00000000000E+00 -0.30764093656E+03  0.30764093657E+03  0.25500000000E-02 0. -1.
    -200001    2    1    2    0    0 -0.12930166631E+03  0.14297954966E+03  0.64442656609E+03  0.91105954085E+03  0.61447686316E+03 0.  0.
   -5000001    2    3    3    0    0 -0.35645971593E+03  0.14679542113E+03  0.38396657992E+03  0.55098212587E+03  0.86824787850E+02 0.  0.
     200001    1    1    2    0    0  0.12930166631E+03 -0.14297954966E+03  0.41786309891E+03  0.76651199727E+03  0.61300000000E+03 0. -1.
         11    1    4    4    0    0 -0.26170643382E+03  0.12706937205E+03  0.31268617295E+03  0.42709428183E+03  0.51100000000E-03 0.  1.
    -200002    1    4    4    0    0 -0.94753282110E+02  0.19726049080E+02  0.71280406964E+02  0.12388784404E+03  0.30000000000E+02 0. -1.
    -200000    1    3    3    0    0  0.22715804963E+03 -0.38158714636E+01  0.26045998617E+03  0.36007741498E+03  0.10100000000E+03 0.  1.
<mgrwt>
<rscale>  0 0.12983786E+04</rscale>
<asrwt>0</asrwt>
<pdfrwt beam="1">  1        2 0.19570438E+00 0.12983786E+04</pdfrwt>
<pdfrwt beam="2">  1       -2 0.43948704E-01 0.12983786E+04</pdfrwt>
<totfact> 0.82693548E+01</totfact>
</mgrwt>
</event>
<event>
 8    2  0.7266322E-052  0.1406726E+04  0.7818608E-02  0.8948964E-01
         -2   -1    0    0    0  501 -0.00000000000E+00  0.00000000000E+00  0.28353958795E+03  0.28353958796E+03  0.25500000000E-02 0. -1.
          2   -1    0    0  501    0  0.00000000000E+00 -0.00000000000E+00 -0.17447982744E+04  0.17447982744E+04  0.25500000000E-02 0.  1.
    -200001    2    1    2    0    0 -0.43522291949E+02 -0.33878510290E+03 -0.64791777274E+03  0.95411163955E+03  0.61144259310E+03 0.  0.
   -5000001    2    3    3    0    0 -0.20828323882E+03 -0.10194150165E+03 -0.74503526221E+01  0.24443525041E+03  0.76935730061E+02 0.  0.
     200001    1    1    2    0    0  0.43522291949E+02  0.33878510290E+03 -0.81334091367E+03  0.10742262228E+04  0.61300000000E+03 0.  1.
         11    1    4    4    0    0 -0.10358322679E+03 -0.19391000415E+02 -0.19760581840E+02  0.10721929100E+03  0.51100000000E-03 0.  1.
    -200002    1    4    4    0    0 -0.10470001203E+03 -0.82550501234E+02  0.12310229218E+02  0.13721595941E+03  0.30000000000E+02 0.  1.
    -200000    1    3    3    0    0  0.16476094687E+03 -0.23684360125E+03 -0.64046742012E+03  0.70967638914E+03  0.10100000000E+03 0. -1.
<mgrwt>
<rscale>  0 0.14067258E+04</rscale>
<asrwt>0</asrwt>
<pdfrwt beam="1">  1        2 0.24925689E+00 0.14067258E+04</pdfrwt>
<pdfrwt beam="2">  1       -2 0.40505656E-01 0.14067258E+04</pdfrwt>
<totfact> 0.61064782E+01</totfact>
</mgrwt>
</event>
<event>
 8    2  0.7266322E-052  0.1738111E+04  0.7818608E-02  0.8739922E-01
         -2   -1    0    0    0  501 -0.00000000000E+00  0.00000000000E+00  0.79124729174E+03  0.79124729174E+03  0.25500000000E-02 0. -1.
          2   -1    0    0  501    0  0.00000000000E+00 -0.00000000000E+00 -0.95451500103E+03  0.95451500104E+03  0.25500000000E-02 0.  1.
    -200001    2    1    2    0    0  0.60436128914E+03 -0.11523174787E+03 -0.75575365562E+02  0.87284198102E+03  0.61450025584E+03 0.  0.
   -5000001    2    3    3    0    0  0.66383226865E+03 -0.19850959458E+03 -0.12567588408E+03  0.72058214024E+03  0.15285566051E+03 0.  0.
     200001    1    1    2    0    0 -0.60436128914E+03  0.11523174787E+03 -0.87692343737E+02  0.87292031176E+03  0.61300000000E+03 0.  1.
         11    1    4    4    0    0  0.64550151725E+03 -0.19029702607E+03 -0.12496504732E+03  0.68447164291E+03  0.51100000000E-03 0.  1.
    -200002    1    4    4    0    0  0.18330751409E+02 -0.82125685143E+01 -0.71083676402E+00  0.36110497334E+02  0.30000000000E+02 0. -1.
    -200000    1    3    3    0    0 -0.59470979515E+02  0.83277846712E+02  0.50100518523E+02  0.15225984078E+03  0.10100000000E+03 0.  1.
<mgrwt>
<rscale>  0 0.17381109E+04</rscale>
<asrwt>0</asrwt>
<pdfrwt beam="1">  1        2 0.13635929E+00 0.17381109E+04</pdfrwt>
<pdfrwt beam="2">  1       -2 0.11303533E+00 0.17381109E+04</pdfrwt>
<totfact> 0.17549679E+01</totfact>
</mgrwt>
</event>
<event>
 8    2  0.7266322E-052  0.1558247E+04  0.7818608E-02  0.8846617E-01
          2   -1    0    0  501    0  0.00000000000E+00  0.00000000000E+00  0.72408007791E+03  0.72408007791E+03  0.25500000000E-02 0.  1.
         -2   -1    0    0    0  501 -0.00000000000E+00 -0.00000000000E+00 -0.83835141917E+03  0.83835141917E+03  0.25500000000E-02 0. -1.
    -200001    2    1    2    0    0 -0.69243832129E+02 -0.46427073749E+03  0.49049092031E+02  0.77326447426E+03  0.61252763836E+03 0.  0.
   -5000001    2    3    3    0    0 -0.22133084753E+03 -0.52872744314E+03  0.30482800326E+02  0.57876297209E+03  0.74143938050E+02 0.  0.
     200001    1    1    2    0    0  0.69243832129E+02  0.46427073749E+03 -0.16332043329E+03  0.78916702282E+03  0.61300000000E+03 0. -1.
         11    1    4    4    0    0 -0.26683531919E+02 -0.13556488277E+03  0.36888032192E+01  0.13821525092E+03  0.51100000000E-03 0.  1.
    -200002    1    4    4    0    0 -0.19464731562E+03 -0.39316256037E+03  0.26793997107E+02  0.44054772118E+03  0.30000000000E+02 0.  1.
    -200000    1    3    3    0    0  0.15208701541E+03  0.64456705652E+02  0.18566291705E+02  0.19450150217E+03  0.10100000000E+03 0.  1.
<mgrwt>
<rscale>  0 0.15582472E+04</rscale>
<asrwt>0</asrwt>
<pdfrwt beam="1">  1        2 0.10344001E+00 0.15582472E+04</pdfrwt>
<pdfrwt beam="2">  1       -2 0.11976449E+00 0.15582472E+04</pdfrwt>
<totfact> 0.22198283E+01</totfact>
</mgrwt>
</event>
<event>
 8    2  0.7266322E-052  0.1511070E+04  0.7818608E-02  0.8877125E-01
         -2   -1    0    0    0  501 -0.00000000000E+00  0.00000000000E+00  0.86926182939E+03  0.86926182940E+03  0.25500000000E-02 0. -1.
          2   -1    0    0  501    0  0.00000000000E+00 -0.00000000000E+00 -0.65668740663E+03  0.65668740663E+03  0.25500000000E-02 0.  1.
    -200001    2    1    2    0    0 -0.82880774888E+02 -0.40612208475E+02 -0.33009102646E+03  0.70207220387E+03  0.61272075155E+03 0.  0.
   -5000001    2    3    3    0    0  0.20110601532E+03  0.48746689675E+02 -0.31867382407E+03  0.38748539201E+03  0.75974033192E+02 0.  0.
     200001    1    1    2    0    0  0.82880774888E+02  0.40612208475E+02  0.54266544923E+03  0.82387703215E+03  0.61300000000E+03 0. -1.
         11    1    4    4    0    0  0.13365787557E+03  0.42323461876E+01 -0.18076027487E+03  0.22484798738E+03  0.51100000000E-03 0.  1.
    -200002    1    4    4    0    0  0.67448139747E+02  0.44514343487E+02 -0.13791354920E+03  0.16263740463E+03  0.30000000000E+02 0.  1.
    -200000    1    3    3    0    0 -0.28398679020E+03 -0.89358898150E+02 -0.11417202390E+02  0.31458681186E+03  0.10100000000E+03 0. -1.
<mgrwt>
<rscale>  0 0.15110702E+04</rscale>
<asrwt>0</asrwt>
<pdfrwt beam="1">  1        2 0.93812487E-01 0.15110702E+04</pdfrwt>
<pdfrwt beam="2">  1       -2 0.12418026E+00 0.15110702E+04</pdfrwt>
<totfact> 0.22950940E+01</totfact>
</mgrwt>
</event>
<event>
 8    2  0.7266322E-052  0.1657936E+04  0.7818608E-02  0.8785726E-01
         -2   -1    0    0    0  501 -0.00000000000E+00  0.00000000000E+00  0.77560949632E+03  0.77560949633E+03  0.25500000000E-02 0. -1.
          2   -1    0    0  501    0  0.00000000000E+00 -0.00000000000E+00 -0.88599689284E+03  0.88599689284E+03  0.25500000000E-02 0.  1.
    -200001    2    1    2    0    0 -0.44032393202E+03 -0.34342141195E+03 -0.52437034278E+02  0.83037196027E+03  0.61232713360E+03 0.  0.
   -5000001    2    3    3    0    0 -0.15821259178E+03 -0.45466132469E+03  0.60032688398E+02  0.49153340728E+03  0.79076054709E+02 0.  0.
     200001    1    1    2    0    0  0.44032393202E+03  0.34342141195E+03 -0.57950362237E+02  0.83123442890E+03  0.61300000000E+03 0. -1.
         11    1    4    4    0    0 -0.11763247127E+03 -0.23921749943E+03  0.33651399996E+02  0.26869095082E+03  0.51100000000E-03 0.  1.
    -200002    1    4    4    0    0 -0.40580120512E+02 -0.21544382525E+03  0.26381288402E+02  0.22284245645E+03  0.30000000000E+02 0.  1.
    -200000    1    3    3    0    0 -0.28211134024E+03  0.11123991273E+03 -0.11246972268E+03  0.33883855299E+03  0.10100000000E+03 0. -1.
<mgrwt>
<rscale>  0 0.16579356E+04</rscale>
<asrwt>0</asrwt>
<pdfrwt beam="1">  1        2 0.12657098E+00 0.16579356E+04</pdfrwt>
<pdfrwt beam="2">  1       -2 0.11080136E+00 0.16579356E+04</pdfrwt>
<totfact> 0.20525038E+01</totfact>
</mgrwt>
</event>
<event>
 8    2  0.7266322E-052  0.1587320E+04  0.7818608E-02  0.8828376E-01
          2   -1    0    0  501    0  0.00000000000E+00  0.00000000000E+00  0.73244311739E+03  0.73244311739E+03  0.25500000000E-02 0.  1.
         -2   -1    0    0    0  501 -0.00000000000E+00 -0.00000000000E+00 -0.85999286503E+03  0.85999286503E+03  0.25500000000E-02 0. -1.
    -200001    2    1    2    0    0  0.42205261350E+03  0.24300634964E+03  0.67630502312E+02  0.78556249513E+03  0.61266145168E+03 0.  0.
   -5000001    2    3    3    0    0  0.39251430848E+03  0.39710710546E+03 -0.47591154925E+02  0.56625315948E+03  0.81339947232E+02 0.  0.
     200001    1    1    2    0    0 -0.42205261350E+03 -0.24300634964E+03 -0.19518024995E+03  0.80687348730E+03  0.61300000000E+03 0.  1.
         11    1    4    4    0    0  0.47989507461E+02  0.78131331616E+02  0.10148721957E+02  0.92252340697E+02  0.51100000000E-03 0.  1.
    -200002    1    4    4    0    0  0.34452480102E+03  0.31897577385E+03 -0.57739876882E+02  0.47400081878E+03  0.30000000000E+02 0.  1.
    -200000    1    3    3    0    0  0.29538305019E+02 -0.15410075582E+03  0.11522165724E+03  0.21930933565E+03  0.10100000000E+03 0.  1.
<mgrwt>
<rscale>  0 0.15873196E+04</rscale>
<asrwt>0</asrwt>
<pdfrwt beam="1">  1        2 0.10463473E+00 0.15873196E+04</pdfrwt>
<pdfrwt beam="2">  1       -2 0.12285612E+00 0.15873196E+04</pdfrwt>
<totfact> 0.20489277E+01</totfact>
</mgrwt>
</event>
<event>
 8    2  0.7266322E-052  0.1539661E+04  0.7818608E-02  0.8858499E-01
         -2   -1    0    0    0  501 -0.00000000000E+00  0.00000000000E+00  0.40508728702E+03  0.40508728702E+03  0.25500000000E-02 0.  1.
          2   -1    0    0  501    0  0.00000000000E+00 -0.00000000000E+00 -0.14629913907E+04  0.14629913907E+04  0.25500000000E-02 0. -1.
    -200001    2    1    2    0    0  0.25569663375E+03  0.40295723257E+02 -0.59234696478E+02  0.66803113753E+03  0.61298640900E+03 0.  0.
   -5000001    2    3    3    0    0 -0.45555734021E+01 -0.18208929183E+03 -0.20220571598E+03  0.28354704335E+03  0.79589639841E+02 0.  0.
     200001    1    1    2    0    0 -0.25569663375E+03 -0.40295723257E+02 -0.99866940719E+03  0.12000475402E+04  0.61300000000E+03 0. -1.
         11    1    4    4    0    0  0.17322797523E+02 -0.14584750332E+03 -0.15105474460E+03  0.21068723123E+03  0.51100000000E-03 0.  1.
    -200002    1    4    4    0    0 -0.21878370925E+02 -0.36241788514E+02 -0.51150971374E+02  0.72859812116E+02  0.30000000000E+02 0. -1.
    -200000    1    3    3    0    0  0.26025220716E+03  0.22238501509E+03  0.14297101950E+03  0.38448409419E+03  0.10100000000E+03 0.  1.
<mgrwt>
<rscale>  0 0.15396613E+04</rscale>
<asrwt>0</asrwt>
<pdfrwt beam="1">  1        2 0.20899877E+00 0.15396613E+04</pdfrwt>
<pdfrwt beam="2">  1       -2 0.57869613E-01 0.15396613E+04</pdfrwt>
<totfact> 0.41265481E+01</totfact>
</mgrwt>
</event>
<event>
 8    2  0.7266322E-052  0.1435479E+04  0.7818608E-02  0.8928530E-01
         -2   -1    0    0    0  501 -0.00000000000E+00  0.00000000000E+00  0.66468722584E+03  0.66468722585E+03  0.25500000000E-02 0. -1.
          2   -1    0    0  501    0  0.00000000000E+00 -0.00000000000E+00 -0.77502566265E+03  0.77502566265E+03  0.25500000000E-02 0.  1.
    -200001    2    1    2    0    0 -0.28708892491E+03 -0.17110275045E+03 -0.23090769366E+03  0.73119178951E+03  0.60796946308E+03 0.  0.
   -5000001    2    3    3    0    0 -0.15933881443E+03 -0.34614108758E+03 -0.29069788513E+03  0.48474833315E+03  0.72616635677E+02 0.  0.
     200001    1    1    2    0    0  0.28708892491E+03  0.17110275045E+03  0.12056925685E+03  0.70852109899E+03  0.61300000000E+03 0.  1.
         11    1    4    4    0    0 -0.68753247949E+02 -0.82461767576E+02 -0.74841522855E+02  0.13087477128E+03  0.51100000000E-03 0.  1.
    -200002    1    4    4    0    0 -0.90585566484E+02 -0.26367932000E+03 -0.21585636227E+03  0.35387356186E+03  0.30000000000E+02 0.  1.
    -200000    1    3    3    0    0 -0.12775011047E+03  0.17503833712E+03  0.59790191469E+02  0.24644345637E+03  0.10100000000E+03 0. -1.
<mgrwt>
<rscale>  0 0.14354785E+04</rscale>
<asrwt>0</asrwt>
<pdfrwt beam="1">  1        2 0.11071795E+00 0.14354785E+04</pdfrwt>
<pdfrwt beam="2">  1       -2 0.94955318E-01 0.14354785E+04</pdfrwt>
<totfact> 0.35936384E+01</totfact>
</mgrwt>
</event>
<event>
 8    2  0.7266322E-052  0.1854135E+04  0.7818608E-02  0.8678029E-01
          2   -1    0    0  501    0  0.00000000000E+00  0.00000000000E+00  0.95317578363E+03  0.95317578363E+03  0.25500000000E-02 0.  1.
         -2   -1    0    0    0  501 -0.00000000000E+00 -0.00000000000E+00 -0.90167471101E+03  0.90167471101E+03  0.25500000000E-02 0. -1.
    -200001    2    1    2    0    0  0.37407193477E+03 -0.49520579319E+03 -0.28767161680E+03  0.91892010021E+03  0.61359644838E+03 0.  0.
   -5000001    2    3    3    0    0  0.44648271069E+03 -0.55288743280E+03 -0.31273124378E+03  0.77963809519E+03  0.70734746354E+02 0.  0.
     200001    1    1    2    0    0 -0.37407193477E+03  0.49520579319E+03  0.33917268942E+03  0.93593039444E+03  0.61300000000E+03 0. -1.
         11    1    4    4    0    0  0.32946246737E+03 -0.37577523720E+03 -0.21578916889E+03  0.54435054121E+03  0.51100000000E-03 0.  1.
    -200002    1    4    4    0    0  0.11702024332E+03 -0.17711219560E+03 -0.96942074892E+02  0.23528755398E+03  0.30000000000E+02 0. -1.
    -200000    1    3    3    0    0 -0.72410775916E+02  0.57681639611E+02  0.25059626985E+02  0.13928200502E+03  0.10100000000E+03 0. -1.
<mgrwt>
<rscale>  0 0.18541354E+04</rscale>
<asrwt>0</asrwt>
<pdfrwt beam="1">  1        2 0.13616797E+00 0.18541354E+04</pdfrwt>
<pdfrwt beam="2">  1       -2 0.12881067E+00 0.18541354E+04</pdfrwt>
<totfact> 0.12598048E+01</totfact>
</mgrwt>
</event>
<event>
 8    2  0.7266322E-052  0.1342362E+04  0.7818608E-02  0.8996630E-01
          2   -1    0    0  501    0  0.00000000000E+00  0.00000000000E+00  0.62966381286E+03  0.62966381286E+03  0.25500000000E-02 0.  1.
         -2   -1    0    0    0  501 -0.00000000000E+00 -0.00000000000E+00 -0.71543598695E+03  0.71543598695E+03  0.25500000000E-02 0. -1.
    -200001    2    1    2    0    0 -0.13078032127E+03 -0.22631940232E+03  0.43628299242E+02  0.66624970826E+03  0.61127839890E+03 0.  0.
   -5000001    2    3    3    0    0  0.13795991239E+03 -0.10694225188E+03  0.23214671193E+03  0.30263946478E+03  0.85023332781E+02 0.  0.
     200001    1    1    2    0    0  0.13078032127E+03  0.22631940232E+03 -0.12940047333E+03  0.67885009155E+03  0.61300000000E+03 0.  1.
         11    1    4    4    0    0  0.10746252876E+03 -0.10632250080E+03  0.18658367834E+03  0.24013774856E+03  0.51100000000E-03 0.  1.
    -200002    1    4    4    0    0  0.30497383635E+02 -0.61975108715E+00  0.45563033598E+02  0.62501716221E+02  0.30000000000E+02 0. -1.
    -200000    1    3    3    0    0 -0.26874023366E+03 -0.11937715044E+03 -0.18851841269E+03  0.36361024348E+03  0.10100000000E+03 0. -1.
<mgrwt>
<rscale>  0 0.13423623E+04</rscale>
<asrwt>0</asrwt>
<pdfrwt beam="1">  1        2 0.89951973E-01 0.13423623E+04</pdfrwt>
<pdfrwt beam="2">  1       -2 0.10220514E+00 0.13423623E+04</pdfrwt>
<totfact> 0.39316490E+01</totfact>
</mgrwt>
</event>
<event>
 8    2  0.7266322E-052  0.1528673E+04  0.7818608E-02  0.8865607E-01
          2   -1    0    0  501    0  0.00000000000E+00  0.00000000000E+00  0.29300878468E+04  0.29300878468E+04  0.25500000000E-02 0.  1.
         -2   -1    0    0    0  501 -0.00000000000E+00 -0.00000000000E+00 -0.19938313751E+03  0.19938313752E+03  0.25500000000E-02 0. -1.
    -200001    2    1    2    0    0  0.32074949433E+03  0.32118400797E+03  0.12621995833E+04  0.14746852852E+04  0.61278829713E+03 0.  0.
   -5000001    2    3    3    0    0 -0.14478258080E+03  0.24848529645E+02  0.50650010680E+03  0.53350648840E+03  0.80668270405E+02 0.  0.
     200001    1    1    2    0    0 -0.32074949433E+03 -0.32118400797E+03  0.14685051260E+04  0.16547856992E+04  0.61300000000E+03 0.  1.
         11    1    4    4    0    0 -0.62027485036E+02  0.97889752894E+01  0.32750048203E+03  0.33346633813E+03  0.51100000000E-03 0.  1.
    -200002    1    4    4    0    0 -0.82755095764E+02  0.15059554355E+02  0.17899962477E+03  0.20004015027E+03  0.30000000000E+02 0.  1.
    -200000    1    3    3    0    0  0.46553207513E+03  0.29633547833E+03  0.75569947652E+03  0.94117879677E+03  0.10100000000E+03 0. -1.
<mgrwt>
<rscale>  0 0.15286728E+04</rscale>
<asrwt>0</asrwt>
<pdfrwt beam="1">  1        2 0.41858399E+00 0.15286728E+04</pdfrwt>
<pdfrwt beam="2">  1       -2 0.28483304E-01 0.15286728E+04</pdfrwt>
<totfact> 0.28253997E+01</totfact>
</mgrwt>
</event>
<event>
 8    2  0.7266322E-052  0.1468601E+04  0.7818608E-02  0.8905606E-01
         -2   -1    0    0    0  501 -0.00000000000E+00  0.00000000000E+00  0.29890609162E+03  0.29890609163E+03  0.25500000000E-02 0. -1.
          2   -1    0    0  501    0  0.00000000000E+00 -0.00000000000E+00 -0.18039015223E+04  0.18039015223E+04  0.25500000000E-02 0.  1.
    -200001    2    1    2    0    0  0.32354153927E+02 -0.20674943516E+03 -0.12472747158E+04  0.14056841764E+04  0.61356472114E+03 0.  0.
   -5000001    2    3    3    0    0  0.35892942888E+02  0.19110819095E+03 -0.62692857168E+03  0.66182024251E+03  0.84592880376E+02 0.  0.
     200001    1    1    2    0    0 -0.32354153927E+02  0.20674943516E+03 -0.25772071490E+03  0.69712343749E+03  0.61300000000E+03 0. -1.
         11    1    4    4    0    0  0.14099405570E+02  0.22655884277E+02 -0.28555795509E+02  0.39083446460E+02  0.51100000000E-03 0.  1.
    -200002    1    4    4    0    0  0.21793537319E+02  0.16845230668E+03 -0.59837277617E+03  0.62273679605E+03  0.30000000000E+02 0.  1.
    -200000    1    3    3    0    0 -0.35387889609E+01 -0.39785762611E+03 -0.62034614410E+03  0.74386393392E+03  0.10100000000E+03 0.  1.
<mgrwt>
<rscale>  0 0.14686009E+04</rscale>
<asrwt>0</asrwt>
<pdfrwt beam="1">  1        2 0.25770021E+00 0.14686009E+04</pdfrwt>
<pdfrwt beam="2">  1       -2 0.42700871E-01 0.14686009E+04</pdfrwt>
<totfact> 0.51060423E+01</totfact>
</mgrwt>
</event>
<event>
 8    2  0.7266322E-052  0.1598897E+04  0.7818608E-02  0.8821226E-01
         -2   -1    0    0    0  501 -0.00000000000E+00  0.00000000000E+00  0.58648076362E+03  0.58648076363E+03  0.25500000000E-02 0. -1.
          2   -1    0    0  501    0  0.00000000000E+00 -0.00000000000E+00 -0.10897504415E+04  0.10897504415E+04  0.25500000000E-02 0.  1.
    -200001    2    1    2    0    0 -0.37736856590E+03  0.34700842993E+03 -0.26947904655E+03  0.84361548086E+03  0.61338914080E+03 0.  0.
   -5000001    2    3    3    0    0 -0.31352945824E+03  0.26411951344E+03 -0.44822471231E+03  0.61318758071E+03  0.83867620972E+02 0.  0.
     200001    1    1    2    0    0  0.37736856590E+03 -0.34700842993E+03 -0.23379063131E+03  0.83261572424E+03  0.61300000000E+03 0.  1.
         11    1    4    4    0    0 -0.18177926558E+03  0.19505768874E+03 -0.29078436568E+03  0.39452091282E+03  0.51100000000E-03 0.  1.
    -200002    1    4    4    0    0 -0.13175019266E+03  0.69061824696E+02 -0.15744034662E+03  0.21866666788E+03  0.30000000000E+02 0.  1.
    -200000    1    3    3    0    0 -0.63839107656E+02  0.82888916494E+02  0.17874566576E+03  0.23042790016E+03  0.10100000000E+03 0. -1.
<mgrwt>
<rscale>  0 0.15988967E+04</rscale>
<asrwt>0</asrwt>
<pdfrwt beam="1">  1        2 0.15567863E+00 0.15988967E+04</pdfrwt>
<pdfrwt beam="2">  1       -2 0.83782967E-01 0.15988967E+04</pdfrwt>
<totfact> 0.29657242E+01</totfact>
</mgrwt>
</event>
<event>
 8    2  0.7266322E-052  0.2148433E+04  0.7818608E-02  0.8540203E-01
          2   -1    0    0  501    0  0.00000000000E+00  0.00000000000E+00  0.36540817181E+04  0.36540817181E+04  0.25500000000E-02 0.  1.
         -2   -1    0    0    0  501 -0.00000000000E+00 -0.00000000000E+00 -0.31579503335E+03  0.31579503336E+03  0.25500000000E-02 0. -1.
    -200001    2    1    2    0    0  0.43039927632E+03 -0.76466748006E+03  0.15086708427E+04  0.18501543589E+04  0.61402243276E+03 0.  0.
   -5000001    2    3    3    0    0  0.47300848149E+03 -0.52466473502E+03  0.69341263521E+03  0.99326241302E+03  0.82091599579E+02 0.  0.
     200001    1    1    2    0    0 -0.43039927632E+03  0.76466748006E+03  0.18296158421E+04  0.21197223926E+04  0.61300000000E+03 0.  1.
         11    1    4    4    0    0  0.75154467170E+02 -0.83216730852E+02  0.74003875478E+02  0.13434951364E+03  0.51100000000E-03 0.  1.
    -200002    1    4    4    0    0  0.39785401432E+03 -0.44144800416E+03  0.61940875973E+03  0.85891289938E+03  0.30000000000E+02 0.  1.
    -200000    1    3    3    0    0 -0.42609205171E+02 -0.24000274505E+03  0.81525820747E+03  0.85689194584E+03  0.10100000000E+03 0.  1.
<mgrwt>
<rscale>  0 0.21484328E+04</rscale>
<asrwt>0</asrwt>
<pdfrwt beam="1">  1        2 0.52201168E+00 0.21484328E+04</pdfrwt>
<pdfrwt beam="2">  1       -2 0.45113576E-01 0.21484328E+04</pdfrwt>
<totfact> 0.41499414E+00</totfact>
</mgrwt>
</event>
<event>
 8    2  0.7266322E-052  0.1402894E+04  0.7818608E-02  0.8951726E-01
          2   -1    0    0  501    0  0.00000000000E+00  0.00000000000E+00  0.88313434950E+03  0.88313434950E+03  0.25500000000E-02 0.  1.
         -2   -1    0    0    0  501 -0.00000000000E+00 -0.00000000000E+00 -0.55713812553E+03  0.55713812553E+03  0.25500000000E-02 0. -1.
    -200001    2    1    2    0    0 -0.15032157636E+03  0.17223067288E+02  0.47711114908E+03  0.79104375497E+03  0.61255364119E+03 0.  0.
   -5000001    2    3    3    0    0 -0.90622472091E+02 -0.71312775713E+02  0.58743249243E+03  0.60726568950E+03  0.10196440584E+03 0.  0.
     200001    1    1    2    0    0  0.15032157636E+03 -0.17223067288E+02 -0.15111492510E+03  0.64922872006E+03  0.61300000000E+03 0. -1.
         11    1    4    4    0    0 -0.10028283250E+03 -0.68779943801E+02  0.48824232827E+03  0.50315792578E+03  0.51100000000E-03 0.  1.
    -200002    1    4    4    0    0  0.96603604101E+01 -0.25328319123E+01  0.99190164157E+02  0.10410776372E+03  0.30000000000E+02 0.  1.
    -200000    1    3    3    0    0 -0.59699104270E+02  0.88535843002E+02 -0.11032134335E+03  0.18377806546E+03  0.10100000000E+03 0. -1.
<mgrwt>
<rscale>  0 0.14028939E+04</rscale>
<asrwt>0</asrwt>
<pdfrwt beam="1">  1        2 0.12616205E+00 0.14028939E+04</pdfrwt>
<pdfrwt beam="2">  1       -2 0.79591161E-01 0.14028939E+04</pdfrwt>
<totfact> 0.45476051E+01</totfact>
</mgrwt>
</event>
<event>
 8    2  0.7266322E-052  0.1714943E+04  0.7818608E-02  0.8752888E-01
         -2   -1    0    0    0  501 -0.00000000000E+00  0.00000000000E+00  0.49565859294E+03  0.49565859295E+03  0.25500000000E-02 0. -1.
          2   -1    0    0  501    0  0.00000000000E+00 -0.00000000000E+00 -0.14833939812E+04  0.14833939812E+04  0.25500000000E-02 0.  1.
    -200001    2    1    2    0    0 -0.18483479561E+03  0.30346403229E+03 -0.10563038147E+04  0.12672064182E+04  0.60314180502E+03 0.  0.
   -5000001    2    3    3    0    0 -0.63288198733E+01 -0.54436170187E+02 -0.71265577575E+03  0.73031544889E+03  0.14993014906E+03 0.  0.
     200001    1    1    2    0    0  0.18483479561E+03 -0.30346403229E+03  0.68568426435E+02  0.71184615590E+03  0.61300000000E+03 0. -1.
         11    1    4    4    0    0 -0.19379064309E+02  0.45068390604E+02 -0.32819871613E+03  0.33184500183E+03  0.51100000000E-03 0.  1.
    -200002    1    4    4    0    0  0.13050244436E+02 -0.99504560790E+02 -0.38445705962E+03  0.39847044707E+03  0.30000000000E+02 0.  1.
    -200000    1    3    3    0    0 -0.17850597574E+03  0.35790020247E+03 -0.34364803894E+03  0.53689096935E+03  0.10100000000E+03 0. -1.
<mgrwt>
<rscale>  0 0.17149425E+04</rscale>
<asrwt>0</asrwt>
<pdfrwt beam="1">  1        2 0.21191342E+00 0.17149425E+04</pdfrwt>
<pdfrwt beam="2">  1       -2 0.70808371E-01 0.17149425E+04</pdfrwt>
<totfact> 0.25773744E+01</totfact>
</mgrwt>
</event>
<event>
 8    2  0.7266322E-052  0.1404571E+04  0.7818608E-02  0.8950516E-01
          2   -1    0    0  501    0  0.00000000000E+00  0.00000000000E+00  0.16552119321E+04  0.16552119321E+04  0.25500000000E-02 0.  1.
         -2   -1    0    0    0  501 -0.00000000000E+00 -0.00000000000E+00 -0.29797089388E+03  0.29797089389E+03  0.25500000000E-02 0. -1.
    -200001    2    1    2    0    0 -0.33804825105E+03 -0.46443087161E+02  0.72215236801E+03  0.10068529684E+04  0.61303774511E+03 0.  0.
   -5000001    2    3    3    0    0 -0.22150529265E+03 -0.28156228618E+03  0.59165202768E+03  0.69686161733E+03  0.84982799317E+02 0.  0.
     200001    1    1    2    0    0  0.33804825105E+03  0.46443087161E+02  0.63508867024E+03  0.94632985764E+03  0.61300000000E+03 0.  1.
         11    1    4    4    0    0 -0.68342090593E+02 -0.39678151667E+02  0.15270380577E+03  0.17194024940E+03  0.51100000000E-03 0.  1.
    -200002    1    4    4    0    0 -0.15316320206E+03 -0.24188413451E+03  0.43894822190E+03  0.52492136793E+03  0.30000000000E+02 0.  1.
    -200000    1    3    3    0    0 -0.11654295840E+03  0.23511919902E+03  0.13050034033E+03  0.30999135105E+03  0.10100000000E+03 0.  1.
<mgrwt>
<rscale>  0 0.14045711E+04</rscale>
<asrwt>0</asrwt>
<pdfrwt beam="1">  1        2 0.23645886E+00 0.14045711E+04</pdfrwt>
<pdfrwt beam="2">  1       -2 0.42567269E-01 0.14045711E+04</pdfrwt>
<totfact> 0.61658677E+01</totfact>
</mgrwt>
</event>
<event>
 8    2  0.7266322E-052  0.1698505E+04  0.7818608E-02  0.8762218E-01
         -2   -1    0    0    0  501 -0.00000000000E+00  0.00000000000E+00  0.25237078849E+03  0.25237078850E+03  0.25500000000E-02 0. -1.
          2   -1    0    0  501    0  0.00000000000E+00 -0.00000000000E+00 -0.28578169716E+04  0.28578169716E+04  0.25500000000E-02 0.  1.
    -200001    2    1    2    0    0  0.31596580914E+03  0.42435535705E+03 -0.83639117159E+03  0.11646193354E+04  0.61390238862E+03 0.  0.
   -5000001    2    3    3    0    0  0.38854000847E+03  0.34791890652E+03 -0.29504469886E+03  0.60393533440E+03  0.75336645281E+02 0.  0.
     200001    1    1    2    0    0 -0.31596580914E+03 -0.42435535705E+03 -0.17690550115E+04  0.19455684247E+04  0.61300000000E+03 0.  1.
         11    1    4    4    0    0  0.31264647672E+03  0.29352192950E+03 -0.23704500693E+03  0.48999314058E+03  0.51100000000E-03 0.  1.
    -200002    1    4    4    0    0  0.75893531744E+02  0.54396977025E+02 -0.57999691930E+02  0.11394219383E+03  0.30000000000E+02 0. -1.
    -200000    1    3    3    0    0 -0.72574199321E+02  0.76436450526E+02 -0.54134647274E+03  0.56068400095E+03  0.10100000000E+03 0.  1.
<mgrwt>
<rscale>  0 0.16985047E+04</rscale>
<asrwt>0</asrwt>
<pdfrwt beam="1">  1        2 0.40825955E+00 0.16985047E+04</pdfrwt>
<pdfrwt beam="2">  1       -2 0.36052971E-01 0.16985047E+04</pdfrwt>
<totfact> 0.19570329E+01</totfact>
</mgrwt>
</event>
<event>
 8    2  0.7266322E-052  0.1663330E+04  0.7818608E-02  0.8782559E-01
          2   -1    0    0  501    0  0.00000000000E+00  0.00000000000E+00  0.14223130068E+04  0.14223130068E+04  0.25500000000E-02 0.  1.
         -2   -1    0    0    0  501 -0.00000000000E+00 -0.00000000000E+00 -0.48629729977E+03  0.48629729978E+03  0.25500000000E-02 0. -1.
    -200001    2    1    2    0    0  0.15834888871E+03  0.18687979362E+03 -0.11276468110E+03  0.66937355343E+03  0.61265541123E+03 0.  0.
   -5000001    2    3    3    0    0 -0.30640178527E+02  0.30149714225E+03  0.11810554362E+03  0.33417799140E+03  0.76724593032E+02 0.  0.
     200001    1    1    2    0    0 -0.15834888871E+03 -0.18687979362E+03  0.10487803882E+04  0.12392367532E+04  0.61300000000E+03 0.  1.
         11    1    4    4    0    0 -0.32940840080E+02  0.21356004369E+03  0.58859412230E+02  0.22395852655E+03  0.51100000000E-03 0.  1.
    -200002    1    4    4    0    0  0.23006615524E+01  0.87937098559E+02  0.59246131389E+02  0.11021946485E+03  0.30000000000E+02 0.  1.
    -200000    1    3    3    0    0  0.18898906723E+03 -0.11461734864E+03 -0.23087022472E+03  0.33519556203E+03  0.10100000000E+03 0. -1.
<mgrwt>
<rscale>  0 0.16633304E+04</rscale>
<asrwt>0</asrwt>
<pdfrwt beam="1">  1        2 0.20318757E+00 0.16633304E+04</pdfrwt>
<pdfrwt beam="2">  1       -2 0.69471043E-01 0.16633304E+04</pdfrwt>
<totfact> 0.29091702E+01</totfact>
</mgrwt>
</event>
<event>
 8    2  0.7266322E-052  0.1785042E+04  0.7818608E-02  0.8714295E-01
          2   -1    0    0  501    0  0.00000000000E+00  0.00000000000E+00  0.30624695262E+04  0.30624695262E+04  0.25500000000E-02 0.  1.
         -2   -1    0    0    0  501 -0.00000000000E+00 -0.00000000000E+00 -0.26011479511E+03  0.26011479513E+03  0.25500000000E-02 0. -1.
    -200001    2    1    2    0    0 -0.56403602594E+03  0.26677620276E+03  0.17338826605E+04  0.19417484344E+04  0.61215334783E+03 0.  0.
   -5000001    2    3    3    0    0 -0.54322094783E+03  0.15637805838E+03  0.78671436998E+03  0.98260830475E+03  0.16448855685E+03 0.  0.
     200001    1    1    2    0    0  0.56403602594E+03 -0.26677620276E+03  0.10684720705E+04  0.13808358868E+04  0.61300000000E+03 0. -1.
         11    1    4    4    0    0 -0.23142835429E+03  0.16667240252E+02  0.42451878982E+03  0.48379032956E+03  0.51100000000E-03 0.  1.
    -200002    1    4    4    0    0 -0.31179259353E+03  0.13971081812E+03  0.36219558016E+03  0.49881797519E+03  0.30000000000E+02 0.  1.
    -200000    1    3    3    0    0 -0.20815078109E+02  0.11039814439E+03  0.94716829056E+03  0.95914012970E+03  0.10100000000E+03 0.  1.
<mgrwt>
<rscale>  0 0.17850419E+04</rscale>
<asrwt>0</asrwt>
<pdfrwt beam="1">  1        2 0.43749565E+00 0.17850419E+04</pdfrwt>
<pdfrwt beam="2">  1       -2 0.37159256E-01 0.17850419E+04</pdfrwt>
<totfact> 0.14107792E+01</totfact>
</mgrwt>
</event>
<event>
 8    2  0.7266322E-052  0.1367617E+04  0.7818608E-02  0.8977598E-01
         -2   -1    0    0    0  501 -0.00000000000E+00  0.00000000000E+00  0.10605899173E+04  0.10605899173E+04  0.25500000000E-02 0. -1.
          2   -1    0    0  501    0  0.00000000000E+00 -0.00000000000E+00 -0.44088116674E+03  0.44088116674E+03  0.25500000000E-02 0.  1.
    -200001    2    1    2    0    0  0.17403006499E+03  0.24588827202E+03  0.33087551244E+03  0.75989091623E+03  0.61417269070E+03 0.  0.
   -5000001    2    3    3    0    0  0.37308962958E+03  0.54988344229E+02  0.22127919879E+03  0.44639475254E+03  0.89912188092E+02 0.  0.
     200001    1    1    2    0    0 -0.17403006499E+03 -0.24588827202E+03  0.28883323810E+03  0.74158016780E+03  0.61300000000E+03 0.  1.
         11    1    4    4    0    0  0.13921044220E+03  0.35617106095E+02  0.12678861371E+03  0.19163370797E+03  0.51100000000E-03 0.  1.
    -200002    1    4    4    0    0  0.23387918738E+03  0.19371238134E+02  0.94490585087E+02  0.25476104456E+03  0.30000000000E+02 0.  1.
    -200000    1    3    3    0    0 -0.19905956460E+03  0.19089992779E+03  0.10959631365E+03  0.31349616370E+03  0.10100000000E+03 0.  1.
<mgrwt>
<rscale>  0 0.13676171E+04</rscale>
<asrwt>0</asrwt>
<pdfrwt beam="1">  1        2 0.62983024E-01 0.13676171E+04</pdfrwt>
<pdfrwt beam="2">  1       -2 0.15151285E+00 0.13676171E+04</pdfrwt>
<totfact> 0.22071577E+01</totfact>
</mgrwt>
</event>
<event>
 8    2  0.7266322E-052  0.2172164E+04  0.7818608E-02  0.8530104E-01
          2   -1    0    0  501    0  0.00000000000E+00  0.00000000000E+00  0.39418950540E+04  0.39418950540E+04  0.25500000000E-02 0.  1.
         -2   -1    0    0    0  501 -0.00000000000E+00 -0.00000000000E+00 -0.29924031976E+03  0.29924031977E+03  0.25500000000E-02 0. -1.
    -200001    2    1    2    0    0  0.47813584242E+03 -0.21594894557E+03  0.40169252950E+03  0.90124722544E+03  0.61289627360E+03 0.  0.
   -5000001    2    3    3    0    0  0.81440145479E+02 -0.30118901051E+03  0.18935176601E+01  0.32273742041E+03  0.82513876231E+02 0.  0.
     200001    1    1    2    0    0 -0.47813584242E+03  0.21594894557E+03  0.32409622047E+04  0.33398881483E+04  0.61300000000E+03 0.  1.
         11    1    4    4    0    0  0.69485166590E+02 -0.12825841673E+03 -0.11397977063E+02  0.14631583550E+03  0.51100000000E-03 0.  1.
    -200002    1    4    4    0    0  0.11954978889E+02 -0.17293059379E+03  0.13291494723E+02  0.17642158490E+03  0.30000000000E+02 0.  1.
    -200000    1    3    3    0    0  0.39669569694E+03  0.85240064946E+02  0.39979901184E+03  0.57850980503E+03  0.10100000000E+03 0.  1.
<mgrwt>
<rscale>  0 0.21721638E+04</rscale>
<asrwt>0</asrwt>
<pdfrwt beam="1">  1        2 0.56312785E+00 0.21721638E+04</pdfrwt>
<pdfrwt beam="2">  1       -2 0.42748618E-01 0.21721638E+04</pdfrwt>
<totfact> 0.29908013E+00</totfact>
</mgrwt>
</event>
<event>
 8    2  0.7266322E-052  0.1358962E+04  0.7818608E-02  0.8984072E-01
         -2   -1    0    0    0  501 -0.00000000000E+00  0.00000000000E+00  0.21828922491E+03  0.21828922493E+03  0.25500000000E-02 0. -1.
          2   -1    0    0  501    0  0.00000000000E+00 -0.00000000000E+00 -0.21150574792E+04  0.21150574792E+04  0.25500000000E-02 0.  1.
    -200001    2    1    2    0    0  0.22164822541E+03  0.13549631222E+03 -0.71862104663E+03  0.98009616215E+03  0.61374676533E+03 0.  0.
   -5000001    2    3    3    0    0 -0.86817668024E+02  0.77533972517E+02 -0.62116043316E+03  0.63627875216E+03  0.73902248607E+02 0.  0.
     200001    1    1    2    0    0 -0.22164822541E+03 -0.13549631222E+03 -0.11781472077E+04  0.13532505420E+04  0.61300000000E+03 0.  1.
         11    1    4    4    0    0  0.32528768496E+01 -0.82306821281E+01 -0.64559129590E+02  0.65162923122E+02  0.51100000000E-03 0.  1.
    -200002    1    4    4    0    0 -0.90070544873E+02  0.85764654645E+02 -0.55660130357E+03  0.57111582904E+03  0.30000000000E+02 0.  1.
    -200000    1    3    3    0    0  0.30846589344E+03  0.57962339699E+02 -0.97460613470E+02  0.34381740999E+03  0.10100000000E+03 0. -1.
<mgrwt>
<rscale>  0 0.13589617E+04</rscale>
<asrwt>0</asrwt>
<pdfrwt beam="1">  1        2 0.30215106E+00 0.13589617E+04</pdfrwt>
<pdfrwt beam="2">  1       -2 0.31184176E-01 0.13589617E+04</pdfrwt>
<totfact> 0.65227923E+01</totfact>
</mgrwt>
</event>
<event>
 8    2  0.7266322E-052  0.2157815E+04  0.7818608E-02  0.8536194E-01
          2   -1    0    0  501    0  0.00000000000E+00  0.00000000000E+00  0.68222974885E+03  0.68222974886E+03  0.25500000000E-02 0.  1.
         -2   -1    0    0    0  501 -0.00000000000E+00 -0.00000000000E+00 -0.17062306482E+04  0.17062306482E+04  0.25500000000E-02 0. -1.
    -200001    2    1    2    0    0  0.46986799791E+03 -0.14571238774E+03 -0.13299456410E+04  0.15450274002E+04  0.61347063815E+03 0.  0.
   -5000001    2    3    3    0    0  0.31287218309E+03  0.64303587973E+02 -0.11852940553E+04  0.12289902549E+04  0.58915997968E+02 0.  0.
     200001    1    1    2    0    0 -0.46986799791E+03  0.14571238774E+03  0.30594474160E+03  0.84343299693E+03  0.61300000000E+03 0.  1.
         11    1    4    4    0    0  0.74242505131E+00  0.57545925721E+01 -0.19913473611E+02  0.20741575691E+02  0.51100000000E-03 0.  1.
    -200002    1    4    4    0    0  0.31212975804E+03  0.58548995401E+02 -0.11653805817E+04  0.12082486792E+04  0.30000000000E+02 0.  1.
    -200000    1    3    3    0    0  0.15699581482E+03 -0.21001597571E+03 -0.14465158569E+03  0.31603714523E+03  0.10100000000E+03 0. -1.
<mgrwt>
<rscale>  0 0.21578149E+04</rscale>
<asrwt>0</asrwt>
<pdfrwt beam="1">  1        2 0.97461393E-01 0.21578149E+04</pdfrwt>
<pdfrwt beam="2">  1       -2 0.24374723E+00 0.21578149E+04</pdfrwt>
<totfact> 0.30035234E+00</totfact>
</mgrwt>
</event>
<event>
 8    2  0.7266322E-052  0.1500729E+04  0.7818608E-02  0.8883969E-01
         -2   -1    0    0    0  501 -0.00000000000E+00  0.00000000000E+00  0.16143330753E+03  0.16143330755E+03  0.25500000000E-02 0. -1.
          2   -1    0    0  501    0  0.00000000000E+00 -0.00000000000E+00 -0.34877968016E+04  0.34877968016E+04  0.25500000000E-02 0.  1.
    -200001    2    1    2    0    0 -0.19283236552E+03  0.35490603784E+03 -0.20419117385E+04  0.21697951057E+04  0.61275169215E+03 0.  0.
   -5000001    2    3    3    0    0  0.18162754796E+03  0.11691521834E+03 -0.35340067887E+03  0.42104399268E+03  0.75685332056E+02 0.  0.
     200001    1    1    2    0    0  0.19283236552E+03 -0.35490603784E+03 -0.12844517555E+04  0.14794350034E+04  0.61300000000E+03 0.  1.
         11    1    4    4    0    0  0.25754750958E+02  0.17579611073E+02 -0.10769278729E+03  0.11211639647E+03  0.51100000000E-03 0.  1.
    -200002    1    4    4    0    0  0.15587279701E+03  0.99335607267E+02 -0.24570789158E+03  0.30892759621E+03  0.30000000000E+02 0.  1.
    -200000    1    3    3    0    0 -0.37445991349E+03  0.23799081950E+03 -0.16885110596E+04  0.17487511131E+04  0.10100000000E+03 0.  1.
<mgrwt>
<rscale>  0 0.15007286E+04</rscale>
<asrwt>0</asrwt>
<pdfrwt beam="1">  1        2 0.49825664E+00 0.15007286E+04</pdfrwt>
<pdfrwt beam="2">  1       -2 0.23061903E-01 0.15007286E+04</pdfrwt>
<totfact> 0.19840478E+01</totfact>
</mgrwt>
</event>
<event>
 8    2  0.7266322E-052  0.1600915E+04  0.7818608E-02  0.8819986E-01
         -2   -1    0    0    0  501 -0.00000000000E+00  0.00000000000E+00  0.36420293904E+03  0.36420293905E+03  0.25500000000E-02 0. -1.
          2   -1    0    0  501    0  0.00000000000E+00 -0.00000000000E+00 -0.17592726787E+04  0.17592726787E+04  0.25500000000E-02 0.  1.
    -200001    2    1    2    0    0  0.25827657635E+03  0.42559044619E+03 -0.52276211355E+03  0.94681780329E+03  0.61265790413E+03 0.  0.
   -5000001    2    3    3    0    0  0.39924969868E+02  0.42159366572E+03 -0.55779489075E+03  0.70366827361E+03  0.68400854802E+02 0.  0.
     200001    1    1    2    0    0 -0.25827657635E+03 -0.42559044619E+03 -0.87230762616E+03  0.11766578145E+04  0.61300000000E+03 0. -1.
         11    1    4    4    0    0  0.25029781134E+02  0.11671930676E+03 -0.19457695517E+03  0.22827631939E+03  0.51100000000E-03 0.  1.
    -200002    1    4    4    0    0  0.14895188733E+02  0.30487435896E+03 -0.36321793558E+03  0.47539195421E+03  0.30000000000E+02 0.  1.
    -200000    1    3    3    0    0  0.21835160648E+03  0.39967804680E+01  0.35032777202E+02  0.24314952969E+03  0.10100000000E+03 0. -1.
<mgrwt>
<rscale>  0 0.16009151E+04</rscale>
<asrwt>0</asrwt>
<pdfrwt beam="1">  1        2 0.25132466E+00 0.16009151E+04</pdfrwt>
<pdfrwt beam="2">  1       -2 0.52028992E-01 0.16009151E+04</pdfrwt>
<totfact> 0.35795809E+01</totfact>
</mgrwt>
</event>
<event>
 8    2  0.7266322E-052  0.2280131E+04  0.7818608E-02  0.8485797E-01
         -2   -1    0    0    0  501 -0.00000000000E+00  0.00000000000E+00  0.14319537738E+04  0.14319537738E+04  0.25500000000E-02 0. -1.
          2   -1    0    0  501    0  0.00000000000E+00 -0.00000000000E+00 -0.90767568762E+03  0.90767568762E+03  0.25500000000E-02 0.  1.
    -200001    2    1    2    0    0  0.52548472094E+03 -0.79123621420E+03  0.10986394673E+03  0.11355958167E+04  0.61263270685E+03 0.  0.
   -5000001    2    3    3    0    0  0.28076362954E+03 -0.81369596860E+03  0.10046807717E+03  0.86973469597E+03  0.73588462861E+02 0.  0.
     200001    1    1    2    0    0 -0.52548472094E+03  0.79123621420E+03  0.41441413941E+03  0.12040336447E+04  0.61300000000E+03 0. -1.
         11    1    4    4    0    0  0.48892390833E+01 -0.41748239402E+02 -0.63060591897E+01  0.42503959048E+02  0.51100000000E-03 0.  1.
    -200002    1    4    4    0    0  0.27587439046E+03 -0.77194772920E+03  0.10677413636E+03  0.82723073693E+03  0.30000000000E+02 0.  1.
    -200000    1    3    3    0    0  0.24472109140E+03  0.22459754401E+02  0.93958695663E+01  0.26586112072E+03  0.10100000000E+03 0. -1.
<mgrwt>
<rscale>  0 0.22801312E+04</rscale>
<asrwt>0</asrwt>
<pdfrwt beam="1">  1        2 0.12966796E+00 0.22801312E+04</pdfrwt>
<pdfrwt beam="2">  1       -2 0.20456482E+00 0.22801312E+04</pdfrwt>
<totfact> 0.36399817E+00</totfact>
</mgrwt>
</event>
<event>
 8    2  0.7266322E-052  0.1622957E+04  0.7818608E-02  0.8806567E-01
         -2   -1    0    0    0  501 -0.00000000000E+00  0.00000000000E+00  0.31779898480E+03  0.31779898481E+03  0.25500000000E-02 0. -1.
          2   -1    0    0  501    0  0.00000000000E+00 -0.00000000000E+00 -0.20720572012E+04  0.20720572012E+04  0.25500000000E-02 0.  1.
    -200001    2    1    2    0    0  0.55640329727E+02  0.26278778362E+03 -0.19877838830E+03  0.69650455061E+03  0.61110758124E+03 0.  0.
   -5000001    2    3    3    0    0  0.17737685529E+03  0.35396278208E+03 -0.19103164471E+03  0.51376518967E+03  0.26591235577E+03 0.  0.
     200001    1    1    2    0    0 -0.55640329727E+02 -0.26278778362E+03 -0.15554798281E+04  0.16933516354E+04  0.61300000000E+03 0.  1.
         11    1    4    4    0    0 -0.64453893556E+02  0.61475873640E+02 -0.28968022042E+01  0.89117781040E+02  0.51100000000E-03 0.  1.
    -200002    1    4    4    0    0  0.24183074885E+03  0.29248690844E+03 -0.18813484251E+03  0.42464740863E+03  0.30000000000E+02 0.  1.
    -200000    1    3    3    0    0 -0.12173652556E+03 -0.91174998455E+02 -0.77467435915E+01  0.18273936094E+03  0.10100000000E+03 0.  1.
<mgrwt>
<rscale>  0 0.16229574E+04</rscale>
<asrwt>0</asrwt>
<pdfrwt beam="1">  1        2 0.29600816E+00 0.16229574E+04</pdfrwt>
<pdfrwt beam="2">  1       -2 0.45399856E-01 0.16229574E+04</pdfrwt>
<totfact> 0.32501738E+01</totfact>
</mgrwt>
</event>
<event>
 8    2  0.7266322E-052  0.1891560E+04  0.7818608E-02  0.8659069E-01
          2   -1    0    0  501    0  0.00000000000E+00  0.00000000000E+00  0.68102428593E+03  0.68102428593E+03  0.25500000000E-02 0.  1.
         -2   -1    0    0    0  501 -0.00000000000E+00 -0.00000000000E+00 -0.13134630356E+04  0.13134630356E+04  0.25500000000E-02 0. -1.
    -200001    2    1    2    0    0  0.32817884852E+03 -0.58206247105E+03 -0.32536472115E+02  0.90722018810E+03  0.61277383337E+03 0.  0.
   -5000001    2    3    3    0    0  0.24086274136E+03 -0.67420687875E+03  0.39039834820E+02  0.72991011463E+03  0.13665610560E+03 0.  0.
     200001    1    1    2    0    0 -0.32817884852E+03  0.58206247105E+03 -0.59990227755E+03  0.10872671334E+04  0.61300000000E+03 0. -1.
         11    1    4    4    0    0  0.16985460223E+03 -0.29401049486E+03  0.40666409771E+02  0.34197443452E+03  0.51100000000E-03 0.  1.
    -200002    1    4    4    0    0  0.71008139131E+02 -0.38019638390E+03 -0.16265749503E+01  0.38793568010E+03  0.30000000000E+02 0.  1.
    -200000    1    3    3    0    0  0.87316107155E+02  0.92144407706E+02 -0.71576306935E+02  0.17731007347E+03  0.10100000000E+03 0. -1.
<mgrwt>
<rscale>  0 0.18915604E+04</rscale>
<asrwt>0</asrwt>
<pdfrwt beam="1">  1        2 0.97289184E-01 0.18915604E+04</pdfrwt>
<pdfrwt beam="2">  1       -2 0.18763758E+00 0.18915604E+04</pdfrwt>
<totfact> 0.70344145E+00</totfact>
</mgrwt>
</event>
<event>
 8    2  0.7266322E-052  0.1466645E+04  0.7818608E-02  0.8906941E-01
          2   -1    0    0  501    0  0.00000000000E+00  0.00000000000E+00  0.41318756794E+03  0.41318756795E+03  0.25500000000E-02 0.  1.
         -2   -1    0    0    0  501 -0.00000000000E+00 -0.00000000000E+00 -0.13014962174E+04  0.13014962174E+04  0.25500000000E-02 0. -1.
    -200001    2    1    2    0    0 -0.17132775016E+03 -0.35390525362E+03 -0.54420560331E+03  0.90921619884E+03  0.61311681680E+03 0.  0.
   -5000001    2    3    3    0    0 -0.34354543036E+03 -0.21488610562E+03 -0.49369555854E+03  0.66074584346E+03  0.16926388869E+03 0.  0.
     200001    1    1    2    0    0  0.17132775016E+03  0.35390525362E+03 -0.34410304613E+03  0.80546758648E+03  0.61300000000E+03 0.  1.
         11    1    4    4    0    0 -0.11621285755E+03 -0.69761437155E+02 -0.29424829813E+03  0.32396627498E+03  0.51100000000E-03 0.  1.
    -200002    1    4    4    0    0 -0.22733257280E+03 -0.14512466847E+03 -0.19944726041E+03  0.33677956847E+03  0.30000000000E+02 0.  1.
    -200000    1    3    3    0    0  0.17221768020E+03 -0.13901914800E+03 -0.50510044767E+02  0.24847035538E+03  0.10100000000E+03 0.  1.
<mgrwt>
<rscale>  0 0.14666452E+04</rscale>
<asrwt>0</asrwt>
<pdfrwt beam="1">  1        2 0.59026796E-01 0.14666452E+04</pdfrwt>
<pdfrwt beam="2">  1       -2 0.18592803E+00 0.14666452E+04</pdfrwt>
<totfact> 0.13347795E+01</totfact>
</mgrwt>
</event>
<event>
 8    2  0.7266322E-052  0.2178971E+04  0.7818608E-02  0.8527232E-01
          2   -1    0    0  501    0  0.00000000000E+00  0.00000000000E+00  0.17439387186E+04  0.17439387186E+04  0.25500000000E-02 0.  1.
         -2   -1    0    0    0  501 -0.00000000000E+00 -0.00000000000E+00 -0.68063075206E+03  0.68063075206E+03  0.25500000000E-02 0. -1.
    -200001    2    1    2    0    0  0.31611306266E+03  0.39894877819E+03  0.13586494519E+04  0.15748146890E+04  0.61239315427E+03 0.  0.
   -5000001    2    3    3    0    0  0.76103341743E+02 -0.63113275491E+02  0.73858291879E+03  0.75885542952E+03  0.14346369163E+03 0.  0.
     200001    1    1    2    0    0 -0.31611306266E+03 -0.39894877819E+03 -0.29534148539E+03  0.84975478168E+03  0.61300000000E+03 0. -1.
         11    1    4    4    0    0  0.57641522091E+02 -0.15416988803E+02  0.92612665171E+02  0.11016957095E+03  0.51100000000E-03 0.  1.
    -200002    1    4    4    0    0  0.18461819652E+02 -0.47696286688E+02  0.64597025362E+03  0.64868585857E+03  0.30000000000E+02 0.  1.
    -200000    1    3    3    0    0  0.24000972092E+03  0.46206205368E+03  0.62006653315E+03  0.81595925947E+03  0.10100000000E+03 0.  1.
<mgrwt>
<rscale>  0 0.21789707E+04</rscale>
<asrwt>0</asrwt>
<pdfrwt beam="1">  1        2 0.24913410E+00 0.21789707E+04</pdfrwt>
<pdfrwt beam="2">  1       -2 0.97232965E-01 0.21789707E+04</pdfrwt>
<totfact> 0.88361923E+00</totfact>
</mgrwt>
</event>
<event>
 8    2  0.7266322E-052  0.1566873E+04  0.7818608E-02  0.8841161E-01
          2   -1    0    0  501    0  0.00000000000E+00  0.00000000000E+00  0.14414811708E+04  0.14414811708E+04  0.25500000000E-02 0. -1.
         -2   -1    0    0    0  501 -0.00000000000E+00 -0.00000000000E+00 -0.42579324583E+03  0.42579324583E+03  0.25500000000E-02 0.  1.
    -200001    2    1    2    0    0 -0.37479591179E+03 -0.22156846920E+03  0.24972004540E+03  0.79394298853E+03  0.61515917121E+03 0.  0.
   -5000001    2    3    3    0    0  0.15122124100E+03 -0.86913403716E+02  0.10079118281E+03  0.22192302576E+03  0.93108342016E+02 0.  0.
     200001    1    1    2    0    0  0.37479591179E+03  0.22156846920E+03  0.76596787960E+03  0.10733314281E+04  0.61300000000E+03 0. -1.
         11    1    4    4    0    0 -0.56462853559E+01  0.86148798955E+01  0.11728979002E+02  0.15609793164E+02  0.51100000000E-03 0.  1.
    -200002    1    4    4    0    0  0.15686752636E+03 -0.95528283612E+02  0.89062203812E+02  0.20631323260E+03  0.30000000000E+02 0.  1.
    -200000    1    3    3    0    0 -0.52601715280E+03 -0.13465506548E+03  0.14892886259E+03  0.57201996277E+03  0.10100000000E+03 0.  1.
<mgrwt>
<rscale>  0 0.15668733E+04</rscale>
<asrwt>0</asrwt>
<pdfrwt beam="1">  1        2 0.20592588E+00 0.15668733E+04</pdfrwt>
<pdfrwt beam="2">  1       -2 0.60827607E-01 0.15668733E+04</pdfrwt>
<totfact> 0.38072076E+01</totfact>
</mgrwt>
</event>
<event>
 8    2  0.7266322E-052  0.1490433E+04  0.7818608E-02  0.8890840E-01
         -2   -1    0    0    0  501 -0.00000000000E+00  0.00000000000E+00  0.25003362452E+03  0.25003362453E+03  0.25500000000E-02 0. -1.
          2   -1    0    0  501    0  0.00000000000E+00 -0.00000000000E+00 -0.22210913514E+04  0.22210913514E+04  0.25500000000E-02 0.  1.
    -200001    2    1    2    0    0  0.58878489972E+02  0.41945702464E+03 -0.10264562032E+04  0.12680240198E+04  0.61225950839E+03 0.  0.
   -5000001    2    3    3    0    0 -0.42955656807E+02  0.43515779011E+03 -0.33612599899E+03  0.56277690118E+03  0.11193597526E+03 0.  0.
     200001    1    1    2    0    0 -0.58878489972E+02 -0.41945702464E+03 -0.94460152370E+03  0.12031009561E+04  0.61300000000E+03 0. -1.
         11    1    4    4    0    0 -0.69987991701E+01  0.31471813144E+02 -0.69814033958E+02  0.76899008772E+02  0.51100000000E-03 0.  1.
    -200002    1    4    4    0    0 -0.35956857637E+02  0.40368597696E+03 -0.26631196503E+03  0.48587789240E+03  0.30000000000E+02 0.  1.
    -200000    1    3    3    0    0  0.10183414678E+03 -0.15700765464E+02 -0.69033020423E+03  0.70524711865E+03  0.10100000000E+03 0. -1.
<mgrwt>
<rscale>  0 0.14904329E+04</rscale>
<asrwt>0</asrwt>
<pdfrwt beam="1">  1        2 0.31729875E+00 0.14904329E+04</pdfrwt>
<pdfrwt beam="2">  1       -2 0.35719091E-01 0.14904329E+04</pdfrwt>
<totfact> 0.44015935E+01</totfact>
</mgrwt>
</event>
<event>
 8    2  0.7266322E-052  0.1315373E+04  0.7818608E-02  0.9017462E-01
         -2   -1    0    0    0  501 -0.00000000000E+00  0.00000000000E+00  0.20280138854E+03  0.20280138856E+03  0.25500000000E-02 0. -1.
          2   -1    0    0  501    0  0.00000000000E+00 -0.00000000000E+00 -0.21328834362E+04  0.21328834362E+04  0.25500000000E-02 0.  1.
    -200001    2    1    2    0    0 -0.40072150132E+02  0.93336359732E+02 -0.13478194624E+04  0.14841472909E+04  0.61299137416E+03 0.  0.
   -5000001    2    3    3    0    0  0.41537829520E+02 -0.20615434509E+03 -0.22596122617E+03  0.31576303344E+03  0.66504227452E+02 0.  0.
     200001    1    1    2    0    0  0.40072150132E+02 -0.93336359732E+02 -0.58226258527E+03  0.85153753380E+03  0.61300000000E+03 0. -1.
         11    1    4    4    0    0  0.36598354453E+01 -0.32235881329E+02 -0.92744450076E+01  0.33742580977E+02  0.51100000000E-03 0.  1.
    -200002    1    4    4    0    0  0.37877994075E+02 -0.17391846377E+03 -0.21668678117E+03  0.28202045246E+03  0.30000000000E+02 0. -1.
    -200000    1    3    3    0    0 -0.81609979652E+02  0.29949070483E+03 -0.11218582362E+04  0.11683842575E+04  0.10100000000E+03 0.  1.
<mgrwt>
<rscale>  0 0.13153733E+04</rscale>
<asrwt>0</asrwt>
<pdfrwt beam="1">  1        2 0.30469762E+00 0.13153733E+04</pdfrwt>
<pdfrwt beam="2">  1       -2 0.28971628E-01 0.13153733E+04</pdfrwt>
<totfact> 0.73498753E+01</totfact>
</mgrwt>
</event>
<event>
 8    2  0.7266322E-052  0.1675065E+04  0.7818608E-02  0.8775715E-01
         -2   -1    0    0    0  501 -0.00000000000E+00  0.00000000000E+00  0.70029592997E+03  0.70029592997E+03  0.25500000000E-02 0. -1.
          2   -1    0    0  501    0  0.00000000000E+00 -0.00000000000E+00 -0.10016635280E+04  0.10016635280E+04  0.25500000000E-02 0.  1.
    -200001    2    1    2    0    0  0.16050863499E+03  0.27990065884E+03 -0.62907691426E+03  0.93562415499E+03  0.61281921854E+03 0.  0.
   -5000001    2    3    3    0    0 -0.12197894258E+03 -0.20043484579E+01 -0.91209027280E+02  0.25829666517E+03  0.20860297393E+03 0.  0.
     200001    1    1    2    0    0 -0.16050863499E+03 -0.27990065884E+03  0.32770931620E+03  0.76633530302E+03  0.61300000000E+03 0. -1.
         11    1    4    4    0    0 -0.68249681194E+02 -0.49452925361E+00  0.62609414619E+02  0.92618585292E+02  0.51100000000E-03 0.  1.
    -200002    1    4    4    0    0 -0.53729261383E+02 -0.15098192043E+01 -0.15381844190E+03  0.16567807987E+03  0.30000000000E+02 0.  1.
    -200000    1    3    3    0    0  0.28248757757E+03  0.28190500730E+03 -0.53786788698E+03  0.67732748982E+03  0.10100000000E+03 0.  1.
<mgrwt>
<rscale>  0 0.16750652E+04</rscale>
<asrwt>0</asrwt>
<pdfrwt beam="1">  1        2 0.14309479E+00 0.16750652E+04</pdfrwt>
<pdfrwt beam="2">  1       -2 0.10004228E+00 0.16750652E+04</pdfrwt>
<totfact> 0.22105156E+01</totfact>
</mgrwt>
</event>
<event>
 8    2  0.7266322E-052  0.1879709E+04  0.7818608E-02  0.8665023E-01
          2   -1    0    0  501    0  0.00000000000E+00  0.00000000000E+00  0.20865444772E+04  0.20865444772E+04  0.25500000000E-02 0.  1.
         -2   -1    0    0    0  501 -0.00000000000E+00 -0.00000000000E+00 -0.42334430560E+03  0.42334430561E+03  0.25500000000E-02 0. -1.
    -200001    2    1    2    0    0  0.97537084010E+02  0.65404544575E+03  0.47688516532E+03  0.10197877050E+04  0.61258352456E+03 0.  0.
   -5000001    2    3    3    0    0  0.18235614366E+03  0.56167748020E+03  0.57753479194E+03  0.82989968203E+03  0.80322421780E+02 0.  0.
     200001    1    1    2    0    0 -0.97537084010E+02 -0.65404544575E+03  0.11863150063E+04  0.14901010778E+04  0.61300000000E+03 0.  1.
         11    1    4    4    0    0  0.47353893244E+02  0.90743328054E+02  0.13189480457E+03  0.16695203582E+03  0.51100000000E-03 0.  1.
    -200002    1    4    4    0    0  0.13500225042E+03  0.47093415214E+03  0.44563998737E+03  0.66294764621E+03  0.30000000000E+02 0.  1.
    -200000    1    3    3    0    0 -0.84819059652E+02  0.92367965554E+02 -0.10064962662E+03  0.18988802300E+03  0.10100000000E+03 0. -1.
<mgrwt>
<rscale>  0 0.18797093E+04</rscale>
<asrwt>0</asrwt>
<pdfrwt beam="1">  1        2 0.29807779E+00 0.18797093E+04</pdfrwt>
<pdfrwt beam="2">  1       -2 0.60477757E-01 0.18797093E+04</pdfrwt>
<totfact> 0.17348851E+01</totfact>
</mgrwt>
</event>
<event>
 8    2  0.7266322E-052  0.1233820E+04  0.7818608E-02  0.9083758E-01
          2   -1    0    0  501    0  0.00000000000E+00  0.00000000000E+00  0.20116480979E+04  0.20116480979E+04  0.25500000000E-02 0.  1.
         -2   -1    0    0    0  501 -0.00000000000E+00 -0.00000000000E+00 -0.18918716281E+03  0.18918716282E+03  0.25500000000E-02 0. -1.
    -200001    2    1    2    0    0 -0.63215683105E+02  0.84582988150E+01  0.95580501363E+03  0.11373836861E+04  0.61319708077E+03 0.  0.
   -5000001    2    3    3    0    0 -0.26179157410E+03 -0.13425165376E+03  0.28973563973E+03  0.42069133514E+03  0.80474366880E+02 0.  0.
     200001    1    1    2    0    0  0.63215683105E+02 -0.84582988150E+01  0.86665592144E+03  0.10634515746E+04  0.61300000000E+03 0. -1.
         11    1    4    4    0    0 -0.82715771246E+02 -0.79315673350E+02  0.95314450725E+02  0.14905609471E+03  0.51100000000E-03 0.  1.
    -200002    1    4    4    0    0 -0.17907580285E+03 -0.54935980412E+02  0.19442118901E+03  0.27163524043E+03  0.30000000000E+02 0.  1.
    -200000    1    3    3    0    0  0.19857589099E+03  0.14270995258E+03  0.66606937390E+03  0.71669235094E+03  0.10100000000E+03 0.  1.
<mgrwt>
<rscale>  0 0.12338201E+04</rscale>
<asrwt>0</asrwt>
<pdfrwt beam="1">  1        2 0.28737832E+00 0.12338201E+04</pdfrwt>
<pdfrwt beam="2">  1       -2 0.27026736E-01 0.12338201E+04</pdfrwt>
<totfact> 0.96991384E+01</totfact>
</mgrwt>
</event>
<event>
 8    2  0.7266322E-052  0.1568191E+04  0.7818608E-02  0.8840331E-01
          2   -1    0    0  501    0  0.00000000000E+00  0.00000000000E+00  0.12936639719E+04  0.12936639719E+04  0.25500000000E-02 0.  1.
         -2   -1    0    0    0  501 -0.00000000000E+00 -0.00000000000E+00 -0.47524362301E+03  0.47524362302E+03  0.25500000000E-02 0. -1.
    -200001    2    1    2    0    0  0.39114593814E+03 -0.27243958545E+03  0.27810007604E+03  0.82289836143E+03  0.61041263773E+03 0.  0.
   -5000001    2    3    3    0    0  0.34968856370E+03 -0.33441052146E+03  0.41131686866E+03  0.63984966670E+03  0.78189136676E+02 0.  0.
     200001    1    1    2    0    0 -0.39114593814E+03  0.27243958545E+03  0.54032027288E+03  0.94600923353E+03  0.61300000000E+03 0. -1.
         11    1    4    4    0    0 -0.28968199850E+01 -0.73596305053E+01  0.10111121550E+02  0.12837075464E+02  0.51100000000E-03 0.  1.
    -200002    1    4    4    0    0  0.35258538369E+03 -0.32705089095E+03  0.40120574711E+03  0.62701259124E+03  0.30000000000E+02 0.  1.
    -200000    1    3    3    0    0  0.41457374434E+02  0.61970936009E+02 -0.13321679262E+03  0.18304869472E+03  0.10100000000E+03 0. -1.
<mgrwt>
<rscale>  0 0.15681907E+04</rscale>
<asrwt>0</asrwt>
<pdfrwt beam="1">  1        2 0.18480913E+00 0.15681907E+04</pdfrwt>
<pdfrwt beam="2">  1       -2 0.67891948E-01 0.15681907E+04</pdfrwt>
<totfact> 0.36222795E+01</totfact>
</mgrwt>
</event>
<event>
 8    2  0.7266322E-052  0.2018327E+04  0.7818608E-02  0.8598100E-01
         -2   -1    0    0    0  501 -0.00000000000E+00  0.00000000000E+00  0.36253948488E+03  0.36253948489E+03  0.25500000000E-02 0. -1.
          2   -1    0    0  501    0  0.00000000000E+00 -0.00000000000E+00 -0.28091036359E+04  0.28091036359E+04  0.25500000000E-02 0.  1.
    -200001    2    1    2    0    0  0.73440392793E+03  0.27526403060E+03 -0.14850826345E+04  0.17876867911E+04  0.61256364230E+03 0.  0.
   -5000001    2    3    3    0    0 -0.35328974812E+02  0.51692862405E+02 -0.50951080243E+01  0.10155604666E+03  0.79795877102E+02 0.  0.
     200001    1    1    2    0    0 -0.73440392793E+03 -0.27526403060E+03 -0.96148151650E+03  0.13839563297E+04  0.61300000000E+03 0.  1.
         11    1    4    4    0    0  0.29230486628E+01  0.21945857967E+02  0.27965959451E+02  0.35668750801E+02  0.51100000000E-03 0.  1.
    -200002    1    4    4    0    0 -0.38252023474E+02  0.29747004438E+02 -0.33061067476E+02  0.65887295859E+02  0.30000000000E+02 0.  1.
    -200000    1    3    3    0    0  0.76973290274E+03  0.22357116820E+03 -0.14799875265E+04  0.16861307444E+04  0.10100000000E+03 0.  1.
<mgrwt>
<rscale>  0 0.20183270E+04</rscale>
<asrwt>0</asrwt>
<pdfrwt beam="1">  1        2 0.40130051E+00 0.20183270E+04</pdfrwt>
<pdfrwt beam="2">  1       -2 0.51791356E-01 0.20183270E+04</pdfrwt>
<totfact> 0.98669879E+00</totfact>
</mgrwt>
</event>
<event>
 8    2  0.7266322E-052  0.1522132E+04  0.7818608E-02  0.8869867E-01
         -2   -1    0    0    0  501 -0.00000000000E+00  0.00000000000E+00  0.58509761975E+03  0.58509761975E+03  0.25500000000E-02 0. -1.
          2   -1    0    0  501    0  0.00000000000E+00 -0.00000000000E+00 -0.98995683910E+03  0.98995683911E+03  0.25500000000E-02 0.  1.
    -200001    2    1    2    0    0  0.32711040900E+02 -0.28020441700E+02 -0.66713671538E+03  0.90691252613E+03  0.61283258375E+03 0.  0.
   -5000001    2    3    3    0    0  0.54132858280E+01 -0.22852503216E+03 -0.63211938154E+03  0.67805783010E+03  0.89075891523E+02 0.  0.
     200001    1    1    2    0    0 -0.32711040900E+02  0.28020441700E+02  0.26227749602E+03  0.66814193273E+03  0.61300000000E+03 0. -1.
         11    1    4    4    0    0 -0.30691986091E+02 -0.15393959797E+03 -0.41886687499E+03  0.44731292939E+03  0.51100000000E-03 0.  1.
    -200002    1    4    4    0    0  0.36105271919E+02 -0.74585434193E+02 -0.21325250655E+03  0.23074490071E+03  0.30000000000E+02 0.  1.
    -200000    1    3    3    0    0  0.27297755072E+02  0.20050459046E+03 -0.35017333834E+02  0.22885469603E+03  0.10100000000E+03 0. -1.
<mgrwt>
<rscale>  0 0.15221319E+04</rscale>
<asrwt>0</asrwt>
<pdfrwt beam="1">  1        2 0.14142241E+00 0.15221319E+04</pdfrwt>
<pdfrwt beam="2">  1       -2 0.83585375E-01 0.15221319E+04</pdfrwt>
<totfact> 0.34478480E+01</totfact>
</mgrwt>
</event>
<event>
 8    2  0.7266322E-052  0.1395036E+04  0.7818608E-02  0.8957420E-01
         -2   -1    0    0    0  501 -0.00000000000E+00  0.00000000000E+00  0.89272018884E+03  0.89272018884E+03  0.25500000000E-02 0. -1.
          2   -1    0    0  501    0  0.00000000000E+00 -0.00000000000E+00 -0.54499855000E+03  0.54499855001E+03  0.25500000000E-02 0.  1.
    -200001    2    1    2    0    0 -0.15888349066E+02 -0.33082949969E+03  0.19118205335E+03  0.72359393230E+03  0.61427762765E+03 0.  0.
   -5000001    2    3    3    0    0 -0.41279589241E+02  0.11821614428E+03  0.21592351551E+03  0.26196654425E+03  0.79526376141E+02 0.  0.
     200001    1    1    2    0    0  0.15888349066E+02  0.33082949969E+03  0.15653958549E+03  0.71412480655E+03  0.61300000000E+03 0. -1.
         11    1    4    4    0    0  0.11719154872E+02  0.13600136946E+01  0.42811647800E+02  0.44407492789E+02  0.51100000000E-03 0.  1.
    -200002    1    4    4    0    0 -0.52998744113E+02  0.11685613058E+03  0.17311186771E+03  0.21755905146E+03  0.30000000000E+02 0.  1.
    -200000    1    3    3    0    0  0.25391240175E+02 -0.44904564397E+03 -0.24741462160E+02  0.46162738805E+03  0.10100000000E+03 0.  1.
<mgrwt>
<rscale>  0 0.13950358E+04</rscale>
<asrwt>0</asrwt>
<pdfrwt beam="1">  1        2 0.77856936E-01 0.13950358E+04</pdfrwt>
<pdfrwt beam="2">  1       -2 0.12753146E+00 0.13950358E+04</pdfrwt>
<totfact> 0.27007890E+01</totfact>
</mgrwt>
</event>
<event>
 8    2  0.7266322E-052  0.1451118E+04  0.7818608E-02  0.8917626E-01
         -2   -1    0    0    0  501 -0.00000000000E+00  0.00000000000E+00  0.22468482370E+04  0.22468482370E+04  0.25500000000E-02 0. -1.
          2   -1    0    0  501    0  0.00000000000E+00 -0.00000000000E+00 -0.23429981747E+03  0.23429981748E+03  0.25500000000E-02 0.  1.
    -200001    2    1    2    0    0  0.17337562405E+02 -0.91377382887E+02  0.16497772427E+04  0.17628011022E+04  0.61404589256E+03 0.  0.
   -5000001    2    3    3    0    0 -0.27230121427E+02  0.11236159670E+03  0.14497082388E+04  0.14566565994E+04  0.82630884415E+02 0.  0.
     200001    1    1    2    0    0 -0.17337562405E+02  0.91377382887E+02  0.36277117689E+03  0.71834695235E+03  0.61300000000E+03 0.  1.
         11    1    4    4    0    0  0.42370386375E+01  0.46643133718E+02  0.91238415871E+03  0.91358545713E+03  0.51100000000E-03 0.  1.
    -200002    1    4    4    0    0 -0.31467160064E+02  0.65718462980E+02  0.53732408012E+03  0.54307114231E+03  0.30000000000E+02 0.  1.
    -200000    1    3    3    0    0  0.44567683831E+02 -0.20373897958E+03  0.20006900385E+03  0.30614450272E+03  0.10100000000E+03 0.  1.
<mgrwt>
<rscale>  0 0.14511184E+04</rscale>
<asrwt>0</asrwt>
<pdfrwt beam="1">  1        2 0.33471404E-01 0.14511184E+04</pdfrwt>
<pdfrwt beam="2">  1       -2 0.32097830E+00 0.14511184E+04</pdfrwt>
<totfact> 0.36304784E+00</totfact>
</mgrwt>
</event>
<event>
 8    2  0.7266322E-052  0.1617753E+04  0.7818608E-02  0.8809715E-01
         -2   -1    0    0    0  501 -0.00000000000E+00  0.00000000000E+00  0.44052903516E+03  0.44052903516E+03  0.25500000000E-02 0.  1.
          2   -1    0    0  501    0  0.00000000000E+00 -0.00000000000E+00 -0.14852176172E+04  0.14852176172E+04  0.25500000000E-02 0. -1.
    -200001    2    1    2    0    0 -0.27846257416E+03 -0.50853942604E+02 -0.10515056129E+04  0.12505111375E+04  0.61480608518E+03 0.  0.
   -5000001    2    3    3    0    0 -0.14917458945E+03  0.52043370923E+02 -0.10413161506E+04  0.10565831476E+04  0.84065758418E+02 0.  0.
     200001    1    1    2    0    0  0.27846257416E+03  0.50853942604E+02  0.68170308094E+01  0.67523551491E+03  0.61300000000E+03 0.  1.
         11    1    4    4    0    0 -0.75438232909E+02  0.18086826824E+02 -0.70712330949E+03  0.71136589397E+03  0.51100000000E-03 0.  1.
    -200002    1    4    4    0    0 -0.73736356541E+02  0.33956544099E+02 -0.33419284108E+03  0.34521725362E+03  0.30000000000E+02 0.  1.
    -200000    1    3    3    0    0 -0.12928798471E+03 -0.10289731353E+03 -0.10189462304E+02  0.19392798989E+03  0.10100000000E+03 0.  1.
<mgrwt>
<rscale>  0 0.16177534E+04</rscale>
<asrwt>0</asrwt>
<pdfrwt beam="1">  1        2 0.21217394E+00 0.16177534E+04</pdfrwt>
<pdfrwt beam="2">  1       -2 0.62932720E-01 0.16177534E+04</pdfrwt>
<totfact> 0.33426451E+01</totfact>
</mgrwt>
</event>
<event>
 8    2  0.7266322E-052  0.1941350E+04  0.7818608E-02  0.8634543E-01
          2   -1    0    0  501    0  0.00000000000E+00  0.00000000000E+00  0.16083616784E+04  0.16083616784E+04  0.25500000000E-02 0.  1.
         -2   -1    0    0    0  501 -0.00000000000E+00 -0.00000000000E+00 -0.58581973999E+03  0.58581973999E+03  0.25500000000E-02 0. -1.
    -200001    2    1    2    0    0 -0.35891076812E+03  0.66165326107E+03  0.48877487560E+03  0.10863555048E+04  0.61209919664E+03 0.  0.
   -5000001    2    3    3    0    0 -0.99313082376E+02 -0.95637147219E+02  0.25959183459E+02  0.15615171759E+03  0.68556016812E+02 0.  0.
     200001    1    1    2    0    0  0.35891076812E+03 -0.66165326107E+03  0.53376706279E+03  0.11078259135E+04  0.61300000000E+03 0.  1.
         11    1    4    4    0    0 -0.20666620894E+02 -0.95189531407E+00 -0.11974098652E+02  0.23903856648E+02  0.51100000000E-03 0.  1.
    -200002    1    4    4    0    0 -0.78646461482E+02 -0.94685251905E+02  0.37933282111E+02  0.13224786094E+03  0.30000000000E+02 0.  1.
    -200000    1    3    3    0    0 -0.25959768575E+03  0.75729040829E+03  0.46281569214E+03  0.93020378726E+03  0.10100000000E+03 0. -1.
<mgrwt>
<rscale>  0 0.19413501E+04</rscale>
<asrwt>0</asrwt>
<pdfrwt beam="1">  1        2 0.22976596E+00 0.19413501E+04</pdfrwt>
<pdfrwt beam="2">  1       -2 0.83688533E-01 0.19413501E+04</pdfrwt>
<totfact> 0.14982466E+01</totfact>
</mgrwt>
</event>
<event>
 8    2  0.7266322E-052  0.2140964E+04  0.7818608E-02  0.8543410E-01
          2   -1    0    0  501    0  0.00000000000E+00  0.00000000000E+00  0.27161316216E+04  0.27161316216E+04  0.25500000000E-02 0.  1.
         -2   -1    0    0    0  501 -0.00000000000E+00 -0.00000000000E+00 -0.42189838881E+03  0.42189838882E+03  0.25500000000E-02 0. -1.
    -200001    2    1    2    0    0  0.65808372747E+03 -0.31574410842E+03  0.43223016537E+03  0.10462382050E+04  0.61239115872E+03 0.  0.
   -5000001    2    3    3    0    0  0.65217377674E+03 -0.13451898487E+03  0.49145203865E+03  0.83040099038E+03  0.67931628596E+02 0.  0.
     200001    1    1    2    0    0 -0.65808372747E+03  0.31574410842E+03  0.18620030674E+04  0.20917918055E+04  0.61300000000E+03 0.  1.
         11    1    4    4    0    0  0.31291125926E+03 -0.39244481544E+02  0.24477723242E+03  0.39921107076E+03  0.51100000000E-03 0.  1.
    -200002    1    4    4    0    0  0.33926251748E+03 -0.95274503331E+02  0.24667480623E+03  0.43118991962E+03  0.30000000000E+02 0.  1.
    -200000    1    3    3    0    0  0.59099507309E+01 -0.18122512354E+03 -0.59221873279E+02  0.21583721457E+03  0.10100000000E+03 0. -1.
<mgrwt>
<rscale>  0 0.21409639E+04</rscale>
<asrwt>0</asrwt>
<pdfrwt beam="1">  1        2 0.38801879E+00 0.21409639E+04</pdfrwt>
<pdfrwt beam="2">  1       -2 0.60271201E-01 0.21409639E+04</pdfrwt>
<totfact> 0.79961760E+00</totfact>
</mgrwt>
</event>
<event>
 8    2  0.7266322E-052  0.2754430E+04  0.7818608E-02  0.8317557E-01
          2   -1    0    0  501    0  0.00000000000E+00  0.00000000000E+00  0.44840988559E+04  0.44840988559E+04  0.25500000000E-02 0.  1.
         -2   -1    0    0    0  501 -0.00000000000E+00 -0.00000000000E+00 -0.42298820572E+03  0.42298820573E+03  0.25500000000E-02 0. -1.
    -200001    2    1    2    0    0 -0.84127502554E+03  0.78384292203E+02  0.36310268093E+04  0.37780924310E+04  0.61297549828E+03 0.  0.
   -5000001    2    3    3    0    0 -0.58049492269E+03  0.28110277939E+03  0.27077714313E+04  0.27923426960E+04  0.22171711657E+03 0.  0.
     200001    1    1    2    0    0  0.84127502554E+03 -0.78384292203E+02  0.43008384092E+03  0.11289946307E+04  0.61300000000E+03 0. -1.
         11    1    4    4    0    0 -0.52411732585E+03  0.30825644729E+03  0.25150467457E+04  0.25875048100E+04  0.51100000000E-03 0.  1.
    -200002    1    4    4    0    0 -0.56377596845E+02 -0.27153667904E+02  0.19272468562E+03  0.20483788603E+03  0.30000000000E+02 0. -1.
    -200000    1    3    3    0    0 -0.26078010285E+03 -0.20271848719E+03  0.92325537794E+03  0.98574973497E+03  0.10100000000E+03 0.  1.
<mgrwt>
<rscale>  0 0.27544298E+04</rscale>
<asrwt>0</asrwt>
<pdfrwt beam="1">  1        2 0.64058555E+00 0.27544298E+04</pdfrwt>
<pdfrwt beam="2">  1       -2 0.60426887E-01 0.27544298E+04</pdfrwt>
<totfact> 0.56032878E-01</totfact>
</mgrwt>
</event>
<event>
 8    2  0.7266322E-052  0.1388293E+04  0.7818608E-02  0.8962336E-01
         -2   -1    0    0    0  501 -0.00000000000E+00  0.00000000000E+00  0.31895318088E+03  0.31895318089E+03  0.25500000000E-02 0. -1.
          2   -1    0    0  501    0  0.00000000000E+00 -0.00000000000E+00 -0.15106902146E+04  0.15106902146E+04  0.25500000000E-02 0.  1.
    -200001    2    1    2    0    0 -0.25374611504E+03 -0.19149026567E+03 -0.50611594128E+03  0.85655506696E+03  0.61357772448E+03 0.  0.
   -5000001    2    3    3    0    0 -0.58616050642E+02 -0.81987976669E+02 -0.58291966283E+03  0.59932694842E+03  0.96122776038E+02 0.  0.
     200001    1    1    2    0    0  0.25374611504E+03  0.19149026567E+03 -0.68562109244E+03  0.97308832854E+03  0.61300000000E+03 0. -1.
         11    1    4    4    0    0 -0.23460245258E+02 -0.52418630717E+02 -0.11855510216E+03  0.13173233545E+03  0.51100000000E-03 0.  1.
    -200002    1    4    4    0    0 -0.35155805384E+02 -0.29569345953E+02 -0.46436456067E+03  0.46759461297E+03  0.30000000000E+02 0.  1.
    -200000    1    3    3    0    0 -0.19513006440E+03 -0.10950228900E+03  0.76803721548E+02  0.25722811854E+03  0.10100000000E+03 0. -1.
<mgrwt>
<rscale>  0 0.13882931E+04</rscale>
<asrwt>0</asrwt>
<pdfrwt beam="1">  1        2 0.21581288E+00 0.13882931E+04</pdfrwt>
<pdfrwt beam="2">  1       -2 0.45564741E-01 0.13882931E+04</pdfrwt>
<totfact> 0.64232229E+01</totfact>
</mgrwt>
</event>
<event>
 8    2  0.7266322E-052  0.1238077E+04  0.7818608E-02  0.9080166E-01
          2   -1    0    0  501    0  0.00000000000E+00  0.00000000000E+00  0.23768033945E+04  0.23768033945E+04  0.25500000000E-02 0.  1.
         -2   -1    0    0    0  501 -0.00000000000E+00 -0.00000000000E+00 -0.16122846821E+03  0.16122846823E+03  0.25500000000E-02 0. -1.
    -200001    2    1    2    0    0 -0.50704728111E+02  0.65417459324E+02  0.10240374056E+04  0.11955039947E+04  0.61133197174E+03 0.  0.
   -5000001    2    3    3    0    0  0.14897204340E+03  0.43933020406E+02  0.29317460143E+02  0.17569952117E+03  0.76733488607E+02 0.  0.
     200001    1    1    2    0    0  0.50704728111E+02 -0.65417459324E+02  0.11915375207E+04  0.13425278681E+04  0.61300000000E+03 0.  1.
         11    1    4    4    0    0  0.33042667121E+02  0.32696494980E+02 -0.12881847653E+02  0.48237129202E+02  0.51100000000E-03 0.  1.
    -200002    1    4    4    0    0  0.11592937628E+03  0.11236525426E+02  0.42199307796E+02  0.12746239197E+03  0.30000000000E+02 0.  1.
    -200000    1    3    3    0    0 -0.19967677151E+03  0.21484438918E+02  0.99471994550E+03  0.10198044735E+04  0.10100000000E+03 0.  1.
<mgrwt>
<rscale>  0 0.12380765E+04</rscale>
<asrwt>0</asrwt>
<pdfrwt beam="1">  1        2 0.33954334E+00 0.12380765E+04</pdfrwt>
<pdfrwt beam="2">  1       -2 0.23032638E-01 0.12380765E+04</pdfrwt>
<totfact> 0.84037140E+01</totfact>
</mgrwt>
</event>
<event>
 8    2  0.7266322E-052  0.1376300E+04  0.7818608E-02  0.8971155E-01
          2   -1    0    0  501    0  0.00000000000E+00  0.00000000000E+00  0.24846891083E+04  0.24846891083E+04  0.25500000000E-02 0.  1.
         -2   -1    0    0    0  501 -0.00000000000E+00 -0.00000000000E+00 -0.19058745787E+03  0.19058745788E+03  0.25500000000E-02 0. -1.
    -200001    2    1    2    0    0  0.20807700412E+03 -0.90138160129E+02  0.73176187672E+03  0.98173132141E+03  0.61392183189E+03 0.  0.
   -5000001    2    3    3    0    0  0.38142304353E+03  0.68944129259E+02  0.40824993078E+03  0.56915768757E+03  0.83878699562E+02 0.  0.
     200001    1    1    2    0    0 -0.20807700412E+03  0.90138160129E+02  0.15623397737E+04  0.16935452448E+04  0.61300000000E+03 0.  1.
         11    1    4    4    0    0  0.10440281874E+03  0.16222505701E+01  0.69663067779E+02  0.12552100729E+03  0.51100000000E-03 0.  1.
    -200002    1    4    4    0    0  0.27702022479E+03  0.67321878689E+02  0.33858686301E+03  0.44363668029E+03  0.30000000000E+02 0.  1.
    -200000    1    3    3    0    0 -0.17334603941E+03 -0.15908228939E+03  0.32351194594E+03  0.41257363384E+03  0.10100000000E+03 0. -1.
<mgrwt>
<rscale>  0 0.13763002E+04</rscale>
<asrwt>0</asrwt>
<pdfrwt beam="1">  1        2 0.35495558E+00 0.13763002E+04</pdfrwt>
<pdfrwt beam="2">  1       -2 0.27226780E-01 0.13763002E+04</pdfrwt>
<totfact> 0.53918451E+01</totfact>
</mgrwt>
</event>
<event>
 8    2  0.7266322E-052  0.1286739E+04  0.7818608E-02  0.9040148E-01
         -2   -1    0    0    0  501 -0.00000000000E+00  0.00000000000E+00  0.21797042555E+04  0.21797042555E+04  0.25500000000E-02 0. -1.
          2   -1    0    0  501    0  0.00000000000E+00 -0.00000000000E+00 -0.18989925686E+03  0.18989925688E+03  0.25500000000E-02 0.  1.
    -200001    2    1    2    0    0  0.54735747016E+02 -0.15247017738E+02  0.13377875684E+04  0.14728737856E+04  0.61355776958E+03 0.  0.
   -5000001    2    3    3    0    0  0.11228556994E+03  0.15317847085E+03  0.11813624519E+03  0.23617273946E+03  0.75826758408E+02 0.  0.
     200001    1    1    2    0    0 -0.54735747016E+02  0.15247017738E+02  0.65201743023E+03  0.89672972677E+03  0.61300000000E+03 0.  1.
         11    1    4    4    0    0  0.57924063938E+02  0.92744579650E+02  0.31849413915E+02  0.11389091010E+03  0.51100000000E-03 0.  1.
    -200002    1    4    4    0    0  0.54361505998E+02  0.60433891197E+02  0.86286831274E+02  0.12228182936E+03  0.30000000000E+02 0.  1.
    -200000    1    3    3    0    0 -0.57549822920E+02 -0.16842548859E+03  0.12196513232E+04  0.12367010461E+04  0.10100000000E+03 0. -1.
<mgrwt>
<rscale>  0 0.12867389E+04</rscale>
<asrwt>0</asrwt>
<pdfrwt beam="1">  1        2 0.27128469E-01 0.12867389E+04</pdfrwt>
<pdfrwt beam="2">  1       -2 0.31138628E+00 0.12867389E+04</pdfrwt>
<totfact> 0.53511520E+00</totfact>
</mgrwt>
</event>
<event>
 8    2  0.7266322E-052  0.1510401E+04  0.7818608E-02  0.8877565E-01
          2   -1    0    0  501    0  0.00000000000E+00  0.00000000000E+00  0.61528473375E+03  0.61528473376E+03  0.25500000000E-02 0.  1.
         -2   -1    0    0    0  501 -0.00000000000E+00 -0.00000000000E+00 -0.92693372220E+03  0.92693372221E+03  0.25500000000E-02 0. -1.
    -200001    2    1    2    0    0 -0.38392767705E+03  0.21177606139E+03 -0.10542469720E+03  0.76084337338E+03  0.61279581481E+03 0.  0.
   -5000001    2    3    3    0    0 -0.14684337652E+03  0.23670253970E+03 -0.31535044216E+03  0.42752653721E+03  0.75775781861E+02 0.  0.
     200001    1    1    2    0    0  0.38392767705E+03 -0.21177606139E+03 -0.20622429125E+03  0.78137508258E+03  0.61300000000E+03 0. -1.
         11    1    4    4    0    0 -0.12417244436E+03  0.15641228261E+03 -0.22735501965E+03  0.30261180256E+03  0.51100000000E-03 0.  1.
    -200002    1    4    4    0    0 -0.22670932165E+02  0.80290257094E+02 -0.87995422509E+02  0.12491473465E+03  0.30000000000E+02 0.  1.
    -200000    1    3    3    0    0 -0.23708430053E+03 -0.24926478315E+02  0.20992574496E+03  0.33331683617E+03  0.10100000000E+03 0.  1.
<mgrwt>
<rscale>  0 0.15104015E+04</rscale>
<asrwt>0</asrwt>
<pdfrwt beam="1">  1        2 0.87897819E-01 0.15104015E+04</pdfrwt>
<pdfrwt beam="2">  1       -2 0.13241910E+00 0.15104015E+04</pdfrwt>
<totfact> 0.21104268E+01</totfact>
</mgrwt>
</event>
<event>
 8    2  0.7266322E-052  0.1662618E+04  0.7818608E-02  0.8782977E-01
          2   -1    0    0  501    0  0.00000000000E+00  0.00000000000E+00  0.61224985725E+03  0.61224985725E+03  0.25500000000E-02 0.  1.
         -2   -1    0    0    0  501 -0.00000000000E+00 -0.00000000000E+00 -0.11287457826E+04  0.11287457826E+04  0.25500000000E-02 0. -1.
    -200001    2    1    2    0    0 -0.35756061950E+03  0.43158390817E+03 -0.29633072903E+03  0.88171921163E+03  0.61278267010E+03 0.  0.
   -5000001    2    3    3    0    0 -0.20942395755E+03  0.10914321224E+03 -0.41856020792E+03  0.49306317023E+03  0.11021799949E+03 0.  0.
     200001    1    1    2    0    0  0.35756061950E+03 -0.43158390817E+03 -0.22016519631E+03  0.85927642821E+03  0.61300000000E+03 0.  1.
         11    1    4    4    0    0 -0.95570957226E+02  0.53438093856E+02 -0.97600742747E+02  0.14668109191E+03  0.51100000000E-03 0.  1.
    -200002    1    4    4    0    0 -0.11385300033E+03  0.55705118389E+02 -0.32095946517E+03  0.34638207832E+03  0.30000000000E+02 0.  1.
    -200000    1    3    3    0    0 -0.14813666195E+03  0.32244069593E+03  0.12222947889E+03  0.38865604140E+03  0.10100000000E+03 0.  1.
<mgrwt>
<rscale>  0 0.16626177E+04</rscale>
<asrwt>0</asrwt>
<pdfrwt beam="1">  1        2 0.87464266E-01 0.16626177E+04</pdfrwt>
<pdfrwt beam="2">  1       -2 0.16124940E+00 0.16626177E+04</pdfrwt>
<totfact> 0.12488328E+01</totfact>
</mgrwt>
</event>
<event>
 8    2  0.7266322E-052  0.1662350E+04  0.7818608E-02  0.8783134E-01
         -2   -1    0    0    0  501 -0.00000000000E+00  0.00000000000E+00  0.44582458953E+03  0.44582458953E+03  0.25500000000E-02 0. -1.
          2   -1    0    0  501    0  0.00000000000E+00 -0.00000000000E+00 -0.15496041973E+04  0.15496041973E+04  0.25500000000E-02 0.  1.
    -200001    2    1    2    0    0  0.38611616054E+03  0.27166546698E+03 -0.91876171601E+03  0.11998859309E+04  0.61050416949E+03 0.  0.
   -5000001    2    3    3    0    0 -0.23966362925E+02 -0.63733916166E+02 -0.51604778800E+03  0.52680352132E+03  0.81118628880E+02 0.  0.
     200001    1    1    2    0    0 -0.38611616054E+03 -0.27166546698E+03 -0.18501789177E+03  0.79554285595E+03  0.61300000000E+03 0. -1.
         11    1    4    4    0    0 -0.25849923539E+02 -0.57107873044E+00 -0.58769116020E+02  0.64205557983E+02  0.51100000000E-03 0.  1.
    -200002    1    4    4    0    0  0.18835606144E+01 -0.63162837435E+02 -0.45727867198E+03  0.46259796333E+03  0.30000000000E+02 0.  1.
    -200000    1    3    3    0    0  0.41008252347E+03  0.33539938315E+03 -0.40271392802E+03  0.67308240958E+03  0.10100000000E+03 0.  1.
<mgrwt>
<rscale>  0 0.16623497E+04</rscale>
<asrwt>0</asrwt>
<pdfrwt beam="1">  1        2 0.22137203E+00 0.16623497E+04</pdfrwt>
<pdfrwt beam="2">  1       -2 0.63689228E-01 0.16623497E+04</pdfrwt>
<totfact> 0.30013971E+01</totfact>
</mgrwt>
</event>
<event>
 8    2  0.7266322E-052  0.1754337E+04  0.7818608E-02  0.8730967E-01
         -2   -1    0    0    0  501 -0.00000000000E+00  0.00000000000E+00  0.10230753640E+04  0.10230753640E+04  0.25500000000E-02 0. -1.
          2   -1    0    0  501    0  0.00000000000E+00 -0.00000000000E+00 -0.75207040614E+03  0.75207040614E+03  0.25500000000E-02 0.  1.
    -200001    2    1    2    0    0 -0.42624036901E+03 -0.43648995799E+03  0.28559134174E+03  0.91016825700E+03  0.61207802278E+03 0.  0.
   -5000001    2    3    3    0    0  0.72640830113E+02 -0.30967537828E+03  0.14906780191E+03  0.36813129757E+03  0.11010863986E+03 0.  0.
     200001    1    1    2    0    0  0.42624036901E+03  0.43648995799E+03 -0.14586383909E+02  0.86497751312E+03  0.61300000000E+03 0. -1.
         11    1    4    4    0    0  0.32036798109E+02 -0.12338103706E+03  0.11590753078E+03  0.17228985005E+03  0.51100000000E-03 0.  1.
    -200002    1    4    4    0    0  0.40604032004E+02 -0.18629434122E+03  0.33160271136E+02  0.19584144752E+03  0.30000000000E+02 0.  1.
    -200000    1    3    3    0    0 -0.49888119912E+03 -0.12681457972E+03  0.13652353983E+03  0.54203695943E+03  0.10100000000E+03 0.  1.
<mgrwt>
<rscale>  0 0.17543371E+04</rscale>
<asrwt>0</asrwt>
<pdfrwt beam="1">  1        2 0.10743863E+00 0.17543371E+04</pdfrwt>
<pdfrwt beam="2">  1       -2 0.14615362E+00 0.17543371E+04</pdfrwt>
<totfact> 0.12541020E+01</totfact>
</mgrwt>
</event>
<event>
 8    2  0.7266322E-052  0.1331022E+04  0.7818608E-02  0.9005320E-01
         -2   -1    0    0    0  501 -0.00000000000E+00  0.00000000000E+00  0.31720603375E+03  0.31720603376E+03  0.25500000000E-02 0. -1.
          2   -1    0    0  501    0  0.00000000000E+00 -0.00000000000E+00 -0.13962684527E+04  0.13962684527E+04  0.25500000000E-02 0.  1.
    -200001    2    1    2    0    0  0.20480209133E+03  0.48146553980E+02 -0.73500599530E+03  0.97971307432E+03  0.61265153847E+03 0.  0.
   -5000001    2    3    3    0    0  0.31392907142E+03 -0.13204947409E+02 -0.75072549953E+03  0.81809374589E+03  0.83443207680E+02 0.  0.
     200001    1    1    2    0    0 -0.20480209133E+03 -0.48146553980E+02 -0.34405642360E+03  0.73376141211E+03  0.61300000000E+03 0. -1.
         11    1    4    4    0    0  0.51941914395E+01 -0.56017747223E+01 -0.64854748906E+02  0.65303123667E+02  0.51100000000E-03 0.  1.
    -200002    1    4    4    0    0  0.30873487998E+03 -0.76031726868E+01 -0.68587075062E+03  0.75279062223E+03  0.30000000000E+02 0.  1.
    -200000    1    3    3    0    0 -0.10912698010E+03  0.61351501389E+02  0.15719504224E+02  0.16161932843E+03  0.10100000000E+03 0. -1.
<mgrwt>
<rscale>  0 0.13310218E+04</rscale>
<asrwt>0</asrwt>
<pdfrwt beam="1">  1        2 0.19946692E+00 0.13310218E+04</pdfrwt>
<pdfrwt beam="2">  1       -2 0.45315148E-01 0.13310218E+04</pdfrwt>
<totfact> 0.75103056E+01</totfact>
</mgrwt>
</event>
<event>
 8    2  0.7266322E-052  0.1648571E+04  0.7818608E-02  0.8791253E-01
          2   -1    0    0  501    0  0.00000000000E+00  0.00000000000E+00  0.13503836967E+04  0.13503836967E+04  0.25500000000E-02 0.  1.
         -2   -1    0    0    0  501 -0.00000000000E+00 -0.00000000000E+00 -0.50315054169E+03  0.50315054170E+03  0.25500000000E-02 0. -1.
    -200001    2    1    2    0    0  0.42732967614E+02 -0.42734054217E+03  0.81217692505E+03  0.11042385793E+04  0.61258912563E+03 0.  0.
   -5000001    2    3    3    0    0 -0.11819676146E+03 -0.32059331180E+03  0.81520194487E+03  0.88628560352E+03  0.64787453255E+02 0.  0.
     200001    1    1    2    0    0 -0.42732967614E+02  0.42734054217E+03  0.35056229933E+02  0.74929565911E+03  0.61300000000E+03 0. -1.
         11    1    4    4    0    0  0.42225615629E+01 -0.22352839225E+02  0.74823648948E+02  0.78205229299E+02  0.51100000000E-03 0.  1.
    -200002    1    4    4    0    0 -0.12241932302E+03 -0.29824047258E+03  0.74037829592E+03  0.80808037422E+03  0.30000000000E+02 0.  1.
    -200000    1    3    3    0    0  0.16092972907E+03 -0.10674723037E+03 -0.30250198146E+01  0.21795297574E+03  0.10100000000E+03 0.  1.
<mgrwt>
<rscale>  0 0.16485706E+04</rscale>
<asrwt>0</asrwt>
<pdfrwt beam="1">  1        2 0.19291196E+00 0.16485706E+04</pdfrwt>
<pdfrwt beam="2">  1       -2 0.71878649E-01 0.16485706E+04</pdfrwt>
<totfact> 0.29579698E+01</totfact>
</mgrwt>
</event>
<event>
 8    2  0.7266322E-052  0.1322926E+04  0.7818608E-02  0.9011580E-01
          2   -1    0    0  501    0  0.00000000000E+00  0.00000000000E+00  0.29149050458E+04  0.29149050458E+04  0.25500000000E-02 0.  1.
         -2   -1    0    0    0  501 -0.00000000000E+00 -0.00000000000E+00 -0.15010210681E+03  0.15010210683E+03  0.25500000000E-02 0. -1.
    -200001    2    1    2    0    0 -0.11556465120E+03  0.25838676999E+02  0.87551772619E+03  0.10752356981E+04  0.61284393758E+03 0.  0.
   -5000001    2    3    3    0    0 -0.23875122789E+03  0.15334209220E+02  0.87613532440E+03  0.91559028495E+03  0.11599645013E+03 0.  0.
     200001    1    1    2    0    0  0.11556465120E+03 -0.25838676999E+02  0.18892852128E+04  0.19897714545E+04  0.61300000000E+03 0.  1.
         11    1    4    4    0    0 -0.16841443462E+02 -0.13701230644E+02  0.17872754567E+02  0.28121047191E+02  0.51100000000E-03 0.  1.
    -200002    1    4    4    0    0 -0.22190978443E+03  0.29035439863E+02  0.85826256983E+03  0.88746923776E+03  0.30000000000E+02 0.  1.
    -200000    1    3    3    0    0  0.12318657670E+03  0.10504467779E+02 -0.61759821016E+00  0.15964541318E+03  0.10100000000E+03 0. -1.
<mgrwt>
<rscale>  0 0.13229261E+04</rscale>
<asrwt>0</asrwt>
<pdfrwt beam="1">  1        2 0.41641500E+00 0.13229261E+04</pdfrwt>
<pdfrwt beam="2">  1       -2 0.21443158E-01 0.13229261E+04</pdfrwt>
<totfact> 0.49035007E+01</totfact>
</mgrwt>
</event>
<event>
 8    2  0.7266322E-052  0.1471536E+04  0.7818608E-02  0.8903605E-01
         -2   -1    0    0    0  501 -0.00000000000E+00  0.00000000000E+00  0.53475105245E+03  0.53475105246E+03  0.25500000000E-02 0. -1.
          2   -1    0    0  501    0  0.00000000000E+00 -0.00000000000E+00 -0.10123482081E+04  0.10123482081E+04  0.25500000000E-02 0.  1.
    -200001    2    1    2    0    0 -0.13602870912E+03  0.28520239300E+03  0.32080293323E+02  0.68955374184E+03  0.61205473855E+03 0.  0.
   -5000001    2    3    3    0    0 -0.24382508296E+03  0.19558796932E+03  0.23053998447E+03  0.42642249672E+03  0.17601743223E+03 0.  0.
     200001    1    1    2    0    0  0.13602870912E+03 -0.28520239300E+03 -0.50967744894E+03  0.85754551870E+03  0.61300000000E+03 0.  1.
         11    1    4    4    0    0 -0.38059898272E+02  0.12386989527E+03  0.13336362249E+03  0.18595204386E+03  0.51100000000E-03 0.  1.
    -200002    1    4    4    0    0 -0.20576518469E+03  0.71718074050E+02  0.97176361985E+02  0.24047045287E+03  0.30000000000E+02 0.  1.
    -200000    1    3    3    0    0  0.10779637383E+03  0.89614423676E+02 -0.19845969115E+03  0.26313124511E+03  0.10100000000E+03 0.  1.
<mgrwt>
<rscale>  0 0.14715356E+04</rscale>
<asrwt>0</asrwt>
<pdfrwt beam="1">  1        2 0.14462117E+00 0.14715356E+04</pdfrwt>
<pdfrwt beam="2">  1       -2 0.76393007E-01 0.14715356E+04</pdfrwt>
<totfact> 0.41034547E+01</totfact>
</mgrwt>
</event>
<event>
 8    2  0.7266322E-052  0.1420066E+04  0.7818608E-02  0.8939421E-01
          2   -1    0    0  501    0  0.00000000000E+00  0.00000000000E+00  0.50521763112E+03  0.50521763113E+03  0.25500000000E-02 0.  1.
         -2   -1    0    0    0  501 -0.00000000000E+00 -0.00000000000E+00 -0.99788051976E+03  0.99788051976E+03  0.25500000000E-02 0. -1.
    -200001    2    1    2    0    0  0.32712538910E+03  0.78051168609E+02 -0.11622553372E+03  0.70900930995E+03  0.61325591869E+03 0.  0.
   -5000001    2    3    3    0    0  0.22496332089E+03  0.32660466957E+03 -0.17391636514E+02  0.40538936618E+03  0.82212914205E+02 0.  0.
     200001    1    1    2    0    0 -0.32712538910E+03 -0.78051168609E+02 -0.37643735493E+03  0.79408884093E+03  0.61300000000E+03 0.  1.
         11    1    4    4    0    0  0.60471250743E+02  0.92452564024E+02 -0.38258655187E+02  0.11691010845E+03  0.51100000000E-03 0.  1.
    -200002    1    4    4    0    0  0.16449207014E+03  0.23415210555E+03  0.20867018672E+02  0.28847925773E+03  0.30000000000E+02 0.  1.
    -200000    1    3    3    0    0  0.10216206821E+03 -0.24855350096E+03 -0.98833897201E+02  0.30361994377E+03  0.10100000000E+03 0.  1.
<mgrwt>
<rscale>  0 0.14200660E+04</rscale>
<asrwt>0</asrwt>
<pdfrwt beam="1">  1        2 0.72173948E-01 0.14200660E+04</pdfrwt>
<pdfrwt beam="2">  1       -2 0.14255436E+00 0.14200660E+04</pdfrwt>
<totfact> 0.22115961E+01</totfact>
</mgrwt>
</event>
<event>
 8    2  0.7266322E-052  0.1433292E+04  0.7818608E-02  0.8930066E-01
         -2   -1    0    0    0  501 -0.00000000000E+00  0.00000000000E+00  0.11869773486E+04  0.11869773486E+04  0.25500000000E-02 0. -1.
          2   -1    0    0  501    0  0.00000000000E+00 -0.00000000000E+00 -0.43268035757E+03  0.43268035758E+03  0.25500000000E-02 0.  1.
    -200001    2    1    2    0    0  0.22425767275E+03 -0.13059333755E+03  0.67698677018E+03  0.94951444250E+03  0.61312353236E+03 0.  0.
   -5000001    2    3    3    0    0  0.21667847103E+03  0.20522778197E+03  0.25054405850E+03  0.39734811343E+03  0.77750856572E+02 0.  0.
     200001    1    1    2    0    0 -0.22425767275E+03  0.13059333755E+03  0.77310220836E+02  0.67014326367E+03  0.61300000000E+03 0.  1.
         11    1    4    4    0    0 -0.43729105049E+00  0.27715356230E+00 -0.38912351310E+01  0.39255252726E+01  0.51100000000E-03 0.  1.
    -200002    1    4    4    0    0  0.21711576208E+03  0.20495062841E+03  0.25443529363E+03  0.39342258816E+03  0.30000000000E+02 0.  1.
    -200000    1    3    3    0    0  0.75792017173E+01 -0.33582111952E+03  0.42644271168E+03  0.55216632907E+03  0.10100000000E+03 0. -1.
<mgrwt>
<rscale>  0 0.14332924E+04</rscale>
<asrwt>0</asrwt>
<pdfrwt beam="1">  1        2 0.61811480E-01 0.14332924E+04</pdfrwt>
<pdfrwt beam="2">  1       -2 0.16956819E+00 0.14332924E+04</pdfrwt>
<totfact> 0.16510556E+01</totfact>
</mgrwt>
</event>
<event>
 8    2  0.7266322E-052  0.1365843E+04  0.7818608E-02  0.8978921E-01
          2   -1    0    0  501    0  0.00000000000E+00  0.00000000000E+00  0.79804251273E+03  0.79804251273E+03  0.25500000000E-02 0.  1.
         -2   -1    0    0    0  501 -0.00000000000E+00 -0.00000000000E+00 -0.58440743065E+03  0.58440743066E+03  0.25500000000E-02 0. -1.
    -200001    2    1    2    0    0 -0.13993502771E+03  0.25619992782E+03  0.18114547785E+03  0.70271117785E+03  0.61300008183E+03 0.  0.
   -5000001    2    3    3    0    0  0.21476390518E+03  0.14060133140E+03  0.16503152814E+03  0.31588430718E+03  0.81579537160E+02 0.  0.
     200001    1    1    2    0    0  0.13993502771E+03 -0.25619992782E+03  0.32489604224E+02  0.67973876554E+03  0.61300000000E+03 0.  1.
         11    1    4    4    0    0  0.74153188724E+02  0.17862921917E+02  0.73212153765E+02  0.10572510977E+03  0.51100000000E-03 0.  1.
    -200002    1    4    4    0    0  0.14061071646E+03  0.12273840948E+03  0.91819374379E+02  0.21015919741E+03  0.30000000000E+02 0.  1.
    -200000    1    3    3    0    0 -0.35469893289E+03  0.11559859642E+03  0.16113949708E+02  0.38682687066E+03  0.10100000000E+03 0. -1.
<mgrwt>
<rscale>  0 0.13658433E+04</rscale>
<asrwt>0</asrwt>
<pdfrwt beam="1">  1        2 0.11400607E+00 0.13658433E+04</pdfrwt>
<pdfrwt beam="2">  1       -2 0.83486775E-01 0.13658433E+04</pdfrwt>
<totfact> 0.46779997E+01</totfact>
</mgrwt>
</event>
<event>
 8    2  0.7266322E-052  0.2195882E+04  0.7818608E-02  0.8520144E-01
         -2   -1    0    0    0  501 -0.00000000000E+00  0.00000000000E+00  0.80490179162E+03  0.80490179162E+03  0.25500000000E-02 0. -1.
          2   -1    0    0  501    0  0.00000000000E+00 -0.00000000000E+00 -0.14976668514E+04  0.14976668514E+04  0.25500000000E-02 0.  1.
    -200001    2    1    2    0    0 -0.23042466804E+03 -0.39520002544E+03  0.47939257307E+03  0.90292543706E+03  0.61333393679E+03 0.  0.
   -5000001    2    3    3    0    0  0.16460513575E+03 -0.23888638589E+03  0.85067865543E+02  0.31455865115E+03  0.86885252971E+02 0.  0.
     200001    1    1    2    0    0  0.23042466804E+03  0.39520002544E+03 -0.11721576329E+04  0.13996432060E+04  0.61300000000E+03 0.  1.
         11    1    4    4    0    0  0.46670616454E+02 -0.22754060815E+02  0.31739930505E+02  0.60854884048E+02  0.51100000000E-03 0.  1.
    -200002    1    4    4    0    0  0.11793451930E+03 -0.21613232508E+03  0.53327935038E+02  0.25370376710E+03  0.30000000000E+02 0.  1.
    -200000    1    3    3    0    0 -0.39502980379E+03 -0.15631363954E+03  0.39432470753E+03  0.58836678591E+03  0.10100000000E+03 0.  1.
<mgrwt>
<rscale>  0 0.21958823E+04</rscale>
<asrwt>0</asrwt>
<pdfrwt beam="1">  1        2 0.21395241E+00 0.21958823E+04</pdfrwt>
<pdfrwt beam="2">  1       -2 0.11498597E+00 0.21958823E+04</pdfrwt>
<totfact> 0.79462005E+00</totfact>
</mgrwt>
</event>
<event>
 8    2  0.7266322E-052  0.1751501E+04  0.7818608E-02  0.8732525E-01
          2   -1    0    0  501    0  0.00000000000E+00  0.00000000000E+00  0.14823308161E+04  0.14823308161E+04  0.25500000000E-02 0.  1.
         -2   -1    0    0    0  501 -0.00000000000E+00 -0.00000000000E+00 -0.51738693019E+03  0.51738693019E+03  0.25500000000E-02 0. -1.
    -200001    2    1    2    0    0  0.34958154794E+03  0.25875689352E+03  0.99460271504E+03  0.12475136286E+04  0.61473026942E+03 0.  0.
   -5000001    2    3    3    0    0  0.45739261900E+02  0.19621173747E+03  0.81374017748E+03  0.87449313474E+03  0.24894585811E+03 0.  0.
     200001    1    1    2    0    0 -0.34958154794E+03 -0.25875689352E+03 -0.29658829093E+02  0.75220411774E+03  0.61300000000E+03 0. -1.
         11    1    4    4    0    0  0.59100619160E+02 -0.23867837791E+02  0.56293717231E+02  0.85038458746E+02  0.51100000000E-03 0.  1.
    -200002    1    4    4    0    0 -0.13361357260E+02  0.22007957526E+03  0.75744646025E+03  0.78945467600E+03  0.30000000000E+02 0.  1.
    -200000    1    3    3    0    0  0.30384228604E+03  0.62545156051E+02  0.18086253756E+03  0.37302049384E+03  0.10100000000E+03 0.  1.
<mgrwt>
<rscale>  0 0.17515006E+04</rscale>
<asrwt>0</asrwt>
<pdfrwt beam="1">  1        2 0.21176155E+00 0.17515006E+04</pdfrwt>
<pdfrwt beam="2">  1       -2 0.73912419E-01 0.17515006E+04</pdfrwt>
<totfact> 0.23418077E+01</totfact>
</mgrwt>
</event>
<event>
 8    2  0.7266322E-052  0.1819475E+04  0.7818608E-02  0.8696011E-01
          2   -1    0    0  501    0  0.00000000000E+00  0.00000000000E+00  0.14969952944E+04  0.14969952944E+04  0.25500000000E-02 0.  1.
         -2   -1    0    0    0  501 -0.00000000000E+00 -0.00000000000E+00 -0.55285562448E+03  0.55285562448E+03  0.25500000000E-02 0. -1.
    -200001    2    1    2    0    0 -0.88855703294E+01  0.20622751926E+03  0.11927319240E+04  0.13569036973E+04  0.61316348403E+03 0.  0.
   -5000001    2    3    3    0    0  0.51724912202E+02  0.63770193146E+02  0.11641550865E+04  0.11698599698E+04  0.81075147307E+02 0.  0.
     200001    1    1    2    0    0  0.88855703294E+01 -0.20622751926E+03 -0.24859225411E+03  0.69294722156E+03  0.61300000000E+03 0. -1.
         11    1    4    4    0    0  0.35419685273E+02  0.69439307889E+02  0.67603985852E+03  0.68051911207E+03  0.51100000000E-03 0.  1.
    -200002    1    4    4    0    0  0.16305226929E+02 -0.56691147432E+01  0.48811522793E+03  0.48934085771E+03  0.30000000000E+02 0.  1.
    -200000    1    3    3    0    0 -0.60610482531E+02  0.14245732612E+03  0.28576837544E+02  0.18704372751E+03  0.10100000000E+03 0. -1.
<mgrwt>
<rscale>  0 0.18194749E+04</rscale>
<asrwt>0</asrwt>
<pdfrwt beam="1">  1        2 0.21385647E+00 0.18194749E+04</pdfrwt>
<pdfrwt beam="2">  1       -2 0.78979374E-01 0.18194749E+04</pdfrwt>
<totfact> 0.19740296E+01</totfact>
</mgrwt>
</event>
<event>
 8    2  0.7266322E-052  0.1361696E+04  0.7818608E-02  0.8982021E-01
         -2   -1    0    0    0  501 -0.00000000000E+00  0.00000000000E+00  0.47108267540E+03  0.47108267541E+03  0.25500000000E-02 0. -1.
          2   -1    0    0  501    0  0.00000000000E+00 -0.00000000000E+00 -0.98401847477E+03  0.98401847477E+03  0.25500000000E-02 0.  1.
    -200001    2    1    2    0    0 -0.43762663961E+01 -0.21580592960E+03 -0.38855872534E+02  0.65066835125E+03  0.61259135934E+03 0.  0.
   -5000001    2    3    3    0    0  0.16452441163E+03 -0.34462643171E+03 -0.10357985540E+03  0.40671680943E+03  0.94096318584E+02 0.  0.
     200001    1    1    2    0    0  0.43762663961E+01  0.21580592960E+03 -0.47407992684E+03  0.80443279893E+03  0.61300000000E+03 0.  1.
         11    1    4    4    0    0  0.14903822462E+03 -0.30933885686E+03 -0.80395219713E+02  0.35265608192E+03  0.51100000000E-03 0.  1.
    -200002    1    4    4    0    0  0.15486187009E+02 -0.35287574853E+02 -0.23184635688E+02  0.54060727512E+02  0.30000000000E+02 0.  1.
    -200000    1    3    3    0    0 -0.16890067802E+03  0.12882050211E+03  0.64723982868E+02  0.24395154183E+03  0.10100000000E+03 0.  1.
<mgrwt>
<rscale>  0 0.13616961E+04</rscale>
<asrwt>0</asrwt>
<pdfrwt beam="1">  1        2 0.14057407E+00 0.13616961E+04</pdfrwt>
<pdfrwt beam="2">  1       -2 0.67297526E-01 0.13616961E+04</pdfrwt>
<totfact> 0.56879035E+01</totfact>
</mgrwt>
</event>
<event>
 8    2  0.7266322E-052  0.1284211E+04  0.7818608E-02  0.9042180E-01
         -2   -1    0    0    0  501 -0.00000000000E+00  0.00000000000E+00  0.15649839911E+03  0.15649839913E+03  0.25500000000E-02 0. -1.
          2   -1    0    0  501    0  0.00000000000E+00 -0.00000000000E+00 -0.26345299926E+04  0.26345299926E+04  0.25500000000E-02 0.  1.
    -200001    2    1    2    0    0  0.17731207934E+03  0.24444811538E+02 -0.10910974624E+04  0.12641386098E+04  0.61279330116E+03 0.  0.
   -5000001    2    3    3    0    0  0.27840150147E+03 -0.12072635523E+03 -0.24759389417E+03  0.39638691225E+03  0.61135905208E+02 0.  0.
     200001    1    1    2    0    0 -0.17731207934E+03 -0.24444811538E+02 -0.13869341311E+04  0.15268897820E+04  0.61300000000E+03 0. -1.
         11    1    4    4    0    0  0.21280651269E+03 -0.92821723033E+02 -0.18844808781E+03  0.29902368787E+03  0.51100000000E-03 0.  1.
    -200002    1    4    4    0    0  0.65594988774E+02 -0.27904632199E+02 -0.59145806360E+02  0.97363224374E+02  0.30000000000E+02 0. -1.
    -200000    1    3    3    0    0 -0.10108942212E+03  0.14517116677E+03 -0.84350356823E+03  0.86775169751E+03  0.10100000000E+03 0.  1.
<mgrwt>
<rscale>  0 0.12842114E+04</rscale>
<asrwt>0</asrwt>
<pdfrwt beam="1">  1        2 0.37636140E+00 0.12842114E+04</pdfrwt>
<pdfrwt beam="2">  1       -2 0.22356916E-01 0.12842114E+04</pdfrwt>
<totfact> 0.64692387E+01</totfact>
</mgrwt>
</event>
<event>
 8    2  0.7266322E-052  0.1323627E+04  0.7818608E-02  0.9011036E-01
          2   -1    0    0  501    0  0.00000000000E+00  0.00000000000E+00  0.37073931835E+03  0.37073931835E+03  0.25500000000E-02 0.  1.
         -2   -1    0    0    0  501 -0.00000000000E+00 -0.00000000000E+00 -0.11814148598E+04  0.11814148598E+04  0.25500000000E-02 0. -1.
    -200001    2    1    2    0    0 -0.10651330409E+03  0.18030059483E+03 -0.24525204832E+03  0.69231342836E+03  0.61261401178E+03 0.  0.
   -5000001    2    3    3    0    0 -0.12116584326E+03 -0.59307930770E+02  0.13390907505E+03  0.23232310246E+03  0.13358065477E+03 0.  0.
     200001    1    1    2    0    0  0.10651330409E+03 -0.18030059483E+03 -0.56542349316E+03  0.85984074982E+03  0.61300000000E+03 0. -1.
         11    1    4    4    0    0 -0.11574514573E+03 -0.20830679663E+02  0.14001693366E+03  0.18285403382E+03  0.51100000000E-03 0.  1.
    -200002    1    4    4    0    0 -0.54206975274E+01 -0.38477251107E+02 -0.61078586034E+01  0.49469068630E+02  0.30000000000E+02 0.  1.
    -200000    1    3    3    0    0  0.14652539161E+02  0.23960852560E+03 -0.37916112338E+03  0.45999032590E+03  0.10100000000E+03 0. -1.
<mgrwt>
<rscale>  0 0.13236267E+04</rscale>
<asrwt>0</asrwt>
<pdfrwt beam="1">  1        2 0.52962760E-01 0.13236267E+04</pdfrwt>
<pdfrwt beam="2">  1       -2 0.16877355E+00 0.13236267E+04</pdfrwt>
<totfact> 0.20046899E+01</totfact>
</mgrwt>
</event>
<event>
 8    2  0.7266322E-052  0.2469992E+04  0.7818608E-02  0.8413755E-01
          2   -1    0    0  501    0  0.00000000000E+00  0.00000000000E+00  0.15526022817E+04  0.15526022817E+04  0.25500000000E-02 0.  1.
         -2   -1    0    0    0  501 -0.00000000000E+00 -0.00000000000E+00 -0.98236012785E+03  0.98236012786E+03  0.25500000000E-02 0. -1.
    -200001    2    1    2    0    0  0.83147201997E+03 -0.55274324696E+03 -0.11622027405E+03  0.11770704838E+04  0.61246792136E+03 0.  0.
   -5000001    2    3    3    0    0  0.46933283765E+03 -0.56621959981E+03  0.60215971750E+02  0.76155014942E+03  0.18829423549E+03 0.  0.
     200001    1    1    2    0    0 -0.83147201997E+03  0.55274324696E+03  0.68646242786E+03  0.13578919257E+04  0.61300000000E+03 0. -1.
         11    1    4    4    0    0  0.31859185181E+03 -0.49650905375E+03  0.57882275372E+02  0.59276670478E+03  0.51100000000E-03 0.  1.
    -200002    1    4    4    0    0  0.15074098584E+03 -0.69710546058E+02  0.23336963774E+01  0.16878344463E+03  0.30000000000E+02 0.  1.
    -200000    1    3    3    0    0  0.36213918232E+03  0.13476352848E+02 -0.17643624580E+03  0.41552033439E+03  0.10100000000E+03 0.  1.
<mgrwt>
<rscale>  0 0.24699916E+04</rscale>
<asrwt>0</asrwt>
<pdfrwt beam="1">  1        2 0.22180033E+00 0.24699916E+04</pdfrwt>
<pdfrwt beam="2">  1       -2 0.14033716E+00 0.24699916E+04</pdfrwt>
<totfact> 0.44010484E+00</totfact>
</mgrwt>
</event>
<event>
 8    2  0.7266322E-052  0.1558145E+04  0.7818608E-02  0.8846682E-01
          2   -1    0    0  501    0  0.00000000000E+00  0.00000000000E+00  0.17642564254E+04  0.17642564254E+04  0.25500000000E-02 0.  1.
         -2   -1    0    0    0  501 -0.00000000000E+00 -0.00000000000E+00 -0.34402835021E+03  0.34402835022E+03  0.25500000000E-02 0. -1.
    -200001    2    1    2    0    0 -0.40505487485E+03 -0.19171713377E+03  0.47230402683E+03  0.89372563235E+03  0.61224954156E+03 0.  0.
   -5000001    2    3    3    0    0 -0.22187236139E+03  0.15597337936E+03  0.38777661518E+03  0.47924956612E+03  0.75857784896E+02 0.  0.
     200001    1    1    2    0    0  0.40505487485E+03  0.19171713377E+03  0.94792404837E+03  0.12145591433E+04  0.61300000000E+03 0.  1.
         11    1    4    4    0    0 -0.78319689756E+02  0.39375634216E+02  0.78617646495E+02  0.11775036609E+03  0.51100000000E-03 0.  1.
    -200002    1    4    4    0    0 -0.14355267164E+03  0.11659774515E+03  0.30915896868E+03  0.36149920003E+03  0.30000000000E+02 0.  1.
    -200000    1    3    3    0    0 -0.18318251346E+03 -0.34769051313E+03  0.84527411648E+02  0.41447606623E+03  0.10100000000E+03 0. -1.
<mgrwt>
<rscale>  0 0.15581453E+04</rscale>
<asrwt>0</asrwt>
<pdfrwt beam="1">  1        2 0.25203664E+00 0.15581453E+04</pdfrwt>
<pdfrwt beam="2">  1       -2 0.49146906E-01 0.15581453E+04</pdfrwt>
<totfact> 0.40107782E+01</totfact>
</mgrwt>
</event>
<event>
 8    2  0.7266322E-052  0.1600849E+04  0.7818608E-02  0.8820027E-01
          2   -1    0    0  501    0  0.00000000000E+00  0.00000000000E+00  0.41215480958E+04  0.41215480958E+04  0.25500000000E-02 0.  1.
         -2   -1    0    0    0  501 -0.00000000000E+00 -0.00000000000E+00 -0.15544630634E+03  0.15544630636E+03  0.25500000000E-02 0. -1.
    -200001    2    1    2    0    0  0.45963145490E+03  0.22913261924E+03  0.20785366220E+04  0.22270104771E+04  0.61277919732E+03 0.  0.
   -5000001    2    3    3    0    0  0.57602745089E+03  0.27020130582E+03  0.16930196855E+04  0.18098067220E+04  0.65332579338E+02 0.  0.
     200001    1    1    2    0    0 -0.45963145490E+03 -0.22913261924E+03  0.18875651675E+04  0.20499839251E+04  0.61300000000E+03 0.  1.
         11    1    4    4    0    0  0.38883315570E+03  0.16189390720E+03  0.11024539554E+04  0.11801718451E+04  0.51100000000E-03 0.  1.
    -200002    1    4    4    0    0  0.18719429519E+03  0.10830739862E+03  0.59056573005E+03  0.62963487694E+03  0.30000000000E+02 0.  1.
    -200000    1    3    3    0    0 -0.11639599599E+03 -0.41068686573E+02  0.38551693650E+03  0.41720375505E+03  0.10100000000E+03 0. -1.
<mgrwt>
<rscale>  0 0.16008491E+04</rscale>
<asrwt>0</asrwt>
<pdfrwt beam="1">  1        2 0.58879257E+00 0.16008491E+04</pdfrwt>
<pdfrwt beam="2">  1       -2 0.22206616E-01 0.16008491E+04</pdfrwt>
<totfact> 0.81216127E+00</totfact>
</mgrwt>
</event>
<event>
 8    2  0.7266322E-052  0.1810689E+04  0.7818608E-02  0.8700636E-01
         -2   -1    0    0    0  501 -0.00000000000E+00  0.00000000000E+00  0.29206135494E+03  0.29206135496E+03  0.25500000000E-02 0. -1.
          2   -1    0    0  501    0  0.00000000000E+00 -0.00000000000E+00 -0.28064260218E+04  0.28064260218E+04  0.25500000000E-02 0.  1.
    -200001    2    1    2    0    0 -0.19560034705E+02 -0.66557594001E+03 -0.12837158827E+04  0.15708619787E+04  0.61343863728E+03 0.  0.
   -5000001    2    3    3    0    0  0.24506828438E+03 -0.24965602404E+03 -0.77990301563E+03  0.85879040308E+03  0.82979806566E+02 0.  0.
     200001    1    1    2    0    0  0.19560034705E+02  0.66557594001E+03 -0.12306487841E+04  0.15276253980E+04  0.61300000000E+03 0. -1.
         11    1    4    4    0    0  0.61815611181E+01 -0.14745433497E+02 -0.10660633291E+02  0.19216883444E+02  0.51100000000E-03 0.  1.
    -200002    1    4    4    0    0  0.23888672326E+03 -0.23491059054E+03 -0.76924238233E+03  0.83957351964E+03  0.30000000000E+02 0.  1.
    -200000    1    3    3    0    0 -0.26462831908E+03 -0.41591991597E+03 -0.50381286712E+03  0.71207157564E+03  0.10100000000E+03 0. -1.
<mgrwt>
<rscale>  0 0.18106889E+04</rscale>
<asrwt>0</asrwt>
<pdfrwt beam="1">  1        2 0.40091799E+00 0.18106889E+04</pdfrwt>
<pdfrwt beam="2">  1       -2 0.41723052E-01 0.18106889E+04</pdfrwt>
<totfact> 0.15561435E+01</totfact>
</mgrwt>
</event>
<event>
 8    2  0.7266322E-052  0.1324553E+04  0.7818608E-02  0.9010318E-01
         -2   -1    0    0    0  501 -0.00000000000E+00  0.00000000000E+00  0.74055853143E+03  0.74055853143E+03  0.25500000000E-02 0. -1.
          2   -1    0    0  501    0  0.00000000000E+00 -0.00000000000E+00 -0.59226966194E+03  0.59226966195E+03  0.25500000000E-02 0.  1.
    -200001    2    1    2    0    0  0.14595527923E+03  0.18728040760E+03 -0.42763049591E+01  0.65797856046E+03  0.61362904481E+03 0.  0.
   -5000001    2    3    3    0    0  0.32847243821E+03  0.10983431598E+03 -0.87324625196E+02  0.42047396277E+03  0.22184463837E+03 0.  0.
     200001    1    1    2    0    0 -0.14595527923E+03 -0.18728040760E+03  0.15256517444E+03  0.67484963292E+03  0.61300000000E+03 0. -1.
         11    1    4    4    0    0  0.11976250598E+03  0.12211174254E+03 -0.11694252419E+03  0.20719529306E+03  0.51100000000E-03 0.  1.
    -200002    1    4    4    0    0  0.20870993222E+03 -0.12277426554E+02  0.29617898990E+02  0.21327866971E+03  0.30000000000E+02 0.  1.
    -200000    1    3    3    0    0 -0.18251715898E+03  0.77446091615E+02  0.83048320237E+02  0.23750459769E+03  0.10100000000E+03 0.  1.
<mgrwt>
<rscale>  0 0.13245533E+04</rscale>
<asrwt>0</asrwt>
<pdfrwt beam="1">  1        2 0.84609951E-01 0.13245533E+04</pdfrwt>
<pdfrwt beam="2">  1       -2 0.10579408E+00 0.13245533E+04</pdfrwt>
<totfact> 0.38984149E+01</totfact>
</mgrwt>
</event>
<event>
 8    2  0.7266322E-052  0.1706206E+04  0.7818608E-02  0.8757833E-01
          2   -1    0    0  501    0  0.00000000000E+00  0.00000000000E+00  0.11195872659E+04  0.11195872659E+04  0.25500000000E-02 0.  1.
         -2   -1    0    0    0  501 -0.00000000000E+00 -0.00000000000E+00 -0.65004730241E+03  0.65004730242E+03  0.25500000000E-02 0. -1.
    -200001    2    1    2    0    0  0.26449284422E+03  0.46014693562E+03 -0.42853900785E+02  0.81046402084E+03  0.61100229563E+03 0.  0.
   -5000001    2    3    3    0    0 -0.13414203612E+03 -0.15448754849E+02 -0.76136313326E+02  0.18085323027E+03  0.93157945512E+02 0.  0.
     200001    1    1    2    0    0 -0.26449284422E+03 -0.46014693562E+03  0.51239386428E+03  0.95917054748E+03  0.61300000000E+03 0.  1.
         11    1    4    4    0    0 -0.94927436848E+02  0.15197195026E+02 -0.76310344949E+02  0.12274136120E+03  0.51100000000E-03 0.  1.
    -200002    1    4    4    0    0 -0.39214599270E+02 -0.30645949875E+02  0.17403162254E+00  0.58111869069E+02  0.30000000000E+02 0. -1.
    -200000    1    3    3    0    0  0.39863488034E+03  0.47559569047E+03  0.33282412541E+02  0.62961079057E+03  0.10100000000E+03 0. -1.
<mgrwt>
<rscale>  0 0.17062059E+04</rscale>
<asrwt>0</asrwt>
<pdfrwt beam="1">  1        2 0.15994104E+00 0.17062059E+04</pdfrwt>
<pdfrwt beam="2">  1       -2 0.92863899E-01 0.17062059E+04</pdfrwt>
<totfact> 0.22302128E+01</totfact>
</mgrwt>
</event>
<event>
 8    2  0.7266322E-052  0.1260832E+04  0.7818608E-02  0.9061216E-01
         -2   -1    0    0    0  501 -0.00000000000E+00  0.00000000000E+00  0.24724709082E+03  0.24724709083E+03  0.25500000000E-02 0. -1.
          2   -1    0    0  501    0  0.00000000000E+00 -0.00000000000E+00 -0.16073971990E+04  0.16073971990E+04  0.25500000000E-02 0.  1.
    -200001    2    1    2    0    0  0.12088335786E+03 -0.10029665641E+02 -0.80094348016E+03  0.10160773973E+04  0.61334283933E+03 0.  0.
   -5000001    2    3    3    0    0  0.36435688449E+02  0.13744908250E+03  0.25475432346E+02  0.16634178612E+03  0.82466856874E+02 0.  0.
     200001    1    1    2    0    0 -0.12088335786E+03  0.10029665641E+02 -0.55920662805E+03  0.83856689253E+03  0.61300000000E+03 0. -1.
         11    1    4    4    0    0  0.48803558956E+02  0.74531233675E+02 -0.50876707091E+01  0.89233270440E+02  0.51100000000E-03 0.  1.
    -200002    1    4    4    0    0 -0.12367870507E+02  0.62917848824E+02  0.30563103055E+02  0.77108515676E+02  0.30000000000E+02 0.  1.
    -200000    1    3    3    0    0  0.84447669410E+02 -0.14747874814E+03 -0.82641891250E+03  0.84973561121E+03  0.10100000000E+03 0.  1.
<mgrwt>
<rscale>  0 0.12608319E+04</rscale>
<asrwt>0</asrwt>
<pdfrwt beam="1">  1        2 0.22962816E+00 0.12608319E+04</pdfrwt>
<pdfrwt beam="2">  1       -2 0.35321014E-01 0.12608319E+04</pdfrwt>
<totfact> 0.94844371E+01</totfact>
</mgrwt>
</event>
<event>
 8    2  0.7266322E-052  0.2056556E+04  0.7818608E-02  0.8580626E-01
          2   -1    0    0  501    0  0.00000000000E+00  0.00000000000E+00  0.15782132834E+04  0.15782132834E+04  0.25500000000E-02 0.  1.
         -2   -1    0    0    0  501 -0.00000000000E+00 -0.00000000000E+00 -0.66997023920E+03  0.66997023920E+03  0.25500000000E-02 0. -1.
    -200001    2    1    2    0    0  0.12432028909E+03  0.49376437230E+03 -0.25621322118E+03  0.83716042442E+03  0.61313422012E+03 0.  0.
   -5000001    2    3    3    0    0  0.14060251632E+03  0.55783780792E+03 -0.38800334117E+02  0.58848416996E+03  0.11771178711E+03 0.  0.
     200001    1    1    2    0    0 -0.12432028909E+03 -0.49376437230E+03  0.11644562654E+04  0.14110230982E+04  0.61300000000E+03 0.  1.
         11    1    4    4    0    0  0.26474887805E+02  0.17815953858E+02 -0.14859582703E+02  0.35201350748E+02  0.51100000000E-03 0.  1.
    -200002    1    4    4    0    0  0.11412762851E+03  0.54002185406E+03 -0.23940751414E+02  0.55328281921E+03  0.30000000000E+02 0.  1.
    -200000    1    3    3    0    0 -0.16282227233E+02 -0.64073435614E+02 -0.21741288706E+03  0.24867625447E+03  0.10100000000E+03 0.  1.
<mgrwt>
<rscale>  0 0.20565563E+04</rscale>
<asrwt>0</asrwt>
<pdfrwt beam="1">  1        2 0.22545904E+00 0.20565563E+04</pdfrwt>
<pdfrwt beam="2">  1       -2 0.95710036E-01 0.20565563E+04</pdfrwt>
<totfact> 0.11303425E+01</totfact>
</mgrwt>
</event>
<event>
 8    2  0.7266322E-052  0.1674069E+04  0.7818608E-02  0.8776293E-01
          2   -1    0    0  501    0  0.00000000000E+00  0.00000000000E+00  0.76901504152E+03  0.76901504153E+03  0.25500000000E-02 0.  1.
         -2   -1    0    0    0  501 -0.00000000000E+00 -0.00000000000E+00 -0.91107073594E+03  0.91107073594E+03  0.25500000000E-02 0. -1.
    -200001    2    1    2    0    0  0.53684255853E+03  0.11492264639E+03  0.79448600746E+02  0.82788844112E+03  0.61455678621E+03 0.  0.
   -5000001    2    3    3    0    0  0.41152710110E+03 -0.13289523646E+03 -0.13245744351E+03  0.46426385652E+03  0.10478671347E+03 0.  0.
     200001    1    1    2    0    0 -0.53684255853E+03 -0.11492264639E+03 -0.22150429516E+03  0.85219733635E+03  0.61300000000E+03 0.  1.
         11    1    4    4    0    0  0.14766256226E+03 -0.96145282280E+02 -0.65006417885E+02  0.18781368950E+03  0.51100000000E-03 0.  1.
    -200002    1    4    4    0    0  0.26386453884E+03 -0.36749954184E+02 -0.67451025623E+02  0.27645016702E+03  0.30000000000E+02 0.  1.
    -200000    1    3    3    0    0  0.12531545743E+03  0.24781788285E+03  0.21190604425E+03  0.36362458460E+03  0.10100000000E+03 0.  1.
<mgrwt>
<rscale>  0 0.16740694E+04</rscale>
<asrwt>0</asrwt>
<pdfrwt beam="1">  1        2 0.10985929E+00 0.16740694E+04</pdfrwt>
<pdfrwt beam="2">  1       -2 0.13015296E+00 0.16740694E+04</pdfrwt>
<totfact> 0.16551177E+01</totfact>
</mgrwt>
</event>
<event>
 8    2  0.7266322E-052  0.1518122E+04  0.7818608E-02  0.8872491E-01
          2   -1    0    0  501    0  0.00000000000E+00  0.00000000000E+00  0.16238082465E+04  0.16238082465E+04  0.25500000000E-02 0.  1.
         -2   -1    0    0    0  501 -0.00000000000E+00 -0.00000000000E+00 -0.35482855248E+03  0.35482855249E+03  0.25500000000E-02 0. -1.
    -200001    2    1    2    0    0  0.10662880607E+03 -0.29983243814E+03  0.22423915545E+03  0.72623072020E+03  0.61307313338E+03 0.  0.
   -5000001    2    3    3    0    0  0.65250139948E+02 -0.79474228175E+02 -0.19867118214E+03  0.23702310747E+03  0.78332503822E+02 0.  0.
     200001    1    1    2    0    0 -0.10662880607E+03  0.29983243814E+03  0.10447405385E+04  0.12524060787E+04  0.61300000000E+03 0.  1.
         11    1    4    4    0    0  0.11934405386E+02 -0.55991615866E+02 -0.56294576462E+02  0.80290537540E+02  0.51100000000E-03 0.  1.
    -200002    1    4    4    0    0  0.53315734561E+02 -0.23482612309E+02 -0.14237660568E+03  0.15673256993E+03  0.30000000000E+02 0.  1.
    -200000    1    3    3    0    0  0.41378666122E+02 -0.22035820997E+03  0.42291033759E+03  0.48920761273E+03  0.10100000000E+03 0. -1.
<mgrwt>
<rscale>  0 0.15181219E+04</rscale>
<asrwt>0</asrwt>
<pdfrwt beam="1">  1        2 0.23197261E+00 0.15181219E+04</pdfrwt>
<pdfrwt beam="2">  1       -2 0.50689793E-01 0.15181219E+04</pdfrwt>
<totfact> 0.44699465E+01</totfact>
</mgrwt>
</event>
<event>
 8    2  0.7266322E-052  0.1323926E+04  0.7818608E-02  0.9010804E-01
         -2   -1    0    0    0  501 -0.00000000000E+00  0.00000000000E+00  0.18451552364E+03  0.18451552366E+03  0.25500000000E-02 0. -1.
          2   -1    0    0  501    0  0.00000000000E+00 -0.00000000000E+00 -0.23748392347E+04  0.23748392347E+04  0.25500000000E-02 0.  1.
    -200001    2    1    2    0    0 -0.36868498606E+02  0.23041043979E+03 -0.92397933096E+03  0.11332252601E+04  0.61319933874E+03 0.  0.
   -5000001    2    3    3    0    0  0.25064418841E+03  0.56072560392E+02 -0.22629827960E+03  0.35218935127E+03  0.82823828617E+02 0.  0.
     200001    1    1    2    0    0  0.36868498606E+02 -0.23041043979E+03 -0.12663443801E+04  0.14261294983E+04  0.61300000000E+03 0.  1.
         11    1    4    4    0    0  0.10263284206E+03 -0.10698818553E+01 -0.53704785756E+02  0.11583975539E+03  0.51100000000E-03 0.  1.
    -200002    1    4    4    0    0  0.14801134635E+03  0.57142442247E+02 -0.17259349385E+03  0.23634959588E+03  0.30000000000E+02 0.  1.
    -200000    1    3    3    0    0 -0.28751268701E+03  0.17433787940E+03 -0.69768105136E+03  0.78103590879E+03  0.10100000000E+03 0. -1.
<mgrwt>
<rscale>  0 0.13239255E+04</rscale>
<asrwt>0</asrwt>
<pdfrwt beam="1">  1        2 0.33926273E+00 0.13239255E+04</pdfrwt>
<pdfrwt beam="2">  1       -2 0.26359362E-01 0.13239255E+04</pdfrwt>
<totfact> 0.65553674E+01</totfact>
</mgrwt>
</event>
<event>
 8    2  0.7266322E-052  0.1524938E+04  0.7818608E-02  0.8868037E-01
          2   -1    0    0  501    0  0.00000000000E+00  0.00000000000E+00  0.27128011221E+04  0.27128011221E+04  0.25500000000E-02 0.  1.
         -2   -1    0    0    0  501 -0.00000000000E+00 -0.00000000000E+00 -0.21430201868E+03  0.21430201870E+03  0.25500000000E-02 0. -1.
    -200001    2    1    2    0    0 -0.36899212547E+03 -0.24165908848E+03  0.14534335007E+04  0.16377290998E+04  0.61248131364E+03 0.  0.
   -5000001    2    3    3    0    0  0.46511199143E+02 -0.21846890993E+03  0.93636424925E+03  0.96635557635E+03  0.84694370665E+02 0.  0.
     200001    1    1    2    0    0  0.36899212547E+03  0.24165908848E+03  0.10450656027E+04  0.12893740410E+04  0.61300000000E+03 0.  1.
         11    1    4    4    0    0 -0.14386174707E+02 -0.10551889276E+03  0.38451912706E+03  0.39899393207E+03  0.51100000000E-03 0.  1.
    -200002    1    4    4    0    0  0.60897373850E+02 -0.11295001718E+03  0.55184512219E+03  0.56736164428E+03  0.30000000000E+02 0.  1.
    -200000    1    3    3    0    0 -0.41550332462E+03 -0.23190178543E+02  0.51706925148E+03  0.67137352344E+03  0.10100000000E+03 0.  1.
<mgrwt>
<rscale>  0 0.15249377E+04</rscale>
<asrwt>0</asrwt>
<pdfrwt beam="1">  1        2 0.38754297E+00 0.15249377E+04</pdfrwt>
<pdfrwt beam="2">  1       -2 0.30614578E-01 0.15249377E+04</pdfrwt>
<totfact> 0.32441653E+01</totfact>
</mgrwt>
</event>
<event>
 8    2  0.7266322E-052  0.1996878E+04  0.7818608E-02  0.8608081E-01
         -2   -1    0    0    0  501 -0.00000000000E+00  0.00000000000E+00  0.19413099853E+04  0.19413099853E+04  0.25500000000E-02 0. -1.
          2   -1    0    0  501    0  0.00000000000E+00 -0.00000000000E+00 -0.51350937417E+03  0.51350937417E+03  0.25500000000E-02 0.  1.
    -200001    2    1    2    0    0 -0.50457545483E+03 -0.48443160188E+03  0.26261463699E+03  0.96394789591E+03  0.60906381599E+03 0.  0.
   -5000001    2    3    3    0    0 -0.69506206665E+02 -0.38204592486E+03  0.48742495074E+02  0.45826976642E+03  0.23842220223E+03 0.  0.
     200001    1    1    2    0    0  0.50457545483E+03  0.48443160188E+03  0.11651859741E+04  0.14908714635E+04  0.61300000000E+03 0. -1.
         11    1    4    4    0    0  0.77216975871E+02 -0.55051493646E+02  0.23661673156E+02  0.97739465377E+02  0.51100000000E-03 0.  1.
    -200002    1    4    4    0    0 -0.14672318254E+03 -0.32699443122E+03  0.25080821918E+02  0.36053030104E+03  0.30000000000E+02 0.  1.
    -200000    1    3    3    0    0 -0.43506924817E+03 -0.10238567702E+03  0.21387214192E+03  0.50567812949E+03  0.10100000000E+03 0. -1.
<mgrwt>
<rscale>  0 0.19968784E+04</rscale>
<asrwt>0</asrwt>
<pdfrwt beam="1">  1        2 0.73358483E-01 0.19968784E+04</pdfrwt>
<pdfrwt beam="2">  1       -2 0.27732999E+00 0.19968784E+04</pdfrwt>
<totfact> 0.26554592E+00</totfact>
</mgrwt>
</event>
<event>
 8    2  0.7266322E-052  0.1492275E+04  0.7818608E-02  0.8889606E-01
         -2   -1    0    0    0  501 -0.00000000000E+00  0.00000000000E+00  0.20578152784E+03  0.20578152786E+03  0.25500000000E-02 0. -1.
          2   -1    0    0  501    0  0.00000000000E+00 -0.00000000000E+00 -0.27053979679E+04  0.27053979679E+04  0.25500000000E-02 0.  1.
    -200001    2    1    2    0    0  0.19311272118E+03  0.25610578704E+03 -0.17951979218E+04  0.19238309524E+04  0.61278646989E+03 0.  0.
   -5000001    2    3    3    0    0  0.82710954570E+02  0.43870882166E+03 -0.11682417794E+04  0.12539000434E+04  0.90387673347E+02 0.  0.
     200001    1    1    2    0    0 -0.19311272118E+03 -0.25610578704E+03 -0.70441851822E+03  0.98734854335E+03  0.61300000000E+03 0. -1.
         11    1    4    4    0    0  0.74093246982E+02  0.39021023183E+03 -0.99676319932E+03  0.10729821573E+04  0.51100000000E-03 0.  1.
    -200002    1    4    4    0    0  0.86177075881E+01  0.48498589823E+02 -0.17147858011E+03  0.18091788616E+03  0.30000000000E+02 0. -1.
    -200000    1    3    3    0    0  0.11040176661E+03 -0.18260303462E+03 -0.62695614241E+03  0.66993090899E+03  0.10100000000E+03 0. -1.
<mgrwt>
<rscale>  0 0.14922747E+04</rscale>
<asrwt>0</asrwt>
<pdfrwt beam="1">  1        2 0.38648540E+00 0.14922747E+04</pdfrwt>
<pdfrwt beam="2">  1       -2 0.29397363E-01 0.14922747E+04</pdfrwt>
<totfact> 0.35409721E+01</totfact>
</mgrwt>
</event>
<event>
 8    2  0.7266322E-052  0.1259876E+04  0.7818608E-02  0.9062004E-01
          2   -1    0    0  501    0  0.00000000000E+00  0.00000000000E+00  0.24004530182E+04  0.24004530182E+04  0.25500000000E-02 0.  1.
         -2   -1    0    0    0  501 -0.00000000000E+00 -0.00000000000E+00 -0.16531113821E+03  0.16531113823E+03  0.25500000000E-02 0. -1.
    -200001    2    1    2    0    0  0.75927631546E+02  0.47315829756E+02  0.13428767908E+04  0.14795276341E+04  0.61455687446E+03 0.  0.
   -5000001    2    3    3    0    0 -0.19504649741E+03 -0.15965590424E+03  0.52841857775E+03  0.59081651233E+03  0.79402858979E+02 0.  0.
     200001    1    1    2    0    0 -0.75927631546E+02 -0.47315829756E+02  0.89226508924E+03  0.10862365223E+04  0.61300000000E+03 0. -1.
         11    1    4    4    0    0 -0.78925659361E+02 -0.10739218870E+03  0.25615964910E+03  0.28875613885E+03  0.51100000000E-03 0.  1.
    -200002    1    4    4    0    0 -0.11612083805E+03 -0.52263715544E+02  0.27225892866E+03  0.30206037348E+03  0.30000000000E+02 0.  1.
    -200000    1    3    3    0    0  0.27097412895E+03  0.20697173400E+03  0.81445821300E+03  0.88871112177E+03  0.10100000000E+03 0.  1.
<mgrwt>
<rscale>  0 0.12598756E+04</rscale>
<asrwt>0</asrwt>
<pdfrwt beam="1">  1        2 0.34292185E+00 0.12598756E+04</pdfrwt>
<pdfrwt beam="2">  1       -2 0.23615878E-01 0.12598756E+04</pdfrwt>
<totfact> 0.77973588E+01</totfact>
</mgrwt>
</event>
<event>
 8    2  0.7266322E-052  0.1390763E+04  0.7818608E-02  0.8960532E-01
         -2   -1    0    0    0  501 -0.00000000000E+00  0.00000000000E+00  0.36168504612E+03  0.36168504613E+03  0.25500000000E-02 0. -1.
          2   -1    0    0  501    0  0.00000000000E+00 -0.00000000000E+00 -0.13369513520E+04  0.13369513520E+04  0.25500000000E-02 0.  1.
    -200001    2    1    2    0    0  0.14184724082E+03 -0.71653079782E+01 -0.12344814504E+03  0.63961082691E+03  0.61130236710E+03 0.  0.
   -5000001    2    3    3    0    0 -0.59817983993E+02  0.31864385692E+02 -0.31784059862E+03  0.33930830295E+03  0.97539469123E+02 0.  0.
     200001    1    1    2    0    0 -0.14184724082E+03  0.71653079782E+01 -0.85181816087E+03  0.10590255712E+04  0.61300000000E+03 0.  1.
         11    1    4    4    0    0 -0.17771066646E+02  0.44104650743E+02 -0.62629232157E+02  0.78634927022E+02  0.51100000000E-03 0.  1.
    -200002    1    4    4    0    0 -0.42046917347E+02 -0.12240265051E+02 -0.25521136647E+03  0.26067337593E+03  0.30000000000E+02 0.  1.
    -200000    1    3    3    0    0  0.20166522481E+03 -0.39029693671E+02  0.19439245359E+03  0.30030252396E+03  0.10100000000E+03 0. -1.
<mgrwt>
<rscale>  0 0.13907628E+04</rscale>
<asrwt>0</asrwt>
<pdfrwt beam="1">  1        2 0.19099305E+00 0.13907628E+04</pdfrwt>
<pdfrwt beam="2">  1       -2 0.51669293E-01 0.13907628E+04</pdfrwt>
<totfact> 0.61767627E+01</totfact>
</mgrwt>
</event>
<event>
 8    2  0.7266322E-052  0.1242162E+04  0.7818608E-02  0.9076732E-01
         -2   -1    0    0    0  501 -0.00000000000E+00  0.00000000000E+00  0.66081536051E+03  0.66081536051E+03  0.25500000000E-02 0. -1.
          2   -1    0    0  501    0  0.00000000000E+00 -0.00000000000E+00 -0.58373618412E+03  0.58373618412E+03  0.25500000000E-02 0.  1.
    -200001    2    1    2    0    0  0.35057682263E+02  0.81569616749E+02  0.84317660000E+02  0.62511305769E+03  0.61300426071E+03 0.  0.
   -5000001    2    3    3    0    0  0.12871366759E+03  0.30966231439E+03  0.60417437122E+02  0.35758746460E+03  0.10844616615E+03 0.  0.
     200001    1    1    2    0    0 -0.35057682263E+02 -0.81569616749E+02 -0.72384836125E+01  0.61943848694E+03  0.61300000000E+03 0.  1.
         11    1    4    4    0    0  0.37947361191E+02  0.20792170808E+02 -0.11815022684E+02  0.44854334791E+02  0.51100000000E-03 0.  1.
    -200002    1    4    4    0    0  0.90766306403E+02  0.28887014358E+03  0.72232459806E+02  0.31273312981E+03  0.30000000000E+02 0.  1.
    -200000    1    3    3    0    0 -0.93655985331E+02 -0.22809269764E+03  0.23900222878E+02  0.26752559309E+03  0.10100000000E+03 0. -1.
<mgrwt>
<rscale>  0 0.12421624E+04</rscale>
<asrwt>0</asrwt>
<pdfrwt beam="1">  1        2 0.83390884E-01 0.12421624E+04</pdfrwt>
<pdfrwt beam="2">  1       -2 0.94402194E-01 0.12421624E+04</pdfrwt>
<totfact> 0.52252158E+01</totfact>
</mgrwt>
</event>
<event>
 8    2  0.7266322E-052  0.1370960E+04  0.7818608E-02  0.8975112E-01
         -2   -1    0    0    0  501 -0.00000000000E+00  0.00000000000E+00  0.30537268999E+03  0.30537269000E+03  0.25500000000E-02 0. -1.
          2   -1    0    0  501    0  0.00000000000E+00 -0.00000000000E+00 -0.15387188890E+04  0.15387188890E+04  0.25500000000E-02 0.  1.
    -200001    2    1    2    0    0 -0.31718694771E+02  0.29632103075E+03 -0.52370247917E+03  0.86013251584E+03  0.61380080585E+03 0.  0.
   -5000001    2    3    3    0    0  0.22947954884E+03 -0.24397375138E+02 -0.11787538231E+03  0.27193063648E+03  0.82435247649E+02 0.  0.
     200001    1    1    2    0    0  0.31718694771E+02 -0.29632103075E+03 -0.70964371985E+03  0.98395906317E+03  0.61300000000E+03 0. -1.
         11    1    4    4    0    0  0.48510978131E+02  0.19252008017E+02 -0.56390940851E+01  0.52495277828E+02  0.51100000000E-03 0.  1.
    -200002    1    4    4    0    0  0.18096857071E+03 -0.43649383155E+02 -0.11223628822E+03  0.21943535865E+03  0.30000000000E+02 0.  1.
    -200000    1    3    3    0    0 -0.26119824361E+03  0.32071840589E+03 -0.40582709686E+03  0.58820187936E+03  0.10100000000E+03 0.  1.
<mgrwt>
<rscale>  0 0.13709598E+04</rscale>
<asrwt>0</asrwt>
<pdfrwt beam="1">  1        2 0.21981698E+00 0.13709598E+04</pdfrwt>
<pdfrwt beam="2">  1       -2 0.43624671E-01 0.13709598E+04</pdfrwt>
<totfact> 0.67782568E+01</totfact>
</mgrwt>
</event>
<event>
 8    2  0.7266322E-052  0.1444655E+04  0.7818608E-02  0.8922114E-01
         -2   -1    0    0    0  501 -0.00000000000E+00  0.00000000000E+00  0.19421273770E+03  0.19421273772E+03  0.25500000000E-02 0. -1.
          2   -1    0    0  501    0  0.00000000000E+00 -0.00000000000E+00 -0.26865233629E+04  0.26865233629E+04  0.25500000000E-02 0.  1.
    -200001    2    1    2    0    0  0.20733829448E+03  0.12159435154E+03 -0.65078659681E+03  0.92503824516E+03  0.61188087545E+03 0.  0.
   -5000001    2    3    3    0    0 -0.63842676230E+02  0.24569274960E+03 -0.50661102311E+03  0.57873328227E+03  0.11762937026E+03 0.  0.
     200001    1    1    2    0    0 -0.20733829448E+03 -0.12159435154E+03 -0.18415240284E+04  0.19556978555E+04  0.61300000000E+03 0.  1.
         11    1    4    4    0    0 -0.60125107777E+02  0.24180782544E+03 -0.45675997214E+03  0.52030349333E+03  0.51100000000E-03 0.  1.
    -200002    1    4    4    0    0 -0.37175684539E+01  0.38849241578E+01 -0.49851050978E+02  0.58429788931E+02  0.30000000000E+02 0. -1.
    -200000    1    3    3    0    0  0.27118097071E+03 -0.12409839806E+03 -0.14417557369E+03  0.34630496290E+03  0.10100000000E+03 0. -1.
<mgrwt>
<rscale>  0 0.14446551E+04</rscale>
<asrwt>0</asrwt>
<pdfrwt beam="1">  1        2 0.38378903E+00 0.14446551E+04</pdfrwt>
<pdfrwt beam="2">  1       -2 0.27744678E-01 0.14446551E+04</pdfrwt>
<totfact> 0.40500236E+01</totfact>
</mgrwt>
</event>
<event>
 8    2  0.7266322E-052  0.1568667E+04  0.7818608E-02  0.8840032E-01
          2   -1    0    0  501    0  0.00000000000E+00  0.00000000000E+00  0.14081656644E+04  0.14081656644E+04  0.25500000000E-02 0.  1.
         -2   -1    0    0    0  501 -0.00000000000E+00 -0.00000000000E+00 -0.43686551216E+03  0.43686551217E+03  0.25500000000E-02 0. -1.
    -200001    2    1    2    0    0 -0.27411389847E+03  0.39508007541E+03  0.37830934447E+03  0.86593271706E+03  0.61277631730E+03 0.  0.
   -5000001    2    3    3    0    0 -0.17063902575E+03  0.16563910755E+03  0.45801326427E+03  0.58325989939E+03  0.27177558561E+03 0.  0.
     200001    1    1    2    0    0  0.27411389847E+03 -0.39508007541E+03  0.59299080777E+03  0.97909845951E+03  0.61300000000E+03 0. -1.
         11    1    4    4    0    0 -0.16199015535E+03  0.21087279041E+03  0.23925455689E+03  0.35770223254E+03  0.51100000000E-03 0.  1.
    -200002    1    4    4    0    0 -0.86488703955E+01 -0.45233682861E+02  0.21875870738E+03  0.22555766686E+03  0.30000000000E+02 0.  1.
    -200000    1    3    3    0    0 -0.10347487272E+03  0.22944096786E+03 -0.79703919797E+02  0.28267281766E+03  0.10100000000E+03 0. -1.
<mgrwt>
<rscale>  0 0.15686670E+04</rscale>
<asrwt>0</asrwt>
<pdfrwt beam="1">  1        2 0.20116653E+00 0.15686670E+04</pdfrwt>
<pdfrwt beam="2">  1       -2 0.62409358E-01 0.15686670E+04</pdfrwt>
<totfact> 0.37569112E+01</totfact>
</mgrwt>
</event>
<event>
 8    2  0.7266322E-052  0.1705608E+04  0.7818608E-02  0.8758172E-01
         -2   -1    0    0    0  501 -0.00000000000E+00  0.00000000000E+00  0.73069405366E+03  0.73069405367E+03  0.25500000000E-02 0. -1.
          2   -1    0    0  501    0  0.00000000000E+00 -0.00000000000E+00 -0.99532012493E+03  0.99532012493E+03  0.25500000000E-02 0.  1.
    -200001    2    1    2    0    0  0.29181059405E+03 -0.11907288916E+03  0.37580549954E+03  0.78513513610E+03  0.61308696995E+03 0.  0.
   -5000001    2    3    3    0    0  0.40950982667E+03  0.32713861055E+02  0.93073365373E+02  0.42872135047E+03  0.79817605620E+02 0.  0.
     200001    1    1    2    0    0 -0.29181059405E+03  0.11907288916E+03 -0.64043157080E+03  0.94087904250E+03  0.61300000000E+03 0.  1.
         11    1    4    4    0    0  0.31521866304E+03  0.38192679303E+02  0.87993720238E+02  0.32949109408E+03  0.51100000000E-03 0.  1.
    -200002    1    4    4    0    0  0.94291163630E+02 -0.54788182487E+01  0.50796451345E+01  0.99230256388E+02  0.30000000000E+02 0.  1.
    -200000    1    3    3    0    0 -0.11769923261E+03 -0.15178675022E+03  0.28273213416E+03  0.35641378563E+03  0.10100000000E+03 0. -1.
<mgrwt>
<rscale>  0 0.17056078E+04</rscale>
<asrwt>0</asrwt>
<pdfrwt beam="1">  1        2 0.14218859E+00 0.17056078E+04</pdfrwt>
<pdfrwt beam="2">  1       -2 0.10438487E+00 0.17056078E+04</pdfrwt>
<totfact> 0.20107127E+01</totfact>
</mgrwt>
</event>
<event>
 8    2  0.7266322E-052  0.1324924E+04  0.7818608E-02  0.9010030E-01
          2   -1    0    0  501    0  0.00000000000E+00  0.00000000000E+00  0.16591388169E+04  0.16591388169E+04  0.25500000000E-02 0.  1.
         -2   -1    0    0    0  501 -0.00000000000E+00 -0.00000000000E+00 -0.26450834104E+03  0.26450834105E+03  0.25500000000E-02 0. -1.
    -200001    2    1    2    0    0  0.22446961090E+03 -0.11637666888E+02  0.87325361331E+03  0.10881084848E+04  0.60900423650E+03 0.  0.
   -5000001    2    3    3    0    0  0.36172510467E+03  0.15757501620E+03  0.61803307322E+03  0.73766515591E+03  0.80684977380E+02 0.  0.
     200001    1    1    2    0    0 -0.22446961090E+03  0.11637666888E+02  0.52137686255E+03  0.83553867314E+03  0.61300000000E+03 0. -1.
         11    1    4    4    0    0  0.15004609971E+03  0.10289636847E+03  0.27079284298E+03  0.32623650698E+03  0.51100000000E-03 0.  1.
    -200002    1    4    4    0    0  0.21167900497E+03  0.54678647734E+02  0.34724023024E+03  0.41142864893E+03  0.30000000000E+02 0.  1.
    -200000    1    3    3    0    0 -0.13725549377E+03 -0.16921268309E+03  0.25522054010E+03  0.35044332891E+03  0.10100000000E+03 0. -1.
<mgrwt>
<rscale>  0 0.13249242E+04</rscale>
<asrwt>0</asrwt>
<pdfrwt beam="1">  1        2 0.23701982E+00 0.13249242E+04</pdfrwt>
<pdfrwt beam="2">  1       -2 0.37786907E-01 0.13249242E+04</pdfrwt>
<totfact> 0.77917385E+01</totfact>
</mgrwt>
</event>
<event>
 8    2  0.7266322E-052  0.1295319E+04  0.7818608E-02  0.9033286E-01
          2   -1    0    0  501    0  0.00000000000E+00  0.00000000000E+00  0.24859842773E+04  0.24859842773E+04  0.25500000000E-02 0. -1.
         -2   -1    0    0    0  501 -0.00000000000E+00 -0.00000000000E+00 -0.16873101970E+03  0.16873101972E+03  0.25500000000E-02 0.  1.
    -200001    2    1    2    0    0 -0.32412246303E+02  0.54680553599E+02  0.15662197072E+04  0.16831902533E+04  0.61322486996E+03 0.  0.
   -5000001    2    3    3    0    0  0.58622131050E+02  0.30798733972E+03  0.88384731105E+03  0.94272778113E+03  0.96212495964E+02 0.  0.
     200001    1    1    2    0    0  0.32412246303E+02 -0.54680553599E+02  0.75103355042E+03  0.97152504369E+03  0.61300000000E+03 0.  1.
         11    1    4    4    0    0  0.38916668683E+02  0.19827195231E+03  0.66880238787E+03  0.69865793361E+03  0.51100000000E-03 0.  1.
    -200002    1    4    4    0    0  0.19705462367E+02  0.10971538741E+03  0.21504492318E+03  0.24406984752E+03  0.30000000000E+02 0.  1.
    -200000    1    3    3    0    0 -0.91034377353E+02 -0.25330678612E+03  0.68237239612E+03  0.74046247220E+03  0.10100000000E+03 0. -1.
<mgrwt>
<rscale>  0 0.12953187E+04</rscale>
<asrwt>0</asrwt>
<pdfrwt beam="1">  1        2 0.35514059E+00 0.12953187E+04</pdfrwt>
<pdfrwt beam="2">  1       -2 0.24104433E-01 0.12953187E+04</pdfrwt>
<totfact> 0.67624159E+01</totfact>
</mgrwt>
</event>
<event>
 8    2  0.7266322E-052  0.1242198E+04  0.7818608E-02  0.9076702E-01
          2   -1    0    0  501    0  0.00000000000E+00  0.00000000000E+00  0.95493347362E+03  0.95493347362E+03  0.25500000000E-02 0.  1.
         -2   -1    0    0    0  501 -0.00000000000E+00 -0.00000000000E+00 -0.40396919450E+03  0.40396919451E+03  0.25500000000E-02 0. -1.
    -200001    2    1    2    0    0 -0.61066697122E+02 -0.56496744722E+02  0.30086389890E+03  0.69163943383E+03  0.61719121600E+03 0.  0.
   -5000001    2    3    3    0    0 -0.23186525104E+03 -0.73312347870E+02  0.39541885531E+03  0.47119318116E+03  0.80813042544E+02 0.  0.
     200001    1    1    2    0    0  0.61066697122E+02  0.56496744722E+02  0.25010038022E+03  0.66726323430E+03  0.61300000000E+03 0. -1.
         11    1    4    4    0    0 -0.18283890164E+03 -0.64458451167E+02  0.33685887325E+03  0.38866290840E+03  0.51100000000E-03 0.  1.
    -200002    1    4    4    0    0 -0.49026349404E+02 -0.88538967030E+01  0.58559982060E+02  0.82530272758E+02  0.30000000000E+02 0. -1.
    -200000    1    3    3    0    0  0.17079855392E+03  0.16815603148E+02 -0.94554956415E+02  0.22044625266E+03  0.10100000000E+03 0. -1.
<mgrwt>
<rscale>  0 0.12421976E+04</rscale>
<asrwt>0</asrwt>
<pdfrwt beam="1">  1        2 0.13641907E+00 0.12421976E+04</pdfrwt>
<pdfrwt beam="2">  1       -2 0.57709884E-01 0.12421976E+04</pdfrwt>
<totfact> 0.82976264E+01</totfact>
</mgrwt>
</event>
<event>
 8    2  0.7266322E-052  0.1772431E+04  0.7818608E-02  0.8721099E-01
          2   -1    0    0  501    0  0.00000000000E+00  0.00000000000E+00  0.52558938404E+03  0.52558938405E+03  0.25500000000E-02 0.  1.
         -2   -1    0    0    0  501 -0.00000000000E+00 -0.00000000000E+00 -0.14942809384E+04  0.14942809384E+04  0.25500000000E-02 0. -1.
    -200001    2    1    2    0    0 -0.45313120668E+03  0.36569148704E+03 -0.79315697811E+03  0.11563661004E+04  0.60747544145E+03 0.  0.
   -5000001    2    3    3    0    0 -0.31796933104E+03 -0.36502723140E+02 -0.11307294314E+03  0.34844023126E+03  0.78664858835E+02 0.  0.
     200001    1    1    2    0    0  0.45313120668E+03 -0.36569148704E+03 -0.17553457627E+03  0.86350422212E+03  0.61300000000E+03 0.  1.
         11    1    4    4    0    0 -0.17955151548E+03 -0.14317440050E+02 -0.29561623074E+02  0.18253116271E+03  0.51100000000E-03 0.  1.
    -200002    1    4    4    0    0 -0.13841781556E+03 -0.22185283090E+02 -0.83511320068E+02  0.16590906856E+03  0.30000000000E+02 0. -1.
    -200000    1    3    3    0    0 -0.13516187565E+03  0.40219421018E+03 -0.68008403497E+03  0.80792586909E+03  0.10100000000E+03 0. -1.
<mgrwt>
<rscale>  0 0.17724313E+04</rscale>
<asrwt>0</asrwt>
<pdfrwt beam="1">  1        2 0.75084198E-01 0.17724313E+04</pdfrwt>
<pdfrwt beam="2">  1       -2 0.21346870E+00 0.17724313E+04</pdfrwt>
<totfact> 0.65367482E+00</totfact>
</mgrwt>
</event>
<event>
 8    2  0.7266322E-052  0.1558385E+04  0.7818608E-02  0.8846529E-01
          2   -1    0    0  501    0  0.00000000000E+00  0.00000000000E+00  0.14571075874E+04  0.14571075874E+04  0.25500000000E-02 0.  1.
         -2   -1    0    0    0  501 -0.00000000000E+00 -0.00000000000E+00 -0.41667570799E+03  0.41667570800E+03  0.25500000000E-02 0. -1.
    -200001    2    1    2    0    0  0.20838312735E+03 -0.27416735264E+03  0.92331003438E+03  0.11609875381E+04  0.61383986437E+03 0.  0.
   -5000001    2    3    3    0    0  0.10292575911E+03 -0.18454685592E+03  0.94355121855E+03  0.98846566855E+03  0.20524186207E+03 0.  0.
     200001    1    1    2    0    0 -0.20838312735E+03  0.27416735264E+03  0.11712184504E+03  0.71279575728E+03  0.61300000000E+03 0. -1.
         11    1    4    4    0    0 -0.22440777208E+02 -0.12741559824E+03  0.65071873062E+03  0.66345549175E+03  0.51100000000E-03 0.  1.
    -200002    1    4    4    0    0  0.12536653631E+03 -0.57131257679E+02  0.29283248794E+03  0.32501017680E+03  0.30000000000E+02 0.  1.
    -200000    1    3    3    0    0  0.10545736825E+03 -0.89620496717E+02 -0.20241184168E+02  0.17252186959E+03  0.10100000000E+03 0. -1.
<mgrwt>
<rscale>  0 0.15583855E+04</rscale>
<asrwt>0</asrwt>
<pdfrwt beam="1">  1        2 0.20815823E+00 0.15583855E+04</pdfrwt>
<pdfrwt beam="2">  1       -2 0.59525101E-01 0.15583855E+04</pdfrwt>
<totfact> 0.39117102E+01</totfact>
</mgrwt>
</event>
<event>
 8    2  0.7266322E-052  0.1438055E+04  0.7818608E-02  0.8926724E-01
          2   -1    0    0  501    0  0.00000000000E+00  0.00000000000E+00  0.40643590218E+04  0.40643590218E+04  0.25500000000E-02 0.  1.
         -2   -1    0    0    0  501 -0.00000000000E+00 -0.00000000000E+00 -0.12720346944E+03  0.12720346947E+03  0.25500000000E-02 0. -1.
    -200001    2    1    2    0    0 -0.83558598348E+02  0.20663616751E+02  0.90226456990E+03  0.10941859724E+04  0.61298659334E+03 0.  0.
   -5000001    2    3    3    0    0 -0.18537411717E+03 -0.22768910880E+03  0.29785210987E+03  0.42518604860E+03  0.76559800065E+02 0.  0.
     200001    1    1    2    0    0  0.83558598348E+02 -0.20663616751E+02  0.30348909824E+04  0.30973765189E+04  0.61300000000E+03 0.  1.
         11    1    4    4    0    0 -0.13421145478E+03 -0.17725990175E+03  0.19184667995E+03  0.29366466585E+03  0.51100000000E-03 0.  1.
    -200002    1    4    4    0    0 -0.51162662390E+02 -0.50429207047E+02  0.10600542992E+03  0.13152138274E+03  0.30000000000E+02 0.  1.
    -200000    1    3    3    0    0  0.10181551882E+03  0.24835272555E+03  0.60441246004E+03  0.66899992377E+03  0.10100000000E+03 0.  1.
<mgrwt>
<rscale>  0 0.14380550E+04</rscale>
<asrwt>0</asrwt>
<pdfrwt beam="1">  1        2 0.58062277E+00 0.14380550E+04</pdfrwt>
<pdfrwt beam="2">  1       -2 0.18171923E-01 0.14380550E+04</pdfrwt>
<totfact> 0.12897378E+01</totfact>
</mgrwt>
</event>
<event>
 8    2  0.7266322E-052  0.1299579E+04  0.7818608E-02  0.9029899E-01
         -2   -1    0    0    0  501 -0.00000000000E+00  0.00000000000E+00  0.15016755295E+03  0.15016755297E+03  0.25500000000E-02 0. -1.
          2   -1    0    0  501    0  0.00000000000E+00 -0.00000000000E+00 -0.28117017157E+04  0.28117017157E+04  0.25500000000E-02 0.  1.
    -200001    2    1    2    0    0  0.43409521640E+02 -0.16575416007E+03 -0.10704480541E+04  0.12481940272E+04  0.61868446306E+03 0.  0.
   -5000001    2    3    3    0    0 -0.21068936902E+03 -0.19021469092E+03 -0.83637087457E+03  0.88742028954E+03  0.86179415140E+02 0.  0.
     200001    1    1    2    0    0 -0.43409521640E+02  0.16575416007E+03 -0.15910861086E+04  0.17136752415E+04  0.61300000000E+03 0. -1.
         11    1    4    4    0    0 -0.58120263814E+02 -0.13712001662E+02 -0.13389078445E+03  0.14660397749E+03  0.51100000000E-03 0.  1.
    -200002    1    4    4    0    0 -0.15256910521E+03 -0.17650268926E+03 -0.70248009012E+03  0.74081631205E+03  0.30000000000E+02 0.  1.
    -200000    1    3    3    0    0  0.25409889066E+03  0.24460530858E+02 -0.23407717957E+03  0.36077373768E+03  0.10100000000E+03 0. -1.
<mgrwt>
<rscale>  0 0.12995790E+04</rscale>
<asrwt>0</asrwt>
<pdfrwt beam="1">  1        2 0.40167164E+00 0.12995790E+04</pdfrwt>
<pdfrwt beam="2">  1       -2 0.21452509E-01 0.12995790E+04</pdfrwt>
<totfact> 0.55884570E+01</totfact>
</mgrwt>
</event>
<event>
 8    2  0.7266322E-052  0.1898602E+04  0.7818608E-02  0.8655552E-01
          2   -1    0    0  501    0  0.00000000000E+00  0.00000000000E+00  0.11335243047E+04  0.11335243047E+04  0.25500000000E-02 0.  1.
         -2   -1    0    0    0  501 -0.00000000000E+00 -0.00000000000E+00 -0.79501842670E+03  0.79501842670E+03  0.25500000000E-02 0. -1.
    -200001    2    1    2    0    0  0.46290341928E+03  0.19305183622E+03  0.70145048127E+03  0.10573100575E+04  0.61181957547E+03 0.  0.
   -5000001    2    3    3    0    0  0.39473862114E+03 -0.74390085504E+02  0.15433076291E+03  0.43625240523E+03  0.71733624278E+02 0.  0.
     200001    1    1    2    0    0 -0.46290341928E+03 -0.19305183622E+03 -0.36294460327E+03  0.87123267391E+03  0.61300000000E+03 0. -1.
         11    1    4    4    0    0  0.21346643213E+02  0.10016363026E+02  0.14021556886E+02  0.27433752249E+02  0.51100000000E-03 0.  1.
    -200002    1    4    4    0    0  0.37339197792E+03 -0.84406448530E+02  0.14030920603E+03  0.40881865298E+03  0.30000000000E+02 0.  1.
    -200000    1    3    3    0    0  0.68164798145E+02  0.26744192172E+03  0.54711971836E+03  0.62105765225E+03  0.10100000000E+03 0. -1.
<mgrwt>
<rscale>  0 0.18986023E+04</rscale>
<asrwt>0</asrwt>
<pdfrwt beam="1">  1        2 0.16193204E+00 0.18986023E+04</pdfrwt>
<pdfrwt beam="2">  1       -2 0.11357406E+00 0.18986023E+04</pdfrwt>
<totfact> 0.13342762E+01</totfact>
</mgrwt>
</event>
<event>
 8    2  0.7266322E-052  0.1873518E+04  0.7818608E-02  0.8668152E-01
         -2   -1    0    0    0  501 -0.00000000000E+00  0.00000000000E+00  0.35414099218E+03  0.35414099219E+03  0.25500000000E-02 0. -1.
          2   -1    0    0  501    0  0.00000000000E+00 -0.00000000000E+00 -0.24778760643E+04  0.24778760643E+04  0.25500000000E-02 0.  1.
    -200001    2    1    2    0    0  0.57930194082E+03 -0.33477075902E+03 -0.70801856025E+03  0.11504450415E+04  0.61202231333E+03 0.  0.
   -5000001    2    3    3    0    0  0.91793689279E+02 -0.38769573348E+03 -0.31529399964E+03  0.51412835241E+03  0.78635827706E+02 0.  0.
     200001    1    1    2    0    0 -0.57930194082E+03  0.33477075902E+03 -0.14157165119E+04  0.16815720150E+04  0.61300000000E+03 0. -1.
         11    1    4    4    0    0 -0.97888558484E+01 -0.71644793643E+02 -0.47038873978E+02  0.86263861613E+02  0.51100000000E-03 0.  1.
    -200002    1    4    4    0    0  0.10158254513E+03 -0.31605093983E+03 -0.26825512566E+03  0.42786449080E+03  0.30000000000E+02 0.  1.
    -200000    1    3    3    0    0  0.48750825154E+03  0.52924974460E+02 -0.39272456061E+03  0.63631668904E+03  0.10100000000E+03 0.  1.
<mgrwt>
<rscale>  0 0.18735181E+04</rscale>
<asrwt>0</asrwt>
<pdfrwt beam="1">  1        2 0.35398228E+00 0.18735181E+04</pdfrwt>
<pdfrwt beam="2">  1       -2 0.50591572E-01 0.18735181E+04</pdfrwt>
<totfact> 0.15753342E+01</totfact>
</mgrwt>
</event>
<event>
 8    2  0.7266322E-052  0.1348476E+04  0.7818608E-02  0.8991983E-01
          2   -1    0    0  501    0  0.00000000000E+00  0.00000000000E+00  0.14247613331E+04  0.14247613331E+04  0.25500000000E-02 0.  1.
         -2   -1    0    0    0  501 -0.00000000000E+00 -0.00000000000E+00 -0.31906862531E+03  0.31906862532E+03  0.25500000000E-02 0. -1.
    -200001    2    1    2    0    0  0.31892075919E+02 -0.24272445887E+03  0.73879772372E+03  0.98863912375E+03  0.60963347431E+03 0.  0.
   -5000001    2    3    3    0    0 -0.26419779854E+03 -0.10695807038E+03  0.23803526379E+03  0.38277959608E+03  0.92838175276E+02 0.  0.
     200001    1    1    2    0    0 -0.31892075919E+02  0.24272445887E+03  0.36689498406E+03  0.75519083467E+03  0.61300000000E+03 0. -1.
         11    1    4    4    0    0 -0.22609406441E+03 -0.81697577092E+02  0.21805496793E+03  0.32456276604E+03  0.51100000000E-03 0.  1.
    -200002    1    4    4    0    0 -0.38103734133E+02 -0.25260493288E+02  0.19980295865E+02  0.58216830031E+02  0.30000000000E+02 0.  1.
    -200000    1    3    3    0    0  0.29608987446E+03 -0.13576638850E+03  0.50076245993E+03  0.60585952767E+03  0.10100000000E+03 0.  1.
<mgrwt>
<rscale>  0 0.13484756E+04</rscale>
<asrwt>0</asrwt>
<pdfrwt beam="1">  1        2 0.20353733E+00 0.13484756E+04</pdfrwt>
<pdfrwt beam="2">  1       -2 0.45581232E-01 0.13484756E+04</pdfrwt>
<totfact> 0.71554627E+01</totfact>
</mgrwt>
</event>
<event>
 8    2  0.7266322E-052  0.1666364E+04  0.7818608E-02  0.8780784E-01
         -2   -1    0    0    0  501 -0.00000000000E+00  0.00000000000E+00  0.54985763659E+03  0.54985763660E+03  0.25500000000E-02 0. -1.
          2   -1    0    0  501    0  0.00000000000E+00 -0.00000000000E+00 -0.12624947528E+04  0.12624947528E+04  0.25500000000E-02 0.  1.
    -200001    2    1    2    0    0 -0.64664684957E+02  0.28804749948E+03 -0.87953074589E+03  0.11117987747E+04  0.61267389288E+03 0.  0.
   -5000001    2    3    3    0    0 -0.15692035377E+03  0.43895082518E+03 -0.58236484093E+03  0.75153290453E+03  0.91384212459E+02 0.  0.
     200001    1    1    2    0    0  0.64664684957E+02 -0.28804749948E+03  0.16689362968E+03  0.70055361470E+03  0.61300000000E+03 0. -1.
         11    1    4    4    0    0 -0.35271658282E+02  0.38018494887E+02 -0.94114950919E+02  0.10745752565E+03  0.51100000000E-03 0.  1.
    -200002    1    4    4    0    0 -0.12164869549E+03  0.40093233029E+03 -0.48824989001E+03  0.64407537889E+03  0.30000000000E+02 0.  1.
    -200000    1    3    3    0    0  0.92255668817E+02 -0.15090332570E+03 -0.29716590496E+03  0.36026587016E+03  0.10100000000E+03 0. -1.
<mgrwt>
<rscale>  0 0.16663642E+04</rscale>
<asrwt>0</asrwt>
<pdfrwt beam="1">  1        2 0.18035639E+00 0.16663642E+04</pdfrwt>
<pdfrwt beam="2">  1       -2 0.78551091E-01 0.16663642E+04</pdfrwt>
<totfact> 0.27139153E+01</totfact>
</mgrwt>
</event>
<event>
 8    2  0.7266322E-052  0.1905507E+04  0.7818608E-02  0.8652120E-01
          2   -1    0    0  501    0  0.00000000000E+00  0.00000000000E+00  0.55620439418E+03  0.55620439418E+03  0.25500000000E-02 0.  1.
         -2   -1    0    0    0  501 -0.00000000000E+00 -0.00000000000E+00 -0.16320237894E+04  0.16320237894E+04  0.25500000000E-02 0. -1.
    -200001    2    1    2    0    0 -0.33463285548E+03  0.49663602364E+03 -0.60474848880E+02  0.85957471645E+03  0.61366521644E+03 0.  0.
   -5000001    2    3    3    0    0  0.15319840913E+03  0.12805957100E+03  0.67615197451E+02  0.22677458676E+03  0.83581648633E+02 0.  0.
     200001    1    1    2    0    0  0.33463285548E+03 -0.49663602364E+03 -0.10153445464E+04  0.13286534671E+04  0.61300000000E+03 0. -1.
         11    1    4    4    0    0  0.39284170369E+01  0.18784554193E+02  0.30021291231E+02  0.35631023899E+02  0.51100000000E-03 0.  1.
    -200002    1    4    4    0    0  0.14926999209E+03  0.10927501681E+03  0.37593906220E+02  0.19114356286E+03  0.30000000000E+02 0.  1.
    -200000    1    3    3    0    0 -0.48783126461E+03  0.36857645264E+03 -0.12809004633E+03  0.63280012969E+03  0.10100000000E+03 0. -1.
<mgrwt>
<rscale>  0 0.19055066E+04</rscale>
<asrwt>0</asrwt>
<pdfrwt beam="1">  1        2 0.79457771E-01 0.19055066E+04</pdfrwt>
<pdfrwt beam="2">  1       -2 0.23314625E+00 0.19055066E+04</pdfrwt>
<totfact> 0.45514438E+00</totfact>
</mgrwt>
</event>
<event>
 8    2  0.7266322E-052  0.1473192E+04  0.7818608E-02  0.8902478E-01
         -2   -1    0    0    0  501 -0.00000000000E+00  0.00000000000E+00  0.43514200410E+03  0.43514200411E+03  0.25500000000E-02 0. -1.
          2   -1    0    0  501    0  0.00000000000E+00 -0.00000000000E+00 -0.12468895815E+04  0.12468895815E+04  0.25500000000E-02 0.  1.
    -200001    2    1    2    0    0  0.31761974957E+03 -0.17851097372E+03 -0.19426347517E+03  0.73873731044E+03  0.61257329601E+03 0.  0.
   -5000001    2    3    3    0    0  0.22969383851E+03 -0.35701649016E+03 -0.42207428812E+01  0.44562909607E+03  0.13545273306E+03 0.  0.
     200001    1    1    2    0    0 -0.31761974957E+03  0.17851097372E+03 -0.61748410219E+03  0.94329427514E+03  0.61300000000E+03 0. -1.
         11    1    4    4    0    0  0.10367721481E+03 -0.13165077817E+03 -0.63173234610E+02  0.17908587280E+03  0.51100000000E-03 0.  1.
    -200002    1    4    4    0    0  0.12601662370E+03 -0.22536571199E+03  0.58952491729E+02  0.26654322327E+03  0.30000000000E+02 0.  1.
    -200000    1    3    3    0    0  0.87925911060E+02  0.17850551644E+03 -0.19004273229E+03  0.29310821437E+03  0.10100000000E+03 0. -1.
<mgrwt>
<rscale>  0 0.14731925E+04</rscale>
<asrwt>0</asrwt>
<pdfrwt beam="1">  1        2 0.17812708E+00 0.14731925E+04</pdfrwt>
<pdfrwt beam="2">  1       -2 0.62163144E-01 0.14731925E+04</pdfrwt>
<totfact> 0.46820226E+01</totfact>
</mgrwt>
</event>
<event>
 8    2  0.7266322E-052  0.1298128E+04  0.7818608E-02  0.9031051E-01
          2   -1    0    0  501    0  0.00000000000E+00  0.00000000000E+00  0.17976572559E+04  0.17976572559E+04  0.25500000000E-02 0.  1.
         -2   -1    0    0    0  501 -0.00000000000E+00 -0.00000000000E+00 -0.23435183962E+03  0.23435183963E+03  0.25500000000E-02 0. -1.
    -200001    2    1    2    0    0  0.95272444308E+02  0.47996147970E+02  0.49308880092E+03  0.79406197523E+03  0.61320256527E+03 0.  0.
   -5000001    2    3    3    0    0  0.11062433788E+03  0.27423623748E+03  0.32869035881E+03  0.49632365639E+03  0.22551399478E+03 0.  0.
     200001    1    1    2    0    0 -0.95272444308E+02 -0.47996147970E+02  0.10702166154E+04  0.12379471203E+04  0.61300000000E+03 0. -1.
         11    1    4    4    0    0  0.14740674262E+03  0.16401444166E+03  0.30104637642E+03  0.37317342564E+03  0.51100000000E-03 0.  1.
    -200002    1    4    4    0    0 -0.36782404747E+02  0.11022179582E+03  0.27643982385E+02  0.12315023075E+03  0.30000000000E+02 0.  1.
    -200000    1    3    3    0    0 -0.15351893569E+02 -0.22624008951E+03  0.16439844211E+03  0.29773831884E+03  0.10100000000E+03 0. -1.
<mgrwt>
<rscale>  0 0.12981283E+04</rscale>
<asrwt>0</asrwt>
<pdfrwt beam="1">  1        2 0.25680818E+00 0.12981283E+04</pdfrwt>
<pdfrwt beam="2">  1       -2 0.33478835E-01 0.12981283E+04</pdfrwt>
<totfact> 0.83435168E+01</totfact>
</mgrwt>
</event>
<event>
 8    2  0.7266322E-052  0.1597909E+04  0.7818608E-02  0.8821834E-01
          2   -1    0    0  501    0  0.00000000000E+00  0.00000000000E+00  0.31824126331E+04  0.31824126331E+04  0.25500000000E-02 0.  1.
         -2   -1    0    0    0  501 -0.00000000000E+00 -0.00000000000E+00 -0.20057996462E+03  0.20057996463E+03  0.25500000000E-02 0. -1.
    -200001    2    1    2    0    0 -0.21712804493E+03  0.42673481030E+03  0.11031012333E+04  0.13496092124E+04  0.61267079991E+03 0.  0.
   -5000001    2    3    3    0    0 -0.63288597660E+02 -0.11861864790E+03  0.24733008044E+03  0.31828858525E+03  0.14852482819E+03 0.  0.
     200001    1    1    2    0    0  0.21712804493E+03 -0.42673481030E+03  0.18787314352E+04  0.20333833854E+04  0.61300000000E+03 0. -1.
         11    1    4    4    0    0  0.24619925346E+02 -0.24113087313E+02  0.14991029298E+03  0.15382027710E+03  0.51100000000E-03 0.  1.
    -200002    1    4    4    0    0 -0.87908523005E+02 -0.94505560590E+02  0.97419787457E+02  0.16446830816E+03  0.30000000000E+02 0.  1.
    -200000    1    3    3    0    0 -0.15383944727E+03  0.54535345820E+03  0.85577115283E+03  0.10313206271E+04  0.10100000000E+03 0. -1.
<mgrwt>
<rscale>  0 0.15979089E+04</rscale>
<asrwt>0</asrwt>
<pdfrwt beam="1">  1        2 0.45463039E+00 0.15979089E+04</pdfrwt>
<pdfrwt beam="2">  1       -2 0.28654280E-01 0.15979089E+04</pdfrwt>
<totfact> 0.20036043E+01</totfact>
</mgrwt>
</event>
<event>
 8    2  0.7266322E-052  0.1287204E+04  0.7818608E-02  0.9039774E-01
          2   -1    0    0  501    0  0.00000000000E+00  0.00000000000E+00  0.32704812148E+04  0.32704812148E+04  0.25500000000E-02 0.  1.
         -2   -1    0    0    0  501 -0.00000000000E+00 -0.00000000000E+00 -0.12665524649E+03  0.12665524652E+03  0.25500000000E-02 0. -1.
    -200001    2    1    2    0    0  0.14612072214E+03  0.90761674132E+02  0.18256707766E+04  0.19332747683E+04  0.61228146973E+03 0.  0.
   -5000001    2    3    3    0    0  0.25451508861E+03 -0.35897749030E+02  0.16478498891E+04  0.16694316024E+04  0.74337334423E+02 0.  0.
     200001    1    1    2    0    0 -0.14612072214E+03 -0.90761674132E+02  0.13181551916E+04  0.14638616930E+04  0.61300000000E+03 0. -1.
         11    1    4    4    0    0  0.21299613546E+03 -0.25834246365E+02  0.12708190514E+04  0.12888040283E+04  0.51100000000E-03 0.  1.
    -200002    1    4    4    0    0  0.41518953149E+02 -0.10063502665E+02  0.37703083779E+03  0.38062757414E+03  0.30000000000E+02 0. -1.
    -200000    1    3    3    0    0 -0.10839436647E+03  0.12665942316E+03  0.17782088750E+03  0.26384316590E+03  0.10100000000E+03 0. -1.
<mgrwt>
<rscale>  0 0.12872041E+04</rscale>
<asrwt>0</asrwt>
<pdfrwt beam="1">  1        2 0.46721152E+00 0.12872041E+04</pdfrwt>
<pdfrwt beam="2">  1       -2 0.18093610E-01 0.12872041E+04</pdfrwt>
<totfact> 0.41787976E+01</totfact>
</mgrwt>
</event>
<event>
 8    2  0.7266322E-052  0.2204455E+04  0.7818608E-02  0.8516576E-01
          2   -1    0    0  501    0  0.00000000000E+00  0.00000000000E+00  0.10781751974E+04  0.10781751974E+04  0.25500000000E-02 0.  1.
         -2   -1    0    0    0  501 -0.00000000000E+00 -0.00000000000E+00 -0.11268165477E+04  0.11268165477E+04  0.25500000000E-02 0. -1.
    -200001    2    1    2    0    0 -0.11628553533E+03  0.75218834393E+03  0.48527998951E+03  0.10913712409E+04  0.61342064418E+03 0.  0.
   -5000001    2    3    3    0    0  0.58142560905E+02 -0.68154112740E+02  0.15964713038E+02  0.12501481816E+03  0.85722180481E+02 0.  0.
     200001    1    1    2    0    0  0.11628553533E+03 -0.75218834393E+03 -0.53392133983E+03  0.11136205043E+04  0.61300000000E+03 0. -1.
         11    1    4    4    0    0  0.39190674204E+02  0.79652940502E+01  0.60647559155E+01  0.40449179454E+02  0.51100000000E-03 0.  1.
    -200002    1    4    4    0    0  0.18951886701E+02 -0.76119406790E+02  0.98999571228E+01  0.84565638711E+02  0.30000000000E+02 0.  1.
    -200000    1    3    3    0    0 -0.17442809624E+03  0.82034245667E+03  0.46931527647E+03  0.96635642270E+03  0.10100000000E+03 0.  1.
<mgrwt>
<rscale>  0 0.22044552E+04</rscale>
<asrwt>0</asrwt>
<pdfrwt beam="1">  1        2 0.15402503E+00 0.22044552E+04</pdfrwt>
<pdfrwt beam="2">  1       -2 0.16097379E+00 0.22044552E+04</pdfrwt>
<totfact> 0.57246440E+00</totfact>
</mgrwt>
</event>
<event>
 8    2  0.7266322E-052  0.1389485E+04  0.7818608E-02  0.8961465E-01
         -2   -1    0    0    0  501 -0.00000000000E+00  0.00000000000E+00  0.20676288620E+03  0.20676288622E+03  0.25500000000E-02 0. -1.
          2   -1    0    0  501    0  0.00000000000E+00 -0.00000000000E+00 -0.23343990041E+04  0.23343990041E+04  0.25500000000E-02 0.  1.
    -200001    2    1    2    0    0 -0.15312791432E+03 -0.10993279030E+03 -0.15500603153E+04  0.16780882062E+04  0.61462156655E+03 0.  0.
   -5000001    2    3    3    0    0 -0.28721606142E+03 -0.12033597475E+03 -0.14428930183E+04  0.14786547912E+04  0.86636693950E+02 0.  0.
     200001    1    1    2    0    0  0.15312791432E+03  0.10993279030E+03 -0.57757580257E+03  0.86307368413E+03  0.61300000000E+03 0. -1.
         11    1    4    4    0    0 -0.12431012688E+03 -0.63013786177E+02 -0.47523950666E+03  0.49525380724E+03  0.51100000000E-03 0.  1.
    -200002    1    4    4    0    0 -0.16290593454E+03 -0.57322188570E+02 -0.96765351162E+03  0.98340098401E+03  0.30000000000E+02 0.  1.
    -200000    1    3    3    0    0  0.13408814710E+03  0.10403184448E+02 -0.10716729707E+03  0.19943341495E+03  0.10100000000E+03 0. -1.
<mgrwt>
<rscale>  0 0.13894849E+04</rscale>
<asrwt>0</asrwt>
<pdfrwt beam="1">  1        2 0.33348556E+00 0.13894849E+04</pdfrwt>
<pdfrwt beam="2">  1       -2 0.29537557E-01 0.13894849E+04</pdfrwt>
<totfact> 0.55493497E+01</totfact>
</mgrwt>
</event>
<event>
 8    2  0.7266322E-052  0.1243381E+04  0.7818608E-02  0.9075710E-01
          2   -1    0    0  501    0  0.00000000000E+00  0.00000000000E+00  0.48874372351E+03  0.48874372351E+03  0.25500000000E-02 0.  1.
         -2   -1    0    0    0  501 -0.00000000000E+00 -0.00000000000E+00 -0.79080112055E+03  0.79080112055E+03  0.25500000000E-02 0. -1.
    -200001    2    1    2    0    0 -0.10371075824E+03 -0.13017254002E+02 -0.14586859486E+03  0.63838237464E+03  0.61264103601E+03 0.  0.
   -5000001    2    3    3    0    0  0.12495540239E+02 -0.25696553292E+03 -0.21229449453E+03  0.34236199233E+03  0.77170964434E+02 0.  0.
     200001    1    1    2    0    0  0.10371075824E+03  0.13017254002E+02 -0.15618880218E+03  0.64116246943E+03  0.61300000000E+03 0.  1.
         11    1    4    4    0    0 -0.55072636967E+00 -0.11075758731E+03 -0.13222676555E+03  0.17248612690E+03  0.51100000000E-03 0.  1.
    -200002    1    4    4    0    0  0.13046266609E+02 -0.14620794561E+03 -0.80067728987E+02  0.16987586543E+03  0.30000000000E+02 0.  1.
    -200000    1    3    3    0    0 -0.11620629848E+03  0.24394827892E+03  0.66425899674E+02  0.29602038230E+03  0.10100000000E+03 0. -1.
<mgrwt>
<rscale>  0 0.12433810E+04</rscale>
<asrwt>0</asrwt>
<pdfrwt beam="1">  1        2 0.69820532E-01 0.12433810E+04</pdfrwt>
<pdfrwt beam="2">  1       -2 0.11297159E+00 0.12433810E+04</pdfrwt>
<totfact> 0.41806338E+01</totfact>
</mgrwt>
</event>
<event>
 8    2  0.7266322E-052  0.1448230E+04  0.7818608E-02  0.8919629E-01
         -2   -1    0    0    0  501 -0.00000000000E+00  0.00000000000E+00  0.19294813338E+03  0.19294813340E+03  0.25500000000E-02 0. -1.
          2   -1    0    0  501    0  0.00000000000E+00 -0.00000000000E+00 -0.27175297589E+04  0.27175297589E+04  0.25500000000E-02 0.  1.
    -200001    2    1    2    0    0 -0.36457748976E+03 -0.62740321968E+02 -0.10593763537E+04  0.12796963059E+04  0.61521645172E+03 0.  0.
   -5000001    2    3    3    0    0  0.62663395796E+02 -0.11491331198E+03 -0.75023010048E+02  0.20061831966E+03  0.13224026506E+03 0.  0.
     200001    1    1    2    0    0  0.36457748976E+03  0.62740321968E+02 -0.14652052718E+04  0.16307815864E+04  0.61300000000E+03 0.  1.
         11    1    4    4    0    0 -0.16961296400E+02 -0.85616903043E+02 -0.67455981193E+02  0.11030978679E+03  0.51100000000E-03 0.  1.
    -200002    1    4    4    0    0  0.79624692197E+02 -0.29296408939E+02 -0.75670288551E+01  0.90308532874E+02  0.30000000000E+02 0.  1.
    -200000    1    3    3    0    0 -0.42724088556E+03  0.52172990014E+02 -0.98435334368E+03  0.10790779862E+04  0.10100000000E+03 0.  1.
<mgrwt>
<rscale>  0 0.14482297E+04</rscale>
<asrwt>0</asrwt>
<pdfrwt beam="1">  1        2 0.38821851E+00 0.14482297E+04</pdfrwt>
<pdfrwt beam="2">  1       -2 0.27564021E-01 0.14482297E+04</pdfrwt>
<totfact> 0.39440595E+01</totfact>
</mgrwt>
</event>
<event>
 8    2  0.7266322E-052  0.1271133E+04  0.7818608E-02  0.9052776E-01
          2   -1    0    0  501    0  0.00000000000E+00  0.00000000000E+00  0.14552049466E+04  0.14552049466E+04  0.25500000000E-02 0.  1.
         -2   -1    0    0    0  501 -0.00000000000E+00 -0.00000000000E+00 -0.27758607562E+03  0.27758607563E+03  0.25500000000E-02 0. -1.
    -200001    2    1    2    0    0 -0.23435049539E+02  0.30369195312E+02  0.81305825460E+03  0.10185467135E+04  0.61229257109E+03 0.  0.
   -5000001    2    3    3    0    0  0.23204864943E+03 -0.23903878058E+02  0.64375433237E+03  0.69131238611E+03  0.95263863312E+02 0.  0.
     200001    1    1    2    0    0  0.23435049539E+02 -0.30369195312E+02  0.36456061639E+03  0.71424430876E+03  0.61300000000E+03 0. -1.
         11    1    4    4    0    0  0.19997041145E+03 -0.40967006250E+01  0.56055283661E+03  0.59516756552E+03  0.51100000000E-03 0.  1.
    -200002    1    4    4    0    0  0.32078237977E+02 -0.19807177433E+02  0.83201495753E+02  0.96144820584E+02  0.30000000000E+02 0. -1.
    -200000    1    3    3    0    0 -0.25548369897E+03  0.54273073370E+02  0.16930392223E+03  0.32723432738E+03  0.10100000000E+03 0.  1.
<mgrwt>
<rscale>  0 0.12711328E+04</rscale>
<asrwt>0</asrwt>
<pdfrwt beam="1">  1        2 0.20788642E+00 0.12711328E+04</pdfrwt>
<pdfrwt beam="2">  1       -2 0.39655153E-01 0.12711328E+04</pdfrwt>
<totfact> 0.91236514E+01</totfact>
</mgrwt>
</event>
<event>
 8    2  0.7266322E-052  0.1432171E+04  0.7818608E-02  0.8930855E-01
         -2   -1    0    0    0  501 -0.00000000000E+00  0.00000000000E+00  0.14938957883E+04  0.14938957883E+04  0.25500000000E-02 0. -1.
          2   -1    0    0  501    0  0.00000000000E+00 -0.00000000000E+00 -0.34324899984E+03  0.34324899985E+03  0.25500000000E-02 0.  1.
    -200001    2    1    2    0    0  0.38101411332E+02 -0.95128416446E+02  0.10274622138E+04  0.12035482505E+04  0.61834347845E+03 0.  0.
   -5000001    2    3    3    0    0  0.23357917602E+03 -0.17670970612E+03  0.86636639186E+03  0.91890825478E+03  0.89532698227E+02 0.  0.
     200001    1    1    2    0    0 -0.38101411332E+02  0.95128416446E+02  0.12318457475E+03  0.63359653773E+03  0.61300000000E+03 0.  1.
         11    1    4    4    0    0  0.93579861083E+02 -0.11981799790E+03  0.44573382521E+03  0.47094817757E+03  0.51100000000E-03 0.  1.
    -200002    1    4    4    0    0  0.13999931493E+03 -0.56891708224E+02  0.42063256665E+03  0.44796007721E+03  0.30000000000E+02 0.  1.
    -200000    1    3    3    0    0 -0.19547776469E+03  0.81581289677E+02  0.16109582190E+03  0.28463999569E+03  0.10100000000E+03 0.  1.
<mgrwt>
<rscale>  0 0.14321707E+04</rscale>
<asrwt>0</asrwt>
<pdfrwt beam="1">  1        2 0.49035571E-01 0.14321707E+04</pdfrwt>
<pdfrwt beam="2">  1       -2 0.21341369E+00 0.14321707E+04</pdfrwt>
<totfact> 0.10862454E+01</totfact>
</mgrwt>
</event>
<event>
 8    2  0.7266322E-052  0.1604902E+04  0.7818608E-02  0.8817542E-01
          2   -1    0    0  501    0  0.00000000000E+00  0.00000000000E+00  0.22584262165E+04  0.22584262165E+04  0.25500000000E-02 0.  1.
         -2   -1    0    0    0  501 -0.00000000000E+00 -0.00000000000E+00 -0.28512221228E+03  0.28512221230E+03  0.25500000000E-02 0. -1.
    -200001    2    1    2    0    0  0.39778200557E+03  0.49472403824E+02  0.15049512348E+04  0.16741800608E+04  0.61426591478E+03 0.  0.
   -5000001    2    3    3    0    0  0.30353527473E+03  0.50360253350E+01  0.14949287595E+04  0.15287204856E+04  0.10007648408E+03 0.  0.
     200001    1    1    2    0    0 -0.39778200557E+03 -0.49472403824E+02  0.46835276939E+03  0.86936836800E+03  0.61300000000E+03 0.  1.
         11    1    4    4    0    0  0.21873755501E+03 -0.15676361086E+02  0.88056077988E+03  0.90745752150E+03  0.51100000000E-03 0.  1.
    -200002    1    4    4    0    0  0.84797719715E+02  0.20712386421E+02  0.61436797959E+03  0.62126296410E+03  0.30000000000E+02 0.  1.
    -200000    1    3    3    0    0  0.94246730838E+02  0.44436378489E+02  0.10022475379E+02  0.14545957521E+03  0.10100000000E+03 0. -1.
<mgrwt>
<rscale>  0 0.16049018E+04</rscale>
<asrwt>0</asrwt>
<pdfrwt beam="1">  1        2 0.32263233E+00 0.16049018E+04</pdfrwt>
<pdfrwt beam="2">  1       -2 0.40731743E-01 0.16049018E+04</pdfrwt>
<totfact> 0.32342090E+01</totfact>
</mgrwt>
</event>
<event>
 8    2  0.7266322E-052  0.1625025E+04  0.7818608E-02  0.8805320E-01
         -2   -1    0    0    0  501 -0.00000000000E+00  0.00000000000E+00  0.22170601507E+03  0.22170601509E+03  0.25500000000E-02 0. -1.
          2   -1    0    0  501    0  0.00000000000E+00 -0.00000000000E+00 -0.29777130470E+04  0.29777130470E+04  0.25500000000E-02 0.  1.
    -200001    2    1    2    0    0  0.28465233239E+03 -0.40100268850E+03 -0.97492556498E+03  0.12526652773E+04  0.61388951227E+03 0.  0.
   -5000001    2    3    3    0    0  0.30776893584E+03  0.64004181464E+01 -0.29244090482E+03  0.45110556028E+03  0.15235439107E+03 0.  0.
     200001    1    1    2    0    0 -0.28465233239E+03  0.40100268850E+03 -0.17810814669E+04  0.19467537847E+04  0.61300000000E+03 0.  1.
         11    1    4    4    0    0  0.15893690877E+03  0.60340615872E+02 -0.20977531830E+03  0.27001410160E+03  0.51100000000E-03 0.  1.
    -200002    1    4    4    0    0  0.14883202707E+03 -0.53940197725E+02 -0.82665586522E+02  0.18109145868E+03  0.30000000000E+02 0.  1.
    -200000    1    3    3    0    0 -0.23116603453E+02 -0.40740310664E+03 -0.68248466016E+03  0.80155971706E+03  0.10100000000E+03 0. -1.
<mgrwt>
<rscale>  0 0.16250254E+04</rscale>
<asrwt>0</asrwt>
<pdfrwt beam="1">  1        2 0.42538755E+00 0.16250254E+04</pdfrwt>
<pdfrwt beam="2">  1       -2 0.31672290E-01 0.16250254E+04</pdfrwt>
<totfact> 0.21635331E+01</totfact>
</mgrwt>
</event>
<event>
 8    2  0.7266322E-052  0.1524282E+04  0.7818608E-02  0.8868464E-01
         -2   -1    0    0    0  501 -0.00000000000E+00  0.00000000000E+00  0.14910268678E+03  0.14910268680E+03  0.25500000000E-02 0. -1.
          2   -1    0    0  501    0  0.00000000000E+00 -0.00000000000E+00 -0.38956963974E+04  0.38956963974E+04  0.25500000000E-02 0.  1.
    -200001    2    1    2    0    0  0.26863561875E+03  0.23887601423E+03 -0.26050265004E+04  0.27001163925E+04  0.61256723676E+03 0.  0.
   -5000001    2    3    3    0    0  0.31712791852E+03 -0.20906401107E+02 -0.11310030332E+04  0.11991884834E+04  0.24057839336E+03 0.  0.
     200001    1    1    2    0    0 -0.26863561875E+03 -0.23887601423E+03 -0.11415672102E+04  0.13446826917E+04  0.61300000000E+03 0. -1.
         11    1    4    4    0    0  0.30286306437E+03 -0.12073260258E+02 -0.11239452887E+04  0.11640982825E+04  0.51100000000E-03 0.  1.
    -200002    1    4    4    0    0  0.14264854158E+02 -0.88331408496E+01 -0.70577444865E+01  0.35090200892E+02  0.30000000000E+02 0.  1.
    -200000    1    3    3    0    0 -0.48492299776E+02  0.25978241534E+03 -0.14740234672E+04  0.15009279091E+04  0.10100000000E+03 0.  1.
<mgrwt>
<rscale>  0 0.15242819E+04</rscale>
<asrwt>0</asrwt>
<pdfrwt beam="1">  1        2 0.55652799E+00 0.15242819E+04</pdfrwt>
<pdfrwt beam="2">  1       -2 0.21300386E-01 0.15242819E+04</pdfrwt>
<totfact> 0.12581060E+01</totfact>
</mgrwt>
</event>
<event>
 8    2  0.7266322E-052  0.1347801E+04  0.7818608E-02  0.8992495E-01
          2   -1    0    0  501    0  0.00000000000E+00  0.00000000000E+00  0.28659068612E+04  0.28659068612E+04  0.25500000000E-02 0.  1.
         -2   -1    0    0    0  501 -0.00000000000E+00 -0.00000000000E+00 -0.15846350308E+03  0.15846350310E+03  0.25500000000E-02 0. -1.
    -200001    2    1    2    0    0  0.25560387765E+03 -0.53352354263E+02  0.15782058279E+04  0.17132158289E+04  0.61334739366E+03 0.  0.
   -5000001    2    3    3    0    0  0.14812439824E+03  0.21042224199E+03  0.31479608896E+03  0.41416461955E+03  0.78850473615E+02 0.  0.
     200001    1    1    2    0    0 -0.25560387765E+03  0.53352354263E+02  0.11292375302E+04  0.13111545354E+04  0.61300000000E+03 0. -1.
         11    1    4    4    0    0  0.30425740296E+02  0.85838322275E+02  0.75491378196E+02  0.11829155264E+03  0.51100000000E-03 0.  1.
    -200002    1    4    4    0    0  0.11769865794E+03  0.12458391972E+03  0.23930471076E+03  0.29587306692E+03  0.30000000000E+02 0.  1.
    -200000    1    3    3    0    0  0.10747947941E+03 -0.26377459626E+03  0.12634097390E+04  0.12990512094E+04  0.10100000000E+03 0. -1.
<mgrwt>
<rscale>  0 0.13478006E+04</rscale>
<asrwt>0</asrwt>
<pdfrwt beam="1">  1        2 0.40941522E+00 0.13478006E+04</pdfrwt>
<pdfrwt beam="2">  1       -2 0.22637646E-01 0.13478006E+04</pdfrwt>
<totfact> 0.47254169E+01</totfact>
</mgrwt>
</event>
<event>
 8    2  0.7266322E-052  0.1294300E+04  0.7818608E-02  0.9034098E-01
         -2   -1    0    0    0  501 -0.00000000000E+00  0.00000000000E+00  0.21675272478E+03  0.21675272479E+03  0.25500000000E-02 0. -1.
          2   -1    0    0  501    0  0.00000000000E+00 -0.00000000000E+00 -0.19321691869E+04  0.19321691869E+04  0.25500000000E-02 0.  1.
    -200001    2    1    2    0    0  0.16431574647E+03  0.12676718671E+03 -0.87155136316E+03  0.10854620444E+04  0.61282663696E+03 0.  0.
   -5000001    2    3    3    0    0  0.27336403711E+03  0.94064633441E+02 -0.86597900612E+03  0.93316943836E+03  0.19315669703E+03 0.  0.
     200001    1    1    2    0    0 -0.16431574647E+03 -0.12676718671E+03 -0.84386509894E+03  0.10634598673E+04  0.61300000000E+03 0. -1.
         11    1    4    4    0    0  0.17818644354E+03  0.14944448012E+03 -0.54687158409E+03  0.59426643081E+03  0.51100000000E-03 0.  1.
    -200002    1    4    4    0    0  0.95177593569E+02 -0.55379846680E+02 -0.31910742202E+03  0.33890300755E+03  0.30000000000E+02 0.  1.
    -200000    1    3    3    0    0 -0.10904829064E+03  0.32702553270E+02 -0.55723570437E+01  0.15229260601E+03  0.10100000000E+03 0.  1.
<mgrwt>
<rscale>  0 0.12942997E+04</rscale>
<asrwt>0</asrwt>
<pdfrwt beam="1">  1        2 0.27602416E+00 0.12942997E+04</pdfrwt>
<pdfrwt beam="2">  1       -2 0.30964676E-01 0.12942997E+04</pdfrwt>
<totfact> 0.82441860E+01</totfact>
</mgrwt>
</event>
<event>
 8    2  0.7266322E-052  0.1812571E+04  0.7818608E-02  0.8699643E-01
         -2   -1    0    0    0  501 -0.00000000000E+00  0.00000000000E+00  0.33205101746E+03  0.33205101747E+03  0.25500000000E-02 0. -1.
          2   -1    0    0  501    0  0.00000000000E+00 -0.00000000000E+00 -0.24735746772E+04  0.24735746772E+04  0.25500000000E-02 0.  1.
    -200001    2    1    2    0    0  0.53854037497E+03  0.16177504346E+03 -0.16274771539E+04  0.18277659346E+04  0.61306567770E+03 0.  0.
   -5000001    2    3    3    0    0  0.41433728496E+03  0.28756951483E+03 -0.14456325872E+04  0.15547840615E+04  0.27042242756E+03 0.  0.
     200001    1    1    2    0    0 -0.53854037497E+03 -0.16177504346E+03 -0.51404650588E+03  0.97785976007E+03  0.61300000000E+03 0. -1.
         11    1    4    4    0    0  0.58331567068E+02  0.19452101407E+03 -0.51774633471E+03  0.55614949765E+03  0.51100000000E-03 0.  1.
    -200002    1    4    4    0    0  0.35600571789E+03  0.93048500758E+02 -0.92788625245E+03  0.99863456387E+03  0.30000000000E+02 0.  1.
    -200000    1    3    3    0    0  0.12420309001E+03 -0.12579447137E+03 -0.18184456674E+03  0.27298187311E+03  0.10100000000E+03 0. -1.
<mgrwt>
<rscale>  0 0.18125705E+04</rscale>
<asrwt>0</asrwt>
<pdfrwt beam="1">  1        2 0.35336780E+00 0.18125705E+04</pdfrwt>
<pdfrwt beam="2">  1       -2 0.47435861E-01 0.18125705E+04</pdfrwt>
<totfact> 0.18139104E+01</totfact>
</mgrwt>
</event>
<event>
 8    2  0.7266322E-052  0.1300200E+04  0.7818608E-02  0.9029407E-01
          2   -1    0    0  501    0  0.00000000000E+00  0.00000000000E+00  0.25070382363E+04  0.25070382363E+04  0.25500000000E-02 0.  1.
         -2   -1    0    0    0  501 -0.00000000000E+00 -0.00000000000E+00 -0.16857729434E+03  0.16857729436E+03  0.25500000000E-02 0. -1.
    -200001    2    1    2    0    0 -0.78135530392E+01 -0.17335863672E+03  0.14318137802E+04  0.15675124919E+04  0.61391403519E+03 0.  0.
   -5000001    2    3    3    0    0 -0.25115455308E+03 -0.20237205063E+03  0.10572218532E+04  0.11086260874E+04  0.85444124146E+02 0.  0.
     200001    1    1    2    0    0  0.78135530392E+01  0.17335863672E+03  0.90664716170E+03  0.11081030387E+04  0.61300000000E+03 0. -1.
         11    1    4    4    0    0 -0.39476093947E+02 -0.43783873509E+02  0.30624340211E+03  0.31186601436E+03  0.51100000000E-03 0.  1.
    -200002    1    4    4    0    0 -0.21167845914E+03 -0.15858817712E+03  0.75097845105E+03  0.79676007300E+03  0.30000000000E+02 0.  1.
    -200000    1    3    3    0    0  0.24334100004E+03  0.29013413910E+02  0.37459192705E+03  0.45888640457E+03  0.10100000000E+03 0. -1.
<mgrwt>
<rscale>  0 0.13001996E+04</rscale>
<asrwt>0</asrwt>
<pdfrwt beam="1">  1        2 0.35814828E+00 0.13001996E+04</pdfrwt>
<pdfrwt beam="2">  1       -2 0.24082473E-01 0.13001996E+04</pdfrwt>
<totfact> 0.66010694E+01</totfact>
</mgrwt>
</event>
<event>
 8    2  0.7266322E-052  0.1508248E+04  0.7818608E-02  0.8878987E-01
          2   -1    0    0  501    0  0.00000000000E+00  0.00000000000E+00  0.72708818934E+03  0.72708818934E+03  0.25500000000E-02 0.  1.
         -2   -1    0    0    0  501 -0.00000000000E+00 -0.00000000000E+00 -0.78216494334E+03  0.78216494335E+03  0.25500000000E-02 0. -1.
    -200001    2    1    2    0    0  0.38113781691E+03 -0.21317610144E+03 -0.25925256361E+02  0.75604074862E+03  0.61661609527E+03 0.  0.
   -5000001    2    3    3    0    0  0.23021690627E+03 -0.24927174705E+03  0.23837195565E+03  0.43334269597E+03  0.12581126778E+03 0.  0.
     200001    1    1    2    0    0 -0.38113781691E+03  0.21317610144E+03 -0.29151497644E+02  0.75321238407E+03  0.61300000000E+03 0. -1.
         11    1    4    4    0    0 -0.51794966574E+01  0.91401884735E+01  0.32255874455E+01  0.10989751844E+02  0.51100000000E-03 0.  1.
    -200002    1    4    4    0    0  0.23539640293E+03 -0.25841193553E+03  0.23514636821E+03  0.42235294413E+03  0.30000000000E+02 0.  1.
    -200000    1    3    3    0    0  0.15092091064E+03  0.36095645619E+02 -0.26429721201E+03  0.32269805264E+03  0.10100000000E+03 0. -1.
<mgrwt>
<rscale>  0 0.15082478E+04</rscale>
<asrwt>0</asrwt>
<pdfrwt beam="1">  1        2 0.10386974E+00 0.15082478E+04</pdfrwt>
<pdfrwt beam="2">  1       -2 0.11173785E+00 0.15082478E+04</pdfrwt>
<totfact> 0.26272969E+01</totfact>
</mgrwt>
</event>
<event>
 8    2  0.7266322E-052  0.1356836E+04  0.7818608E-02  0.8985669E-01
         -2   -1    0    0    0  501 -0.00000000000E+00  0.00000000000E+00  0.21448920160E+03  0.21448920162E+03  0.25500000000E-02 0. -1.
          2   -1    0    0  501    0  0.00000000000E+00 -0.00000000000E+00 -0.21458001972E+04  0.21458001972E+04  0.25500000000E-02 0.  1.
    -200001    2    1    2    0    0  0.91721832456E+01  0.20658715103E+03 -0.13209451594E+04  0.14708638348E+04  0.61301054353E+03 0.  0.
   -5000001    2    3    3    0    0 -0.35202477257E+02  0.99358587191E+02  0.16454649279E+02  0.12464456453E+03  0.64452841139E+02 0.  0.
     200001    1    1    2    0    0 -0.91721832456E+01 -0.20658715103E+03 -0.61036583618E+03  0.88942556400E+03  0.61300000000E+03 0.  1.
         11    1    4    4    0    0 -0.33631044948E+01  0.66425068282E+02  0.20874946968E+02  0.69709135551E+02  0.51100000000E-03 0.  1.
    -200002    1    4    4    0    0 -0.31839372762E+02  0.32933518909E+02 -0.44202976892E+01  0.54935428981E+02  0.30000000000E+02 0. -1.
    -200000    1    3    3    0    0  0.44374660503E+02  0.10722856383E+03 -0.13373998087E+04  0.13462192703E+04  0.10100000000E+03 0.  1.
<mgrwt>
<rscale>  0 0.13568360E+04</rscale>
<asrwt>0</asrwt>
<pdfrwt beam="1">  1        2 0.30654287E+00 0.13568360E+04</pdfrwt>
<pdfrwt beam="2">  1       -2 0.30641316E-01 0.13568360E+04</pdfrwt>
<totfact> 0.65010094E+01</totfact>
</mgrwt>
</event>
<event>
 8    2  0.7266322E-052  0.1280507E+04  0.7818608E-02  0.9045168E-01
          2   -1    0    0  501    0  0.00000000000E+00  0.00000000000E+00  0.30186195889E+04  0.30186195889E+04  0.25500000000E-02 0.  1.
         -2   -1    0    0    0  501 -0.00000000000E+00 -0.00000000000E+00 -0.13579862527E+03  0.13579862529E+03  0.25500000000E-02 0. -1.
    -200001    2    1    2    0    0  0.57392472656E+02  0.51515198057E+02  0.18546248519E+04  0.19548749862E+04  0.61315182373E+03 0.  0.
   -5000001    2    3    3    0    0 -0.94817242929E+02  0.70436064622E+02  0.17225480775E+04  0.17286647498E+04  0.84607264926E+02 0.  0.
     200001    1    1    2    0    0 -0.57392472656E+02 -0.51515198057E+02  0.10281961117E+04  0.11995432279E+04  0.61300000000E+03 0. -1.
         11    1    4    4    0    0 -0.95334649684E+02  0.42848674608E+02  0.12491319960E+04  0.12534972867E+04  0.51100000000E-03 0.  1.
    -200002    1    4    4    0    0  0.51740675474E+00  0.27587390013E+02  0.47341608153E+03  0.47516746317E+03  0.30000000000E+02 0.  1.
    -200000    1    3    3    0    0  0.15220971559E+03 -0.18920866564E+02  0.13207677439E+03  0.22621023638E+03  0.10100000000E+03 0. -1.
<mgrwt>
<rscale>  0 0.12805068E+04</rscale>
<asrwt>0</asrwt>
<pdfrwt beam="1">  1        2 0.43123136E+00 0.12805068E+04</pdfrwt>
<pdfrwt beam="2">  1       -2 0.19399804E-01 0.12805068E+04</pdfrwt>
<totfact> 0.51464283E+01</totfact>
</mgrwt>
</event>
<event>
 8    2  0.7266322E-052  0.2359848E+04  0.7818608E-02  0.8454691E-01
         -2   -1    0    0    0  501 -0.00000000000E+00  0.00000000000E+00  0.44181269232E+03  0.44181269232E+03  0.25500000000E-02 0.  1.
          2   -1    0    0  501    0  0.00000000000E+00 -0.00000000000E+00 -0.31511546252E+04  0.31511546252E+04  0.25500000000E-02 0. -1.
    -200001    2    1    2    0    0 -0.34579971980E+02 -0.73255485926E+03 -0.29722612178E+03  0.99837600434E+03  0.60875190537E+03 0.  0.
   -5000001    2    3    3    0    0  0.26519411289E+03 -0.44005326412E+03 -0.14459407180E+03  0.54129917513E+03  0.90125238553E+02 0.  0.
     200001    1    1    2    0    0  0.34579971980E+02  0.73255485926E+03 -0.24121158111E+04  0.25945913132E+04  0.61300000000E+03 0. -1.
         11    1    4    4    0    0  0.17132534134E+03 -0.23317307145E+03 -0.51184823293E+02  0.29383999042E+03  0.51100000000E-03 0.  1.
    -200002    1    4    4    0    0  0.93868771553E+02 -0.20688019267E+03 -0.93409248507E+02  0.24745918471E+03  0.30000000000E+02 0.  1.
    -200000    1    3    3    0    0 -0.29977408487E+03 -0.29250159514E+03 -0.15263204998E+03  0.45707682921E+03  0.10100000000E+03 0.  1.
<mgrwt>
<rscale>  0 0.23598475E+04</rscale>
<asrwt>0</asrwt>
<pdfrwt beam="1">  1        2 0.45016493E+00 0.23598475E+04</pdfrwt>
<pdfrwt beam="2">  1       -2 0.63116101E-01 0.23598475E+04</pdfrwt>
<totfact> 0.40812996E+00</totfact>
</mgrwt>
</event>
<event>
 8    2  0.7266322E-052  0.1532046E+04  0.7818608E-02  0.8863418E-01
          2   -1    0    0  501    0  0.00000000000E+00  0.00000000000E+00  0.14631374710E+04  0.14631374710E+04  0.25500000000E-02 0.  1.
         -2   -1    0    0    0  501 -0.00000000000E+00 -0.00000000000E+00 -0.40105008608E+03  0.40105008609E+03  0.25500000000E-02 0. -1.
    -200001    2    1    2    0    0  0.34586398637E+03  0.14094509708E+03  0.20538643973E+03  0.74651456068E+03  0.61287272922E+03 0.  0.
   -5000001    2    3    3    0    0  0.15785499862E+03  0.36556657874E+03  0.13011316698E+03  0.42765839390E+03  0.86053132222E+02 0.  0.
     200001    1    1    2    0    0 -0.34586398637E+03 -0.14094509708E+03  0.85670094519E+03  0.11176729964E+04  0.61300000000E+03 0. -1.
         11    1    4    4    0    0  0.12849236398E+03  0.22567836498E+03  0.64726971703E+02  0.26763892260E+03  0.51100000000E-03 0.  1.
    -200002    1    4    4    0    0  0.29362634638E+02  0.13988821376E+03  0.65386195278E+02  0.16001947130E+03  0.30000000000E+02 0.  1.
    -200000    1    3    3    0    0  0.18800898775E+03 -0.22462148167E+03  0.75273272753E+02  0.31885616678E+03  0.10100000000E+03 0.  1.
<mgrwt>
<rscale>  0 0.15320462E+04</rscale>
<asrwt>0</asrwt>
<pdfrwt beam="1">  1        2 0.20901964E+00 0.15320462E+04</pdfrwt>
<pdfrwt beam="2">  1       -2 0.57292870E-01 0.15320462E+04</pdfrwt>
<totfact> 0.42156966E+01</totfact>
</mgrwt>
</event>
<event>
 8    2  0.7266322E-052  0.1456411E+04  0.7818608E-02  0.8913968E-01
          2   -1    0    0  501    0  0.00000000000E+00  0.00000000000E+00  0.18933651226E+04  0.18933651226E+04  0.25500000000E-02 0.  1.
         -2   -1    0    0    0  501 -0.00000000000E+00 -0.00000000000E+00 -0.28007434405E+03  0.28007434406E+03  0.25500000000E-02 0. -1.
    -200001    2    1    2    0    0 -0.33201059305E+03  0.63212241951E+02  0.11055492134E+04  0.13086867168E+04  0.61334740405E+03 0.  0.
   -5000001    2    3    3    0    0 -0.46742768639E+03  0.13674805126E+02  0.93930948768E+03  0.10665537095E+04  0.19120371157E+03 0.  0.
     200001    1    1    2    0    0  0.33201059305E+03 -0.63212241951E+02  0.50774156520E+03  0.86475274990E+03  0.61300000000E+03 0. -1.
         11    1    4    4    0    0 -0.33241553896E+03 -0.63811776927E+01  0.46193760451E+03  0.56914599219E+03  0.51100000000E-03 0.  1.
    -200002    1    4    4    0    0 -0.13501214743E+03  0.20055982818E+02  0.47737188317E+03  0.49740771732E+03  0.30000000000E+02 0.  1.
    -200000    1    3    3    0    0  0.13541709333E+03  0.49537436825E+02  0.16623972571E+03  0.24213300729E+03  0.10100000000E+03 0. -1.
<mgrwt>
<rscale>  0 0.14564106E+04</rscale>
<asrwt>0</asrwt>
<pdfrwt beam="1">  1        2 0.27048073E+00 0.14564106E+04</pdfrwt>
<pdfrwt beam="2">  1       -2 0.40010620E-01 0.14564106E+04</pdfrwt>
<totfact> 0.52234631E+01</totfact>
</mgrwt>
</event>
<event>
 8    2  0.7266322E-052  0.1519970E+04  0.7818608E-02  0.8871281E-01
         -2   -1    0    0    0  501 -0.00000000000E+00  0.00000000000E+00  0.79310230112E+03  0.79310230112E+03  0.25500000000E-02 0. -1.
          2   -1    0    0  501    0  0.00000000000E+00 -0.00000000000E+00 -0.72825059315E+03  0.72825059315E+03  0.25500000000E-02 0.  1.
    -200001    2    1    2    0    0 -0.20523173709E+03  0.53952482828E+02 -0.36412862057E+03  0.74364854262E+03  0.61269288090E+03 0.  0.
   -5000001    2    3    3    0    0 -0.16792095357E+03 -0.15815521874E+03  0.51425705131E+02  0.26482898450E+03  0.11949589121E+03 0.  0.
     200001    1    1    2    0    0  0.20523173709E+03 -0.53952482828E+02  0.42898032854E+03  0.77770435166E+03  0.61300000000E+03 0. -1.
         11    1    4    4    0    0 -0.10066747185E+03 -0.15506919489E+03  0.48167942735E+02  0.19105116016E+03  0.51100000000E-03 0.  1.
    -200002    1    4    4    0    0 -0.67253481726E+02 -0.30860238515E+01  0.32577623956E+01  0.73777824333E+02  0.30000000000E+02 0.  1.
    -200000    1    3    3    0    0 -0.37310783520E+02  0.21210770157E+03 -0.41555432570E+03  0.47881955812E+03  0.10100000000E+03 0.  1.
<mgrwt>
<rscale>  0 0.15199700E+04</rscale>
<asrwt>0</asrwt>
<pdfrwt beam="1">  1        2 0.10403580E+00 0.15199700E+04</pdfrwt>
<pdfrwt beam="2">  1       -2 0.11330033E+00 0.15199700E+04</pdfrwt>
<totfact> 0.25327212E+01</totfact>
</mgrwt>
</event>
<event>
 8    2  0.7266322E-052  0.1504554E+04  0.7818608E-02  0.8881430E-01
          2   -1    0    0  501    0  0.00000000000E+00  0.00000000000E+00  0.90066507256E+03  0.90066507256E+03  0.25500000000E-02 0.  1.
         -2   -1    0    0    0  501 -0.00000000000E+00 -0.00000000000E+00 -0.62833684681E+03  0.62833684682E+03  0.25500000000E-02 0. -1.
    -200001    2    1    2    0    0  0.30570268736E+03  0.25212673393E+03  0.29934551057E+03  0.79857673040E+03  0.62537591624E+03 0.  0.
   -5000001    2    3    3    0    0  0.41472638997E+03  0.26260228083E+03  0.33888326108E+03  0.64443349010E+03  0.24391539944E+03 0.  0.
     200001    1    1    2    0    0 -0.30570268736E+03 -0.25212673393E+03 -0.27017284820E+02  0.73042518898E+03  0.61300000000E+03 0. -1.
         11    1    4    4    0    0  0.90422522290E+02 -0.27419544794E+02  0.13046369985E+03  0.16108643938E+03  0.51100000000E-03 0.  1.
    -200002    1    4    4    0    0  0.32430386768E+03  0.29002182562E+03  0.20841956123E+03  0.48334705071E+03  0.30000000000E+02 0.  1.
    -200000    1    3    3    0    0 -0.10902370261E+03 -0.10475546894E+02 -0.39537750517E+02  0.15414324030E+03  0.10100000000E+03 0. -1.
<mgrwt>
<rscale>  0 0.15045545E+04</rscale>
<asrwt>0</asrwt>
<pdfrwt beam="1">  1        2 0.12866644E+00 0.15045545E+04</pdfrwt>
<pdfrwt beam="2">  1       -2 0.89762408E-01 0.15045545E+04</pdfrwt>
<totfact> 0.33435303E+01</totfact>
</mgrwt>
</event>
<event>
 8    2  0.7266322E-052  0.1779652E+04  0.7818608E-02  0.8717196E-01
         -2   -1    0    0    0  501 -0.00000000000E+00  0.00000000000E+00  0.92213778318E+03  0.92213778319E+03  0.25500000000E-02 0. -1.
          2   -1    0    0  501    0  0.00000000000E+00 -0.00000000000E+00 -0.85864677669E+03  0.85864677670E+03  0.25500000000E-02 0.  1.
    -200001    2    1    2    0    0 -0.49084922181E+03 -0.41499784763E+03 -0.17195619209E+02  0.88891264999E+03  0.61377018329E+03 0.  0.
   -5000001    2    3    3    0    0 -0.49889392385E+03 -0.39437137639E+03 -0.20227803046E+03  0.67690635881E+03  0.11341026061E+03 0.  0.
     200001    1    1    2    0    0  0.49084922181E+03  0.41499784763E+03  0.80686625696E+02  0.89187190989E+03  0.61300000000E+03 0.  1.
         11    1    4    4    0    0 -0.28002929174E+03 -0.15712251044E+03 -0.84852820074E+02  0.33212029236E+03  0.51100000000E-03 0.  1.
    -200002    1    4    4    0    0 -0.21886463211E+03 -0.23724886595E+03 -0.11742521039E+03  0.34478606645E+03  0.30000000000E+02 0.  1.
    -200000    1    3    3    0    0  0.80447020398E+01 -0.20626471237E+02  0.18508241125E+03  0.21200629118E+03  0.10100000000E+03 0. -1.
<mgrwt>
<rscale>  0 0.17796524E+04</rscale>
<asrwt>0</asrwt>
<pdfrwt beam="1">  1        2 0.12266382E+00 0.17796524E+04</pdfrwt>
<pdfrwt beam="2">  1       -2 0.13173397E+00 0.17796524E+04</pdfrwt>
<totfact> 0.13795519E+01</totfact>
</mgrwt>
</event>
<event>
 8    2  0.7266322E-052  0.1617378E+04  0.7818608E-02  0.8809942E-01
          2   -1    0    0  501    0  0.00000000000E+00  0.00000000000E+00  0.74743472021E+03  0.74743472022E+03  0.25500000000E-02 0.  1.
         -2   -1    0    0    0  501 -0.00000000000E+00 -0.00000000000E+00 -0.87496366852E+03  0.87496366852E+03  0.25500000000E-02 0. -1.
    -200001    2    1    2    0    0 -0.21132109253E+03  0.21482602773E+03  0.37047940137E+03  0.77706523389E+03  0.61299964482E+03 0.  0.
   -5000001    2    3    3    0    0  0.14152227128E+03 -0.70099435281E+02  0.20727217924E+03  0.28460350319E+03  0.11443300941E+03 0.  0.
     200001    1    1    2    0    0  0.21132109253E+03 -0.21482602773E+03 -0.49800834967E+03  0.84533315484E+03  0.61300000000E+03 0. -1.
         11    1    4    4    0    0  0.12839412220E+03 -0.88249621375E+02  0.18125348365E+03  0.23901019147E+03  0.51100000000E-03 0.  1.
    -200002    1    4    4    0    0  0.13128149083E+02  0.18150186094E+02  0.26018695587E+02  0.45593311720E+02  0.30000000000E+02 0. -1.
    -200000    1    3    3    0    0 -0.35284336381E+03  0.28492546301E+03  0.16320722213E+03  0.49246173071E+03  0.10100000000E+03 0. -1.
<mgrwt>
<rscale>  0 0.16173784E+04</rscale>
<asrwt>0</asrwt>
<pdfrwt beam="1">  1        2 0.10677639E+00 0.16173784E+04</pdfrwt>
<pdfrwt beam="2">  1       -2 0.12499481E+00 0.16173784E+04</pdfrwt>
<totfact> 0.19084793E+01</totfact>
</mgrwt>
</event>
<event>
 8    2  0.7266322E-052  0.1586896E+04  0.7818608E-02  0.8828639E-01
          2   -1    0    0  501    0  0.00000000000E+00  0.00000000000E+00  0.88607735482E+03  0.88607735483E+03  0.25500000000E-02 0.  1.
         -2   -1    0    0    0  501 -0.00000000000E+00 -0.00000000000E+00 -0.71050233231E+03  0.71050233231E+03  0.25500000000E-02 0. -1.
    -200001    2    1    2    0    0 -0.45728466534E+03 -0.20929560759E+03  0.79077606474E+02  0.79783400307E+03  0.61430604107E+03 0.  0.
   -5000001    2    3    3    0    0 -0.51231147481E+03 -0.31495685503E+03 -0.29124243041E+02  0.60783166306E+03  0.83368107440E+02 0.  0.
     200001    1    1    2    0    0  0.45728466534E+03  0.20929560759E+03  0.96497416040E+02  0.79874568407E+03  0.61300000000E+03 0. -1.
         11    1    4    4    0    0 -0.92230760331E+02 -0.39640941340E+02  0.19728210499E+02  0.10230894228E+03  0.51100000000E-03 0.  1.
    -200002    1    4    4    0    0 -0.42008071448E+03 -0.27531591369E+03 -0.48852453539E+02  0.50552272078E+03  0.30000000000E+02 0.  1.
    -200000    1    3    3    0    0  0.55026809467E+02  0.10566124744E+03  0.10820184951E+03  0.19000234001E+03  0.10100000000E+03 0.  1.
<mgrwt>
<rscale>  0 0.15868964E+04</rscale>
<asrwt>0</asrwt>
<pdfrwt beam="1">  1        2 0.12658248E+00 0.15868964E+04</pdfrwt>
<pdfrwt beam="2">  1       -2 0.10150033E+00 0.15868964E+04</pdfrwt>
<totfact> 0.25478047E+01</totfact>
</mgrwt>
</event>
<event>
 8    2  0.7266322E-052  0.1376893E+04  0.7818608E-02  0.8970716E-01
         -2   -1    0    0    0  501 -0.00000000000E+00  0.00000000000E+00  0.30934982222E+03  0.30934982223E+03  0.25500000000E-02 0. -1.
          2   -1    0    0  501    0  0.00000000000E+00 -0.00000000000E+00 -0.15321121520E+04  0.15321121520E+04  0.25500000000E-02 0.  1.
    -200001    2    1    2    0    0  0.20078037026E+03  0.23194430985E+03 -0.69632085839E+03  0.97715847270E+03  0.61307831717E+03 0.  0.
   -5000001    2    3    3    0    0  0.53849777778E+02  0.67757588483E+02 -0.72338102458E+03  0.73327503523E+03  0.83194237753E+02 0.  0.
     200001    1    1    2    0    0 -0.20078037026E+03 -0.23194430985E+03 -0.52644147137E+03  0.86430350152E+03  0.61300000000E+03 0.  1.
         11    1    4    4    0    0 -0.29048331511E+01  0.89932203236E+01 -0.73450345989E+01  0.11969360925E+02  0.51100000000E-03 0.  1.
    -200002    1    4    4    0    0  0.56754610930E+02  0.58764368160E+02 -0.71603598998E+03  0.72130567430E+03  0.30000000000E+02 0.  1.
    -200000    1    3    3    0    0  0.14693059248E+03  0.16418672136E+03  0.27060166189E+02  0.24388343747E+03  0.10100000000E+03 0. -1.
<mgrwt>
<rscale>  0 0.13768931E+04</rscale>
<asrwt>0</asrwt>
<pdfrwt beam="1">  1        2 0.21887316E+00 0.13768931E+04</pdfrwt>
<pdfrwt beam="2">  1       -2 0.44192833E-01 0.13768931E+04</pdfrwt>
<totfact> 0.66566473E+01</totfact>
</mgrwt>
</event>
<event>
 8    2  0.7266322E-052  0.1446669E+04  0.7818608E-02  0.8920713E-01
         -2   -1    0    0    0  501 -0.00000000000E+00  0.00000000000E+00  0.26903898281E+03  0.26903898282E+03  0.25500000000E-02 0. -1.
          2   -1    0    0  501    0  0.00000000000E+00 -0.00000000000E+00 -0.19447458521E+04  0.19447458521E+04  0.25500000000E-02 0.  1.
    -200001    2    1    2    0    0  0.70017997202E+02 -0.33061560056E+03 -0.55885010359E+03  0.89570015239E+03  0.61298950190E+03 0.  0.
   -5000001    2    3    3    0    0  0.23441226829E+03 -0.24478393283E+03 -0.15107870107E+03  0.43649315302E+03  0.22985476593E+03 0.  0.
     200001    1    1    2    0    0 -0.70017997202E+02  0.33061560056E+03 -0.11168567657E+04  0.13180846826E+04  0.61300000000E+03 0.  1.
         11    1    4    4    0    0 -0.14869873942E+01 -0.70392062005E+02 -0.12110205603E+03  0.14008198135E+03  0.51100000000E-03 0.  1.
    -200002    1    4    4    0    0  0.23589925569E+03 -0.17439187083E+03 -0.29976645043E+02  0.29641117167E+03  0.30000000000E+02 0.  1.
    -200000    1    3    3    0    0 -0.16439427109E+03 -0.85831667725E+02 -0.40777140252E+03  0.45920699937E+03  0.10100000000E+03 0.  1.
<mgrwt>
<rscale>  0 0.14466685E+04</rscale>
<asrwt>0</asrwt>
<pdfrwt beam="1">  1        2 0.27782083E+00 0.14466685E+04</pdfrwt>
<pdfrwt beam="2">  1       -2 0.38434142E-01 0.14466685E+04</pdfrwt>
<totfact> 0.53194870E+01</totfact>
</mgrwt>
</event>
<event>
 8    2  0.7266322E-052  0.1801928E+04  0.7818608E-02  0.8705275E-01
         -2   -1    0    0    0  501 -0.00000000000E+00  0.00000000000E+00  0.13566259695E+04  0.13566259695E+04  0.25500000000E-02 0. -1.
          2   -1    0    0  501    0  0.00000000000E+00 -0.00000000000E+00 -0.59834938656E+03  0.59834938656E+03  0.25500000000E-02 0.  1.
    -200001    2    1    2    0    0 -0.41330467668E+03 -0.20171531586E+03  0.89254013343E+03  0.11769615224E+04  0.61408526359E+03 0.  0.
   -5000001    2    3    3    0    0 -0.51875679615E+01  0.13593759659E+03  0.27198976341E+02  0.15736092319E+03  0.74274725206E+02 0.  0.
     200001    1    1    2    0    0  0.41330467668E+03  0.20171531586E+03 -0.13426355049E+03  0.77801383369E+03  0.61300000000E+03 0.  1.
         11    1    4    4    0    0  0.28901676957E+02  0.50415848766E+02  0.12138414986E+02  0.59366706632E+02  0.51100000000E-03 0.  1.
    -200002    1    4    4    0    0 -0.34089244918E+02  0.85521747823E+02  0.15060561356E+02  0.97994216555E+02  0.30000000000E+02 0. -1.
    -200000    1    3    3    0    0 -0.40811710872E+03 -0.33765291245E+03  0.86534115709E+03  0.10196005992E+04  0.10100000000E+03 0.  1.
<mgrwt>
<rscale>  0 0.18019282E+04</rscale>
<asrwt>0</asrwt>
<pdfrwt beam="1">  1        2 0.85478485E-01 0.18019282E+04</pdfrwt>
<pdfrwt beam="2">  1       -2 0.19380371E+00 0.18019282E+04</pdfrwt>
<totfact> 0.75275501E+00</totfact>
</mgrwt>
</event>
<event>
 8    2  0.7266322E-052  0.1416999E+04  0.7818608E-02  0.8941605E-01
         -2   -1    0    0    0  501 -0.00000000000E+00  0.00000000000E+00  0.72076967051E+03  0.72076967052E+03  0.25500000000E-02 0. -1.
          2   -1    0    0  501    0  0.00000000000E+00 -0.00000000000E+00 -0.69643804487E+03  0.69643804488E+03  0.25500000000E-02 0.  1.
    -200001    2    1    2    0    0 -0.32601667695E+03  0.94841888746E+02 -0.91516000153E+02  0.70694612281E+03  0.61328279346E+03 0.  0.
   -5000001    2    3    3    0    0 -0.31549947771E+02 -0.46605105862E+01 -0.29933734144E+03  0.31964508748E+03  0.10748496829E+03 0.  0.
     200001    1    1    2    0    0  0.32601667695E+03 -0.94841888746E+02  0.11584762579E+03  0.71026159259E+03  0.61300000000E+03 0. -1.
         11    1    4    4    0    0 -0.45839260706E+02  0.35970528350E+02 -0.18207704486E+03  0.19117313357E+03  0.51100000000E-03 0.  1.
    -200002    1    4    4    0    0  0.14289312935E+02 -0.40631038936E+02 -0.11726029658E+03  0.12847195391E+03  0.30000000000E+02 0.  1.
    -200000    1    3    3    0    0 -0.29446672918E+03  0.99502399332E+02  0.20782134129E+03  0.38730103532E+03  0.10100000000E+03 0. -1.
<mgrwt>
<rscale>  0 0.14169988E+04</rscale>
<asrwt>0</asrwt>
<pdfrwt beam="1">  1        2 0.99491149E-01 0.14169988E+04</pdfrwt>
<pdfrwt beam="2">  1       -2 0.10296710E+00 0.14169988E+04</pdfrwt>
<totfact> 0.33983628E+01</totfact>
</mgrwt>
</event>
<event>
 8    2  0.7266322E-052  0.1312400E+04  0.7818608E-02  0.9019789E-01
          2   -1    0    0  501    0  0.00000000000E+00  0.00000000000E+00  0.18374344696E+04  0.18374344696E+04  0.25500000000E-02 0.  1.
         -2   -1    0    0    0  501 -0.00000000000E+00 -0.00000000000E+00 -0.23434778090E+03  0.23434778091E+03  0.25500000000E-02 0. -1.
    -200001    2    1    2    0    0  0.12966602009E+03  0.13353513813E+03  0.10244731047E+04  0.12085281804E+04  0.61347396918E+03 0.  0.
   -5000001    2    3    3    0    0 -0.87615513926E+02 -0.16526991674E+03  0.61085160190E+03  0.64480885897E+03  0.87453767301E+02 0.  0.
     200001    1    1    2    0    0 -0.12966602009E+03 -0.13353513813E+03  0.57861358406E+03  0.86325407010E+03  0.61300000000E+03 0. -1.
         11    1    4    4    0    0 -0.40658507231E+02 -0.57084063762E+02  0.11879486021E+03  0.13792723936E+03  0.51100000000E-03 0.  1.
    -200002    1    4    4    0    0 -0.46957006694E+02 -0.10818585298E+03  0.49205674168E+03  0.50688161961E+03  0.30000000000E+02 0.  1.
    -200000    1    3    3    0    0  0.21728153402E+03  0.29880505487E+03  0.41362150277E+03  0.56371932147E+03  0.10100000000E+03 0.  1.
<mgrwt>
<rscale>  0 0.13124004E+04</rscale>
<asrwt>0</asrwt>
<pdfrwt beam="1">  1        2 0.26249064E+00 0.13124004E+04</pdfrwt>
<pdfrwt beam="2">  1       -2 0.33478254E-01 0.13124004E+04</pdfrwt>
<totfact> 0.79508809E+01</totfact>
</mgrwt>
</event>
<event>
 8    2  0.7266322E-052  0.1430848E+04  0.7818608E-02  0.8931787E-01
          2   -1    0    0  501    0  0.00000000000E+00  0.00000000000E+00  0.25112841778E+04  0.25112841778E+04  0.25500000000E-02 0.  1.
         -2   -1    0    0    0  501 -0.00000000000E+00 -0.00000000000E+00 -0.20381266878E+03  0.20381266880E+03  0.25500000000E-02 0. -1.
    -200001    2    1    2    0    0 -0.28069197967E+03  0.13385557894E+03  0.77448527978E+03  0.10350608105E+04  0.61222392098E+03 0.  0.
   -5000001    2    3    3    0    0  0.22063696918E+02 -0.11613743498E+03 -0.19453759636E+02  0.14360262024E+03  0.79174195609E+02 0.  0.
     200001    1    1    2    0    0  0.28069197967E+03 -0.13385557894E+03  0.15329862292E+04  0.16800360360E+04  0.61300000000E+03 0.  1.
         11    1    4    4    0    0 -0.14216567119E+02 -0.84177307765E+02 -0.12446293335E+02  0.86271896590E+02  0.51100000000E-03 0.  1.
    -200002    1    4    4    0    0  0.36280264037E+02 -0.31960127213E+02 -0.70074663018E+01  0.57330723648E+02  0.30000000000E+02 0. -1.
    -200000    1    3    3    0    0 -0.30275567659E+03  0.24999301391E+03  0.79393903942E+03  0.89145819028E+03  0.10100000000E+03 0.  1.
<mgrwt>
<rscale>  0 0.14308480E+04</rscale>
<asrwt>0</asrwt>
<pdfrwt beam="1">  1        2 0.35875491E+00 0.14308480E+04</pdfrwt>
<pdfrwt beam="2">  1       -2 0.29116093E-01 0.14308480E+04</pdfrwt>
<totfact> 0.45928402E+01</totfact>
</mgrwt>
</event>
<event>
 8    2  0.7266322E-052  0.1499252E+04  0.7818608E-02  0.8884950E-01
          2   -1    0    0  501    0  0.00000000000E+00  0.00000000000E+00  0.59704658972E+03  0.59704658972E+03  0.25500000000E-02 0.  1.
         -2   -1    0    0    0  501 -0.00000000000E+00 -0.00000000000E+00 -0.94119873150E+03  0.94119873150E+03  0.25500000000E-02 0. -1.
    -200001    2    1    2    0    0 -0.22572750729E+03 -0.35822379265E+03 -0.89031057809E+02  0.75076010825E+03  0.61354463384E+03 0.  0.
   -5000001    2    3    3    0    0 -0.12003757663E+03 -0.30003479907E+03 -0.31778253616E+03  0.47311904633E+03  0.13574237088E+03 0.  0.
     200001    1    1    2    0    0  0.22572750729E+03  0.35822379265E+03 -0.25512108397E+03  0.78748521298E+03  0.61300000000E+03 0.  1.
         11    1    4    4    0    0 -0.71038640951E+02 -0.83492259066E+02 -0.41026673557E+02  0.11704970643E+03  0.51100000000E-03 0.  1.
    -200002    1    4    4    0    0 -0.48998935682E+02 -0.21654254000E+03 -0.27675586261E+03  0.35606933990E+03  0.30000000000E+02 0.  1.
    -200000    1    3    3    0    0 -0.10568993065E+03 -0.58188993587E+02  0.22875147835E+03  0.27764106192E+03  0.10100000000E+03 0.  1.
<mgrwt>
<rscale>  0 0.14992525E+04</rscale>
<asrwt>0</asrwt>
<pdfrwt beam="1">  1        2 0.85292371E-01 0.14992525E+04</pdfrwt>
<pdfrwt beam="2">  1       -2 0.13445696E+00 0.14992525E+04</pdfrwt>
<totfact> 0.21055146E+01</totfact>
</mgrwt>
</event>
<event>
 8    2  0.7266322E-052  0.1373344E+04  0.7818608E-02  0.8973343E-01
          2   -1    0    0  501    0  0.00000000000E+00  0.00000000000E+00  0.19996590773E+04  0.19996590773E+04  0.25500000000E-02 0.  1.
         -2   -1    0    0    0  501 -0.00000000000E+00 -0.00000000000E+00 -0.23579952105E+03  0.23579952106E+03  0.25500000000E-02 0. -1.
    -200001    2    1    2    0    0  0.36754446782E+02  0.16763315312E+03  0.46405196711E+03  0.78814365953E+03  0.61349363200E+03 0.  0.
   -5000001    2    3    3    0    0  0.52038464122E+02  0.38256381005E+03  0.25604003036E+03  0.47207601755E+03  0.90753505126E+02 0.  0.
     200001    1    1    2    0    0 -0.36754446782E+02 -0.16763315312E+03  0.12998075892E+04  0.14473149389E+04  0.61300000000E+03 0.  1.
         11    1    4    4    0    0  0.48498462325E+02  0.13577908485E+03  0.12608469731E+03  0.19153436148E+03  0.51100000000E-03 0.  1.
    -200002    1    4    4    0    0  0.35400017970E+01  0.24678472520E+03  0.12995533305E+03  0.28054165608E+03  0.30000000000E+02 0.  1.
    -200000    1    3    3    0    0 -0.15284017340E+02 -0.21493065693E+03  0.20801193675E+03  0.31606764198E+03  0.10100000000E+03 0.  1.
<mgrwt>
<rscale>  0 0.13733443E+04</rscale>
<asrwt>0</asrwt>
<pdfrwt beam="1">  1        2 0.28566558E+00 0.13733443E+04</pdfrwt>
<pdfrwt beam="2">  1       -2 0.33685647E-01 0.13733443E+04</pdfrwt>
<totfact> 0.64566191E+01</totfact>
</mgrwt>
</event>
<event>
 8    2  0.7266322E-052  0.1952504E+04  0.7818608E-02  0.8629154E-01
         -2   -1    0    0    0  501 -0.00000000000E+00  0.00000000000E+00  0.59616123379E+03  0.59616123380E+03  0.25500000000E-02 0. -1.
          2   -1    0    0  501    0  0.00000000000E+00 -0.00000000000E+00 -0.15986747159E+04  0.15986747159E+04  0.25500000000E-02 0.  1.
    -200001    2    1    2    0    0 -0.31958170241E+03 -0.26987168877E+03 -0.12145103852E+04  0.14230361830E+04  0.61239963215E+03 0.  0.
   -5000001    2    3    3    0    0 -0.28397457931E+03  0.52541992462E+00 -0.10462817163E+04  0.10870535218E+04  0.79612131758E+02 0.  0.
     200001    1    1    2    0    0  0.31958170241E+03  0.26987168877E+03  0.21199690311E+03  0.77179976668E+03  0.61300000000E+03 0. -1.
         11    1    4    4    0    0  0.17411289910E+01 -0.45773018751E+01 -0.47837427692E+02  0.48087448582E+02  0.51100000000E-03 0.  1.
    -200002    1    4    4    0    0 -0.28571570830E+03  0.51027217997E+01 -0.99844428865E+03  0.10389660732E+04  0.30000000000E+02 0.  1.
    -200000    1    3    3    0    0 -0.35607123099E+02 -0.27039710869E+03 -0.16822866884E+03  0.33598266120E+03  0.10100000000E+03 0. -1.
<mgrwt>
<rscale>  0 0.19525039E+04</rscale>
<asrwt>0</asrwt>
<pdfrwt beam="1">  1        2 0.22838210E+00 0.19525039E+04</pdfrwt>
<pdfrwt beam="2">  1       -2 0.85165891E-01 0.19525039E+04</pdfrwt>
<totfact> 0.14555296E+01</totfact>
</mgrwt>
</event>
<event>
 8    2  0.7266322E-052  0.1723753E+04  0.7818608E-02  0.8747932E-01
          2   -1    0    0  501    0  0.00000000000E+00  0.00000000000E+00  0.13617450709E+04  0.13617450709E+04  0.25500000000E-02 0.  1.
         -2   -1    0    0    0  501 -0.00000000000E+00 -0.00000000000E+00 -0.54549954796E+03  0.54549954796E+03  0.25500000000E-02 0. -1.
    -200001    2    1    2    0    0 -0.44826477504E+02 -0.18192652726E+03  0.10455439604E+04  0.12264704656E+04  0.61315655036E+03 0.  0.
   -5000001    2    3    3    0    0 -0.28998943331E+03 -0.80687558651E+02  0.77176765386E+03  0.83212458982E+03  0.78750669050E+02 0.  0.
     200001    1    1    2    0    0  0.44826477504E+02  0.18192652726E+03 -0.22929843749E+03  0.68077415333E+03  0.61300000000E+03 0. -1.
         11    1    4    4    0    0 -0.15992841356E+03 -0.15221887863E+02  0.35576651289E+03  0.39035703532E+03  0.51100000000E-03 0.  1.
    -200002    1    4    4    0    0 -0.13006101975E+03 -0.65465670788E+02  0.41600114098E+03  0.44176755450E+03  0.30000000000E+02 0.  1.
    -200000    1    3    3    0    0  0.24516295581E+03 -0.10123896861E+03  0.27377630658E+03  0.39434587574E+03  0.10100000000E+03 0.  1.
<mgrwt>
<rscale>  0 0.17237533E+04</rscale>
<asrwt>0</asrwt>
<pdfrwt beam="1">  1        2 0.19453501E+00 0.17237533E+04</pdfrwt>
<pdfrwt beam="2">  1       -2 0.77928507E-01 0.17237533E+04</pdfrwt>
<totfact> 0.24240198E+01</totfact>
</mgrwt>
</event>
<event>
 8    2  0.7266322E-052  0.1894331E+04  0.7818608E-02  0.8657683E-01
          2   -1    0    0  501    0  0.00000000000E+00  0.00000000000E+00  0.30481978799E+04  0.30481978799E+04  0.25500000000E-02 0.  1.
         -2   -1    0    0    0  501 -0.00000000000E+00 -0.00000000000E+00 -0.29431243351E+03  0.29431243352E+03  0.25500000000E-02 0. -1.
    -200001    2    1    2    0    0 -0.41018863880E+03 -0.59379580404E+03  0.13591913192E+04  0.16567496884E+04  0.61365325035E+03 0.  0.
   -5000001    2    3    3    0    0 -0.33847090869E+02 -0.56270771207E+02  0.11210845061E+03  0.24395713370E+03  0.20648184698E+03 0.  0.
     200001    1    1    2    0    0  0.41018863880E+03  0.59379580404E+03  0.13946941273E+04  0.16857606250E+04  0.61300000000E+03 0.  1.
         11    1    4    4    0    0 -0.54476120089E+02  0.48034358012E+01  0.15262070854E+03  0.16212279707E+03  0.51100000000E-03 0.  1.
    -200002    1    4    4    0    0  0.20629029220E+02 -0.61074207008E+02 -0.40512257929E+02  0.81834336624E+02  0.30000000000E+02 0.  1.
    -200000    1    3    3    0    0 -0.37634154793E+03 -0.53752503284E+03  0.12470828686E+04  0.14127925547E+04  0.10100000000E+03 0.  1.
<mgrwt>
<rscale>  0 0.18943311E+04</rscale>
<asrwt>0</asrwt>
<pdfrwt beam="1">  1        2 0.43545688E+00 0.18943311E+04</pdfrwt>
<pdfrwt beam="2">  1       -2 0.42044630E-01 0.18943311E+04</pdfrwt>
<totfact> 0.11185360E+01</totfact>
</mgrwt>
</event>
<event>
 8    2  0.7266322E-052  0.1335931E+04  0.7818608E-02  0.9001547E-01
         -2   -1    0    0    0  501 -0.00000000000E+00  0.00000000000E+00  0.38231287532E+03  0.38231287533E+03  0.25500000000E-02 0.  1.
          2   -1    0    0  501    0  0.00000000000E+00 -0.00000000000E+00 -0.11670494131E+04  0.11670494131E+04  0.25500000000E-02 0. -1.
    -200001    2    1    2    0    0  0.15491018592E+03  0.19426971776E+03 -0.29057118827E+03  0.72370722632E+03  0.61447753826E+03 0.  0.
   -5000001    2    3    3    0    0  0.32067966162E+03  0.55100945460E+02  0.17507143984E+02  0.33388582483E+03  0.72812666243E+02 0.  0.
     200001    1    1    2    0    0 -0.15491018592E+03 -0.19426971776E+03 -0.49416534950E+03  0.82565506211E+03  0.61300000000E+03 0. -1.
         11    1    4    4    0    0  0.37302557453E+02  0.25905470495E+02  0.13595044429E+02  0.47406744535E+02  0.51100000000E-03 0.  1.
    -200002    1    4    4    0    0  0.28337710416E+03  0.29195474965E+02  0.39120995543E+01  0.28647908029E+03  0.30000000000E+02 0.  1.
    -200000    1    3    3    0    0 -0.16576947569E+03  0.13916877230E+03 -0.30807833226E+03  0.38982140149E+03  0.10100000000E+03 0. -1.
<mgrwt>
<rscale>  0 0.13359312E+04</rscale>
<asrwt>0</asrwt>
<pdfrwt beam="1">  1        2 0.16672134E+00 0.13359312E+04</pdfrwt>
<pdfrwt beam="2">  1       -2 0.54616125E-01 0.13359312E+04</pdfrwt>
<totfact> 0.68905136E+01</totfact>
</mgrwt>
</event>
<event>
 8    2  0.7266322E-052  0.1315928E+04  0.7818608E-02  0.9017029E-01
         -2   -1    0    0    0  501 -0.00000000000E+00  0.00000000000E+00  0.23944002608E+03  0.23944002610E+03  0.25500000000E-02 0. -1.
          2   -1    0    0  501    0  0.00000000000E+00 -0.00000000000E+00 -0.18080373742E+04  0.18080373742E+04  0.25500000000E-02 0.  1.
    -200001    2    1    2    0    0  0.21793566821E+03  0.70523695531E+02 -0.67251259535E+03  0.93787998175E+03  0.61227128151E+03 0.  0.
   -5000001    2    3    3    0    0  0.19618487490E+03 -0.11782962465E+03 -0.68002395098E+03  0.72292070492E+03  0.88371070519E+02 0.  0.
     200001    1    1    2    0    0 -0.21793566821E+03 -0.70523695531E+02 -0.89608475277E+03  0.11095974186E+04  0.61300000000E+03 0.  1.
         11    1    4    4    0    0 -0.78270306480E+01 -0.44937277130E+01 -0.40231980914E+02  0.41231884338E+02  0.51100000000E-03 0.  1.
    -200002    1    4    4    0    0  0.20401190555E+03 -0.11333589694E+03 -0.63979197007E+03  0.68168882058E+03  0.30000000000E+02 0.  1.
    -200000    1    3    3    0    0  0.21750793306E+02  0.18835332018E+03  0.75113556338E+01  0.21495927683E+03  0.10100000000E+03 0. -1.
<mgrwt>
<rscale>  0 0.13159278E+04</rscale>
<asrwt>0</asrwt>
<pdfrwt beam="1">  1        2 0.25829104E+00 0.13159278E+04</pdfrwt>
<pdfrwt beam="2">  1       -2 0.34205719E-01 0.13159278E+04</pdfrwt>
<totfact> 0.79017209E+01</totfact>
</mgrwt>
</event>
<event>
 8    2  0.7266322E-052  0.1259381E+04  0.7818608E-02  0.9062411E-01
          2   -1    0    0  501    0  0.00000000000E+00  0.00000000000E+00  0.38790011436E+03  0.38790011437E+03  0.25500000000E-02 0.  1.
         -2   -1    0    0    0  501 -0.00000000000E+00 -0.00000000000E+00 -0.10221970668E+04  0.10221970668E+04  0.25500000000E-02 0. -1.
    -200001    2    1    2    0    0  0.41034990005E+02 -0.11662945767E+03 -0.23556285267E+03  0.66844754481E+03  0.61322586524E+03 0.  0.
   -5000001    2    3    3    0    0  0.17212680711E+03 -0.28357033552E+03 -0.14307695923E+03  0.41584318678E+03  0.20594845670E+03 0.  0.
     200001    1    1    2    0    0 -0.41034990005E+02  0.11662945767E+03 -0.39873409978E+03  0.74164963637E+03  0.61300000000E+03 0. -1.
         11    1    4    4    0    0  0.13933569867E+03 -0.29085374208E+03 -0.70019891666E+02  0.33001988036E+03  0.51100000000E-03 0.  1.
    -200002    1    4    4    0    0  0.32791108432E+02  0.72834065559E+01 -0.73057067563E+02  0.85823306416E+02  0.30000000000E+02 0.  1.
    -200000    1    3    3    0    0 -0.13109181710E+03  0.16694087785E+03 -0.92485893436E+02  0.25260435803E+03  0.10100000000E+03 0. -1.
<mgrwt>
<rscale>  0 0.12593814E+04</rscale>
<asrwt>0</asrwt>
<pdfrwt beam="1">  1        2 0.55414302E-01 0.12593814E+04</pdfrwt>
<pdfrwt beam="2">  1       -2 0.14602815E+00 0.12593814E+04</pdfrwt>
<totfact> 0.28308663E+01</totfact>
</mgrwt>
</event>
<event>
 8    2  0.7266322E-052  0.1425430E+04  0.7818608E-02  0.8935614E-01
          2   -1    0    0  501    0  0.00000000000E+00  0.00000000000E+00  0.16981155568E+04  0.16981155568E+04  0.25500000000E-02 0.  1.
         -2   -1    0    0    0  501 -0.00000000000E+00 -0.00000000000E+00 -0.29913299745E+03  0.29913299746E+03  0.25500000000E-02 0. -1.
    -200001    2    1    2    0    0 -0.18150495260E+03 -0.14073421349E+03  0.10829750537E+04  0.12703510991E+04  0.62306242184E+03 0.  0.
   -5000001    2    3    3    0    0 -0.15476324587E+03  0.18367788433E+03  0.19065521120E+03  0.31515790958E+03  0.72703995411E+02 0.  0.
     200001    1    1    2    0    0  0.18150495260E+03  0.14073421349E+03  0.31600750573E+03  0.72689745518E+03  0.61300000000E+03 0. -1.
         11    1    4    4    0    0 -0.92707744989E+02  0.13533284576E+03  0.14724994428E+03  0.22043650155E+03  0.51100000000E-03 0.  1.
    -200002    1    4    4    0    0 -0.62055500877E+02  0.48345038573E+02  0.43405266921E+02  0.94721408035E+02  0.30000000000E+02 0.  1.
    -200000    1    3    3    0    0 -0.26741706737E+02 -0.32441209782E+03  0.89231984246E+03  0.95519318954E+03  0.10100000000E+03 0.  1.
<mgrwt>
<rscale>  0 0.14254296E+04</rscale>
<asrwt>0</asrwt>
<pdfrwt beam="1">  1        2 0.24258794E+00 0.14254296E+04</pdfrwt>
<pdfrwt beam="2">  1       -2 0.42733285E-01 0.14254296E+04</pdfrwt>
<totfact> 0.58027798E+01</totfact>
</mgrwt>
</event>
<event>
 8    2  0.7266322E-052  0.1321714E+04  0.7818608E-02  0.9012521E-01
          2   -1    0    0  501    0  0.00000000000E+00  0.00000000000E+00  0.79590878273E+03  0.79590878273E+03  0.25500000000E-02 0.  1.
         -2   -1    0    0    0  501 -0.00000000000E+00 -0.00000000000E+00 -0.54872074079E+03  0.54872074080E+03  0.25500000000E-02 0. -1.
    -200001    2    1    2    0    0  0.13620034415E+01  0.17639751382E+03 -0.53590264439E+02  0.63939585480E+03  0.61223949951E+03 0.  0.
   -5000001    2    3    3    0    0 -0.51860057766E+02  0.30943989327E+03 -0.22004135907E+03  0.39765254169E+03  0.10614532998E+03 0.  0.
     200001    1    1    2    0    0 -0.13620034415E+01 -0.17639751382E+03  0.30077830637E+03  0.70523366874E+03  0.61300000000E+03 0.  1.
         11    1    4    4    0    0  0.43023096832E+01  0.89700703799E+01  0.98530606008E+01  0.14001958245E+02  0.51100000000E-03 0.  1.
    -200002    1    4    4    0    0 -0.56162367449E+02  0.30046982289E+03 -0.22989441967E+03  0.38365058345E+03  0.30000000000E+02 0.  1.
    -200000    1    3    3    0    0  0.53222061207E+02 -0.13304237945E+03  0.16645109463E+03  0.24174331311E+03  0.10100000000E+03 0.  1.
<mgrwt>
<rscale>  0 0.13217135E+04</rscale>
<asrwt>0</asrwt>
<pdfrwt beam="1">  1        2 0.11370125E+00 0.13217135E+04</pdfrwt>
<pdfrwt beam="2">  1       -2 0.78388678E-01 0.13217135E+04</pdfrwt>
<totfact> 0.54273009E+01</totfact>
</mgrwt>
</event>
<event>
 8    2  0.7266322E-052  0.1358747E+04  0.7818608E-02  0.8984233E-01
          2   -1    0    0  501    0  0.00000000000E+00  0.00000000000E+00  0.68923812886E+03  0.68923812887E+03  0.25500000000E-02 0.  1.
         -2   -1    0    0    0  501 -0.00000000000E+00 -0.00000000000E+00 -0.66965019996E+03  0.66965019997E+03  0.25500000000E-02 0. -1.
    -200001    2    1    2    0    0 -0.21517671682E+03  0.13243871216E+03 -0.14480177264E+03  0.67578218341E+03  0.60981388482E+03 0.  0.
   -5000001    2    3    3    0    0 -0.34982251220E+03  0.12282040798E+03  0.35609997035E+02  0.42885829104E+03  0.21258108863E+03 0.  0.
     200001    1    1    2    0    0  0.21517671682E+03 -0.13243871216E+03  0.16438970154E+03  0.68310614542E+03  0.61300000000E+03 0.  1.
         11    1    4    4    0    0 -0.27349679539E+03  0.61816906236E+00  0.59141655838E+02  0.27981889621E+03  0.51100000000E-03 0.  1.
    -200002    1    4    4    0    0 -0.76325716809E+02  0.12220223892E+03 -0.23531658803E+02  0.14903939482E+03  0.30000000000E+02 0.  1.
    -200000    1    3    3    0    0  0.13464579538E+03  0.96183041734E+01 -0.18041176967E+03  0.24692389237E+03  0.10100000000E+03 0. -1.
<mgrwt>
<rscale>  0 0.13587471E+04</rscale>
<asrwt>0</asrwt>
<pdfrwt beam="1">  1        2 0.98462591E-01 0.13587471E+04</pdfrwt>
<pdfrwt beam="2">  1       -2 0.95664314E-01 0.13587471E+04</pdfrwt>
<totfact> 0.41137669E+01</totfact>
</mgrwt>
</event>
<event>
 8    2  0.7266322E-052  0.1389121E+04  0.7818608E-02  0.8961731E-01
          2   -1    0    0  501    0  0.00000000000E+00  0.00000000000E+00  0.73213053576E+03  0.73213053577E+03  0.25500000000E-02 0. -1.
         -2   -1    0    0    0  501 -0.00000000000E+00 -0.00000000000E+00 -0.65891802153E+03  0.65891802153E+03  0.25500000000E-02 0.  1.
    -200001    2    1    2    0    0 -0.28762205935E+03  0.31281689067E+02  0.19039453205E+03  0.70314913267E+03  0.61193433622E+03 0.  0.
   -5000001    2    3    3    0    0  0.30860733261E+02 -0.20538086398E+03  0.33588169762E+02  0.26470907011E+03  0.16065192967E+03 0.  0.
     200001    1    1    2    0    0  0.28762205935E+03 -0.31281689067E+02 -0.11718201782E+03  0.68789942462E+03  0.61300000000E+03 0.  1.
         11    1    4    4    0    0 -0.63835821885E+02 -0.83783334844E+02  0.18853578572E+02  0.10700521846E+03  0.51100000000E-03 0.  1.
    -200002    1    4    4    0    0  0.94696555146E+02 -0.12159752913E+03  0.14734591190E+02  0.15770385165E+03  0.30000000000E+02 0.  1.
    -200000    1    3    3    0    0 -0.31848279261E+03  0.23666255304E+03  0.15680636229E+03  0.43844006256E+03  0.10100000000E+03 0. -1.
<mgrwt>
<rscale>  0 0.13891206E+04</rscale>
<asrwt>0</asrwt>
<pdfrwt beam="1">  1        2 0.10459008E+00 0.13891206E+04</pdfrwt>
<pdfrwt beam="2">  1       -2 0.94131147E-01 0.13891206E+04</pdfrwt>
<totfact> 0.39548185E+01</totfact>
</mgrwt>
</event>
<event>
 8    2  0.7266322E-052  0.1425668E+04  0.7818608E-02  0.8935446E-01
         -2   -1    0    0    0  501 -0.00000000000E+00  0.00000000000E+00  0.69232909412E+03  0.69232909412E+03  0.25500000000E-02 0. -1.
          2   -1    0    0  501    0  0.00000000000E+00 -0.00000000000E+00 -0.73394610971E+03  0.73394610972E+03  0.25500000000E-02 0.  1.
    -200001    2    1    2    0    0  0.20496058975E+03  0.29760356048E+03  0.28439172192E+02  0.71125520971E+03  0.61196279647E+03 0.  0.
   -5000001    2    3    3    0    0  0.29458914785E+03  0.42039711053E+03 -0.32134785950E+02  0.51894884276E+03  0.68983768799E+02 0.  0.
     200001    1    1    2    0    0 -0.20496058975E+03 -0.29760356048E+03 -0.70056187786E+02  0.71501999413E+03  0.61300000000E+03 0. -1.
         11    1    4    4    0    0  0.43761892780E+02  0.43507064195E+02 -0.20694057155E+02  0.65086188215E+02  0.51100000000E-03 0.  1.
    -200002    1    4    4    0    0  0.25082725507E+03  0.37689004634E+03 -0.11440728794E+02  0.45386265455E+03  0.30000000000E+02 0.  1.
    -200000    1    3    3    0    0 -0.89628558103E+02 -0.12279355006E+03  0.60573958142E+02  0.19230636695E+03  0.10100000000E+03 0. -1.
<mgrwt>
<rscale>  0 0.14256679E+04</rscale>
<asrwt>0</asrwt>
<pdfrwt beam="1">  1        2 0.10484944E+00 0.14256679E+04</pdfrwt>
<pdfrwt beam="2">  1       -2 0.98904156E-01 0.14256679E+04</pdfrwt>
<totfact> 0.35013114E+01</totfact>
</mgrwt>
</event>
<event>
 8    2  0.7266322E-052  0.1351364E+04  0.7818608E-02  0.8989796E-01
          2   -1    0    0  501    0  0.00000000000E+00  0.00000000000E+00  0.55568823071E+03  0.55568823071E+03  0.25500000000E-02 0.  1.
         -2   -1    0    0    0  501 -0.00000000000E+00 -0.00000000000E+00 -0.82158739984E+03  0.82158739984E+03  0.25500000000E-02 0. -1.
    -200001    2    1    2    0    0 -0.27297897857E+03 -0.62948997075E+02 -0.80901510763E+02  0.67836702953E+03  0.61250034558E+03 0.  0.
   -5000001    2    3    3    0    0 -0.13812539762E+03 -0.50918876405E+01 -0.22866872781E+03  0.44691706984E+03  0.35824702015E+03 0.  0.
     200001    1    1    2    0    0  0.27297897857E+03  0.62948997075E+02 -0.18499765837E+03  0.69890860102E+03  0.61300000000E+03 0.  1.
         11    1    4    4    0    0  0.10748744382E+03 -0.14947620076E+02 -0.15376207744E+03  0.18820137721E+03  0.51100000000E-03 0.  1.
    -200002    1    4    4    0    0 -0.24561284144E+03  0.98557324359E+01 -0.74906650369E+02  0.25871569263E+03  0.30000000000E+02 0.  1.
    -200000    1    3    3    0    0 -0.13485358095E+03 -0.57857109434E+02  0.14776721705E+03  0.23144995969E+03  0.10100000000E+03 0.  1.
<mgrwt>
<rscale>  0 0.13513644E+04</rscale>
<asrwt>0</asrwt>
<pdfrwt beam="1">  1        2 0.79384033E-01 0.13513644E+04</pdfrwt>
<pdfrwt beam="2">  1       -2 0.11736963E+00 0.13513644E+04</pdfrwt>
<totfact> 0.32588319E+01</totfact>
</mgrwt>
</event>
<event>
 8    2  0.7266322E-052  0.1289531E+04  0.7818608E-02  0.9037909E-01
         -2   -1    0    0    0  501 -0.00000000000E+00  0.00000000000E+00  0.42612379294E+04  0.42612379294E+04  0.25500000000E-02 0. -1.
          2   -1    0    0  501    0  0.00000000000E+00 -0.00000000000E+00 -0.97559044378E+02  0.97559044411E+02  0.25500000000E-02 0.  1.
    -200001    2    1    2    0    0  0.80410311554E+02  0.10831759609E+03  0.15847361666E+04  0.17045714625E+04  0.61316933495E+03 0.  0.
   -5000001    2    3    3    0    0 -0.63859330651E+02  0.19547590578E+03  0.16686246256E+03  0.27314659856E+03  0.66911426812E+02 0.  0.
     200001    1    1    2    0    0 -0.80410311554E+02 -0.10831759609E+03  0.25789427185E+04  0.26542255114E+04  0.61300000000E+03 0. -1.
         11    1    4    4    0    0 -0.19188910379E+00  0.80334265693E+02  0.74966104715E+02  0.10987969750E+03  0.51100000000E-03 0.  1.
    -200002    1    4    4    0    0 -0.63667441547E+02  0.11514164009E+03  0.91896357846E+02  0.16326690106E+03  0.30000000000E+02 0.  1.
    -200000    1    3    3    0    0  0.14426964221E+03 -0.87158309688E+02  0.14178737040E+04  0.14314248639E+04  0.10100000000E+03 0.  1.
<mgrwt>
<rscale>  0 0.12895306E+04</rscale>
<asrwt>0</asrwt>
<pdfrwt beam="1">  1        2 0.13937008E-01 0.12895306E+04</pdfrwt>
<pdfrwt beam="2">  1       -2 0.60874821E+00 0.12895306E+04</pdfrwt>
<totfact> 0.19989192E-01</totfact>
</mgrwt>
</event>
<event>
 8    2  0.7266322E-052  0.1619484E+04  0.7818608E-02  0.8808667E-01
          2   -1    0    0  501    0  0.00000000000E+00  0.00000000000E+00  0.34566195837E+03  0.34566195838E+03  0.25500000000E-02 0.  1.
         -2   -1    0    0    0  501 -0.00000000000E+00 -0.00000000000E+00 -0.18968889115E+04  0.18968889115E+04  0.25500000000E-02 0. -1.
    -200001    2    1    2    0    0  0.50342885652E+03  0.39883812291E+02 -0.99488718058E+03  0.12728528372E+04  0.61263570825E+03 0.  0.
   -5000001    2    3    3    0    0  0.60618473883E+03  0.11116152604E+03 -0.70322378887E+03  0.93982458331E+03  0.94497236466E+02 0.  0.
     200001    1    1    2    0    0 -0.50342885652E+03 -0.39883812291E+02 -0.55633977257E+03  0.96969803269E+03  0.61300000000E+03 0.  1.
         11    1    4    4    0    0  0.45317252873E+03  0.65945069955E+02 -0.47558434408E+03  0.66022311485E+03  0.51100000000E-03 0.  1.
    -200002    1    4    4    0    0  0.15301221009E+03  0.45216456090E+02 -0.22763944480E+03  0.27960146846E+03  0.30000000000E+02 0.  1.
    -200000    1    3    3    0    0 -0.10275588231E+03 -0.71277713753E+02 -0.29166339170E+03  0.33302825388E+03  0.10100000000E+03 0.  1.
<mgrwt>
<rscale>  0 0.16194843E+04</rscale>
<asrwt>0</asrwt>
<pdfrwt beam="1">  1        2 0.49380281E-01 0.16194843E+04</pdfrwt>
<pdfrwt beam="2">  1       -2 0.27098412E+00 0.16194843E+04</pdfrwt>
<totfact> 0.46772338E+00</totfact>
</mgrwt>
</event>
<event>
 8    2  0.7266322E-052  0.1799366E+04  0.7818608E-02  0.8706637E-01
          2   -1    0    0  501    0  0.00000000000E+00  0.00000000000E+00  0.18669313238E+04  0.18669313238E+04  0.25500000000E-02 0. -1.
         -2   -1    0    0    0  501 -0.00000000000E+00 -0.00000000000E+00 -0.43356143453E+03  0.43356143453E+03  0.25500000000E-02 0.  1.
    -200001    2    1    2    0    0  0.15353643768E+03 -0.10298658434E+03 -0.91226568888E+02  0.64690785441E+03  0.61317844954E+03 0.  0.
   -5000001    2    3    3    0    0  0.27901554608E+03 -0.17149120951E+02 -0.26442613232E+03  0.39528876623E+03  0.90489015618E+02 0.  0.
     200001    1    1    2    0    0 -0.15353643768E+03  0.10298658434E+03  0.15245964582E+04  0.16535849039E+04  0.61300000000E+03 0. -1.
         11    1    4    4    0    0  0.10086152777E+02  0.92861615978E+01  0.28795613817E+01  0.14009109503E+02  0.51100000000E-03 0.  1.
    -200002    1    4    4    0    0  0.26892939330E+03 -0.26435282549E+02 -0.26730569370E+03  0.38127965672E+03  0.30000000000E+02 0. -1.
    -200000    1    3    3    0    0 -0.12547910840E+03 -0.85837463387E+02  0.17319956343E+03  0.25161908818E+03  0.10100000000E+03 0. -1.
<mgrwt>
<rscale>  0 0.17993659E+04</rscale>
<asrwt>0</asrwt>
<pdfrwt beam="1">  1        2 0.26670447E+00 0.17993659E+04</pdfrwt>
<pdfrwt beam="2">  1       -2 0.61937348E-01 0.17993659E+04</pdfrwt>
<totfact> 0.21538519E+01</totfact>
</mgrwt>
</event>
<event>
 8    2  0.7266322E-052  0.1269527E+04  0.7818608E-02  0.9054086E-01
         -2   -1    0    0    0  501 -0.00000000000E+00  0.00000000000E+00  0.36907001606E+03  0.36907001607E+03  0.25500000000E-02 0. -1.
          2   -1    0    0  501    0  0.00000000000E+00 -0.00000000000E+00 -0.10917298386E+04  0.10917298386E+04  0.25500000000E-02 0.  1.
    -200001    2    1    2    0    0 -0.14315495728E+03 -0.67555032750E+02 -0.35072219028E+03  0.72652223241E+03  0.61625601432E+03 0.  0.
   -5000001    2    3    3    0    0  0.14647170329E+03 -0.10473568326E+03 -0.32804963292E+03  0.41671414966E+03  0.18333193300E+03 0.  0.
     200001    1    1    2    0    0  0.14315495728E+03  0.67555032750E+02 -0.37193763224E+03  0.73427762224E+03  0.61300000000E+03 0.  1.
         11    1    4    4    0    0  0.40316238276E+02 -0.10223895422E+03 -0.27112915909E+03  0.29255635994E+03  0.51100000000E-03 0.  1.
    -200002    1    4    4    0    0  0.10615546501E+03 -0.24967290348E+01 -0.56920473826E+02  0.12415778972E+03  0.30000000000E+02 0.  1.
    -200000    1    3    3    0    0 -0.28962666057E+03  0.37180650510E+02 -0.22672557369E+02  0.30980808276E+03  0.10100000000E+03 0.  1.
<mgrwt>
<rscale>  0 0.12695271E+04</rscale>
<asrwt>0</asrwt>
<pdfrwt beam="1">  1        2 0.15596140E+00 0.12695271E+04</pdfrwt>
<pdfrwt beam="2">  1       -2 0.52724289E-01 0.12695271E+04</pdfrwt>
<totfact> 0.82398650E+01</totfact>
</mgrwt>
</event>
<event>
 8    2  0.7266322E-052  0.1745392E+04  0.7818608E-02  0.8735891E-01
         -2   -1    0    0    0  501 -0.00000000000E+00  0.00000000000E+00  0.68157045441E+03  0.68157045441E+03  0.25500000000E-02 0. -1.
          2   -1    0    0  501    0  0.00000000000E+00 -0.00000000000E+00 -0.11174174262E+04  0.11174174262E+04  0.25500000000E-02 0.  1.
    -200001    2    1    2    0    0 -0.21648972746E+03  0.52189510415E+03  0.48213403303E+02  0.83497245099E+03  0.61287205828E+03 0.  0.
   -5000001    2    3    3    0    0 -0.45272563664E+02 -0.38066619257E+02  0.19810872092E+03  0.22215758898E+03  0.81291183477E+02 0.  0.
     200001    1    1    2    0    0  0.21648972746E+03 -0.52189510415E+03 -0.48406037512E+03  0.96401542965E+03  0.61300000000E+03 0. -1.
         11    1    4    4    0    0 -0.22391276723E+02 -0.46610812186E+02  0.15879400310E+03  0.16700141468E+03  0.51100000000E-03 0.  1.
    -200002    1    4    4    0    0 -0.22881286940E+02  0.85441929294E+01  0.39314717826E+02  0.55156174292E+02  0.30000000000E+02 0.  1.
    -200000    1    3    3    0    0 -0.17121716380E+03  0.55996172341E+03 -0.14989531762E+03  0.61281486201E+03  0.10100000000E+03 0.  1.
<mgrwt>
<rscale>  0 0.17453925E+04</rscale>
<asrwt>0</asrwt>
<pdfrwt beam="1">  1        2 0.15963106E+00 0.17453925E+04</pdfrwt>
<pdfrwt beam="2">  1       -2 0.97367208E-01 0.17453925E+04</pdfrwt>
<totfact> 0.19963716E+01</totfact>
</mgrwt>
</event>
<event>
 8    2  0.7266322E-052  0.1392537E+04  0.7818608E-02  0.8959239E-01
          2   -1    0    0  501    0  0.00000000000E+00  0.00000000000E+00  0.38181613641E+03  0.38181613642E+03  0.25500000000E-02 0.  1.
         -2   -1    0    0    0  501 -0.00000000000E+00 -0.00000000000E+00 -0.12696937466E+04  0.12696937466E+04  0.25500000000E-02 0. -1.
    -200001    2    1    2    0    0 -0.31734199643E+03  0.46873111876E+02 -0.53527378333E+03  0.87497817726E+03  0.61332353309E+03 0.  0.
   -5000001    2    3    3    0    0 -0.15634712125E+03 -0.26585133998E+03 -0.24660267557E+03  0.40887953847E+03  0.10605772055E+03 0.  0.
     200001    1    1    2    0    0  0.31734199643E+03 -0.46873111876E+02 -0.35260382683E+03  0.77653170573E+03  0.61300000000E+03 0.  1.
         11    1    4    4    0    0 -0.11591397207E+03 -0.16006357570E+03 -0.10083238300E+03  0.22186384710E+03  0.51100000000E-03 0.  1.
    -200002    1    4    4    0    0 -0.40433149185E+02 -0.10578776428E+03 -0.14577029257E+03  0.18701569137E+03  0.30000000000E+02 0.  1.
    -200000    1    3    3    0    0 -0.16099487518E+03  0.31272445186E+03 -0.28867110776E+03  0.46609863879E+03  0.10100000000E+03 0. -1.
<mgrwt>
<rscale>  0 0.13925366E+04</rscale>
<asrwt>0</asrwt>
<pdfrwt beam="1">  1        2 0.54545163E-01 0.13925366E+04</pdfrwt>
<pdfrwt beam="2">  1       -2 0.18138482E+00 0.13925366E+04</pdfrwt>
<totfact> 0.15747695E+01</totfact>
</mgrwt>
</event>
<event>
 8    2  0.7266322E-052  0.1909381E+04  0.7818608E-02  0.8650201E-01
          2   -1    0    0  501    0  0.00000000000E+00  0.00000000000E+00  0.14870204450E+04  0.14870204450E+04  0.25500000000E-02 0.  1.
         -2   -1    0    0    0  501 -0.00000000000E+00 -0.00000000000E+00 -0.61292661097E+03  0.61292661097E+03  0.25500000000E-02 0. -1.
    -200001    2    1    2    0    0 -0.18604201774E+03  0.67788961599E+03  0.66108848925E+03  0.11432411237E+04  0.61303858975E+03 0.  0.
   -5000001    2    3    3    0    0  0.38259018699E+02 -0.63787142481E+02  0.22110253237E+03  0.24647804952E+03  0.79577302150E+02 0.  0.
     200001    1    1    2    0    0  0.18604201774E+03 -0.67788961599E+03  0.21300534474E+03  0.95670593220E+03  0.61300000000E+03 0. -1.
         11    1    4    4    0    0 -0.14430824805E+02 -0.27339901271E+02  0.31626125657E+02  0.44225905648E+02  0.51100000000E-03 0.  1.
    -200002    1    4    4    0    0  0.52689843504E+02 -0.36447241210E+02  0.18947640671E+03  0.20225214387E+03  0.30000000000E+02 0.  1.
    -200000    1    3    3    0    0 -0.22430103643E+03  0.74167675847E+03  0.43998595688E+03  0.89676307420E+03  0.10100000000E+03 0.  1.
<mgrwt>
<rscale>  0 0.19093815E+04</rscale>
<asrwt>0</asrwt>
<pdfrwt beam="1">  1        2 0.21243149E+00 0.19093815E+04</pdfrwt>
<pdfrwt beam="2">  1       -2 0.87560946E-01 0.19093815E+04</pdfrwt>
<totfact> 0.15707331E+01</totfact>
</mgrwt>
</event>
<event>
 8    2  0.7266322E-052  0.1734039E+04  0.7818608E-02  0.8742185E-01
          2   -1    0    0  501    0  0.00000000000E+00  0.00000000000E+00  0.76069437518E+03  0.76069437518E+03  0.25500000000E-02 0.  1.
         -2   -1    0    0    0  501 -0.00000000000E+00 -0.00000000000E+00 -0.98820594325E+03  0.98820594325E+03  0.25500000000E-02 0. -1.
    -200001    2    1    2    0    0 -0.83180475237E+01  0.36162235464E+03  0.38541078122E+03  0.80960125874E+03  0.61324775628E+03 0.  0.
   -5000001    2    3    3    0    0  0.86761987691E+01  0.50992047786E+03  0.21592714198E+03  0.56220109356E+03  0.96702475614E+02 0.  0.
     200001    1    1    2    0    0  0.83180475237E+01 -0.36162235464E+03 -0.61292234929E+03  0.93929905970E+03  0.61300000000E+03 0. -1.
         11    1    4    4    0    0 -0.33261885090E+02  0.23386377124E+03  0.12348322816E+03  0.26654591375E+03  0.51100000000E-03 0.  1.
    -200002    1    4    4    0    0  0.41938083859E+02  0.27605670662E+03  0.92443913819E+02  0.29565517981E+03  0.30000000000E+02 0. -1.
    -200000    1    3    3    0    0 -0.16994246293E+02 -0.14829812323E+03  0.16948363924E+03  0.24740016518E+03  0.10100000000E+03 0. -1.
<mgrwt>
<rscale>  0 0.17340389E+04</rscale>
<asrwt>0</asrwt>
<pdfrwt beam="1">  1        2 0.10867063E+00 0.17340389E+04</pdfrwt>
<pdfrwt beam="2">  1       -2 0.14117228E+00 0.17340389E+04</pdfrwt>
<totfact> 0.13558266E+01</totfact>
</mgrwt>
</event>
<event>
 8    2  0.7266322E-052  0.1420103E+04  0.7818608E-02  0.8939394E-01
          2   -1    0    0  501    0  0.00000000000E+00  0.00000000000E+00  0.28921654129E+04  0.28921654129E+04  0.25500000000E-02 0.  1.
         -2   -1    0    0    0  501 -0.00000000000E+00 -0.00000000000E+00 -0.17432372195E+03  0.17432372197E+03  0.25500000000E-02 0. -1.
    -200001    2    1    2    0    0 -0.64683640436E+02 -0.34893856370E+03  0.12356293147E+04  0.14237278549E+04  0.61178354583E+03 0.  0.
   -5000001    2    3    3    0    0  0.26112697974E+03 -0.12882761383E+03  0.48909482451E+03  0.57395368755E+03  0.73656190912E+02 0.  0.
     200001    1    1    2    0    0  0.64683640436E+02  0.34893856370E+03  0.14822123762E+04  0.16427612799E+04  0.61300000000E+03 0. -1.
         11    1    4    4    0    0  0.16921311507E+03 -0.81702694561E+02  0.25923848511E+03  0.32017651503E+03  0.51100000000E-03 0.  1.
    -200002    1    4    4    0    0  0.91913864671E+02 -0.47124919267E+02  0.22985633940E+03  0.25377717253E+03  0.30000000000E+02 0.  1.
    -200000    1    3    3    0    0 -0.32581062018E+03 -0.22011094987E+03  0.74653449020E+03  0.84977416737E+03  0.10100000000E+03 0.  1.
<mgrwt>
<rscale>  0 0.14201029E+04</rscale>
<asrwt>0</asrwt>
<pdfrwt beam="1">  1        2 0.41316644E+00 0.14201029E+04</pdfrwt>
<pdfrwt beam="2">  1       -2 0.24903392E-01 0.14201029E+04</pdfrwt>
<totfact> 0.38265238E+01</totfact>
</mgrwt>
</event>
<event>
 8    2  0.7266322E-052  0.1321479E+04  0.7818608E-02  0.9012703E-01
         -2   -1    0    0    0  501 -0.00000000000E+00  0.00000000000E+00  0.10888727933E+04  0.10888727933E+04  0.25500000000E-02 0. -1.
          2   -1    0    0  501    0  0.00000000000E+00 -0.00000000000E+00 -0.40094392402E+03  0.40094392403E+03  0.25500000000E-02 0.  1.
    -200001    2    1    2    0    0  0.64461262662E+02 -0.16200348476E+03  0.14945516746E+03  0.65547667213E+03  0.61393194832E+03 0.  0.
   -5000001    2    3    3    0    0  0.30018170107E+03 -0.17347607869E+02  0.18635011494E+03  0.35874163046E+03  0.59659022184E+02 0.  0.
     200001    1    1    2    0    0 -0.64461262662E+02  0.16200348476E+03  0.53847370178E+03  0.83434004517E+03  0.61300000000E+03 0. -1.
         11    1    4    4    0    0 -0.15770279639E+01 -0.24612166924E+01  0.20550538656E+01  0.35732130439E+01  0.51100000000E-03 0.  1.
    -200002    1    4    4    0    0  0.30175872904E+03 -0.14886391177E+02  0.18429506108E+03  0.35516841742E+03  0.30000000000E+02 0.  1.
    -200000    1    3    3    0    0 -0.23572043841E+03 -0.14465587689E+03 -0.36894947478E+02  0.29673504167E+03  0.10100000000E+03 0. -1.
<mgrwt>
<rscale>  0 0.13214794E+04</rscale>
<asrwt>0</asrwt>
<pdfrwt beam="1">  1        2 0.57277704E-01 0.13214794E+04</pdfrwt>
<pdfrwt beam="2">  1       -2 0.15555325E+00 0.13214794E+04</pdfrwt>
<totfact> 0.22962711E+01</totfact>
</mgrwt>
</event>
<event>
 8    2  0.7266322E-052  0.1424765E+04  0.7818608E-02  0.8936085E-01
          2   -1    0    0  501    0  0.00000000000E+00  0.00000000000E+00  0.16969757276E+04  0.16969757276E+04  0.25500000000E-02 0.  1.
         -2   -1    0    0    0  501 -0.00000000000E+00 -0.00000000000E+00 -0.29905469934E+03  0.29905469935E+03  0.25500000000E-02 0. -1.
    -200001    2    1    2    0    0 -0.34391527253E+03 -0.40554364465E+02  0.54928615831E+03  0.89336433349E+03  0.61356513711E+03 0.  0.
   -5000001    2    3    3    0    0 -0.47635512364E+02 -0.28980950754E+03  0.26135272069E+03  0.40039730910E+03  0.75855572147E+02 0.  0.
     200001    1    1    2    0    0  0.34391527253E+03  0.40554364465E+02  0.84863486991E+03  0.11026660934E+04  0.61300000000E+03 0. -1.
         11    1    4    4    0    0 -0.34230037927E+02 -0.23275370376E+03  0.22325508862E+03  0.32432825456E+03  0.51100000000E-03 0.  1.
    -200002    1    4    4    0    0 -0.13405474437E+02 -0.57055803779E+02  0.38097632074E+02  0.76069054545E+02  0.30000000000E+02 0.  1.
    -200000    1    3    3    0    0 -0.29627976016E+03  0.24925514307E+03  0.28793343761E+03  0.49296702438E+03  0.10100000000E+03 0.  1.
<mgrwt>
<rscale>  0 0.14247646E+04</rscale>
<asrwt>0</asrwt>
<pdfrwt beam="1">  1        2 0.24242510E+00 0.14247646E+04</pdfrwt>
<pdfrwt beam="2">  1       -2 0.42722101E-01 0.14247646E+04</pdfrwt>
<totfact> 0.58140008E+01</totfact>
</mgrwt>
</event>
<event>
 8    2  0.7266322E-052  0.1732601E+04  0.7818608E-02  0.8742986E-01
         -2   -1    0    0    0  501 -0.00000000000E+00  0.00000000000E+00  0.38784744668E+03  0.38784744669E+03  0.25500000000E-02 0. -1.
          2   -1    0    0  501    0  0.00000000000E+00 -0.00000000000E+00 -0.19349785275E+04  0.19349785275E+04  0.25500000000E-02 0.  1.
    -200001    2    1    2    0    0 -0.11189152220E+03  0.58872202912E+03 -0.60533778092E+03  0.10493044942E+04  0.61277463408E+03 0.  0.
   -5000001    2    3    3    0    0  0.12966310332E+03  0.31837226731E+03 -0.28345558279E+02  0.36042231571E+03  0.10453398506E+03 0.  0.
     200001    1    1    2    0    0  0.11189152220E+03 -0.58872202912E+03 -0.94179329989E+03  0.12735214800E+04  0.61300000000E+03 0.  1.
         11    1    4    4    0    0  0.29669573916E+02  0.10559591715E+03  0.34932292124E+02  0.11511318938E+03  0.51100000000E-03 0.  1.
    -200002    1    4    4    0    0  0.99993529406E+02  0.21277635015E+03 -0.63277850403E+02  0.24530912633E+03  0.30000000000E+02 0.  1.
    -200000    1    3    3    0    0 -0.24155462552E+03  0.27034976181E+03 -0.57699222264E+03  0.68888217847E+03  0.10100000000E+03 0.  1.
<mgrwt>
<rscale>  0 0.17326009E+04</rscale>
<asrwt>0</asrwt>
<pdfrwt beam="1">  1        2 0.27642550E+00 0.17326009E+04</pdfrwt>
<pdfrwt beam="2">  1       -2 0.55406779E-01 0.17326009E+04</pdfrwt>
<totfact> 0.25247040E+01</totfact>
</mgrwt>
</event>
<event>
 8    2  0.7266322E-052  0.1602856E+04  0.7818608E-02  0.8818795E-01
         -2   -1    0    0    0  501 -0.00000000000E+00  0.00000000000E+00  0.79216045247E+03  0.79216045247E+03  0.25500000000E-02 0. -1.
          2   -1    0    0  501    0  0.00000000000E+00 -0.00000000000E+00 -0.81080394229E+03  0.81080394230E+03  0.25500000000E-02 0.  1.
    -200001    2    1    2    0    0 -0.33205509719E+03  0.11281059963E+03  0.36647636218E+03  0.79855584225E+03  0.61676550665E+03 0.  0.
   -5000001    2    3    3    0    0 -0.37519951517E+03  0.20354935269E+03  0.40935276693E+03  0.64977967415E+03  0.26914108194E+03 0.  0.
     200001    1    1    2    0    0  0.33205509719E+03 -0.11281059963E+03 -0.38511985201E+03  0.80440855252E+03  0.61300000000E+03 0.  1.
         11    1    4    4    0    0 -0.31730436223E+03  0.84043589558E+02  0.15882341512E+03  0.36465087471E+03  0.51100000000E-03 0.  1.
    -200002    1    4    4    0    0 -0.57895152938E+02  0.11950576313E+03  0.25052935181E+03  0.28512879944E+03  0.30000000000E+02 0.  1.
    -200000    1    3    3    0    0  0.43144417978E+02 -0.90738753057E+02 -0.42876404744E+02  0.14877616809E+03  0.10100000000E+03 0.  1.
<mgrwt>
<rscale>  0 0.16028560E+04</rscale>
<asrwt>0</asrwt>
<pdfrwt beam="1">  1        2 0.11582913E+00 0.16028560E+04</pdfrwt>
<pdfrwt beam="2">  1       -2 0.11316578E+00 0.16028560E+04</pdfrwt>
<totfact> 0.22015335E+01</totfact>
</mgrwt>
</event>
<event>
 8    2  0.7266322E-052  0.2182606E+04  0.7818608E-02  0.8525703E-01
          2   -1    0    0  501    0  0.00000000000E+00  0.00000000000E+00  0.21906456737E+04  0.21906456737E+04  0.25500000000E-02 0.  1.
         -2   -1    0    0    0  501 -0.00000000000E+00 -0.00000000000E+00 -0.54364915740E+03  0.54364915741E+03  0.25500000000E-02 0. -1.
    -200001    2    1    2    0    0 -0.39816415672E+03  0.64278733009E+03  0.14417047150E+04  0.17394963736E+04  0.61288245273E+03 0.  0.
   -5000001    2    3    3    0    0 -0.40148628588E+03  0.22900283357E+03  0.40415879984E+03  0.61792106524E+03  0.69631687062E+02 0.  0.
     200001    1    1    2    0    0  0.39816415672E+03 -0.64278733009E+03  0.20529180123E+03  0.99479845751E+03  0.61300000000E+03 0. -1.
         11    1    4    4    0    0 -0.14053591394E+03  0.63545639156E+02  0.16647979859E+03  0.22694473931E+03  0.51100000000E-03 0.  1.
    -200002    1    4    4    0    0 -0.26095037195E+03  0.16545719441E+03  0.23767900125E+03  0.39097632593E+03  0.30000000000E+02 0.  1.
    -200000    1    3    3    0    0  0.33221291634E+01  0.41378449652E+03  0.10375459152E+04  0.11215753083E+04  0.10100000000E+03 0.  1.
<mgrwt>
<rscale>  0 0.21826064E+04</rscale>
<asrwt>0</asrwt>
<pdfrwt beam="1">  1        2 0.31294938E+00 0.21826064E+04</pdfrwt>
<pdfrwt beam="2">  1       -2 0.77664165E-01 0.21826064E+04</pdfrwt>
<totfact> 0.86863855E+00</totfact>
</mgrwt>
</event>
<event>
 8    2  0.7266322E-052  0.2236201E+04  0.7818608E-02  0.8503510E-01
          2   -1    0    0  501    0  0.00000000000E+00  0.00000000000E+00  0.16729894403E+04  0.16729894403E+04  0.25500000000E-02 0.  1.
         -2   -1    0    0    0  501 -0.00000000000E+00 -0.00000000000E+00 -0.74725429453E+03  0.74725429453E+03  0.25500000000E-02 0. -1.
    -200001    2    1    2    0    0  0.86160785183E+03 -0.93975820622E+02  0.81409245722E+02  0.10638312715E+04  0.61148177713E+03 0.  0.
   -5000001    2    3    3    0    0  0.14012759778E+03  0.64778704254E+02  0.23935226240E+03  0.30167396972E+03  0.99426627756E+02 0.  0.
     200001    1    1    2    0    0 -0.86160785183E+03  0.93975820622E+02  0.84432590010E+03  0.13564124634E+04  0.61300000000E+03 0. -1.
         11    1    4    4    0    0 -0.77702631437E+01  0.26809046440E+02  0.40035078609E+02  0.48804810007E+02  0.51100000000E-03 0.  1.
    -200002    1    4    4    0    0  0.14789786092E+03  0.37969657814E+02  0.19931718379E+03  0.25286915971E+03  0.30000000000E+02 0.  1.
    -200000    1    3    3    0    0  0.72148025405E+03 -0.15875452488E+03 -0.15794301668E+03  0.76215730179E+03  0.10100000000E+03 0. -1.
<mgrwt>
<rscale>  0 0.22362008E+04</rscale>
<asrwt>0</asrwt>
<pdfrwt beam="1">  1        2 0.23899849E+00 0.22362008E+04</pdfrwt>
<pdfrwt beam="2">  1       -2 0.10675062E+00 0.22362008E+04</pdfrwt>
<totfact> 0.76672052E+00</totfact>
</mgrwt>
</event>
<event>
 8    2  0.7266322E-052  0.1489486E+04  0.7818608E-02  0.8891475E-01
          2   -1    0    0  501    0  0.00000000000E+00  0.00000000000E+00  0.46883053666E+03  0.46883053667E+03  0.25500000000E-02 0.  1.
         -2   -1    0    0    0  501 -0.00000000000E+00 -0.00000000000E+00 -0.11830333204E+04  0.11830333204E+04  0.25500000000E-02 0. -1.
    -200001    2    1    2    0    0  0.35363182062E+03  0.22719536148E+03 -0.40596897634E+03  0.84722090713E+03  0.61343235886E+03 0.  0.
   -5000001    2    3    3    0    0  0.21191129310E+03 -0.70964346334E+02  0.79695433388E+02  0.25135612535E+03  0.82983161279E+02 0.  0.
     200001    1    1    2    0    0 -0.35363182062E+03 -0.22719536148E+03 -0.30823380736E+03  0.80464294991E+03  0.61300000000E+03 0. -1.
         11    1    4    4    0    0  0.16752350516E+03 -0.74986587956E+02  0.71656005144E+02  0.19703222129E+03  0.51100000000E-03 0.  1.
    -200002    1    4    4    0    0  0.44387787939E+02  0.40222416213E+01  0.80394282441E+01  0.54323904060E+02  0.30000000000E+02 0. -1.
    -200000    1    3    3    0    0  0.14172052752E+03  0.29815970781E+03 -0.48566440973E+03  0.59586478177E+03  0.10100000000E+03 0. -1.
<mgrwt>
<rscale>  0 0.14894860E+04</rscale>
<asrwt>0</asrwt>
<pdfrwt beam="1">  1        2 0.66975791E-01 0.14894860E+04</pdfrwt>
<pdfrwt beam="2">  1       -2 0.16900476E+00 0.14894860E+04</pdfrwt>
<totfact> 0.15155034E+01</totfact>
</mgrwt>
</event>
<event>
 8    2  0.7266322E-052  0.1292775E+04  0.7818608E-02  0.9035314E-01
         -2   -1    0    0    0  501 -0.00000000000E+00  0.00000000000E+00  0.97870498593E+03  0.97870498594E+03  0.25500000000E-02 0. -1.
          2   -1    0    0  501    0  0.00000000000E+00 -0.00000000000E+00 -0.42690806465E+03  0.42690806466E+03  0.25500000000E-02 0.  1.
    -200001    2    1    2    0    0  0.11073163838E+03 -0.17013756798E+03  0.24411662647E+03  0.69031978794E+03  0.61297650406E+03 0.  0.
   -5000001    2    3    3    0    0 -0.43580640638E+01 -0.24467472580E+03 -0.12300977688E+03  0.28561715200E+03  0.81000235454E+02 0.  0.
     200001    1    1    2    0    0 -0.11073163838E+03  0.17013756798E+03  0.30768029482E+03  0.71529326265E+03  0.61300000000E+03 0. -1.
         11    1    4    4    0    0 -0.47822594179E+00  0.45880998803E+01  0.21167511408E+01  0.50754306435E+01  0.51100000000E-03 0.  1.
    -200002    1    4    4    0    0 -0.38798381220E+01 -0.24926282568E+03 -0.12512652802E+03  0.28054172136E+03  0.30000000000E+02 0.  1.
    -200000    1    3    3    0    0  0.11508970245E+03  0.74537157816E+02  0.36712640334E+03  0.40470263594E+03  0.10100000000E+03 0. -1.
<mgrwt>
<rscale>  0 0.12927754E+04</rscale>
<asrwt>0</asrwt>
<pdfrwt beam="1">  1        2 0.60986866E-01 0.12927754E+04</pdfrwt>
<pdfrwt beam="2">  1       -2 0.13981500E+00 0.12927754E+04</pdfrwt>
<totfact> 0.28422740E+01</totfact>
</mgrwt>
</event>
<event>
 8    2  0.7266322E-052  0.2122886E+04  0.7818608E-02  0.8551229E-01
          2   -1    0    0  501    0  0.00000000000E+00  0.00000000000E+00  0.33073196557E+04  0.33073196557E+04  0.25500000000E-02 0.  1.
         -2   -1    0    0    0  501 -0.00000000000E+00 -0.00000000000E+00 -0.34065680434E+03  0.34065680435E+03  0.25500000000E-02 0. -1.
    -200001    2    1    2    0    0 -0.16534093155E+03 -0.79427498489E+03  0.20069086926E+04  0.22497249017E+04  0.61267385901E+03 0.  0.
   -5000001    2    3    3    0    0 -0.74986076370E+02 -0.54834350561E+03  0.62138791258E+03  0.83603641965E+03  0.80811170494E+02 0.  0.
     200001    1    1    2    0    0  0.16534093155E+03  0.79427498489E+03  0.95975415880E+03  0.13982515584E+04  0.61300000000E+03 0. -1.
         11    1    4    4    0    0  0.90901280512E+01 -0.43424170370E+02  0.71780988275E+02  0.84384828484E+02  0.51100000000E-03 0.  1.
    -200002    1    4    4    0    0 -0.84076204422E+02 -0.50491933524E+03  0.54960692430E+03  0.75165159116E+03  0.30000000000E+02 0.  1.
    -200000    1    3    3    0    0 -0.90354855175E+02 -0.24593147928E+03  0.13855207800E+04  0.14136884820E+04  0.10100000000E+03 0.  1.
<mgrwt>
<rscale>  0 0.21228857E+04</rscale>
<asrwt>0</asrwt>
<pdfrwt beam="1">  1        2 0.47247423E+00 0.21228857E+04</pdfrwt>
<pdfrwt beam="2">  1       -2 0.48665258E-01 0.21228857E+04</pdfrwt>
<totfact> 0.58061692E+00</totfact>
</mgrwt>
</event>
<event>
 8    2  0.7266322E-052  0.1607122E+04  0.7818608E-02  0.8816184E-01
         -2   -1    0    0    0  501 -0.00000000000E+00  0.00000000000E+00  0.41732568979E+03  0.41732568980E+03  0.25500000000E-02 0. -1.
          2   -1    0    0  501    0  0.00000000000E+00 -0.00000000000E+00 -0.15472578691E+04  0.15472578691E+04  0.25500000000E-02 0.  1.
    -200001    2    1    2    0    0  0.56184894122E+02  0.51568125641E+03 -0.53128739460E+03  0.96297062029E+03  0.61315758116E+03 0.  0.
   -5000001    2    3    3    0    0  0.66462994150E+02  0.33367777157E+02 -0.41528809526E+03  0.45662215425E+03  0.17466783204E+03 0.  0.
     200001    1    1    2    0    0 -0.56184894122E+02 -0.51568125641E+03 -0.59864478469E+03  0.10016129386E+04  0.61300000000E+03 0.  1.
         11    1    4    4    0    0  0.92188515179E+02  0.49341187117E+02 -0.12386491864E+03  0.16209809729E+03  0.51100000000E-03 0.  1.
    -200002    1    4    4    0    0 -0.25725521029E+02 -0.15973409959E+02 -0.29142317662E+03  0.29452405696E+03  0.30000000000E+02 0.  1.
    -200000    1    3    3    0    0 -0.10278100028E+02  0.48231347925E+03 -0.11599929935E+03  0.50634846604E+03  0.10100000000E+03 0. -1.
<mgrwt>
<rscale>  0 0.16071222E+04</rscale>
<asrwt>0</asrwt>
<pdfrwt beam="1">  1        2 0.22103684E+00 0.16071222E+04</pdfrwt>
<pdfrwt beam="2">  1       -2 0.59617957E-01 0.16071222E+04</pdfrwt>
<totfact> 0.34781564E+01</totfact>
</mgrwt>
</event>
<event>
 8    2  0.7266322E-052  0.1383470E+04  0.7818608E-02  0.8965872E-01
          2   -1    0    0  501    0  0.00000000000E+00  0.00000000000E+00  0.93602999108E+03  0.93602999108E+03  0.25500000000E-02 0.  1.
         -2   -1    0    0    0  501 -0.00000000000E+00 -0.00000000000E+00 -0.51119864428E+03  0.51119864428E+03  0.25500000000E-02 0. -1.
    -200001    2    1    2    0    0  0.26707244959E+02  0.28107830313E+03  0.37176594770E+03  0.77024767108E+03  0.61266080788E+03 0.  0.
   -5000001    2    3    3    0    0  0.95066309420E+02  0.23522105822E+03 -0.96694444951E+02  0.28400494559E+03  0.83321329906E+02 0.  0.
     200001    1    1    2    0    0 -0.26707244959E+02 -0.28107830313E+03  0.53065399096E+02  0.67698096428E+03  0.61300000000E+03 0. -1.
         11    1    4    4    0    0  0.78094040783E+02  0.10839511380E+03 -0.66144264170E+02  0.14907462422E+03  0.51100000000E-03 0.  1.
    -200002    1    4    4    0    0  0.16972268637E+02  0.12682594442E+03 -0.30550180781E+02  0.13493032137E+03  0.30000000000E+02 0. -1.
    -200000    1    3    3    0    0 -0.68359064462E+02  0.45857244904E+02  0.46846039265E+03  0.48624272549E+03  0.10100000000E+03 0.  1.
<mgrwt>
<rscale>  0 0.13834699E+04</rscale>
<asrwt>0</asrwt>
<pdfrwt beam="1">  1        2 0.13371857E+00 0.13834699E+04</pdfrwt>
<pdfrwt beam="2">  1       -2 0.73028378E-01 0.13834699E+04</pdfrwt>
<totfact> 0.50944862E+01</totfact>
</mgrwt>
</event>
<event>
 8    2  0.7266322E-052  0.1404094E+04  0.7818608E-02  0.8950861E-01
         -2   -1    0    0    0  501 -0.00000000000E+00  0.00000000000E+00  0.50402650691E+03  0.50402650692E+03  0.25500000000E-02 0. -1.
          2   -1    0    0  501    0  0.00000000000E+00 -0.00000000000E+00 -0.97786478236E+03  0.97786478237E+03  0.25500000000E-02 0.  1.
    -200001    2    1    2    0    0  0.87216195508E+02  0.20719926147E+03  0.35380964438E+02  0.65387472364E+03  0.61299440687E+03 0.  0.
   -5000001    2    3    3    0    0  0.29912674698E+03  0.41837369523E+02 -0.93483558855E+02  0.33914038726E+03  0.12267783111E+03 0.  0.
     200001    1    1    2    0    0 -0.87216195508E+02 -0.20719926147E+03 -0.50921923989E+03  0.82801656565E+03  0.61300000000E+03 0.  1.
         11    1    4    4    0    0  0.18357714559E+03  0.78447960678E+02 -0.73212718270E+02  0.21263760965E+03  0.51100000000E-03 0.  1.
    -200002    1    4    4    0    0  0.11554960139E+03 -0.36610591155E+02 -0.20270840586E+02  0.12650277761E+03  0.30000000000E+02 0.  1.
    -200000    1    3    3    0    0 -0.21191055147E+03  0.16536189194E+03  0.12886452329E+03  0.31473433638E+03  0.10100000000E+03 0.  1.
<mgrwt>
<rscale>  0 0.14040937E+04</rscale>
<asrwt>0</asrwt>
<pdfrwt beam="1">  1        2 0.13969497E+00 0.14040937E+04</pdfrwt>
<pdfrwt beam="2">  1       -2 0.72003788E-01 0.14040937E+04</pdfrwt>
<totfact> 0.49371802E+01</totfact>
</mgrwt>
</event>
<event>
 8    2  0.7266322E-052  0.1801183E+04  0.7818608E-02  0.8705670E-01
         -2   -1    0    0    0  501 -0.00000000000E+00  0.00000000000E+00  0.44359519527E+03  0.44359519528E+03  0.25500000000E-02 0. -1.
          2   -1    0    0  501    0  0.00000000000E+00 -0.00000000000E+00 -0.18283906381E+04  0.18283906381E+04  0.25500000000E-02 0.  1.
    -200001    2    1    2    0    0 -0.86209854910E+02 -0.45800140849E+03 -0.10309683890E+03  0.77675416553E+03  0.61279739409E+03 0.  0.
   -5000001    2    3    3    0    0  0.83673279441E+02  0.89746330621E+02  0.80902616516E+02  0.16606220993E+03  0.77303315936E+02 0.  0.
     200001    1    1    2    0    0  0.86209854910E+02  0.45800140849E+03 -0.12816986039E+04  0.14952316678E+04  0.61300000000E+03 0. -1.
         11    1    4    4    0    0  0.53827243998E+02  0.84504677423E+02  0.43069283294E+02  0.10905675525E+03  0.51100000000E-03 0.  1.
    -200002    1    4    4    0    0  0.29846035443E+02  0.52416531979E+01  0.37833333223E+02  0.57005454674E+02  0.30000000000E+02 0.  1.
    -200000    1    3    3    0    0 -0.16988313435E+03 -0.54774773911E+03 -0.18399945542E+03  0.61069195560E+03  0.10100000000E+03 0.  1.
<mgrwt>
<rscale>  0 0.18011833E+04</rscale>
<asrwt>0</asrwt>
<pdfrwt beam="1">  1        2 0.26119866E+00 0.18011833E+04</pdfrwt>
<pdfrwt beam="2">  1       -2 0.63370743E-01 0.18011833E+04</pdfrwt>
<totfact> 0.21471759E+01</totfact>
</mgrwt>
</event>
<event>
 8    2  0.7266322E-052  0.1390128E+04  0.7818608E-02  0.8960996E-01
         -2   -1    0    0    0  501 -0.00000000000E+00  0.00000000000E+00  0.28811286582E+03  0.28811286583E+03  0.25500000000E-02 0. -1.
          2   -1    0    0  501    0  0.00000000000E+00 -0.00000000000E+00 -0.16768207758E+04  0.16768207758E+04  0.25500000000E-02 0.  1.
    -200001    2    1    2    0    0 -0.16756093349E+03 -0.27865389952E+03 -0.77779801227E+03  0.10404313078E+04  0.60975642368E+03 0.  0.
   -5000001    2    3    3    0    0 -0.33021636716E+03 -0.27828950876E+03 -0.30894007807E+03  0.53398714964E+03  0.56660429858E+02 0.  0.
     200001    1    1    2    0    0  0.16756093349E+03  0.27865389952E+03 -0.61090989774E+03  0.92450233386E+03  0.61300000000E+03 0.  1.
         11    1    4    4    0    0 -0.93640071817E+02 -0.77914095701E+02 -0.63153837180E+02  0.13721325195E+03  0.51100000000E-03 0.  1.
    -200002    1    4    4    0    0 -0.23657629535E+03 -0.20037541306E+03 -0.24578624089E+03  0.39677389769E+03  0.30000000000E+02 0.  1.
    -200000    1    3    3    0    0  0.16265543367E+03 -0.36439076026E+00 -0.46885793420E+03  0.50644415817E+03  0.10100000000E+03 0.  1.
<mgrwt>
<rscale>  0 0.13901275E+04</rscale>
<asrwt>0</asrwt>
<pdfrwt beam="1">  1        2 0.23954582E+00 0.13901275E+04</pdfrwt>
<pdfrwt beam="2">  1       -2 0.41158982E-01 0.13901275E+04</pdfrwt>
<totfact> 0.64267030E+01</totfact>
</mgrwt>
</event>
<event>
 8    2  0.7266322E-052  0.1269357E+04  0.7818608E-02  0.9054224E-01
          2   -1    0    0  501    0  0.00000000000E+00  0.00000000000E+00  0.74907221764E+03  0.74907221765E+03  0.25500000000E-02 0.  1.
         -2   -1    0    0    0  501 -0.00000000000E+00 -0.00000000000E+00 -0.53775448143E+03  0.53775448143E+03  0.25500000000E-02 0. -1.
    -200001    2    1    2    0    0  0.11341434649E+03 -0.96470373793E+02  0.17294915227E+03  0.65483738331E+03  0.61378436140E+03 0.  0.
   -5000001    2    3    3    0    0  0.90796523836E+02  0.20338660611E+03  0.23043750937E+03  0.33245300791E+03  0.88393644908E+02 0.  0.
     200001    1    1    2    0    0 -0.11341434649E+03  0.96470373793E+02  0.38368583947E+02  0.63198931577E+03  0.61300000000E+03 0. -1.
         11    1    4    4    0    0  0.26105890969E+02  0.13123171974E+03  0.16185082663E+03  0.20999755211E+03  0.51100000000E-03 0.  1.
    -200002    1    4    4    0    0  0.64690632867E+02  0.72154886369E+02  0.68586682740E+02  0.12245545581E+03  0.30000000000E+02 0.  1.
    -200000    1    3    3    0    0  0.22617822652E+02 -0.29985697991E+03 -0.57488357096E+02  0.32238437540E+03  0.10100000000E+03 0. -1.
<mgrwt>
<rscale>  0 0.12693572E+04</rscale>
<asrwt>0</asrwt>
<pdfrwt beam="1">  1        2 0.10701032E+00 0.12693572E+04</pdfrwt>
<pdfrwt beam="2">  1       -2 0.76822069E-01 0.12693572E+04</pdfrwt>
<totfact> 0.61569136E+01</totfact>
</mgrwt>
</event>
<event>
 8    2  0.7266322E-052  0.1422203E+04  0.7818608E-02  0.8937902E-01
          2   -1    0    0  501    0  0.00000000000E+00  0.00000000000E+00  0.47406699047E+03  0.47406699048E+03  0.25500000000E-02 0.  1.
         -2   -1    0    0    0  501 -0.00000000000E+00 -0.00000000000E+00 -0.10666531350E+04  0.10666531350E+04  0.25500000000E-02 0. -1.
    -200001    2    1    2    0    0  0.10877534256E+03 -0.26144803493E+03 -0.53957992656E+03  0.86339759574E+03  0.61165493627E+03 0.  0.
   -5000001    2    3    3    0    0 -0.15314265117E+03  0.61515903399E+02 -0.12643195706E+02  0.18459713963E+03  0.81727446939E+02 0.  0.
     200001    1    1    2    0    0 -0.10877534256E+03  0.26144803493E+03 -0.53006217939E+02  0.67732252972E+03  0.61300000000E+03 0.  1.
         11    1    4    4    0    0 -0.57451900982E+02 -0.13252048984E+02 -0.71015445711E+01  0.59386611826E+02  0.51100000000E-03 0.  1.
    -200002    1    4    4    0    0 -0.95690750184E+02  0.74767952383E+02 -0.55416511352E+01  0.12521052780E+03  0.30000000000E+02 0.  1.
    -200000    1    3    3    0    0  0.26191799373E+03 -0.32296393833E+03 -0.52693673086E+03  0.67880045612E+03  0.10100000000E+03 0. -1.
<mgrwt>
<rscale>  0 0.14222026E+04</rscale>
<asrwt>0</asrwt>
<pdfrwt beam="1">  1        2 0.67723856E-01 0.14222026E+04</pdfrwt>
<pdfrwt beam="2">  1       -2 0.15237902E+00 0.14222026E+04</pdfrwt>
<totfact> 0.19944184E+01</totfact>
</mgrwt>
</event>
<event>
 8    2  0.7266322E-052  0.1303203E+04  0.7818608E-02  0.9027029E-01
          2   -1    0    0  501    0  0.00000000000E+00  0.00000000000E+00  0.42422029060E+03  0.42422029061E+03  0.25500000000E-02 0.  1.
         -2   -1    0    0    0  501 -0.00000000000E+00 -0.00000000000E+00 -0.10008591677E+04  0.10008591677E+04  0.25500000000E-02 0. -1.
    -200001    2    1    2    0    0  0.15134171903E+03  0.13006176913E+03 -0.17651882397E+03  0.66634008499E+03  0.61076168342E+03 0.  0.
   -5000001    2    3    3    0    0  0.34608902846E+03  0.29337018342E+02  0.23214147215E+02  0.35302514801E+03  0.58733144200E+02 0.  0.
     200001    1    1    2    0    0 -0.15134171903E+03 -0.13006176913E+03 -0.40012005310E+03  0.75873937330E+03  0.61300000000E+03 0. -1.
         11    1    4    4    0    0  0.93195406765E+02  0.21924926459E+02 -0.92724228374E+01  0.96187650288E+02  0.51100000000E-03 0.  1.
    -200002    1    4    4    0    0  0.25289362170E+03  0.74120918830E+01  0.32486570053E+02  0.25683749772E+03  0.30000000000E+02 0.  1.
    -200000    1    3    3    0    0 -0.19474730944E+03  0.10072475079E+03 -0.19973297119E+03  0.31331493698E+03  0.10100000000E+03 0. -1.
<mgrwt>
<rscale>  0 0.13032034E+04</rscale>
<asrwt>0</asrwt>
<pdfrwt beam="1">  1        2 0.60602899E-01 0.13032034E+04</pdfrwt>
<pdfrwt beam="2">  1       -2 0.14297988E+00 0.13032034E+04</pdfrwt>
<totfact> 0.26982410E+01</totfact>
</mgrwt>
</event>
<event>
 8    2  0.7266322E-052  0.1622114E+04  0.7818608E-02  0.8807077E-01
          2   -1    0    0  501    0  0.00000000000E+00  0.00000000000E+00  0.26853803454E+04  0.26853803455E+04  0.25500000000E-02 0.  1.
         -2   -1    0    0    0  501 -0.00000000000E+00 -0.00000000000E+00 -0.24496093998E+03  0.24496093999E+03  0.25500000000E-02 0. -1.
    -200001    2    1    2    0    0  0.38140243094E+03 -0.40311692079E+02  0.18841356969E+04  0.20180291616E+04  0.61268387120E+03 0.  0.
   -5000001    2    3    3    0    0 -0.10064756499E+03 -0.15704883313E+03  0.52763466944E+03  0.57017012286E+03  0.10909333746E+03 0.  0.
     200001    1    1    2    0    0 -0.38140243094E+03  0.40311692079E+02  0.55628370861E+03  0.91231212384E+03  0.61300000000E+03 0. -1.
         11    1    4    4    0    0 -0.12764950440E+02  0.11634358854E+02  0.95882999229E+02  0.97426135133E+02  0.51100000000E-03 0.  1.
    -200002    1    4    4    0    0 -0.87882614547E+02 -0.16868319198E+03  0.43175167022E+03  0.47274398773E+03  0.30000000000E+02 0.  1.
    -200000    1    3    3    0    0  0.48204999592E+03  0.11673714105E+03  0.13565010274E+04  0.14478590387E+04  0.10100000000E+03 0.  1.
<mgrwt>
<rscale>  0 0.16221138E+04</rscale>
<asrwt>0</asrwt>
<pdfrwt beam="1">  1        2 0.38362576E+00 0.16221138E+04</pdfrwt>
<pdfrwt beam="2">  1       -2 0.34994420E-01 0.16221138E+04</pdfrwt>
<totfact> 0.25853134E+01</totfact>
</mgrwt>
</event>
<event>
 8    2  0.7266322E-052  0.1321743E+04  0.7818608E-02  0.9012498E-01
         -2   -1    0    0    0  501 -0.00000000000E+00  0.00000000000E+00  0.27912419465E+03  0.27912419466E+03  0.25500000000E-02 0. -1.
          2   -1    0    0  501    0  0.00000000000E+00 -0.00000000000E+00 -0.15647205358E+04  0.15647205358E+04  0.25500000000E-02 0.  1.
    -200001    2    1    2    0    0 -0.18418573117E+03  0.15778728003E+03 -0.58315309064E+03  0.88050848102E+03  0.61351972153E+03 0.  0.
   -5000001    2    3    3    0    0  0.16668002554E+03  0.13189974497E+03 -0.42590847705E+03  0.48213201057E+03  0.76638574871E+02 0.  0.
     200001    1    1    2    0    0  0.18418573117E+03 -0.15778728003E+03 -0.70244325050E+03  0.96333624944E+03  0.61300000000E+03 0.  1.
         11    1    4    4    0    0  0.11599571227E+03  0.79193251258E+02 -0.32426269324E+03  0.35337355665E+03  0.51100000000E-03 0.  1.
    -200002    1    4    4    0    0  0.50684313266E+02  0.52706493708E+02 -0.10164578381E+03  0.12875845392E+03  0.30000000000E+02 0. -1.
    -200000    1    3    3    0    0 -0.35086575671E+03  0.25887535069E+02 -0.15724461359E+03  0.39837647044E+03  0.10100000000E+03 0. -1.
<mgrwt>
<rscale>  0 0.13217433E+04</rscale>
<asrwt>0</asrwt>
<pdfrwt beam="1">  1        2 0.22353150E+00 0.13217433E+04</pdfrwt>
<pdfrwt beam="2">  1       -2 0.39874886E-01 0.13217433E+04</pdfrwt>
<totfact> 0.78667253E+01</totfact>
</mgrwt>
</event>
<event>
 8    2  0.7266322E-052  0.1493154E+04  0.7818608E-02  0.8889018E-01
          2   -1    0    0  501    0  0.00000000000E+00  0.00000000000E+00  0.17313966132E+04  0.17313966132E+04  0.25500000000E-02 0.  1.
         -2   -1    0    0    0  501 -0.00000000000E+00 -0.00000000000E+00 -0.32192346097E+03  0.32192346098E+03  0.25500000000E-02 0. -1.
    -200001    2    1    2    0    0 -0.32179023009E+03  0.21600410934E+03  0.46196597170E+03  0.86011196802E+03  0.61332969200E+03 0.  0.
   -5000001    2    3    3    0    0 -0.30378580692E+03  0.18281082412E+03 -0.19789660547E+02  0.36643652541E+03  0.90434963296E+02 0.  0.
     200001    1    1    2    0    0  0.32179023009E+03 -0.21600410934E+03  0.94750718051E+03  0.11932081061E+04  0.61300000000E+03 0.  1.
         11    1    4    4    0    0 -0.76403940913E+02  0.37517857907E+02  0.30306558637E+02  0.90352860196E+02  0.51100000000E-03 0.  1.
    -200002    1    4    4    0    0 -0.22738186601E+03  0.14529296621E+03 -0.50096219184E+02  0.27608366521E+03  0.30000000000E+02 0.  1.
    -200000    1    3    3    0    0 -0.18004423170E+02  0.33193285217E+02  0.48175563225E+03  0.49367544261E+03  0.10100000000E+03 0.  1.
<mgrwt>
<rscale>  0 0.14931540E+04</rscale>
<asrwt>0</asrwt>
<pdfrwt beam="1">  1        2 0.24734237E+00 0.14931540E+04</pdfrwt>
<pdfrwt beam="2">  1       -2 0.45989067E-01 0.14931540E+04</pdfrwt>
<totfact> 0.47931705E+01</totfact>
</mgrwt>
</event>
<event>
 8    2  0.7266322E-052  0.1283615E+04  0.7818608E-02  0.9042660E-01
          2   -1    0    0  501    0  0.00000000000E+00  0.00000000000E+00  0.56877914269E+03  0.56877914269E+03  0.25500000000E-02 0.  1.
         -2   -1    0    0    0  501 -0.00000000000E+00 -0.00000000000E+00 -0.72421246238E+03  0.72421246239E+03  0.25500000000E-02 0. -1.
    -200001    2    1    2    0    0 -0.42311217422E+02  0.13606474773E+03 -0.20505650839E+03  0.66169506973E+03  0.61277103307E+03 0.  0.
   -5000001    2    3    3    0    0  0.23400297915E+03  0.20486693448E+03 -0.15983058551E+03  0.35619603499E+03  0.67837631000E+02 0.  0.
     200001    1    1    2    0    0  0.42311217422E+02 -0.13606474773E+03  0.49623188697E+02  0.63129653536E+03  0.61300000000E+03 0.  1.
         11    1    4    4    0    0  0.15589640681E+03  0.13967895012E+03 -0.12843791574E+03  0.24558134490E+03  0.51100000000E-03 0.  1.
    -200002    1    4    4    0    0  0.78106572335E+02  0.65187984361E+02 -0.31392669778E+02  0.11061469009E+03  0.30000000000E+02 0. -1.
    -200000    1    3    3    0    0 -0.27631419657E+03 -0.68802186746E+02 -0.45225922879E+02  0.30549903474E+03  0.10100000000E+03 0. -1.
<mgrwt>
<rscale>  0 0.12836151E+04</rscale>
<asrwt>0</asrwt>
<pdfrwt beam="1">  1        2 0.81254164E-01 0.12836151E+04</pdfrwt>
<pdfrwt beam="2">  1       -2 0.10345892E+00 0.12836151E+04</pdfrwt>
<totfact> 0.43261545E+01</totfact>
</mgrwt>
</event>
<event>
 8    2  0.7266322E-052  0.1749207E+04  0.7818608E-02  0.8733787E-01
          2   -1    0    0  501    0  0.00000000000E+00  0.00000000000E+00  0.60732559429E+03  0.60732559429E+03  0.25500000000E-02 0.  1.
         -2   -1    0    0    0  501 -0.00000000000E+00 -0.00000000000E+00 -0.12595070263E+04  0.12595070263E+04  0.25500000000E-02 0. -1.
    -200001    2    1    2    0    0 -0.29230450661E+02 -0.27912964196E+02 -0.99041584077E+03  0.11655444714E+04  0.61313687249E+03 0.  0.
   -5000001    2    3    3    0    0  0.16876270255E+03 -0.83778360750E+02 -0.45394304402E+03  0.58216955518E+03  0.31202153814E+03 0.  0.
     200001    1    1    2    0    0  0.29230450661E+02  0.27912964196E+02  0.33823440880E+03  0.70128814913E+03  0.61300000000E+03 0.  1.
         11    1    4    4    0    0  0.11882296734E+03 -0.11038364313E+02 -0.47233636842E+03  0.48717798389E+03  0.51100000000E-03 0.  1.
    -200002    1    4    4    0    0  0.49939735209E+02 -0.72739996437E+02  0.18393324397E+02  0.94991571293E+02  0.30000000000E+02 0.  1.
    -200000    1    3    3    0    0 -0.19799315321E+03  0.55865396554E+02 -0.53647279675E+03  0.58337491625E+03  0.10100000000E+03 0. -1.
<mgrwt>
<rscale>  0 0.17492065E+04</rscale>
<asrwt>0</asrwt>
<pdfrwt beam="1">  1        2 0.86760799E-01 0.17492065E+04</pdfrwt>
<pdfrwt beam="2">  1       -2 0.17992957E+00 0.17492065E+04</pdfrwt>
<totfact> 0.92210734E+00</totfact>
</mgrwt>
</event>
<event>
 8    2  0.7266322E-052  0.1454350E+04  0.7818608E-02  0.8915390E-01
          2   -1    0    0  501    0  0.00000000000E+00  0.00000000000E+00  0.10073907505E+04  0.10073907505E+04  0.25500000000E-02 0.  1.
         -2   -1    0    0    0  501 -0.00000000000E+00 -0.00000000000E+00 -0.52490389189E+03  0.52490389190E+03  0.25500000000E-02 0. -1.
    -200001    2    1    2    0    0  0.32631783845E+03 -0.40823103499E+02  0.46436141088E+03  0.83641578129E+03  0.61303342634E+03 0.  0.
   -5000001    2    3    3    0    0  0.19477701395E+02 -0.25345481651E+03  0.50180063144E+02  0.26974982687E+03  0.75021366927E+02 0.  0.
     200001    1    1    2    0    0 -0.32631783845E+03  0.40823103499E+02  0.18125447717E+02  0.69587886110E+03  0.61300000000E+03 0.  1.
         11    1    4    4    0    0  0.54966209729E-01 -0.20181432428E+03  0.31721062103E+02  0.20429207103E+03  0.51100000000E-03 0.  1.
    -200002    1    4    4    0    0  0.19422735185E+02 -0.51640492233E+02  0.18459001041E+02  0.65457755840E+02  0.30000000000E+02 0. -1.
    -200000    1    3    3    0    0  0.30684013706E+03  0.21263171301E+03  0.41418134774E+03  0.56666595442E+03  0.10100000000E+03 0.  1.
<mgrwt>
<rscale>  0 0.14543498E+04</rscale>
<asrwt>0</asrwt>
<pdfrwt beam="1">  1        2 0.14391296E+00 0.14543498E+04</pdfrwt>
<pdfrwt beam="2">  1       -2 0.74986270E-01 0.14543498E+04</pdfrwt>
<totfact> 0.43119423E+01</totfact>
</mgrwt>
</event>
<event>
 8    2  0.7266322E-052  0.1669560E+04  0.7818608E-02  0.8778918E-01
         -2   -1    0    0    0  501 -0.00000000000E+00  0.00000000000E+00  0.59722394979E+03  0.59722394980E+03  0.25500000000E-02 0. -1.
          2   -1    0    0  501    0  0.00000000000E+00 -0.00000000000E+00 -0.11668277473E+04  0.11668277473E+04  0.25500000000E-02 0.  1.
    -200001    2    1    2    0    0 -0.28755745036E+03 -0.27677918752E+03  0.14054048510E+03  0.74455676921E+03  0.61263133181E+03 0.  0.
   -5000001    2    3    3    0    0  0.77437054569E+02 -0.27924527441E+03  0.20560186516E+03  0.36028986536E+03  0.59684499015E+02 0.  0.
     200001    1    1    2    0    0  0.28755745036E+03  0.27677918752E+03 -0.71014428263E+03  0.10194949279E+04  0.61300000000E+03 0.  1.
         11    1    4    4    0    0  0.52603612118E+02 -0.19063623343E+03  0.12177850582E+03  0.23224839716E+03  0.51100000000E-03 0.  1.
    -200002    1    4    4    0    0  0.24833442451E+02 -0.88609040988E+02  0.83823359338E+02  0.12804146820E+03  0.30000000000E+02 0.  1.
    -200000    1    3    3    0    0 -0.36499450493E+03  0.24660868909E+01 -0.65061380062E+02  0.38426690385E+03  0.10100000000E+03 0. -1.
<mgrwt>
<rscale>  0 0.16695598E+04</rscale>
<asrwt>0</asrwt>
<pdfrwt beam="1">  1        2 0.16668968E+00 0.16695598E+04</pdfrwt>
<pdfrwt beam="2">  1       -2 0.85317708E-01 0.16695598E+04</pdfrwt>
<totfact> 0.25513940E+01</totfact>
</mgrwt>
</event>
<event>
 8    2  0.7266322E-052  0.1400953E+04  0.7818608E-02  0.8953129E-01
          2   -1    0    0  501    0  0.00000000000E+00  0.00000000000E+00  0.94913095601E+03  0.94913095601E+03  0.25500000000E-02 0.  1.
         -2   -1    0    0    0  501 -0.00000000000E+00 -0.00000000000E+00 -0.51696468423E+03  0.51696468424E+03  0.25500000000E-02 0. -1.
    -200001    2    1    2    0    0  0.19292299364E+03 -0.23901681589E+02  0.50806385928E+03  0.81854640224E+03  0.61163613011E+03 0.  0.
   -5000001    2    3    3    0    0 -0.14239128874E+03 -0.12153143398E+02 -0.36980913844E+02  0.17058922709E+03  0.85499230443E+02 0.  0.
     200001    1    1    2    0    0 -0.19292299364E+03  0.23901681589E+02 -0.75897587505E+02  0.64754923801E+03  0.61300000000E+03 0. -1.
         11    1    4    4    0    0 -0.50696362199E+02  0.30110105965E+02 -0.26802962265E+02  0.64769888127E+02  0.51100000000E-03 0.  1.
    -200002    1    4    4    0    0 -0.91694926541E+02 -0.42263249363E+02 -0.10177951578E+02  0.10581933896E+03  0.30000000000E+02 0.  1.
    -200000    1    3    3    0    0  0.33531428238E+03 -0.11748538191E+02  0.54504477313E+03  0.64795717515E+03  0.10100000000E+03 0. -1.
<mgrwt>
<rscale>  0 0.14009528E+04</rscale>
<asrwt>0</asrwt>
<pdfrwt beam="1">  1        2 0.13559014E+00 0.14009528E+04</pdfrwt>
<pdfrwt beam="2">  1       -2 0.73852098E-01 0.14009528E+04</pdfrwt>
<totfact> 0.48691545E+01</totfact>
</mgrwt>
</event>
<event>
 8    2  0.7266322E-052  0.1669257E+04  0.7818608E-02  0.8779095E-01
          2   -1    0    0  501    0  0.00000000000E+00  0.00000000000E+00  0.36493401064E+03  0.36493401065E+03  0.25500000000E-02 0.  1.
         -2   -1    0    0    0  501 -0.00000000000E+00 -0.00000000000E+00 -0.19088515010E+04  0.19088515010E+04  0.25500000000E-02 0. -1.
    -200001    2    1    2    0    0  0.43418248938E+03 -0.28397057700E+03 -0.10817216995E+04  0.13472070359E+04  0.61293657065E+03 0.  0.
   -5000001    2    3    3    0    0  0.19913867318E+03 -0.33887141608E+03 -0.99408391571E+03  0.10712703061E+04  0.70193942396E+02 0.  0.
     200001    1    1    2    0    0 -0.43418248938E+03  0.28397057700E+03 -0.46219579083E+03  0.92657847576E+03  0.61300000000E+03 0.  1.
         11    1    4    4    0    0  0.77304385157E+02 -0.88684726634E+02 -0.25036359533E+03  0.27662768944E+03  0.51100000000E-03 0.  1.
    -200002    1    4    4    0    0  0.12183428802E+03 -0.25018668945E+03 -0.74372032039E+03  0.79464261670E+03  0.30000000000E+02 0.  1.
    -200000    1    3    3    0    0  0.23504381620E+03  0.54900839076E+02 -0.87637783780E+02  0.27593672972E+03  0.10100000000E+03 0.  1.
<mgrwt>
<rscale>  0 0.16692571E+04</rscale>
<asrwt>0</asrwt>
<pdfrwt beam="1">  1        2 0.52133431E-01 0.16692571E+04</pdfrwt>
<pdfrwt beam="2">  1       -2 0.27269307E+00 0.16692571E+04</pdfrwt>
<totfact> 0.42812059E+00</totfact>
</mgrwt>
</event>
<event>
 8    2  0.7266322E-052  0.1521590E+04  0.7818608E-02  0.8870222E-01
          2   -1    0    0  501    0  0.00000000000E+00  0.00000000000E+00  0.10627650184E+04  0.10627650184E+04  0.25500000000E-02 0.  1.
         -2   -1    0    0    0  501 -0.00000000000E+00 -0.00000000000E+00 -0.54462536759E+03  0.54462536760E+03  0.25500000000E-02 0. -1.
    -200001    2    1    2    0    0 -0.28806479101E+03  0.25213037769E+03  0.51008056225E+03  0.88462832272E+03  0.61305304681E+03 0.  0.
   -5000001    2    3    3    0    0  0.77162448122E+01  0.63544578644E+02 -0.11346898306E+03  0.16208693276E+03  0.96433965720E+02 0.  0.
     200001    1    1    2    0    0  0.28806479101E+03 -0.25213037769E+03  0.80590885342E+01  0.72276206326E+03  0.61300000000E+03 0. -1.
         11    1    4    4    0    0 -0.36766183736E+02  0.68267150994E+01 -0.42081750394E+02  0.56295914790E+02  0.51100000000E-03 0.  1.
    -200002    1    4    4    0    0  0.44482428548E+02  0.56717863544E+02 -0.71387232666E+02  0.10579101797E+03  0.30000000000E+02 0.  1.
    -200000    1    3    3    0    0 -0.29578103582E+03  0.18858579905E+03  0.62354954531E+03  0.72254138997E+03  0.10100000000E+03 0.  1.
<mgrwt>
<rscale>  0 0.15215897E+04</rscale>
<asrwt>0</asrwt>
<pdfrwt beam="1">  1        2 0.15182357E+00 0.15215897E+04</pdfrwt>
<pdfrwt beam="2">  1       -2 0.77803624E-01 0.15215897E+04</pdfrwt>
<totfact> 0.36575170E+01</totfact>
</mgrwt>
</event>
<event>
 8    2  0.7266322E-052  0.1731564E+04  0.7818608E-02  0.8743564E-01
          2   -1    0    0  501    0  0.00000000000E+00  0.00000000000E+00  0.15249278599E+04  0.15249278599E+04  0.25500000000E-02 0.  1.
         -2   -1    0    0    0  501 -0.00000000000E+00 -0.00000000000E+00 -0.49154999176E+03  0.49154999176E+03  0.25500000000E-02 0. -1.
    -200001    2    1    2    0    0 -0.19769397724E+03  0.31059052160E+03  0.10852765456E+04  0.12995316519E+04  0.61270543740E+03 0.  0.
   -5000001    2    3    3    0    0 -0.30172867896E+03  0.13114367552E+03  0.21267525388E+03  0.39694735994E+03  0.64012370762E+02 0.  0.
     200001    1    1    2    0    0  0.19769397724E+03 -0.31059052160E+03 -0.51898677422E+02  0.71694619984E+03  0.61300000000E+03 0. -1.
         11    1    4    4    0    0 -0.16327285593E+03  0.71037374474E+02  0.86569215297E+02  0.19798626996E+03  0.51100000000E-03 0.  1.
    -200002    1    4    4    0    0 -0.13845582303E+03  0.60106301043E+02  0.12610603859E+03  0.19896108998E+03  0.30000000000E+02 0.  1.
    -200000    1    3    3    0    0  0.10403470172E+03  0.17944684609E+03  0.87260129171E+03  0.90258429193E+03  0.10100000000E+03 0.  1.
<mgrwt>
<rscale>  0 0.17315638E+04</rscale>
<asrwt>0</asrwt>
<pdfrwt beam="1">  1        2 0.21784683E+00 0.17315638E+04</pdfrwt>
<pdfrwt beam="2">  1       -2 0.70221428E-01 0.17315638E+04</pdfrwt>
<totfact> 0.24912377E+01</totfact>
</mgrwt>
</event>
<event>
 8    2  0.7266322E-052  0.1299055E+04  0.7818608E-02  0.9030315E-01
         -2   -1    0    0    0  501 -0.00000000000E+00  0.00000000000E+00  0.12487701209E+03  0.12487701211E+03  0.25500000000E-02 0. -1.
          2   -1    0    0  501    0  0.00000000000E+00 -0.00000000000E+00 -0.33784107392E+04  0.33784107392E+04  0.25500000000E-02 0.  1.
    -200001    2    1    2    0    0  0.19291051925E+03  0.71849043090E+02 -0.17875067700E+04  0.19009829137E+04  0.61333419295E+03 0.  0.
   -5000001    2    3    3    0    0 -0.88686002019E+02  0.65976646515E+02 -0.79761713143E+02  0.16722247327E+03  0.96867434389E+02 0.  0.
     200001    1    1    2    0    0 -0.19291051925E+03 -0.71849043090E+02 -0.14660269572E+04  0.16023048376E+04  0.61300000000E+03 0.  1.
         11    1    4    4    0    0  0.54797086486E+01  0.23085577516E+02 -0.50169439550E+02  0.55497241022E+02  0.51100000000E-03 0.  1.
    -200002    1    4    4    0    0 -0.94165710668E+02  0.42891068999E+02 -0.29592273593E+02  0.11172523225E+03  0.30000000000E+02 0.  1.
    -200000    1    3    3    0    0  0.28159652127E+03  0.58723965749E+01 -0.17077450568E+04  0.17337604405E+04  0.10100000000E+03 0.  1.
<mgrwt>
<rscale>  0 0.12990548E+04</rscale>
<asrwt>0</asrwt>
<pdfrwt beam="1">  1        2 0.48263005E+00 0.12990548E+04</pdfrwt>
<pdfrwt beam="2">  1       -2 0.17839575E-01 0.12990548E+04</pdfrwt>
<totfact> 0.36985408E+01</totfact>
</mgrwt>
</event>
<event>
 8    2  0.7266322E-052  0.1342778E+04  0.7818608E-02  0.8996313E-01
         -2   -1    0    0    0  501 -0.00000000000E+00  0.00000000000E+00  0.27586733392E+03  0.27586733393E+03  0.25500000000E-02 0. -1.
          2   -1    0    0  501    0  0.00000000000E+00 -0.00000000000E+00 -0.16339859156E+04  0.16339859156E+04  0.25500000000E-02 0.  1.
    -200001    2    1    2    0    0  0.24521551416E+03 -0.33571714351E+02 -0.84667475732E+03  0.10740294081E+04  0.61271797462E+03 0.  0.
   -5000001    2    3    3    0    0 -0.15631475348E+03 -0.14029048839E+03 -0.27777044505E+03  0.36236335646E+03  0.10017514000E+03 0.  0.
     200001    1    1    2    0    0 -0.24521551416E+03  0.33571714351E+02 -0.51144382435E+03  0.83582384140E+03  0.61300000000E+03 0.  1.
         11    1    4    4    0    0 -0.38054704846E+02  0.77659949158E+01 -0.30429684257E+02  0.49340013399E+02  0.51100000000E-03 0.  1.
    -200002    1    4    4    0    0 -0.11826004863E+03 -0.14805648330E+03 -0.24734076079E+03  0.31302334306E+03  0.30000000000E+02 0.  1.
    -200000    1    3    3    0    0  0.40153026764E+03  0.10671877404E+03 -0.56890431228E+03  0.71166605166E+03  0.10100000000E+03 0.  1.
<mgrwt>
<rscale>  0 0.13427782E+04</rscale>
<asrwt>0</asrwt>
<pdfrwt beam="1">  1        2 0.23342655E+00 0.13427782E+04</pdfrwt>
<pdfrwt beam="2">  1       -2 0.39409620E-01 0.13427782E+04</pdfrwt>
<totfact> 0.73916992E+01</totfact>
</mgrwt>
</event>
<event>
 8    2  0.7266322E-052  0.2073447E+04  0.7818608E-02  0.8573031E-01
         -2   -1    0    0    0  501 -0.00000000000E+00  0.00000000000E+00  0.36596476570E+03  0.36596476571E+03  0.25500000000E-02 0. -1.
          2   -1    0    0  501    0  0.00000000000E+00 -0.00000000000E+00 -0.29368837597E+04  0.29368837597E+04  0.25500000000E-02 0.  1.
    -200001    2    1    2    0    0 -0.15815580341E+03  0.51481751720E+03 -0.23042529668E+04  0.24444021938E+04  0.61275608188E+03 0.  0.
   -5000001    2    3    3    0    0  0.14477022165E+03  0.12065834222E+03 -0.25172087261E+03  0.33011398508E+03  0.10047384143E+03 0.  0.
     200001    1    1    2    0    0  0.15815580341E+03 -0.51481751720E+03 -0.26666602718E+03  0.85844633159E+03  0.61300000000E+03 0. -1.
         11    1    4    4    0    0  0.17658656630E+02  0.71764493762E+02 -0.80332806739E+02  0.10915736603E+03  0.51100000000E-03 0.  1.
    -200002    1    4    4    0    0  0.12711156502E+03  0.48893848461E+02 -0.17138806588E+03  0.22095661905E+03  0.30000000000E+02 0.  1.
    -200000    1    3    3    0    0 -0.30292602506E+03  0.39415917498E+03 -0.20525320942E+04  0.21142882087E+04  0.10100000000E+03 0.  1.
<mgrwt>
<rscale>  0 0.20734473E+04</rscale>
<asrwt>0</asrwt>
<pdfrwt beam="1">  1        2 0.41955481E+00 0.20734473E+04</pdfrwt>
<pdfrwt beam="2">  1       -2 0.52280682E-01 0.20734473E+04</pdfrwt>
<totfact> 0.81949400E+00</totfact>
</mgrwt>
</event>
<event>
 8    2  0.7266322E-052  0.1635666E+04  0.7818608E-02  0.8798932E-01
         -2   -1    0    0    0  501 -0.00000000000E+00  0.00000000000E+00  0.25936716634E+03  0.25936716636E+03  0.25500000000E-02 0. -1.
          2   -1    0    0  501    0  0.00000000000E+00 -0.00000000000E+00 -0.25787808260E+04  0.25787808260E+04  0.25500000000E-02 0.  1.
    -200001    2    1    2    0    0 -0.25451134456E+02  0.11050393852E+02 -0.20979702171E+04  0.21857860761E+04  0.61270863163E+03 0.  0.
   -5000001    2    3    3    0    0  0.19429572414E+03 -0.88674623985E+02 -0.32561339908E+03  0.39422713167E+03  0.61456719137E+02 0.  0.
     200001    1    1    2    0    0  0.25451134456E+02 -0.11050393852E+02 -0.22144344249E+03  0.65236191617E+03  0.61300000000E+03 0. -1.
         11    1    4    4    0    0  0.66388445494E+02 -0.53717343181E+01 -0.10228974912E+03  0.12206340156E+03  0.51100000000E-03 0.  1.
    -200002    1    4    4    0    0  0.12790727865E+03 -0.83302889666E+02 -0.22332364996E+03  0.27216373012E+03  0.30000000000E+02 0. -1.
    -200000    1    3    3    0    0 -0.21974685860E+03  0.99725017837E+02 -0.17723568180E+04  0.17915589445E+04  0.10100000000E+03 0. -1.
<mgrwt>
<rscale>  0 0.16356663E+04</rscale>
<asrwt>0</asrwt>
<pdfrwt beam="1">  1        2 0.36839725E+00 0.16356663E+04</pdfrwt>
<pdfrwt beam="2">  1       -2 0.37052454E-01 0.16356663E+04</pdfrwt>
<totfact> 0.26371873E+01</totfact>
</mgrwt>
</event>
<event>
 8    2  0.7266322E-052  0.1790864E+04  0.7818608E-02  0.8711173E-01
         -2   -1    0    0    0  501 -0.00000000000E+00  0.00000000000E+00  0.54042976553E+03  0.54042976553E+03  0.25500000000E-02 0. -1.
          2   -1    0    0  501    0  0.00000000000E+00 -0.00000000000E+00 -0.14836316452E+04  0.14836316452E+04  0.25500000000E-02 0.  1.
    -200001    2    1    2    0    0  0.16730842239E+03 -0.29440163453E+03 -0.11021062855E+04  0.13059499704E+04  0.61335359297E+03 0.  0.
   -5000001    2    3    3    0    0  0.78115058624E+02 -0.21964892815E+03 -0.64850403704E+02  0.25731076286E+03  0.87496513098E+02 0.  0.
     200001    1    1    2    0    0 -0.16730842239E+03  0.29440163453E+03  0.15890440580E+03  0.71811144037E+03  0.61300000000E+03 0. -1.
         11    1    4    4    0    0  0.25097653328E+02 -0.16455366500E+03 -0.50346816719E+02  0.17390400462E+03  0.51100000000E-03 0.  1.
    -200002    1    4    4    0    0  0.53017405296E+02 -0.55095263143E+02 -0.14503586985E+02  0.83406758243E+02  0.30000000000E+02 0. -1.
    -200000    1    3    3    0    0  0.89193363764E+02 -0.74752706379E+02 -0.10372558818E+04  0.10486392075E+04  0.10100000000E+03 0.  1.
<mgrwt>
<rscale>  0 0.17908643E+04</rscale>
<asrwt>0</asrwt>
<pdfrwt beam="1">  1        2 0.21194738E+00 0.17908643E+04</pdfrwt>
<pdfrwt beam="2">  1       -2 0.77204253E-01 0.17908643E+04</pdfrwt>
<totfact> 0.21160492E+01</totfact>
</mgrwt>
</event>
<event>
 8    2  0.7266322E-052  0.1262814E+04  0.7818608E-02  0.9059585E-01
          2   -1    0    0  501    0  0.00000000000E+00  0.00000000000E+00  0.10262713790E+04  0.10262713790E+04  0.25500000000E-02 0.  1.
         -2   -1    0    0    0  501 -0.00000000000E+00 -0.00000000000E+00 -0.38846944989E+03  0.38846944990E+03  0.25500000000E-02 0. -1.
    -200001    2    1    2    0    0  0.44156664725E+02 -0.13633170973E+03  0.37249609193E+03  0.73159199203E+03  0.61313730777E+03 0.  0.
   -5000001    2    3    3    0    0  0.49716676676E+02  0.11022232379E+03  0.43586814978E+03  0.45766349242E+03  0.69671512831E+02 0.  0.
     200001    1    1    2    0    0 -0.44156664725E+02  0.13633170973E+03  0.26530583721E+03  0.68314883691E+03  0.61300000000E+03 0. -1.
         11    1    4    4    0    0  0.49627814008E+02  0.51893973412E+02  0.18745475275E+03  0.20073661531E+03  0.51100000000E-03 0.  1.
    -200002    1    4    4    0    0  0.88862667859E-01  0.58328350378E+02  0.24841339704E+03  0.25692687711E+03  0.30000000000E+02 0.  1.
    -200000    1    3    3    0    0 -0.55600119507E+01 -0.24655403352E+03 -0.63372057852E+02  0.27392849960E+03  0.10100000000E+03 0. -1.
<mgrwt>
<rscale>  0 0.12628144E+04</rscale>
<asrwt>0</asrwt>
<pdfrwt beam="1">  1        2 0.14661019E+00 0.12628144E+04</pdfrwt>
<pdfrwt beam="2">  1       -2 0.55495637E-01 0.12628144E+04</pdfrwt>
<totfact> 0.81184120E+01</totfact>
</mgrwt>
</event>
<event>
 8    2  0.7266322E-052  0.1967957E+04  0.7818608E-02  0.8621750E-01
         -2   -1    0    0    0  501 -0.00000000000E+00  0.00000000000E+00  0.69080005221E+03  0.69080005221E+03  0.25500000000E-02 0. -1.
          2   -1    0    0  501    0  0.00000000000E+00 -0.00000000000E+00 -0.14015831721E+04  0.14015831722E+04  0.25500000000E-02 0.  1.
    -200001    2    1    2    0    0 -0.65174549577E+03 -0.11645798772E+03  0.61190328056E+02  0.90492936902E+03  0.61385523742E+03 0.  0.
   -5000001    2    3    3    0    0 -0.11236477778E+03 -0.16687405547E+03 -0.19891955300E+03  0.29555962161E+03  0.85520218004E+02 0.  0.
     200001    1    1    2    0    0  0.65174549577E+03  0.11645798772E+03 -0.77197344800E+03  0.11874538553E+04  0.61300000000E+03 0. -1.
         11    1    4    4    0    0 -0.97577551880E+02 -0.15391752189E+03 -0.15855189319E+03  0.24155886448E+03  0.51100000000E-03 0.  1.
    -200002    1    4    4    0    0 -0.14787225897E+02 -0.12956533585E+02 -0.40367659813E+02  0.54000757134E+02  0.30000000000E+02 0. -1.
    -200000    1    3    3    0    0 -0.53938071800E+03  0.50416067753E+02  0.26010988105E+03  0.60936974741E+03  0.10100000000E+03 0. -1.
<mgrwt>
<rscale>  0 0.19679570E+04</rscale>
<asrwt>0</asrwt>
<pdfrwt beam="1">  1        2 0.20022617E+00 0.19679570E+04</pdfrwt>
<pdfrwt beam="2">  1       -2 0.98685723E-01 0.19679570E+04</pdfrwt>
<totfact> 0.13161451E+01</totfact>
</mgrwt>
</event>
<event>
 8    2  0.7266322E-052  0.1769549E+04  0.7818608E-02  0.8722663E-01
         -2   -1    0    0    0  501 -0.00000000000E+00  0.00000000000E+00  0.29440707623E+03  0.29440707624E+03  0.25500000000E-02 0. -1.
          2   -1    0    0  501    0  0.00000000000E+00 -0.00000000000E+00 -0.26589908034E+04  0.26589908034E+04  0.25500000000E-02 0.  1.
    -200001    2    1    2    0    0  0.14509571629E+03  0.45546052809E+03 -0.47314334625E+03  0.90844976927E+03  0.61067118620E+03 0.  0.
   -5000001    2    3    3    0    0  0.30473785392E+03  0.33819712894E+03 -0.50506060645E+03  0.68382557560E+03  0.72723751420E+02 0.  0.
     200001    1    1    2    0    0 -0.14509571629E+03 -0.45546052809E+03 -0.18914403809E+04  0.20449481103E+04  0.61300000000E+03 0.  1.
         11    1    4    4    0    0  0.10998700302E+03  0.94013285148E+02 -0.12703758186E+03  0.19254658092E+03  0.51100000000E-03 0.  1.
    -200002    1    4    4    0    0  0.19475085089E+03  0.24418384379E+03 -0.37802302459E+03  0.49127899467E+03  0.30000000000E+02 0.  1.
    -200000    1    3    3    0    0 -0.15964213762E+03  0.11726339915E+03  0.31917260198E+02  0.22462419367E+03  0.10100000000E+03 0.  1.
<mgrwt>
<rscale>  0 0.17695488E+04</rscale>
<asrwt>0</asrwt>
<pdfrwt beam="1">  1        2 0.37985582E+00 0.17695488E+04</pdfrwt>
<pdfrwt beam="2">  1       -2 0.42058155E-01 0.17695488E+04</pdfrwt>
<totfact> 0.18459096E+01</totfact>
</mgrwt>
</event>
<event>
 8    2  0.7266322E-052  0.1239108E+04  0.7818608E-02  0.9079298E-01
          2   -1    0    0  501    0  0.00000000000E+00  0.00000000000E+00  0.10047663492E+04  0.10047663492E+04  0.25500000000E-02 0.  1.
         -2   -1    0    0    0  501 -0.00000000000E+00 -0.00000000000E+00 -0.38202600826E+03  0.38202600826E+03  0.25500000000E-02 0. -1.
    -200001    2    1    2    0    0 -0.41984296324E+02  0.47625516217E+02  0.37375163694E+03  0.72211555959E+03  0.61459720497E+03 0.  0.
   -5000001    2    3    3    0    0 -0.90113967573E+02  0.67978438108E+02  0.51927616338E+03  0.53742908342E+03  0.80253913614E+02 0.  0.
     200001    1    1    2    0    0  0.41984296324E+02 -0.47625516217E+02  0.24898870402E+03  0.66467679790E+03  0.61300000000E+03 0. -1.
         11    1    4    4    0    0 -0.89389583873E+02  0.44712710531E+02  0.39731036416E+03  0.40968921105E+03  0.51100000000E-03 0.  1.
    -200002    1    4    4    0    0 -0.72438370014E+00  0.23265727577E+02  0.12196579922E+03  0.12773987236E+03  0.30000000000E+02 0. -1.
    -200000    1    3    3    0    0  0.48129671249E+02 -0.20352921891E+02 -0.14552452644E+03  0.18468647617E+03  0.10100000000E+03 0. -1.
<mgrwt>
<rscale>  0 0.12391075E+04</rscale>
<asrwt>0</asrwt>
<pdfrwt beam="1">  1        2 0.14353805E+00 0.12391075E+04</pdfrwt>
<pdfrwt beam="2">  1       -2 0.54575145E-01 0.12391075E+04</pdfrwt>
<totfact> 0.86786503E+01</totfact>
</mgrwt>
</event>
<event>
 8    2  0.7266322E-052  0.1450972E+04  0.7818608E-02  0.8917727E-01
         -2   -1    0    0    0  501 -0.00000000000E+00  0.00000000000E+00  0.34688559548E+03  0.34688559549E+03  0.25500000000E-02 0. -1.
          2   -1    0    0  501    0  0.00000000000E+00 -0.00000000000E+00 -0.15173008413E+04  0.15173008413E+04  0.25500000000E-02 0.  1.
    -200001    2    1    2    0    0  0.16215448027E+03 -0.97175925307E+02 -0.10204267482E+04  0.12053975591E+04  0.61316824049E+03 0.  0.
   -5000001    2    3    3    0    0  0.15752584289E+01  0.21427599440E+03 -0.54990419510E+03  0.61009893006E+03  0.15462663890E+03 0.  0.
     200001    1    1    2    0    0 -0.16215448027E+03  0.97175925307E+02 -0.14998849763E+03  0.65878887768E+03  0.61300000000E+03 0. -1.
         11    1    4    4    0    0  0.72247819612E+02  0.12818857389E+03 -0.34260944011E+03  0.37287167547E+03  0.51100000000E-03 0.  1.
    -200002    1    4    4    0    0 -0.70672561183E+02  0.86087420515E+02 -0.20729475499E+03  0.23722725459E+03  0.30000000000E+02 0.  1.
    -200000    1    3    3    0    0  0.16057922184E+03 -0.31145191971E+03 -0.47052255311E+03  0.59529862907E+03  0.10100000000E+03 0.  1.
<mgrwt>
<rscale>  0 0.14509718E+04</rscale>
<asrwt>0</asrwt>
<pdfrwt beam="1">  1        2 0.21675726E+00 0.14509718E+04</pdfrwt>
<pdfrwt beam="2">  1       -2 0.49555086E-01 0.14509718E+04</pdfrwt>
<totfact> 0.53539362E+01</totfact>
</mgrwt>
</event>
<event>
 8    2  0.7266322E-052  0.1441387E+04  0.7818608E-02  0.8924393E-01
          2   -1    0    0  501    0  0.00000000000E+00  0.00000000000E+00  0.44850189819E+03  0.44850189820E+03  0.25500000000E-02 0.  1.
         -2   -1    0    0    0  501 -0.00000000000E+00 -0.00000000000E+00 -0.11580762342E+04  0.11580762342E+04  0.25500000000E-02 0. -1.
    -200001    2    1    2    0    0 -0.39456495137E+02 -0.12634927278E+03 -0.75079191315E+03  0.97809675449E+03  0.61275101839E+03 0.  0.
   -5000001    2    3    3    0    0 -0.24995414162E+03 -0.95478469134E+02 -0.12986063224E+03  0.31400419971E+03  0.10070572304E+03 0.  0.
     200001    1    1    2    0    0  0.39456495137E+02  0.12634927278E+03  0.41217577128E+02  0.62848137793E+03  0.61300000000E+03 0.  1.
         11    1    4    4    0    0 -0.35111556858E+02  0.14525883987E+02  0.59525436009E+00  0.38002329647E+02  0.51100000000E-03 0.  1.
    -200002    1    4    4    0    0 -0.21484258476E+03 -0.11000435312E+03 -0.13045588660E+03  0.27600187007E+03  0.30000000000E+02 0.  1.
    -200000    1    3    3    0    0  0.21049764648E+03 -0.30870803643E+02 -0.62093128091E+03  0.66409255477E+03  0.10100000000E+03 0. -1.
<mgrwt>
<rscale>  0 0.14413874E+04</rscale>
<asrwt>0</asrwt>
<pdfrwt beam="1">  1        2 0.64071700E-01 0.14413874E+04</pdfrwt>
<pdfrwt beam="2">  1       -2 0.16543946E+00 0.14413874E+04</pdfrwt>
<totfact> 0.16965150E+01</totfact>
</mgrwt>
</event>
<event>
 8    2  0.7266322E-052  0.1509401E+04  0.7818608E-02  0.8878225E-01
         -2   -1    0    0    0  501 -0.00000000000E+00  0.00000000000E+00  0.24770323871E+03  0.24770323872E+03  0.25500000000E-02 0. -1.
          2   -1    0    0  501    0  0.00000000000E+00 -0.00000000000E+00 -0.22994168945E+04  0.22994168945E+04  0.25500000000E-02 0.  1.
    -200001    2    1    2    0    0 -0.17659300972E+03  0.21270164725E+03 -0.16040620471E+04  0.17392909158E+04  0.61293617681E+03 0.  0.
   -5000001    2    3    3    0    0 -0.33655589035E+02 -0.92792875627E+02 -0.28613849565E+02  0.12498114596E+03  0.71121853302E+02 0.  0.
     200001    1    1    2    0    0  0.17659300972E+03 -0.21270164725E+03 -0.44765160869E+03  0.80782921747E+03  0.61300000000E+03 0. -1.
         11    1    4    4    0    0 -0.40573011039E+02 -0.57030522359E+02 -0.38131009773E+00  0.69991393063E+02  0.51100000000E-03 0.  1.
    -200002    1    4    4    0    0  0.69174220038E+01 -0.35762353268E+02 -0.28232539467E+02  0.54989752893E+02  0.30000000000E+02 0.  1.
    -200000    1    3    3    0    0 -0.14293742069E+03  0.30549452288E+03 -0.15754481975E+04  0.16143097698E+04  0.10100000000E+03 0.  1.
<mgrwt>
<rscale>  0 0.15094012E+04</rscale>
<asrwt>0</asrwt>
<pdfrwt beam="1">  1        2 0.32848812E+00 0.15094012E+04</pdfrwt>
<pdfrwt beam="2">  1       -2 0.35386178E-01 0.15094012E+04</pdfrwt>
<totfact> 0.40760232E+01</totfact>
</mgrwt>
</event>
<event>
 8    2  0.7266322E-052  0.2259740E+04  0.7818608E-02  0.8493966E-01
          2   -1    0    0  501    0  0.00000000000E+00  0.00000000000E+00  0.25257776627E+04  0.25257776627E+04  0.25500000000E-02 0.  1.
         -2   -1    0    0    0  501 -0.00000000000E+00 -0.00000000000E+00 -0.50543097856E+03  0.50543097857E+03  0.25500000000E-02 0. -1.
    -200001    2    1    2    0    0 -0.66125248749E+03  0.66725298825E+03  0.11942775896E+04  0.16381398879E+04  0.61214534957E+03 0.  0.
   -5000001    2    3    3    0    0 -0.70731693153E+03  0.66593473841E+03  0.92072193321E+03  0.13429156208E+04  0.10921157834E+03 0.  0.
     200001    1    1    2    0    0  0.66125248749E+03 -0.66725298825E+03  0.82606909463E+03  0.13930687534E+04  0.61300000000E+03 0. -1.
         11    1    4    4    0    0 -0.60971443707E+02  0.10339861099E+03  0.12151339997E+03  0.17080484793E+03  0.51100000000E-03 0.  1.
    -200002    1    4    4    0    0 -0.64634548782E+03  0.56253612742E+03  0.79920853324E+03  0.11721107729E+04  0.30000000000E+02 0.  1.
    -200000    1    3    3    0    0  0.46064444043E+02  0.13182498371E+01  0.27355565634E+03  0.29522426714E+03  0.10100000000E+03 0.  1.
<mgrwt>
<rscale>  0 0.22597401E+04</rscale>
<asrwt>0</asrwt>
<pdfrwt beam="1">  1        2 0.36082538E+00 0.22597401E+04</pdfrwt>
<pdfrwt beam="2">  1       -2 0.72204426E-01 0.22597401E+04</pdfrwt>
<totfact> 0.67785758E+00</totfact>
</mgrwt>
</event>
<event>
 8    2  0.7266322E-052  0.1596745E+04  0.7818608E-02  0.8822550E-01
          2   -1    0    0  501    0  0.00000000000E+00  0.00000000000E+00  0.65362056517E+03  0.65362056518E+03  0.25500000000E-02 0.  1.
         -2   -1    0    0    0  501 -0.00000000000E+00 -0.00000000000E+00 -0.97518201426E+03  0.97518201426E+03  0.25500000000E-02 0. -1.
    -200001    2    1    2    0    0  0.22875872053E+03 -0.18873594137E+03  0.26529536105E+03  0.72984667207E+03  0.61183554029E+03 0.  0.
   -5000001    2    3    3    0    0  0.35550875615E+03 -0.21507906640E+03  0.34680950774E+03  0.54652976648E+03  0.75976775956E+02 0.  0.
     200001    1    1    2    0    0 -0.22875872053E+03  0.18873594137E+03 -0.58685681014E+03  0.89895590737E+03  0.61300000000E+03 0. -1.
         11    1    4    4    0    0  0.17307503283E+03 -0.14013429728E+03  0.17441869028E+03  0.28286828699E+03  0.51100000000E-03 0.  1.
    -200002    1    4    4    0    0  0.18243372333E+03 -0.74944769117E+02  0.17239081746E+03  0.26366147949E+03  0.30000000000E+02 0.  1.
    -200000    1    3    3    0    0 -0.12675003562E+03  0.26343125033E+02 -0.81514146689E+02  0.18331690559E+03  0.10100000000E+03 0. -1.
<mgrwt>
<rscale>  0 0.15967455E+04</rscale>
<asrwt>0</asrwt>
<pdfrwt beam="1">  1        2 0.93374366E-01 0.15967455E+04</pdfrwt>
<pdfrwt beam="2">  1       -2 0.13931172E+00 0.15967455E+04</pdfrwt>
<totfact> 0.17115614E+01</totfact>
</mgrwt>
</event>
<event>
 8    2  0.7266322E-052  0.1373607E+04  0.7818608E-02  0.8973148E-01
         -2   -1    0    0    0  501 -0.00000000000E+00  0.00000000000E+00  0.18216718358E+03  0.18216718360E+03  0.25500000000E-02 0.  1.
          2   -1    0    0  501    0  0.00000000000E+00 -0.00000000000E+00 -0.25893759042E+04  0.25893759042E+04  0.25500000000E-02 0. -1.
    -200001    2    1    2    0    0  0.28325293665E+03  0.71493050954E+02 -0.99376668546E+03  0.12034452371E+04  0.61267016512E+03 0.  0.
   -5000001    2    3    3    0    0  0.30174963833E+02  0.25872749954E+03 -0.32518288915E+03  0.45758298997E+03  0.18917672653E+03 0.  0.
     200001    1    1    2    0    0 -0.28325293665E+03 -0.71493050954E+02 -0.14134420351E+04  0.15680978506E+04  0.61300000000E+03 0. -1.
         11    1    4    4    0    0  0.59979892169E+02  0.27087313317E+03 -0.27156229328E+03  0.38822148430E+03  0.51100000000E-03 0.  1.
    -200002    1    4    4    0    0 -0.29804928336E+02 -0.12145633625E+02 -0.53620595861E+02  0.69361505677E+02  0.30000000000E+02 0.  1.
    -200000    1    3    3    0    0  0.25307797282E+03 -0.18723444859E+03 -0.66858379631E+03  0.74586224717E+03  0.10100000000E+03 0.  1.
<mgrwt>
<rscale>  0 0.13736074E+04</rscale>
<asrwt>0</asrwt>
<pdfrwt beam="1">  1        2 0.36991082E+00 0.13736074E+04</pdfrwt>
<pdfrwt beam="2">  1       -2 0.26023885E-01 0.13736074E+04</pdfrwt>
<totfact> 0.51596955E+01</totfact>
</mgrwt>
</event>
<event>
 8    2  0.7266322E-052  0.1681122E+04  0.7818608E-02  0.8772205E-01
         -2   -1    0    0    0  501 -0.00000000000E+00  0.00000000000E+00  0.87590350607E+03  0.87590350608E+03  0.25500000000E-02 0. -1.
          2   -1    0    0  501    0  0.00000000000E+00 -0.00000000000E+00 -0.80664477656E+03  0.80664477656E+03  0.25500000000E-02 0.  1.
    -200001    2    1    2    0    0 -0.47397998797E+03  0.84866257949E+02 -0.27928777747E+03  0.82866715609E+03  0.61386340680E+03 0.  0.
   -5000001    2    3    3    0    0 -0.26604924611E+03  0.23822378936E+03  0.80925139429E+02  0.37401556273E+03  0.76197032721E+02 0.  0.
     200001    1    1    2    0    0  0.47397998797E+03 -0.84866257949E+02  0.34854650699E+03  0.85388112655E+03  0.61300000000E+03 0. -1.
         11    1    4    4    0    0 -0.21475677937E+02  0.43351812195E+02  0.26572010480E+02  0.55196522578E+02  0.51100000000E-03 0.  1.
    -200002    1    4    4    0    0 -0.24457356818E+03  0.19487197716E+03  0.54353128948E+02  0.31881904015E+03  0.30000000000E+02 0.  1.
    -200000    1    3    3    0    0 -0.20793074186E+03 -0.15335753141E+03 -0.36021291690E+03  0.45465159337E+03  0.10100000000E+03 0.  1.
<mgrwt>
<rscale>  0 0.16811222E+04</rscale>
<asrwt>0</asrwt>
<pdfrwt beam="1">  1        2 0.11523497E+00 0.16811222E+04</pdfrwt>
<pdfrwt beam="2">  1       -2 0.12512907E+00 0.16811222E+04</pdfrwt>
<totfact> 0.17182301E+01</totfact>
</mgrwt>
</event>
<event>
 8    2  0.7266322E-052  0.1559804E+04  0.7818608E-02  0.8845630E-01
         -2   -1    0    0    0  501 -0.00000000000E+00  0.00000000000E+00  0.83126158184E+03  0.83126158184E+03  0.25500000000E-02 0. -1.
          2   -1    0    0  501    0  0.00000000000E+00 -0.00000000000E+00 -0.73171549850E+03  0.73171549851E+03  0.25500000000E-02 0.  1.
    -200001    2    1    2    0    0 -0.10842945957E+03 -0.36701605601E+03 -0.24230061660E+03  0.76354859741E+03  0.61468621160E+03 0.  0.
   -5000001    2    3    3    0    0 -0.23228019746E+03 -0.16435680323E+03 -0.36169190099E+03  0.47918077785E+03  0.13351381095E+03 0.  0.
     200001    1    1    2    0    0  0.10842945957E+03  0.36701605601E+03  0.34184669994E+03  0.79942848294E+03  0.61300000000E+03 0. -1.
         11    1    4    4    0    0 -0.43112919619E+02 -0.67720524795E+02 -0.33269746836E+02  0.86900341607E+02  0.51100000000E-03 0.  1.
    -200002    1    4    4    0    0 -0.18916727785E+03 -0.96636278433E+02 -0.32842215416E+03  0.39228043624E+03  0.30000000000E+02 0.  1.
    -200000    1    3    3    0    0  0.12385073790E+03 -0.20265925278E+03  0.11939128439E+03  0.28436781956E+03  0.10100000000E+03 0. -1.
<mgrwt>
<rscale>  0 0.15598038E+04</rscale>
<asrwt>0</asrwt>
<pdfrwt beam="1">  1        2 0.10453078E+00 0.15598038E+04</pdfrwt>
<pdfrwt beam="2">  1       -2 0.11875166E+00 0.15598038E+04</pdfrwt>
<totfact> 0.22373269E+01</totfact>
</mgrwt>
</event>
<event>
 8    2  0.7266322E-052  0.1498244E+04  0.7818608E-02  0.8885621E-01
          2   -1    0    0  501    0  0.00000000000E+00  0.00000000000E+00  0.37444910788E+04  0.37444910788E+04  0.25500000000E-02 0.  1.
         -2   -1    0    0    0  501 -0.00000000000E+00 -0.00000000000E+00 -0.14986922723E+03  0.14986922725E+03  0.25500000000E-02 0. -1.
    -200001    2    1    2    0    0  0.63551132486E+02  0.33432029297E+03  0.11132844587E+04  0.13158698442E+04  0.61343488333E+03 0.  0.
   -5000001    2    3    3    0    0  0.26172650345E+03  0.38447419364E+03  0.78935421751E+03  0.91973767864E+03  0.80722664919E+02 0.  0.
     200001    1    1    2    0    0 -0.63551132486E+02 -0.33432029297E+03  0.24813373928E+04  0.25784904618E+04  0.61300000000E+03 0.  1.
         11    1    4    4    0    0  0.22527086348E+03  0.30278873079E+03  0.64455562704E+03  0.74691360530E+03  0.51100000000E-03 0.  1.
    -200002    1    4    4    0    0  0.36455639978E+02  0.81685462844E+02  0.14479859047E+03  0.17282407334E+03  0.30000000000E+02 0.  1.
    -200000    1    3    3    0    0 -0.19817537097E+03 -0.50153900664E+02  0.32393024124E+03  0.39613216557E+03  0.10100000000E+03 0.  1.
<mgrwt>
<rscale>  0 0.14982443E+04</rscale>
<asrwt>0</asrwt>
<pdfrwt beam="1">  1        2 0.53492724E+00 0.14982443E+04</pdfrwt>
<pdfrwt beam="2">  1       -2 0.21409892E-01 0.14982443E+04</pdfrwt>
<totfact> 0.15684984E+01</totfact>
</mgrwt>
</event>
<event>
 8    2  0.7266322E-052  0.1375777E+04  0.7818608E-02  0.8971541E-01
         -2   -1    0    0    0  501 -0.00000000000E+00  0.00000000000E+00  0.12279704569E+04  0.12279704569E+04  0.25500000000E-02 0. -1.
          2   -1    0    0  501    0  0.00000000000E+00 -0.00000000000E+00 -0.38534365583E+03  0.38534365584E+03  0.25500000000E-02 0.  1.
    -200001    2    1    2    0    0 -0.28627227594E+03 -0.10454586074E+03  0.33923826556E+03  0.76357846522E+03  0.61244413521E+03 0.  0.
   -5000001    2    3    3    0    0  0.28796234965E+01  0.13400939141E+03 -0.98235118326E+02  0.17868412357E+03  0.65658726215E+02 0.  0.
     200001    1    1    2    0    0  0.28627227594E+03  0.10454586074E+03  0.50338853550E+03  0.84973564751E+03  0.61300000000E+03 0. -1.
         11    1    4    4    0    0 -0.33370639921E+01  0.15011833994E+02 -0.39703112616E+02  0.42577321518E+02  0.51100000000E-03 0.  1.
    -200002    1    4    4    0    0  0.62166874885E+01  0.11899755741E+03 -0.58532005710E+02  0.13610680206E+03  0.30000000000E+02 0.  1.
    -200000    1    3    3    0    0 -0.28915189944E+03 -0.23855525215E+03  0.43747338388E+03  0.58489434164E+03  0.10100000000E+03 0. -1.
<mgrwt>
<rscale>  0 0.13757771E+04</rscale>
<asrwt>0</asrwt>
<pdfrwt beam="1">  1        2 0.55049094E-01 0.13757771E+04</pdfrwt>
<pdfrwt beam="2">  1       -2 0.17542435E+00 0.13757771E+04</pdfrwt>
<totfact> 0.17165649E+01</totfact>
</mgrwt>
</event>
<event>
 8    2  0.7266322E-052  0.1465977E+04  0.7818608E-02  0.8907398E-01
          2   -1    0    0  501    0  0.00000000000E+00  0.00000000000E+00  0.83933102523E+03  0.83933102524E+03  0.25500000000E-02 0.  1.
         -2   -1    0    0    0  501 -0.00000000000E+00 -0.00000000000E+00 -0.64011963697E+03  0.64011963697E+03  0.25500000000E-02 0. -1.
    -200001    2    1    2    0    0  0.28651165920E+03 -0.22931894008E+03 -0.68906298295E+02  0.71634372279E+03  0.61132981614E+03 0.  0.
   -5000001    2    3    3    0    0  0.16768103144E+03 -0.37584920296E+03  0.10005112397E+03  0.44369111126E+03  0.13218178064E+03 0.  0.
     200001    1    1    2    0    0 -0.28651165920E+03  0.22931894008E+03  0.26811768656E+03  0.76310693942E+03  0.61300000000E+03 0.  1.
         11    1    4    4    0    0  0.10879879085E+03 -0.16391328481E+03  0.10216550815E+03  0.22168115140E+03  0.51100000000E-03 0.  1.
    -200002    1    4    4    0    0  0.58882240586E+02 -0.21193591815E+03 -0.21143841824E+01  0.22200995986E+03  0.30000000000E+02 0.  1.
    -200000    1    3    3    0    0  0.11883062777E+03  0.14653026288E+03 -0.16895742227E+03  0.27265261153E+03  0.10100000000E+03 0. -1.
<mgrwt>
<rscale>  0 0.14659772E+04</rscale>
<asrwt>0</asrwt>
<pdfrwt beam="1">  1        2 0.11990443E+00 0.14659772E+04</pdfrwt>
<pdfrwt beam="2">  1       -2 0.91445663E-01 0.14659772E+04</pdfrwt>
<totfact> 0.35296021E+01</totfact>
</mgrwt>
</event>
<event>
 8    2  0.7266322E-052  0.1957076E+04  0.7818608E-02  0.8626956E-01
          2   -1    0    0  501    0  0.00000000000E+00  0.00000000000E+00  0.21485528975E+04  0.21485528975E+04  0.25500000000E-02 0.  1.
         -2   -1    0    0    0  501 -0.00000000000E+00 -0.00000000000E+00 -0.44566598675E+03  0.44566598676E+03  0.25500000000E-02 0. -1.
    -200001    2    1    2    0    0 -0.19641714864E+03 -0.19471005717E+03  0.17934759100E+04  0.19156416452E+04  0.61370625744E+03 0.  0.
   -5000001    2    3    3    0    0 -0.28703697785E+03 -0.25407203599E+03  0.69104901073E+03  0.80330992031E+03  0.14427496910E+03 0.  0.
     200001    1    1    2    0    0  0.19641714864E+03  0.19471005717E+03 -0.90588999213E+02  0.67857723910E+03  0.61300000000E+03 0. -1.
         11    1    4    4    0    0 -0.16789341103E+03 -0.21117653866E+03  0.37901950835E+03  0.46523060481E+03  0.51100000000E-03 0.  1.
    -200002    1    4    4    0    0 -0.11914356682E+03 -0.42895497324E+02  0.31202950239E+03  0.33807931549E+03  0.30000000000E+02 0.  1.
    -200000    1    3    3    0    0  0.90619829211E+02  0.59361978812E+02  0.11024268992E+04  0.11123317249E+04  0.10100000000E+03 0.  1.
<mgrwt>
<rscale>  0 0.19570763E+04</rscale>
<asrwt>0</asrwt>
<pdfrwt beam="1">  1        2 0.30693613E+00 0.19570763E+04</pdfrwt>
<pdfrwt beam="2">  1       -2 0.63666569E-01 0.19570763E+04</pdfrwt>
<totfact> 0.14358636E+01</totfact>
</mgrwt>
</event>
<event>
 8    2  0.7266322E-052  0.1287360E+04  0.7818608E-02  0.9039649E-01
          2   -1    0    0  501    0  0.00000000000E+00  0.00000000000E+00  0.17395954322E+04  0.17395954322E+04  0.25500000000E-02 0.  1.
         -2   -1    0    0    0  501 -0.00000000000E+00 -0.00000000000E+00 -0.23817262799E+03  0.23817262800E+03  0.25500000000E-02 0. -1.
    -200001    2    1    2    0    0 -0.86642171882E+02  0.15418656431E+03  0.87502183272E+03  0.10836609415E+04  0.61431056144E+03 0.  0.
   -5000001    2    3    3    0    0 -0.17230463508E+03  0.51713125376E+02  0.87138363913E+03  0.91617034555E+03  0.21839304229E+03 0.  0.
     200001    1    1    2    0    0  0.86642171882E+02 -0.15418656431E+03  0.62640097147E+03  0.89410711865E+03  0.61300000000E+03 0. -1.
         11    1    4    4    0    0 -0.15698427639E+02  0.88545387232E+02  0.13774596430E+03  0.16450129760E+03  0.51100000000E-03 0.  1.
    -200002    1    4    4    0    0 -0.15660620744E+03 -0.36832261857E+02  0.73363767483E+03  0.75166904795E+03  0.30000000000E+02 0.  1.
    -200000    1    3    3    0    0  0.85662463197E+02  0.10247343894E+03  0.36381935937E+01  0.16749059598E+03  0.10100000000E+03 0. -1.
<mgrwt>
<rscale>  0 0.12873601E+04</rscale>
<asrwt>0</asrwt>
<pdfrwt beam="1">  1        2 0.24851364E+00 0.12873601E+04</pdfrwt>
<pdfrwt beam="2">  1       -2 0.34024660E-01 0.12873601E+04</pdfrwt>
<totfact> 0.86766444E+01</totfact>
</mgrwt>
</event>
<event>
 8    2  0.7266322E-052  0.1387864E+04  0.7818608E-02  0.8962651E-01
          2   -1    0    0  501    0  0.00000000000E+00  0.00000000000E+00  0.18222964896E+04  0.18222964896E+04  0.25500000000E-02 0.  1.
         -2   -1    0    0    0  501 -0.00000000000E+00 -0.00000000000E+00 -0.26424977759E+03  0.26424977760E+03  0.25500000000E-02 0. -1.
    -200001    2    1    2    0    0  0.11895536174E+03  0.26174500056E+03  0.10096659331E+04  0.12152533761E+04  0.61217207401E+03 0.  0.
   -5000001    2    3    3    0    0  0.19492064673E+02 -0.13177547537E+03  0.57785735810E+02  0.17552830548E+03  0.98621895479E+02 0.  0.
     200001    1    1    2    0    0 -0.11895536174E+03 -0.26174500056E+03  0.54838077885E+03  0.87129289106E+03  0.61300000000E+03 0. -1.
         11    1    4    4    0    0 -0.19661193110E+02 -0.35289593632E+02 -0.17037670924E+02  0.43842903234E+02  0.51100000000E-03 0.  1.
    -200002    1    4    4    0    0  0.39153257783E+02 -0.96485881734E+02  0.74823406734E+02  0.13168540224E+03  0.30000000000E+02 0.  1.
    -200000    1    3    3    0    0  0.99463297071E+02  0.39352047592E+03  0.95188019731E+03  0.10397250706E+04  0.10100000000E+03 0. -1.
<mgrwt>
<rscale>  0 0.13878637E+04</rscale>
<asrwt>0</asrwt>
<pdfrwt beam="1">  1        2 0.26032806E+00 0.13878637E+04</pdfrwt>
<pdfrwt beam="2">  1       -2 0.37749969E-01 0.13878637E+04</pdfrwt>
<totfact> 0.63962896E+01</totfact>
</mgrwt>
</event>
<event>
 8    2  0.7266322E-052  0.1603159E+04  0.7818608E-02  0.8818610E-01
          2   -1    0    0  501    0  0.00000000000E+00  0.00000000000E+00  0.11442417800E+04  0.11442417800E+04  0.25500000000E-02 0.  1.
         -2   -1    0    0    0  501 -0.00000000000E+00 -0.00000000000E+00 -0.56153318277E+03  0.56153318278E+03  0.25500000000E-02 0. -1.
    -200001    2    1    2    0    0 -0.42678314874E+01 -0.21067833162E+03  0.79277864126E+03  0.10243778706E+04  0.61355396987E+03 0.  0.
   -5000001    2    3    3    0    0 -0.13883564859E+03 -0.37760661389E+03  0.53336418315E+03  0.67299430540E+03  0.81128854689E+02 0.  0.
     200001    1    1    2    0    0  0.42678314874E+01  0.21067833162E+03 -0.21007004405E+03  0.68139709216E+03  0.61300000000E+03 0. -1.
         11    1    4    4    0    0 -0.44672935313E+02 -0.53131787486E+02  0.11596322085E+03  0.13515223484E+03  0.51100000000E-03 0.  1.
    -200002    1    4    4    0    0 -0.94162713275E+02 -0.32447482640E+03  0.41740096230E+03  0.53784207056E+03  0.30000000000E+02 0.  1.
    -200000    1    3    3    0    0  0.13456781710E+03  0.16692828226E+03  0.25941445810E+03  0.35138356520E+03  0.10100000000E+03 0. -1.
<mgrwt>
<rscale>  0 0.16031590E+04</rscale>
<asrwt>0</asrwt>
<pdfrwt beam="1">  1        2 0.16346311E+00 0.16031590E+04</pdfrwt>
<pdfrwt beam="2">  1       -2 0.80219028E-01 0.16031590E+04</pdfrwt>
<totfact> 0.30383252E+01</totfact>
</mgrwt>
</event>
<event>
 8    2  0.7266322E-052  0.1440551E+04  0.7818608E-02  0.8924978E-01
          2   -1    0    0  501    0  0.00000000000E+00  0.00000000000E+00  0.53310120579E+03  0.53310120580E+03  0.25500000000E-02 0.  1.
         -2   -1    0    0    0  501 -0.00000000000E+00 -0.00000000000E+00 -0.97316704660E+03  0.97316704660E+03  0.25500000000E-02 0. -1.
    -200001    2    1    2    0    0  0.78213607862E+02 -0.20946991969E+01  0.16604700650E+03  0.64066814849E+03  0.61380967075E+03 0.  0.
   -5000001    2    3    3    0    0 -0.15236527790E+03 -0.78910198993E+02  0.28722797229E+03  0.35092158676E+03  0.10584920678E+03 0.  0.
     200001    1    1    2    0    0 -0.78213607862E+02  0.20946991969E+01 -0.60611284731E+03  0.86560010391E+03  0.61300000000E+03 0. -1.
         11    1    4    4    0    0 -0.15162710616E+03 -0.79732937908E+02  0.25066440875E+03  0.30361285633E+03  0.51100000000E-03 0.  1.
    -200002    1    4    4    0    0 -0.73817173063E+00  0.82273891421E+00  0.36563563535E+02  0.47308730433E+02  0.30000000000E+02 0. -1.
    -200000    1    3    3    0    0  0.23057888576E+03  0.76815499797E+02 -0.12118096579E+03  0.28974656173E+03  0.10100000000E+03 0.  1.
<mgrwt>
<rscale>  0 0.14405506E+04</rscale>
<asrwt>0</asrwt>
<pdfrwt beam="1">  1        2 0.76157315E-01 0.14405506E+04</pdfrwt>
<pdfrwt beam="2">  1       -2 0.13902386E+00 0.14405506E+04</pdfrwt>
<totfact> 0.22157392E+01</totfact>
</mgrwt>
</event>
<event>
 8    2  0.7266322E-052  0.2523914E+04  0.7818608E-02  0.8394515E-01
          2   -1    0    0  501    0  0.00000000000E+00  0.00000000000E+00  0.87429714981E+03  0.87429714981E+03  0.25500000000E-02 0.  1.
         -2   -1    0    0    0  501 -0.00000000000E+00 -0.00000000000E+00 -0.18215039784E+04  0.18215039784E+04  0.25500000000E-02 0. -1.
    -200001    2    1    2    0    0  0.63534407008E+03 -0.22072194727E+03 -0.14087841135E+04  0.16754076476E+04  0.60822515692E+03 0.  0.
   -5000001    2    3    3    0    0 -0.95943345943E+02 -0.10284744613E+03 -0.30231929467E+03  0.34006459116E+03  0.66815023939E+02 0.  0.
     200001    1    1    2    0    0 -0.63534407008E+03  0.22072194727E+03  0.46157728495E+03  0.10203934807E+04  0.61300000000E+03 0.  1.
         11    1    4    4    0    0 -0.65321981442E+02 -0.66025112934E+02 -0.23167061099E+03  0.24959476916E+03  0.51100000000E-03 0.  1.
    -200002    1    4    4    0    0 -0.30621364501E+02 -0.36822333199E+02 -0.70648683678E+02  0.90469821994E+02  0.30000000000E+02 0. -1.
    -200000    1    3    3    0    0  0.73128741602E+03 -0.11787450113E+03 -0.11064648189E+04  0.13353430564E+04  0.10100000000E+03 0.  1.
<mgrwt>
<rscale>  0 0.25239142E+04</rscale>
<asrwt>0</asrwt>
<pdfrwt beam="1">  1        2 0.12489959E+00 0.25239142E+04</pdfrwt>
<pdfrwt beam="2">  1       -2 0.26021485E+00 0.25239142E+04</pdfrwt>
<totfact> 0.16826535E+00</totfact>
</mgrwt>
</event>
<event>
 8    2  0.7266322E-052  0.1431759E+04  0.7818608E-02  0.8931145E-01
          2   -1    0    0  501    0  0.00000000000E+00  0.00000000000E+00  0.49013409146E+04  0.49013409146E+04  0.25500000000E-02 0.  1.
         -2   -1    0    0    0  501 -0.00000000000E+00 -0.00000000000E+00 -0.10455987314E+03  0.10455987317E+03  0.25500000000E-02 0. -1.
    -200001    2    1    2    0    0 -0.14202928293E+03 -0.73094770972E+01  0.12059876834E+04  0.13603841322E+04  0.61319894732E+03 0.  0.
   -5000001    2    3    3    0    0 -0.35753837453E+03 -0.18763146442E+02  0.88488497306E+03  0.96053002670E+03  0.10682121387E+03 0.  0.
     200001    1    1    2    0    0  0.14202928293E+03  0.73094770972E+01  0.35907933580E+04  0.36455166555E+04  0.61300000000E+03 0.  1.
         11    1    4    4    0    0 -0.31406007217E+03 -0.33747013705E+02  0.70673651182E+03  0.77411180524E+03  0.51100000000E-03 0.  1.
    -200002    1    4    4    0    0 -0.43478302357E+02  0.14983867264E+02  0.17814846123E+03  0.18641822146E+03  0.30000000000E+02 0. -1.
    -200000    1    3    3    0    0  0.21550909160E+03  0.11453669344E+02  0.32110271037E+03  0.39985410553E+03  0.10100000000E+03 0.  1.
<mgrwt>
<rscale>  0 0.14317592E+04</rscale>
<asrwt>0</asrwt>
<pdfrwt beam="1">  1        2 0.70019176E+00 0.14317592E+04</pdfrwt>
<pdfrwt beam="2">  1       -2 0.14937120E-01 0.14317592E+04</pdfrwt>
<totfact> 0.39274411E+00</totfact>
</mgrwt>
</event>
<event>
 8    2  0.7266322E-052  0.1802364E+04  0.7818608E-02  0.8705044E-01
          2   -1    0    0  501    0  0.00000000000E+00  0.00000000000E+00  0.21998619265E+04  0.21998619265E+04  0.25500000000E-02 0.  1.
         -2   -1    0    0    0  501 -0.00000000000E+00 -0.00000000000E+00 -0.36917252509E+03  0.36917252509E+03  0.25500000000E-02 0. -1.
    -200001    2    1    2    0    0  0.55236447741E+03  0.34788862144E+03  0.76971234592E+03  0.11806633481E+04  0.61267922861E+03 0.  0.
   -5000001    2    3    3    0    0  0.13067669147E+03 -0.15522085580E+03  0.26171354548E+03  0.34447944715E+03  0.94879912794E+02 0.  0.
     200001    1    1    2    0    0 -0.55236447741E+03 -0.34788862144E+03  0.10609770555E+04  0.13883711035E+04  0.61300000000E+03 0.  1.
         11    1    4    4    0    0 -0.11157374584E+02  0.24399378952E+00  0.96932824871E+01  0.14781957455E+02  0.51100000000E-03 0.  1.
    -200002    1    4    4    0    0  0.14183406605E+03 -0.15546484959E+03  0.25202026300E+03  0.32969748970E+03  0.30000000000E+02 0.  1.
    -200000    1    3    3    0    0  0.42168778594E+03  0.50310947724E+03  0.50799880044E+03  0.83618390092E+03  0.10100000000E+03 0. -1.
<mgrwt>
<rscale>  0 0.18023635E+04</rscale>
<asrwt>0</asrwt>
<pdfrwt beam="1">  1        2 0.31426599E+00 0.18023635E+04</pdfrwt>
<pdfrwt beam="2">  1       -2 0.52738931E-01 0.18023635E+04</pdfrwt>
<totfact> 0.20307676E+01</totfact>
</mgrwt>
</event>
<event>
 8    2  0.7266322E-052  0.1315093E+04  0.7818608E-02  0.9017682E-01
          2   -1    0    0  501    0  0.00000000000E+00  0.00000000000E+00  0.17147798223E+04  0.17147798223E+04  0.25500000000E-02 0.  1.
         -2   -1    0    0    0  501 -0.00000000000E+00 -0.00000000000E+00 -0.25214146611E+03  0.25214146612E+03  0.25500000000E-02 0. -1.
    -200001    2    1    2    0    0 -0.31266508177E+01  0.23624312255E+03  0.79056867048E+03  0.10270982990E+04  0.61164655174E+03 0.  0.
   -5000001    2    3    3    0    0  0.98279378657E+02  0.37900311342E+03  0.30880375214E+03  0.50464061238E+03  0.77460919718E+02 0.  0.
     200001    1    1    2    0    0  0.31266508177E+01 -0.23624312255E+03  0.67206968567E+03  0.93982298934E+03  0.61300000000E+03 0. -1.
         11    1    4    4    0    0  0.29422685332E+02  0.84955380908E+02  0.10896028178E+03  0.14126377513E+03  0.51100000000E-03 0.  1.
    -200002    1    4    4    0    0  0.68856693325E+02  0.29404773251E+03  0.19984347036E+03  0.36337683725E+03  0.30000000000E+02 0.  1.
    -200000    1    3    3    0    0 -0.10140602948E+03 -0.14275999086E+03  0.48176491834E+03  0.52245768666E+03  0.10100000000E+03 0. -1.
<mgrwt>
<rscale>  0 0.13150925E+04</rscale>
<asrwt>0</asrwt>
<pdfrwt beam="1">  1        2 0.24496854E+00 0.13150925E+04</pdfrwt>
<pdfrwt beam="2">  1       -2 0.36020210E-01 0.13150925E+04</pdfrwt>
<totfact> 0.79997790E+01</totfact>
</mgrwt>
</event>
<event>
 8    2  0.7266322E-052  0.1338192E+04  0.7818608E-02  0.8999815E-01
          2   -1    0    0  501    0  0.00000000000E+00  0.00000000000E+00  0.20621459166E+04  0.20621459166E+04  0.25500000000E-02 0.  1.
         -2   -1    0    0    0  501 -0.00000000000E+00 -0.00000000000E+00 -0.21709893925E+03  0.21709893926E+03  0.25500000000E-02 0. -1.
    -200001    2    1    2    0    0 -0.69829791625E+02 -0.75532779985E+02  0.50393653128E+03  0.80109478595E+03  0.61418191756E+03 0.  0.
   -5000001    2    3    3    0    0  0.15607946509E+03 -0.18658062875E+03  0.35214039487E+02  0.25955218255E+03  0.83391704878E+02 0.  0.
     200001    1    1    2    0    0  0.69829791625E+02  0.75532779985E+02  0.13411104461E+04  0.14781500700E+04  0.61300000000E+03 0.  1.
         11    1    4    4    0    0  0.37808396308E+02 -0.61846988529E+01 -0.30429035784E+01  0.38431557264E+02  0.51100000000E-03 0.  1.
    -200002    1    4    4    0    0  0.11827106878E+03 -0.18039592990E+03  0.38256943065E+02  0.22112062528E+03  0.30000000000E+02 0.  1.
    -200000    1    3    3    0    0 -0.22590925671E+03  0.11104784877E+03  0.46872249179E+03  0.54154260340E+03  0.10100000000E+03 0.  1.
<mgrwt>
<rscale>  0 0.13381923E+04</rscale>
<asrwt>0</asrwt>
<pdfrwt beam="1">  1        2 0.29459229E+00 0.13381923E+04</pdfrwt>
<pdfrwt beam="2">  1       -2 0.31014132E-01 0.13381923E+04</pdfrwt>
<totfact> 0.70264963E+01</totfact>
</mgrwt>
</event>
<event>
 8    2  0.7266322E-052  0.2766562E+04  0.7818608E-02  0.8313725E-01
          2   -1    0    0  501    0  0.00000000000E+00  0.00000000000E+00  0.20325985683E+04  0.20325985683E+04  0.25500000000E-02 0.  1.
         -2   -1    0    0    0  501 -0.00000000000E+00 -0.00000000000E+00 -0.94138942363E+03  0.94138942363E+03  0.25500000000E-02 0. -1.
    -200001    2    1    2    0    0 -0.99971730499E+03  0.29854859344E+03 -0.17476456171E+03  0.12226957897E+04  0.61308758711E+03 0.  0.
   -5000001    2    3    3    0    0 -0.40016145844E+03 -0.15448990439E+03 -0.14501247624E+03  0.46388271634E+03  0.10080790085E+03 0.  0.
     200001    1    1    2    0    0  0.99971730499E+03 -0.29854859344E+03  0.12659737064E+04  0.17512922023E+04  0.61300000000E+03 0.  1.
         11    1    4    4    0    0 -0.17834489605E+03 -0.49504305415E+02 -0.18081884791E+02  0.18596917153E+03  0.51100000000E-03 0.  1.
    -200002    1    4    4    0    0 -0.22181656239E+03 -0.10498559897E+03 -0.12693059144E+03  0.27791354481E+03  0.30000000000E+02 0.  1.
    -200000    1    3    3    0    0 -0.59955584655E+03  0.45303849782E+03 -0.29752085471E+02  0.75881307331E+03  0.10100000000E+03 0.  1.
<mgrwt>
<rscale>  0 0.27665623E+04</rscale>
<asrwt>0</asrwt>
<pdfrwt beam="1">  1        2 0.29037122E+00 0.27665623E+04</pdfrwt>
<pdfrwt beam="2">  1       -2 0.13448420E+00 0.27665623E+04</pdfrwt>
<totfact> 0.27023033E+00</totfact>
</mgrwt>
</event>
<event>
 8    2  0.7266322E-052  0.1417154E+04  0.7818608E-02  0.8941494E-01
         -2   -1    0    0    0  501 -0.00000000000E+00  0.00000000000E+00  0.77982294582E+03  0.77982294583E+03  0.25500000000E-02 0. -1.
          2   -1    0    0  501    0  0.00000000000E+00 -0.00000000000E+00 -0.64384034602E+03  0.64384034603E+03  0.25500000000E-02 0.  1.
    -200001    2    1    2    0    0 -0.26447922632E+03  0.23805389728E+03  0.67251685981E+02  0.71154542402E+03  0.61249912817E+03 0.  0.
   -5000001    2    3    3    0    0  0.12187270675E+03 -0.60371225277E+02  0.90122401608E+02  0.21249688971E+03  0.13614418596E+03 0.  0.
     200001    1    1    2    0    0  0.26447922632E+03 -0.23805389728E+03  0.68730913818E+02  0.71211786783E+03  0.61300000000E+03 0. -1.
         11    1    4    4    0    0  0.10412398423E+03  0.11016525642E+02  0.20138052155E+02  0.10662414864E+03  0.51100000000E-03 0.  1.
    -200002    1    4    4    0    0  0.17748722526E+02 -0.71387750919E+02  0.69984349452E+02  0.10587274107E+03  0.30000000000E+02 0.  1.
    -200000    1    3    3    0    0 -0.38635193308E+03  0.29842512256E+03 -0.22870715627E+02  0.49904853431E+03  0.10100000000E+03 0.  1.
<mgrwt>
<rscale>  0 0.14171542E+04</rscale>
<asrwt>0</asrwt>
<pdfrwt beam="1">  1        2 0.91977192E-01 0.14171542E+04</pdfrwt>
<pdfrwt beam="2">  1       -2 0.11140328E+00 0.14171542E+04</pdfrwt>
<totfact> 0.30934627E+01</totfact>
</mgrwt>
</event>
<event>
 8    2  0.7266322E-052  0.1889554E+04  0.7818608E-02  0.8660073E-01
         -2   -1    0    0    0  501 -0.00000000000E+00  0.00000000000E+00  0.25760851279E+03  0.25760851280E+03  0.25500000000E-02 0. -1.
          2   -1    0    0  501    0  0.00000000000E+00 -0.00000000000E+00 -0.34649625300E+04  0.34649625300E+04  0.25500000000E-02 0.  1.
    -200001    2    1    2    0    0  0.29082371900E+03  0.24325997953E+03 -0.28071707181E+04  0.28981503213E+04  0.61262875473E+03 0.  0.
   -5000001    2    3    3    0    0  0.18762679432E+03  0.43556119542E+03 -0.19214592278E+04  0.19803730025E+04  0.70386759670E+02 0.  0.
     200001    1    1    2    0    0 -0.29082371900E+03 -0.24325997953E+03 -0.40018329914E+03  0.82442072153E+03  0.61300000000E+03 0. -1.
         11    1    4    4    0    0  0.36346159501E+02  0.74618685496E+02 -0.44234027297E+03  0.45005989449E+03  0.51100000000E-03 0.  1.
    -200002    1    4    4    0    0  0.15128063482E+03  0.36094250993E+03 -0.14791189548E+04  0.15303131080E+04  0.30000000000E+02 0.  1.
    -200000    1    3    3    0    0  0.10319692469E+03 -0.19230121589E+03 -0.88571149030E+03  0.91777731883E+03  0.10100000000E+03 0. -1.
<mgrwt>
<rscale>  0 0.18895543E+04</rscale>
<asrwt>0</asrwt>
<pdfrwt beam="1">  1        2 0.49499462E+00 0.18895543E+04</pdfrwt>
<pdfrwt beam="2">  1       -2 0.36801218E-01 0.18895543E+04</pdfrwt>
<totfact> 0.82930256E+00</totfact>
</mgrwt>
</event>
<event>
 8    2  0.7266322E-052  0.1345282E+04  0.7818608E-02  0.8994408E-01
         -2   -1    0    0    0  501 -0.00000000000E+00  0.00000000000E+00  0.10695006361E+04  0.10695006361E+04  0.25500000000E-02 0. -1.
          2   -1    0    0  501    0  0.00000000000E+00 -0.00000000000E+00 -0.42304385552E+03  0.42304385553E+03  0.25500000000E-02 0.  1.
    -200001    2    1    2    0    0 -0.45711754505E+02  0.16589094159E+03  0.56581614770E+03  0.85076471581E+03  0.61159081064E+03 0.  0.
   -5000001    2    3    3    0    0 -0.59508441968E+02  0.29264889525E+03  0.60958922103E+03  0.68231588277E+03  0.69074705404E+02 0.  0.
     200001    1    1    2    0    0  0.45711754505E+02 -0.16589094159E+03  0.80640632888E+02  0.64177977584E+03  0.61300000000E+03 0. -1.
         11    1    4    4    0    0 -0.46128832511E+02  0.89142132960E+02  0.19687313185E+03  0.22098239546E+03  0.51100000000E-03 0.  1.
    -200002    1    4    4    0    0 -0.13379609457E+02  0.20350676229E+03  0.41271608918E+03  0.46133348731E+03  0.30000000000E+02 0.  1.
    -200000    1    3    3    0    0  0.13796687463E+02 -0.12675795367E+03 -0.43773073326E+02  0.16844883304E+03  0.10100000000E+03 0. -1.
<mgrwt>
<rscale>  0 0.13452816E+04</rscale>
<asrwt>0</asrwt>
<pdfrwt beam="1">  1        2 0.60434837E-01 0.13452816E+04</pdfrwt>
<pdfrwt beam="2">  1       -2 0.15278580E+00 0.13452816E+04</pdfrwt>
<totfact> 0.22648500E+01</totfact>
</mgrwt>
</event>
<event>
 8    2  0.7266322E-052  0.1753950E+04  0.7818608E-02  0.8731179E-01
         -2   -1    0    0    0  501 -0.00000000000E+00  0.00000000000E+00  0.31489509295E+03  0.31489509296E+03  0.25500000000E-02 0. -1.
          2   -1    0    0  501    0  0.00000000000E+00 -0.00000000000E+00 -0.24423529342E+04  0.24423529342E+04  0.25500000000E-02 0.  1.
    -200001    2    1    2    0    0 -0.33649248965E+03 -0.39894676331E+03 -0.51939005062E+03  0.95890525261E+03  0.61428620630E+03 0.  0.
   -5000001    2    3    3    0    0  0.56519062507E+01 -0.41668905686E+02  0.10872403774E+03  0.15302774133E+03  0.99137941719E+02 0.  0.
     200001    1    1    2    0    0  0.33649248965E+03  0.39894676331E+03 -0.16080677907E+04  0.17983427746E+04  0.61300000000E+03 0.  1.
         11    1    4    4    0    0 -0.42097639798E+02 -0.22940334041E+02  0.54488402376E+02  0.72577242964E+02  0.51100000000E-03 0.  1.
    -200002    1    4    4    0    0  0.47749546049E+02 -0.18728571645E+02  0.54235635365E+02  0.80450498365E+02  0.30000000000E+02 0.  1.
    -200000    1    3    3    0    0 -0.34214439590E+03 -0.35727785762E+03 -0.62811408836E+03  0.80587751128E+03  0.10100000000E+03 0.  1.
<mgrwt>
<rscale>  0 0.17539498E+04</rscale>
<asrwt>0</asrwt>
<pdfrwt beam="1">  1        2 0.34890755E+00 0.17539498E+04</pdfrwt>
<pdfrwt beam="2">  1       -2 0.44985015E-01 0.17539498E+04</pdfrwt>
<totfact> 0.21055753E+01</totfact>
</mgrwt>
</event>
<event>
 8    2  0.7266322E-052  0.1687175E+04  0.7818608E-02  0.8768713E-01
         -2   -1    0    0    0  501 -0.00000000000E+00  0.00000000000E+00  0.28527811475E+03  0.28527811476E+03  0.25500000000E-02 0. -1.
          2   -1    0    0  501    0  0.00000000000E+00 -0.00000000000E+00 -0.24945467568E+04  0.24945467568E+04  0.25500000000E-02 0.  1.
    -200001    2    1    2    0    0  0.48304868092E+03 -0.31560751538E+03 -0.11657932163E+04  0.14390959296E+04  0.61561281605E+03 0.  0.
   -5000001    2    3    3    0    0  0.52225226822E+03 -0.18749762066E+03 -0.53509559634E+03  0.78646314287E+03  0.15586593104E+03 0.  0.
     200001    1    1    2    0    0 -0.48304868092E+03  0.31560751538E+03 -0.10434754257E+04  0.13407289420E+04  0.61300000000E+03 0. -1.
         11    1    4    4    0    0  0.26477213756E+03 -0.24029909320E+02 -0.20244310735E+03  0.33416303369E+03  0.51100000000E-03 0.  1.
    -200002    1    4    4    0    0  0.25748013065E+03 -0.16346771134E+03 -0.33265248899E+03  0.45230010918E+03  0.30000000000E+02 0.  1.
    -200000    1    3    3    0    0 -0.39203587293E+02 -0.12810989472E+03 -0.63069762001E+03  0.65263278669E+03  0.10100000000E+03 0.  1.
<mgrwt>
<rscale>  0 0.16871747E+04</rscale>
<asrwt>0</asrwt>
<pdfrwt beam="1">  1        2 0.35636381E+00 0.16871747E+04</pdfrwt>
<pdfrwt beam="2">  1       -2 0.40754018E-01 0.16871747E+04</pdfrwt>
<totfact> 0.24171004E+01</totfact>
</mgrwt>
</event>
<event>
 8    2  0.7266322E-052  0.1936491E+04  0.7818608E-02  0.8636903E-01
          2   -1    0    0  501    0  0.00000000000E+00  0.00000000000E+00  0.59370430274E+03  0.59370430274E+03  0.25500000000E-02 0.  1.
         -2   -1    0    0    0  501 -0.00000000000E+00 -0.00000000000E+00 -0.15790679422E+04  0.15790679422E+04  0.25500000000E-02 0. -1.
    -200001    2    1    2    0    0 -0.22355615189E+03  0.24660743295E+03 -0.12457422486E+04  0.14282196282E+04  0.61412130518E+03 0.  0.
   -5000001    2    3    3    0    0 -0.45806999434E+02  0.40250490273E+03 -0.91063781356E+03  0.10058515841E+04  0.13552750240E+03 0.  0.
     200001    1    1    2    0    0  0.22355615189E+03 -0.24660743295E+03  0.26037860910E+03  0.74455261675E+03  0.61300000000E+03 0.  1.
         11    1    4    4    0    0 -0.83077481924E+02  0.29842265524E+03 -0.71359389327E+03  0.77792942718E+03  0.51100000000E-03 0.  1.
    -200002    1    4    4    0    0  0.37270482490E+02  0.10408224750E+03 -0.19704392029E+03  0.22792215695E+03  0.30000000000E+02 0.  1.
    -200000    1    3    3    0    0 -0.17774915246E+03 -0.15589746979E+03 -0.33510443505E+03  0.42236804410E+03  0.10100000000E+03 0. -1.
<mgrwt>
<rscale>  0 0.19364911E+04</rscale>
<asrwt>0</asrwt>
<pdfrwt beam="1">  1        2 0.84814901E-01 0.19364911E+04</pdfrwt>
<pdfrwt beam="2">  1       -2 0.22558113E+00 0.19364911E+04</pdfrwt>
<totfact> 0.46889421E+00</totfact>
</mgrwt>
</event>
<event>
 8    2  0.7266322E-052  0.1277356E+04  0.7818608E-02  0.9047717E-01
         -2   -1    0    0    0  501 -0.00000000000E+00  0.00000000000E+00  0.49751020067E+03  0.49751020067E+03  0.25500000000E-02 0. -1.
          2   -1    0    0  501    0  0.00000000000E+00 -0.00000000000E+00 -0.81990184905E+03  0.81990184906E+03  0.25500000000E-02 0.  1.
    -200001    2    1    2    0    0 -0.13755731279E+03 -0.18596178171E+02 -0.43214639099E+02  0.62967908218E+03  0.61266663803E+03 0.  0.
   -5000001    2    3    3    0    0  0.10045577016E+03  0.95476346013E+02  0.16690184450E+03  0.27752470536E+03  0.17307987169E+03 0.  0.
     200001    1    1    2    0    0  0.13755731279E+03  0.18596178171E+02 -0.27917700929E+03  0.68773296755E+03  0.61300000000E+03 0. -1.
         11    1    4    4    0    0  0.15668792996E+02  0.12494079573E+03  0.81078149012E+02  0.14976441419E+03  0.51100000000E-03 0.  1.
    -200002    1    4    4    0    0  0.84786977167E+02 -0.29464449713E+02  0.85823695483E+02  0.12776029117E+03  0.30000000000E+02 0.  1.
    -200000    1    3    3    0    0 -0.23801308295E+03 -0.11407252418E+03 -0.21011648359E+03  0.35215437681E+03  0.10100000000E+03 0.  1.
<mgrwt>
<rscale>  0 0.12773559E+04</rscale>
<asrwt>0</asrwt>
<pdfrwt beam="1">  1        2 0.11712883E+00 0.12773559E+04</pdfrwt>
<pdfrwt beam="2">  1       -2 0.71072886E-01 0.12773559E+04</pdfrwt>
<totfact> 0.65069878E+01</totfact>
</mgrwt>
</event>
<event>
 8    2  0.7266322E-052  0.1611841E+04  0.7818608E-02  0.8813306E-01
          2   -1    0    0  501    0  0.00000000000E+00  0.00000000000E+00  0.41079415065E+04  0.41079415065E+04  0.25500000000E-02 0.  1.
         -2   -1    0    0    0  501 -0.00000000000E+00 -0.00000000000E+00 -0.15811029194E+03  0.15811029196E+03  0.25500000000E-02 0. -1.
    -200001    2    1    2    0    0  0.48410110558E+03  0.11145671530E+03  0.15400105269E+04  0.17303504702E+04  0.61294685473E+03 0.  0.
   -5000001    2    3    3    0    0  0.12854880838E+03  0.81043009000E+01  0.15934709988E+02  0.15869298413E+03  0.91318521678E+02 0.  0.
     200001    1    1    2    0    0 -0.48410110558E+03 -0.11145671530E+03  0.24098206876E+04  0.25357013283E+04  0.61300000000E+03 0. -1.
         11    1    4    4    0    0  0.10240463748E+03 -0.63797545963E+01 -0.18319715506E+02  0.10422582704E+03  0.51100000000E-03 0.  1.
    -200002    1    4    4    0    0  0.26144170902E+02  0.14484055496E+02  0.34254425494E+02  0.54467157092E+02  0.30000000000E+02 0.  1.
    -200000    1    3    3    0    0  0.35555229719E+03  0.10335241440E+03  0.15240758169E+04  0.15716574860E+04  0.10100000000E+03 0.  1.
<mgrwt>
<rscale>  0 0.16118410E+04</rscale>
<asrwt>0</asrwt>
<pdfrwt beam="1">  1        2 0.58684881E+00 0.16118410E+04</pdfrwt>
<pdfrwt beam="2">  1       -2 0.22587184E-01 0.16118410E+04</pdfrwt>
<totfact> 0.80453074E+00</totfact>
</mgrwt>
</event>
<event>
 8    2  0.7266322E-052  0.1478054E+04  0.7818608E-02  0.8899179E-01
          2   -1    0    0  501    0  0.00000000000E+00  0.00000000000E+00  0.78746161627E+03  0.78746161628E+03  0.25500000000E-02 0.  1.
         -2   -1    0    0    0  501 -0.00000000000E+00 -0.00000000000E+00 -0.69357153946E+03  0.69357153946E+03  0.25500000000E-02 0. -1.
    -200001    2    1    2    0    0  0.19066570171E+03 -0.28708309229E+03 -0.18060006170E+03  0.72612657355E+03  0.61308507309E+03 0.  0.
   -5000001    2    3    3    0    0  0.68851435521E+02 -0.34863896569E+03  0.11870222521E+03  0.38201801518E+03  0.74551305011E+02 0.  0.
     200001    1    1    2    0    0 -0.19066570171E+03  0.28708309229E+03  0.27449013851E+03  0.75490658219E+03  0.61300000000E+03 0. -1.
         11    1    4    4    0    0  0.39589578971E+02 -0.19434085815E+03  0.34490643551E+02  0.20130898739E+03  0.51100000000E-03 0.  1.
    -200002    1    4    4    0    0  0.29261856549E+02 -0.15429810754E+03  0.84211581661E+02  0.18070902779E+03  0.30000000000E+02 0. -1.
    -200000    1    3    3    0    0  0.12181426619E+03  0.61555873401E+02 -0.29930228691E+03  0.34410855837E+03  0.10100000000E+03 0. -1.
<mgrwt>
<rscale>  0 0.14780541E+04</rscale>
<asrwt>0</asrwt>
<pdfrwt beam="1">  1        2 0.11249452E+00 0.14780541E+04</pdfrwt>
<pdfrwt beam="2">  1       -2 0.99081649E-01 0.14780541E+04</pdfrwt>
<totfact> 0.31763038E+01</totfact>
</mgrwt>
</event>
<event>
 8    2  0.7266322E-052  0.1408428E+04  0.7818608E-02  0.8947740E-01
         -2   -1    0    0    0  501 -0.00000000000E+00  0.00000000000E+00  0.34933254557E+03  0.34933254558E+03  0.25500000000E-02 0. -1.
          2   -1    0    0  501    0  0.00000000000E+00 -0.00000000000E+00 -0.14196144147E+04  0.14196144147E+04  0.25500000000E-02 0.  1.
    -200001    2    1    2    0    0  0.55584944774E+02  0.34120452474E+02 -0.96218000471E+03  0.11430804374E+04  0.61366817868E+03 0.  0.
   -5000001    2    3    3    0    0 -0.17900679533E+03  0.13498944591E+03 -0.77466915507E+03  0.81056102879E+03  0.81432783990E+02 0.  0.
     200001    1    1    2    0    0 -0.55584944774E+02 -0.34120452474E+02 -0.10810186440E+03  0.62586652287E+03  0.61300000000E+03 0. -1.
         11    1    4    4    0    0 -0.43326254454E+02  0.43286672278E+01 -0.21249757724E+03  0.21691270599E+03  0.51100000000E-03 0.  1.
    -200002    1    4    4    0    0 -0.13568054088E+03  0.13066077868E+03 -0.56217157783E+03  0.59364832281E+03  0.30000000000E+02 0.  1.
    -200000    1    3    3    0    0  0.23459174010E+03 -0.10086899344E+03 -0.18751084964E+03  0.33251940860E+03  0.10100000000E+03 0. -1.
<mgrwt>
<rscale>  0 0.14084282E+04</rscale>
<asrwt>0</asrwt>
<pdfrwt beam="1">  1        2 0.20280206E+00 0.14084282E+04</pdfrwt>
<pdfrwt beam="2">  1       -2 0.49904650E-01 0.14084282E+04</pdfrwt>
<totfact> 0.59713262E+01</totfact>
</mgrwt>
</event>
<event>
 8    2  0.7266322E-052  0.2116119E+04  0.7818608E-02  0.8554176E-01
          2   -1    0    0  501    0  0.00000000000E+00  0.00000000000E+00  0.11371390828E+04  0.11371390828E+04  0.25500000000E-02 0.  1.
         -2   -1    0    0    0  501 -0.00000000000E+00 -0.00000000000E+00 -0.98447927541E+03  0.98447927541E+03  0.25500000000E-02 0. -1.
    -200001    2    1    2    0    0 -0.52599560692E+03  0.28281517120E+03  0.69987851911E+03  0.11058068019E+04  0.61345166234E+03 0.  0.
   -5000001    2    3    3    0    0 -0.58330996628E+03  0.12821097083E+03  0.66693821632E+03  0.90966027984E+03  0.16120381675E+03 0.  0.
     200001    1    1    2    0    0  0.52599560692E+03 -0.28281517120E+03 -0.54721871171E+03  0.10158115563E+04  0.61300000000E+03 0. -1.
         11    1    4    4    0    0 -0.43411987841E+03  0.90102253312E+02  0.58080709256E+03  0.73069512360E+03  0.51100000000E-03 0.  1.
    -200002    1    4    4    0    0 -0.14919008787E+03  0.38108717517E+02  0.86131123760E+02  0.17896515625E+03  0.30000000000E+02 0.  1.
    -200000    1    3    3    0    0  0.57314359367E+02  0.15460420037E+03  0.32940302797E+02  0.19614652204E+03  0.10100000000E+03 0.  1.
<mgrwt>
<rscale>  0 0.21161190E+04</rscale>
<asrwt>0</asrwt>
<pdfrwt beam="1">  1        2 0.16244844E+00 0.21161190E+04</pdfrwt>
<pdfrwt beam="2">  1       -2 0.14063990E+00 0.21161190E+04</pdfrwt>
<totfact> 0.76229983E+00</totfact>
</mgrwt>
</event>
<event>
 8    2  0.7266322E-052  0.1673122E+04  0.7818608E-02  0.8776844E-01
         -2   -1    0    0    0  501 -0.00000000000E+00  0.00000000000E+00  0.31239518790E+03  0.31239518791E+03  0.25500000000E-02 0. -1.
          2   -1    0    0  501    0  0.00000000000E+00 -0.00000000000E+00 -0.22402212733E+04  0.22402212733E+04  0.25500000000E-02 0.  1.
    -200001    2    1    2    0    0  0.19421640896E+03  0.41450238533E+03 -0.44228969660E+03  0.88165278616E+03  0.61004853796E+03 0.  0.
   -5000001    2    3    3    0    0  0.18291300074E+03  0.30745133975E+03  0.46550212450E+02  0.37101284444E+03  0.86603211870E+02 0.  0.
     200001    1    1    2    0    0 -0.19421640896E+03 -0.41450238533E+03 -0.14855363888E+04  0.16709636751E+04  0.61300000000E+03 0.  1.
         11    1    4    4    0    0  0.45053910982E+01  0.57552229244E+02 -0.60710017293E+01  0.58046659699E+02  0.51100000000E-03 0.  1.
    -200002    1    4    4    0    0  0.17840760964E+03  0.24989911051E+03  0.52621214179E+02  0.31296618474E+03  0.30000000000E+02 0.  1.
    -200000    1    3    3    0    0  0.11303408221E+02  0.10705104558E+03 -0.48883990905E+03  0.51063994172E+03  0.10100000000E+03 0.  1.
<mgrwt>
<rscale>  0 0.16731220E+04</rscale>
<asrwt>0</asrwt>
<pdfrwt beam="1">  1        2 0.32003160E+00 0.16731220E+04</pdfrwt>
<pdfrwt beam="2">  1       -2 0.44627886E-01 0.16731220E+04</pdfrwt>
<totfact> 0.27436498E+01</totfact>
</mgrwt>
</event>
<event>
 8    2  0.7266322E-052  0.1296221E+04  0.7818608E-02  0.9032567E-01
          2   -1    0    0  501    0  0.00000000000E+00  0.00000000000E+00  0.21606474082E+04  0.21606474082E+04  0.25500000000E-02 0.  1.
         -2   -1    0    0    0  501 -0.00000000000E+00 -0.00000000000E+00 -0.19440801021E+03  0.19440801022E+03  0.25500000000E-02 0. -1.
    -200001    2    1    2    0    0 -0.20089719391E+03 -0.46610424286E+02  0.10515348279E+04  0.12347939915E+04  0.61356213451E+03 0.  0.
   -5000001    2    3    3    0    0 -0.75522072556E+01  0.19465054904E+03  0.93479298071E+02  0.22303288363E+03  0.55311987257E+02 0.  0.
     200001    1    1    2    0    0  0.20089719391E+03  0.46610424286E+02  0.91470457010E+03  0.11202614270E+04  0.61300000000E+03 0. -1.
         11    1    4    4    0    0 -0.18358230144E+02  0.71212906506E+02  0.47291354764E+02  0.87434403427E+02  0.51100000000E-03 0.  1.
    -200002    1    4    4    0    0  0.10806022888E+02  0.12343764253E+03  0.46187943307E+02  0.13559848020E+03  0.30000000000E+02 0.  1.
    -200000    1    3    3    0    0 -0.19334498665E+03 -0.24126097333E+03  0.95805552981E+03  0.10117611078E+04  0.10100000000E+03 0.  1.
<mgrwt>
<rscale>  0 0.12962209E+04</rscale>
<asrwt>0</asrwt>
<pdfrwt beam="1">  1        2 0.30866387E+00 0.12962209E+04</pdfrwt>
<pdfrwt beam="2">  1       -2 0.27772577E-01 0.12962209E+04</pdfrwt>
<totfact> 0.77009957E+01</totfact>
</mgrwt>
</event>
<event>
 8    2  0.7266322E-052  0.1692797E+04  0.7818608E-02  0.8765483E-01
          2   -1    0    0  501    0  0.00000000000E+00  0.00000000000E+00  0.18010359864E+04  0.18010359864E+04  0.25500000000E-02 0.  1.
         -2   -1    0    0    0  501 -0.00000000000E+00 -0.00000000000E+00 -0.39776588230E+03  0.39776588230E+03  0.25500000000E-02 0. -1.
    -200001    2    1    2    0    0 -0.53146804544E+03  0.46059466730E+02  0.10141502148E+04  0.12978229311E+04  0.60931432319E+03 0.  0.
   -5000001    2    3    3    0    0 -0.42272092814E+03 -0.22735684738E+02  0.20946868028E+03  0.47668221209E+03  0.64334352098E+02 0.  0.
     200001    1    1    2    0    0  0.53146804544E+03 -0.46059466730E+02  0.38911988931E+03  0.90097893763E+03  0.61300000000E+03 0. -1.
         11    1    4    4    0    0 -0.14900041425E+03 -0.95628520375E+01  0.10189333821E+03  0.18076178788E+03  0.51100000000E-03 0.  1.
    -200002    1    4    4    0    0 -0.27372051389E+03 -0.13172832700E+02  0.10757534207E+03  0.29592042421E+03  0.30000000000E+02 0.  1.
    -200000    1    3    3    0    0 -0.10874711730E+03  0.68795151467E+02  0.80468153449E+03  0.82114071896E+03  0.10100000000E+03 0.  1.
<mgrwt>
<rscale>  0 0.16927973E+04</rscale>
<asrwt>0</asrwt>
<pdfrwt beam="1">  1        2 0.25729085E+00 0.16927973E+04</pdfrwt>
<pdfrwt beam="2">  1       -2 0.56823698E-01 0.16927973E+04</pdfrwt>
<totfact> 0.28170026E+01</totfact>
</mgrwt>
</event>
<event>
 8    2  0.7266322E-052  0.1835865E+04  0.7818608E-02  0.8687456E-01
          2   -1    0    0  501    0  0.00000000000E+00  0.00000000000E+00  0.27022200694E+04  0.27022200694E+04  0.25500000000E-02 0.  1.
         -2   -1    0    0    0  501 -0.00000000000E+00 -0.00000000000E+00 -0.31181785545E+03  0.31181785546E+03  0.25500000000E-02 0. -1.
    -200001    2    1    2    0    0  0.47334852969E+03 -0.44436486231E+03  0.15464496895E+04  0.17854029812E+04  0.61207695717E+03 0.  0.
   -5000001    2    3    3    0    0  0.59088855294E+03 -0.32356059884E+03  0.11445183721E+04  0.13380115295E+04  0.16282446301E+03 0.  0.
     200001    1    1    2    0    0 -0.47334852969E+03  0.44436486231E+03  0.84395252448E+03  0.12286349437E+04  0.61300000000E+03 0. -1.
         11    1    4    4    0    0  0.37897548002E+03 -0.13294453711E+03  0.74449868303E+03  0.84591663504E+03  0.51100000000E-03 0.  1.
    -200002    1    4    4    0    0  0.21191307292E+03 -0.19061606173E+03  0.40001968912E+03  0.49209489445E+03  0.30000000000E+02 0.  1.
    -200000    1    3    3    0    0 -0.11754002325E+03 -0.12080426347E+03  0.40193131737E+03  0.44739145166E+03  0.10100000000E+03 0.  1.
<mgrwt>
<rscale>  0 0.18358654E+04</rscale>
<asrwt>0</asrwt>
<pdfrwt beam="1">  1        2 0.38603146E+00 0.18358654E+04</pdfrwt>
<pdfrwt beam="2">  1       -2 0.44545406E-01 0.18358654E+04</pdfrwt>
<totfact> 0.15527310E+01</totfact>
</mgrwt>
</event>
<event>
 8    2  0.7266322E-052  0.1340240E+04  0.7818608E-02  0.8998249E-01
         -2   -1    0    0    0  501 -0.00000000000E+00  0.00000000000E+00  0.16969687480E+03  0.16969687482E+03  0.25500000000E-02 0. -1.
          2   -1    0    0  501    0  0.00000000000E+00 -0.00000000000E+00 -0.26462546354E+04  0.26462546354E+04  0.25500000000E-02 0.  1.
    -200001    2    1    2    0    0  0.18977061552E+03 -0.10692588064E+03 -0.15742044047E+04  0.17035412400E+04  0.61358554259E+03 0.  0.
   -5000001    2    3    3    0    0 -0.14431202082E+03 -0.18211197212E+03 -0.33692825737E+03  0.41578450014E+03  0.73248687368E+02 0.  0.
     200001    1    1    2    0    0 -0.18977061552E+03  0.10692588064E+03 -0.90235335595E+03  0.11124102703E+04  0.61300000000E+03 0.  1.
         11    1    4    4    0    0 -0.11711752306E+03 -0.13237819942E+03 -0.21784379555E+03  0.28052882409E+03  0.51100000000E-03 0.  1.
    -200002    1    4    4    0    0 -0.27194497764E+02 -0.49733772697E+02 -0.11908446182E+03  0.13525567605E+03  0.30000000000E+02 0. -1.
    -200000    1    3    3    0    0  0.33408263634E+03  0.75186091477E+02 -0.12372761473E+04  0.12877567398E+04  0.10100000000E+03 0.  1.
<mgrwt>
<rscale>  0 0.13402405E+04</rscale>
<asrwt>0</asrwt>
<pdfrwt beam="1">  1        2 0.37803635E+00 0.13402405E+04</pdfrwt>
<pdfrwt beam="2">  1       -2 0.24242412E-01 0.13402405E+04</pdfrwt>
<totfact> 0.54893173E+01</totfact>
</mgrwt>
</event>
<event>
 8    2  0.7266322E-052  0.1938481E+04  0.7818608E-02  0.8635935E-01
          2   -1    0    0  501    0  0.00000000000E+00  0.00000000000E+00  0.24040727556E+04  0.24040727556E+04  0.25500000000E-02 0.  1.
         -2   -1    0    0    0  501 -0.00000000000E+00 -0.00000000000E+00 -0.39076496377E+03  0.39076496378E+03  0.25500000000E-02 0. -1.
    -200001    2    1    2    0    0  0.29397976111E+03 -0.17912456909E+03  0.19685188188E+04  0.20903629056E+04  0.61322184067E+03 0.  0.
   -5000001    2    3    3    0    0  0.30599495941E+02 -0.11627497628E+03  0.16643208721E+04  0.16707718831E+04  0.84015003036E+02 0.  0.
     200001    1    1    2    0    0 -0.29397976111E+03  0.17912456909E+03  0.44788973047E+02  0.70447481382E+03  0.61300000000E+03 0. -1.
         11    1    4    4    0    0 -0.11688381177E+02 -0.60789716588E+02  0.10415733825E+04  0.10434112895E+04  0.51100000000E-03 0.  1.
    -200002    1    4    4    0    0  0.42287877118E+02 -0.55485259689E+02  0.62274748956E+03  0.62736059356E+03  0.30000000000E+02 0.  1.
    -200000    1    3    3    0    0  0.26338026517E+03 -0.62849592810E+02  0.30419794676E+03  0.41959102255E+03  0.10100000000E+03 0. -1.
<mgrwt>
<rscale>  0 0.19384813E+04</rscale>
<asrwt>0</asrwt>
<pdfrwt beam="1">  1        2 0.34343895E+00 0.19384813E+04</pdfrwt>
<pdfrwt beam="2">  1       -2 0.55823569E-01 0.19384813E+04</pdfrwt>
<totfact> 0.13982817E+01</totfact>
</mgrwt>
</event>
<event>
 8    2  0.7266322E-052  0.1325218E+04  0.7818608E-02  0.9009803E-01
         -2   -1    0    0    0  501 -0.00000000000E+00  0.00000000000E+00  0.14750112181E+03  0.14750112183E+03  0.25500000000E-02 0. -1.
          2   -1    0    0  501    0  0.00000000000E+00 -0.00000000000E+00 -0.29765915067E+04  0.29765915067E+04  0.25500000000E-02 0.  1.
    -200001    2    1    2    0    0 -0.77591623800E+02  0.99668661664E+02 -0.87170359630E+03  0.10690777034E+04  0.60589246076E+03 0.  0.
   -5000001    2    3    3    0    0 -0.16291927771E+03  0.32101337548E+02 -0.89804837299E+03  0.91827584979E+03  0.95741679266E+02 0.  0.
     200001    1    1    2    0    0  0.77591623800E+02 -0.99668661664E+02 -0.19573867886E+04  0.20550149251E+04  0.61300000000E+03 0.  1.
         11    1    4    4    0    0 -0.19130072436E+02 -0.26247535191E+02 -0.19450028084E+03  0.19719343808E+03  0.51100000000E-03 0.  1.
    -200002    1    4    4    0    0 -0.14378920527E+03  0.58348872739E+02 -0.70354809216E+03  0.72108241171E+03  0.30000000000E+02 0.  1.
    -200000    1    3    3    0    0  0.85327653905E+02  0.67567324116E+02  0.26344776689E+02  0.15080185366E+03  0.10100000000E+03 0. -1.
<mgrwt>
<rscale>  0 0.13252178E+04</rscale>
<asrwt>0</asrwt>
<pdfrwt beam="1">  1        2 0.42522732E+00 0.13252178E+04</pdfrwt>
<pdfrwt beam="2">  1       -2 0.21071591E-01 0.13252178E+04</pdfrwt>
<totfact> 0.46760418E+01</totfact>
</mgrwt>
</event>
<event>
 8    2  0.7266322E-052  0.1999757E+04  0.7818608E-02  0.8606734E-01
          2   -1    0    0  501    0  0.00000000000E+00  0.00000000000E+00  0.91812722102E+03  0.91812722102E+03  0.25500000000E-02 0.  1.
         -2   -1    0    0    0  501 -0.00000000000E+00 -0.00000000000E+00 -0.10889091420E+04  0.10889091420E+04  0.25500000000E-02 0. -1.
    -200001    2    1    2    0    0 -0.50300783630E+03 -0.11647280765E+03  0.51446141303E+03  0.95256482472E+03  0.61329144907E+03 0.  0.
   -5000001    2    3    3    0    0 -0.28733218814E+03 -0.35074190759E+03  0.36356392722E+03  0.58600098632E+03  0.75091642135E+02 0.  0.
     200001    1    1    2    0    0  0.50300783630E+03  0.11647280765E+03 -0.68524333403E+03  0.10544715383E+04  0.61300000000E+03 0. -1.
         11    1    4    4    0    0 -0.13326000246E+03 -0.11415691070E+03  0.13063356598E+03  0.21875821603E+03  0.51100000000E-03 0.  1.
    -200002    1    4    4    0    0 -0.15407218568E+03 -0.23658499689E+03  0.23293036123E+03  0.36724277030E+03  0.30000000000E+02 0.  1.
    -200000    1    3    3    0    0 -0.21567564816E+03  0.23426909994E+03  0.15089748582E+03  0.36656383840E+03  0.10100000000E+03 0.  1.
<mgrwt>
<rscale>  0 0.19997571E+04</rscale>
<asrwt>0</asrwt>
<pdfrwt beam="1">  1        2 0.13116103E+00 0.19997571E+04</pdfrwt>
<pdfrwt beam="2">  1       -2 0.15555845E+00 0.19997571E+04</pdfrwt>
<totfact> 0.80222776E+00</totfact>
</mgrwt>
</event>
<event>
 8    2  0.7266322E-052  0.1266545E+04  0.7818608E-02  0.9056524E-01
         -2   -1    0    0    0  501 -0.00000000000E+00  0.00000000000E+00  0.95759195342E+02  0.95759195376E+02  0.25500000000E-02 0. -1.
          2   -1    0    0  501    0  0.00000000000E+00 -0.00000000000E+00 -0.41879427877E+04  0.41879427877E+04  0.25500000000E-02 0.  1.
    -200001    2    1    2    0    0  0.88595242084E+02 -0.10482678614E+03 -0.23203996166E+04  0.24038548540E+04  0.61272016964E+03 0.  0.
   -5000001    2    3    3    0    0  0.19391788209E+03  0.18091110745E+03 -0.68229978097E+03  0.73463016155E+03  0.61769809416E+02 0.  0.
     200001    1    1    2    0    0 -0.88595242084E+02  0.10482678614E+03 -0.17717839758E+04  0.18798471291E+04  0.61300000000E+03 0. -1.
         11    1    4    4    0    0  0.12265903884E+03  0.10173089499E+03 -0.35498673881E+03  0.38911437847E+03  0.51100000000E-03 0.  1.
    -200002    1    4    4    0    0  0.71258843248E+02  0.79180212467E+02 -0.32731304216E+03  0.34551578308E+03  0.30000000000E+02 0. -1.
    -200000    1    3    3    0    0 -0.10532264000E+03 -0.28573789359E+03 -0.16380998357E+04  0.16692246925E+04  0.10100000000E+03 0.  1.
<mgrwt>
<rscale>  0 0.12665450E+04</rscale>
<asrwt>0</asrwt>
<pdfrwt beam="1">  1        2 0.59827743E+00 0.12665450E+04</pdfrwt>
<pdfrwt beam="2">  1       -2 0.13679888E-01 0.12665450E+04</pdfrwt>
<totfact> 0.17488502E+01</totfact>
</mgrwt>
</event>
<event>
 8    2  0.7266322E-052  0.1427480E+04  0.7818608E-02  0.8934164E-01
          2   -1    0    0  501    0  0.00000000000E+00  0.00000000000E+00  0.10285545550E+04  0.10285545550E+04  0.25500000000E-02 0.  1.
         -2   -1    0    0    0  501 -0.00000000000E+00 -0.00000000000E+00 -0.49528214629E+03  0.49528214630E+03  0.25500000000E-02 0. -1.
    -200001    2    1    2    0    0  0.16959493368E+03 -0.14445063855E+03 -0.42472619893E+02  0.65384832983E+03  0.61325792818E+03 0.  0.
   -5000001    2    3    3    0    0  0.16520978066E+03  0.62166281930E+02  0.22066596680E+03  0.30434482884E+03  0.11301941296E+03 0.  0.
     200001    1    1    2    0    0 -0.16959493368E+03  0.14445063855E+03  0.57574502856E+03  0.86998837143E+03  0.61300000000E+03 0.  1.
         11    1    4    4    0    0  0.23845783168E+02 -0.29475645710E+02  0.31767772010E+02  0.49463384475E+02  0.51100000000E-03 0.  1.
    -200002    1    4    4    0    0  0.14136399749E+03  0.91641927640E+02  0.18889819479E+03  0.25488144437E+03  0.30000000000E+02 0.  1.
    -200000    1    3    3    0    0  0.43851530249E+01 -0.20661692048E+03 -0.26313858669E+03  0.34950350099E+03  0.10100000000E+03 0. -1.
<mgrwt>
<rscale>  0 0.14274799E+04</rscale>
<asrwt>0</asrwt>
<pdfrwt beam="1">  1        2 0.14693637E+00 0.14274799E+04</pdfrwt>
<pdfrwt beam="2">  1       -2 0.70754592E-01 0.14274799E+04</pdfrwt>
<totfact> 0.47653130E+01</totfact>
</mgrwt>
</event>
<event>
 8    2  0.7266322E-052  0.1451086E+04  0.7818608E-02  0.8917648E-01
         -2   -1    0    0    0  501 -0.00000000000E+00  0.00000000000E+00  0.42120054194E+03  0.42120054195E+03  0.25500000000E-02 0. -1.
          2   -1    0    0  501    0  0.00000000000E+00 -0.00000000000E+00 -0.12497903334E+04  0.12497903334E+04  0.25500000000E-02 0.  1.
    -200001    2    1    2    0    0  0.96912431225E+02  0.10011774437E+03 -0.83149324561E+03  0.10423470874E+04  0.61293625371E+03 0.  0.
   -5000001    2    3    3    0    0 -0.43907269960E+02 -0.22933617596E+03 -0.39625281954E+03  0.46962961577E+03  0.94935499454E+02 0.  0.
     200001    1    1    2    0    0 -0.96912431225E+02 -0.10011774437E+03  0.29034541401E+01  0.62864378794E+03  0.61300000000E+03 0. -1.
         11    1    4    4    0    0  0.21396777399E+02 -0.66808509305E+02 -0.15362087500E+03  0.16888034887E+03  0.51100000000E-03 0.  1.
    -200002    1    4    4    0    0 -0.65304047359E+02 -0.16252766665E+03 -0.24263194453E+03  0.30074926689E+03  0.30000000000E+02 0.  1.
    -200000    1    3    3    0    0  0.14081970119E+03  0.32945392033E+03 -0.43524042607E+03  0.57271747167E+03  0.10100000000E+03 0.  1.
<mgrwt>
<rscale>  0 0.14510856E+04</rscale>
<asrwt>0</asrwt>
<pdfrwt beam="1">  1        2 0.17854147E+00 0.14510856E+04</pdfrwt>
<pdfrwt beam="2">  1       -2 0.60171507E-01 0.14510856E+04</pdfrwt>
<totfact> 0.50061517E+01</totfact>
</mgrwt>
</event>
<event>
 8    2  0.7266322E-052  0.1506629E+04  0.7818608E-02  0.8880057E-01
          2   -1    0    0  501    0  0.00000000000E+00  0.00000000000E+00  0.16939971421E+04  0.16939971421E+04  0.25500000000E-02 0.  1.
         -2   -1    0    0    0  501 -0.00000000000E+00 -0.00000000000E+00 -0.33499608603E+03  0.33499608604E+03  0.25500000000E-02 0. -1.
    -200001    2    1    2    0    0  0.70390154964E+02 -0.30813806681E+03  0.27160120173E+03  0.74131652751E+03  0.61308982951E+03 0.  0.
   -5000001    2    3    3    0    0  0.25665090009E+03 -0.28906474746E+03  0.30098501252E+03  0.52655790713E+03  0.19298481562E+03 0.  0.
     200001    1    1    2    0    0 -0.70390154964E+02  0.30813806681E+03  0.10873998543E+04  0.12876767006E+04  0.61300000000E+03 0.  1.
         11    1    4    4    0    0  0.16396164854E+03 -0.10261323523E+03  0.23855944137E+03  0.30712132017E+03  0.51100000000E-03 0.  1.
    -200002    1    4    4    0    0  0.92689251558E+02 -0.18645151223E+03  0.62425571152E+02  0.21943658697E+03  0.30000000000E+02 0.  1.
    -200000    1    3    3    0    0 -0.18626074513E+03 -0.19073319347E+02 -0.29383810790E+02  0.21475862037E+03  0.10100000000E+03 0. -1.
<mgrwt>
<rscale>  0 0.15066286E+04</rscale>
<asrwt>0</asrwt>
<pdfrwt beam="1">  1        2 0.24199960E+00 0.15066286E+04</pdfrwt>
<pdfrwt beam="2">  1       -2 0.47856582E-01 0.15066286E+04</pdfrwt>
<totfact> 0.46217343E+01</totfact>
</mgrwt>
</event>
<event>
 8    2  0.7266322E-052  0.1533226E+04  0.7818608E-02  0.8862654E-01
          2   -1    0    0  501    0  0.00000000000E+00  0.00000000000E+00  0.19912373455E+04  0.19912373455E+04  0.25500000000E-02 0.  1.
         -2   -1    0    0    0  501 -0.00000000000E+00 -0.00000000000E+00 -0.29514068174E+03  0.29514068175E+03  0.25500000000E-02 0. -1.
    -200001    2    1    2    0    0  0.36401776252E+03 -0.18801844002E+03  0.51682052719E+03  0.89557931013E+03  0.60588693516E+03 0.  0.
   -5000001    2    3    3    0    0  0.30520391931E+02 -0.20437320070E+03  0.49725736085E+03  0.54619171466E+03  0.91436353574E+02 0.  0.
     200001    1    1    2    0    0 -0.36401776252E+03  0.18801844002E+03  0.11792761365E+04  0.13907987171E+04  0.61300000000E+03 0.  1.
         11    1    4    4    0    0 -0.17391272429E+02 -0.43388843152E+01  0.34006851630E+02  0.38441491020E+02  0.51100000000E-03 0.  1.
    -200002    1    4    4    0    0  0.47911664360E+02 -0.20003431639E+03  0.46325050922E+03  0.50775022364E+03  0.30000000000E+02 0.  1.
    -200000    1    3    3    0    0  0.33349737059E+03  0.16354760687E+02  0.19563166333E+02  0.34938759547E+03  0.10100000000E+03 0. -1.
<mgrwt>
<rscale>  0 0.15332256E+04</rscale>
<asrwt>0</asrwt>
<pdfrwt beam="1">  1        2 0.28446246E+00 0.15332256E+04</pdfrwt>
<pdfrwt beam="2">  1       -2 0.42162957E-01 0.15332256E+04</pdfrwt>
<totfact> 0.41720723E+01</totfact>
</mgrwt>
</event>
<event>
 8    2  0.7266322E-052  0.1695739E+04  0.7818608E-02  0.8763798E-01
          2   -1    0    0  501    0  0.00000000000E+00  0.00000000000E+00  0.24497723319E+04  0.24497723319E+04  0.25500000000E-02 0.  1.
         -2   -1    0    0    0  501 -0.00000000000E+00 -0.00000000000E+00 -0.29344891828E+03  0.29344891829E+03  0.25500000000E-02 0. -1.
    -200001    2    1    2    0    0  0.57211373135E+03  0.57373573374E+02  0.89339024327E+03  0.12261928914E+04  0.61220669038E+03 0.  0.
   -5000001    2    3    3    0    0  0.22090742983E+03 -0.24999801529E+03  0.47599183419E+03  0.59196454798E+03  0.11204775613E+03 0.  0.
     200001    1    1    2    0    0 -0.57211373135E+03 -0.57373573374E+02  0.12629331704E+04  0.15170283588E+04  0.61300000000E+03 0. -1.
         11    1    4    4    0    0 -0.37998474145E+00 -0.28122841592E+02  0.87687153935E+02  0.92087325801E+02  0.51100000000E-03 0.  1.
    -200002    1    4    4    0    0  0.22128741457E+03 -0.22187517370E+03  0.38830468025E+03  0.49987722218E+03  0.30000000000E+02 0.  1.
    -200000    1    3    3    0    0  0.35120630152E+03  0.30737158866E+03  0.41739840908E+03  0.63422834346E+03  0.10100000000E+03 0.  1.
<mgrwt>
<rscale>  0 0.16957394E+04</rscale>
<asrwt>0</asrwt>
<pdfrwt beam="1">  1        2 0.34996748E+00 0.16957394E+04</pdfrwt>
<pdfrwt beam="2">  1       -2 0.41921274E-01 0.16957394E+04</pdfrwt>
<totfact> 0.24119714E+01</totfact>
</mgrwt>
</event>
<event>
 8    2  0.7266322E-052  0.1691475E+04  0.7818608E-02  0.8766241E-01
          2   -1    0    0  501    0  0.00000000000E+00  0.00000000000E+00  0.21607338613E+04  0.21607338613E+04  0.25500000000E-02 0.  1.
         -2   -1    0    0    0  501 -0.00000000000E+00 -0.00000000000E+00 -0.33103206204E+03  0.33103206205E+03  0.25500000000E-02 0. -1.
    -200001    2    1    2    0    0 -0.13575496434E+03  0.32791859355E+03  0.15954478040E+04  0.17457069788E+04  0.61325292213E+03 0.  0.
   -5000001    2    3    3    0    0  0.80310796134E+02  0.19095233883E+03  0.12724401166E+04  0.13214675018E+04  0.29027553861E+03 0.  0.
     200001    1    1    2    0    0  0.13575496434E+03 -0.32791859355E+03  0.23425399528E+03  0.74605894448E+03  0.61300000000E+03 0. -1.
         11    1    4    4    0    0 -0.99711536498E+02  0.54147579457E+02  0.62027192438E+03  0.63056451775E+03  0.51100000000E-03 0.  1.
    -200002    1    4    4    0    0  0.18002233263E+03  0.13680475937E+03  0.65216819224E+03  0.69090298408E+03  0.30000000000E+02 0.  1.
    -200000    1    3    3    0    0 -0.21606576047E+03  0.13696625472E+03  0.32300768733E+03  0.42423947701E+03  0.10100000000E+03 0. -1.
<mgrwt>
<rscale>  0 0.16914753E+04</rscale>
<asrwt>0</asrwt>
<pdfrwt beam="1">  1        2 0.30867625E+00 0.16914753E+04</pdfrwt>
<pdfrwt beam="2">  1       -2 0.47290296E-01 0.16914753E+04</pdfrwt>
<totfact> 0.26808319E+01</totfact>
</mgrwt>
</event>
<event>
 8    2  0.7266322E-052  0.1831734E+04  0.7818608E-02  0.8689603E-01
          2   -1    0    0  501    0  0.00000000000E+00  0.00000000000E+00  0.28435376549E+04  0.28435376549E+04  0.25500000000E-02 0.  1.
         -2   -1    0    0    0  501 -0.00000000000E+00 -0.00000000000E+00 -0.29498914455E+03  0.29498914456E+03  0.25500000000E-02 0. -1.
    -200001    2    1    2    0    0  0.38897861059E+03 -0.12492543047E+03  0.34169894705E+03  0.81197039187E+03  0.61288418497E+03 0.  0.
   -5000001    2    3    3    0    0  0.80891766677E+02  0.21753331711E+03  0.31588290312E+02  0.24755466157E+03  0.80132817314E+02 0.  0.
     200001    1    1    2    0    0 -0.38897861059E+03  0.12492543047E+03  0.22068495633E+04  0.23265564076E+04  0.61300000000E+03 0.  1.
         11    1    4    4    0    0  0.42355614976E+02  0.88875788694E+02  0.46970198892E+02  0.10908301206E+03  0.51100000000E-03 0.  1.
    -200002    1    4    4    0    0  0.38536151701E+02  0.12865752842E+03 -0.15381908580E+02  0.13847164951E+03  0.30000000000E+02 0.  1.
    -200000    1    3    3    0    0  0.30808684391E+03 -0.34245874758E+03  0.31011065674E+03  0.56441573030E+03  0.10100000000E+03 0. -1.
<mgrwt>
<rscale>  0 0.18317344E+04</rscale>
<asrwt>0</asrwt>
<pdfrwt beam="1">  1        2 0.40621966E+00 0.18317344E+04</pdfrwt>
<pdfrwt beam="2">  1       -2 0.42141307E-01 0.18317344E+04</pdfrwt>
<totfact> 0.14537259E+01</totfact>
</mgrwt>
</event>
<event>
 8    2  0.7266322E-052  0.1441861E+04  0.7818608E-02  0.8924063E-01
         -2   -1    0    0    0  501 -0.00000000000E+00  0.00000000000E+00  0.23514566721E+03  0.23514566722E+03  0.25500000000E-02 0. -1.
          2   -1    0    0  501    0  0.00000000000E+00 -0.00000000000E+00 -0.22102922721E+04  0.22102922721E+04  0.25500000000E-02 0.  1.
    -200001    2    1    2    0    0 -0.28688170177E+03  0.24272658179E+03 -0.89411724590E+03  0.11471271987E+04  0.61256661365E+03 0.  0.
   -5000001    2    3    3    0    0  0.45417641578E+01  0.33201547327E+03 -0.67904005093E+03  0.76065683442E+03  0.85138280853E+02 0.  0.
     200001    1    1    2    0    0  0.28688170177E+03 -0.24272658179E+03 -0.10810293590E+04  0.12983107406E+04  0.61300000000E+03 0.  1.
         11    1    4    4    0    0  0.25719460785E+02  0.26490902755E+03 -0.53622663161E+03  0.59864620937E+03  0.51100000000E-03 0.  1.
    -200002    1    4    4    0    0 -0.21177696628E+02  0.67106445723E+02 -0.14281341932E+03  0.16201062505E+03  0.30000000000E+02 0.  1.
    -200000    1    3    3    0    0 -0.29142346593E+03 -0.89288891482E+02 -0.21507719497E+03  0.38647036424E+03  0.10100000000E+03 0. -1.
<mgrwt>
<rscale>  0 0.14418608E+04</rscale>
<asrwt>0</asrwt>
<pdfrwt beam="1">  1        2 0.31575603E+00 0.14418608E+04</pdfrwt>
<pdfrwt beam="2">  1       -2 0.33592239E-01 0.14418608E+04</pdfrwt>
<totfact> 0.50315422E+01</totfact>
</mgrwt>
</event>
<event>
 8    2  0.7266322E-052  0.1978178E+04  0.7818608E-02  0.8616892E-01
         -2   -1    0    0    0  501 -0.00000000000E+00  0.00000000000E+00  0.11012223709E+04  0.11012223709E+04  0.25500000000E-02 0. -1.
          2   -1    0    0  501    0  0.00000000000E+00 -0.00000000000E+00 -0.88837344050E+03  0.88837344050E+03  0.25500000000E-02 0.  1.
    -200001    2    1    2    0    0  0.26095859847E+03  0.52775606146E+03  0.61466941432E+03  0.10494604212E+04  0.61394041747E+03 0.  0.
   -5000001    2    3    3    0    0  0.43977430047E+03  0.40054021381E+03  0.49137053903E+03  0.77823627067E+03  0.10184688573E+03 0.  0.
     200001    1    1    2    0    0 -0.26095859847E+03 -0.52775606146E+03 -0.40182048396E+03  0.94013539017E+03  0.61300000000E+03 0.  1.
         11    1    4    4    0    0  0.13999996712E+03  0.11300119495E+03  0.95710444051E+02  0.20378849319E+03  0.51100000000E-03 0.  1.
    -200002    1    4    4    0    0  0.29977433334E+03  0.28753901886E+03  0.39566009498E+03  0.57444777749E+03  0.30000000000E+02 0.  1.
    -200000    1    3    3    0    0 -0.17881570200E+03  0.12721584765E+03  0.12329887529E+03  0.27122415051E+03  0.10100000000E+03 0. -1.
<mgrwt>
<rscale>  0 0.19781777E+04</rscale>
<asrwt>0</asrwt>
<pdfrwt beam="1">  1        2 0.12691049E+00 0.19781777E+04</pdfrwt>
<pdfrwt beam="2">  1       -2 0.15731748E+00 0.19781777E+04</pdfrwt>
<totfact> 0.81516526E+00</totfact>
</mgrwt>
</event>
<event>
 8    2  0.7266322E-052  0.2437780E+04  0.7818608E-02  0.8425493E-01
          2   -1    0    0  501    0  0.00000000000E+00  0.00000000000E+00  0.25868267585E+04  0.25868267585E+04  0.25500000000E-02 0.  1.
         -2   -1    0    0    0  501 -0.00000000000E+00 -0.00000000000E+00 -0.57433009503E+03  0.57433009504E+03  0.25500000000E-02 0. -1.
    -200001    2    1    2    0    0  0.94481582477E+03  0.18390355460E+03  0.15613869333E+04  0.19340600975E+04  0.61332034466E+03 0.  0.
   -5000001    2    3    3    0    0  0.88742069508E+03  0.27063695695E+03  0.15172101661E+04  0.17825032740E+04  0.12096024581E+03 0.  0.
     200001    1    1    2    0    0 -0.94481582477E+03 -0.18390355460E+03  0.45110973024E+03  0.12270967561E+04  0.61300000000E+03 0. -1.
         11    1    4    4    0    0  0.29044907162E+03  0.32713133026E+02  0.47298965938E+03  0.55601261691E+03  0.51100000000E-03 0.  1.
    -200002    1    4    4    0    0  0.59697162346E+03  0.23792382393E+03  0.10442205067E+04  0.12264906571E+04  0.30000000000E+02 0.  1.
    -200000    1    3    3    0    0  0.57395129690E+02 -0.86733402356E+02  0.44176767163E+02  0.15155682351E+03  0.10100000000E+03 0. -1.
<mgrwt>
<rscale>  0 0.24377797E+04</rscale>
<asrwt>0</asrwt>
<pdfrwt beam="1">  1        2 0.36954668E+00 0.24377797E+04</pdfrwt>
<pdfrwt beam="2">  1       -2 0.82047156E-01 0.24377797E+04</pdfrwt>
<totfact> 0.46641487E+00</totfact>
</mgrwt>
</event>
<event>
 8    2  0.7266322E-052  0.1464491E+04  0.7818608E-02  0.8908415E-01
         -2   -1    0    0    0  501 -0.00000000000E+00  0.00000000000E+00  0.44465571212E+03  0.44465571213E+03  0.25500000000E-02 0. -1.
          2   -1    0    0  501    0  0.00000000000E+00 -0.00000000000E+00 -0.12058401427E+04  0.12058401427E+04  0.25500000000E-02 0.  1.
    -200001    2    1    2    0    0  0.37884803245E+03 -0.34762631199E+02 -0.53939877416E+03  0.89571631777E+03  0.60549352774E+03 0.  0.
   -5000001    2    3    3    0    0 -0.11804787753E+03 -0.81944826739E+02 -0.25446905180E+03  0.31217741452E+03  0.10977241818E+03 0.  0.
     200001    1    1    2    0    0 -0.37884803245E+03  0.34762631199E+02 -0.22178565645E+03  0.75477953710E+03  0.61300000000E+03 0. -1.
         11    1    4    4    0    0 -0.88806384814E+02 -0.45890431399E+02 -0.76652671881E+02  0.12596879687E+03  0.51100000000E-03 0.  1.
    -200002    1    4    4    0    0 -0.29241492713E+02 -0.36054395340E+02 -0.17781637992E+03  0.18620861765E+03  0.30000000000E+02 0.  1.
    -200000    1    3    3    0    0  0.49689590997E+03  0.47182195540E+02 -0.28492972236E+03  0.58353890325E+03  0.10100000000E+03 0.  1.
<mgrwt>
<rscale>  0 0.14644913E+04</rscale>
<asrwt>0</asrwt>
<pdfrwt beam="1">  1        2 0.17226288E+00 0.14644913E+04</pdfrwt>
<pdfrwt beam="2">  1       -2 0.63522245E-01 0.14644913E+04</pdfrwt>
<totfact> 0.47195898E+01</totfact>
</mgrwt>
</event>
<event>
 8    2  0.7266322E-052  0.1804363E+04  0.7818608E-02  0.8703983E-01
         -2   -1    0    0    0  501 -0.00000000000E+00  0.00000000000E+00  0.58491080182E+03  0.58491080183E+03  0.25500000000E-02 0. -1.
          2   -1    0    0  501    0  0.00000000000E+00 -0.00000000000E+00 -0.13915474926E+04  0.13915474926E+04  0.25500000000E-02 0.  1.
    -200001    2    1    2    0    0  0.36078792581E+03  0.37730373248E+03  0.43268428774E+02  0.80571761171E+03  0.61219496807E+03 0.  0.
   -5000001    2    3    3    0    0  0.34027213061E+02  0.44471550591E+03  0.42534703356E+02  0.45712264768E+03  0.90676246133E+02 0.  0.
     200001    1    1    2    0    0 -0.36078792581E+03 -0.37730373248E+03 -0.84990511957E+03  0.11707406827E+04  0.61300000000E+03 0.  1.
         11    1    4    4    0    0 -0.36564734169E+01 -0.19770112289E+01 -0.35725849492E+01  0.54810340929E+01  0.51100000000E-03 0.  1.
    -200002    1    4    4    0    0  0.37683686478E+02  0.44669251714E+03  0.46107288305E+02  0.45164161359E+03  0.30000000000E+02 0.  1.
    -200000    1    3    3    0    0  0.32676071275E+03 -0.67411773423E+02  0.73372541858E+00  0.34859496402E+03  0.10100000000E+03 0. -1.
<mgrwt>
<rscale>  0 0.18043627E+04</rscale>
<asrwt>0</asrwt>
<pdfrwt beam="1">  1        2 0.19879250E+00 0.18043627E+04</pdfrwt>
<pdfrwt beam="2">  1       -2 0.83558686E-01 0.18043627E+04</pdfrwt>
<totfact> 0.19831893E+01</totfact>
</mgrwt>
</event>
<event>
 8    2  0.7266322E-052  0.1417786E+04  0.7818608E-02  0.8941044E-01
          2   -1    0    0  501    0  0.00000000000E+00  0.00000000000E+00  0.43183348589E+03  0.43183348590E+03  0.25500000000E-02 0.  1.
         -2   -1    0    0    0  501 -0.00000000000E+00 -0.00000000000E+00 -0.11637110121E+04  0.11637110121E+04  0.25500000000E-02 0. -1.
    -200001    2    1    2    0    0  0.38800070211E+02 -0.10704040011E+03 -0.73753046377E+03  0.97203503666E+03  0.62284655798E+03 0.  0.
   -5000001    2    3    3    0    0  0.22926953653E+03 -0.23287253018E+03 -0.59689599018E+03  0.68551907249E+03  0.82809661077E+02 0.  0.
     200001    1    1    2    0    0 -0.38800070211E+02  0.10704040011E+03  0.56529375434E+01  0.62350946136E+03  0.61300000000E+03 0.  1.
         11    1    4    4    0    0  0.14196955820E+03 -0.18055290950E+03 -0.43573540814E+03  0.49256477188E+03  0.51100000000E-03 0.  1.
    -200002    1    4    4    0    0  0.87299978326E+02 -0.52319620680E+02 -0.16116058204E+03  0.19295430062E+03  0.30000000000E+02 0. -1.
    -200000    1    3    3    0    0 -0.19046946632E+03  0.12583213007E+03 -0.14063447360E+03  0.28651596416E+03  0.10100000000E+03 0.  1.
<mgrwt>
<rscale>  0 0.14177861E+04</rscale>
<asrwt>0</asrwt>
<pdfrwt beam="1">  1        2 0.61690498E-01 0.14177861E+04</pdfrwt>
<pdfrwt beam="2">  1       -2 0.16624443E+00 0.14177861E+04</pdfrwt>
<totfact> 0.17500421E+01</totfact>
</mgrwt>
</event>
<event>
 8    2  0.7266322E-052  0.1332900E+04  0.7818608E-02  0.9003875E-01
         -2   -1    0    0    0  501 -0.00000000000E+00  0.00000000000E+00  0.49170235083E+03  0.49170235083E+03  0.25500000000E-02 0. -1.
          2   -1    0    0  501    0  0.00000000000E+00 -0.00000000000E+00 -0.90330130724E+03  0.90330130724E+03  0.25500000000E-02 0.  1.
    -200001    2    1    2    0    0  0.71516359308E+02 -0.10501013208E+03 -0.44354104106E+03  0.76816156133E+03  0.61416757624E+03 0.  0.
   -5000001    2    3    3    0    0  0.16617490558E+03 -0.64043898902E+02  0.92665518623E+02  0.21286259024E+03  0.70766261398E+02 0.  0.
     200001    1    1    2    0    0 -0.71516359308E+02  0.10501013208E+03  0.31942084643E+02  0.62684209675E+03  0.61300000000E+03 0. -1.
         11    1    4    4    0    0  0.50267803271E+01 -0.14694637268E+02 -0.43109112141E+01  0.16117842308E+02  0.51100000000E-03 0.  1.
    -200002    1    4    4    0    0  0.16114812525E+03 -0.49349261634E+02  0.96976429837E+02  0.19674474793E+03  0.30000000000E+02 0.  1.
    -200000    1    3    3    0    0 -0.94658546271E+02 -0.40966233176E+02 -0.53620655968E+03  0.55529897108E+03  0.10100000000E+03 0.  1.
<mgrwt>
<rscale>  0 0.13328997E+04</rscale>
<asrwt>0</asrwt>
<pdfrwt beam="1">  1        2 0.12904304E+00 0.13328997E+04</pdfrwt>
<pdfrwt beam="2">  1       -2 0.70243193E-01 0.13328997E+04</pdfrwt>
<totfact> 0.58460733E+01</totfact>
</mgrwt>
</event>
<event>
 8    2  0.7266322E-052  0.1547231E+04  0.7818608E-02  0.8853638E-01
         -2   -1    0    0    0  501 -0.00000000000E+00  0.00000000000E+00  0.27595939469E+03  0.27595939470E+03  0.25500000000E-02 0.  1.
          2   -1    0    0  501    0  0.00000000000E+00 -0.00000000000E+00 -0.21687289913E+04  0.21687289913E+04  0.25500000000E-02 0. -1.
    -200001    2    1    2    0    0  0.22467172932E+03  0.89243408415E+02 -0.30718326322E+03  0.72762845911E+03  0.61370990329E+03 0.  0.
   -5000001    2    3    3    0    0 -0.19462002190E+03  0.75492137897E+01 -0.15837456730E+03  0.26413677411E+03  0.82169266262E+02 0.  0.
     200001    1    1    2    0    0 -0.22467172932E+03 -0.89243408415E+02 -0.15855863334E+04  0.17170599269E+04  0.61300000000E+03 0. -1.
         11    1    4    4    0    0 -0.11878919645E+03  0.28092416509E+02 -0.12177158935E+03  0.17241918986E+03  0.51100000000E-03 0.  1.
    -200002    1    4    4    0    0 -0.75830825450E+02 -0.20543202719E+02 -0.36602977948E+02  0.91717584252E+02  0.30000000000E+02 0.  1.
    -200000    1    3    3    0    0  0.41929175122E+03  0.81694194625E+02 -0.14880869592E+03  0.46349168499E+03  0.10100000000E+03 0. -1.
<mgrwt>
<rscale>  0 0.15472313E+04</rscale>
<asrwt>0</asrwt>
<pdfrwt beam="1">  1        2 0.30981842E+00 0.15472313E+04</pdfrwt>
<pdfrwt beam="2">  1       -2 0.39422772E-01 0.15472313E+04</pdfrwt>
<totfact> 0.38532090E+01</totfact>
</mgrwt>
</event>
<event>
 8    2  0.7266322E-052  0.2119400E+04  0.7818608E-02  0.8552746E-01
         -2   -1    0    0    0  501 -0.00000000000E+00  0.00000000000E+00  0.82532292062E+03  0.82532292062E+03  0.25500000000E-02 0.  1.
          2   -1    0    0  501    0  0.00000000000E+00 -0.00000000000E+00 -0.13606355198E+04  0.13606355198E+04  0.25500000000E-02 0. -1.
    -200001    2    1    2    0    0  0.62298316949E+03 -0.26364982901E+03  0.29037059939E+03  0.95504779940E+03  0.60842579855E+03 0.  0.
   -5000001    2    3    3    0    0  0.50568743730E+03 -0.94299170184E+02  0.43933619407E+03  0.68149765256E+03  0.82526609575E+02 0.  0.
     200001    1    1    2    0    0 -0.62298316949E+03  0.26364982901E+03 -0.82568319859E+03  0.12309106410E+04  0.61300000000E+03 0. -1.
         11    1    4    4    0    0  0.24966919144E+03 -0.43930204034E+02  0.26214850401E+03  0.36467301263E+03  0.51100000000E-03 0.  1.
    -200002    1    4    4    0    0  0.25601824585E+03 -0.50368966150E+02  0.17718769006E+03  0.31682463994E+03  0.30000000000E+02 0.  1.
    -200000    1    3    3    0    0  0.11729573219E+03 -0.16935065883E+03 -0.14896559468E+03  0.27355014684E+03  0.10100000000E+03 0. -1.
<mgrwt>
<rscale>  0 0.21193996E+04</rscale>
<asrwt>0</asrwt>
<pdfrwt beam="1">  1        2 0.19437650E+00 0.21193996E+04</pdfrwt>
<pdfrwt beam="2">  1       -2 0.11790327E+00 0.21193996E+04</pdfrwt>
<totfact> 0.89136358E+00</totfact>
</mgrwt>
</event>
<event>
 8    2  0.7266322E-052  0.1305210E+04  0.7818608E-02  0.9025444E-01
          2   -1    0    0  501    0  0.00000000000E+00  0.00000000000E+00  0.39249899963E+03  0.39249899964E+03  0.25500000000E-02 0.  1.
         -2   -1    0    0    0  501 -0.00000000000E+00 -0.00000000000E+00 -0.10850804737E+04  0.10850804737E+04  0.25500000000E-02 0. -1.
    -200001    2    1    2    0    0  0.10113858073E+03  0.19610255537E+03 -0.30001671818E+03  0.71694729399E+03  0.61263216243E+03 0.  0.
   -5000001    2    3    3    0    0  0.13118756634E+02  0.34221862257E+03 -0.36683606729E+03  0.50775068804E+03  0.77177545473E+02 0.  0.
     200001    1    1    2    0    0 -0.10113858073E+03 -0.19610255537E+03 -0.39256475593E+03  0.76063217940E+03  0.61300000000E+03 0.  1.
         11    1    4    4    0    0  0.82291803312E+00  0.19607479932E+03 -0.25078633830E+03  0.31833911415E+03  0.51100000000E-03 0.  1.
    -200002    1    4    4    0    0  0.12295838601E+02  0.14614382325E+03 -0.11604972899E+03  0.18941157388E+03  0.30000000000E+02 0.  1.
    -200000    1    3    3    0    0  0.88019824096E+02 -0.14611606720E+03  0.66819349112E+02  0.20919660596E+03  0.10100000000E+03 0.  1.
<mgrwt>
<rscale>  0 0.13052096E+04</rscale>
<asrwt>0</asrwt>
<pdfrwt beam="1">  1        2 0.56071286E-01 0.13052096E+04</pdfrwt>
<pdfrwt beam="2">  1       -2 0.15501149E+00 0.13052096E+04</pdfrwt>
<totfact> 0.23765854E+01</totfact>
</mgrwt>
</event>
<event>
 8    2  0.7266322E-052  0.1975461E+04  0.7818608E-02  0.8618180E-01
         -2   -1    0    0    0  501 -0.00000000000E+00  0.00000000000E+00  0.68419795559E+03  0.68419795559E+03  0.25500000000E-02 0. -1.
          2   -1    0    0  501    0  0.00000000000E+00 -0.00000000000E+00 -0.14259194581E+04  0.14259194581E+04  0.25500000000E-02 0.  1.
    -200001    2    1    2    0    0  0.77840945154E+02  0.42267356449E+03  0.31751645787E+03  0.81301826113E+03  0.61275593595E+03 0.  0.
   -5000001    2    3    3    0    0  0.12710774230E+03  0.47652552902E+03  0.41991213712E+03  0.65173240771E+03  0.72083079784E+02 0.  0.
     200001    1    1    2    0    0 -0.77840945154E+02 -0.42267356449E+03 -0.10592379604E+04  0.12970991525E+04  0.61300000000E+03 0.  1.
         11    1    4    4    0    0  0.78207527951E+02  0.34009694996E+03  0.31712154580E+03  0.47153836282E+03  0.51100000000E-03 0.  1.
    -200002    1    4    4    0    0  0.48900214348E+02  0.13642857906E+03  0.10279059132E+03  0.18019404488E+03  0.30000000000E+02 0. -1.
    -200000    1    3    3    0    0 -0.49266797145E+02 -0.53851964536E+02 -0.10239567925E+03  0.16128585342E+03  0.10100000000E+03 0.  1.
<mgrwt>
<rscale>  0 0.19754606E+04</rscale>
<asrwt>0</asrwt>
<pdfrwt beam="1">  1        2 0.20370278E+00 0.19754606E+04</pdfrwt>
<pdfrwt beam="2">  1       -2 0.97742566E-01 0.19754606E+04</pdfrwt>
<totfact> 0.13053094E+01</totfact>
</mgrwt>
</event>
<event>
 8    2  0.7266322E-052  0.1430841E+04  0.7818608E-02  0.8931792E-01
         -2   -1    0    0    0  501 -0.00000000000E+00  0.00000000000E+00  0.19932130860E+03  0.19932130861E+03  0.25500000000E-02 0.  1.
          2   -1    0    0  501    0  0.00000000000E+00 -0.00000000000E+00 -0.25678461657E+04  0.25678461657E+04  0.25500000000E-02 0. -1.
    -200001    2    1    2    0    0 -0.20277122986E+03 -0.30779021786E+03 -0.12238106645E+04  0.14173561643E+04  0.61264587170E+03 0.  0.
   -5000001    2    3    3    0    0  0.10545736424E+03  0.95409155633E+02 -0.20202466476E+03  0.27200808174E+03  0.11379924739E+03 0.  0.
     200001    1    1    2    0    0  0.20277122986E+03  0.30779021786E+03 -0.11447141926E+04  0.13498113100E+04  0.61300000000E+03 0. -1.
         11    1    4    4    0    0  0.99160290094E+02  0.10977947984E+03 -0.17072812001E+03  0.22590349331E+03  0.51100000000E-03 0.  1.
    -200002    1    4    4    0    0  0.62970741417E+01 -0.14370324212E+02 -0.31296544756E+02  0.46104588431E+02  0.30000000000E+02 0.  1.
    -200000    1    3    3    0    0 -0.30822859410E+03 -0.40319937350E+03 -0.10217859997E+04  0.11453480826E+04  0.10100000000E+03 0.  1.
<mgrwt>
<rscale>  0 0.14308410E+04</rscale>
<asrwt>0</asrwt>
<pdfrwt beam="1">  1        2 0.36683515E+00 0.14308410E+04</pdfrwt>
<pdfrwt beam="2">  1       -2 0.28474474E-01 0.14308410E+04</pdfrwt>
<totfact> 0.44689532E+01</totfact>
</mgrwt>
</event>
<event>
 8    2  0.7266322E-052  0.2020184E+04  0.7818608E-02  0.8597242E-01
         -2   -1    0    0    0  501 -0.00000000000E+00  0.00000000000E+00  0.38947776049E+03  0.38947776050E+03  0.25500000000E-02 0. -1.
          2   -1    0    0  501    0  0.00000000000E+00 -0.00000000000E+00 -0.26196242661E+04  0.26196242661E+04  0.25500000000E-02 0.  1.
    -200001    2    1    2    0    0  0.33983035891E+03  0.49728832107E+03 -0.32400838502E+03  0.91819029200E+03  0.61262682903E+03 0.  0.
   -5000001    2    3    3    0    0  0.11097390217E+03  0.23212559857E+03 -0.45854662765E+03  0.52961843773E+03  0.63507317517E+02 0.  0.
     200001    1    1    2    0    0 -0.33983035891E+03 -0.49728832107E+03 -0.19061381206E+04  0.20909117346E+04  0.61300000000E+03 0.  1.
         11    1    4    4    0    0  0.45181610209E+02  0.14036366914E+03 -0.27515601761E+03  0.31217650703E+03  0.51100000000E-03 0.  1.
    -200002    1    4    4    0    0  0.65792291957E+02  0.91761929434E+02 -0.18339061004E+03  0.21744193070E+03  0.30000000000E+02 0.  1.
    -200000    1    3    3    0    0  0.22885645674E+03  0.26516272250E+03  0.13453824264E+03  0.38857185427E+03  0.10100000000E+03 0. -1.
<mgrwt>
<rscale>  0 0.20201835E+04</rscale>
<asrwt>0</asrwt>
<pdfrwt beam="1">  1        2 0.37423203E+00 0.20201835E+04</pdfrwt>
<pdfrwt beam="2">  1       -2 0.55639681E-01 0.20201835E+04</pdfrwt>
<totfact> 0.10761355E+01</totfact>
</mgrwt>
</event>
<event>
 8    2  0.7266322E-052  0.2274973E+04  0.7818608E-02  0.8487855E-01
         -2   -1    0    0    0  501 -0.00000000000E+00  0.00000000000E+00  0.80500216728E+03  0.80500216728E+03  0.25500000000E-02 0. -1.
          2   -1    0    0  501    0  0.00000000000E+00 -0.00000000000E+00 -0.16072944175E+04  0.16072944175E+04  0.25500000000E-02 0.  1.
    -200001    2    1    2    0    0 -0.23780933254E+03 -0.80018165763E+03 -0.89942973954E+03  0.13720809073E+04  0.61383075523E+03 0.  0.
   -5000001    2    3    3    0    0 -0.35624498963E+03 -0.69252710566E+03 -0.49671792854E+03  0.92711539165E+03  0.79435283117E+02 0.  0.
     200001    1    1    2    0    0  0.23780933254E+03  0.80018165763E+03  0.97137489277E+02  0.10402156775E+04  0.61300000000E+03 0. -1.
         11    1    4    4    0    0 -0.34690860941E+02 -0.78474944383E+02 -0.29783561396E+02  0.90823087695E+02  0.51100000000E-03 0.  1.
    -200002    1    4    4    0    0 -0.32155412869E+03 -0.61405216127E+03 -0.46693436714E+03  0.83629230396E+03  0.30000000000E+02 0.  1.
    -200000    1    3    3    0    0  0.11843565709E+03 -0.10765455198E+03 -0.40271181100E+03  0.44496551569E+03  0.10100000000E+03 0.  1.
<mgrwt>
<rscale>  0 0.22749730E+04</rscale>
<asrwt>0</asrwt>
<pdfrwt beam="1">  1        2 0.22961349E+00 0.22749730E+04</pdfrwt>
<pdfrwt beam="2">  1       -2 0.11500031E+00 0.22749730E+04</pdfrwt>
<totfact> 0.69074883E+00</totfact>
</mgrwt>
</event>
<event>
 8    2  0.7266322E-052  0.1557753E+04  0.7818608E-02  0.8846931E-01
          2   -1    0    0  501    0  0.00000000000E+00  0.00000000000E+00  0.94519676097E+03  0.94519676097E+03  0.25500000000E-02 0.  1.
         -2   -1    0    0    0  501 -0.00000000000E+00 -0.00000000000E+00 -0.64182275926E+03  0.64182275926E+03  0.25500000000E-02 0. -1.
    -200001    2    1    2    0    0 -0.38194231372E+03 -0.60574132483E+02  0.44219398501E+03  0.84905668628E+03  0.61303554514E+03 0.  0.
   -5000001    2    3    3    0    0 -0.31476849234E+03 -0.84817401220E+02  0.57086121022E+03  0.67057331674E+03  0.13233614951E+03 0.  0.
     200001    1    1    2    0    0  0.38194231372E+03  0.60574132483E+02 -0.13881998330E+03  0.73796283395E+03  0.61300000000E+03 0. -1.
         11    1    4    4    0    0 -0.29403271569E+03 -0.93712902919E+02  0.46350084891E+03  0.55683963851E+03  0.51100000000E-03 0.  1.
    -200002    1    4    4    0    0 -0.20735776653E+02  0.88955016988E+01  0.10736036131E+03  0.11373367824E+03  0.30000000000E+02 0.  1.
    -200000    1    3    3    0    0 -0.67173821371E+02  0.24243268737E+02 -0.12866722522E+03  0.17848336954E+03  0.10100000000E+03 0. -1.
<mgrwt>
<rscale>  0 0.15577532E+04</rscale>
<asrwt>0</asrwt>
<pdfrwt beam="1">  1        2 0.13502811E+00 0.15577532E+04</pdfrwt>
<pdfrwt beam="2">  1       -2 0.91688964E-01 0.15577532E+04</pdfrwt>
<totfact> 0.29677901E+01</totfact>
</mgrwt>
</event>
<event>
 8    2  0.7266322E-052  0.1340620E+04  0.7818608E-02  0.8997959E-01
         -2   -1    0    0    0  501 -0.00000000000E+00  0.00000000000E+00  0.24666834072E+03  0.24666834074E+03  0.25500000000E-02 0.  1.
          2   -1    0    0  501    0  0.00000000000E+00 -0.00000000000E+00 -0.18215378792E+04  0.18215378792E+04  0.25500000000E-02 0. -1.
    -200001    2    1    2    0    0  0.13285116928E+03  0.26703830785E+02 -0.11486287567E+04  0.13093829653E+04  0.61381854100E+03 0.  0.
   -5000001    2    3    3    0    0  0.12518814234E+03 -0.25542582742E+03 -0.75199110181E+03  0.81221267725E+03  0.11525793502E+03 0.  0.
     200001    1    1    2    0    0 -0.13285116928E+03 -0.26703830785E+02 -0.42624078176E+03  0.75882325465E+03  0.61300000000E+03 0.  1.
         11    1    4    4    0    0  0.10520302325E+03 -0.93171787996E+02 -0.33076206861E+03  0.35937752324E+03  0.51100000000E-03 0.  1.
    -200002    1    4    4    0    0  0.19985119092E+02 -0.16225403943E+03 -0.42122903320E+03  0.45283515401E+03  0.30000000000E+02 0.  1.
    -200000    1    3    3    0    0  0.76630269465E+01  0.28212965821E+03 -0.39663765490E+03  0.49717028804E+03  0.10100000000E+03 0.  1.
<mgrwt>
<rscale>  0 0.13406203E+04</rscale>
<asrwt>0</asrwt>
<pdfrwt beam="1">  1        2 0.26021969E+00 0.13406203E+04</pdfrwt>
<pdfrwt beam="2">  1       -2 0.35238335E-01 0.13406203E+04</pdfrwt>
<totfact> 0.73340588E+01</totfact>
</mgrwt>
</event>
<event>
 8    2  0.7266322E-052  0.1434674E+04  0.7818608E-02  0.8929095E-01
         -2   -1    0    0    0  501 -0.00000000000E+00  0.00000000000E+00  0.25177558384E+03  0.25177558386E+03  0.25500000000E-02 0. -1.
          2   -1    0    0  501    0  0.00000000000E+00 -0.00000000000E+00 -0.20437728623E+04  0.20437728623E+04  0.25500000000E-02 0.  1.
    -200001    2    1    2    0    0 -0.15224562624E+03  0.28165412345E+03 -0.59384592984E+03  0.91213114463E+03  0.61385866504E+03 0.  0.
   -5000001    2    3    3    0    0  0.16029869919E+03  0.14209044507E+03 -0.69739538996E+01  0.22526748143E+03  0.69364505444E+02 0.  0.
     200001    1    1    2    0    0  0.15224562624E+03 -0.28165412345E+03 -0.11981513486E+04  0.13834173015E+04  0.61300000000E+03 0. -1.
         11    1    4    4    0    0  0.12322001740E+03  0.80740437854E+02 -0.82607572618E+01  0.14754806370E+03  0.51100000000E-03 0.  1.
    -200002    1    4    4    0    0  0.37078681791E+02  0.61350007217E+02  0.12868033622E+01  0.77719417727E+02  0.30000000000E+02 0.  1.
    -200000    1    3    3    0    0 -0.31254432542E+03  0.13956367838E+03 -0.58687197594E+03  0.68686366320E+03  0.10100000000E+03 0.  1.
<mgrwt>
<rscale>  0 0.14346736E+04</rscale>
<asrwt>0</asrwt>
<pdfrwt beam="1">  1        2 0.29196754E+00 0.14346736E+04</pdfrwt>
<pdfrwt beam="2">  1       -2 0.35967942E-01 0.14346736E+04</pdfrwt>
<totfact> 0.53825012E+01</totfact>
</mgrwt>
</event>
<event>
 8    2  0.7266322E-052  0.1375964E+04  0.7818608E-02  0.8971403E-01
          2   -1    0    0  501    0  0.00000000000E+00  0.00000000000E+00  0.15047181156E+04  0.15047181156E+04  0.25500000000E-02 0.  1.
         -2   -1    0    0    0  501 -0.00000000000E+00 -0.00000000000E+00 -0.31455657534E+03  0.31455657535E+03  0.25500000000E-02 0. -1.
    -200001    2    1    2    0    0  0.12535620309E+03  0.14844159086E+03  0.91248969870E+03  0.11188321628E+04  0.61757499532E+03 0.  0.
   -5000001    2    3    3    0    0 -0.70372588504E+02 -0.18859065744E+03  0.15127012321E+03  0.25769527573E+03  0.54822145826E+02 0.  0.
     200001    1    1    2    0    0 -0.12535620309E+03 -0.14844159086E+03  0.27767184153E+03  0.70044252807E+03  0.61300000000E+03 0. -1.
         11    1    4    4    0    0 -0.31819621641E+02 -0.12086491496E+03  0.86101354376E+02  0.15177041614E+03  0.51100000000E-03 0.  1.
    -200002    1    4    4    0    0 -0.38552966863E+02 -0.67725742473E+02  0.65168768832E+02  0.10592485959E+03  0.30000000000E+02 0.  1.
    -200000    1    3    3    0    0  0.19572879159E+03  0.33703224829E+03  0.76121957549E+03  0.86113688712E+03  0.10100000000E+03 0. -1.
<mgrwt>
<rscale>  0 0.13759636E+04</rscale>
<asrwt>0</asrwt>
<pdfrwt beam="1">  1        2 0.21495973E+00 0.13759636E+04</pdfrwt>
<pdfrwt beam="2">  1       -2 0.44936654E-01 0.13759636E+04</pdfrwt>
<totfact> 0.66583310E+01</totfact>
</mgrwt>
</event>
<event>
 8    2  0.7266322E-052  0.1548904E+04  0.7818608E-02  0.8852568E-01
          2   -1    0    0  501    0  0.00000000000E+00  0.00000000000E+00  0.30669859255E+04  0.30669859255E+04  0.25500000000E-02 0.  1.
         -2   -1    0    0    0  501 -0.00000000000E+00 -0.00000000000E+00 -0.19555866104E+03  0.19555866105E+03  0.25500000000E-02 0. -1.
    -200001    2    1    2    0    0 -0.10196141764E+03  0.27973191481E+03  0.22108955545E+04  0.23134833584E+04  0.61278056592E+03 0.  0.
   -5000001    2    3    3    0    0  0.16283251948E+03  0.30041781237E+03  0.16360835931E+04  0.16722708145E+04  0.54358643465E+02 0.  0.
     200001    1    1    2    0    0  0.10196141764E+03 -0.27973191481E+03  0.66053170995E+03  0.94906122811E+03  0.61300000000E+03 0. -1.
         11    1    4    4    0    0  0.53294787825E+02  0.13685398011E+03  0.70185241392E+03  0.71705380356E+03  0.51100000000E-03 0.  1.
    -200002    1    4    4    0    0  0.10953773166E+03  0.16356383226E+03  0.93423117915E+03  0.95521701093E+03  0.30000000000E+02 0. -1.
    -200000    1    3    3    0    0 -0.26479393712E+03 -0.20685897555E+02  0.57481196142E+03  0.64121254392E+03  0.10100000000E+03 0. -1.
<mgrwt>
<rscale>  0 0.15489037E+04</rscale>
<asrwt>0</asrwt>
<pdfrwt beam="1">  1        2 0.43814085E+00 0.15489037E+04</pdfrwt>
<pdfrwt beam="2">  1       -2 0.27936951E-01 0.15489037E+04</pdfrwt>
<totfact> 0.24524532E+01</totfact>
</mgrwt>
</event>
<event>
 8    2  0.7266322E-052  0.1435483E+04  0.7818608E-02  0.8928527E-01
         -2   -1    0    0    0  501 -0.00000000000E+00  0.00000000000E+00  0.47149370852E+03  0.47149370853E+03  0.25500000000E-02 0. -1.
          2   -1    0    0  501    0  0.00000000000E+00 -0.00000000000E+00 -0.10925972975E+04  0.10925972975E+04  0.25500000000E-02 0.  1.
    -200001    2    1    2    0    0  0.36939387535E+02 -0.12709604297E+03 -0.69106020527E+03  0.93307527673E+03  0.61281917582E+03 0.  0.
   -5000001    2    3    3    0    0 -0.79884553008E+02  0.19585239531E+03 -0.11646832130E+03  0.25609642921E+03  0.85327654533E+02 0.  0.
     200001    1    1    2    0    0 -0.36939387535E+02  0.12709604297E+03  0.69956616269E+02  0.63101572932E+03  0.61300000000E+03 0. -1.
         11    1    4    4    0    0 -0.52152807891E+02  0.89099231372E+02 -0.93963715246E+02  0.13959859664E+03  0.51100000000E-03 0.  1.
    -200002    1    4    4    0    0 -0.27731745118E+02  0.10675316394E+03 -0.22504606053E+02  0.11649783256E+03  0.30000000000E+02 0.  1.
    -200000    1    3    3    0    0  0.11682394054E+03 -0.32294843828E+03 -0.57459188397E+03  0.67697884752E+03  0.10100000000E+03 0.  1.
<mgrwt>
<rscale>  0 0.14354828E+04</rscale>
<asrwt>0</asrwt>
<pdfrwt beam="1">  1        2 0.15608533E+00 0.14354828E+04</pdfrwt>
<pdfrwt beam="2">  1       -2 0.67356245E-01 0.14354828E+04</pdfrwt>
<totfact> 0.48511077E+01</totfact>
</mgrwt>
</event>
<event>
 8    2  0.7266322E-052  0.1338699E+04  0.7818608E-02  0.8999427E-01
          2   -1    0    0  501    0  0.00000000000E+00  0.00000000000E+00  0.52344365493E+03  0.52344365494E+03  0.25500000000E-02 0.  1.
         -2   -1    0    0    0  501 -0.00000000000E+00 -0.00000000000E+00 -0.85592534080E+03  0.85592534081E+03  0.25500000000E-02 0. -1.
    -200001    2    1    2    0    0  0.23144820655E+03  0.13094373525E+03 -0.21029926914E+03  0.70009579807E+03  0.61253066026E+03 0.  0.
   -5000001    2    3    3    0    0  0.86023849604E+02 -0.22840999063E+03 -0.10407909889E+03  0.28564789004E+03  0.10578767291E+03 0.  0.
     200001    1    1    2    0    0 -0.23144820655E+03 -0.13094373525E+03 -0.12218241673E+03  0.67927319767E+03  0.61300000000E+03 0.  1.
         11    1    4    4    0    0  0.20540310437E+02 -0.14795861392E+03 -0.95560141522E+02  0.17732849865E+03  0.51100000000E-03 0.  1.
    -200002    1    4    4    0    0  0.65483539167E+02 -0.80451376711E+02 -0.85189573631E+01  0.10831939139E+03  0.30000000000E+02 0. -1.
    -200000    1    3    3    0    0  0.14542435695E+03  0.35935372589E+03 -0.10622017026E+03  0.41444790803E+03  0.10100000000E+03 0. -1.
<mgrwt>
<rscale>  0 0.13386989E+04</rscale>
<asrwt>0</asrwt>
<pdfrwt beam="1">  1        2 0.74777665E-01 0.13386989E+04</pdfrwt>
<pdfrwt beam="2">  1       -2 0.12227505E+00 0.13386989E+04</pdfrwt>
<totfact> 0.31583393E+01</totfact>
</mgrwt>
</event>
<event>
 8    2  0.7266322E-052  0.2533091E+04  0.7818608E-02  0.8391291E-01
         -2   -1    0    0    0  501 -0.00000000000E+00  0.00000000000E+00  0.70741968698E+03  0.70741968698E+03  0.25500000000E-02 0. -1.
          2   -1    0    0  501    0  0.00000000000E+00 -0.00000000000E+00 -0.22675903392E+04  0.22675903392E+04  0.25500000000E-02 0.  1.
    -200001    2    1    2    0    0  0.94173799166E+03  0.51287638668E+03 -0.45225881616E+03  0.13157480609E+04  0.61379336099E+03 0.  0.
   -5000001    2    3    3    0    0  0.47254386959E+03  0.20965073601E+03 -0.10269645595E+03  0.64905190590E+03  0.37877522977E+03 0.  0.
     200001    1    1    2    0    0 -0.94173799166E+03 -0.51287638668E+03 -0.11079118360E+04  0.16592619652E+04  0.61300000000E+03 0.  1.
         11    1    4    4    0    0  0.26535690660E+03 -0.76457492737E+02  0.12077387108E+02  0.27641617057E+03  0.51100000000E-03 0.  1.
    -200002    1    4    4    0    0  0.20718696299E+03  0.28610822875E+03 -0.11477384306E+03  0.37263573532E+03  0.30000000000E+02 0.  1.
    -200000    1    3    3    0    0  0.46919412207E+03  0.30322565067E+03 -0.34956236021E+03  0.66669615499E+03  0.10100000000E+03 0. -1.
<mgrwt>
<rscale>  0 0.25330914E+04</rscale>
<asrwt>0</asrwt>
<pdfrwt beam="1">  1        2 0.32394147E+00 0.25330914E+04</pdfrwt>
<pdfrwt beam="2">  1       -2 0.10105996E+00 0.25330914E+04</pdfrwt>
<totfact> 0.42045529E+00</totfact>
</mgrwt>
</event>
<event>
 8    2  0.7266322E-052  0.1602311E+04  0.7818608E-02  0.8819129E-01
          2   -1    0    0  501    0  0.00000000000E+00  0.00000000000E+00  0.62042182578E+03  0.62042182579E+03  0.25500000000E-02 0.  1.
         -2   -1    0    0    0  501 -0.00000000000E+00 -0.00000000000E+00 -0.10345385323E+04  0.10345385323E+04  0.25500000000E-02 0. -1.
    -200001    2    1    2    0    0 -0.15497092960E+03  0.15157221756E+03  0.27668395502E+03  0.70629567543E+03  0.61262504357E+03 0.  0.
   -5000001    2    3    3    0    0 -0.35838590959E+03  0.19847127496E+03  0.16075010967E+03  0.44702972671E+03  0.78509054409E+02 0.  0.
     200001    1    1    2    0    0  0.15497092960E+03 -0.15157221756E+03 -0.69080066154E+03  0.94866468267E+03  0.61300000000E+03 0. -1.
         11    1    4    4    0    0 -0.93010177466E+02  0.36882981234E+02  0.69478942116E+02  0.12181367253E+03  0.51100000000E-03 0.  1.
    -200002    1    4    4    0    0 -0.26537573213E+03  0.16158829372E+03  0.91271167559E+02  0.32521605418E+03  0.30000000000E+02 0. -1.
    -200000    1    3    3    0    0  0.20341498000E+03 -0.46899057394E+02  0.11593384534E+03  0.25926594872E+03  0.10100000000E+03 0. -1.
<mgrwt>
<rscale>  0 0.16023112E+04</rscale>
<asrwt>0</asrwt>
<pdfrwt beam="1">  1        2 0.88631690E-01 0.16023112E+04</pdfrwt>
<pdfrwt beam="2">  1       -2 0.14779122E+00 0.16023112E+04</pdfrwt>
<totfact> 0.15604268E+01</totfact>
</mgrwt>
</event>
<event>
 8    2  0.7266322E-052  0.1910622E+04  0.7818608E-02  0.8649587E-01
         -2   -1    0    0    0  501 -0.00000000000E+00  0.00000000000E+00  0.43140354138E+03  0.43140354139E+03  0.25500000000E-02 0. -1.
          2   -1    0    0  501    0  0.00000000000E+00 -0.00000000000E+00 -0.21154648901E+04  0.21154648901E+04  0.25500000000E-02 0.  1.
    -200001    2    1    2    0    0 -0.38674412245E+03 -0.61103254890E+03 -0.68582350010E+03  0.11702132116E+04  0.61328076379E+03 0.  0.
   -5000001    2    3    3    0    0 -0.71834236671E+02 -0.40738475801E+03 -0.65751934458E+03  0.78079982698E+03  0.78703130170E+02 0.  0.
     200001    1    1    2    0    0  0.38674412245E+03  0.61103254890E+03 -0.99823784860E+03  0.13766552199E+04  0.61300000000E+03 0.  1.
         11    1    4    4    0    0 -0.12485711617E+02 -0.22179314990E+03 -0.38418541577E+03  0.44378657937E+03  0.51100000000E-03 0.  1.
    -200002    1    4    4    0    0 -0.59348525054E+02 -0.18559160811E+03 -0.27333392881E+03  0.33701324761E+03  0.30000000000E+02 0.  1.
    -200000    1    3    3    0    0 -0.31490988577E+03 -0.20364779089E+03 -0.28304155514E+02  0.38941338461E+03  0.10100000000E+03 0. -1.
<mgrwt>
<rscale>  0 0.19106219E+04</rscale>
<asrwt>0</asrwt>
<pdfrwt beam="1">  1        2 0.30220926E+00 0.19106219E+04</pdfrwt>
<pdfrwt beam="2">  1       -2 0.61629079E-01 0.19106219E+04</pdfrwt>
<totfact> 0.16066444E+01</totfact>
</mgrwt>
</event>
<event>
 8    2  0.7266322E-052  0.1506341E+04  0.7818608E-02  0.8880247E-01
          2   -1    0    0  501    0  0.00000000000E+00  0.00000000000E+00  0.33297907610E+04  0.33297907610E+04  0.25500000000E-02 0.  1.
         -2   -1    0    0    0  501 -0.00000000000E+00 -0.00000000000E+00 -0.17036076291E+03  0.17036076293E+03  0.25500000000E-02 0. -1.
    -200001    2    1    2    0    0 -0.27082269031E+03  0.32132454839E+03  0.18641321221E+04  0.20067795065E+04  0.61284665614E+03 0.  0.
   -5000001    2    3    3    0    0 -0.37111522905E+03  0.29623443508E+02  0.67977916873E+03  0.77875627945E+03  0.75878606436E+02 0.  0.
     200001    1    1    2    0    0  0.27082269031E+03 -0.32132454839E+03  0.12952978760E+04  0.14933720175E+04  0.61300000000E+03 0. -1.
         11    1    4    4    0    0 -0.23911964682E+03 -0.84627070311E+01  0.43493276102E+03  0.49640339394E+03  0.51100000000E-03 0.  1.
    -200002    1    4    4    0    0 -0.13199558224E+03  0.38086150539E+02  0.24484640771E+03  0.28235288552E+03  0.30000000000E+02 0.  1.
    -200000    1    3    3    0    0  0.10029253874E+03  0.29170110488E+03  0.11843529534E+04  0.12280232270E+04  0.10100000000E+03 0. -1.
<mgrwt>
<rscale>  0 0.15063409E+04</rscale>
<asrwt>0</asrwt>
<pdfrwt beam="1">  1        2 0.47568435E+00 0.15063409E+04</pdfrwt>
<pdfrwt beam="2">  1       -2 0.24337254E-01 0.15063409E+04</pdfrwt>
<totfact> 0.22362411E+01</totfact>
</mgrwt>
</event>
<event>
 8    2  0.7266322E-052  0.1874741E+04  0.7818608E-02  0.8667532E-01
          2   -1    0    0  501    0  0.00000000000E+00  0.00000000000E+00  0.26553633374E+04  0.26553633374E+04  0.25500000000E-02 0.  1.
         -2   -1    0    0    0  501 -0.00000000000E+00 -0.00000000000E+00 -0.33090153928E+03  0.33090153929E+03  0.25500000000E-02 0. -1.
    -200001    2    1    2    0    0  0.28782328171E+03 -0.62224161249E+03  0.87502156225E+03  0.12696773132E+04  0.61350703291E+03 0.  0.
   -5000001    2    3    3    0    0 -0.12457749825E+03 -0.67918612306E+02  0.35840134060E+02  0.17799289851E+03  0.10131369968E+03 0.  0.
     200001    1    1    2    0    0 -0.28782328171E+03  0.62224161249E+03  0.14494402359E+04  0.17165875635E+04  0.61300000000E+03 0. -1.
         11    1    4    4    0    0 -0.42134566806E+02 -0.35431362499E+02 -0.30846177195E+02  0.63104594256E+02  0.51100000000E-03 0.  1.
    -200002    1    4    4    0    0 -0.82442931445E+02 -0.32487249808E+02  0.66686311255E+02  0.11488830425E+03  0.30000000000E+02 0.  1.
    -200000    1    3    3    0    0  0.41240077996E+03 -0.55432300019E+03  0.83918142819E+03  0.10916844147E+04  0.10100000000E+03 0.  1.
<mgrwt>
<rscale>  0 0.18747414E+04</rscale>
<asrwt>0</asrwt>
<pdfrwt beam="1">  1        2 0.37933762E+00 0.18747414E+04</pdfrwt>
<pdfrwt beam="2">  1       -2 0.47271648E-01 0.18747414E+04</pdfrwt>
<totfact> 0.14556852E+01</totfact>
</mgrwt>
</event>
<event>
 8    2  0.7266322E-052  0.2154863E+04  0.7818608E-02  0.8537454E-01
         -2   -1    0    0    0  501 -0.00000000000E+00  0.00000000000E+00  0.12139223673E+04  0.12139223673E+04  0.25500000000E-02 0. -1.
          2   -1    0    0  501    0  0.00000000000E+00 -0.00000000000E+00 -0.95628729856E+03  0.95628729856E+03  0.25500000000E-02 0.  1.
    -200001    2    1    2    0    0  0.15080763230E+03  0.86973319170E+03  0.36659847610E+02  0.10730415771E+04  0.60901191702E+03 0.  0.
   -5000001    2    3    3    0    0  0.26268269055E+03  0.43756616270E+03  0.22211053843E+03  0.57920220207E+03  0.16023656558E+03 0.  0.
     200001    1    1    2    0    0 -0.15080763230E+03 -0.86973319170E+03  0.22097522118E+03  0.10971680888E+04  0.61300000000E+03 0.  1.
         11    1    4    4    0    0  0.21395574343E+03  0.30061405835E+03  0.88378468493E+02  0.37941616454E+03  0.51100000000E-03 0.  1.
    -200002    1    4    4    0    0  0.48726947122E+02  0.13695210436E+03  0.13373206994E+03  0.19978603753E+03  0.30000000000E+02 0.  1.
    -200000    1    3    3    0    0 -0.11187505825E+03  0.43216702900E+03 -0.18545069082E+03  0.49383937504E+03  0.10100000000E+03 0.  1.
<mgrwt>
<rscale>  0 0.21548629E+04</rscale>
<asrwt>0</asrwt>
<pdfrwt beam="1">  1        2 0.13661247E+00 0.21548629E+04</pdfrwt>
<pdfrwt beam="2">  1       -2 0.17341748E+00 0.21548629E+04</pdfrwt>
<totfact> 0.55548803E+00</totfact>
</mgrwt>
</event>
<event>
 8    2  0.7266322E-052  0.2437748E+04  0.7818608E-02  0.8425505E-01
         -2   -1    0    0    0  501 -0.00000000000E+00  0.00000000000E+00  0.75711262140E+03  0.75711262140E+03  0.25500000000E-02 0. -1.
          2   -1    0    0  501    0  0.00000000000E+00 -0.00000000000E+00 -0.19622629394E+04  0.19622629394E+04  0.25500000000E-02 0.  1.
    -200001    2    1    2    0    0 -0.93389127369E+03 -0.44464970751E+03 -0.37930658955E+03  0.12607278524E+04  0.61293960175E+03 0.  0.
   -5000001    2    3    3    0    0 -0.28043896161E+03 -0.33690067970E+03 -0.13677951414E+03  0.54824616175E+03  0.29952819435E+03 0.  0.
     200001    1    1    2    0    0  0.93389127369E+03  0.44464970751E+03 -0.82584372844E+03  0.14586477084E+04  0.61300000000E+03 0.  1.
         11    1    4    4    0    0 -0.30856046184E+03 -0.36681734569E+03 -0.13194427005E+03  0.49716578132E+03  0.51100000000E-03 0.  1.
    -200002    1    4    4    0    0  0.28121500237E+02  0.29916665990E+02 -0.48352440900E+01  0.51080380430E+02  0.30000000000E+02 0.  1.
    -200000    1    3    3    0    0 -0.65345231209E+03 -0.10774902781E+03 -0.24252707541E+03  0.71248169062E+03  0.10100000000E+03 0.  1.
<mgrwt>
<rscale>  0 0.24377482E+04</rscale>
<asrwt>0</asrwt>
<pdfrwt beam="1">  1        2 0.28032327E+00 0.24377482E+04</pdfrwt>
<pdfrwt beam="2">  1       -2 0.10815895E+00 0.24377482E+04</pdfrwt>
<totfact> 0.51779788E+00</totfact>
</mgrwt>
</event>
<event>
 8    2  0.7266322E-052  0.1337645E+04  0.7818608E-02  0.9000234E-01
          2   -1    0    0  501    0  0.00000000000E+00  0.00000000000E+00  0.39142175456E+04  0.39142175456E+04  0.25500000000E-02 0.  1.
         -2   -1    0    0    0  501 -0.00000000000E+00 -0.00000000000E+00 -0.11428168173E+03  0.11428168176E+03  0.25500000000E-02 0. -1.
    -200001    2    1    2    0    0  0.11599761668E+03  0.78821692592E+01  0.11649922233E+04  0.13206930000E+04  0.61115099964E+03 0.  0.
   -5000001    2    3    3    0    0 -0.68046896910E+02  0.34714584577E+02  0.94260114175E+03  0.10136894909E+04  0.36501231336E+03 0.  0.
     200001    1    1    2    0    0 -0.11599761668E+03 -0.78821692592E+01  0.26349436406E+04  0.27078062273E+04  0.61300000000E+03 0.  1.
         11    1    4    4    0    0 -0.21115522039E+03 -0.29476605668E+02  0.53270209849E+03  0.57378299306E+03  0.51100000000E-03 0.  1.
    -200002    1    4    4    0    0  0.14310832348E+03  0.64191190245E+02  0.40989904326E+03  0.43990649781E+03  0.30000000000E+02 0.  1.
    -200000    1    3    3    0    0  0.18404451359E+03 -0.26832415318E+02  0.22239108152E+03  0.30700350915E+03  0.10100000000E+03 0. -1.
<mgrwt>
<rscale>  0 0.13376447E+04</rscale>
<asrwt>0</asrwt>
<pdfrwt beam="1">  1        2 0.55917393E+00 0.13376447E+04</pdfrwt>
<pdfrwt beam="2">  1       -2 0.16325955E-01 0.13376447E+04</pdfrwt>
<totfact> 0.19836039E+01</totfact>
</mgrwt>
</event>
<event>
 8    2  0.7266322E-052  0.1625770E+04  0.7818608E-02  0.8804871E-01
         -2   -1    0    0    0  501 -0.00000000000E+00  0.00000000000E+00  0.43935917916E+03  0.43935917917E+03  0.25500000000E-02 0. -1.
          2   -1    0    0  501    0  0.00000000000E+00 -0.00000000000E+00 -0.15039671721E+04  0.15039671721E+04  0.25500000000E-02 0.  1.
    -200001    2    1    2    0    0  0.22016487649E+03  0.37673103770E+03 -0.16482927531E+03  0.77039430367E+03  0.61313933614E+03 0.  0.
   -5000001    2    3    3    0    0 -0.19510871834E+03  0.12297544848E+03 -0.11852662080E+03  0.27120596904E+03  0.79459076922E+02 0.  0.
     200001    1    1    2    0    0 -0.22016487649E+03 -0.37673103770E+03 -0.89977871768E+03  0.11729320476E+04  0.61300000000E+03 0.  1.
         11    1    4    4    0    0 -0.27646489928E+02 -0.36107381220E+01  0.77946459970E+00  0.27892174538E+02  0.51100000000E-03 0.  1.
    -200002    1    4    4    0    0 -0.16746222841E+03  0.12658618660E+03 -0.11930608540E+03  0.24331379450E+03  0.30000000000E+02 0.  1.
    -200000    1    3    3    0    0  0.41527359482E+03  0.25375558922E+03 -0.46302654511E+02  0.49918833463E+03  0.10100000000E+03 0. -1.
<mgrwt>
<rscale>  0 0.16257697E+04</rscale>
<asrwt>0</asrwt>
<pdfrwt beam="1">  1        2 0.21485245E+00 0.16257697E+04</pdfrwt>
<pdfrwt beam="2">  1       -2 0.62765597E-01 0.16257697E+04</pdfrwt>
<totfact> 0.32831961E+01</totfact>
</mgrwt>
</event>
<event>
 8    2  0.7266322E-052  0.1263730E+04  0.7818608E-02  0.9058833E-01
         -2   -1    0    0    0  501 -0.00000000000E+00  0.00000000000E+00  0.37287602542E+03  0.37287602543E+03  0.25500000000E-02 0. -1.
          2   -1    0    0  501    0  0.00000000000E+00 -0.00000000000E+00 -0.10707401192E+04  0.10707401192E+04  0.25500000000E-02 0.  1.
    -200001    2    1    2    0    0 -0.11640927884E+03  0.10884844618E+01 -0.46175497572E+03  0.77648136018E+03  0.61331341100E+03 0.  0.
   -5000001    2    3    3    0    0  0.20782706355E+03  0.13441135372E+03 -0.17198708200E+03  0.31057297281E+03  0.74950081452E+02 0.  0.
     200001    1    1    2    0    0  0.11640927884E+03 -0.10884844618E+01 -0.23610911805E+03  0.66713478445E+03  0.61300000000E+03 0. -1.
         11    1    4    4    0    0  0.89607352746E+02  0.25757406605E+02 -0.81522836708E+02  0.12385029094E+03  0.51100000000E-03 0.  1.
    -200002    1    4    4    0    0  0.11821971081E+03  0.10865394711E+03 -0.90464245296E+02  0.18672268187E+03  0.30000000000E+02 0.  1.
    -200000    1    3    3    0    0 -0.32423634239E+03 -0.13332286926E+03 -0.28976789372E+03  0.46590838737E+03  0.10100000000E+03 0.  1.
<mgrwt>
<rscale>  0 0.12637299E+04</rscale>
<asrwt>0</asrwt>
<pdfrwt beam="1">  1        2 0.15296287E+00 0.12637299E+04</pdfrwt>
<pdfrwt beam="2">  1       -2 0.53268004E-01 0.12637299E+04</pdfrwt>
<totfact> 0.83064784E+01</totfact>
</mgrwt>
</event>
<event>
 8    2  0.7266322E-052  0.1297372E+04  0.7818608E-02  0.9031652E-01
         -2   -1    0    0    0  501 -0.00000000000E+00  0.00000000000E+00  0.16132529556E+03  0.16132529558E+03  0.25500000000E-02 0. -1.
          2   -1    0    0  501    0  0.00000000000E+00 -0.00000000000E+00 -0.26083549483E+04  0.26083549483E+04  0.25500000000E-02 0.  1.
    -200001    2    1    2    0    0 -0.18305495708E+03  0.91802141099E+02 -0.13364420936E+04  0.14847248061E+04  0.61350919313E+03 0.  0.
   -5000001    2    3    3    0    0  0.76333043238E+02  0.14255975129E+03 -0.82881533280E+02  0.19962809848E+03  0.82655991712E+02 0.  0.
     200001    1    1    2    0    0  0.18305495708E+03 -0.91802141099E+02 -0.11105875592E+04  0.12849554378E+04  0.61300000000E+03 0. -1.
         11    1    4    4    0    0  0.63788343142E+02  0.48695510068E+02 -0.22364935260E+02  0.83309037631E+02  0.51100000000E-03 0.  1.
    -200002    1    4    4    0    0  0.12544700096E+02  0.93864241226E+02 -0.60516598019E+02  0.11631906085E+03  0.30000000000E+02 0. -1.
    -200000    1    3    3    0    0 -0.25938800031E+03 -0.50757610194E+02 -0.12535605603E+04  0.12850967077E+04  0.10100000000E+03 0.  1.
<mgrwt>
<rscale>  0 0.12973722E+04</rscale>
<asrwt>0</asrwt>
<pdfrwt beam="1">  1        2 0.37262211E+00 0.12973722E+04</pdfrwt>
<pdfrwt beam="2">  1       -2 0.23046472E-01 0.12973722E+04</pdfrwt>
<totfact> 0.63192297E+01</totfact>
</mgrwt>
</event>
<event>
 8    2  0.7266322E-052  0.2641977E+04  0.7818608E-02  0.8354081E-01
         -2   -1    0    0    0  501 -0.00000000000E+00  0.00000000000E+00  0.11924988789E+04  0.11924988789E+04  0.25500000000E-02 0. -1.
          2   -1    0    0  501    0  0.00000000000E+00 -0.00000000000E+00 -0.14633231579E+04  0.14633231580E+04  0.25500000000E-02 0.  1.
    -200001    2    1    2    0    0 -0.45207771722E+03 -0.80076358840E-01 -0.12203805922E+04  0.14385297709E+04  0.61291503741E+03 0.  0.
   -5000001    2    3    3    0    0 -0.47862648699E+03  0.10107061650E+03 -0.98494494406E+03  0.11618219028E+04  0.37471990532E+03 0.  0.
     200001    1    1    2    0    0  0.45207771722E+03  0.80076358840E-01  0.94955631322E+03  0.12172922660E+04  0.61300000000E+03 0. -1.
         11    1    4    4    0    0 -0.13961938369E+03 -0.48888861198E+02 -0.63206225274E+03  0.64914280739E+03  0.51100000000E-03 0.  1.
    -200002    1    4    4    0    0 -0.33900710330E+03  0.14995947770E+03 -0.35288269132E+03  0.51267909541E+03  0.30000000000E+02 0.  1.
    -200000    1    3    3    0    0  0.26548769766E+02 -0.10115069286E+03 -0.23543564818E+03  0.27670786811E+03  0.10100000000E+03 0.  1.
<mgrwt>
<rscale>  0 0.26419775E+04</rscale>
<asrwt>0</asrwt>
<pdfrwt beam="1">  1        2 0.20904617E+00 0.26419775E+04</pdfrwt>
<pdfrwt beam="2">  1       -2 0.17035698E+00 0.26419775E+04</pdfrwt>
<totfact> 0.28755103E+00</totfact>
</mgrwt>
</event>
<event>
 8    2  0.7266322E-052  0.1347608E+04  0.7818608E-02  0.8992641E-01
          2   -1    0    0  501    0  0.00000000000E+00  0.00000000000E+00  0.11035763562E+04  0.11035763562E+04  0.25500000000E-02 0.  1.
         -2   -1    0    0    0  501 -0.00000000000E+00 -0.00000000000E+00 -0.41140018341E+03  0.41140018342E+03  0.25500000000E-02 0. -1.
    -200001    2    1    2    0    0  0.26128174663E+03  0.20968648211E+02  0.23176279281E+03  0.70475600435E+03  0.61176727455E+03 0.  0.
   -5000001    2    3    3    0    0 -0.16549059016E+03 -0.64873872235E+02  0.91000181281E+02  0.23622779968E+03  0.12620136933E+03 0.  0.
     200001    1    1    2    0    0 -0.26128174663E+03 -0.20968648211E+02  0.46041338001E+03  0.81022053530E+03  0.61300000000E+03 0. -1.
         11    1    4    4    0    0 -0.12019256899E+03  0.76542774171E+01  0.80810952199E+02  0.14503534603E+03  0.51100000000E-03 0.  1.
    -200002    1    4    4    0    0 -0.45298021167E+02 -0.72528149652E+02  0.10189229082E+02  0.91192453651E+02  0.30000000000E+02 0.  1.
    -200000    1    3    3    0    0  0.42677233679E+03  0.85842520446E+02  0.14076261153E+03  0.46852820467E+03  0.10100000000E+03 0. -1.
<mgrwt>
<rscale>  0 0.13476075E+04</rscale>
<asrwt>0</asrwt>
<pdfrwt beam="1">  1        2 0.15765376E+00 0.13476075E+04</pdfrwt>
<pdfrwt beam="2">  1       -2 0.58771456E-01 0.13476075E+04</pdfrwt>
<totfact> 0.64330455E+01</totfact>
</mgrwt>
</event>
<event>
 8    2  0.7266322E-052  0.1535462E+04  0.7818608E-02  0.8861207E-01
          2   -1    0    0  501    0  0.00000000000E+00  0.00000000000E+00  0.20947448185E+04  0.20947448185E+04  0.25500000000E-02 0.  1.
         -2   -1    0    0    0  501 -0.00000000000E+00 -0.00000000000E+00 -0.28137614139E+03  0.28137614140E+03  0.25500000000E-02 0. -1.
    -200001    2    1    2    0    0  0.77706076838E+02 -0.40146268868E+03  0.57314169793E+03  0.93350441878E+03  0.61296702131E+03 0.  0.
   -5000001    2    3    3    0    0 -0.17425475743E+01 -0.39211123929E+03  0.21071146542E+03  0.54885365906E+03  0.32107126460E+03 0.  0.
     200001    1    1    2    0    0 -0.77706076838E+02  0.40146268868E+03  0.12402269791E+04  0.14426165411E+04  0.61300000000E+03 0.  1.
         11    1    4    4    0    0 -0.14374113976E+03 -0.30576340987E+03  0.14420632311E+03  0.36735302054E+03  0.51100000000E-03 0.  1.
    -200002    1    4    4    0    0  0.14199859219E+03 -0.86347829424E+02  0.66505142317E+02  0.18150063852E+03  0.30000000000E+02 0.  1.
    -200000    1    3    3    0    0  0.79448624412E+02 -0.93514493898E+01  0.36243023250E+03  0.38465075973E+03  0.10100000000E+03 0.  1.
<mgrwt>
<rscale>  0 0.15354624E+04</rscale>
<asrwt>0</asrwt>
<pdfrwt beam="1">  1        2 0.29924926E+00 0.15354624E+04</pdfrwt>
<pdfrwt beam="2">  1       -2 0.40196592E-01 0.15354624E+04</pdfrwt>
<totfact> 0.40534346E+01</totfact>
</mgrwt>
</event>
<event>
 8    2  0.7266322E-052  0.1445890E+04  0.7818608E-02  0.8921255E-01
          2   -1    0    0  501    0  0.00000000000E+00  0.00000000000E+00  0.10353377659E+04  0.10353377659E+04  0.25500000000E-02 0.  1.
         -2   -1    0    0    0  501 -0.00000000000E+00 -0.00000000000E+00 -0.50481032647E+03  0.50481032648E+03  0.25500000000E-02 0. -1.
    -200001    2    1    2    0    0 -0.50908640065E+02  0.37278819576E+03  0.34331074322E+03  0.79692415585E+03  0.61291362788E+03 0.  0.
   -5000001    2    3    3    0    0  0.26390534062E+02  0.26283960453E+02  0.40980026835E+03  0.42187455332E+03  0.93029951823E+02 0.  0.
     200001    1    1    2    0    0  0.50908640065E+02 -0.37278819576E+03  0.18721669624E+03  0.74322393656E+03  0.61300000000E+03 0.  1.
         11    1    4    4    0    0  0.18628297807E+02 -0.90790345702E+01  0.31854396894E+03  0.31921732800E+03  0.51100000000E-03 0.  1.
    -200002    1    4    4    0    0  0.77622362550E+01  0.35362995024E+02  0.91256299411E+02  0.10265722532E+03  0.30000000000E+02 0.  1.
    -200000    1    3    3    0    0 -0.77299174127E+02  0.34650423531E+03 -0.66489525129E+02  0.37504960253E+03  0.10100000000E+03 0. -1.
<mgrwt>
<rscale>  0 0.14458896E+04</rscale>
<asrwt>0</asrwt>
<pdfrwt beam="1">  1        2 0.14790539E+00 0.14458896E+04</pdfrwt>
<pdfrwt beam="2">  1       -2 0.72115762E-01 0.14458896E+04</pdfrwt>
<totfact> 0.45209913E+01</totfact>
</mgrwt>
</event>
<event>
 8    2  0.7266322E-052  0.1464399E+04  0.7818608E-02  0.8908478E-01
         -2   -1    0    0    0  501 -0.00000000000E+00  0.00000000000E+00  0.31358612559E+03  0.31358612560E+03  0.25500000000E-02 0. -1.
          2   -1    0    0  501    0  0.00000000000E+00 -0.00000000000E+00 -0.17096302755E+04  0.17096302755E+04  0.25500000000E-02 0.  1.
    -200001    2    1    2    0    0  0.35145179701E+02  0.43219810118E+02 -0.12460058961E+04  0.13896679710E+04  0.61281582947E+03 0.  0.
   -5000001    2    3    3    0    0  0.91277616328E+01 -0.25202969876E+03 -0.77786893440E+03  0.82646073255E+03  0.11981226251E+03 0.  0.
     200001    1    1    2    0    0 -0.35145179701E+02 -0.43219810118E+02 -0.15003825376E+03  0.63354843006E+03  0.61300000000E+03 0. -1.
         11    1    4    4    0    0  0.40772225561E+02 -0.26919413387E+02 -0.11113145089E+03  0.12139698749E+03  0.51100000000E-03 0.  1.
    -200002    1    4    4    0    0 -0.31644463928E+02 -0.22511028537E+03 -0.66673748351E+03  0.70506374506E+03  0.30000000000E+02 0.  1.
    -200000    1    3    3    0    0  0.26017418068E+02  0.29524950888E+03 -0.46813696173E+03  0.56320723848E+03  0.10100000000E+03 0. -1.
<mgrwt>
<rscale>  0 0.14643993E+04</rscale>
<asrwt>0</asrwt>
<pdfrwt beam="1">  1        2 0.24423289E+00 0.14643993E+04</pdfrwt>
<pdfrwt beam="2">  1       -2 0.44798019E-01 0.14643993E+04</pdfrwt>
<totfact> 0.51959683E+01</totfact>
</mgrwt>
</event>
<event>
 8    2  0.7266322E-052  0.1488229E+04  0.7818608E-02  0.8892318E-01
          2   -1    0    0  501    0  0.00000000000E+00  0.00000000000E+00  0.32808941618E+03  0.32808941619E+03  0.25500000000E-02 0.  1.
         -2   -1    0    0    0  501 -0.00000000000E+00 -0.00000000000E+00 -0.16876697458E+04  0.16876697458E+04  0.25500000000E-02 0. -1.
    -200001    2    1    2    0    0 -0.37757105629E+03 -0.12584916385E+03 -0.86942149290E+03  0.11357463213E+04  0.61288502955E+03 0.  0.
   -5000001    2    3    3    0    0 -0.29508000223E+03  0.14236666133E+03 -0.18798085416E+03  0.39190033791E+03  0.10444424040E+03 0.  0.
     200001    1    1    2    0    0  0.37757105629E+03  0.12584916385E+03 -0.49015883676E+03  0.88001284072E+03  0.61300000000E+03 0. -1.
         11    1    4    4    0    0 -0.18783996855E+03  0.13153702086E+03 -0.14876596487E+03  0.27334438708E+03  0.51100000000E-03 0.  1.
    -200002    1    4    4    0    0 -0.10724003368E+03  0.10829640466E+02 -0.39214889282E+02  0.11855595083E+03  0.30000000000E+02 0.  1.
    -200000    1    3    3    0    0 -0.82491054060E+02 -0.26821582518E+03 -0.68144063874E+03  0.74384598339E+03  0.10100000000E+03 0. -1.
<mgrwt>
<rscale>  0 0.14882293E+04</rscale>
<asrwt>0</asrwt>
<pdfrwt beam="1">  1        2 0.46869918E-01 0.14882293E+04</pdfrwt>
<pdfrwt beam="2">  1       -2 0.24109567E+00 0.14882293E+04</pdfrwt>
<totfact> 0.76291266E+00</totfact>
</mgrwt>
</event>
<event>
 8    2  0.7266322E-052  0.1623868E+04  0.7818608E-02  0.8806018E-01
          2   -1    0    0  501    0  0.00000000000E+00  0.00000000000E+00  0.90043487634E+03  0.90043487634E+03  0.25500000000E-02 0. -1.
         -2   -1    0    0    0  501 -0.00000000000E+00 -0.00000000000E+00 -0.73213170098E+03  0.73213170098E+03  0.25500000000E-02 0.  1.
    -200001    2    1    2    0    0 -0.50894572522E+03 -0.12426240618E+03  0.17906069321E+03  0.82612276589E+03  0.61314696090E+03 0.  0.
   -5000001    2    3    3    0    0 -0.53331856846E+03  0.44496118353E+02  0.26314276355E+02  0.57591096970E+03  0.21112177498E+03 0.  0.
     200001    1    1    2    0    0  0.50894572522E+03  0.12426240618E+03 -0.10757517850E+02  0.80644381143E+03  0.61300000000E+03 0. -1.
         11    1    4    4    0    0 -0.10027441866E+02 -0.38282670452E+02  0.21934095083E+02  0.45246181879E+02  0.51100000000E-03 0.  1.
    -200002    1    4    4    0    0 -0.52329112660E+03  0.82778788804E+02  0.43801812720E+01  0.53066478783E+03  0.30000000000E+02 0.  1.
    -200000    1    3    3    0    0  0.24372843244E+02 -0.16875852453E+03  0.15274641686E+03  0.25021179619E+03  0.10100000000E+03 0. -1.
<mgrwt>
<rscale>  0 0.16238681E+04</rscale>
<asrwt>0</asrwt>
<pdfrwt beam="1">  1        2 0.12863355E+00 0.16238681E+04</pdfrwt>
<pdfrwt beam="2">  1       -2 0.10459024E+00 0.16238681E+04</pdfrwt>
<totfact> 0.23140518E+01</totfact>
</mgrwt>
</event>
<event>
 8    2  0.7266322E-052  0.1496484E+04  0.7818608E-02  0.8886794E-01
          2   -1    0    0  501    0  0.00000000000E+00  0.00000000000E+00  0.22275010274E+03  0.22275010276E+03  0.25500000000E-02 0.  1.
         -2   -1    0    0    0  501 -0.00000000000E+00 -0.00000000000E+00 -0.25134283374E+04  0.25134283374E+04  0.25500000000E-02 0. -1.
    -200001    2    1    2    0    0 -0.25591978688E+03  0.12514712391E+03 -0.56491253515E+03  0.88275107726E+03  0.61560259267E+03 0.  0.
   -5000001    2    3    3    0    0  0.13692104268E+03  0.97456814251E+02 -0.87521446185E+01  0.19383449986E+03  0.96176976090E+02 0.  0.
     200001    1    1    2    0    0  0.25591978688E+03 -0.12514712391E+03 -0.17257656995E+04  0.18534273629E+04  0.61300000000E+03 0. -1.
         11    1    4    4    0    0  0.12279646950E+03  0.51237115277E+02 -0.23390325699E+02  0.13509745460E+03  0.51100000000E-03 0.  1.
    -200002    1    4    4    0    0  0.14124573180E+02  0.46219698974E+02  0.14638181081E+02  0.58737045262E+02  0.30000000000E+02 0. -1.
    -200000    1    3    3    0    0 -0.39284082956E+03  0.27690309656E+02 -0.55616039054E+03  0.68891657740E+03  0.10100000000E+03 0. -1.
<mgrwt>
<rscale>  0 0.14964844E+04</rscale>
<asrwt>0</asrwt>
<pdfrwt beam="1">  1        2 0.31821445E-01 0.14964844E+04</pdfrwt>
<pdfrwt beam="2">  1       -2 0.35906117E+00 0.14964844E+04</pdfrwt>
<totfact> 0.22163081E+00</totfact>
</mgrwt>
</event>
<event>
 8    2  0.7266322E-052  0.1360368E+04  0.7818608E-02  0.8983017E-01
          2   -1    0    0  501    0  0.00000000000E+00  0.00000000000E+00  0.17637929452E+04  0.17637929452E+04  0.25500000000E-02 0.  1.
         -2   -1    0    0    0  501 -0.00000000000E+00 -0.00000000000E+00 -0.26230405229E+03  0.26230405231E+03  0.25500000000E-02 0. -1.
    -200001    2    1    2    0    0 -0.24635718143E+03  0.42658811615E+02  0.98319957147E+03  0.11853208943E+04  0.61301924115E+03 0.  0.
   -5000001    2    3    3    0    0 -0.34936738781E+03  0.90099632120E+02  0.95997048590E+03  0.10316904139E+04  0.11254448478E+03 0.  0.
     200001    1    1    2    0    0  0.24635718143E+03 -0.42658811615E+02  0.51828932143E+03  0.84077610323E+03  0.61300000000E+03 0.  1.
         11    1    4    4    0    0 -0.25391634278E+03  0.30303320541E+02  0.73679093303E+03  0.77990555798E+03  0.51100000000E-03 0.  1.
    -200002    1    4    4    0    0 -0.95451045035E+02  0.59796311579E+02  0.22317955286E+03  0.25178485596E+03  0.30000000000E+02 0.  1.
    -200000    1    3    3    0    0  0.10301020639E+03 -0.47440820505E+02  0.23229085573E+02  0.15363048033E+03  0.10100000000E+03 0.  1.
<mgrwt>
<rscale>  0 0.13603677E+04</rscale>
<asrwt>0</asrwt>
<pdfrwt beam="1">  1        2 0.25197041E+00 0.13603677E+04</pdfrwt>
<pdfrwt beam="2">  1       -2 0.37472008E-01 0.13603677E+04</pdfrwt>
<totfact> 0.69698453E+01</totfact>
</mgrwt>
</event>
<event>
 8    2  0.7266322E-052  0.1771866E+04  0.7818608E-02  0.8721405E-01
          2   -1    0    0  501    0  0.00000000000E+00  0.00000000000E+00  0.20601161133E+04  0.20601161133E+04  0.25500000000E-02 0.  1.
         -2   -1    0    0    0  501 -0.00000000000E+00 -0.00000000000E+00 -0.38098699873E+03  0.38098699874E+03  0.25500000000E-02 0. -1.
    -200001    2    1    2    0    0  0.20500449915E+03  0.48336078417E+03  0.33621417949E+03  0.87430573674E+03  0.61294865565E+03 0.  0.
   -5000001    2    3    3    0    0  0.99255777640E+02  0.48255906273E+03  0.46226136832E+03  0.68124530923E+03  0.87719098763E+02 0.  0.
     200001    1    1    2    0    0 -0.20500449915E+03 -0.48336078417E+03  0.13429149351E+04  0.15667973753E+04  0.61300000000E+03 0.  1.
         11    1    4    4    0    0  0.52424675333E+02  0.98966613276E+02  0.87850760010E+02  0.14233935914E+03  0.51100000000E-03 0.  1.
    -200002    1    4    4    0    0  0.46831102307E+02  0.38359244946E+03  0.37441060831E+03  0.53890595009E+03  0.30000000000E+02 0.  1.
    -200000    1    3    3    0    0  0.10574872151E+03  0.80172144146E+00 -0.12604718883E+03  0.19306042751E+03  0.10100000000E+03 0. -1.
<mgrwt>
<rscale>  0 0.17718662E+04</rscale>
<asrwt>0</asrwt>
<pdfrwt beam="1">  1        2 0.29430230E+00 0.17718662E+04</pdfrwt>
<pdfrwt beam="2">  1       -2 0.54426715E-01 0.17718662E+04</pdfrwt>
<totfact> 0.22517956E+01</totfact>
</mgrwt>
</event>
<event>
 8    2  0.7266322E-052  0.1416802E+04  0.7818608E-02  0.8941746E-01
          2   -1    0    0  501    0  0.00000000000E+00  0.00000000000E+00  0.36075916947E+04  0.36075916947E+04  0.25500000000E-02 0.  1.
         -2   -1    0    0    0  501 -0.00000000000E+00 -0.00000000000E+00 -0.13910437463E+03  0.13910437465E+03  0.25500000000E-02 0. -1.
    -200001    2    1    2    0    0  0.18642344718E+03  0.25007194331E+03  0.12862318600E+04  0.14586188041E+04  0.61309602809E+03 0.  0.
   -5000001    2    3    3    0    0 -0.27119117848E+02 -0.96473553209E+02  0.15856922512E+03  0.25549028802E+03  0.17346035598E+03 0.  0.
     200001    1    1    2    0    0 -0.18642344718E+03 -0.25007194331E+03  0.21822554601E+04  0.22880772652E+04  0.61300000000E+03 0.  1.
         11    1    4    4    0    0  0.27323820511E+02 -0.56659339405E+02  0.16956533324E+03  0.18085705446E+03  0.51100000000E-03 0.  1.
    -200002    1    4    4    0    0 -0.54442938359E+02 -0.39814213803E+02 -0.10996108123E+02  0.74633233561E+02  0.30000000000E+02 0.  1.
    -200000    1    3    3    0    0  0.21354256503E+03  0.34654549652E+03  0.11276626348E+04  0.12031285161E+04  0.10100000000E+03 0.  1.
<mgrwt>
<rscale>  0 0.14168017E+04</rscale>
<asrwt>0</asrwt>
<pdfrwt beam="1">  1        2 0.51537019E+00 0.14168017E+04</pdfrwt>
<pdfrwt beam="2">  1       -2 0.19872055E-01 0.14168017E+04</pdfrwt>
<totfact> 0.22003087E+01</totfact>
</mgrwt>
</event>
<event>
 8    2  0.7266322E-052  0.1317706E+04  0.7818608E-02  0.9015641E-01
         -2   -1    0    0    0  501 -0.00000000000E+00  0.00000000000E+00  0.15600965950E+04  0.15600965950E+04  0.25500000000E-02 0. -1.
          2   -1    0    0  501    0  0.00000000000E+00 -0.00000000000E+00 -0.27824399937E+03  0.27824399938E+03  0.25500000000E-02 0.  1.
    -200001    2    1    2    0    0  0.84544390201E+02  0.86391849115E+02  0.34799291429E+03  0.71474181814E+03  0.61249121847E+03 0.  0.
   -5000001    2    3    3    0    0 -0.48929069144E+02  0.26472500651E+03  0.34245124265E+03  0.47010006067E+03  0.17677055910E+03 0.  0.
     200001    1    1    2    0    0 -0.84544390201E+02 -0.86391849115E+02  0.93385968130E+03  0.11235987762E+04  0.61300000000E+03 0. -1.
         11    1    4    4    0    0 -0.60163315846E+02  0.15842084030E+03  0.31187513717E+03  0.35494068293E+03  0.51100000000E-03 0.  1.
    -200002    1    4    4    0    0  0.11234246702E+02  0.10630416621E+03  0.30576105480E+02  0.11515937773E+03  0.30000000000E+02 0.  1.
    -200000    1    3    3    0    0  0.13347345935E+03 -0.17833315740E+03  0.55416716322E+01  0.24464175748E+03  0.10100000000E+03 0. -1.
<mgrwt>
<rscale>  0 0.13177064E+04</rscale>
<asrwt>0</asrwt>
<pdfrwt beam="1">  1        2 0.39749140E-01 0.13177064E+04</pdfrwt>
<pdfrwt beam="2">  1       -2 0.22287095E+00 0.13177064E+04</pdfrwt>
<totfact> 0.12056014E+01</totfact>
</mgrwt>
</event>
<event>
 8    2  0.7266322E-052  0.1712063E+04  0.7818608E-02  0.8754514E-01
          2   -1    0    0  501    0  0.00000000000E+00  0.00000000000E+00  0.15806823166E+04  0.15806823166E+04  0.25500000000E-02 0.  1.
         -2   -1    0    0    0  501 -0.00000000000E+00 -0.00000000000E+00 -0.46359094337E+03  0.46359094338E+03  0.25500000000E-02 0. -1.
    -200001    2    1    2    0    0  0.10996541343E+03 -0.14372258664E+03  0.12386092274E+04  0.13936703373E+04  0.61271169131E+03 0.  0.
   -5000001    2    3    3    0    0  0.14144249862E+02  0.83628691717E+02 -0.10395151396E+02  0.11653164571E+03  0.79232237111E+02 0.  0.
     200001    1    1    2    0    0 -0.10996541343E+03  0.14372258664E+03 -0.12151785426E+03  0.65060292265E+03  0.61300000000E+03 0. -1.
         11    1    4    4    0    0 -0.61679317435E+00  0.29301930627E+02 -0.37182402664E+02  0.47344636871E+02  0.51100000000E-03 0.  1.
    -200002    1    4    4    0    0  0.14761043037E+02  0.54326761089E+02  0.26787251269E+02  0.69187008842E+02  0.30000000000E+02 0.  1.
    -200000    1    3    3    0    0  0.95821163568E+02 -0.22735127836E+03  0.12490043788E+04  0.12771386916E+04  0.10100000000E+03 0.  1.
<mgrwt>
<rscale>  0 0.17120631E+04</rscale>
<asrwt>0</asrwt>
<pdfrwt beam="1">  1        2 0.22581176E+00 0.17120631E+04</pdfrwt>
<pdfrwt beam="2">  1       -2 0.66227278E-01 0.17120631E+04</pdfrwt>
<totfact> 0.26472893E+01</totfact>
</mgrwt>
</event>
<event>
 8    2  0.7266322E-052  0.1421146E+04  0.7818608E-02  0.8938652E-01
          2   -1    0    0  501    0  0.00000000000E+00  0.00000000000E+00  0.47340346235E+03  0.47340346236E+03  0.25500000000E-02 0. -1.
         -2   -1    0    0    0  501 -0.00000000000E+00 -0.00000000000E+00 -0.10665621904E+04  0.10665621904E+04  0.25500000000E-02 0.  1.
    -200001    2    1    2    0    0 -0.34514308989E+02 -0.13063032148E+03 -0.65738786630E+03  0.90897444787E+03  0.61304177810E+03 0.  0.
   -5000001    2    3    3    0    0 -0.26333078664E+03 -0.16528038278E+03 -0.54780235563E+03  0.63371531298E+03  0.69620176226E+02 0.  0.
     200001    1    1    2    0    0  0.34514308989E+02  0.13063032148E+03  0.64229138281E+02  0.63099120487E+03  0.61300000000E+03 0. -1.
         11    1    4    4    0    0 -0.12799786789E+03 -0.77305140722E+02 -0.31676147643E+03  0.35028184640E+03  0.51100000000E-03 0.  1.
    -200002    1    4    4    0    0 -0.13533291875E+03 -0.87975242060E+02 -0.23104087920E+03  0.28343346658E+03  0.30000000000E+02 0.  1.
    -200000    1    3    3    0    0  0.22881647765E+03  0.34650061299E+02 -0.10958551067E+03  0.27525913489E+03  0.10100000000E+03 0. -1.
<mgrwt>
<rscale>  0 0.14211463E+04</rscale>
<asrwt>0</asrwt>
<pdfrwt beam="1">  1        2 0.67629067E-01 0.14211463E+04</pdfrwt>
<pdfrwt beam="2">  1       -2 0.15236603E+00 0.14211463E+04</pdfrwt>
<totfact> 0.19982075E+01</totfact>
</mgrwt>
</event>
<event>
 8    2  0.7266322E-052  0.1367603E+04  0.7818608E-02  0.8977609E-01
         -2   -1    0    0    0  501 -0.00000000000E+00  0.00000000000E+00  0.92169625257E+02  0.92169625292E+02  0.25500000000E-02 0. -1.
          2   -1    0    0  501    0  0.00000000000E+00 -0.00000000000E+00 -0.50730874576E+04  0.50730874576E+04  0.25500000000E-02 0.  1.
    -200001    2    1    2    0    0  0.20204317714E+03 -0.19244468229E+03 -0.29289665825E+04  0.30055975419E+04  0.61393398786E+03 0.  0.
   -5000001    2    3    3    0    0  0.19186325142E+03 -0.36406923128E+02 -0.26482741330E+04  0.26687880047E+04  0.26633918049E+03 0.  0.
     200001    1    1    2    0    0 -0.20204317714E+03  0.19244468229E+03 -0.20519512499E+04  0.21596595410E+04  0.61300000000E+03 0. -1.
         11    1    4    4    0    0  0.24454448099E+03 -0.44792082598E+02 -0.24096219259E+04  0.24224132925E+04  0.51100000000E-03 0.  1.
    -200002    1    4    4    0    0 -0.52681229577E+02  0.83851594704E+01 -0.23865220707E+03  0.24637471215E+03  0.30000000000E+02 0.  1.
    -200000    1    3    3    0    0  0.10179925725E+02 -0.15603775916E+03 -0.28069244944E+03  0.33680953719E+03  0.10100000000E+03 0. -1.
<mgrwt>
<rscale>  0 0.13676031E+04</rscale>
<asrwt>0</asrwt>
<pdfrwt beam="1">  1        2 0.72472660E+00 0.13676031E+04</pdfrwt>
<pdfrwt beam="2">  1       -2 0.13167093E-01 0.13676031E+04</pdfrwt>
<totfact> 0.33627194E+00</totfact>
</mgrwt>
</event>
<event>
 8    2  0.7266322E-052  0.1946604E+04  0.7818608E-02  0.8632000E-01
          2   -1    0    0  501    0  0.00000000000E+00  0.00000000000E+00  0.18534114452E+04  0.18534114452E+04  0.25500000000E-02 0.  1.
         -2   -1    0    0    0  501 -0.00000000000E+00 -0.00000000000E+00 -0.51112068277E+03  0.51112068278E+03  0.25500000000E-02 0. -1.
    -200001    2    1    2    0    0  0.67706983499E+02 -0.14334577774E+03  0.15692333474E+04  0.16919221485E+04  0.61235203135E+03 0.  0.
   -5000001    2    3    3    0    0 -0.61176886071E+02 -0.27563343500E+03  0.13740607215E+04  0.14048604303E+04  0.76639158589E+02 0.  0.
     200001    1    1    2    0    0 -0.67706983499E+02  0.14334577774E+03 -0.22694258499E+03  0.67260997948E+03  0.61300000000E+03 0. -1.
         11    1    4    4    0    0 -0.14654383621E+02 -0.56429107654E+02  0.16897037544E+03  0.17874558156E+03  0.51100000000E-03 0.  1.
    -200002    1    4    4    0    0 -0.46522502450E+02 -0.21920432735E+03  0.12050903460E+04  0.12261148488E+04  0.30000000000E+02 0.  1.
    -200000    1    3    3    0    0  0.12888386957E+03  0.13228765726E+03  0.19517262596E+03  0.28706171814E+03  0.10100000000E+03 0. -1.
<mgrwt>
<rscale>  0 0.19466041E+04</rscale>
<asrwt>0</asrwt>
<pdfrwt beam="1">  1        2 0.26477306E+00 0.19466041E+04</pdfrwt>
<pdfrwt beam="2">  1       -2 0.73017240E-01 0.19466041E+04</pdfrwt>
<totfact> 0.15151133E+01</totfact>
</mgrwt>
</event>
<event>
 8    2  0.7266322E-052  0.1630156E+04  0.7818608E-02  0.8802233E-01
         -2   -1    0    0    0  501 -0.00000000000E+00  0.00000000000E+00  0.49188847113E+03  0.49188847114E+03  0.25500000000E-02 0. -1.
          2   -1    0    0  501    0  0.00000000000E+00 -0.00000000000E+00 -0.13506159451E+04  0.13506159451E+04  0.25500000000E-02 0.  1.
    -200001    2    1    2    0    0 -0.50277722971E+01 -0.27690202844E+03  0.77780724971E+02  0.68945774826E+03  0.62657971050E+03 0.  0.
   -5000001    2    3    3    0    0  0.18236094998E+03 -0.34557120861E+03  0.49596243553E+02  0.46401295560E+03  0.24530238338E+03 0.  0.
     200001    1    1    2    0    0  0.50277722971E+01  0.27690202844E+03 -0.93650819889E+03  0.11530466679E+04  0.61300000000E+03 0.  1.
         11    1    4    4    0    0  0.21086203740E+03 -0.17307624888E+03  0.79446303763E+02  0.28413007924E+03  0.51100000000E-03 0.  1.
    -200002    1    4    4    0    0 -0.28501087418E+02 -0.17249495973E+03 -0.29850060211E+02  0.17988287637E+03  0.30000000000E+02 0.  1.
    -200000    1    3    3    0    0 -0.18738872228E+03  0.68669180173E+02  0.28184481418E+02  0.22544479266E+03  0.10100000000E+03 0. -1.
<mgrwt>
<rscale>  0 0.16301563E+04</rscale>
<asrwt>0</asrwt>
<pdfrwt beam="1">  1        2 0.19294513E+00 0.16301563E+04</pdfrwt>
<pdfrwt beam="2">  1       -2 0.70269782E-01 0.16301563E+04</pdfrwt>
<totfact> 0.31117579E+01</totfact>
</mgrwt>
</event>
