<event>
 4    1  0.2309632E-005  0.5802770E+03  0.7818608E-02  0.9947192E-01
          1   -1    0    0  501    0  0.00000000000E+00  0.00000000000E+00  0.18531381619E+03  0.18531381626E+03  0.50400000000E-02 0.  1.
         -1   -1    0    0    0  501 -0.00000000000E+00 -0.00000000000E+00 -0.45425829680E+03  0.45425829683E+03  0.50400000000E-02 0. -1.
    5000001    1    1    2    0    0  0.99831901496E+02 -0.19664269135E+03 -0.23501042518E+03  0.36206305606E+03  0.16500000000E+03 0.  0.
   -5000001    1    1    2    0    0 -0.99831901496E+02  0.19664269135E+03 -0.33934055423E+02  0.27750905703E+03  0.16500000000E+03 0.  0.
<mgrwt>
<rscale>  0 0.58027696E+03</rscale>
<asrwt>0</asrwt>
<pdfrwt beam="1">  1        1 0.28509818E-01 0.58027696E+03</pdfrwt>
<pdfrwt beam="2">  1       -1 0.69885891E-01 0.58027696E+03</pdfrwt>
<totfact> 0.34516936E+02</totfact>
</mgrwt>
</event>
<event>
 4    1  0.2309632E-005  0.3748527E+03  0.7818608E-02  0.1052853E+00
         -1   -1    0    0    0  501 -0.00000000000E+00  0.00000000000E+00  0.75886130494E+02  0.75886130662E+02  0.50400000000E-02 0. -1.
          1   -1    0    0  501    0  0.00000000000E+00 -0.00000000000E+00 -0.46291237731E+03  0.46291237733E+03  0.50400000000E-02 0.  1.
    5000001    1    1    2    0    0  0.43687694805E+02 -0.60376368402E+02 -0.26318745156E+03  0.31944726513E+03  0.16500000000E+03 0.  0.
   -5000001    1    1    2    0    0 -0.43687694805E+02  0.60376368402E+02 -0.12383879526E+03  0.21935124287E+03  0.16500000000E+03 0.  0.
<mgrwt>
<rscale>  0 0.37485266E+03</rscale>
<asrwt>0</asrwt>
<pdfrwt beam="1">  1        1 0.71217287E-01 0.37485266E+03</pdfrwt>
<pdfrwt beam="2">  1       -1 0.11674790E-01 0.37485266E+03</pdfrwt>
<totfact> 0.24029863E+03</totfact>
</mgrwt>
</event>
<event>
 4    1  0.2309632E-005  0.3870129E+03  0.7818608E-02  0.1048372E+00
         -1   -1    0    0    0  501 -0.00000000000E+00  0.00000000000E+00  0.99344474220E+02  0.99344474348E+02  0.50400000000E-02 0. -1.
          1   -1    0    0  501    0  0.00000000000E+00 -0.00000000000E+00 -0.37691826311E+03  0.37691826314E+03  0.50400000000E-02 0.  1.
    5000001    1    1    2    0    0 -0.79764557810E+02  0.61889878689E+02 -0.13239186129E+03  0.23440423781E+03  0.16500000000E+03 0.  0.
   -5000001    1    1    2    0    0  0.79764557810E+02 -0.61889878689E+02 -0.14518192759E+03  0.24185849968E+03  0.16500000000E+03 0.  0.
<mgrwt>
<rscale>  0 0.38701290E+03</rscale>
<asrwt>0</asrwt>
<pdfrwt beam="1">  1        1 0.57987425E-01 0.38701290E+03</pdfrwt>
<pdfrwt beam="2">  1       -1 0.15283765E-01 0.38701290E+03</pdfrwt>
<totfact> 0.20496634E+03</totfact>
</mgrwt>
</event>
<event>
 4    1  0.2309632E-005  0.6120494E+03  0.7818608E-02  0.9880718E-01
          1   -1    0    0  501    0  0.00000000000E+00  0.00000000000E+00  0.52371664658E+03  0.52371664661E+03  0.50400000000E-02 0.  1.
         -1   -1    0    0    0  501 -0.00000000000E+00 -0.00000000000E+00 -0.17882021923E+03  0.17882021930E+03  0.50400000000E-02 0. -1.
    5000001    1    1    2    0    0  0.11025063767E+03  0.21427580284E+03  0.67517482374E+02  0.29975478848E+03  0.16500000000E+03 0.  0.
   -5000001    1    1    2    0    0 -0.11025063767E+03 -0.21427580284E+03  0.27737894498E+03  0.40278207744E+03  0.16500000000E+03 0.  0.
<mgrwt>
<rscale>  0 0.61204943E+03</rscale>
<asrwt>0</asrwt>
<pdfrwt beam="1">  1        1 0.80571793E-01 0.61204943E+03</pdfrwt>
<pdfrwt beam="2">  1       -1 0.27510803E-01 0.61204943E+03</pdfrwt>
<totfact> 0.49846411E+02</totfact>
</mgrwt>
</event>
<event>
 4    1  0.2309632E-005  0.4338847E+03  0.7818608E-02  0.1032640E+00
         -1   -1    0    0    0  501 -0.00000000000E+00  0.00000000000E+00  0.64965738911E+02  0.64965739106E+02  0.50400000000E-02 0. -1.
          1   -1    0    0  501    0  0.00000000000E+00 -0.00000000000E+00 -0.72444319515E+03  0.72444319517E+03  0.50400000000E-02 0.  1.
    5000001    1    1    2    0    0  0.13837772980E+03  0.26254625760E+02 -0.33180202276E+03  0.39642815716E+03  0.16500000000E+03 0.  0.
   -5000001    1    1    2    0    0 -0.13837772980E+03 -0.26254625760E+02 -0.32767543348E+03  0.39298077712E+03  0.16500000000E+03 0.  0.
<mgrwt>
<rscale>  0 0.43388472E+03</rscale>
<asrwt>0</asrwt>
<pdfrwt beam="1">  1        1 0.11145279E+00 0.43388472E+03</pdfrwt>
<pdfrwt beam="2">  1       -1 0.99947295E-02 0.43388472E+03</pdfrwt>
<totfact> 0.16376822E+03</totfact>
</mgrwt>
</event>
<event>
 4    1  0.2309632E-005  0.4495859E+03  0.7818608E-02  0.1027846E+00
          1   -1    0    0  501    0  0.00000000000E+00  0.00000000000E+00  0.23307955976E+03  0.23307955982E+03  0.50400000000E-02 0.  1.
         -1   -1    0    0    0  501 -0.00000000000E+00 -0.00000000000E+00 -0.21680092313E+03  0.21680092319E+03  0.50400000000E-02 0. -1.
    5000001    1    1    2    0    0  0.37709998462E+02  0.10316217914E+03  0.11423891113E+03  0.22877938720E+03  0.16500000000E+03 0.  0.
   -5000001    1    1    2    0    0 -0.37709998462E+02 -0.10316217914E+03 -0.97960274495E+02  0.22110109581E+03  0.16500000000E+03 0.  0.
<mgrwt>
<rscale>  0 0.44958587E+03</rscale>
<asrwt>0</asrwt>
<pdfrwt beam="1">  1        1 0.35858394E-01 0.44958587E+03</pdfrwt>
<pdfrwt beam="2">  1       -1 0.33353988E-01 0.44958587E+03</pdfrwt>
<totfact> 0.10313456E+03</totfact>
</mgrwt>
</event>
<event>
 4    1  0.2309632E-005  0.5748516E+03  0.7818608E-02  0.9959000E-01
         -1   -1    0    0    0  501 -0.00000000000E+00  0.00000000000E+00  0.29504842009E+02  0.29504842440E+02  0.50400000000E-02 0.  1.
          1   -1    0    0  501    0  0.00000000000E+00 -0.00000000000E+00 -0.28000013572E+04  0.28000013572E+04  0.50400000000E-02 0. -1.
    5000001    1    1    2    0    0 -0.83567262429E+02  0.15976113617E+03 -0.64069282197E+03  0.68572545534E+03  0.16500000000E+03 0.  0.
   -5000001    1    1    2    0    0  0.83567262429E+02 -0.15976113617E+03 -0.21298036932E+04  0.21437807443E+04  0.16500000000E+03 0.  0.
<mgrwt>
<rscale>  0 0.57485163E+03</rscale>
<asrwt>0</asrwt>
<pdfrwt beam="1">  1        1 0.43076923E+00 0.57485163E+03</pdfrwt>
<pdfrwt beam="2">  1       -1 0.45392087E-02 0.57485163E+03</pdfrwt>
<totfact> 0.19233569E+02</totfact>
</mgrwt>
</event>
<event>
 4    1  0.2309632E-005  0.8474069E+03  0.7818608E-02  0.9493824E-01
         -1   -1    0    0    0  501 -0.00000000000E+00  0.00000000000E+00  0.42093115749E+03  0.42093115752E+03  0.50400000000E-02 0. -1.
          1   -1    0    0  501    0  0.00000000000E+00 -0.00000000000E+00 -0.42649399472E+03  0.42649399475E+03  0.50400000000E-02 0.  1.
    5000001    1    1    2    0    0 -0.21906549714E+03  0.26688076317E+03 -0.18467700081E+03  0.42490661140E+03  0.16500000000E+03 0.  0.
   -5000001    1    1    2    0    0  0.21906549714E+03 -0.26688076317E+03  0.17911416358E+03  0.42251854087E+03  0.16500000000E+03 0.  0.
<mgrwt>
<rscale>  0 0.84740689E+03</rscale>
<asrwt>0</asrwt>
<pdfrwt beam="1">  1        1 0.65614461E-01 0.84740689E+03</pdfrwt>
<pdfrwt beam="2">  1       -1 0.64758640E-01 0.84740689E+03</pdfrwt>
<totfact> 0.13451510E+02</totfact>
</mgrwt>
</event>
<event>
 4    1  0.2309632E-005  0.5399122E+03  0.7818608E-02  0.1003856E+00
          1   -1    0    0  501    0  0.00000000000E+00  0.00000000000E+00  0.10058939559E+04  0.10058939559E+04  0.50400000000E-02 0.  1.
         -1   -1    0    0    0  501 -0.00000000000E+00 -0.00000000000E+00 -0.72449278631E+02  0.72449278807E+02  0.50400000000E-02 0. -1.
    5000001    1    1    2    0    0 -0.35760735283E+02  0.21063944048E+03  0.46299248568E+03  0.53594295020E+03  0.16500000000E+03 0.  0.
   -5000001    1    1    2    0    0  0.35760735283E+02 -0.21063944048E+03  0.47045219161E+03  0.54240028453E+03  0.16500000000E+03 0.  0.
<mgrwt>
<rscale>  0 0.53991218E+03</rscale>
<asrwt>0</asrwt>
<pdfrwt beam="1">  1        1 0.15475292E+00 0.53991218E+03</pdfrwt>
<pdfrwt beam="2">  1       -1 0.11146043E-01 0.53991218E+03</pdfrwt>
<totfact> 0.80679832E+02</totfact>
</mgrwt>
</event>
<event>
 4    1  0.2309632E-005  0.4291069E+03  0.7818608E-02  0.1034142E+00
         -1   -1    0    0    0  501 -0.00000000000E+00  0.00000000000E+00  0.27296856414E+02  0.27296856879E+02  0.50400000000E-02 0. -1.
          1   -1    0    0  501    0  0.00000000000E+00 -0.00000000000E+00 -0.16863910867E+04  0.16863910867E+04  0.50400000000E-02 0.  1.
    5000001    1    1    2    0    0 -0.45517426898E+02  0.12936788514E+03 -0.82739686578E+03  0.85476222387E+03  0.16500000000E+03 0.  0.
   -5000001    1    1    2    0    0  0.45517426898E+02 -0.12936788514E+03 -0.83169736450E+03  0.85892571971E+03  0.16500000000E+03 0.  0.
<mgrwt>
<rscale>  0 0.42910687E+03</rscale>
<asrwt>0</asrwt>
<pdfrwt beam="1">  1        1 0.25944470E+00 0.42910687E+03</pdfrwt>
<pdfrwt beam="2">  1       -1 0.41995177E-02 0.42910687E+03</pdfrwt>
<totfact> 0.12231424E+03</totfact>
</mgrwt>
</event>
<event>
 4    1  0.2309632E-005  0.5168003E+03  0.7818608E-02  0.1009485E+00
         -1   -1    0    0    0  501 -0.00000000000E+00  0.00000000000E+00  0.39883586761E+02  0.39883587080E+02  0.50400000000E-02 0. -1.
          1   -1    0    0  501    0  0.00000000000E+00 -0.00000000000E+00 -0.16741379131E+04  0.16741379131E+04  0.50400000000E-02 0.  1.
    5000001    1    1    2    0    0  0.15575130737E+03  0.18153882204E+02 -0.41150246831E+03  0.47026302705E+03  0.16500000000E+03 0.  0.
   -5000001    1    1    2    0    0 -0.15575130737E+03 -0.18153882204E+02 -0.12227518580E+04  0.12437584731E+04  0.16500000000E+03 0.  0.
<mgrwt>
<rscale>  0 0.51680025E+03</rscale>
<asrwt>0</asrwt>
<pdfrwt beam="1">  1        1 0.25755962E+00 0.51680025E+03</pdfrwt>
<pdfrwt beam="2">  1       -1 0.61359378E-02 0.51680025E+03</pdfrwt>
<totfact> 0.69602280E+02</totfact>
</mgrwt>
</event>
<event>
 4    1  0.2309632E-005  0.5593877E+03  0.7818608E-02  0.9993441E-01
         -1   -1    0    0    0  501 -0.00000000000E+00  0.00000000000E+00  0.10284396983E+03  0.10284396995E+03  0.50400000000E-02 0. -1.
          1   -1    0    0  501    0  0.00000000000E+00 -0.00000000000E+00 -0.76065361498E+03  0.76065361500E+03  0.50400000000E-02 0.  1.
    5000001    1    1    2    0    0  0.17065196522E+03  0.22580707858E+02 -0.55457144818E+03  0.60366089217E+03  0.16500000000E+03 0.  0.
   -5000001    1    1    2    0    0 -0.17065196522E+03 -0.22580707858E+02 -0.10323819698E+03  0.25983669278E+03  0.16500000000E+03 0.  0.
<mgrwt>
<rscale>  0 0.55938766E+03</rscale>
<asrwt>0</asrwt>
<pdfrwt beam="1">  1        1 0.11702363E+00 0.55938766E+03</pdfrwt>
<pdfrwt beam="2">  1       -1 0.15822150E-01 0.55938766E+03</pdfrwt>
<totfact> 0.72953115E+02</totfact>
</mgrwt>
</event>
<event>
 4    1  0.2309632E-005  0.4623362E+03  0.7818608E-02  0.1024106E+00
         -1   -1    0    0    0  501 -0.00000000000E+00  0.00000000000E+00  0.18150788568E+03  0.18150788575E+03  0.50400000000E-02 0. -1.
          1   -1    0    0  501    0  0.00000000000E+00 -0.00000000000E+00 -0.29441531546E+03  0.29441531550E+03  0.50400000000E-02 0.  1.
    5000001    1    1    2    0    0  0.12383077791E+03 -0.89437580232E+02 -0.11170181282E+03  0.25106859083E+03  0.16500000000E+03 0.  0.
   -5000001    1    1    2    0    0 -0.12383077791E+03  0.89437580232E+02 -0.12056169531E+01  0.22485461042E+03  0.16500000000E+03 0.  0.
<mgrwt>
<rscale>  0 0.46233625E+03</rscale>
<asrwt>0</asrwt>
<pdfrwt beam="1">  1        1 0.45294664E-01 0.46233625E+03</pdfrwt>
<pdfrwt beam="2">  1       -1 0.27924290E-01 0.46233625E+03</pdfrwt>
<totfact> 0.10404835E+03</totfact>
</mgrwt>
</event>
<event>
 4    1  0.2309632E-005  0.5289919E+03  0.7818608E-02  0.1006477E+00
         -1   -1    0    0    0  501 -0.00000000000E+00  0.00000000000E+00  0.62213584517E+02  0.62213584721E+02  0.50400000000E-02 0. -1.
          1   -1    0    0  501    0  0.00000000000E+00 -0.00000000000E+00 -0.11244827040E+04  0.11244827040E+04  0.50400000000E-02 0.  1.
    5000001    1    1    2    0    0  0.13063183186E+03 -0.12634406704E+03 -0.31012970952E+03  0.39551603696E+03  0.16500000000E+03 0.  0.
   -5000001    1    1    2    0    0 -0.13063183186E+03  0.12634406704E+03 -0.75213940998E+03  0.79118025179E+03  0.16500000000E+03 0.  0.
<mgrwt>
<rscale>  0 0.52899187E+03</rscale>
<asrwt>0</asrwt>
<pdfrwt beam="1">  1        1 0.17299732E+00 0.52899187E+03</pdfrwt>
<pdfrwt beam="2">  1       -1 0.95713216E-02 0.52899187E+03</pdfrwt>
<totfact> 0.83662434E+02</totfact>
</mgrwt>
</event>
<event>
 4    1  0.2309632E-005  0.4663437E+03  0.7818608E-02  0.1022957E+00
          1   -1    0    0  501    0  0.00000000000E+00  0.00000000000E+00  0.17644347295E+04  0.17644347295E+04  0.50400000000E-02 0.  1.
         -1   -1    0    0    0  501 -0.00000000000E+00 -0.00000000000E+00 -0.30813897953E+02  0.30813898365E+02  0.50400000000E-02 0. -1.
    5000001    1    1    2    0    0 -0.14852216681E+03 -0.54835917457E+02  0.10423086000E+04  0.10670979475E+04  0.16500000000E+03 0.  0.
   -5000001    1    1    2    0    0  0.14852216681E+03  0.54835917457E+02  0.69131223156E+03  0.72815068041E+03  0.16500000000E+03 0.  0.
<mgrwt>
<rscale>  0 0.46634370E+03</rscale>
<asrwt>0</asrwt>
<pdfrwt beam="1">  1        1 0.27145147E+00 0.46634370E+03</pdfrwt>
<pdfrwt beam="2">  1       -1 0.47406002E-02 0.46634370E+03</pdfrwt>
<totfact> 0.90190942E+02</totfact>
</mgrwt>
</event>
<event>
 4    1  0.2309632E-005  0.8420843E+03  0.7818608E-02  0.9501023E-01
          1   -1    0    0  501    0  0.00000000000E+00  0.00000000000E+00  0.63172645678E+03  0.63172645680E+03  0.50400000000E-02 0.  1.
         -1   -1    0    0    0  501 -0.00000000000E+00 -0.00000000000E+00 -0.28062227066E+03  0.28062227071E+03  0.50400000000E-02 0. -1.
    5000001    1    1    2    0    0 -0.37326601635E+03 -0.75219093172E+02  0.98436646969E+02  0.42649760187E+03  0.16500000000E+03 0.  0.
   -5000001    1    1    2    0    0  0.37326601635E+03  0.75219093172E+02  0.25266753915E+03  0.48585112563E+03  0.16500000000E+03 0.  0.
<mgrwt>
<rscale>  0 0.84208435E+03</rscale>
<asrwt>0</asrwt>
<pdfrwt beam="1">  1        1 0.97188684E-01 0.84208435E+03</pdfrwt>
<pdfrwt beam="2">  1       -1 0.43172658E-01 0.84208435E+03</pdfrwt>
<totfact> 0.16966578E+02</totfact>
</mgrwt>
</event>
<event>
 4    1  0.2309632E-005  0.6010951E+03  0.7818608E-02  0.9903137E-01
          1   -1    0    0  501    0  0.00000000000E+00  0.00000000000E+00  0.22267933415E+03  0.22267933421E+03  0.50400000000E-02 0.  1.
         -1   -1    0    0    0  501 -0.00000000000E+00 -0.00000000000E+00 -0.40564533419E+03  0.40564533423E+03  0.50400000000E-02 0. -1.
    5000001    1    1    2    0    0 -0.20788940252E+03 -0.13901148022E+03 -0.11625545322E+03  0.32137598808E+03  0.16500000000E+03 0.  0.
   -5000001    1    1    2    0    0  0.20788940252E+03  0.13901148022E+03 -0.66710546825E+02  0.30694868035E+03  0.16500000000E+03 0.  0.
<mgrwt>
<rscale>  0 0.60109511E+03</rscale>
<asrwt>0</asrwt>
<pdfrwt beam="1">  1        1 0.34258359E-01 0.60109511E+03</pdfrwt>
<pdfrwt beam="2">  1       -1 0.62406974E-01 0.60109511E+03</pdfrwt>
<totfact> 0.34151829E+02</totfact>
</mgrwt>
</event>
<event>
 4    1  0.2309632E-005  0.6279817E+03  0.7818608E-02  0.9848995E-01
         -1   -1    0    0    0  501 -0.00000000000E+00  0.00000000000E+00  0.15904190547E+04  0.15904190547E+04  0.50400000000E-02 0. -1.
          1   -1    0    0  501    0  0.00000000000E+00 -0.00000000000E+00 -0.61990120366E+02  0.61990120570E+02  0.50400000000E-02 0.  1.
    5000001    1    1    2    0    0 -0.19349494654E+03  0.18138577054E+03  0.68000556101E+03  0.74831387472E+03  0.16500000000E+03 0.  0.
   -5000001    1    1    2    0    0  0.19349494654E+03 -0.18138577054E+03  0.84842337330E+03  0.90409530054E+03  0.16500000000E+03 0.  0.
<mgrwt>
<rscale>  0 0.62798175E+03</rscale>
<asrwt>0</asrwt>
<pdfrwt beam="1">  1        1 0.95369428E-02 0.62798175E+03</pdfrwt>
<pdfrwt beam="2">  1       -1 0.24467982E+00 0.62798175E+03</pdfrwt>
<totfact> 0.56299966E+01</totfact>
</mgrwt>
</event>
<event>
 4    1  0.2309632E-005  0.4652073E+03  0.7818608E-02  0.1023282E+00
          1   -1    0    0  501    0  0.00000000000E+00  0.00000000000E+00  0.10718982489E+03  0.10718982501E+03  0.50400000000E-02 0.  1.
         -1   -1    0    0    0  501 -0.00000000000E+00 -0.00000000000E+00 -0.50475359560E+03  0.50475359563E+03  0.50400000000E-02 0. -1.
    5000001    1    1    2    0    0  0.92683040835E+02  0.12539754374E+03 -0.13216441931E+03  0.26269207024E+03  0.16500000000E+03 0.  0.
   -5000001    1    1    2    0    0 -0.92683040835E+02 -0.12539754374E+03 -0.26539935140E+03  0.34925135040E+03  0.16500000000E+03 0.  0.
<mgrwt>
<rscale>  0 0.46520726E+03</rscale>
<asrwt>0</asrwt>
<pdfrwt beam="1">  1        1 0.16490743E-01 0.46520726E+03</pdfrwt>
<pdfrwt beam="2">  1       -1 0.77654398E-01 0.46520726E+03</pdfrwt>
<totfact> 0.57068924E+02</totfact>
</mgrwt>
</event>
<event>
 4    1  0.2309632E-005  0.4370528E+03  0.7818608E-02  0.1031655E+00
          1   -1    0    0  501    0  0.00000000000E+00  0.00000000000E+00  0.72545885473E+02  0.72545885649E+02  0.50400000000E-02 0. -1.
         -1   -1    0    0    0  501 -0.00000000000E+00 -0.00000000000E+00 -0.65825645143E+03  0.65825645145E+03  0.50400000000E-02 0.  1.
    5000001    1    1    2    0    0 -0.13908426572E+03  0.29139985528E+02 -0.32347029874E+03  0.38993795134E+03  0.16500000000E+03 0.  0.
   -5000001    1    1    2    0    0  0.13908426572E+03 -0.29139985528E+02 -0.26224026722E+03  0.34086438576E+03  0.16500000000E+03 0.  0.
<mgrwt>
<rscale>  0 0.43705284E+03</rscale>
<asrwt>0</asrwt>
<pdfrwt beam="1">  1        1 0.11160906E-01 0.43705284E+03</pdfrwt>
<pdfrwt beam="2">  1       -1 0.10127022E+00 0.43705284E+03</pdfrwt>
<totfact> 0.54192626E+02</totfact>
</mgrwt>
</event>
<event>
 4    1  0.2309632E-005  0.5242687E+03  0.7818608E-02  0.1007632E+00
          1   -1    0    0  501    0  0.00000000000E+00  0.00000000000E+00  0.39640235243E+03  0.39640235247E+03  0.50400000000E-02 0.  1.
         -1   -1    0    0    0  501 -0.00000000000E+00 -0.00000000000E+00 -0.17334516119E+03  0.17334516127E+03  0.50400000000E-02 0. -1.
    5000001    1    1    2    0    0  0.37349391213E+02  0.12967074125E+03  0.27734195029E+03  0.34978998778E+03  0.16500000000E+03 0.  0.
   -5000001    1    1    2    0    0 -0.37349391213E+02 -0.12967074125E+03 -0.54284759049E+02  0.21995752595E+03  0.16500000000E+03 0.  0.
<mgrwt>
<rscale>  0 0.52426875E+03</rscale>
<asrwt>0</asrwt>
<pdfrwt beam="1">  1        1 0.60984977E-01 0.52426875E+03</pdfrwt>
<pdfrwt beam="2">  1       -1 0.26668487E-01 0.52426875E+03</pdfrwt>
<totfact> 0.76569681E+02</totfact>
</mgrwt>
</event>
<event>
 4    1  0.2309632E-005  0.7932765E+03  0.7818608E-02  0.9569800E-01
          1   -1    0    0  501    0  0.00000000000E+00  0.00000000000E+00  0.93170943293E+03  0.93170943294E+03  0.50400000000E-02 0.  1.
         -1   -1    0    0    0  501 -0.00000000000E+00 -0.00000000000E+00 -0.16885298394E+03  0.16885298401E+03  0.50400000000E-02 0. -1.
    5000001    1    1    2    0    0 -0.23204377414E+03  0.21801257538E+03  0.61655705636E+03  0.71326110219E+03  0.16500000000E+03 0.  0.
   -5000001    1    1    2    0    0  0.23204377414E+03 -0.21801257538E+03  0.14629939263E+03  0.38730131477E+03  0.16500000000E+03 0.  0.
<mgrwt>
<rscale>  0 0.79327654E+03</rscale>
<asrwt>0</asrwt>
<pdfrwt beam="1">  1        1 0.14333991E+00 0.79327654E+03</pdfrwt>
<pdfrwt beam="2">  1       -1 0.25977382E-01 0.79327654E+03</pdfrwt>
<totfact> 0.22702337E+02</totfact>
</mgrwt>
</event>
<event>
 4    1  0.2309632E-005  0.5151521E+03  0.7818608E-02  0.1009898E+00
          1   -1    0    0  501    0  0.00000000000E+00  0.00000000000E+00  0.87310443828E+02  0.87310443973E+02  0.50400000000E-02 0.  1.
         -1   -1    0    0    0  501 -0.00000000000E+00 -0.00000000000E+00 -0.75987963410E+03  0.75987963412E+03  0.50400000000E-02 0. -1.
    5000001    1    1    2    0    0  0.15186104672E+03 -0.13733579591E+02 -0.12911101655E+03  0.25912360625E+03  0.16500000000E+03 0.  0.
   -5000001    1    1    2    0    0 -0.15186104672E+03  0.13733579591E+02 -0.54345817372E+03  0.58806647184E+03  0.16500000000E+03 0.  0.
<mgrwt>
<rscale>  0 0.51515213E+03</rscale>
<asrwt>0</asrwt>
<pdfrwt beam="1">  1        1 0.13432376E-01 0.51515213E+03</pdfrwt>
<pdfrwt beam="2">  1       -1 0.11690455E+00 0.51515213E+03</pdfrwt>
<totfact> 0.30140008E+02</totfact>
</mgrwt>
</event>
<event>
 4    1  0.2309632E-005  0.8991564E+03  0.7818608E-02  0.9426637E-01
          1   -1    0    0  501    0  0.00000000000E+00  0.00000000000E+00  0.13771849929E+03  0.13771849938E+03  0.50400000000E-02 0.  1.
         -1   -1    0    0    0  501 -0.00000000000E+00 -0.00000000000E+00 -0.14676354367E+04  0.14676354367E+04  0.50400000000E-02 0. -1.
    5000001    1    1    2    0    0 -0.86016383822E+02 -0.40408616022E+03 -0.78081851331E+03  0.89865844118E+03  0.16500000000E+03 0.  0.
   -5000001    1    1    2    0    0  0.86016383822E+02  0.40408616022E+03 -0.54909842405E+03  0.70669549487E+03  0.16500000000E+03 0.  0.
<mgrwt>
<rscale>  0 0.89915638E+03</rscale>
<asrwt>0</asrwt>
<pdfrwt beam="1">  1        1 0.21187462E-01 0.89915638E+03</pdfrwt>
<pdfrwt beam="2">  1       -1 0.22579006E+00 0.89915638E+03</pdfrwt>
<totfact> 0.24821812E+01</totfact>
</mgrwt>
</event>
<event>
 4    1  0.2309632E-005  0.3931528E+03  0.7818608E-02  0.1046177E+00
         -1   -1    0    0    0  501 -0.00000000000E+00  0.00000000000E+00  0.60641603459E+03  0.60641603461E+03  0.50400000000E-02 0. -1.
          1   -1    0    0  501    0  0.00000000000E+00 -0.00000000000E+00 -0.63722403516E+02  0.63722403716E+02  0.50400000000E-02 0.  1.
    5000001    1    1    2    0    0 -0.73158788852E+01  0.10642405524E+03  0.26088296609E+03  0.32659535149E+03  0.16500000000E+03 0.  0.
   -5000001    1    1    2    0    0  0.73158788852E+01 -0.10642405524E+03  0.28181066498E+03  0.34354308683E+03  0.16500000000E+03 0.  0.
<mgrwt>
<rscale>  0 0.39315283E+03</rscale>
<asrwt>0</asrwt>
<pdfrwt beam="1">  1        1 0.98034470E-02 0.39315283E+03</pdfrwt>
<pdfrwt beam="2">  1       -1 0.93294771E-01 0.39315283E+03</pdfrwt>
<totfact> 0.77637240E+02</totfact>
</mgrwt>
</event>
<event>
 4    1  0.2309632E-005  0.4496459E+03  0.7818608E-02  0.1027828E+00
         -1   -1    0    0    0  501 -0.00000000000E+00  0.00000000000E+00  0.26372908376E+02  0.26372908858E+02  0.50400000000E-02 0. -1.
          1   -1    0    0  501    0  0.00000000000E+00 -0.00000000000E+00 -0.19165640113E+04  0.19165640113E+04  0.50400000000E-02 0.  1.
    5000001    1    1    2    0    0 -0.92791453861E+02  0.11785826976E+03 -0.82139443991E+03  0.85112552046E+03  0.16500000000E+03 0.  0.
   -5000001    1    1    2    0    0  0.92791453861E+02 -0.11785826976E+03 -0.10687966630E+04  0.10918113997E+04  0.16500000000E+03 0.  0.
<mgrwt>
<rscale>  0 0.44964594E+03</rscale>
<asrwt>0</asrwt>
<pdfrwt beam="1">  1        1 0.29485589E+00 0.44964594E+03</pdfrwt>
<pdfrwt beam="2">  1       -1 0.40573720E-02 0.44964594E+03</pdfrwt>
<totfact> 0.90680965E+02</totfact>
</mgrwt>
</event>
<event>
 4    1  0.2309632E-005  0.7395186E+03  0.7818608E-02  0.9651939E-01
          1   -1    0    0  501    0  0.00000000000E+00  0.00000000000E+00  0.21255235170E+03  0.21255235176E+03  0.50400000000E-02 0. -1.
         -1   -1    0    0    0  501 -0.00000000000E+00 -0.00000000000E+00 -0.64323891142E+03  0.64323891144E+03  0.50400000000E-02 0.  1.
    5000001    1    1    2    0    0  0.17755637778E+01  0.28033256716E+03 -0.11896754717E+02  0.32550888407E+03  0.16500000000E+03 0.  0.
   -5000001    1    1    2    0    0 -0.17755637778E+01 -0.28033256716E+03 -0.41878980501E+03  0.53028237913E+03  0.16500000000E+03 0.  0.
<mgrwt>
<rscale>  0 0.73951861E+03</rscale>
<asrwt>0</asrwt>
<pdfrwt beam="1">  1        1 0.32700362E-01 0.73951861E+03</pdfrwt>
<pdfrwt beam="2">  1       -1 0.98959832E-01 0.73951861E+03</pdfrwt>
<totfact> 0.13610048E+02</totfact>
</mgrwt>
</event>
<event>
 4    1  0.2309632E-005  0.6455344E+03  0.7818608E-02  0.9815195E-01
         -1   -1    0    0    0  501 -0.00000000000E+00  0.00000000000E+00  0.72794302663E+02  0.72794302837E+02  0.50400000000E-02 0. -1.
          1   -1    0    0  501    0  0.00000000000E+00 -0.00000000000E+00 -0.14311377037E+04  0.14311377037E+04  0.50400000000E-02 0.  1.
    5000001    1    1    2    0    0  0.22775234163E+03  0.70771764496E+02 -0.10092558517E+04  0.10500962556E+04  0.16500000000E+03 0.  0.
   -5000001    1    1    2    0    0 -0.22775234163E+03 -0.70771764496E+02 -0.34908754936E+03  0.45383575100E+03  0.16500000000E+03 0.  0.
<mgrwt>
<rscale>  0 0.64553442E+03</rscale>
<asrwt>0</asrwt>
<pdfrwt beam="1">  1        1 0.22017501E+00 0.64553442E+03</pdfrwt>
<pdfrwt beam="2">  1       -1 0.11199125E-01 0.64553442E+03</pdfrwt>
<totfact> 0.39376460E+02</totfact>
</mgrwt>
</event>
<event>
 4    1  0.2309632E-005  0.9783214E+03  0.7818608E-02  0.9332646E-01
         -1   -1    0    0    0  501 -0.00000000000E+00  0.00000000000E+00  0.32896008424E+03  0.32896008428E+03  0.50400000000E-02 0. -1.
          1   -1    0    0  501    0  0.00000000000E+00 -0.00000000000E+00 -0.72737757773E+03  0.72737757775E+03  0.50400000000E-02 0.  1.
    5000001    1    1    2    0    0  0.10337315861E+03  0.44042536933E+03 -0.29204593357E+03  0.56318411127E+03  0.16500000000E+03 0.  0.
   -5000001    1    1    2    0    0 -0.10337315861E+03 -0.44042536933E+03 -0.10637155992E+03  0.49315355076E+03  0.16500000000E+03 0.  0.
<mgrwt>
<rscale>  0 0.97832140E+03</rscale>
<asrwt>0</asrwt>
<pdfrwt beam="1">  1        1 0.11190424E+00 0.97832140E+03</pdfrwt>
<pdfrwt beam="2">  1       -1 0.50609244E-01 0.97832140E+03</pdfrwt>
<totfact> 0.10110325E+02</totfact>
</mgrwt>
</event>
<event>
 4    1  0.2309632E-005  0.1169392E+04  0.7818608E-02  0.9140078E-01
         -1   -1    0    0    0  501 -0.00000000000E+00  0.00000000000E+00  0.94008491217E+02  0.94008491352E+02  0.50400000000E-02 0. -1.
          1   -1    0    0  501    0  0.00000000000E+00 -0.00000000000E+00 -0.36365801167E+04  0.36365801167E+04  0.50400000000E-02 0.  1.
    5000001    1    1    2    0    0  0.23350043251E+03  0.46086665274E+03 -0.24682093710E+04  0.25270937898E+04  0.16500000000E+03 0.  0.
   -5000001    1    1    2    0    0 -0.23350043251E+03 -0.46086665274E+03 -0.10743622545E+04  0.12034948182E+04  0.16500000000E+03 0.  0.
<mgrwt>
<rscale>  0 0.11693920E+04</rscale>
<asrwt>0</asrwt>
<pdfrwt beam="1">  1        1 0.55947376E+00 0.11693920E+04</pdfrwt>
<pdfrwt beam="2">  1       -1 0.14462848E-01 0.11693920E+04</pdfrwt>
<totfact> 0.69166801E+00</totfact>
</mgrwt>
</event>
<event>
 4    1  0.2309632E-005  0.5588297E+03  0.7818608E-02  0.9994706E-01
         -1   -1    0    0    0  501 -0.00000000000E+00  0.00000000000E+00  0.15084758825E+03  0.15084758834E+03  0.50400000000E-02 0.  1.
          1   -1    0    0  501    0  0.00000000000E+00 -0.00000000000E+00 -0.51755991456E+03  0.51755991459E+03  0.50400000000E-02 0. -1.
    5000001    1    1    2    0    0 -0.16678471807E+03  0.21192716908E+02 -0.36309303079E+03  0.43281384271E+03  0.16500000000E+03 0.  0.
   -5000001    1    1    2    0    0  0.16678471807E+03 -0.21192716908E+02 -0.36192955177E+01  0.23559366021E+03  0.16500000000E+03 0.  0.
<mgrwt>
<rscale>  0 0.55882972E+03</rscale>
<asrwt>0</asrwt>
<pdfrwt beam="1">  1        1 0.79624602E-01 0.55882972E+03</pdfrwt>
<pdfrwt beam="2">  1       -1 0.23207321E-01 0.55882972E+03</pdfrwt>
<totfact> 0.67744782E+02</totfact>
</mgrwt>
</event>
<event>
 4    1  0.2309632E-005  0.3599354E+03  0.7818608E-02  0.1058609E+00
          1   -1    0    0  501    0  0.00000000000E+00  0.00000000000E+00  0.26451638048E+03  0.26451638053E+03  0.50400000000E-02 0.  1.
         -1   -1    0    0    0  501 -0.00000000000E+00 -0.00000000000E+00 -0.12244375339E+03  0.12244375349E+03  0.50400000000E-02 0. -1.
    5000001    1    1    2    0    0 -0.33679045535E+02  0.62794818118E+02  0.61071561199E+02  0.18982150268E+03  0.16500000000E+03 0.  0.
   -5000001    1    1    2    0    0  0.33679045535E+02 -0.62794818118E+02  0.81001065894E+02  0.19713863134E+03  0.16500000000E+03 0.  0.
<mgrwt>
<rscale>  0 0.35993543E+03</rscale>
<asrwt>0</asrwt>
<pdfrwt beam="1">  1        1 0.40694827E-01 0.35993543E+03</pdfrwt>
<pdfrwt beam="2">  1       -1 0.18837501E-01 0.35993543E+03</pdfrwt>
<totfact> 0.22948928E+03</totfact>
</mgrwt>
</event>
<event>
 4    1  0.2309632E-005  0.6885277E+03  0.7818608E-02  0.9737055E-01
         -1   -1    0    0    0  501 -0.00000000000E+00  0.00000000000E+00  0.29971471911E+03  0.29971471915E+03  0.50400000000E-02 0. -1.
          1   -1    0    0  501    0  0.00000000000E+00 -0.00000000000E+00 -0.39543473766E+03  0.39543473770E+03  0.50400000000E-02 0.  1.
    5000001    1    1    2    0    0 -0.15722488451E+03  0.25664318227E+03 -0.74709450648E+02  0.35127181687E+03  0.16500000000E+03 0.  0.
   -5000001    1    1    2    0    0  0.15722488451E+03 -0.25664318227E+03 -0.21010567905E+02  0.34387763998E+03  0.16500000000E+03 0.  0.
<mgrwt>
<rscale>  0 0.68852774E+03</rscale>
<asrwt>0</asrwt>
<pdfrwt beam="1">  1        1 0.60836114E-01 0.68852774E+03</pdfrwt>
<pdfrwt beam="2">  1       -1 0.46109957E-01 0.68852774E+03</pdfrwt>
<totfact> 0.28886226E+02</totfact>
</mgrwt>
</event>
<event>
 4    1  0.2309632E-005  0.8816527E+03  0.7818608E-02  0.9448812E-01
         -1   -1    0    0    0  501 -0.00000000000E+00  0.00000000000E+00  0.14789904263E+03  0.14789904272E+03  0.50400000000E-02 0. -1.
          1   -1    0    0  501    0  0.00000000000E+00 -0.00000000000E+00 -0.13139224605E+04  0.13139224605E+04  0.50400000000E-02 0.  1.
    5000001    1    1    2    0    0  0.24587974178E+03 -0.30928523685E+03 -0.40920387590E+03  0.59227275575E+03  0.16500000000E+03 0.  0.
   -5000001    1    1    2    0    0 -0.24587974178E+03  0.30928523685E+03 -0.75681954196E+03  0.86954874748E+03  0.16500000000E+03 0.  0.
<mgrwt>
<rscale>  0 0.88165271E+03</rscale>
<asrwt>0</asrwt>
<pdfrwt beam="1">  1        1 0.20214191E+00 0.88165271E+03</pdfrwt>
<pdfrwt beam="2">  1       -1 0.22753700E-01 0.88165271E+03</pdfrwt>
<totfact> 0.14663453E+02</totfact>
</mgrwt>
</event>
<event>
 4    1  0.2309632E-005  0.3449050E+03  0.7818608E-02  0.1064726E+00
         -1   -1    0    0    0  501 -0.00000000000E+00  0.00000000000E+00  0.11321865845E+03  0.11321865856E+03  0.50400000000E-02 0.  1.
          1   -1    0    0  501    0  0.00000000000E+00 -0.00000000000E+00 -0.26267636184E+03  0.26267636189E+03  0.50400000000E-02 0. -1.
    5000001    1    1    2    0    0 -0.48737019986E+02  0.75214118707E+01 -0.64800042832E+02  0.18399976713E+03  0.16500000000E+03 0.  0.
   -5000001    1    1    2    0    0  0.48737019986E+02 -0.75214118707E+01 -0.84657660565E+02  0.19189525332E+03  0.16500000000E+03 0.  0.
<mgrwt>
<rscale>  0 0.34490500E+03</rscale>
<asrwt>0</asrwt>
<pdfrwt beam="1">  1        1 0.40411748E-01 0.34490500E+03</pdfrwt>
<pdfrwt beam="2">  1       -1 0.17418255E-01 0.34490500E+03</pdfrwt>
<totfact> 0.26273449E+03</totfact>
</mgrwt>
</event>
<event>
 4    1  0.2309632E-005  0.4614300E+03  0.7818608E-02  0.1024367E+00
         -1   -1    0    0    0  501 -0.00000000000E+00  0.00000000000E+00  0.13599941506E+03  0.13599941515E+03  0.50400000000E-02 0. -1.
          1   -1    0    0  501    0  0.00000000000E+00 -0.00000000000E+00 -0.39139440396E+03  0.39139440399E+03  0.50400000000E-02 0.  1.
    5000001    1    1    2    0    0 -0.15643220867E+03  0.89589350288E+01 -0.17126660549E+03  0.28479562599E+03  0.16500000000E+03 0.  0.
   -5000001    1    1    2    0    0  0.15643220867E+03 -0.89589350288E+01 -0.84128383415E+02  0.24259819316E+03  0.16500000000E+03 0.  0.
<mgrwt>
<rscale>  0 0.46142999E+03</rscale>
<asrwt>0</asrwt>
<pdfrwt beam="1">  1        1 0.60214523E-01 0.46142999E+03</pdfrwt>
<pdfrwt beam="2">  1       -1 0.20922987E-01 0.46142999E+03</pdfrwt>
<totfact> 0.11710065E+03</totfact>
</mgrwt>
</event>
<event>
 4    1  0.2309632E-005  0.4326920E+03  0.7818608E-02  0.1033013E+00
          1   -1    0    0  501    0  0.00000000000E+00  0.00000000000E+00  0.39022643962E+03  0.39022643965E+03  0.50400000000E-02 0.  1.
         -1   -1    0    0    0  501 -0.00000000000E+00 -0.00000000000E+00 -0.11994469830E+03  0.11994469841E+03  0.50400000000E-02 0. -1.
    5000001    1    1    2    0    0  0.13896618308E+03  0.94637792872E+01  0.11934717096E+03  0.24671828139E+03  0.16500000000E+03 0.  0.
   -5000001    1    1    2    0    0 -0.13896618308E+03 -0.94637792872E+01  0.15093457036E+03  0.26345285667E+03  0.16500000000E+03 0.  0.
<mgrwt>
<rscale>  0 0.43269200E+03</rscale>
<asrwt>0</asrwt>
<pdfrwt beam="1">  1        1 0.60034836E-01 0.43269200E+03</pdfrwt>
<pdfrwt beam="2">  1       -1 0.18453031E-01 0.43269200E+03</pdfrwt>
<totfact> 0.14453697E+03</totfact>
</mgrwt>
</event>
<event>
 4    1  0.2309632E-005  0.3498888E+03  0.7818608E-02  0.1062661E+00
          1   -1    0    0  501    0  0.00000000000E+00  0.00000000000E+00  0.39059637528E+03  0.39059637531E+03  0.50400000000E-02 0.  1.
         -1   -1    0    0    0  501 -0.00000000000E+00 -0.00000000000E+00 -0.78355920415E+02  0.78355920577E+02  0.50400000000E-02 0. -1.
    5000001    1    1    2    0    0 -0.37324771617E+02  0.25526172855E+02  0.20510619929E+03  0.26709226321E+03  0.16500000000E+03 0.  0.
   -5000001    1    1    2    0    0  0.37324771617E+02 -0.25526172855E+02  0.10713425557E+03  0.20186003268E+03  0.16500000000E+03 0.  0.
<mgrwt>
<rscale>  0 0.34988877E+03</rscale>
<asrwt>0</asrwt>
<pdfrwt beam="1">  1        1 0.60091749E-01 0.34988877E+03</pdfrwt>
<pdfrwt beam="2">  1       -1 0.12054757E-01 0.34988877E+03</pdfrwt>
<totfact> 0.28502617E+03</totfact>
</mgrwt>
</event>
<event>
 4    1  0.2309632E-005  0.5872961E+03  0.7818608E-02  0.9932119E-01
          1   -1    0    0  501    0  0.00000000000E+00  0.00000000000E+00  0.15503883039E+04  0.15503883039E+04  0.50400000000E-02 0.  1.
         -1   -1    0    0    0  501 -0.00000000000E+00 -0.00000000000E+00 -0.55617791245E+02  0.55617791474E+02  0.50400000000E-02 0. -1.
    5000001    1    1    2    0    0 -0.22834634448E+03 -0.43149120944E+02  0.55401620591E+03  0.62302717122E+03  0.16500000000E+03 0.  0.
   -5000001    1    1    2    0    0  0.22834634448E+03  0.43149120944E+02  0.94075430672E+03  0.98297892413E+03  0.16500000000E+03 0.  0.
<mgrwt>
<rscale>  0 0.58729609E+03</rscale>
<asrwt>0</asrwt>
<pdfrwt beam="1">  1        1 0.23852125E+00 0.58729609E+03</pdfrwt>
<pdfrwt beam="2">  1       -1 0.85565842E-02 0.58729609E+03</pdfrwt>
<totfact> 0.50103800E+02</totfact>
</mgrwt>
</event>
<event>
 4    1  0.2309632E-005  0.1855149E+04  0.7818608E-02  0.8677510E-01
         -1   -1    0    0    0  501 -0.00000000000E+00  0.00000000000E+00  0.13863755388E+04  0.13863755388E+04  0.50400000000E-02 0. -1.
          1   -1    0    0  501    0  0.00000000000E+00 -0.00000000000E+00 -0.62060688082E+03  0.62060688084E+03  0.50400000000E-02 0.  1.
    5000001    1    1    2    0    0 -0.39479575248E+03  0.82290658968E+03  0.37053720231E+03  0.99878013587E+03  0.16500000000E+03 0.  0.
   -5000001    1    1    2    0    0  0.39479575248E+03 -0.82290658968E+03  0.39523145571E+03  0.10082022838E+04  0.16500000000E+03 0.  0.
<mgrwt>
<rscale>  0 0.18551487E+04</rscale>
<asrwt>0</asrwt>
<pdfrwt beam="1">  1        1 0.95477982E-01 0.18551487E+04</pdfrwt>
<pdfrwt beam="2">  1       -1 0.21328854E+00 0.18551487E+04</pdfrwt>
<totfact> 0.37391195E+00</totfact>
</mgrwt>
</event>
<event>
 4    1  0.2309632E-005  0.6253634E+03  0.7818608E-02  0.9854139E-01
         -1   -1    0    0    0  501 -0.00000000000E+00  0.00000000000E+00  0.11138847178E+03  0.11138847189E+03  0.50400000000E-02 0. -1.
          1   -1    0    0  501    0  0.00000000000E+00 -0.00000000000E+00 -0.87773765537E+03  0.87773765538E+03  0.50400000000E-02 0.  1.
    5000001    1    1    2    0    0 -0.25944844258E+03  0.37284076257E+02 -0.45104440920E+03  0.54714683200E+03  0.16500000000E+03 0.  0.
   -5000001    1    1    2    0    0  0.25944844258E+03 -0.37284076257E+02 -0.31530477439E+03  0.44197929527E+03  0.16500000000E+03 0.  0.
<mgrwt>
<rscale>  0 0.62536343E+03</rscale>
<asrwt>0</asrwt>
<pdfrwt beam="1">  1        1 0.13503656E+00 0.62536343E+03</pdfrwt>
<pdfrwt beam="2">  1       -1 0.17136689E-01 0.62536343E+03</pdfrwt>
<totfact> 0.50810674E+02</totfact>
</mgrwt>
</event>
<event>
 4    1  0.2309632E-005  0.4108238E+03  0.7818608E-02  0.1040095E+00
         -1   -1    0    0    0  501 -0.00000000000E+00  0.00000000000E+00  0.67247411445E+02  0.67247411634E+02  0.50400000000E-02 0. -1.
          1   -1    0    0  501    0  0.00000000000E+00 -0.00000000000E+00 -0.62744481690E+03  0.62744481692E+03  0.50400000000E-02 0.  1.
    5000001    1    1    2    0    0  0.64298520105E+02  0.10291856147E+03 -0.25376562732E+03  0.32611121354E+03  0.16500000000E+03 0.  0.
   -5000001    1    1    2    0    0 -0.64298520105E+02 -0.10291856147E+03 -0.30643177814E+03  0.36858101502E+03  0.16500000000E+03 0.  0.
<mgrwt>
<rscale>  0 0.41082376E+03</rscale>
<asrwt>0</asrwt>
<pdfrwt beam="1">  1        1 0.96529968E-01 0.41082376E+03</pdfrwt>
<pdfrwt beam="2">  1       -1 0.10345756E-01 0.41082376E+03</pdfrwt>
<totfact> 0.19152954E+03</totfact>
</mgrwt>
</event>
<event>
 4    1  0.2309632E-005  0.4422446E+03  0.7818608E-02  0.1030060E+00
          1   -1    0    0  501    0  0.00000000000E+00  0.00000000000E+00  0.15980674182E+03  0.15980674190E+03  0.50400000000E-02 0. -1.
         -1   -1    0    0    0  501 -0.00000000000E+00 -0.00000000000E+00 -0.30596381556E+03  0.30596381560E+03  0.50400000000E-02 0.  1.
    5000001    1    1    2    0    0 -0.11276904213E+03  0.93973144971E+02 -0.84724418583E+02  0.23653971325E+03  0.16500000000E+03 0.  0.
   -5000001    1    1    2    0    0  0.11276904213E+03 -0.93973144971E+02 -0.61432655150E+02  0.22923084426E+03  0.16500000000E+03 0.  0.
<mgrwt>
<rscale>  0 0.44224464E+03</rscale>
<asrwt>0</asrwt>
<pdfrwt beam="1">  1        1 0.24585653E-01 0.44224464E+03</pdfrwt>
<pdfrwt beam="2">  1       -1 0.47071356E-01 0.44224464E+03</pdfrwt>
<totfact> 0.90147238E+02</totfact>
</mgrwt>
</event>
<event>
 4    1  0.2309632E-005  0.7448687E+03  0.7818608E-02  0.9643435E-01
          1   -1    0    0  501    0  0.00000000000E+00  0.00000000000E+00  0.13670525432E+04  0.13670525432E+04  0.50400000000E-02 0.  1.
         -1   -1    0    0    0  501 -0.00000000000E+00 -0.00000000000E+00 -0.10146453710E+03  0.10146453722E+03  0.50400000000E-02 0. -1.
    5000001    1    1    2    0    0  0.11549051621E+03 -0.31259715348E+03  0.67354823978E+03  0.76938109608E+03  0.16500000000E+03 0.  0.
   -5000001    1    1    2    0    0 -0.11549051621E+03  0.31259715348E+03  0.59203976627E+03  0.69913598430E+03  0.16500000000E+03 0.  0.
<mgrwt>
<rscale>  0 0.74486872E+03</rscale>
<asrwt>0</asrwt>
<pdfrwt beam="1">  1        1 0.21031576E+00 0.74486872E+03</pdfrwt>
<pdfrwt beam="2">  1       -1 0.15609930E-01 0.74486872E+03</pdfrwt>
<totfact> 0.25387051E+02</totfact>
</mgrwt>
</event>
<event>
 4    1  0.2309632E-005  0.6031901E+03  0.7818608E-02  0.9898810E-01
          1   -1    0    0  501    0  0.00000000000E+00  0.00000000000E+00  0.14323686448E+04  0.14323686448E+04  0.50400000000E-02 0.  1.
         -1   -1    0    0    0  501 -0.00000000000E+00 -0.00000000000E+00 -0.63502910898E+02  0.63502911098E+02  0.50400000000E-02 0. -1.
    5000001    1    1    2    0    0  0.15856728636E+01  0.18541251848E+03  0.11093220485E+04  0.11367500709E+04  0.16500000000E+03 0.  0.
   -5000001    1    1    2    0    0 -0.15856728636E+01 -0.18541251848E+03  0.25954368537E+03  0.35912148499E+03  0.16500000000E+03 0.  0.
<mgrwt>
<rscale>  0 0.60319011E+03</rscale>
<asrwt>0</asrwt>
<pdfrwt beam="1">  1        1 0.22036440E+00 0.60319011E+03</pdfrwt>
<pdfrwt beam="2">  1       -1 0.97696788E-02 0.60319011E+03</pdfrwt>
<totfact> 0.48913161E+02</totfact>
</mgrwt>
</event>
<event>
 4    1  0.2309632E-005  0.5439638E+03  0.7818608E-02  0.1002901E+00
          1   -1    0    0  501    0  0.00000000000E+00  0.00000000000E+00  0.17480303213E+03  0.17480303220E+03  0.50400000000E-02 0.  1.
         -1   -1    0    0    0  501 -0.00000000000E+00 -0.00000000000E+00 -0.42318569505E+03  0.42318569508E+03  0.50400000000E-02 0. -1.
    5000001    1    1    2    0    0 -0.84624774139E+02  0.18231603213E+03 -0.36599444002E+02  0.26261189477E+03  0.16500000000E+03 0.  0.
   -5000001    1    1    2    0    0  0.84624774139E+02 -0.18231603213E+03 -0.21178321892E+03  0.33537683252E+03  0.16500000000E+03 0.  0.
<mgrwt>
<rscale>  0 0.54396376E+03</rscale>
<asrwt>0</asrwt>
<pdfrwt beam="1">  1        1 0.26892774E-01 0.54396376E+03</pdfrwt>
<pdfrwt beam="2">  1       -1 0.65105491E-01 0.54396376E+03</pdfrwt>
<totfact> 0.42990624E+02</totfact>
</mgrwt>
</event>
<event>
 4    1  0.2309632E-005  0.4874405E+03  0.7818608E-02  0.1017110E+00
         -1   -1    0    0    0  501 -0.00000000000E+00  0.00000000000E+00  0.61703050778E+03  0.61703050780E+03  0.50400000000E-02 0. -1.
          1   -1    0    0  501    0  0.00000000000E+00 -0.00000000000E+00 -0.96266800920E+02  0.96266801052E+02  0.50400000000E-02 0.  1.
    5000001    1    1    2    0    0 -0.34074803845E+01  0.15439181310E+03  0.12685454978E+03  0.25916311403E+03  0.16500000000E+03 0.  0.
   -5000001    1    1    2    0    0  0.34074803845E+01 -0.15439181310E+03  0.39390915708E+03  0.45413419482E+03  0.16500000000E+03 0.  0.
<mgrwt>
<rscale>  0 0.48744047E+03</rscale>
<asrwt>0</asrwt>
<pdfrwt beam="1">  1        1 0.14810278E-01 0.48744047E+03</pdfrwt>
<pdfrwt beam="2">  1       -1 0.94927766E-01 0.48744047E+03</pdfrwt>
<totfact> 0.42750257E+02</totfact>
</mgrwt>
</event>
<event>
 4    1  0.2309632E-005  0.5854603E+03  0.7818608E-02  0.9936039E-01
         -1   -1    0    0    0  501 -0.00000000000E+00  0.00000000000E+00  0.49330140643E+03  0.49330140645E+03  0.50400000000E-02 0. -1.
          1   -1    0    0  501    0  0.00000000000E+00 -0.00000000000E+00 -0.17370906861E+03  0.17370906868E+03  0.50400000000E-02 0.  1.
    5000001    1    1    2    0    0 -0.45818664163E+02  0.23395841270E+03  0.11379866794E+03  0.31146593022E+03  0.16500000000E+03 0.  0.
   -5000001    1    1    2    0    0  0.45818664163E+02 -0.23395841270E+03  0.20579366988E+03  0.35554454492E+03  0.16500000000E+03 0.  0.
<mgrwt>
<rscale>  0 0.58546026E+03</rscale>
<asrwt>0</asrwt>
<pdfrwt beam="1">  1        1 0.26724472E-01 0.58546026E+03</pdfrwt>
<pdfrwt beam="2">  1       -1 0.75892525E-01 0.58546026E+03</pdfrwt>
<totfact> 0.31672116E+02</totfact>
</mgrwt>
</event>
<event>
 4    1  0.2309632E-005  0.4603906E+03  0.7818608E-02  0.1024668E+00
          1   -1    0    0  501    0  0.00000000000E+00  0.00000000000E+00  0.14117099209E+03  0.14117099218E+03  0.50400000000E-02 0.  1.
         -1   -1    0    0    0  501 -0.00000000000E+00 -0.00000000000E+00 -0.37535947114E+03  0.37535947117E+03  0.50400000000E-02 0. -1.
    5000001    1    1    2    0    0 -0.15338022187E+03  0.47128160290E+02 -0.11229304407E+03  0.25608842945E+03  0.16500000000E+03 0.  0.
   -5000001    1    1    2    0    0  0.15338022187E+03 -0.47128160290E+02 -0.12189543498E+03  0.26044203390E+03  0.16500000000E+03 0.  0.
<mgrwt>
<rscale>  0 0.46039057E+03</rscale>
<asrwt>0</asrwt>
<pdfrwt beam="1">  1        1 0.21718614E-01 0.46039057E+03</pdfrwt>
<pdfrwt beam="2">  1       -1 0.57747611E-01 0.46039057E+03</pdfrwt>
<totfact> 0.71952472E+02</totfact>
</mgrwt>
</event>
<event>
 4    1  0.2309632E-005  0.4019192E+03  0.7818608E-02  0.1043117E+00
         -1   -1    0    0    0  501 -0.00000000000E+00  0.00000000000E+00  0.88807795821E+02  0.88807795964E+02  0.50400000000E-02 0. -1.
          1   -1    0    0  501    0  0.00000000000E+00 -0.00000000000E+00 -0.45474342587E+03  0.45474342590E+03  0.50400000000E-02 0.  1.
    5000001    1    1    2    0    0 -0.74097524136E+02 -0.75695003530E+02 -0.12340762191E+03  0.23167783189E+03  0.16500000000E+03 0.  0.
   -5000001    1    1    2    0    0  0.74097524136E+02  0.75695003530E+02 -0.24252800813E+03  0.31187338997E+03  0.16500000000E+03 0.  0.
<mgrwt>
<rscale>  0 0.40191920E+03</rscale>
<asrwt>0</asrwt>
<pdfrwt beam="1">  1        1 0.69960526E-01 0.40191920E+03</pdfrwt>
<pdfrwt beam="2">  1       -1 0.13662738E-01 0.40191920E+03</pdfrwt>
<totfact> 0.19194598E+03</totfact>
</mgrwt>
</event>
<event>
 4    1  0.2309632E-005  0.6302355E+03  0.7818608E-02  0.9844589E-01
         -1   -1    0    0    0  501 -0.00000000000E+00  0.00000000000E+00  0.25959063316E+03  0.25959063321E+03  0.50400000000E-02 0. -1.
          1   -1    0    0  501    0  0.00000000000E+00 -0.00000000000E+00 -0.38252228242E+03  0.38252228245E+03  0.50400000000E-02 0.  1.
    5000001    1    1    2    0    0 -0.18346068170E+03  0.19539378991E+03 -0.45759506752E+02  0.31804950451E+03  0.16500000000E+03 0.  0.
   -5000001    1    1    2    0    0  0.18346068170E+03 -0.19539378991E+03 -0.77172142512E+02  0.32406341115E+03  0.16500000000E+03 0.  0.
<mgrwt>
<rscale>  0 0.63023552E+03</rscale>
<asrwt>0</asrwt>
<pdfrwt beam="1">  1        1 0.58849582E-01 0.63023552E+03</pdfrwt>
<pdfrwt beam="2">  1       -1 0.39937021E-01 0.63023552E+03</pdfrwt>
<totfact> 0.39381318E+02</totfact>
</mgrwt>
</event>
<event>
 4    1  0.2309632E-005  0.5683275E+03  0.7818608E-02  0.9973386E-01
          1   -1    0    0  501    0  0.00000000000E+00  0.00000000000E+00  0.10022529990E+04  0.10022529990E+04  0.50400000000E-02 0.  1.
         -1   -1    0    0    0  501 -0.00000000000E+00 -0.00000000000E+00 -0.80567512711E+02  0.80567512869E+02  0.50400000000E-02 0. -1.
    5000001    1    1    2    0    0  0.11406920806E+02  0.21067810335E+03  0.28000558188E+03  0.38748355701E+03  0.16500000000E+03 0.  0.
   -5000001    1    1    2    0    0 -0.11406920806E+02 -0.21067810335E+03  0.64167990439E+03  0.69533695484E+03  0.16500000000E+03 0.  0.
<mgrwt>
<rscale>  0 0.56832748E+03</rscale>
<asrwt>0</asrwt>
<pdfrwt beam="1">  1        1 0.15419278E+00 0.56832748E+03</pdfrwt>
<pdfrwt beam="2">  1       -1 0.12395001E-01 0.56832748E+03</pdfrwt>
<totfact> 0.68506574E+02</totfact>
</mgrwt>
</event>
<event>
 4    1  0.2309632E-005  0.7426567E+03  0.7818608E-02  0.9646942E-01
          1   -1    0    0  501    0  0.00000000000E+00  0.00000000000E+00  0.60712363520E+03  0.60712363522E+03  0.50400000000E-02 0.  1.
         -1   -1    0    0    0  501 -0.00000000000E+00 -0.00000000000E+00 -0.22711146676E+03  0.22711146681E+03  0.50400000000E-02 0. -1.
    5000001    1    1    2    0    0  0.24066667210E+02  0.28134559528E+03  0.38754677003E+03  0.50710161449E+03  0.16500000000E+03 0.  0.
   -5000001    1    1    2    0    0 -0.24066667210E+02 -0.28134559528E+03 -0.75346015924E+01  0.32713348754E+03  0.16500000000E+03 0.  0.
<mgrwt>
<rscale>  0 0.74265669E+03</rscale>
<asrwt>0</asrwt>
<pdfrwt beam="1">  1        1 0.93403636E-01 0.74265669E+03</pdfrwt>
<pdfrwt beam="2">  1       -1 0.34940226E-01 0.74265669E+03</pdfrwt>
<totfact> 0.26505475E+02</totfact>
</mgrwt>
</event>
<event>
 4    1  0.2309632E-005  0.1513629E+04  0.7818608E-02  0.8875440E-01
         -1   -1    0    0    0  501 -0.00000000000E+00  0.00000000000E+00  0.29160904572E+03  0.29160904577E+03  0.50400000000E-02 0. -1.
          1   -1    0    0  501    0  0.00000000000E+00 -0.00000000000E+00 -0.19641646776E+04  0.19641646776E+04  0.50400000000E-02 0.  1.
    5000001    1    1    2    0    0 -0.35243369165E+03 -0.47287731121E+03 -0.17360036207E+03  0.63654107815E+03  0.16500000000E+03 0.  0.
   -5000001    1    1    2    0    0  0.35243369165E+03  0.47287731121E+03 -0.14989552698E+04  0.16192326452E+04  0.16500000000E+03 0.  0.
<mgrwt>
<rscale>  0 0.15136290E+04</rscale>
<asrwt>0</asrwt>
<pdfrwt beam="1">  1        1 0.30217917E+00 0.15136290E+04</pdfrwt>
<pdfrwt beam="2">  1       -1 0.44862931E-01 0.15136290E+04</pdfrwt>
<totfact> 0.15007544E+01</totfact>
</mgrwt>
</event>
<event>
 4    1  0.2309632E-005  0.4720447E+03  0.7818608E-02  0.1021345E+00
         -1   -1    0    0    0  501 -0.00000000000E+00  0.00000000000E+00  0.50061283783E+03  0.50061283785E+03  0.50400000000E-02 0. -1.
          1   -1    0    0  501    0  0.00000000000E+00 -0.00000000000E+00 -0.11127671387E+03  0.11127671399E+03  0.50400000000E-02 0.  1.
    5000001    1    1    2    0    0  0.14197580470E+03 -0.86373561577E+02  0.15656548138E+03  0.28170067664E+03  0.16500000000E+03 0.  0.
   -5000001    1    1    2    0    0 -0.14197580470E+03  0.86373561577E+02  0.23277064257E+03  0.33018887520E+03  0.16500000000E+03 0.  0.
<mgrwt>
<rscale>  0 0.47204471E+03</rscale>
<asrwt>0</asrwt>
<pdfrwt beam="1">  1        1 0.17119495E-01 0.47204471E+03</pdfrwt>
<pdfrwt beam="2">  1       -1 0.77017359E-01 0.47204471E+03</pdfrwt>
<totfact> 0.55240280E+02</totfact>
</mgrwt>
</event>
<event>
 4    1  0.2309632E-005  0.7426668E+03  0.7818608E-02  0.9646926E-01
         -1   -1    0    0    0  501 -0.00000000000E+00  0.00000000000E+00  0.22416472148E+03  0.22416472153E+03  0.50400000000E-02 0. -1.
          1   -1    0    0  501    0  0.00000000000E+00 -0.00000000000E+00 -0.61512136320E+03  0.61512136322E+03  0.50400000000E-02 0.  1.
    5000001    1    1    2    0    0  0.20792850668E+03  0.17496951686E+03  0.21355928295E+02  0.31863720968E+03  0.16500000000E+03 0.  0.
   -5000001    1    1    2    0    0 -0.20792850668E+03 -0.17496951686E+03 -0.41231257002E+03  0.52064887507E+03  0.16500000000E+03 0.  0.
<mgrwt>
<rscale>  0 0.74266684E+03</rscale>
<asrwt>0</asrwt>
<pdfrwt beam="1">  1        1 0.94634055E-01 0.74266684E+03</pdfrwt>
<pdfrwt beam="2">  1       -1 0.34486880E-01 0.74266684E+03</pdfrwt>
<totfact> 0.26619912E+02</totfact>
</mgrwt>
</event>
<event>
 4    1  0.2309632E-005  0.4771463E+03  0.7818608E-02  0.1019922E+00
         -1   -1    0    0    0  501 -0.00000000000E+00  0.00000000000E+00  0.78418953982E+02  0.78418954144E+02  0.50400000000E-02 0.  1.
          1   -1    0    0  501    0  0.00000000000E+00 -0.00000000000E+00 -0.72580853144E+03  0.72580853146E+03  0.50400000000E-02 0. -1.
    5000001    1    1    2    0    0 -0.16910158351E+03 -0.32867864732E+02 -0.31684748488E+03  0.39660177856E+03  0.16500000000E+03 0.  0.
   -5000001    1    1    2    0    0  0.16910158351E+03  0.32867864732E+02 -0.33054209258E+03  0.40762570705E+03  0.16500000000E+03 0.  0.
<mgrwt>
<rscale>  0 0.47714629E+03</rscale>
<asrwt>0</asrwt>
<pdfrwt beam="1">  1        1 0.11166285E+00 0.47714629E+03</pdfrwt>
<pdfrwt beam="2">  1       -1 0.12064455E-01 0.47714629E+03</pdfrwt>
<totfact> 0.12134080E+03</totfact>
</mgrwt>
</event>
<event>
 4    1  0.2309632E-005  0.5324830E+03  0.7818608E-02  0.1005632E+00
          1   -1    0    0  501    0  0.00000000000E+00  0.00000000000E+00  0.13220336816E+04  0.13220336816E+04  0.50400000000E-02 0. -1.
         -1   -1    0    0    0  501 -0.00000000000E+00 -0.00000000000E+00 -0.53617791321E+02  0.53617791558E+02  0.50400000000E-02 0.  1.
    5000001    1    1    2    0    0 -0.14943747783E+01  0.17327584197E+03  0.93585205230E+03  0.96595590704E+03  0.16500000000E+03 0.  0.
   -5000001    1    1    2    0    0  0.14943747783E+01 -0.17327584197E+03  0.33256383797E+03  0.40969556611E+03  0.16500000000E+03 0.  0.
<mgrwt>
<rscale>  0 0.53248296E+03</rscale>
<asrwt>0</asrwt>
<pdfrwt beam="1">  1        1 0.20338975E+00 0.53248296E+03</pdfrwt>
<pdfrwt beam="2">  1       -1 0.82488929E-02 0.53248296E+03</pdfrwt>
<totfact> 0.76309472E+02</totfact>
</mgrwt>
</event>
<event>
 4    1  0.2309632E-005  0.3906636E+03  0.7818608E-02  0.1047061E+00
          1   -1    0    0  501    0  0.00000000000E+00  0.00000000000E+00  0.85305190535E+03  0.85305190536E+03  0.50400000000E-02 0.  1.
         -1   -1    0    0    0  501 -0.00000000000E+00 -0.00000000000E+00 -0.44727059680E+02  0.44727059964E+02  0.50400000000E-02 0. -1.
    5000001    1    1    2    0    0  0.35960463882E+00  0.10307672837E+03  0.36405685717E+03  0.41278000981E+03  0.16500000000E+03 0.  0.
   -5000001    1    1    2    0    0 -0.35960463882E+00 -0.10307672837E+03  0.44426798849E+03  0.48499895551E+03  0.16500000000E+03 0.  0.
<mgrwt>
<rscale>  0 0.39066356E+03</rscale>
<asrwt>0</asrwt>
<pdfrwt beam="1">  1        1 0.13123875E+00 0.39066356E+03</pdfrwt>
<pdfrwt beam="2">  1       -1 0.68810866E-02 0.39066356E+03</pdfrwt>
<totfact> 0.22645657E+03</totfact>
</mgrwt>
</event>
<event>
 4    1  0.2309632E-005  0.6355380E+03  0.7818608E-02  0.9834301E-01
          1   -1    0    0  501    0  0.00000000000E+00  0.00000000000E+00  0.34812800070E+03  0.34812800074E+03  0.50400000000E-02 0.  1.
         -1   -1    0    0    0  501 -0.00000000000E+00 -0.00000000000E+00 -0.29005745984E+03  0.29005745988E+03  0.50400000000E-02 0. -1.
    5000001    1    1    2    0    0  0.22473325121E+03  0.28909249561E+02 -0.12129255319E+03  0.30541391974E+03  0.16500000000E+03 0.  0.
   -5000001    1    1    2    0    0 -0.22473325121E+03 -0.28909249561E+02  0.17936309405E+03  0.33277154088E+03  0.16500000000E+03 0.  0.
<mgrwt>
<rscale>  0 0.63553796E+03</rscale>
<asrwt>0</asrwt>
<pdfrwt beam="1">  1        1 0.53558154E-01 0.63553796E+03</pdfrwt>
<pdfrwt beam="2">  1       -1 0.44624225E-01 0.63553796E+03</pdfrwt>
<totfact> 0.36352117E+02</totfact>
</mgrwt>
</event>
<event>
 4    1  0.2309632E-005  0.5339021E+03  0.7818608E-02  0.1005290E+00
         -1   -1    0    0    0  501 -0.00000000000E+00  0.00000000000E+00  0.96715621183E+02  0.96715621314E+02  0.50400000000E-02 0. -1.
          1   -1    0    0  501    0  0.00000000000E+00 -0.00000000000E+00 -0.73682885284E+03  0.73682885286E+03  0.50400000000E-02 0.  1.
    5000001    1    1    2    0    0  0.11143359621E+03  0.16953537217E+03 -0.23629877185E+03  0.35245112904E+03  0.16500000000E+03 0.  0.
   -5000001    1    1    2    0    0 -0.11143359621E+03 -0.16953537217E+03 -0.40381445981E+03  0.48109334513E+03  0.16500000000E+03 0.  0.
<mgrwt>
<rscale>  0 0.53390209E+03</rscale>
<asrwt>0</asrwt>
<pdfrwt beam="1">  1        1 0.11335828E+00 0.53390209E+03</pdfrwt>
<pdfrwt beam="2">  1       -1 0.14879327E-01 0.53390209E+03</pdfrwt>
<totfact> 0.84681795E+02</totfact>
</mgrwt>
</event>
<event>
 4    1  0.2309632E-005  0.5351976E+03  0.7818608E-02  0.1004979E+00
         -1   -1    0    0    0  501 -0.00000000000E+00  0.00000000000E+00  0.32697559082E+02  0.32697559471E+02  0.50400000000E-02 0. -1.
          1   -1    0    0  501    0  0.00000000000E+00 -0.00000000000E+00 -0.21900449407E+04  0.21900449407E+04  0.50400000000E-02 0.  1.
    5000001    1    1    2    0    0  0.18710427586E+03 -0.91673849990E+01 -0.14790158156E+04  0.14999349431E+04  0.16500000000E+03 0.  0.
   -5000001    1    1    2    0    0 -0.18710427586E+03  0.91673849990E+01 -0.67833156609E+03  0.72280755707E+03  0.16500000000E+03 0.  0.
<mgrwt>
<rscale>  0 0.53519762E+03</rscale>
<asrwt>0</asrwt>
<pdfrwt beam="1">  1        1 0.33692988E+00 0.53519762E+03</pdfrwt>
<pdfrwt beam="2">  1       -1 0.50303955E-02 0.53519762E+03</pdfrwt>
<totfact> 0.42839082E+02</totfact>
</mgrwt>
</event>
<event>
 4    1  0.2309632E-005  0.4586210E+03  0.7818608E-02  0.1025182E+00
         -1   -1    0    0    0  501 -0.00000000000E+00  0.00000000000E+00  0.10317258031E+03  0.10317258043E+03  0.50400000000E-02 0. -1.
          1   -1    0    0  501    0  0.00000000000E+00 -0.00000000000E+00 -0.50966367642E+03  0.50966367644E+03  0.50400000000E-02 0.  1.
    5000001    1    1    2    0    0  0.18111727709E+02 -0.14652816263E+03 -0.12351917320E+03  0.25353603940E+03  0.16500000000E+03 0.  0.
   -5000001    1    1    2    0    0 -0.18111727709E+02  0.14652816263E+03 -0.28297192291E+03  0.35930021748E+03  0.16500000000E+03 0.  0.
<mgrwt>
<rscale>  0 0.45862105E+03</rscale>
<asrwt>0</asrwt>
<pdfrwt beam="1">  1        1 0.78409795E-01 0.45862105E+03</pdfrwt>
<pdfrwt beam="2">  1       -1 0.15872705E-01 0.45862105E+03</pdfrwt>
<totfact> 0.12954460E+03</totfact>
</mgrwt>
</event>
<event>
 4    1  0.2309632E-005  0.3443110E+03  0.7818608E-02  0.1064975E+00
         -1   -1    0    0    0  501 -0.00000000000E+00  0.00000000000E+00  0.10909181994E+04  0.10909181995E+04  0.50400000000E-02 0.  1.
          1   -1    0    0  501    0  0.00000000000E+00 -0.00000000000E+00 -0.27167498910E+02  0.27167499377E+02  0.50400000000E-02 0. -1.
    5000001    1    1    2    0    0  0.31169348620E+02  0.37160623390E+02  0.50670520881E+03  0.53509588754E+03  0.16500000000E+03 0.  0.
   -5000001    1    1    2    0    0 -0.31169348620E+02 -0.37160623390E+02  0.55704549172E+03  0.58298981130E+03  0.16500000000E+03 0.  0.
<mgrwt>
<rscale>  0 0.34431102E+03</rscale>
<asrwt>0</asrwt>
<pdfrwt beam="1">  1        1 0.41796151E-02 0.34431102E+03</pdfrwt>
<pdfrwt beam="2">  1       -1 0.16783357E+00 0.34431102E+03</pdfrwt>
<totfact> 0.59707366E+02</totfact>
</mgrwt>
</event>
<event>
 4    1  0.2309632E-005  0.6991932E+03  0.7818608E-02  0.9718613E-01
          1   -1    0    0  501    0  0.00000000000E+00  0.00000000000E+00  0.11204815801E+04  0.11204815801E+04  0.50400000000E-02 0.  1.
         -1   -1    0    0    0  501 -0.00000000000E+00 -0.00000000000E+00 -0.10907613281E+03  0.10907613292E+03  0.50400000000E-02 0. -1.
    5000001    1    1    2    0    0  0.78167724195E+01  0.22790931843E+03  0.14109105680E+03  0.31485781818E+03  0.16500000000E+03 0.  0.
   -5000001    1    1    2    0    0 -0.78167724195E+01 -0.22790931843E+03  0.87031439050E+03  0.91469989487E+03  0.16500000000E+03 0.  0.
<mgrwt>
<rscale>  0 0.69919324E+03</rscale>
<asrwt>0</asrwt>
<pdfrwt beam="1">  1        1 0.17238179E+00 0.69919324E+03</pdfrwt>
<pdfrwt beam="2">  1       -1 0.16780943E-01 0.69919324E+03</pdfrwt>
<totfact> 0.33972313E+02</totfact>
</mgrwt>
</event>
<event>
 4    1  0.2309632E-005  0.4580709E+03  0.7818608E-02  0.1025342E+00
         -1   -1    0    0    0  501 -0.00000000000E+00  0.00000000000E+00  0.70993971537E+02  0.70993971716E+02  0.50400000000E-02 0. -1.
          1   -1    0    0  501    0  0.00000000000E+00 -0.00000000000E+00 -0.73889721310E+03  0.73889721312E+03  0.50400000000E-02 0.  1.
    5000001    1    1    2    0    0 -0.13446727525E+03  0.64662083184E+02 -0.43029990308E+03  0.48440235312E+03  0.16500000000E+03 0.  0.
   -5000001    1    1    2    0    0  0.13446727525E+03 -0.64662083184E+02 -0.23760333848E+03  0.32548883172E+03  0.16500000000E+03 0.  0.
<mgrwt>
<rscale>  0 0.45807095E+03</rscale>
<asrwt>0</asrwt>
<pdfrwt beam="1">  1        1 0.11367649E+00 0.45807095E+03</pdfrwt>
<pdfrwt beam="2">  1       -1 0.10922150E-01 0.45807095E+03</pdfrwt>
<totfact> 0.13824850E+03</totfact>
</mgrwt>
</event>
<event>
 4    1  0.2309632E-005  0.4227018E+03  0.7818608E-02  0.1036191E+00
          1   -1    0    0  501    0  0.00000000000E+00  0.00000000000E+00  0.24681490622E+04  0.24681490622E+04  0.50400000000E-02 0.  1.
         -1   -1    0    0    0  501 -0.00000000000E+00 -0.00000000000E+00 -0.18098255451E+02  0.18098256152E+02  0.50400000000E-02 0. -1.
    5000001    1    1    2    0    0  0.72495792178E+02  0.10358063123E+03  0.14497383556E+04  0.14645650845E+04  0.16500000000E+03 0.  0.
   -5000001    1    1    2    0    0 -0.72495792178E+02 -0.10358063123E+03  0.10003124512E+04  0.10216822339E+04  0.16500000000E+03 0.  0.
<mgrwt>
<rscale>  0 0.42270175E+03</rscale>
<asrwt>0</asrwt>
<pdfrwt beam="1">  1        1 0.37971509E+00 0.42270175E+03</pdfrwt>
<pdfrwt beam="2">  1       -1 0.27843482E-02 0.42270175E+03</pdfrwt>
<totfact> 0.68884291E+02</totfact>
</mgrwt>
</event>
<event>
 4    1  0.2309632E-005  0.8443435E+03  0.7818608E-02  0.9497961E-01
          1   -1    0    0  501    0  0.00000000000E+00  0.00000000000E+00  0.70264041763E+03  0.70264041765E+03  0.50400000000E-02 0.  1.
         -1   -1    0    0    0  501 -0.00000000000E+00 -0.00000000000E+00 -0.25365603400E+03  0.25365603405E+03  0.50400000000E-02 0. -1.
    5000001    1    1    2    0    0 -0.37067447503E+02 -0.37928981467E+03  0.13846573604E+03  0.43775851704E+03  0.16500000000E+03 0.  0.
   -5000001    1    1    2    0    0  0.37067447503E+02  0.37928981467E+03  0.31051864760E+03  0.51853793466E+03  0.16500000000E+03 0.  0.
<mgrwt>
<rscale>  0 0.84434349E+03</rscale>
<asrwt>0</asrwt>
<pdfrwt beam="1">  1        1 0.10809852E+00 0.84434349E+03</pdfrwt>
<pdfrwt beam="2">  1       -1 0.39024006E-01 0.84434349E+03</pdfrwt>
<totfact> 0.17417183E+02</totfact>
</mgrwt>
</event>
<event>
 4    1  0.2309632E-005  0.4014469E+03  0.7818608E-02  0.1043280E+00
          1   -1    0    0  501    0  0.00000000000E+00  0.00000000000E+00  0.13282956488E+04  0.13282956489E+04  0.50400000000E-02 0. -1.
         -1   -1    0    0    0  501 -0.00000000000E+00 -0.00000000000E+00 -0.30332037107E+02  0.30332037526E+02  0.50400000000E-02 0.  1.
    5000001    1    1    2    0    0  0.68844058916E+02  0.90775528706E+02  0.61774094184E+03  0.64946791475E+03  0.16500000000E+03 0.  0.
   -5000001    1    1    2    0    0 -0.68844058916E+02 -0.90775528706E+02  0.68022266990E+03  0.70915977163E+03  0.16500000000E+03 0.  0.
<mgrwt>
<rscale>  0 0.40144695E+03</rscale>
<asrwt>0</asrwt>
<pdfrwt beam="1">  1        1 0.20435313E+00 0.40144695E+03</pdfrwt>
<pdfrwt beam="2">  1       -1 0.46664683E-02 0.40144695E+03</pdfrwt>
<totfact> 0.18194238E+03</totfact>
</mgrwt>
</event>
<event>
 4    1  0.2309632E-005  0.3839420E+03  0.7818608E-02  0.1049486E+00
          1   -1    0    0  501    0  0.00000000000E+00  0.00000000000E+00  0.11629260261E+04  0.11629260261E+04  0.50400000000E-02 0.  1.
         -1   -1    0    0    0  501 -0.00000000000E+00 -0.00000000000E+00 -0.31689772117E+02  0.31689772518E+02  0.50400000000E-02 0. -1.
    5000001    1    1    2    0    0  0.36092610568E+02 -0.79298211042E+02  0.42518943743E+03  0.46432956024E+03  0.16500000000E+03 0.  0.
   -5000001    1    1    2    0    0 -0.36092610568E+02  0.79298211042E+02  0.70604681655E+03  0.73028623838E+03  0.16500000000E+03 0.  0.
<mgrwt>
<rscale>  0 0.38394198E+03</rscale>
<asrwt>0</asrwt>
<pdfrwt beam="1">  1        1 0.17891170E+00 0.38394198E+03</pdfrwt>
<pdfrwt beam="2">  1       -1 0.48753494E-02 0.38394198E+03</pdfrwt>
<totfact> 0.22250672E+03</totfact>
</mgrwt>
</event>
<event>
 4    1  0.2309632E-005  0.4263625E+03  0.7818608E-02  0.1035015E+00
         -1   -1    0    0    0  501 -0.00000000000E+00  0.00000000000E+00  0.25482151519E+03  0.25482151524E+03  0.50400000000E-02 0. -1.
          1   -1    0    0  501    0  0.00000000000E+00 -0.00000000000E+00 -0.17834538005E+03  0.17834538012E+03  0.50400000000E-02 0.  1.
    5000001    1    1    2    0    0 -0.87447543295E+02  0.95604316643E+02 -0.23422837341E+00  0.20979111767E+03  0.16500000000E+03 0.  0.
   -5000001    1    1    2    0    0  0.87447543295E+02 -0.95604316643E+02  0.76710363518E+02  0.22337577769E+03  0.16500000000E+03 0.  0.
<mgrwt>
<rscale>  0 0.42636247E+03</rscale>
<asrwt>0</asrwt>
<pdfrwt beam="1">  1        1 0.27437751E-01 0.42636247E+03</pdfrwt>
<pdfrwt beam="2">  1       -1 0.39203310E-01 0.42636247E+03</pdfrwt>
<totfact> 0.10915942E+03</totfact>
</mgrwt>
</event>
<event>
 4    1  0.2309632E-005  0.5141456E+03  0.7818608E-02  0.1010151E+00
          1   -1    0    0  501    0  0.00000000000E+00  0.00000000000E+00  0.21769466881E+03  0.21769466886E+03  0.50400000000E-02 0.  1.
         -1   -1    0    0    0  501 -0.00000000000E+00 -0.00000000000E+00 -0.30357397288E+03  0.30357397292E+03  0.50400000000E-02 0. -1.
    5000001    1    1    2    0    0 -0.16749185599E+03  0.46800171896E+02 -0.13705708149E+03  0.27614022072E+03  0.16500000000E+03 0.  0.
   -5000001    1    1    2    0    0  0.16749185599E+03 -0.46800171896E+02  0.51177777420E+02  0.24512842106E+03  0.16500000000E+03 0.  0.
<mgrwt>
<rscale>  0 0.51414564E+03</rscale>
<asrwt>0</asrwt>
<pdfrwt beam="1">  1        1 0.33491488E-01 0.51414564E+03</pdfrwt>
<pdfrwt beam="2">  1       -1 0.46703688E-01 0.51414564E+03</pdfrwt>
<totfact> 0.61383285E+02</totfact>
</mgrwt>
</event>
<event>
 4    1  0.2309632E-005  0.5454123E+03  0.7818608E-02  0.1002561E+00
         -1   -1    0    0    0  501 -0.00000000000E+00  0.00000000000E+00  0.24975708089E+03  0.24975708094E+03  0.50400000000E-02 0.  1.
          1   -1    0    0  501    0  0.00000000000E+00 -0.00000000000E+00 -0.29776391062E+03  0.29776391066E+03  0.50400000000E-02 0. -1.
    5000001    1    1    2    0    0  0.12836198942E+03  0.17039962009E+03 -0.64542887683E+02  0.27731501079E+03  0.16500000000E+03 0.  0.
   -5000001    1    1    2    0    0 -0.12836198942E+03 -0.17039962009E+03  0.16536057956E+02  0.27020598082E+03  0.16500000000E+03 0.  0.
<mgrwt>
<rscale>  0 0.54541230E+03</rscale>
<asrwt>0</asrwt>
<pdfrwt beam="1">  1        1 0.45809833E-01 0.54541230E+03</pdfrwt>
<pdfrwt beam="2">  1       -1 0.38424166E-01 0.54541230E+03</pdfrwt>
<totfact> 0.58589972E+02</totfact>
</mgrwt>
</event>
<event>
 4    1  0.2309632E-005  0.3630490E+03  0.7818608E-02  0.1057383E+00
         -1   -1    0    0    0  501 -0.00000000000E+00  0.00000000000E+00  0.14434749223E+02  0.14434750102E+02  0.50400000000E-02 0. -1.
          1   -1    0    0  501    0  0.00000000000E+00 -0.00000000000E+00 -0.22827651987E+04  0.22827651987E+04  0.50400000000E-02 0.  1.
    5000001    1    1    2    0    0 -0.32965582787E+02  0.20857483665E+02 -0.15444491757E+04  0.15537277820E+04  0.16500000000E+03 0.  0.
   -5000001    1    1    2    0    0  0.32965582787E+02 -0.20857483665E+02 -0.72388127371E+03  0.74347216672E+03  0.16500000000E+03 0.  0.
<mgrwt>
<rscale>  0 0.36304900E+03</rscale>
<asrwt>0</asrwt>
<pdfrwt beam="1">  1        1 0.35119436E+00 0.36304900E+03</pdfrwt>
<pdfrwt beam="2">  1       -1 0.22207325E-02 0.36304900E+03</pdfrwt>
<totfact> 0.12874770E+03</totfact>
</mgrwt>
</event>
<event>
 4    1  0.2309632E-005  0.4968273E+03  0.7818608E-02  0.1014610E+00
          1   -1    0    0  501    0  0.00000000000E+00  0.00000000000E+00  0.71490109367E+02  0.71490109545E+02  0.50400000000E-02 0.  1.
         -1   -1    0    0    0  501 -0.00000000000E+00 -0.00000000000E+00 -0.86318704477E+03  0.86318704478E+03  0.50400000000E-02 0. -1.
    5000001    1    1    2    0    0  0.18552506070E+03  0.50296436038E+01 -0.40767083669E+03  0.47735244480E+03  0.16500000000E+03 0.  0.
   -5000001    1    1    2    0    0 -0.18552506070E+03 -0.50296436038E+01 -0.38402609870E+03  0.45732470953E+03  0.16500000000E+03 0.  0.
<mgrwt>
<rscale>  0 0.49682728E+03</rscale>
<asrwt>0</asrwt>
<pdfrwt beam="1">  1        1 0.10998479E-01 0.49682728E+03</pdfrwt>
<pdfrwt beam="2">  1       -1 0.13279800E+00 0.49682728E+03</pdfrwt>
<totfact> 0.28914217E+02</totfact>
</mgrwt>
</event>
<event>
 4    1  0.2309632E-005  0.1880131E+04  0.7818608E-02  0.8664810E-01
         -1   -1    0    0    0  501 -0.00000000000E+00  0.00000000000E+00  0.68247101419E+03  0.68247101421E+03  0.50400000000E-02 0. -1.
          1   -1    0    0  501    0  0.00000000000E+00 -0.00000000000E+00 -0.12948879063E+04  0.12948879063E+04  0.50400000000E-02 0.  1.
    5000001    1    1    2    0    0 -0.11492239531E+02  0.91308193842E+03 -0.46448259699E+03  0.10376992728E+04  0.16500000000E+03 0.  0.
   -5000001    1    1    2    0    0  0.11492239531E+02 -0.91308193842E+03 -0.14793429507E+03  0.93965964769E+03  0.16500000000E+03 0.  0.
<mgrwt>
<rscale>  0 0.18801313E+04</rscale>
<asrwt>0</asrwt>
<pdfrwt beam="1">  1        1 0.19921352E+00 0.18801313E+04</pdfrwt>
<pdfrwt beam="2">  1       -1 0.10499554E+00 0.18801313E+04</pdfrwt>
<totfact> 0.72796813E+00</totfact>
</mgrwt>
</event>
<event>
 4    1  0.2309632E-005  0.4000137E+03  0.7818608E-02  0.1043775E+00
         -1   -1    0    0    0  501 -0.00000000000E+00  0.00000000000E+00  0.29467691510E+03  0.29467691514E+03  0.50400000000E-02 0. -1.
          1   -1    0    0  501    0  0.00000000000E+00 -0.00000000000E+00 -0.13575120540E+03  0.13575120549E+03  0.50400000000E-02 0.  1.
    5000001    1    1    2    0    0  0.18550752984E+02  0.11112556050E+03  0.89367379467E+02  0.21887107882E+03  0.16500000000E+03 0.  0.
   -5000001    1    1    2    0    0 -0.18550752984E+02 -0.11112556050E+03  0.69558330235E+02  0.21155704181E+03  0.16500000000E+03 0.  0.
<mgrwt>
<rscale>  0 0.40001373E+03</rscale>
<asrwt>0</asrwt>
<pdfrwt beam="1">  1        1 0.20884801E-01 0.40001373E+03</pdfrwt>
<pdfrwt beam="2">  1       -1 0.45334910E-01 0.40001373E+03</pdfrwt>
<totfact> 0.11936886E+03</totfact>
</mgrwt>
</event>
<event>
 4    1  0.2309632E-005  0.6125690E+03  0.7818608E-02  0.9879667E-01
          1   -1    0    0  501    0  0.00000000000E+00  0.00000000000E+00  0.32224733860E+03  0.32224733864E+03  0.50400000000E-02 0.  1.
         -1   -1    0    0    0  501 -0.00000000000E+00 -0.00000000000E+00 -0.29111239331E+03  0.29111239336E+03  0.50400000000E-02 0. -1.
    5000001    1    1    2    0    0 -0.22459614144E+03  0.12701280291E+03  0.18656118758E+02  0.30683664973E+03  0.16500000000E+03 0.  0.
   -5000001    1    1    2    0    0  0.22459614144E+03 -0.12701280291E+03  0.12478826532E+02  0.30652308227E+03  0.16500000000E+03 0.  0.
<mgrwt>
<rscale>  0 0.61256900E+03</rscale>
<asrwt>0</asrwt>
<pdfrwt beam="1">  1        1 0.49576514E-01 0.61256900E+03</pdfrwt>
<pdfrwt beam="2">  1       -1 0.44786522E-01 0.61256900E+03</pdfrwt>
<totfact> 0.39952486E+02</totfact>
</mgrwt>
</event>
<event>
 4    1  0.2309632E-005  0.4047559E+03  0.7818608E-02  0.1042145E+00
          1   -1    0    0  501    0  0.00000000000E+00  0.00000000000E+00  0.49467783133E+03  0.49467783136E+03  0.50400000000E-02 0.  1.
         -1   -1    0    0    0  501 -0.00000000000E+00 -0.00000000000E+00 -0.82794949975E+02  0.82794950129E+02  0.50400000000E-02 0. -1.
    5000001    1    1    2    0    0  0.44960391191E+02 -0.66775191391E+02  0.84448455163E+02  0.20208143047E+03  0.16500000000E+03 0.  0.
   -5000001    1    1    2    0    0 -0.44960391191E+02  0.66775191391E+02  0.32743442619E+03  0.37539135102E+03  0.16500000000E+03 0.  0.
<mgrwt>
<rscale>  0 0.40475586E+03</rscale>
<asrwt>0</asrwt>
<pdfrwt beam="1">  1        1 0.76104281E-01 0.40475586E+03</pdfrwt>
<pdfrwt beam="2">  1       -1 0.12737685E-01 0.40475586E+03</pdfrwt>
<totfact> 0.19177986E+03</totfact>
</mgrwt>
</event>
<event>
 4    1  0.2309632E-005  0.5186937E+03  0.7818608E-02  0.1009012E+00
          1   -1    0    0  501    0  0.00000000000E+00  0.00000000000E+00  0.93326307704E+03  0.93326307705E+03  0.50400000000E-02 0.  1.
         -1   -1    0    0    0  501 -0.00000000000E+00 -0.00000000000E+00 -0.72070549759E+02  0.72070549935E+02  0.50400000000E-02 0. -1.
    5000001    1    1    2    0    0 -0.16822877166E+03 -0.56843956489E+02  0.60932788032E+03  0.65577253735E+03  0.16500000000E+03 0.  0.
   -5000001    1    1    2    0    0  0.16822877166E+03  0.56843956489E+02  0.25186464695E+03  0.34956108964E+03  0.16500000000E+03 0.  0.
<mgrwt>
<rscale>  0 0.51869368E+03</rscale>
<asrwt>0</asrwt>
<pdfrwt beam="1">  1        1 0.14357893E+00 0.51869368E+03</pdfrwt>
<pdfrwt beam="2">  1       -1 0.11087777E-01 0.51869368E+03</pdfrwt>
<totfact> 0.92719668E+02</totfact>
</mgrwt>
</event>
<event>
 4    1  0.2309632E-005  0.3797065E+03  0.7818608E-02  0.1051042E+00
          1   -1    0    0  501    0  0.00000000000E+00  0.00000000000E+00  0.40134035044E+03  0.40134035047E+03  0.50400000000E-02 0.  1.
         -1   -1    0    0    0  501 -0.00000000000E+00 -0.00000000000E+00 -0.89809696696E+02  0.89809696837E+02  0.50400000000E-02 0. -1.
    5000001    1    1    2    0    0 -0.85195554770E+02  0.36783348245E+02  0.17441855090E+03  0.25740654257E+03  0.16500000000E+03 0.  0.
   -5000001    1    1    2    0    0  0.85195554770E+02 -0.36783348245E+02  0.13711210285E+03  0.23374350474E+03  0.16500000000E+03 0.  0.
<mgrwt>
<rscale>  0 0.37970649E+03</rscale>
<asrwt>0</asrwt>
<pdfrwt beam="1">  1        1 0.61744670E-01 0.37970649E+03</pdfrwt>
<pdfrwt beam="2">  1       -1 0.13816876E-01 0.37970649E+03</pdfrwt>
<totfact> 0.22198321E+03</totfact>
</mgrwt>
</event>
<event>
 4    1  0.2309632E-005  0.5561509E+03  0.7818608E-02  0.1000080E+00
         -1   -1    0    0    0  501 -0.00000000000E+00  0.00000000000E+00  0.32462817091E+03  0.32462817094E+03  0.50400000000E-02 0.  1.
          1   -1    0    0  501    0  0.00000000000E+00 -0.00000000000E+00 -0.23819855134E+03  0.23819855140E+03  0.50400000000E-02 0. -1.
    5000001    1    1    2    0    0 -0.22323565119E+03  0.15470943463E+02  0.37912257986E+02  0.28059908296E+03  0.16500000000E+03 0.  0.
   -5000001    1    1    2    0    0  0.22323565119E+03 -0.15470943463E+02  0.48517361577E+02  0.28222763938E+03  0.16500000000E+03 0.  0.
<mgrwt>
<rscale>  0 0.55615091E+03</rscale>
<asrwt>0</asrwt>
<pdfrwt beam="1">  1        1 0.36645931E-01 0.55615091E+03</pdfrwt>
<pdfrwt beam="2">  1       -1 0.49942795E-01 0.55615091E+03</pdfrwt>
<totfact> 0.48197393E+02</totfact>
</mgrwt>
</event>
<event>
 4    1  0.2309632E-005  0.7157688E+03  0.7818608E-02  0.9690639E-01
          1   -1    0    0  501    0  0.00000000000E+00  0.00000000000E+00  0.16121527595E+04  0.16121527595E+04  0.50400000000E-02 0.  1.
         -1   -1    0    0    0  501 -0.00000000000E+00 -0.00000000000E+00 -0.79447326844E+02  0.79447327004E+02  0.50400000000E-02 0. -1.
    5000001    1    1    2    0    0 -0.23621189692E+02  0.31257639878E+03  0.88672648368E+03  0.95486691352E+03  0.16500000000E+03 0.  0.
   -5000001    1    1    2    0    0  0.23621189692E+02 -0.31257639878E+03  0.64597894902E+03  0.73673317303E+03  0.16500000000E+03 0.  0.
<mgrwt>
<rscale>  0 0.71576875E+03</rscale>
<asrwt>0</asrwt>
<pdfrwt beam="1">  1        1 0.24802350E+00 0.71576875E+03</pdfrwt>
<pdfrwt beam="2">  1       -1 0.12222666E-01 0.71576875E+03</pdfrwt>
<totfact> 0.25652202E+02</totfact>
</mgrwt>
</event>
<event>
 4    1  0.2309632E-005  0.3834268E+03  0.7818608E-02  0.1049674E+00
          1   -1    0    0  501    0  0.00000000000E+00  0.00000000000E+00  0.89124322928E+03  0.89124322930E+03  0.50400000000E-02 0.  1.
         -1   -1    0    0    0  501 -0.00000000000E+00 -0.00000000000E+00 -0.41239044435E+02  0.41239044743E+02  0.50400000000E-02 0. -1.
    5000001    1    1    2    0    0  0.68538385222E+02 -0.68891283760E+02  0.40251458212E+03  0.44574264777E+03  0.16500000000E+03 0.  0.
   -5000001    1    1    2    0    0 -0.68538385222E+02  0.68891283760E+02  0.44748960273E+03  0.48673962627E+03  0.16500000000E+03 0.  0.
<mgrwt>
<rscale>  0 0.38342676E+03</rscale>
<asrwt>0</asrwt>
<pdfrwt beam="1">  1        1 0.13711434E+00 0.38342676E+03</pdfrwt>
<pdfrwt beam="2">  1       -1 0.63444684E-02 0.38342676E+03</pdfrwt>
<totfact> 0.23879147E+03</totfact>
</mgrwt>
</event>
<event>
 4    1  0.2309632E-005  0.1462293E+04  0.7818608E-02  0.8909922E-01
          1   -1    0    0  501    0  0.00000000000E+00  0.00000000000E+00  0.10620944580E+04  0.10620944580E+04  0.50400000000E-02 0. -1.
         -1   -1    0    0    0  501 -0.00000000000E+00 -0.00000000000E+00 -0.50332168663E+03  0.50332168665E+03  0.50400000000E-02 0.  1.
    5000001    1    1    2    0    0  0.68412635467E+03 -0.19829438955E+03  0.28024273907E+03  0.78301374629E+03  0.16500000000E+03 0.  0.
   -5000001    1    1    2    0    0 -0.68412635467E+03  0.19829438955E+03  0.27853003229E+03  0.78240239837E+03  0.16500000000E+03 0.  0.
<mgrwt>
<rscale>  0 0.14622930E+04</rscale>
<asrwt>0</asrwt>
<pdfrwt beam="1">  1        1 0.16339915E+00 0.14622930E+04</pdfrwt>
<pdfrwt beam="2">  1       -1 0.77434106E-01 0.14622930E+04</pdfrwt>
<totfact> 0.21977566E+01</totfact>
</mgrwt>
</event>
<event>
 4    1  0.2309632E-005  0.5357245E+03  0.7818608E-02  0.1004853E+00
         -1   -1    0    0    0  501 -0.00000000000E+00  0.00000000000E+00  0.15031649888E+03  0.15031649897E+03  0.50400000000E-02 0. -1.
          1   -1    0    0  501    0  0.00000000000E+00 -0.00000000000E+00 -0.47732738527E+03  0.47732738530E+03  0.50400000000E-02 0.  1.
    5000001    1    1    2    0    0 -0.18669413431E+03  0.42833962335E+02 -0.26721329222E+03  0.36785512318E+03  0.16500000000E+03 0.  0.
   -5000001    1    1    2    0    0  0.18669413431E+03 -0.42833962335E+02 -0.59797594169E+02  0.25978876108E+03  0.16500000000E+03 0.  0.
<mgrwt>
<rscale>  0 0.53572449E+03</rscale>
<asrwt>0</asrwt>
<pdfrwt beam="1">  1        1 0.73434982E-01 0.53572449E+03</pdfrwt>
<pdfrwt beam="2">  1       -1 0.23125615E-01 0.53572449E+03</pdfrwt>
<totfact> 0.76119533E+02</totfact>
</mgrwt>
</event>
<event>
 4    1  0.2309632E-005  0.5736750E+03  0.7818608E-02  0.9961579E-01
          1   -1    0    0  501    0  0.00000000000E+00  0.00000000000E+00  0.62030488287E+03  0.62030488289E+03  0.50400000000E-02 0.  1.
         -1   -1    0    0    0  501 -0.00000000000E+00 -0.00000000000E+00 -0.13263761127E+03  0.13263761137E+03  0.50400000000E-02 0. -1.
    5000001    1    1    2    0    0  0.18956687668E+03 -0.10577845234E+03  0.36068263306E+03  0.45215223488E+03  0.16500000000E+03 0.  0.
   -5000001    1    1    2    0    0 -0.18956687668E+03  0.10577845234E+03  0.12698463853E+03  0.30079025938E+03  0.16500000000E+03 0.  0.
<mgrwt>
<rscale>  0 0.57367502E+03</rscale>
<asrwt>0</asrwt>
<pdfrwt beam="1">  1        1 0.95431522E-01 0.57367502E+03</pdfrwt>
<pdfrwt beam="2">  1       -1 0.20405786E-01 0.57367502E+03</pdfrwt>
<totfact> 0.65094722E+02</totfact>
</mgrwt>
</event>
<event>
 4    1  0.2309632E-005  0.4859169E+03  0.7818608E-02  0.1017522E+00
         -1   -1    0    0    0  501 -0.00000000000E+00  0.00000000000E+00  0.24982840303E+02  0.24982840812E+02  0.50400000000E-02 0. -1.
          1   -1    0    0  501    0  0.00000000000E+00 -0.00000000000E+00 -0.23627738821E+04  0.23627738821E+04  0.50400000000E-02 0.  1.
    5000001    1    1    2    0    0 -0.12728993581E+03 -0.44248646550E+02 -0.17428601685E+04  0.17558323489E+04  0.16500000000E+03 0.  0.
   -5000001    1    1    2    0    0  0.12728993581E+03  0.44248646550E+02 -0.59493087325E+03  0.63192437397E+03  0.16500000000E+03 0.  0.
<mgrwt>
<rscale>  0 0.48591688E+03</rscale>
<asrwt>0</asrwt>
<pdfrwt beam="1">  1        1 0.36350350E+00 0.48591688E+03</pdfrwt>
<pdfrwt beam="2">  1       -1 0.38435158E-02 0.48591688E+03</pdfrwt>
<totfact> 0.49658701E+02</totfact>
</mgrwt>
</event>
<event>
 4    1  0.2309632E-005  0.3640120E+03  0.7818608E-02  0.1057006E+00
          1   -1    0    0  501    0  0.00000000000E+00  0.00000000000E+00  0.14607867189E+04  0.14607867189E+04  0.50400000000E-02 0. -1.
         -1   -1    0    0    0  501 -0.00000000000E+00 -0.00000000000E+00 -0.22676947835E+02  0.22676948395E+02  0.50400000000E-02 0.  1.
    5000001    1    1    2    0    0  0.58264379712E+02 -0.48096040800E+02  0.77570287591E+03  0.79664792649E+03  0.16500000000E+03 0.  0.
   -5000001    1    1    2    0    0 -0.58264379712E+02  0.48096040800E+02  0.66240689517E+03  0.68681574083E+03  0.16500000000E+03 0.  0.
<mgrwt>
<rscale>  0 0.36401200E+03</rscale>
<asrwt>0</asrwt>
<pdfrwt beam="1">  1        1 0.22473642E+00 0.36401200E+03</pdfrwt>
<pdfrwt beam="2">  1       -1 0.34887613E-02 0.36401200E+03</pdfrwt>
<totfact> 0.22905241E+03</totfact>
</mgrwt>
</event>
<event>
 4    1  0.2309632E-005  0.6239829E+03  0.7818608E-02  0.9856862E-01
         -1   -1    0    0    0  501 -0.00000000000E+00  0.00000000000E+00  0.88824007139E+02  0.88824007282E+02  0.50400000000E-02 0. -1.
          1   -1    0    0  501    0  0.00000000000E+00 -0.00000000000E+00 -0.10958597026E+04  0.10958597026E+04  0.50400000000E-02 0.  1.
    5000001    1    1    2    0    0 -0.55544332233E+02  0.17486931933E+03 -0.86598925381E+03  0.90045923806E+03  0.16500000000E+03 0.  0.
   -5000001    1    1    2    0    0  0.55544332233E+02 -0.17486931933E+03 -0.14104644165E+03  0.28422447183E+03  0.16500000000E+03 0.  0.
<mgrwt>
<rscale>  0 0.62398285E+03</rscale>
<asrwt>0</asrwt>
<pdfrwt beam="1">  1        1 0.16859379E+00 0.62398285E+03</pdfrwt>
<pdfrwt beam="2">  1       -1 0.13665233E-01 0.62398285E+03</pdfrwt>
<totfact> 0.49660312E+02</totfact>
</mgrwt>
</event>
<event>
 4    1  0.2309632E-005  0.4730734E+03  0.7818608E-02  0.1021056E+00
         -1   -1    0    0    0  501 -0.00000000000E+00  0.00000000000E+00  0.73599401215E+02  0.73599401388E+02  0.50400000000E-02 0. -1.
          1   -1    0    0  501    0  0.00000000000E+00 -0.00000000000E+00 -0.76019098876E+03  0.76019098877E+03  0.50400000000E-02 0.  1.
    5000001    1    1    2    0    0 -0.13600151519E+03 -0.95686789716E+02 -0.28558302339E+03  0.36937113735E+03  0.16500000000E+03 0.  0.
   -5000001    1    1    2    0    0  0.13600151519E+03  0.95686789716E+02 -0.40100856415E+03  0.46441925281E+03  0.16500000000E+03 0.  0.
<mgrwt>
<rscale>  0 0.47307336E+03</rscale>
<asrwt>0</asrwt>
<pdfrwt beam="1">  1        1 0.11695245E+00 0.47307336E+03</pdfrwt>
<pdfrwt beam="2">  1       -1 0.11322985E-01 0.47307336E+03</pdfrwt>
<totfact> 0.12503303E+03</totfact>
</mgrwt>
</event>
<event>
 4    1  0.2309632E-005  0.6239614E+03  0.7818608E-02  0.9856904E-01
          1   -1    0    0  501    0  0.00000000000E+00  0.00000000000E+00  0.12162484668E+03  0.12162484679E+03  0.50400000000E-02 0. -1.
         -1   -1    0    0    0  501 -0.00000000000E+00 -0.00000000000E+00 -0.80026384686E+03  0.80026384688E+03  0.50400000000E-02 0.  1.
    5000001    1    1    2    0    0 -0.15934174443E+03  0.11480460727E+03 -0.76939051682E+02  0.26779564418E+03  0.16500000000E+03 0.  0.
   -5000001    1    1    2    0    0  0.15934174443E+03 -0.11480460727E+03 -0.60169994850E+03  0.65409304949E+03  0.16500000000E+03 0.  0.
<mgrwt>
<rscale>  0 0.62396143E+03</rscale>
<asrwt>0</asrwt>
<pdfrwt beam="1">  1        1 0.18711515E-01 0.62396143E+03</pdfrwt>
<pdfrwt beam="2">  1       -1 0.12311751E+00 0.62396143E+03</pdfrwt>
<totfact> 0.16984536E+02</totfact>
</mgrwt>
</event>
<event>
 4    1  0.2309632E-005  0.3759606E+03  0.7818608E-02  0.1052437E+00
         -1   -1    0    0    0  501 -0.00000000000E+00  0.00000000000E+00  0.11101478713E+04  0.11101478713E+04  0.50400000000E-02 0. -1.
          1   -1    0    0  501    0  0.00000000000E+00 -0.00000000000E+00 -0.31830524687E+02  0.31830525086E+02  0.50400000000E-02 0.  1.
    5000001    1    1    2    0    0  0.84243979173E+02  0.15155270855E+02  0.62425512527E+03  0.65134183935E+03  0.16500000000E+03 0.  0.
   -5000001    1    1    2    0    0 -0.84243979173E+02 -0.15155270855E+02  0.45406222136E+03  0.49063655706E+03  0.16500000000E+03 0.  0.
<mgrwt>
<rscale>  0 0.37596058E+03</rscale>
<asrwt>0</asrwt>
<pdfrwt beam="1">  1        1 0.48970040E-02 0.37596058E+03</pdfrwt>
<pdfrwt beam="2">  1       -1 0.17079198E+00 0.37596058E+03</pdfrwt>
<totfact> 0.45495607E+02</totfact>
</mgrwt>
</event>
<event>
 4    1  0.2309632E-005  0.4142922E+03  0.7818608E-02  0.1038940E+00
         -1   -1    0    0    0  501 -0.00000000000E+00  0.00000000000E+00  0.34909963273E+03  0.34909963276E+03  0.50400000000E-02 0. -1.
          1   -1    0    0  501    0  0.00000000000E+00 -0.00000000000E+00 -0.12291477989E+03  0.12291477999E+03  0.50400000000E-02 0.  1.
    5000001    1    1    2    0    0 -0.60489626445E+02 -0.51870017333E+02  0.22317179502E+03  0.28875620114E+03  0.16500000000E+03 0.  0.
   -5000001    1    1    2    0    0  0.60489626445E+02  0.51870017333E+02  0.30130578226E+01  0.18325821161E+03  0.16500000000E+03 0.  0.
<mgrwt>
<rscale>  0 0.41429219E+03</rscale>
<asrwt>0</asrwt>
<pdfrwt beam="1">  1        1 0.18909966E-01 0.41429219E+03</pdfrwt>
<pdfrwt beam="2">  1       -1 0.53707635E-01 0.41429219E+03</pdfrwt>
<totfact> 0.99096084E+02</totfact>
</mgrwt>
</event>
<event>
 4    1  0.2309632E-005  0.5053212E+03  0.7818608E-02  0.1012399E+00
          1   -1    0    0  501    0  0.00000000000E+00  0.00000000000E+00  0.23715786162E+04  0.23715786162E+04  0.50400000000E-02 0.  1.
         -1   -1    0    0    0  501 -0.00000000000E+00 -0.00000000000E+00 -0.26917676203E+02  0.26917676675E+02  0.50400000000E-02 0. -1.
    5000001    1    1    2    0    0  0.16076798845E+03 -0.90284626360E+02  0.92962218566E+03  0.96198756122E+03  0.16500000000E+03 0.  0.
   -5000001    1    1    2    0    0 -0.16076798845E+03  0.90284626360E+02  0.14150387544E+04  0.14365087317E+04  0.16500000000E+03 0.  0.
<mgrwt>
<rscale>  0 0.50532123E+03</rscale>
<asrwt>0</asrwt>
<pdfrwt beam="1">  1        1 0.36485836E+00 0.50532123E+03</pdfrwt>
<pdfrwt beam="2">  1       -1 0.41411798E-02 0.50532123E+03</pdfrwt>
<totfact> 0.43680939E+02</totfact>
</mgrwt>
</event>
<event>
 4    1  0.2309632E-005  0.4742566E+03  0.7818608E-02  0.1020726E+00
         -1   -1    0    0    0  501 -0.00000000000E+00  0.00000000000E+00  0.21584141947E+03  0.21584141953E+03  0.50400000000E-02 0.  1.
          1   -1    0    0  501    0  0.00000000000E+00 -0.00000000000E+00 -0.26051453247E+03  0.26051453252E+03  0.50400000000E-02 0. -1.
    5000001    1    1    2    0    0 -0.11737832048E+03 -0.12314668720E+03 -0.14424516268E+02  0.23743597738E+03  0.16500000000E+03 0.  0.
   -5000001    1    1    2    0    0  0.11737832048E+03  0.12314668720E+03 -0.30248596734E+02  0.23891997466E+03  0.16500000000E+03 0.  0.
<mgrwt>
<rscale>  0 0.47425658E+03</rscale>
<asrwt>0</asrwt>
<pdfrwt beam="1">  1        1 0.40079159E-01 0.47425658E+03</pdfrwt>
<pdfrwt beam="2">  1       -1 0.33206372E-01 0.47425658E+03</pdfrwt>
<totfact> 0.90156113E+02</totfact>
</mgrwt>
</event>
<event>
 4    1  0.2309632E-005  0.7710451E+03  0.7818608E-02  0.9602900E-01
         -1   -1    0    0    0  501 -0.00000000000E+00  0.00000000000E+00  0.22270694429E+03  0.22270694435E+03  0.50400000000E-02 0.  1.
          1   -1    0    0  501    0  0.00000000000E+00 -0.00000000000E+00 -0.66736867480E+03  0.66736867482E+03  0.50400000000E-02 0. -1.
    5000001    1    1    2    0    0  0.22744547652E+03 -0.22043176653E+03 -0.38993820473E+03  0.52877066105E+03  0.16500000000E+03 0.  0.
   -5000001    1    1    2    0    0 -0.22744547652E+03  0.22043176653E+03 -0.54723525784E+02  0.36130495812E+03  0.16500000000E+03 0.  0.
<mgrwt>
<rscale>  0 0.77104510E+03</rscale>
<asrwt>0</asrwt>
<pdfrwt beam="1">  1        1 0.10267210E+00 0.77104510E+03</pdfrwt>
<pdfrwt beam="2">  1       -1 0.34262607E-01 0.77104510E+03</pdfrwt>
<totfact> 0.23860690E+02</totfact>
</mgrwt>
</event>
<event>
 4    1  0.2309632E-005  0.7260925E+03  0.7818608E-02  0.9673622E-01
          1   -1    0    0  501    0  0.00000000000E+00  0.00000000000E+00  0.10809154901E+03  0.10809154912E+03  0.50400000000E-02 0.  1.
         -1   -1    0    0    0  501 -0.00000000000E+00 -0.00000000000E+00 -0.12193607344E+04  0.12193607344E+04  0.50400000000E-02 0. -1.
    5000001    1    1    2    0    0 -0.22898886801E+03  0.88988936464E+02 -0.94009300840E+03  0.98557333412E+03  0.16500000000E+03 0.  0.
   -5000001    1    1    2    0    0  0.22898886801E+03 -0.88988936464E+02 -0.17117617700E+03  0.34187894942E+03  0.16500000000E+03 0.  0.
<mgrwt>
<rscale>  0 0.72609253E+03</rscale>
<asrwt>0</asrwt>
<pdfrwt beam="1">  1        1 0.16629470E-01 0.72609253E+03</pdfrwt>
<pdfrwt beam="2">  1       -1 0.18759395E+00 0.72609253E+03</pdfrwt>
<totfact> 0.63072458E+01</totfact>
</mgrwt>
</event>
<event>
 4    1  0.2309632E-005  0.5020039E+03  0.7818608E-02  0.1013257E+00
          1   -1    0    0  501    0  0.00000000000E+00  0.00000000000E+00  0.55089588300E+03  0.55089588302E+03  0.50400000000E-02 0. -1.
         -1   -1    0    0    0  501 -0.00000000000E+00 -0.00000000000E+00 -0.11436277684E+03  0.11436277695E+03  0.50400000000E-02 0.  1.
    5000001    1    1    2    0    0 -0.17667108469E+03 -0.34093941170E+02  0.29556043078E+03  0.38334845406E+03  0.16500000000E+03 0.  0.
   -5000001    1    1    2    0    0  0.17667108469E+03  0.34093941170E+02  0.14097267538E+03  0.28191020591E+03  0.16500000000E+03 0.  0.
<mgrwt>
<rscale>  0 0.50200392E+03</rscale>
<asrwt>0</asrwt>
<pdfrwt beam="1">  1        1 0.84753214E-01 0.50200392E+03</pdfrwt>
<pdfrwt beam="2">  1       -1 0.17594273E-01 0.50200392E+03</pdfrwt>
<totfact> 0.98439933E+02</totfact>
</mgrwt>
</event>
<event>
 4    1  0.2309632E-005  0.5192910E+03  0.7818608E-02  0.1008863E+00
          1   -1    0    0  501    0  0.00000000000E+00  0.00000000000E+00  0.31198258996E+03  0.31198259000E+03  0.50400000000E-02 0. -1.
         -1   -1    0    0    0  501 -0.00000000000E+00 -0.00000000000E+00 -0.21608826222E+03  0.21608826228E+03  0.50400000000E-02 0.  1.
    5000001    1    1    2    0    0  0.12852385825E+03 -0.22662645238E+02 -0.10680596593E+03  0.23593323629E+03  0.16500000000E+03 0.  0.
   -5000001    1    1    2    0    0 -0.12852385825E+03  0.22662645238E+02  0.20270029367E+03  0.29213761600E+03  0.16500000000E+03 0.  0.
<mgrwt>
<rscale>  0 0.51929096E+03</rscale>
<asrwt>0</asrwt>
<pdfrwt beam="1">  1        1 0.47997321E-01 0.51929096E+03</pdfrwt>
<pdfrwt beam="2">  1       -1 0.33244348E-01 0.51929096E+03</pdfrwt>
<totfact> 0.71374572E+02</totfact>
</mgrwt>
</event>
<event>
 4    1  0.2309632E-005  0.4592784E+03  0.7818608E-02  0.1024991E+00
          1   -1    0    0  501    0  0.00000000000E+00  0.00000000000E+00  0.15935902485E+04  0.15935902485E+04  0.50400000000E-02 0.  1.
         -1   -1    0    0    0  501 -0.00000000000E+00 -0.00000000000E+00 -0.33091416902E+02  0.33091417286E+02  0.50400000000E-02 0. -1.
    5000001    1    1    2    0    0  0.15503749639E+03  0.92368474297E+00  0.91612249618E+03  0.94368580920E+03  0.16500000000E+03 0.  0.
   -5000001    1    1    2    0    0 -0.15503749639E+03 -0.92368474297E+00  0.64437633544E+03  0.68299585661E+03  0.16500000000E+03 0.  0.
<mgrwt>
<rscale>  0 0.45927839E+03</rscale>
<asrwt>0</asrwt>
<pdfrwt beam="1">  1        1 0.24516769E+00 0.45927839E+03</pdfrwt>
<pdfrwt beam="2">  1       -1 0.50909881E-02 0.45927839E+03</pdfrwt>
<totfact> 0.10516153E+03</totfact>
</mgrwt>
</event>
<event>
 4    1  0.2309632E-005  0.5216710E+03  0.7818608E-02  0.1008272E+00
         -1   -1    0    0    0  501 -0.00000000000E+00  0.00000000000E+00  0.80298839611E+02  0.80298839769E+02  0.50400000000E-02 0. -1.
          1   -1    0    0  501    0  0.00000000000E+00 -0.00000000000E+00 -0.84727435842E+03  0.84727435844E+03  0.50400000000E-02 0.  1.
    5000001    1    1    2    0    0  0.10353502790E+03  0.79357732671E+02 -0.65775636364E+03  0.69056903033E+03  0.16500000000E+03 0.  0.
   -5000001    1    1    2    0    0 -0.10353502790E+03 -0.79357732671E+02 -0.10921915517E+03  0.23700416788E+03  0.16500000000E+03 0.  0.
<mgrwt>
<rscale>  0 0.52167096E+03</rscale>
<asrwt>0</asrwt>
<pdfrwt beam="1">  1        1 0.13034989E+00 0.52167096E+03</pdfrwt>
<pdfrwt beam="2">  1       -1 0.12353668E-01 0.52167096E+03</pdfrwt>
<totfact> 0.91667936E+02</totfact>
</mgrwt>
</event>
<event>
 4    1  0.2309632E-005  0.7292505E+03  0.7818608E-02  0.9668477E-01
         -1   -1    0    0    0  501 -0.00000000000E+00  0.00000000000E+00  0.31156573615E+03  0.31156573619E+03  0.50400000000E-02 0. -1.
          1   -1    0    0  501    0  0.00000000000E+00 -0.00000000000E+00 -0.42672079248E+03  0.42672079251E+03  0.50400000000E-02 0.  1.
    5000001    1    1    2    0    0  0.18989806134E+03 -0.17633069868E+03  0.14125558871E+03  0.33813004945E+03  0.16500000000E+03 0.  0.
   -5000001    1    1    2    0    0 -0.18989806134E+03  0.17633069868E+03 -0.25641064504E+03  0.40015647925E+03  0.16500000000E+03 0.  0.
<mgrwt>
<rscale>  0 0.72925051E+03</rscale>
<asrwt>0</asrwt>
<pdfrwt beam="1">  1        1 0.65649353E-01 0.72925051E+03</pdfrwt>
<pdfrwt beam="2">  1       -1 0.47933190E-01 0.72925051E+03</pdfrwt>
<totfact> 0.24239589E+02</totfact>
</mgrwt>
</event>
<event>
 4    1  0.2309632E-005  0.6066944E+03  0.7818608E-02  0.9891614E-01
          1   -1    0    0  501    0  0.00000000000E+00  0.00000000000E+00  0.30085519673E+03  0.30085519677E+03  0.50400000000E-02 0.  1.
         -1   -1    0    0    0  501 -0.00000000000E+00 -0.00000000000E+00 -0.30585985032E+03  0.30585985036E+03  0.50400000000E-02 0. -1.
    5000001    1    1    2    0    0 -0.13812002620E+03 -0.14970970333E+03  0.15016061680E+03  0.30209824187E+03  0.16500000000E+03 0.  0.
   -5000001    1    1    2    0    0  0.13812002620E+03  0.14970970333E+03 -0.15516527039E+03  0.30461680525E+03  0.16500000000E+03 0.  0.
<mgrwt>
<rscale>  0 0.60669441E+03</rscale>
<asrwt>0</asrwt>
<pdfrwt beam="1">  1        1 0.46285415E-01 0.60669441E+03</pdfrwt>
<pdfrwt beam="2">  1       -1 0.47055361E-01 0.60669441E+03</pdfrwt>
<totfact> 0.39844233E+02</totfact>
</mgrwt>
</event>
<event>
 4    1  0.2309632E-005  0.3602450E+03  0.7818608E-02  0.1058487E+00
         -1   -1    0    0    0  501 -0.00000000000E+00  0.00000000000E+00  0.20595509497E+02  0.20595510113E+02  0.50400000000E-02 0. -1.
          1   -1    0    0  501    0  0.00000000000E+00 -0.00000000000E+00 -0.15753004105E+04  0.15753004105E+04  0.50400000000E-02 0.  1.
    5000001    1    1    2    0    0 -0.67863686761E+02 -0.24717480168E+02 -0.77009848024E+03  0.79088121932E+03  0.16500000000E+03 0.  0.
   -5000001    1    1    2    0    0  0.67863686761E+02  0.24717480168E+02 -0.78460642075E+03  0.80501470129E+03  0.16500000000E+03 0.  0.
<mgrwt>
<rscale>  0 0.36024500E+03</rscale>
<asrwt>0</asrwt>
<pdfrwt beam="1">  1        1 0.24235381E+00 0.36024500E+03</pdfrwt>
<pdfrwt beam="2">  1       -1 0.31685412E-02 0.36024500E+03</pdfrwt>
<totfact> 0.22173236E+03</totfact>
</mgrwt>
</event>
<event>
 4    1  0.2309632E-005  0.4817034E+03  0.7818608E-02  0.1018668E+00
         -1   -1    0    0    0  501 -0.00000000000E+00  0.00000000000E+00  0.22239985804E+02  0.22239986375E+02  0.50400000000E-02 0. -1.
          1   -1    0    0  501    0  0.00000000000E+00 -0.00000000000E+00 -0.26083447288E+04  0.26083447288E+04  0.50400000000E-02 0.  1.
    5000001    1    1    2    0    0  0.96253879518E+02 -0.32593943888E+02 -0.20741359553E+04  0.20831687728E+04  0.16500000000E+03 0.  0.
   -5000001    1    1    2    0    0 -0.96253879518E+02  0.32593943888E+02 -0.51196878768E+03  0.54741594246E+03  0.16500000000E+03 0.  0.
<mgrwt>
<rscale>  0 0.48170344E+03</rscale>
<asrwt>0</asrwt>
<pdfrwt beam="1">  1        1 0.40128356E+00 0.48170344E+03</pdfrwt>
<pdfrwt beam="2">  1       -1 0.34215384E-02 0.48170344E+03</pdfrwt>
<totfact> 0.40416353E+02</totfact>
</mgrwt>
</event>
<event>
 4    1  0.2309632E-005  0.3593918E+03  0.7818608E-02  0.1058825E+00
         -1   -1    0    0    0  501 -0.00000000000E+00  0.00000000000E+00  0.18754296053E+02  0.18754296730E+02  0.50400000000E-02 0.  1.
          1   -1    0    0  501    0  0.00000000000E+00 -0.00000000000E+00 -0.17217715544E+04  0.17217715544E+04  0.50400000000E-02 0. -1.
    5000001    1    1    2    0    0 -0.27424875213E+02 -0.63924019903E+02 -0.92450915947E+03  0.94169028351E+03  0.16500000000E+03 0.  0.
   -5000001    1    1    2    0    0  0.27424875213E+02  0.63924019903E+02 -0.77850809889E+03  0.79883556764E+03  0.16500000000E+03 0.  0.
<mgrwt>
<rscale>  0 0.35939179E+03</rscale>
<asrwt>0</asrwt>
<pdfrwt beam="1">  1        1 0.26488781E+00 0.35939179E+03</pdfrwt>
<pdfrwt beam="2">  1       -1 0.28852777E-02 0.35939179E+03</pdfrwt>
<totfact> 0.20398176E+03</totfact>
</mgrwt>
</event>
<event>
 4    1  0.2309632E-005  0.4730497E+03  0.7818608E-02  0.1021063E+00
         -1   -1    0    0    0  501 -0.00000000000E+00  0.00000000000E+00  0.32649806628E+02  0.32649807017E+02  0.50400000000E-02 0. -1.
          1   -1    0    0  501    0  0.00000000000E+00 -0.00000000000E+00 -0.17134558996E+04  0.17134558996E+04  0.50400000000E-02 0.  1.
    5000001    1    1    2    0    0  0.92924627506E+02  0.14088821736E+03 -0.78387537920E+03  0.81863916734E+03  0.16500000000E+03 0.  0.
   -5000001    1    1    2    0    0 -0.92924627506E+02 -0.14088821736E+03 -0.89693071380E+03  0.92746653931E+03  0.16500000000E+03 0.  0.
<mgrwt>
<rscale>  0 0.47304970E+03</rscale>
<asrwt>0</asrwt>
<pdfrwt beam="1">  1        1 0.26360853E+00 0.47304970E+03</pdfrwt>
<pdfrwt beam="2">  1       -1 0.50230485E-02 0.47304970E+03</pdfrwt>
<totfact> 0.89240660E+02</totfact>
</mgrwt>
</event>
<event>
 4    1  0.2309632E-005  0.6389451E+03  0.7818608E-02  0.9827747E-01
         -1   -1    0    0    0  501 -0.00000000000E+00  0.00000000000E+00  0.15665098061E+04  0.15665098061E+04  0.50400000000E-02 0. -1.
          1   -1    0    0  501    0  0.00000000000E+00 -0.00000000000E+00 -0.65152924832E+02  0.65152925027E+02  0.50400000000E-02 0.  1.
    5000001    1    1    2    0    0  0.81942997819E+02  0.24861572562E+03  0.54777295739E+03  0.62913007142E+03  0.16500000000E+03 0.  0.
   -5000001    1    1    2    0    0 -0.81942997819E+02 -0.24861572562E+03  0.95358392391E+03  0.10025326597E+04  0.16500000000E+03 0.  0.
<mgrwt>
<rscale>  0 0.63894505E+03</rscale>
<asrwt>0</asrwt>
<pdfrwt beam="1">  1        1 0.10023528E-01 0.63894505E+03</pdfrwt>
<pdfrwt beam="2">  1       -1 0.24100148E+00 0.63894505E+03</pdfrwt>
<totfact> 0.55471120E+01</totfact>
</mgrwt>
</event>
<event>
 4    1  0.2309632E-005  0.4347134E+03  0.7818608E-02  0.1032381E+00
         -1   -1    0    0    0  501 -0.00000000000E+00  0.00000000000E+00  0.19256815544E+02  0.19256816204E+02  0.50400000000E-02 0.  1.
          1   -1    0    0  501    0  0.00000000000E+00 -0.00000000000E+00 -0.24533616105E+04  0.24533616105E+04  0.50400000000E-02 0. -1.
    5000001    1    1    2    0    0  0.11802374553E+03  0.56302519516E+02 -0.15243771279E+04  0.15388470380E+04  0.16500000000E+03 0.  0.
   -5000001    1    1    2    0    0 -0.11802374553E+03 -0.56302519516E+02 -0.90972766700E+03  0.93377138868E+03  0.16500000000E+03 0.  0.
<mgrwt>
<rscale>  0 0.43471339E+03</rscale>
<asrwt>0</asrwt>
<pdfrwt beam="1">  1        1 0.37744000E+00 0.43471339E+03</pdfrwt>
<pdfrwt beam="2">  1       -1 0.29625890E-02 0.43471339E+03</pdfrwt>
<totfact> 0.64166398E+02</totfact>
</mgrwt>
</event>
<event>
 4    1  0.2309632E-005  0.7658225E+03  0.7818608E-02  0.9610849E-01
          1   -1    0    0  501    0  0.00000000000E+00  0.00000000000E+00  0.84966883260E+03  0.84966883261E+03  0.50400000000E-02 0.  1.
         -1   -1    0    0    0  501 -0.00000000000E+00 -0.00000000000E+00 -0.17256255465E+03  0.17256255472E+03  0.50400000000E-02 0. -1.
    5000001    1    1    2    0    0 -0.40724366072E+02 -0.24802527493E+03  0.65505074265E+03  0.72075757814E+03  0.16500000000E+03 0.  0.
   -5000001    1    1    2    0    0  0.40724366072E+02  0.24802527493E+03  0.22055535295E+02  0.30147380920E+03  0.16500000000E+03 0.  0.
<mgrwt>
<rscale>  0 0.76582250E+03</rscale>
<asrwt>0</asrwt>
<pdfrwt beam="1">  1        1 0.13071828E+00 0.76582250E+03</pdfrwt>
<pdfrwt beam="2">  1       -1 0.26548085E-01 0.76582250E+03</pdfrwt>
<totfact> 0.25570936E+02</totfact>
</mgrwt>
</event>
<event>
 4    1  0.2309632E-005  0.5892318E+03  0.7818608E-02  0.9928002E-01
         -1   -1    0    0    0  501 -0.00000000000E+00  0.00000000000E+00  0.89413914013E+02  0.89413914155E+02  0.50400000000E-02 0.  1.
          1   -1    0    0  501    0  0.00000000000E+00 -0.00000000000E+00 -0.97074974158E+03  0.97074974159E+03  0.50400000000E-02 0. -1.
    5000001    1    1    2    0    0  0.11415233490E+03 -0.21518218915E+03 -0.46850683129E+03  0.55322489194E+03  0.16500000000E+03 0.  0.
   -5000001    1    1    2    0    0 -0.11415233490E+03  0.21518218915E+03 -0.41282899628E+03  0.50693876381E+03  0.16500000000E+03 0.  0.
<mgrwt>
<rscale>  0 0.58923182E+03</rscale>
<asrwt>0</asrwt>
<pdfrwt beam="1">  1        1 0.14934611E+00 0.58923182E+03</pdfrwt>
<pdfrwt beam="2">  1       -1 0.13755987E-01 0.58923182E+03</pdfrwt>
<totfact> 0.61266418E+02</totfact>
</mgrwt>
</event>
<event>
 4    1  0.2309632E-005  0.7221323E+03  0.7818608E-02  0.9680114E-01
          1   -1    0    0  501    0  0.00000000000E+00  0.00000000000E+00  0.59907444046E+03  0.59907444048E+03  0.50400000000E-02 0. -1.
         -1   -1    0    0    0  501 -0.00000000000E+00 -0.00000000000E+00 -0.21761697116E+03  0.21761697121E+03  0.50400000000E-02 0.  1.
    5000001    1    1    2    0    0 -0.19376763472E+03 -0.24968298996E+03  0.12619279233E+03  0.37820247563E+03  0.16500000000E+03 0.  0.
   -5000001    1    1    2    0    0  0.19376763472E+03  0.24968298996E+03  0.25526467697E+03  0.43848893606E+03  0.16500000000E+03 0.  0.
<mgrwt>
<rscale>  0 0.72213230E+03</rscale>
<asrwt>0</asrwt>
<pdfrwt beam="1">  1        1 0.92165297E-01 0.72213230E+03</pdfrwt>
<pdfrwt beam="2">  1       -1 0.33479535E-01 0.72213230E+03</pdfrwt>
<totfact> 0.29173749E+02</totfact>
</mgrwt>
</event>
<event>
 4    1  0.2309632E-005  0.3884137E+03  0.7818608E-02  0.1047867E+00
          1   -1    0    0  501    0  0.00000000000E+00  0.00000000000E+00  0.12131117527E+04  0.12131117527E+04  0.50400000000E-02 0.  1.
         -1   -1    0    0    0  501 -0.00000000000E+00 -0.00000000000E+00 -0.31090538600E+02  0.31090539009E+02  0.50400000000E-02 0. -1.
    5000001    1    1    2    0    0  0.10464482825E+02  0.10151283596E+03  0.61910783300E+03  0.64879416624E+03  0.16500000000E+03 0.  0.
   -5000001    1    1    2    0    0 -0.10464482825E+02 -0.10151283596E+03  0.56291338111E+03  0.59540812548E+03  0.16500000000E+03 0.  0.
<mgrwt>
<rscale>  0 0.38841369E+03</rscale>
<asrwt>0</asrwt>
<pdfrwt beam="1">  1        1 0.18663253E+00 0.38841369E+03</pdfrwt>
<pdfrwt beam="2">  1       -1 0.47831611E-02 0.38841369E+03</pdfrwt>
<totfact> 0.21094563E+03</totfact>
</mgrwt>
</event>
<event>
 4    1  0.2309632E-005  0.6194419E+03  0.7818608E-02  0.9865871E-01
         -1   -1    0    0    0  501 -0.00000000000E+00  0.00000000000E+00  0.68366353936E+03  0.68366353938E+03  0.50400000000E-02 0. -1.
          1   -1    0    0  501    0  0.00000000000E+00 -0.00000000000E+00 -0.14031328772E+03  0.14031328781E+03  0.50400000000E-02 0.  1.
    5000001    1    1    2    0    0  0.21672836787E+03  0.38308281787E+02  0.82322985033E+02  0.28712503157E+03  0.16500000000E+03 0.  0.
   -5000001    1    1    2    0    0 -0.21672836787E+03 -0.38308281787E+02  0.46102726661E+03  0.53685179561E+03  0.16500000000E+03 0.  0.
<mgrwt>
<rscale>  0 0.61944194E+03</rscale>
<asrwt>0</asrwt>
<pdfrwt beam="1">  1        1 0.21586660E-01 0.61944194E+03</pdfrwt>
<pdfrwt beam="2">  1       -1 0.10517901E+00 0.61944194E+03</pdfrwt>
<totfact> 0.20460001E+02</totfact>
</mgrwt>
</event>
<event>
 4    1  0.2309632E-005  0.5417990E+03  0.7818608E-02  0.1003410E+00
          1   -1    0    0  501    0  0.00000000000E+00  0.00000000000E+00  0.34224219942E+04  0.34224219942E+04  0.50400000000E-02 0. -1.
         -1   -1    0    0    0  501 -0.00000000000E+00 -0.00000000000E+00 -0.21442864789E+02  0.21442865381E+02  0.50400000000E-02 0.  1.
    5000001    1    1    2    0    0 -0.54377018297E+02 -0.20389191673E+03  0.14436458167E+04  0.14682871033E+04  0.16500000000E+03 0.  0.
   -5000001    1    1    2    0    0  0.54377018297E+02  0.20389191673E+03  0.19573333127E+04  0.19755777562E+04  0.16500000000E+03 0.  0.
<mgrwt>
<rscale>  0 0.54179898E+03</rscale>
<asrwt>0</asrwt>
<pdfrwt beam="1">  1        1 0.52652633E+00 0.54179898E+03</pdfrwt>
<pdfrwt beam="2">  1       -1 0.32989031E-02 0.54179898E+03</pdfrwt>
<totfact> 0.11095178E+02</totfact>
</mgrwt>
</event>
<event>
 4    1  0.2309632E-005  0.4153487E+03  0.7818608E-02  0.1038591E+00
          1   -1    0    0  501    0  0.00000000000E+00  0.00000000000E+00  0.13493988715E+03  0.13493988725E+03  0.50400000000E-02 0. -1.
         -1   -1    0    0    0  501 -0.00000000000E+00 -0.00000000000E+00 -0.31961373486E+03  0.31961373490E+03  0.50400000000E-02 0.  1.
    5000001    1    1    2    0    0 -0.62346705685E+02  0.89418746404E+02 -0.22941726464E+02  0.19908326582E+03  0.16500000000E+03 0.  0.
   -5000001    1    1    2    0    0  0.62346705685E+02 -0.89418746404E+02 -0.16173212124E+03  0.25547035632E+03  0.16500000000E+03 0.  0.
<mgrwt>
<rscale>  0 0.41534873E+03</rscale>
<asrwt>0</asrwt>
<pdfrwt beam="1">  1        1 0.20759983E-01 0.41534873E+03</pdfrwt>
<pdfrwt beam="2">  1       -1 0.49171344E-01 0.41534873E+03</pdfrwt>
<totfact> 0.10354493E+03</totfact>
</mgrwt>
</event>
<event>
 4    1  0.2309632E-005  0.4945924E+03  0.7818608E-02  0.1015200E+00
          1   -1    0    0  501    0  0.00000000000E+00  0.00000000000E+00  0.16135943886E+04  0.16135943886E+04  0.50400000000E-02 0. -1.
         -1   -1    0    0    0  501 -0.00000000000E+00 -0.00000000000E+00 -0.37900107899E+02  0.37900108234E+02  0.50400000000E-02 0.  1.
    5000001    1    1    2    0    0 -0.65270530181E+02  0.13756585414E+03  0.44170935806E+03  0.49549648166E+03  0.16500000000E+03 0.  0.
   -5000001    1    1    2    0    0  0.65270530181E+02 -0.13756585414E+03  0.11339849226E+04  0.11559980152E+04  0.16500000000E+03 0.  0.
<mgrwt>
<rscale>  0 0.49459236E+03</rscale>
<asrwt>0</asrwt>
<pdfrwt beam="1">  1        1 0.24824532E+00 0.49459236E+03</pdfrwt>
<pdfrwt beam="2">  1       -1 0.58307852E-02 0.49459236E+03</pdfrwt>
<totfact> 0.82726772E+02</totfact>
</mgrwt>
</event>
<event>
 4    1  0.2309632E-005  0.6102267E+03  0.7818608E-02  0.9884413E-01
         -1   -1    0    0    0  501 -0.00000000000E+00  0.00000000000E+00  0.54314435027E+02  0.54314435261E+02  0.50400000000E-02 0. -1.
          1   -1    0    0  501    0  0.00000000000E+00 -0.00000000000E+00 -0.17139852718E+04  0.17139852718E+04  0.50400000000E-02 0.  1.
    5000001    1    1    2    0    0  0.22505681162E+02 -0.24573597227E+03 -0.10342563281E+04  0.10760129302E+04  0.16500000000E+03 0.  0.
   -5000001    1    1    2    0    0 -0.22505681162E+02  0.24573597227E+03 -0.62541450859E+03  0.69228677679E+03  0.16500000000E+03 0.  0.
<mgrwt>
<rscale>  0 0.61022665E+03</rscale>
<asrwt>0</asrwt>
<pdfrwt beam="1">  1        1 0.26369000E+00 0.61022665E+03</pdfrwt>
<pdfrwt beam="2">  1       -1 0.83560682E-02 0.61022665E+03</pdfrwt>
<totfact> 0.40302178E+02</totfact>
</mgrwt>
</event>
<event>
 4    1  0.2309632E-005  0.4709718E+03  0.7818608E-02  0.1021646E+00
          1   -1    0    0  501    0  0.00000000000E+00  0.00000000000E+00  0.96132712565E+03  0.96132712566E+03  0.50400000000E-02 0. -1.
         -1   -1    0    0    0  501 -0.00000000000E+00 -0.00000000000E+00 -0.57684438183E+02  0.57684438403E+02  0.50400000000E-02 0.  1.
    5000001    1    1    2    0    0  0.69053325012E+02 -0.12837698344E+03  0.63258019241E+03  0.66979975471E+03  0.16500000000E+03 0.  0.
   -5000001    1    1    2    0    0 -0.69053325012E+02  0.12837698344E+03  0.27106249505E+03  0.34921180936E+03  0.16500000000E+03 0.  0.
<mgrwt>
<rscale>  0 0.47097183E+03</rscale>
<asrwt>0</asrwt>
<pdfrwt beam="1">  1        1 0.14789648E+00 0.47097183E+03</pdfrwt>
<pdfrwt beam="2">  1       -1 0.88745293E-02 0.47097183E+03</pdfrwt>
<totfact> 0.12519470E+03</totfact>
</mgrwt>
</event>
<event>
 4    1  0.2309632E-005  0.4686650E+03  0.7818608E-02  0.1022298E+00
          1   -1    0    0  501    0  0.00000000000E+00  0.00000000000E+00  0.58764594069E+03  0.58764594071E+03  0.50400000000E-02 0. -1.
         -1   -1    0    0    0  501 -0.00000000000E+00 -0.00000000000E+00 -0.93443552882E+02  0.93443553018E+02  0.50400000000E-02 0.  1.
    5000001    1    1    2    0    0 -0.18610734420E+02  0.16223737330E+03  0.29350076091E+03  0.37421253504E+03  0.16500000000E+03 0.  0.
   -5000001    1    1    2    0    0  0.18610734420E+02 -0.16223737330E+03  0.20070162690E+03  0.30687695868E+03  0.16500000000E+03 0.  0.
<mgrwt>
<rscale>  0 0.46866502E+03</rscale>
<asrwt>0</asrwt>
<pdfrwt beam="1">  1        1 0.90407067E-01 0.46866502E+03</pdfrwt>
<pdfrwt beam="2">  1       -1 0.14375931E-01 0.46866502E+03</pdfrwt>
<totfact> 0.12478075E+03</totfact>
</mgrwt>
</event>
<event>
 4    1  0.2309632E-005  0.3968146E+03  0.7818608E-02  0.1044888E+00
         -1   -1    0    0    0  501 -0.00000000000E+00  0.00000000000E+00  0.55931673846E+02  0.55931674073E+02  0.50400000000E-02 0.  1.
          1   -1    0    0  501    0  0.00000000000E+00 -0.00000000000E+00 -0.70381317840E+03  0.70381317842E+03  0.50400000000E-02 0. -1.
    5000001    1    1    2    0    0 -0.89241890918E+02 -0.60546275541E+02 -0.36719917316E+03  0.41676156174E+03  0.16500000000E+03 0.  0.
   -5000001    1    1    2    0    0  0.89241890918E+02  0.60546275541E+02 -0.28068233140E+03  0.34298329075E+03  0.16500000000E+03 0.  0.
<mgrwt>
<rscale>  0 0.39681456E+03</rscale>
<asrwt>0</asrwt>
<pdfrwt beam="1">  1        1 0.10827894E+00 0.39681456E+03</pdfrwt>
<pdfrwt beam="2">  1       -1 0.86048734E-02 0.39681456E+03</pdfrwt>
<totfact> 0.21587181E+03</totfact>
</mgrwt>
</event>
<event>
 4    1  0.2309632E-005  0.4035421E+03  0.7818608E-02  0.1042560E+00
          1   -1    0    0  501    0  0.00000000000E+00  0.00000000000E+00  0.11600719661E+03  0.11600719672E+03  0.50400000000E-02 0.  1.
         -1   -1    0    0    0  501 -0.00000000000E+00 -0.00000000000E+00 -0.35093988609E+03  0.35093988613E+03  0.50400000000E-02 0. -1.
    5000001    1    1    2    0    0  0.54556107915E+01  0.11335677950E+03 -0.88957235438E+02  0.21912989957E+03  0.16500000000E+03 0.  0.
   -5000001    1    1    2    0    0 -0.54556107915E+01 -0.11335677950E+03 -0.14597545404E+03  0.24781718328E+03  0.16500000000E+03 0.  0.
<mgrwt>
<rscale>  0 0.40354208E+03</rscale>
<asrwt>0</asrwt>
<pdfrwt beam="1">  1        1 0.17847261E-01 0.40354208E+03</pdfrwt>
<pdfrwt beam="2">  1       -1 0.53990751E-01 0.40354208E+03</pdfrwt>
<totfact> 0.10584552E+03</totfact>
</mgrwt>
</event>
<event>
 4    1  0.2309632E-005  0.3772212E+03  0.7818608E-02  0.1051966E+00
         -1   -1    0    0    0  501 -0.00000000000E+00  0.00000000000E+00  0.42027831016E+02  0.42027831318E+02  0.50400000000E-02 0. -1.
          1   -1    0    0  501    0  0.00000000000E+00 -0.00000000000E+00 -0.84643812496E+03  0.84643812498E+03  0.50400000000E-02 0.  1.
    5000001    1    1    2    0    0  0.44528389085E+02  0.62405015478E+02 -0.28510675185E+03  0.33821298517E+03  0.16500000000E+03 0.  0.
   -5000001    1    1    2    0    0 -0.44528389085E+02 -0.62405015478E+02 -0.51930354210E+03  0.55025297112E+03  0.16500000000E+03 0.  0.
<mgrwt>
<rscale>  0 0.37722120E+03</rscale>
<asrwt>0</asrwt>
<pdfrwt beam="1">  1        1 0.13022124E+00 0.37722120E+03</pdfrwt>
<pdfrwt beam="2">  1       -1 0.64658208E-02 0.37722120E+03</pdfrwt>
<totfact> 0.25218330E+03</totfact>
</mgrwt>
</event>
<event>
 4    1  0.2309632E-005  0.7361703E+03  0.7818608E-02  0.9657300E-01
         -1   -1    0    0    0  501 -0.00000000000E+00  0.00000000000E+00  0.20566255929E+03  0.20566255935E+03  0.50400000000E-02 0. -1.
          1   -1    0    0  501    0  0.00000000000E+00 -0.00000000000E+00 -0.65878146017E+03  0.65878146019E+03  0.50400000000E-02 0.  1.
    5000001    1    1    2    0    0 -0.21447742743E+03  0.21263677388E+03 -0.73246462579E+02  0.35185935935E+03  0.16500000000E+03 0.  0.
   -5000001    1    1    2    0    0  0.21447742743E+03 -0.21263677388E+03 -0.37987243830E+03  0.51258466019E+03  0.16500000000E+03 0.  0.
<mgrwt>
<rscale>  0 0.73617031E+03</rscale>
<asrwt>0</asrwt>
<pdfrwt beam="1">  1        1 0.10135099E+00 0.73617031E+03</pdfrwt>
<pdfrwt beam="2">  1       -1 0.31640394E-01 0.73617031E+03</pdfrwt>
<totfact> 0.28042328E+02</totfact>
</mgrwt>
</event>
<event>
 4    1  0.2309632E-005  0.7035603E+03  0.7818608E-02  0.9711163E-01
         -1   -1    0    0    0  501 -0.00000000000E+00  0.00000000000E+00  0.12470816704E+04  0.12470816704E+04  0.50400000000E-02 0. -1.
          1   -1    0    0  501    0  0.00000000000E+00 -0.00000000000E+00 -0.99231099554E+02  0.99231099682E+02  0.50400000000E-02 0.  1.
    5000001    1    1    2    0    0  0.13024317728E+03 -0.25426664057E+03  0.34026989430E+03  0.47394452281E+03  0.16500000000E+03 0.  0.
   -5000001    1    1    2    0    0 -0.13024317728E+03  0.25426664057E+03  0.80758067650E+03  0.87236824724E+03  0.16500000000E+03 0.  0.
<mgrwt>
<rscale>  0 0.70356033E+03</rscale>
<asrwt>0</asrwt>
<pdfrwt beam="1">  1        1 0.15266324E-01 0.70356033E+03</pdfrwt>
<pdfrwt beam="2">  1       -1 0.19185871E+00 0.70356033E+03</pdfrwt>
<totfact> 0.66179676E+01</totfact>
</mgrwt>
</event>
<event>
 4    1  0.2309632E-005  0.5350383E+03  0.7818608E-02  0.1005018E+00
          1   -1    0    0  501    0  0.00000000000E+00  0.00000000000E+00  0.54200815500E+03  0.54200815502E+03  0.50400000000E-02 0.  1.
         -1   -1    0    0    0  501 -0.00000000000E+00 -0.00000000000E+00 -0.13203949440E+03  0.13203949449E+03  0.50400000000E-02 0. -1.
    5000001    1    1    2    0    0 -0.60499852122E+02  0.19591844895E+03  0.26536616539E+03  0.37374921068E+03  0.16500000000E+03 0.  0.
   -5000001    1    1    2    0    0  0.60499852122E+02 -0.19591844895E+03  0.14460249521E+03  0.30029843884E+03  0.16500000000E+03 0.  0.
<mgrwt>
<rscale>  0 0.53503825E+03</rscale>
<asrwt>0</asrwt>
<pdfrwt beam="1">  1        1 0.83385870E-01 0.53503825E+03</pdfrwt>
<pdfrwt beam="2">  1       -1 0.20313768E-01 0.53503825E+03</pdfrwt>
<totfact> 0.79433387E+02</totfact>
</mgrwt>
</event>
<event>
 4    1  0.2309632E-005  0.9371047E+03  0.7818608E-02  0.9380351E-01
          1   -1    0    0  501    0  0.00000000000E+00  0.00000000000E+00  0.56329046993E+03  0.56329046996E+03  0.50400000000E-02 0.  1.
         -1   -1    0    0    0  501 -0.00000000000E+00 -0.00000000000E+00 -0.38974797289E+03  0.38974797293E+03  0.50400000000E-02 0. -1.
    5000001    1    1    2    0    0  0.42346385472E+03  0.11233075644E+03  0.67038144850E+02  0.47292594343E+03  0.16500000000E+03 0.  0.
   -5000001    1    1    2    0    0 -0.42346385472E+03 -0.11233075644E+03  0.10650435219E+03  0.48011249946E+03  0.16500000000E+03 0.  0.
<mgrwt>
<rscale>  0 0.93710473E+03</rscale>
<asrwt>0</asrwt>
<pdfrwt beam="1">  1        1 0.86660072E-01 0.93710473E+03</pdfrwt>
<pdfrwt beam="2">  1       -1 0.59961227E-01 0.93710473E+03</pdfrwt>
<totfact> 0.10640869E+02</totfact>
</mgrwt>
</event>
<event>
 4    1  0.2309632E-005  0.4605849E+03  0.7818608E-02  0.1024612E+00
          1   -1    0    0  501    0  0.00000000000E+00  0.00000000000E+00  0.67352562591E+03  0.67352562593E+03  0.50400000000E-02 0.  1.
         -1   -1    0    0    0  501 -0.00000000000E+00 -0.00000000000E+00 -0.78741780331E+02  0.78741780492E+02  0.50400000000E-02 0. -1.
    5000001    1    1    2    0    0  0.13562536691E+03  0.15920214973E+02  0.15916994276E+03  0.26684782943E+03  0.16500000000E+03 0.  0.
   -5000001    1    1    2    0    0 -0.13562536691E+03 -0.15920214973E+02  0.43561390282E+03  0.48541957699E+03  0.16500000000E+03 0.  0.
<mgrwt>
<rscale>  0 0.46058488E+03</rscale>
<asrwt>0</asrwt>
<pdfrwt beam="1">  1        1 0.10361932E+00 0.46058488E+03</pdfrwt>
<pdfrwt beam="2">  1       -1 0.12114120E-01 0.46058488E+03</pdfrwt>
<totfact> 0.13477721E+03</totfact>
</mgrwt>
</event>
<event>
 4    1  0.2309632E-005  0.5196289E+03  0.7818608E-02  0.1008779E+00
         -1   -1    0    0    0  501 -0.00000000000E+00  0.00000000000E+00  0.50108601055E+03  0.50108601057E+03  0.50400000000E-02 0. -1.
          1   -1    0    0  501    0  0.00000000000E+00 -0.00000000000E+00 -0.13471450153E+03  0.13471450163E+03  0.50400000000E-02 0.  1.
    5000001    1    1    2    0    0 -0.17135029620E+03 -0.65449543486E+02  0.83527145591E+02  0.26047332071E+03  0.16500000000E+03 0.  0.
   -5000001    1    1    2    0    0  0.17135029620E+03  0.65449543486E+02  0.28284436342E+03  0.37532719149E+03  0.16500000000E+03 0.  0.
<mgrwt>
<rscale>  0 0.51962891E+03</rscale>
<asrwt>0</asrwt>
<pdfrwt beam="1">  1        1 0.20725308E-01 0.51962891E+03</pdfrwt>
<pdfrwt beam="2">  1       -1 0.77090155E-01 0.51962891E+03</pdfrwt>
<totfact> 0.42806787E+02</totfact>
</mgrwt>
</event>
<event>
 4    1  0.2309632E-005  0.5229941E+03  0.7818608E-02  0.1007945E+00
         -1   -1    0    0    0  501 -0.00000000000E+00  0.00000000000E+00  0.10135963185E+03  0.10135963197E+03  0.50400000000E-02 0. -1.
          1   -1    0    0  501    0  0.00000000000E+00 -0.00000000000E+00 -0.67463446029E+03  0.67463446031E+03  0.50400000000E-02 0.  1.
    5000001    1    1    2    0    0  0.15724672678E+03  0.90873382249E+01 -0.96933976166E+02  0.24785138397E+03  0.16500000000E+03 0.  0.
   -5000001    1    1    2    0    0 -0.15724672678E+03 -0.90873382249E+01 -0.47634085228E+03  0.52814270832E+03  0.16500000000E+03 0.  0.
<mgrwt>
<rscale>  0 0.52299407E+03</rscale>
<asrwt>0</asrwt>
<pdfrwt beam="1">  1        1 0.10378991E+00 0.52299407E+03</pdfrwt>
<pdfrwt beam="2">  1       -1 0.15593790E-01 0.52299407E+03</pdfrwt>
<totfact> 0.89623972E+02</totfact>
</mgrwt>
</event>
<event>
 4    1  0.2309632E-005  0.6033484E+03  0.7818608E-02  0.9898483E-01
         -1   -1    0    0    0  501 -0.00000000000E+00  0.00000000000E+00  0.36769065341E+02  0.36769065686E+02  0.50400000000E-02 0. -1.
          1   -1    0    0  501    0  0.00000000000E+00 -0.00000000000E+00 -0.24751059866E+04  0.24751059866E+04  0.50400000000E-02 0.  1.
    5000001    1    1    2    0    0 -0.39282108848E+02 -0.24684246720E+03 -0.13697394942E+04  0.14021004136E+04  0.16500000000E+03 0.  0.
   -5000001    1    1    2    0    0  0.39282108848E+02  0.24684246720E+03 -0.10685974271E+04  0.11097746388E+04  0.16500000000E+03 0.  0.
<mgrwt>
<rscale>  0 0.60334844E+03</rscale>
<asrwt>0</asrwt>
<pdfrwt beam="1">  1        1 0.38078540E+00 0.60334844E+03</pdfrwt>
<pdfrwt beam="2">  1       -1 0.56567813E-02 0.60334844E+03</pdfrwt>
<totfact> 0.22883816E+02</totfact>
</mgrwt>
</event>
<event>
 4    1  0.2309632E-005  0.6241945E+03  0.7818608E-02  0.9856444E-01
         -1   -1    0    0    0  501 -0.00000000000E+00  0.00000000000E+00  0.15807440248E+03  0.15807440256E+03  0.50400000000E-02 0. -1.
          1   -1    0    0  501    0  0.00000000000E+00 -0.00000000000E+00 -0.61619517326E+03  0.61619517328E+03  0.50400000000E-02 0.  1.
    5000001    1    1    2    0    0 -0.13998900212E+03  0.22410119833E+03 -0.25264213372E+03  0.40108766565E+03  0.16500000000E+03 0.  0.
   -5000001    1    1    2    0    0  0.13998900212E+03 -0.22410119833E+03 -0.20547863705E+03  0.37318191018E+03  0.16500000000E+03 0.  0.
<mgrwt>
<rscale>  0 0.62419447E+03</rscale>
<asrwt>0</asrwt>
<pdfrwt beam="1">  1        1 0.94799256E-01 0.62419447E+03</pdfrwt>
<pdfrwt beam="2">  1       -1 0.24319139E-01 0.62419447E+03</pdfrwt>
<totfact> 0.48888883E+02</totfact>
</mgrwt>
</event>
<event>
 4    1  0.2309632E-005  0.7046224E+03  0.7818608E-02  0.9709360E-01
          1   -1    0    0  501    0  0.00000000000E+00  0.00000000000E+00  0.79133757264E+03  0.79133757266E+03  0.50400000000E-02 0. -1.
         -1   -1    0    0    0  501 -0.00000000000E+00 -0.00000000000E+00 -0.15685239427E+03  0.15685239435E+03  0.50400000000E-02 0.  1.
    5000001    1    1    2    0    0  0.24406826517E+03  0.57047273327E+02  0.68841479609E+02  0.30787636930E+03  0.16500000000E+03 0.  0.
   -5000001    1    1    2    0    0 -0.24406826517E+03 -0.57047273327E+02  0.56564369877E+03  0.64031359771E+03  0.16500000000E+03 0.  0.
<mgrwt>
<rscale>  0 0.70462243E+03</rscale>
<asrwt>0</asrwt>
<pdfrwt beam="1">  1        1 0.12174424E+00 0.70462243E+03</pdfrwt>
<pdfrwt beam="2">  1       -1 0.24131138E-01 0.70462243E+03</pdfrwt>
<totfact> 0.33856009E+02</totfact>
</mgrwt>
</event>
<event>
 4    1  0.2309632E-005  0.5088359E+03  0.7818608E-02  0.1011498E+00
          1   -1    0    0  501    0  0.00000000000E+00  0.00000000000E+00  0.96654034543E+03  0.96654034544E+03  0.50400000000E-02 0.  1.
         -1   -1    0    0    0  501 -0.00000000000E+00 -0.00000000000E+00 -0.66969263819E+02  0.66969264008E+02  0.50400000000E-02 0. -1.
    5000001    1    1    2    0    0  0.33444704156E+02 -0.17201009218E+03  0.61724534944E+03  0.66251252173E+03  0.16500000000E+03 0.  0.
   -5000001    1    1    2    0    0 -0.33444704156E+02  0.17201009218E+03  0.28232573217E+03  0.37099708772E+03  0.16500000000E+03 0.  0.
<mgrwt>
<rscale>  0 0.50883591E+03</rscale>
<asrwt>0</asrwt>
<pdfrwt beam="1">  1        1 0.14869851E+00 0.50883591E+03</pdfrwt>
<pdfrwt beam="2">  1       -1 0.10302964E-01 0.50883591E+03</pdfrwt>
<totfact> 0.98069280E+02</totfact>
</mgrwt>
</event>
<event>
 4    1  0.2309632E-005  0.6436347E+03  0.7818608E-02  0.9818797E-01
         -1   -1    0    0    0  501 -0.00000000000E+00  0.00000000000E+00  0.19726156260E+03  0.19726156266E+03  0.50400000000E-02 0.  1.
          1   -1    0    0  501    0  0.00000000000E+00 -0.00000000000E+00 -0.52502078816E+03  0.52502078819E+03  0.50400000000E-02 0. -1.
    5000001    1    1    2    0    0  0.77691035671E+02 -0.25722077000E+03 -0.23611083543E+03  0.39391845368E+03  0.16500000000E+03 0.  0.
   -5000001    1    1    2    0    0 -0.77691035671E+02  0.25722077000E+03 -0.91648390136E+02  0.32836389716E+03  0.16500000000E+03 0.  0.
<mgrwt>
<rscale>  0 0.64363474E+03</rscale>
<asrwt>0</asrwt>
<pdfrwt beam="1">  1        1 0.80772428E-01 0.64363474E+03</pdfrwt>
<pdfrwt beam="2">  1       -1 0.30347933E-01 0.64363474E+03</pdfrwt>
<totfact> 0.41874329E+02</totfact>
</mgrwt>
</event>
<event>
 4    1  0.2309632E-005  0.4522582E+03  0.7818608E-02  0.1027051E+00
         -1   -1    0    0    0  501 -0.00000000000E+00  0.00000000000E+00  0.81778549129E+02  0.81778549285E+02  0.50400000000E-02 0. -1.
          1   -1    0    0  501    0  0.00000000000E+00 -0.00000000000E+00 -0.62527853610E+03  0.62527853612E+03  0.50400000000E-02 0.  1.
    5000001    1    1    2    0    0 -0.77125465156E+02  0.13273168857E+03 -0.30071848019E+03  0.37579601229E+03  0.16500000000E+03 0.  0.
   -5000001    1    1    2    0    0  0.77125465156E+02 -0.13273168857E+03 -0.24278150678E+03  0.33126107311E+03  0.16500000000E+03 0.  0.
<mgrwt>
<rscale>  0 0.45225821E+03</rscale>
<asrwt>0</asrwt>
<pdfrwt beam="1">  1        1 0.96196695E-01 0.45225821E+03</pdfrwt>
<pdfrwt beam="2">  1       -1 0.12581316E-01 0.45225821E+03</pdfrwt>
<totfact> 0.14137762E+03</totfact>
</mgrwt>
</event>
<event>
 4    1  0.2309632E-005  0.3838980E+03  0.7818608E-02  0.1049502E+00
          1   -1    0    0  501    0  0.00000000000E+00  0.00000000000E+00  0.95302603706E+03  0.95302603707E+03  0.50400000000E-02 0.  1.
         -1   -1    0    0    0  501 -0.00000000000E+00 -0.00000000000E+00 -0.38660455148E+02  0.38660455477E+02  0.50400000000E-02 0. -1.
    5000001    1    1    2    0    0  0.53950401207E+02  0.56852007978E+02  0.60949593904E+03  0.63628067415E+03  0.16500000000E+03 0.  0.
   -5000001    1    1    2    0    0 -0.53950401207E+02 -0.56852007978E+02  0.30486964287E+03  0.35540581839E+03  0.16500000000E+03 0.  0.
<mgrwt>
<rscale>  0 0.38389801E+03</rscale>
<asrwt>0</asrwt>
<pdfrwt beam="1">  1        1 0.14661939E+00 0.38389801E+03</pdfrwt>
<pdfrwt beam="2">  1       -1 0.59477625E-02 0.38389801E+03</pdfrwt>
<totfact> 0.23559148E+03</totfact>
</mgrwt>
</event>
<event>
 4    1  0.2309632E-005  0.8222793E+03  0.7818608E-02  0.9528317E-01
          1   -1    0    0  501    0  0.00000000000E+00  0.00000000000E+00  0.40942679522E+03  0.40942679525E+03  0.50400000000E-02 0.  1.
         -1   -1    0    0    0  501 -0.00000000000E+00 -0.00000000000E+00 -0.41285964745E+03  0.41285964748E+03  0.50400000000E-02 0. -1.
    5000001    1    1    2    0    0 -0.15230110323E+03  0.72184527042E+02  0.33504245928E+03  0.40973733234E+03  0.16500000000E+03 0.  0.
   -5000001    1    1    2    0    0  0.15230110323E+03 -0.72184527042E+02 -0.33847531150E+03  0.41254911040E+03  0.16500000000E+03 0.  0.
<mgrwt>
<rscale>  0 0.82227928E+03</rscale>
<asrwt>0</asrwt>
<pdfrwt beam="1">  1        1 0.62988738E-01 0.82227928E+03</pdfrwt>
<pdfrwt beam="2">  1       -1 0.63516869E-01 0.82227928E+03</pdfrwt>
<totfact> 0.14787796E+02</totfact>
</mgrwt>
</event>
<event>
 4    1  0.2309632E-005  0.6961436E+03  0.7818608E-02  0.9723850E-01
         -1   -1    0    0    0  501 -0.00000000000E+00  0.00000000000E+00  0.45088963768E+03  0.45088963771E+03  0.50400000000E-02 0. -1.
          1   -1    0    0  501    0  0.00000000000E+00 -0.00000000000E+00 -0.26869985974E+03  0.26869985978E+03  0.50400000000E-02 0.  1.
    5000001    1    1    2    0    0 -0.24271980886E+03 -0.17105943982E+03  0.12679913603E+02  0.33994119752E+03  0.16500000000E+03 0.  0.
   -5000001    1    1    2    0    0  0.24271980886E+03  0.17105943982E+03  0.16950986434E+03  0.37964829997E+03  0.16500000000E+03 0.  0.
<mgrwt>
<rscale>  0 0.69614361E+03</rscale>
<asrwt>0</asrwt>
<pdfrwt beam="1">  1        1 0.41338441E-01 0.69614361E+03</pdfrwt>
<pdfrwt beam="2">  1       -1 0.69367635E-01 0.69614361E+03</pdfrwt>
<totfact> 0.21591441E+02</totfact>
</mgrwt>
</event>
<event>
 4    1  0.2309632E-005  0.9494236E+03  0.7818608E-02  0.9365825E-01
          1   -1    0    0  501    0  0.00000000000E+00  0.00000000000E+00  0.15992469950E+04  0.15992469950E+04  0.50400000000E-02 0. -1.
         -1   -1    0    0    0  501 -0.00000000000E+00 -0.00000000000E+00 -0.14091087682E+03  0.14091087691E+03  0.50400000000E-02 0.  1.
    5000001    1    1    2    0    0 -0.31832049295E+03 -0.22659943238E+03  0.33841658944E+03  0.54261038232E+03  0.16500000000E+03 0.  0.
   -5000001    1    1    2    0    0  0.31832049295E+03  0.22659943238E+03  0.11199195287E+04  0.11975474896E+04  0.16500000000E+03 0.  0.
<mgrwt>
<rscale>  0 0.94942361E+03</rscale>
<asrwt>0</asrwt>
<pdfrwt beam="1">  1        1 0.24603800E+00 0.94942361E+03</pdfrwt>
<pdfrwt beam="2">  1       -1 0.21678596E-01 0.94942361E+03</pdfrwt>
<totfact> 0.10043437E+02</totfact>
</mgrwt>
</event>
<event>
 4    1  0.2309632E-005  0.4895845E+03  0.7818608E-02  0.1016534E+00
          1   -1    0    0  501    0  0.00000000000E+00  0.00000000000E+00  0.66061231442E+03  0.66061231444E+03  0.50400000000E-02 0.  1.
         -1   -1    0    0    0  501 -0.00000000000E+00 -0.00000000000E+00 -0.90708655898E+02  0.90708656038E+02  0.50400000000E-02 0. -1.
    5000001    1    1    2    0    0 -0.58051801883E+02 -0.23554178122E+02  0.24640097485E+02  0.17820478505E+03  0.16500000000E+03 0.  0.
   -5000001    1    1    2    0    0  0.58051801883E+02  0.23554178122E+02  0.54526356103E+03  0.57311618543E+03  0.16500000000E+03 0.  0.
<mgrwt>
<rscale>  0 0.48958454E+03</rscale>
<asrwt>0</asrwt>
<pdfrwt beam="1">  1        1 0.10163266E+00 0.48958454E+03</pdfrwt>
<pdfrwt beam="2">  1       -1 0.13955178E-01 0.48958454E+03</pdfrwt>
<totfact> 0.11061542E+03</totfact>
</mgrwt>
</event>
<event>
 4    1  0.2309632E-005  0.3933590E+03  0.7818608E-02  0.1046104E+00
          1   -1    0    0  501    0  0.00000000000E+00  0.00000000000E+00  0.62923897878E+03  0.62923897880E+03  0.50400000000E-02 0. -1.
         -1   -1    0    0    0  501 -0.00000000000E+00 -0.00000000000E+00 -0.61475558869E+02  0.61475559075E+02  0.50400000000E-02 0.  1.
    5000001    1    1    2    0    0 -0.74037057264E+02  0.26028614551E+01  0.41955070536E+03  0.45687641119E+03  0.16500000000E+03 0.  0.
   -5000001    1    1    2    0    0  0.74037057264E+02 -0.26028614551E+01  0.14821271455E+03  0.23383812668E+03  0.16500000000E+03 0.  0.
<mgrwt>
<rscale>  0 0.39335896E+03</rscale>
<asrwt>0</asrwt>
<pdfrwt beam="1">  1        1 0.96805998E-01 0.39335896E+03</pdfrwt>
<pdfrwt beam="2">  1       -1 0.94577782E-02 0.39335896E+03</pdfrwt>
<totfact> 0.21939166E+03</totfact>
</mgrwt>
</event>
<event>
 4    1  0.2309632E-005  0.3950644E+03  0.7818608E-02  0.1045502E+00
          1   -1    0    0  501    0  0.00000000000E+00  0.00000000000E+00  0.61778970727E+03  0.61778970729E+03  0.50400000000E-02 0.  1.
         -1   -1    0    0    0  501 -0.00000000000E+00 -0.00000000000E+00 -0.63158994592E+02  0.63158994793E+02  0.50400000000E-02 0. -1.
    5000001    1    1    2    0    0  0.99935174560E+02  0.37083487553E+02  0.24150043601E+03  0.31130320389E+03  0.16500000000E+03 0.  0.
   -5000001    1    1    2    0    0 -0.99935174560E+02 -0.37083487553E+02  0.31313027667E+03  0.36964549819E+03  0.16500000000E+03 0.  0.
<mgrwt>
<rscale>  0 0.39506443E+03</rscale>
<asrwt>0</asrwt>
<pdfrwt beam="1">  1        1 0.95044574E-01 0.39506443E+03</pdfrwt>
<pdfrwt beam="2">  1       -1 0.97167681E-02 0.39506443E+03</pdfrwt>
<totfact> 0.21592995E+03</totfact>
</mgrwt>
</event>
<event>
 4    1  0.2309632E-005  0.1016642E+04  0.7818608E-02  0.9290478E-01
          1   -1    0    0  501    0  0.00000000000E+00  0.00000000000E+00  0.57972433154E+03  0.57972433156E+03  0.50400000000E-02 0.  1.
         -1   -1    0    0    0  501 -0.00000000000E+00 -0.00000000000E+00 -0.44571263649E+03  0.44571263652E+03  0.50400000000E-02 0. -1.
    5000001    1    1    2    0    0 -0.38371289629E+03 -0.28472170426E+03  0.12097972438E+03  0.51977218987E+03  0.16500000000E+03 0.  0.
   -5000001    1    1    2    0    0  0.38371289629E+03  0.28472170426E+03  0.13031970667E+02  0.50566477820E+03  0.16500000000E+03 0.  0.
<mgrwt>
<rscale>  0 0.10166424E+04</rscale>
<asrwt>0</asrwt>
<pdfrwt beam="1">  1        1 0.89188358E-01 0.10166424E+04</pdfrwt>
<pdfrwt beam="2">  1       -1 0.68571175E-01 0.10166424E+04</pdfrwt>
<totfact> 0.77621733E+01</totfact>
</mgrwt>
</event>
<event>
 4    1  0.2309632E-005  0.6886601E+03  0.7818608E-02  0.9736824E-01
         -1   -1    0    0    0  501 -0.00000000000E+00  0.00000000000E+00  0.64968813806E+02  0.64968814001E+02  0.50400000000E-02 0. -1.
          1   -1    0    0  501    0  0.00000000000E+00 -0.00000000000E+00 -0.18249244400E+04  0.18249244400E+04  0.50400000000E-02 0.  1.
    5000001    1    1    2    0    0  0.23296850081E+03 -0.19822190756E+02 -0.14055027834E+04  0.14343396794E+04  0.16500000000E+03 0.  0.
   -5000001    1    1    2    0    0 -0.23296850081E+03  0.19822190756E+02 -0.35445284278E+03  0.45555357464E+03  0.16500000000E+03 0.  0.
<mgrwt>
<rscale>  0 0.68866008E+03</rscale>
<asrwt>0</asrwt>
<pdfrwt beam="1">  1        1 0.28075757E+00 0.68866008E+03</pdfrwt>
<pdfrwt beam="2">  1       -1 0.99952035E-02 0.68866008E+03</pdfrwt>
<totfact> 0.25482423E+02</totfact>
</mgrwt>
</event>
<event>
 4    1  0.2309632E-005  0.1120954E+04  0.7818608E-02  0.9185006E-01
         -1   -1    0    0    0  501 -0.00000000000E+00  0.00000000000E+00  0.15883172992E+03  0.15883173000E+03  0.50400000000E-02 0.  1.
          1   -1    0    0  501    0  0.00000000000E+00 -0.00000000000E+00 -0.19777831343E+04  0.19777831343E+04  0.50400000000E-02 0. -1.
    5000001    1    1    2    0    0 -0.21116502933E+03  0.41938362348E+03 -0.14007696390E+04  0.14865577267E+04  0.16500000000E+03 0.  0.
   -5000001    1    1    2    0    0  0.21116502933E+03 -0.41938362348E+03 -0.41818176537E+03  0.65005713761E+03  0.16500000000E+03 0.  0.
<mgrwt>
<rscale>  0 0.11209544E+04</rscale>
<asrwt>0</asrwt>
<pdfrwt beam="1">  1        1 0.30427431E+00 0.11209544E+04</pdfrwt>
<pdfrwt beam="2">  1       -1 0.24435652E-01 0.11209544E+04</pdfrwt>
<totfact> 0.44834379E+01</totfact>
</mgrwt>
</event>
<event>
 4    1  0.2309632E-005  0.6400974E+03  0.7818608E-02  0.9825540E-01
          1   -1    0    0  501    0  0.00000000000E+00  0.00000000000E+00  0.86543601892E+03  0.86543601893E+03  0.50400000000E-02 0. -1.
         -1   -1    0    0    0  501 -0.00000000000E+00 -0.00000000000E+00 -0.11835788585E+03  0.11835788596E+03  0.50400000000E-02 0.  1.
    5000001    1    1    2    0    0  0.55269191186E+02  0.15294862197E+03  0.34162431050E+02  0.23417949559E+03  0.16500000000E+03 0.  0.
   -5000001    1    1    2    0    0 -0.55269191186E+02 -0.15294862197E+03  0.71291570202E+03  0.74961440931E+03  0.16500000000E+03 0.  0.
<mgrwt>
<rscale>  0 0.64009742E+03</rscale>
<asrwt>0</asrwt>
<pdfrwt beam="1">  1        1 0.13314400E+00 0.64009742E+03</pdfrwt>
<pdfrwt beam="2">  1       -1 0.18208906E-01 0.64009742E+03</pdfrwt>
<totfact> 0.47044009E+02</totfact>
</mgrwt>
</event>
<event>
 4    1  0.2309632E-005  0.6075588E+03  0.7818608E-02  0.9889847E-01
          1   -1    0    0  501    0  0.00000000000E+00  0.00000000000E+00  0.13333544728E+04  0.13333544728E+04  0.50400000000E-02 0.  1.
         -1   -1    0    0    0  501 -0.00000000000E+00 -0.00000000000E+00 -0.69210341658E+02  0.69210341842E+02  0.50400000000E-02 0. -1.
    5000001    1    1    2    0    0  0.10554175447E+03  0.19928612818E+03  0.90719265196E+03  0.94925103666E+03  0.16500000000E+03 0.  0.
   -5000001    1    1    2    0    0 -0.10554175447E+03 -0.19928612818E+03  0.35695147914E+03  0.45331377795E+03  0.16500000000E+03 0.  0.
<mgrwt>
<rscale>  0 0.60755878E+03</rscale>
<asrwt>0</asrwt>
<pdfrwt beam="1">  1        1 0.20513144E+00 0.60755878E+03</pdfrwt>
<pdfrwt beam="2">  1       -1 0.10647746E-01 0.60755878E+03</pdfrwt>
<totfact> 0.49979622E+02</totfact>
</mgrwt>
</event>
<event>
 4    1  0.2309632E-005  0.6073082E+03  0.7818608E-02  0.9890359E-01
         -1   -1    0    0    0  501 -0.00000000000E+00  0.00000000000E+00  0.15794083239E+03  0.15794083247E+03  0.50400000000E-02 0. -1.
          1   -1    0    0  501    0  0.00000000000E+00 -0.00000000000E+00 -0.58379966666E+03  0.58379966668E+03  0.50400000000E-02 0.  1.
    5000001    1    1    2    0    0 -0.17859739974E+03 -0.21083643138E+02 -0.43358401262E+03  0.49755567246E+03  0.16500000000E+03 0.  0.
   -5000001    1    1    2    0    0  0.17859739974E+03  0.21083643138E+02  0.77251783459E+01  0.24418482669E+03  0.16500000000E+03 0.  0.
<mgrwt>
<rscale>  0 0.60730818E+03</rscale>
<asrwt>0</asrwt>
<pdfrwt beam="1">  1        1 0.89815332E-01 0.60730818E+03</pdfrwt>
<pdfrwt beam="2">  1       -1 0.24298590E-01 0.60730818E+03</pdfrwt>
<totfact> 0.52921159E+02</totfact>
</mgrwt>
</event>
<event>
 4    1  0.2309632E-005  0.5089403E+03  0.7818608E-02  0.1011471E+00
         -1   -1    0    0    0  501 -0.00000000000E+00  0.00000000000E+00  0.34273014587E+03  0.34273014590E+03  0.50400000000E-02 0. -1.
          1   -1    0    0  501    0  0.00000000000E+00 -0.00000000000E+00 -0.18893892111E+03  0.18893892118E+03  0.50400000000E-02 0.  1.
    5000001    1    1    2    0    0  0.13849856602E+03 -0.11904380520E+03  0.14440987374E+03  0.28536378884E+03  0.16500000000E+03 0.  0.
   -5000001    1    1    2    0    0 -0.13849856602E+03  0.11904380520E+03  0.93813510157E+01  0.24630527825E+03  0.16500000000E+03 0.  0.
<mgrwt>
<rscale>  0 0.50894033E+03</rscale>
<asrwt>0</asrwt>
<pdfrwt beam="1">  1        1 0.29067527E-01 0.50894033E+03</pdfrwt>
<pdfrwt beam="2">  1       -1 0.52727714E-01 0.50894033E+03</pdfrwt>
<totfact> 0.58659749E+02</totfact>
</mgrwt>
</event>
<event>
 4    1  0.2309632E-005  0.4203493E+03  0.7818608E-02  0.1036953E+00
         -1   -1    0    0    0  501 -0.00000000000E+00  0.00000000000E+00  0.68393665891E+02  0.68393666076E+02  0.50400000000E-02 0.  1.
          1   -1    0    0  501    0  0.00000000000E+00 -0.00000000000E+00 -0.64586961771E+03  0.64586961773E+03  0.50400000000E-02 0. -1.
    5000001    1    1    2    0    0 -0.82762314576E+02 -0.91352423107E+02 -0.21758321865E+03  0.29960360972E+03  0.16500000000E+03 0.  0.
   -5000001    1    1    2    0    0  0.82762314576E+02  0.91352423107E+02 -0.35989273317E+03  0.41465967408E+03  0.16500000000E+03 0.  0.
<mgrwt>
<rscale>  0 0.42034934E+03</rscale>
<asrwt>0</asrwt>
<pdfrwt beam="1">  1        1 0.99364552E-01 0.42034934E+03</pdfrwt>
<pdfrwt beam="2">  1       -1 0.10522103E-01 0.42034934E+03</pdfrwt>
<totfact> 0.17893515E+03</totfact>
</mgrwt>
</event>
<event>
 4    1  0.2309632E-005  0.6909942E+03  0.7818608E-02  0.9732758E-01
          1   -1    0    0  501    0  0.00000000000E+00  0.00000000000E+00  0.43862640715E+02  0.43862641004E+02  0.50400000000E-02 0.  1.
         -1   -1    0    0    0  501 -0.00000000000E+00 -0.00000000000E+00 -0.27214105904E+04  0.27214105904E+04  0.50400000000E-02 0. -1.
    5000001    1    1    2    0    0 -0.16956612172E+03 -0.22468203084E+03 -0.88409726310E+03  0.94238402747E+03  0.16500000000E+03 0.  0.
   -5000001    1    1    2    0    0  0.16956612172E+03  0.22468203084E+03 -0.17934506866E+04  0.18228892040E+04  0.16500000000E+03 0.  0.
<mgrwt>
<rscale>  0 0.69099423E+03</rscale>
<asrwt>0</asrwt>
<pdfrwt beam="1">  1        1 0.67481007E-02 0.69099423E+03</pdfrwt>
<pdfrwt beam="2">  1       -1 0.41867842E+00 0.69099423E+03</pdfrwt>
<totfact> 0.66320488E+00</totfact>
</mgrwt>
</event>
<event>
 4    1  0.2309632E-005  0.1137819E+04  0.7818608E-02  0.9169095E-01
         -1   -1    0    0    0  501 -0.00000000000E+00  0.00000000000E+00  0.34163637792E+03  0.34163637796E+03  0.50400000000E-02 0. -1.
          1   -1    0    0  501    0  0.00000000000E+00 -0.00000000000E+00 -0.94737651452E+03  0.94737651454E+03  0.50400000000E-02 0.  1.
    5000001    1    1    2    0    0  0.54251537124E+02 -0.53314487472E+03 -0.19393322047E+03  0.59331423438E+03  0.16500000000E+03 0.  0.
   -5000001    1    1    2    0    0 -0.54251537124E+02  0.53314487472E+03 -0.41180691613E+03  0.69569865811E+03  0.16500000000E+03 0.  0.
<mgrwt>
<rscale>  0 0.11378195E+04</rscale>
<asrwt>0</asrwt>
<pdfrwt beam="1">  1        1 0.14575023E+00 0.11378195E+04</pdfrwt>
<pdfrwt beam="2">  1       -1 0.52559443E-01 0.11378195E+04</pdfrwt>
<totfact> 0.60374529E+01</totfact>
</mgrwt>
</event>
<event>
 4    1  0.2309632E-005  0.1264204E+04  0.7818608E-02  0.9058443E-01
          1   -1    0    0  501    0  0.00000000000E+00  0.00000000000E+00  0.13710090266E+04  0.13710090266E+04  0.50400000000E-02 0.  1.
         -1   -1    0    0    0  501 -0.00000000000E+00 -0.00000000000E+00 -0.29142995746E+03  0.29142995751E+03  0.50400000000E-02 0. -1.
    5000001    1    1    2    0    0  0.57577572833E+03 -0.18878838715E+03  0.44524274950E+03  0.76982131072E+03  0.16500000000E+03 0.  0.
   -5000001    1    1    2    0    0 -0.57577572833E+03  0.18878838715E+03  0.63433631964E+03  0.89261767340E+03  0.16500000000E+03 0.  0.
<mgrwt>
<rscale>  0 0.12642043E+04</rscale>
<asrwt>0</asrwt>
<pdfrwt beam="1">  1        1 0.21092447E+00 0.12642043E+04</pdfrwt>
<pdfrwt beam="2">  1       -1 0.44835378E-01 0.12642043E+04</pdfrwt>
<totfact> 0.39108496E+01</totfact>
</mgrwt>
</event>
<event>
 4    1  0.2309632E-005  0.3596808E+03  0.7818608E-02  0.1058710E+00
         -1   -1    0    0    0  501 -0.00000000000E+00  0.00000000000E+00  0.46087997886E+03  0.46087997889E+03  0.50400000000E-02 0. -1.
          1   -1    0    0  501    0  0.00000000000E+00 -0.00000000000E+00 -0.70175682979E+02  0.70175683160E+02  0.50400000000E-02 0.  1.
    5000001    1    1    2    0    0 -0.41808990217E+02 -0.86615910711E+01  0.11060579449E+03  0.20317887833E+03  0.16500000000E+03 0.  0.
   -5000001    1    1    2    0    0  0.41808990217E+02  0.86615910711E+01  0.28009850139E+03  0.32787678372E+03  0.16500000000E+03 0.  0.
<mgrwt>
<rscale>  0 0.35968079E+03</rscale>
<asrwt>0</asrwt>
<pdfrwt beam="1">  1        1 0.10796259E-01 0.35968079E+03</pdfrwt>
<pdfrwt beam="2">  1       -1 0.70904614E-01 0.35968079E+03</pdfrwt>
<totfact> 0.12127686E+03</totfact>
</mgrwt>
</event>
<event>
 4    1  0.2309632E-005  0.4311843E+03  0.7818608E-02  0.1033486E+00
         -1   -1    0    0    0  501 -0.00000000000E+00  0.00000000000E+00  0.53107257265E+02  0.53107257504E+02  0.50400000000E-02 0.  1.
          1   -1    0    0  501    0  0.00000000000E+00 -0.00000000000E+00 -0.87520959557E+03  0.87520959558E+03  0.50400000000E-02 0. -1.
    5000001    1    1    2    0    0  0.82838648764E+02 -0.94011455373E+02 -0.53941059559E+03  0.57783145130E+03  0.16500000000E+03 0.  0.
   -5000001    1    1    2    0    0 -0.82838648764E+02  0.94011455373E+02 -0.28269174271E+03  0.35048540179E+03  0.16500000000E+03 0.  0.
<mgrwt>
<rscale>  0 0.43118433E+03</rscale>
<asrwt>0</asrwt>
<pdfrwt beam="1">  1        1 0.13464762E+00 0.43118433E+03</pdfrwt>
<pdfrwt beam="2">  1       -1 0.81703479E-02 0.43118433E+03</pdfrwt>
<totfact> 0.16671885E+03</totfact>
</mgrwt>
</event>
<event>
 4    1  0.2309632E-005  0.4127017E+03  0.7818608E-02  0.1039468E+00
         -1   -1    0    0    0  501 -0.00000000000E+00  0.00000000000E+00  0.32839471937E+03  0.32839471941E+03  0.50400000000E-02 0. -1.
          1   -1    0    0  501    0  0.00000000000E+00 -0.00000000000E+00 -0.12966310814E+03  0.12966310824E+03  0.50400000000E-02 0.  1.
    5000001    1    1    2    0    0  0.78133723296E+02 -0.23495342730E+02 -0.41514967231E+01  0.18411720390E+03  0.16500000000E+03 0.  0.
   -5000001    1    1    2    0    0 -0.78133723296E+02  0.23495342730E+02  0.20288310796E+03  0.27394062375E+03  0.16500000000E+03 0.  0.
<mgrwt>
<rscale>  0 0.41270173E+03</rscale>
<asrwt>0</asrwt>
<pdfrwt beam="1">  1        1 0.19948171E-01 0.41270173E+03</pdfrwt>
<pdfrwt beam="2">  1       -1 0.50522264E-01 0.41270173E+03</pdfrwt>
<totfact> 0.10368999E+03</totfact>
</mgrwt>
</event>
<event>
 4    1  0.2309632E-005  0.5654369E+03  0.7818608E-02  0.9979827E-01
          1   -1    0    0  501    0  0.00000000000E+00  0.00000000000E+00  0.35235428659E+03  0.35235428662E+03  0.50400000000E-02 0.  1.
         -1   -1    0    0    0  501 -0.00000000000E+00 -0.00000000000E+00 -0.22684478424E+03  0.22684478429E+03  0.50400000000E-02 0. -1.
    5000001    1    1    2    0    0  0.19175090041E+03  0.11948751097E+03  0.21031839834E+02  0.28055839209E+03  0.16500000000E+03 0.  0.
   -5000001    1    1    2    0    0 -0.19175090041E+03 -0.11948751097E+03  0.10447766252E+03  0.29864067883E+03  0.16500000000E+03 0.  0.
<mgrwt>
<rscale>  0 0.56543694E+03</rscale>
<asrwt>0</asrwt>
<pdfrwt beam="1">  1        1 0.54208352E-01 0.56543694E+03</pdfrwt>
<pdfrwt beam="2">  1       -1 0.34899198E-01 0.56543694E+03</pdfrwt>
<totfact> 0.55923760E+02</totfact>
</mgrwt>
</event>
<event>
 4    1  0.2309632E-005  0.8579408E+03  0.7818608E-02  0.9479741E-01
          1   -1    0    0  501    0  0.00000000000E+00  0.00000000000E+00  0.12216644098E+04  0.12216644099E+04  0.50400000000E-02 0.  1.
         -1   -1    0    0    0  501 -0.00000000000E+00 -0.00000000000E+00 -0.15062695900E+03  0.15062695909E+03  0.50400000000E-02 0. -1.
    5000001    1    1    2    0    0  0.34715069595E+03  0.11805146847E+03  0.29644118929E+03  0.49955193285E+03  0.16500000000E+03 0.  0.
   -5000001    1    1    2    0    0 -0.34715069595E+03 -0.11805146847E+03  0.77459626156E+03  0.87273943610E+03  0.16500000000E+03 0.  0.
<mgrwt>
<rscale>  0 0.85794078E+03</rscale>
<asrwt>0</asrwt>
<pdfrwt beam="1">  1        1 0.18794838E+00 0.85794078E+03</pdfrwt>
<pdfrwt beam="2">  1       -1 0.23173378E-01 0.85794078E+03</pdfrwt>
<totfact> 0.16574798E+02</totfact>
</mgrwt>
</event>
<event>
 4    1  0.2309632E-005  0.5959130E+03  0.7818608E-02  0.9913922E-01
          1   -1    0    0  501    0  0.00000000000E+00  0.00000000000E+00  0.38235018572E+03  0.38235018575E+03  0.50400000000E-02 0.  1.
         -1   -1    0    0    0  501 -0.00000000000E+00 -0.00000000000E+00 -0.23219046351E+03  0.23219046357E+03  0.50400000000E-02 0. -1.
    5000001    1    1    2    0    0 -0.16028261138E+03  0.18442191509E+03  0.30710443706E+02  0.29642889473E+03  0.16500000000E+03 0.  0.
   -5000001    1    1    2    0    0  0.16028261138E+03 -0.18442191509E+03  0.11944927850E+03  0.31811175459E+03  0.16500000000E+03 0.  0.
<mgrwt>
<rscale>  0 0.59591297E+03</rscale>
<asrwt>0</asrwt>
<pdfrwt beam="1">  1        1 0.58823105E-01 0.59591297E+03</pdfrwt>
<pdfrwt beam="2">  1       -1 0.35721610E-01 0.59591297E+03</pdfrwt>
<totfact> 0.48191876E+02</totfact>
</mgrwt>
</event>
<event>
 4    1  0.2309632E-005  0.3627760E+03  0.7818608E-02  0.1057490E+00
          1   -1    0    0  501    0  0.00000000000E+00  0.00000000000E+00  0.61961579534E+03  0.61961579536E+03  0.50400000000E-02 0. -1.
         -1   -1    0    0    0  501 -0.00000000000E+00 -0.00000000000E+00 -0.53100013304E+02  0.53100013543E+02  0.50400000000E-02 0.  1.
    5000001    1    1    2    0    0 -0.13004972954E+02  0.53927880849E+02  0.37779842738E+03  0.41597355371E+03  0.16500000000E+03 0.  0.
   -5000001    1    1    2    0    0  0.13004972954E+02 -0.53927880849E+02  0.18871735466E+03  0.25674225520E+03  0.16500000000E+03 0.  0.
<mgrwt>
<rscale>  0 0.36277600E+03</rscale>
<asrwt>0</asrwt>
<pdfrwt beam="1">  1        1 0.95325507E-01 0.36277600E+03</pdfrwt>
<pdfrwt beam="2">  1       -1 0.81692328E-02 0.36277600E+03</pdfrwt>
<totfact> 0.28116880E+03</totfact>
</mgrwt>
</event>
<event>
 4    1  0.2309632E-005  0.7388484E+03  0.7818608E-02  0.9653010E-01
         -1   -1    0    0    0  501 -0.00000000000E+00  0.00000000000E+00  0.97408266050E+03  0.97408266052E+03  0.50400000000E-02 0.  1.
          1   -1    0    0  501    0  0.00000000000E+00 -0.00000000000E+00 -0.14010538408E+03  0.14010538417E+03  0.50400000000E-02 0. -1.
    5000001    1    1    2    0    0 -0.43501468674E+02 -0.30310951583E+03  0.60462165568E+03  0.69753860315E+03  0.16500000000E+03 0.  0.
   -5000001    1    1    2    0    0  0.43501468674E+02  0.30310951583E+03  0.22935562075E+03  0.41664944154E+03  0.16500000000E+03 0.  0.
<mgrwt>
<rscale>  0 0.73884836E+03</rscale>
<asrwt>0</asrwt>
<pdfrwt beam="1">  1        1 0.21554674E-01 0.73884836E+03</pdfrwt>
<pdfrwt beam="2">  1       -1 0.14985888E+00 0.73884836E+03</pdfrwt>
<totfact> 0.84552880E+01</totfact>
</mgrwt>
</event>
<event>
 4    1  0.2309632E-005  0.8799419E+03  0.7818608E-02  0.9451008E-01
         -1   -1    0    0    0  501 -0.00000000000E+00  0.00000000000E+00  0.19603960639E+03  0.19603960645E+03  0.50400000000E-02 0. -1.
          1   -1    0    0  501    0  0.00000000000E+00 -0.00000000000E+00 -0.98742506829E+03  0.98742506831E+03  0.50400000000E-02 0.  1.
    5000001    1    1    2    0    0  0.11993918766E+03  0.38013240576E+03 -0.27950273923E+03  0.51403583133E+03  0.16500000000E+03 0.  0.
   -5000001    1    1    2    0    0 -0.11993918766E+03 -0.38013240576E+03 -0.51188272267E+03  0.66942884343E+03  0.16500000000E+03 0.  0.
<mgrwt>
<rscale>  0 0.87994187E+03</rscale>
<asrwt>0</asrwt>
<pdfrwt beam="1">  1        1 0.15191155E+00 0.87994187E+03</pdfrwt>
<pdfrwt beam="2">  1       -1 0.30159940E-01 0.87994187E+03</pdfrwt>
<totfact> 0.15757352E+02</totfact>
</mgrwt>
</event>
<event>
 4    1  0.2309632E-005  0.4297146E+03  0.7818608E-02  0.1033950E+00
         -1   -1    0    0    0  501 -0.00000000000E+00  0.00000000000E+00  0.26165654217E+02  0.26165654703E+02  0.50400000000E-02 0. -1.
          1   -1    0    0  501    0  0.00000000000E+00 -0.00000000000E+00 -0.17642844124E+04  0.17642844124E+04  0.50400000000E-02 0.  1.
    5000001    1    1    2    0    0 -0.10888566964E+03 -0.31006137854E+02 -0.11950461161E+04  0.12116838239E+04  0.16500000000E+03 0.  0.
   -5000001    1    1    2    0    0  0.10888566964E+03  0.31006137854E+02 -0.54307264214E+03  0.57876624321E+03  0.16500000000E+03 0.  0.
<mgrwt>
<rscale>  0 0.42971459E+03</rscale>
<asrwt>0</asrwt>
<pdfrwt beam="1">  1        1 0.27142828E+00 0.42971459E+03</pdfrwt>
<pdfrwt beam="2">  1       -1 0.40254867E-02 0.42971459E+03</pdfrwt>
<totfact> 0.11578626E+03</totfact>
</mgrwt>
</event>
<event>
 4    1  0.2309632E-005  0.3877121E+03  0.7818608E-02  0.1048120E+00
         -1   -1    0    0    0  501 -0.00000000000E+00  0.00000000000E+00  0.64002048331E+02  0.64002048530E+02  0.50400000000E-02 0. -1.
          1   -1    0    0  501    0  0.00000000000E+00 -0.00000000000E+00 -0.58717131512E+03  0.58717131514E+03  0.50400000000E-02 0.  1.
    5000001    1    1    2    0    0  0.51298090322E+02  0.72445442832E+02 -0.17802358246E+03  0.25845160508E+03  0.16500000000E+03 0.  0.
   -5000001    1    1    2    0    0 -0.51298090322E+02 -0.72445442832E+02 -0.34514568433E+03  0.39272175859E+03  0.16500000000E+03 0.  0.
<mgrwt>
<rscale>  0 0.38771209E+03</rscale>
<asrwt>0</asrwt>
<pdfrwt beam="1">  1        1 0.90334045E-01 0.38771209E+03</pdfrwt>
<pdfrwt beam="2">  1       -1 0.98464694E-02 0.38771209E+03</pdfrwt>
<totfact> 0.22719380E+03</totfact>
</mgrwt>
</event>
<event>
 4    1  0.2309632E-005  0.4936461E+03  0.7818608E-02  0.1015451E+00
          1   -1    0    0  501    0  0.00000000000E+00  0.00000000000E+00  0.15084991337E+03  0.15084991345E+03  0.50400000000E-02 0.  1.
         -1   -1    0    0    0  501 -0.00000000000E+00 -0.00000000000E+00 -0.40385577360E+03  0.40385577364E+03  0.50400000000E-02 0. -1.
    5000001    1    1    2    0    0 -0.71162134821E+02 -0.14270541012E+03 -0.24329034284E+02  0.23075048303E+03  0.16500000000E+03 0.  0.
   -5000001    1    1    2    0    0  0.71162134821E+02  0.14270541012E+03 -0.22867682595E+03  0.32395520406E+03  0.16500000000E+03 0.  0.
<mgrwt>
<rscale>  0 0.49364606E+03</rscale>
<asrwt>0</asrwt>
<pdfrwt beam="1">  1        1 0.23207679E-01 0.49364606E+03</pdfrwt>
<pdfrwt beam="2">  1       -1 0.62131657E-01 0.49364606E+03</pdfrwt>
<totfact> 0.57187354E+02</totfact>
</mgrwt>
</event>
<event>
 4    1  0.2309632E-005  0.7097688E+03  0.7818608E-02  0.9700671E-01
          1   -1    0    0  501    0  0.00000000000E+00  0.00000000000E+00  0.12352410484E+04  0.12352410484E+04  0.50400000000E-02 0.  1.
         -1   -1    0    0    0  501 -0.00000000000E+00 -0.00000000000E+00 -0.10195819132E+03  0.10195819145E+03  0.50400000000E-02 0. -1.
    5000001    1    1    2    0    0 -0.29081062708E+03  0.11481833289E+02  0.34360271625E+03  0.47957322688E+03  0.16500000000E+03 0.  0.
   -5000001    1    1    2    0    0  0.29081062708E+03 -0.11481833289E+02  0.78968014080E+03  0.85762601296E+03  0.16500000000E+03 0.  0.
<mgrwt>
<rscale>  0 0.70976882E+03</rscale>
<asrwt>0</asrwt>
<pdfrwt beam="1">  1        1 0.19003709E+00 0.70976882E+03</pdfrwt>
<pdfrwt beam="2">  1       -1 0.15685875E-01 0.70976882E+03</pdfrwt>
<totfact> 0.31281153E+02</totfact>
</mgrwt>
</event>
<event>
 4    1  0.2309632E-005  0.4772195E+03  0.7818608E-02  0.1019902E+00
         -1   -1    0    0    0  501 -0.00000000000E+00  0.00000000000E+00  0.60835658714E+02  0.60835658922E+02  0.50400000000E-02 0. -1.
          1   -1    0    0  501    0  0.00000000000E+00 -0.00000000000E+00 -0.93587575038E+03  0.93587575039E+03  0.50400000000E-02 0.  1.
    5000001    1    1    2    0    0 -0.11371358601E+01  0.16285250345E+03 -0.55543492781E+03  0.60187639096E+03  0.16500000000E+03 0.  0.
   -5000001    1    1    2    0    0  0.11371358601E+01 -0.16285250345E+03 -0.31960516385E+03  0.39483501835E+03  0.16500000000E+03 0.  0.
<mgrwt>
<rscale>  0 0.47721952E+03</rscale>
<asrwt>0</asrwt>
<pdfrwt beam="1">  1        1 0.14398087E+00 0.47721952E+03</pdfrwt>
<pdfrwt beam="2">  1       -1 0.93593328E-02 0.47721952E+03</pdfrwt>
<totfact> 0.12060514E+03</totfact>
</mgrwt>
</event>
<event>
 4    1  0.2309632E-005  0.3492392E+03  0.7818608E-02  0.1062928E+00
          1   -1    0    0  501    0  0.00000000000E+00  0.00000000000E+00  0.11402267582E+04  0.11402267582E+04  0.50400000000E-02 0.  1.
         -1   -1    0    0    0  501 -0.00000000000E+00 -0.00000000000E+00 -0.26742059433E+02  0.26742059908E+02  0.50400000000E-02 0. -1.
    5000001    1    1    2    0    0  0.41061314316E+02  0.22135847118E+02  0.66711095519E+03  0.68879463833E+03  0.16500000000E+03 0.  0.
   -5000001    1    1    2    0    0 -0.41061314316E+02 -0.22135847118E+02  0.44637374359E+03  0.47817417980E+03  0.16500000000E+03 0.  0.
<mgrwt>
<rscale>  0 0.34923924E+03</rscale>
<asrwt>0</asrwt>
<pdfrwt beam="1">  1        1 0.17541949E+00 0.34923924E+03</pdfrwt>
<pdfrwt beam="2">  1       -1 0.41141632E-02 0.34923924E+03</pdfrwt>
<totfact> 0.29829597E+03</totfact>
</mgrwt>
</event>
<event>
 4    1  0.2309632E-005  0.6630923E+03  0.7818608E-02  0.9782518E-01
         -1   -1    0    0    0  501 -0.00000000000E+00  0.00000000000E+00  0.71275792441E+02  0.71275792619E+02  0.50400000000E-02 0. -1.
          1   -1    0    0  501    0  0.00000000000E+00 -0.00000000000E+00 -0.15422186192E+04  0.15422186192E+04  0.50400000000E-02 0.  1.
    5000001    1    1    2    0    0  0.16347665722E+02  0.10020571924E+03 -0.80788470587E+02  0.20990523891E+03  0.16500000000E+03 0.  0.
   -5000001    1    1    2    0    0 -0.16347665722E+02 -0.10020571924E+03 -0.13901543562E+04  0.14035891729E+04  0.16500000000E+03 0.  0.
<mgrwt>
<rscale>  0 0.66309231E+03</rscale>
<asrwt>0</asrwt>
<pdfrwt beam="1">  1        1 0.23726438E+00 0.66309231E+03</pdfrwt>
<pdfrwt beam="2">  1       -1 0.10965508E-01 0.66309231E+03</pdfrwt>
<totfact> 0.34148566E+02</totfact>
</mgrwt>
</event>
<event>
 4    1  0.2309632E-005  0.3661446E+03  0.7818608E-02  0.1056177E+00
          1   -1    0    0  501    0  0.00000000000E+00  0.00000000000E+00  0.18507366337E+04  0.18507366337E+04  0.50400000000E-02 0.  1.
         -1   -1    0    0    0  501 -0.00000000000E+00 -0.00000000000E+00 -0.18109255543E+02  0.18109256245E+02  0.50400000000E-02 0. -1.
    5000001    1    1    2    0    0 -0.53979483885E+02 -0.33442447034E+02  0.11588685069E+04  0.11722770143E+04  0.16500000000E+03 0.  0.
   -5000001    1    1    2    0    0  0.53979483885E+02  0.33442447034E+02  0.67375887123E+03  0.69656887564E+03  0.16500000000E+03 0.  0.
<mgrwt>
<rscale>  0 0.36614458E+03</rscale>
<asrwt>0</asrwt>
<pdfrwt beam="1">  1        1 0.28472862E+00 0.36614458E+03</pdfrwt>
<pdfrwt beam="2">  1       -1 0.27860403E-02 0.36614458E+03</pdfrwt>
<totfact> 0.17676629E+03</totfact>
</mgrwt>
</event>
<event>
 4    1  0.2309632E-005  0.7201617E+03  0.7818608E-02  0.9683361E-01
         -1   -1    0    0    0  501 -0.00000000000E+00  0.00000000000E+00  0.13989323231E+03  0.13989323240E+03  0.50400000000E-02 0. -1.
          1   -1    0    0  501    0  0.00000000000E+00 -0.00000000000E+00 -0.92683693058E+03  0.92683693059E+03  0.50400000000E-02 0.  1.
    5000001    1    1    2    0    0  0.19865622862E+02 -0.31270191177E+03 -0.29683789868E+03  0.46207668918E+03  0.16500000000E+03 0.  0.
   -5000001    1    1    2    0    0 -0.19865622862E+02  0.31270191177E+03 -0.49010579959E+03  0.60465347381E+03  0.16500000000E+03 0.  0.
<mgrwt>
<rscale>  0 0.72016169E+03</rscale>
<asrwt>0</asrwt>
<pdfrwt beam="1">  1        1 0.14259029E+00 0.72016169E+03</pdfrwt>
<pdfrwt beam="2">  1       -1 0.21522036E-01 0.72016169E+03</pdfrwt>
<totfact> 0.31637881E+02</totfact>
</mgrwt>
</event>
<event>
 4    1  0.2309632E-005  0.4349434E+03  0.7818608E-02  0.1032310E+00
          1   -1    0    0  501    0  0.00000000000E+00  0.00000000000E+00  0.80323362084E+03  0.80323362085E+03  0.50400000000E-02 0.  1.
         -1   -1    0    0    0  501 -0.00000000000E+00 -0.00000000000E+00 -0.58879441566E+02  0.58879441782E+02  0.50400000000E-02 0. -1.
    5000001    1    1    2    0    0  0.65454220977E+02 -0.53045448625E+02  0.14643317918E+03  0.23614773052E+03  0.16500000000E+03 0.  0.
   -5000001    1    1    2    0    0 -0.65454220977E+02  0.53045448625E+02  0.59792100009E+03  0.62596533212E+03  0.16500000000E+03 0.  0.
<mgrwt>
<rscale>  0 0.43494343E+03</rscale>
<asrwt>0</asrwt>
<pdfrwt beam="1">  1        1 0.12357439E+00 0.43494343E+03</pdfrwt>
<pdfrwt beam="2">  1       -1 0.90583763E-02 0.43494343E+03</pdfrwt>
<totfact> 0.16295049E+03</totfact>
</mgrwt>
</event>
<event>
 4    1  0.2309632E-005  0.6303806E+03  0.7818608E-02  0.9844306E-01
         -1   -1    0    0    0  501 -0.00000000000E+00  0.00000000000E+00  0.81392220590E+03  0.81392220591E+03  0.50400000000E-02 0.  1.
          1   -1    0    0  501    0  0.00000000000E+00 -0.00000000000E+00 -0.12205701990E+03  0.12205702000E+03  0.50400000000E-02 0. -1.
    5000001    1    1    2    0    0  0.25502523843E+03  0.83182361419E+02  0.32699117566E+03  0.45398833295E+03  0.16500000000E+03 0.  0.
   -5000001    1    1    2    0    0 -0.25502523843E+03 -0.83182361419E+02  0.36487401033E+03  0.48199089297E+03  0.16500000000E+03 0.  0.
<mgrwt>
<rscale>  0 0.63038058E+03</rscale>
<asrwt>0</asrwt>
<pdfrwt beam="1">  1        1 0.18778004E-01 0.63038058E+03</pdfrwt>
<pdfrwt beam="2">  1       -1 0.12521880E+00 0.63038058E+03</pdfrwt>
<totfact> 0.16208960E+02</totfact>
</mgrwt>
</event>
<event>
 4    1  0.2309632E-005  0.5107322E+03  0.7818608E-02  0.1011015E+00
         -1   -1    0    0    0  501 -0.00000000000E+00  0.00000000000E+00  0.35517432130E+03  0.35517432134E+03  0.50400000000E-02 0. -1.
          1   -1    0    0  501    0  0.00000000000E+00 -0.00000000000E+00 -0.18360517859E+03  0.18360517866E+03  0.50400000000E-02 0.  1.
    5000001    1    1    2    0    0  0.76440863045E+02  0.55470003272E+01  0.27482617150E+03  0.32958822688E+03  0.16500000000E+03 0.  0.
   -5000001    1    1    2    0    0 -0.76440863045E+02 -0.55470003272E+01 -0.10325702878E+03  0.20919127312E+03  0.16500000000E+03 0.  0.
<mgrwt>
<rscale>  0 0.51073220E+03</rscale>
<asrwt>0</asrwt>
<pdfrwt beam="1">  1        1 0.28246951E-01 0.51073220E+03</pdfrwt>
<pdfrwt beam="2">  1       -1 0.54642203E-01 0.51073220E+03</pdfrwt>
<totfact> 0.56863588E+02</totfact>
</mgrwt>
</event>
<event>
 4    1  0.2309632E-005  0.6918001E+03  0.7818608E-02  0.9731359E-01
         -1   -1    0    0    0  501 -0.00000000000E+00  0.00000000000E+00  0.29099602537E+03  0.29099602541E+03  0.50400000000E-02 0. -1.
          1   -1    0    0  501    0  0.00000000000E+00 -0.00000000000E+00 -0.41116312725E+03  0.41116312728E+03  0.50400000000E-02 0.  1.
    5000001    1    1    2    0    0 -0.11673650734E+03  0.25919539630E+03 -0.16945693597E+03  0.36979767273E+03  0.16500000000E+03 0.  0.
   -5000001    1    1    2    0    0  0.11673650734E+03 -0.25919539630E+03  0.49289834092E+02  0.33236147995E+03  0.16500000000E+03 0.  0.
<mgrwt>
<rscale>  0 0.69180007E+03</rscale>
<asrwt>0</asrwt>
<pdfrwt beam="1">  1        1 0.63255866E-01 0.69180007E+03</pdfrwt>
<pdfrwt beam="2">  1       -1 0.44768619E-01 0.69180007E+03</pdfrwt>
<totfact> 0.28974221E+02</totfact>
</mgrwt>
</event>
<event>
 4    1  0.2309632E-005  0.8860095E+03  0.7818608E-02  0.9443241E-01
          1   -1    0    0  501    0  0.00000000000E+00  0.00000000000E+00  0.19370069962E+03  0.19370069969E+03  0.50400000000E-02 0.  1.
         -1   -1    0    0    0  501 -0.00000000000E+00 -0.00000000000E+00 -0.10131775884E+04  0.10131775884E+04  0.50400000000E-02 0. -1.
    5000001    1    1    2    0    0  0.19537729393E+03  0.18199262147E+03 -0.83558121726E+03  0.89258869133E+03  0.16500000000E+03 0.  0.
   -5000001    1    1    2    0    0 -0.19537729393E+03 -0.18199262147E+03  0.16104328474E+02  0.31428959678E+03  0.16500000000E+03 0.  0.
<mgrwt>
<rscale>  0 0.88600950E+03</rscale>
<asrwt>0</asrwt>
<pdfrwt beam="1">  1        1 0.29800108E-01 0.88600950E+03</pdfrwt>
<pdfrwt beam="2">  1       -1 0.15587347E+00 0.88600950E+03</pdfrwt>
<totfact> 0.49228259E+01</totfact>
</mgrwt>
</event>
<event>
 4    1  0.2309632E-005  0.5313873E+03  0.7818608E-02  0.1005896E+00
          1   -1    0    0  501    0  0.00000000000E+00  0.00000000000E+00  0.10439191714E+04  0.10439191714E+04  0.50400000000E-02 0. -1.
         -1   -1    0    0    0  501 -0.00000000000E+00 -0.00000000000E+00 -0.67623168506E+02  0.67623168693E+02  0.50400000000E-02 0.  1.
    5000001    1    1    2    0    0  0.11035752707E+02 -0.20580192536E+03  0.42567773679E+03  0.50090194242E+03  0.16500000000E+03 0.  0.
   -5000001    1    1    2    0    0 -0.11035752707E+02  0.20580192536E+03  0.55061826610E+03  0.61064039768E+03  0.16500000000E+03 0.  0.
<mgrwt>
<rscale>  0 0.53138732E+03</rscale>
<asrwt>0</asrwt>
<pdfrwt beam="1">  1        1 0.16060296E+00 0.53138732E+03</pdfrwt>
<pdfrwt beam="2">  1       -1 0.10403564E-01 0.53138732E+03</pdfrwt>
<totfact> 0.84205647E+02</totfact>
</mgrwt>
</event>
<event>
 4    1  0.2309632E-005  0.6046082E+03  0.7818608E-02  0.9895891E-01
         -1   -1    0    0    0  501 -0.00000000000E+00  0.00000000000E+00  0.67047530342E+03  0.67047530344E+03  0.50400000000E-02 0. -1.
          1   -1    0    0  501    0  0.00000000000E+00 -0.00000000000E+00 -0.13630294274E+03  0.13630294283E+03  0.50400000000E-02 0.  1.
    5000001    1    1    2    0    0 -0.25197283747E+03  0.19287357939E+02  0.29021544877E+03  0.41870314031E+03  0.16500000000E+03 0.  0.
   -5000001    1    1    2    0    0  0.25197283747E+03 -0.19287357939E+02  0.24395691191E+03  0.38807510596E+03  0.16500000000E+03 0.  0.
<mgrwt>
<rscale>  0 0.60460816E+03</rscale>
<asrwt>0</asrwt>
<pdfrwt beam="1">  1        1 0.20969684E-01 0.60460816E+03</pdfrwt>
<pdfrwt beam="2">  1       -1 0.10315004E+00 0.60460816E+03</pdfrwt>
<totfact> 0.22247119E+02</totfact>
</mgrwt>
</event>
<event>
 4    1  0.2309632E-005  0.3553412E+03  0.7818608E-02  0.1060444E+00
          1   -1    0    0  501    0  0.00000000000E+00  0.00000000000E+00  0.72404222759E+02  0.72404222934E+02  0.50400000000E-02 0.  1.
         -1   -1    0    0    0  501 -0.00000000000E+00 -0.00000000000E+00 -0.43598058836E+03  0.43598058839E+03  0.50400000000E-02 0. -1.
    5000001    1    1    2    0    0 -0.51193375345E+02 -0.37828987539E+02 -0.15742257346E+03  0.23676710205E+03  0.16500000000E+03 0.  0.
   -5000001    1    1    2    0    0  0.51193375345E+02  0.37828987539E+02 -0.20615379213E+03  0.27161770927E+03  0.16500000000E+03 0.  0.
<mgrwt>
<rscale>  0 0.35534116E+03</rscale>
<asrwt>0</asrwt>
<pdfrwt beam="1">  1        1 0.11139111E-01 0.35534116E+03</pdfrwt>
<pdfrwt beam="2">  1       -1 0.67073935E-01 0.35534116E+03</pdfrwt>
<totfact> 0.12995444E+03</totfact>
</mgrwt>
</event>
<event>
 4    1  0.2309632E-005  0.4888783E+03  0.7818608E-02  0.1016723E+00
          1   -1    0    0  501    0  0.00000000000E+00  0.00000000000E+00  0.62037898440E+03  0.62037898442E+03  0.50400000000E-02 0.  1.
         -1   -1    0    0    0  501 -0.00000000000E+00 -0.00000000000E+00 -0.96312906189E+02  0.96312906321E+02  0.50400000000E-02 0. -1.
    5000001    1    1    2    0    0 -0.15213122223E+03 -0.75115287307E+01  0.12046666213E+03  0.25482846883E+03  0.16500000000E+03 0.  0.
   -5000001    1    1    2    0    0  0.15213122223E+03  0.75115287307E+01  0.40359941607E+03  0.46186342191E+03  0.16500000000E+03 0.  0.
<mgrwt>
<rscale>  0 0.48887832E+03</rscale>
<asrwt>0</asrwt>
<pdfrwt beam="1">  1        1 0.95442923E-01 0.48887832E+03</pdfrwt>
<pdfrwt beam="2">  1       -1 0.14817370E-01 0.48887832E+03</pdfrwt>
<totfact> 0.11002279E+03</totfact>
</mgrwt>
</event>
<event>
 4    1  0.2309632E-005  0.7691433E+03  0.7818608E-02  0.9605787E-01
          1   -1    0    0  501    0  0.00000000000E+00  0.00000000000E+00  0.44223241726E+03  0.44223241728E+03  0.50400000000E-02 0. -1.
         -1   -1    0    0    0  501 -0.00000000000E+00 -0.00000000000E+00 -0.33442899329E+03  0.33442899332E+03  0.50400000000E-02 0.  1.
    5000001    1    1    2    0    0 -0.23787995584E+03  0.13103262689E+03  0.27261508694E+03  0.41868891593E+03  0.16500000000E+03 0.  0.
   -5000001    1    1    2    0    0  0.23787995584E+03 -0.13103262689E+03 -0.16481166297E+03  0.35797249468E+03  0.16500000000E+03 0.  0.
<mgrwt>
<rscale>  0 0.76914327E+03</rscale>
<asrwt>0</asrwt>
<pdfrwt beam="1">  1        1 0.68035757E-01 0.76914327E+03</pdfrwt>
<pdfrwt beam="2">  1       -1 0.51450614E-01 0.76914327E+03</pdfrwt>
<totfact> 0.20173037E+02</totfact>
</mgrwt>
</event>
<event>
 4    1  0.2309632E-005  0.4170827E+03  0.7818608E-02  0.1038020E+00
          1   -1    0    0  501    0  0.00000000000E+00  0.00000000000E+00  0.25680158836E+03  0.25680158841E+03  0.50400000000E-02 0.  1.
         -1   -1    0    0    0  501 -0.00000000000E+00 -0.00000000000E+00 -0.16935057045E+03  0.16935057052E+03  0.50400000000E-02 0. -1.
    5000001    1    1    2    0    0  0.97916311139E+02  0.77320604585E+02  0.70727729874E+02  0.21861722634E+03  0.16500000000E+03 0.  0.
   -5000001    1    1    2    0    0 -0.97916311139E+02 -0.77320604585E+02  0.16723288038E+02  0.20753493259E+03  0.16500000000E+03 0.  0.
<mgrwt>
<rscale>  0 0.41708270E+03</rscale>
<asrwt>0</asrwt>
<pdfrwt beam="1">  1        1 0.39507937E-01 0.41708270E+03</pdfrwt>
<pdfrwt beam="2">  1       -1 0.26053934E-01 0.41708270E+03</pdfrwt>
<totfact> 0.13933854E+03</totfact>
</mgrwt>
</event>
<event>
 4    1  0.2309632E-005  0.3890175E+03  0.7818608E-02  0.1047650E+00
         -1   -1    0    0    0  501 -0.00000000000E+00  0.00000000000E+00  0.15052226594E+03  0.15052226602E+03  0.50400000000E-02 0. -1.
          1   -1    0    0  501    0  0.00000000000E+00 -0.00000000000E+00 -0.25134927191E+03  0.25134927196E+03  0.50400000000E-02 0.  1.
    5000001    1    1    2    0    0  0.41460773011E+02 -0.80744985846E+02 -0.12319277509E+00  0.18831825088E+03  0.16500000000E+03 0.  0.
   -5000001    1    1    2    0    0 -0.41460773011E+02  0.80744985846E+02 -0.10070381320E+03  0.21355328710E+03  0.16500000000E+03 0.  0.
<mgrwt>
<rscale>  0 0.38901754E+03</rscale>
<asrwt>0</asrwt>
<pdfrwt beam="1">  1        1 0.38669119E-01 0.38901754E+03</pdfrwt>
<pdfrwt beam="2">  1       -1 0.23157272E-01 0.38901754E+03</pdfrwt>
<totfact> 0.17441920E+03</totfact>
</mgrwt>
</event>
<event>
 4    1  0.2309632E-005  0.5388684E+03  0.7818608E-02  0.1004104E+00
         -1   -1    0    0    0  501 -0.00000000000E+00  0.00000000000E+00  0.22067039437E+03  0.22067039443E+03  0.50400000000E-02 0. -1.
          1   -1    0    0  501    0  0.00000000000E+00 -0.00000000000E+00 -0.32897389125E+03  0.32897389128E+03  0.50400000000E-02 0.  1.
    5000001    1    1    2    0    0 -0.31469168437E+02  0.20710191245E+03 -0.14801959434E+02  0.26706854683E+03  0.16500000000E+03 0.  0.
   -5000001    1    1    2    0    0  0.31469168437E+02 -0.20710191245E+03 -0.93501537437E+02  0.28257573889E+03  0.16500000000E+03 0.  0.
<mgrwt>
<rscale>  0 0.53886844E+03</rscale>
<asrwt>0</asrwt>
<pdfrwt beam="1">  1        1 0.50611368E-01 0.53886844E+03</pdfrwt>
<pdfrwt beam="2">  1       -1 0.33949291E-01 0.53886844E+03</pdfrwt>
<totfact> 0.64219001E+02</totfact>
</mgrwt>
</event>
<event>
 4    1  0.2309632E-005  0.6818565E+03  0.7818608E-02  0.9748773E-01
         -1   -1    0    0    0  501 -0.00000000000E+00  0.00000000000E+00  0.28611313568E+03  0.28611313573E+03  0.50400000000E-02 0. -1.
          1   -1    0    0  501    0  0.00000000000E+00 -0.00000000000E+00 -0.40624513590E+03  0.40624513593E+03  0.50400000000E-02 0.  1.
    5000001    1    1    2    0    0  0.24187115692E+03 -0.52038915449E+02 -0.22935927814E+03  0.37555343660E+03  0.16500000000E+03 0.  0.
   -5000001    1    1    2    0    0 -0.24187115692E+03  0.52038915449E+02  0.10922727793E+03  0.31680483506E+03  0.16500000000E+03 0.  0.
<mgrwt>
<rscale>  0 0.68185649E+03</rscale>
<asrwt>0</asrwt>
<pdfrwt beam="1">  1        1 0.62499252E-01 0.68185649E+03</pdfrwt>
<pdfrwt beam="2">  1       -1 0.44017405E-01 0.68185649E+03</pdfrwt>
<totfact> 0.30388308E+02</totfact>
</mgrwt>
</event>
<event>
 4    1  0.2309632E-005  0.5359105E+03  0.7818608E-02  0.1004809E+00
         -1   -1    0    0    0  501 -0.00000000000E+00  0.00000000000E+00  0.18214488612E+03  0.18214488619E+03  0.50400000000E-02 0.  1.
          1   -1    0    0  501    0  0.00000000000E+00 -0.00000000000E+00 -0.39419179906E+03  0.39419179909E+03  0.50400000000E-02 0. -1.
    5000001    1    1    2    0    0  0.15946446115E+03 -0.30555652126E+02  0.39110243852E+02  0.23477046965E+03  0.16500000000E+03 0.  0.
   -5000001    1    1    2    0    0 -0.15946446115E+03  0.30555652126E+02 -0.25115715679E+03  0.34156621562E+03  0.16500000000E+03 0.  0.
<mgrwt>
<rscale>  0 0.53591052E+03</rscale>
<asrwt>0</asrwt>
<pdfrwt beam="1">  1        1 0.60644892E-01 0.53591052E+03</pdfrwt>
<pdfrwt beam="2">  1       -1 0.28022290E-01 0.53591052E+03</pdfrwt>
<totfact> 0.70852389E+02</totfact>
</mgrwt>
</event>
<event>
 4    1  0.2309632E-005  0.8984885E+03  0.7818608E-02  0.9427473E-01
          1   -1    0    0  501    0  0.00000000000E+00  0.00000000000E+00  0.46961102529E+03  0.46961102532E+03  0.50400000000E-02 0.  1.
         -1   -1    0    0    0  501 -0.00000000000E+00 -0.00000000000E+00 -0.42976073343E+03  0.42976073346E+03  0.50400000000E-02 0. -1.
    5000001    1    1    2    0    0 -0.75146986581E+02  0.26582679073E+03  0.33373682013E+03  0.46359057084E+03  0.16500000000E+03 0.  0.
   -5000001    1    1    2    0    0  0.75146986581E+02 -0.26582679073E+03 -0.29388652826E+03  0.43578118794E+03  0.16500000000E+03 0.  0.
<mgrwt>
<rscale>  0 0.89848846E+03</rscale>
<asrwt>0</asrwt>
<pdfrwt beam="1">  1        1 0.72247850E-01 0.89848846E+03</pdfrwt>
<pdfrwt beam="2">  1       -1 0.66117036E-01 0.89848846E+03</pdfrwt>
<totfact> 0.11294410E+02</totfact>
</mgrwt>
</event>
<event>
 4    1  0.2309632E-005  0.4111889E+03  0.7818608E-02  0.1039973E+00
         -1   -1    0    0    0  501 -0.00000000000E+00  0.00000000000E+00  0.14065303910E+03  0.14065303919E+03  0.50400000000E-02 0. -1.
          1   -1    0    0  501    0  0.00000000000E+00 -0.00000000000E+00 -0.30052021501E+03  0.30052021505E+03  0.50400000000E-02 0.  1.
    5000001    1    1    2    0    0  0.88060296497E+02 -0.79248561244E+02 -0.11401688606E+03  0.23293733188E+03  0.16500000000E+03 0.  0.
   -5000001    1    1    2    0    0 -0.88060296497E+02  0.79248561244E+02 -0.45850289855E+02  0.20823592235E+03  0.16500000000E+03 0.  0.
<mgrwt>
<rscale>  0 0.41118892E+03</rscale>
<asrwt>0</asrwt>
<pdfrwt beam="1">  1        1 0.46233879E-01 0.41118892E+03</pdfrwt>
<pdfrwt beam="2">  1       -1 0.21638929E-01 0.41118892E+03</pdfrwt>
<totfact> 0.15560543E+03</totfact>
</mgrwt>
</event>
<event>
 4    1  0.2309632E-005  0.6925520E+03  0.7818608E-02  0.9730055E-01
         -1   -1    0    0    0  501 -0.00000000000E+00  0.00000000000E+00  0.36461444261E+02  0.36461444609E+02  0.50400000000E-02 0. -1.
          1   -1    0    0  501    0  0.00000000000E+00 -0.00000000000E+00 -0.32885991939E+04  0.32885991939E+04  0.50400000000E-02 0.  1.
    5000001    1    1    2    0    0 -0.30257048388E+03  0.30671135748E+02 -0.15594621657E+04  0.15973843816E+04  0.16500000000E+03 0.  0.
   -5000001    1    1    2    0    0  0.30257048388E+03 -0.30671135748E+02 -0.16926755839E+04  0.17276762569E+04  0.16500000000E+03 0.  0.
<mgrwt>
<rscale>  0 0.69255202E+03</rscale>
<asrwt>0</asrwt>
<pdfrwt beam="1">  1        1 0.50593810E+00 0.69255202E+03</pdfrwt>
<pdfrwt beam="2">  1       -1 0.56094556E-02 0.69255202E+03</pdfrwt>
<totfact> 0.60986904E+01</totfact>
</mgrwt>
</event>
<event>
 4    1  0.2309632E-005  0.5030416E+03  0.7818608E-02  0.1012988E+00
         -1   -1    0    0    0  501 -0.00000000000E+00  0.00000000000E+00  0.12578084197E+03  0.12578084207E+03  0.50400000000E-02 0. -1.
          1   -1    0    0  501    0  0.00000000000E+00 -0.00000000000E+00 -0.50295986663E+03  0.50295986665E+03  0.50400000000E-02 0.  1.
    5000001    1    1    2    0    0  0.14830464669E+03  0.11843200843E+03 -0.19378916923E+03  0.31748960764E+03  0.16500000000E+03 0.  0.
   -5000001    1    1    2    0    0 -0.14830464669E+03 -0.11843200843E+03 -0.18338985543E+03  0.31125110108E+03  0.16500000000E+03 0.  0.
<mgrwt>
<rscale>  0 0.50304161E+03</rscale>
<asrwt>0</asrwt>
<pdfrwt beam="1">  1        1 0.77378440E-01 0.50304161E+03</pdfrwt>
<pdfrwt beam="2">  1       -1 0.19350899E-01 0.50304161E+03</pdfrwt>
<totfact> 0.95430678E+02</totfact>
</mgrwt>
</event>
<event>
 4    1  0.2309632E-005  0.4570732E+03  0.7818608E-02  0.1025634E+00
          1   -1    0    0  501    0  0.00000000000E+00  0.00000000000E+00  0.84095414133E+03  0.84095414135E+03  0.50400000000E-02 0.  1.
         -1   -1    0    0    0  501 -0.00000000000E+00 -0.00000000000E+00 -0.62106805715E+02  0.62106805920E+02  0.50400000000E-02 0. -1.
    5000001    1    1    2    0    0  0.93366042648E+02  0.74142637226E+02  0.59465068250E+03  0.62852906279E+03  0.16500000000E+03 0.  0.
   -5000001    1    1    2    0    0 -0.93366042648E+02 -0.74142637226E+02  0.18419665312E+03  0.27453188448E+03  0.16500000000E+03 0.  0.
<mgrwt>
<rscale>  0 0.45707319E+03</rscale>
<asrwt>0</asrwt>
<pdfrwt beam="1">  1        1 0.12937756E+00 0.45707319E+03</pdfrwt>
<pdfrwt beam="2">  1       -1 0.95548933E-02 0.45707319E+03</pdfrwt>
<totfact> 0.13935672E+03</totfact>
</mgrwt>
</event>
<event>
 4    1  0.2309632E-005  0.7316968E+03  0.7818608E-02  0.9664511E-01
          1   -1    0    0  501    0  0.00000000000E+00  0.00000000000E+00  0.28249916350E+04  0.28249916351E+04  0.50400000000E-02 0.  1.
         -1   -1    0    0    0  501 -0.00000000000E+00 -0.00000000000E+00 -0.47378915874E+02  0.47378916142E+02  0.50400000000E-02 0. -1.
    5000001    1    1    2    0    0 -0.17431423642E+03 -0.25943767598E+03  0.10179085006E+04  0.10775231210E+04  0.16500000000E+03 0.  0.
   -5000001    1    1    2    0    0  0.17431423642E+03  0.25943767598E+03  0.17597042186E+04  0.17948474302E+04  0.16500000000E+03 0.  0.
<mgrwt>
<rscale>  0 0.73169677E+03</rscale>
<asrwt>0</asrwt>
<pdfrwt beam="1">  1        1 0.43461429E+00 0.73169677E+03</pdfrwt>
<pdfrwt beam="2">  1       -1 0.72890608E-02 0.73169677E+03</pdfrwt>
<totfact> 0.87444776E+01</totfact>
</mgrwt>
</event>
<event>
 4    1  0.2309632E-005  0.4193139E+03  0.7818608E-02  0.1037290E+00
          1   -1    0    0  501    0  0.00000000000E+00  0.00000000000E+00  0.81083263933E+03  0.81083263934E+03  0.50400000000E-02 0. -1.
         -1   -1    0    0    0  501 -0.00000000000E+00 -0.00000000000E+00 -0.54210993566E+02  0.54210993801E+02  0.50400000000E-02 0.  1.
    5000001    1    1    2    0    0  0.79664668810E+02  0.98697488300E+02  0.43063901015E+03  0.47829134502E+03  0.16500000000E+03 0.  0.
   -5000001    1    1    2    0    0 -0.79664668810E+02 -0.98697488300E+02  0.32598263561E+03  0.38675228813E+03  0.16500000000E+03 0.  0.
<mgrwt>
<rscale>  0 0.41931393E+03</rscale>
<asrwt>0</asrwt>
<pdfrwt beam="1">  1        1 0.12474347E+00 0.41931393E+03</pdfrwt>
<pdfrwt beam="2">  1       -1 0.83401535E-02 0.41931393E+03</pdfrwt>
<totfact> 0.18255196E+03</totfact>
</mgrwt>
</event>
<event>
 4    1  0.2309632E-005  0.4682024E+03  0.7818608E-02  0.1022429E+00
          1   -1    0    0  501    0  0.00000000000E+00  0.00000000000E+00  0.85504131066E+02  0.85504131215E+02  0.50400000000E-02 0.  1.
         -1   -1    0    0    0  501 -0.00000000000E+00 -0.00000000000E+00 -0.64094408039E+03  0.64094408041E+03  0.50400000000E-02 0. -1.
    5000001    1    1    2    0    0  0.10228547251E+03  0.12872393739E+03 -0.24145848771E+03  0.33549869035E+03  0.16500000000E+03 0.  0.
   -5000001    1    1    2    0    0 -0.10228547251E+03 -0.12872393739E+03 -0.31398146162E+03  0.39094952127E+03  0.16500000000E+03 0.  0.
<mgrwt>
<rscale>  0 0.46820238E+03</rscale>
<asrwt>0</asrwt>
<pdfrwt beam="1">  1        1 0.13154482E-01 0.46820238E+03</pdfrwt>
<pdfrwt beam="2">  1       -1 0.98606779E-01 0.46820238E+03</pdfrwt>
<totfact> 0.46063760E+02</totfact>
</mgrwt>
</event>
<event>
 4    1  0.2309632E-005  0.5772429E+03  0.7818608E-02  0.9953778E-01
          1   -1    0    0  501    0  0.00000000000E+00  0.00000000000E+00  0.88843517021E+03  0.88843517022E+03  0.50400000000E-02 0.  1.
         -1   -1    0    0    0  501 -0.00000000000E+00 -0.00000000000E+00 -0.93762995684E+02  0.93762995820E+02  0.50400000000E-02 0. -1.
    5000001    1    1    2    0    0  0.22742847990E+03 -0.30623906130E+02  0.49678204018E+03  0.57155833695E+03  0.16500000000E+03 0.  0.
   -5000001    1    1    2    0    0 -0.22742847990E+03  0.30623906130E+02  0.29789013434E+03  0.41063982909E+03  0.16500000000E+03 0.  0.
<mgrwt>
<rscale>  0 0.57724291E+03</rscale>
<asrwt>0</asrwt>
<pdfrwt beam="1">  1        1 0.13668234E+00 0.57724291E+03</pdfrwt>
<pdfrwt beam="2">  1       -1 0.14425076E-01 0.57724291E+03</pdfrwt>
<totfact> 0.66021953E+02</totfact>
</mgrwt>
</event>
<event>
 4    1  0.2309632E-005  0.5485719E+03  0.7818608E-02  0.1001825E+00
         -1   -1    0    0    0  501 -0.00000000000E+00  0.00000000000E+00  0.56381817886E+02  0.56381818111E+02  0.50400000000E-02 0.  1.
          1   -1    0    0  501    0  0.00000000000E+00 -0.00000000000E+00 -0.13343445973E+04  0.13343445973E+04  0.50400000000E-02 0. -1.
    5000001    1    1    2    0    0  0.14721062943E+03  0.45128687079E+02 -0.10341779456E+04  0.10585162214E+04  0.16500000000E+03 0.  0.
   -5000001    1    1    2    0    0 -0.14721062943E+03 -0.45128687079E+02 -0.24378483385E+03  0.33221019405E+03  0.16500000000E+03 0.  0.
<mgrwt>
<rscale>  0 0.54857187E+03</rscale>
<asrwt>0</asrwt>
<pdfrwt beam="1">  1        1 0.20528376E+00 0.54857187E+03</pdfrwt>
<pdfrwt beam="2">  1       -1 0.86741268E-02 0.54857187E+03</pdfrwt>
<totfact> 0.69117336E+02</totfact>
</mgrwt>
</event>
<event>
 4    1  0.2309632E-005  0.4347604E+03  0.7818608E-02  0.1032367E+00
         -1   -1    0    0    0  501 -0.00000000000E+00  0.00000000000E+00  0.18048925822E+03  0.18048925829E+03  0.50400000000E-02 0.  1.
          1   -1    0    0  501    0  0.00000000000E+00 -0.00000000000E+00 -0.26181148075E+03  0.26181148080E+03  0.50400000000E-02 0. -1.
    5000001    1    1    2    0    0  0.13735972070E+03  0.21614285028E+02 -0.67467483000E+02  0.22607903806E+03  0.16500000000E+03 0.  0.
   -5000001    1    1    2    0    0 -0.13735972070E+03 -0.21614285028E+02 -0.13854739529E+02  0.21622170103E+03  0.16500000000E+03 0.  0.
<mgrwt>
<rscale>  0 0.43476044E+03</rscale>
<asrwt>0</asrwt>
<pdfrwt beam="1">  1        1 0.40278689E-01 0.43476044E+03</pdfrwt>
<pdfrwt beam="2">  1       -1 0.27767578E-01 0.43476044E+03</pdfrwt>
<totfact> 0.12202930E+03</totfact>
</mgrwt>
</event>
<event>
 4    1  0.2309632E-005  0.6465318E+03  0.7818608E-02  0.9813309E-01
         -1   -1    0    0    0  501 -0.00000000000E+00  0.00000000000E+00  0.13258704329E+03  0.13258704339E+03  0.50400000000E-02 0. -1.
          1   -1    0    0  501    0  0.00000000000E+00 -0.00000000000E+00 -0.78816773156E+03  0.78816773157E+03  0.50400000000E-02 0.  1.
    5000001    1    1    2    0    0 -0.21793941553E+03 -0.75346381863E+02 -0.54888238908E+03  0.61779571312E+03  0.16500000000E+03 0.  0.
   -5000001    1    1    2    0    0  0.21793941553E+03  0.75346381863E+02 -0.10669829918E+03  0.30295906184E+03  0.16500000000E+03 0.  0.
<mgrwt>
<rscale>  0 0.64653176E+03</rscale>
<asrwt>0</asrwt>
<pdfrwt beam="1">  1        1 0.12125657E+00 0.64653176E+03</pdfrwt>
<pdfrwt beam="2">  1       -1 0.20398007E-01 0.64653176E+03</pdfrwt>
<totfact> 0.45308706E+02</totfact>
</mgrwt>
</event>
<event>
 4    1  0.2309632E-005  0.4101687E+03  0.7818608E-02  0.1040314E+00
          1   -1    0    0  501    0  0.00000000000E+00  0.00000000000E+00  0.89362888242E+03  0.89362888243E+03  0.50400000000E-02 0.  1.
         -1   -1    0    0    0  501 -0.00000000000E+00 -0.00000000000E+00 -0.47066068589E+02  0.47066068859E+02  0.50400000000E-02 0. -1.
    5000001    1    1    2    0    0 -0.87721433799E+02 -0.84487515145E+02  0.42055980177E+03  0.46789821226E+03  0.16500000000E+03 0.  0.
   -5000001    1    1    2    0    0  0.87721433799E+02  0.84487515145E+02  0.42600301205E+03  0.47279673903E+03  0.16500000000E+03 0.  0.
<mgrwt>
<rscale>  0 0.41016874E+03</rscale>
<asrwt>0</asrwt>
<pdfrwt beam="1">  1        1 0.13748137E+00 0.41016874E+03</pdfrwt>
<pdfrwt beam="2">  1       -1 0.72409332E-02 0.41016874E+03</pdfrwt>
<totfact> 0.19416239E+03</totfact>
</mgrwt>
</event>
<event>
 4    1  0.2309632E-005  0.5949216E+03  0.7818608E-02  0.9915998E-01
          1   -1    0    0  501    0  0.00000000000E+00  0.00000000000E+00  0.21510291617E+03  0.21510291623E+03  0.50400000000E-02 0.  1.
         -1   -1    0    0    0  501 -0.00000000000E+00 -0.00000000000E+00 -0.41135159865E+03  0.41135159868E+03  0.50400000000E-02 0. -1.
    5000001    1    1    2    0    0  0.18408594476E+03  0.16320660015E+03 -0.69597875086E+02  0.30429080434E+03  0.16500000000E+03 0.  0.
   -5000001    1    1    2    0    0 -0.18408594476E+03 -0.16320660015E+03 -0.12665080739E+03  0.32216371057E+03  0.16500000000E+03 0.  0.
<mgrwt>
<rscale>  0 0.59492160E+03</rscale>
<asrwt>0</asrwt>
<pdfrwt beam="1">  1        1 0.33092756E-01 0.59492160E+03</pdfrwt>
<pdfrwt beam="2">  1       -1 0.63284861E-01 0.59492160E+03</pdfrwt>
<totfact> 0.34741585E+02</totfact>
</mgrwt>
</event>
<event>
 4    1  0.2309632E-005  0.6414697E+03  0.7818608E-02  0.9822919E-01
         -1   -1    0    0    0  501 -0.00000000000E+00  0.00000000000E+00  0.46724227723E+02  0.46724227994E+02  0.50400000000E-02 0. -1.
          1   -1    0    0  501    0  0.00000000000E+00 -0.00000000000E+00 -0.22016597661E+04  0.22016597661E+04  0.50400000000E-02 0.  1.
    5000001    1    1    2    0    0 -0.14720362505E+03 -0.17770881766E+03 -0.16020150080E+04  0.16269377422E+04  0.16500000000E+03 0.  0.
   -5000001    1    1    2    0    0  0.14720362505E+03  0.17770881766E+03 -0.55292053038E+03  0.62144625191E+03  0.16500000000E+03 0.  0.
<mgrwt>
<rscale>  0 0.64146973E+03</rscale>
<asrwt>0</asrwt>
<pdfrwt beam="1">  1        1 0.33871681E+00 0.64146973E+03</pdfrwt>
<pdfrwt beam="2">  1       -1 0.71883445E-02 0.64146973E+03</pdfrwt>
<totfact> 0.24049668E+02</totfact>
</mgrwt>
</event>
<event>
 4    1  0.2309632E-005  0.7034562E+03  0.7818608E-02  0.9711340E-01
          1   -1    0    0  501    0  0.00000000000E+00  0.00000000000E+00  0.21908587344E+04  0.21908587344E+04  0.50400000000E-02 0.  1.
         -1   -1    0    0    0  501 -0.00000000000E+00 -0.00000000000E+00 -0.56467651089E+02  0.56467651314E+02  0.50400000000E-02 0. -1.
    5000001    1    1    2    0    0 -0.19516685161E+03  0.23955945697E+03  0.11686648130E+04  0.12200333104E+04  0.16500000000E+03 0.  0.
   -5000001    1    1    2    0    0  0.19516685161E+03 -0.23955945697E+03  0.96572627031E+03  0.10272930753E+04  0.16500000000E+03 0.  0.
<mgrwt>
<rscale>  0 0.70345617E+03</rscale>
<asrwt>0</asrwt>
<pdfrwt beam="1">  1        1 0.33705522E+00 0.70345617E+03</pdfrwt>
<pdfrwt beam="2">  1       -1 0.86873301E-02 0.70345617E+03</pdfrwt>
<totfact> 0.18084722E+02</totfact>
</mgrwt>
</event>
<event>
 4    1  0.2309632E-005  0.3414511E+03  0.7818608E-02  0.1066180E+00
          1   -1    0    0  501    0  0.00000000000E+00  0.00000000000E+00  0.35838016892E+03  0.35838016896E+03  0.50400000000E-02 0.  1.
         -1   -1    0    0    0  501 -0.00000000000E+00 -0.00000000000E+00 -0.81330444481E+02  0.81330444637E+02  0.50400000000E-02 0. -1.
    5000001    1    1    2    0    0  0.38059930673E+02  0.18289979021E+02  0.12333480433E+03  0.21028446356E+03  0.16500000000E+03 0.  0.
   -5000001    1    1    2    0    0 -0.38059930673E+02 -0.18289979021E+02  0.15371492011E+03  0.22942615004E+03  0.16500000000E+03 0.  0.
<mgrwt>
<rscale>  0 0.34145113E+03</rscale>
<asrwt>0</asrwt>
<pdfrwt beam="1">  1        1 0.55135410E-01 0.34145113E+03</pdfrwt>
<pdfrwt beam="2">  1       -1 0.12512376E-01 0.34145113E+03</pdfrwt>
<totfact> 0.30011839E+03</totfact>
</mgrwt>
</event>
<event>
 4    1  0.2309632E-005  0.3965369E+03  0.7818608E-02  0.1044985E+00
         -1   -1    0    0    0  501 -0.00000000000E+00  0.00000000000E+00  0.21339058774E+02  0.21339059370E+02  0.50400000000E-02 0. -1.
          1   -1    0    0  501    0  0.00000000000E+00 -0.00000000000E+00 -0.18421797813E+04  0.18421797813E+04  0.50400000000E-02 0.  1.
    5000001    1    1    2    0    0  0.89797472709E-01 -0.82616227465E+02 -0.56958840717E+03  0.59873316485E+03  0.16500000000E+03 0.  0.
   -5000001    1    1    2    0    0 -0.89797472709E-01  0.82616227465E+02 -0.12512523154E+04  0.12647856759E+04  0.16500000000E+03 0.  0.
<mgrwt>
<rscale>  0 0.39653692E+03</rscale>
<asrwt>0</asrwt>
<pdfrwt beam="1">  1        1 0.28341215E+00 0.39653692E+03</pdfrwt>
<pdfrwt beam="2">  1       -1 0.32829336E-02 0.39653692E+03</pdfrwt>
<totfact> 0.13998864E+03</totfact>
</mgrwt>
</event>
<event>
 4    1  0.2309632E-005  0.6664122E+03  0.7818608E-02  0.9776461E-01
          1   -1    0    0  501    0  0.00000000000E+00  0.00000000000E+00  0.44028996069E+03  0.44028996072E+03  0.50400000000E-02 0. -1.
         -1   -1    0    0    0  501 -0.00000000000E+00 -0.00000000000E+00 -0.25216636175E+03  0.25216636180E+03  0.50400000000E-02 0.  1.
    5000001    1    1    2    0    0 -0.22115697838E+02 -0.24165646305E+03 -0.69949720304E+02  0.30167020668E+03  0.16500000000E+03 0.  0.
   -5000001    1    1    2    0    0  0.22115697838E+02  0.24165646305E+03  0.25807331925E+03  0.39078611584E+03  0.16500000000E+03 0.  0.
<mgrwt>
<rscale>  0 0.66641224E+03</rscale>
<asrwt>0</asrwt>
<pdfrwt beam="1">  1        1 0.67736917E-01 0.66641224E+03</pdfrwt>
<pdfrwt beam="2">  1       -1 0.38794825E-01 0.66641224E+03</pdfrwt>
<totfact> 0.34400077E+02</totfact>
</mgrwt>
</event>
<event>
 4    1  0.2309632E-005  0.4832884E+03  0.7818608E-02  0.1018235E+00
         -1   -1    0    0    0  501 -0.00000000000E+00  0.00000000000E+00  0.93595482984E+03  0.93595482985E+03  0.50400000000E-02 0. -1.
          1   -1    0    0  501    0  0.00000000000E+00 -0.00000000000E+00 -0.62387538653E+02  0.62387538856E+02  0.50400000000E-02 0.  1.
    5000001    1    1    2    0    0 -0.12689842309E+03  0.12184800663E+03  0.40636958142E+03  0.47255833842E+03  0.16500000000E+03 0.  0.
   -5000001    1    1    2    0    0  0.12689842309E+03 -0.12184800663E+03  0.46719770976E+03  0.52578403029E+03  0.16500000000E+03 0.  0.
<mgrwt>
<rscale>  0 0.48328840E+03</rscale>
<asrwt>0</asrwt>
<pdfrwt beam="1">  1        1 0.95980832E-02 0.48328840E+03</pdfrwt>
<pdfrwt beam="2">  1       -1 0.14399305E+00 0.48328840E+03</pdfrwt>
<totfact> 0.28315720E+02</totfact>
</mgrwt>
</event>
<event>
 4    1  0.2309632E-005  0.4328357E+03  0.7818608E-02  0.1032968E+00
         -1   -1    0    0    0  501 -0.00000000000E+00  0.00000000000E+00  0.22621593870E+03  0.22621593875E+03  0.50400000000E-02 0. -1.
          1   -1    0    0  501    0  0.00000000000E+00 -0.00000000000E+00 -0.20704410944E+03  0.20704410950E+03  0.50400000000E-02 0.  1.
    5000001    1    1    2    0    0 -0.52999402130E+02 -0.12952410544E+03  0.44577013282E+01  0.21640309984E+03  0.16500000000E+03 0.  0.
   -5000001    1    1    2    0    0  0.52999402130E+02  0.12952410544E+03  0.14714127925E+02  0.21685694842E+03  0.16500000000E+03 0.  0.
<mgrwt>
<rscale>  0 0.43283566E+03</rscale>
<asrwt>0</asrwt>
<pdfrwt beam="1">  1        1 0.31852940E-01 0.43283566E+03</pdfrwt>
<pdfrwt beam="2">  1       -1 0.34802452E-01 0.43283566E+03</pdfrwt>
<totfact> 0.11136480E+03</totfact>
</mgrwt>
</event>
<event>
 4    1  0.2309632E-005  0.4775757E+03  0.7818608E-02  0.1019804E+00
         -1   -1    0    0    0  501 -0.00000000000E+00  0.00000000000E+00  0.59715136944E+02  0.59715137157E+02  0.50400000000E-02 0. -1.
          1   -1    0    0  501    0  0.00000000000E+00 -0.00000000000E+00 -0.95486057258E+03  0.95486057259E+03  0.50400000000E-02 0.  1.
    5000001    1    1    2    0    0  0.15004058878E+03 -0.33389150974E+02 -0.28073242600E+03  0.36008708487E+03  0.16500000000E+03 0.  0.
   -5000001    1    1    2    0    0 -0.15004058878E+03  0.33389150974E+02 -0.61441300964E+03  0.65448862488E+03  0.16500000000E+03 0.  0.
<mgrwt>
<rscale>  0 0.47757567E+03</rscale>
<asrwt>0</asrwt>
<pdfrwt beam="1">  1        1 0.14690162E+00 0.47757567E+03</pdfrwt>
<pdfrwt beam="2">  1       -1 0.91869448E-02 0.47757567E+03</pdfrwt>
<totfact> 0.11997833E+03</totfact>
</mgrwt>
</event>
<event>
 4    1  0.2309632E-005  0.4492516E+03  0.7818608E-02  0.1027945E+00
         -1   -1    0    0    0  501 -0.00000000000E+00  0.00000000000E+00  0.47530844053E+02  0.47530844320E+02  0.50400000000E-02 0. -1.
          1   -1    0    0  501    0  0.00000000000E+00 -0.00000000000E+00 -0.10615580778E+04  0.10615580778E+04  0.50400000000E-02 0.  1.
    5000001    1    1    2    0    0 -0.96020391073E+02  0.11689344144E+03 -0.46097564342E+03  0.51245247192E+03  0.16500000000E+03 0.  0.
   -5000001    1    1    2    0    0  0.96020391073E+02 -0.11689344144E+03 -0.55305159034E+03  0.59663645022E+03  0.16500000000E+03 0.  0.
<mgrwt>
<rscale>  0 0.44925161E+03</rscale>
<asrwt>0</asrwt>
<pdfrwt beam="1">  1        1 0.16331661E+00 0.44925161E+03</pdfrwt>
<pdfrwt beam="2">  1       -1 0.73124384E-02 0.44925161E+03</pdfrwt>
<totfact> 0.14190715E+03</totfact>
</mgrwt>
</event>
<event>
 4    1  0.2309632E-005  0.6312560E+03  0.7818608E-02  0.9842601E-01
          1   -1    0    0  501    0  0.00000000000E+00  0.00000000000E+00  0.21080192664E+04  0.21080192664E+04  0.50400000000E-02 0.  1.
         -1   -1    0    0    0  501 -0.00000000000E+00 -0.00000000000E+00 -0.47258117742E+02  0.47258118010E+02  0.50400000000E-02 0. -1.
    5000001    1    1    2    0    0  0.12294417781E+03 -0.16559672431E+03  0.44040843419E+03  0.51353883482E+03  0.16500000000E+03 0.  0.
   -5000001    1    1    2    0    0 -0.12294417781E+03  0.16559672431E+03  0.16203527145E+04  0.16417385496E+04  0.16500000000E+03 0.  0.
<mgrwt>
<rscale>  0 0.63125596E+03</rscale>
<asrwt>0</asrwt>
<pdfrwt beam="1">  1        1 0.32431063E+00 0.63125596E+03</pdfrwt>
<pdfrwt beam="2">  1       -1 0.72704803E-02 0.63125596E+03</pdfrwt>
<totfact> 0.27312627E+02</totfact>
</mgrwt>
</event>
<event>
 4    1  0.2309632E-005  0.3933216E+03  0.7818608E-02  0.1046117E+00
          1   -1    0    0  501    0  0.00000000000E+00  0.00000000000E+00  0.33597077633E+03  0.33597077637E+03  0.50400000000E-02 0.  1.
         -1   -1    0    0    0  501 -0.00000000000E+00 -0.00000000000E+00 -0.11511557294E+03  0.11511557305E+03  0.50400000000E-02 0. -1.
    5000001    1    1    2    0    0  0.19186372797E+02 -0.96229099643E+02  0.61469648108E+02  0.20157299958E+03  0.16500000000E+03 0.  0.
   -5000001    1    1    2    0    0 -0.19186372797E+02  0.96229099643E+02  0.15938555528E+03  0.24951334984E+03  0.16500000000E+03 0.  0.
<mgrwt>
<rscale>  0 0.39332159E+03</rscale>
<asrwt>0</asrwt>
<pdfrwt beam="1">  1        1 0.51687811E-01 0.39332159E+03</pdfrwt>
<pdfrwt beam="2">  1       -1 0.17710088E-01 0.39332159E+03</pdfrwt>
<totfact> 0.18736831E+03</totfact>
</mgrwt>
</event>
<event>
 4    1  0.2309632E-005  0.4842037E+03  0.7818608E-02  0.1017986E+00
         -1   -1    0    0    0  501 -0.00000000000E+00  0.00000000000E+00  0.37382071142E+02  0.37382071481E+02  0.50400000000E-02 0.  1.
          1   -1    0    0  501    0  0.00000000000E+00 -0.00000000000E+00 -0.15679522923E+04  0.15679522923E+04  0.50400000000E-02 0. -1.
    5000001    1    1    2    0    0 -0.14551271738E+03 -0.33737182054E+02 -0.10811405647E+04  0.11038125153E+04  0.16500000000E+03 0.  0.
   -5000001    1    1    2    0    0  0.14551271738E+03  0.33737182054E+02 -0.44942965646E+03  0.50152184846E+03  0.16500000000E+03 0.  0.
<mgrwt>
<rscale>  0 0.48420369E+03</rscale>
<asrwt>0</asrwt>
<pdfrwt beam="1">  1        1 0.24122338E+00 0.48420369E+03</pdfrwt>
<pdfrwt beam="2">  1       -1 0.57510891E-02 0.48420369E+03</pdfrwt>
<totfact> 0.90708000E+02</totfact>
</mgrwt>
</event>
<event>
 4    1  0.2309632E-005  0.4902686E+03  0.7818608E-02  0.1016351E+00
          1   -1    0    0  501    0  0.00000000000E+00  0.00000000000E+00  0.48942341278E+03  0.48942341281E+03  0.50400000000E-02 0.  1.
         -1   -1    0    0    0  501 -0.00000000000E+00 -0.00000000000E+00 -0.12277881799E+03  0.12277881810E+03  0.50400000000E-02 0. -1.
    5000001    1    1    2    0    0  0.91106006480E+02 -0.82138428512E+02  0.16635933786E+02  0.20627355659E+03  0.16500000000E+03 0.  0.
   -5000001    1    1    2    0    0 -0.91106006480E+02  0.82138428512E+02  0.35000866100E+03  0.40592867432E+03  0.16500000000E+03 0.  0.
<mgrwt>
<rscale>  0 0.49026861E+03</rscale>
<asrwt>0</asrwt>
<pdfrwt beam="1">  1        1 0.75295908E-01 0.49026861E+03</pdfrwt>
<pdfrwt beam="2">  1       -1 0.18889049E-01 0.49026861E+03</pdfrwt>
<totfact> 0.10305931E+03</totfact>
</mgrwt>
</event>
<event>
 4    1  0.2309632E-005  0.6461073E+03  0.7818608E-02  0.9814111E-01
         -1   -1    0    0    0  501 -0.00000000000E+00  0.00000000000E+00  0.46243350833E+03  0.46243350836E+03  0.50400000000E-02 0. -1.
          1   -1    0    0  501    0  0.00000000000E+00 -0.00000000000E+00 -0.22568363280E+03  0.22568363286E+03  0.50400000000E-02 0.  1.
    5000001    1    1    2    0    0  0.29090872641E+02 -0.26829126328E+03  0.18831190746E+03  0.36812070753E+03  0.16500000000E+03 0.  0.
   -5000001    1    1    2    0    0 -0.29090872641E+02  0.26829126328E+03  0.48437968077E+02  0.31999643369E+03  0.16500000000E+03 0.  0.
<mgrwt>
<rscale>  0 0.64610734E+03</rscale>
<asrwt>0</asrwt>
<pdfrwt beam="1">  1        1 0.34720559E-01 0.64610734E+03</pdfrwt>
<pdfrwt beam="2">  1       -1 0.71143617E-01 0.64610734E+03</pdfrwt>
<totfact> 0.25737224E+02</totfact>
</mgrwt>
</event>
<event>
 4    1  0.2309632E-005  0.4023176E+03  0.7818608E-02  0.1042980E+00
          1   -1    0    0  501    0  0.00000000000E+00  0.00000000000E+00  0.22239657883E+03  0.22239657889E+03  0.50400000000E-02 0.  1.
         -1   -1    0    0    0  501 -0.00000000000E+00 -0.00000000000E+00 -0.18194912507E+03  0.18194912514E+03  0.50400000000E-02 0. -1.
    5000001    1    1    2    0    0  0.14019930891E+01  0.11298566321E+03 -0.16145290353E+01  0.19998833061E+03  0.16500000000E+03 0.  0.
   -5000001    1    1    2    0    0 -0.14019930891E+01 -0.11298566321E+03  0.42061982796E+02  0.20435737342E+03  0.16500000000E+03 0.  0.
<mgrwt>
<rscale>  0 0.40231760E+03</rscale>
<asrwt>0</asrwt>
<pdfrwt beam="1">  1        1 0.34214858E-01 0.40231760E+03</pdfrwt>
<pdfrwt beam="2">  1       -1 0.27992173E-01 0.40231760E+03</pdfrwt>
<totfact> 0.14812420E+03</totfact>
</mgrwt>
</event>
<event>
 4    1  0.2309632E-005  0.6765725E+03  0.7818608E-02  0.9758157E-01
         -1   -1    0    0    0  501 -0.00000000000E+00  0.00000000000E+00  0.41416924473E+03  0.41416924477E+03  0.50400000000E-02 0.  1.
          1   -1    0    0  501    0  0.00000000000E+00 -0.00000000000E+00 -0.27630637484E+03  0.27630637489E+03  0.50400000000E-02 0. -1.
    5000001    1    1    2    0    0  0.64354680266E+02  0.23593780670E+03  0.23787605127E+03  0.37896990550E+03  0.16500000000E+03 0.  0.
   -5000001    1    1    2    0    0 -0.64354680266E+02 -0.23593780670E+03 -0.10001318138E+03  0.31150571416E+03  0.16500000000E+03 0.  0.
<mgrwt>
<rscale>  0 0.67657255E+03</rscale>
<asrwt>0</asrwt>
<pdfrwt beam="1">  1        1 0.42508673E-01 0.67657255E+03</pdfrwt>
<pdfrwt beam="2">  1       -1 0.63718345E-01 0.67657255E+03</pdfrwt>
<totfact> 0.24739014E+02</totfact>
</mgrwt>
</event>
<event>
 4    1  0.2309632E-005  0.6760308E+03  0.7818608E-02  0.9759124E-01
          1   -1    0    0  501    0  0.00000000000E+00  0.00000000000E+00  0.41508534712E+04  0.41508534712E+04  0.50400000000E-02 0.  1.
         -1   -1    0    0    0  501 -0.00000000000E+00 -0.00000000000E+00 -0.27525521222E+02  0.27525521683E+02  0.50400000000E-02 0. -1.
    5000001    1    1    2    0    0  0.17757947872E+03 -0.16589196987E+03  0.30954359804E+04  0.31093413331E+04  0.16500000000E+03 0.  0.
   -5000001    1    1    2    0    0 -0.17757947872E+03  0.16589196987E+03  0.10278919696E+04  0.10690376598E+04  0.16500000000E+03 0.  0.
<mgrwt>
<rscale>  0 0.67603079E+03</rscale>
<asrwt>0</asrwt>
<pdfrwt beam="1">  1        1 0.63859291E+00 0.67603079E+03</pdfrwt>
<pdfrwt beam="2">  1       -1 0.42346951E-02 0.67603079E+03</pdfrwt>
<totfact> 0.18806587E+01</totfact>
</mgrwt>
</event>
<event>
 4    1  0.2309632E-005  0.6221062E+03  0.7818608E-02  0.9860575E-01
         -1   -1    0    0    0  501 -0.00000000000E+00  0.00000000000E+00  0.54904021202E+02  0.54904021433E+02  0.50400000000E-02 0. -1.
          1   -1    0    0  501    0  0.00000000000E+00 -0.00000000000E+00 -0.17622395787E+04  0.17622395787E+04  0.50400000000E-02 0.  1.
    5000001    1    1    2    0    0  0.24024452926E+03 -0.88872282225E+02 -0.10363926015E+04  0.10802547574E+04  0.16500000000E+03 0.  0.
   -5000001    1    1    2    0    0 -0.24024452926E+03  0.88872282225E+02 -0.67094295598E+03  0.73688884274E+03  0.16500000000E+03 0.  0.
<mgrwt>
<rscale>  0 0.62210623E+03</rscale>
<asrwt>0</asrwt>
<pdfrwt beam="1">  1        1 0.27111374E+00 0.62210623E+03</pdfrwt>
<pdfrwt beam="2">  1       -1 0.84467738E-02 0.62210623E+03</pdfrwt>
<totfact> 0.36759681E+02</totfact>
</mgrwt>
</event>
<event>
 4    1  0.2309632E-005  0.3829156E+03  0.7818608E-02  0.1049861E+00
          1   -1    0    0  501    0  0.00000000000E+00  0.00000000000E+00  0.17167940567E+03  0.17167940574E+03  0.50400000000E-02 0. -1.
         -1   -1    0    0    0  501 -0.00000000000E+00 -0.00000000000E+00 -0.21351479914E+03  0.21351479920E+03  0.50400000000E-02 0.  1.
    5000001    1    1    2    0    0  0.49327609058E+02  0.31499837953E+02  0.57039523071E+02  0.18413027996E+03  0.16500000000E+03 0.  0.
   -5000001    1    1    2    0    0 -0.49327609058E+02 -0.31499837953E+02 -0.98874916542E+02  0.20106392498E+03  0.16500000000E+03 0.  0.
<mgrwt>
<rscale>  0 0.38291562E+03</rscale>
<asrwt>0</asrwt>
<pdfrwt beam="1">  1        1 0.26412216E-01 0.38291562E+03</pdfrwt>
<pdfrwt beam="2">  1       -1 0.32848431E-01 0.38291562E+03</pdfrwt>
<totfact> 0.15649070E+03</totfact>
</mgrwt>
</event>
<event>
 4    1  0.2309632E-005  0.3948559E+03  0.7818608E-02  0.1045576E+00
         -1   -1    0    0    0  501 -0.00000000000E+00  0.00000000000E+00  0.41151261136E+02  0.41151261444E+02  0.50400000000E-02 0.  1.
          1   -1    0    0  501    0  0.00000000000E+00 -0.00000000000E+00 -0.94718361990E+03  0.94718361992E+03  0.50400000000E-02 0. -1.
    5000001    1    1    2    0    0 -0.80483317351E+02 -0.71236435459E+02 -0.41756440291E+03  0.46166787270E+03  0.16500000000E+03 0.  0.
   -5000001    1    1    2    0    0  0.80483317351E+02  0.71236435459E+02 -0.48846795586E+03  0.52666700866E+03  0.16500000000E+03 0.  0.
<mgrwt>
<rscale>  0 0.39485593E+03</rscale>
<asrwt>0</asrwt>
<pdfrwt beam="1">  1        1 0.14572054E+00 0.39485593E+03</pdfrwt>
<pdfrwt beam="2">  1       -1 0.63309640E-02 0.39485593E+03</pdfrwt>
<totfact> 0.21644029E+03</totfact>
</mgrwt>
</event>
<event>
 4    1  0.2309632E-005  0.3695729E+03  0.7818608E-02  0.1054856E+00
          1   -1    0    0  501    0  0.00000000000E+00  0.00000000000E+00  0.20727794189E+03  0.20727794195E+03  0.50400000000E-02 0.  1.
         -1   -1    0    0    0  501 -0.00000000000E+00 -0.00000000000E+00 -0.16473547729E+03  0.16473547737E+03  0.50400000000E-02 0. -1.
    5000001    1    1    2    0    0 -0.64201051374E+02  0.52707717087E+02  0.16641700637E+02  0.18547728874E+03  0.16500000000E+03 0.  0.
   -5000001    1    1    2    0    0  0.64201051374E+02 -0.52707717087E+02  0.25900763955E+02  0.18653613058E+03  0.16500000000E+03 0.  0.
<mgrwt>
<rscale>  0 0.36957289E+03</rscale>
<asrwt>0</asrwt>
<pdfrwt beam="1">  1        1 0.31888914E-01 0.36957289E+03</pdfrwt>
<pdfrwt beam="2">  1       -1 0.25343920E-01 0.36957289E+03</pdfrwt>
<totfact> 0.19151652E+03</totfact>
</mgrwt>
</event>
<event>
 4    1  0.2309632E-005  0.5784134E+03  0.7818608E-02  0.9951232E-01
         -1   -1    0    0    0  501 -0.00000000000E+00  0.00000000000E+00  0.14303527794E+03  0.14303527803E+03  0.50400000000E-02 0. -1.
          1   -1    0    0  501    0  0.00000000000E+00 -0.00000000000E+00 -0.58475445133E+03  0.58475445135E+03  0.50400000000E-02 0.  1.
    5000001    1    1    2    0    0 -0.14823151901E+03  0.17683509741E+03 -0.29172810859E+03  0.40690726738E+03  0.16500000000E+03 0.  0.
   -5000001    1    1    2    0    0  0.14823151901E+03 -0.17683509741E+03 -0.14999106480E+03  0.32088246201E+03  0.16500000000E+03 0.  0.
<mgrwt>
<rscale>  0 0.57841340E+03</rscale>
<asrwt>0</asrwt>
<pdfrwt beam="1">  1        1 0.89962222E-01 0.57841340E+03</pdfrwt>
<pdfrwt beam="2">  1       -1 0.22005428E-01 0.57841340E+03</pdfrwt>
<totfact> 0.62440408E+02</totfact>
</mgrwt>
</event>
<event>
 4    1  0.2309632E-005  0.7324930E+03  0.7818608E-02  0.9663223E-01
         -1   -1    0    0    0  501 -0.00000000000E+00  0.00000000000E+00  0.36190776197E+03  0.36190776200E+03  0.50400000000E-02 0. -1.
          1   -1    0    0  501    0  0.00000000000E+00 -0.00000000000E+00 -0.37063729451E+03  0.37063729455E+03  0.50400000000E-02 0.  1.
    5000001    1    1    2    0    0 -0.32270831234E+03 -0.52069879033E+02 -0.12084551705E+02  0.36636452278E+03  0.16500000000E+03 0.  0.
   -5000001    1    1    2    0    0  0.32270831234E+03  0.52069879033E+02  0.33550191610E+01  0.36618053377E+03  0.16500000000E+03 0.  0.
<mgrwt>
<rscale>  0 0.73249304E+03</rscale>
<asrwt>0</asrwt>
<pdfrwt beam="1">  1        1 0.57021123E-01 0.73249304E+03</pdfrwt>
<pdfrwt beam="2">  1       -1 0.55678117E-01 0.73249304E+03</pdfrwt>
<totfact> 0.21955173E+02</totfact>
</mgrwt>
</event>
<event>
 4    1  0.2309632E-005  0.4774075E+03  0.7818608E-02  0.1019850E+00
         -1   -1    0    0    0  501 -0.00000000000E+00  0.00000000000E+00  0.10165624800E+03  0.10165624813E+03  0.50400000000E-02 0.  1.
          1   -1    0    0  501    0  0.00000000000E+00 -0.00000000000E+00 -0.56051141058E+03  0.56051141061E+03  0.50400000000E-02 0. -1.
    5000001    1    1    2    0    0  0.20278821992E+02  0.12878940632E+03 -0.72772228687E+02  0.22252806355E+03  0.16500000000E+03 0.  0.
   -5000001    1    1    2    0    0 -0.20278821992E+02 -0.12878940632E+03 -0.38608293390E+03  0.43963959518E+03  0.16500000000E+03 0.  0.
<mgrwt>
<rscale>  0 0.47740753E+03</rscale>
<asrwt>0</asrwt>
<pdfrwt beam="1">  1        1 0.86232523E-01 0.47740753E+03</pdfrwt>
<pdfrwt beam="2">  1       -1 0.15639423E-01 0.47740753E+03</pdfrwt>
<totfact> 0.11639932E+03</totfact>
</mgrwt>
</event>
<event>
 4    1  0.2309632E-005  0.4964832E+03  0.7818608E-02  0.1014701E+00
          1   -1    0    0  501    0  0.00000000000E+00  0.00000000000E+00  0.87773186608E+03  0.87773186610E+03  0.50400000000E-02 0. -1.
         -1   -1    0    0    0  501 -0.00000000000E+00 -0.00000000000E+00 -0.70208107174E+02  0.70208107355E+02  0.50400000000E-02 0.  1.
    5000001    1    1    2    0    0  0.57244845068E+02  0.16473034136E+03  0.28322055631E+03  0.37128417846E+03  0.16500000000E+03 0.  0.
   -5000001    1    1    2    0    0 -0.57244845068E+02 -0.16473034136E+03  0.52430320260E+03  0.57665579500E+03  0.16500000000E+03 0.  0.
<mgrwt>
<rscale>  0 0.49648320E+03</rscale>
<asrwt>0</asrwt>
<pdfrwt beam="1">  1        1 0.13503567E+00 0.49648320E+03</pdfrwt>
<pdfrwt beam="2">  1       -1 0.10801247E-01 0.49648320E+03</pdfrwt>
<totfact> 0.10713797E+03</totfact>
</mgrwt>
</event>
<event>
 4    1  0.2309632E-005  0.3928855E+03  0.7818608E-02  0.1046271E+00
          1   -1    0    0  501    0  0.00000000000E+00  0.00000000000E+00  0.18216910801E+03  0.18216910808E+03  0.50400000000E-02 0.  1.
         -1   -1    0    0    0  501 -0.00000000000E+00 -0.00000000000E+00 -0.21183483786E+03  0.21183483792E+03  0.50400000000E-02 0. -1.
    5000001    1    1    2    0    0  0.10248940701E+03  0.97080023705E+01  0.12930588881E+02  0.19491157992E+03  0.16500000000E+03 0.  0.
   -5000001    1    1    2    0    0 -0.10248940701E+03 -0.97080023705E+01 -0.42596318724E+02  0.19909236607E+03  0.16500000000E+03 0.  0.
<mgrwt>
<rscale>  0 0.39288555E+03</rscale>
<asrwt>0</asrwt>
<pdfrwt beam="1">  1        1 0.28026017E-01 0.39288555E+03</pdfrwt>
<pdfrwt beam="2">  1       -1 0.32589975E-01 0.39288555E+03</pdfrwt>
<totfact> 0.14707085E+03</totfact>
</mgrwt>
</event>
<event>
 4    1  0.2309632E-005  0.4684502E+03  0.7818608E-02  0.1022359E+00
          1   -1    0    0  501    0  0.00000000000E+00  0.00000000000E+00  0.90475021784E+03  0.90475021786E+03  0.50400000000E-02 0.  1.
         -1   -1    0    0    0  501 -0.00000000000E+00 -0.00000000000E+00 -0.60637056027E+02  0.60637056236E+02  0.50400000000E-02 0. -1.
    5000001    1    1    2    0    0 -0.13807645565E+03  0.66840877269E+02  0.55407045783E+03  0.59812363498E+03  0.16500000000E+03 0.  0.
   -5000001    1    1    2    0    0  0.13807645565E+03 -0.66840877269E+02  0.29004270399E+03  0.36726363911E+03  0.16500000000E+03 0.  0.
<mgrwt>
<rscale>  0 0.46845017E+03</rscale>
<asrwt>0</asrwt>
<pdfrwt beam="1">  1        1 0.13919232E+00 0.46845017E+03</pdfrwt>
<pdfrwt beam="2">  1       -1 0.93287790E-02 0.46845017E+03</pdfrwt>
<totfact> 0.12834212E+03</totfact>
</mgrwt>
</event>
<event>
 4    1  0.2309632E-005  0.6803848E+03  0.7818608E-02  0.9751378E-01
          1   -1    0    0  501    0  0.00000000000E+00  0.00000000000E+00  0.18028836009E+04  0.18028836009E+04  0.50400000000E-02 0. -1.
         -1   -1    0    0    0  501 -0.00000000000E+00 -0.00000000000E+00 -0.64192091259E+02  0.64192091456E+02  0.50400000000E-02 0.  1.
    5000001    1    1    2    0    0  0.63609084585E+02 -0.26368231487E+03  0.12046641988E+04  0.12457990652E+04  0.16500000000E+03 0.  0.
   -5000001    1    1    2    0    0 -0.63609084585E+02  0.26368231487E+03  0.53402731084E+03  0.62127662723E+03  0.16500000000E+03 0.  0.
<mgrwt>
<rscale>  0 0.68038480E+03</rscale>
<asrwt>0</asrwt>
<pdfrwt beam="1">  1        1 0.27736666E+00 0.68038480E+03</pdfrwt>
<pdfrwt beam="2">  1       -1 0.98757080E-02 0.68038480E+03</pdfrwt>
<totfact> 0.26885351E+02</totfact>
</mgrwt>
</event>
<event>
 4    1  0.2309632E-005  0.5090006E+03  0.7818608E-02  0.1011456E+00
          1   -1    0    0  501    0  0.00000000000E+00  0.00000000000E+00  0.10583434045E+03  0.10583434057E+03  0.50400000000E-02 0.  1.
         -1   -1    0    0    0  501 -0.00000000000E+00 -0.00000000000E+00 -0.61199801901E+03  0.61199801903E+03  0.50400000000E-02 0. -1.
    5000001    1    1    2    0    0  0.83651045549E+02  0.16745526785E+03 -0.32368935515E+03  0.40870351453E+03  0.16500000000E+03 0.  0.
   -5000001    1    1    2    0    0 -0.83651045549E+02 -0.16745526785E+03 -0.18247432340E+03  0.30912884507E+03  0.16500000000E+03 0.  0.
<mgrwt>
<rscale>  0 0.50900062E+03</rscale>
<asrwt>0</asrwt>
<pdfrwt beam="1">  1        1 0.16282207E-01 0.50900062E+03</pdfrwt>
<pdfrwt beam="2">  1       -1 0.94153539E-01 0.50900062E+03</pdfrwt>
<totfact> 0.38339979E+02</totfact>
</mgrwt>
</event>
<event>
 4    1  0.2309632E-005  0.4693000E+03  0.7818608E-02  0.1022118E+00
         -1   -1    0    0    0  501 -0.00000000000E+00  0.00000000000E+00  0.32836058269E+02  0.32836058656E+02  0.50400000000E-02 0.  1.
          1   -1    0    0  501    0  0.00000000000E+00 -0.00000000000E+00 -0.16768340431E+04  0.16768340431E+04  0.50400000000E-02 0. -1.
    5000001    1    1    2    0    0  0.13866759997E+03  0.61408901358E+02 -0.56866187784E+03  0.61122916141E+03  0.16500000000E+03 0.  0.
   -5000001    1    1    2    0    0 -0.13866759997E+03 -0.61408901358E+02 -0.10753361070E+04  0.10984409403E+04  0.16500000000E+03 0.  0.
<mgrwt>
<rscale>  0 0.46929999E+03</rscale>
<asrwt>0</asrwt>
<pdfrwt beam="1">  1        1 0.25797440E+00 0.46929999E+03</pdfrwt>
<pdfrwt beam="2">  1       -1 0.50517026E-02 0.46929999E+03</pdfrwt>
<totfact> 0.93591015E+02</totfact>
</mgrwt>
</event>
<event>
 4    1  0.2309632E-005  0.7721226E+03  0.7818608E-02  0.9601269E-01
          1   -1    0    0  501    0  0.00000000000E+00  0.00000000000E+00  0.35706090500E+04  0.35706090500E+04  0.50400000000E-02 0. -1.
         -1   -1    0    0    0  501 -0.00000000000E+00 -0.00000000000E+00 -0.41741713252E+02  0.41741713556E+02  0.50400000000E-02 0.  1.
    5000001    1    1    2    0    0  0.30246108953E+03 -0.33296624987E+02  0.25642596032E+04  0.25875168962E+04  0.16500000000E+03 0.  0.
   -5000001    1    1    2    0    0 -0.30246108953E+03  0.33296624987E+02  0.96460773357E+03  0.10248338673E+04  0.16500000000E+03 0.  0.
<mgrwt>
<rscale>  0 0.77212263E+03</rscale>
<asrwt>0</asrwt>
<pdfrwt beam="1">  1        1 0.54932428E+00 0.77212263E+03</pdfrwt>
<pdfrwt beam="2">  1       -1 0.64218042E-02 0.77212263E+03</pdfrwt>
<totfact> 0.29803575E+01</totfact>
</mgrwt>
</event>
<event>
 4    1  0.2309632E-005  0.8760868E+03  0.7818608E-02  0.9455978E-01
         -1   -1    0    0    0  501 -0.00000000000E+00  0.00000000000E+00  0.13433179584E+03  0.13433179594E+03  0.50400000000E-02 0. -1.
          1   -1    0    0  501    0  0.00000000000E+00 -0.00000000000E+00 -0.14284184421E+04  0.14284184421E+04  0.50400000000E-02 0.  1.
    5000001    1    1    2    0    0 -0.17279585816E+03 -0.36695670007E+03 -0.66825358869E+03  0.79893897584E+03  0.16500000000E+03 0.  0.
   -5000001    1    1    2    0    0  0.17279585816E+03  0.36695670007E+03 -0.62583305757E+03  0.76381126221E+03  0.16500000000E+03 0.  0.
<mgrwt>
<rscale>  0 0.87608679E+03</rscale>
<asrwt>0</asrwt>
<pdfrwt beam="1">  1        1 0.21975667E+00 0.87608679E+03</pdfrwt>
<pdfrwt beam="2">  1       -1 0.20666431E-01 0.87608679E+03</pdfrwt>
<totfact> 0.14339924E+02</totfact>
</mgrwt>
</event>
<event>
 4    1  0.2309632E-005  0.5446368E+03  0.7818608E-02  0.1002743E+00
          1   -1    0    0  501    0  0.00000000000E+00  0.00000000000E+00  0.82207760664E+03  0.82207760665E+03  0.50400000000E-02 0.  1.
         -1   -1    0    0    0  501 -0.00000000000E+00 -0.00000000000E+00 -0.90207204843E+02  0.90207204984E+02  0.50400000000E-02 0. -1.
    5000001    1    1    2    0    0  0.99132639157E+02  0.15279095146E+03  0.56242144028E+03  0.61377131855E+03  0.16500000000E+03 0.  0.
   -5000001    1    1    2    0    0 -0.99132639157E+02 -0.15279095146E+03  0.16944896151E+03  0.29851349308E+03  0.16500000000E+03 0.  0.
<mgrwt>
<rscale>  0 0.54463684E+03</rscale>
<asrwt>0</asrwt>
<pdfrwt beam="1">  1        1 0.12647347E+00 0.54463684E+03</pdfrwt>
<pdfrwt beam="2">  1       -1 0.13878032E-01 0.54463684E+03</pdfrwt>
<totfact> 0.79830529E+02</totfact>
</mgrwt>
</event>
<event>
 4    1  0.2309632E-005  0.5938370E+03  0.7818608E-02  0.9918276E-01
          1   -1    0    0  501    0  0.00000000000E+00  0.00000000000E+00  0.21358078197E+03  0.21358078203E+03  0.50400000000E-02 0. -1.
         -1   -1    0    0    0  501 -0.00000000000E+00 -0.00000000000E+00 -0.41277397157E+03  0.41277397160E+03  0.50400000000E-02 0.  1.
    5000001    1    1    2    0    0  0.76571560337E+02 -0.18950076255E+03  0.46409774959E+02  0.26674446587E+03  0.16500000000E+03 0.  0.
   -5000001    1    1    2    0    0 -0.76571560337E+02  0.18950076255E+03 -0.24560296456E+03  0.35961028776E+03  0.16500000000E+03 0.  0.
<mgrwt>
<rscale>  0 0.59383697E+03</rscale>
<asrwt>0</asrwt>
<pdfrwt beam="1">  1        1 0.32858582E-01 0.59383697E+03</pdfrwt>
<pdfrwt beam="2">  1       -1 0.63503688E-01 0.59383697E+03</pdfrwt>
<totfact> 0.34822663E+02</totfact>
</mgrwt>
</event>
<event>
 4    1  0.2309632E-005  0.6527113E+03  0.7818608E-02  0.9801705E-01
          1   -1    0    0  501    0  0.00000000000E+00  0.00000000000E+00  0.52442265391E+03  0.52442265393E+03  0.50400000000E-02 0.  1.
         -1   -1    0    0    0  501 -0.00000000000E+00 -0.00000000000E+00 -0.20309572238E+03  0.20309572245E+03  0.50400000000E-02 0. -1.
    5000001    1    1    2    0    0 -0.36332632869E+02 -0.27904599386E+03  0.17159976261E+03  0.36858948090E+03  0.16500000000E+03 0.  0.
   -5000001    1    1    2    0    0  0.36332632869E+02  0.27904599386E+03  0.14972716891E+03  0.35892889548E+03  0.16500000000E+03 0.  0.
<mgrwt>
<rscale>  0 0.65271126E+03</rscale>
<asrwt>0</asrwt>
<pdfrwt beam="1">  1        1 0.80680408E-01 0.65271126E+03</pdfrwt>
<pdfrwt beam="2">  1       -1 0.31245496E-01 0.65271126E+03</pdfrwt>
<totfact> 0.39847666E+02</totfact>
</mgrwt>
</event>
<event>
 4    1  0.2309632E-005  0.4425029E+03  0.7818608E-02  0.1029982E+00
          1   -1    0    0  501    0  0.00000000000E+00  0.00000000000E+00  0.62335046972E+03  0.62335046974E+03  0.50400000000E-02 0.  1.
         -1   -1    0    0    0  501 -0.00000000000E+00 -0.00000000000E+00 -0.78530798089E+02  0.78530798250E+02  0.50400000000E-02 0. -1.
    5000001    1    1    2    0    0  0.14715114306E+03  0.84935685369E+01  0.27039701651E+03  0.34937822792E+03  0.16500000000E+03 0.  0.
   -5000001    1    1    2    0    0 -0.14715114306E+03 -0.84935685369E+01  0.27442265512E+03  0.35250304006E+03  0.16500000000E+03 0.  0.
<mgrwt>
<rscale>  0 0.44250293E+03</rscale>
<asrwt>0</asrwt>
<pdfrwt beam="1">  1        1 0.95900073E-01 0.44250293E+03</pdfrwt>
<pdfrwt beam="2">  1       -1 0.12081661E-01 0.44250293E+03</pdfrwt>
<totfact> 0.15143816E+03</totfact>
</mgrwt>
</event>
<event>
 4    1  0.2309632E-005  0.5657325E+03  0.7818608E-02  0.9979167E-01
          1   -1    0    0  501    0  0.00000000000E+00  0.00000000000E+00  0.10191577493E+03  0.10191577506E+03  0.50400000000E-02 0.  1.
         -1   -1    0    0    0  501 -0.00000000000E+00 -0.00000000000E+00 -0.78509249697E+03  0.78509249699E+03  0.50400000000E-02 0. -1.
    5000001    1    1    2    0    0  0.21451866215E+02 -0.13107017207E+03 -0.47639743712E+02  0.21710393306E+03  0.16500000000E+03 0.  0.
   -5000001    1    1    2    0    0 -0.21451866215E+02  0.13107017207E+03 -0.63553697833E+03  0.66990433899E+03  0.16500000000E+03 0.  0.
<mgrwt>
<rscale>  0 0.56573248E+03</rscale>
<asrwt>0</asrwt>
<pdfrwt beam="1">  1        1 0.15679350E-01 0.56573248E+03</pdfrwt>
<pdfrwt beam="2">  1       -1 0.12078346E+00 0.56573248E+03</pdfrwt>
<totfact> 0.22587172E+02</totfact>
</mgrwt>
</event>
<event>
 4    1  0.2309632E-005  0.3534416E+03  0.7818608E-02  0.1061211E+00
         -1   -1    0    0    0  501 -0.00000000000E+00  0.00000000000E+00  0.29605306769E+03  0.29605306773E+03  0.50400000000E-02 0. -1.
          1   -1    0    0  501    0  0.00000000000E+00 -0.00000000000E+00 -0.10548868637E+03  0.10548868649E+03  0.50400000000E-02 0.  1.
    5000001    1    1    2    0    0 -0.45757854000E+02 -0.18523772022E+02  0.50290448440E+02  0.17941861814E+03  0.16500000000E+03 0.  0.
   -5000001    1    1    2    0    0  0.45757854000E+02  0.18523772022E+02  0.14027393289E+03  0.22212313607E+03  0.16500000000E+03 0.  0.
<mgrwt>
<rscale>  0 0.35344165E+03</rscale>
<asrwt>0</asrwt>
<pdfrwt beam="1">  1        1 0.16229029E-01 0.35344165E+03</pdfrwt>
<pdfrwt beam="2">  1       -1 0.45546625E-01 0.35344165E+03</pdfrwt>
<totfact> 0.16448987E+03</totfact>
</mgrwt>
</event>
<event>
 4    1  0.2309632E-005  0.5109505E+03  0.7818608E-02  0.1010960E+00
         -1   -1    0    0    0  501 -0.00000000000E+00  0.00000000000E+00  0.37159100100E+02  0.37159100442E+02  0.50400000000E-02 0. -1.
          1   -1    0    0  501    0  0.00000000000E+00 -0.00000000000E+00 -0.17564362495E+04  0.17564362495E+04  0.50400000000E-02 0.  1.
    5000001    1    1    2    0    0 -0.18135463892E+03  0.52736246236E+02 -0.68867615917E+03  0.73291914215E+03  0.16500000000E+03 0.  0.
   -5000001    1    1    2    0    0  0.18135463892E+03 -0.52736246236E+02 -0.10306009902E+04  0.10606762078E+04  0.16500000000E+03 0.  0.
<mgrwt>
<rscale>  0 0.51095045E+03</rscale>
<asrwt>0</asrwt>
<pdfrwt beam="1">  1        1 0.27022090E+00 0.51095045E+03</pdfrwt>
<pdfrwt beam="2">  1       -1 0.57167860E-02 0.51095045E+03</pdfrwt>
<totfact> 0.68417478E+02</totfact>
</mgrwt>
</event>
<event>
 4    1  0.2309632E-005  0.1080798E+04  0.7818608E-02  0.9224112E-01
          1   -1    0    0  501    0  0.00000000000E+00  0.00000000000E+00  0.64850746294E+03  0.64850746296E+03  0.50400000000E-02 0.  1.
         -1   -1    0    0    0  501 -0.00000000000E+00 -0.00000000000E+00 -0.45031273364E+03  0.45031273367E+03  0.50400000000E-02 0. -1.
    5000001    1    1    2    0    0  0.47068060469E+03  0.18798038254E+03  0.18962888301E+03  0.56573931198E+03  0.16500000000E+03 0.  0.
   -5000001    1    1    2    0    0 -0.47068060469E+03 -0.18798038254E+03  0.85658462835E+01  0.53308088464E+03  0.16500000000E+03 0.  0.
<mgrwt>
<rscale>  0 0.10807982E+04</rscale>
<asrwt>0</asrwt>
<pdfrwt beam="1">  1        1 0.99770378E-01 0.10807982E+04</pdfrwt>
<pdfrwt beam="2">  1       -1 0.69278883E-01 0.10807982E+04</pdfrwt>
<totfact> 0.64287336E+01</totfact>
</mgrwt>
</event>
<event>
 4    1  0.2309632E-005  0.6928065E+03  0.7818608E-02  0.9729614E-01
         -1   -1    0    0    0  501 -0.00000000000E+00  0.00000000000E+00  0.13271091703E+03  0.13271091712E+03  0.50400000000E-02 0. -1.
          1   -1    0    0  501    0  0.00000000000E+00 -0.00000000000E+00 -0.90418500597E+03  0.90418500598E+03  0.50400000000E-02 0.  1.
    5000001    1    1    2    0    0 -0.60335671818E+01  0.27785450908E+03 -0.19921998493E+03  0.37967503808E+03  0.16500000000E+03 0.  0.
   -5000001    1    1    2    0    0  0.60335671818E+01 -0.27785450908E+03 -0.57225410401E+03  0.65722088502E+03  0.16500000000E+03 0.  0.
<mgrwt>
<rscale>  0 0.69280653E+03</rscale>
<asrwt>0</asrwt>
<pdfrwt beam="1">  1        1 0.13910538E+00 0.69280653E+03</pdfrwt>
<pdfrwt beam="2">  1       -1 0.20417065E-01 0.69280653E+03</pdfrwt>
<totfact> 0.36086595E+02</totfact>
</mgrwt>
</event>
<event>
 4    1  0.2309632E-005  0.4531077E+03  0.7818608E-02  0.1026799E+00
         -1   -1    0    0    0  501 -0.00000000000E+00  0.00000000000E+00  0.24937390673E+03  0.24937390678E+03  0.50400000000E-02 0. -1.
          1   -1    0    0  501    0  0.00000000000E+00 -0.00000000000E+00 -0.20582205157E+03  0.20582205164E+03  0.50400000000E-02 0.  1.
    5000001    1    1    2    0    0  0.12271441196E+03 -0.94587748416E+02  0.11933834510E+02  0.22665631573E+03  0.16500000000E+03 0.  0.
   -5000001    1    1    2    0    0 -0.12271441196E+03  0.94587748416E+02  0.31618020648E+02  0.22853964269E+03  0.16500000000E+03 0.  0.
<mgrwt>
<rscale>  0 0.45310771E+03</rscale>
<asrwt>0</asrwt>
<pdfrwt beam="1">  1        1 0.31664931E-01 0.45310771E+03</pdfrwt>
<pdfrwt beam="2">  1       -1 0.38365217E-01 0.45310771E+03</pdfrwt>
<totfact> 0.94413471E+02</totfact>
</mgrwt>
</event>
<event>
 4    1  0.2309632E-005  0.6914027E+03  0.7818608E-02  0.9732049E-01
         -1   -1    0    0    0  501 -0.00000000000E+00  0.00000000000E+00  0.46461690975E+02  0.46461691249E+02  0.50400000000E-02 0. -1.
          1   -1    0    0  501    0  0.00000000000E+00 -0.00000000000E+00 -0.25722143594E+04  0.25722143595E+04  0.50400000000E-02 0.  1.
    5000001    1    1    2    0    0 -0.29476775494E+03  0.70563049975E+02 -0.11855100345E+04  0.12347170588E+04  0.16500000000E+03 0.  0.
   -5000001    1    1    2    0    0  0.29476775494E+03 -0.70563049975E+02 -0.13402426339E+04  0.13839589919E+04  0.16500000000E+03 0.  0.
<mgrwt>
<rscale>  0 0.69140272E+03</rscale>
<asrwt>0</asrwt>
<pdfrwt beam="1">  1        1 0.39572517E+00 0.69140272E+03</pdfrwt>
<pdfrwt beam="2">  1       -1 0.71479545E-02 0.69140272E+03</pdfrwt>
<totfact> 0.13557946E+02</totfact>
</mgrwt>
</event>
<event>
 4    1  0.2309632E-005  0.4392595E+03  0.7818608E-02  0.1030974E+00
          1   -1    0    0  501    0  0.00000000000E+00  0.00000000000E+00  0.29131817432E+04  0.29131817432E+04  0.50400000000E-02 0.  1.
         -1   -1    0    0    0  501 -0.00000000000E+00 -0.00000000000E+00 -0.16558261279E+02  0.16558262046E+02  0.50400000000E-02 0. -1.
    5000001    1    1    2    0    0  0.35539807031E+02 -0.69834168469E+02  0.63492417624E+03  0.66067662176E+03  0.16500000000E+03 0.  0.
   -5000001    1    1    2    0    0 -0.35539807031E+02  0.69834168469E+02  0.22616993056E+04  0.22690633835E+04  0.16500000000E+03 0.  0.
<mgrwt>
<rscale>  0 0.43925949E+03</rscale>
<asrwt>0</asrwt>
<pdfrwt beam="1">  1        1 0.44818176E+00 0.43925949E+03</pdfrwt>
<pdfrwt beam="2">  1       -1 0.25474251E-02 0.43925949E+03</pdfrwt>
<totfact> 0.38906066E+02</totfact>
</mgrwt>
</event>
<event>
 4    1  0.2309632E-005  0.9731531E+03  0.7818608E-02  0.9338490E-01
         -1   -1    0    0    0  501 -0.00000000000E+00  0.00000000000E+00  0.82307135418E+03  0.82307135419E+03  0.50400000000E-02 0. -1.
          1   -1    0    0  501    0  0.00000000000E+00 -0.00000000000E+00 -0.28765031396E+03  0.28765031401E+03  0.50400000000E-02 0.  1.
    5000001    1    1    2    0    0 -0.95902432390E+02  0.44754369971E+03  0.26057414073E+03  0.55192075746E+03  0.16500000000E+03 0.  0.
   -5000001    1    1    2    0    0  0.95902432390E+02 -0.44754369971E+03  0.27484689948E+03  0.55880091074E+03  0.16500000000E+03 0.  0.
<mgrwt>
<rscale>  0 0.97315309E+03</rscale>
<asrwt>0</asrwt>
<pdfrwt beam="1">  1        1 0.44253895E-01 0.97315309E+03</pdfrwt>
<pdfrwt beam="2">  1       -1 0.12662636E+00 0.97315309E+03</pdfrwt>
<totfact> 0.50413949E+01</totfact>
</mgrwt>
</event>
<event>
 4    1  0.2309632E-005  0.4868730E+03  0.7818608E-02  0.1017263E+00
          1   -1    0    0  501    0  0.00000000000E+00  0.00000000000E+00  0.28430292869E+03  0.28430292874E+03  0.50400000000E-02 0.  1.
         -1   -1    0    0    0  501 -0.00000000000E+00 -0.00000000000E+00 -0.20844431920E+03  0.20844431926E+03  0.50400000000E-02 0. -1.
    5000001    1    1    2    0    0  0.11444761748E+03  0.29754150439E+02 -0.98052363031E+02  0.22543919914E+03  0.16500000000E+03 0.  0.
   -5000001    1    1    2    0    0 -0.11444761748E+03 -0.29754150439E+02  0.17391097253E+03  0.26730804885E+03  0.16500000000E+03 0.  0.
<mgrwt>
<rscale>  0 0.48687300E+03</rscale>
<asrwt>0</asrwt>
<pdfrwt beam="1">  1        1 0.43738912E-01 0.48687300E+03</pdfrwt>
<pdfrwt beam="2">  1       -1 0.32068357E-01 0.48687300E+03</pdfrwt>
<totfact> 0.85679655E+02</totfact>
</mgrwt>
</event>
<event>
 4    1  0.2309632E-005  0.4752086E+03  0.7818608E-02  0.1020460E+00
          1   -1    0    0  501    0  0.00000000000E+00  0.00000000000E+00  0.10412015999E+04  0.10412015999E+04  0.50400000000E-02 0.  1.
         -1   -1    0    0    0  501 -0.00000000000E+00 -0.00000000000E+00 -0.54221776871E+02  0.54221777105E+02  0.50400000000E-02 0. -1.
    5000001    1    1    2    0    0  0.93779203764E+02  0.94386879357E+02  0.24599686201E+03  0.32471969169E+03  0.16500000000E+03 0.  0.
   -5000001    1    1    2    0    0 -0.93779203764E+02 -0.94386879357E+02  0.74098296099E+03  0.77070368529E+03  0.16500000000E+03 0.  0.
<mgrwt>
<rscale>  0 0.47520859E+03</rscale>
<asrwt>0</asrwt>
<pdfrwt beam="1">  1        1 0.16018485E+00 0.47520859E+03</pdfrwt>
<pdfrwt beam="2">  1       -1 0.83418126E-02 0.47520859E+03</pdfrwt>
<totfact> 0.11977569E+03</totfact>
</mgrwt>
</event>
<event>
 4    1  0.2309632E-005  0.5859144E+03  0.7818608E-02  0.9935068E-01
         -1   -1    0    0    0  501 -0.00000000000E+00  0.00000000000E+00  0.59730319133E+03  0.59730319135E+03  0.50400000000E-02 0. -1.
          1   -1    0    0  501    0  0.00000000000E+00 -0.00000000000E+00 -0.14368570471E+03  0.14368570480E+03  0.50400000000E-02 0.  1.
    5000001    1    1    2    0    0 -0.42564544245E+02 -0.20093998710E+03  0.64800947379E+02  0.27131675515E+03  0.16500000000E+03 0.  0.
   -5000001    1    1    2    0    0  0.42564544245E+02  0.20093998710E+03  0.38881653924E+03  0.46967214100E+03  0.16500000000E+03 0.  0.
<mgrwt>
<rscale>  0 0.58591443E+03</rscale>
<asrwt>0</asrwt>
<pdfrwt beam="1">  1        1 0.22105493E-01 0.58591443E+03</pdfrwt>
<pdfrwt beam="2">  1       -1 0.91892799E-01 0.58591443E+03</pdfrwt>
<totfact> 0.26939426E+02</totfact>
</mgrwt>
</event>
<event>
 4    1  0.2309632E-005  0.5221537E+03  0.7818608E-02  0.1008153E+00
         -1   -1    0    0    0  501 -0.00000000000E+00  0.00000000000E+00  0.11624613755E+03  0.11624613766E+03  0.50400000000E-02 0. -1.
          1   -1    0    0  501    0  0.00000000000E+00 -0.00000000000E+00 -0.58635167636E+03  0.58635167638E+03  0.50400000000E-02 0.  1.
    5000001    1    1    2    0    0  0.16454207305E+03  0.75046049984E+02 -0.11298208514E+03  0.26962187408E+03  0.16500000000E+03 0.  0.
   -5000001    1    1    2    0    0 -0.16454207305E+03 -0.75046049984E+02 -0.35712345367E+03  0.43297593996E+03  0.16500000000E+03 0.  0.
<mgrwt>
<rscale>  0 0.52215368E+03</rscale>
<asrwt>0</asrwt>
<pdfrwt beam="1">  1        1 0.90207948E-01 0.52215368E+03</pdfrwt>
<pdfrwt beam="2">  1       -1 0.17884022E-01 0.52215368E+03</pdfrwt>
<totfact> 0.87792363E+02</totfact>
</mgrwt>
</event>
<event>
 4    1  0.2309632E-005  0.4502764E+03  0.7818608E-02  0.1027640E+00
          1   -1    0    0  501    0  0.00000000000E+00  0.00000000000E+00  0.10615558935E+03  0.10615558947E+03  0.50400000000E-02 0.  1.
         -1   -1    0    0    0  501 -0.00000000000E+00 -0.00000000000E+00 -0.47748033166E+03  0.47748033168E+03  0.50400000000E-02 0. -1.
    5000001    1    1    2    0    0 -0.11152611492E+03  0.71410975440E+02 -0.85894083731E+02  0.22834271467E+03  0.16500000000E+03 0.  0.
   -5000001    1    1    2    0    0  0.11152611492E+03 -0.71410975440E+02 -0.28543065857E+03  0.35529320649E+03  0.16500000000E+03 0.  0.
<mgrwt>
<rscale>  0 0.45027639E+03</rscale>
<asrwt>0</asrwt>
<pdfrwt beam="1">  1        1 0.16331629E-01 0.45027639E+03</pdfrwt>
<pdfrwt beam="2">  1       -1 0.73458511E-01 0.45027639E+03</pdfrwt>
<totfact> 0.64854923E+02</totfact>
</mgrwt>
</event>
<event>
 4    1  0.2309632E-005  0.3618765E+03  0.7818608E-02  0.1057843E+00
         -1   -1    0    0    0  501 -0.00000000000E+00  0.00000000000E+00  0.52536481667E+03  0.52536481669E+03  0.50400000000E-02 0.  1.
          1   -1    0    0  501    0  0.00000000000E+00 -0.00000000000E+00 -0.62316040339E+02  0.62316040543E+02  0.50400000000E-02 0. -1.
    5000001    1    1    2    0    0 -0.21361221915E+02 -0.55898317427E+02  0.16012953718E+03  0.23758659973E+03  0.16500000000E+03 0.  0.
   -5000001    1    1    2    0    0  0.21361221915E+02  0.55898317427E+02  0.30291923915E+03  0.35009425750E+03  0.16500000000E+03 0.  0.
<mgrwt>
<rscale>  0 0.36187653E+03</rscale>
<asrwt>0</asrwt>
<pdfrwt beam="1">  1        1 0.95870826E-02 0.36187653E+03</pdfrwt>
<pdfrwt beam="2">  1       -1 0.80825361E-01 0.36187653E+03</pdfrwt>
<totfact> 0.10882733E+03</totfact>
</mgrwt>
</event>
<event>
 4    1  0.2309632E-005  0.3814554E+03  0.7818608E-02  0.1050397E+00
          1   -1    0    0  501    0  0.00000000000E+00  0.00000000000E+00  0.71892847987E+03  0.71892847988E+03  0.50400000000E-02 0.  1.
         -1   -1    0    0    0  501 -0.00000000000E+00 -0.00000000000E+00 -0.50599002621E+02  0.50599002872E+02  0.50400000000E-02 0. -1.
    5000001    1    1    2    0    0 -0.18192479776E+02 -0.58550637447E+02  0.18601791910E+03  0.25609921846E+03  0.16500000000E+03 0.  0.
   -5000001    1    1    2    0    0  0.18192479776E+02  0.58550637447E+02  0.48231155814E+03  0.51342826430E+03  0.16500000000E+03 0.  0.
<mgrwt>
<rscale>  0 0.38145545E+03</rscale>
<asrwt>0</asrwt>
<pdfrwt beam="1">  1        1 0.11060437E+00 0.38145545E+03</pdfrwt>
<pdfrwt beam="2">  1       -1 0.77844629E-02 0.38145545E+03</pdfrwt>
<totfact> 0.24410974E+03</totfact>
</mgrwt>
</event>
<event>
 4    1  0.2309632E-005  0.4544461E+03  0.7818608E-02  0.1026404E+00
         -1   -1    0    0    0  501 -0.00000000000E+00  0.00000000000E+00  0.19301332658E+03  0.19301332664E+03  0.50400000000E-02 0. -1.
          1   -1    0    0  501    0  0.00000000000E+00 -0.00000000000E+00 -0.26749616183E+03  0.26749616187E+03  0.50400000000E-02 0.  1.
    5000001    1    1    2    0    0 -0.44331869364E+02  0.14823254966E+03 -0.59142757973E+02  0.23379706850E+03  0.16500000000E+03 0.  0.
   -5000001    1    1    2    0    0  0.44331869364E+02 -0.14823254966E+03 -0.15340077277E+02  0.22671242002E+03  0.16500000000E+03 0.  0.
<mgrwt>
<rscale>  0 0.45444614E+03</rscale>
<asrwt>0</asrwt>
<pdfrwt beam="1">  1        1 0.41153256E-01 0.45444614E+03</pdfrwt>
<pdfrwt beam="2">  1       -1 0.29694358E-01 0.45444614E+03</pdfrwt>
<totfact> 0.10583786E+03</totfact>
</mgrwt>
</event>
<event>
 4    1  0.2309632E-005  0.4422338E+03  0.7818608E-02  0.1030064E+00
         -1   -1    0    0    0  501 -0.00000000000E+00  0.00000000000E+00  0.43806417446E+02  0.43806417736E+02  0.50400000000E-02 0. -1.
          1   -1    0    0  501    0  0.00000000000E+00 -0.00000000000E+00 -0.11161077029E+04  0.11161077029E+04  0.50400000000E-02 0.  1.
    5000001    1    1    2    0    0 -0.13147687643E+03  0.49452908867E+02 -0.42074747738E+03  0.47327074593E+03  0.16500000000E+03 0.  0.
   -5000001    1    1    2    0    0  0.13147687643E+03 -0.49452908867E+02 -0.65155380807E+03  0.68664337472E+03  0.16500000000E+03 0.  0.
<mgrwt>
<rscale>  0 0.44223378E+03</rscale>
<asrwt>0</asrwt>
<pdfrwt beam="1">  1        1 0.17170886E+00 0.44223378E+03</pdfrwt>
<pdfrwt beam="2">  1       -1 0.67394497E-02 0.44223378E+03</pdfrwt>
<totfact> 0.14670516E+03</totfact>
</mgrwt>
</event>
<event>
 4    1  0.2309632E-005  0.4400199E+03  0.7818608E-02  0.1030741E+00
         -1   -1    0    0    0  501 -0.00000000000E+00  0.00000000000E+00  0.25719818802E+02  0.25719819295E+02  0.50400000000E-02 0. -1.
          1   -1    0    0  501    0  0.00000000000E+00 -0.00000000000E+00 -0.18819871520E+04  0.18819871520E+04  0.50400000000E-02 0.  1.
    5000001    1    1    2    0    0 -0.11407115628E+03 -0.82100347929E+02 -0.10918913324E+04  0.11131955703E+04  0.16500000000E+03 0.  0.
   -5000001    1    1    2    0    0  0.11407115628E+03  0.82100347929E+02 -0.76437600078E+03  0.79451140104E+03  0.16500000000E+03 0.  0.
<mgrwt>
<rscale>  0 0.44001986E+03</rscale>
<asrwt>0</asrwt>
<pdfrwt beam="1">  1        1 0.28953638E+00 0.44001986E+03</pdfrwt>
<pdfrwt beam="2">  1       -1 0.39568967E-02 0.44001986E+03</pdfrwt>
<totfact> 0.99313886E+02</totfact>
</mgrwt>
</event>
<event>
 4    1  0.2309632E-005  0.5326942E+03  0.7818608E-02  0.1005581E+00
         -1   -1    0    0    0  501 -0.00000000000E+00  0.00000000000E+00  0.43370009951E+02  0.43370010244E+02  0.50400000000E-02 0. -1.
          1   -1    0    0  501    0  0.00000000000E+00 -0.00000000000E+00 -0.16357106770E+04  0.16357106770E+04  0.50400000000E-02 0.  1.
    5000001    1    1    2    0    0 -0.47304564679E+02 -0.16621749170E+03 -0.42522022101E+03  0.48775322935E+03  0.16500000000E+03 0.  0.
   -5000001    1    1    2    0    0  0.47304564679E+02  0.16621749170E+03 -0.11671204460E+04  0.11913274579E+04  0.16500000000E+03 0.  0.
<mgrwt>
<rscale>  0 0.53269424E+03</rscale>
<asrwt>0</asrwt>
<pdfrwt beam="1">  1        1 0.25164775E+00 0.53269424E+03</pdfrwt>
<pdfrwt beam="2">  1       -1 0.66723105E-02 0.53269424E+03</pdfrwt>
<totfact> 0.64835092E+02</totfact>
</mgrwt>
</event>
<event>
 4    1  0.2309632E-005  0.5424933E+03  0.7818608E-02  0.1003247E+00
          1   -1    0    0  501    0  0.00000000000E+00  0.00000000000E+00  0.22353346910E+04  0.22353346910E+04  0.50400000000E-02 0.  1.
         -1   -1    0    0    0  501 -0.00000000000E+00 -0.00000000000E+00 -0.32914419492E+02  0.32914419878E+02  0.50400000000E-02 0. -1.
    5000001    1    1    2    0    0 -0.11567383780E+03 -0.13862922221E+03  0.15915163546E+04  0.16102011691E+04  0.16500000000E+03 0.  0.
   -5000001    1    1    2    0    0  0.11567383780E+03  0.13862922221E+03  0.61090391693E+03  0.65804794181E+03  0.16500000000E+03 0.  0.
<mgrwt>
<rscale>  0 0.54249330E+03</rscale>
<asrwt>0</asrwt>
<pdfrwt beam="1">  1        1 0.34389771E+00 0.54249330E+03</pdfrwt>
<pdfrwt beam="2">  1       -1 0.50637560E-02 0.54249330E+03</pdfrwt>
<totfact> 0.39536347E+02</totfact>
</mgrwt>
</event>
<event>
 4    1  0.2309632E-005  0.3652636E+03  0.7818608E-02  0.1056519E+00
         -1   -1    0    0    0  501 -0.00000000000E+00  0.00000000000E+00  0.27676590136E+02  0.27676590595E+02  0.50400000000E-02 0.  1.
          1   -1    0    0  501    0  0.00000000000E+00 -0.00000000000E+00 -0.12051473418E+04  0.12051473418E+04  0.50400000000E-02 0. -1.
    5000001    1    1    2    0    0  0.28038038502E+02 -0.70223886487E+02 -0.52024007233E+03  0.55099206772E+03  0.16500000000E+03 0.  0.
   -5000001    1    1    2    0    0 -0.28038038502E+02  0.70223886487E+02 -0.65723067929E+03  0.68183186464E+03  0.16500000000E+03 0.  0.
<mgrwt>
<rscale>  0 0.36526357E+03</rscale>
<asrwt>0</asrwt>
<pdfrwt beam="1">  1        1 0.18540724E+00 0.36526357E+03</pdfrwt>
<pdfrwt beam="2">  1       -1 0.42579379E-02 0.36526357E+03</pdfrwt>
<totfact> 0.25470276E+03</totfact>
</mgrwt>
</event>
<event>
 4    1  0.2309632E-005  0.5109290E+03  0.7818608E-02  0.1010965E+00
         -1   -1    0    0    0  501 -0.00000000000E+00  0.00000000000E+00  0.47088209377E+03  0.47088209379E+03  0.50400000000E-02 0. -1.
          1   -1    0    0  501    0  0.00000000000E+00 -0.00000000000E+00 -0.13859541808E+03  0.13859541817E+03  0.50400000000E-02 0.  1.
    5000001    1    1    2    0    0 -0.66232013604E+02  0.17985891607E+03  0.12311369388E+03  0.28127902684E+03  0.16500000000E+03 0.  0.
   -5000001    1    1    2    0    0  0.66232013604E+02 -0.17985891607E+03  0.20917298181E+03  0.32819848512E+03  0.16500000000E+03 0.  0.
<mgrwt>
<rscale>  0 0.51092896E+03</rscale>
<asrwt>0</asrwt>
<pdfrwt beam="1">  1        1 0.21322372E-01 0.51092896E+03</pdfrwt>
<pdfrwt beam="2">  1       -1 0.72443400E-01 0.51092896E+03</pdfrwt>
<totfact> 0.46907630E+02</totfact>
</mgrwt>
</event>
<event>
 4    1  0.2309632E-005  0.7284417E+03  0.7818608E-02  0.9669792E-01
          1   -1    0    0  501    0  0.00000000000E+00  0.00000000000E+00  0.15957526489E+03  0.15957526497E+03  0.50400000000E-02 0.  1.
         -1   -1    0    0    0  501 -0.00000000000E+00 -0.00000000000E+00 -0.83131188698E+03  0.83131188700E+03  0.50400000000E-02 0. -1.
    5000001    1    1    2    0    0 -0.18543491199E+03  0.26654390753E+03 -0.33555398479E+03  0.49523048970E+03  0.16500000000E+03 0.  0.
   -5000001    1    1    2    0    0  0.18543491199E+03 -0.26654390753E+03 -0.33618263730E+03  0.49565666227E+03  0.16500000000E+03 0.  0.
<mgrwt>
<rscale>  0 0.72844166E+03</rscale>
<asrwt>0</asrwt>
<pdfrwt beam="1">  1        1 0.24550041E-01 0.72844166E+03</pdfrwt>
<pdfrwt beam="2">  1       -1 0.12789413E+00 0.72844166E+03</pdfrwt>
<totfact> 0.10744721E+02</totfact>
</mgrwt>
</event>
<event>
 4    1  0.2309632E-005  0.4446193E+03  0.7818608E-02  0.1029339E+00
         -1   -1    0    0    0  501 -0.00000000000E+00  0.00000000000E+00  0.15447805204E+03  0.15447805212E+03  0.50400000000E-02 0. -1.
          1   -1    0    0  501    0  0.00000000000E+00 -0.00000000000E+00 -0.31992629930E+03  0.31992629934E+03  0.50400000000E-02 0.  1.
    5000001    1    1    2    0    0 -0.47287948426E+02  0.30548632216E+01 -0.23343473393E+03  0.28976241520E+03  0.16500000000E+03 0.  0.
   -5000001    1    1    2    0    0  0.47287948426E+02 -0.30548632216E+01  0.67986486677E+02  0.18464193626E+03  0.16500000000E+03 0.  0.
<mgrwt>
<rscale>  0 0.44461935E+03</rscale>
<asrwt>0</asrwt>
<pdfrwt beam="1">  1        1 0.49219430E-01 0.44461935E+03</pdfrwt>
<pdfrwt beam="2">  1       -1 0.23765854E-01 0.44461935E+03</pdfrwt>
<totfact> 0.12289189E+03</totfact>
</mgrwt>
</event>
<event>
 4    1  0.2309632E-005  0.4588114E+03  0.7818608E-02  0.1025127E+00
          1   -1    0    0  501    0  0.00000000000E+00  0.00000000000E+00  0.70862758567E+02  0.70862758747E+02  0.50400000000E-02 0.  1.
         -1   -1    0    0    0  501 -0.00000000000E+00 -0.00000000000E+00 -0.74266052223E+03  0.74266052224E+03  0.50400000000E-02 0. -1.
    5000001    1    1    2    0    0  0.14847910593E+03 -0.56640920945E+02 -0.31434741592E+03  0.38896469855E+03  0.16500000000E+03 0.  0.
   -5000001    1    1    2    0    0 -0.14847910593E+03  0.56640920945E+02 -0.35745034774E+03  0.42455858244E+03  0.16500000000E+03 0.  0.
<mgrwt>
<rscale>  0 0.45881139E+03</rscale>
<asrwt>0</asrwt>
<pdfrwt beam="1">  1        1 0.10901963E-01 0.45881139E+03</pdfrwt>
<pdfrwt beam="2">  1       -1 0.11425546E+00 0.45881139E+03</pdfrwt>
<totfact> 0.42293958E+02</totfact>
</mgrwt>
</event>
<event>
 4    1  0.2309632E-005  0.3694098E+03  0.7818608E-02  0.1054919E+00
          1   -1    0    0  501    0  0.00000000000E+00  0.00000000000E+00  0.63394906579E+02  0.63394906779E+02  0.50400000000E-02 0.  1.
         -1   -1    0    0    0  501 -0.00000000000E+00 -0.00000000000E+00 -0.53814899112E+03  0.53814899114E+03  0.50400000000E-02 0. -1.
    5000001    1    1    2    0    0 -0.75822422350E+02  0.72891654518E+01 -0.18364669363E+03  0.25836656081E+03  0.16500000000E+03 0.  0.
   -5000001    1    1    2    0    0  0.75822422350E+02 -0.72891654518E+01 -0.29110739090E+03  0.34317733710E+03  0.16500000000E+03 0.  0.
<mgrwt>
<rscale>  0 0.36940983E+03</rscale>
<asrwt>0</asrwt>
<pdfrwt beam="1">  1        1 0.97530629E-02 0.36940983E+03</pdfrwt>
<pdfrwt beam="2">  1       -1 0.82792150E-01 0.36940983E+03</pdfrwt>
<totfact> 0.10108564E+03</totfact>
</mgrwt>
</event>
<event>
 4    1  0.2309632E-005  0.6560059E+03  0.7818608E-02  0.9795574E-01
          1   -1    0    0  501    0  0.00000000000E+00  0.00000000000E+00  0.13172376623E+04  0.13172376624E+04  0.50400000000E-02 0.  1.
         -1   -1    0    0    0  501 -0.00000000000E+00 -0.00000000000E+00 -0.81675409557E+02  0.81675409712E+02  0.50400000000E-02 0. -1.
    5000001    1    1    2    0    0  0.22002404637E+03 -0.17677964583E+03  0.56138942028E+03  0.64964967895E+03  0.16500000000E+03 0.  0.
   -5000001    1    1    2    0    0 -0.22002404637E+03  0.17677964583E+03  0.67417283251E+03  0.74926339311E+03  0.16500000000E+03 0.  0.
<mgrwt>
<rscale>  0 0.65600587E+03</rscale>
<asrwt>0</asrwt>
<pdfrwt beam="1">  1        1 0.20265192E+00 0.65600587E+03</pdfrwt>
<pdfrwt beam="2">  1       -1 0.12565449E-01 0.65600587E+03</pdfrwt>
<totfact> 0.39288828E+02</totfact>
</mgrwt>
</event>
<event>
 4    1  0.2309632E-005  0.4761384E+03  0.7818608E-02  0.1020202E+00
         -1   -1    0    0    0  501 -0.00000000000E+00  0.00000000000E+00  0.45681392884E+02  0.45681393162E+02  0.50400000000E-02 0. -1.
          1   -1    0    0  501    0  0.00000000000E+00 -0.00000000000E+00 -0.12407008296E+04  0.12407008296E+04  0.50400000000E-02 0.  1.
    5000001    1    1    2    0    0  0.99808813170E+02  0.13919010227E+03 -0.62664029923E+03  0.67025274962E+03  0.16500000000E+03 0.  0.
   -5000001    1    1    2    0    0 -0.99808813170E+02 -0.13919010227E+03 -0.56837913748E+03  0.61612947314E+03  0.16500000000E+03 0.  0.
<mgrwt>
<rscale>  0 0.47613839E+03</rscale>
<asrwt>0</asrwt>
<pdfrwt beam="1">  1        1 0.19087702E+00 0.47613839E+03</pdfrwt>
<pdfrwt beam="2">  1       -1 0.70279076E-02 0.47613839E+03</pdfrwt>
<totfact> 0.11182922E+03</totfact>
</mgrwt>
</event>
<event>
 4    1  0.2309632E-005  0.3739739E+03  0.7818608E-02  0.1053184E+00
          1   -1    0    0  501    0  0.00000000000E+00  0.00000000000E+00  0.84304417808E+03  0.84304417809E+03  0.50400000000E-02 0.  1.
         -1   -1    0    0    0  501 -0.00000000000E+00 -0.00000000000E+00 -0.41473642389E+02  0.41473642695E+02  0.50400000000E-02 0. -1.
    5000001    1    1    2    0    0 -0.78073692992E+02 -0.16481670553E+02  0.48839190164E+03  0.52165007101E+03  0.16500000000E+03 0.  0.
   -5000001    1    1    2    0    0  0.78073692992E+02  0.16481670553E+02  0.31317863405E+03  0.36286774977E+03  0.16500000000E+03 0.  0.
<mgrwt>
<rscale>  0 0.37397386E+03</rscale>
<asrwt>0</asrwt>
<pdfrwt beam="1">  1        1 0.12969911E+00 0.37397386E+03</pdfrwt>
<pdfrwt beam="2">  1       -1 0.63805604E-02 0.37397386E+03</pdfrwt>
<totfact> 0.25899301E+03</totfact>
</mgrwt>
</event>
<event>
 4    1  0.2309632E-005  0.4824568E+03  0.7818608E-02  0.1018462E+00
         -1   -1    0    0    0  501 -0.00000000000E+00  0.00000000000E+00  0.61340237650E+02  0.61340237857E+02  0.50400000000E-02 0. -1.
          1   -1    0    0  501    0  0.00000000000E+00 -0.00000000000E+00 -0.94866184106E+03  0.94866184107E+03  0.50400000000E-02 0.  1.
    5000001    1    1    2    0    0  0.11375672722E+03 -0.11754670965E+03 -0.30785502121E+03  0.38569098514E+03  0.16500000000E+03 0.  0.
   -5000001    1    1    2    0    0 -0.11375672722E+03  0.11754670965E+03 -0.57946658220E+03  0.62431109379E+03  0.16500000000E+03 0.  0.
<mgrwt>
<rscale>  0 0.48245681E+03</rscale>
<asrwt>0</asrwt>
<pdfrwt beam="1">  1        1 0.14594796E+00 0.48245681E+03</pdfrwt>
<pdfrwt beam="2">  1       -1 0.94369604E-02 0.48245681E+03</pdfrwt>
<totfact> 0.11632160E+03</totfact>
</mgrwt>
</event>
<event>
 4    1  0.2309632E-005  0.6481478E+03  0.7818608E-02  0.9810261E-01
          1   -1    0    0  501    0  0.00000000000E+00  0.00000000000E+00  0.21813207135E+04  0.21813207135E+04  0.50400000000E-02 0.  1.
         -1   -1    0    0    0  501 -0.00000000000E+00 -0.00000000000E+00 -0.48146928969E+02  0.48146929233E+02  0.50400000000E-02 0. -1.
    5000001    1    1    2    0    0 -0.23272559450E+03 -0.50712152901E+02  0.15658366240E+04  0.15924202516E+04  0.16500000000E+03 0.  0.
   -5000001    1    1    2    0    0  0.23272559450E+03  0.50712152901E+02  0.56733716058E+03  0.63704739115E+03  0.16500000000E+03 0.  0.
<mgrwt>
<rscale>  0 0.64814780E+03</rscale>
<asrwt>0</asrwt>
<pdfrwt beam="1">  1        1 0.33558780E+00 0.64814780E+03</pdfrwt>
<pdfrwt beam="2">  1       -1 0.74072198E-02 0.64814780E+03</pdfrwt>
<totfact> 0.23669040E+02</totfact>
</mgrwt>
</event>
<event>
 4    1  0.2309632E-005  0.6772672E+03  0.7818608E-02  0.9756918E-01
          1   -1    0    0  501    0  0.00000000000E+00  0.00000000000E+00  0.11771378784E+03  0.11771378795E+03  0.50400000000E-02 0.  1.
         -1   -1    0    0    0  501 -0.00000000000E+00 -0.00000000000E+00 -0.97416539418E+03  0.97416539420E+03  0.50400000000E-02 0. -1.
    5000001    1    1    2    0    0 -0.11499409547E+03  0.99160438768E+02 -0.19127150864E+02  0.22504951124E+03  0.16500000000E+03 0.  0.
   -5000001    1    1    2    0    0  0.11499409547E+03 -0.99160438768E+02 -0.83732445548E+03  0.86682967090E+03  0.16500000000E+03 0.  0.
<mgrwt>
<rscale>  0 0.67726715E+03</rscale>
<asrwt>0</asrwt>
<pdfrwt beam="1">  1        1 0.18109814E-01 0.67726715E+03</pdfrwt>
<pdfrwt beam="2">  1       -1 0.14987159E+00 0.67726715E+03</pdfrwt>
<totfact> 0.10688115E+02</totfact>
</mgrwt>
</event>
<event>
 4    1  0.2309632E-005  0.5616510E+03  0.7818608E-02  0.9988326E-01
         -1   -1    0    0    0  501 -0.00000000000E+00  0.00000000000E+00  0.61553079841E+02  0.61553080048E+02  0.50400000000E-02 0. -1.
          1   -1    0    0  501    0  0.00000000000E+00 -0.00000000000E+00 -0.12812188620E+04  0.12812188620E+04  0.50400000000E-02 0.  1.
    5000001    1    1    2    0    0 -0.46231548033E+02 -0.16617920596E+03 -0.25615346248E+03  0.35013209060E+03  0.16500000000E+03 0.  0.
   -5000001    1    1    2    0    0  0.46231548033E+02  0.16617920596E+03 -0.96351231964E+03  0.99263985142E+03  0.16500000000E+03 0.  0.
<mgrwt>
<rscale>  0 0.56165102E+03</rscale>
<asrwt>0</asrwt>
<pdfrwt beam="1">  1        1 0.19711057E+00 0.56165102E+03</pdfrwt>
<pdfrwt beam="2">  1       -1 0.94697055E-02 0.56165102E+03</pdfrwt>
<totfact> 0.65577355E+02</totfact>
</mgrwt>
</event>
<event>
 4    1  0.2309632E-005  0.4251945E+03  0.7818608E-02  0.1035389E+00
          1   -1    0    0  501    0  0.00000000000E+00  0.00000000000E+00  0.25119345769E+03  0.25119345774E+03  0.50400000000E-02 0.  1.
         -1   -1    0    0    0  501 -0.00000000000E+00 -0.00000000000E+00 -0.17993140890E+03  0.17993140897E+03  0.50400000000E-02 0. -1.
    5000001    1    1    2    0    0  0.48474881577E+02  0.29876529052E+01  0.16232922939E+03  0.23650479684E+03  0.16500000000E+03 0.  0.
   -5000001    1    1    2    0    0 -0.48474881577E+02 -0.29876529052E+01 -0.91067180603E+02  0.19462006987E+03  0.16500000000E+03 0.  0.
<mgrwt>
<rscale>  0 0.42519451E+03</rscale>
<asrwt>0</asrwt>
<pdfrwt beam="1">  1        1 0.38645147E-01 0.42519451E+03</pdfrwt>
<pdfrwt beam="2">  1       -1 0.27681755E-01 0.42519451E+03</pdfrwt>
<totfact> 0.12931329E+03</totfact>
</mgrwt>
</event>
<event>
 4    1  0.2309632E-005  0.4805828E+03  0.7818608E-02  0.1018975E+00
          1   -1    0    0  501    0  0.00000000000E+00  0.00000000000E+00  0.75576755658E+02  0.75576755826E+02  0.50400000000E-02 0.  1.
         -1   -1    0    0    0  501 -0.00000000000E+00 -0.00000000000E+00 -0.76399083571E+03  0.76399083573E+03  0.50400000000E-02 0. -1.
    5000001    1    1    2    0    0  0.17343989500E+03  0.19589099634E+02 -0.33187644436E+03  0.40967316769E+03  0.16500000000E+03 0.  0.
   -5000001    1    1    2    0    0 -0.17343989500E+03 -0.19589099634E+02 -0.35653763570E+03  0.42989442387E+03  0.16500000000E+03 0.  0.
<mgrwt>
<rscale>  0 0.48058277E+03</rscale>
<asrwt>0</asrwt>
<pdfrwt beam="1">  1        1 0.11627194E-01 0.48058277E+03</pdfrwt>
<pdfrwt beam="2">  1       -1 0.11753705E+00 0.48058277E+03</pdfrwt>
<totfact> 0.36208140E+02</totfact>
</mgrwt>
</event>
<event>
 4    1  0.2309632E-005  0.4187178E+03  0.7818608E-02  0.1037484E+00
          1   -1    0    0  501    0  0.00000000000E+00  0.00000000000E+00  0.65266834738E+03  0.65266834740E+03  0.50400000000E-02 0.  1.
         -1   -1    0    0    0  501 -0.00000000000E+00 -0.00000000000E+00 -0.67156861166E+02  0.67156861355E+02  0.50400000000E-02 0. -1.
    5000001    1    1    2    0    0 -0.47090260048E+02  0.99383378213E+02  0.40822631662E+03  0.45383727705E+03  0.16500000000E+03 0.  0.
   -5000001    1    1    2    0    0  0.47090260048E+02 -0.99383378213E+02  0.17728516960E+03  0.26598793171E+03  0.16500000000E+03 0.  0.
<mgrwt>
<rscale>  0 0.41871784E+03</rscale>
<asrwt>0</asrwt>
<pdfrwt beam="1">  1        1 0.10041052E+00 0.41871784E+03</pdfrwt>
<pdfrwt beam="2">  1       -1 0.10331825E-01 0.41871784E+03</pdfrwt>
<totfact> 0.18136036E+03</totfact>
</mgrwt>
</event>
<event>
 4    1  0.2309632E-005  0.4403145E+03  0.7818608E-02  0.1030650E+00
         -1   -1    0    0    0  501 -0.00000000000E+00  0.00000000000E+00  0.94593270490E+02  0.94593270625E+02  0.50400000000E-02 0. -1.
          1   -1    0    0  501    0  0.00000000000E+00 -0.00000000000E+00 -0.51239598234E+03  0.51239598236E+03  0.50400000000E-02 0.  1.
    5000001    1    1    2    0    0  0.10855742720E+03  0.81136070556E+02 -0.13496716936E+03  0.25260426313E+03  0.16500000000E+03 0.  0.
   -5000001    1    1    2    0    0 -0.10855742720E+03 -0.81136070556E+02 -0.28283554249E+03  0.35438498986E+03  0.16500000000E+03 0.  0.
<mgrwt>
<rscale>  0 0.44031449E+03</rscale>
<asrwt>0</asrwt>
<pdfrwt beam="1">  1        1 0.78830150E-01 0.44031449E+03</pdfrwt>
<pdfrwt beam="2">  1       -1 0.14552811E-01 0.44031449E+03</pdfrwt>
<totfact> 0.14790374E+03</totfact>
</mgrwt>
</event>
<event>
 4    1  0.2309632E-005  0.5960439E+03  0.7818608E-02  0.9913648E-01
          1   -1    0    0  501    0  0.00000000000E+00  0.00000000000E+00  0.80297136481E+03  0.80297136483E+03  0.50400000000E-02 0. -1.
         -1   -1    0    0    0  501 -0.00000000000E+00 -0.00000000000E+00 -0.11061051089E+03  0.11061051100E+03  0.50400000000E-02 0.  1.
    5000001    1    1    2    0    0 -0.18730345433E+03 -0.16274604321E+03  0.33879547565E+03  0.45119422969E+03  0.16500000000E+03 0.  0.
   -5000001    1    1    2    0    0  0.18730345433E+03  0.16274604321E+03  0.35356537827E+03  0.46238764614E+03  0.16500000000E+03 0.  0.
<mgrwt>
<rscale>  0 0.59604387E+03</rscale>
<asrwt>0</asrwt>
<pdfrwt beam="1">  1        1 0.12353406E+00 0.59604387E+03</pdfrwt>
<pdfrwt beam="2">  1       -1 0.17017001E-01 0.59604387E+03</pdfrwt>
<totfact> 0.59446882E+02</totfact>
</mgrwt>
</event>
<event>
 4    1  0.2309632E-005  0.3577471E+03  0.7818608E-02  0.1059479E+00
          1   -1    0    0  501    0  0.00000000000E+00  0.00000000000E+00  0.80518117646E+02  0.80518117804E+02  0.50400000000E-02 0.  1.
         -1   -1    0    0    0  501 -0.00000000000E+00 -0.00000000000E+00 -0.39737323604E+03  0.39737323608E+03  0.50400000000E-02 0. -1.
    5000001    1    1    2    0    0  0.34073432784E+02  0.59813413022E+02 -0.16599619942E+03  0.24396389368E+03  0.16500000000E+03 0.  0.
   -5000001    1    1    2    0    0 -0.34073432784E+02 -0.59813413022E+02 -0.15085891898E+03  0.23392746020E+03  0.16500000000E+03 0.  0.
<mgrwt>
<rscale>  0 0.35774709E+03</rscale>
<asrwt>0</asrwt>
<pdfrwt beam="1">  1        1 0.12387403E-01 0.35774709E+03</pdfrwt>
<pdfrwt beam="2">  1       -1 0.61134343E-01 0.35774709E+03</pdfrwt>
<totfact> 0.13523978E+03</totfact>
</mgrwt>
</event>
<event>
 4    1  0.2309632E-005  0.8944379E+03  0.7818608E-02  0.9432561E-01
          1   -1    0    0  501    0  0.00000000000E+00  0.00000000000E+00  0.18421650294E+04  0.18421650294E+04  0.50400000000E-02 0.  1.
         -1   -1    0    0    0  501 -0.00000000000E+00 -0.00000000000E+00 -0.10857050693E+03  0.10857050705E+03  0.50400000000E-02 0. -1.
    5000001    1    1    2    0    0  0.30915367860E+03 -0.19626768548E+03  0.43784684417E+03  0.59416484270E+03  0.16500000000E+03 0.  0.
   -5000001    1    1    2    0    0 -0.30915367860E+03  0.19626768548E+03  0.12957476783E+04  0.13565706938E+04  0.16500000000E+03 0.  0.
<mgrwt>
<rscale>  0 0.89443790E+03</rscale>
<asrwt>0</asrwt>
<pdfrwt beam="1">  1        1 0.28340999E+00 0.89443790E+03</pdfrwt>
<pdfrwt beam="2">  1       -1 0.16703156E-01 0.89443790E+03</pdfrwt>
<totfact> 0.10666072E+02</totfact>
</mgrwt>
</event>
<event>
 4    1  0.2309632E-005  0.3623338E+03  0.7818608E-02  0.1057664E+00
         -1   -1    0    0    0  501 -0.00000000000E+00  0.00000000000E+00  0.44988120591E+03  0.44988120594E+03  0.50400000000E-02 0.  1.
          1   -1    0    0  501    0  0.00000000000E+00 -0.00000000000E+00 -0.72955787609E+02  0.72955787783E+02  0.50400000000E-02 0. -1.
    5000001    1    1    2    0    0  0.39216213630E+02  0.30129238316E+02  0.10746647012E+03  0.20302641358E+03  0.16500000000E+03 0.  0.
   -5000001    1    1    2    0    0 -0.39216213630E+02 -0.30129238316E+02  0.26945894819E+03  0.31981058014E+03  0.16500000000E+03 0.  0.
<mgrwt>
<rscale>  0 0.36233376E+03</rscale>
<asrwt>0</asrwt>
<pdfrwt beam="1">  1        1 0.11223967E-01 0.36233376E+03</pdfrwt>
<pdfrwt beam="2">  1       -1 0.69212493E-01 0.36233376E+03</pdfrwt>
<totfact> 0.12082593E+03</totfact>
</mgrwt>
</event>
<event>
 4    1  0.2309632E-005  0.7832949E+03  0.7818608E-02  0.9584517E-01
          1   -1    0    0  501    0  0.00000000000E+00  0.00000000000E+00  0.69492750391E+03  0.69492750393E+03  0.50400000000E-02 0.  1.
         -1   -1    0    0    0  501 -0.00000000000E+00 -0.00000000000E+00 -0.22072477557E+03  0.22072477562E+03  0.50400000000E-02 0. -1.
    5000001    1    1    2    0    0  0.25998159328E+03 -0.20286144136E+03  0.82816459546E+02  0.37792427708E+03  0.16500000000E+03 0.  0.
   -5000001    1    1    2    0    0 -0.25998159328E+03  0.20286144136E+03  0.39138626880E+03  0.53772800247E+03  0.16500000000E+03 0.  0.
<mgrwt>
<rscale>  0 0.78329488E+03</rscale>
<asrwt>0</asrwt>
<pdfrwt beam="1">  1        1 0.10691192E+00 0.78329488E+03</pdfrwt>
<pdfrwt beam="2">  1       -1 0.33957659E-01 0.78329488E+03</pdfrwt>
<totfact> 0.22801691E+02</totfact>
</mgrwt>
</event>
<event>
 4    1  0.2309632E-005  0.3923592E+03  0.7818608E-02  0.1046458E+00
         -1   -1    0    0    0  501 -0.00000000000E+00  0.00000000000E+00  0.29665241180E+02  0.29665241609E+02  0.50400000000E-02 0. -1.
          1   -1    0    0  501    0  0.00000000000E+00 -0.00000000000E+00 -0.12973577227E+04  0.12973577228E+04  0.50400000000E-02 0.  1.
    5000001    1    1    2    0    0  0.51679277981E+02  0.64023646304E+02 -0.86051821284E+03  0.88004907232E+03  0.16500000000E+03 0.  0.
   -5000001    1    1    2    0    0 -0.51679277981E+02 -0.64023646304E+02 -0.40717426873E+03  0.44697389205E+03  0.16500000000E+03 0.  0.
<mgrwt>
<rscale>  0 0.39235917E+03</rscale>
<asrwt>0</asrwt>
<pdfrwt beam="1">  1        1 0.19959345E+00 0.39235917E+03</pdfrwt>
<pdfrwt beam="2">  1       -1 0.45638843E-02 0.39235917E+03</pdfrwt>
<totfact> 0.19769432E+03</totfact>
</mgrwt>
</event>
<event>
 4    1  0.2309632E-005  0.5727076E+03  0.7818608E-02  0.9963705E-01
         -1   -1    0    0    0  501 -0.00000000000E+00  0.00000000000E+00  0.24358680345E+03  0.24358680350E+03  0.50400000000E-02 0.  1.
          1   -1    0    0  501    0  0.00000000000E+00 -0.00000000000E+00 -0.33662947538E+03  0.33662947541E+03  0.50400000000E-02 0. -1.
    5000001    1    1    2    0    0  0.15552606708E+03 -0.16799549111E+03  0.27230978204E+01  0.28221137085E+03  0.16500000000E+03 0.  0.
   -5000001    1    1    2    0    0 -0.15552606708E+03  0.16799549111E+03 -0.95765769745E+02  0.29800490806E+03  0.16500000000E+03 0.  0.
<mgrwt>
<rscale>  0 0.57270760E+03</rscale>
<asrwt>0</asrwt>
<pdfrwt beam="1">  1        1 0.51789150E-01 0.57270760E+03</pdfrwt>
<pdfrwt beam="2">  1       -1 0.37474893E-01 0.57270760E+03</pdfrwt>
<totfact> 0.52266328E+02</totfact>
</mgrwt>
</event>
<event>
 4    1  0.2309632E-005  0.4703569E+03  0.7818608E-02  0.1021820E+00
         -1   -1    0    0    0  501 -0.00000000000E+00  0.00000000000E+00  0.54978132643E+02  0.54978132874E+02  0.50400000000E-02 0. -1.
          1   -1    0    0  501    0  0.00000000000E+00 -0.00000000000E+00 -0.10060162546E+04  0.10060162546E+04  0.50400000000E-02 0.  1.
    5000001    1    1    2    0    0 -0.15155260831E+02  0.13932256309E+03 -0.68279325013E+03  0.71629050039E+03  0.16500000000E+03 0.  0.
   -5000001    1    1    2    0    0  0.15155260831E+02 -0.13932256309E+03 -0.26824487179E+03  0.34470388706E+03  0.16500000000E+03 0.  0.
<mgrwt>
<rscale>  0 0.47035687E+03</rscale>
<asrwt>0</asrwt>
<pdfrwt beam="1">  1        1 0.15477172E+00 0.47035687E+03</pdfrwt>
<pdfrwt beam="2">  1       -1 0.84581750E-02 0.47035687E+03</pdfrwt>
<totfact> 0.12465089E+03</totfact>
</mgrwt>
</event>
<event>
 4    1  0.2309632E-005  0.4234069E+03  0.7818608E-02  0.1035963E+00
         -1   -1    0    0    0  501 -0.00000000000E+00  0.00000000000E+00  0.26449435030E+03  0.26449435035E+03  0.50400000000E-02 0. -1.
          1   -1    0    0  501    0  0.00000000000E+00 -0.00000000000E+00 -0.16944915895E+03  0.16944915902E+03  0.50400000000E-02 0.  1.
    5000001    1    1    2    0    0  0.82582286173E+02 -0.87859777203E+02 -0.91172357591E+01  0.20456612238E+03  0.16500000000E+03 0.  0.
   -5000001    1    1    2    0    0 -0.82582286173E+02  0.87859777203E+02  0.10416242711E+03  0.22937738699E+03  0.16500000000E+03 0.  0.
<mgrwt>
<rscale>  0 0.42340687E+03</rscale>
<asrwt>0</asrwt>
<pdfrwt beam="1">  1        1 0.26069101E-01 0.42340687E+03</pdfrwt>
<pdfrwt beam="2">  1       -1 0.40691439E-01 0.42340687E+03</pdfrwt>
<totfact> 0.10904153E+03</totfact>
</mgrwt>
</event>
<event>
 4    1  0.2309632E-005  0.5519453E+03  0.7818608E-02  0.1001045E+00
         -1   -1    0    0    0  501 -0.00000000000E+00  0.00000000000E+00  0.26078882675E+03  0.26078882679E+03  0.50400000000E-02 0.  1.
          1   -1    0    0  501    0  0.00000000000E+00 -0.00000000000E+00 -0.29204047055E+03  0.29204047060E+03  0.50400000000E-02 0. -1.
    5000001    1    1    2    0    0 -0.15934050765E+03 -0.58015637181E+02  0.12666043172E+03  0.26837115437E+03  0.16500000000E+03 0.  0.
   -5000001    1    1    2    0    0  0.15934050765E+03  0.58015637181E+02 -0.15791207553E+03  0.28445814302E+03  0.16500000000E+03 0.  0.
<mgrwt>
<rscale>  0 0.55194526E+03</rscale>
<asrwt>0</asrwt>
<pdfrwt beam="1">  1        1 0.44929303E-01 0.55194526E+03</pdfrwt>
<pdfrwt beam="2">  1       -1 0.40121358E-01 0.55194526E+03</pdfrwt>
<totfact> 0.55562457E+02</totfact>
</mgrwt>
</event>
<event>
 4    1  0.2309632E-005  0.4700262E+03  0.7818608E-02  0.1021913E+00
         -1   -1    0    0    0  501 -0.00000000000E+00  0.00000000000E+00  0.69378158354E+02  0.69378158537E+02  0.50400000000E-02 0. -1.
          1   -1    0    0  501    0  0.00000000000E+00 -0.00000000000E+00 -0.79608844861E+03  0.79608844863E+03  0.50400000000E-02 0.  1.
    5000001    1    1    2    0    0  0.48599501695E+02  0.15974098952E+03 -0.34260005777E+03  0.41530578479E+03  0.16500000000E+03 0.  0.
   -5000001    1    1    2    0    0 -0.48599501695E+02 -0.15974098952E+03 -0.38411023249E+03  0.45016082237E+03  0.16500000000E+03 0.  0.
<mgrwt>
<rscale>  0 0.47002617E+03</rscale>
<asrwt>0</asrwt>
<pdfrwt beam="1">  1        1 0.12247514E+00 0.47002617E+03</pdfrwt>
<pdfrwt beam="2">  1       -1 0.10673563E-01 0.47002617E+03</pdfrwt>
<totfact> 0.12775633E+03</totfact>
</mgrwt>
</event>
<event>
 4    1  0.2309632E-005  0.4593355E+03  0.7818608E-02  0.1024974E+00
         -1   -1    0    0    0  501 -0.00000000000E+00  0.00000000000E+00  0.30553420978E+03  0.30553420982E+03  0.50400000000E-02 0. -1.
          1   -1    0    0  501    0  0.00000000000E+00 -0.00000000000E+00 -0.17263947020E+03  0.17263947027E+03  0.50400000000E-02 0.  1.
    5000001    1    1    2    0    0 -0.15631982693E+03  0.68504394646E+01  0.10001007395E+03  0.24841463665E+03  0.16500000000E+03 0.  0.
   -5000001    1    1    2    0    0  0.15631982693E+03 -0.68504394646E+01  0.32884665635E+02  0.22975904345E+03  0.16500000000E+03 0.  0.
<mgrwt>
<rscale>  0 0.45933545E+03</rscale>
<asrwt>0</asrwt>
<pdfrwt beam="1">  1        1 0.26559918E-01 0.45933545E+03</pdfrwt>
<pdfrwt beam="2">  1       -1 0.47005263E-01 0.45933545E+03</pdfrwt>
<totfact> 0.81790082E+02</totfact>
</mgrwt>
</event>
<event>
 4    1  0.2309632E-005  0.4115244E+03  0.7818608E-02  0.1039861E+00
         -1   -1    0    0    0  501 -0.00000000000E+00  0.00000000000E+00  0.33593003517E+03  0.33593003520E+03  0.50400000000E-02 0. -1.
          1   -1    0    0  501    0  0.00000000000E+00 -0.00000000000E+00 -0.12603243353E+03  0.12603243363E+03  0.50400000000E-02 0.  1.
    5000001    1    1    2    0    0 -0.82045645911E+02 -0.79051021954E+02  0.15678802189E+03  0.25453494041E+03  0.16500000000E+03 0.  0.
   -5000001    1    1    2    0    0  0.82045645911E+02  0.79051021954E+02  0.53109579752E+02  0.20742752842E+03  0.16500000000E+03 0.  0.
<mgrwt>
<rscale>  0 0.41152438E+03</rscale>
<asrwt>0</asrwt>
<pdfrwt beam="1">  1        1 0.19389606E-01 0.41152438E+03</pdfrwt>
<pdfrwt beam="2">  1       -1 0.51681543E-01 0.41152438E+03</pdfrwt>
<totfact> 0.10312432E+03</totfact>
</mgrwt>
</event>
<event>
 4    1  0.2309632E-005  0.6239481E+03  0.7818608E-02  0.9856930E-01
          1   -1    0    0  501    0  0.00000000000E+00  0.00000000000E+00  0.47361028529E+03  0.47361028532E+03  0.50400000000E-02 0.  1.
         -1   -1    0    0    0  501 -0.00000000000E+00 -0.00000000000E+00 -0.20550188107E+03  0.20550188113E+03  0.50400000000E-02 0. -1.
    5000001    1    1    2    0    0  0.19388898282E+03  0.17937378057E+03  0.15397283514E+03  0.34741981057E+03  0.16500000000E+03 0.  0.
   -5000001    1    1    2    0    0 -0.19388898282E+03 -0.17937378057E+03  0.11413556908E+03  0.33169235587E+03  0.16500000000E+03 0.  0.
<mgrwt>
<rscale>  0 0.62394809E+03</rscale>
<asrwt>0</asrwt>
<pdfrwt beam="1">  1        1 0.72863120E-01 0.62394809E+03</pdfrwt>
<pdfrwt beam="2">  1       -1 0.31615674E-01 0.62394809E+03</pdfrwt>
<totfact> 0.44920520E+02</totfact>
</mgrwt>
</event>
<event>
 4    1  0.2309632E-005  0.4322010E+03  0.7818608E-02  0.1033167E+00
          1   -1    0    0  501    0  0.00000000000E+00  0.00000000000E+00  0.12383772563E+04  0.12383772563E+04  0.50400000000E-02 0. -1.
         -1   -1    0    0    0  501 -0.00000000000E+00 -0.00000000000E+00 -0.37710173233E+02  0.37710173570E+02  0.50400000000E-02 0.  1.
    5000001    1    1    2    0    0  0.11097871412E+03  0.51146419952E+01  0.84967812809E+03  0.87265133696E+03  0.16500000000E+03 0.  0.
   -5000001    1    1    2    0    0 -0.11097871412E+03 -0.51146419952E+01  0.35098895498E+03  0.40343609292E+03  0.16500000000E+03 0.  0.
<mgrwt>
<rscale>  0 0.43220098E+03</rscale>
<asrwt>0</asrwt>
<pdfrwt beam="1">  1        1 0.19051956E+00 0.43220098E+03</pdfrwt>
<pdfrwt beam="2">  1       -1 0.58015656E-02 0.43220098E+03</pdfrwt>
<totfact> 0.15087262E+03</totfact>
</mgrwt>
</event>
<event>
 4    1  0.2309632E-005  0.4707232E+03  0.7818608E-02  0.1021716E+00
         -1   -1    0    0    0  501 -0.00000000000E+00  0.00000000000E+00  0.16813131673E+03  0.16813131681E+03  0.50400000000E-02 0. -1.
          1   -1    0    0  501    0  0.00000000000E+00 -0.00000000000E+00 -0.32947504516E+03  0.32947504520E+03  0.50400000000E-02 0.  1.
    5000001    1    1    2    0    0  0.14464642195E+03  0.84522602983E+02 -0.91421975830E+02  0.25228879377E+03  0.16500000000E+03 0.  0.
   -5000001    1    1    2    0    0 -0.14464642195E+03 -0.84522602983E+02 -0.69921752598E+02  0.24531756823E+03  0.16500000000E+03 0.  0.
<mgrwt>
<rscale>  0 0.47072316E+03</rscale>
<asrwt>0</asrwt>
<pdfrwt beam="1">  1        1 0.50688469E-01 0.47072316E+03</pdfrwt>
<pdfrwt beam="2">  1       -1 0.25866356E-01 0.47072316E+03</pdfrwt>
<totfact> 0.10259367E+03</totfact>
</mgrwt>
</event>
<event>
 4    1  0.2309632E-005  0.4997908E+03  0.7818608E-02  0.1013834E+00
          1   -1    0    0  501    0  0.00000000000E+00  0.00000000000E+00  0.28420195821E+04  0.28420195821E+04  0.50400000000E-02 0. -1.
         -1   -1    0    0    0  501 -0.00000000000E+00 -0.00000000000E+00 -0.21973004662E+02  0.21973005240E+02  0.50400000000E-02 0.  1.
    5000001    1    1    2    0    0 -0.11260706764E+03 -0.14409624108E+03  0.16516954818E+04  0.16699601921E+04  0.16500000000E+03 0.  0.
   -5000001    1    1    2    0    0  0.11260706764E+03  0.14409624108E+03  0.11683510956E+04  0.11940323953E+04  0.16500000000E+03 0.  0.
<mgrwt>
<rscale>  0 0.49979080E+03</rscale>
<asrwt>0</asrwt>
<pdfrwt beam="1">  1        1 0.43723363E+00 0.49979080E+03</pdfrwt>
<pdfrwt beam="2">  1       -1 0.33804634E-02 0.49979080E+03</pdfrwt>
<totfact> 0.28345931E+02</totfact>
</mgrwt>
</event>
<event>
 4    1  0.2309632E-005  0.5476354E+03  0.7818608E-02  0.1002043E+00
         -1   -1    0    0    0  501 -0.00000000000E+00  0.00000000000E+00  0.38799175570E+02  0.38799175897E+02  0.50400000000E-02 0. -1.
          1   -1    0    0  501    0  0.00000000000E+00 -0.00000000000E+00 -0.19324155043E+04  0.19324155043E+04  0.50400000000E-02 0.  1.
    5000001    1    1    2    0    0  0.26696832869E+02 -0.21674033989E+03 -0.97515819859E+03  0.10128413539E+04  0.16500000000E+03 0.  0.
   -5000001    1    1    2    0    0 -0.26696832869E+02  0.21674033989E+03 -0.91845813014E+03  0.95837332634E+03  0.16500000000E+03 0.  0.
<mgrwt>
<rscale>  0 0.54763539E+03</rscale>
<asrwt>0</asrwt>
<pdfrwt beam="1">  1        1 0.29729462E+00 0.54763539E+03</pdfrwt>
<pdfrwt beam="2">  1       -1 0.59691055E-02 0.54763539E+03</pdfrwt>
<totfact> 0.48811671E+02</totfact>
</mgrwt>
</event>
<event>
 4    1  0.2309632E-005  0.4797078E+03  0.7818608E-02  0.1019216E+00
         -1   -1    0    0    0  501 -0.00000000000E+00  0.00000000000E+00  0.50594781813E+02  0.50594782064E+02  0.50400000000E-02 0.  1.
          1   -1    0    0  501    0  0.00000000000E+00 -0.00000000000E+00 -0.11370716798E+04  0.11370716798E+04  0.50400000000E-02 0. -1.
    5000001    1    1    2    0    0  0.70013146945E+02  0.12426245578E+03 -0.79034752227E+03  0.81988853183E+03  0.16500000000E+03 0.  0.
   -5000001    1    1    2    0    0 -0.70013146945E+02 -0.12426245578E+03 -0.29612937568E+03  0.36777793001E+03  0.16500000000E+03 0.  0.
<mgrwt>
<rscale>  0 0.47970780E+03</rscale>
<asrwt>0</asrwt>
<pdfrwt beam="1">  1        1 0.17493409E+00 0.47970780E+03</pdfrwt>
<pdfrwt beam="2">  1       -1 0.77838135E-02 0.47970780E+03</pdfrwt>
<totfact> 0.11327923E+03</totfact>
</mgrwt>
</event>
<event>
 4    1  0.2309632E-005  0.5346154E+03  0.7818608E-02  0.1005119E+00
          1   -1    0    0  501    0  0.00000000000E+00  0.00000000000E+00  0.12726599772E+04  0.12726599773E+04  0.50400000000E-02 0.  1.
         -1   -1    0    0    0  501 -0.00000000000E+00 -0.00000000000E+00 -0.56144923565E+02  0.56144923791E+02  0.50400000000E-02 0. -1.
    5000001    1    1    2    0    0 -0.13027220172E+03 -0.15639521951E+03  0.73973468845E+03  0.78476921482E+03  0.16500000000E+03 0.  0.
   -5000001    1    1    2    0    0  0.13027220172E+03  0.15639521951E+03  0.47678036523E+03  0.54403568623E+03  0.16500000000E+03 0.  0.
<mgrwt>
<rscale>  0 0.53461537E+03</rscale>
<asrwt>0</asrwt>
<pdfrwt beam="1">  1        1 0.19579386E+00 0.53461537E+03</pdfrwt>
<pdfrwt beam="2">  1       -1 0.86376799E-02 0.53461537E+03</pdfrwt>
<totfact> 0.76898849E+02</totfact>
</mgrwt>
</event>
<event>
 4    1  0.2309632E-005  0.6840139E+03  0.7818608E-02  0.9744968E-01
         -1   -1    0    0    0  501 -0.00000000000E+00  0.00000000000E+00  0.11290412424E+03  0.11290412436E+03  0.50400000000E-02 0.  1.
          1   -1    0    0  501    0  0.00000000000E+00 -0.00000000000E+00 -0.10360007927E+04  0.10360007927E+04  0.50400000000E-02 0. -1.
    5000001    1    1    2    0    0  0.61315864994E+02  0.22599609051E+03 -0.14771909017E+03  0.32230389049E+03  0.16500000000E+03 0.  0.
   -5000001    1    1    2    0    0 -0.61315864994E+02 -0.22599609051E+03 -0.77537757828E+03  0.82660102657E+03  0.16500000000E+03 0.  0.
<mgrwt>
<rscale>  0 0.68401392E+03</rscale>
<asrwt>0</asrwt>
<pdfrwt beam="1">  1        1 0.15938473E+00 0.68401392E+03</pdfrwt>
<pdfrwt beam="2">  1       -1 0.17369866E-01 0.68401392E+03</pdfrwt>
<totfact> 0.37178785E+02</totfact>
</mgrwt>
</event>
<event>
 4    1  0.2309632E-005  0.6094478E+03  0.7818608E-02  0.9885996E-01
          1   -1    0    0  501    0  0.00000000000E+00  0.00000000000E+00  0.12242287860E+04  0.12242287860E+04  0.50400000000E-02 0.  1.
         -1   -1    0    0    0  501 -0.00000000000E+00 -0.00000000000E+00 -0.75849107196E+02  0.75849107364E+02  0.50400000000E-02 0. -1.
    5000001    1    1    2    0    0  0.85692335372E+02  0.22367042260E+03  0.38031405798E+03  0.47878535586E+03  0.16500000000E+03 0.  0.
   -5000001    1    1    2    0    0 -0.85692335372E+02 -0.22367042260E+03  0.76806562078E+03  0.82129253747E+03  0.16500000000E+03 0.  0.
<mgrwt>
<rscale>  0 0.60944782E+03</rscale>
<asrwt>0</asrwt>
<pdfrwt beam="1">  1        1 0.18834289E+00 0.60944782E+03</pdfrwt>
<pdfrwt beam="2">  1       -1 0.11669093E-01 0.60944782E+03</pdfrwt>
<totfact> 0.51599141E+02</totfact>
</mgrwt>
</event>
<event>
 4    1  0.2309632E-005  0.4562328E+03  0.7818608E-02  0.1025879E+00
         -1   -1    0    0    0  501 -0.00000000000E+00  0.00000000000E+00  0.68448226466E+02  0.68448226652E+02  0.50400000000E-02 0. -1.
          1   -1    0    0  501    0  0.00000000000E+00 -0.00000000000E+00 -0.76024027927E+03  0.76024027929E+03  0.50400000000E-02 0.  1.
    5000001    1    1    2    0    0  0.10420984120E+03  0.11019648439E+03 -0.42315362324E+03  0.47883916406E+03  0.16500000000E+03 0.  0.
   -5000001    1    1    2    0    0 -0.10420984120E+03 -0.11019648439E+03 -0.26863842957E+03  0.34984934188E+03  0.16500000000E+03 0.  0.
<mgrwt>
<rscale>  0 0.45623283E+03</rscale>
<asrwt>0</asrwt>
<pdfrwt beam="1">  1        1 0.11696004E+00 0.45623283E+03</pdfrwt>
<pdfrwt beam="2">  1       -1 0.10530497E-01 0.45623283E+03</pdfrwt>
<totfact> 0.14019935E+03</totfact>
</mgrwt>
</event>
<event>
 4    1  0.2309632E-005  0.4210423E+03  0.7818608E-02  0.1036728E+00
         -1   -1    0    0    0  501 -0.00000000000E+00  0.00000000000E+00  0.12458270021E+03  0.12458270032E+03  0.50400000000E-02 0. -1.
          1   -1    0    0  501    0  0.00000000000E+00 -0.00000000000E+00 -0.35574079369E+03  0.35574079373E+03  0.50400000000E-02 0.  1.
    5000001    1    1    2    0    0  0.11667762681E+03 -0.54264929474E+02 -0.89172690468E+02  0.22745355547E+03  0.16500000000E+03 0.  0.
   -5000001    1    1    2    0    0 -0.11667762681E+03  0.54264929474E+02 -0.14198540301E+03  0.25286993858E+03  0.16500000000E+03 0.  0.
<mgrwt>
<rscale>  0 0.42104227E+03</rscale>
<asrwt>0</asrwt>
<pdfrwt beam="1">  1        1 0.54729352E-01 0.42104227E+03</pdfrwt>
<pdfrwt beam="2">  1       -1 0.19166569E-01 0.42104227E+03</pdfrwt>
<totfact> 0.15310825E+03</totfact>
</mgrwt>
</event>
<event>
 4    1  0.2309632E-005  0.5742222E+03  0.7818608E-02  0.9960379E-01
         -1   -1    0    0    0  501 -0.00000000000E+00  0.00000000000E+00  0.12619548478E+03  0.12619548488E+03  0.50400000000E-02 0.  1.
          1   -1    0    0  501    0  0.00000000000E+00 -0.00000000000E+00 -0.65321502320E+03  0.65321502322E+03  0.50400000000E-02 0. -1.
    5000001    1    1    2    0    0  0.21072471493E+03  0.90603826378E+02 -0.33263822173E+03  0.43644833073E+03  0.16500000000E+03 0.  0.
   -5000001    1    1    2    0    0 -0.21072471493E+03 -0.90603826378E+02 -0.19438131669E+03  0.34296217738E+03  0.16500000000E+03 0.  0.
<mgrwt>
<rscale>  0 0.57422221E+03</rscale>
<asrwt>0</asrwt>
<pdfrwt beam="1">  1        1 0.10049462E+00 0.57422221E+03</pdfrwt>
<pdfrwt beam="2">  1       -1 0.19414690E-01 0.57422221E+03</pdfrwt>
<totfact> 0.65578191E+02</totfact>
</mgrwt>
</event>
<event>
 4    1  0.2309632E-005  0.4480917E+03  0.7818608E-02  0.1028293E+00
         -1   -1    0    0    0  501 -0.00000000000E+00  0.00000000000E+00  0.36766123566E+03  0.36766123569E+03  0.50400000000E-02 0. -1.
          1   -1    0    0  501    0  0.00000000000E+00 -0.00000000000E+00 -0.13652934221E+03  0.13652934230E+03  0.50400000000E-02 0.  1.
    5000001    1    1    2    0    0 -0.58347490430E+02 -0.12917794963E+03  0.17595207721E+03  0.27977760058E+03  0.16500000000E+03 0.  0.
   -5000001    1    1    2    0    0  0.58347490430E+02  0.12917794963E+03  0.55179816240E+02  0.22441297741E+03  0.16500000000E+03 0.  0.
<mgrwt>
<rscale>  0 0.44809172E+03</rscale>
<asrwt>0</asrwt>
<pdfrwt beam="1">  1        1 0.21004514E-01 0.44809172E+03</pdfrwt>
<pdfrwt beam="2">  1       -1 0.56563267E-01 0.44809172E+03</pdfrwt>
<totfact> 0.78232012E+02</totfact>
</mgrwt>
</event>
<event>
 4    1  0.2309632E-005  0.4792924E+03  0.7818608E-02  0.1019330E+00
          1   -1    0    0  501    0  0.00000000000E+00  0.00000000000E+00  0.67828911330E+03  0.67828911332E+03  0.50400000000E-02 0. -1.
         -1   -1    0    0    0  501 -0.00000000000E+00 -0.00000000000E+00 -0.84669361683E+02  0.84669361833E+02  0.50400000000E-02 0.  1.
    5000001    1    1    2    0    0 -0.10844725111E+03  0.10299865461E+03  0.43771973440E+03  0.49111413644E+03  0.16500000000E+03 0.  0.
   -5000001    1    1    2    0    0  0.10844725111E+03 -0.10299865461E+03  0.15590001722E+03  0.27184433872E+03  0.16500000000E+03 0.  0.
<mgrwt>
<rscale>  0 0.47929242E+03</rscale>
<asrwt>0</asrwt>
<pdfrwt beam="1">  1        1 0.10435217E+00 0.47929242E+03</pdfrwt>
<pdfrwt beam="2">  1       -1 0.13026056E-01 0.47929242E+03</pdfrwt>
<totfact> 0.11882106E+03</totfact>
</mgrwt>
</event>
<event>
 4    1  0.2309632E-005  0.5271597E+03  0.7818608E-02  0.1006923E+00
         -1   -1    0    0    0  501 -0.00000000000E+00  0.00000000000E+00  0.21846214514E+03  0.21846214520E+03  0.50400000000E-02 0. -1.
          1   -1    0    0  501    0  0.00000000000E+00 -0.00000000000E+00 -0.31801548498E+03  0.31801548502E+03  0.50400000000E-02 0.  1.
    5000001    1    1    2    0    0  0.19867784527E+03  0.47279739547E+02 -0.73449063576E+02  0.27263166528E+03  0.16500000000E+03 0.  0.
   -5000001    1    1    2    0    0 -0.19867784527E+03 -0.47279739547E+02 -0.26104276263E+02  0.26384596493E+03  0.16500000000E+03 0.  0.
<mgrwt>
<rscale>  0 0.52715973E+03</rscale>
<asrwt>0</asrwt>
<pdfrwt beam="1">  1        1 0.48925459E-01 0.52715973E+03</pdfrwt>
<pdfrwt beam="2">  1       -1 0.33609561E-01 0.52715973E+03</pdfrwt>
<totfact> 0.68302407E+02</totfact>
</mgrwt>
</event>
<event>
 4    1  0.2309632E-005  0.4143049E+03  0.7818608E-02  0.1038936E+00
         -1   -1    0    0    0  501 -0.00000000000E+00  0.00000000000E+00  0.10596682838E+03  0.10596682850E+03  0.50400000000E-02 0. -1.
          1   -1    0    0  501    0  0.00000000000E+00 -0.00000000000E+00 -0.40495824814E+03  0.40495824818E+03  0.50400000000E-02 0.  1.
    5000001    1    1    2    0    0 -0.10171447148E+03  0.27074624561E+02 -0.23321127113E+03  0.30445256771E+03  0.16500000000E+03 0.  0.
   -5000001    1    1    2    0    0  0.10171447148E+03 -0.27074624561E+02 -0.65780148637E+02  0.20647250896E+03  0.16500000000E+03 0.  0.
<mgrwt>
<rscale>  0 0.41430492E+03</rscale>
<asrwt>0</asrwt>
<pdfrwt beam="1">  1        1 0.62301268E-01 0.41430492E+03</pdfrwt>
<pdfrwt beam="2">  1       -1 0.16302589E-01 0.41430492E+03</pdfrwt>
<totfact> 0.16841037E+03</totfact>
</mgrwt>
</event>
<event>
 4    1  0.2309632E-005  0.1261363E+04  0.7818608E-02  0.9060778E-01
          1   -1    0    0  501    0  0.00000000000E+00  0.00000000000E+00  0.75506732587E+03  0.75506732589E+03  0.50400000000E-02 0.  1.
         -1   -1    0    0    0  501 -0.00000000000E+00 -0.00000000000E+00 -0.52678652052E+03  0.52678652054E+03  0.50400000000E-02 0. -1.
    5000001    1    1    2    0    0 -0.52049743091E+03 -0.31009124238E+03  0.17391888489E+03  0.65157266111E+03  0.16500000000E+03 0.  0.
   -5000001    1    1    2    0    0  0.52049743091E+03  0.31009124238E+03  0.54361920458E+02  0.63028118532E+03  0.16500000000E+03 0.  0.
<mgrwt>
<rscale>  0 0.12613632E+04</rscale>
<asrwt>0</asrwt>
<pdfrwt beam="1">  1        1 0.11616420E+00 0.12613632E+04</pdfrwt>
<pdfrwt beam="2">  1       -1 0.81044080E-01 0.12613632E+04</pdfrwt>
<totfact> 0.36248971E+01</totfact>
</mgrwt>
</event>
<event>
 4    1  0.2309632E-005  0.4773346E+03  0.7818608E-02  0.1019870E+00
         -1   -1    0    0    0  501 -0.00000000000E+00  0.00000000000E+00  0.33960298688E+02  0.33960299062E+02  0.50400000000E-02 0. -1.
          1   -1    0    0  501    0  0.00000000000E+00 -0.00000000000E+00 -0.16773136091E+04  0.16773136091E+04  0.50400000000E-02 0.  1.
    5000001    1    1    2    0    0 -0.10573617934E+03  0.10486907374E+03 -0.50997394797E+03  0.55630575213E+03  0.16500000000E+03 0.  0.
   -5000001    1    1    2    0    0  0.10573617934E+03 -0.10486907374E+03 -0.11333793624E+04  0.11549681560E+04  0.16500000000E+03 0.  0.
<mgrwt>
<rscale>  0 0.47733456E+03</rscale>
<asrwt>0</asrwt>
<pdfrwt beam="1">  1        1 0.25804818E+00 0.47733456E+03</pdfrwt>
<pdfrwt beam="2">  1       -1 0.52246627E-02 0.47733456E+03</pdfrwt>
<totfact> 0.88804466E+02</totfact>
</mgrwt>
</event>
<event>
 4    1  0.2309632E-005  0.3755335E+03  0.7818608E-02  0.1052597E+00
         -1   -1    0    0    0  501 -0.00000000000E+00  0.00000000000E+00  0.28149641805E+02  0.28149642256E+02  0.50400000000E-02 0. -1.
          1   -1    0    0  501    0  0.00000000000E+00 -0.00000000000E+00 -0.12524621476E+04  0.12524621476E+04  0.50400000000E-02 0.  1.
    5000001    1    1    2    0    0  0.26685033316E+02  0.71615512844E+02 -0.77175858766E+03  0.79289166367E+03  0.16500000000E+03 0.  0.
   -5000001    1    1    2    0    0 -0.26685033316E+02 -0.71615512844E+02 -0.45255391814E+03  0.48772012621E+03  0.16500000000E+03 0.  0.
<mgrwt>
<rscale>  0 0.37553355E+03</rscale>
<asrwt>0</asrwt>
<pdfrwt beam="1">  1        1 0.19268644E+00 0.37553355E+03</pdfrwt>
<pdfrwt beam="2">  1       -1 0.43307151E-02 0.37553355E+03</pdfrwt>
<totfact> 0.22997847E+03</totfact>
</mgrwt>
</event>
<event>
 4    1  0.2309632E-005  0.3770542E+03  0.7818608E-02  0.1052028E+00
         -1   -1    0    0    0  501 -0.00000000000E+00  0.00000000000E+00  0.43693566534E+02  0.43693566824E+02  0.50400000000E-02 0. -1.
          1   -1    0    0  501    0  0.00000000000E+00 -0.00000000000E+00 -0.81344870663E+03  0.81344870665E+03  0.50400000000E-02 0.  1.
    5000001    1    1    2    0    0  0.13832004743E+02 -0.73703339478E+02 -0.26688752760E+03  0.32261038265E+03  0.16500000000E+03 0.  0.
   -5000001    1    1    2    0    0 -0.13832004743E+02  0.73703339478E+02 -0.50286761250E+03  0.53453189082E+03  0.16500000000E+03 0.  0.
<mgrwt>
<rscale>  0 0.37705424E+03</rscale>
<asrwt>0</asrwt>
<pdfrwt beam="1">  1        1 0.12514594E+00 0.37705424E+03</pdfrwt>
<pdfrwt beam="2">  1       -1 0.67220878E-02 0.37705424E+03</pdfrwt>
<totfact> 0.25309150E+03</totfact>
</mgrwt>
</event>
<event>
 4    1  0.2309632E-005  0.5431432E+03  0.7818608E-02  0.1003094E+00
         -1   -1    0    0    0  501 -0.00000000000E+00  0.00000000000E+00  0.46024800051E+03  0.46024800054E+03  0.50400000000E-02 0. -1.
          1   -1    0    0  501    0  0.00000000000E+00 -0.00000000000E+00 -0.16024216201E+03  0.16024216209E+03  0.50400000000E-02 0.  1.
    5000001    1    1    2    0    0  0.16981288984E+03 -0.11014239177E+03  0.23517442093E+03  0.35142534382E+03  0.16500000000E+03 0.  0.
   -5000001    1    1    2    0    0 -0.16981288984E+03  0.11014239177E+03  0.64831417565E+02  0.26906481881E+03  0.16500000000E+03 0.  0.
<mgrwt>
<rscale>  0 0.54314320E+03</rscale>
<asrwt>0</asrwt>
<pdfrwt beam="1">  1        1 0.24652641E-01 0.54314320E+03</pdfrwt>
<pdfrwt beam="2">  1       -1 0.70807384E-01 0.54314320E+03</pdfrwt>
<totfact> 0.40632519E+02</totfact>
</mgrwt>
</event>
<event>
 4    1  0.2309632E-005  0.3669563E+03  0.7818608E-02  0.1055863E+00
          1   -1    0    0  501    0  0.00000000000E+00  0.00000000000E+00  0.35998130448E+04  0.35998130449E+04  0.50400000000E-02 0.  1.
         -1   -1    0    0    0  501 -0.00000000000E+00 -0.00000000000E+00 -0.93516603123E+01  0.93516616705E+01  0.50400000000E-02 0. -1.
    5000001    1    1    2    0    0 -0.10917799254E+02 -0.51826250164E+02  0.12023201660E+04  0.12147443929E+04  0.16500000000E+03 0.  0.
   -5000001    1    1    2    0    0  0.10917799254E+02  0.51826250164E+02  0.23881412186E+04  0.23944203136E+04  0.16500000000E+03 0.  0.
<mgrwt>
<rscale>  0 0.36695630E+03</rscale>
<asrwt>0</asrwt>
<pdfrwt beam="1">  1        1 0.55381781E+00 0.36695630E+03</pdfrwt>
<pdfrwt beam="2">  1       -1 0.14387160E-02 0.36695630E+03</pdfrwt>
<totfact> 0.28644431E+02</totfact>
</mgrwt>
</event>
<event>
 4    1  0.2309632E-005  0.6147791E+03  0.7818608E-02  0.9875210E-01
         -1   -1    0    0    0  501 -0.00000000000E+00  0.00000000000E+00  0.61086772640E+02  0.61086772847E+02  0.50400000000E-02 0. -1.
          1   -1    0    0  501    0  0.00000000000E+00 -0.00000000000E+00 -0.15467887097E+04  0.15467887097E+04  0.50400000000E-02 0.  1.
    5000001    1    1    2    0    0  0.21253288788E+03  0.14693087394E+03 -0.68411155711E+03  0.74966161214E+03  0.16500000000E+03 0.  0.
   -5000001    1    1    2    0    0 -0.21253288788E+03 -0.14693087394E+03 -0.80159037994E+03  0.85821387041E+03  0.16500000000E+03 0.  0.
<mgrwt>
<rscale>  0 0.61477908E+03</rscale>
<asrwt>0</asrwt>
<pdfrwt beam="1">  1        1 0.23796746E+00 0.61477908E+03</pdfrwt>
<pdfrwt beam="2">  1       -1 0.93979662E-02 0.61477908E+03</pdfrwt>
<totfact> 0.43413613E+02</totfact>
</mgrwt>
</event>
<event>
 4    1  0.2309632E-005  0.5633901E+03  0.7818608E-02  0.9984413E-01
         -1   -1    0    0    0  501 -0.00000000000E+00  0.00000000000E+00  0.16156924096E+04  0.16156924096E+04  0.50400000000E-02 0.  1.
          1   -1    0    0  501    0  0.00000000000E+00 -0.00000000000E+00 -0.49113374899E+02  0.49113375157E+02  0.50400000000E-02 0. -1.
    5000001    1    1    2    0    0 -0.10348419188E+03  0.50302595168E+02  0.20056818913E+03  0.28406324567E+03  0.16500000000E+03 0.  0.
   -5000001    1    1    2    0    0  0.10348419188E+03 -0.50302595168E+02  0.13660108456E+04  0.13807425391E+04  0.16500000000E+03 0.  0.
<mgrwt>
<rscale>  0 0.56339012E+03</rscale>
<asrwt>0</asrwt>
<pdfrwt beam="1">  1        1 0.75559041E-02 0.56339012E+03</pdfrwt>
<pdfrwt beam="2">  1       -1 0.24856806E+00 0.56339012E+03</pdfrwt>
<totfact> 0.73803783E+01</totfact>
</mgrwt>
</event>
<event>
 4    1  0.2309632E-005  0.6163670E+03  0.7818608E-02  0.9872020E-01
          1   -1    0    0  501    0  0.00000000000E+00  0.00000000000E+00  0.99749675278E+03  0.99749675279E+03  0.50400000000E-02 0.  1.
         -1   -1    0    0    0  501 -0.00000000000E+00 -0.00000000000E+00 -0.95215425493E+02  0.95215425626E+02  0.50400000000E-02 0. -1.
    5000001    1    1    2    0    0 -0.33511980493E+02 -0.23376431490E+03  0.25707260584E+03  0.38610896445E+03  0.16500000000E+03 0.  0.
   -5000001    1    1    2    0    0  0.33511980493E+02  0.23376431490E+03  0.64520872144E+03  0.70660321396E+03  0.16500000000E+03 0.  0.
<mgrwt>
<rscale>  0 0.61636703E+03</rscale>
<asrwt>0</asrwt>
<pdfrwt beam="1">  1        1 0.15346105E+00 0.61636703E+03</pdfrwt>
<pdfrwt beam="2">  1       -1 0.14648526E-01 0.61636703E+03</pdfrwt>
<totfact> 0.52711313E+02</totfact>
</mgrwt>
</event>
<event>
 4    1  0.2309632E-005  0.4600039E+03  0.7818608E-02  0.1024780E+00
          1   -1    0    0  501    0  0.00000000000E+00  0.00000000000E+00  0.26713029198E+04  0.26713029199E+04  0.50400000000E-02 0.  1.
         -1   -1    0    0    0  501 -0.00000000000E+00 -0.00000000000E+00 -0.19803405286E+02  0.19803405928E+02  0.50400000000E-02 0. -1.
    5000001    1    1    2    0    0  0.25613066479E+02  0.15660812910E+03  0.14557449477E+04  0.14736351272E+04  0.16500000000E+03 0.  0.
   -5000001    1    1    2    0    0 -0.25613066479E+02 -0.15660812910E+03  0.11957545669E+04  0.12174711986E+04  0.16500000000E+03 0.  0.
<mgrwt>
<rscale>  0 0.46000389E+03</rscale>
<asrwt>0</asrwt>
<pdfrwt beam="1">  1        1 0.41096967E+00 0.46000389E+03</pdfrwt>
<pdfrwt beam="2">  1       -1 0.30466779E-02 0.46000389E+03</pdfrwt>
<totfact> 0.43680959E+02</totfact>
</mgrwt>
</event>
<event>
 4    1  0.2309632E-005  0.5974143E+03  0.7818608E-02  0.9910785E-01
         -1   -1    0    0    0  501 -0.00000000000E+00  0.00000000000E+00  0.68572496382E+03  0.68572496383E+03  0.50400000000E-02 0. -1.
          1   -1    0    0  501    0  0.00000000000E+00 -0.00000000000E+00 -0.13011918450E+03  0.13011918459E+03  0.50400000000E-02 0.  1.
    5000001    1    1    2    0    0  0.75000023844E+02  0.80108813554E+02 -0.27433608491E+02  0.20005006488E+03  0.16500000000E+03 0.  0.
   -5000001    1    1    2    0    0 -0.75000023844E+02 -0.80108813554E+02  0.58303938781E+03  0.61579408354E+03  0.16500000000E+03 0.  0.
<mgrwt>
<rscale>  0 0.59741434E+03</rscale>
<asrwt>0</asrwt>
<pdfrwt beam="1">  1        1 0.20018336E-01 0.59741434E+03</pdfrwt>
<pdfrwt beam="2">  1       -1 0.10549615E+00 0.59741434E+03</pdfrwt>
<totfact> 0.22462429E+02</totfact>
</mgrwt>
</event>
<event>
 4    1  0.2309632E-005  0.3766576E+03  0.7818608E-02  0.1052176E+00
          1   -1    0    0  501    0  0.00000000000E+00  0.00000000000E+00  0.17381196863E+03  0.17381196871E+03  0.50400000000E-02 0.  1.
         -1   -1    0    0    0  501 -0.00000000000E+00 -0.00000000000E+00 -0.20405807687E+03  0.20405807693E+03  0.50400000000E-02 0. -1.
    5000001    1    1    2    0    0 -0.26164065341E+02  0.61888935282E+02 -0.76376432248E+02  0.19383796849E+03  0.16500000000E+03 0.  0.
   -5000001    1    1    2    0    0  0.26164065341E+02 -0.61888935282E+02  0.46130324012E+02  0.18403207715E+03  0.16500000000E+03 0.  0.
<mgrwt>
<rscale>  0 0.37665760E+03</rscale>
<asrwt>0</asrwt>
<pdfrwt beam="1">  1        1 0.26740303E-01 0.37665760E+03</pdfrwt>
<pdfrwt beam="2">  1       -1 0.31393550E-01 0.37665760E+03</pdfrwt>
<totfact> 0.16658021E+03</totfact>
</mgrwt>
</event>
<event>
 4    1  0.2309632E-005  0.4634448E+03  0.7818608E-02  0.1023787E+00
          1   -1    0    0  501    0  0.00000000000E+00  0.00000000000E+00  0.55245911511E+03  0.55245911513E+03  0.50400000000E-02 0. -1.
         -1   -1    0    0    0  501 -0.00000000000E+00 -0.00000000000E+00 -0.97193200543E+02  0.97193200673E+02  0.50400000000E-02 0.  1.
    5000001    1    1    2    0    0 -0.63400264046E+02 -0.40210975800E+02  0.42996596753E+03  0.46661788359E+03  0.16500000000E+03 0.  0.
   -5000001    1    1    2    0    0  0.63400264046E+02  0.40210975800E+02  0.25299947041E+02  0.18303443221E+03  0.16500000000E+03 0.  0.
<mgrwt>
<rscale>  0 0.46344480E+03</rscale>
<asrwt>0</asrwt>
<pdfrwt beam="1">  1        1 0.84993709E-01 0.46344480E+03</pdfrwt>
<pdfrwt beam="2">  1       -1 0.14952800E-01 0.46344480E+03</pdfrwt>
<totfact> 0.12769428E+03</totfact>
</mgrwt>
</event>
<event>
 4    1  0.2309632E-005  0.3706817E+03  0.7818608E-02  0.1054433E+00
          1   -1    0    0  501    0  0.00000000000E+00  0.00000000000E+00  0.91010118037E+03  0.91010118039E+03  0.50400000000E-02 0.  1.
         -1   -1    0    0    0  501 -0.00000000000E+00 -0.00000000000E+00 -0.37744415811E+02  0.37744416148E+02  0.50400000000E-02 0. -1.
    5000001    1    1    2    0    0  0.20266020376E+02 -0.75879641989E+02  0.51531457655E+03  0.54675638492E+03  0.16500000000E+03 0.  0.
   -5000001    1    1    2    0    0 -0.20266020376E+02  0.75879641989E+02  0.35704218802E+03  0.40108921161E+03  0.16500000000E+03 0.  0.
<mgrwt>
<rscale>  0 0.37068174E+03</rscale>
<asrwt>0</asrwt>
<pdfrwt beam="1">  1        1 0.14001555E+00 0.37068174E+03</pdfrwt>
<pdfrwt beam="2">  1       -1 0.58068340E-02 0.37068174E+03</pdfrwt>
<totfact> 0.26396856E+03</totfact>
</mgrwt>
</event>
<event>
 4    1  0.2309632E-005  0.5749365E+03  0.7818608E-02  0.9958814E-01
          1   -1    0    0  501    0  0.00000000000E+00  0.00000000000E+00  0.60770125581E+03  0.60770125583E+03  0.50400000000E-02 0.  1.
         -1   -1    0    0    0  501 -0.00000000000E+00 -0.00000000000E+00 -0.13598455844E+03  0.13598455853E+03  0.50400000000E-02 0. -1.
    5000001    1    1    2    0    0 -0.21840336186E+03 -0.32540282420E+02  0.13034341646E+03  0.30491524178E+03  0.16500000000E+03 0.  0.
   -5000001    1    1    2    0    0  0.21840336186E+03  0.32540282420E+02  0.34137328091E+03  0.43877057259E+03  0.16500000000E+03 0.  0.
<mgrwt>
<rscale>  0 0.57493647E+03</rscale>
<asrwt>0</asrwt>
<pdfrwt beam="1">  1        1 0.93492502E-01 0.57493647E+03</pdfrwt>
<pdfrwt beam="2">  1       -1 0.20920701E-01 0.57493647E+03</pdfrwt>
<totfact> 0.64318952E+02</totfact>
</mgrwt>
</event>
<event>
 4    1  0.2309632E-005  0.5004016E+03  0.7818608E-02  0.1013674E+00
         -1   -1    0    0    0  501 -0.00000000000E+00  0.00000000000E+00  0.62643003325E+02  0.62643003528E+02  0.50400000000E-02 0. -1.
          1   -1    0    0  501    0  0.00000000000E+00 -0.00000000000E+00 -0.99932066153E+03  0.99932066154E+03  0.50400000000E-02 0.  1.
    5000001    1    1    2    0    0  0.43038563549E+02  0.12650140473E+03 -0.18743058077E+03  0.28321395792E+03  0.16500000000E+03 0.  0.
   -5000001    1    1    2    0    0 -0.43038563549E+02 -0.12650140473E+03 -0.74924707743E+03  0.77874970715E+03  0.16500000000E+03 0.  0.
<mgrwt>
<rscale>  0 0.50040163E+03</rscale>
<asrwt>0</asrwt>
<pdfrwt beam="1">  1        1 0.15374163E+00 0.50040163E+03</pdfrwt>
<pdfrwt beam="2">  1       -1 0.96373859E-02 0.50040163E+03</pdfrwt>
<totfact> 0.10278520E+03</totfact>
</mgrwt>
</event>
<event>
 4    1  0.2309632E-005  0.5827768E+03  0.7818608E-02  0.9941797E-01
          1   -1    0    0  501    0  0.00000000000E+00  0.00000000000E+00  0.44027621669E+03  0.44027621672E+03  0.50400000000E-02 0.  1.
         -1   -1    0    0    0  501 -0.00000000000E+00 -0.00000000000E+00 -0.19284985630E+03  0.19284985637E+03  0.50400000000E-02 0. -1.
    5000001    1    1    2    0    0 -0.68212705422E+02  0.21280075822E+03  0.21932257815E+03  0.35392729362E+03  0.16500000000E+03 0.  0.
   -5000001    1    1    2    0    0  0.68212705422E+02 -0.21280075822E+03  0.28103782237E+02  0.27919877947E+03  0.16500000000E+03 0.  0.
<mgrwt>
<rscale>  0 0.58277682E+03</rscale>
<asrwt>0</asrwt>
<pdfrwt beam="1">  1        1 0.67734801E-01 0.58277682E+03</pdfrwt>
<pdfrwt beam="2">  1       -1 0.29669209E-01 0.58277682E+03</pdfrwt>
<totfact> 0.55413900E+02</totfact>
</mgrwt>
</event>
<event>
 4    1  0.2309632E-005  0.4731646E+03  0.7818608E-02  0.1021031E+00
         -1   -1    0    0    0  501 -0.00000000000E+00  0.00000000000E+00  0.63593680455E+02  0.63593680654E+02  0.50400000000E-02 0.  1.
          1   -1    0    0  501    0  0.00000000000E+00 -0.00000000000E+00 -0.88013737434E+03  0.88013737436E+03  0.50400000000E-02 0. -1.
    5000001    1    1    2    0    0 -0.10108422793E+02  0.15735374303E+03 -0.28397384336E+03  0.36431926160E+03  0.16500000000E+03 0.  0.
   -5000001    1    1    2    0    0  0.10108422793E+02 -0.15735374303E+03 -0.53256985053E+03  0.57941179342E+03  0.16500000000E+03 0.  0.
<mgrwt>
<rscale>  0 0.47316456E+03</rscale>
<asrwt>0</asrwt>
<pdfrwt beam="1">  1        1 0.13540574E+00 0.47316456E+03</pdfrwt>
<pdfrwt beam="2">  1       -1 0.97836438E-02 0.47316456E+03</pdfrwt>
<totfact> 0.12467854E+03</totfact>
</mgrwt>
</event>
<event>
 4    1  0.2309632E-005  0.5495599E+03  0.7818608E-02  0.1001596E+00
          1   -1    0    0  501    0  0.00000000000E+00  0.00000000000E+00  0.14558816525E+04  0.14558816525E+04  0.50400000000E-02 0.  1.
         -1   -1    0    0    0  501 -0.00000000000E+00 -0.00000000000E+00 -0.51861364344E+02  0.51861364589E+02  0.50400000000E-02 0. -1.
    5000001    1    1    2    0    0  0.27222830787E+00 -0.21837583415E+03  0.76870315571E+03  0.81597648291E+03  0.16500000000E+03 0.  0.
   -5000001    1    1    2    0    0 -0.27222830787E+00  0.21837583415E+03  0.63531713242E+03  0.69176653417E+03  0.16500000000E+03 0.  0.
<mgrwt>
<rscale>  0 0.54955986E+03</rscale>
<asrwt>0</asrwt>
<pdfrwt beam="1">  1        1 0.22398177E+00 0.54955986E+03</pdfrwt>
<pdfrwt beam="2">  1       -1 0.79786723E-02 0.54955986E+03</pdfrwt>
<totfact> 0.64931954E+02</totfact>
</mgrwt>
</event>
<event>
 4    1  0.2309632E-005  0.3809708E+03  0.7818608E-02  0.1050576E+00
          1   -1    0    0  501    0  0.00000000000E+00  0.00000000000E+00  0.13440275534E+03  0.13440275544E+03  0.50400000000E-02 0.  1.
         -1   -1    0    0    0  501 -0.00000000000E+00 -0.00000000000E+00 -0.26996977657E+03  0.26996977662E+03  0.50400000000E-02 0. -1.
    5000001    1    1    2    0    0 -0.82945340516E+02 -0.21321617350E+02 -0.23697349059E+02  0.18740625719E+03  0.16500000000E+03 0.  0.
   -5000001    1    1    2    0    0  0.82945340516E+02  0.21321617350E+02 -0.11186967217E+03  0.21696627487E+03  0.16500000000E+03 0.  0.
<mgrwt>
<rscale>  0 0.38097077E+03</rscale>
<asrwt>0</asrwt>
<pdfrwt beam="1">  1        1 0.20677347E-01 0.38097077E+03</pdfrwt>
<pdfrwt beam="2">  1       -1 0.41533812E-01 0.38097077E+03</pdfrwt>
<totfact> 0.14175397E+03</totfact>
</mgrwt>
</event>
<event>
 4    1  0.2309632E-005  0.8901475E+03  0.7818608E-02  0.9437982E-01
          1   -1    0    0  501    0  0.00000000000E+00  0.00000000000E+00  0.51004192617E+03  0.51004192620E+03  0.50400000000E-02 0. -1.
         -1   -1    0    0    0  501 -0.00000000000E+00 -0.00000000000E+00 -0.38838111379E+03  0.38838111382E+03  0.50400000000E-02 0.  1.
    5000001    1    1    2    0    0  0.24898193515E+03  0.29639965540E+03  0.20716414263E+03  0.46902744242E+03  0.16500000000E+03 0.  0.
   -5000001    1    1    2    0    0 -0.24898193515E+03 -0.29639965540E+03 -0.85503330242E+02  0.42939559760E+03  0.16500000000E+03 0.  0.
<mgrwt>
<rscale>  0 0.89014752E+03</rscale>
<asrwt>0</asrwt>
<pdfrwt beam="1">  1        1 0.78467988E-01 0.89014752E+03</pdfrwt>
<pdfrwt beam="2">  1       -1 0.59750941E-01 0.89014752E+03</pdfrwt>
<totfact> 0.12348898E+02</totfact>
</mgrwt>
</event>
<event>
 4    1  0.2309632E-005  0.6017138E+03  0.7818608E-02  0.9901857E-01
          1   -1    0    0  501    0  0.00000000000E+00  0.00000000000E+00  0.17964062594E+03  0.17964062601E+03  0.50400000000E-02 0. -1.
         -1   -1    0    0    0  501 -0.00000000000E+00 -0.00000000000E+00 -0.50386645045E+03  0.50386645048E+03  0.50400000000E-02 0.  1.
    5000001    1    1    2    0    0 -0.23317997609E+03  0.22402213423E+02 -0.57909177961E+02  0.29232385005E+03  0.16500000000E+03 0.  0.
   -5000001    1    1    2    0    0  0.23317997609E+03 -0.22402213423E+02 -0.26631664655E+03  0.39118322644E+03  0.16500000000E+03 0.  0.
<mgrwt>
<rscale>  0 0.60171383E+03</rscale>
<asrwt>0</asrwt>
<pdfrwt beam="1">  1        1 0.27637020E-01 0.60171383E+03</pdfrwt>
<pdfrwt beam="2">  1       -1 0.77517915E-01 0.60171383E+03</pdfrwt>
<totfact> 0.28992083E+02</totfact>
</mgrwt>
</event>
<event>
 4    1  0.2309632E-005  0.6704291E+03  0.7818608E-02  0.9769183E-01
         -1   -1    0    0    0  501 -0.00000000000E+00  0.00000000000E+00  0.12201435053E+03  0.12201435064E+03  0.50400000000E-02 0.  1.
          1   -1    0    0  501    0  0.00000000000E+00 -0.00000000000E+00 -0.92094730232E+03  0.92094730234E+03  0.50400000000E-02 0. -1.
    5000001    1    1    2    0    0  0.63030108267E+02 -0.25173803084E+03 -0.19192124074E+03  0.36249633566E+03  0.16500000000E+03 0.  0.
   -5000001    1    1    2    0    0 -0.63030108267E+02  0.25173803084E+03 -0.60701171105E+03  0.68046531731E+03  0.16500000000E+03 0.  0.
<mgrwt>
<rscale>  0 0.67042908E+03</rscale>
<asrwt>0</asrwt>
<pdfrwt beam="1">  1        1 0.14168420E+00 0.67042908E+03</pdfrwt>
<pdfrwt beam="2">  1       -1 0.18771439E-01 0.67042908E+03</pdfrwt>
<totfact> 0.40263173E+02</totfact>
</mgrwt>
</event>
<event>
 4    1  0.2309632E-005  0.4656673E+03  0.7818608E-02  0.1023150E+00
         -1   -1    0    0    0  501 -0.00000000000E+00  0.00000000000E+00  0.14769952687E+03  0.14769952696E+03  0.50400000000E-02 0. -1.
          1   -1    0    0  501    0  0.00000000000E+00 -0.00000000000E+00 -0.36703922204E+03  0.36703922208E+03  0.50400000000E-02 0.  1.
    5000001    1    1    2    0    0 -0.14810552747E+03 -0.19721119218E+01 -0.18820140429E+03  0.29083312237E+03  0.16500000000E+03 0.  0.
   -5000001    1    1    2    0    0  0.14810552747E+03  0.19721119218E+01 -0.31138290879E+02  0.22390562666E+03  0.16500000000E+03 0.  0.
<mgrwt>
<rscale>  0 0.46566735E+03</rscale>
<asrwt>0</asrwt>
<pdfrwt beam="1">  1        1 0.56467572E-01 0.46566735E+03</pdfrwt>
<pdfrwt beam="2">  1       -1 0.22723004E-01 0.46566735E+03</pdfrwt>
<totfact> 0.11097243E+03</totfact>
</mgrwt>
</event>
<event>
 4    1  0.2309632E-005  0.3821326E+03  0.7818608E-02  0.1050148E+00
         -1   -1    0    0    0  501 -0.00000000000E+00  0.00000000000E+00  0.21326663628E+03  0.21326663634E+03  0.50400000000E-02 0.  1.
          1   -1    0    0  501    0  0.00000000000E+00 -0.00000000000E+00 -0.17117689910E+03  0.17117689917E+03  0.50400000000E-02 0. -1.
    5000001    1    1    2    0    0  0.63633246808E+01  0.70221592436E+02  0.87090629779E+02  0.19945260525E+03  0.16500000000E+03 0.  0.
   -5000001    1    1    2    0    0 -0.63633246808E+01 -0.70221592436E+02 -0.45000892597E+02  0.18499093026E+03  0.16500000000E+03 0.  0.
<mgrwt>
<rscale>  0 0.38213255E+03</rscale>
<asrwt>0</asrwt>
<pdfrwt beam="1">  1        1 0.26334908E-01 0.38213255E+03</pdfrwt>
<pdfrwt beam="2">  1       -1 0.32810252E-01 0.38213255E+03</pdfrwt>
<totfact> 0.15739549E+03</totfact>
</mgrwt>
</event>
<event>
 4    1  0.2309632E-005  0.5212407E+03  0.7818608E-02  0.1008379E+00
          1   -1    0    0  501    0  0.00000000000E+00  0.00000000000E+00  0.24811354689E+04  0.24811354689E+04  0.50400000000E-02 0. -1.
         -1   -1    0    0    0  501 -0.00000000000E+00 -0.00000000000E+00 -0.27375758106E+02  0.27375758570E+02  0.50400000000E-02 0.  1.
    5000001    1    1    2    0    0 -0.19779093984E+03  0.74675435524E+01  0.10391927315E+04  0.10706650052E+04  0.16500000000E+03 0.  0.
   -5000001    1    1    2    0    0  0.19779093984E+03 -0.74675435524E+01  0.14145669793E+04  0.14378462223E+04  0.16500000000E+03 0.  0.
<mgrwt>
<rscale>  0 0.52124069E+03</rscale>
<asrwt>0</asrwt>
<pdfrwt beam="1">  1        1 0.38171325E+00 0.52124069E+03</pdfrwt>
<pdfrwt beam="2">  1       -1 0.42116540E-02 0.52124069E+03</pdfrwt>
<totfact> 0.35872580E+02</totfact>
</mgrwt>
</event>
<event>
 4    1  0.2309632E-005  0.7699775E+03  0.7818608E-02  0.9604520E-01
         -1   -1    0    0    0  501 -0.00000000000E+00  0.00000000000E+00  0.52257285021E+02  0.52257285264E+02  0.50400000000E-02 0. -1.
          1   -1    0    0  501    0  0.00000000000E+00 -0.00000000000E+00 -0.28362811123E+04  0.28362811123E+04  0.50400000000E-02 0.  1.
    5000001    1    1    2    0    0 -0.17250412300E+02 -0.34667105411E+03 -0.14769767944E+04  0.15261598369E+04  0.16500000000E+03 0.  0.
   -5000001    1    1    2    0    0  0.17250412300E+02  0.34667105411E+03 -0.13070470328E+04  0.13623785606E+04  0.16500000000E+03 0.  0.
<mgrwt>
<rscale>  0 0.76997753E+03</rscale>
<asrwt>0</asrwt>
<pdfrwt beam="1">  1        1 0.43635082E+00 0.76997753E+03</pdfrwt>
<pdfrwt beam="2">  1       -1 0.80395845E-02 0.76997753E+03</pdfrwt>
<totfact> 0.73350133E+01</totfact>
</mgrwt>
</event>
<event>
 4    1  0.2309632E-005  0.5795864E+03  0.7818608E-02  0.9948687E-01
         -1   -1    0    0    0  501 -0.00000000000E+00  0.00000000000E+00  0.13716142702E+03  0.13716142711E+03  0.50400000000E-02 0. -1.
          1   -1    0    0  501    0  0.00000000000E+00 -0.00000000000E+00 -0.61227206591E+03  0.61227206593E+03  0.50400000000E-02 0.  1.
    5000001    1    1    2    0    0 -0.67699692047E+02  0.17951042412E+03 -0.54929094013E+02  0.25893907785E+03  0.16500000000E+03 0.  0.
   -5000001    1    1    2    0    0  0.67699692047E+02 -0.17951042412E+03 -0.42018154488E+03  0.49049441519E+03  0.16500000000E+03 0.  0.
<mgrwt>
<rscale>  0 0.57958644E+03</rscale>
<asrwt>0</asrwt>
<pdfrwt beam="1">  1        1 0.94195701E-01 0.57958644E+03</pdfrwt>
<pdfrwt beam="2">  1       -1 0.21101758E-01 0.57958644E+03</pdfrwt>
<totfact> 0.62716096E+02</totfact>
</mgrwt>
</event>
<event>
 4    1  0.2309632E-005  0.3798655E+03  0.7818608E-02  0.1050983E+00
         -1   -1    0    0    0  501 -0.00000000000E+00  0.00000000000E+00  0.61443487139E+02  0.61443487346E+02  0.50400000000E-02 0. -1.
          1   -1    0    0  501    0  0.00000000000E+00 -0.00000000000E+00 -0.58711600854E+03  0.58711600856E+03  0.50400000000E-02 0.  1.
    5000001    1    1    2    0    0  0.17096716954E+02 -0.86167498411E+02 -0.20538435657E+03  0.27771364647E+03  0.16500000000E+03 0.  0.
   -5000001    1    1    2    0    0 -0.17096716954E+02  0.86167498411E+02 -0.32028816483E+03  0.37084584943E+03  0.16500000000E+03 0.  0.
<mgrwt>
<rscale>  0 0.37986553E+03</rscale>
<asrwt>0</asrwt>
<pdfrwt beam="1">  1        1 0.90325536E-01 0.37986553E+03</pdfrwt>
<pdfrwt beam="2">  1       -1 0.94528446E-02 0.37986553E+03</pdfrwt>
<totfact> 0.24208720E+03</totfact>
</mgrwt>
</event>
<event>
 4    1  0.2309632E-005  0.3771979E+03  0.7818608E-02  0.1051974E+00
         -1   -1    0    0    0  501 -0.00000000000E+00  0.00000000000E+00  0.20252971407E+02  0.20252972034E+02  0.50400000000E-02 0. -1.
          1   -1    0    0  501    0  0.00000000000E+00 -0.00000000000E+00 -0.17562636055E+04  0.17562636055E+04  0.50400000000E-02 0.  1.
    5000001    1    1    2    0    0 -0.69467315965E+02  0.14442878845E+02 -0.11389811720E+04  0.11530556859E+04  0.16500000000E+03 0.  0.
   -5000001    1    1    2    0    0  0.69467315965E+02 -0.14442878845E+02 -0.59702946215E+03  0.62346089164E+03  0.16500000000E+03 0.  0.
<mgrwt>
<rscale>  0 0.37719786E+03</rscale>
<asrwt>0</asrwt>
<pdfrwt beam="1">  1        1 0.27019428E+00 0.37719786E+03</pdfrwt>
<pdfrwt beam="2">  1       -1 0.31158432E-02 0.37719786E+03</pdfrwt>
<totfact> 0.17253761E+03</totfact>
</mgrwt>
</event>
<event>
 4    1  0.2309632E-005  0.4364826E+03  0.7818608E-02  0.1031832E+00
         -1   -1    0    0    0  501 -0.00000000000E+00  0.00000000000E+00  0.50133863013E+02  0.50133863266E+02  0.50400000000E-02 0. -1.
          1   -1    0    0  501    0  0.00000000000E+00 -0.00000000000E+00 -0.95004169195E+03  0.95004169196E+03  0.50400000000E-02 0.  1.
    5000001    1    1    2    0    0  0.82043159688E+02 -0.11114450575E+03 -0.36669911523E+03  0.42517928257E+03  0.16500000000E+03 0.  0.
   -5000001    1    1    2    0    0 -0.82043159688E+02  0.11114450575E+03 -0.53320871370E+03  0.57499627266E+03  0.16500000000E+03 0.  0.
<mgrwt>
<rscale>  0 0.43648258E+03</rscale>
<asrwt>0</asrwt>
<pdfrwt beam="1">  1        1 0.14616025E+00 0.43648258E+03</pdfrwt>
<pdfrwt beam="2">  1       -1 0.77129027E-02 0.43648258E+03</pdfrwt>
<totfact> 0.15893186E+03</totfact>
</mgrwt>
</event>
<event>
 4    1  0.2309632E-005  0.4372388E+03  0.7818608E-02  0.1031597E+00
          1   -1    0    0  501    0  0.00000000000E+00  0.00000000000E+00  0.16646838620E+03  0.16646838627E+03  0.50400000000E-02 0.  1.
         -1   -1    0    0    0  501 -0.00000000000E+00 -0.00000000000E+00 -0.28710821248E+03  0.28710821253E+03  0.50400000000E-02 0. -1.
    5000001    1    1    2    0    0  0.11272946767E+03 -0.80826738211E+02 -0.22508726729E+02  0.21673148657E+03  0.16500000000E+03 0.  0.
   -5000001    1    1    2    0    0 -0.11272946767E+03  0.80826738211E+02 -0.98131099556E+02  0.23684511224E+03  0.16500000000E+03 0.  0.
<mgrwt>
<rscale>  0 0.43723879E+03</rscale>
<asrwt>0</asrwt>
<pdfrwt beam="1">  1        1 0.25610521E-01 0.43723879E+03</pdfrwt>
<pdfrwt beam="2">  1       -1 0.44170494E-01 0.43723879E+03</pdfrwt>
<totfact> 0.96130700E+02</totfact>
</mgrwt>
</event>
<event>
 4    1  0.2309632E-005  0.7833917E+03  0.7818608E-02  0.9584373E-01
          1   -1    0    0  501    0  0.00000000000E+00  0.00000000000E+00  0.60362827021E+03  0.60362827023E+03  0.50400000000E-02 0. -1.
         -1   -1    0    0    0  501 -0.00000000000E+00 -0.00000000000E+00 -0.25417237937E+03  0.25417237942E+03  0.50400000000E-02 0.  1.
    5000001    1    1    2    0    0 -0.21884563706E+03 -0.26929868898E+03  0.91441275884E+02  0.39497050989E+03  0.16500000000E+03 0.  0.
   -5000001    1    1    2    0    0  0.21884563706E+03  0.26929868898E+03  0.25801461496E+03  0.46283013977E+03  0.16500000000E+03 0.  0.
<mgrwt>
<rscale>  0 0.78339169E+03</rscale>
<asrwt>0</asrwt>
<pdfrwt beam="1">  1        1 0.92865887E-01 0.78339169E+03</pdfrwt>
<pdfrwt beam="2">  1       -1 0.39103443E-01 0.78339169E+03</pdfrwt>
<totfact> 0.21791811E+02</totfact>
</mgrwt>
</event>
<event>
 4    1  0.2309632E-005  0.4256498E+03  0.7818608E-02  0.1035243E+00
          1   -1    0    0  501    0  0.00000000000E+00  0.00000000000E+00  0.10578375804E+04  0.10578375804E+04  0.50400000000E-02 0. -1.
         -1   -1    0    0    0  501 -0.00000000000E+00 -0.00000000000E+00 -0.42817941888E+02  0.42817942184E+02  0.50400000000E-02 0.  1.
    5000001    1    1    2    0    0  0.80559238009E+02  0.10399080835E+03  0.43596378375E+03  0.48434832486E+03  0.16500000000E+03 0.  0.
   -5000001    1    1    2    0    0 -0.80559238009E+02 -0.10399080835E+03  0.57905585472E+03  0.61630719770E+03  0.16500000000E+03 0.  0.
<mgrwt>
<rscale>  0 0.42564975E+03</rscale>
<asrwt>0</asrwt>
<pdfrwt beam="1">  1        1 0.16274424E+00 0.42564975E+03</pdfrwt>
<pdfrwt beam="2">  1       -1 0.65873759E-02 0.42564975E+03</pdfrwt>
<totfact> 0.16777914E+03</totfact>
</mgrwt>
</event>
<event>
 4    1  0.2309632E-005  0.4298980E+03  0.7818608E-02  0.1033892E+00
          1   -1    0    0  501    0  0.00000000000E+00  0.00000000000E+00  0.23738383506E+04  0.23738383506E+04  0.50400000000E-02 0.  1.
         -1   -1    0    0    0  501 -0.00000000000E+00 -0.00000000000E+00 -0.19463448166E+02  0.19463448819E+02  0.50400000000E-02 0. -1.
    5000001    1    1    2    0    0 -0.11721738661E+03 -0.71178263810E+02  0.11042134344E+04  0.11248638005E+04  0.16500000000E+03 0.  0.
   -5000001    1    1    2    0    0  0.11721738661E+03  0.71178263810E+02  0.12501614680E+04  0.12684379989E+04  0.16500000000E+03 0.  0.
<mgrwt>
<rscale>  0 0.42989804E+03</rscale>
<asrwt>0</asrwt>
<pdfrwt beam="1">  1        1 0.36520590E+00 0.42989804E+03</pdfrwt>
<pdfrwt beam="2">  1       -1 0.29943767E-02 0.42989804E+03</pdfrwt>
<totfact> 0.71418247E+02</totfact>
</mgrwt>
</event>
<event>
 4    1  0.2309632E-005  0.7841047E+03  0.7818608E-02  0.9583314E-01
         -1   -1    0    0    0  501 -0.00000000000E+00  0.00000000000E+00  0.26802529274E+03  0.26802529279E+03  0.50400000000E-02 0. -1.
          1   -1    0    0  501    0  0.00000000000E+00 -0.00000000000E+00 -0.57347220179E+03  0.57347220182E+03  0.50400000000E-02 0.  1.
    5000001    1    1    2    0    0  0.31563532427E+03 -0.16290183140E+03 -0.13360399946E+03  0.41380876413E+03  0.16500000000E+03 0.  0.
   -5000001    1    1    2    0    0 -0.31563532427E+03  0.16290183140E+03 -0.17184290959E+03  0.42768873047E+03  0.16500000000E+03 0.  0.
<mgrwt>
<rscale>  0 0.78410472E+03</rscale>
<asrwt>0</asrwt>
<pdfrwt beam="1">  1        1 0.88226492E-01 0.78410472E+03</pdfrwt>
<pdfrwt beam="2">  1       -1 0.41234661E-01 0.78410472E+03</pdfrwt>
<totfact> 0.21289380E+02</totfact>
</mgrwt>
</event>
<event>
 4    1  0.2309632E-005  0.4866715E+03  0.7818608E-02  0.1017318E+00
          1   -1    0    0  501    0  0.00000000000E+00  0.00000000000E+00  0.16435768091E+04  0.16435768091E+04  0.50400000000E-02 0.  1.
         -1   -1    0    0    0  501 -0.00000000000E+00 -0.00000000000E+00 -0.36026482957E+02  0.36026483309E+02  0.50400000000E-02 0. -1.
    5000001    1    1    2    0    0 -0.49192726819E+02  0.37313948177E+02  0.22447582386E+03  0.28535355368E+03  0.16500000000E+03 0.  0.
   -5000001    1    1    2    0    0  0.49192726819E+02 -0.37313948177E+02  0.13830745023E+04  0.13942497387E+04  0.16500000000E+03 0.  0.
<mgrwt>
<rscale>  0 0.48667152E+03</rscale>
<asrwt>0</asrwt>
<pdfrwt beam="1">  1        1 0.25285795E+00 0.48667152E+03</pdfrwt>
<pdfrwt beam="2">  1       -1 0.55425363E-02 0.48667152E+03</pdfrwt>
<totfact> 0.85410911E+02</totfact>
</mgrwt>
</event>
<event>
 4    1  0.2309632E-005  0.4868698E+03  0.7818608E-02  0.1017264E+00
          1   -1    0    0  501    0  0.00000000000E+00  0.00000000000E+00  0.14349673683E+04  0.14349673683E+04  0.50400000000E-02 0.  1.
         -1   -1    0    0    0  501 -0.00000000000E+00 -0.00000000000E+00 -0.41297485771E+02  0.41297486078E+02  0.50400000000E-02 0. -1.
    5000001    1    1    2    0    0 -0.14718703190E+03 -0.67352776284E+02  0.92845521999E+03  0.95679387245E+03  0.16500000000E+03 0.  0.
   -5000001    1    1    2    0    0  0.14718703190E+03  0.67352776284E+02  0.46521466255E+03  0.51947098195E+03  0.16500000000E+03 0.  0.
<mgrwt>
<rscale>  0 0.48686978E+03</rscale>
<asrwt>0</asrwt>
<pdfrwt beam="1">  1        1 0.22076423E+00 0.48686978E+03</pdfrwt>
<pdfrwt beam="2">  1       -1 0.63534588E-02 0.48686978E+03</pdfrwt>
<totfact> 0.95755738E+02</totfact>
</mgrwt>
</event>
<event>
 4    1  0.2309632E-005  0.4315323E+03  0.7818608E-02  0.1033377E+00
         -1   -1    0    0    0  501 -0.00000000000E+00  0.00000000000E+00  0.62857269281E+02  0.62857269483E+02  0.50400000000E-02 0. -1.
          1   -1    0    0  501    0  0.00000000000E+00 -0.00000000000E+00 -0.74064672821E+03  0.74064672823E+03  0.50400000000E-02 0.  1.
    5000001    1    1    2    0    0  0.98070986501E+02  0.93223438595E+02 -0.27938409702E+03  0.35155227430E+03  0.16500000000E+03 0.  0.
   -5000001    1    1    2    0    0 -0.98070986501E+02 -0.93223438595E+02 -0.39840536191E+03  0.45195172341E+03  0.16500000000E+03 0.  0.
<mgrwt>
<rscale>  0 0.43153230E+03</rscale>
<asrwt>0</asrwt>
<pdfrwt beam="1">  1        1 0.11394564E+00 0.43153230E+03</pdfrwt>
<pdfrwt beam="2">  1       -1 0.96703496E-02 0.43153230E+03</pdfrwt>
<totfact> 0.16677600E+03</totfact>
</mgrwt>
</event>
<event>
 4    1  0.2309632E-005  0.9358268E+03  0.7818608E-02  0.9381872E-01
          1   -1    0    0  501    0  0.00000000000E+00  0.00000000000E+00  0.12728232205E+04  0.12728232205E+04  0.50400000000E-02 0.  1.
         -1   -1    0    0    0  501 -0.00000000000E+00 -0.00000000000E+00 -0.17201364938E+03  0.17201364945E+03  0.50400000000E-02 0. -1.
    5000001    1    1    2    0    0 -0.31023297184E+03 -0.30882862391E+03  0.53509342681E+03  0.71075283410E+03  0.16500000000E+03 0.  0.
   -5000001    1    1    2    0    0  0.31023297184E+03  0.30882862391E+03  0.56571614429E+03  0.73408403584E+03  0.16500000000E+03 0.  0.
<mgrwt>
<rscale>  0 0.93582684E+03</rscale>
<asrwt>0</asrwt>
<pdfrwt beam="1">  1        1 0.19581896E+00 0.93582684E+03</pdfrwt>
<pdfrwt beam="2">  1       -1 0.26463638E-01 0.93582684E+03</pdfrwt>
<totfact> 0.12075971E+02</totfact>
</mgrwt>
</event>
<event>
 4    1  0.2309632E-005  0.5209543E+03  0.7818608E-02  0.1008450E+00
         -1   -1    0    0    0  501 -0.00000000000E+00  0.00000000000E+00  0.10467467865E+03  0.10467467877E+03  0.50400000000E-02 0. -1.
          1   -1    0    0  501    0  0.00000000000E+00 -0.00000000000E+00 -0.64818290237E+03  0.64818290239E+03  0.50400000000E-02 0.  1.
    5000001    1    1    2    0    0  0.19706219975E+03 -0.34288851968E+02 -0.30756649123E+03  0.40228271460E+03  0.16500000000E+03 0.  0.
   -5000001    1    1    2    0    0 -0.19706219975E+03  0.34288851968E+02 -0.23594173249E+03  0.35057486656E+03  0.16500000000E+03 0.  0.
<mgrwt>
<rscale>  0 0.52095427E+03</rscale>
<asrwt>0</asrwt>
<pdfrwt beam="1">  1        1 0.99720444E-01 0.52095427E+03</pdfrwt>
<pdfrwt beam="2">  1       -1 0.16103797E-01 0.52095427E+03</pdfrwt>
<totfact> 0.90210934E+02</totfact>
</mgrwt>
</event>
<event>
 4    1  0.2309632E-005  0.3881574E+03  0.7818608E-02  0.1047959E+00
          1   -1    0    0  501    0  0.00000000000E+00  0.00000000000E+00  0.35841284398E+03  0.35841284402E+03  0.50400000000E-02 0.  1.
         -1   -1    0    0    0  501 -0.00000000000E+00 -0.00000000000E+00 -0.10509262052E+03  0.10509262065E+03  0.50400000000E-02 0. -1.
    5000001    1    1    2    0    0 -0.92526755886E+02  0.43127953538E+02  0.13204346304E+03  0.23469490208E+03  0.16500000000E+03 0.  0.
   -5000001    1    1    2    0    0  0.92526755886E+02 -0.43127953538E+02  0.12127676042E+03  0.22881056258E+03  0.16500000000E+03 0.  0.
<mgrwt>
<rscale>  0 0.38815742E+03</rscale>
<asrwt>0</asrwt>
<pdfrwt beam="1">  1        1 0.55140438E-01 0.38815742E+03</pdfrwt>
<pdfrwt beam="2">  1       -1 0.16168095E-01 0.38815742E+03</pdfrwt>
<totfact> 0.19980021E+03</totfact>
</mgrwt>
</event>
<event>
 4    1  0.2309632E-005  0.4977871E+03  0.7818608E-02  0.1014358E+00
          1   -1    0    0  501    0  0.00000000000E+00  0.00000000000E+00  0.78463609036E+03  0.78463609038E+03  0.50400000000E-02 0.  1.
         -1   -1    0    0    0  501 -0.00000000000E+00 -0.00000000000E+00 -0.78951255479E+02  0.78951255640E+02  0.50400000000E-02 0. -1.
    5000001    1    1    2    0    0 -0.15728049815E+03  0.76772051733E+02  0.24186740610E+03  0.34110987256E+03  0.16500000000E+03 0.  0.
   -5000001    1    1    2    0    0  0.15728049815E+03 -0.76772051733E+02  0.46381742878E+03  0.52247747345E+03  0.16500000000E+03 0.  0.
<mgrwt>
<rscale>  0 0.49778712E+03</rscale>
<asrwt>0</asrwt>
<pdfrwt beam="1">  1        1 0.12071325E+00 0.49778712E+03</pdfrwt>
<pdfrwt beam="2">  1       -1 0.12146347E-01 0.49778712E+03</pdfrwt>
<totfact> 0.10646728E+03</totfact>
</mgrwt>
</event>
<event>
 4    1  0.2309632E-005  0.4750555E+03  0.7818608E-02  0.1020503E+00
          1   -1    0    0  501    0  0.00000000000E+00  0.00000000000E+00  0.33976966595E+03  0.33976966599E+03  0.50400000000E-02 0.  1.
         -1   -1    0    0    0  501 -0.00000000000E+00 -0.00000000000E+00 -0.16605197464E+03  0.16605197472E+03  0.50400000000E-02 0. -1.
    5000001    1    1    2    0    0 -0.16248677740E+03  0.52666551836E+02  0.91463928114E+02  0.25449237446E+03  0.16500000000E+03 0.  0.
   -5000001    1    1    2    0    0  0.16248677740E+03 -0.52666551836E+02  0.82253763194E+02  0.25132926625E+03  0.16500000000E+03 0.  0.
<mgrwt>
<rscale>  0 0.47505547E+03</rscale>
<asrwt>0</asrwt>
<pdfrwt beam="1">  1        1 0.52272256E-01 0.47505547E+03</pdfrwt>
<pdfrwt beam="2">  1       -1 0.25546458E-01 0.47505547E+03</pdfrwt>
<totfact> 0.10070435E+03</totfact>
</mgrwt>
</event>
<event>
 4    1  0.2309632E-005  0.5557442E+03  0.7818608E-02  0.1000173E+00
          1   -1    0    0  501    0  0.00000000000E+00  0.00000000000E+00  0.26830836026E+03  0.26830836030E+03  0.50400000000E-02 0.  1.
         -1   -1    0    0    0  501 -0.00000000000E+00 -0.00000000000E+00 -0.28777676317E+03  0.28777676322E+03  0.50400000000E-02 0. -1.
    5000001    1    1    2    0    0 -0.17456471255E+03  0.12547016845E+03  0.51722602598E+02  0.27589097422E+03  0.16500000000E+03 0.  0.
   -5000001    1    1    2    0    0  0.17456471255E+03 -0.12547016845E+03 -0.71191005515E+02  0.28019414930E+03  0.16500000000E+03 0.  0.
<mgrwt>
<rscale>  0 0.55574423E+03</rscale>
<asrwt>0</asrwt>
<pdfrwt beam="1">  1        1 0.41278209E-01 0.55574423E+03</pdfrwt>
<pdfrwt beam="2">  1       -1 0.44273348E-01 0.55574423E+03</pdfrwt>
<totfact> 0.51762172E+02</totfact>
</mgrwt>
</event>
<event>
 4    1  0.2309632E-005  0.3778589E+03  0.7818608E-02  0.1051728E+00
         -1   -1    0    0    0  501 -0.00000000000E+00  0.00000000000E+00  0.30589180125E+03  0.30589180129E+03  0.50400000000E-02 0. -1.
          1   -1    0    0  501    0  0.00000000000E+00 -0.00000000000E+00 -0.11668941294E+03  0.11668941305E+03  0.50400000000E-02 0.  1.
    5000001    1    1    2    0    0 -0.32435866245E+02  0.35171550483E+02  0.66823015819E+01  0.17192666034E+03  0.16500000000E+03 0.  0.
   -5000001    1    1    2    0    0  0.32435866245E+02 -0.35171550483E+02  0.18252008672E+03  0.25065455400E+03  0.16500000000E+03 0.  0.
<mgrwt>
<rscale>  0 0.37785889E+03</rscale>
<asrwt>0</asrwt>
<pdfrwt beam="1">  1        1 0.17952218E-01 0.37785889E+03</pdfrwt>
<pdfrwt beam="2">  1       -1 0.47060277E-01 0.37785889E+03</pdfrwt>
<totfact> 0.13575088E+03</totfact>
</mgrwt>
</event>
<event>
 4    1  0.2309632E-005  0.5593872E+03  0.7818608E-02  0.9993442E-01
         -1   -1    0    0    0  501 -0.00000000000E+00  0.00000000000E+00  0.82902439439E+02  0.82902439593E+02  0.50400000000E-02 0. -1.
          1   -1    0    0  501    0  0.00000000000E+00 -0.00000000000E+00 -0.94362136352E+03  0.94362136353E+03  0.50400000000E-02 0.  1.
    5000001    1    1    2    0    0  0.17330779943E+03  0.89750290690E+02 -0.63888861899E+03  0.68810927584E+03  0.16500000000E+03 0.  0.
   -5000001    1    1    2    0    0 -0.17330779943E+03 -0.89750290690E+02 -0.22183030508E+03  0.33841452728E+03  0.16500000000E+03 0.  0.
<mgrwt>
<rscale>  0 0.55938721E+03</rscale>
<asrwt>0</asrwt>
<pdfrwt beam="1">  1        1 0.14517251E+00 0.55938721E+03</pdfrwt>
<pdfrwt beam="2">  1       -1 0.12754222E-01 0.55938721E+03</pdfrwt>
<totfact> 0.72724868E+02</totfact>
</mgrwt>
</event>
<event>
 4    1  0.2309632E-005  0.3610426E+03  0.7818608E-02  0.1058172E+00
          1   -1    0    0  501    0  0.00000000000E+00  0.00000000000E+00  0.28545116635E+04  0.28545116635E+04  0.50400000000E-02 0.  1.
         -1   -1    0    0    0  501 -0.00000000000E+00 -0.00000000000E+00 -0.11416293290E+02  0.11416294402E+02  0.50400000000E-02 0. -1.
    5000001    1    1    2    0    0 -0.56782385248E+02  0.20685974766E+02  0.17498740777E+04  0.17586746250E+04  0.16500000000E+03 0.  0.
   -5000001    1    1    2    0    0  0.56782385248E+02 -0.20685974766E+02  0.10932212926E+04  0.11072533330E+04  0.16500000000E+03 0.  0.
<mgrwt>
<rscale>  0 0.36104262E+03</rscale>
<asrwt>0</asrwt>
<pdfrwt beam="1">  1        1 0.43915517E+00 0.36104262E+03</pdfrwt>
<pdfrwt beam="2">  1       -1 0.17563548E-02 0.36104262E+03</pdfrwt>
<totfact> 0.74839521E+02</totfact>
</mgrwt>
</event>
<event>
 4    1  0.2309632E-005  0.4235792E+03  0.7818608E-02  0.1035908E+00
         -1   -1    0    0    0  501 -0.00000000000E+00  0.00000000000E+00  0.66233614651E+02  0.66233614843E+02  0.50400000000E-02 0. -1.
          1   -1    0    0  501    0  0.00000000000E+00 -0.00000000000E+00 -0.67722153712E+03  0.67722153714E+03  0.50400000000E-02 0.  1.
    5000001    1    1    2    0    0  0.79651974469E+02  0.10048333432E+03 -0.24498517185E+03  0.32200011171E+03  0.16500000000E+03 0.  0.
   -5000001    1    1    2    0    0 -0.79651974469E+02 -0.10048333432E+03 -0.36600275061E+03  0.42145504027E+03  0.16500000000E+03 0.  0.
<mgrwt>
<rscale>  0 0.42357918E+03</rscale>
<asrwt>0</asrwt>
<pdfrwt beam="1">  1        1 0.10418792E+00 0.42357918E+03</pdfrwt>
<pdfrwt beam="2">  1       -1 0.10189787E-01 0.42357918E+03</pdfrwt>
<totfact> 0.17562189E+03</totfact>
</mgrwt>
</event>
<event>
 4    1  0.2309632E-005  0.4406126E+03  0.7818608E-02  0.1030559E+00
         -1   -1    0    0    0  501 -0.00000000000E+00  0.00000000000E+00  0.18049584122E+03  0.18049584129E+03  0.50400000000E-02 0. -1.
          1   -1    0    0  501    0  0.00000000000E+00 -0.00000000000E+00 -0.26889742760E+03  0.26889742765E+03  0.50400000000E-02 0.  1.
    5000001    1    1    2    0    0  0.14320480038E+02  0.13710473193E+03  0.47885170222E+01  0.21505979066E+03  0.16500000000E+03 0.  0.
   -5000001    1    1    2    0    0 -0.14320480038E+02 -0.13710473193E+03 -0.93190103404E+02  0.23433347827E+03  0.16500000000E+03 0.  0.
<mgrwt>
<rscale>  0 0.44061261E+03</rscale>
<asrwt>0</asrwt>
<pdfrwt beam="1">  1        1 0.41368835E-01 0.44061261E+03</pdfrwt>
<pdfrwt beam="2">  1       -1 0.27768591E-01 0.44061261E+03</pdfrwt>
<totfact> 0.11794085E+03</totfact>
</mgrwt>
</event>
<event>
 4    1  0.2309632E-005  0.8129621E+03  0.7818608E-02  0.9541442E-01
         -1   -1    0    0    0  501 -0.00000000000E+00  0.00000000000E+00  0.44494968953E+03  0.44494968956E+03  0.50400000000E-02 0. -1.
          1   -1    0    0  501    0  0.00000000000E+00 -0.00000000000E+00 -0.37133826629E+03  0.37133826632E+03  0.50400000000E-02 0.  1.
    5000001    1    1    2    0    0 -0.24061504651E+03  0.12273726310E+03  0.29288201700E+03  0.43123649225E+03  0.16500000000E+03 0.  0.
   -5000001    1    1    2    0    0  0.24061504651E+03 -0.12273726310E+03 -0.21927059376E+03  0.38505146364E+03  0.16500000000E+03 0.  0.
<mgrwt>
<rscale>  0 0.81296211E+03</rscale>
<asrwt>0</asrwt>
<pdfrwt beam="1">  1        1 0.57128965E-01 0.81296211E+03</pdfrwt>
<pdfrwt beam="2">  1       -1 0.68453798E-01 0.81296211E+03</pdfrwt>
<totfact> 0.14476332E+02</totfact>
</mgrwt>
</event>
<event>
 4    1  0.2309632E-005  0.5167233E+03  0.7818608E-02  0.1009504E+00
          1   -1    0    0  501    0  0.00000000000E+00  0.00000000000E+00  0.11414703739E+04  0.11414703739E+04  0.50400000000E-02 0.  1.
         -1   -1    0    0    0  501 -0.00000000000E+00 -0.00000000000E+00 -0.58477853377E+02  0.58477853594E+02  0.50400000000E-02 0. -1.
    5000001    1    1    2    0    0  0.16609958919E+03 -0.86006624487E+02  0.38503398101E+03  0.45876178951E+03  0.16500000000E+03 0.  0.
   -5000001    1    1    2    0    0 -0.16609958919E+03  0.86006624487E+02  0.69795853947E+03  0.74118643795E+03  0.16500000000E+03 0.  0.
<mgrwt>
<rscale>  0 0.51672328E+03</rscale>
<asrwt>0</asrwt>
<pdfrwt beam="1">  1        1 0.17561082E+00 0.51672328E+03</pdfrwt>
<pdfrwt beam="2">  1       -1 0.89965931E-02 0.51672328E+03</pdfrwt>
<totfact> 0.89635051E+02</totfact>
</mgrwt>
</event>
<event>
 4    1  0.2309632E-005  0.3631553E+03  0.7818608E-02  0.1057341E+00
         -1   -1    0    0    0  501 -0.00000000000E+00  0.00000000000E+00  0.75897949049E+03  0.75897949051E+03  0.50400000000E-02 0. -1.
          1   -1    0    0  501    0  0.00000000000E+00 -0.00000000000E+00 -0.43440496522E+02  0.43440496814E+02  0.50400000000E-02 0.  1.
    5000001    1    1    2    0    0 -0.19132455323E+02 -0.59226081366E+02  0.45336194032E+03  0.48645228799E+03  0.16500000000E+03 0.  0.
   -5000001    1    1    2    0    0  0.19132455323E+02  0.59226081366E+02  0.26217705365E+03  0.31596769933E+03  0.16500000000E+03 0.  0.
<mgrwt>
<rscale>  0 0.36315532E+03</rscale>
<asrwt>0</asrwt>
<pdfrwt beam="1">  1        1 0.66831537E-02 0.36315532E+03</pdfrwt>
<pdfrwt beam="2">  1       -1 0.11676607E+00 0.36315532E+03</pdfrwt>
<totfact> 0.78744715E+02</totfact>
</mgrwt>
</event>
<event>
 4    1  0.2309632E-005  0.4054838E+03  0.7818608E-02  0.1041897E+00
         -1   -1    0    0    0  501 -0.00000000000E+00  0.00000000000E+00  0.61982733451E+03  0.61982733453E+03  0.50400000000E-02 0.  1.
          1   -1    0    0  501    0  0.00000000000E+00 -0.00000000000E+00 -0.66315705259E+02  0.66315705451E+02  0.50400000000E-02 0. -1.
    5000001    1    1    2    0    0  0.36248659473E+01  0.11218850069E+03  0.33729366792E+03  0.39190740967E+03  0.16500000000E+03 0.  0.
   -5000001    1    1    2    0    0 -0.36248659473E+01 -0.11218850069E+03  0.21621796133E+03  0.29423563030E+03  0.16500000000E+03 0.  0.
<mgrwt>
<rscale>  0 0.40548384E+03</rscale>
<asrwt>0</asrwt>
<pdfrwt beam="1">  1        1 0.10202416E-01 0.40548384E+03</pdfrwt>
<pdfrwt beam="2">  1       -1 0.95358055E-01 0.40548384E+03</pdfrwt>
<totfact> 0.70072521E+02</totfact>
</mgrwt>
</event>
<event>
 4    1  0.2309632E-005  0.5513032E+03  0.7818608E-02  0.1001193E+00
          1   -1    0    0  501    0  0.00000000000E+00  0.00000000000E+00  0.77141470050E+03  0.77141470052E+03  0.50400000000E-02 0.  1.
         -1   -1    0    0    0  501 -0.00000000000E+00 -0.00000000000E+00 -0.98499307443E+02  0.98499307572E+02  0.50400000000E-02 0. -1.
    5000001    1    1    2    0    0  0.16861696480E+03  0.82072814930E+02  0.15250148231E+03  0.29265906765E+03  0.16500000000E+03 0.  0.
   -5000001    1    1    2    0    0 -0.16861696480E+03 -0.82072814930E+02  0.52041391074E+03  0.57725494044E+03  0.16500000000E+03 0.  0.
<mgrwt>
<rscale>  0 0.55130323E+03</rscale>
<asrwt>0</asrwt>
<pdfrwt beam="1">  1        1 0.11867919E+00 0.55130323E+03</pdfrwt>
<pdfrwt beam="2">  1       -1 0.15153739E-01 0.55130323E+03</pdfrwt>
<totfact> 0.76572402E+02</totfact>
</mgrwt>
</event>
<event>
 4    1  0.2309632E-005  0.6948060E+03  0.7818608E-02  0.9726156E-01
          1   -1    0    0  501    0  0.00000000000E+00  0.00000000000E+00  0.13620937931E+03  0.13620937941E+03  0.50400000000E-02 0. -1.
         -1   -1    0    0    0  501 -0.00000000000E+00 -0.00000000000E+00 -0.88605374612E+03  0.88605374614E+03  0.50400000000E-02 0.  1.
    5000001    1    1    2    0    0 -0.26042265859E+03  0.46579515162E+02 -0.60034336983E+03  0.67648117050E+03  0.16500000000E+03 0.  0.
   -5000001    1    1    2    0    0  0.26042265859E+03 -0.46579515162E+02 -0.14950099698E+03  0.34578195504E+03  0.16500000000E+03 0.  0.
<mgrwt>
<rscale>  0 0.69480596E+03</rscale>
<asrwt>0</asrwt>
<pdfrwt beam="1">  1        1 0.20955290E-01 0.69480596E+03</pdfrwt>
<pdfrwt beam="2">  1       -1 0.13631596E+00 0.69480596E+03</pdfrwt>
<totfact> 0.11282926E+02</totfact>
</mgrwt>
</event>
<event>
 4    1  0.2309632E-005  0.7864046E+03  0.7818608E-02  0.9579907E-01
          1   -1    0    0  501    0  0.00000000000E+00  0.00000000000E+00  0.52168737336E+03  0.52168737338E+03  0.50400000000E-02 0.  1.
         -1   -1    0    0    0  501 -0.00000000000E+00 -0.00000000000E+00 -0.29636149191E+03  0.29636149195E+03  0.50400000000E-02 0. -1.
    5000001    1    1    2    0    0  0.64929159111E+02 -0.33751853865E+03  0.12624114720E+02  0.38146943247E+03  0.16500000000E+03 0.  0.
   -5000001    1    1    2    0    0 -0.64929159111E+02  0.33751853865E+03  0.21270176673E+03  0.43657943287E+03  0.16500000000E+03 0.  0.
<mgrwt>
<rscale>  0 0.78640460E+03</rscale>
<asrwt>0</asrwt>
<pdfrwt beam="1">  1        1 0.80259596E-01 0.78640460E+03</pdfrwt>
<pdfrwt beam="2">  1       -1 0.45594076E-01 0.78640460E+03</pdfrwt>
<totfact> 0.20197042E+02</totfact>
</mgrwt>
</event>
<event>
 4    1  0.2309632E-005  0.7009635E+03  0.7818608E-02  0.9715586E-01
          1   -1    0    0  501    0  0.00000000000E+00  0.00000000000E+00  0.23393524516E+04  0.23393524516E+04  0.50400000000E-02 0.  1.
         -1   -1    0    0    0  501 -0.00000000000E+00 -0.00000000000E+00 -0.52509177720E+02  0.52509177962E+02  0.50400000000E-02 0. -1.
    5000001    1    1    2    0    0 -0.22871003679E+03 -0.97199165231E+02  0.51556318389E+03  0.59563945070E+03  0.16500000000E+03 0.  0.
   -5000001    1    1    2    0    0  0.22871003679E+03  0.97199165231E+02  0.17712800900E+04  0.17962221789E+04  0.16500000000E+03 0.  0.
<mgrwt>
<rscale>  0 0.70096355E+03</rscale>
<asrwt>0</asrwt>
<pdfrwt beam="1">  1        1 0.35990040E+00 0.70096355E+03</pdfrwt>
<pdfrwt beam="2">  1       -1 0.80783345E-02 0.70096355E+03</pdfrwt>
<totfact> 0.16109584E+02</totfact>
</mgrwt>
</event>
<event>
 4    1  0.2309632E-005  0.4694398E+03  0.7818608E-02  0.1022078E+00
          1   -1    0    0  501    0  0.00000000000E+00  0.00000000000E+00  0.14498162112E+04  0.14498162112E+04  0.50400000000E-02 0.  1.
         -1   -1    0    0    0  501 -0.00000000000E+00 -0.00000000000E+00 -0.38000280652E+02  0.38000280986E+02  0.50400000000E-02 0. -1.
    5000001    1    1    2    0    0 -0.69603315564E+02 -0.77775659789E+02  0.29298297552E+03  0.35207626835E+03  0.16500000000E+03 0.  0.
   -5000001    1    1    2    0    0  0.69603315564E+02  0.77775659789E+02  0.11188329550E+04  0.11357402238E+04  0.16500000000E+03 0.  0.
<mgrwt>
<rscale>  0 0.46943976E+03</rscale>
<asrwt>0</asrwt>
<pdfrwt beam="1">  1        1 0.22304867E+00 0.46943976E+03</pdfrwt>
<pdfrwt beam="2">  1       -1 0.58461964E-02 0.46943976E+03</pdfrwt>
<totfact> 0.10637413E+03</totfact>
</mgrwt>
</event>
<event>
 4    1  0.2309632E-005  0.4059767E+03  0.7818608E-02  0.1041730E+00
          1   -1    0    0  501    0  0.00000000000E+00  0.00000000000E+00  0.26317527918E+03  0.26317527923E+03  0.50400000000E-02 0.  1.
         -1   -1    0    0    0  501 -0.00000000000E+00 -0.00000000000E+00 -0.15656590696E+03  0.15656590704E+03  0.50400000000E-02 0. -1.
    5000001    1    1    2    0    0 -0.51729826219E+02  0.10409189837E+03  0.30933656123E+02  0.20418861209E+03  0.16500000000E+03 0.  0.
   -5000001    1    1    2    0    0  0.51729826219E+02 -0.10409189837E+03  0.75675716093E+02  0.21555257418E+03  0.16500000000E+03 0.  0.
<mgrwt>
<rscale>  0 0.40597673E+03</rscale>
<asrwt>0</asrwt>
<pdfrwt beam="1">  1        1 0.40488504E-01 0.40597673E+03</pdfrwt>
<pdfrwt beam="2">  1       -1 0.24087063E-01 0.40597673E+03</pdfrwt>
<totfact> 0.15410724E+03</totfact>
</mgrwt>
</event>
<event>
 4    1  0.2309632E-005  0.3823064E+03  0.7818608E-02  0.1050085E+00
         -1   -1    0    0    0  501 -0.00000000000E+00  0.00000000000E+00  0.22291400629E+02  0.22291401199E+02  0.50400000000E-02 0.  1.
          1   -1    0    0  501    0  0.00000000000E+00 -0.00000000000E+00 -0.16391769647E+04  0.16391769648E+04  0.50400000000E-02 0. -1.
    5000001    1    1    2    0    0  0.84319949937E+02  0.98955826041E+01 -0.60896731352E+03  0.63661131426E+03  0.16500000000E+03 0.  0.
   -5000001    1    1    2    0    0 -0.84319949937E+02 -0.98955826041E+01 -0.10079182506E+04  0.10248570517E+04  0.16500000000E+03 0.  0.
<mgrwt>
<rscale>  0 0.38230643E+03</rscale>
<asrwt>0</asrwt>
<pdfrwt beam="1">  1        1 0.25218098E+00 0.38230643E+03</pdfrwt>
<pdfrwt beam="2">  1       -1 0.34294476E-02 0.38230643E+03</pdfrwt>
<totfact> 0.17858836E+03</totfact>
</mgrwt>
</event>
<event>
 4    1  0.2309632E-005  0.4159046E+03  0.7818608E-02  0.1038408E+00
         -1   -1    0    0    0  501 -0.00000000000E+00  0.00000000000E+00  0.26878460927E+02  0.26878461399E+02  0.50400000000E-02 0. -1.
          1   -1    0    0  501    0  0.00000000000E+00 -0.00000000000E+00 -0.16088779111E+04  0.16088779111E+04  0.50400000000E-02 0.  1.
    5000001    1    1    2    0    0 -0.11867160015E+03 -0.42352893551E+02 -0.83794050440E+03  0.86327632030E+03  0.16500000000E+03 0.  0.
   -5000001    1    1    2    0    0  0.11867160015E+03  0.42352893551E+02 -0.74405894580E+03  0.77248005224E+03  0.16500000000E+03 0.  0.
<mgrwt>
<rscale>  0 0.41590462E+03</rscale>
<asrwt>0</asrwt>
<pdfrwt beam="1">  1        1 0.24751960E+00 0.41590462E+03</pdfrwt>
<pdfrwt beam="2">  1       -1 0.41351491E-02 0.41590462E+03</pdfrwt>
<totfact> 0.14104192E+03</totfact>
</mgrwt>
</event>
<event>
 4    1  0.2309632E-005  0.5653092E+03  0.7818608E-02  0.9980113E-01
          1   -1    0    0  501    0  0.00000000000E+00  0.00000000000E+00  0.24508082483E+04  0.24508082483E+04  0.50400000000E-02 0. -1.
         -1   -1    0    0    0  501 -0.00000000000E+00 -0.00000000000E+00 -0.32598884499E+02  0.32598884889E+02  0.50400000000E-02 0.  1.
    5000001    1    1    2    0    0 -0.45297273717E+02  0.13343692701E+03  0.41335953181E+03  0.46684939652E+03  0.16500000000E+03 0.  0.
   -5000001    1    1    2    0    0  0.45297273717E+02 -0.13343692701E+03  0.20048498320E+04  0.20165577367E+04  0.16500000000E+03 0.  0.
<mgrwt>
<rscale>  0 0.56530917E+03</rscale>
<asrwt>0</asrwt>
<pdfrwt beam="1">  1        1 0.37704746E+00 0.56530917E+03</pdfrwt>
<pdfrwt beam="2">  1       -1 0.50152125E-02 0.56530917E+03</pdfrwt>
<totfact> 0.28696192E+02</totfact>
</mgrwt>
</event>
<event>
 4    1  0.2309632E-005  0.5127406E+03  0.7818608E-02  0.1010506E+00
          1   -1    0    0  501    0  0.00000000000E+00  0.00000000000E+00  0.27400163470E+04  0.27400163470E+04  0.50400000000E-02 0.  1.
         -1   -1    0    0    0  501 -0.00000000000E+00 -0.00000000000E+00 -0.23987350869E+02  0.23987351398E+02  0.50400000000E-02 0. -1.
    5000001    1    1    2    0    0 -0.15623235307E+03 -0.21493257281E+02  0.72866421897E+03  0.76357517787E+03  0.16500000000E+03 0.  0.
   -5000001    1    1    2    0    0  0.15623235307E+03  0.21493257281E+02  0.19873647772E+04  0.20004285206E+04  0.16500000000E+03 0.  0.
<mgrwt>
<rscale>  0 0.51274061E+03</rscale>
<asrwt>0</asrwt>
<pdfrwt beam="1">  1        1 0.42154104E+00 0.51274061E+03</pdfrwt>
<pdfrwt beam="2">  1       -1 0.36903611E-02 0.51274061E+03</pdfrwt>
<totfact> 0.29188413E+02</totfact>
</mgrwt>
</event>
<event>
 4    1  0.2309632E-005  0.4010957E+03  0.7818608E-02  0.1043401E+00
          1   -1    0    0  501    0  0.00000000000E+00  0.00000000000E+00  0.33216671785E+03  0.33216671789E+03  0.50400000000E-02 0. -1.
         -1   -1    0    0    0  501 -0.00000000000E+00 -0.00000000000E+00 -0.12108206999E+03  0.12108207010E+03  0.50400000000E-02 0.  1.
    5000001    1    1    2    0    0  0.90926765044E+02  0.42641840227E+02  0.16648451122E+03  0.25500606976E+03  0.16500000000E+03 0.  0.
   -5000001    1    1    2    0    0 -0.90926765044E+02 -0.42641840227E+02  0.44600136634E+02  0.19824271822E+03  0.16500000000E+03 0.  0.
<mgrwt>
<rscale>  0 0.40109567E+03</rscale>
<asrwt>0</asrwt>
<pdfrwt beam="1">  1        1 0.51102571E-01 0.40109567E+03</pdfrwt>
<pdfrwt beam="2">  1       -1 0.18628011E-01 0.40109567E+03</pdfrwt>
<totfact> 0.17513680E+03</totfact>
</mgrwt>
</event>
<event>
 4    1  0.2309632E-005  0.4370374E+03  0.7818608E-02  0.1031660E+00
         -1   -1    0    0    0  501 -0.00000000000E+00  0.00000000000E+00  0.85756140676E+02  0.85756140824E+02  0.50400000000E-02 0.  1.
          1   -1    0    0  501    0  0.00000000000E+00 -0.00000000000E+00 -0.55681643041E+03  0.55681643044E+03  0.50400000000E-02 0. -1.
    5000001    1    1    2    0    0 -0.11284870031E+03 -0.80515743682E+02 -0.18235893385E+03  0.28230727036E+03  0.16500000000E+03 0.  0.
   -5000001    1    1    2    0    0  0.11284870031E+03  0.80515743682E+02 -0.28870135589E+03  0.36026530090E+03  0.16500000000E+03 0.  0.
<mgrwt>
<rscale>  0 0.43703743E+03</rscale>
<asrwt>0</asrwt>
<pdfrwt beam="1">  1        1 0.85664064E-01 0.43703743E+03</pdfrwt>
<pdfrwt beam="2">  1       -1 0.13193253E-01 0.43703743E+03</pdfrwt>
<totfact> 0.15435380E+03</totfact>
</mgrwt>
</event>
<event>
 4    1  0.2309632E-005  0.5921608E+03  0.7818608E-02  0.9921805E-01
         -1   -1    0    0    0  501 -0.00000000000E+00  0.00000000000E+00  0.54090863405E+03  0.54090863407E+03  0.50400000000E-02 0. -1.
          1   -1    0    0  501    0  0.00000000000E+00 -0.00000000000E+00 -0.16206731878E+03  0.16206731885E+03  0.50400000000E-02 0.  1.
    5000001    1    1    2    0    0  0.18240431035E+03 -0.46224568953E+02  0.16031155925E+01  0.25027107941E+03  0.16500000000E+03 0.  0.
   -5000001    1    1    2    0    0 -0.18240431035E+03  0.46224568953E+02  0.37723819968E+03  0.45270487352E+03  0.16500000000E+03 0.  0.
<mgrwt>
<rscale>  0 0.59216083E+03</rscale>
<asrwt>0</asrwt>
<pdfrwt beam="1">  1        1 0.24933433E-01 0.59216083E+03</pdfrwt>
<pdfrwt beam="2">  1       -1 0.83216714E-01 0.59216083E+03</pdfrwt>
<totfact> 0.28536697E+02</totfact>
</mgrwt>
</event>
<event>
 4    1  0.2309632E-005  0.4451098E+03  0.7818608E-02  0.1029190E+00
         -1   -1    0    0    0  501 -0.00000000000E+00  0.00000000000E+00  0.12265397154E+04  0.12265397154E+04  0.50400000000E-02 0. -1.
          1   -1    0    0  501    0  0.00000000000E+00 -0.00000000000E+00 -0.40382453217E+02  0.40382453531E+02  0.50400000000E-02 0.  1.
    5000001    1    1    2    0    0 -0.95543457325E+02 -0.19305460166E+02  0.91515799867E+03  0.93500824358E+03  0.16500000000E+03 0.  0.
   -5000001    1    1    2    0    0  0.95543457325E+02  0.19305460166E+02  0.27099926355E+03  0.33191392540E+03  0.16500000000E+03 0.  0.
<mgrwt>
<rscale>  0 0.44510980E+03</rscale>
<asrwt>0</asrwt>
<pdfrwt beam="1">  1        1 0.62126864E-02 0.44510980E+03</pdfrwt>
<pdfrwt beam="2">  1       -1 0.18869838E+00 0.44510980E+03</pdfrwt>
<totfact> 0.24328550E+02</totfact>
</mgrwt>
</event>
<event>
 4    1  0.2309632E-005  0.4585102E+03  0.7818608E-02  0.1025214E+00
         -1   -1    0    0    0  501 -0.00000000000E+00  0.00000000000E+00  0.16151764471E+03  0.16151764479E+03  0.50400000000E-02 0. -1.
          1   -1    0    0  501    0  0.00000000000E+00 -0.00000000000E+00 -0.32540038752E+03  0.32540038756E+03  0.50400000000E-02 0.  1.
    5000001    1    1    2    0    0 -0.17166587224E+02  0.12534060097E+03  0.20623788262E+02  0.20893850437E+03  0.16500000000E+03 0.  0.
   -5000001    1    1    2    0    0  0.17166587224E+02 -0.12534060097E+03 -0.18450653107E+03  0.27797952798E+03  0.16500000000E+03 0.  0.
<mgrwt>
<rscale>  0 0.45851021E+03</rscale>
<asrwt>0</asrwt>
<pdfrwt beam="1">  1        1 0.50061598E-01 0.45851021E+03</pdfrwt>
<pdfrwt beam="2">  1       -1 0.24848868E-01 0.45851021E+03</pdfrwt>
<totfact> 0.11156768E+03</totfact>
</mgrwt>
</event>
<event>
 4    1  0.2309632E-005  0.3685972E+03  0.7818608E-02  0.1055231E+00
         -1   -1    0    0    0  501 -0.00000000000E+00  0.00000000000E+00  0.31543492995E+02  0.31543493398E+02  0.50400000000E-02 0. -1.
          1   -1    0    0  501    0  0.00000000000E+00 -0.00000000000E+00 -0.10767979864E+04  0.10767979865E+04  0.50400000000E-02 0.  1.
    5000001    1    1    2    0    0 -0.56652778039E+02 -0.57858354376E+02 -0.48185677188E+03  0.51572092747E+03  0.16500000000E+03 0.  0.
   -5000001    1    1    2    0    0  0.56652778039E+02  0.57858354376E+02 -0.56339772158E+03  0.59262055239E+03  0.16500000000E+03 0.  0.
<mgrwt>
<rscale>  0 0.36859718E+03</rscale>
<asrwt>0</asrwt>
<pdfrwt beam="1">  1        1 0.16566120E+00 0.36859718E+03</pdfrwt>
<pdfrwt beam="2">  1       -1 0.48528459E-02 0.36859718E+03</pdfrwt>
<totfact> 0.25872633E+03</totfact>
</mgrwt>
</event>
<event>
 4    1  0.2309632E-005  0.4709615E+03  0.7818608E-02  0.1021649E+00
          1   -1    0    0  501    0  0.00000000000E+00  0.00000000000E+00  0.89808109855E+03  0.89808109856E+03  0.50400000000E-02 0. -1.
         -1   -1    0    0    0  501 -0.00000000000E+00 -0.00000000000E+00 -0.61744070861E+02  0.61744071067E+02  0.50400000000E-02 0.  1.
    5000001    1    1    2    0    0  0.65449784584E+02 -0.12161275448E+03  0.61314616108E+03  0.64980501014E+03  0.16500000000E+03 0.  0.
   -5000001    1    1    2    0    0 -0.65449784584E+02  0.12161275448E+03  0.22319086661E+03  0.31002015949E+03  0.16500000000E+03 0.  0.
<mgrwt>
<rscale>  0 0.47096150E+03</rscale>
<asrwt>0</asrwt>
<pdfrwt beam="1">  1        1 0.13816631E+00 0.47096150E+03</pdfrwt>
<pdfrwt beam="2">  1       -1 0.94990887E-02 0.47096150E+03</pdfrwt>
<totfact> 0.12630058E+03</totfact>
</mgrwt>
</event>
<event>
 4    1  0.2309632E-005  0.3809936E+03  0.7818608E-02  0.1050567E+00
         -1   -1    0    0    0  501 -0.00000000000E+00  0.00000000000E+00  0.22446686820E+02  0.22446687386E+02  0.50400000000E-02 0. -1.
          1   -1    0    0  501    0  0.00000000000E+00 -0.00000000000E+00 -0.16166762718E+04  0.16166762718E+04  0.50400000000E-02 0.  1.
    5000001    1    1    2    0    0  0.60819432025E+02 -0.50475322873E+02 -0.10254683184E+04  0.10416607094E+04  0.16500000000E+03 0.  0.
   -5000001    1    1    2    0    0 -0.60819432025E+02  0.50475322873E+02 -0.56876126662E+03  0.59746224980E+03  0.16500000000E+03 0.  0.
<mgrwt>
<rscale>  0 0.38099358E+03</rscale>
<asrwt>0</asrwt>
<pdfrwt beam="1">  1        1 0.24871934E+00 0.38099358E+03</pdfrwt>
<pdfrwt beam="2">  1       -1 0.34533377E-02 0.38099358E+03</pdfrwt>
<totfact> 0.18292710E+03</totfact>
</mgrwt>
</event>
<event>
 4    1  0.2309632E-005  0.7369118E+03  0.7818608E-02  0.9656110E-01
         -1   -1    0    0    0  501 -0.00000000000E+00  0.00000000000E+00  0.17559914052E+03  0.17559914060E+03  0.50400000000E-02 0. -1.
          1   -1    0    0  501    0  0.00000000000E+00 -0.00000000000E+00 -0.77312308765E+03  0.77312308766E+03  0.50400000000E-02 0.  1.
    5000001    1    1    2    0    0 -0.99899674554E+02 -0.27576600616E+03 -0.49191040946E+03  0.59600980366E+03  0.16500000000E+03 0.  0.
   -5000001    1    1    2    0    0  0.99899674554E+02  0.27576600616E+03 -0.10561353767E+03  0.35271242460E+03  0.16500000000E+03 0.  0.
<mgrwt>
<rscale>  0 0.73691180E+03</rscale>
<asrwt>0</asrwt>
<pdfrwt beam="1">  1        1 0.11894201E+00 0.73691180E+03</pdfrwt>
<pdfrwt beam="2">  1       -1 0.27015253E-01 0.73691180E+03</pdfrwt>
<totfact> 0.28919121E+02</totfact>
</mgrwt>
</event>
<event>
 4    1  0.2309632E-005  0.4263045E+03  0.7818608E-02  0.1035034E+00
         -1   -1    0    0    0  501 -0.00000000000E+00  0.00000000000E+00  0.95102614800E+03  0.95102614801E+03  0.50400000000E-02 0.  1.
          1   -1    0    0  501    0  0.00000000000E+00 -0.00000000000E+00 -0.47773538889E+02  0.47773539155E+02  0.50400000000E-02 0. -1.
    5000001    1    1    2    0    0  0.23656221527E+02 -0.89082637705E+02  0.22071377833E+03  0.29057684888E+03  0.16500000000E+03 0.  0.
   -5000001    1    1    2    0    0 -0.23656221527E+02  0.89082637705E+02  0.68253883077E+03  0.70822283829E+03  0.16500000000E+03 0.  0.
<mgrwt>
<rscale>  0 0.42630451E+03</rscale>
<asrwt>0</asrwt>
<pdfrwt beam="1">  1        1 0.73497762E-02 0.42630451E+03</pdfrwt>
<pdfrwt beam="2">  1       -1 0.14631170E+00 0.42630451E+03</pdfrwt>
<totfact> 0.39307369E+02</totfact>
</mgrwt>
</event>
<event>
 4    1  0.2309632E-005  0.5801572E+03  0.7818608E-02  0.9947451E-01
         -1   -1    0    0    0  501 -0.00000000000E+00  0.00000000000E+00  0.41536860246E+03  0.41536860249E+03  0.50400000000E-02 0. -1.
          1   -1    0    0  501    0  0.00000000000E+00 -0.00000000000E+00 -0.20258052004E+03  0.20258052010E+03  0.50400000000E-02 0.  1.
    5000001    1    1    2    0    0  0.83218461259E+02 -0.22271198561E+03  0.12755382790E+03  0.31626084146E+03  0.16500000000E+03 0.  0.
   -5000001    1    1    2    0    0 -0.83218461259E+02  0.22271198561E+03  0.85234254518E+02  0.30168828113E+03  0.16500000000E+03 0.  0.
<mgrwt>
<rscale>  0 0.58015718E+03</rscale>
<asrwt>0</asrwt>
<pdfrwt beam="1">  1        1 0.31166234E-01 0.58015718E+03</pdfrwt>
<pdfrwt beam="2">  1       -1 0.63902862E-01 0.58015718E+03</pdfrwt>
<totfact> 0.36834886E+02</totfact>
</mgrwt>
</event>
<event>
 4    1  0.2309632E-005  0.5674144E+03  0.7818608E-02  0.9975416E-01
          1   -1    0    0  501    0  0.00000000000E+00  0.00000000000E+00  0.56943512476E+03  0.56943512478E+03  0.50400000000E-02 0.  1.
         -1   -1    0    0    0  501 -0.00000000000E+00 -0.00000000000E+00 -0.14135023631E+03  0.14135023640E+03  0.50400000000E-02 0. -1.
    5000001    1    1    2    0    0  0.12110510552E+03 -0.14435877217E+03  0.47107996348E+02  0.25485302628E+03  0.16500000000E+03 0.  0.
   -5000001    1    1    2    0    0 -0.12110510552E+03  0.14435877217E+03  0.38097689210E+03  0.45593233489E+03  0.16500000000E+03 0.  0.
<mgrwt>
<rscale>  0 0.56741445E+03</rscale>
<asrwt>0</asrwt>
<pdfrwt beam="1">  1        1 0.87605401E-01 0.56741445E+03</pdfrwt>
<pdfrwt beam="2">  1       -1 0.21746191E-01 0.56741445E+03</pdfrwt>
<totfact> 0.66142506E+02</totfact>
</mgrwt>
</event>
<event>
 4    1  0.2309632E-005  0.5811561E+03  0.7818608E-02  0.9945291E-01
          1   -1    0    0  501    0  0.00000000000E+00  0.00000000000E+00  0.18290506000E+03  0.18290506006E+03  0.50400000000E-02 0.  1.
         -1   -1    0    0    0  501 -0.00000000000E+00 -0.00000000000E+00 -0.46163618417E+03  0.46163618420E+03  0.50400000000E-02 0. -1.
    5000001    1    1    2    0    0  0.16210111913E+03 -0.18166358419E+02 -0.33338518052E+03  0.40617418430E+03  0.16500000000E+03 0.  0.
   -5000001    1    1    2    0    0 -0.16210111913E+03  0.18166358419E+02  0.54654056343E+02  0.23836705996E+03  0.16500000000E+03 0.  0.
<mgrwt>
<rscale>  0 0.58115607E+03</rscale>
<asrwt>0</asrwt>
<pdfrwt beam="1">  1        1 0.28139240E-01 0.58115607E+03</pdfrwt>
<pdfrwt beam="2">  1       -1 0.71020951E-01 0.58115607E+03</pdfrwt>
<totfact> 0.33970757E+02</totfact>
</mgrwt>
</event>
<event>
 4    1  0.2309632E-005  0.4426802E+03  0.7818608E-02  0.1029928E+00
         -1   -1    0    0    0  501 -0.00000000000E+00  0.00000000000E+00  0.22420841499E+03  0.22420841505E+03  0.50400000000E-02 0.  1.
          1   -1    0    0  501    0  0.00000000000E+00 -0.00000000000E+00 -0.21850846628E+03  0.21850846634E+03  0.50400000000E-02 0. -1.
    5000001    1    1    2    0    0 -0.38430040699E+02  0.12688178668E+03 -0.61890089393E+02  0.22052491692E+03  0.16500000000E+03 0.  0.
   -5000001    1    1    2    0    0  0.38430040699E+02 -0.12688178668E+03  0.67590038102E+02  0.22219196446E+03  0.16500000000E+03 0.  0.
<mgrwt>
<rscale>  0 0.44268019E+03</rscale>
<asrwt>0</asrwt>
<pdfrwt beam="1">  1        1 0.33616687E-01 0.44268019E+03</pdfrwt>
<pdfrwt beam="2">  1       -1 0.34493602E-01 0.44268019E+03</pdfrwt>
<totfact> 0.10559481E+03</totfact>
</mgrwt>
</event>
<event>
 4    1  0.2309632E-005  0.1260676E+04  0.7818608E-02  0.9061344E-01
          1   -1    0    0  501    0  0.00000000000E+00  0.00000000000E+00  0.79249766033E+03  0.79249766035E+03  0.50400000000E-02 0.  1.
         -1   -1    0    0    0  501 -0.00000000000E+00 -0.00000000000E+00 -0.50135955909E+03  0.50135955912E+03  0.50400000000E-02 0. -1.
    5000001    1    1    2    0    0 -0.16666305923E+03 -0.54462806636E+03 -0.73845000131E+02  0.59755701822E+03  0.16500000000E+03 0.  0.
   -5000001    1    1    2    0    0  0.16666305923E+03  0.54462806636E+03  0.36498310137E+03  0.69630020125E+03  0.16500000000E+03 0.  0.
<mgrwt>
<rscale>  0 0.12606764E+04</rscale>
<asrwt>0</asrwt>
<pdfrwt beam="1">  1        1 0.12192272E+00 0.12606764E+04</pdfrwt>
<pdfrwt beam="2">  1       -1 0.77132240E-01 0.12606764E+04</pdfrwt>
<totfact> 0.37296218E+01</totfact>
</mgrwt>
</event>
<event>
 4    1  0.2309632E-005  0.4302561E+03  0.7818608E-02  0.1033779E+00
         -1   -1    0    0    0  501 -0.00000000000E+00  0.00000000000E+00  0.20909413625E+03  0.20909413631E+03  0.50400000000E-02 0.  1.
          1   -1    0    0  501    0  0.00000000000E+00 -0.00000000000E+00 -0.22133604936E+03  0.22133604942E+03  0.50400000000E-02 0. -1.
    5000001    1    1    2    0    0  0.50958810947E+01 -0.13737880558E+03  0.63807347476E+01  0.21485953086E+03  0.16500000000E+03 0.  0.
   -5000001    1    1    2    0    0 -0.50958810947E+01  0.13737880558E+03 -0.18622647862E+02  0.21557065487E+03  0.16500000000E+03 0.  0.
<mgrwt>
<rscale>  0 0.43025606E+03</rscale>
<asrwt>0</asrwt>
<pdfrwt beam="1">  1        1 0.34051700E-01 0.43025606E+03</pdfrwt>
<pdfrwt beam="2">  1       -1 0.32168329E-01 0.43025606E+03</pdfrwt>
<totfact> 0.11734448E+03</totfact>
</mgrwt>
</event>
<event>
 4    1  0.2309632E-005  0.7263608E+03  0.7818608E-02  0.9673184E-01
          1   -1    0    0  501    0  0.00000000000E+00  0.00000000000E+00  0.30466493455E+03  0.30466493459E+03  0.50400000000E-02 0.  1.
         -1   -1    0    0    0  501 -0.00000000000E+00 -0.00000000000E+00 -0.43293465739E+03  0.43293465742E+03  0.50400000000E-02 0. -1.
    5000001    1    1    2    0    0  0.26323370368E+02  0.31735694349E+03 -0.60958234244E+01  0.35870671651E+03  0.16500000000E+03 0.  0.
   -5000001    1    1    2    0    0 -0.26323370368E+02 -0.31735694349E+03 -0.12217389941E+03  0.37889287550E+03  0.16500000000E+03 0.  0.
<mgrwt>
<rscale>  0 0.72636082E+03</rscale>
<asrwt>0</asrwt>
<pdfrwt beam="1">  1        1 0.46871528E-01 0.72636082E+03</pdfrwt>
<pdfrwt beam="2">  1       -1 0.66605332E-01 0.72636082E+03</pdfrwt>
<totfact> 0.19902383E+02</totfact>
</mgrwt>
</event>
<event>
 4    1  0.2309632E-005  0.7391173E+03  0.7818608E-02  0.9652580E-01
          1   -1    0    0  501    0  0.00000000000E+00  0.00000000000E+00  0.78428696887E+03  0.78428696888E+03  0.50400000000E-02 0.  1.
         -1   -1    0    0    0  501 -0.00000000000E+00 -0.00000000000E+00 -0.17413729833E+03  0.17413729841E+03  0.50400000000E-02 0. -1.
    5000001    1    1    2    0    0 -0.52408332483E+02  0.26301746181E+03  0.55592726972E+03  0.63890918583E+03  0.16500000000E+03 0.  0.
   -5000001    1    1    2    0    0  0.52408332483E+02 -0.26301746181E+03  0.54222400818E+02  0.31951508146E+03  0.16500000000E+03 0.  0.
<mgrwt>
<rscale>  0 0.73911735E+03</rscale>
<asrwt>0</asrwt>
<pdfrwt beam="1">  1        1 0.12065953E+00 0.73911735E+03</pdfrwt>
<pdfrwt beam="2">  1       -1 0.26790354E-01 0.73911735E+03</pdfrwt>
<totfact> 0.28678850E+02</totfact>
</mgrwt>
</event>
<event>
 4    1  0.2309632E-005  0.3444974E+03  0.7818608E-02  0.1064896E+00
          1   -1    0    0  501    0  0.00000000000E+00  0.00000000000E+00  0.42303871882E+02  0.42303872182E+02  0.50400000000E-02 0. -1.
         -1   -1    0    0    0  501 -0.00000000000E+00 -0.00000000000E+00 -0.70134498963E+03  0.70134498965E+03  0.50400000000E-02 0.  1.
    5000001    1    1    2    0    0 -0.43930880473E+02  0.22572466928E+02 -0.32461221538E+03  0.36747452823E+03  0.16500000000E+03 0.  0.
   -5000001    1    1    2    0    0  0.43930880473E+02 -0.22572466928E+02 -0.33442890237E+03  0.37617433361E+03  0.16500000000E+03 0.  0.
<mgrwt>
<rscale>  0 0.34449737E+03</rscale>
<asrwt>0</asrwt>
<pdfrwt beam="1">  1        1 0.65082885E-02 0.34449737E+03</pdfrwt>
<pdfrwt beam="2">  1       -1 0.10789922E+00 0.34449737E+03</pdfrwt>
<totfact> 0.98210160E+02</totfact>
</mgrwt>
</event>
<event>
 4    1  0.2309632E-005  0.4058261E+03  0.7818608E-02  0.1041781E+00
         -1   -1    0    0    0  501 -0.00000000000E+00  0.00000000000E+00  0.11673898387E+02  0.11673899475E+02  0.50400000000E-02 0. -1.
          1   -1    0    0  501    0  0.00000000000E+00 -0.00000000000E+00 -0.35269879990E+04  0.35269879990E+04  0.50400000000E-02 0.  1.
    5000001    1    1    2    0    0 -0.80518602125E+02 -0.16438920867E+02 -0.24972982566E+04  0.25040920641E+04  0.16500000000E+03 0.  0.
   -5000001    1    1    2    0    0  0.80518602125E+02  0.16438920867E+02 -0.10180158441E+04  0.10345698343E+04  0.16500000000E+03 0.  0.
<mgrwt>
<rscale>  0 0.40582608E+03</rscale>
<asrwt>0</asrwt>
<pdfrwt beam="1">  1        1 0.54261269E+00 0.40582608E+03</pdfrwt>
<pdfrwt beam="2">  1       -1 0.17959873E-02 0.40582608E+03</pdfrwt>
<totfact> 0.23362379E+02</totfact>
</mgrwt>
</event>
<event>
 4    1  0.2309632E-005  0.7193899E+03  0.7818608E-02  0.9684636E-01
         -1   -1    0    0    0  501 -0.00000000000E+00  0.00000000000E+00  0.15620305319E+03  0.15620305327E+03  0.50400000000E-02 0. -1.
          1   -1    0    0  501    0  0.00000000000E+00 -0.00000000000E+00 -0.82828384389E+03  0.82828384390E+03  0.50400000000E-02 0.  1.
    5000001    1    1    2    0    0 -0.19383126360E+03 -0.25223104825E+03 -0.29354172938E+03  0.46323083591E+03  0.16500000000E+03 0.  0.
   -5000001    1    1    2    0    0  0.19383126360E+03  0.25223104825E+03 -0.37853906133E+03  0.52125606126E+03  0.16500000000E+03 0.  0.
<mgrwt>
<rscale>  0 0.71938992E+03</rscale>
<asrwt>0</asrwt>
<pdfrwt beam="1">  1        1 0.12742828E+00 0.71938992E+03</pdfrwt>
<pdfrwt beam="2">  1       -1 0.24031239E-01 0.71938992E+03</pdfrwt>
<totfact> 0.31669491E+02</totfact>
</mgrwt>
</event>
<event>
 4    1  0.2309632E-005  0.3815573E+03  0.7818608E-02  0.1050360E+00
          1   -1    0    0  501    0  0.00000000000E+00  0.00000000000E+00  0.41552962453E+03  0.41552962456E+03  0.50400000000E-02 0.  1.
         -1   -1    0    0    0  501 -0.00000000000E+00 -0.00000000000E+00 -0.87590597566E+02  0.87590597711E+02  0.50400000000E-02 0. -1.
    5000001    1    1    2    0    0  0.80436492205E+02  0.29444705827E+02  0.10749309739E+03  0.21474819200E+03  0.16500000000E+03 0.  0.
   -5000001    1    1    2    0    0 -0.80436492205E+02 -0.29444705827E+02  0.22044592957E+03  0.28837203028E+03  0.16500000000E+03 0.  0.
<mgrwt>
<rscale>  0 0.38155727E+03</rscale>
<asrwt>0</asrwt>
<pdfrwt beam="1">  1        1 0.63927635E-01 0.38155727E+03</pdfrwt>
<pdfrwt beam="2">  1       -1 0.13475476E-01 0.38155727E+03</pdfrwt>
<totfact> 0.22079225E+03</totfact>
</mgrwt>
</event>
<event>
 4    1  0.2309632E-005  0.5774012E+03  0.7818608E-02  0.9953433E-01
          1   -1    0    0  501    0  0.00000000000E+00  0.00000000000E+00  0.75204463563E+03  0.75204463565E+03  0.50400000000E-02 0.  1.
         -1   -1    0    0    0  501 -0.00000000000E+00 -0.00000000000E+00 -0.11082857382E+03  0.11082857393E+03  0.50400000000E-02 0. -1.
    5000001    1    1    2    0    0  0.18836530470E+03 -0.14150479825E+03  0.35775658765E+03  0.45904234222E+03  0.16500000000E+03 0.  0.
   -5000001    1    1    2    0    0 -0.18836530470E+03  0.14150479825E+03  0.28345947417E+03  0.40383086736E+03  0.16500000000E+03 0.  0.
<mgrwt>
<rscale>  0 0.57740119E+03</rscale>
<asrwt>0</asrwt>
<pdfrwt beam="1">  1        1 0.11569917E+00 0.57740119E+03</pdfrwt>
<pdfrwt beam="2">  1       -1 0.17050550E-01 0.57740119E+03</pdfrwt>
<totfact> 0.65693509E+02</totfact>
</mgrwt>
</event>
<event>
 4    1  0.2309632E-005  0.6002919E+03  0.7818608E-02  0.9904801E-01
          1   -1    0    0  501    0  0.00000000000E+00  0.00000000000E+00  0.12330020708E+03  0.12330020718E+03  0.50400000000E-02 0.  1.
         -1   -1    0    0    0  501 -0.00000000000E+00 -0.00000000000E+00 -0.73063609829E+03  0.73063609831E+03  0.50400000000E-02 0. -1.
    5000001    1    1    2    0    0  0.33630550699E+02 -0.23872455417E+03 -0.20570746321E+03  0.35729677738E+03  0.16500000000E+03 0.  0.
   -5000001    1    1    2    0    0 -0.33630550699E+02  0.23872455417E+03 -0.40162842801E+03  0.49663952811E+03  0.16500000000E+03 0.  0.
<mgrwt>
<rscale>  0 0.60029187E+03</rscale>
<asrwt>0</asrwt>
<pdfrwt beam="1">  1        1 0.18969263E-01 0.60029187E+03</pdfrwt>
<pdfrwt beam="2">  1       -1 0.11240555E+00 0.60029187E+03</pdfrwt>
<totfact> 0.20790142E+02</totfact>
</mgrwt>
</event>
<event>
 4    1  0.2309632E-005  0.4824440E+03  0.7818608E-02  0.1018466E+00
         -1   -1    0    0    0  501 -0.00000000000E+00  0.00000000000E+00  0.12661355804E+04  0.12661355804E+04  0.50400000000E-02 0.  1.
          1   -1    0    0  501    0  0.00000000000E+00 -0.00000000000E+00 -0.45957206980E+02  0.45957207257E+02  0.50400000000E-02 0. -1.
    5000001    1    1    2    0    0 -0.16888299135E+03 -0.41005864348E+02  0.68507095818E+03  0.72577555994E+03  0.16500000000E+03 0.  0.
   -5000001    1    1    2    0    0  0.16888299135E+03  0.41005864348E+02  0.53510741526E+03  0.58631722774E+03  0.16500000000E+03 0.  0.
<mgrwt>
<rscale>  0 0.48244401E+03</rscale>
<asrwt>0</asrwt>
<pdfrwt beam="1">  1        1 0.70703398E-02 0.48244401E+03</pdfrwt>
<pdfrwt beam="2">  1       -1 0.19479008E+00 0.48244401E+03</pdfrwt>
<totfact> 0.18410938E+02</totfact>
</mgrwt>
</event>
<event>
 4    1  0.2309632E-005  0.5067984E+03  0.7818608E-02  0.1012020E+00
          1   -1    0    0  501    0  0.00000000000E+00  0.00000000000E+00  0.13121639395E+03  0.13121639404E+03  0.50400000000E-02 0.  1.
         -1   -1    0    0    0  501 -0.00000000000E+00 -0.00000000000E+00 -0.48935309494E+03  0.48935309497E+03  0.50400000000E-02 0. -1.
    5000001    1    1    2    0    0 -0.10694209156E+03 -0.15961693702E+03 -0.16868030247E+03  0.30428970073E+03  0.16500000000E+03 0.  0.
   -5000001    1    1    2    0    0  0.10694209156E+03  0.15961693702E+03 -0.18945639853E+03  0.31627978828E+03  0.16500000000E+03 0.  0.
<mgrwt>
<rscale>  0 0.50679838E+03</rscale>
<asrwt>0</asrwt>
<pdfrwt beam="1">  1        1 0.20187138E-01 0.50679838E+03</pdfrwt>
<pdfrwt beam="2">  1       -1 0.75285091E-01 0.50679838E+03</pdfrwt>
<totfact> 0.46562297E+02</totfact>
</mgrwt>
</event>
<event>
 4    1  0.2309632E-005  0.4243677E+03  0.7818608E-02  0.1035654E+00
         -1   -1    0    0    0  501 -0.00000000000E+00  0.00000000000E+00  0.41224803860E+02  0.41224804168E+02  0.50400000000E-02 0. -1.
          1   -1    0    0  501    0  0.00000000000E+00 -0.00000000000E+00 -0.10921090539E+04  0.10921090539E+04  0.50400000000E-02 0.  1.
    5000001    1    1    2    0    0 -0.10021147162E+03  0.31850919291E+02 -0.30618651250E+03  0.36336207912E+03  0.16500000000E+03 0.  0.
   -5000001    1    1    2    0    0  0.10021147162E+03 -0.31850919291E+02 -0.74469773754E+03  0.76997177896E+03  0.16500000000E+03 0.  0.
<mgrwt>
<rscale>  0 0.42436768E+03</rscale>
<asrwt>0</asrwt>
<pdfrwt beam="1">  1        1 0.16801676E+00 0.42436768E+03</pdfrwt>
<pdfrwt beam="2">  1       -1 0.63422784E-02 0.42436768E+03</pdfrwt>
<totfact> 0.16774532E+03</totfact>
</mgrwt>
</event>
<event>
 4    1  0.2309632E-005  0.7679439E+03  0.7818608E-02  0.9607612E-01
         -1   -1    0    0    0  501 -0.00000000000E+00  0.00000000000E+00  0.58073196933E+02  0.58073197152E+02  0.50400000000E-02 0. -1.
          1   -1    0    0  501    0  0.00000000000E+00 -0.00000000000E+00 -0.25387695031E+04  0.25387695031E+04  0.50400000000E-02 0.  1.
    5000001    1    1    2    0    0  0.33156938875E+03  0.44045081739E+02 -0.15490013502E+04  0.15932697234E+04  0.16500000000E+03 0.  0.
   -5000001    1    1    2    0    0 -0.33156938875E+03 -0.44045081739E+02 -0.93169495599E+03  0.10035729768E+04  0.16500000000E+03 0.  0.
<mgrwt>
<rscale>  0 0.76794391E+03</rscale>
<asrwt>0</asrwt>
<pdfrwt beam="1">  1        1 0.39057984E+00 0.76794391E+03</pdfrwt>
<pdfrwt beam="2">  1       -1 0.89343400E-02 0.76794391E+03</pdfrwt>
<totfact> 0.99990364E+01</totfact>
</mgrwt>
</event>
<event>
 4    1  0.2309632E-005  0.4611125E+03  0.7818608E-02  0.1024459E+00
          1   -1    0    0  501    0  0.00000000000E+00  0.00000000000E+00  0.44950537962E+02  0.44950538245E+02  0.50400000000E-02 0.  1.
         -1   -1    0    0    0  501 -0.00000000000E+00 -0.00000000000E+00 -0.11825484299E+04  0.11825484299E+04  0.50400000000E-02 0. -1.
    5000001    1    1    2    0    0 -0.12944338530E+03  0.25374788896E+02 -0.32291369453E+03  0.38587267852E+03  0.16500000000E+03 0.  0.
   -5000001    1    1    2    0    0  0.12944338530E+03 -0.25374788896E+02 -0.81468419744E+03  0.84162628967E+03  0.16500000000E+03 0.  0.
<mgrwt>
<rscale>  0 0.46111252E+03</rscale>
<asrwt>0</asrwt>
<pdfrwt beam="1">  1        1 0.69154683E-02 0.46111252E+03</pdfrwt>
<pdfrwt beam="2">  1       -1 0.18193050E+00 0.46111252E+03</pdfrwt>
<totfact> 0.23337840E+02</totfact>
</mgrwt>
</event>
<event>
 4    1  0.2309632E-005  0.5496763E+03  0.7818608E-02  0.1001569E+00
         -1   -1    0    0    0  501 -0.00000000000E+00  0.00000000000E+00  0.13543505777E+03  0.13543505786E+03  0.50400000000E-02 0. -1.
          1   -1    0    0  501    0  0.00000000000E+00 -0.00000000000E+00 -0.55772859385E+03  0.55772859387E+03  0.50400000000E-02 0.  1.
    5000001    1    1    2    0    0  0.20535057988E+03  0.72917713332E+02 -0.24737068774E+03  0.36865039092E+03  0.16500000000E+03 0.  0.
   -5000001    1    1    2    0    0 -0.20535057988E+03 -0.72917713332E+02 -0.17492284834E+03  0.32451326082E+03  0.16500000000E+03 0.  0.
<mgrwt>
<rscale>  0 0.54967628E+03</rscale>
<asrwt>0</asrwt>
<pdfrwt beam="1">  1        1 0.85804398E-01 0.54967628E+03</pdfrwt>
<pdfrwt beam="2">  1       -1 0.20836163E-01 0.54967628E+03</pdfrwt>
<totfact> 0.73158909E+02</totfact>
</mgrwt>
</event>
<event>
 4    1  0.2309632E-005  0.5328089E+03  0.7818608E-02  0.1005553E+00
          1   -1    0    0  501    0  0.00000000000E+00  0.00000000000E+00  0.30581909412E+03  0.30581909416E+03  0.50400000000E-02 0. -1.
         -1   -1    0    0    0  501 -0.00000000000E+00 -0.00000000000E+00 -0.23206962051E+03  0.23206962056E+03  0.50400000000E-02 0.  1.
    5000001    1    1    2    0    0  0.14949851425E+03 -0.53403267252E+02  0.17435165954E+03  0.28779370372E+03  0.16500000000E+03 0.  0.
   -5000001    1    1    2    0    0 -0.14949851425E+03  0.53403267252E+02 -0.10060218593E+03  0.25009501100E+03  0.16500000000E+03 0.  0.
<mgrwt>
<rscale>  0 0.53280886E+03</rscale>
<asrwt>0</asrwt>
<pdfrwt beam="1">  1        1 0.47049091E-01 0.53280886E+03</pdfrwt>
<pdfrwt beam="2">  1       -1 0.35703019E-01 0.53280886E+03</pdfrwt>
<totfact> 0.64555108E+02</totfact>
</mgrwt>
</event>
<event>
 4    1  0.2309632E-005  0.4352940E+03  0.7818608E-02  0.1032201E+00
         -1   -1    0    0    0  501 -0.00000000000E+00  0.00000000000E+00  0.48573912157E+03  0.48573912159E+03  0.50400000000E-02 0. -1.
          1   -1    0    0  501    0  0.00000000000E+00 -0.00000000000E+00 -0.97521917670E+02  0.97521917800E+02  0.50400000000E-02 0.  1.
    5000001    1    1    2    0    0  0.10048909448E+03  0.99428677161E+02  0.21111512649E+03  0.30295002325E+03  0.16500000000E+03 0.  0.
   -5000001    1    1    2    0    0 -0.10048909448E+03 -0.99428677161E+02  0.17710207741E+03  0.28031101615E+03  0.16500000000E+03 0.  0.
<mgrwt>
<rscale>  0 0.43529397E+03</rscale>
<asrwt>0</asrwt>
<pdfrwt beam="1">  1        1 0.15003372E-01 0.43529397E+03</pdfrwt>
<pdfrwt beam="2">  1       -1 0.74729096E-01 0.43529397E+03</pdfrwt>
<totfact> 0.70093631E+02</totfact>
</mgrwt>
</event>
<event>
 4    1  0.2309632E-005  0.4653824E+03  0.7818608E-02  0.1023232E+00
         -1   -1    0    0    0  501 -0.00000000000E+00  0.00000000000E+00  0.49129053268E+02  0.49129053527E+02  0.50400000000E-02 0. -1.
          1   -1    0    0  501    0  0.00000000000E+00 -0.00000000000E+00 -0.11021015425E+04  0.11021015426E+04  0.50400000000E-02 0.  1.
    5000001    1    1    2    0    0  0.11652895930E+03 -0.98637586784E+02 -0.37781869103E+03  0.43963659445E+03  0.16500000000E+03 0.  0.
   -5000001    1    1    2    0    0 -0.11652895930E+03  0.98637586784E+02 -0.67515379824E+03  0.71159400163E+03  0.16500000000E+03 0.  0.
<mgrwt>
<rscale>  0 0.46538245E+03</rscale>
<asrwt>0</asrwt>
<pdfrwt beam="1">  1        1 0.16955406E+00 0.46538245E+03</pdfrwt>
<pdfrwt beam="2">  1       -1 0.75583167E-02 0.46538245E+03</pdfrwt>
<totfact> 0.12579491E+03</totfact>
</mgrwt>
</event>
<event>
 4    1  0.2309632E-005  0.5034591E+03  0.7818608E-02  0.1012880E+00
          1   -1    0    0  501    0  0.00000000000E+00  0.00000000000E+00  0.76953550353E+02  0.76953550518E+02  0.50400000000E-02 0. -1.
         -1   -1    0    0    0  501 -0.00000000000E+00 -0.00000000000E+00 -0.82345488916E+03  0.82345488917E+03  0.50400000000E-02 0.  1.
    5000001    1    1    2    0    0 -0.13093814435E+03 -0.13405153667E+03 -0.43059715134E+03  0.49774844940E+03  0.16500000000E+03 0.  0.
   -5000001    1    1    2    0    0  0.13093814435E+03  0.13405153667E+03 -0.31590418746E+03  0.40265999030E+03  0.16500000000E+03 0.  0.
<mgrwt>
<rscale>  0 0.50345914E+03</rscale>
<asrwt>0</asrwt>
<pdfrwt beam="1">  1        1 0.11839008E-01 0.50345914E+03</pdfrwt>
<pdfrwt beam="2">  1       -1 0.12668536E+00 0.50345914E+03</pdfrwt>
<totfact> 0.29414395E+02</totfact>
</mgrwt>
</event>
<event>
 4    1  0.2309632E-005  0.4861360E+03  0.7818608E-02  0.1017462E+00
         -1   -1    0    0    0  501 -0.00000000000E+00  0.00000000000E+00  0.69177551519E+03  0.69177551521E+03  0.50400000000E-02 0. -1.
          1   -1    0    0  501    0  0.00000000000E+00 -0.00000000000E+00 -0.85406388861E+02  0.85406389010E+02  0.50400000000E-02 0.  1.
    5000001    1    1    2    0    0 -0.56962010386E+02  0.14287936590E+03  0.44793346894E+03  0.50152624699E+03  0.16500000000E+03 0.  0.
   -5000001    1    1    2    0    0  0.56962010386E+02 -0.14287936590E+03  0.15843565739E+03  0.27565565722E+03  0.16500000000E+03 0.  0.
<mgrwt>
<rscale>  0 0.48613598E+03</rscale>
<asrwt>0</asrwt>
<pdfrwt beam="1">  1        1 0.13139445E-01 0.48613598E+03</pdfrwt>
<pdfrwt beam="2">  1       -1 0.10642700E+00 0.48613598E+03</pdfrwt>
<totfact> 0.38747760E+02</totfact>
</mgrwt>
</event>
<event>
 4    1  0.2309632E-005  0.8416884E+03  0.7818608E-02  0.9501561E-01
          1   -1    0    0  501    0  0.00000000000E+00  0.00000000000E+00  0.11502358731E+04  0.11502358731E+04  0.50400000000E-02 0.  1.
         -1   -1    0    0    0  501 -0.00000000000E+00 -0.00000000000E+00 -0.15397699339E+03  0.15397699347E+03  0.50400000000E-02 0. -1.
    5000001    1    1    2    0    0 -0.35180580472E+03 -0.37585418293E+02  0.74167960646E+03  0.83814892862E+03  0.16500000000E+03 0.  0.
   -5000001    1    1    2    0    0  0.35180580472E+03  0.37585418293E+02  0.25457927325E+03  0.46606393797E+03  0.16500000000E+03 0.  0.
<mgrwt>
<rscale>  0 0.84168845E+03</rscale>
<asrwt>0</asrwt>
<pdfrwt beam="1">  1        1 0.17695936E+00 0.84168845E+03</pdfrwt>
<pdfrwt beam="2">  1       -1 0.23688769E-01 0.84168845E+03</pdfrwt>
<totfact> 0.18021584E+02</totfact>
</mgrwt>
</event>
<event>
 4    1  0.2309632E-005  0.4289263E+03  0.7818608E-02  0.1034200E+00
         -1   -1    0    0    0  501 -0.00000000000E+00  0.00000000000E+00  0.33910584565E+02  0.33910584940E+02  0.50400000000E-02 0. -1.
          1   -1    0    0  501    0  0.00000000000E+00 -0.00000000000E+00 -0.13563447961E+04  0.13563447961E+04  0.50400000000E-02 0.  1.
    5000001    1    1    2    0    0 -0.10824781251E+03  0.74032664830E+02 -0.78968744305E+03  0.81733082781E+03  0.16500000000E+03 0.  0.
   -5000001    1    1    2    0    0  0.10824781251E+03 -0.74032664830E+02 -0.53274676849E+03  0.57292455325E+03  0.16500000000E+03 0.  0.
<mgrwt>
<rscale>  0 0.42892631E+03</rscale>
<asrwt>0</asrwt>
<pdfrwt beam="1">  1        1 0.20866839E+00 0.42892631E+03</pdfrwt>
<pdfrwt beam="2">  1       -1 0.52170141E-02 0.42892631E+03</pdfrwt>
<totfact> 0.14684119E+03</totfact>
</mgrwt>
</event>
<event>
 4    1  0.2309632E-005  0.5385227E+03  0.7818608E-02  0.1004186E+00
         -1   -1    0    0    0  501 -0.00000000000E+00  0.00000000000E+00  0.19434402411E+03  0.19434402418E+03  0.50400000000E-02 0. -1.
          1   -1    0    0  501    0  0.00000000000E+00 -0.00000000000E+00 -0.37305839856E+03  0.37305839859E+03  0.50400000000E-02 0.  1.
    5000001    1    1    2    0    0  0.13032723892E+03 -0.12422091078E+03  0.30129242678E+02  0.24606664777E+03  0.16500000000E+03 0.  0.
   -5000001    1    1    2    0    0 -0.13032723892E+03  0.12422091078E+03 -0.20884361712E+03  0.32133577500E+03  0.16500000000E+03 0.  0.
<mgrwt>
<rscale>  0 0.53852268E+03</rscale>
<asrwt>0</asrwt>
<pdfrwt beam="1">  1        1 0.57393600E-01 0.53852268E+03</pdfrwt>
<pdfrwt beam="2">  1       -1 0.29899081E-01 0.53852268E+03</pdfrwt>
<totfact> 0.68090890E+02</totfact>
</mgrwt>
</event>
<event>
 4    1  0.2309632E-005  0.7406570E+03  0.7818608E-02  0.9650123E-01
         -1   -1    0    0    0  501 -0.00000000000E+00  0.00000000000E+00  0.20278384957E+03  0.20278384963E+03  0.50400000000E-02 0. -1.
          1   -1    0    0  501    0  0.00000000000E+00 -0.00000000000E+00 -0.67630237048E+03  0.67630237050E+03  0.50400000000E-02 0.  1.
    5000001    1    1    2    0    0  0.81966345941E+02  0.31751766750E+03 -0.29468982336E+03  0.47074732398E+03  0.16500000000E+03 0.  0.
   -5000001    1    1    2    0    0 -0.81966345941E+02 -0.31751766750E+03 -0.17882869756E+03  0.40833889615E+03  0.16500000000E+03 0.  0.
<mgrwt>
<rscale>  0 0.74065700E+03</rscale>
<asrwt>0</asrwt>
<pdfrwt beam="1">  1        1 0.10404652E+00 0.74065700E+03</pdfrwt>
<pdfrwt beam="2">  1       -1 0.31197516E-01 0.74065700E+03</pdfrwt>
<totfact> 0.27638107E+02</totfact>
</mgrwt>
</event>
<event>
 4    1  0.2309632E-005  0.3517886E+03  0.7818608E-02  0.1061883E+00
          1   -1    0    0  501    0  0.00000000000E+00  0.00000000000E+00  0.43394364442E+03  0.43394364445E+03  0.50400000000E-02 0.  1.
         -1   -1    0    0    0  501 -0.00000000000E+00 -0.00000000000E+00 -0.71296815532E+02  0.71296815710E+02  0.50400000000E-02 0. -1.
    5000001    1    1    2    0    0 -0.91379150760E+01 -0.32797080720E+02  0.25391430087E+03  0.30472384578E+03  0.16500000000E+03 0.  0.
   -5000001    1    1    2    0    0  0.91379150760E+01  0.32797080720E+02  0.10873252801E+03  0.20051661438E+03  0.16500000000E+03 0.  0.
<mgrwt>
<rscale>  0 0.35178857E+03</rscale>
<asrwt>0</asrwt>
<pdfrwt beam="1">  1        1 0.66760560E-01 0.35178857E+03</pdfrwt>
<pdfrwt beam="2">  1       -1 0.10968741E-01 0.35178857E+03</pdfrwt>
<totfact> 0.28831165E+03</totfact>
</mgrwt>
</event>
<event>
 4    1  0.2309632E-005  0.4420288E+03  0.7818608E-02  0.1030126E+00
         -1   -1    0    0    0  501 -0.00000000000E+00  0.00000000000E+00  0.15287541729E+03  0.15287541737E+03  0.50400000000E-02 0. -1.
          1   -1    0    0  501    0  0.00000000000E+00 -0.00000000000E+00 -0.31952405244E+03  0.31952405248E+03  0.50400000000E-02 0.  1.
    5000001    1    1    2    0    0  0.42849703024E+02 -0.13602629109E+03 -0.12160618441E+03  0.24970445131E+03  0.16500000000E+03 0.  0.
   -5000001    1    1    2    0    0 -0.42849703024E+02  0.13602629109E+03 -0.45042450740E+02  0.22269501855E+03  0.16500000000E+03 0.  0.
<mgrwt>
<rscale>  0 0.44202884E+03</rscale>
<asrwt>0</asrwt>
<pdfrwt beam="1">  1        1 0.49157546E-01 0.44202884E+03</pdfrwt>
<pdfrwt beam="2">  1       -1 0.23519295E-01 0.44202884E+03</pdfrwt>
<totfact> 0.12525860E+03</totfact>
</mgrwt>
</event>
<event>
 4    1  0.2309632E-005  0.5167843E+03  0.7818608E-02  0.1009488E+00
          1   -1    0    0  501    0  0.00000000000E+00  0.00000000000E+00  0.17244575301E+03  0.17244575308E+03  0.50400000000E-02 0.  1.
         -1   -1    0    0    0  501 -0.00000000000E+00 -0.00000000000E+00 -0.38717395880E+03  0.38717395883E+03  0.50400000000E-02 0. -1.
    5000001    1    1    2    0    0  0.14005052483E+03  0.95963615756E+02  0.47466962483E+01  0.23679251715E+03  0.16500000000E+03 0.  0.
   -5000001    1    1    2    0    0 -0.14005052483E+03 -0.95963615756E+02 -0.21947490203E+03  0.32282719476E+03  0.16500000000E+03 0.  0.
<mgrwt>
<rscale>  0 0.51678431E+03</rscale>
<asrwt>0</asrwt>
<pdfrwt beam="1">  1        1 0.26530116E-01 0.51678431E+03</pdfrwt>
<pdfrwt beam="2">  1       -1 0.59565224E-01 0.51678431E+03</pdfrwt>
<totfact> 0.52187659E+02</totfact>
</mgrwt>
</event>
<event>
 4    1  0.2309632E-005  0.4214773E+03  0.7818608E-02  0.1036587E+00
         -1   -1    0    0    0  501 -0.00000000000E+00  0.00000000000E+00  0.24460098569E+04  0.24460098569E+04  0.50400000000E-02 0.  1.
          1   -1    0    0  501    0  0.00000000000E+00 -0.00000000000E+00 -0.18156420066E+02  0.18156420766E+02  0.50400000000E-02 0. -1.
    5000001    1    1    2    0    0  0.78327820403E+02  0.72914800713E+02  0.16566408845E+04  0.16682733096E+04  0.16500000000E+03 0.  0.
   -5000001    1    1    2    0    0 -0.78327820403E+02 -0.72914800713E+02  0.77121255237E+03  0.79589296802E+03  0.16500000000E+03 0.  0.
<mgrwt>
<rscale>  0 0.42147732E+03</rscale>
<asrwt>0</asrwt>
<pdfrwt beam="1">  1        1 0.27932972E-02 0.42147732E+03</pdfrwt>
<pdfrwt beam="2">  1       -1 0.37630897E+00 0.42147732E+03</pdfrwt>
<totfact> 0.46378092E+01</totfact>
</mgrwt>
</event>
<event>
 4    1  0.2309632E-005  0.4930749E+03  0.7818608E-02  0.1015602E+00
          1   -1    0    0  501    0  0.00000000000E+00  0.00000000000E+00  0.19360623744E+03  0.19360623751E+03  0.50400000000E-02 0.  1.
         -1   -1    0    0    0  501 -0.00000000000E+00 -0.00000000000E+00 -0.31393980806E+03  0.31393980810E+03  0.50400000000E-02 0. -1.
    5000001    1    1    2    0    0 -0.11143847987E+03 -0.69009153265E+02  0.71553301213E+02  0.22254364279E+03  0.16500000000E+03 0.  0.
   -5000001    1    1    2    0    0  0.11143847987E+03  0.69009153265E+02 -0.19188687183E+03  0.28500240282E+03  0.16500000000E+03 0.  0.
<mgrwt>
<rscale>  0 0.49307486E+03</rscale>
<asrwt>0</asrwt>
<pdfrwt beam="1">  1        1 0.29785575E-01 0.49307486E+03</pdfrwt>
<pdfrwt beam="2">  1       -1 0.48298432E-01 0.49307486E+03</pdfrwt>
<totfact> 0.67069801E+02</totfact>
</mgrwt>
</event>
<event>
 4    1  0.2309632E-005  0.7751555E+03  0.7818608E-02  0.9596691E-01
         -1   -1    0    0    0  501 -0.00000000000E+00  0.00000000000E+00  0.19055187742E+03  0.19055187749E+03  0.50400000000E-02 0. -1.
          1   -1    0    0  501    0  0.00000000000E+00 -0.00000000000E+00 -0.78832350940E+03  0.78832350941E+03  0.50400000000E-02 0.  1.
    5000001    1    1    2    0    0 -0.17876919820E+03  0.23198151984E+03 -0.54250594319E+03  0.63820964437E+03  0.16500000000E+03 0.  0.
   -5000001    1    1    2    0    0  0.17876919820E+03 -0.23198151984E+03 -0.55265688785E+02  0.34066574252E+03  0.16500000000E+03 0.  0.
<mgrwt>
<rscale>  0 0.77515553E+03</rscale>
<asrwt>0</asrwt>
<pdfrwt beam="1">  1        1 0.12128054E+00 0.77515553E+03</pdfrwt>
<pdfrwt beam="2">  1       -1 0.29315674E-01 0.77515553E+03</pdfrwt>
<totfact> 0.24299606E+02</totfact>
</mgrwt>
</event>
<event>
 4    1  0.2309632E-005  0.3778757E+03  0.7818608E-02  0.1051722E+00
          1   -1    0    0  501    0  0.00000000000E+00  0.00000000000E+00  0.70924241415E+03  0.70924241417E+03  0.50400000000E-02 0.  1.
         -1   -1    0    0    0  501 -0.00000000000E+00 -0.00000000000E+00 -0.50331885899E+02  0.50331886152E+02  0.50400000000E-02 0. -1.
    5000001    1    1    2    0    0 -0.41642277597E+02  0.73700545733E+02  0.25679409404E+03  0.31675551528E+03  0.16500000000E+03 0.  0.
   -5000001    1    1    2    0    0  0.41642277597E+02 -0.73700545733E+02  0.40211643421E+03  0.44281878505E+03  0.16500000000E+03 0.  0.
<mgrwt>
<rscale>  0 0.37787569E+03</rscale>
<asrwt>0</asrwt>
<pdfrwt beam="1">  1        1 0.10911422E+00 0.37787569E+03</pdfrwt>
<pdfrwt beam="2">  1       -1 0.77433668E-02 0.37787569E+03</pdfrwt>
<totfact> 0.25111244E+03</totfact>
</mgrwt>
</event>
<event>
 4    1  0.2309632E-005  0.6737989E+03  0.7818608E-02  0.9763119E-01
         -1   -1    0    0    0  501 -0.00000000000E+00  0.00000000000E+00  0.11302101444E+03  0.11302101455E+03  0.50400000000E-02 0. -1.
          1   -1    0    0  501    0  0.00000000000E+00 -0.00000000000E+00 -0.10042491251E+04  0.10042491252E+04  0.50400000000E-02 0.  1.
    5000001    1    1    2    0    0  0.99514893984E+02  0.25679348530E+03 -0.27626878427E+03  0.42355111778E+03  0.16500000000E+03 0.  0.
   -5000001    1    1    2    0    0 -0.99514893984E+02 -0.25679348530E+03 -0.61495932643E+03  0.69371902192E+03  0.16500000000E+03 0.  0.
<mgrwt>
<rscale>  0 0.67379895E+03</rscale>
<asrwt>0</asrwt>
<pdfrwt beam="1">  1        1 0.15449986E+00 0.67379895E+03</pdfrwt>
<pdfrwt beam="2">  1       -1 0.17387849E-01 0.67379895E+03</pdfrwt>
<totfact> 0.39276217E+02</totfact>
</mgrwt>
</event>
<event>
 4    1  0.2309632E-005  0.4211602E+03  0.7818608E-02  0.1036689E+00
         -1   -1    0    0    0  501 -0.00000000000E+00  0.00000000000E+00  0.14189658360E+02  0.14189659255E+02  0.50400000000E-02 0. -1.
          1   -1    0    0  501    0  0.00000000000E+00 -0.00000000000E+00 -0.31250907507E+04  0.31250907507E+04  0.50400000000E-02 0.  1.
    5000001    1    1    2    0    0  0.12452769575E+03  0.59947206306E+01 -0.18513508909E+04  0.18628655896E+04  0.16500000000E+03 0.  0.
   -5000001    1    1    2    0    0 -0.12452769575E+03 -0.59947206306E+01 -0.12595502015E+04  0.12764148204E+04  0.16500000000E+03 0.  0.
<mgrwt>
<rscale>  0 0.42116017E+03</rscale>
<asrwt>0</asrwt>
<pdfrwt beam="1">  1        1 0.48078265E+00 0.42116017E+03</pdfrwt>
<pdfrwt beam="2">  1       -1 0.21830269E-02 0.42116017E+03</pdfrwt>
<totfact> 0.34693771E+02</totfact>
</mgrwt>
</event>
<event>
 4    1  0.2309632E-005  0.5511310E+03  0.7818608E-02  0.1001232E+00
         -1   -1    0    0    0  501 -0.00000000000E+00  0.00000000000E+00  0.24057731740E+03  0.24057731745E+03  0.50400000000E-02 0. -1.
          1   -1    0    0  501    0  0.00000000000E+00 -0.00000000000E+00 -0.31564221928E+03  0.31564221932E+03  0.50400000000E-02 0.  1.
    5000001    1    1    2    0    0 -0.70179313547E+01  0.18204365670E+03 -0.16327092770E+03  0.29507887105E+03  0.16500000000E+03 0.  0.
   -5000001    1    1    2    0    0  0.70179313547E+01 -0.18204365670E+03  0.88206025818E+02  0.26114066573E+03  0.16500000000E+03 0.  0.
<mgrwt>
<rscale>  0 0.55113105E+03</rscale>
<asrwt>0</asrwt>
<pdfrwt beam="1">  1        1 0.48560341E-01 0.55113105E+03</pdfrwt>
<pdfrwt beam="2">  1       -1 0.37011895E-01 0.55113105E+03</pdfrwt>
<totfact> 0.58109983E+02</totfact>
</mgrwt>
</event>
<event>
 4    1  0.2309632E-005  0.5235807E+03  0.7818608E-02  0.1007801E+00
          1   -1    0    0  501    0  0.00000000000E+00  0.00000000000E+00  0.16600612442E+04  0.16600612442E+04  0.50400000000E-02 0. -1.
         -1   -1    0    0    0  501 -0.00000000000E+00 -0.00000000000E+00 -0.41284134699E+02  0.41284135007E+02  0.50400000000E-02 0.  1.
    5000001    1    1    2    0    0 -0.18672114723E+03  0.74008223016E+02  0.70833202571E+03  0.75452055144E+03  0.16500000000E+03 0.  0.
   -5000001    1    1    2    0    0  0.18672114723E+03 -0.74008223016E+02  0.91044508383E+03  0.94682482781E+03  0.16500000000E+03 0.  0.
<mgrwt>
<rscale>  0 0.52358072E+03</rscale>
<asrwt>0</asrwt>
<pdfrwt beam="1">  1        1 0.25539408E+00 0.52358072E+03</pdfrwt>
<pdfrwt beam="2">  1       -1 0.63514044E-02 0.52358072E+03</pdfrwt>
<totfact> 0.67417940E+02</totfact>
</mgrwt>
</event>
<event>
 4    1  0.2309632E-005  0.4527356E+03  0.7818608E-02  0.1026909E+00
          1   -1    0    0  501    0  0.00000000000E+00  0.00000000000E+00  0.10264695461E+03  0.10264695474E+03  0.50400000000E-02 0.  1.
         -1   -1    0    0    0  501 -0.00000000000E+00 -0.00000000000E+00 -0.49920986046E+03  0.49920986049E+03  0.50400000000E-02 0. -1.
    5000001    1    1    2    0    0 -0.10281407941E+03 -0.24326279763E+02 -0.47557455237E+02  0.20161650320E+03  0.16500000000E+03 0.  0.
   -5000001    1    1    2    0    0  0.10281407941E+03  0.24326279763E+02 -0.34900545061E+03  0.40024031202E+03  0.16500000000E+03 0.  0.
<mgrwt>
<rscale>  0 0.45273556E+03</rscale>
<asrwt>0</asrwt>
<pdfrwt beam="1">  1        1 0.15791839E-01 0.45273556E+03</pdfrwt>
<pdfrwt beam="2">  1       -1 0.76801516E-01 0.45273556E+03</pdfrwt>
<totfact> 0.61863445E+02</totfact>
</mgrwt>
</event>
<event>
 4    1  0.2309632E-005  0.7335957E+03  0.7818608E-02  0.9661443E-01
          1   -1    0    0  501    0  0.00000000000E+00  0.00000000000E+00  0.46086660616E+03  0.46086660619E+03  0.50400000000E-02 0.  1.
         -1   -1    0    0    0  501 -0.00000000000E+00 -0.00000000000E+00 -0.29192976619E+03  0.29192976624E+03  0.50400000000E-02 0. -1.
    5000001    1    1    2    0    0  0.55323264767E-01  0.32757550773E+03  0.87707665258E+02  0.37712511302E+03  0.16500000000E+03 0.  0.
   -5000001    1    1    2    0    0 -0.55323264767E-01 -0.32757550773E+03  0.81229174714E+02  0.37567125941E+03  0.16500000000E+03 0.  0.
<mgrwt>
<rscale>  0 0.73359575E+03</rscale>
<asrwt>0</asrwt>
<pdfrwt beam="1">  1        1 0.70902555E-01 0.73359575E+03</pdfrwt>
<pdfrwt beam="2">  1       -1 0.44912272E-01 0.73359575E+03</pdfrwt>
<totfact> 0.24675786E+02</totfact>
</mgrwt>
</event>
<event>
 4    1  0.2309632E-005  0.4901394E+03  0.7818608E-02  0.1016385E+00
         -1   -1    0    0    0  501 -0.00000000000E+00  0.00000000000E+00  0.12274006440E+03  0.12274006450E+03  0.50400000000E-02 0.  1.
          1   -1    0    0  501    0  0.00000000000E+00 -0.00000000000E+00 -0.48931986175E+03  0.48931986178E+03  0.50400000000E-02 0. -1.
    5000001    1    1    2    0    0  0.41683454957E+02 -0.13886858071E+03 -0.47571420033E+02  0.22474437286E+03  0.16500000000E+03 0.  0.
   -5000001    1    1    2    0    0 -0.41683454957E+02  0.13886858071E+03 -0.31900837732E+03  0.38731555343E+03  0.16500000000E+03 0.  0.
<mgrwt>
<rscale>  0 0.49013937E+03</rscale>
<asrwt>0</asrwt>
<pdfrwt beam="1">  1        1 0.75279978E-01 0.49013937E+03</pdfrwt>
<pdfrwt beam="2">  1       -1 0.18883087E-01 0.49013937E+03</pdfrwt>
<totfact> 0.10314241E+03</totfact>
</mgrwt>
</event>
<event>
 4    1  0.2309632E-005  0.4338288E+03  0.7818608E-02  0.1032657E+00
         -1   -1    0    0    0  501 -0.00000000000E+00  0.00000000000E+00  0.67607128449E+02  0.67607128637E+02  0.50400000000E-02 0. -1.
          1   -1    0    0  501    0  0.00000000000E+00 -0.00000000000E+00 -0.69595991036E+03  0.69595991038E+03  0.50400000000E-02 0.  1.
    5000001    1    1    2    0    0  0.41793586981E+02  0.12916625952E+03 -0.37994315392E+03  0.43590414855E+03  0.16500000000E+03 0.  0.
   -5000001    1    1    2    0    0 -0.41793586981E+02 -0.12916625952E+03 -0.24840962799E+03  0.32766289047E+03  0.16500000000E+03 0.  0.
<mgrwt>
<rscale>  0 0.43382877E+03</rscale>
<asrwt>0</asrwt>
<pdfrwt beam="1">  1        1 0.10707075E+00 0.43382877E+03</pdfrwt>
<pdfrwt beam="2">  1       -1 0.10401097E-01 0.43382877E+03</pdfrwt>
<totfact> 0.16334928E+03</totfact>
</mgrwt>
</event>
<event>
 4    1  0.2309632E-005  0.8914840E+03  0.7818608E-02  0.9436290E-01
          1   -1    0    0  501    0  0.00000000000E+00  0.00000000000E+00  0.80262579548E+03  0.80262579549E+03  0.50400000000E-02 0.  1.
         -1   -1    0    0    0  501 -0.00000000000E+00 -0.00000000000E+00 -0.24754493001E+03  0.24754493006E+03  0.50400000000E-02 0. -1.
    5000001    1    1    2    0    0 -0.28209017120E+03 -0.27152822934E+03  0.43628042363E+03  0.60898936942E+03  0.16500000000E+03 0.  0.
   -5000001    1    1    2    0    0  0.28209017120E+03  0.27152822934E+03  0.11880044183E+03  0.44118135613E+03  0.16500000000E+03 0.  0.
<mgrwt>
<rscale>  0 0.89148404E+03</rscale>
<asrwt>0</asrwt>
<pdfrwt beam="1">  1        1 0.12348089E+00 0.89148404E+03</pdfrwt>
<pdfrwt beam="2">  1       -1 0.38083835E-01 0.89148404E+03</pdfrwt>
<totfact> 0.14753832E+02</totfact>
</mgrwt>
</event>
<event>
 4    1  0.2309632E-005  0.7155864E+03  0.7818608E-02  0.9690943E-01
         -1   -1    0    0    0  501 -0.00000000000E+00  0.00000000000E+00  0.23733443354E+03  0.23733443360E+03  0.50400000000E-02 0. -1.
          1   -1    0    0  501    0  0.00000000000E+00 -0.00000000000E+00 -0.53939061330E+03  0.53939061333E+03  0.50400000000E-02 0.  1.
    5000001    1    1    2    0    0  0.39490187406E+02  0.25626463189E+03  0.47817408811E+02  0.31103462997E+03  0.16500000000E+03 0.  0.
   -5000001    1    1    2    0    0 -0.39490187406E+02 -0.25626463189E+03 -0.34987358857E+03  0.46569041695E+03  0.16500000000E+03 0.  0.
<mgrwt>
<rscale>  0 0.71558638E+03</rscale>
<asrwt>0</asrwt>
<pdfrwt beam="1">  1        1 0.82983171E-01 0.71558638E+03</pdfrwt>
<pdfrwt beam="2">  1       -1 0.36512990E-01 0.71558638E+03</pdfrwt>
<totfact> 0.29015429E+02</totfact>
</mgrwt>
</event>
<event>
 4    1  0.2309632E-005  0.8474814E+03  0.7818608E-02  0.9493724E-01
         -1   -1    0    0    0  501 -0.00000000000E+00  0.00000000000E+00  0.37409435323E+02  0.37409435662E+02  0.50400000000E-02 0. -1.
          1   -1    0    0  501    0  0.00000000000E+00 -0.00000000000E+00 -0.47997560784E+04  0.47997560784E+04  0.50400000000E-02 0.  1.
    5000001    1    1    2    0    0 -0.29638676583E+03  0.23572598424E+03 -0.29202200817E+04  0.29492918099E+04  0.16500000000E+03 0.  0.
   -5000001    1    1    2    0    0  0.29638676583E+03 -0.23572598424E+03 -0.18421265614E+04  0.18878737042E+04  0.16500000000E+03 0.  0.
<mgrwt>
<rscale>  0 0.84748136E+03</rscale>
<asrwt>0</asrwt>
<pdfrwt beam="1">  1        1 0.73842352E+00 0.84748136E+03</pdfrwt>
<pdfrwt beam="2">  1       -1 0.57553016E-02 0.84748136E+03</pdfrwt>
<totfact> 0.25442983E+00</totfact>
</mgrwt>
</event>
<event>
 4    1  0.2309632E-005  0.7616129E+03  0.7818608E-02  0.9617306E-01
         -1   -1    0    0    0  501 -0.00000000000E+00  0.00000000000E+00  0.70865656728E+03  0.70865656729E+03  0.50400000000E-02 0. -1.
          1   -1    0    0  501    0  0.00000000000E+00 -0.00000000000E+00 -0.20463165739E+03  0.20463165745E+03  0.50400000000E-02 0.  1.
    5000001    1    1    2    0    0 -0.12030176452E+03  0.31974104253E+03  0.21257301022E+03  0.43487829734E+03  0.16500000000E+03 0.  0.
   -5000001    1    1    2    0    0  0.12030176452E+03 -0.31974104253E+03  0.29145189967E+03  0.47840992741E+03  0.16500000000E+03 0.  0.
<mgrwt>
<rscale>  0 0.76161294E+03</rscale>
<asrwt>0</asrwt>
<pdfrwt beam="1">  1        1 0.31481793E-01 0.76161294E+03</pdfrwt>
<pdfrwt beam="2">  1       -1 0.10902409E+00 0.76161294E+03</pdfrwt>
<totfact> 0.11415059E+02</totfact>
</mgrwt>
</event>
<event>
 4    1  0.2309632E-005  0.7754166E+03  0.7818608E-02  0.9596298E-01
          1   -1    0    0  501    0  0.00000000000E+00  0.00000000000E+00  0.30347897164E+03  0.30347897169E+03  0.50400000000E-02 0. -1.
         -1   -1    0    0    0  501 -0.00000000000E+00 -0.00000000000E+00 -0.49531509789E+03  0.49531509792E+03  0.50400000000E-02 0.  1.
    5000001    1    1    2    0    0 -0.34978626472E+03  0.27208733792E+02 -0.97364090647E+02  0.39974430868E+03  0.16500000000E+03 0.  0.
   -5000001    1    1    2    0    0  0.34978626472E+03 -0.27208733792E+02 -0.94472035599E+02  0.39904976092E+03  0.16500000000E+03 0.  0.
<mgrwt>
<rscale>  0 0.77541658E+03</rscale>
<asrwt>0</asrwt>
<pdfrwt beam="1">  1        1 0.46689073E-01 0.77541658E+03</pdfrwt>
<pdfrwt beam="2">  1       -1 0.76202323E-01 0.77541658E+03</pdfrwt>
<totfact> 0.15131574E+02</totfact>
</mgrwt>
</event>
<event>
 4    1  0.2309632E-005  0.3802455E+03  0.7818608E-02  0.1050843E+00
          1   -1    0    0  501    0  0.00000000000E+00  0.00000000000E+00  0.30870217291E+03  0.30870217295E+03  0.50400000000E-02 0.  1.
         -1   -1    0    0    0  501 -0.00000000000E+00 -0.00000000000E+00 -0.11709233762E+03  0.11709233773E+03  0.50400000000E-02 0. -1.
    5000001    1    1    2    0    0  0.70841497106E+02  0.62315692793E+02  0.10079970224E+03  0.21514493546E+03  0.16500000000E+03 0.  0.
   -5000001    1    1    2    0    0 -0.70841497106E+02 -0.62315692793E+02  0.90810133049E+02  0.21064957523E+03  0.16500000000E+03 0.  0.
<mgrwt>
<rscale>  0 0.38024549E+03</rscale>
<asrwt>0</asrwt>
<pdfrwt beam="1">  1        1 0.47492642E-01 0.38024549E+03</pdfrwt>
<pdfrwt beam="2">  1       -1 0.18014206E-01 0.38024549E+03</pdfrwt>
<totfact> 0.20299207E+03</totfact>
</mgrwt>
</event>
<event>
 4    1  0.2309632E-005  0.4389232E+03  0.7818608E-02  0.1031078E+00
         -1   -1    0    0    0  501 -0.00000000000E+00  0.00000000000E+00  0.88740979676E+02  0.88740979819E+02  0.50400000000E-02 0. -1.
          1   -1    0    0  501    0  0.00000000000E+00 -0.00000000000E+00 -0.54274120607E+03  0.54274120610E+03  0.50400000000E-02 0.  1.
    5000001    1    1    2    0    0  0.92448574709E+02  0.86135900342E+02 -0.12555076579E+03  0.24280470976E+03  0.16500000000E+03 0.  0.
   -5000001    1    1    2    0    0 -0.92448574709E+02 -0.86135900342E+02 -0.32844946061E+03  0.38867747615E+03  0.16500000000E+03 0.  0.
<mgrwt>
<rscale>  0 0.43892317E+03</rscale>
<asrwt>0</asrwt>
<pdfrwt beam="1">  1        1 0.83498645E-01 0.43892317E+03</pdfrwt>
<pdfrwt beam="2">  1       -1 0.13652459E-01 0.43892317E+03</pdfrwt>
<totfact> 0.15142080E+03</totfact>
</mgrwt>
</event>
<event>
 4    1  0.2309632E-005  0.3948020E+03  0.7818608E-02  0.1045595E+00
         -1   -1    0    0    0  501 -0.00000000000E+00  0.00000000000E+00  0.22218818152E+03  0.22218818157E+03  0.50400000000E-02 0. -1.
          1   -1    0    0  501    0  0.00000000000E+00 -0.00000000000E+00 -0.17537905660E+03  0.17537905667E+03  0.50400000000E-02 0.  1.
    5000001    1    1    2    0    0  0.10335037063E+03 -0.25818495313E+02  0.43399614684E+02  0.20113781436E+03  0.16500000000E+03 0.  0.
   -5000001    1    1    2    0    0 -0.10335037063E+03  0.25818495313E+02  0.34095102303E+01  0.19642942389E+03  0.16500000000E+03 0.  0.
<mgrwt>
<rscale>  0 0.39480199E+03</rscale>
<asrwt>0</asrwt>
<pdfrwt beam="1">  1        1 0.26981393E-01 0.39480199E+03</pdfrwt>
<pdfrwt beam="2">  1       -1 0.34182797E-01 0.39480199E+03</pdfrwt>
<totfact> 0.14208893E+03</totfact>
</mgrwt>
</event>
<event>
 4    1  0.2309632E-005  0.3982842E+03  0.7818608E-02  0.1044375E+00
         -1   -1    0    0    0  501 -0.00000000000E+00  0.00000000000E+00  0.32060858508E+03  0.32060858512E+03  0.50400000000E-02 0. -1.
          1   -1    0    0  501    0  0.00000000000E+00 -0.00000000000E+00 -0.12369466563E+03  0.12369466574E+03  0.50400000000E-02 0.  1.
    5000001    1    1    2    0    0  0.96010626593E+02  0.45536374253E+02  0.60775862387E+02  0.20545147176E+03  0.16500000000E+03 0.  0.
   -5000001    1    1    2    0    0 -0.96010626593E+02 -0.45536374253E+02  0.13613805706E+03  0.23885177910E+03  0.16500000000E+03 0.  0.
<mgrwt>
<rscale>  0 0.39828418E+03</rscale>
<asrwt>0</asrwt>
<pdfrwt beam="1">  1        1 0.19029949E-01 0.39828418E+03</pdfrwt>
<pdfrwt beam="2">  1       -1 0.49324397E-01 0.39828418E+03</pdfrwt>
<totfact> 0.11531915E+03</totfact>
</mgrwt>
</event>
<event>
 4    1  0.2309632E-005  0.7465160E+03  0.7818608E-02  0.9640832E-01
          1   -1    0    0  501    0  0.00000000000E+00  0.00000000000E+00  0.19643011242E+04  0.19643011242E+04  0.50400000000E-02 0.  1.
         -1   -1    0    0    0  501 -0.00000000000E+00 -0.00000000000E+00 -0.70926763063E+02  0.70926763242E+02  0.50400000000E-02 0. -1.
    5000001    1    1    2    0    0 -0.32338170067E+03  0.64987105625E+02  0.11032413107E+04  0.11632563939E+04  0.16500000000E+03 0.  0.
   -5000001    1    1    2    0    0  0.32338170067E+03 -0.64987105625E+02  0.79013305041E+03  0.87197149355E+03  0.16500000000E+03 0.  0.
<mgrwt>
<rscale>  0 0.74651596E+03</rscale>
<asrwt>0</asrwt>
<pdfrwt beam="1">  1        1 0.30220021E+00 0.74651596E+03</pdfrwt>
<pdfrwt beam="2">  1       -1 0.10911808E-01 0.74651596E+03</pdfrwt>
<totfact> 0.17806673E+02</totfact>
</mgrwt>
</event>
<event>
 4    1  0.2309632E-005  0.7631042E+03  0.7818608E-02  0.9615013E-01
         -1   -1    0    0    0  501 -0.00000000000E+00  0.00000000000E+00  0.18653158988E+04  0.18653158988E+04  0.50400000000E-02 0. -1.
          1   -1    0    0  501    0  0.00000000000E+00 -0.00000000000E+00 -0.78046841225E+02  0.78046841387E+02  0.50400000000E-02 0.  1.
    5000001    1    1    2    0    0 -0.33490136367E+03 -0.62150298870E+02  0.10167049047E+04  0.10848665569E+04  0.16500000000E+03 0.  0.
   -5000001    1    1    2    0    0  0.33490136367E+03  0.62150298870E+02  0.77056415284E+03  0.85849618326E+03  0.16500000000E+03 0.  0.
<mgrwt>
<rscale>  0 0.76310422E+03</rscale>
<asrwt>0</asrwt>
<pdfrwt beam="1">  1        1 0.12007208E-01 0.76310422E+03</pdfrwt>
<pdfrwt beam="2">  1       -1 0.28697163E+00 0.76310422E+03</pdfrwt>
<totfact> 0.21722317E+01</totfact>
</mgrwt>
</event>
<event>
 4    1  0.2309632E-005  0.8465349E+03  0.7818608E-02  0.9494999E-01
          1   -1    0    0  501    0  0.00000000000E+00  0.00000000000E+00  0.88671586781E+03  0.88671586782E+03  0.50400000000E-02 0.  1.
         -1   -1    0    0    0  501 -0.00000000000E+00 -0.00000000000E+00 -0.20204369261E+03  0.20204369267E+03  0.50400000000E-02 0. -1.
    5000001    1    1    2    0    0 -0.35588492401E+03  0.11114595122E+01  0.54680767546E+03  0.67296281355E+03  0.16500000000E+03 0.  0.
   -5000001    1    1    2    0    0  0.35588492401E+03 -0.11114595122E+01  0.13786449974E+03  0.41579674694E+03  0.16500000000E+03 0.  0.
<mgrwt>
<rscale>  0 0.84653493E+03</rscale>
<asrwt>0</asrwt>
<pdfrwt beam="1">  1        1 0.13641782E+00 0.84653493E+03</pdfrwt>
<pdfrwt beam="2">  1       -1 0.31083645E-01 0.84653493E+03</pdfrwt>
<totfact> 0.18035650E+02</totfact>
</mgrwt>
</event>
<event>
 4    1  0.2309632E-005  0.5080258E+03  0.7818608E-02  0.1011705E+00
          1   -1    0    0  501    0  0.00000000000E+00  0.00000000000E+00  0.17023453116E+03  0.17023453123E+03  0.50400000000E-02 0.  1.
         -1   -1    0    0    0  501 -0.00000000000E+00 -0.00000000000E+00 -0.37902148529E+03  0.37902148532E+03  0.50400000000E-02 0. -1.
    5000001    1    1    2    0    0 -0.15146973891E+03 -0.11724444081E+03 -0.13105676972E+03  0.28476344147E+03  0.16500000000E+03 0.  0.
   -5000001    1    1    2    0    0  0.15146973891E+03  0.11724444081E+03 -0.77730184416E+02  0.26449257509E+03  0.16500000000E+03 0.  0.
<mgrwt>
<rscale>  0 0.50802577E+03</rscale>
<asrwt>0</asrwt>
<pdfrwt beam="1">  1        1 0.26189928E-01 0.50802577E+03</pdfrwt>
<pdfrwt beam="2">  1       -1 0.58310998E-01 0.50802577E+03</pdfrwt>
<totfact> 0.55323605E+02</totfact>
</mgrwt>
</event>
<event>
 4    1  0.2309632E-005  0.3962115E+03  0.7818608E-02  0.1045099E+00
         -1   -1    0    0    0  501 -0.00000000000E+00  0.00000000000E+00  0.11987861468E+03  0.11987861479E+03  0.50400000000E-02 0. -1.
          1   -1    0    0  501    0  0.00000000000E+00 -0.00000000000E+00 -0.32738022859E+03  0.32738022863E+03  0.50400000000E-02 0.  1.
    5000001    1    1    2    0    0 -0.85065613995E+02 -0.40093101409E+02 -0.16738039543E+03  0.25314978222E+03  0.16500000000E+03 0.  0.
   -5000001    1    1    2    0    0  0.85065613995E+02  0.40093101409E+02 -0.40121218483E+02  0.19410906119E+03  0.16500000000E+03 0.  0.
<mgrwt>
<rscale>  0 0.39621150E+03</rscale>
<asrwt>0</asrwt>
<pdfrwt beam="1">  1        1 0.50366189E-01 0.39621150E+03</pdfrwt>
<pdfrwt beam="2">  1       -1 0.18442864E-01 0.39621150E+03</pdfrwt>
<totfact> 0.18133241E+03</totfact>
</mgrwt>
</event>
<event>
 4    1  0.2309632E-005  0.5074382E+03  0.7818608E-02  0.1011855E+00
          1   -1    0    0  501    0  0.00000000000E+00  0.00000000000E+00  0.78209337521E+03  0.78209337523E+03  0.50400000000E-02 0.  1.
         -1   -1    0    0    0  501 -0.00000000000E+00 -0.00000000000E+00 -0.82309067596E+02  0.82309067750E+02  0.50400000000E-02 0. -1.
    5000001    1    1    2    0    0  0.31409335390E+01  0.19270573483E+03  0.34693633172E+03  0.42980831072E+03  0.16500000000E+03 0.  0.
   -5000001    1    1    2    0    0 -0.31409335390E+01 -0.19270573483E+03  0.35284797590E+03  0.43459413226E+03  0.16500000000E+03 0.  0.
<mgrwt>
<rscale>  0 0.50743818E+03</rscale>
<asrwt>0</asrwt>
<pdfrwt beam="1">  1        1 0.12032206E+00 0.50743818E+03</pdfrwt>
<pdfrwt beam="2">  1       -1 0.12662933E-01 0.50743818E+03</pdfrwt>
<totfact> 0.10012187E+03</totfact>
</mgrwt>
</event>
<event>
 4    1  0.2309632E-005  0.4784564E+03  0.7818608E-02  0.1019560E+00
          1   -1    0    0  501    0  0.00000000000E+00  0.00000000000E+00  0.45748889451E+03  0.45748889453E+03  0.50400000000E-02 0. -1.
         -1   -1    0    0    0  501 -0.00000000000E+00 -0.00000000000E+00 -0.12509621192E+03  0.12509621202E+03  0.50400000000E-02 0.  1.
    5000001    1    1    2    0    0  0.11623952068E+03 -0.62410549132E+02  0.29525725620E+02  0.21331542674E+03  0.16500000000E+03 0.  0.
   -5000001    1    1    2    0    0 -0.11623952068E+03  0.62410549132E+02  0.30286695697E+03  0.36926967982E+03  0.16500000000E+03 0.  0.
<mgrwt>
<rscale>  0 0.47845638E+03</rscale>
<asrwt>0</asrwt>
<pdfrwt beam="1">  1        1 0.70382906E-01 0.47845638E+03</pdfrwt>
<pdfrwt beam="2">  1       -1 0.19245571E-01 0.47845638E+03</pdfrwt>
<totfact> 0.10942605E+03</totfact>
</mgrwt>
</event>
<event>
 4    1  0.2309632E-005  0.3748009E+03  0.7818608E-02  0.1052872E+00
          1   -1    0    0  501    0  0.00000000000E+00  0.00000000000E+00  0.73124745448E+03  0.73124745450E+03  0.50400000000E-02 0.  1.
         -1   -1    0    0    0  501 -0.00000000000E+00 -0.00000000000E+00 -0.48026043086E+02  0.48026043351E+02  0.50400000000E-02 0. -1.
    5000001    1    1    2    0    0 -0.60063383798E+02 -0.58506181059E+02  0.40270208005E+03  0.44319809180E+03  0.16500000000E+03 0.  0.
   -5000001    1    1    2    0    0  0.60063383798E+02  0.58506181059E+02  0.28051933134E+03  0.33607540605E+03  0.16500000000E+03 0.  0.
<mgrwt>
<rscale>  0 0.37480086E+03</rscale>
<asrwt>0</asrwt>
<pdfrwt beam="1">  1        1 0.11249960E+00 0.37480086E+03</pdfrwt>
<pdfrwt beam="2">  1       -1 0.73886229E-02 0.37480086E+03</pdfrwt>
<totfact> 0.25783694E+03</totfact>
</mgrwt>
</event>
<event>
 4    1  0.2309632E-005  0.3459320E+03  0.7818608E-02  0.1064297E+00
         -1   -1    0    0    0  501 -0.00000000000E+00  0.00000000000E+00  0.39387511418E+03  0.39387511421E+03  0.50400000000E-02 0. -1.
          1   -1    0    0  501    0  0.00000000000E+00 -0.00000000000E+00 -0.75956128803E+02  0.75956128970E+02  0.50400000000E-02 0.  1.
    5000001    1    1    2    0    0  0.13150434968E+01  0.50034907304E+02  0.17753244388E+03  0.24748331240E+03  0.16500000000E+03 0.  0.
   -5000001    1    1    2    0    0 -0.13150434968E+01 -0.50034907304E+02  0.14038654150E+03  0.22234793078E+03  0.16500000000E+03 0.  0.
<mgrwt>
<rscale>  0 0.34593195E+03</rscale>
<asrwt>0</asrwt>
<pdfrwt beam="1">  1        1 0.11685558E-01 0.34593195E+03</pdfrwt>
<pdfrwt beam="2">  1       -1 0.60596171E-01 0.34593195E+03</pdfrwt>
<totfact> 0.14873324E+03</totfact>
</mgrwt>
</event>
<event>
 4    1  0.2309632E-005  0.3808994E+03  0.7818608E-02  0.1050602E+00
         -1   -1    0    0    0  501 -0.00000000000E+00  0.00000000000E+00  0.29086246878E+03  0.29086246882E+03  0.50400000000E-02 0.  1.
          1   -1    0    0  501    0  0.00000000000E+00 -0.00000000000E+00 -0.12470182891E+03  0.12470182902E+03  0.50400000000E-02 0. -1.
    5000001    1    1    2    0    0  0.36292895625E+02 -0.83827752883E+02  0.11198308765E+03  0.21933872970E+03  0.16500000000E+03 0.  0.
   -5000001    1    1    2    0    0 -0.36292895625E+02  0.83827752883E+02  0.54177552209E+02  0.19622556813E+03  0.16500000000E+03 0.  0.
<mgrwt>
<rscale>  0 0.38089937E+03</rscale>
<asrwt>0</asrwt>
<pdfrwt beam="1">  1        1 0.19184897E-01 0.38089937E+03</pdfrwt>
<pdfrwt beam="2">  1       -1 0.44748071E-01 0.38089937E+03</pdfrwt>
<totfact> 0.13651378E+03</totfact>
</mgrwt>
</event>
<event>
 4    1  0.2309632E-005  0.4607676E+03  0.7818608E-02  0.1024559E+00
          1   -1    0    0  501    0  0.00000000000E+00  0.00000000000E+00  0.27712706395E+04  0.27712706395E+04  0.50400000000E-02 0.  1.
         -1   -1    0    0    0  501 -0.00000000000E+00 -0.00000000000E+00 -0.19152478780E+02  0.19152479443E+02  0.50400000000E-02 0. -1.
    5000001    1    1    2    0    0 -0.15059158346E+03  0.53000992045E+02  0.14917233895E+04  0.15092881107E+04  0.16500000000E+03 0.  0.
   -5000001    1    1    2    0    0  0.15059158346E+03 -0.53000992045E+02  0.12603947712E+04  0.12811350083E+04  0.16500000000E+03 0.  0.
<mgrwt>
<rscale>  0 0.46076763E+03</rscale>
<asrwt>0</asrwt>
<pdfrwt beam="1">  1        1 0.42634909E+00 0.46076763E+03</pdfrwt>
<pdfrwt beam="2">  1       -1 0.29465369E-02 0.46076763E+03</pdfrwt>
<totfact> 0.39196741E+02</totfact>
</mgrwt>
</event>
<event>
 4    1  0.2309632E-005  0.6312747E+03  0.7818608E-02  0.9842565E-01
         -1   -1    0    0    0  501 -0.00000000000E+00  0.00000000000E+00  0.38377692863E+03  0.38377692866E+03  0.50400000000E-02 0. -1.
          1   -1    0    0  501    0  0.00000000000E+00 -0.00000000000E+00 -0.25959593687E+03  0.25959593692E+03  0.50400000000E-02 0.  1.
    5000001    1    1    2    0    0 -0.79379027664E+02  0.17911415694E+03  0.25006773555E+03  0.35796897018E+03  0.16500000000E+03 0.  0.
   -5000001    1    1    2    0    0  0.79379027664E+02 -0.17911415694E+03 -0.12588674380E+03  0.28540389540E+03  0.16500000000E+03 0.  0.
<mgrwt>
<rscale>  0 0.63127468E+03</rscale>
<asrwt>0</asrwt>
<pdfrwt beam="1">  1        1 0.39937837E-01 0.63127468E+03</pdfrwt>
<pdfrwt beam="2">  1       -1 0.59042604E-01 0.63127468E+03</pdfrwt>
<totfact> 0.31224169E+02</totfact>
</mgrwt>
</event>
<event>
 4    1  0.2309632E-005  0.1034181E+04  0.7818608E-02  0.9271831E-01
          1   -1    0    0  501    0  0.00000000000E+00  0.00000000000E+00  0.13082114568E+03  0.13082114578E+03  0.50400000000E-02 0.  1.
         -1   -1    0    0    0  501 -0.00000000000E+00 -0.00000000000E+00 -0.20438778855E+04  0.20438778855E+04  0.50400000000E-02 0. -1.
    5000001    1    1    2    0    0 -0.39101365025E+03  0.29501489554E+03 -0.98855647369E+03  0.11155242556E+04  0.16500000000E+03 0.  0.
   -5000001    1    1    2    0    0  0.39101365025E+03 -0.29501489554E+03 -0.92450026611E+03  0.10591747756E+04  0.16500000000E+03 0.  0.
<mgrwt>
<rscale>  0 0.10341807E+04</rscale>
<asrwt>0</asrwt>
<pdfrwt beam="1">  1        1 0.20126332E-01 0.10341807E+04</pdfrwt>
<pdfrwt beam="2">  1       -1 0.31444273E+00 0.10341807E+04</pdfrwt>
<totfact> 0.70188221E+00</totfact>
</mgrwt>
</event>
<event>
 4    1  0.2309632E-005  0.6851967E+03  0.7818608E-02  0.9742888E-01
          1   -1    0    0  501    0  0.00000000000E+00  0.00000000000E+00  0.12699010511E+04  0.12699010511E+04  0.50400000000E-02 0.  1.
         -1   -1    0    0    0  501 -0.00000000000E+00 -0.00000000000E+00 -0.92427380755E+02  0.92427380893E+02  0.50400000000E-02 0. -1.
    5000001    1    1    2    0    0  0.88112313350E+02  0.18595891341E+03  0.15402719277E+03  0.30544045795E+03  0.16500000000E+03 0.  0.
   -5000001    1    1    2    0    0 -0.88112313350E+02 -0.18595891341E+03  0.10234464776E+04  0.10568879741E+04  0.16500000000E+03 0.  0.
<mgrwt>
<rscale>  0 0.68519670E+03</rscale>
<asrwt>0</asrwt>
<pdfrwt beam="1">  1        1 0.19536939E+00 0.68519670E+03</pdfrwt>
<pdfrwt beam="2">  1       -1 0.14219597E-01 0.68519670E+03</pdfrwt>
<totfact> 0.34708595E+02</totfact>
</mgrwt>
</event>
<event>
 4    1  0.2309632E-005  0.4419222E+03  0.7818608E-02  0.1030159E+00
         -1   -1    0    0    0  501 -0.00000000000E+00  0.00000000000E+00  0.22110783240E+02  0.22110783814E+02  0.50400000000E-02 0. -1.
          1   -1    0    0  501    0  0.00000000000E+00 -0.00000000000E+00 -0.22081450212E+04  0.22081450212E+04  0.50400000000E-02 0.  1.
    5000001    1    1    2    0    0  0.10643362629E+03  0.69694064686E+02 -0.72169966137E+03  0.75117293660E+03  0.16500000000E+03 0.  0.
   -5000001    1    1    2    0    0 -0.10643362629E+03 -0.69694064686E+02 -0.14643345766E+04  0.14790828684E+04  0.16500000000E+03 0.  0.
<mgrwt>
<rscale>  0 0.44192224E+03</rscale>
<asrwt>0</asrwt>
<pdfrwt beam="1">  1        1 0.33971445E+00 0.44192224E+03</pdfrwt>
<pdfrwt beam="2">  1       -1 0.34016607E-02 0.44192224E+03</pdfrwt>
<totfact> 0.75952126E+02</totfact>
</mgrwt>
</event>
<event>
 4    1  0.2309632E-005  0.4655859E+03  0.7818608E-02  0.1023173E+00
          1   -1    0    0  501    0  0.00000000000E+00  0.00000000000E+00  0.17847071802E+04  0.17847071802E+04  0.50400000000E-02 0.  1.
         -1   -1    0    0    0  501 -0.00000000000E+00 -0.00000000000E+00 -0.30364962915E+02  0.30364963334E+02  0.50400000000E-02 0. -1.
    5000001    1    1    2    0    0 -0.16047376837E+03  0.33155548597E+02  0.91923971904E+03  0.94819712181E+03  0.16500000000E+03 0.  0.
   -5000001    1    1    2    0    0  0.16047376837E+03 -0.33155548597E+02  0.83510249828E+03  0.86687502177E+03  0.16500000000E+03 0.  0.
<mgrwt>
<rscale>  0 0.46558594E+03</rscale>
<asrwt>0</asrwt>
<pdfrwt beam="1">  1        1 0.27457030E+00 0.46558594E+03</pdfrwt>
<pdfrwt beam="2">  1       -1 0.46715334E-02 0.46558594E+03</pdfrwt>
<totfact> 0.89422085E+02</totfact>
</mgrwt>
</event>
<event>
 4    1  0.2309632E-005  0.7343916E+03  0.7818608E-02  0.9660161E-01
          1   -1    0    0  501    0  0.00000000000E+00  0.00000000000E+00  0.11458935459E+03  0.11458935470E+03  0.50400000000E-02 0.  1.
         -1   -1    0    0    0  501 -0.00000000000E+00 -0.00000000000E+00 -0.11766603474E+04  0.11766603474E+04  0.50400000000E-02 0. -1.
    5000001    1    1    2    0    0  0.24757316345E+03 -0.10432431181E+03 -0.86199788282E+03  0.91784605641E+03  0.16500000000E+03 0.  0.
   -5000001    1    1    2    0    0 -0.24757316345E+03  0.10432431181E+03 -0.20007311002E+03  0.37340364573E+03  0.16500000000E+03 0.  0.
<mgrwt>
<rscale>  0 0.73439158E+03</rscale>
<asrwt>0</asrwt>
<pdfrwt beam="1">  1        1 0.17629132E-01 0.73439158E+03</pdfrwt>
<pdfrwt beam="2">  1       -1 0.18102466E+00 0.73439158E+03</pdfrwt>
<totfact> 0.64865749E+01</totfact>
</mgrwt>
</event>
<event>
 4    1  0.2309632E-005  0.5841013E+03  0.7818608E-02  0.9938951E-01
          1   -1    0    0  501    0  0.00000000000E+00  0.00000000000E+00  0.22032276234E+03  0.22032276239E+03  0.50400000000E-02 0.  1.
         -1   -1    0    0    0  501 -0.00000000000E+00 -0.00000000000E+00 -0.38713020173E+03  0.38713020176E+03  0.50400000000E-02 0. -1.
    5000001    1    1    2    0    0 -0.14414026324E+03 -0.18845208573E+03 -0.39551733263E+02  0.29168466485E+03  0.16500000000E+03 0.  0.
   -5000001    1    1    2    0    0  0.14414026324E+03  0.18845208573E+03 -0.12725570613E+03  0.31576829931E+03  0.16500000000E+03 0.  0.
<mgrwt>
<rscale>  0 0.58410135E+03</rscale>
<asrwt>0</asrwt>
<pdfrwt beam="1">  1        1 0.33895810E-01 0.58410135E+03</pdfrwt>
<pdfrwt beam="2">  1       -1 0.59558492E-01 0.58410135E+03</pdfrwt>
<totfact> 0.37980389E+02</totfact>
</mgrwt>
</event>
<event>
 4    1  0.2309632E-005  0.4487474E+03  0.7818608E-02  0.1028096E+00
         -1   -1    0    0    0  501 -0.00000000000E+00  0.00000000000E+00  0.51421088963E+02  0.51421089210E+02  0.50400000000E-02 0. -1.
          1   -1    0    0  501    0  0.00000000000E+00 -0.00000000000E+00 -0.97904510117E+03  0.97904510118E+03  0.50400000000E-02 0.  1.
    5000001    1    1    2    0    0  0.11665420648E+03 -0.65382434363E+00 -0.68774625389E+03  0.71681834597E+03  0.16500000000E+03 0.  0.
   -5000001    1    1    2    0    0 -0.11665420648E+03  0.65382434363E+00 -0.23987775831E+03  0.31364784442E+03  0.16500000000E+03 0.  0.
<mgrwt>
<rscale>  0 0.44874744E+03</rscale>
<asrwt>0</asrwt>
<pdfrwt beam="1">  1        1 0.15062231E+00 0.44874744E+03</pdfrwt>
<pdfrwt beam="2">  1       -1 0.79109375E-02 0.44874744E+03</pdfrwt>
<totfact> 0.14508672E+03</totfact>
</mgrwt>
</event>
<event>
 4    1  0.2309632E-005  0.9952405E+03  0.7818608E-02  0.9313780E-01
          1   -1    0    0  501    0  0.00000000000E+00  0.00000000000E+00  0.88606103497E+03  0.88606103498E+03  0.50400000000E-02 0. -1.
         -1   -1    0    0    0  501 -0.00000000000E+00 -0.00000000000E+00 -0.27946821600E+03  0.27946821604E+03  0.50400000000E-02 0.  1.
    5000001    1    1    2    0    0 -0.26274988627E+03 -0.37180657053E+03  0.43745427872E+03  0.65258629667E+03  0.16500000000E+03 0.  0.
   -5000001    1    1    2    0    0  0.26274988627E+03  0.37180657053E+03  0.16913854025E+03  0.51294295436E+03  0.16500000000E+03 0.  0.
<mgrwt>
<rscale>  0 0.99524047E+03</rscale>
<asrwt>0</asrwt>
<pdfrwt beam="1">  1        1 0.13631708E+00 0.99524047E+03</pdfrwt>
<pdfrwt beam="2">  1       -1 0.42995111E-01 0.99524047E+03</pdfrwt>
<totfact> 0.99824489E+01</totfact>
</mgrwt>
</event>
<event>
 4    1  0.2309632E-005  0.9061784E+03  0.7818608E-02  0.9417891E-01
          1   -1    0    0  501    0  0.00000000000E+00  0.00000000000E+00  0.13287679318E+04  0.13287679318E+04  0.50400000000E-02 0.  1.
         -1   -1    0    0    0  501 -0.00000000000E+00 -0.00000000000E+00 -0.15449638507E+03  0.15449638515E+03  0.50400000000E-02 0. -1.
    5000001    1    1    2    0    0 -0.19106674487E+03 -0.35484005434E+03  0.38238825019E+03  0.57953752168E+03  0.16500000000E+03 0.  0.
   -5000001    1    1    2    0    0  0.19106674487E+03  0.35484005434E+03  0.79188329658E+03  0.90372679531E+03  0.16500000000E+03 0.  0.
<mgrwt>
<rscale>  0 0.90617844E+03</rscale>
<asrwt>0</asrwt>
<pdfrwt beam="1">  1        1 0.20442583E+00 0.90617844E+03</pdfrwt>
<pdfrwt beam="2">  1       -1 0.23768676E-01 0.90617844E+03</pdfrwt>
<totfact> 0.13269494E+02</totfact>
</mgrwt>
</event>
<event>
 4    1  0.2309632E-005  0.4665540E+03  0.7818608E-02  0.1022897E+00
          1   -1    0    0  501    0  0.00000000000E+00  0.00000000000E+00  0.10516076479E+04  0.10516076479E+04  0.50400000000E-02 0. -1.
         -1   -1    0    0    0  501 -0.00000000000E+00 -0.00000000000E+00 -0.51747592984E+02  0.51747593229E+02  0.50400000000E-02 0.  1.
    5000001    1    1    2    0    0  0.52744218069E+01 -0.16147750118E+03  0.57802062201E+03  0.62244328447E+03  0.16500000000E+03 0.  0.
   -5000001    1    1    2    0    0 -0.52744218069E+01  0.16147750118E+03  0.42183943288E+03  0.48091195664E+03  0.16500000000E+03 0.  0.
<mgrwt>
<rscale>  0 0.46655403E+03</rscale>
<asrwt>0</asrwt>
<pdfrwt beam="1">  1        1 0.16178580E+00 0.46655403E+03</pdfrwt>
<pdfrwt beam="2">  1       -1 0.79611680E-02 0.46655403E+03</pdfrwt>
<totfact> 0.12651863E+03</totfact>
</mgrwt>
</event>
<event>
 4    1  0.2309632E-005  0.5059345E+03  0.7818608E-02  0.1012241E+00
          1   -1    0    0  501    0  0.00000000000E+00  0.00000000000E+00  0.14820479046E+04  0.14820479046E+04  0.50400000000E-02 0.  1.
         -1   -1    0    0    0  501 -0.00000000000E+00 -0.00000000000E+00 -0.43178381619E+02  0.43178381913E+02  0.50400000000E-02 0. -1.
    5000001    1    1    2    0    0 -0.72100690228E+02 -0.17767111112E+03  0.71528263155E+03  0.75869610270E+03  0.16500000000E+03 0.  0.
   -5000001    1    1    2    0    0  0.72100690228E+02  0.17767111112E+03  0.72358689145E+03  0.76653018384E+03  0.16500000000E+03 0.  0.
<mgrwt>
<rscale>  0 0.50593450E+03</rscale>
<asrwt>0</asrwt>
<pdfrwt beam="1">  1        1 0.22800737E+00 0.50593450E+03</pdfrwt>
<pdfrwt beam="2">  1       -1 0.66428280E-02 0.50593450E+03</pdfrwt>
<totfact> 0.82975690E+02</totfact>
</mgrwt>
</event>
<event>
 4    1  0.2309632E-005  0.5413885E+03  0.7818608E-02  0.1003507E+00
          1   -1    0    0  501    0  0.00000000000E+00  0.00000000000E+00  0.33100635443E+03  0.33100635447E+03  0.50400000000E-02 0. -1.
         -1   -1    0    0    0  501 -0.00000000000E+00 -0.00000000000E+00 -0.22137151245E+03  0.22137151251E+03  0.50400000000E-02 0.  1.
    5000001    1    1    2    0    0 -0.11013470357E+02 -0.21358488225E+03  0.72798394544E+02  0.27975776076E+03  0.16500000000E+03 0.  0.
   -5000001    1    1    2    0    0  0.11013470357E+02  0.21358488225E+03  0.36836447439E+02  0.27262010622E+03  0.16500000000E+03 0.  0.
<mgrwt>
<rscale>  0 0.54138850E+03</rscale>
<asrwt>0</asrwt>
<pdfrwt beam="1">  1        1 0.50924055E-01 0.54138850E+03</pdfrwt>
<pdfrwt beam="2">  1       -1 0.34057156E-01 0.54138850E+03</pdfrwt>
<totfact> 0.63351449E+02</totfact>
</mgrwt>
</event>
<event>
 4    1  0.2309632E-005  0.4545205E+03  0.7818608E-02  0.1026382E+00
         -1   -1    0    0    0  501 -0.00000000000E+00  0.00000000000E+00  0.15312513565E+03  0.15312513573E+03  0.50400000000E-02 0.  1.
          1   -1    0    0  501    0  0.00000000000E+00 -0.00000000000E+00 -0.33728772286E+03  0.33728772289E+03  0.50400000000E-02 0. -1.
    5000001    1    1    2    0    0 -0.13074472153E+03 -0.51588377801E+02 -0.16578895056E+03  0.27288554205E+03  0.16500000000E+03 0.  0.
   -5000001    1    1    2    0    0  0.13074472153E+03  0.51588377801E+02 -0.18373636646E+02  0.21752731657E+03  0.16500000000E+03 0.  0.
<mgrwt>
<rscale>  0 0.45452053E+03</rscale>
<asrwt>0</asrwt>
<pdfrwt beam="1">  1        1 0.51890419E-01 0.45452053E+03</pdfrwt>
<pdfrwt beam="2">  1       -1 0.23557713E-01 0.45452053E+03</pdfrwt>
<totfact> 0.11653131E+03</totfact>
</mgrwt>
</event>
<event>
 4    1  0.2309632E-005  0.3921914E+03  0.7818608E-02  0.1046518E+00
         -1   -1    0    0    0  501 -0.00000000000E+00  0.00000000000E+00  0.76146623289E+02  0.76146623456E+02  0.50400000000E-02 0. -1.
          1   -1    0    0  501    0  0.00000000000E+00 -0.00000000000E+00 -0.50499308012E+03  0.50499308015E+03  0.50400000000E-02 0.  1.
    5000001    1    1    2    0    0  0.84153866068E+01 -0.10460823645E+03 -0.19270542721E+03  0.27454340921E+03  0.16500000000E+03 0.  0.
   -5000001    1    1    2    0    0 -0.84153866068E+01  0.10460823645E+03 -0.23614102962E+03  0.30659629439E+03  0.16500000000E+03 0.  0.
<mgrwt>
<rscale>  0 0.39219137E+03</rscale>
<asrwt>0</asrwt>
<pdfrwt beam="1">  1        1 0.77691241E-01 0.39219137E+03</pdfrwt>
<pdfrwt beam="2">  1       -1 0.11714865E-01 0.39219137E+03</pdfrwt>
<totfact> 0.21285262E+03</totfact>
</mgrwt>
</event>
<event>
 4    1  0.2309632E-005  0.8345710E+03  0.7818608E-02  0.9511282E-01
          1   -1    0    0  501    0  0.00000000000E+00  0.00000000000E+00  0.20147014974E+03  0.20147014980E+03  0.50400000000E-02 0.  1.
         -1   -1    0    0    0  501 -0.00000000000E+00 -0.00000000000E+00 -0.86428287560E+03  0.86428287562E+03  0.50400000000E-02 0. -1.
    5000001    1    1    2    0    0  0.25344313825E+03 -0.23824710289E+03 -0.53694932961E+03  0.66070771823E+03  0.16500000000E+03 0.  0.
   -5000001    1    1    2    0    0 -0.25344313825E+03  0.23824710289E+03 -0.12586339626E+03  0.40504530719E+03  0.16500000000E+03 0.  0.
<mgrwt>
<rscale>  0 0.83457103E+03</rscale>
<asrwt>0</asrwt>
<pdfrwt beam="1">  1        1 0.30995408E-01 0.83457103E+03</pdfrwt>
<pdfrwt beam="2">  1       -1 0.13296659E+00 0.83457103E+03</pdfrwt>
<totfact> 0.71406161E+01</totfact>
</mgrwt>
</event>
<event>
 4    1  0.2309632E-005  0.3384508E+03  0.7818608E-02  0.1067458E+00
         -1   -1    0    0    0  501 -0.00000000000E+00  0.00000000000E+00  0.46729219290E+03  0.46729219293E+03  0.50400000000E-02 0.  1.
          1   -1    0    0  501    0  0.00000000000E+00 -0.00000000000E+00 -0.61283364459E+02  0.61283364667E+02  0.50400000000E-02 0. -1.
    5000001    1    1    2    0    0  0.34763744437E+02  0.31364797117E+01  0.22475048049E+03  0.28099134135E+03  0.16500000000E+03 0.  0.
   -5000001    1    1    2    0    0 -0.34763744437E+02 -0.31364797117E+01  0.18125834795E+03  0.24758421625E+03  0.16500000000E+03 0.  0.
<mgrwt>
<rscale>  0 0.33845081E+03</rscale>
<asrwt>0</asrwt>
<pdfrwt beam="1">  1        1 0.94282103E-02 0.33845081E+03</pdfrwt>
<pdfrwt beam="2">  1       -1 0.71891104E-01 0.33845081E+03</pdfrwt>
<totfact> 0.14161729E+03</totfact>
</mgrwt>
</event>
<event>
 4    1  0.2309632E-005  0.8910679E+03  0.7818608E-02  0.9436816E-01
         -1   -1    0    0    0  501 -0.00000000000E+00  0.00000000000E+00  0.29034647541E+03  0.29034647545E+03  0.50400000000E-02 0.  1.
          1   -1    0    0  501    0  0.00000000000E+00 -0.00000000000E+00 -0.68366764037E+03  0.68366764039E+03  0.50400000000E-02 0. -1.
    5000001    1    1    2    0    0 -0.27883854516E+03  0.97407589684E+02 -0.51353557699E+03  0.61496582152E+03  0.16500000000E+03 0.  0.
   -5000001    1    1    2    0    0  0.27883854516E+03 -0.97407589684E+02  0.12021441203E+03  0.35904829432E+03  0.16500000000E+03 0.  0.
<mgrwt>
<rscale>  0 0.89106788E+03</rscale>
<asrwt>0</asrwt>
<pdfrwt beam="1">  1        1 0.10517964E+00 0.89106788E+03</pdfrwt>
<pdfrwt beam="2">  1       -1 0.44668689E-01 0.89106788E+03</pdfrwt>
<totfact> 0.14127333E+02</totfact>
</mgrwt>
</event>
<event>
 4    1  0.2309632E-005  0.4269528E+03  0.7818608E-02  0.1034827E+00
          1   -1    0    0  501    0  0.00000000000E+00  0.00000000000E+00  0.16932363506E+03  0.16932363514E+03  0.50400000000E-02 0.  1.
         -1   -1    0    0    0  501 -0.00000000000E+00 -0.00000000000E+00 -0.26914247688E+03  0.26914247693E+03  0.50400000000E-02 0. -1.
    5000001    1    1    2    0    0  0.10288823438E+03  0.77882186537E+02 -0.76218681979E+01  0.20960609874E+03  0.16500000000E+03 0.  0.
   -5000001    1    1    2    0    0 -0.10288823438E+03 -0.77882186537E+02 -0.92196973626E+02  0.22886001333E+03  0.16500000000E+03 0.  0.
<mgrwt>
<rscale>  0 0.42695284E+03</rscale>
<asrwt>0</asrwt>
<pdfrwt beam="1">  1        1 0.26049790E-01 0.42695284E+03</pdfrwt>
<pdfrwt beam="2">  1       -1 0.41406535E-01 0.42695284E+03</pdfrwt>
<totfact> 0.10576873E+03</totfact>
</mgrwt>
</event>
<event>
 4    1  0.2309632E-005  0.7709992E+03  0.7818608E-02  0.9602970E-01
         -1   -1    0    0    0  501 -0.00000000000E+00  0.00000000000E+00  0.44248020189E+03  0.44248020192E+03  0.50400000000E-02 0.  1.
          1   -1    0    0  501    0  0.00000000000E+00 -0.00000000000E+00 -0.33585673154E+03  0.33585673157E+03  0.50400000000E-02 0. -1.
    5000001    1    1    2    0    0 -0.92346768996E+02 -0.32825054480E+03 -0.18843027645E+02  0.37928406979E+03  0.16500000000E+03 0.  0.
   -5000001    1    1    2    0    0  0.92346768996E+02  0.32825054480E+03  0.12546649800E+03  0.39905286370E+03  0.16500000000E+03 0.  0.
<mgrwt>
<rscale>  0 0.77099923E+03</rscale>
<asrwt>0</asrwt>
<pdfrwt beam="1">  1        1 0.51670266E-01 0.77099923E+03</pdfrwt>
<pdfrwt beam="2">  1       -1 0.68073878E-01 0.77099923E+03</pdfrwt>
<totfact> 0.16738024E+02</totfact>
</mgrwt>
</event>
<event>
 4    1  0.2309632E-005  0.8710608E+03  0.7818608E-02  0.9462498E-01
         -1   -1    0    0    0  501 -0.00000000000E+00  0.00000000000E+00  0.24862793662E+03  0.24862793667E+03  0.50400000000E-02 0. -1.
          1   -1    0    0  501    0  0.00000000000E+00 -0.00000000000E+00 -0.76293408190E+03  0.76293408192E+03  0.50400000000E-02 0.  1.
    5000001    1    1    2    0    0  0.19176674646E+03  0.35451705773E+03 -0.25972301616E+03  0.50708763975E+03  0.16500000000E+03 0.  0.
   -5000001    1    1    2    0    0 -0.19176674646E+03 -0.35451705773E+03 -0.25458312912E+03  0.50447437883E+03  0.16500000000E+03 0.  0.
<mgrwt>
<rscale>  0 0.87106079E+03</rscale>
<asrwt>0</asrwt>
<pdfrwt beam="1">  1        1 0.11737447E+00 0.87106079E+03</pdfrwt>
<pdfrwt beam="2">  1       -1 0.38250452E-01 0.87106079E+03</pdfrwt>
<totfact> 0.15883037E+02</totfact>
</mgrwt>
</event>
<event>
 4    1  0.2309632E-005  0.6257470E+03  0.7818608E-02  0.9853384E-01
          1   -1    0    0  501    0  0.00000000000E+00  0.00000000000E+00  0.13519365336E+04  0.13519365336E+04  0.50400000000E-02 0.  1.
         -1   -1    0    0    0  501 -0.00000000000E+00 -0.00000000000E+00 -0.72407120186E+02  0.72407120361E+02  0.50400000000E-02 0. -1.
    5000001    1    1    2    0    0 -0.11921513953E+03 -0.23606976183E+03  0.57853247888E+03  0.65716513226E+03  0.16500000000E+03 0.  0.
   -5000001    1    1    2    0    0  0.11921513953E+03  0.23606976183E+03  0.70099693451E+03  0.76717852169E+03  0.16500000000E+03 0.  0.
<mgrwt>
<rscale>  0 0.62574701E+03</rscale>
<asrwt>0</asrwt>
<pdfrwt beam="1">  1        1 0.20799021E+00 0.62574701E+03</pdfrwt>
<pdfrwt beam="2">  1       -1 0.11139558E-01 0.62574701E+03</pdfrwt>
<totfact> 0.45109021E+02</totfact>
</mgrwt>
</event>
<event>
 4    1  0.2309632E-005  0.5027270E+03  0.7818608E-02  0.1013070E+00
          1   -1    0    0  501    0  0.00000000000E+00  0.00000000000E+00  0.12897962615E+04  0.12897962615E+04  0.50400000000E-02 0.  1.
         -1   -1    0    0    0  501 -0.00000000000E+00 -0.00000000000E+00 -0.48987287398E+02  0.48987287657E+02  0.50400000000E-02 0. -1.
    5000001    1    1    2    0    0 -0.20835176272E+02  0.17408066985E+03  0.42799277147E+03  0.49106109255E+03  0.16500000000E+03 0.  0.
   -5000001    1    1    2    0    0  0.20835176272E+02 -0.17408066985E+03  0.81281620259E+03  0.84772245657E+03  0.16500000000E+03 0.  0.
<mgrwt>
<rscale>  0 0.50272704E+03</rscale>
<asrwt>0</asrwt>
<pdfrwt beam="1">  1        1 0.19843016E+00 0.50272704E+03</pdfrwt>
<pdfrwt beam="2">  1       -1 0.75365069E-02 0.50272704E+03</pdfrwt>
<totfact> 0.92606794E+02</totfact>
</mgrwt>
</event>
<event>
 4    1  0.2309632E-005  0.5854700E+03  0.7818608E-02  0.9936018E-01
          1   -1    0    0  501    0  0.00000000000E+00  0.00000000000E+00  0.13113904031E+03  0.13113904041E+03  0.50400000000E-02 0.  1.
         -1   -1    0    0    0  501 -0.00000000000E+00 -0.00000000000E+00 -0.65345749080E+03  0.65345749082E+03  0.50400000000E-02 0. -1.
    5000001    1    1    2    0    0  0.30718365976E+02 -0.23803111319E+03 -0.30060411694E+03  0.41855736043E+03  0.16500000000E+03 0.  0.
   -5000001    1    1    2    0    0 -0.30718365976E+02  0.23803111319E+03 -0.22171433355E+03  0.36603917079E+03  0.16500000000E+03 0.  0.
<mgrwt>
<rscale>  0 0.58547003E+03</rscale>
<asrwt>0</asrwt>
<pdfrwt beam="1">  1        1 0.20175237E-01 0.58547003E+03</pdfrwt>
<pdfrwt beam="2">  1       -1 0.10053192E+00 0.58547003E+03</pdfrwt>
<totfact> 0.24846562E+02</totfact>
</mgrwt>
</event>
<event>
 4    1  0.2309632E-005  0.3824268E+03  0.7818608E-02  0.1050040E+00
         -1   -1    0    0    0  501 -0.00000000000E+00  0.00000000000E+00  0.22636809025E+03  0.22636809031E+03  0.50400000000E-02 0. -1.
          1   -1    0    0  501    0  0.00000000000E+00 -0.00000000000E+00 -0.16151818683E+03  0.16151818691E+03  0.50400000000E-02 0.  1.
    5000001    1    1    2    0    0 -0.75953696199E+02  0.98897319216E+01 -0.27329524212E+02  0.18395291152E+03  0.16500000000E+03 0.  0.
   -5000001    1    1    2    0    0  0.75953696199E+02 -0.98897319216E+01  0.92179427638E+02  0.20393336569E+03  0.16500000000E+03 0.  0.
<mgrwt>
<rscale>  0 0.38242680E+03</rscale>
<asrwt>0</asrwt>
<pdfrwt beam="1">  1        1 0.24848952E-01 0.38242680E+03</pdfrwt>
<pdfrwt beam="2">  1       -1 0.34825860E-01 0.38242680E+03</pdfrwt>
<totfact> 0.15283962E+03</totfact>
</mgrwt>
</event>
<event>
 4    1  0.2309632E-005  0.4926934E+03  0.7818608E-02  0.1015704E+00
         -1   -1    0    0    0  501 -0.00000000000E+00  0.00000000000E+00  0.34819417428E+03  0.34819417431E+03  0.50400000000E-02 0. -1.
          1   -1    0    0  501    0  0.00000000000E+00 -0.00000000000E+00 -0.17428984416E+03  0.17428984423E+03  0.50400000000E-02 0.  1.
    5000001    1    1    2    0    0  0.14558384255E+03 -0.10232461240E+03  0.13190294765E+03  0.27620349222E+03  0.16500000000E+03 0.  0.
   -5000001    1    1    2    0    0 -0.14558384255E+03  0.10232461240E+03  0.42001382471E+02  0.24628052632E+03  0.16500000000E+03 0.  0.
<mgrwt>
<rscale>  0 0.49269345E+03</rscale>
<asrwt>0</asrwt>
<pdfrwt beam="1">  1        1 0.26813823E-01 0.49269345E+03</pdfrwt>
<pdfrwt beam="2">  1       -1 0.53568334E-01 0.49269345E+03</pdfrwt>
<totfact> 0.63188043E+02</totfact>
</mgrwt>
</event>
<event>
 4    1  0.2309632E-005  0.5827674E+03  0.7818608E-02  0.9941818E-01
         -1   -1    0    0    0  501 -0.00000000000E+00  0.00000000000E+00  0.16915946893E+03  0.16915946900E+03  0.50400000000E-02 0.  1.
          1   -1    0    0  501    0  0.00000000000E+00 -0.00000000000E+00 -0.50191968616E+03  0.50191968618E+03  0.50400000000E-02 0. -1.
    5000001    1    1    2    0    0 -0.14127872928E+03 -0.19301607545E+03 -0.14155963449E+03  0.32323213771E+03  0.16500000000E+03 0.  0.
   -5000001    1    1    2    0    0  0.14127872928E+03  0.19301607545E+03 -0.19120058274E+03  0.34784701748E+03  0.16500000000E+03 0.  0.
<mgrwt>
<rscale>  0 0.58276742E+03</rscale>
<asrwt>0</asrwt>
<pdfrwt beam="1">  1        1 0.77218412E-01 0.58276742E+03</pdfrwt>
<pdfrwt beam="2">  1       -1 0.26024534E-01 0.58276742E+03</pdfrwt>
<totfact> 0.58161731E+02</totfact>
</mgrwt>
</event>
<event>
 4    1  0.2309632E-005  0.5471978E+03  0.7818608E-02  0.1002145E+00
         -1   -1    0    0    0  501 -0.00000000000E+00  0.00000000000E+00  0.24515267772E+03  0.24515267778E+03  0.50400000000E-02 0.  1.
          1   -1    0    0  501    0  0.00000000000E+00 -0.00000000000E+00 -0.30534590912E+03  0.30534590916E+03  0.50400000000E-02 0. -1.
    5000001    1    1    2    0    0 -0.56356452319E+02 -0.20935500387E+03 -0.49297234540E+01  0.27249746703E+03  0.16500000000E+03 0.  0.
   -5000001    1    1    2    0    0  0.56356452319E+02  0.20935500387E+03 -0.55263507942E+02  0.27800111991E+03  0.16500000000E+03 0.  0.
<mgrwt>
<rscale>  0 0.54719783E+03</rscale>
<asrwt>0</asrwt>
<pdfrwt beam="1">  1        1 0.46976294E-01 0.54719783E+03</pdfrwt>
<pdfrwt beam="2">  1       -1 0.37715797E-01 0.54719783E+03</pdfrwt>
<totfact> 0.58645186E+02</totfact>
</mgrwt>
</event>
<event>
 4    1  0.2309632E-005  0.4677859E+03  0.7818608E-02  0.1022547E+00
         -1   -1    0    0    0  501 -0.00000000000E+00  0.00000000000E+00  0.44161849288E+02  0.44161849575E+02  0.50400000000E-02 0.  1.
          1   -1    0    0  501    0  0.00000000000E+00 -0.00000000000E+00 -0.12387597346E+04  0.12387597346E+04  0.50400000000E-02 0. -1.
    5000001    1    1    2    0    0  0.16331055814E+03  0.26698171284E+02 -0.57017826800E+03  0.61620726063E+03  0.16500000000E+03 0.  0.
   -5000001    1    1    2    0    0 -0.16331055814E+03 -0.26698171284E+02 -0.62441961726E+03  0.66671432351E+03  0.16500000000E+03 0.  0.
<mgrwt>
<rscale>  0 0.46778594E+03</rscale>
<asrwt>0</asrwt>
<pdfrwt beam="1">  1        1 0.19057839E+00 0.46778594E+03</pdfrwt>
<pdfrwt beam="2">  1       -1 0.67941316E-02 0.46778594E+03</pdfrwt>
<totfact> 0.11822270E+03</totfact>
</mgrwt>
</event>
<event>
 4    1  0.2309632E-005  0.3477844E+03  0.7818608E-02  0.1063528E+00
          1   -1    0    0  501    0  0.00000000000E+00  0.00000000000E+00  0.21311009838E+03  0.21311009844E+03  0.50400000000E-02 0.  1.
         -1   -1    0    0    0  501 -0.00000000000E+00 -0.00000000000E+00 -0.14189142152E+03  0.14189142161E+03  0.50400000000E-02 0. -1.
    5000001    1    1    2    0    0  0.57691494813E+01 -0.45720211305E+02  0.51595418404E+01  0.17139207006E+03  0.16500000000E+03 0.  0.
   -5000001    1    1    2    0    0 -0.57691494813E+01  0.45720211305E+02  0.66059135022E+02  0.18360944999E+03  0.16500000000E+03 0.  0.
<mgrwt>
<rscale>  0 0.34778439E+03</rscale>
<asrwt>0</asrwt>
<pdfrwt beam="1">  1        1 0.32786169E-01 0.34778439E+03</pdfrwt>
<pdfrwt beam="2">  1       -1 0.21829450E-01 0.34778439E+03</pdfrwt>
<totfact> 0.23685882E+03</totfact>
</mgrwt>
</event>
<event>
 4    1  0.2309632E-005  0.5237955E+03  0.7818608E-02  0.1007748E+00
          1   -1    0    0  501    0  0.00000000000E+00  0.00000000000E+00  0.99210398437E+03  0.99210398438E+03  0.50400000000E-02 0. -1.
         -1   -1    0    0    0  501 -0.00000000000E+00 -0.00000000000E+00 -0.69136321604E+02  0.69136321788E+02  0.50400000000E-02 0.  1.
    5000001    1    1    2    0    0  0.19702135345E+03 -0.50474574181E+02  0.46263686987E+03  0.53162295823E+03  0.16500000000E+03 0.  0.
   -5000001    1    1    2    0    0 -0.19702135345E+03  0.50474574181E+02  0.46033079290E+03  0.52961734794E+03  0.16500000000E+03 0.  0.
<mgrwt>
<rscale>  0 0.52379546E+03</rscale>
<asrwt>0</asrwt>
<pdfrwt beam="1">  1        1 0.15263137E+00 0.52379546E+03</pdfrwt>
<pdfrwt beam="2">  1       -1 0.10636358E-01 0.52379546E+03</pdfrwt>
<totfact> 0.89072364E+02</totfact>
</mgrwt>
</event>
<event>
 4    1  0.2309632E-005  0.8555599E+03  0.7818608E-02  0.9482905E-01
          1   -1    0    0  501    0  0.00000000000E+00  0.00000000000E+00  0.11657859332E+04  0.11657859332E+04  0.50400000000E-02 0. -1.
         -1   -1    0    0    0  501 -0.00000000000E+00 -0.00000000000E+00 -0.15697194223E+03  0.15697194231E+03  0.50400000000E-02 0.  1.
    5000001    1    1    2    0    0 -0.67324167455E+02 -0.38687475696E+03  0.56559049222E+03  0.70804111885E+03  0.16500000000E+03 0.  0.
   -5000001    1    1    2    0    0  0.67324167455E+02  0.38687475696E+03  0.44322349878E+03  0.61471675670E+03  0.16500000000E+03 0.  0.
<mgrwt>
<rscale>  0 0.85555989E+03</rscale>
<asrwt>0</asrwt>
<pdfrwt beam="1">  1        1 0.17935167E+00 0.85555989E+03</pdfrwt>
<pdfrwt beam="2">  1       -1 0.24149531E-01 0.85555989E+03</pdfrwt>
<totfact> 0.16972812E+02</totfact>
</mgrwt>
</event>
<event>
 4    1  0.2309632E-005  0.4853944E+03  0.7818608E-02  0.1017663E+00
          1   -1    0    0  501    0  0.00000000000E+00  0.00000000000E+00  0.26482910941E+04  0.26482910941E+04  0.50400000000E-02 0.  1.
         -1   -1    0    0    0  501 -0.00000000000E+00 -0.00000000000E+00 -0.22241484770E+02  0.22241485341E+02  0.50400000000E-02 0. -1.
    5000001    1    1    2    0    0  0.12742025957E+03 -0.12356914978E+03  0.13851105974E+04  0.14061513519E+04  0.16500000000E+03 0.  0.
   -5000001    1    1    2    0    0 -0.12742025957E+03  0.12356914978E+03  0.12409390119E+04  0.12643812275E+04  0.16500000000E+03 0.  0.
<mgrwt>
<rscale>  0 0.48539438E+03</rscale>
<asrwt>0</asrwt>
<pdfrwt beam="1">  1        1 0.40742909E+00 0.48539438E+03</pdfrwt>
<pdfrwt beam="2">  1       -1 0.34217695E-02 0.48539438E+03</pdfrwt>
<totfact> 0.37937172E+02</totfact>
</mgrwt>
</event>
<event>
 4    1  0.2309632E-005  0.3748285E+03  0.7818608E-02  0.1052862E+00
         -1   -1    0    0    0  501 -0.00000000000E+00  0.00000000000E+00  0.16238075193E+03  0.16238075200E+03  0.50400000000E-02 0. -1.
          1   -1    0    0  501    0  0.00000000000E+00 -0.00000000000E+00 -0.21630705773E+03  0.21630705778E+03  0.50400000000E-02 0.  1.
    5000001    1    1    2    0    0 -0.79043096367E+01 -0.65257223653E+02  0.33470120955E+02  0.18073802131E+03  0.16500000000E+03 0.  0.
   -5000001    1    1    2    0    0  0.79043096367E+01  0.65257223653E+02 -0.87396426755E+02  0.19794978848E+03  0.16500000000E+03 0.  0.
<mgrwt>
<rscale>  0 0.37482851E+03</rscale>
<asrwt>0</asrwt>
<pdfrwt beam="1">  1        1 0.33278009E-01 0.37482851E+03</pdfrwt>
<pdfrwt beam="2">  1       -1 0.24981654E-01 0.37482851E+03</pdfrwt>
<totfact> 0.18587669E+03</totfact>
</mgrwt>
</event>
<event>
 4    1  0.2309632E-005  0.5810459E+03  0.7818608E-02  0.9945529E-01
         -1   -1    0    0    0  501 -0.00000000000E+00  0.00000000000E+00  0.77173401676E+03  0.77173401677E+03  0.50400000000E-02 0. -1.
          1   -1    0    0  501    0  0.00000000000E+00 -0.00000000000E+00 -0.10936873915E+03  0.10936873926E+03  0.50400000000E-02 0.  1.
    5000001    1    1    2    0    0 -0.34933961574E+02  0.23361911096E+03  0.27484433236E+03  0.39819929395E+03  0.16500000000E+03 0.  0.
   -5000001    1    1    2    0    0  0.34933961574E+02 -0.23361911096E+03  0.38752094525E+03  0.48290346208E+03  0.16500000000E+03 0.  0.
<mgrwt>
<rscale>  0 0.58104587E+03</rscale>
<asrwt>0</asrwt>
<pdfrwt beam="1">  1        1 0.16825960E-01 0.58104587E+03</pdfrwt>
<pdfrwt beam="2">  1       -1 0.11872831E+00 0.58104587E+03</pdfrwt>
<totfact> 0.21415164E+02</totfact>
</mgrwt>
</event>
<event>
 4    1  0.2309632E-005  0.3707659E+03  0.7818608E-02  0.1054400E+00
          1   -1    0    0  501    0  0.00000000000E+00  0.00000000000E+00  0.46408499517E+03  0.46408499520E+03  0.50400000000E-02 0.  1.
         -1   -1    0    0    0  501 -0.00000000000E+00 -0.00000000000E+00 -0.74052891624E+02  0.74052891796E+02  0.50400000000E-02 0. -1.
    5000001    1    1    2    0    0 -0.55015869023E+02 -0.52524573334E+02  0.24846819908E+03  0.30781004305E+03  0.16500000000E+03 0.  0.
   -5000001    1    1    2    0    0  0.55015869023E+02  0.52524573334E+02  0.14156390447E+03  0.23032784395E+03  0.16500000000E+03 0.  0.
<mgrwt>
<rscale>  0 0.37076589E+03</rscale>
<asrwt>0</asrwt>
<pdfrwt beam="1">  1        1 0.71397691E-01 0.37076589E+03</pdfrwt>
<pdfrwt beam="2">  1       -1 0.11392753E-01 0.37076589E+03</pdfrwt>
<totfact> 0.24884903E+03</totfact>
</mgrwt>
</event>
<event>
 4    1  0.2309632E-005  0.5238745E+03  0.7818608E-02  0.1007729E+00
         -1   -1    0    0    0  501 -0.00000000000E+00  0.00000000000E+00  0.28212225797E+02  0.28212226247E+02  0.50400000000E-02 0. -1.
          1   -1    0    0  501    0  0.00000000000E+00 -0.00000000000E+00 -0.24319641077E+04  0.24319641077E+04  0.50400000000E-02 0.  1.
    5000001    1    1    2    0    0 -0.19349842056E+03 -0.62348963809E+02 -0.12373585369E+04  0.12647569651E+04  0.16500000000E+03 0.  0.
   -5000001    1    1    2    0    0  0.19349842056E+03  0.62348963809E+02 -0.11663933450E+04  0.11954193688E+04  0.16500000000E+03 0.  0.
<mgrwt>
<rscale>  0 0.52387449E+03</rscale>
<asrwt>0</asrwt>
<pdfrwt beam="1">  1        1 0.37414816E+00 0.52387449E+03</pdfrwt>
<pdfrwt beam="2">  1       -1 0.43403444E-02 0.52387449E+03</pdfrwt>
<totfact> 0.36981770E+02</totfact>
</mgrwt>
</event>
<event>
 4    1  0.2309632E-005  0.5199311E+03  0.7818608E-02  0.1008704E+00
          1   -1    0    0  501    0  0.00000000000E+00  0.00000000000E+00  0.47701850709E+03  0.47701850712E+03  0.50400000000E-02 0.  1.
         -1   -1    0    0    0  501 -0.00000000000E+00 -0.00000000000E+00 -0.14167600334E+03  0.14167600343E+03  0.50400000000E-02 0. -1.
    5000001    1    1    2    0    0  0.13201654337E+03  0.13151495603E+03  0.25697754008E+03  0.35775271835E+03  0.16500000000E+03 0.  0.
   -5000001    1    1    2    0    0 -0.13201654337E+03 -0.13151495603E+03  0.78364963680E+02  0.26094179220E+03  0.16500000000E+03 0.  0.
<mgrwt>
<rscale>  0 0.51993106E+03</rscale>
<asrwt>0</asrwt>
<pdfrwt beam="1">  1        1 0.73387463E-01 0.51993106E+03</pdfrwt>
<pdfrwt beam="2">  1       -1 0.21796308E-01 0.51993106E+03</pdfrwt>
<totfact> 0.84145333E+02</totfact>
</mgrwt>
</event>
<event>
 4    1  0.2309632E-005  0.5645547E+03  0.7818608E-02  0.9981801E-01
          1   -1    0    0  501    0  0.00000000000E+00  0.00000000000E+00  0.13344053697E+03  0.13344053706E+03  0.50400000000E-02 0.  1.
         -1   -1    0    0    0  501 -0.00000000000E+00 -0.00000000000E+00 -0.59712359628E+03  0.59712359630E+03  0.50400000000E-02 0. -1.
    5000001    1    1    2    0    0 -0.13982879165E+03 -0.12380096769E+03 -0.60279452511E+02  0.25639302442E+03  0.16500000000E+03 0.  0.
   -5000001    1    1    2    0    0  0.13982879165E+03  0.12380096769E+03 -0.40340360680E+03  0.47417110894E+03  0.16500000000E+03 0.  0.
<mgrwt>
<rscale>  0 0.56455467E+03</rscale>
<asrwt>0</asrwt>
<pdfrwt beam="1">  1        1 0.20529314E-01 0.56455467E+03</pdfrwt>
<pdfrwt beam="2">  1       -1 0.91865167E-01 0.56455467E+03</pdfrwt>
<totfact> 0.29731984E+02</totfact>
</mgrwt>
</event>
<event>
 4    1  0.2309632E-005  0.4930947E+03  0.7818608E-02  0.1015597E+00
          1   -1    0    0  501    0  0.00000000000E+00  0.00000000000E+00  0.40683516113E+03  0.40683516116E+03  0.50400000000E-02 0.  1.
         -1   -1    0    0    0  501 -0.00000000000E+00 -0.00000000000E+00 -0.14941085867E+03  0.14941085876E+03  0.50400000000E-02 0. -1.
    5000001    1    1    2    0    0  0.83022555160E+02 -0.71128138825E+02  0.29453724692E+03  0.35486496956E+03  0.16500000000E+03 0.  0.
   -5000001    1    1    2    0    0 -0.83022555160E+02  0.71128138825E+02 -0.37112944459E+02  0.20138105036E+03  0.16500000000E+03 0.  0.
<mgrwt>
<rscale>  0 0.49309468E+03</rscale>
<asrwt>0</asrwt>
<pdfrwt beam="1">  1        1 0.62590024E-01 0.49309468E+03</pdfrwt>
<pdfrwt beam="2">  1       -1 0.22986286E-01 0.49309468E+03</pdfrwt>
<totfact> 0.95164900E+02</totfact>
</mgrwt>
</event>
<event>
 4    1  0.2309632E-005  0.6687066E+03  0.7818608E-02  0.9772297E-01
          1   -1    0    0  501    0  0.00000000000E+00  0.00000000000E+00  0.25167464028E+03  0.25167464033E+03  0.50400000000E-02 0.  1.
         -1   -1    0    0    0  501 -0.00000000000E+00 -0.00000000000E+00 -0.44419303372E+03  0.44419303375E+03  0.50400000000E-02 0. -1.
    5000001    1    1    2    0    0  0.20985806177E+03  0.19213730399E+03 -0.15878265667E+03  0.36523154537E+03  0.16500000000E+03 0.  0.
   -5000001    1    1    2    0    0 -0.20985806177E+03 -0.19213730399E+03 -0.33735736774E+02  0.33063612871E+03  0.16500000000E+03 0.  0.
<mgrwt>
<rscale>  0 0.66870658E+03</rscale>
<asrwt>0</asrwt>
<pdfrwt beam="1">  1        1 0.38719176E-01 0.66870658E+03</pdfrwt>
<pdfrwt beam="2">  1       -1 0.68337390E-01 0.66870658E+03</pdfrwt>
<totfact> 0.24249592E+02</totfact>
</mgrwt>
</event>
<event>
 4    1  0.2309632E-005  0.6002523E+03  0.7818608E-02  0.9904883E-01
          1   -1    0    0  501    0  0.00000000000E+00  0.00000000000E+00  0.60845230391E+03  0.60845230393E+03  0.50400000000E-02 0.  1.
         -1   -1    0    0    0  501 -0.00000000000E+00 -0.00000000000E+00 -0.14804068276E+03  0.14804068284E+03  0.50400000000E-02 0. -1.
    5000001    1    1    2    0    0 -0.51942214498E+02 -0.24522565831E+03  0.23541394176E+03  0.38141623080E+03  0.16500000000E+03 0.  0.
   -5000001    1    1    2    0    0  0.51942214498E+02  0.24522565831E+03  0.22499767939E+03  0.37507675598E+03  0.16500000000E+03 0.  0.
<mgrwt>
<rscale>  0 0.60025226E+03</rscale>
<asrwt>0</asrwt>
<pdfrwt beam="1">  1        1 0.93608046E-01 0.60025226E+03</pdfrwt>
<pdfrwt beam="2">  1       -1 0.22775490E-01 0.60025226E+03</pdfrwt>
<totfact> 0.55657339E+02</totfact>
</mgrwt>
</event>
<event>
 4    1  0.2309632E-005  0.1043466E+04  0.7818608E-02  0.9262116E-01
         -1   -1    0    0    0  501 -0.00000000000E+00  0.00000000000E+00  0.22644704516E+04  0.22644704516E+04  0.50400000000E-02 0.  1.
          1   -1    0    0  501    0  0.00000000000E+00 -0.00000000000E+00 -0.12020716101E+03  0.12020716111E+03  0.50400000000E-02 0. -1.
    5000001    1    1    2    0    0  0.21890127931E+03  0.42246784224E+03  0.76058902715E+03  0.91220475554E+03  0.16500000000E+03 0.  0.
   -5000001    1    1    2    0    0 -0.21890127931E+03 -0.42246784224E+03  0.13836742634E+04  0.14724728572E+04  0.16500000000E+03 0.  0.
<mgrwt>
<rscale>  0 0.10434665E+04</rscale>
<asrwt>0</asrwt>
<pdfrwt beam="1">  1        1 0.18493410E-01 0.10434665E+04</pdfrwt>
<pdfrwt beam="2">  1       -1 0.34838006E+00 0.10434665E+04</pdfrwt>
<totfact> 0.47200068E+00</totfact>
</mgrwt>
</event>
<event>
 4    1  0.2309632E-005  0.4058506E+03  0.7818608E-02  0.1041772E+00
         -1   -1    0    0    0  501 -0.00000000000E+00  0.00000000000E+00  0.13778587653E+03  0.13778587662E+03  0.50400000000E-02 0.  1.
          1   -1    0    0  501    0  0.00000000000E+00 -0.00000000000E+00 -0.29885993233E+03  0.29885993237E+03  0.50400000000E-02 0. -1.
    5000001    1    1    2    0    0  0.69498320675E+02 -0.70148675972E+02 -0.15028534392E+03  0.24405232618E+03  0.16500000000E+03 0.  0.
   -5000001    1    1    2    0    0 -0.69498320675E+02  0.70148675972E+02 -0.10788711874E+02  0.19259348281E+03  0.16500000000E+03 0.  0.
<mgrwt>
<rscale>  0 0.40585060E+03</rscale>
<asrwt>0</asrwt>
<pdfrwt beam="1">  1        1 0.45978451E-01 0.40585060E+03</pdfrwt>
<pdfrwt beam="2">  1       -1 0.21197827E-01 0.40585060E+03</pdfrwt>
<totfact> 0.16212711E+03</totfact>
</mgrwt>
</event>
<event>
 4    1  0.2309632E-005  0.4961109E+03  0.7818608E-02  0.1014799E+00
         -1   -1    0    0    0  501 -0.00000000000E+00  0.00000000000E+00  0.31878928894E+03  0.31878928898E+03  0.50400000000E-02 0. -1.
          1   -1    0    0  501    0  0.00000000000E+00 -0.00000000000E+00 -0.19301621215E+03  0.19301621221E+03  0.50400000000E-02 0.  1.
    5000001    1    1    2    0    0  0.17648907218E+02 -0.18242167020E+03  0.35255820782E+02  0.24911267046E+03  0.16500000000E+03 0.  0.
   -5000001    1    1    2    0    0 -0.17648907218E+02  0.18242167020E+03  0.90517256006E+02  0.26269283073E+03  0.16500000000E+03 0.  0.
<mgrwt>
<rscale>  0 0.49611088E+03</rscale>
<asrwt>0</asrwt>
<pdfrwt beam="1">  1        1 0.29694802E-01 0.49611088E+03</pdfrwt>
<pdfrwt beam="2">  1       -1 0.49044506E-01 0.49611088E+03</pdfrwt>
<totfact> 0.65429981E+02</totfact>
</mgrwt>
</event>
<event>
 4    1  0.2309632E-005  0.1213712E+04  0.7818608E-02  0.9100938E-01
          1   -1    0    0  501    0  0.00000000000E+00  0.00000000000E+00  0.10526318485E+04  0.10526318485E+04  0.50400000000E-02 0. -1.
         -1   -1    0    0    0  501 -0.00000000000E+00 -0.00000000000E+00 -0.34986063691E+03  0.34986063695E+03  0.50400000000E-02 0.  1.
    5000001    1    1    2    0    0  0.18281141549E+03  0.40986657747E+03  0.78319078237E+03  0.91761834471E+03  0.16500000000E+03 0.  0.
   -5000001    1    1    2    0    0 -0.18281141549E+03 -0.40986657747E+03 -0.80419570822E+02  0.48487414071E+03  0.16500000000E+03 0.  0.
<mgrwt>
<rscale>  0 0.12137124E+04</rscale>
<asrwt>0</asrwt>
<pdfrwt beam="1">  1        1 0.16194336E+00 0.12137124E+04</pdfrwt>
<pdfrwt beam="2">  1       -1 0.53824714E-01 0.12137124E+04</pdfrwt>
<totfact> 0.47444418E+01</totfact>
</mgrwt>
</event>
<event>
 4    1  0.2309632E-005  0.8988257E+03  0.7818608E-02  0.9427051E-01
         -1   -1    0    0    0  501 -0.00000000000E+00  0.00000000000E+00  0.20146866901E+03  0.20146866907E+03  0.50400000000E-02 0. -1.
          1   -1    0    0  501    0  0.00000000000E+00 -0.00000000000E+00 -0.10024978046E+04  0.10024978046E+04  0.50400000000E-02 0.  1.
    5000001    1    1    2    0    0  0.33737259566E+03 -0.14324888747E+03 -0.66976966285E+03  0.78112541461E+03  0.16500000000E+03 0.  0.
   -5000001    1    1    2    0    0 -0.33737259566E+03  0.14324888747E+03 -0.13125947275E+03  0.42284105909E+03  0.16500000000E+03 0.  0.
<mgrwt>
<rscale>  0 0.89882567E+03</rscale>
<asrwt>0</asrwt>
<pdfrwt beam="1">  1        1 0.15423043E+00 0.89882567E+03</pdfrwt>
<pdfrwt beam="2">  1       -1 0.30995181E-01 0.89882567E+03</pdfrwt>
<totfact> 0.14602490E+02</totfact>
</mgrwt>
</event>
<event>
 4    1  0.2309632E-005  0.3757890E+03  0.7818608E-02  0.1052501E+00
          1   -1    0    0  501    0  0.00000000000E+00  0.00000000000E+00  0.10954658463E+03  0.10954658475E+03  0.50400000000E-02 0.  1.
         -1   -1    0    0    0  501 -0.00000000000E+00 -0.00000000000E+00 -0.32227699202E+03  0.32227699206E+03  0.50400000000E-02 0. -1.
    5000001    1    1    2    0    0 -0.76759554222E+02 -0.17085099620E+02 -0.56337067065E+02  0.19126629321E+03  0.16500000000E+03 0.  0.
   -5000001    1    1    2    0    0  0.76759554222E+02  0.17085099620E+02 -0.15639334032E+03  0.24055728360E+03  0.16500000000E+03 0.  0.
<mgrwt>
<rscale>  0 0.37578900E+03</rscale>
<asrwt>0</asrwt>
<pdfrwt beam="1">  1        1 0.16853321E-01 0.37578900E+03</pdfrwt>
<pdfrwt beam="2">  1       -1 0.49581075E-01 0.37578900E+03</pdfrwt>
<totfact> 0.13390123E+03</totfact>
</mgrwt>
</event>
<event>
 4    1  0.2309632E-005  0.4846482E+03  0.7818608E-02  0.1017865E+00
         -1   -1    0    0    0  501 -0.00000000000E+00  0.00000000000E+00  0.57428102413E+02  0.57428102634E+02  0.50400000000E-02 0. -1.
          1   -1    0    0  501    0  0.00000000000E+00 -0.00000000000E+00 -0.10225128666E+04  0.10225128666E+04  0.50400000000E-02 0.  1.
    5000001    1    1    2    0    0 -0.11774209917E+03  0.12853866700E+03 -0.40828341713E+03  0.47360926885E+03  0.16500000000E+03 0.  0.
   -5000001    1    1    2    0    0  0.11774209917E+03 -0.12853866700E+03 -0.55680134707E+03  0.60633170042E+03  0.16500000000E+03 0.  0.
<mgrwt>
<rscale>  0 0.48464822E+03</rscale>
<asrwt>0</asrwt>
<pdfrwt beam="1">  1        1 0.15730966E+00 0.48464822E+03</pdfrwt>
<pdfrwt beam="2">  1       -1 0.88350934E-02 0.48464822E+03</pdfrwt>
<totfact> 0.11311180E+03</totfact>
</mgrwt>
</event>
<event>
 4    1  0.2309632E-005  0.6026984E+03  0.7818608E-02  0.9899824E-01
         -1   -1    0    0    0  501 -0.00000000000E+00  0.00000000000E+00  0.97077510368E+02  0.97077510499E+02  0.50400000000E-02 0. -1.
          1   -1    0    0  501    0  0.00000000000E+00 -0.00000000000E+00 -0.93545174993E+03  0.93545174994E+03  0.50400000000E-02 0.  1.
    5000001    1    1    2    0    0 -0.17964850536E+03 -0.10420740728E+03 -0.66419880219E+03  0.71520473855E+03  0.16500000000E+03 0.  0.
   -5000001    1    1    2    0    0  0.17964850536E+03  0.10420740728E+03 -0.17417543737E+03  0.31732452189E+03  0.16500000000E+03 0.  0.
<mgrwt>
<rscale>  0 0.60269836E+03</rscale>
<asrwt>0</asrwt>
<pdfrwt beam="1">  1        1 0.14391565E+00 0.60269836E+03</pdfrwt>
<pdfrwt beam="2">  1       -1 0.14935002E-01 0.60269836E+03</pdfrwt>
<totfact> 0.57160271E+02</totfact>
</mgrwt>
</event>
<event>
 4    1  0.2309632E-005  0.1150278E+04  0.7818608E-02  0.9157527E-01
          1   -1    0    0  501    0  0.00000000000E+00  0.00000000000E+00  0.98826086690E+03  0.98826086691E+03  0.50400000000E-02 0.  1.
         -1   -1    0    0    0  501 -0.00000000000E+00 -0.00000000000E+00 -0.33471422070E+03  0.33471422074E+03  0.50400000000E-02 0. -1.
    5000001    1    1    2    0    0 -0.21217027536E+03  0.37380705896E+02  0.91000221918E+03  0.94960127519E+03  0.16500000000E+03 0.  0.
   -5000001    1    1    2    0    0  0.21217027536E+03 -0.37380705896E+02 -0.25645557299E+03  0.37337381247E+03  0.16500000000E+03 0.  0.
<mgrwt>
<rscale>  0 0.11502782E+04</rscale>
<asrwt>0</asrwt>
<pdfrwt beam="1">  1        1 0.15204013E+00 0.11502782E+04</pdfrwt>
<pdfrwt beam="2">  1       -1 0.51494496E-01 0.11502782E+04</pdfrwt>
<totfact> 0.58221735E+01</totfact>
</mgrwt>
</event>
<event>
 4    1  0.2309632E-005  0.4596237E+03  0.7818608E-02  0.1024890E+00
         -1   -1    0    0    0  501 -0.00000000000E+00  0.00000000000E+00  0.20430662756E+03  0.20430662762E+03  0.50400000000E-02 0. -1.
          1   -1    0    0  501    0  0.00000000000E+00 -0.00000000000E+00 -0.25850109559E+03  0.25850109564E+03  0.50400000000E-02 0.  1.
    5000001    1    1    2    0    0  0.78190597935E+02 -0.10745359722E+03  0.62561397351E+02  0.22090489719E+03  0.16500000000E+03 0.  0.
   -5000001    1    1    2    0    0 -0.78190597935E+02  0.10745359722E+03 -0.11675586538E+03  0.24190282607E+03  0.16500000000E+03 0.  0.
<mgrwt>
<rscale>  0 0.45962370E+03</rscale>
<asrwt>0</asrwt>
<pdfrwt beam="1">  1        1 0.39769399E-01 0.45962370E+03</pdfrwt>
<pdfrwt beam="2">  1       -1 0.31431789E-01 0.45962370E+03</pdfrwt>
<totfact> 0.10020697E+03</totfact>
</mgrwt>
</event>
<event>
 4    1  0.2309632E-005  0.8872348E+03  0.7818608E-02  0.9441681E-01
          1   -1    0    0  501    0  0.00000000000E+00  0.00000000000E+00  0.19711072155E+04  0.19711072155E+04  0.50400000000E-02 0.  1.
         -1   -1    0    0    0  501 -0.00000000000E+00 -0.00000000000E+00 -0.99840533703E+02  0.99840533831E+02  0.50400000000E-02 0. -1.
    5000001    1    1    2    0    0  0.40072201279E+03  0.87865042900E+02  0.10189140939E+04  0.11107246860E+04  0.16500000000E+03 0.  0.
   -5000001    1    1    2    0    0 -0.40072201279E+03 -0.87865042900E+02  0.85235258791E+03  0.96022306336E+03  0.16500000000E+03 0.  0.
<mgrwt>
<rscale>  0 0.88723480E+03</rscale>
<asrwt>0</asrwt>
<pdfrwt beam="1">  1        1 0.30324725E+00 0.88723480E+03</pdfrwt>
<pdfrwt beam="2">  1       -1 0.15360083E-01 0.88723480E+03</pdfrwt>
<totfact> 0.10031695E+02</totfact>
</mgrwt>
</event>
<event>
 4    1  0.2309632E-005  0.3823828E+03  0.7818608E-02  0.1050057E+00
          1   -1    0    0  501    0  0.00000000000E+00  0.00000000000E+00  0.43922900514E+04  0.43922900514E+04  0.50400000000E-02 0.  1.
         -1   -1    0    0    0  501 -0.00000000000E+00 -0.00000000000E+00 -0.83223430711E+01  0.83223445972E+01  0.50400000000E-02 0. -1.
    5000001    1    1    2    0    0 -0.68202774676E+02 -0.68218301257E+02  0.22481195151E+04  0.22562295338E+04  0.16500000000E+03 0.  0.
   -5000001    1    1    2    0    0  0.68202774676E+02  0.68218301257E+02  0.21358481932E+04  0.21443828621E+04  0.16500000000E+03 0.  0.
<mgrwt>
<rscale>  0 0.38238278E+03</rscale>
<asrwt>0</asrwt>
<pdfrwt beam="1">  1        1 0.67573689E+00 0.38238278E+03</pdfrwt>
<pdfrwt beam="2">  1       -1 0.12803607E-02 0.38238278E+03</pdfrwt>
<totfact> 0.71351553E+01</totfact>
</mgrwt>
</event>
<event>
 4    1  0.2309632E-005  0.4180630E+03  0.7818608E-02  0.1037699E+00
         -1   -1    0    0    0  501 -0.00000000000E+00  0.00000000000E+00  0.38759423145E+02  0.38759423473E+02  0.50400000000E-02 0. -1.
          1   -1    0    0  501    0  0.00000000000E+00 -0.00000000000E+00 -0.11273173907E+04  0.11273173907E+04  0.50400000000E-02 0.  1.
    5000001    1    1    2    0    0 -0.91318408582E+02 -0.90029529693E+02 -0.53038757592E+03  0.57007047692E+03  0.16500000000E+03 0.  0.
   -5000001    1    1    2    0    0  0.91318408582E+02  0.90029529693E+02 -0.55817039161E+03  0.59600633724E+03  0.16500000000E+03 0.  0.
<mgrwt>
<rscale>  0 0.41806302E+03</rscale>
<asrwt>0</asrwt>
<pdfrwt beam="1">  1        1 0.17343342E+00 0.41806302E+03</pdfrwt>
<pdfrwt beam="2">  1       -1 0.59629891E-02 0.41806302E+03</pdfrwt>
<totfact> 0.17375594E+03</totfact>
</mgrwt>
</event>
<event>
 4    1  0.2309632E-005  0.4124128E+03  0.7818608E-02  0.1039564E+00
         -1   -1    0    0    0  501 -0.00000000000E+00  0.00000000000E+00  0.45683162731E+02  0.45683163009E+02  0.50400000000E-02 0. -1.
          1   -1    0    0  501    0  0.00000000000E+00 -0.00000000000E+00 -0.93078248543E+03  0.93078248544E+03  0.50400000000E-02 0.  1.
    5000001    1    1    2    0    0 -0.98144150753E+02  0.64241041683E+02 -0.53537101472E+03  0.57236903232E+03  0.16500000000E+03 0.  0.
   -5000001    1    1    2    0    0  0.98144150753E+02 -0.64241041683E+02 -0.34972830798E+03  0.40409661613E+03  0.16500000000E+03 0.  0.
<mgrwt>
<rscale>  0 0.41241284E+03</rscale>
<asrwt>0</asrwt>
<pdfrwt beam="1">  1        1 0.14319729E+00 0.41241284E+03</pdfrwt>
<pdfrwt beam="2">  1       -1 0.70281796E-02 0.41241284E+03</pdfrwt>
<totfact> 0.18993630E+03</totfact>
</mgrwt>
</event>
<event>
 4    1  0.2309632E-005  0.4039784E+03  0.7818608E-02  0.1042411E+00
         -1   -1    0    0    0  501 -0.00000000000E+00  0.00000000000E+00  0.22905773820E+03  0.22905773826E+03  0.50400000000E-02 0. -1.
          1   -1    0    0  501    0  0.00000000000E+00 -0.00000000000E+00 -0.17811940489E+03  0.17811940496E+03  0.50400000000E-02 0.  1.
    5000001    1    1    2    0    0  0.99800440835E+02  0.60120305875E+02  0.25691985822E+02  0.20361644655E+03  0.16500000000E+03 0.  0.
   -5000001    1    1    2    0    0 -0.99800440835E+02 -0.60120305875E+02  0.25246347488E+02  0.20356069668E+03  0.16500000000E+03 0.  0.
<mgrwt>
<rscale>  0 0.40397836E+03</rscale>
<asrwt>0</asrwt>
<pdfrwt beam="1">  1        1 0.27402986E-01 0.40397836E+03</pdfrwt>
<pdfrwt beam="2">  1       -1 0.35239652E-01 0.40397836E+03</pdfrwt>
<totfact> 0.13206812E+03</totfact>
</mgrwt>
</event>
<event>
 4    1  0.2309632E-005  0.6414223E+03  0.7818608E-02  0.9823009E-01
         -1   -1    0    0    0  501 -0.00000000000E+00  0.00000000000E+00  0.30231624624E+03  0.30231624628E+03  0.50400000000E-02 0. -1.
          1   -1    0    0  501    0  0.00000000000E+00 -0.00000000000E+00 -0.34022531315E+03  0.34022531319E+03  0.50400000000E-02 0.  1.
    5000001    1    1    2    0    0  0.12730052754E+03  0.16324302149E+03 -0.20031445430E+03  0.33197076524E+03  0.16500000000E+03 0.  0.
   -5000001    1    1    2    0    0 -0.12730052754E+03 -0.16324302149E+03  0.16240538738E+03  0.31057079423E+03  0.16500000000E+03 0.  0.
<mgrwt>
<rscale>  0 0.64142229E+03</rscale>
<asrwt>0</asrwt>
<pdfrwt beam="1">  1        1 0.52342356E-01 0.64142229E+03</pdfrwt>
<pdfrwt beam="2">  1       -1 0.46510192E-01 0.64142229E+03</pdfrwt>
<totfact> 0.34679540E+02</totfact>
</mgrwt>
</event>
<event>
 4    1  0.2309632E-005  0.4023306E+03  0.7818608E-02  0.1042976E+00
         -1   -1    0    0    0  501 -0.00000000000E+00  0.00000000000E+00  0.54333952565E+02  0.54333952798E+02  0.50400000000E-02 0. -1.
          1   -1    0    0  501    0  0.00000000000E+00 -0.00000000000E+00 -0.74479172650E+03  0.74479172652E+03  0.50400000000E-02 0.  1.
    5000001    1    1    2    0    0 -0.10276954093E+03 -0.39391680222E+02 -0.27848421947E+03  0.34189434554E+03  0.16500000000E+03 0.  0.
   -5000001    1    1    2    0    0  0.10276954093E+03  0.39391680222E+02 -0.41197355446E+03  0.45723133378E+03  0.16500000000E+03 0.  0.
<mgrwt>
<rscale>  0 0.40233060E+03</rscale>
<asrwt>0</asrwt>
<pdfrwt beam="1">  1        1 0.11458334E+00 0.40233060E+03</pdfrwt>
<pdfrwt beam="2">  1       -1 0.83590702E-02 0.40233060E+03</pdfrwt>
<totfact> 0.20742118E+03</totfact>
</mgrwt>
</event>
<event>
 4    1  0.2309632E-005  0.3852469E+03  0.7818608E-02  0.1049011E+00
         -1   -1    0    0    0  501 -0.00000000000E+00  0.00000000000E+00  0.10945827611E+03  0.10945827623E+03  0.50400000000E-02 0.  1.
          1   -1    0    0  501    0  0.00000000000E+00 -0.00000000000E+00 -0.33897665103E+03  0.33897665106E+03  0.50400000000E-02 0. -1.
    5000001    1    1    2    0    0  0.89711529608E+02  0.39754221635E+02 -0.13317290161E+03  0.23364198768E+03  0.16500000000E+03 0.  0.
   -5000001    1    1    2    0    0 -0.89711529608E+02 -0.39754221635E+02 -0.96345473301E+02  0.21479293961E+03  0.16500000000E+03 0.  0.
<mgrwt>
<rscale>  0 0.38524693E+03</rscale>
<asrwt>0</asrwt>
<pdfrwt beam="1">  1        1 0.52150254E-01 0.38524693E+03</pdfrwt>
<pdfrwt beam="2">  1       -1 0.16839735E-01 0.38524693E+03</pdfrwt>
<totfact> 0.20096091E+03</totfact>
</mgrwt>
</event>
<event>
 4    1  0.2309632E-005  0.4950228E+03  0.7818608E-02  0.1015086E+00
         -1   -1    0    0    0  501 -0.00000000000E+00  0.00000000000E+00  0.15832225671E+04  0.15832225671E+04  0.50400000000E-02 0. -1.
          1   -1    0    0  501    0  0.00000000000E+00 -0.00000000000E+00 -0.38694423749E+02  0.38694424077E+02  0.50400000000E-02 0.  1.
    5000001    1    1    2    0    0 -0.17158631326E+03  0.49217563353E+02  0.92498505346E+03  0.95639248249E+03  0.16500000000E+03 0.  0.
   -5000001    1    1    2    0    0  0.17158631326E+03 -0.49217563353E+02  0.61954308987E+03  0.66552450868E+03  0.16500000000E+03 0.  0.
<mgrwt>
<rscale>  0 0.49502277E+03</rscale>
<asrwt>0</asrwt>
<pdfrwt beam="1">  1        1 0.59529883E-02 0.49502277E+03</pdfrwt>
<pdfrwt beam="2">  1       -1 0.24357270E+00 0.49502277E+03</pdfrwt>
<totfact> 0.11149826E+02</totfact>
</mgrwt>
</event>
<event>
 4    1  0.2309632E-005  0.5732102E+03  0.7818608E-02  0.9962600E-01
          1   -1    0    0  501    0  0.00000000000E+00  0.00000000000E+00  0.14007133952E+04  0.14007133952E+04  0.50400000000E-02 0.  1.
         -1   -1    0    0    0  501 -0.00000000000E+00 -0.00000000000E+00 -0.58643320638E+02  0.58643320854E+02  0.50400000000E-02 0. -1.
    5000001    1    1    2    0    0  0.17267615371E+03 -0.15726713631E+03  0.71983996025E+03  0.77456089147E+03  0.16500000000E+03 0.  0.
   -5000001    1    1    2    0    0 -0.17267615371E+03  0.15726713631E+03  0.62223011431E+03  0.68479582459E+03  0.16500000000E+03 0.  0.
<mgrwt>
<rscale>  0 0.57321021E+03</rscale>
<asrwt>0</asrwt>
<pdfrwt beam="1">  1        1 0.21549434E+00 0.57321021E+03</pdfrwt>
<pdfrwt beam="2">  1       -1 0.90220507E-02 0.57321021E+03</pdfrwt>
<totfact> 0.58387629E+02</totfact>
</mgrwt>
</event>
<event>
 4    1  0.2309632E-005  0.5077070E+03  0.7818608E-02  0.1011787E+00
          1   -1    0    0  501    0  0.00000000000E+00  0.00000000000E+00  0.10380677426E+04  0.10380677426E+04  0.50400000000E-02 0.  1.
         -1   -1    0    0    0  501 -0.00000000000E+00 -0.00000000000E+00 -0.62078407701E+02  0.62078407905E+02  0.50400000000E-02 0. -1.
    5000001    1    1    2    0    0 -0.13696905524E+03  0.99368185589E+02  0.28725538047E+03  0.37198818800E+03  0.16500000000E+03 0.  0.
   -5000001    1    1    2    0    0  0.13696905524E+03 -0.99368185589E+02  0.68873395440E+03  0.72815796250E+03  0.16500000000E+03 0.  0.
<mgrwt>
<rscale>  0 0.50770697E+03</rscale>
<asrwt>0</asrwt>
<pdfrwt beam="1">  1        1 0.15970273E+00 0.50770697E+03</pdfrwt>
<pdfrwt beam="2">  1       -1 0.95505241E-02 0.50770697E+03</pdfrwt>
<totfact> 0.97397854E+02</totfact>
</mgrwt>
</event>
<event>
 4    1  0.2309632E-005  0.4301727E+03  0.7818608E-02  0.1033805E+00
          1   -1    0    0  501    0  0.00000000000E+00  0.00000000000E+00  0.19901304600E+04  0.19901304600E+04  0.50400000000E-02 0.  1.
         -1   -1    0    0    0  501 -0.00000000000E+00 -0.00000000000E+00 -0.23245779822E+02  0.23245780368E+02  0.50400000000E-02 0. -1.
    5000001    1    1    2    0    0  0.13414636639E+03 -0.18954105112E+02  0.11057277321E+04  0.11261497783E+04  0.16500000000E+03 0.  0.
   -5000001    1    1    2    0    0 -0.13414636639E+03  0.18954105112E+02  0.86115694809E+03  0.88722646205E+03  0.16500000000E+03 0.  0.
<mgrwt>
<rscale>  0 0.43017269E+03</rscale>
<asrwt>0</asrwt>
<pdfrwt beam="1">  1        1 0.30617387E+00 0.43017269E+03</pdfrwt>
<pdfrwt beam="2">  1       -1 0.35762745E-02 0.43017269E+03</pdfrwt>
<totfact> 0.98214756E+02</totfact>
</mgrwt>
</event>
<event>
 4    1  0.2309632E-005  0.6452977E+03  0.7818608E-02  0.9815643E-01
          1   -1    0    0  501    0  0.00000000000E+00  0.00000000000E+00  0.80763322353E+03  0.80763322354E+03  0.50400000000E-02 0.  1.
         -1   -1    0    0    0  501 -0.00000000000E+00 -0.00000000000E+00 -0.12889796769E+03  0.12889796779E+03  0.50400000000E-02 0. -1.
    5000001    1    1    2    0    0 -0.25246071824E+03 -0.92130014837E+02  0.24036989213E+03  0.39651864890E+03  0.16500000000E+03 0.  0.
   -5000001    1    1    2    0    0  0.25246071824E+03  0.92130014837E+02  0.43836536370E+03  0.54001254243E+03  0.16500000000E+03 0.  0.
<mgrwt>
<rscale>  0 0.64529770E+03</rscale>
<asrwt>0</asrwt>
<pdfrwt beam="1">  1        1 0.12425126E+00 0.64529770E+03</pdfrwt>
<pdfrwt beam="2">  1       -1 0.19830457E-01 0.64529770E+03</pdfrwt>
<totfact> 0.45684619E+02</totfact>
</mgrwt>
</event>
<event>
 4    1  0.2309632E-005  0.4688667E+03  0.7818608E-02  0.1022241E+00
          1   -1    0    0  501    0  0.00000000000E+00  0.00000000000E+00  0.89759954491E+02  0.89759954632E+02  0.50400000000E-02 0.  1.
         -1   -1    0    0    0  501 -0.00000000000E+00 -0.00000000000E+00 -0.61228863161E+03  0.61228863163E+03  0.50400000000E-02 0. -1.
    5000001    1    1    2    0    0  0.11246627048E+03 -0.99240720576E+02 -0.36961789618E+03  0.43167090682E+03  0.16500000000E+03 0.  0.
   -5000001    1    1    2    0    0 -0.11246627048E+03  0.99240720576E+02 -0.15291078094E+03  0.27037767945E+03  0.16500000000E+03 0.  0.
<mgrwt>
<rscale>  0 0.46886672E+03</rscale>
<asrwt>0</asrwt>
<pdfrwt beam="1">  1        1 0.13809224E-01 0.46886672E+03</pdfrwt>
<pdfrwt beam="2">  1       -1 0.94198248E-01 0.46886672E+03</pdfrwt>
<totfact> 0.47781912E+02</totfact>
</mgrwt>
</event>
<event>
 4    1  0.2309632E-005  0.4978974E+03  0.7818608E-02  0.1014329E+00
         -1   -1    0    0    0  501 -0.00000000000E+00  0.00000000000E+00  0.40878432925E+03  0.40878432928E+03  0.50400000000E-02 0.  1.
          1   -1    0    0  501    0  0.00000000000E+00 -0.00000000000E+00 -0.15160916933E+03  0.15160916941E+03  0.50400000000E-02 0. -1.
    5000001    1    1    2    0    0  0.12410065648E+03  0.13831182567E+03  0.11191929419E+03  0.27254735822E+03  0.16500000000E+03 0.  0.
   -5000001    1    1    2    0    0 -0.12410065648E+03 -0.13831182567E+03  0.14525586573E+03  0.28784614048E+03  0.16500000000E+03 0.  0.
<mgrwt>
<rscale>  0 0.49789739E+03</rscale>
<asrwt>0</asrwt>
<pdfrwt beam="1">  1        1 0.23324488E-01 0.49789739E+03</pdfrwt>
<pdfrwt beam="2">  1       -1 0.62889896E-01 0.49789739E+03</pdfrwt>
<totfact> 0.55466486E+02</totfact>
</mgrwt>
</event>
<event>
 4    1  0.2309632E-005  0.4270912E+03  0.7818608E-02  0.1034783E+00
         -1   -1    0    0    0  501 -0.00000000000E+00  0.00000000000E+00  0.29277343199E+03  0.29277343204E+03  0.50400000000E-02 0.  1.
          1   -1    0    0  501    0  0.00000000000E+00 -0.00000000000E+00 -0.15575775649E+03  0.15575775657E+03  0.50400000000E-02 0. -1.
    5000001    1    1    2    0    0 -0.11521474735E+03  0.78940382178E+01  0.14306448091E+03  0.24704088638E+03  0.16500000000E+03 0.  0.
   -5000001    1    1    2    0    0  0.11521474735E+03 -0.78940382178E+01 -0.60488054058E+01  0.20149030223E+03  0.16500000000E+03 0.  0.
<mgrwt>
<rscale>  0 0.42709125E+03</rscale>
<asrwt>0</asrwt>
<pdfrwt beam="1">  1        1 0.23962732E-01 0.42709125E+03</pdfrwt>
<pdfrwt beam="2">  1       -1 0.45042066E-01 0.42709125E+03</pdfrwt>
<totfact> 0.10107571E+03</totfact>
</mgrwt>
</event>
<event>
 4    1  0.2309632E-005  0.7359921E+03  0.7818608E-02  0.9657586E-01
         -1   -1    0    0    0  501 -0.00000000000E+00  0.00000000000E+00  0.49610658539E+03  0.49610658541E+03  0.50400000000E-02 0. -1.
          1   -1    0    0  501    0  0.00000000000E+00 -0.00000000000E+00 -0.27296775434E+03  0.27296775438E+03  0.50400000000E-02 0.  1.
    5000001    1    1    2    0    0  0.94687187856E+02  0.29880580598E+03  0.21577933579E+03  0.41477258225E+03  0.16500000000E+03 0.  0.
   -5000001    1    1    2    0    0 -0.94687187856E+02 -0.29880580598E+03  0.73594952583E+01  0.35430175755E+03  0.16500000000E+03 0.  0.
<mgrwt>
<rscale>  0 0.73599212E+03</rscale>
<asrwt>0</asrwt>
<pdfrwt beam="1">  1        1 0.41995039E-01 0.73599212E+03</pdfrwt>
<pdfrwt beam="2">  1       -1 0.76324090E-01 0.73599212E+03</pdfrwt>
<totfact> 0.17334390E+02</totfact>
</mgrwt>
</event>
<event>
 4    1  0.2309632E-005  0.6493908E+03  0.7818608E-02  0.9807923E-01
          1   -1    0    0  501    0  0.00000000000E+00  0.00000000000E+00  0.13006191997E+03  0.13006192007E+03  0.50400000000E-02 0.  1.
         -1   -1    0    0    0  501 -0.00000000000E+00 -0.00000000000E+00 -0.81059167951E+03  0.81059167952E+03  0.50400000000E-02 0. -1.
    5000001    1    1    2    0    0  0.22159986123E+03 -0.16003952502E+03 -0.25477829810E+03  0.40848026788E+03  0.16500000000E+03 0.  0.
   -5000001    1    1    2    0    0 -0.22159986123E+03  0.16003952502E+03 -0.42575146144E+03  0.53217333171E+03  0.16500000000E+03 0.  0.
<mgrwt>
<rscale>  0 0.64939082E+03</rscale>
<asrwt>0</asrwt>
<pdfrwt beam="1">  1        1 0.20009527E-01 0.64939082E+03</pdfrwt>
<pdfrwt beam="2">  1       -1 0.12470641E+00 0.64939082E+03</pdfrwt>
<totfact> 0.15038411E+02</totfact>
</mgrwt>
</event>
<event>
 4    1  0.2309632E-005  0.5574700E+03  0.7818608E-02  0.9997795E-01
         -1   -1    0    0    0  501 -0.00000000000E+00  0.00000000000E+00  0.73942919099E+02  0.73942919271E+02  0.50400000000E-02 0. -1.
          1   -1    0    0  501    0  0.00000000000E+00 -0.00000000000E+00 -0.10507187567E+04  0.10507187567E+04  0.50400000000E-02 0.  1.
    5000001    1    1    2    0    0  0.13872854324E+03 -0.15965945922E+03 -0.64112096502E+03  0.69498046261E+03  0.16500000000E+03 0.  0.
   -5000001    1    1    2    0    0 -0.13872854324E+03  0.15965945922E+03 -0.33565487254E+03  0.42968121333E+03  0.16500000000E+03 0.  0.
<mgrwt>
<rscale>  0 0.55747004E+03</rscale>
<asrwt>0</asrwt>
<pdfrwt beam="1">  1        1 0.16164903E+00 0.55747004E+03</pdfrwt>
<pdfrwt beam="2">  1       -1 0.11375835E-01 0.55747004E+03</pdfrwt>
<totfact> 0.72174873E+02</totfact>
</mgrwt>
</event>
<event>
 4    1  0.2309632E-005  0.4466938E+03  0.7818608E-02  0.1028713E+00
         -1   -1    0    0    0  501 -0.00000000000E+00  0.00000000000E+00  0.41194692336E+02  0.41194692645E+02  0.50400000000E-02 0. -1.
          1   -1    0    0  501    0  0.00000000000E+00 -0.00000000000E+00 -0.12109288566E+04  0.12109288566E+04  0.50400000000E-02 0.  1.
    5000001    1    1    2    0    0 -0.60378104305E+02 -0.89993162200E+02 -0.29202040479E+03  0.35248432807E+03  0.16500000000E+03 0.  0.
   -5000001    1    1    2    0    0  0.60378104305E+02  0.89993162200E+02 -0.87771375948E+03  0.89963922119E+03  0.16500000000E+03 0.  0.
<mgrwt>
<rscale>  0 0.44669382E+03</rscale>
<asrwt>0</asrwt>
<pdfrwt beam="1">  1        1 0.18629672E+00 0.44669382E+03</pdfrwt>
<pdfrwt beam="2">  1       -1 0.63376459E-02 0.44669382E+03</pdfrwt>
<totfact> 0.13776209E+03</totfact>
</mgrwt>
</event>
<event>
 4    1  0.2309632E-005  0.4351640E+03  0.7818608E-02  0.1032241E+00
          1   -1    0    0  501    0  0.00000000000E+00  0.00000000000E+00  0.33824821451E+03  0.33824821455E+03  0.50400000000E-02 0.  1.
         -1   -1    0    0    0  501 -0.00000000000E+00 -0.00000000000E+00 -0.13996207499E+03  0.13996207508E+03  0.50400000000E-02 0. -1.
    5000001    1    1    2    0    0  0.13398685997E+03  0.44440125609E+02  0.11427143083E+03  0.24537800087E+03  0.16500000000E+03 0.  0.
   -5000001    1    1    2    0    0 -0.13398685997E+03 -0.44440125609E+02  0.84014708695E+02  0.23283228875E+03  0.16500000000E+03 0.  0.
<mgrwt>
<rscale>  0 0.43516398E+03</rscale>
<asrwt>0</asrwt>
<pdfrwt beam="1">  1        1 0.52038187E-01 0.43516398E+03</pdfrwt>
<pdfrwt beam="2">  1       -1 0.21532627E-01 0.43516398E+03</pdfrwt>
<totfact> 0.13486549E+03</totfact>
</mgrwt>
</event>
<event>
 4    1  0.2309632E-005  0.6502489E+03  0.7818608E-02  0.9806312E-01
          1   -1    0    0  501    0  0.00000000000E+00  0.00000000000E+00  0.18321736203E+03  0.18321736210E+03  0.50400000000E-02 0.  1.
         -1   -1    0    0    0  501 -0.00000000000E+00 -0.00000000000E+00 -0.57694270874E+03  0.57694270876E+03  0.50400000000E-02 0. -1.
    5000001    1    1    2    0    0 -0.18265125882E+03  0.20573703014E+03 -0.25863028435E+03  0.41207260514E+03  0.16500000000E+03 0.  0.
   -5000001    1    1    2    0    0  0.18265125882E+03 -0.20573703014E+03 -0.13509506235E+03  0.34808746572E+03  0.16500000000E+03 0.  0.
<mgrwt>
<rscale>  0 0.65024894E+03</rscale>
<asrwt>0</asrwt>
<pdfrwt beam="1">  1        1 0.28187287E-01 0.65024894E+03</pdfrwt>
<pdfrwt beam="2">  1       -1 0.88760416E-01 0.65024894E+03</pdfrwt>
<totfact> 0.21111933E+02</totfact>
</mgrwt>
</event>
<event>
 4    1  0.2309632E-005  0.7842124E+03  0.7818608E-02  0.9583154E-01
         -1   -1    0    0    0  501 -0.00000000000E+00  0.00000000000E+00  0.67641274313E+02  0.67641274501E+02  0.50400000000E-02 0. -1.
          1   -1    0    0  501    0  0.00000000000E+00 -0.00000000000E+00 -0.22729801642E+04  0.22729801642E+04  0.50400000000E-02 0.  1.
    5000001    1    1    2    0    0  0.28829268956E+03 -0.16187846258E+03 -0.14941627571E+04  0.15391766163E+04  0.16500000000E+03 0.  0.
   -5000001    1    1    2    0    0 -0.28829268956E+03  0.16187846258E+03 -0.71117613283E+03  0.80144482243E+03  0.16500000000E+03 0.  0.
<mgrwt>
<rscale>  0 0.78421241E+03</rscale>
<asrwt>0</asrwt>
<pdfrwt beam="1">  1        1 0.34968920E+00 0.78421241E+03</pdfrwt>
<pdfrwt beam="2">  1       -1 0.10406352E-01 0.78421241E+03</pdfrwt>
<totfact> 0.11883550E+02</totfact>
</mgrwt>
</event>
<event>
 4    1  0.2309632E-005  0.4779105E+03  0.7818608E-02  0.1019711E+00
         -1   -1    0    0    0  501 -0.00000000000E+00  0.00000000000E+00  0.12933560583E+03  0.12933560593E+03  0.50400000000E-02 0.  1.
          1   -1    0    0  501    0  0.00000000000E+00 -0.00000000000E+00 -0.44148408114E+03  0.44148408116E+03  0.50400000000E-02 0. -1.
    5000001    1    1    2    0    0 -0.11147967505E+03  0.12596486991E+03 -0.20354714508E+03  0.31137004781E+03  0.16500000000E+03 0.  0.
   -5000001    1    1    2    0    0  0.11147967505E+03 -0.12596486991E+03 -0.10860133022E+03  0.25944963929E+03  0.16500000000E+03 0.  0.
<mgrwt>
<rscale>  0 0.47791050E+03</rscale>
<asrwt>0</asrwt>
<pdfrwt beam="1">  1        1 0.67920627E-01 0.47791050E+03</pdfrwt>
<pdfrwt beam="2">  1       -1 0.19897786E-01 0.47791050E+03</pdfrwt>
<totfact> 0.10860478E+03</totfact>
</mgrwt>
</event>
<event>
 4    1  0.2309632E-005  0.4675233E+03  0.7818608E-02  0.1022622E+00
         -1   -1    0    0    0  501 -0.00000000000E+00  0.00000000000E+00  0.32670157205E+02  0.32670157593E+02  0.50400000000E-02 0.  1.
          1   -1    0    0  501    0  0.00000000000E+00 -0.00000000000E+00 -0.16726126885E+04  0.16726126886E+04  0.50400000000E-02 0. -1.
    5000001    1    1    2    0    0  0.12015572724E+03 -0.11392012055E+03 -0.81238383717E+03  0.84534471759E+03  0.16500000000E+03 0.  0.
   -5000001    1    1    2    0    0 -0.12015572724E+03  0.11392012055E+03 -0.82755869417E+03  0.85993812856E+03  0.16500000000E+03 0.  0.
<mgrwt>
<rscale>  0 0.46752335E+03</rscale>
<asrwt>0</asrwt>
<pdfrwt beam="1">  1        1 0.25732496E+00 0.46752335E+03</pdfrwt>
<pdfrwt beam="2">  1       -1 0.50261794E-02 0.46752335E+03</pdfrwt>
<totfact> 0.94936900E+02</totfact>
</mgrwt>
</event>
<event>
 4    1  0.2309632E-005  0.4487603E+03  0.7818608E-02  0.1028092E+00
          1   -1    0    0  501    0  0.00000000000E+00  0.00000000000E+00  0.14208650926E+04  0.14208650926E+04  0.50400000000E-02 0. -1.
         -1   -1    0    0    0  501 -0.00000000000E+00 -0.00000000000E+00 -0.35433665434E+02  0.35433665793E+02  0.50400000000E-02 0.  1.
    5000001    1    1    2    0    0  0.12115025563E+03 -0.85951945331E+02  0.79818774614E+03  0.82848886501E+03  0.16500000000E+03 0.  0.
   -5000001    1    1    2    0    0 -0.12115025563E+03  0.85951945331E+02  0.58724368103E+03  0.62780989341E+03  0.16500000000E+03 0.  0.
<mgrwt>
<rscale>  0 0.44876033E+03</rscale>
<asrwt>0</asrwt>
<pdfrwt beam="1">  1        1 0.21859462E+00 0.44876033E+03</pdfrwt>
<pdfrwt beam="2">  1       -1 0.54513334E-02 0.44876033E+03</pdfrwt>
<totfact> 0.12397127E+03</totfact>
</mgrwt>
</event>
<event>
 4    1  0.2309632E-005  0.6401146E+03  0.7818608E-02  0.9825507E-01
          1   -1    0    0  501    0  0.00000000000E+00  0.00000000000E+00  0.10110378140E+04  0.10110378140E+04  0.50400000000E-02 0.  1.
         -1   -1    0    0    0  501 -0.00000000000E+00 -0.00000000000E+00 -0.10131834836E+03  0.10131834849E+03  0.50400000000E-02 0. -1.
    5000001    1    1    2    0    0 -0.29999180577E+02  0.14084722324E+03  0.49276570802E+02  0.22447955711E+03  0.16500000000E+03 0.  0.
   -5000001    1    1    2    0    0  0.29999180577E+02 -0.14084722324E+03  0.86044289484E+03  0.88787660539E+03  0.16500000000E+03 0.  0.
<mgrwt>
<rscale>  0 0.64011462E+03</rscale>
<asrwt>0</asrwt>
<pdfrwt beam="1">  1        1 0.15554427E+00 0.64011462E+03</pdfrwt>
<pdfrwt beam="2">  1       -1 0.15587439E-01 0.64011462E+03</pdfrwt>
<totfact> 0.46475290E+02</totfact>
</mgrwt>
</event>
<event>
 4    1  0.2309632E-005  0.3975295E+03  0.7818608E-02  0.1044638E+00
         -1   -1    0    0    0  501 -0.00000000000E+00  0.00000000000E+00  0.84438798909E+02  0.84438799059E+02  0.50400000000E-02 0. -1.
          1   -1    0    0  501    0  0.00000000000E+00 -0.00000000000E+00 -0.46788236300E+03  0.46788236303E+03  0.50400000000E-02 0.  1.
    5000001    1    1    2    0    0  0.10028493279E+03 -0.46087007986E+02 -0.20570873061E+03  0.28587088327E+03  0.16500000000E+03 0.  0.
   -5000001    1    1    2    0    0 -0.10028493279E+03  0.46087007986E+02 -0.17773483348E+03  0.26645027882E+03  0.16500000000E+03 0.  0.
<mgrwt>
<rscale>  0 0.39752949E+03</rscale>
<asrwt>0</asrwt>
<pdfrwt beam="1">  1        1 0.71981901E-01 0.39752949E+03</pdfrwt>
<pdfrwt beam="2">  1       -1 0.12990585E-01 0.39752949E+03</pdfrwt>
<totfact> 0.20024288E+03</totfact>
</mgrwt>
</event>
<event>
 4    1  0.2309632E-005  0.3518182E+03  0.7818608E-02  0.1061871E+00
         -1   -1    0    0    0  501 -0.00000000000E+00  0.00000000000E+00  0.18979216770E+02  0.18979217439E+02  0.50400000000E-02 0. -1.
          1   -1    0    0  501    0  0.00000000000E+00 -0.00000000000E+00 -0.16304154782E+04  0.16304154782E+04  0.50400000000E-02 0.  1.
    5000001    1    1    2    0    0 -0.47661345825E+02 -0.22248894273E+02 -0.95040003379E+03  0.96604960608E+03  0.16500000000E+03 0.  0.
   -5000001    1    1    2    0    0  0.47661345825E+02  0.22248894273E+02 -0.66103622767E+03  0.68334508960E+03  0.16500000000E+03 0.  0.
<mgrwt>
<rscale>  0 0.35181819E+03</rscale>
<asrwt>0</asrwt>
<pdfrwt beam="1">  1        1 0.25083304E+00 0.35181819E+03</pdfrwt>
<pdfrwt beam="2">  1       -1 0.29198809E-02 0.35181819E+03</pdfrwt>
<totfact> 0.23026211E+03</totfact>
</mgrwt>
</event>
<event>
 4    1  0.2309632E-005  0.3625924E+03  0.7818608E-02  0.1057562E+00
          1   -1    0    0  501    0  0.00000000000E+00  0.00000000000E+00  0.19709728698E+03  0.19709728704E+03  0.50400000000E-02 0.  1.
         -1   -1    0    0    0  501 -0.00000000000E+00 -0.00000000000E+00 -0.16676186991E+03  0.16676186999E+03  0.50400000000E-02 0. -1.
    5000001    1    1    2    0    0  0.26481030421E+02  0.46288139478E+02  0.68262624053E+02  0.18635617154E+03  0.16500000000E+03 0.  0.
   -5000001    1    1    2    0    0 -0.26481030421E+02 -0.46288139478E+02 -0.37927206991E+02  0.17750298549E+03  0.16500000000E+03 0.  0.
<mgrwt>
<rscale>  0 0.36259240E+03</rscale>
<asrwt>0</asrwt>
<pdfrwt beam="1">  1        1 0.30322660E-01 0.36259240E+03</pdfrwt>
<pdfrwt beam="2">  1       -1 0.25655672E-01 0.36259240E+03</pdfrwt>
<totfact> 0.19999454E+03</totfact>
</mgrwt>
</event>
<event>
 4    1  0.2309632E-005  0.3623281E+03  0.7818608E-02  0.1057666E+00
         -1   -1    0    0    0  501 -0.00000000000E+00  0.00000000000E+00  0.18065965730E+02  0.18065966433E+02  0.50400000000E-02 0. -1.
          1   -1    0    0  501    0  0.00000000000E+00 -0.00000000000E+00 -0.18166986865E+04  0.18166986865E+04  0.50400000000E-02 0.  1.
    5000001    1    1    2    0    0  0.45660547970E+02  0.59127777888E+02 -0.88007577102E+03  0.89852064111E+03  0.16500000000E+03 0.  0.
   -5000001    1    1    2    0    0 -0.45660547970E+02 -0.59127777888E+02 -0.91855694976E+03  0.93624401184E+03  0.16500000000E+03 0.  0.
<mgrwt>
<rscale>  0 0.36232812E+03</rscale>
<asrwt>0</asrwt>
<pdfrwt beam="1">  1        1 0.27949196E+00 0.36232812E+03</pdfrwt>
<pdfrwt beam="2">  1       -1 0.27793808E-02 0.36232812E+03</pdfrwt>
<totfact> 0.18678156E+03</totfact>
</mgrwt>
</event>
<event>
 4    1  0.2309632E-005  0.4242412E+03  0.7818608E-02  0.1035695E+00
          1   -1    0    0  501    0  0.00000000000E+00  0.00000000000E+00  0.93039129055E+03  0.93039129057E+03  0.50400000000E-02 0.  1.
         -1   -1    0    0    0  501 -0.00000000000E+00 -0.00000000000E+00 -0.48361540964E+02  0.48361541227E+02  0.50400000000E-02 0. -1.
    5000001    1    1    2    0    0  0.86928925423E+02  0.60055912828E+02  0.62853847229E+03  0.65836840894E+03  0.16500000000E+03 0.  0.
   -5000001    1    1    2    0    0 -0.86928925423E+02 -0.60055912828E+02  0.25349127730E+03  0.32038442286E+03  0.16500000000E+03 0.  0.
<mgrwt>
<rscale>  0 0.42424124E+03</rscale>
<asrwt>0</asrwt>
<pdfrwt beam="1">  1        1 0.14313712E+00 0.42424124E+03</pdfrwt>
<pdfrwt beam="2">  1       -1 0.74402372E-02 0.42424124E+03</pdfrwt>
<totfact> 0.17409542E+03</totfact>
</mgrwt>
</event>
<event>
 4    1  0.2309632E-005  0.6457329E+03  0.7818608E-02  0.9814819E-01
          1   -1    0    0  501    0  0.00000000000E+00  0.00000000000E+00  0.58594989596E+03  0.58594989598E+03  0.50400000000E-02 0.  1.
         -1   -1    0    0    0  501 -0.00000000000E+00 -0.00000000000E+00 -0.17790385757E+03  0.17790385764E+03  0.50400000000E-02 0. -1.
    5000001    1    1    2    0    0 -0.94681971897E+02  0.19764714754E+03  0.26174435830E+01  0.27433724090E+03  0.16500000000E+03 0.  0.
   -5000001    1    1    2    0    0  0.94681971897E+02 -0.19764714754E+03  0.40542859481E+03  0.48951651272E+03  0.16500000000E+03 0.  0.
<mgrwt>
<rscale>  0 0.64573291E+03</rscale>
<asrwt>0</asrwt>
<pdfrwt beam="1">  1        1 0.90146138E-01 0.64573291E+03</pdfrwt>
<pdfrwt beam="2">  1       -1 0.27369824E-01 0.64573291E+03</pdfrwt>
<totfact> 0.42916602E+02</totfact>
</mgrwt>
</event>
<event>
 4    1  0.2309632E-005  0.3763281E+03  0.7818608E-02  0.1052299E+00
          1   -1    0    0  501    0  0.00000000000E+00  0.00000000000E+00  0.16394644807E+03  0.16394644815E+03  0.50400000000E-02 0. -1.
         -1   -1    0    0    0  501 -0.00000000000E+00 -0.00000000000E+00 -0.21595899945E+03  0.21595899951E+03  0.50400000000E-02 0.  1.
    5000001    1    1    2    0    0 -0.58537195844E+02  0.68185674694E+02 -0.15670720539E+02  0.18853769123E+03  0.16500000000E+03 0.  0.
   -5000001    1    1    2    0    0  0.58537195844E+02 -0.68185674694E+02 -0.36341830841E+02  0.19136775643E+03  0.16500000000E+03 0.  0.
<mgrwt>
<rscale>  0 0.37632811E+03</rscale>
<asrwt>0</asrwt>
<pdfrwt beam="1">  1        1 0.25222530E-01 0.37632811E+03</pdfrwt>
<pdfrwt beam="2">  1       -1 0.33224462E-01 0.37632811E+03</pdfrwt>
<totfact> 0.16275491E+03</totfact>
</mgrwt>
</event>
<event>
 4    1  0.2309632E-005  0.5864419E+03  0.7818608E-02  0.9933941E-01
          1   -1    0    0  501    0  0.00000000000E+00  0.00000000000E+00  0.69534673403E+03  0.69534673405E+03  0.50400000000E-02 0.  1.
         -1   -1    0    0    0  501 -0.00000000000E+00 -0.00000000000E+00 -0.12364840321E+03  0.12364840331E+03  0.50400000000E-02 0. -1.
    5000001    1    1    2    0    0 -0.95049553732E+02 -0.12393961108E+03  0.54471261397E+03  0.59019681181E+03  0.16500000000E+03 0.  0.
   -5000001    1    1    2    0    0  0.95049553732E+02  0.12393961108E+03  0.26985716860E+02  0.22879832555E+03  0.16500000000E+03 0.  0.
<mgrwt>
<rscale>  0 0.58644186E+03</rscale>
<asrwt>0</asrwt>
<pdfrwt beam="1">  1        1 0.10697642E+00 0.58644186E+03</pdfrwt>
<pdfrwt beam="2">  1       -1 0.19022831E-01 0.58644186E+03</pdfrwt>
<totfact> 0.61804281E+02</totfact>
</mgrwt>
</event>
<event>
 4    1  0.2309632E-005  0.3900121E+03  0.7818608E-02  0.1047294E+00
         -1   -1    0    0    0  501 -0.00000000000E+00  0.00000000000E+00  0.67549930606E+02  0.67549930794E+02  0.50400000000E-02 0. -1.
          1   -1    0    0  501    0  0.00000000000E+00 -0.00000000000E+00 -0.56295183621E+03  0.56295183624E+03  0.50400000000E-02 0.  1.
    5000001    1    1    2    0    0 -0.93490090899E+02  0.40739197784E+02 -0.21527658702E+03  0.28977420218E+03  0.16500000000E+03 0.  0.
   -5000001    1    1    2    0    0  0.93490090899E+02 -0.40739197784E+02 -0.28012531859E+03  0.34072756485E+03  0.16500000000E+03 0.  0.
<mgrwt>
<rscale>  0 0.39001209E+03</rscale>
<asrwt>0</asrwt>
<pdfrwt beam="1">  1        1 0.86607972E-01 0.39001209E+03</pdfrwt>
<pdfrwt beam="2">  1       -1 0.10392297E-01 0.39001209E+03</pdfrwt>
<totfact> 0.22145021E+03</totfact>
</mgrwt>
</event>
<event>
 4    1  0.2309632E-005  0.1054511E+04  0.7818608E-02  0.9250699E-01
         -1   -1    0    0    0  501 -0.00000000000E+00  0.00000000000E+00  0.79962631002E+03  0.79962631003E+03  0.50400000000E-02 0. -1.
          1   -1    0    0  501    0  0.00000000000E+00 -0.00000000000E+00 -0.34766018016E+03  0.34766018020E+03  0.50400000000E-02 0.  1.
    5000001    1    1    2    0    0 -0.11373583944E+03  0.43324864713E+03  0.46958610222E+03  0.66960909403E+03  0.16500000000E+03 0.  0.
   -5000001    1    1    2    0    0  0.11373583944E+03 -0.43324864713E+03 -0.17619972364E+02  0.47767739620E+03  0.16500000000E+03 0.  0.
<mgrwt>
<rscale>  0 0.10545107E+04</rscale>
<asrwt>0</asrwt>
<pdfrwt beam="1">  1        1 0.53486183E-01 0.10545107E+04</pdfrwt>
<pdfrwt beam="2">  1       -1 0.12301943E+00 0.10545107E+04</pdfrwt>
<totfact> 0.42060782E+01</totfact>
</mgrwt>
</event>
<event>
 4    1  0.2309632E-005  0.4797493E+03  0.7818608E-02  0.1019204E+00
          1   -1    0    0  501    0  0.00000000000E+00  0.00000000000E+00  0.20805099070E+03  0.20805099076E+03  0.50400000000E-02 0.  1.
         -1   -1    0    0    0  501 -0.00000000000E+00 -0.00000000000E+00 -0.27656608693E+03  0.27656608698E+03  0.50400000000E-02 0. -1.
    5000001    1    1    2    0    0  0.68848225591E+02 -0.15907360629E+03 -0.17648146294E+02  0.23996030391E+03  0.16500000000E+03 0.  0.
   -5000001    1    1    2    0    0 -0.68848225591E+02  0.15907360629E+03 -0.50866949940E+02  0.24465677383E+03  0.16500000000E+03 0.  0.
<mgrwt>
<rscale>  0 0.47974930E+03</rscale>
<asrwt>0</asrwt>
<pdfrwt beam="1">  1        1 0.32007845E-01 0.47974930E+03</pdfrwt>
<pdfrwt beam="2">  1       -1 0.42548629E-01 0.47974930E+03</pdfrwt>
<totfact> 0.77248485E+02</totfact>
</mgrwt>
</event>
<event>
 4    1  0.2309632E-005  0.6000558E+03  0.7818608E-02  0.9905290E-01
         -1   -1    0    0    0  501 -0.00000000000E+00  0.00000000000E+00  0.70085347703E+02  0.70085347884E+02  0.50400000000E-02 0. -1.
          1   -1    0    0  501    0  0.00000000000E+00 -0.00000000000E+00 -0.12843872789E+04  0.12843872789E+04  0.50400000000E-02 0.  1.
    5000001    1    1    2    0    0 -0.22348574207E+03 -0.10058560381E+03 -0.72505583244E+03  0.78293952561E+03  0.16500000000E+03 0.  0.
   -5000001    1    1    2    0    0  0.22348574207E+03  0.10058560381E+03 -0.48924609876E+03  0.57153310119E+03  0.16500000000E+03 0.  0.
<mgrwt>
<rscale>  0 0.60005576E+03</rscale>
<asrwt>0</asrwt>
<pdfrwt beam="1">  1        1 0.19759803E+00 0.60005576E+03</pdfrwt>
<pdfrwt beam="2">  1       -1 0.10782362E-01 0.60005576E+03</pdfrwt>
<totfact> 0.53049535E+02</totfact>
</mgrwt>
</event>
<event>
 4    1  0.2309632E-005  0.1108485E+04  0.7818608E-02  0.9196961E-01
          1   -1    0    0  501    0  0.00000000000E+00  0.00000000000E+00  0.55020687713E+03  0.55020687715E+03  0.50400000000E-02 0. -1.
         -1   -1    0    0    0  501 -0.00000000000E+00 -0.00000000000E+00 -0.55830750026E+03  0.55830750028E+03  0.50400000000E-02 0.  1.
    5000001    1    1    2    0    0  0.85607510437E+02  0.43809117908E+03  0.28004722329E+03  0.55218110643E+03  0.16500000000E+03 0.  0.
   -5000001    1    1    2    0    0 -0.85607510437E+02 -0.43809117908E+03 -0.28814784642E+03  0.55633327100E+03  0.16500000000E+03 0.  0.
<mgrwt>
<rscale>  0 0.11084848E+04</rscale>
<asrwt>0</asrwt>
<pdfrwt beam="1">  1        1 0.84647212E-01 0.11084848E+04</pdfrwt>
<pdfrwt beam="2">  1       -1 0.85893461E-01 0.11084848E+04</pdfrwt>
<totfact> 0.51705525E+01</totfact>
</mgrwt>
</event>
<event>
 4    1  0.2309632E-005  0.3997736E+03  0.7818608E-02  0.1043858E+00
         -1   -1    0    0    0  501 -0.00000000000E+00  0.00000000000E+00  0.20157726534E+03  0.20157726540E+03  0.50400000000E-02 0.  1.
          1   -1    0    0  501    0  0.00000000000E+00 -0.00000000000E+00 -0.19821052956E+03  0.19821052963E+03  0.50400000000E-02 0. -1.
    5000001    1    1    2    0    0 -0.72083407095E+02 -0.81481604443E+02  0.31592071198E+02  0.20014576789E+03  0.16500000000E+03 0.  0.
   -5000001    1    1    2    0    0  0.72083407095E+02  0.81481604443E+02 -0.28225335425E+02  0.19964202714E+03  0.16500000000E+03 0.  0.
<mgrwt>
<rscale>  0 0.39977362E+03</rscale>
<asrwt>0</asrwt>
<pdfrwt beam="1">  1        1 0.30493928E-01 0.39977362E+03</pdfrwt>
<pdfrwt beam="2">  1       -1 0.31011887E-01 0.39977362E+03</pdfrwt>
<totfact> 0.14389695E+03</totfact>
</mgrwt>
</event>
<event>
 4    1  0.2309632E-005  0.5250820E+03  0.7818608E-02  0.1007432E+00
         -1   -1    0    0    0  501 -0.00000000000E+00  0.00000000000E+00  0.14912447894E+03  0.14912447903E+03  0.50400000000E-02 0. -1.
          1   -1    0    0  501    0  0.00000000000E+00 -0.00000000000E+00 -0.46221638000E+03  0.46221638003E+03  0.50400000000E-02 0.  1.
    5000001    1    1    2    0    0  0.15311238265E+03 -0.13371856522E+03 -0.17920364274E+03  0.31727433236E+03  0.16500000000E+03 0.  0.
   -5000001    1    1    2    0    0 -0.15311238265E+03  0.13371856522E+03 -0.13388825832E+03  0.29406652669E+03  0.16500000000E+03 0.  0.
<mgrwt>
<rscale>  0 0.52508200E+03</rscale>
<asrwt>0</asrwt>
<pdfrwt beam="1">  1        1 0.71110211E-01 0.52508200E+03</pdfrwt>
<pdfrwt beam="2">  1       -1 0.22942228E-01 0.52508200E+03</pdfrwt>
<totfact> 0.80570139E+02</totfact>
</mgrwt>
</event>
<event>
 4    1  0.2309632E-005  0.5584088E+03  0.7818608E-02  0.9995662E-01
         -1   -1    0    0    0  501 -0.00000000000E+00  0.00000000000E+00  0.20384694560E+03  0.20384694566E+03  0.50400000000E-02 0. -1.
          1   -1    0    0  501    0  0.00000000000E+00 -0.00000000000E+00 -0.38241973427E+03  0.38241973430E+03  0.50400000000E-02 0.  1.
    5000001    1    1    2    0    0  0.15900469531E+03 -0.22245524229E+02 -0.25513127512E+03  0.34364854724E+03  0.16500000000E+03 0.  0.
   -5000001    1    1    2    0    0 -0.15900469531E+03  0.22245524229E+02  0.76558486454E+02  0.24261813272E+03  0.16500000000E+03 0.  0.
<mgrwt>
<rscale>  0 0.55840879E+03</rscale>
<asrwt>0</asrwt>
<pdfrwt beam="1">  1        1 0.58833805E-01 0.55840879E+03</pdfrwt>
<pdfrwt beam="2">  1       -1 0.31361069E-01 0.55840879E+03</pdfrwt>
<totfact> 0.60649417E+02</totfact>
</mgrwt>
</event>
<event>
 4    1  0.2309632E-005  0.3578836E+03  0.7818608E-02  0.1059425E+00
          1   -1    0    0  501    0  0.00000000000E+00  0.00000000000E+00  0.30735966588E+03  0.30735966592E+03  0.50400000000E-02 0.  1.
         -1   -1    0    0    0  501 -0.00000000000E+00 -0.00000000000E+00 -0.10417819173E+03  0.10417819185E+03  0.50400000000E-02 0. -1.
    5000001    1    1    2    0    0 -0.51153022272E+02 -0.82015575983E+01  0.15442803014E+03  0.23185537243E+03  0.16500000000E+03 0.  0.
   -5000001    1    1    2    0    0  0.51153022272E+02  0.82015575983E+01  0.48753444015E+02  0.17968248534E+03  0.16500000000E+03 0.  0.
<mgrwt>
<rscale>  0 0.35788364E+03</rscale>
<asrwt>0</asrwt>
<pdfrwt beam="1">  1        1 0.47286103E-01 0.35788364E+03</pdfrwt>
<pdfrwt beam="2">  1       -1 0.16027414E-01 0.35788364E+03</pdfrwt>
<totfact> 0.24635227E+03</totfact>
</mgrwt>
</event>
<event>
 4    1  0.2309632E-005  0.5569426E+03  0.7818608E-02  0.9998996E-01
          1   -1    0    0  501    0  0.00000000000E+00  0.00000000000E+00  0.89901885226E+03  0.89901885228E+03  0.50400000000E-02 0. -1.
         -1   -1    0    0    0  501 -0.00000000000E+00 -0.00000000000E+00 -0.86256545229E+02  0.86256545376E+02  0.50400000000E-02 0.  1.
    5000001    1    1    2    0    0  0.21153453082E+03  0.12798706278E+02  0.27625345243E+03  0.38529421822E+03  0.16500000000E+03 0.  0.
   -5000001    1    1    2    0    0 -0.21153453082E+03 -0.12798706278E+02  0.53650885460E+03  0.59998117944E+03  0.16500000000E+03 0.  0.
<mgrwt>
<rscale>  0 0.55694258E+03</rscale>
<asrwt>0</asrwt>
<pdfrwt beam="1">  1        1 0.13831060E+00 0.55694258E+03</pdfrwt>
<pdfrwt beam="2">  1       -1 0.13270237E-01 0.55694258E+03</pdfrwt>
<totfact> 0.74084317E+02</totfact>
</mgrwt>
</event>
<event>
 4    1  0.2309632E-005  0.4577408E+03  0.7818608E-02  0.1025438E+00
          1   -1    0    0  501    0  0.00000000000E+00  0.00000000000E+00  0.23644666405E+03  0.23644666411E+03  0.50400000000E-02 0.  1.
         -1   -1    0    0    0  501 -0.00000000000E+00 -0.00000000000E+00 -0.22153690954E+03  0.22153690959E+03  0.50400000000E-02 0. -1.
    5000001    1    1    2    0    0 -0.15691549422E+03  0.33793496935E+01  0.30331187314E+02  0.22973653008E+03  0.16500000000E+03 0.  0.
   -5000001    1    1    2    0    0  0.15691549422E+03 -0.33793496935E+01 -0.15421432797E+02  0.22824704362E+03  0.16500000000E+03 0.  0.
<mgrwt>
<rscale>  0 0.45774081E+03</rscale>
<asrwt>0</asrwt>
<pdfrwt beam="1">  1        1 0.36376410E-01 0.45774081E+03</pdfrwt>
<pdfrwt beam="2">  1       -1 0.34082602E-01 0.45774081E+03</pdfrwt>
<totfact> 0.97498553E+02</totfact>
</mgrwt>
</event>
<event>
 4    1  0.2309632E-005  0.4514600E+03  0.7818608E-02  0.1027288E+00
         -1   -1    0    0    0  501 -0.00000000000E+00  0.00000000000E+00  0.27035460579E+02  0.27035461049E+02  0.50400000000E-02 0. -1.
          1   -1    0    0  501    0  0.00000000000E+00 -0.00000000000E+00 -0.18847107783E+04  0.18847107783E+04  0.50400000000E-02 0.  1.
    5000001    1    1    2    0    0 -0.40949731493E+02  0.14779497525E+03 -0.99002548198E+03  0.10153303355E+04  0.16500000000E+03 0.  0.
   -5000001    1    1    2    0    0  0.40949731493E+02 -0.14779497525E+03 -0.86764983572E+03  0.89641590383E+03  0.16500000000E+03 0.  0.
<mgrwt>
<rscale>  0 0.45145996E+03</rscale>
<asrwt>0</asrwt>
<pdfrwt beam="1">  1        1 0.28995540E+00 0.45145996E+03</pdfrwt>
<pdfrwt beam="2">  1       -1 0.41593031E-02 0.45145996E+03</pdfrwt>
<totfact> 0.91662378E+02</totfact>
</mgrwt>
</event>
<event>
 4    1  0.2309632E-005  0.5459777E+03  0.7818608E-02  0.1002429E+00
          1   -1    0    0  501    0  0.00000000000E+00  0.00000000000E+00  0.18950373067E+03  0.18950373074E+03  0.50400000000E-02 0.  1.
         -1   -1    0    0    0  501 -0.00000000000E+00 -0.00000000000E+00 -0.39325303302E+03  0.39325303305E+03  0.50400000000E-02 0. -1.
    5000001    1    1    2    0    0  0.36850993794E+02  0.21173723618E+03 -0.13739179105E+03  0.30379624286E+03  0.16500000000E+03 0.  0.
   -5000001    1    1    2    0    0 -0.36850993794E+02 -0.21173723618E+03 -0.66357511295E+02  0.27896052092E+03  0.16500000000E+03 0.  0.
<mgrwt>
<rscale>  0 0.54597772E+03</rscale>
<asrwt>0</asrwt>
<pdfrwt beam="1">  1        1 0.29154420E-01 0.54597772E+03</pdfrwt>
<pdfrwt beam="2">  1       -1 0.60500467E-01 0.54597772E+03</pdfrwt>
<totfact> 0.44776528E+02</totfact>
</mgrwt>
</event>
<event>
 4    1  0.2309632E-005  0.4274404E+03  0.7818608E-02  0.1034672E+00
          1   -1    0    0  501    0  0.00000000000E+00  0.00000000000E+00  0.55935003555E+02  0.55935003782E+02  0.50400000000E-02 0.  1.
         -1   -1    0    0    0  501 -0.00000000000E+00 -0.00000000000E+00 -0.81659655348E+03  0.81659655350E+03  0.50400000000E-02 0. -1.
    5000001    1    1    2    0    0  0.11749290334E+03 -0.63255342855E+02 -0.43219372229E+03  0.48147921484E+03  0.16500000000E+03 0.  0.
   -5000001    1    1    2    0    0 -0.11749290334E+03  0.63255342855E+02 -0.32846782763E+03  0.39105234244E+03  0.16500000000E+03 0.  0.
<mgrwt>
<rscale>  0 0.42744043E+03</rscale>
<asrwt>0</asrwt>
<pdfrwt beam="1">  1        1 0.86053858E-02 0.42744043E+03</pdfrwt>
<pdfrwt beam="2">  1       -1 0.12563023E+00 0.42744043E+03</pdfrwt>
<totfact> 0.46533376E+02</totfact>
</mgrwt>
</event>
<event>
 4    1  0.2309632E-005  0.3914106E+03  0.7818608E-02  0.1046795E+00
          1   -1    0    0  501    0  0.00000000000E+00  0.00000000000E+00  0.52895296622E+03  0.52895296625E+03  0.50400000000E-02 0.  1.
         -1   -1    0    0    0  501 -0.00000000000E+00 -0.00000000000E+00 -0.72408258591E+02  0.72408258766E+02  0.50400000000E-02 0. -1.
    5000001    1    1    2    0    0 -0.22211821665E+02  0.89189639801E+02  0.14951946950E+03  0.24089256657E+03  0.16500000000E+03 0.  0.
   -5000001    1    1    2    0    0  0.22211821665E+02 -0.89189639801E+02  0.30702523813E+03  0.36046865844E+03  0.16500000000E+03 0.  0.
<mgrwt>
<rscale>  0 0.39141059E+03</rscale>
<asrwt>0</asrwt>
<pdfrwt beam="1">  1        1 0.81377376E-01 0.39141059E+03</pdfrwt>
<pdfrwt beam="2">  1       -1 0.11139733E-01 0.39141059E+03</pdfrwt>
<totfact> 0.21635390E+03</totfact>
</mgrwt>
</event>
<event>
 4    1  0.2309632E-005  0.3956721E+03  0.7818608E-02  0.1045289E+00
         -1   -1    0    0    0  501 -0.00000000000E+00  0.00000000000E+00  0.72532481056E+02  0.72532481232E+02  0.50400000000E-02 0. -1.
          1   -1    0    0  501    0  0.00000000000E+00 -0.00000000000E+00 -0.53960783901E+03  0.53960783903E+03  0.50400000000E-02 0.  1.
    5000001    1    1    2    0    0 -0.10726123664E+03 -0.40763157103E+01 -0.26418826992E+03  0.32945717658E+03  0.16500000000E+03 0.  0.
   -5000001    1    1    2    0    0  0.10726123664E+03  0.40763157103E+01 -0.20288708803E+03  0.28268314369E+03  0.16500000000E+03 0.  0.
<mgrwt>
<rscale>  0 0.39567206E+03</rscale>
<asrwt>0</asrwt>
<pdfrwt beam="1">  1        1 0.83016588E-01 0.39567206E+03</pdfrwt>
<pdfrwt beam="2">  1       -1 0.11158844E-01 0.39567206E+03</pdfrwt>
<totfact> 0.20998885E+03</totfact>
</mgrwt>
</event>
<event>
 4    1  0.2309632E-005  0.6955083E+03  0.7818608E-02  0.9724945E-01
         -1   -1    0    0    0  501 -0.00000000000E+00  0.00000000000E+00  0.69873705583E+02  0.69873705765E+02  0.50400000000E-02 0. -1.
          1   -1    0    0  501    0  0.00000000000E+00 -0.00000000000E+00 -0.17307361802E+04  0.17307361802E+04  0.50400000000E-02 0.  1.
    5000001    1    1    2    0    0  0.19929840373E+03  0.23083296347E+03 -0.76172794245E+03  0.83693379013E+03  0.16500000000E+03 0.  0.
   -5000001    1    1    2    0    0 -0.19929840373E+03 -0.23083296347E+03 -0.89913453213E+03  0.96367609580E+03  0.16500000000E+03 0.  0.
<mgrwt>
<rscale>  0 0.69550830E+03</rscale>
<asrwt>0</asrwt>
<pdfrwt beam="1">  1        1 0.26626707E+00 0.69550830E+03</pdfrwt>
<pdfrwt beam="2">  1       -1 0.10749802E-01 0.69550830E+03</pdfrwt>
<totfact> 0.26237609E+02</totfact>
</mgrwt>
</event>
<event>
 4    1  0.2309632E-005  0.4630759E+03  0.7818608E-02  0.1023893E+00
          1   -1    0    0  501    0  0.00000000000E+00  0.00000000000E+00  0.10738202541E+04  0.10738202541E+04  0.50400000000E-02 0. -1.
         -1   -1    0    0    0  501 -0.00000000000E+00 -0.00000000000E+00 -0.49924392551E+02  0.49924392805E+02  0.50400000000E-02 0.  1.
    5000001    1    1    2    0    0  0.77718493584E+02 -0.14242459019E+03  0.49316713344E+03  0.54476026805E+03  0.16500000000E+03 0.  0.
   -5000001    1    1    2    0    0 -0.77718493584E+02  0.14242459019E+03  0.53072872807E+03  0.57898437883E+03  0.16500000000E+03 0.  0.
<mgrwt>
<rscale>  0 0.46307591E+03</rscale>
<asrwt>0</asrwt>
<pdfrwt beam="1">  1        1 0.16520311E+00 0.46307591E+03</pdfrwt>
<pdfrwt beam="2">  1       -1 0.76806759E-02 0.46307591E+03</pdfrwt>
<totfact> 0.12875857E+03</totfact>
</mgrwt>
</event>
<event>
 4    1  0.2309632E-005  0.4783965E+03  0.7818608E-02  0.1019577E+00
          1   -1    0    0  501    0  0.00000000000E+00  0.00000000000E+00  0.11831105655E+03  0.11831105666E+03  0.50400000000E-02 0.  1.
         -1   -1    0    0    0  501 -0.00000000000E+00 -0.00000000000E+00 -0.48360492798E+03  0.48360492801E+03  0.50400000000E-02 0. -1.
    5000001    1    1    2    0    0  0.11747427783E+03  0.12712574731E+03 -0.17579601736E+03  0.29680027173E+03  0.16500000000E+03 0.  0.
   -5000001    1    1    2    0    0 -0.11747427783E+03 -0.12712574731E+03 -0.18949785407E+03  0.30511571294E+03  0.16500000000E+03 0.  0.
<mgrwt>
<rscale>  0 0.47839653E+03</rscale>
<asrwt>0</asrwt>
<pdfrwt beam="1">  1        1 0.18201701E-01 0.47839653E+03</pdfrwt>
<pdfrwt beam="2">  1       -1 0.74400757E-01 0.47839653E+03</pdfrwt>
<totfact> 0.54712655E+02</totfact>
</mgrwt>
</event>
<event>
 4    1  0.2309632E-005  0.4908535E+03  0.7818608E-02  0.1016194E+00
         -1   -1    0    0    0  501 -0.00000000000E+00  0.00000000000E+00  0.80191488095E+03  0.80191488097E+03  0.50400000000E-02 0.  1.
          1   -1    0    0  501    0  0.00000000000E+00 -0.00000000000E+00 -0.75113077562E+02  0.75113077731E+02  0.50400000000E-02 0. -1.
    5000001    1    1    2    0    0  0.16260015835E+03 -0.68723117201E+02  0.44020200020E+03  0.50215981452E+03  0.16500000000E+03 0.  0.
   -5000001    1    1    2    0    0 -0.16260015835E+03  0.68723117201E+02  0.28659980319E+03  0.37486814418E+03  0.16500000000E+03 0.  0.
<mgrwt>
<rscale>  0 0.49085352E+03</rscale>
<asrwt>0</asrwt>
<pdfrwt beam="1">  1        1 0.11555858E-01 0.49085352E+03</pdfrwt>
<pdfrwt beam="2">  1       -1 0.12337152E+00 0.49085352E+03</pdfrwt>
<totfact> 0.32459258E+02</totfact>
</mgrwt>
</event>
<event>
 4    1  0.2309632E-005  0.6662066E+03  0.7818608E-02  0.9776835E-01
          1   -1    0    0  501    0  0.00000000000E+00  0.00000000000E+00  0.27825839146E+03  0.27825839151E+03  0.50400000000E-02 0.  1.
         -1   -1    0    0    0  501 -0.00000000000E+00 -0.00000000000E+00 -0.39875816707E+03  0.39875816710E+03  0.50400000000E-02 0. -1.
    5000001    1    1    2    0    0 -0.16143968478E+03 -0.10008097587E+03 -0.28208959434E+03  0.37799274172E+03  0.16500000000E+03 0.  0.
   -5000001    1    1    2    0    0  0.16143968478E+03  0.10008097587E+03  0.16158981873E+03  0.29902381690E+03  0.16500000000E+03 0.  0.
<mgrwt>
<rscale>  0 0.66620659E+03</rscale>
<asrwt>0</asrwt>
<pdfrwt beam="1">  1        1 0.42808983E-01 0.66620659E+03</pdfrwt>
<pdfrwt beam="2">  1       -1 0.61347410E-01 0.66620659E+03</pdfrwt>
<totfact> 0.26443580E+02</totfact>
</mgrwt>
</event>
<event>
 4    1  0.2309632E-005  0.6712873E+03  0.7818608E-02  0.9767635E-01
         -1   -1    0    0    0  501 -0.00000000000E+00  0.00000000000E+00  0.19846019288E+03  0.19846019294E+03  0.50400000000E-02 0. -1.
          1   -1    0    0  501    0  0.00000000000E+00 -0.00000000000E+00 -0.56765365630E+03  0.56765365632E+03  0.50400000000E-02 0.  1.
    5000001    1    1    2    0    0  0.10407375170E+03 -0.15968185417E+03 -0.43748841390E+03  0.50492648241E+03  0.16500000000E+03 0.  0.
   -5000001    1    1    2    0    0 -0.10407375170E+03  0.15968185417E+03  0.68294950473E+02  0.26118736685E+03  0.16500000000E+03 0.  0.
<mgrwt>
<rscale>  0 0.67128728E+03</rscale>
<asrwt>0</asrwt>
<pdfrwt beam="1">  1        1 0.87331331E-01 0.67128728E+03</pdfrwt>
<pdfrwt beam="2">  1       -1 0.30532338E-01 0.67128728E+03</pdfrwt>
<totfact> 0.37112085E+02</totfact>
</mgrwt>
</event>
<event>
 4    1  0.2309632E-005  0.4139679E+03  0.7818608E-02  0.1039048E+00
         -1   -1    0    0    0  501 -0.00000000000E+00  0.00000000000E+00  0.71428844004E+02  0.71428844182E+02  0.50400000000E-02 0. -1.
          1   -1    0    0  501    0  0.00000000000E+00 -0.00000000000E+00 -0.59979057543E+03  0.59979057545E+03  0.50400000000E-02 0.  1.
    5000001    1    1    2    0    0 -0.82015328257E+02  0.92185076429E+02 -0.23204771646E+03  0.31031555729E+03  0.16500000000E+03 0.  0.
   -5000001    1    1    2    0    0  0.82015328257E+02 -0.92185076429E+02 -0.29631401497E+03  0.36090386234E+03  0.16500000000E+03 0.  0.
<mgrwt>
<rscale>  0 0.41396786E+03</rscale>
<asrwt>0</asrwt>
<pdfrwt beam="1">  1        1 0.92275470E-01 0.41396786E+03</pdfrwt>
<pdfrwt beam="2">  1       -1 0.10989053E-01 0.41396786E+03</pdfrwt>
<totfact> 0.18575288E+03</totfact>
</mgrwt>
</event>
<event>
 4    1  0.2309632E-005  0.6356269E+03  0.7818608E-02  0.9834129E-01
         -1   -1    0    0    0  501 -0.00000000000E+00  0.00000000000E+00  0.13357307646E+03  0.13357307656E+03  0.50400000000E-02 0. -1.
          1   -1    0    0  501    0  0.00000000000E+00 -0.00000000000E+00 -0.75618078478E+03  0.75618078480E+03  0.50400000000E-02 0.  1.
    5000001    1    1    2    0    0  0.12962549867E+03  0.11572403581E+03 -0.19064314663E+02  0.24038151024E+03  0.16500000000E+03 0.  0.
   -5000001    1    1    2    0    0 -0.12962549867E+03 -0.11572403581E+03 -0.60354339366E+03  0.64937235112E+03  0.16500000000E+03 0.  0.
<mgrwt>
<rscale>  0 0.63562692E+03</rscale>
<asrwt>0</asrwt>
<pdfrwt beam="1">  1        1 0.11633550E+00 0.63562692E+03</pdfrwt>
<pdfrwt beam="2">  1       -1 0.20549705E-01 0.63562692E+03</pdfrwt>
<totfact> 0.47770229E+02</totfact>
</mgrwt>
</event>
<event>
 4    1  0.2309632E-005  0.4453140E+03  0.7818608E-02  0.1029129E+00
          1   -1    0    0  501    0  0.00000000000E+00  0.00000000000E+00  0.41064241407E+03  0.41064241411E+03  0.50400000000E-02 0.  1.
         -1   -1    0    0    0  501 -0.00000000000E+00 -0.00000000000E+00 -0.12072825137E+03  0.12072825148E+03  0.50400000000E-02 0. -1.
    5000001    1    1    2    0    0 -0.10362406440E+03  0.10510927567E+03  0.17332617029E+03  0.28116341843E+03  0.16500000000E+03 0.  0.
   -5000001    1    1    2    0    0  0.10362406440E+03 -0.10510927567E+03  0.11658799241E+03  0.25020724716E+03  0.16500000000E+03 0.  0.
<mgrwt>
<rscale>  0 0.44531400E+03</rscale>
<asrwt>0</asrwt>
<pdfrwt beam="1">  1        1 0.63175756E-01 0.44531400E+03</pdfrwt>
<pdfrwt beam="2">  1       -1 0.18573577E-01 0.44531400E+03</pdfrwt>
<totfact> 0.13380505E+03</totfact>
</mgrwt>
</event>
