<event>
 4    1  0.5812319E-005  0.1048202E+04  0.7818608E-02  0.9257202E-01
         -2   -1    0    0    0  501 -0.00000000000E+00  0.00000000000E+00  0.97592964636E+02  0.97592964670E+02  0.25500000000E-02 0. -1.
          2   -1    0    0  501    0  0.00000000000E+00 -0.00000000000E+00 -0.28145677538E+04  0.28145677538E+04  0.25500000000E-02 0.  1.
    5000001    1    1    2    0    0 -0.23589209895E+03  0.86510019918E+02 -0.25196764824E+04  0.25394414035E+04  0.19200000000E+03 0.  0.
   -5000001    1    1    2    0    0  0.23589209895E+03 -0.86510019918E+02 -0.19729830676E+03  0.37271931496E+03  0.19200000000E+03 0.  0.
<mgrwt>
<rscale>  0 0.10482023E+04</rscale>
<asrwt>0</asrwt>
<pdfrwt beam="1">  1        2 0.40208105E+00 0.10482023E+04</pdfrwt>
<pdfrwt beam="2">  1       -2 0.13941854E-01 0.10482023E+04</pdfrwt>
<totfact> 0.11983692E+02</totfact>
</mgrwt>
</event>
<event>
 4    1  0.5812319E-005  0.7282449E+03  0.7818608E-02  0.9670113E-01
          2   -1    0    0  501    0  0.00000000000E+00  0.00000000000E+00  0.10994568040E+04  0.10994568040E+04  0.25500000000E-02 0.  1.
         -2   -1    0    0    0  501 -0.00000000000E+00 -0.00000000000E+00 -0.12059151019E+03  0.12059151022E+03  0.25500000000E-02 0. -1.
    5000001    1    1    2    0    0  0.24661253854E+03  0.16303601644E+03  0.33659480126E+03  0.48739978155E+03  0.19200000000E+03 0.  0.
   -5000001    1    1    2    0    0 -0.24661253854E+03 -0.16303601644E+03  0.64227049255E+03  0.73264853267E+03  0.19200000000E+03 0.  0.
<mgrwt>
<rscale>  0 0.72824489E+03</rscale>
<asrwt>0</asrwt>
<pdfrwt beam="1">  1        2 0.15706526E+00 0.72824489E+03</pdfrwt>
<pdfrwt beam="2">  1       -2 0.17227359E-01 0.72824489E+03</pdfrwt>
<totfact> 0.67946909E+02</totfact>
</mgrwt>
</event>
<event>
 4    1  0.5812319E-005  0.9877434E+03  0.7818608E-02  0.9322091E-01
         -2   -1    0    0    0  501 -0.00000000000E+00  0.00000000000E+00  0.12691353540E+03  0.12691353542E+03  0.25500000000E-02 0. -1.
          2   -1    0    0  501    0  0.00000000000E+00 -0.00000000000E+00 -0.19218536820E+04  0.19218536820E+04  0.25500000000E-02 0.  1.
    5000001    1    1    2    0    0  0.18050420112E+03 -0.38906250288E+03 -0.12126776418E+04  0.13005392961E+04  0.19200000000E+03 0.  0.
   -5000001    1    1    2    0    0 -0.18050420112E+03  0.38906250288E+03 -0.58226250485E+03  0.74822792137E+03  0.19200000000E+03 0.  0.
<mgrwt>
<rscale>  0 0.98774338E+03</rscale>
<asrwt>0</asrwt>
<pdfrwt beam="1">  1        2 0.27455051E+00 0.98774338E+03</pdfrwt>
<pdfrwt beam="2">  1       -2 0.18130506E-01 0.98774338E+03</pdfrwt>
<totfact> 0.22336901E+02</totfact>
</mgrwt>
</event>
<event>
 4    1  0.5812319E-005  0.1336022E+04  0.7818608E-02  0.9001477E-01
          2   -1    0    0  501    0  0.00000000000E+00  0.00000000000E+00  0.14396540588E+04  0.14396540588E+04  0.25500000000E-02 0.  1.
         -2   -1    0    0    0  501 -0.00000000000E+00 -0.00000000000E+00 -0.30996255313E+03  0.30996255314E+03  0.25500000000E-02 0. -1.
    5000001    1    1    2    0    0  0.40811740475E+02  0.35992379895E+03  0.12555303265E+04  0.13207691471E+04  0.19200000000E+03 0.  0.
   -5000001    1    1    2    0    0 -0.40811740475E+02 -0.35992379895E+03 -0.12583882087E+03  0.42884746478E+03  0.19200000000E+03 0.  0.
<mgrwt>
<rscale>  0 0.13360222E+04</rscale>
<asrwt>0</asrwt>
<pdfrwt beam="1">  1        2 0.20566487E+00 0.13360222E+04</pdfrwt>
<pdfrwt beam="2">  1       -2 0.44280364E-01 0.13360222E+04</pdfrwt>
<totfact> 0.74492509E+01</totfact>
</mgrwt>
</event>
<event>
 4    1  0.5812319E-005  0.4090189E+03  0.7818608E-02  0.1040701E+00
          2   -1    0    0  501    0  0.00000000000E+00  0.00000000000E+00  0.49018513129E+03  0.49018513130E+03  0.25500000000E-02 0.  1.
         -2   -1    0    0    0  501 -0.00000000000E+00 -0.00000000000E+00 -0.85323095272E+02  0.85323095310E+02  0.25500000000E-02 0. -1.
    5000001    1    1    2    0    0  0.82627666196E+01  0.69656924744E+02  0.21130234781E+03  0.29399497048E+03  0.19200000000E+03 0.  0.
   -5000001    1    1    2    0    0 -0.82627666196E+01 -0.69656924744E+02  0.19355968821E+03  0.28151325613E+03  0.19200000000E+03 0.  0.
<mgrwt>
<rscale>  0 0.40901889E+03</rscale>
<asrwt>0</asrwt>
<pdfrwt beam="1">  1        2 0.70026450E-01 0.40901889E+03</pdfrwt>
<pdfrwt beam="2">  1       -2 0.12189013E-01 0.40901889E+03</pdfrwt>
<totfact> 0.33584083E+03</totfact>
</mgrwt>
</event>
<event>
 4    1  0.5812319E-005  0.5939686E+03  0.7818608E-02  0.9917999E-01
          2   -1    0    0  501    0  0.00000000000E+00  0.00000000000E+00  0.75990881914E+03  0.75990881915E+03  0.25500000000E-02 0.  1.
         -2   -1    0    0    0  501 -0.00000000000E+00 -0.00000000000E+00 -0.11606611042E+03  0.11606611045E+03  0.25500000000E-02 0. -1.
    5000001    1    1    2    0    0  0.10838046427E+03 -0.16542507205E+03  0.48497585387E+03  0.55783273329E+03  0.19200000000E+03 0.  0.
   -5000001    1    1    2    0    0 -0.10838046427E+03  0.16542507205E+03  0.15886685485E+03  0.31814219630E+03  0.19200000000E+03 0.  0.
<mgrwt>
<rscale>  0 0.59396855E+03</rscale>
<asrwt>0</asrwt>
<pdfrwt beam="1">  1        2 0.10855841E+00 0.59396855E+03</pdfrwt>
<pdfrwt beam="2">  1       -2 0.16580872E-01 0.59396855E+03</pdfrwt>
<totfact> 0.12016230E+03</totfact>
</mgrwt>
</event>
<event>
 4    1  0.5812319E-005  0.7576011E+03  0.7818608E-02  0.9623500E-01
          2   -1    0    0  501    0  0.00000000000E+00  0.00000000000E+00  0.94905439397E+03  0.94905439397E+03  0.25500000000E-02 0.  1.
         -2   -1    0    0    0  501 -0.00000000000E+00 -0.00000000000E+00 -0.15119244491E+03  0.15119244493E+03  0.25500000000E-02 0. -1.
    5000001    1    1    2    0    0  0.16637720178E+03  0.27732853958E+03  0.46441824569E+03  0.59761258276E+03  0.19200000000E+03 0.  0.
   -5000001    1    1    2    0    0 -0.16637720178E+03 -0.27732853958E+03  0.33344370336E+03  0.50263425615E+03  0.19200000000E+03 0.  0.
<mgrwt>
<rscale>  0 0.75760109E+03</rscale>
<asrwt>0</asrwt>
<pdfrwt beam="1">  1        2 0.13557920E+00 0.75760109E+03</pdfrwt>
<pdfrwt beam="2">  1       -2 0.21598921E-01 0.75760109E+03</pdfrwt>
<totfact> 0.56501889E+02</totfact>
</mgrwt>
</event>
<event>
 4    1  0.5812319E-005  0.4200734E+03  0.7818608E-02  0.1037042E+00
          2   -1    0    0  501    0  0.00000000000E+00  0.00000000000E+00  0.13162154127E+04  0.13162154127E+04  0.25500000000E-02 0.  1.
         -2   -1    0    0    0  501 -0.00000000000E+00 -0.00000000000E+00 -0.33516868439E+02  0.33516868536E+02  0.25500000000E-02 0. -1.
    5000001    1    1    2    0    0  0.27166716397E+02 -0.76930072832E+02  0.56296363441E+03  0.60037348397E+03  0.19200000000E+03 0.  0.
   -5000001    1    1    2    0    0 -0.27166716397E+02  0.76930072832E+02  0.71973490986E+03  0.74935879728E+03  0.19200000000E+03 0.  0.
<mgrwt>
<rscale>  0 0.42007342E+03</rscale>
<asrwt>0</asrwt>
<pdfrwt beam="1">  1        2 0.18803077E+00 0.42007342E+03</pdfrwt>
<pdfrwt beam="2">  1       -2 0.47881242E-02 0.42007342E+03</pdfrwt>
<totfact> 0.40765679E+03</totfact>
</mgrwt>
</event>
<event>
 4    1  0.5812319E-005  0.4837296E+03  0.7818608E-02  0.1018115E+00
          2   -1    0    0  501    0  0.00000000000E+00  0.00000000000E+00  0.27582454827E+03  0.27582454828E+03  0.25500000000E-02 0.  1.
         -2   -1    0    0    0  501 -0.00000000000E+00 -0.00000000000E+00 -0.21208618673E+03  0.21208618675E+03  0.25500000000E-02 0. -1.
    5000001    1    1    2    0    0  0.12245214877E+03 -0.12305234106E+02  0.11311746608E+03  0.25456926103E+03  0.19200000000E+03 0.  0.
   -5000001    1    1    2    0    0 -0.12245214877E+03  0.12305234106E+02 -0.49379104547E+02  0.23334147401E+03  0.19200000000E+03 0.  0.
<mgrwt>
<rscale>  0 0.48372958E+03</rscale>
<asrwt>0</asrwt>
<pdfrwt beam="1">  1        2 0.39403507E-01 0.48372958E+03</pdfrwt>
<pdfrwt beam="2">  1       -2 0.30298027E-01 0.48372958E+03</pdfrwt>
<totfact> 0.13150541E+03</totfact>
</mgrwt>
</event>
<event>
 4    1  0.5812319E-005  0.4765720E+03  0.7818608E-02  0.1020082E+00
          2   -1    0    0  501    0  0.00000000000E+00  0.00000000000E+00  0.31887844186E+03  0.31887844187E+03  0.25500000000E-02 0.  1.
         -2   -1    0    0    0  501 -0.00000000000E+00 -0.00000000000E+00 -0.17806223422E+03  0.17806223424E+03  0.25500000000E-02 0. -1.
    5000001    1    1    2    0    0  0.23113798168E+02 -0.12566102120E+03  0.79196234050E+01  0.23076321273E+03  0.19200000000E+03 0.  0.
   -5000001    1    1    2    0    0 -0.23113798168E+02  0.12566102120E+03  0.13289658423E+03  0.26617746339E+03  0.19200000000E+03 0.  0.
<mgrwt>
<rscale>  0 0.47657196E+03</rscale>
<asrwt>0</asrwt>
<pdfrwt beam="1">  1        2 0.45554063E-01 0.47657196E+03</pdfrwt>
<pdfrwt beam="2">  1       -2 0.25437462E-01 0.47657196E+03</pdfrwt>
<totfact> 0.15408097E+03</totfact>
</mgrwt>
</event>
<event>
 4    1  0.5812319E-005  0.6047314E+03  0.7818608E-02  0.9895638E-01
          2   -1    0    0  501    0  0.00000000000E+00  0.00000000000E+00  0.23654644953E+04  0.23654644953E+04  0.25500000000E-02 0.  1.
         -2   -1    0    0    0  501 -0.00000000000E+00 -0.00000000000E+00 -0.38649921912E+02  0.38649921996E+02  0.25500000000E-02 0. -1.
    5000001    1    1    2    0    0  0.13649434439E+03 -0.17078375846E+03  0.14903482702E+04  0.15184860107E+04  0.19200000000E+03 0.  0.
   -5000001    1    1    2    0    0 -0.13649434439E+03  0.17078375846E+03  0.83646630317E+03  0.88562840658E+03  0.19200000000E+03 0.  0.
<mgrwt>
<rscale>  0 0.60473141E+03</rscale>
<asrwt>0</asrwt>
<pdfrwt beam="1">  1        2 0.33792356E+00 0.60473141E+03</pdfrwt>
<pdfrwt beam="2">  1       -2 0.55214164E-02 0.60473141E+03</pdfrwt>
<totfact> 0.95307611E+02</totfact>
</mgrwt>
</event>
<event>
 4    1  0.5812319E-005  0.4812736E+03  0.7818608E-02  0.1018786E+00
         -2   -1    0    0    0  501 -0.00000000000E+00  0.00000000000E+00  0.20547798503E+02  0.20547798662E+02  0.25500000000E-02 0. -1.
          2   -1    0    0  501    0  0.00000000000E+00 -0.00000000000E+00 -0.28181152812E+04  0.28181152812E+04  0.25500000000E-02 0.  1.
    5000001    1    1    2    0    0 -0.50228533108E+02  0.10962897569E+03 -0.18743380591E+04  0.18880012123E+04  0.19200000000E+03 0.  0.
   -5000001    1    1    2    0    0  0.50228533108E+02 -0.10962897569E+03 -0.92322942367E+03  0.95066186763E+03  0.19200000000E+03 0.  0.
<mgrwt>
<rscale>  0 0.48127358E+03</rscale>
<asrwt>0</asrwt>
<pdfrwt beam="1">  1        2 0.40258765E+00 0.48127358E+03</pdfrwt>
<pdfrwt beam="2">  1       -2 0.29354016E-02 0.48127358E+03</pdfrwt>
<totfact> 0.14799094E+03</totfact>
</mgrwt>
</event>
<event>
 4    1  0.5812319E-005  0.5389662E+03  0.7818608E-02  0.1004081E+00
          2   -1    0    0  501    0  0.00000000000E+00  0.00000000000E+00  0.10084807548E+04  0.10084807548E+04  0.25500000000E-02 0.  1.
         -2   -1    0    0    0  501 -0.00000000000E+00 -0.00000000000E+00 -0.72010447701E+02  0.72010447746E+02  0.25500000000E-02 0. -1.
    5000001    1    1    2    0    0 -0.14238737770E+03 -0.85599355188E+02  0.28718818840E+03  0.38333075860E+03  0.19200000000E+03 0.  0.
   -5000001    1    1    2    0    0  0.14238737770E+03  0.85599355188E+02  0.64928211873E+03  0.69716044397E+03  0.19200000000E+03 0.  0.
<mgrwt>
<rscale>  0 0.53896624E+03</rscale>
<asrwt>0</asrwt>
<pdfrwt beam="1">  1        2 0.14406868E+00 0.53896624E+03</pdfrwt>
<pdfrwt beam="2">  1       -2 0.10287206E-01 0.53896624E+03</pdfrwt>
<totfact> 0.18253577E+03</totfact>
</mgrwt>
</event>
<event>
 4    1  0.5812319E-005  0.5366713E+03  0.7818608E-02  0.1004627E+00
          2   -1    0    0  501    0  0.00000000000E+00  0.00000000000E+00  0.48484624256E+03  0.48484624257E+03  0.25500000000E-02 0.  1.
         -2   -1    0    0    0  501 -0.00000000000E+00 -0.00000000000E+00 -0.14850895385E+03  0.14850895387E+03  0.25500000000E-02 0. -1.
    5000001    1    1    2    0    0  0.11180753662E+03  0.12998867655E+03  0.25759625367E+03  0.36416728461E+03  0.19200000000E+03 0.  0.
   -5000001    1    1    2    0    0 -0.11180753662E+03 -0.12998867655E+03  0.78741035043E+02  0.26918791183E+03  0.19200000000E+03 0.  0.
<mgrwt>
<rscale>  0 0.53667125E+03</rscale>
<asrwt>0</asrwt>
<pdfrwt beam="1">  1        2 0.69263749E-01 0.53667125E+03</pdfrwt>
<pdfrwt beam="2">  1       -2 0.21215565E-01 0.53667125E+03</pdfrwt>
<totfact> 0.13364309E+03</totfact>
</mgrwt>
</event>
<event>
 4    1  0.5812319E-005  0.6250262E+03  0.7818608E-02  0.9854803E-01
         -2   -1    0    0    0  501 -0.00000000000E+00  0.00000000000E+00  0.21206457626E+03  0.21206457628E+03  0.25500000000E-02 0. -1.
          2   -1    0    0  501    0  0.00000000000E+00 -0.00000000000E+00 -0.46054097644E+03  0.46054097645E+03  0.25500000000E-02 0.  1.
    5000001    1    1    2    0    0 -0.15989132456E+02  0.20552677668E+03  0.21351128603E+02  0.28251863475E+03  0.19200000000E+03 0.  0.
   -5000001    1    1    2    0    0  0.15989132456E+02 -0.20552677668E+03 -0.26982752878E+03  0.39008691797E+03  0.19200000000E+03 0.  0.
<mgrwt>
<rscale>  0 0.62502617E+03</rscale>
<asrwt>0</asrwt>
<pdfrwt beam="1">  1        2 0.65791568E-01 0.62502617E+03</pdfrwt>
<pdfrwt beam="2">  1       -2 0.30294940E-01 0.62502617E+03</pdfrwt>
<totfact> 0.74548751E+02</totfact>
</mgrwt>
</event>
<event>
 4    1  0.5812319E-005  0.1509983E+04  0.7818608E-02  0.8877841E-01
          2   -1    0    0  501    0  0.00000000000E+00  0.00000000000E+00  0.36469498072E+04  0.36469498072E+04  0.25500000000E-02 0.  1.
         -2   -1    0    0    0  501 -0.00000000000E+00 -0.00000000000E+00 -0.15629841112E+03  0.15629841114E+03  0.25500000000E-02 0. -1.
    5000001    1    1    2    0    0  0.32624431021E+02 -0.71087097900E+03  0.13334023100E+04  0.15235575547E+04  0.19200000000E+03 0.  0.
   -5000001    1    1    2    0    0 -0.32624431021E+02  0.71087097900E+03  0.21572490861E+04  0.22796906636E+04  0.19200000000E+03 0.  0.
<mgrwt>
<rscale>  0 0.15099834E+04</rscale>
<asrwt>0</asrwt>
<pdfrwt beam="1">  1        2 0.52099279E+00 0.15099834E+04</pdfrwt>
<pdfrwt beam="2">  1       -2 0.22328346E-01 0.15099834E+04</pdfrwt>
<totfact> 0.16759268E+01</totfact>
</mgrwt>
</event>
<event>
 4    1  0.5812319E-005  0.1022495E+04  0.7818608E-02  0.9284212E-01
          2   -1    0    0  501    0  0.00000000000E+00  0.00000000000E+00  0.90346514140E+03  0.90346514140E+03  0.25500000000E-02 0. -1.
         -2   -1    0    0    0  501 -0.00000000000E+00 -0.00000000000E+00 -0.28930145030E+03  0.28930145031E+03  0.25500000000E-02 0.  1.
    5000001    1    1    2    0    0  0.12693399233E+03  0.37689191633E+03  0.60756144826E+03  0.75110230223E+03  0.19200000000E+03 0.  0.
   -5000001    1    1    2    0    0 -0.12693399233E+03 -0.37689191633E+03  0.66022428390E+01  0.44166428949E+03  0.19200000000E+03 0.  0.
<mgrwt>
<rscale>  0 0.10224945E+04</rscale>
<asrwt>0</asrwt>
<pdfrwt beam="1">  1        2 0.12906645E+00 0.10224945E+04</pdfrwt>
<pdfrwt beam="2">  1       -2 0.41328778E-01 0.10224945E+04</pdfrwt>
<totfact> 0.17867608E+02</totfact>
</mgrwt>
</event>
<event>
 4    1  0.5812319E-005  0.7518994E+03  0.7818608E-02  0.9632375E-01
         -2   -1    0    0    0  501 -0.00000000000E+00  0.00000000000E+00  0.27250175947E+03  0.27250175949E+03  0.25500000000E-02 0. -1.
          2   -1    0    0  501    0  0.00000000000E+00 -0.00000000000E+00 -0.51866884718E+03  0.51866884719E+03  0.25500000000E-02 0.  1.
    5000001    1    1    2    0    0  0.89880134161E+02 -0.29612726988E+03 -0.22125363784E+03  0.42613022744E+03  0.19200000000E+03 0.  0.
   -5000001    1    1    2    0    0 -0.89880134161E+02  0.29612726988E+03 -0.24913449868E+02  0.36504037923E+03  0.19200000000E+03 0.  0.
<mgrwt>
<rscale>  0 0.75189939E+03</rscale>
<asrwt>0</asrwt>
<pdfrwt beam="1">  1        2 0.74095549E-01 0.75189939E+03</pdfrwt>
<pdfrwt beam="2">  1       -2 0.38928823E-01 0.75189939E+03</pdfrwt>
<totfact> 0.40370095E+02</totfact>
</mgrwt>
</event>
<event>
 4    1  0.5812319E-005  0.4349567E+03  0.7818608E-02  0.1032306E+00
         -2   -1    0    0    0  501 -0.00000000000E+00  0.00000000000E+00  0.88392324073E+02  0.88392324110E+02  0.25500000000E-02 0. -1.
          2   -1    0    0  501    0  0.00000000000E+00 -0.00000000000E+00 -0.53507848729E+03  0.53507848730E+03  0.25500000000E-02 0.  1.
    5000001    1    1    2    0    0  0.10085077085E+01 -0.90313573877E+02 -0.15496974033E+03  0.26274927047E+03  0.19200000000E+03 0.  0.
   -5000001    1    1    2    0    0 -0.10085077085E+01  0.90313573877E+02 -0.29171642289E+03  0.36072154094E+03  0.19200000000E+03 0.  0.
<mgrwt>
<rscale>  0 0.43495669E+03</rscale>
<asrwt>0</asrwt>
<pdfrwt beam="1">  1        2 0.76439783E-01 0.43495669E+03</pdfrwt>
<pdfrwt beam="2">  1       -2 0.12627475E-01 0.43495669E+03</pdfrwt>
<totfact> 0.28735367E+03</totfact>
</mgrwt>
</event>
<event>
 4    1  0.5812319E-005  0.8057548E+03  0.7818608E-02  0.9551724E-01
          2   -1    0    0  501    0  0.00000000000E+00  0.00000000000E+00  0.30801083188E+04  0.30801083188E+04  0.25500000000E-02 0.  1.
         -2   -1    0    0    0  501 -0.00000000000E+00 -0.00000000000E+00 -0.52696262005E+02  0.52696262067E+02  0.25500000000E-02 0. -1.
    5000001    1    1    2    0    0 -0.14584939494E+03  0.22007195503E+03  0.59574642995E+03  0.67932431150E+03  0.19200000000E+03 0.  0.
   -5000001    1    1    2    0    0  0.14584939494E+03 -0.22007195503E+03  0.24316656268E+04  0.24534802693E+04  0.19200000000E+03 0.  0.
<mgrwt>
<rscale>  0 0.80575479E+03</rscale>
<asrwt>0</asrwt>
<pdfrwt beam="1">  1        2 0.44001556E+00 0.80575479E+03</pdfrwt>
<pdfrwt beam="2">  1       -2 0.75280360E-02 0.80575479E+03</pdfrwt>
<totfact> 0.24069336E+02</totfact>
</mgrwt>
</event>
<event>
 4    1  0.5812319E-005  0.5141607E+03  0.7818608E-02  0.1010147E+00
          2   -1    0    0  501    0  0.00000000000E+00  0.00000000000E+00  0.54916050247E+03  0.54916050248E+03  0.25500000000E-02 0.  1.
         -2   -1    0    0    0  501 -0.00000000000E+00 -0.00000000000E+00 -0.12034788312E+03  0.12034788315E+03  0.25500000000E-02 0. -1.
    5000001    1    1    2    0    0  0.13585833597E+03  0.61145851181E+02  0.10522837949E+03  0.26482695184E+03  0.19200000000E+03 0.  0.
   -5000001    1    1    2    0    0 -0.13585833597E+03 -0.61145851181E+02  0.32358423986E+03  0.40468143379E+03  0.19200000000E+03 0.  0.
<mgrwt>
<rscale>  0 0.51416069E+03</rscale>
<asrwt>0</asrwt>
<pdfrwt beam="1">  1        2 0.78451498E-01 0.51416069E+03</pdfrwt>
<pdfrwt beam="2">  1       -2 0.17192555E-01 0.51416069E+03</pdfrwt>
<totfact> 0.16672145E+03</totfact>
</mgrwt>
</event>
<event>
 4    1  0.5812319E-005  0.7115721E+03  0.7818608E-02  0.9697644E-01
         -2   -1    0    0    0  501 -0.00000000000E+00  0.00000000000E+00  0.41220882436E+02  0.41220882515E+02  0.25500000000E-02 0. -1.
          2   -1    0    0  501    0  0.00000000000E+00 -0.00000000000E+00 -0.30708638368E+04  0.30708638368E+04  0.25500000000E-02 0.  1.
    5000001    1    1    2    0    0 -0.13772428182E+02 -0.20145901292E+03 -0.54724885825E+03  0.61410156043E+03  0.19200000000E+03 0.  0.
   -5000001    1    1    2    0    0  0.13772428182E+02  0.20145901292E+03 -0.24823940961E+04  0.24979831589E+04  0.19200000000E+03 0.  0.
<mgrwt>
<rscale>  0 0.71157211E+03</rscale>
<asrwt>0</asrwt>
<pdfrwt beam="1">  1        2 0.43869469E+00 0.71157211E+03</pdfrwt>
<pdfrwt beam="2">  1       -2 0.58886995E-02 0.71157211E+03</pdfrwt>
<totfact> 0.36259314E+02</totfact>
</mgrwt>
</event>
<event>
 4    1  0.5812319E-005  0.7322563E+03  0.7818608E-02  0.9663606E-01
         -2   -1    0    0    0  501 -0.00000000000E+00  0.00000000000E+00  0.30218795647E+02  0.30218795755E+02  0.25500000000E-02 0. -1.
          2   -1    0    0  501    0  0.00000000000E+00 -0.00000000000E+00 -0.44359744566E+04  0.44359744566E+04  0.25500000000E-02 0.  1.
    5000001    1    1    2    0    0  0.18328581230E+03  0.20521099877E+03 -0.30967949387E+04  0.31149170350E+04  0.19200000000E+03 0.  0.
   -5000001    1    1    2    0    0 -0.18328581230E+03 -0.20521099877E+03 -0.13089607222E+04  0.13512762173E+04  0.19200000000E+03 0.  0.
<mgrwt>
<rscale>  0 0.73225626E+03</rscale>
<asrwt>0</asrwt>
<pdfrwt beam="1">  1        2 0.63371022E+00 0.73225626E+03</pdfrwt>
<pdfrwt beam="2">  1       -2 0.43169736E-02 0.73225626E+03</pdfrwt>
<totfact> 0.78625629E+01</totfact>
</mgrwt>
</event>
<event>
 4    1  0.5812319E-005  0.4984337E+03  0.7818608E-02  0.1014189E+00
          2   -1    0    0  501    0  0.00000000000E+00  0.00000000000E+00  0.16895023365E+03  0.16895023366E+03  0.25500000000E-02 0.  1.
         -2   -1    0    0    0  501 -0.00000000000E+00 -0.00000000000E+00 -0.36761731152E+03  0.36761731153E+03  0.25500000000E-02 0. -1.
    5000001    1    1    2    0    0  0.61411807601E+02  0.11775810634E+03 -0.19322232336E+03  0.30304661022E+03  0.19200000000E+03 0.  0.
   -5000001    1    1    2    0    0 -0.61411807601E+02 -0.11775810634E+03 -0.54447545158E+01  0.23352093498E+03  0.19200000000E+03 0.  0.
<mgrwt>
<rscale>  0 0.49843367E+03</rscale>
<asrwt>0</asrwt>
<pdfrwt beam="1">  1        2 0.24135748E-01 0.49843367E+03</pdfrwt>
<pdfrwt beam="2">  1       -2 0.52516759E-01 0.49843367E+03</pdfrwt>
<totfact> 0.78437833E+02</totfact>
</mgrwt>
</event>
<event>
 4    1  0.5812319E-005  0.5059754E+03  0.7818608E-02  0.1012231E+00
          2   -1    0    0  501    0  0.00000000000E+00  0.00000000000E+00  0.95484310944E+03  0.95484310945E+03  0.25500000000E-02 0.  1.
         -2   -1    0    0    0  501 -0.00000000000E+00 -0.00000000000E+00 -0.67029634471E+02  0.67029634520E+02  0.25500000000E-02 0. -1.
    5000001    1    1    2    0    0 -0.11674572804E+03  0.22240928650E+02  0.21350691411E+03  0.31076265267E+03  0.19200000000E+03 0.  0.
   -5000001    1    1    2    0    0  0.11674572804E+03 -0.22240928650E+02  0.67430656086E+03  0.71111009129E+03  0.19200000000E+03 0.  0.
<mgrwt>
<rscale>  0 0.50597543E+03</rscale>
<asrwt>0</asrwt>
<pdfrwt beam="1">  1        2 0.13640616E+00 0.50597543E+03</pdfrwt>
<pdfrwt beam="2">  1       -2 0.95756623E-02 0.50597543E+03</pdfrwt>
<totfact> 0.22108378E+03</totfact>
</mgrwt>
</event>
<event>
 4    1  0.5812319E-005  0.7248894E+03  0.7818608E-02  0.9675590E-01
         -2   -1    0    0    0  501 -0.00000000000E+00  0.00000000000E+00  0.55120267730E+02  0.55120267789E+02  0.25500000000E-02 0. -1.
          2   -1    0    0  501    0  0.00000000000E+00 -0.00000000000E+00 -0.23832641210E+04  0.23832641210E+04  0.25500000000E-02 0.  1.
    5000001    1    1    2    0    0  0.75085535041E+02  0.23005935372E+03 -0.18017498961E+04  0.18280404350E+04  0.19200000000E+03 0.  0.
   -5000001    1    1    2    0    0 -0.75085535041E+02 -0.23005935372E+03 -0.52639395711E+03  0.61034395376E+03  0.19200000000E+03 0.  0.
<mgrwt>
<rscale>  0 0.72488939E+03</rscale>
<asrwt>0</asrwt>
<pdfrwt beam="1">  1        2 0.34046624E+00 0.72488939E+03</pdfrwt>
<pdfrwt beam="2">  1       -2 0.78743255E-02 0.72488939E+03</pdfrwt>
<totfact> 0.52844693E+02</totfact>
</mgrwt>
</event>
<event>
 4    1  0.5812319E-005  0.5203746E+03  0.7818608E-02  0.1008594E+00
          2   -1    0    0  501    0  0.00000000000E+00  0.00000000000E+00  0.20861257155E+04  0.20861257155E+04  0.25500000000E-02 0.  1.
         -2   -1    0    0    0  501 -0.00000000000E+00 -0.00000000000E+00 -0.32451275747E+02  0.32451275847E+02  0.25500000000E-02 0. -1.
    5000001    1    1    2    0    0 -0.16002308001E+03 -0.71382169435E+02  0.10733708965E+04  0.11043966143E+04  0.19200000000E+03 0.  0.
   -5000001    1    1    2    0    0  0.16002308001E+03  0.71382169435E+02  0.98030354325E+03  0.10141803770E+04  0.19200000000E+03 0.  0.
<mgrwt>
<rscale>  0 0.52037464E+03</rscale>
<asrwt>0</asrwt>
<pdfrwt beam="1">  1        2 0.29801797E+00 0.52037464E+03</pdfrwt>
<pdfrwt beam="2">  1       -2 0.46358963E-02 0.52037464E+03</pdfrwt>
<totfact> 0.17363022E+03</totfact>
</mgrwt>
</event>
<event>
 4    1  0.5812319E-005  0.7186677E+03  0.7818608E-02  0.9685830E-01
         -2   -1    0    0    0  501 -0.00000000000E+00  0.00000000000E+00  0.70134666921E+03  0.70134666922E+03  0.25500000000E-02 0. -1.
          2   -1    0    0  501    0  0.00000000000E+00 -0.00000000000E+00 -0.18410415153E+03  0.18410415155E+03  0.25500000000E-02 0.  1.
    5000001    1    1    2    0    0  0.25103016266E+03 -0.46490700808E+02  0.46136854555E+03  0.56116170811E+03  0.19200000000E+03 0.  0.
   -5000001    1    1    2    0    0 -0.25103016266E+03  0.46490700808E+02  0.55873972136E+02  0.32428911266E+03  0.19200000000E+03 0.  0.
<mgrwt>
<rscale>  0 0.71866775E+03</rscale>
<asrwt>0</asrwt>
<pdfrwt beam="1">  1        2 0.26300593E-01 0.71866775E+03</pdfrwt>
<pdfrwt beam="2">  1       -2 0.10019238E+00 0.71866775E+03</pdfrwt>
<totfact> 0.17164011E+02</totfact>
</mgrwt>
</event>
<event>
 4    1  0.5812319E-005  0.5466064E+03  0.7818608E-02  0.1002282E+00
         -2   -1    0    0    0  501 -0.00000000000E+00  0.00000000000E+00  0.44705893041E+02  0.44705893113E+02  0.25500000000E-02 0. -1.
          2   -1    0    0  501    0  0.00000000000E+00 -0.00000000000E+00 -0.16708005435E+04  0.16708005435E+04  0.25500000000E-02 0.  1.
    5000001    1    1    2    0    0  0.16368392213E+03 -0.44740587737E+01 -0.48361005397E+03  0.54548613902E+03  0.19200000000E+03 0.  0.
   -5000001    1    1    2    0    0 -0.16368392213E+03  0.44740587737E+01 -0.11424845965E+04  0.11700202976E+04  0.19200000000E+03 0.  0.
<mgrwt>
<rscale>  0 0.54660637E+03</rscale>
<asrwt>0</asrwt>
<pdfrwt beam="1">  1        2 0.23868575E+00 0.54660637E+03</pdfrwt>
<pdfrwt beam="2">  1       -2 0.63865572E-02 0.54660637E+03</pdfrwt>
<totfact> 0.17040524E+03</totfact>
</mgrwt>
</event>
<event>
 4    1  0.5812319E-005  0.6219431E+03  0.7818608E-02  0.9860899E-01
          2   -1    0    0  501    0  0.00000000000E+00  0.00000000000E+00  0.51621677947E+03  0.51621677948E+03  0.25500000000E-02 0.  1.
         -2   -1    0    0    0  501 -0.00000000000E+00 -0.00000000000E+00 -0.18733080265E+03  0.18733080267E+03  0.25500000000E-02 0. -1.
    5000001    1    1    2    0    0 -0.17977116517E+03 -0.16184538290E+03  0.20566160695E+03  0.37104217599E+03  0.19200000000E+03 0.  0.
   -5000001    1    1    2    0    0  0.17977116517E+03  0.16184538290E+03  0.12322436987E+03  0.33250540616E+03  0.19200000000E+03 0.  0.
<mgrwt>
<rscale>  0 0.62194310E+03</rscale>
<asrwt>0</asrwt>
<pdfrwt beam="1">  1        2 0.73745255E-01 0.62194310E+03</pdfrwt>
<pdfrwt beam="2">  1       -2 0.26761543E-01 0.62194310E+03</pdfrwt>
<totfact> 0.82209487E+02</totfact>
</mgrwt>
</event>
<event>
 4    1  0.5812319E-005  0.6904058E+03  0.7818608E-02  0.9733782E-01
          2   -1    0    0  501    0  0.00000000000E+00  0.00000000000E+00  0.12511270673E+04  0.12511270673E+04  0.25500000000E-02 0.  1.
         -2   -1    0    0    0  501 -0.00000000000E+00 -0.00000000000E+00 -0.95246158391E+02  0.95246158425E+02  0.25500000000E-02 0. -1.
    5000001    1    1    2    0    0 -0.12242540912E+02 -0.23975687037E+03  0.27165503318E+03  0.41023614388E+03  0.19200000000E+03 0.  0.
   -5000001    1    1    2    0    0  0.12242540912E+02  0.23975687037E+03  0.88422587575E+03  0.93613708187E+03  0.19200000000E+03 0.  0.
<mgrwt>
<rscale>  0 0.69040581E+03</rscale>
<asrwt>0</asrwt>
<pdfrwt beam="1">  1        2 0.17873245E+00 0.69040581E+03</pdfrwt>
<pdfrwt beam="2">  1       -2 0.13606593E-01 0.69040581E+03</pdfrwt>
<totfact> 0.83166528E+02</totfact>
</mgrwt>
</event>
<event>
 4    1  0.5812319E-005  0.6996305E+03  0.7818608E-02  0.9717864E-01
         -2   -1    0    0    0  501 -0.00000000000E+00  0.00000000000E+00  0.80421553402E+02  0.80421553443E+02  0.25500000000E-02 0. -1.
          2   -1    0    0  501    0  0.00000000000E+00 -0.00000000000E+00 -0.15216156371E+04  0.15216156371E+04  0.25500000000E-02 0.  1.
    5000001    1    1    2    0    0 -0.98389674622E+02 -0.43950417833E+02 -0.13430549969E+04  0.13609823262E+04  0.19200000000E+03 0.  0.
   -5000001    1    1    2    0    0  0.98389674622E+02  0.43950417833E+02 -0.98139086770E+02  0.24105486440E+03  0.19200000000E+03 0.  0.
<mgrwt>
<rscale>  0 0.69963045E+03</rscale>
<asrwt>0</asrwt>
<pdfrwt beam="1">  1        2 0.21737364E+00 0.69963045E+03</pdfrwt>
<pdfrwt beam="2">  1       -2 0.11488794E-01 0.69963045E+03</pdfrwt>
<totfact> 0.78795833E+02</totfact>
</mgrwt>
</event>
<event>
 4    1  0.5812319E-005  0.6391798E+03  0.7818608E-02  0.9827297E-01
         -2   -1    0    0    0  501 -0.00000000000E+00  0.00000000000E+00  0.91240287457E+03  0.91240287457E+03  0.25500000000E-02 0. -1.
          2   -1    0    0  501    0  0.00000000000E+00 -0.00000000000E+00 -0.11194363537E+03  0.11194363540E+03  0.25500000000E-02 0.  1.
    5000001    1    1    2    0    0 -0.23660450053E+03  0.93289594991E+02  0.36133385161E+03  0.48177877758E+03  0.19200000000E+03 0.  0.
   -5000001    1    1    2    0    0  0.23660450053E+03 -0.93289594991E+02  0.43912538759E+03  0.54256773239E+03  0.19200000000E+03 0.  0.
<mgrwt>
<rscale>  0 0.63917977E+03</rscale>
<asrwt>0</asrwt>
<pdfrwt beam="1">  1        2 0.15991948E-01 0.63917977E+03</pdfrwt>
<pdfrwt beam="2">  1       -2 0.13034327E+00 0.63917977E+03</pdfrwt>
<totfact> 0.16219990E+02</totfact>
</mgrwt>
</event>
<event>
 4    1  0.5812319E-005  0.5524763E+03  0.7818608E-02  0.1000922E+00
          2   -1    0    0  501    0  0.00000000000E+00  0.00000000000E+00  0.46629186826E+03  0.46629186826E+03  0.25500000000E-02 0.  1.
         -2   -1    0    0    0  501 -0.00000000000E+00 -0.00000000000E+00 -0.16364756081E+03  0.16364756083E+03  0.25500000000E-02 0. -1.
    5000001    1    1    2    0    0 -0.15123277658E+03 -0.35955548133E+02  0.10380984420E+02  0.24725678755E+03  0.19200000000E+03 0.  0.
   -5000001    1    1    2    0    0  0.15123277658E+03  0.35955548133E+02  0.29226332303E+03  0.38268264154E+03  0.19200000000E+03 0.  0.
<mgrwt>
<rscale>  0 0.55247634E+03</rscale>
<asrwt>0</asrwt>
<pdfrwt beam="1">  1        2 0.66613124E-01 0.55247634E+03</pdfrwt>
<pdfrwt beam="2">  1       -2 0.23378223E-01 0.55247634E+03</pdfrwt>
<totfact> 0.11767805E+03</totfact>
</mgrwt>
</event>
<event>
 4    1  0.5812319E-005  0.4111868E+03  0.7818608E-02  0.1039973E+00
          2   -1    0    0  501    0  0.00000000000E+00  0.00000000000E+00  0.19612064679E+04  0.19612064679E+04  0.25500000000E-02 0.  1.
         -2   -1    0    0    0  501 -0.00000000000E+00 -0.00000000000E+00 -0.21552366461E+02  0.21552366612E+02  0.25500000000E-02 0. -1.
    5000001    1    1    2    0    0 -0.61509971130E+02  0.24084376028E+02  0.11254158851E+04  0.11435857852E+04  0.19200000000E+03 0.  0.
   -5000001    1    1    2    0    0  0.61509971130E+02 -0.24084376028E+02  0.81423821636E+03  0.83917304931E+03  0.19200000000E+03 0.  0.
<mgrwt>
<rscale>  0 0.41118677E+03</rscale>
<asrwt>0</asrwt>
<pdfrwt beam="1">  1        2 0.28017228E+00 0.41118677E+03</pdfrwt>
<pdfrwt beam="2">  1       -2 0.30789103E-02 0.41118677E+03</pdfrwt>
<totfact> 0.37518702E+03</totfact>
</mgrwt>
</event>
<event>
 4    1  0.5812319E-005  0.5737737E+03  0.7818608E-02  0.9961362E-01
          2   -1    0    0  501    0  0.00000000000E+00  0.00000000000E+00  0.12527575576E+04  0.12527575576E+04  0.25500000000E-02 0.  1.
         -2   -1    0    0    0  501 -0.00000000000E+00 -0.00000000000E+00 -0.65698324393E+02  0.65698324442E+02  0.25500000000E-02 0. -1.
    5000001    1    1    2    0    0  0.20952139356E+03  0.30176978717E+02  0.53584408327E+03  0.60729131887E+03  0.19200000000E+03 0.  0.
   -5000001    1    1    2    0    0 -0.20952139356E+03 -0.30176978717E+02  0.65121514992E+03  0.71116456315E+03  0.19200000000E+03 0.  0.
<mgrwt>
<rscale>  0 0.57377373E+03</rscale>
<asrwt>0</asrwt>
<pdfrwt beam="1">  1        2 0.17896536E+00 0.57377373E+03</pdfrwt>
<pdfrwt beam="2">  1       -2 0.93854754E-02 0.57377373E+03</pdfrwt>
<totfact> 0.15315661E+03</totfact>
</mgrwt>
</event>
<event>
 4    1  0.5812319E-005  0.4439786E+03  0.7818608E-02  0.1029533E+00
          2   -1    0    0  501    0  0.00000000000E+00  0.00000000000E+00  0.12451002299E+04  0.12451002299E+04  0.25500000000E-02 0.  1.
         -2   -1    0    0    0  501 -0.00000000000E+00 -0.00000000000E+00 -0.39578548131E+02  0.39578548213E+02  0.25500000000E-02 0. -1.
    5000001    1    1    2    0    0 -0.15501102971E+02  0.46034580222E+02  0.31259878273E+03  0.37005603053E+03  0.19200000000E+03 0.  0.
   -5000001    1    1    2    0    0  0.15501102971E+02 -0.46034580222E+02  0.89292289906E+03  0.91462274761E+03  0.19200000000E+03 0.  0.
<mgrwt>
<rscale>  0 0.44397865E+03</rscale>
<asrwt>0</asrwt>
<pdfrwt beam="1">  1        2 0.17787148E+00 0.44397865E+03</pdfrwt>
<pdfrwt beam="2">  1       -2 0.56540779E-02 0.44397865E+03</pdfrwt>
<totfact> 0.34469837E+03</totfact>
</mgrwt>
</event>
<event>
 4    1  0.5812319E-005  0.1235188E+04  0.7818608E-02  0.9082602E-01
         -2   -1    0    0    0  501 -0.00000000000E+00  0.00000000000E+00  0.36917709067E+03  0.36917709068E+03  0.25500000000E-02 0. -1.
          2   -1    0    0  501    0  0.00000000000E+00 -0.00000000000E+00 -0.10331694966E+04  0.10331694966E+04  0.25500000000E-02 0.  1.
    5000001    1    1    2    0    0 -0.35788389668E+03  0.41915772161E+03 -0.10271449689E+03  0.59261146375E+03  0.19200000000E+03 0.  0.
   -5000001    1    1    2    0    0  0.35788389668E+03 -0.41915772161E+03 -0.56127790900E+03  0.80973512350E+03  0.19200000000E+03 0.  0.
<mgrwt>
<rscale>  0 0.12351883E+04</rscale>
<asrwt>0</asrwt>
<pdfrwt beam="1">  1        2 0.14759564E+00 0.12351883E+04</pdfrwt>
<pdfrwt beam="2">  1       -2 0.52739585E-01 0.12351883E+04</pdfrwt>
<totfact> 0.89506188E+01</totfact>
</mgrwt>
</event>
<event>
 4    1  0.5812319E-005  0.5634858E+03  0.7818608E-02  0.9984198E-01
         -2   -1    0    0    0  501 -0.00000000000E+00  0.00000000000E+00  0.33148877331E+02  0.33148877429E+02  0.25500000000E-02 0. -1.
          2   -1    0    0  501    0  0.00000000000E+00 -0.00000000000E+00 -0.23946231628E+04  0.23946231628E+04  0.25500000000E-02 0.  1.
    5000001    1    1    2    0    0  0.90284214094E+02 -0.95491800582E+02 -0.49617346262E+03  0.54801644893E+03  0.19200000000E+03 0.  0.
   -5000001    1    1    2    0    0 -0.90284214094E+02  0.95491800582E+02 -0.18653008228E+04  0.18797555913E+04  0.19200000000E+03 0.  0.
<mgrwt>
<rscale>  0 0.56348583E+03</rscale>
<asrwt>0</asrwt>
<pdfrwt beam="1">  1        2 0.34208891E+00 0.56348583E+03</pdfrwt>
<pdfrwt beam="2">  1       -2 0.47355554E-02 0.56348583E+03</pdfrwt>
<totfact> 0.11723119E+03</totfact>
</mgrwt>
</event>
<event>
 4    1  0.5812319E-005  0.6800956E+03  0.7818608E-02  0.9751890E-01
         -2   -1    0    0    0  501 -0.00000000000E+00  0.00000000000E+00  0.13079569950E+03  0.13079569953E+03  0.25500000000E-02 0. -1.
          2   -1    0    0  501    0  0.00000000000E+00 -0.00000000000E+00 -0.88406956831E+03  0.88406956831E+03  0.25500000000E-02 0.  1.
    5000001    1    1    2    0    0  0.10547298205E+03 -0.25985096198E+03 -0.39308038265E+03  0.51963762336E+03  0.19200000000E+03 0.  0.
   -5000001    1    1    2    0    0 -0.10547298205E+03  0.25985096198E+03 -0.36019348615E+03  0.49522764448E+03  0.19200000000E+03 0.  0.
<mgrwt>
<rscale>  0 0.68009557E+03</rscale>
<asrwt>0</asrwt>
<pdfrwt beam="1">  1        2 0.12629565E+00 0.68009557E+03</pdfrwt>
<pdfrwt beam="2">  1       -2 0.18685101E-01 0.68009557E+03</pdfrwt>
<totfact> 0.80349522E+02</totfact>
</mgrwt>
</event>
<event>
 4    1  0.5812319E-005  0.4941178E+03  0.7818608E-02  0.1015326E+00
         -2   -1    0    0    0  501 -0.00000000000E+00  0.00000000000E+00  0.90835440013E+02  0.90835440049E+02  0.25500000000E-02 0. -1.
          2   -1    0    0  501    0  0.00000000000E+00 -0.00000000000E+00 -0.67196362841E+03  0.67196362841E+03  0.25500000000E-02 0.  1.
    5000001    1    1    2    0    0 -0.10586201662E+03 -0.82133391713E+02 -0.41232993307E+03  0.47416519727E+03  0.19200000000E+03 0.  0.
   -5000001    1    1    2    0    0  0.10586201662E+03  0.82133391713E+02 -0.16879825532E+03  0.28863387119E+03  0.19200000000E+03 0.  0.
<mgrwt>
<rscale>  0 0.49411785E+03</rscale>
<asrwt>0</asrwt>
<pdfrwt beam="1">  1        2 0.95994801E-01 0.49411785E+03</pdfrwt>
<pdfrwt beam="2">  1       -2 0.12976492E-01 0.49411785E+03</pdfrwt>
<totfact> 0.21083069E+03</totfact>
</mgrwt>
</event>
<event>
 4    1  0.5812319E-005  0.5027772E+03  0.7818608E-02  0.1013057E+00
         -2   -1    0    0    0  501 -0.00000000000E+00  0.00000000000E+00  0.42996715645E+02  0.42996715721E+02  0.25500000000E-02 0. -1.
          2   -1    0    0  501    0  0.00000000000E+00 -0.00000000000E+00 -0.14697918813E+04  0.14697918813E+04  0.25500000000E-02 0.  1.
    5000001    1    1    2    0    0  0.63758213143E+02 -0.14455110467E+03 -0.60194393077E+03  0.65127615294E+03  0.19200000000E+03 0.  0.
   -5000001    1    1    2    0    0 -0.63758213143E+02  0.14455110467E+03 -0.82485123487E+03  0.86151244406E+03  0.19200000000E+03 0.  0.
<mgrwt>
<rscale>  0 0.50277718E+03</rscale>
<asrwt>0</asrwt>
<pdfrwt beam="1">  1        2 0.20997024E+00 0.50277718E+03</pdfrwt>
<pdfrwt beam="2">  1       -2 0.61423889E-02 0.50277718E+03</pdfrwt>
<totfact> 0.23001696E+03</totfact>
</mgrwt>
</event>
<event>
 4    1  0.5812319E-005  0.5320638E+03  0.7818608E-02  0.1005733E+00
         -2   -1    0    0    0  501 -0.00000000000E+00  0.00000000000E+00  0.64565847133E+03  0.64565847134E+03  0.25500000000E-02 0. -1.
          2   -1    0    0  501    0  0.00000000000E+00 -0.00000000000E+00 -0.10961363820E+03  0.10961363823E+03  0.25500000000E-02 0.  1.
    5000001    1    1    2    0    0  0.43805915494E+02 -0.15137206766E+03  0.40326057412E+03  0.47361962770E+03  0.19200000000E+03 0.  0.
   -5000001    1    1    2    0    0 -0.43805915494E+02  0.15137206766E+03  0.13278425901E+03  0.28165248186E+03  0.19200000000E+03 0.  0.
<mgrwt>
<rscale>  0 0.53206381E+03</rscale>
<asrwt>0</asrwt>
<pdfrwt beam="1">  1        2 0.15659091E-01 0.53206381E+03</pdfrwt>
<pdfrwt beam="2">  1       -2 0.92236926E-01 0.53206381E+03</pdfrwt>
<totfact> 0.38398754E+02</totfact>
</mgrwt>
</event>
<event>
 4    1  0.5812319E-005  0.5236213E+03  0.7818608E-02  0.1007791E+00
         -2   -1    0    0    0  501 -0.00000000000E+00  0.00000000000E+00  0.41877194544E+02  0.41877194622E+02  0.25500000000E-02 0. -1.
          2   -1    0    0  501    0  0.00000000000E+00 -0.00000000000E+00 -0.16368055584E+04  0.16368055584E+04  0.25500000000E-02 0.  1.
    5000001    1    1    2    0    0  0.46458094582E+02 -0.16528402591E+03 -0.64696861783E+03  0.69635447599E+03  0.19200000000E+03 0.  0.
   -5000001    1    1    2    0    0 -0.46458094582E+02  0.16528402591E+03 -0.94795974599E+03  0.98232827700E+03  0.19200000000E+03 0.  0.
<mgrwt>
<rscale>  0 0.52362133E+03</rscale>
<asrwt>0</asrwt>
<pdfrwt beam="1">  1        2 0.23382932E+00 0.52362133E+03</pdfrwt>
<pdfrwt beam="2">  1       -2 0.59824574E-02 0.52362133E+03</pdfrwt>
<totfact> 0.19657051E+03</totfact>
</mgrwt>
</event>
<event>
 4    1  0.5812319E-005  0.7074941E+03  0.7818608E-02  0.9704501E-01
          2   -1    0    0  501    0  0.00000000000E+00  0.00000000000E+00  0.34440739309E+03  0.34440739310E+03  0.25500000000E-02 0.  1.
         -2   -1    0    0    0  501 -0.00000000000E+00 -0.00000000000E+00 -0.36334000079E+03  0.36334000080E+03  0.25500000000E-02 0. -1.
    5000001    1    1    2    0    0  0.25621884634E+03 -0.49872431493E+02  0.13249159993E+03  0.35007624983E+03  0.19200000000E+03 0.  0.
   -5000001    1    1    2    0    0 -0.25621884634E+03  0.49872431493E+02 -0.15142420763E+03  0.35767114407E+03  0.19200000000E+03 0.  0.
<mgrwt>
<rscale>  0 0.70749412E+03</rscale>
<asrwt>0</asrwt>
<pdfrwt beam="1">  1        2 0.49201056E-01 0.70749412E+03</pdfrwt>
<pdfrwt beam="2">  1       -2 0.51905714E-01 0.70749412E+03</pdfrwt>
<totfact> 0.36131322E+02</totfact>
</mgrwt>
</event>
<event>
 4    1  0.5812319E-005  0.5156334E+03  0.7818608E-02  0.1009777E+00
         -2   -1    0    0    0  501 -0.00000000000E+00  0.00000000000E+00  0.49945593370E+02  0.49945593435E+02  0.25500000000E-02 0. -1.
          2   -1    0    0  501    0  0.00000000000E+00 -0.00000000000E+00 -0.13308373197E+04  0.13308373197E+04  0.25500000000E-02 0.  1.
    5000001    1    1    2    0    0  0.67860569997E+02  0.15810890572E+03 -0.63668102193E+03  0.68689897854E+03  0.19200000000E+03 0.  0.
   -5000001    1    1    2    0    0 -0.67860569997E+02 -0.15810890572E+03 -0.64421070438E+03  0.69388393458E+03  0.19200000000E+03 0.  0.
<mgrwt>
<rscale>  0 0.51563343E+03</rscale>
<asrwt>0</asrwt>
<pdfrwt beam="1">  1        2 0.19011960E+00 0.51563343E+03</pdfrwt>
<pdfrwt beam="2">  1       -2 0.71350856E-02 0.51563343E+03</pdfrwt>
<totfact> 0.21524570E+03</totfact>
</mgrwt>
</event>
<event>
 4    1  0.5812319E-005  0.6191509E+03  0.7818608E-02  0.9866452E-01
         -2   -1    0    0    0  501 -0.00000000000E+00  0.00000000000E+00  0.26297180101E+02  0.26297180225E+02  0.25500000000E-02 0.  1.
          2   -1    0    0  501    0  0.00000000000E+00 -0.00000000000E+00 -0.36443816257E+04  0.36443816257E+04  0.25500000000E-02 0. -1.
    5000001    1    1    2    0    0 -0.13894414432E+03 -0.18443980819E+03 -0.13634345554E+04  0.13961165083E+04  0.19200000000E+03 0.  0.
   -5000001    1    1    2    0    0  0.13894414432E+03  0.18443980819E+03 -0.22546498902E+04  0.22745622976E+04  0.19200000000E+03 0.  0.
<mgrwt>
<rscale>  0 0.61915090E+03</rscale>
<asrwt>0</asrwt>
<pdfrwt beam="1">  1        2 0.52062562E+00 0.61915090E+03</pdfrwt>
<pdfrwt beam="2">  1       -2 0.37567424E-02 0.61915090E+03</pdfrwt>
<totfact> 0.34177916E+02</totfact>
</mgrwt>
</event>
<event>
 4    1  0.5812319E-005  0.8121852E+03  0.7818608E-02  0.9542545E-01
          2   -1    0    0  501    0  0.00000000000E+00  0.00000000000E+00  0.68364735833E+03  0.68364735833E+03  0.25500000000E-02 0.  1.
         -2   -1    0    0    0  501 -0.00000000000E+00 -0.00000000000E+00 -0.24122259566E+03  0.24122259567E+03  0.25500000000E-02 0. -1.
    5000001    1    1    2    0    0 -0.17814673863E+03  0.23998014069E+03 -0.28638938899E+01  0.35524488778E+03  0.19200000000E+03 0.  0.
   -5000001    1    1    2    0    0  0.17814673863E+03 -0.23998014069E+03  0.44528865656E+03  0.56962506622E+03  0.19200000000E+03 0.  0.
<mgrwt>
<rscale>  0 0.81218518E+03</rscale>
<asrwt>0</asrwt>
<pdfrwt beam="1">  1        2 0.97663908E-01 0.81218518E+03</pdfrwt>
<pdfrwt beam="2">  1       -2 0.34460371E-01 0.81218518E+03</pdfrwt>
<totfact> 0.36692186E+02</totfact>
</mgrwt>
</event>
<event>
 4    1  0.5812319E-005  0.6853040E+03  0.7818608E-02  0.9742700E-01
         -2   -1    0    0    0  501 -0.00000000000E+00  0.00000000000E+00  0.28034534411E+03  0.28034534412E+03  0.25500000000E-02 0. -1.
          2   -1    0    0  501    0  0.00000000000E+00 -0.00000000000E+00 -0.41880631953E+03  0.41880631954E+03  0.25500000000E-02 0.  1.
    5000001    1    1    2    0    0 -0.16457310911E+03 -0.17843741882E+03 -0.21924658497E+03  0.37928523000E+03  0.19200000000E+03 0.  0.
   -5000001    1    1    2    0    0  0.16457310911E+03  0.17843741882E+03  0.80785609551E+02  0.31986643367E+03  0.19200000000E+03 0.  0.
<mgrwt>
<rscale>  0 0.68530403E+03</rscale>
<asrwt>0</asrwt>
<pdfrwt beam="1">  1        2 0.59829474E-01 0.68530403E+03</pdfrwt>
<pdfrwt beam="2">  1       -2 0.40049335E-01 0.68530403E+03</pdfrwt>
<totfact> 0.48777739E+02</totfact>
</mgrwt>
</event>
<event>
 4    1  0.5812319E-005  0.5040301E+03  0.7818608E-02  0.1012732E+00
          2   -1    0    0  501    0  0.00000000000E+00  0.00000000000E+00  0.17748783564E+04  0.17748783564E+04  0.25500000000E-02 0.  1.
         -2   -1    0    0    0  501 -0.00000000000E+00 -0.00000000000E+00 -0.35783622725E+02  0.35783622816E+02  0.25500000000E-02 0. -1.
    5000001    1    1    2    0    0 -0.14623579081E+03 -0.24979754778E+02  0.62487874287E+03  0.67033300527E+03  0.19200000000E+03 0.  0.
   -5000001    1    1    2    0    0  0.14623579081E+03  0.24979754778E+02  0.11142159908E+04  0.11403289740E+04  0.19200000000E+03 0.  0.
<mgrwt>
<rscale>  0 0.50403007E+03</rscale>
<asrwt>0</asrwt>
<pdfrwt beam="1">  1        2 0.25355404E+00 0.50403007E+03</pdfrwt>
<pdfrwt beam="2">  1       -2 0.51119464E-02 0.50403007E+03</pdfrwt>
<totfact> 0.21383098E+03</totfact>
</mgrwt>
</event>
<event>
 4    1  0.5812319E-005  0.5029145E+03  0.7818608E-02  0.1013021E+00
          2   -1    0    0  501    0  0.00000000000E+00  0.00000000000E+00  0.23446748907E+03  0.23446748909E+03  0.25500000000E-02 0.  1.
         -2   -1    0    0    0  501 -0.00000000000E+00 -0.00000000000E+00 -0.26967810334E+03  0.26967810335E+03  0.25500000000E-02 0. -1.
    5000001    1    1    2    0    0 -0.15313493415E+03  0.15794503368E+02 -0.69374471985E+02  0.25568846622E+03  0.19200000000E+03 0.  0.
   -5000001    1    1    2    0    0  0.15313493415E+03 -0.15794503368E+02  0.34163857716E+02  0.24845712622E+03  0.19200000000E+03 0.  0.
<mgrwt>
<rscale>  0 0.50291450E+03</rscale>
<asrwt>0</asrwt>
<pdfrwt beam="1">  1        2 0.33495356E-01 0.50291450E+03</pdfrwt>
<pdfrwt beam="2">  1       -2 0.38525443E-01 0.50291450E+03</pdfrwt>
<totfact> 0.10016464E+03</totfact>
</mgrwt>
</event>
<event>
 4    1  0.5812319E-005  0.4557122E+03  0.7818608E-02  0.1026032E+00
         -2   -1    0    0    0  501 -0.00000000000E+00  0.00000000000E+00  0.17487485626E+04  0.17487485627E+04  0.25500000000E-02 0. -1.
          2   -1    0    0  501    0  0.00000000000E+00 -0.00000000000E+00 -0.29688882665E+02  0.29688882775E+02  0.25500000000E-02 0.  1.
    5000001    1    1    2    0    0  0.10538330959E+03 -0.52076889741E+02  0.72228742584E+03  0.75655850396E+03  0.19200000000E+03 0.  0.
   -5000001    1    1    2    0    0 -0.10538330959E+03  0.52076889741E+02  0.99677225414E+03  0.10218789415E+04  0.19200000000E+03 0.  0.
<mgrwt>
<rscale>  0 0.45571215E+03</rscale>
<asrwt>0</asrwt>
<pdfrwt beam="1">  1        2 0.42412694E-02 0.45571215E+03</pdfrwt>
<pdfrwt beam="2">  1       -2 0.24982120E+00 0.45571215E+03</pdfrwt>
<totfact> 0.13945087E+02</totfact>
</mgrwt>
</event>
<event>
 4    1  0.5812319E-005  0.5940515E+03  0.7818608E-02  0.9917825E-01
         -2   -1    0    0    0  501 -0.00000000000E+00  0.00000000000E+00  0.34661093574E+03  0.34661093575E+03  0.25500000000E-02 0. -1.
          2   -1    0    0  501    0  0.00000000000E+00 -0.00000000000E+00 -0.25453404109E+03  0.25453404110E+03  0.25500000000E-02 0.  1.
    5000001    1    1    2    0    0  0.20634932920E+03 -0.45838611736E+02  0.12873983055E+03  0.31323979306E+03  0.19200000000E+03 0.  0.
   -5000001    1    1    2    0    0 -0.20634932920E+03  0.45838611736E+02 -0.36662935899E+02  0.28790518379E+03  0.19200000000E+03 0.  0.
<mgrwt>
<rscale>  0 0.59405145E+03</rscale>
<asrwt>0</asrwt>
<pdfrwt beam="1">  1        2 0.36362006E-01 0.59405145E+03</pdfrwt>
<pdfrwt beam="2">  1       -2 0.49515848E-01 0.59405145E+03</pdfrwt>
<totfact> 0.55725912E+02</totfact>
</mgrwt>
</event>
<event>
 4    1  0.5812319E-005  0.7943120E+03  0.7818608E-02  0.9568287E-01
         -2   -1    0    0    0  501 -0.00000000000E+00  0.00000000000E+00  0.10127969725E+04  0.10127969725E+04  0.25500000000E-02 0. -1.
          2   -1    0    0  501    0  0.00000000000E+00 -0.00000000000E+00 -0.15573989691E+03  0.15573989693E+03  0.25500000000E-02 0.  1.
    5000001    1    1    2    0    0  0.18791739359E+03  0.24617433191E+03  0.19613574500E+03  0.41382119203E+03  0.19200000000E+03 0.  0.
   -5000001    1    1    2    0    0 -0.18791739359E+03 -0.24617433191E+03  0.66092133063E+03  0.75471567745E+03  0.19200000000E+03 0.  0.
<mgrwt>
<rscale>  0 0.79431202E+03</rscale>
<asrwt>0</asrwt>
<pdfrwt beam="1">  1        2 0.22248557E-01 0.79431202E+03</pdfrwt>
<pdfrwt beam="2">  1       -2 0.14468528E+00 0.79431202E+03</pdfrwt>
<totfact> 0.83380807E+01</totfact>
</mgrwt>
</event>
<event>
 4    1  0.5812319E-005  0.4583453E+03  0.7818608E-02  0.1025262E+00
          2   -1    0    0  501    0  0.00000000000E+00  0.00000000000E+00  0.82010947940E+03  0.82010947940E+03  0.25500000000E-02 0.  1.
         -2   -1    0    0    0  501 -0.00000000000E+00 -0.00000000000E+00 -0.64040347361E+02  0.64040347412E+02  0.25500000000E-02 0. -1.
    5000001    1    1    2    0    0  0.66047382722E+02  0.10608942084E+03  0.36600741897E+03  0.43179005630E+03  0.19200000000E+03 0.  0.
   -5000001    1    1    2    0    0 -0.66047382722E+02 -0.10608942084E+03  0.39006171306E+03  0.45235977051E+03  0.19200000000E+03 0.  0.
<mgrwt>
<rscale>  0 0.45834527E+03</rscale>
<asrwt>0</asrwt>
<pdfrwt beam="1">  1        2 0.11715849E+00 0.45834527E+03</pdfrwt>
<pdfrwt beam="2">  1       -2 0.91486215E-02 0.45834527E+03</pdfrwt>
<totfact> 0.29060752E+03</totfact>
</mgrwt>
</event>
<event>
 4    1  0.5812319E-005  0.4983191E+03  0.7818608E-02  0.1014219E+00
          2   -1    0    0  501    0  0.00000000000E+00  0.00000000000E+00  0.53543291823E+03  0.53543291824E+03  0.25500000000E-02 0.  1.
         -2   -1    0    0    0  501 -0.00000000000E+00 -0.00000000000E+00 -0.11594446602E+03  0.11594446604E+03  0.25500000000E-02 0. -1.
    5000001    1    1    2    0    0  0.88437715693E+02  0.13912331263E+01  0.38213592967E+03  0.43670932418E+03  0.19200000000E+03 0.  0.
   -5000001    1    1    2    0    0 -0.88437715693E+02 -0.13912331263E+01  0.37352522552E+02  0.21466806010E+03  0.19200000000E+03 0.  0.
<mgrwt>
<rscale>  0 0.49831911E+03</rscale>
<asrwt>0</asrwt>
<pdfrwt beam="1">  1        2 0.76490417E-01 0.49831911E+03</pdfrwt>
<pdfrwt beam="2">  1       -2 0.16563495E-01 0.49831911E+03</pdfrwt>
<totfact> 0.18283985E+03</totfact>
</mgrwt>
</event>
<event>
 4    1  0.5812319E-005  0.6352014E+03  0.7818608E-02  0.9834951E-01
          2   -1    0    0  501    0  0.00000000000E+00  0.00000000000E+00  0.18726302054E+04  0.18726302054E+04  0.25500000000E-02 0.  1.
         -2   -1    0    0    0  501 -0.00000000000E+00 -0.00000000000E+00 -0.53865528460E+02  0.53865528521E+02  0.25500000000E-02 0. -1.
    5000001    1    1    2    0    0  0.14333709919E+03 -0.18959968237E+03  0.11722597204E+04  0.12114249526E+04  0.19200000000E+03 0.  0.
   -5000001    1    1    2    0    0 -0.14333709919E+03  0.18959968237E+03  0.64650495650E+03  0.71507078135E+03  0.19200000000E+03 0.  0.
<mgrwt>
<rscale>  0 0.63520143E+03</rscale>
<asrwt>0</asrwt>
<pdfrwt beam="1">  1        2 0.26751862E+00 0.63520143E+03</pdfrwt>
<pdfrwt beam="2">  1       -2 0.76950749E-02 0.63520143E+03</pdfrwt>
<totfact> 0.99951076E+02</totfact>
</mgrwt>
</event>
<event>
 4    1  0.5812319E-005  0.1071040E+04  0.7818608E-02  0.9233887E-01
          2   -1    0    0  501    0  0.00000000000E+00  0.00000000000E+00  0.35874538665E+04  0.35874538665E+04  0.25500000000E-02 0.  1.
         -2   -1    0    0    0  501 -0.00000000000E+00 -0.00000000000E+00 -0.79940171180E+02  0.79940171221E+02  0.25500000000E-02 0. -1.
    5000001    1    1    2    0    0 -0.25682006846E+03  0.13447971440E+03  0.35917471992E+03  0.49991181280E+03  0.19200000000E+03 0.  0.
   -5000001    1    1    2    0    0  0.25682006846E+03 -0.13447971440E+03  0.31483389754E+04  0.31674822249E+04  0.19200000000E+03 0.  0.
<mgrwt>
<rscale>  0 0.10710400E+04</rscale>
<asrwt>0</asrwt>
<pdfrwt beam="1">  1        2 0.51249350E+00 0.10710400E+04</pdfrwt>
<pdfrwt beam="2">  1       -2 0.11420023E-01 0.10710400E+04</pdfrwt>
<totfact> 0.60245370E+01</totfact>
</mgrwt>
</event>
<event>
 4    1  0.5812319E-005  0.5636959E+03  0.7818608E-02  0.9983727E-01
         -2   -1    0    0    0  501 -0.00000000000E+00  0.00000000000E+00  0.31845707706E+03  0.31845707707E+03  0.25500000000E-02 0. -1.
          2   -1    0    0  501    0  0.00000000000E+00 -0.00000000000E+00 -0.24944730323E+03  0.24944730324E+03  0.25500000000E-02 0.  1.
    5000001    1    1    2    0    0  0.19137210907E+03  0.17265487937E+02 -0.41242065654E+02  0.27474768277E+03  0.19200000000E+03 0.  0.
   -5000001    1    1    2    0    0 -0.19137210907E+03 -0.17265487937E+02  0.11025183948E+03  0.29315669754E+03  0.19200000000E+03 0.  0.
<mgrwt>
<rscale>  0 0.56369587E+03</rscale>
<asrwt>0</asrwt>
<pdfrwt beam="1">  1        2 0.35635329E-01 0.56369587E+03</pdfrwt>
<pdfrwt beam="2">  1       -2 0.45493868E-01 0.56369587E+03</pdfrwt>
<totfact> 0.67558668E+02</totfact>
</mgrwt>
</event>
<event>
 4    1  0.5812319E-005  0.6840352E+03  0.7818608E-02  0.9744930E-01
          2   -1    0    0  501    0  0.00000000000E+00  0.00000000000E+00  0.15019377410E+03  0.15019377412E+03  0.25500000000E-02 0.  1.
         -2   -1    0    0    0  501 -0.00000000000E+00 -0.00000000000E+00 -0.77883409998E+03  0.77883409998E+03  0.25500000000E-02 0. -1.
    5000001    1    1    2    0    0  0.91550458507E+02 -0.26764398361E+03 -0.32771331380E+03  0.47357660885E+03  0.19200000000E+03 0.  0.
   -5000001    1    1    2    0    0 -0.91550458507E+02  0.26764398361E+03 -0.30092701209E+03  0.45545126525E+03  0.19200000000E+03 0.  0.
<mgrwt>
<rscale>  0 0.68403518E+03</rscale>
<asrwt>0</asrwt>
<pdfrwt beam="1">  1        2 0.21456254E-01 0.68403518E+03</pdfrwt>
<pdfrwt beam="2">  1       -2 0.11126201E+00 0.68403518E+03</pdfrwt>
<totfact> 0.16905517E+02</totfact>
</mgrwt>
</event>
<event>
 4    1  0.5812319E-005  0.9312159E+03  0.7818608E-02  0.9387380E-01
          2   -1    0    0  501    0  0.00000000000E+00  0.00000000000E+00  0.18199760230E+04  0.18199760230E+04  0.25500000000E-02 0.  1.
         -2   -1    0    0    0  501 -0.00000000000E+00 -0.00000000000E+00 -0.11911736969E+03  0.11911736972E+03  0.25500000000E-02 0. -1.
    5000001    1    1    2    0    0  0.27727267040E+03 -0.10216768254E+03  0.14841144502E+04  0.15253780090E+04  0.19200000000E+03 0.  0.
   -5000001    1    1    2    0    0 -0.27727267040E+03  0.10216768254E+03  0.21674420306E+03  0.41371538365E+03  0.19200000000E+03 0.  0.
<mgrwt>
<rscale>  0 0.93121589E+03</rscale>
<asrwt>0</asrwt>
<pdfrwt beam="1">  1        2 0.25999658E+00 0.93121589E+03</pdfrwt>
<pdfrwt beam="2">  1       -2 0.17016767E-01 0.93121589E+03</pdfrwt>
<totfact> 0.28198313E+02</totfact>
</mgrwt>
</event>
<event>
 4    1  0.5812319E-005  0.5786214E+03  0.7818608E-02  0.9950780E-01
         -2   -1    0    0    0  501 -0.00000000000E+00  0.00000000000E+00  0.34613116001E+03  0.34613116002E+03  0.25500000000E-02 0. -1.
          2   -1    0    0  501    0  0.00000000000E+00 -0.00000000000E+00 -0.24181782431E+03  0.24181782432E+03  0.25500000000E-02 0.  1.
    5000001    1    1    2    0    0  0.14869663410E+03  0.10785697944E+03 -0.64111953788E+02  0.27334622665E+03  0.19200000000E+03 0.  0.
   -5000001    1    1    2    0    0 -0.14869663410E+03 -0.10785697944E+03  0.16842528949E+03  0.31460275769E+03  0.19200000000E+03 0.  0.
<mgrwt>
<rscale>  0 0.57862141E+03</rscale>
<asrwt>0</asrwt>
<pdfrwt beam="1">  1        2 0.34545403E-01 0.57862141E+03</pdfrwt>
<pdfrwt beam="2">  1       -2 0.49447309E-01 0.57862141E+03</pdfrwt>
<totfact> 0.59169477E+02</totfact>
</mgrwt>
</event>
<event>
 4    1  0.5812319E-005  0.5738287E+03  0.7818608E-02  0.9961242E-01
         -2   -1    0    0    0  501 -0.00000000000E+00  0.00000000000E+00  0.62710823127E+02  0.62710823179E+02  0.25500000000E-02 0. -1.
          2   -1    0    0  501    0  0.00000000000E+00 -0.00000000000E+00 -0.13126896464E+04  0.13126896464E+04  0.25500000000E-02 0.  1.
    5000001    1    1    2    0    0 -0.77320753911E+02 -0.88755642336E+02 -0.19891156176E+03  0.30047607631E+03  0.19200000000E+03 0.  0.
   -5000001    1    1    2    0    0  0.77320753911E+02  0.88755642336E+02 -0.10510672615E+04  0.10749243933E+04  0.19200000000E+03 0.  0.
<mgrwt>
<rscale>  0 0.57382871E+03</rscale>
<asrwt>0</asrwt>
<pdfrwt beam="1">  1        2 0.18752708E+00 0.57382871E+03</pdfrwt>
<pdfrwt beam="2">  1       -2 0.89586898E-02 0.57382871E+03</pdfrwt>
<totfact> 0.15308986E+03</totfact>
</mgrwt>
</event>
<event>
 4    1  0.5812319E-005  0.5123740E+03  0.7818608E-02  0.1010599E+00
          2   -1    0    0  501    0  0.00000000000E+00  0.00000000000E+00  0.11085134698E+04  0.11085134698E+04  0.25500000000E-02 0.  1.
         -2   -1    0    0    0  501 -0.00000000000E+00 -0.00000000000E+00 -0.59207009007E+02  0.59207009062E+02  0.25500000000E-02 0. -1.
    5000001    1    1    2    0    0  0.10006936368E+03 -0.12836639784E+03  0.63337935668E+03  0.68156086971E+03  0.19200000000E+03 0.  0.
   -5000001    1    1    2    0    0 -0.10006936368E+03  0.12836639784E+03  0.41592710408E+03  0.48615960913E+03  0.19200000000E+03 0.  0.
<mgrwt>
<rscale>  0 0.51237395E+03</rscale>
<asrwt>0</asrwt>
<pdfrwt beam="1">  1        2 0.15835908E+00 0.51237395E+03</pdfrwt>
<pdfrwt beam="2">  1       -2 0.84581435E-02 0.51237395E+03</pdfrwt>
<totfact> 0.21833659E+03</totfact>
</mgrwt>
</event>
<event>
 4    1  0.5812319E-005  0.1075363E+04  0.7818608E-02  0.9229543E-01
         -2   -1    0    0    0  501 -0.00000000000E+00  0.00000000000E+00  0.43316720090E+03  0.43316720091E+03  0.25500000000E-02 0. -1.
          2   -1    0    0  501    0  0.00000000000E+00 -0.00000000000E+00 -0.66741263170E+03  0.66741263171E+03  0.25500000000E-02 0.  1.
    5000001    1    1    2    0    0  0.44891055267E+03 -0.17993046842E+03  0.21484300894E+02  0.52078904842E+03  0.19200000000E+03 0.  0.
   -5000001    1    1    2    0    0 -0.44891055267E+03  0.17993046842E+03 -0.25572973170E+03  0.57979078420E+03  0.19200000000E+03 0.  0.
<mgrwt>
<rscale>  0 0.10753628E+04</rscale>
<asrwt>0</asrwt>
<pdfrwt beam="1">  1        2 0.95344662E-01 0.10753628E+04</pdfrwt>
<pdfrwt beam="2">  1       -2 0.61881028E-01 0.10753628E+04</pdfrwt>
<totfact> 0.11518602E+02</totfact>
</mgrwt>
</event>
<event>
 4    1  0.5812319E-005  0.5043361E+03  0.7818608E-02  0.1012653E+00
         -2   -1    0    0    0  501 -0.00000000000E+00  0.00000000000E+00  0.19521473912E+02  0.19521474078E+02  0.25500000000E-02 0. -1.
          2   -1    0    0  501    0  0.00000000000E+00 -0.00000000000E+00 -0.32573737349E+04  0.32573737349E+04  0.25500000000E-02 0.  1.
    5000001    1    1    2    0    0  0.94447058409E+02  0.12997896797E+03 -0.14229274884E+04  0.14447842110E+04  0.19200000000E+03 0.  0.
   -5000001    1    1    2    0    0 -0.94447058409E+02 -0.12997896797E+03 -0.18149247726E+04  0.18321109980E+04  0.19200000000E+03 0.  0.
<mgrwt>
<rscale>  0 0.50433614E+03</rscale>
<asrwt>0</asrwt>
<pdfrwt beam="1">  1        2 0.46533876E+00 0.50433614E+03</pdfrwt>
<pdfrwt beam="2">  1       -2 0.27887841E-02 0.50433614E+03</pdfrwt>
<totfact> 0.92000325E+02</totfact>
</mgrwt>
</event>
<event>
 4    1  0.5812319E-005  0.7863318E+03  0.7818608E-02  0.9580015E-01
         -2   -1    0    0    0  501 -0.00000000000E+00  0.00000000000E+00  0.70898476806E+02  0.70898476852E+02  0.25500000000E-02 0. -1.
          2   -1    0    0  501    0  0.00000000000E+00 -0.00000000000E+00 -0.21802926872E+04  0.21802926872E+04  0.25500000000E-02 0.  1.
    5000001    1    1    2    0    0  0.22256745752E+03  0.13905046527E+03 -0.42197545152E+03  0.53272749763E+03  0.19200000000E+03 0.  0.
   -5000001    1    1    2    0    0 -0.22256745752E+03 -0.13905046527E+03 -0.16874187589E+04  0.17184636665E+04  0.19200000000E+03 0.  0.
<mgrwt>
<rscale>  0 0.78633181E+03</rscale>
<asrwt>0</asrwt>
<pdfrwt beam="1">  1        2 0.31147034E+00 0.78633181E+03</pdfrwt>
<pdfrwt beam="2">  1       -2 0.10128355E-01 0.78633181E+03</pdfrwt>
<totfact> 0.44467775E+02</totfact>
</mgrwt>
</event>
<event>
 4    1  0.5812319E-005  0.6088883E+03  0.7818608E-02  0.9887135E-01
         -2   -1    0    0    0  501 -0.00000000000E+00  0.00000000000E+00  0.59231379510E+03  0.59231379511E+03  0.25500000000E-02 0. -1.
          2   -1    0    0  501    0  0.00000000000E+00 -0.00000000000E+00 -0.15648166895E+03  0.15648166897E+03  0.25500000000E-02 0.  1.
    5000001    1    1    2    0    0  0.22691415949E+03  0.55584537503E+02  0.26126583243E+03  0.39962921787E+03  0.19200000000E+03 0.  0.
   -5000001    1    1    2    0    0 -0.22691415949E+03 -0.55584537503E+02  0.17456629372E+03  0.34916624621E+03  0.19200000000E+03 0.  0.
<mgrwt>
<rscale>  0 0.60888834E+03</rscale>
<asrwt>0</asrwt>
<pdfrwt beam="1">  1        2 0.22354524E-01 0.60888834E+03</pdfrwt>
<pdfrwt beam="2">  1       -2 0.84616257E-01 0.60888834E+03</pdfrwt>
<totfact> 0.30687036E+02</totfact>
</mgrwt>
</event>
<event>
 4    1  0.5812319E-005  0.8175003E+03  0.7818608E-02  0.9535026E-01
          2   -1    0    0  501    0  0.00000000000E+00  0.00000000000E+00  0.48146945847E+03  0.48146945848E+03  0.25500000000E-02 0.  1.
         -2   -1    0    0    0  501 -0.00000000000E+00 -0.00000000000E+00 -0.34701407243E+03  0.34701407244E+03  0.25500000000E-02 0. -1.
    5000001    1    1    2    0    0  0.23708348927E+03 -0.25692874131E+03 -0.23369774749E+02  0.39953861561E+03  0.19200000000E+03 0.  0.
   -5000001    1    1    2    0    0 -0.23708348927E+03  0.25692874131E+03  0.15782516079E+03  0.42894491531E+03  0.19200000000E+03 0.  0.
<mgrwt>
<rscale>  0 0.81750028E+03</rscale>
<asrwt>0</asrwt>
<pdfrwt beam="1">  1        2 0.68781350E-01 0.81750028E+03</pdfrwt>
<pdfrwt beam="2">  1       -2 0.49573439E-01 0.81750028E+03</pdfrwt>
<totfact> 0.27155354E+02</totfact>
</mgrwt>
</event>
<event>
 4    1  0.5812319E-005  0.6216391E+03  0.7818608E-02  0.9861502E-01
         -2   -1    0    0    0  501 -0.00000000000E+00  0.00000000000E+00  0.90141619488E+02  0.90141619524E+02  0.25500000000E-02 0. -1.
          2   -1    0    0  501    0  0.00000000000E+00 -0.00000000000E+00 -0.10717445255E+04  0.10717445255E+04  0.25500000000E-02 0.  1.
    5000001    1    1    2    0    0  0.22382410406E+03 -0.19783675638E+02 -0.31098029958E+03  0.42902374073E+03  0.19200000000E+03 0.  0.
   -5000001    1    1    2    0    0 -0.22382410406E+03  0.19783675638E+02 -0.67062260642E+03  0.73286240429E+03  0.19200000000E+03 0.  0.
<mgrwt>
<rscale>  0 0.62163908E+03</rscale>
<asrwt>0</asrwt>
<pdfrwt beam="1">  1        2 0.15310635E+00 0.62163908E+03</pdfrwt>
<pdfrwt beam="2">  1       -2 0.12877375E-01 0.62163908E+03</pdfrwt>
<totfact> 0.11563111E+03</totfact>
</mgrwt>
</event>
<event>
 4    1  0.5812319E-005  0.4871190E+03  0.7818608E-02  0.1017197E+00
          2   -1    0    0  501    0  0.00000000000E+00  0.00000000000E+00  0.10291721445E+04  0.10291721445E+04  0.25500000000E-02 0.  1.
         -2   -1    0    0    0  501 -0.00000000000E+00 -0.00000000000E+00 -0.57639757277E+02  0.57639757334E+02  0.25500000000E-02 0. -1.
    5000001    1    1    2    0    0 -0.19175248400E+02  0.98066049623E+02  0.23659509230E+03  0.32066474383E+03  0.19200000000E+03 0.  0.
   -5000001    1    1    2    0    0  0.19175248400E+02 -0.98066049623E+02  0.73493729492E+03  0.76614715799E+03  0.19200000000E+03 0.  0.
<mgrwt>
<rscale>  0 0.48711901E+03</rscale>
<asrwt>0</asrwt>
<pdfrwt beam="1">  1        2 0.14702458E+00 0.48711901E+03</pdfrwt>
<pdfrwt beam="2">  1       -2 0.82342517E-02 0.48711901E+03</pdfrwt>
<totfact> 0.25362623E+03</totfact>
</mgrwt>
</event>
<event>
 4    1  0.5812319E-005  0.5202053E+03  0.7818608E-02  0.1008636E+00
         -2   -1    0    0    0  501 -0.00000000000E+00  0.00000000000E+00  0.10176763219E+03  0.10176763223E+03  0.25500000000E-02 0. -1.
          2   -1    0    0  501    0  0.00000000000E+00 -0.00000000000E+00 -0.66478303265E+03  0.66478303266E+03  0.25500000000E-02 0.  1.
    5000001    1    1    2    0    0  0.12005711820E+03  0.11706593034E+03 -0.20534830973E+03  0.32733785602E+03  0.19200000000E+03 0.  0.
   -5000001    1    1    2    0    0 -0.12005711820E+03 -0.11706593034E+03 -0.35766709073E+03  0.43921280886E+03  0.19200000000E+03 0.  0.
<mgrwt>
<rscale>  0 0.52020533E+03</rscale>
<asrwt>0</asrwt>
<pdfrwt beam="1">  1        2 0.94969002E-01 0.52020533E+03</pdfrwt>
<pdfrwt beam="2">  1       -2 0.14538234E-01 0.52020533E+03</pdfrwt>
<totfact> 0.17682472E+03</totfact>
</mgrwt>
</event>
<event>
 4    1  0.5812319E-005  0.6209810E+03  0.7818608E-02  0.9862808E-01
         -2   -1    0    0    0  501 -0.00000000000E+00  0.00000000000E+00  0.22847566565E+03  0.22847566566E+03  0.25500000000E-02 0. -1.
          2   -1    0    0  501    0  0.00000000000E+00 -0.00000000000E+00 -0.42194580254E+03  0.42194580255E+03  0.25500000000E-02 0.  1.
    5000001    1    1    2    0    0 -0.19018194065E+03 -0.12808276759E+03 -0.93156846264E+01  0.29920753313E+03  0.19200000000E+03 0.  0.
   -5000001    1    1    2    0    0  0.19018194065E+03  0.12808276759E+03 -0.18415445227E+03  0.35121393508E+03  0.19200000000E+03 0.  0.
<mgrwt>
<rscale>  0 0.62098099E+03</rscale>
<asrwt>0</asrwt>
<pdfrwt beam="1">  1        2 0.60277971E-01 0.62098099E+03</pdfrwt>
<pdfrwt beam="2">  1       -2 0.32639381E-01 0.62098099E+03</pdfrwt>
<totfact> 0.71581934E+02</totfact>
</mgrwt>
</event>
<event>
 4    1  0.5812319E-005  0.5838483E+03  0.7818608E-02  0.9939494E-01
         -2   -1    0    0    0  501 -0.00000000000E+00  0.00000000000E+00  0.16493006304E+02  0.16493006502E+02  0.25500000000E-02 0.  1.
          2   -1    0    0  501    0  0.00000000000E+00 -0.00000000000E+00 -0.51670211362E+04  0.51670211362E+04  0.25500000000E-02 0. -1.
    5000001    1    1    2    0    0 -0.20628880605E+03  0.56985519745E+02 -0.21266483546E+04  0.21459961895E+04  0.19200000000E+03 0.  0.
   -5000001    1    1    2    0    0  0.20628880605E+03 -0.56985519745E+02 -0.30238797752E+04  0.30375179532E+04  0.19200000000E+03 0.  0.
<mgrwt>
<rscale>  0 0.58384831E+03</rscale>
<asrwt>0</asrwt>
<pdfrwt beam="1">  1        2 0.73814484E+00 0.58384831E+03</pdfrwt>
<pdfrwt beam="2">  1       -2 0.23561471E-02 0.58384831E+03</pdfrwt>
<totfact> 0.46805849E+01</totfact>
</mgrwt>
</event>
<event>
 4    1  0.5812319E-005  0.5913963E+03  0.7818608E-02  0.9923419E-01
         -2   -1    0    0    0  501 -0.00000000000E+00  0.00000000000E+00  0.32503391814E+03  0.32503391815E+03  0.25500000000E-02 0. -1.
          2   -1    0    0  501    0  0.00000000000E+00 -0.00000000000E+00 -0.26901004453E+03  0.26901004454E+03  0.25500000000E-02 0.  1.
    5000001    1    1    2    0    0 -0.75138239872E+02  0.20795288466E+03  0.69222820011E+02  0.30090855112E+03  0.19200000000E+03 0.  0.
   -5000001    1    1    2    0    0  0.75138239872E+02 -0.20795288466E+03 -0.13198946398E+02  0.29313541157E+03  0.19200000000E+03 0.  0.
<mgrwt>
<rscale>  0 0.59139628E+03</rscale>
<asrwt>0</asrwt>
<pdfrwt beam="1">  1        2 0.38430007E-01 0.59139628E+03</pdfrwt>
<pdfrwt beam="2">  1       -2 0.46433417E-01 0.59139628E+03</pdfrwt>
<totfact> 0.59636190E+02</totfact>
</mgrwt>
</event>
<event>
 4    1  0.5812319E-005  0.7870089E+03  0.7818608E-02  0.9579014E-01
         -2   -1    0    0    0  501 -0.00000000000E+00  0.00000000000E+00  0.13313312639E+03  0.13313312642E+03  0.25500000000E-02 0. -1.
          2   -1    0    0  501    0  0.00000000000E+00 -0.00000000000E+00 -0.11630896542E+04  0.11630896542E+04  0.25500000000E-02 0.  1.
    5000001    1    1    2    0    0  0.28110317126E+03 -0.17065597207E+03 -0.35160451458E+03  0.51829739375E+03  0.19200000000E+03 0.  0.
   -5000001    1    1    2    0    0 -0.28110317126E+03  0.17065597207E+03 -0.67835201326E+03  0.77792538690E+03  0.19200000000E+03 0.  0.
<mgrwt>
<rscale>  0 0.78700892E+03</rscale>
<asrwt>0</asrwt>
<pdfrwt beam="1">  1        2 0.16615566E+00 0.78700892E+03</pdfrwt>
<pdfrwt beam="2">  1       -2 0.19019019E-01 0.78700892E+03</pdfrwt>
<totfact> 0.52491042E+02</totfact>
</mgrwt>
</event>
<event>
 4    1  0.5812319E-005  0.6122302E+03  0.7818608E-02  0.9880352E-01
         -2   -1    0    0    0  501 -0.00000000000E+00  0.00000000000E+00  0.40165921282E+02  0.40165921363E+02  0.25500000000E-02 0. -1.
          2   -1    0    0  501    0  0.00000000000E+00 -0.00000000000E+00 -0.23329841562E+04  0.23329841562E+04  0.25500000000E-02 0.  1.
    5000001    1    1    2    0    0 -0.19668655214E+02 -0.23679464149E+03 -0.10704605815E+04  0.11131973836E+04  0.19200000000E+03 0.  0.
   -5000001    1    1    2    0    0  0.19668655214E+02  0.23679464149E+03 -0.12223576534E+04  0.12599526939E+04  0.19200000000E+03 0.  0.
<mgrwt>
<rscale>  0 0.61223021E+03</rscale>
<asrwt>0</asrwt>
<pdfrwt beam="1">  1        2 0.33328337E+00 0.61223021E+03</pdfrwt>
<pdfrwt beam="2">  1       -2 0.57379902E-02 0.61223021E+03</pdfrwt>
<totfact> 0.93178951E+02</totfact>
</mgrwt>
</event>
<event>
 4    1  0.5812319E-005  0.6008278E+03  0.7818608E-02  0.9903690E-01
          2   -1    0    0  501    0  0.00000000000E+00  0.00000000000E+00  0.27410336269E+04  0.27410336269E+04  0.25500000000E-02 0.  1.
         -2   -1    0    0    0  501 -0.00000000000E+00 -0.00000000000E+00 -0.32924992912E+02  0.32924993011E+02  0.25500000000E-02 0. -1.
    5000001    1    1    2    0    0  0.18237345313E+03  0.13827084072E+03  0.12076462593E+04  0.12440467794E+04  0.19200000000E+03 0.  0.
   -5000001    1    1    2    0    0 -0.18237345313E+03 -0.13827084072E+03  0.15004623747E+04  0.15299118405E+04  0.19200000000E+03 0.  0.
<mgrwt>
<rscale>  0 0.60082781E+03</rscale>
<asrwt>0</asrwt>
<pdfrwt beam="1">  1        2 0.39157626E+00 0.60082781E+03</pdfrwt>
<pdfrwt beam="2">  1       -2 0.47035700E-02 0.60082781E+03</pdfrwt>
<totfact> 0.78262710E+02</totfact>
</mgrwt>
</event>
<event>
 4    1  0.5812319E-005  0.8880674E+03  0.7818608E-02  0.9440622E-01
          2   -1    0    0  501    0  0.00000000000E+00  0.00000000000E+00  0.13768785789E+04  0.13768785789E+04  0.25500000000E-02 0.  1.
         -2   -1    0    0    0  501 -0.00000000000E+00 -0.00000000000E+00 -0.14319774738E+03  0.14319774740E+03  0.25500000000E-02 0. -1.
    5000001    1    1    2    0    0  0.30937495357E+03  0.13735005930E+03  0.98284931201E+03  0.10570878255E+04  0.19200000000E+03 0.  0.
   -5000001    1    1    2    0    0 -0.30937495357E+03 -0.13735005930E+03  0.25083151948E+03  0.46298850078E+03  0.19200000000E+03 0.  0.
<mgrwt>
<rscale>  0 0.88806736E+03</rscale>
<asrwt>0</asrwt>
<pdfrwt beam="1">  1        2 0.19669695E+00 0.88806736E+03</pdfrwt>
<pdfrwt beam="2">  1       -2 0.20456820E-01 0.88806736E+03</pdfrwt>
<totfact> 0.34988684E+02</totfact>
</mgrwt>
</event>
<event>
 4    1  0.5812319E-005  0.9656547E+03  0.7818608E-02  0.9347037E-01
          2   -1    0    0  501    0  0.00000000000E+00  0.00000000000E+00  0.23834333026E+03  0.23834333027E+03  0.25500000000E-02 0.  1.
         -2   -1    0    0    0  501 -0.00000000000E+00 -0.00000000000E+00 -0.97809434404E+03  0.97809434405E+03  0.25500000000E-02 0. -1.
    5000001    1    1    2    0    0 -0.27824105151E+03  0.34215419602E+02 -0.80199108037E+03  0.87100084425E+03  0.19200000000E+03 0.  0.
   -5000001    1    1    2    0    0  0.27824105151E+03 -0.34215419602E+02  0.62240066586E+02  0.34543683007E+03  0.19200000000E+03 0.  0.
<mgrwt>
<rscale>  0 0.96565473E+03</rscale>
<asrwt>0</asrwt>
<pdfrwt beam="1">  1        2 0.34049048E-01 0.96565473E+03</pdfrwt>
<pdfrwt beam="2">  1       -2 0.13972776E+00 0.96565473E+03</pdfrwt>
<totfact> 0.55693592E+01</totfact>
</mgrwt>
</event>
<event>
 4    1  0.5812319E-005  0.8116442E+03  0.7818608E-02  0.9543314E-01
          2   -1    0    0  501    0  0.00000000000E+00  0.00000000000E+00  0.91833798134E+03  0.91833798134E+03  0.25500000000E-02 0.  1.
         -2   -1    0    0    0  501 -0.00000000000E+00 -0.00000000000E+00 -0.17933654597E+03  0.17933654599E+03  0.25500000000E-02 0. -1.
    5000001    1    1    2    0    0  0.16286490587E+03  0.16781933766E+03  0.37516904929E+01  0.30259937680E+03  0.19200000000E+03 0.  0.
   -5000001    1    1    2    0    0 -0.16286490587E+03 -0.16781933766E+03  0.73524974488E+03  0.79507515054E+03  0.19200000000E+03 0.  0.
<mgrwt>
<rscale>  0 0.81164416E+03</rscale>
<asrwt>0</asrwt>
<pdfrwt beam="1">  1        2 0.13119114E+00 0.81164416E+03</pdfrwt>
<pdfrwt beam="2">  1       -2 0.25619507E-01 0.81164416E+03</pdfrwt>
<totfact> 0.43467504E+02</totfact>
</mgrwt>
</event>
<event>
 4    1  0.5812319E-005  0.6596834E+03  0.7818608E-02  0.9788777E-01
         -2   -1    0    0    0  501 -0.00000000000E+00  0.00000000000E+00  0.73404675083E+02  0.73404675128E+02  0.25500000000E-02 0. -1.
          2   -1    0    0  501    0  0.00000000000E+00 -0.00000000000E+00 -0.14821335859E+04  0.14821335859E+04  0.25500000000E-02 0.  1.
    5000001    1    1    2    0    0  0.50119196319E+02  0.14441522585E+03 -0.12240033985E+04  0.12483653355E+04  0.19200000000E+03 0.  0.
   -5000001    1    1    2    0    0 -0.50119196319E+02 -0.14441522585E+03 -0.18472551235E+03  0.30717292558E+03  0.19200000000E+03 0.  0.
<mgrwt>
<rscale>  0 0.65968336E+03</rscale>
<asrwt>0</asrwt>
<pdfrwt beam="1">  1        2 0.21173335E+00 0.65968336E+03</pdfrwt>
<pdfrwt beam="2">  1       -2 0.10486383E-01 0.65968336E+03</pdfrwt>
<totfact> 0.96128782E+02</totfact>
</mgrwt>
</event>
<event>
 4    1  0.5812319E-005  0.7199228E+03  0.7818608E-02  0.9683755E-01
          2   -1    0    0  501    0  0.00000000000E+00  0.00000000000E+00  0.39262008901E+03  0.39262008902E+03  0.25500000000E-02 0.  1.
         -2   -1    0    0    0  501 -0.00000000000E+00 -0.00000000000E+00 -0.33001932553E+03  0.33001932554E+03  0.25500000000E-02 0. -1.
    5000001    1    1    2    0    0 -0.28190739735E+03  0.85622134953E+02 -0.45835452993E+02  0.35463758885E+03  0.19200000000E+03 0.  0.
   -5000001    1    1    2    0    0  0.28190739735E+03 -0.85622134953E+02  0.10843621648E+03  0.36800182570E+03  0.19200000000E+03 0.  0.
<mgrwt>
<rscale>  0 0.71992282E+03</rscale>
<asrwt>0</asrwt>
<pdfrwt beam="1">  1        2 0.56088585E-01 0.71992282E+03</pdfrwt>
<pdfrwt beam="2">  1       -2 0.47145618E-01 0.71992282E+03</pdfrwt>
<totfact> 0.37942248E+02</totfact>
</mgrwt>
</event>
<event>
 4    1  0.5812319E-005  0.5309866E+03  0.7818608E-02  0.1005993E+00
          2   -1    0    0  501    0  0.00000000000E+00  0.00000000000E+00  0.72797641135E+03  0.72797641135E+03  0.25500000000E-02 0.  1.
         -2   -1    0    0    0  501 -0.00000000000E+00 -0.00000000000E+00 -0.96825507992E+02  0.96825508026E+02  0.25500000000E-02 0. -1.
    5000001    1    1    2    0    0  0.17701686645E+02 -0.17018408490E+03  0.41798645573E+03  0.49076740890E+03  0.19200000000E+03 0.  0.
   -5000001    1    1    2    0    0 -0.17701686645E+02  0.17018408490E+03  0.21316444763E+03  0.33403451048E+03  0.19200000000E+03 0.  0.
<mgrwt>
<rscale>  0 0.53098658E+03</rscale>
<asrwt>0</asrwt>
<pdfrwt beam="1">  1        2 0.10399663E+00 0.53098658E+03</pdfrwt>
<pdfrwt beam="2">  1       -2 0.13832215E-01 0.53098658E+03</pdfrwt>
<totfact> 0.17205048E+03</totfact>
</mgrwt>
</event>
<event>
 4    1  0.5812319E-005  0.4723494E+03  0.7818608E-02  0.1021259E+00
         -2   -1    0    0    0  501 -0.00000000000E+00  0.00000000000E+00  0.55097431375E+03  0.55097431376E+03  0.25500000000E-02 0. -1.
          2   -1    0    0  501    0  0.00000000000E+00 -0.00000000000E+00 -0.10123607960E+03  0.10123607963E+03  0.25500000000E-02 0.  1.
    5000001    1    1    2    0    0 -0.12992725167E+03 -0.44481693756E+02  0.21465062997E+03  0.31905893617E+03  0.19200000000E+03 0.  0.
   -5000001    1    1    2    0    0  0.12992725167E+03  0.44481693756E+02  0.23508760419E+03  0.33315145722E+03  0.19200000000E+03 0.  0.
<mgrwt>
<rscale>  0 0.47234936E+03</rscale>
<asrwt>0</asrwt>
<pdfrwt beam="1">  1        2 0.14462297E-01 0.47234936E+03</pdfrwt>
<pdfrwt beam="2">  1       -2 0.78710616E-01 0.47234936E+03</pdfrwt>
<totfact> 0.60532909E+02</totfact>
</mgrwt>
</event>
<event>
 4    1  0.5812319E-005  0.5493101E+03  0.7818608E-02  0.1001654E+00
         -2   -1    0    0    0  501 -0.00000000000E+00  0.00000000000E+00  0.48929836888E+02  0.48929836954E+02  0.25500000000E-02 0. -1.
          2   -1    0    0  501    0  0.00000000000E+00 -0.00000000000E+00 -0.15417056152E+04  0.15417056152E+04  0.25500000000E-02 0.  1.
    5000001    1    1    2    0    0 -0.14389299630E+03 -0.13357477030E+03 -0.76057109486E+03  0.80862834726E+03  0.19200000000E+03 0.  0.
   -5000001    1    1    2    0    0  0.14389299630E+03  0.13357477030E+03 -0.73220468341E+03  0.78200710486E+03  0.19200000000E+03 0.  0.
<mgrwt>
<rscale>  0 0.54931013E+03</rscale>
<asrwt>0</asrwt>
<pdfrwt beam="1">  1        2 0.22024363E+00 0.54931013E+03</pdfrwt>
<pdfrwt beam="2">  1       -2 0.69899777E-02 0.54931013E+03</pdfrwt>
<totfact> 0.17213655E+03</totfact>
</mgrwt>
</event>
<event>
 4    1  0.5812319E-005  0.5157168E+03  0.7818608E-02  0.1009756E+00
          2   -1    0    0  501    0  0.00000000000E+00  0.00000000000E+00  0.60515665266E+03  0.60515665267E+03  0.25500000000E-02 0.  1.
         -2   -1    0    0    0  501 -0.00000000000E+00 -0.00000000000E+00 -0.10987396939E+03  0.10987396942E+03  0.25500000000E-02 0. -1.
    5000001    1    1    2    0    0 -0.69892806014E+02  0.15600422153E+03  0.21975131987E+03  0.33819663519E+03  0.19200000000E+03 0.  0.
   -5000001    1    1    2    0    0  0.69892806014E+02 -0.15600422153E+03  0.27553136340E+03  0.37683398690E+03  0.19200000000E+03 0.  0.
<mgrwt>
<rscale>  0 0.51571684E+03</rscale>
<asrwt>0</asrwt>
<pdfrwt beam="1">  1        2 0.86450952E-01 0.51571684E+03</pdfrwt>
<pdfrwt beam="2">  1       -2 0.15696281E-01 0.51571684E+03</pdfrwt>
<totfact> 0.17379933E+03</totfact>
</mgrwt>
</event>
<event>
 4    1  0.5812319E-005  0.4739726E+03  0.7818608E-02  0.1020805E+00
          2   -1    0    0  501    0  0.00000000000E+00  0.00000000000E+00  0.22462181935E+04  0.22462181935E+04  0.25500000000E-02 0.  1.
         -2   -1    0    0    0  501 -0.00000000000E+00 -0.00000000000E+00 -0.25003135554E+02  0.25003135684E+02  0.25500000000E-02 0. -1.
    5000001    1    1    2    0    0  0.13305007986E+03  0.19222807318E+02  0.12784369171E+04  0.12997448946E+04  0.19200000000E+03 0.  0.
   -5000001    1    1    2    0    0 -0.13305007986E+03 -0.19222807318E+02  0.94277814085E+03  0.97147643458E+03  0.19200000000E+03 0.  0.
<mgrwt>
<rscale>  0 0.47397257E+03</rscale>
<asrwt>0</asrwt>
<pdfrwt beam="1">  1        2 0.32088830E+00 0.47397257E+03</pdfrwt>
<pdfrwt beam="2">  1       -2 0.35718767E-02 0.47397257E+03</pdfrwt>
<totfact> 0.21571687E+03</totfact>
</mgrwt>
</event>
<event>
 4    1  0.5812319E-005  0.4985114E+03  0.7818608E-02  0.1014168E+00
          2   -1    0    0  501    0  0.00000000000E+00  0.00000000000E+00  0.36103394203E+03  0.36103394204E+03  0.25500000000E-02 0.  1.
         -2   -1    0    0    0  501 -0.00000000000E+00 -0.00000000000E+00 -0.17208469233E+03  0.17208469235E+03  0.25500000000E-02 0. -1.
    5000001    1    1    2    0    0 -0.10454815345E+03  0.11972243502E+03  0.95328157924E+02  0.26686182854E+03  0.19200000000E+03 0.  0.
   -5000001    1    1    2    0    0  0.10454815345E+03 -0.11972243502E+03  0.93621091783E+02  0.26625680585E+03  0.19200000000E+03 0.  0.
<mgrwt>
<rscale>  0 0.49851144E+03</rscale>
<asrwt>0</asrwt>
<pdfrwt beam="1">  1        2 0.51576277E-01 0.49851144E+03</pdfrwt>
<pdfrwt beam="2">  1       -2 0.24583528E-01 0.49851144E+03</pdfrwt>
<totfact> 0.14294511E+03</totfact>
</mgrwt>
</event>
<event>
 4    1  0.5812319E-005  0.5882457E+03  0.7818608E-02  0.9930097E-01
         -2   -1    0    0    0  501 -0.00000000000E+00  0.00000000000E+00  0.38763474783E+03  0.38763474784E+03  0.25500000000E-02 0. -1.
          2   -1    0    0  501    0  0.00000000000E+00 -0.00000000000E+00 -0.22316948355E+03  0.22316948356E+03  0.25500000000E-02 0.  1.
    5000001    1    1    2    0    0 -0.10984439776E+03 -0.11732957283E+03 -0.77997166053E+02  0.26225860956E+03  0.19200000000E+03 0.  0.
   -5000001    1    1    2    0    0  0.10984439776E+03  0.11732957283E+03  0.24246243033E+03  0.34854562183E+03  0.19200000000E+03 0.  0.
<mgrwt>
<rscale>  0 0.58824569E+03</rscale>
<asrwt>0</asrwt>
<pdfrwt beam="1">  1        2 0.31881355E-01 0.58824569E+03</pdfrwt>
<pdfrwt beam="2">  1       -2 0.55376392E-01 0.58824569E+03</pdfrwt>
<totfact> 0.51332146E+02</totfact>
</mgrwt>
</event>
<event>
 4    1  0.5812319E-005  0.8198183E+03  0.7818608E-02  0.9531766E-01
          2   -1    0    0  501    0  0.00000000000E+00  0.00000000000E+00  0.12029783934E+04  0.12029783934E+04  0.25500000000E-02 0.  1.
         -2   -1    0    0    0  501 -0.00000000000E+00 -0.00000000000E+00 -0.13967458501E+03  0.13967458503E+03  0.25500000000E-02 0. -1.
    5000001    1    1    2    0    0 -0.32794326385E+03 -0.96265020276E+02  0.72782451420E+03  0.82668389479E+03  0.19200000000E+03 0.  0.
   -5000001    1    1    2    0    0  0.32794326385E+03  0.96265020276E+02  0.33547929416E+03  0.51596908361E+03  0.19200000000E+03 0.  0.
<mgrwt>
<rscale>  0 0.81981829E+03</rscale>
<asrwt>0</asrwt>
<pdfrwt beam="1">  1        2 0.17185407E+00 0.81981829E+03</pdfrwt>
<pdfrwt beam="2">  1       -2 0.19953511E-01 0.81981829E+03</pdfrwt>
<totfact> 0.45750897E+02</totfact>
</mgrwt>
</event>
<event>
 4    1  0.5812319E-005  0.6919312E+03  0.7818608E-02  0.9731131E-01
         -2   -1    0    0    0  501 -0.00000000000E+00  0.00000000000E+00  0.12913486575E+04  0.12913486575E+04  0.25500000000E-02 0. -1.
          2   -1    0    0  501    0  0.00000000000E+00 -0.00000000000E+00 -0.92687742642E+02  0.92687742677E+02  0.25500000000E-02 0.  1.
    5000001    1    1    2    0    0  0.21393881542E+03 -0.17267556364E+03  0.42911475382E+03  0.54460089879E+03  0.19200000000E+03 0.  0.
   -5000001    1    1    2    0    0 -0.21393881542E+03  0.17267556364E+03  0.76954616103E+03  0.83943550138E+03  0.19200000000E+03 0.  0.
<mgrwt>
<rscale>  0 0.69193119E+03</rscale>
<asrwt>0</asrwt>
<pdfrwt beam="1">  1        2 0.13241106E-01 0.69193119E+03</pdfrwt>
<pdfrwt beam="2">  1       -2 0.18447838E+00 0.69193119E+03</pdfrwt>
<totfact> 0.80376924E+01</totfact>
</mgrwt>
</event>
<event>
 4    1  0.5812319E-005  0.5023124E+03  0.7818608E-02  0.1013177E+00
         -2   -1    0    0    0  501 -0.00000000000E+00  0.00000000000E+00  0.10835733319E+03  0.10835733322E+03  0.25500000000E-02 0. -1.
          2   -1    0    0  501    0  0.00000000000E+00 -0.00000000000E+00 -0.58214268698E+03  0.58214268698E+03  0.25500000000E-02 0.  1.
    5000001    1    1    2    0    0  0.78176387992E+02  0.96105855288E+02 -0.93589582803E+02  0.24692284841E+03  0.19200000000E+03 0.  0.
   -5000001    1    1    2    0    0 -0.78176387992E+02 -0.96105855288E+02 -0.38019577098E+03  0.44357717179E+03  0.19200000000E+03 0.  0.
<mgrwt>
<rscale>  0 0.50231237E+03</rscale>
<asrwt>0</asrwt>
<pdfrwt beam="1">  1        2 0.83163239E-01 0.50231237E+03</pdfrwt>
<pdfrwt beam="2">  1       -2 0.15479619E-01 0.50231237E+03</pdfrwt>
<totfact> 0.18614220E+03</totfact>
</mgrwt>
</event>
<event>
 4    1  0.5812319E-005  0.6551864E+03  0.7818608E-02  0.9797096E-01
          2   -1    0    0  501    0  0.00000000000E+00  0.00000000000E+00  0.21610454452E+04  0.21610454452E+04  0.25500000000E-02 0.  1.
         -2   -1    0    0    0  501 -0.00000000000E+00 -0.00000000000E+00 -0.49659897479E+02  0.49659897545E+02  0.25500000000E-02 0. -1.
    5000001    1    1    2    0    0 -0.91329450843E+02 -0.24914859975E+03  0.10762729486E+04  0.11250082459E+04  0.19200000000E+03 0.  0.
   -5000001    1    1    2    0    0  0.91329450843E+02  0.24914859975E+03  0.10351125991E+04  0.10856970969E+04  0.19200000000E+03 0.  0.
<mgrwt>
<rscale>  0 0.65518637E+03</rscale>
<asrwt>0</asrwt>
<pdfrwt beam="1">  1        2 0.30872070E+00 0.65518637E+03</pdfrwt>
<pdfrwt beam="2">  1       -2 0.70942728E-02 0.65518637E+03</pdfrwt>
<totfact> 0.81294932E+02</totfact>
</mgrwt>
</event>
<event>
 4    1  0.5812319E-005  0.4377186E+03  0.7818608E-02  0.1031449E+00
          2   -1    0    0  501    0  0.00000000000E+00  0.00000000000E+00  0.22039133411E+03  0.22039133413E+03  0.25500000000E-02 0.  1.
         -2   -1    0    0    0  501 -0.00000000000E+00 -0.00000000000E+00 -0.21733792203E+03  0.21733792205E+03  0.25500000000E-02 0. -1.
    5000001    1    1    2    0    0  0.37788582923E+02  0.89767239790E+02  0.40888307200E+02  0.21913919778E+03  0.19200000000E+03 0.  0.
   -5000001    1    1    2    0    0 -0.37788582923E+02 -0.89767239790E+02 -0.37834895120E+02  0.21859005839E+03  0.19200000000E+03 0.  0.
<mgrwt>
<rscale>  0 0.43771861E+03</rscale>
<asrwt>0</asrwt>
<pdfrwt beam="1">  1        2 0.31484477E-01 0.43771861E+03</pdfrwt>
<pdfrwt beam="2">  1       -2 0.31048274E-01 0.43771861E+03</pdfrwt>
<totfact> 0.16093713E+03</totfact>
</mgrwt>
</event>
<event>
 4    1  0.5812319E-005  0.4507176E+03  0.7818608E-02  0.1027508E+00
          2   -1    0    0  501    0  0.00000000000E+00  0.00000000000E+00  0.22499516485E+03  0.22499516486E+03  0.25500000000E-02 0.  1.
         -2   -1    0    0    0  501 -0.00000000000E+00 -0.00000000000E+00 -0.22572305696E+03  0.22572305697E+03  0.25500000000E-02 0. -1.
    5000001    1    1    2    0    0 -0.38498292361E+02 -0.75238104272E+02  0.81975128811E+02  0.22522613657E+03  0.19200000000E+03 0.  0.
   -5000001    1    1    2    0    0  0.38498292361E+02  0.75238104272E+02 -0.82703020924E+02  0.22549208527E+03  0.19200000000E+03 0.  0.
<mgrwt>
<rscale>  0 0.45071763E+03</rscale>
<asrwt>0</asrwt>
<pdfrwt beam="1">  1        2 0.32142166E-01 0.45071763E+03</pdfrwt>
<pdfrwt beam="2">  1       -2 0.32246151E-01 0.45071763E+03</pdfrwt>
<totfact> 0.14667353E+03</totfact>
</mgrwt>
</event>
<event>
 4    1  0.5812319E-005  0.7056083E+03  0.7818608E-02  0.9707689E-01
          2   -1    0    0  501    0  0.00000000000E+00  0.00000000000E+00  0.94476572067E+03  0.94476572067E+03  0.25500000000E-02 0.  1.
         -2   -1    0    0    0  501 -0.00000000000E+00 -0.00000000000E+00 -0.13174776255E+03  0.13174776258E+03  0.25500000000E-02 0. -1.
    5000001    1    1    2    0    0  0.14999323932E+03 -0.97498297055E+02  0.46755971023E+02  0.26655958170E+03  0.19200000000E+03 0.  0.
   -5000001    1    1    2    0    0 -0.14999323932E+03  0.97498297055E+02  0.76626198709E+03  0.80995390155E+03  0.19200000000E+03 0.  0.
<mgrwt>
<rscale>  0 0.70560830E+03</rscale>
<asrwt>0</asrwt>
<pdfrwt beam="1">  1        2 0.13496653E+00 0.70560830E+03</pdfrwt>
<pdfrwt beam="2">  1       -2 0.18821109E-01 0.70560830E+03</pdfrwt>
<totfact> 0.72472285E+02</totfact>
</mgrwt>
</event>
<event>
 4    1  0.5812319E-005  0.9482924E+03  0.7818608E-02  0.9367149E-01
         -2   -1    0    0    0  501 -0.00000000000E+00  0.00000000000E+00  0.70601564167E+02  0.70601564213E+02  0.25500000000E-02 0.  1.
          2   -1    0    0  501    0  0.00000000000E+00 -0.00000000000E+00 -0.31842721986E+04  0.31842721986E+04  0.25500000000E-02 0. -1.
    5000001    1    1    2    0    0 -0.38325216374E+03  0.16644837885E+03 -0.19536146014E+04  0.20070030629E+04  0.19200000000E+03 0.  0.
   -5000001    1    1    2    0    0  0.38325216374E+03 -0.16644837885E+03 -0.11600560330E+04  0.12478706999E+04  0.19200000000E+03 0.  0.
<mgrwt>
<rscale>  0 0.94829236E+03</rscale>
<asrwt>0</asrwt>
<pdfrwt beam="1">  1        2 0.45489594E+00 0.94829236E+03</pdfrwt>
<pdfrwt beam="2">  1       -2 0.10085940E-01 0.94829236E+03</pdfrwt>
<totfact> 0.12934776E+02</totfact>
</mgrwt>
</event>
<event>
 4    1  0.5812319E-005  0.8592346E+03  0.7818608E-02  0.9478026E-01
         -2   -1    0    0    0  501 -0.00000000000E+00  0.00000000000E+00  0.63877115070E+03  0.63877115071E+03  0.25500000000E-02 0. -1.
          2   -1    0    0  501    0  0.00000000000E+00 -0.00000000000E+00 -0.28894705854E+03  0.28894705855E+03  0.25500000000E-02 0.  1.
    5000001    1    1    2    0    0  0.11897041167E+03  0.36245709700E+03  0.12452404130E+03  0.44485878982E+03  0.19200000000E+03 0.  0.
   -5000001    1    1    2    0    0 -0.11897041167E+03 -0.36245709700E+03  0.22530005087E+03  0.48285941944E+03  0.19200000000E+03 0.  0.
<mgrwt>
<rscale>  0 0.85923465E+03</rscale>
<asrwt>0</asrwt>
<pdfrwt beam="1">  1        2 0.41278151E-01 0.85923465E+03</pdfrwt>
<pdfrwt beam="2">  1       -2 0.91253021E-01 0.85923465E+03</pdfrwt>
<totfact> 0.12795873E+02</totfact>
</mgrwt>
</event>
<event>
 4    1  0.5812319E-005  0.5679881E+03  0.7818608E-02  0.9974141E-01
          2   -1    0    0  501    0  0.00000000000E+00  0.00000000000E+00  0.32823510228E+04  0.32823510228E+04  0.25500000000E-02 0.  1.
         -2   -1    0    0    0  501 -0.00000000000E+00 -0.00000000000E+00 -0.24571597942E+02  0.24571598074E+02  0.25500000000E-02 0. -1.
    5000001    1    1    2    0    0 -0.48937974113E+02  0.19953766617E+03  0.18601994711E+04  0.18813336434E+04  0.19200000000E+03 0.  0.
   -5000001    1    1    2    0    0  0.48937974113E+02 -0.19953766617E+03  0.13975799537E+04  0.14255889774E+04  0.19200000000E+03 0.  0.
<mgrwt>
<rscale>  0 0.56798806E+03</rscale>
<asrwt>0</asrwt>
<pdfrwt beam="1">  1        2 0.46890688E+00 0.56798806E+03</pdfrwt>
<pdfrwt beam="2">  1       -2 0.35102313E-02 0.56798806E+03</pdfrwt>
<totfact> 0.62367428E+02</totfact>
</mgrwt>
</event>
<event>
 4    1  0.5812319E-005  0.2273941E+04  0.7818608E-02  0.8488267E-01
          2   -1    0    0  501    0  0.00000000000E+00  0.00000000000E+00  0.17161040834E+04  0.17161040834E+04  0.25500000000E-02 0.  1.
         -2   -1    0    0    0  501 -0.00000000000E+00 -0.00000000000E+00 -0.75327736620E+03  0.75327736621E+03  0.25500000000E-02 0. -1.
    5000001    1    1    2    0    0  0.10703167358E+04 -0.25130706412E+03  0.71710456547E+03  0.13265881475E+04  0.19200000000E+03 0.  0.
   -5000001    1    1    2    0    0 -0.10703167358E+04  0.25130706412E+03  0.24572215169E+03  0.11427933020E+04  0.19200000000E+03 0.  0.
<mgrwt>
<rscale>  0 0.22739414E+04</rscale>
<asrwt>0</asrwt>
<pdfrwt beam="1">  1        2 0.24515773E+00 0.22739414E+04</pdfrwt>
<pdfrwt beam="2">  1       -2 0.10761105E+00 0.22739414E+04</pdfrwt>
<totfact> 0.71197989E+00</totfact>
</mgrwt>
</event>
<event>
 4    1  0.5812319E-005  0.6604782E+03  0.7818608E-02  0.9787314E-01
         -2   -1    0    0    0  501 -0.00000000000E+00  0.00000000000E+00  0.41671018057E+02  0.41671018135E+02  0.25500000000E-02 0. -1.
          2   -1    0    0  501    0  0.00000000000E+00 -0.00000000000E+00 -0.26171150064E+04  0.26171150064E+04  0.25500000000E-02 0.  1.
    5000001    1    1    2    0    0  0.26222022818E+03 -0.64561185291E+00 -0.10518241706E+04  0.11008896179E+04  0.19200000000E+03 0.  0.
   -5000001    1    1    2    0    0 -0.26222022818E+03  0.64561185291E+00 -0.15236198177E+04  0.15578964066E+04  0.19200000000E+03 0.  0.
<mgrwt>
<rscale>  0 0.66047815E+03</rscale>
<asrwt>0</asrwt>
<pdfrwt beam="1">  1        2 0.37387347E+00 0.66047815E+03</pdfrwt>
<pdfrwt beam="2">  1       -2 0.59530042E-02 0.66047815E+03</pdfrwt>
<totfact> 0.62647043E+02</totfact>
</mgrwt>
</event>
<event>
 4    1  0.5812319E-005  0.6192992E+03  0.7818608E-02  0.9866156E-01
          2   -1    0    0  501    0  0.00000000000E+00  0.00000000000E+00  0.38745569027E+03  0.38745569027E+03  0.25500000000E-02 0.  1.
         -2   -1    0    0    0  501 -0.00000000000E+00 -0.00000000000E+00 -0.24746798583E+03  0.24746798584E+03  0.25500000000E-02 0. -1.
    5000001    1    1    2    0    0  0.22755437382E+03  0.72602414266E+02  0.24526631608E+02  0.30743724443E+03  0.19200000000E+03 0.  0.
   -5000001    1    1    2    0    0 -0.22755437382E+03 -0.72602414266E+02  0.11546107283E+03  0.32748643169E+03  0.19200000000E+03 0.  0.
<mgrwt>
<rscale>  0 0.61929921E+03</rscale>
<asrwt>0</asrwt>
<pdfrwt beam="1">  1        2 0.55350813E-01 0.61929921E+03</pdfrwt>
<pdfrwt beam="2">  1       -2 0.35352569E-01 0.61929921E+03</pdfrwt>
<totfact> 0.67706125E+02</totfact>
</mgrwt>
</event>
<event>
 4    1  0.5812319E-005  0.5859446E+03  0.7818608E-02  0.9935003E-01
          2   -1    0    0  501    0  0.00000000000E+00  0.00000000000E+00  0.12586387150E+04  0.12586387150E+04  0.25500000000E-02 0.  1.
         -2   -1    0    0    0  501 -0.00000000000E+00 -0.00000000000E+00 -0.68194916343E+02  0.68194916390E+02  0.25500000000E-02 0. -1.
    5000001    1    1    2    0    0  0.74335659443E+01 -0.21385939314E+03  0.46757392813E+03  0.54889022237E+03  0.19200000000E+03 0.  0.
   -5000001    1    1    2    0    0 -0.74335659443E+01  0.21385939314E+03  0.72286987049E+03  0.77794340900E+03  0.19200000000E+03 0.  0.
<mgrwt>
<rscale>  0 0.58594458E+03</rscale>
<asrwt>0</asrwt>
<pdfrwt beam="1">  1        2 0.17980552E+00 0.58594458E+03</pdfrwt>
<pdfrwt beam="2">  1       -2 0.97421315E-02 0.58594458E+03</pdfrwt>
<totfact> 0.14309551E+03</totfact>
</mgrwt>
</event>
<event>
 4    1  0.5812319E-005  0.5909733E+03  0.7818608E-02  0.9924313E-01
          2   -1    0    0  501    0  0.00000000000E+00  0.00000000000E+00  0.14028468350E+04  0.14028468351E+04  0.25500000000E-02 0.  1.
         -2   -1    0    0    0  501 -0.00000000000E+00 -0.00000000000E+00 -0.62239403099E+02  0.62239403151E+02  0.25500000000E-02 0. -1.
    5000001    1    1    2    0    0  0.11358900735E+03  0.36924002164E+02  0.11418720906E+04  0.11640454097E+04  0.19200000000E+03 0.  0.
   -5000001    1    1    2    0    0 -0.11358900735E+03 -0.36924002164E+02  0.19873534133E+03  0.30104082849E+03  0.19200000000E+03 0.  0.
<mgrwt>
<rscale>  0 0.59097326E+03</rscale>
<asrwt>0</asrwt>
<pdfrwt beam="1">  1        2 0.20040668E+00 0.59097326E+03</pdfrwt>
<pdfrwt beam="2">  1       -2 0.88913438E-02 0.59097326E+03</pdfrwt>
<totfact> 0.13858198E+03</totfact>
</mgrwt>
</event>
<event>
 4    1  0.5812319E-005  0.5360264E+03  0.7818608E-02  0.1004781E+00
         -2   -1    0    0    0  501 -0.00000000000E+00  0.00000000000E+00  0.29935581039E+03  0.29935581040E+03  0.25500000000E-02 0. -1.
          2   -1    0    0  501    0  0.00000000000E+00 -0.00000000000E+00 -0.23995217201E+03  0.23995217202E+03  0.25500000000E-02 0.  1.
    5000001    1    1    2    0    0 -0.17544492211E+03  0.22091706106E+02 -0.31482585319E+02  0.26291465792E+03  0.19200000000E+03 0.  0.
   -5000001    1    1    2    0    0  0.17544492211E+03 -0.22091706106E+02  0.90886223703E+02  0.27639332450E+03  0.19200000000E+03 0.  0.
<mgrwt>
<rscale>  0 0.53602641E+03</rscale>
<asrwt>0</asrwt>
<pdfrwt beam="1">  1        2 0.34278881E-01 0.53602641E+03</pdfrwt>
<pdfrwt beam="2">  1       -2 0.42765116E-01 0.53602641E+03</pdfrwt>
<totfact> 0.79709670E+02</totfact>
</mgrwt>
</event>
<event>
 4    1  0.5812319E-005  0.5059303E+03  0.7818608E-02  0.1012243E+00
         -2   -1    0    0    0  501 -0.00000000000E+00  0.00000000000E+00  0.33508597997E+02  0.33508598094E+02  0.25500000000E-02 0. -1.
          2   -1    0    0  501    0  0.00000000000E+00 -0.00000000000E+00 -0.19096999038E+04  0.19096999038E+04  0.25500000000E-02 0.  1.
    5000001    1    1    2    0    0  0.36930983440E+02  0.13074538819E+03 -0.12957109035E+04  0.13168860996E+04  0.19200000000E+03 0.  0.
   -5000001    1    1    2    0    0 -0.36930983440E+02 -0.13074538819E+03 -0.58048040235E+03  0.62632240227E+03  0.19200000000E+03 0.  0.
<mgrwt>
<rscale>  0 0.50593030E+03</rscale>
<asrwt>0</asrwt>
<pdfrwt beam="1">  1        2 0.27281420E+00 0.50593030E+03</pdfrwt>
<pdfrwt beam="2">  1       -2 0.47869438E-02 0.50593030E+03</pdfrwt>
<totfact> 0.20256274E+03</totfact>
</mgrwt>
</event>
<event>
 4    1  0.5812319E-005  0.4139449E+03  0.7818608E-02  0.1039055E+00
         -2   -1    0    0    0  501 -0.00000000000E+00  0.00000000000E+00  0.47671485906E+02  0.47671485974E+02  0.25500000000E-02 0. -1.
          2   -1    0    0  501    0  0.00000000000E+00 -0.00000000000E+00 -0.89859998197E+03  0.89859998198E+03  0.25500000000E-02 0.  1.
    5000001    1    1    2    0    0  0.53995591040E+02 -0.55218012459E+02 -0.43233881364E+03  0.47931764262E+03  0.19200000000E+03 0.  0.
   -5000001    1    1    2    0    0 -0.53995591040E+02  0.55218012459E+02 -0.41858968243E+03  0.46695382533E+03  0.19200000000E+03 0.  0.
<mgrwt>
<rscale>  0 0.41394491E+03</rscale>
<asrwt>0</asrwt>
<pdfrwt beam="1">  1        2 0.12837142E+00 0.41394491E+03</pdfrwt>
<pdfrwt beam="2">  1       -2 0.68102129E-02 0.41394491E+03</pdfrwt>
<totfact> 0.41119962E+03</totfact>
</mgrwt>
</event>
<event>
 4    1  0.5812319E-005  0.6131975E+03  0.7818608E-02  0.9878398E-01
         -2   -1    0    0    0  501 -0.00000000000E+00  0.00000000000E+00  0.11844008671E+04  0.11844008671E+04  0.25500000000E-02 0. -1.
          2   -1    0    0  501    0  0.00000000000E+00 -0.00000000000E+00 -0.79367370795E+02  0.79367370836E+02  0.25500000000E-02 0.  1.
    5000001    1    1    2    0    0 -0.15347009124E+03 -0.18268832570E+03  0.52260177652E+03  0.60572659680E+03  0.19200000000E+03 0.  0.
   -5000001    1    1    2    0    0  0.15347009124E+03  0.18268832570E+03  0.58243171978E+03  0.65804164113E+03  0.19200000000E+03 0.  0.
<mgrwt>
<rscale>  0 0.61319747E+03</rscale>
<asrwt>0</asrwt>
<pdfrwt beam="1">  1        2 0.11338196E-01 0.61319747E+03</pdfrwt>
<pdfrwt beam="2">  1       -2 0.16920012E+00 0.61319747E+03</pdfrwt>
<totfact> 0.12474836E+02</totfact>
</mgrwt>
</event>
<event>
 4    1  0.5812319E-005  0.4481007E+03  0.7818608E-02  0.1028290E+00
         -2   -1    0    0    0  501 -0.00000000000E+00  0.00000000000E+00  0.17676226770E+02  0.17676226954E+02  0.25500000000E-02 0. -1.
          2   -1    0    0  501    0  0.00000000000E+00 -0.00000000000E+00 -0.28398908642E+04  0.28398908642E+04  0.25500000000E-02 0.  1.
    5000001    1    1    2    0    0 -0.27409814191E+02 -0.11069998668E+03 -0.12954782397E+04  0.13145849742E+04  0.19200000000E+03 0.  0.
   -5000001    1    1    2    0    0  0.27409814191E+02  0.11069998668E+03 -0.15267363978E+04  0.15429821169E+04  0.19200000000E+03 0.  0.
<mgrwt>
<rscale>  0 0.44810068E+03</rscale>
<asrwt>0</asrwt>
<pdfrwt beam="1">  1        2 0.40569840E+00 0.44810068E+03</pdfrwt>
<pdfrwt beam="2">  1       -2 0.25251771E-02 0.44810068E+03</pdfrwt>
<totfact> 0.18129380E+03</totfact>
</mgrwt>
</event>
<event>
 4    1  0.5812319E-005  0.4753071E+03  0.7818608E-02  0.1020433E+00
         -2   -1    0    0    0  501 -0.00000000000E+00  0.00000000000E+00  0.25556062696E+02  0.25556062824E+02  0.25500000000E-02 0. -1.
          2   -1    0    0  501    0  0.00000000000E+00 -0.00000000000E+00 -0.22100122656E+04  0.22100122656E+04  0.25500000000E-02 0.  1.
    5000001    1    1    2    0    0 -0.10109652641E+03  0.94478515618E+02 -0.99042167320E+03  0.10183053512E+04  0.19200000000E+03 0.  0.
   -5000001    1    1    2    0    0  0.10109652641E+03 -0.94478515618E+02 -0.11940345297E+04  0.12172629772E+04  0.19200000000E+03 0.  0.
<mgrwt>
<rscale>  0 0.47530711E+03</rscale>
<asrwt>0</asrwt>
<pdfrwt beam="1">  1        2 0.31571592E+00 0.47530711E+03</pdfrwt>
<pdfrwt beam="2">  1       -2 0.36508675E-02 0.47530711E+03</pdfrwt>
<totfact> 0.21752761E+03</totfact>
</mgrwt>
</event>
<event>
 4    1  0.5812319E-005  0.5079002E+03  0.7818608E-02  0.1011737E+00
          2   -1    0    0  501    0  0.00000000000E+00  0.00000000000E+00  0.35689327721E+03  0.35689327722E+03  0.25500000000E-02 0.  1.
         -2   -1    0    0    0  501 -0.00000000000E+00 -0.00000000000E+00 -0.18070010895E+03  0.18070010897E+03  0.25500000000E-02 0. -1.
    5000001    1    1    2    0    0 -0.10796733582E+03 -0.27426236954E+02  0.21866776402E+03  0.31159065310E+03  0.19200000000E+03 0.  0.
   -5000001    1    1    2    0    0  0.10796733582E+03  0.27426236954E+02 -0.42474595764E+02  0.22600273309E+03  0.19200000000E+03 0.  0.
<mgrwt>
<rscale>  0 0.50790020E+03</rscale>
<asrwt>0</asrwt>
<pdfrwt beam="1">  1        2 0.50984754E-01 0.50790020E+03</pdfrwt>
<pdfrwt beam="2">  1       -2 0.25814301E-01 0.50790020E+03</pdfrwt>
<totfact> 0.13264886E+03</totfact>
</mgrwt>
</event>
<event>
 4    1  0.5812319E-005  0.4946234E+03  0.7818608E-02  0.1015192E+00
          2   -1    0    0  501    0  0.00000000000E+00  0.00000000000E+00  0.24799304224E+03  0.24799304226E+03  0.25500000000E-02 0.  1.
         -2   -1    0    0    0  501 -0.00000000000E+00 -0.00000000000E+00 -0.24663222194E+03  0.24663222195E+03  0.25500000000E-02 0. -1.
    5000001    1    1    2    0    0  0.84060644816E+02  0.10762820140E+03  0.75840878847E+02  0.24751941469E+03  0.19200000000E+03 0.  0.
   -5000001    1    1    2    0    0 -0.84060644816E+02 -0.10762820140E+03 -0.74480058540E+02  0.24710584952E+03  0.19200000000E+03 0.  0.
<mgrwt>
<rscale>  0 0.49462339E+03</rscale>
<asrwt>0</asrwt>
<pdfrwt beam="1">  1        2 0.35427578E-01 0.49462339E+03</pdfrwt>
<pdfrwt beam="2">  1       -2 0.35233174E-01 0.49462339E+03</pdfrwt>
<totfact> 0.11159666E+03</totfact>
</mgrwt>
</event>
<event>
 4    1  0.5812319E-005  0.8808711E+03  0.7818608E-02  0.9449815E-01
         -2   -1    0    0    0  501 -0.00000000000E+00  0.00000000000E+00  0.75158532750E+02  0.75158532793E+02  0.25500000000E-02 0. -1.
          2   -1    0    0  501    0  0.00000000000E+00 -0.00000000000E+00 -0.25809906939E+04  0.25809906939E+04  0.25500000000E-02 0.  1.
    5000001    1    1    2    0    0 -0.20981562763E+03  0.33391191911E+03 -0.13735196720E+04  0.14418529941E+04  0.19200000000E+03 0.  0.
   -5000001    1    1    2    0    0  0.20981562763E+03 -0.33391191911E+03 -0.11323124892E+04  0.12142962326E+04  0.19200000000E+03 0.  0.
<mgrwt>
<rscale>  0 0.88087110E+03</rscale>
<asrwt>0</asrwt>
<pdfrwt beam="1">  1        2 0.36871290E+00 0.88087110E+03</pdfrwt>
<pdfrwt beam="2">  1       -2 0.10736935E-01 0.88087110E+03</pdfrwt>
<totfact> 0.24966378E+02</totfact>
</mgrwt>
</event>
<event>
 4    1  0.5812319E-005  0.4901450E+03  0.7818608E-02  0.1016384E+00
         -2   -1    0    0    0  501 -0.00000000000E+00  0.00000000000E+00  0.10210406335E+03  0.10210406338E+03  0.25500000000E-02 0. -1.
          2   -1    0    0  501    0  0.00000000000E+00 -0.00000000000E+00 -0.58822860810E+03  0.58822860810E+03  0.25500000000E-02 0.  1.
    5000001    1    1    2    0    0 -0.13733708595E+03  0.57723838038E+02 -0.19845687244E+03  0.31375571210E+03  0.19200000000E+03 0.  0.
   -5000001    1    1    2    0    0  0.13733708595E+03 -0.57723838038E+02 -0.28766767230E+03  0.37657695939E+03  0.19200000000E+03 0.  0.
<mgrwt>
<rscale>  0 0.49014500E+03</rscale>
<asrwt>0</asrwt>
<pdfrwt beam="1">  1        2 0.84032657E-01 0.49014500E+03</pdfrwt>
<pdfrwt beam="2">  1       -2 0.14586295E-01 0.49014500E+03</pdfrwt>
<totfact> 0.20315933E+03</totfact>
</mgrwt>
</event>
<event>
 4    1  0.5812319E-005  0.6296789E+03  0.7818608E-02  0.9845676E-01
         -2   -1    0    0    0  501 -0.00000000000E+00  0.00000000000E+00  0.12737810307E+03  0.12737810310E+03  0.25500000000E-02 0. -1.
          2   -1    0    0  501    0  0.00000000000E+00 -0.00000000000E+00 -0.77818613937E+03  0.77818613938E+03  0.25500000000E-02 0.  1.
    5000001    1    1    2    0    0 -0.24392535825E+03 -0.57875435437E+01 -0.40050171830E+03  0.50675309809E+03  0.19200000000E+03 0.  0.
   -5000001    1    1    2    0    0  0.24392535825E+03  0.57875435437E+01 -0.25030631800E+03  0.39881114439E+03  0.19200000000E+03 0.  0.
<mgrwt>
<rscale>  0 0.62967888E+03</rscale>
<asrwt>0</asrwt>
<pdfrwt beam="1">  1        2 0.11116945E+00 0.62967888E+03</pdfrwt>
<pdfrwt beam="2">  1       -2 0.18196872E-01 0.62967888E+03</pdfrwt>
<totfact> 0.99389152E+02</totfact>
</mgrwt>
</event>
<event>
 4    1  0.5812319E-005  0.4558689E+03  0.7818608E-02  0.1025986E+00
          2   -1    0    0  501    0  0.00000000000E+00  0.00000000000E+00  0.19433158333E+03  0.19433158335E+03  0.25500000000E-02 0.  1.
         -2   -1    0    0    0  501 -0.00000000000E+00 -0.00000000000E+00 -0.26734775994E+03  0.26734775995E+03  0.25500000000E-02 0. -1.
    5000001    1    1    2    0    0 -0.83039401597E+02  0.88215205305E+02 -0.15935412220E+02  0.22758603214E+03  0.19200000000E+03 0.  0.
   -5000001    1    1    2    0    0  0.83039401597E+02 -0.88215205305E+02 -0.57080764392E+02  0.23409331116E+03  0.19200000000E+03 0.  0.
<mgrwt>
<rscale>  0 0.45586890E+03</rscale>
<asrwt>0</asrwt>
<pdfrwt beam="1">  1        2 0.27761655E-01 0.45586890E+03</pdfrwt>
<pdfrwt beam="2">  1       -2 0.38192537E-01 0.45586890E+03</pdfrwt>
<totfact> 0.12553523E+03</totfact>
</mgrwt>
</event>
<event>
 4    1  0.5812319E-005  0.4529294E+03  0.7818608E-02  0.1026852E+00
          2   -1    0    0  501    0  0.00000000000E+00  0.00000000000E+00  0.22745568990E+04  0.22745568990E+04  0.25500000000E-02 0.  1.
         -2   -1    0    0    0  501 -0.00000000000E+00 -0.00000000000E+00 -0.22547802373E+02  0.22547802517E+02  0.25500000000E-02 0. -1.
    5000001    1    1    2    0    0  0.67513878191E+01 -0.11470112337E+03  0.94883501341E+03  0.97486091912E+03  0.19200000000E+03 0.  0.
   -5000001    1    1    2    0    0 -0.67513878191E+01  0.11470112337E+03  0.13031740832E+04  0.13222437824E+04  0.19200000000E+03 0.  0.
<mgrwt>
<rscale>  0 0.45292940E+03</rscale>
<asrwt>0</asrwt>
<pdfrwt beam="1">  1        2 0.32493692E+00 0.45292940E+03</pdfrwt>
<pdfrwt beam="2">  1       -2 0.32211124E-02 0.45292940E+03</pdfrwt>
<totfact> 0.24448429E+03</totfact>
</mgrwt>
</event>
<event>
 4    1  0.5812319E-005  0.7816223E+03  0.7818608E-02  0.9587006E-01
          2   -1    0    0  501    0  0.00000000000E+00  0.00000000000E+00  0.20762256191E+03  0.20762256193E+03  0.25500000000E-02 0.  1.
         -2   -1    0    0    0  501 -0.00000000000E+00 -0.00000000000E+00 -0.73562980043E+03  0.73562980043E+03  0.25500000000E-02 0. -1.
    5000001    1    1    2    0    0 -0.14509659792E+03 -0.28563784612E+03 -0.40279652435E+03  0.54931870703E+03  0.19200000000E+03 0.  0.
   -5000001    1    1    2    0    0  0.14509659792E+03  0.28563784612E+03 -0.12521071417E+03  0.39393365534E+03  0.19200000000E+03 0.  0.
<mgrwt>
<rscale>  0 0.78162227E+03</rscale>
<asrwt>0</asrwt>
<pdfrwt beam="1">  1        2 0.29660366E-01 0.78162227E+03</pdfrwt>
<pdfrwt beam="2">  1       -2 0.10508997E+00 0.78162227E+03</pdfrwt>
<totfact> 0.13329095E+02</totfact>
</mgrwt>
</event>
<event>
 4    1  0.5812319E-005  0.1073239E+04  0.7818608E-02  0.9231675E-01
         -2   -1    0    0    0  501 -0.00000000000E+00  0.00000000000E+00  0.17202817450E+03  0.17202817452E+03  0.25500000000E-02 0. -1.
          2   -1    0    0  501    0  0.00000000000E+00 -0.00000000000E+00 -0.16739146905E+04  0.16739146905E+04  0.25500000000E-02 0.  1.
    5000001    1    1    2    0    0  0.14764049964E+03  0.39773973724E+03 -0.12095731195E+04  0.12961194957E+04  0.19200000000E+03 0.  0.
   -5000001    1    1    2    0    0 -0.14764049964E+03 -0.39773973724E+03 -0.29231339657E+03  0.54982336939E+03  0.19200000000E+03 0.  0.
<mgrwt>
<rscale>  0 0.10732390E+04</rscale>
<asrwt>0</asrwt>
<pdfrwt beam="1">  1        2 0.23913066E+00 0.10732390E+04</pdfrwt>
<pdfrwt beam="2">  1       -2 0.24575454E-01 0.10732390E+04</pdfrwt>
<totfact> 0.17393507E+02</totfact>
</mgrwt>
</event>
<event>
 4    1  0.5812319E-005  0.5053242E+03  0.7818608E-02  0.1012398E+00
         -2   -1    0    0    0  501 -0.00000000000E+00  0.00000000000E+00  0.37896089238E+03  0.37896089239E+03  0.25500000000E-02 0. -1.
          2   -1    0    0  501    0  0.00000000000E+00 -0.00000000000E+00 -0.16845573148E+03  0.16845573150E+03  0.25500000000E-02 0.  1.
    5000001    1    1    2    0    0 -0.10448027383E+03  0.10357461499E+03  0.18434301424E+03  0.30412197453E+03  0.19200000000E+03 0.  0.
   -5000001    1    1    2    0    0  0.10448027383E+03 -0.10357461499E+03  0.26162146660E+02  0.24329464936E+03  0.19200000000E+03 0.  0.
<mgrwt>
<rscale>  0 0.50532419E+03</rscale>
<asrwt>0</asrwt>
<pdfrwt beam="1">  1        2 0.24065105E-01 0.50532419E+03</pdfrwt>
<pdfrwt beam="2">  1       -2 0.54137270E-01 0.50532419E+03</pdfrwt>
<totfact> 0.73954475E+02</totfact>
</mgrwt>
</event>
<event>
 4    1  0.5812319E-005  0.4399283E+03  0.7818608E-02  0.1030769E+00
         -2   -1    0    0    0  501 -0.00000000000E+00  0.00000000000E+00  0.22156604683E+02  0.22156604830E+02  0.25500000000E-02 0. -1.
          2   -1    0    0  501    0  0.00000000000E+00 -0.00000000000E+00 -0.21837385172E+04  0.21837385172E+04  0.25500000000E-02 0.  1.
    5000001    1    1    2    0    0 -0.56258435331E+02 -0.91378464616E+02 -0.10922205942E+04  0.11141475942E+04  0.19200000000E+03 0.  0.
   -5000001    1    1    2    0    0  0.56258435331E+02  0.91378464616E+02 -0.10693613184E+04  0.10917475279E+04  0.19200000000E+03 0.  0.
<mgrwt>
<rscale>  0 0.43992832E+03</rscale>
<asrwt>0</asrwt>
<pdfrwt beam="1">  1        2 0.31196251E+00 0.43992832E+03</pdfrwt>
<pdfrwt beam="2">  1       -2 0.31652306E-02 0.43992832E+03</pdfrwt>
<totfact> 0.27882105E+03</totfact>
</mgrwt>
</event>
<event>
 4    1  0.5812319E-005  0.5456881E+03  0.7818608E-02  0.1002497E+00
          2   -1    0    0  501    0  0.00000000000E+00  0.00000000000E+00  0.13075680720E+04  0.13075680720E+04  0.25500000000E-02 0.  1.
         -2   -1    0    0    0  501 -0.00000000000E+00 -0.00000000000E+00 -0.56933085603E+02  0.56933085660E+02  0.25500000000E-02 0. -1.
    5000001    1    1    2    0    0  0.18415626827E+03 -0.39943987924E-01  0.77672468118E+03  0.82102299791E+03  0.19200000000E+03 0.  0.
   -5000001    1    1    2    0    0 -0.18415626827E+03  0.39943987924E-01  0.47391030521E+03  0.54347815975E+03  0.19200000000E+03 0.  0.
<mgrwt>
<rscale>  0 0.54568813E+03</rscale>
<asrwt>0</asrwt>
<pdfrwt beam="1">  1        2 0.18679542E+00 0.54568813E+03</pdfrwt>
<pdfrwt beam="2">  1       -2 0.81332987E-02 0.54568813E+03</pdfrwt>
<totfact> 0.17993547E+03</totfact>
</mgrwt>
</event>
<event>
 4    1  0.5812319E-005  0.6354366E+03  0.7818608E-02  0.9834497E-01
          2   -1    0    0  501    0  0.00000000000E+00  0.00000000000E+00  0.29155476564E+04  0.29155476564E+04  0.25500000000E-02 0.  1.
         -2   -1    0    0    0  501 -0.00000000000E+00 -0.00000000000E+00 -0.34622973218E+02  0.34622973312E+02  0.25500000000E-02 0. -1.
    5000001    1    1    2    0    0 -0.15557391416E+03 -0.17117637701E+03  0.19179283518E+04  0.19413443171E+04  0.19200000000E+03 0.  0.
   -5000001    1    1    2    0    0  0.15557391416E+03  0.17117637701E+03  0.96299633143E+03  0.10088263127E+04  0.19200000000E+03 0.  0.
<mgrwt>
<rscale>  0 0.63543663E+03</rscale>
<asrwt>0</asrwt>
<pdfrwt beam="1">  1        2 0.41650691E+00 0.63543663E+03</pdfrwt>
<pdfrwt beam="2">  1       -2 0.49461378E-02 0.63543663E+03</pdfrwt>
<totfact> 0.58286312E+02</totfact>
</mgrwt>
</event>
<event>
 4    1  0.5812319E-005  0.5933225E+03  0.7818608E-02  0.9919357E-01
          2   -1    0    0  501    0  0.00000000000E+00  0.00000000000E+00  0.27492802229E+04  0.27492802229E+04  0.25500000000E-02 0.  1.
         -2   -1    0    0    0  501 -0.00000000000E+00 -0.00000000000E+00 -0.32011245418E+02  0.32011245519E+02  0.25500000000E-02 0. -1.
    5000001    1    1    2    0    0 -0.20760885235E+03  0.81294476741E+02  0.11811426940E+04  0.12172396195E+04  0.19200000000E+03 0.  0.
   -5000001    1    1    2    0    0  0.20760885235E+03 -0.81294476741E+02  0.15361262835E+04  0.15640518490E+04  0.19200000000E+03 0.  0.
<mgrwt>
<rscale>  0 0.59332246E+03</rscale>
<asrwt>0</asrwt>
<pdfrwt beam="1">  1        2 0.39275447E+00 0.59332246E+03</pdfrwt>
<pdfrwt beam="2">  1       -2 0.45730333E-02 0.59332246E+03</pdfrwt>
<totfact> 0.80981694E+02</totfact>
</mgrwt>
</event>
<event>
 4    1  0.5812319E-005  0.9762892E+03  0.7818608E-02  0.9334940E-01
         -2   -1    0    0    0  501 -0.00000000000E+00  0.00000000000E+00  0.87884343383E+02  0.87884343420E+02  0.25500000000E-02 0. -1.
          2   -1    0    0  501    0  0.00000000000E+00 -0.00000000000E+00 -0.27113493067E+04  0.27113493067E+04  0.25500000000E-02 0.  1.
    5000001    1    1    2    0    0 -0.21344513413E+03  0.30814811757E+03 -0.60412160188E+03  0.73643804730E+03  0.19200000000E+03 0.  0.
   -5000001    1    1    2    0    0  0.21344513413E+03 -0.30814811757E+03 -0.20193433614E+04  0.20627956028E+04  0.19200000000E+03 0.  0.
<mgrwt>
<rscale>  0 0.97628921E+03</rscale>
<asrwt>0</asrwt>
<pdfrwt beam="1">  1        2 0.38733556E+00 0.97628921E+03</pdfrwt>
<pdfrwt beam="2">  1       -2 0.12554908E-01 0.97628921E+03</pdfrwt>
<totfact> 0.16324146E+02</totfact>
</mgrwt>
</event>
<event>
 4    1  0.5812319E-005  0.7173288E+03  0.7818608E-02  0.9688048E-01
          2   -1    0    0  501    0  0.00000000000E+00  0.00000000000E+00  0.12289459501E+04  0.12289459501E+04  0.25500000000E-02 0.  1.
         -2   -1    0    0    0  501 -0.00000000000E+00 -0.00000000000E+00 -0.10467519926E+03  0.10467519929E+03  0.25500000000E-02 0. -1.
    5000001    1    1    2    0    0  0.50398765271E+02 -0.29806162582E+03  0.59910364906E+03  0.69797560892E+03  0.19200000000E+03 0.  0.
   -5000001    1    1    2    0    0 -0.50398765271E+02  0.29806162582E+03  0.52516710177E+03  0.63564554046E+03  0.19200000000E+03 0.  0.
<mgrwt>
<rscale>  0 0.71732883E+03</rscale>
<asrwt>0</asrwt>
<pdfrwt beam="1">  1        2 0.17556369E+00 0.71732883E+03</pdfrwt>
<pdfrwt beam="2">  1       -2 0.14953601E-01 0.71732883E+03</pdfrwt>
<totfact> 0.72940833E+02</totfact>
</mgrwt>
</event>
<event>
 4    1  0.5812319E-005  0.5923611E+03  0.7818608E-02  0.9921382E-01
         -2   -1    0    0    0  501 -0.00000000000E+00  0.00000000000E+00  0.62413132610E+02  0.62413132662E+02  0.25500000000E-02 0. -1.
          2   -1    0    0  501    0  0.00000000000E+00 -0.00000000000E+00 -0.14055202404E+04  0.14055202404E+04  0.25500000000E-02 0.  1.
    5000001    1    1    2    0    0 -0.18475090043E+03  0.80446772215E+02 -0.92249576603E+03  0.96356993349E+03  0.19200000000E+03 0.  0.
   -5000001    1    1    2    0    0  0.18475090043E+03 -0.80446772215E+02 -0.42061134177E+03  0.50436343959E+03  0.19200000000E+03 0.  0.
<mgrwt>
<rscale>  0 0.59236111E+03</rscale>
<asrwt>0</asrwt>
<pdfrwt beam="1">  1        2 0.20078859E+00 0.59236111E+03</pdfrwt>
<pdfrwt beam="2">  1       -2 0.89161627E-02 0.59236111E+03</pdfrwt>
<totfact> 0.13750739E+03</totfact>
</mgrwt>
</event>
<event>
 4    1  0.5812319E-005  0.6127655E+03  0.7818608E-02  0.9879270E-01
          2   -1    0    0  501    0  0.00000000000E+00  0.00000000000E+00  0.35268552935E+03  0.35268552936E+03  0.25500000000E-02 0.  1.
         -2   -1    0    0    0  501 -0.00000000000E+00 -0.00000000000E+00 -0.26615887916E+03  0.26615887917E+03  0.25500000000E-02 0. -1.
    5000001    1    1    2    0    0  0.76517837289E+02  0.21810921491E+03  0.10368810959E+03  0.31787078054E+03  0.19200000000E+03 0.  0.
   -5000001    1    1    2    0    0 -0.76517837289E+02 -0.21810921491E+03 -0.17161459398E+02  0.30097362798E+03  0.19200000000E+03 0.  0.
<mgrwt>
<rscale>  0 0.61276549E+03</rscale>
<asrwt>0</asrwt>
<pdfrwt beam="1">  1        2 0.50383647E-01 0.61276549E+03</pdfrwt>
<pdfrwt beam="2">  1       -2 0.38022697E-01 0.61276549E+03</pdfrwt>
<totfact> 0.65387510E+02</totfact>
</mgrwt>
</event>
<event>
 4    1  0.5812319E-005  0.4822521E+03  0.7818608E-02  0.1018518E+00
         -2   -1    0    0    0  501 -0.00000000000E+00  0.00000000000E+00  0.73187016883E+02  0.73187016928E+02  0.25500000000E-02 0. -1.
          2   -1    0    0  501    0  0.00000000000E+00 -0.00000000000E+00 -0.79442727933E+03  0.79442727933E+03  0.25500000000E-02 0.  1.
    5000001    1    1    2    0    0  0.12494442670E+03  0.74523822177E+02 -0.34150800748E+03  0.41791940492E+03  0.19200000000E+03 0.  0.
   -5000001    1    1    2    0    0 -0.12494442670E+03 -0.74523822177E+02 -0.37973225497E+03  0.44969489134E+03  0.19200000000E+03 0.  0.
<mgrwt>
<rscale>  0 0.48225206E+03</rscale>
<asrwt>0</asrwt>
<pdfrwt beam="1">  1        2 0.11348961E+00 0.48225206E+03</pdfrwt>
<pdfrwt beam="2">  1       -2 0.10455289E-01 0.48225206E+03</pdfrwt>
<totfact> 0.24417365E+03</totfact>
</mgrwt>
</event>
<event>
 4    1  0.5812319E-005  0.4833578E+03  0.7818608E-02  0.1018216E+00
          2   -1    0    0  501    0  0.00000000000E+00  0.00000000000E+00  0.22484396139E+03  0.22484396140E+03  0.25500000000E-02 0.  1.
         -2   -1    0    0    0  501 -0.00000000000E+00 -0.00000000000E+00 -0.25977434700E+03  0.25977434701E+03  0.25500000000E-02 0. -1.
    5000001    1    1    2    0    0  0.79804951588E+02 -0.55873321673E+02 -0.12754237367E+03  0.25024331250E+03  0.19200000000E+03 0.  0.
   -5000001    1    1    2    0    0 -0.79804951588E+02  0.55873321673E+02  0.92611988058E+02  0.23437499590E+03  0.19200000000E+03 0.  0.
<mgrwt>
<rscale>  0 0.48335781E+03</rscale>
<asrwt>0</asrwt>
<pdfrwt beam="1">  1        2 0.32120566E-01 0.48335781E+03</pdfrwt>
<pdfrwt beam="2">  1       -2 0.37110621E-01 0.48335781E+03</pdfrwt>
<totfact> 0.11271891E+03</totfact>
</mgrwt>
</event>
<event>
 4    1  0.5812319E-005  0.5306100E+03  0.7818608E-02  0.1006084E+00
          2   -1    0    0  501    0  0.00000000000E+00  0.00000000000E+00  0.30720872097E+04  0.30720872097E+04  0.25500000000E-02 0.  1.
         -2   -1    0    0    0  501 -0.00000000000E+00 -0.00000000000E+00 -0.22911698883E+02  0.22911699025E+02  0.25500000000E-02 0. -1.
    5000001    1    1    2    0    0 -0.83900761566E+02 -0.15390897266E+03  0.18329840960E+04  0.18513297939E+04  0.19200000000E+03 0.  0.
   -5000001    1    1    2    0    0  0.83900761566E+02  0.15390897266E+03  0.12161914148E+04  0.12436691148E+04  0.19200000000E+03 0.  0.
<mgrwt>
<rscale>  0 0.53060998E+03</rscale>
<asrwt>0</asrwt>
<pdfrwt beam="1">  1        2 0.43886943E+00 0.53060998E+03</pdfrwt>
<pdfrwt beam="2">  1       -2 0.32731011E-02 0.53060998E+03</pdfrwt>
<totfact> 0.91253565E+02</totfact>
</mgrwt>
</event>
<event>
 4    1  0.5812319E-005  0.9931586E+03  0.7818608E-02  0.9316080E-01
          2   -1    0    0  501    0  0.00000000000E+00  0.00000000000E+00  0.14350478765E+04  0.14350478765E+04  0.25500000000E-02 0.  1.
         -2   -1    0    0    0  501 -0.00000000000E+00 -0.00000000000E+00 -0.17183469262E+03  0.17183469264E+03  0.25500000000E-02 0. -1.
    5000001    1    1    2    0    0 -0.11757472275E+03  0.37228972420E+03  0.24429873028E+03  0.49896825930E+03  0.19200000000E+03 0.  0.
   -5000001    1    1    2    0    0  0.11757472275E+03 -0.37228972420E+03  0.10189144536E+04  0.11079143098E+04  0.19200000000E+03 0.  0.
<mgrwt>
<rscale>  0 0.99315862E+03</rscale>
<asrwt>0</asrwt>
<pdfrwt beam="1">  1        2 0.20500683E+00 0.99315862E+03</pdfrwt>
<pdfrwt beam="2">  1       -2 0.24547814E-01 0.99315862E+03</pdfrwt>
<totfact> 0.23394107E+02</totfact>
</mgrwt>
</event>
<event>
 4    1  0.5812319E-005  0.6551624E+03  0.7818608E-02  0.9797140E-01
         -2   -1    0    0    0  501 -0.00000000000E+00  0.00000000000E+00  0.63096274058E+02  0.63096274109E+02  0.25500000000E-02 0. -1.
          2   -1    0    0  501    0  0.00000000000E+00 -0.00000000000E+00 -0.17007252931E+04  0.17007252931E+04  0.25500000000E-02 0.  1.
    5000001    1    1    2    0    0 -0.14305995793E+03 -0.59821443618E+02 -0.13987341911E+04  0.14203401332E+04  0.19200000000E+03 0.  0.
   -5000001    1    1    2    0    0  0.14305995793E+03  0.59821443618E+02 -0.23889482794E+03  0.34348143399E+03  0.19200000000E+03 0.  0.
<mgrwt>
<rscale>  0 0.65516236E+03</rscale>
<asrwt>0</asrwt>
<pdfrwt beam="1">  1        2 0.24296073E+00 0.65516236E+03</pdfrwt>
<pdfrwt beam="2">  1       -2 0.90137545E-02 0.65516236E+03</pdfrwt>
<totfact> 0.94738107E+02</totfact>
</mgrwt>
</event>
<event>
 4    1  0.5812319E-005  0.6749381E+03  0.7818608E-02  0.9761078E-01
         -2   -1    0    0    0  501 -0.00000000000E+00  0.00000000000E+00  0.53456453659E+02  0.53456453720E+02  0.25500000000E-02 0. -1.
          2   -1    0    0  501    0  0.00000000000E+00 -0.00000000000E+00 -0.21304321346E+04  0.21304321346E+04  0.25500000000E-02 0.  1.
    5000001    1    1    2    0    0  0.19916901929E+03 -0.68624805902E+02 -0.16230977128E+04  0.16479344184E+04  0.19200000000E+03 0.  0.
   -5000001    1    1    2    0    0 -0.19916901929E+03  0.68624805902E+02 -0.45387796813E+03  0.53595416986E+03  0.19200000000E+03 0.  0.
<mgrwt>
<rscale>  0 0.67493806E+03</rscale>
<asrwt>0</asrwt>
<pdfrwt beam="1">  1        2 0.30434740E+00 0.67493806E+03</pdfrwt>
<pdfrwt beam="2">  1       -2 0.76366376E-02 0.67493806E+03</pdfrwt>
<totfact> 0.74840093E+02</totfact>
</mgrwt>
</event>
<event>
 4    1  0.5812319E-005  0.4430016E+03  0.7818608E-02  0.1029830E+00
          2   -1    0    0  501    0  0.00000000000E+00  0.00000000000E+00  0.20223017977E+04  0.20223017977E+04  0.25500000000E-02 0.  1.
         -2   -1    0    0    0  501 -0.00000000000E+00 -0.00000000000E+00 -0.24260769947E+02  0.24260770081E+02  0.25500000000E-02 0. -1.
    5000001    1    1    2    0    0  0.76114180298E+02  0.80002493997E+02  0.10091748844E+04  0.10331949065E+04  0.19200000000E+03 0.  0.
   -5000001    1    1    2    0    0 -0.76114180298E+02 -0.80002493997E+02  0.98886614329E+03  0.10133676612E+04  0.19200000000E+03 0.  0.
<mgrwt>
<rscale>  0 0.44300157E+03</rscale>
<asrwt>0</asrwt>
<pdfrwt beam="1">  1        2 0.28890031E+00 0.44300157E+03</pdfrwt>
<pdfrwt beam="2">  1       -2 0.34658237E-02 0.44300157E+03</pdfrwt>
<totfact> 0.29233067E+03</totfact>
</mgrwt>
</event>
<event>
 4    1  0.5812319E-005  0.7913532E+03  0.7818608E-02  0.9572618E-01
          2   -1    0    0  501    0  0.00000000000E+00  0.00000000000E+00  0.20842006292E+03  0.20842006294E+03  0.25500000000E-02 0.  1.
         -2   -1    0    0    0  501 -0.00000000000E+00 -0.00000000000E+00 -0.75117517433E+03  0.75117517433E+03  0.25500000000E-02 0. -1.
    5000001    1    1    2    0    0 -0.33078706680E+03  0.15800300759E+02 -0.39279661091E+03  0.54847325423E+03  0.19200000000E+03 0.  0.
   -5000001    1    1    2    0    0  0.33078706680E+03 -0.15800300759E+02 -0.14995850050E+03  0.41112198304E+03  0.19200000000E+03 0.  0.
<mgrwt>
<rscale>  0 0.79135321E+03</rscale>
<asrwt>0</asrwt>
<pdfrwt beam="1">  1        2 0.29774295E-01 0.79135321E+03</pdfrwt>
<pdfrwt beam="2">  1       -2 0.10731074E+00 0.79135321E+03</pdfrwt>
<totfact> 0.12615752E+02</totfact>
</mgrwt>
</event>
<event>
 4    1  0.5812319E-005  0.5182234E+03  0.7818608E-02  0.1009129E+00
         -2   -1    0    0    0  501 -0.00000000000E+00  0.00000000000E+00  0.83788623254E+02  0.83788623293E+02  0.25500000000E-02 0. -1.
          2   -1    0    0  501    0  0.00000000000E+00 -0.00000000000E+00 -0.80128861884E+03  0.80128861884E+03  0.25500000000E-02 0.  1.
    5000001    1    1    2    0    0  0.16319862379E+03  0.52357321385E+02 -0.40998123218E+03  0.48406992331E+03  0.19200000000E+03 0.  0.
   -5000001    1    1    2    0    0 -0.16319862379E+03 -0.52357321385E+02 -0.30751876340E+03  0.40100731882E+03  0.19200000000E+03 0.  0.
<mgrwt>
<rscale>  0 0.51822339E+03</rscale>
<asrwt>0</asrwt>
<pdfrwt beam="1">  1        2 0.11446980E+00 0.51822339E+03</pdfrwt>
<pdfrwt beam="2">  1       -2 0.11969804E-01 0.51822339E+03</pdfrwt>
<totfact> 0.19377214E+03</totfact>
</mgrwt>
</event>
<event>
 4    1  0.5812319E-005  0.6132320E+03  0.7818608E-02  0.9878328E-01
         -2   -1    0    0    0  501 -0.00000000000E+00  0.00000000000E+00  0.85470365375E+02  0.85470365413E+02  0.25500000000E-02 0. -1.
          2   -1    0    0  501    0  0.00000000000E+00 -0.00000000000E+00 -0.10999526980E+04  0.10999526980E+04  0.25500000000E-02 0.  1.
    5000001    1    1    2    0    0 -0.23174996683E+03 -0.57074271278E+02 -0.53345122225E+03  0.61514203733E+03  0.19200000000E+03 0.  0.
   -5000001    1    1    2    0    0  0.23174996683E+03  0.57074271278E+02 -0.48103111038E+03  0.57028102610E+03  0.19200000000E+03 0.  0.
<mgrwt>
<rscale>  0 0.61323196E+03</rscale>
<asrwt>0</asrwt>
<pdfrwt beam="1">  1        2 0.15713609E+00 0.61323196E+03</pdfrwt>
<pdfrwt beam="2">  1       -2 0.12210053E-01 0.61323196E+03</pdfrwt>
<totfact> 0.12157992E+03</totfact>
</mgrwt>
</event>
<event>
 4    1  0.5812319E-005  0.4962892E+03  0.7818608E-02  0.1014752E+00
         -2   -1    0    0    0  501 -0.00000000000E+00  0.00000000000E+00  0.74902569116E+02  0.74902569160E+02  0.25500000000E-02 0. -1.
          2   -1    0    0  501    0  0.00000000000E+00 -0.00000000000E+00 -0.82207777711E+03  0.82207777711E+03  0.25500000000E-02 0.  1.
    5000001    1    1    2    0    0  0.94006293274E+02  0.12409679077E+02 -0.60019915695E+03  0.63725521678E+03  0.19200000000E+03 0.  0.
   -5000001    1    1    2    0    0 -0.94006293274E+02 -0.12409679077E+02 -0.14697605104E+03  0.25972512949E+03  0.19200000000E+03 0.  0.
<mgrwt>
<rscale>  0 0.49628918E+03</rscale>
<asrwt>0</asrwt>
<pdfrwt beam="1">  1        2 0.11743968E+00 0.49628918E+03</pdfrwt>
<pdfrwt beam="2">  1       -2 0.10700368E-01 0.49628918E+03</pdfrwt>
<totfact> 0.22517660E+03</totfact>
</mgrwt>
</event>
<event>
 4    1  0.5812319E-005  0.5153368E+03  0.7818608E-02  0.1009852E+00
         -2   -1    0    0    0  501 -0.00000000000E+00  0.00000000000E+00  0.48417650584E+02  0.48417650652E+02  0.25500000000E-02 0. -1.
          2   -1    0    0  501    0  0.00000000000E+00 -0.00000000000E+00 -0.13712564418E+04  0.13712564418E+04  0.25500000000E-02 0.  1.
    5000001    1    1    2    0    0  0.10328041441E+03 -0.52739401020E+02 -0.31207779734E+03  0.38432387385E+03  0.19200000000E+03 0.  0.
   -5000001    1    1    2    0    0 -0.10328041441E+03  0.52739401020E+02 -0.10107609939E+04  0.10353502186E+04  0.19200000000E+03 0.  0.
<mgrwt>
<rscale>  0 0.51533684E+03</rscale>
<asrwt>0</asrwt>
<pdfrwt beam="1">  1        2 0.19589375E+00 0.51533684E+03</pdfrwt>
<pdfrwt beam="2">  1       -2 0.69168081E-02 0.51533684E+03</pdfrwt>
<totfact> 0.21508602E+03</totfact>
</mgrwt>
</event>
<event>
 4    1  0.5812319E-005  0.5415987E+03  0.7818608E-02  0.1003457E+00
          2   -1    0    0  501    0  0.00000000000E+00  0.00000000000E+00  0.15436169558E+04  0.15436169558E+04  0.25500000000E-02 0.  1.
         -2   -1    0    0    0  501 -0.00000000000E+00 -0.00000000000E+00 -0.47506784428E+02  0.47506784496E+02  0.25500000000E-02 0. -1.
    5000001    1    1    2    0    0  0.11546036665E+03  0.47488508163E+02  0.11725892642E+04  0.11947450929E+04  0.19200000000E+03 0.  0.
   -5000001    1    1    2    0    0 -0.11546036665E+03 -0.47488508163E+02  0.32352090716E+03  0.39637864731E+03  0.19200000000E+03 0.  0.
<mgrwt>
<rscale>  0 0.54159866E+03</rscale>
<asrwt>0</asrwt>
<pdfrwt beam="1">  1        2 0.22051666E+00 0.54159866E+03</pdfrwt>
<pdfrwt beam="2">  1       -2 0.67866850E-02 0.54159866E+03</pdfrwt>
<totfact> 0.17996208E+03</totfact>
</mgrwt>
</event>
<event>
 4    1  0.5812319E-005  0.4975502E+03  0.7818608E-02  0.1014420E+00
          2   -1    0    0  501    0  0.00000000000E+00  0.00000000000E+00  0.12391546756E+04  0.12391546756E+04  0.25500000000E-02 0.  1.
         -2   -1    0    0    0  501 -0.00000000000E+00 -0.00000000000E+00 -0.49944576230E+02  0.49944576296E+02  0.25500000000E-02 0. -1.
    5000001    1    1    2    0    0 -0.12146313943E+03 -0.68223740876E+02  0.78878865189E+03  0.82368641509E+03  0.19200000000E+03 0.  0.
   -5000001    1    1    2    0    0  0.12146313943E+03  0.68223740876E+02  0.40042144747E+03  0.46541283679E+03  0.19200000000E+03 0.  0.
<mgrwt>
<rscale>  0 0.49755022E+03</rscale>
<asrwt>0</asrwt>
<pdfrwt beam="1">  1        2 0.17702207E+00 0.49755022E+03</pdfrwt>
<pdfrwt beam="2">  1       -2 0.71349406E-02 0.49755022E+03</pdfrwt>
<totfact> 0.24144464E+03</totfact>
</mgrwt>
</event>
<event>
 4    1  0.5812319E-005  0.7646198E+03  0.7818608E-02  0.9612689E-01
         -2   -1    0    0    0  501 -0.00000000000E+00  0.00000000000E+00  0.42482742881E+03  0.42482742882E+03  0.25500000000E-02 0. -1.
          2   -1    0    0  501    0  0.00000000000E+00 -0.00000000000E+00 -0.34404760336E+03  0.34404760337E+03  0.25500000000E-02 0.  1.
    5000001    1    1    2    0    0 -0.24514609769E+03 -0.12527596592E+03 -0.14367571251E+03  0.36509914711E+03  0.19200000000E+03 0.  0.
   -5000001    1    1    2    0    0  0.24514609769E+03  0.12527596592E+03  0.22445553797E+03  0.40377588508E+03  0.19200000000E+03 0.  0.
<mgrwt>
<rscale>  0 0.76461980E+03</rscale>
<asrwt>0</asrwt>
<pdfrwt beam="1">  1        2 0.49149658E-01 0.76461980E+03</pdfrwt>
<pdfrwt beam="2">  1       -2 0.60689632E-01 0.76461980E+03</pdfrwt>
<totfact> 0.26082912E+02</totfact>
</mgrwt>
</event>
<event>
 4    1  0.5812319E-005  0.4459926E+03  0.7818608E-02  0.1028924E+00
          2   -1    0    0  501    0  0.00000000000E+00  0.00000000000E+00  0.79210874006E+03  0.79210874007E+03  0.25500000000E-02 0.  1.
         -2   -1    0    0    0  501 -0.00000000000E+00 -0.00000000000E+00 -0.62778450961E+02  0.62778451012E+02  0.25500000000E-02 0. -1.
    5000001    1    1    2    0    0  0.63977987051E+02  0.47767465975E+02  0.21026366273E+03  0.29571899076E+03  0.19200000000E+03 0.  0.
   -5000001    1    1    2    0    0 -0.63977987051E+02 -0.47767465975E+02  0.51906662637E+03  0.55916820032E+03  0.19200000000E+03 0.  0.
<mgrwt>
<rscale>  0 0.44599264E+03</rscale>
<asrwt>0</asrwt>
<pdfrwt beam="1">  1        2 0.11315839E+00 0.44599264E+03</pdfrwt>
<pdfrwt beam="2">  1       -2 0.89683506E-02 0.44599264E+03</pdfrwt>
<totfact> 0.31343375E+03</totfact>
</mgrwt>
</event>
<event>
 4    1  0.5812319E-005  0.8910874E+03  0.7818608E-02  0.9436792E-01
          2   -1    0    0  501    0  0.00000000000E+00  0.00000000000E+00  0.98158862271E+03  0.98158862271E+03  0.25500000000E-02 0.  1.
         -2   -1    0    0    0  501 -0.00000000000E+00 -0.00000000000E+00 -0.20223258926E+03  0.20223258927E+03  0.25500000000E-02 0. -1.
    5000001    1    1    2    0    0 -0.10003343507E+02 -0.19659952151E+03 -0.76048243273E+02  0.28530470386E+03  0.19200000000E+03 0.  0.
   -5000001    1    1    2    0    0  0.10003343507E+02  0.19659952151E+03  0.85540427673E+03  0.89851650813E+03  0.19200000000E+03 0.  0.
<mgrwt>
<rscale>  0 0.89108745E+03</rscale>
<asrwt>0</asrwt>
<pdfrwt beam="1">  1        2 0.14022695E+00 0.89108745E+03</pdfrwt>
<pdfrwt beam="2">  1       -2 0.28890370E-01 0.89108745E+03</pdfrwt>
<totfact> 0.31709289E+02</totfact>
</mgrwt>
</event>
<event>
 4    1  0.5812319E-005  0.5392515E+03  0.7818608E-02  0.1004013E+00
          2   -1    0    0  501    0  0.00000000000E+00  0.00000000000E+00  0.15858231421E+04  0.15858231421E+04  0.25500000000E-02 0.  1.
         -2   -1    0    0    0  501 -0.00000000000E+00 -0.00000000000E+00 -0.45842464055E+02  0.45842464126E+02  0.25500000000E-02 0. -1.
    5000001    1    1    2    0    0 -0.15096300652E+03 -0.63430636477E+01  0.11150370577E+04  0.11414910004E+04  0.19200000000E+03 0.  0.
   -5000001    1    1    2    0    0  0.15096300652E+03  0.63430636477E+01  0.42494362034E+03  0.49017460589E+03  0.19200000000E+03 0.  0.
<mgrwt>
<rscale>  0 0.53925148E+03</rscale>
<asrwt>0</asrwt>
<pdfrwt beam="1">  1        2 0.22654618E+00 0.53925148E+03</pdfrwt>
<pdfrwt beam="2">  1       -2 0.65489231E-02 0.53925148E+03</pdfrwt>
<totfact> 0.18107195E+03</totfact>
</mgrwt>
</event>
<event>
 4    1  0.5812319E-005  0.8132304E+03  0.7818608E-02  0.9541062E-01
          2   -1    0    0  501    0  0.00000000000E+00  0.00000000000E+00  0.71113897442E+02  0.71113897488E+02  0.25500000000E-02 0.  1.
         -2   -1    0    0    0  501 -0.00000000000E+00 -0.00000000000E+00 -0.23249454594E+04  0.23249454594E+04  0.25500000000E-02 0. -1.
    5000001    1    1    2    0    0 -0.17421420376E+03 -0.30833366005E+03 -0.12896784299E+04  0.13511308920E+04  0.19200000000E+03 0.  0.
   -5000001    1    1    2    0    0  0.17421420376E+03  0.30833366005E+03 -0.96415313205E+03  0.10449284649E+04  0.19200000000E+03 0.  0.
<mgrwt>
<rscale>  0 0.81323043E+03</rscale>
<asrwt>0</asrwt>
<pdfrwt beam="1">  1        2 0.10159130E-01 0.81323043E+03</pdfrwt>
<pdfrwt beam="2">  1       -2 0.33213502E+00 0.81323043E+03</pdfrwt>
<totfact> 0.13680424E+01</totfact>
</mgrwt>
</event>
<event>
 4    1  0.5812319E-005  0.5031788E+03  0.7818608E-02  0.1012953E+00
         -2   -1    0    0    0  501 -0.00000000000E+00  0.00000000000E+00  0.36158766120E+03  0.36158766121E+03  0.25500000000E-02 0. -1.
          2   -1    0    0  501    0  0.00000000000E+00 -0.00000000000E+00 -0.17505362533E+03  0.17505362535E+03  0.25500000000E-02 0.  1.
    5000001    1    1    2    0    0  0.13173298186E+03  0.47348093356E+02  0.18145720458E+03  0.29897514537E+03  0.19200000000E+03 0.  0.
   -5000001    1    1    2    0    0 -0.13173298186E+03 -0.47348093356E+02  0.50768312990E+01  0.23766614119E+03  0.19200000000E+03 0.  0.
<mgrwt>
<rscale>  0 0.50317882E+03</rscale>
<asrwt>0</asrwt>
<pdfrwt beam="1">  1        2 0.25007661E-01 0.50317882E+03</pdfrwt>
<pdfrwt beam="2">  1       -2 0.51655380E-01 0.50317882E+03</pdfrwt>
<totfact> 0.77906384E+02</totfact>
</mgrwt>
</event>
<event>
 4    1  0.5812319E-005  0.6028538E+03  0.7818608E-02  0.9899503E-01
          2   -1    0    0  501    0  0.00000000000E+00  0.00000000000E+00  0.14946426236E+04  0.14946426236E+04  0.25500000000E-02 0.  1.
         -2   -1    0    0    0  501 -0.00000000000E+00 -0.00000000000E+00 -0.60789231896E+02  0.60789231949E+02  0.25500000000E-02 0. -1.
    5000001    1    1    2    0    0 -0.11552338437E+03  0.14301660474E+03  0.35027094685E+03  0.43971938526E+03  0.19200000000E+03 0.  0.
   -5000001    1    1    2    0    0  0.11552338437E+03 -0.14301660474E+03  0.10835824449E+04  0.11157124703E+04  0.19200000000E+03 0.  0.
<mgrwt>
<rscale>  0 0.60285380E+03</rscale>
<asrwt>0</asrwt>
<pdfrwt beam="1">  1        2 0.21352038E+00 0.60285380E+03</pdfrwt>
<pdfrwt beam="2">  1       -2 0.86841759E-02 0.60285380E+03</pdfrwt>
<totfact> 0.12872886E+03</totfact>
</mgrwt>
</event>
<event>
 4    1  0.5812319E-005  0.5821287E+03  0.7818608E-02  0.9943193E-01
          2   -1    0    0  501    0  0.00000000000E+00  0.00000000000E+00  0.16082201306E+04  0.16082201306E+04  0.25500000000E-02 0.  1.
         -2   -1    0    0    0  501 -0.00000000000E+00 -0.00000000000E+00 -0.52678397866E+02  0.52678397928E+02  0.25500000000E-02 0. -1.
    5000001    1    1    2    0    0 -0.19881077970E+03 -0.84223460209E+02  0.67749818592E+03  0.73653724231E+03  0.19200000000E+03 0.  0.
   -5000001    1    1    2    0    0  0.19881077970E+03  0.84223460209E+02  0.87804354683E+03  0.92436128624E+03  0.19200000000E+03 0.  0.
<mgrwt>
<rscale>  0 0.58212871E+03</rscale>
<asrwt>0</asrwt>
<pdfrwt beam="1">  1        2 0.22974576E+00 0.58212871E+03</pdfrwt>
<pdfrwt beam="2">  1       -2 0.75254845E-02 0.58212871E+03</pdfrwt>
<totfact> 0.14140192E+03</totfact>
</mgrwt>
</event>
<event>
 4    1  0.5812319E-005  0.6097492E+03  0.7818608E-02  0.9885383E-01
         -2   -1    0    0    0  501 -0.00000000000E+00  0.00000000000E+00  0.22897739347E+03  0.22897739349E+03  0.25500000000E-02 0. -1.
          2   -1    0    0  501    0  0.00000000000E+00 -0.00000000000E+00 -0.40592882979E+03  0.40592882979E+03  0.25500000000E-02 0.  1.
    5000001    1    1    2    0    0 -0.15999363255E+03  0.11589313944E+03  0.47508518371E+02  0.27955364698E+03  0.19200000000E+03 0.  0.
   -5000001    1    1    2    0    0  0.15999363255E+03 -0.11589313944E+03 -0.22445995468E+03  0.35535257630E+03  0.19200000000E+03 0.  0.
<mgrwt>
<rscale>  0 0.60974921E+03</rscale>
<asrwt>0</asrwt>
<pdfrwt beam="1">  1        2 0.57989832E-01 0.60974921E+03</pdfrwt>
<pdfrwt beam="2">  1       -2 0.32711057E-01 0.60974921E+03</pdfrwt>
<totfact> 0.74443959E+02</totfact>
</mgrwt>
</event>
<event>
 4    1  0.5812319E-005  0.9792049E+03  0.7818608E-02  0.9331651E-01
          2   -1    0    0  501    0  0.00000000000E+00  0.00000000000E+00  0.77872922935E+03  0.77872922936E+03  0.25500000000E-02 0.  1.
         -2   -1    0    0    0  501 -0.00000000000E+00 -0.00000000000E+00 -0.30782270990E+03  0.30782270991E+03  0.25500000000E-02 0. -1.
    5000001    1    1    2    0    0 -0.13251247896E+03 -0.37678213779E+03  0.44956869778E+01  0.44318003976E+03  0.19200000000E+03 0.  0.
   -5000001    1    1    2    0    0  0.13251247896E+03  0.37678213779E+03  0.46641083247E+03  0.64337189951E+03  0.19200000000E+03 0.  0.
<mgrwt>
<rscale>  0 0.97920486E+03</rscale>
<asrwt>0</asrwt>
<pdfrwt beam="1">  1        2 0.11124703E+00 0.97920486E+03</pdfrwt>
<pdfrwt beam="2">  1       -2 0.43974673E-01 0.97920486E+03</pdfrwt>
<totfact> 0.19268496E+02</totfact>
</mgrwt>
</event>
<event>
 4    1  0.5812319E-005  0.4671577E+03  0.7818608E-02  0.1022726E+00
         -2   -1    0    0    0  501 -0.00000000000E+00  0.00000000000E+00  0.12495605499E+02  0.12495605759E+02  0.25500000000E-02 0. -1.
          2   -1    0    0  501    0  0.00000000000E+00 -0.00000000000E+00 -0.43662607355E+04  0.43662607355E+04  0.25500000000E-02 0.  1.
    5000001    1    1    2    0    0  0.56355854598E+02  0.11161534529E+03 -0.17513455829E+04  0.17662698884E+04  0.19200000000E+03 0.  0.
   -5000001    1    1    2    0    0 -0.56355854598E+02 -0.11161534529E+03 -0.26024195471E+04  0.26124864529E+04  0.19200000000E+03 0.  0.
<mgrwt>
<rscale>  0 0.46715767E+03</rscale>
<asrwt>0</asrwt>
<pdfrwt beam="1">  1        2 0.62375056E+00 0.46715767E+03</pdfrwt>
<pdfrwt beam="2">  1       -2 0.17850893E-02 0.46715767E+03</pdfrwt>
<totfact> 0.35393692E+02</totfact>
</mgrwt>
</event>
<event>
 4    1  0.5812319E-005  0.6277639E+03  0.7818608E-02  0.9849422E-01
         -2   -1    0    0    0  501 -0.00000000000E+00  0.00000000000E+00  0.38841767478E+02  0.38841767562E+02  0.25500000000E-02 0. -1.
          2   -1    0    0  501    0  0.00000000000E+00 -0.00000000000E+00 -0.25364931824E+04  0.25364931824E+04  0.25500000000E-02 0.  1.
    5000001    1    1    2    0    0  0.19352601105E+03 -0.12470693471E+03 -0.16304529377E+04  0.16577831338E+04  0.19200000000E+03 0.  0.
   -5000001    1    1    2    0    0 -0.19352601105E+03  0.12470693471E+03 -0.86719847716E+03  0.91755181614E+03  0.19200000000E+03 0.  0.
<mgrwt>
<rscale>  0 0.62776390E+03</rscale>
<asrwt>0</asrwt>
<pdfrwt beam="1">  1        2 0.36235607E+00 0.62776390E+03</pdfrwt>
<pdfrwt beam="2">  1       -2 0.55488255E-02 0.62776390E+03</pdfrwt>
<totfact> 0.77187252E+02</totfact>
</mgrwt>
</event>
<event>
 4    1  0.5812319E-005  0.5283442E+03  0.7818608E-02  0.1006634E+00
         -2   -1    0    0    0  501 -0.00000000000E+00  0.00000000000E+00  0.11300006060E+04  0.11300006060E+04  0.25500000000E-02 0. -1.
          2   -1    0    0  501    0  0.00000000000E+00 -0.00000000000E+00 -0.61758278072E+02  0.61758278125E+02  0.25500000000E-02 0.  1.
    5000001    1    1    2    0    0 -0.16730477222E+03 -0.61718830223E+02  0.45853872344E+03  0.52813053472E+03  0.19200000000E+03 0.  0.
   -5000001    1    1    2    0    0  0.16730477222E+03  0.61718830223E+02  0.60970360451E+03  0.66362834943E+03  0.19200000000E+03 0.  0.
<mgrwt>
<rscale>  0 0.52834417E+03</rscale>
<asrwt>0</asrwt>
<pdfrwt beam="1">  1        2 0.88226112E-02 0.52834417E+03</pdfrwt>
<pdfrwt beam="2">  1       -2 0.16142866E+00 0.52834417E+03</pdfrwt>
<totfact> 0.19552977E+02</totfact>
</mgrwt>
</event>
<event>
 4    1  0.5812319E-005  0.5078032E+03  0.7818608E-02  0.1011762E+00
          2   -1    0    0  501    0  0.00000000000E+00  0.00000000000E+00  0.41732261934E+02  0.41732262012E+02  0.25500000000E-02 0.  1.
         -2   -1    0    0    0  501 -0.00000000000E+00 -0.00000000000E+00 -0.15447529455E+04  0.15447529455E+04  0.25500000000E-02 0. -1.
    5000001    1    1    2    0    0 -0.38242317349E+02  0.82076747390E+02 -0.11866960545E+04  0.12055333231E+04  0.19200000000E+03 0.  0.
   -5000001    1    1    2    0    0  0.38242317349E+02 -0.82076747390E+02 -0.31632462907E+03  0.38095188443E+03  0.19200000000E+03 0.  0.
<mgrwt>
<rscale>  0 0.50780325E+03</rscale>
<asrwt>0</asrwt>
<pdfrwt beam="1">  1        2 0.59617527E-02 0.50780325E+03</pdfrwt>
<pdfrwt beam="2">  1       -2 0.22067896E+00 0.50780325E+03</pdfrwt>
<totfact> 0.13220924E+02</totfact>
</mgrwt>
</event>
<event>
 4    1  0.5812319E-005  0.5632874E+03  0.7818608E-02  0.9984644E-01
          2   -1    0    0  501    0  0.00000000000E+00  0.00000000000E+00  0.25489686776E+04  0.25489686776E+04  0.25500000000E-02 0.  1.
         -2   -1    0    0    0  501 -0.00000000000E+00 -0.00000000000E+00 -0.31119715857E+02  0.31119715962E+02  0.25500000000E-02 0. -1.
    5000001    1    1    2    0    0 -0.20407783378E+03  0.20150967208E+02  0.11667048079E+04  0.12000491375E+04  0.19200000000E+03 0.  0.
   -5000001    1    1    2    0    0  0.20407783378E+03 -0.20150967208E+02  0.13511441539E+04  0.13800392561E+04  0.19200000000E+03 0.  0.
<mgrwt>
<rscale>  0 0.56328743E+03</rscale>
<asrwt>0</asrwt>
<pdfrwt beam="1">  1        2 0.36413839E+00 0.56328743E+03</pdfrwt>
<pdfrwt beam="2">  1       -2 0.44456736E-02 0.56328743E+03</pdfrwt>
<totfact> 0.10777497E+03</totfact>
</mgrwt>
</event>
<event>
 4    1  0.5812319E-005  0.5741043E+03  0.7818608E-02  0.9960637E-01
         -2   -1    0    0    0  501 -0.00000000000E+00  0.00000000000E+00  0.25865579908E+03  0.25865579910E+03  0.25500000000E-02 0. -1.
          2   -1    0    0  501    0  0.00000000000E+00 -0.00000000000E+00 -0.31856598197E+03  0.31856598198E+03  0.25500000000E-02 0.  1.
    5000001    1    1    2    0    0 -0.13974809561E+03 -0.67230374921E+02  0.11742013582E+03  0.27331473037E+03  0.19200000000E+03 0.  0.
   -5000001    1    1    2    0    0  0.13974809561E+03  0.67230374921E+02 -0.17733031871E+03  0.30390705071E+03  0.19200000000E+03 0.  0.
<mgrwt>
<rscale>  0 0.57410431E+03</rscale>
<asrwt>0</asrwt>
<pdfrwt beam="1">  1        2 0.45509426E-01 0.57410431E+03</pdfrwt>
<pdfrwt beam="2">  1       -2 0.36950828E-01 0.57410431E+03</pdfrwt>
<totfact> 0.77322671E+02</totfact>
</mgrwt>
</event>
<event>
 4    1  0.5812319E-005  0.5363620E+03  0.7818608E-02  0.1004701E+00
          2   -1    0    0  501    0  0.00000000000E+00  0.00000000000E+00  0.11507559582E+04  0.11507559582E+04  0.25500000000E-02 0.  1.
         -2   -1    0    0    0  501 -0.00000000000E+00 -0.00000000000E+00 -0.62498957665E+02  0.62498957717E+02  0.25500000000E-02 0. -1.
    5000001    1    1    2    0    0 -0.38956728196E+02  0.15915367028E+03  0.74908100078E+03  0.79046433390E+03  0.19200000000E+03 0.  0.
   -5000001    1    1    2    0    0  0.38956728196E+02 -0.15915367028E+03  0.33917599974E+03  0.42279058201E+03  0.19200000000E+03 0.  0.
<mgrwt>
<rscale>  0 0.53636200E+03</rscale>
<asrwt>0</asrwt>
<pdfrwt beam="1">  1        2 0.16439369E+00 0.53636200E+03</pdfrwt>
<pdfrwt beam="2">  1       -2 0.89284233E-02 0.53636200E+03</pdfrwt>
<totfact> 0.18935712E+03</totfact>
</mgrwt>
</event>
<event>
 4    1  0.5812319E-005  0.4182122E+03  0.7818608E-02  0.1037650E+00
         -2   -1    0    0    0  501 -0.00000000000E+00  0.00000000000E+00  0.18307677256E+02  0.18307677433E+02  0.25500000000E-02 0. -1.
          2   -1    0    0  501    0  0.00000000000E+00 -0.00000000000E+00 -0.23883614854E+04  0.23883614854E+04  0.25500000000E-02 0.  1.
    5000001    1    1    2    0    0  0.50219125882E+02 -0.40257145861E+02 -0.14850844997E+04  0.14988270646E+04  0.19200000000E+03 0.  0.
   -5000001    1    1    2    0    0 -0.50219125882E+02  0.40257145861E+02 -0.88496930846E+03  0.90784209823E+03  0.19200000000E+03 0.  0.
<mgrwt>
<rscale>  0 0.41821215E+03</rscale>
<asrwt>0</asrwt>
<pdfrwt beam="1">  1        2 0.34119430E+00 0.41821215E+03</pdfrwt>
<pdfrwt beam="2">  1       -2 0.26153840E-02 0.41821215E+03</pdfrwt>
<totfact> 0.29389768E+03</totfact>
</mgrwt>
</event>
<event>
 4    1  0.5812319E-005  0.4928471E+03  0.7818608E-02  0.1015663E+00
         -2   -1    0    0    0  501 -0.00000000000E+00  0.00000000000E+00  0.81903827179E+02  0.81903827219E+02  0.25500000000E-02 0. -1.
          2   -1    0    0  501    0  0.00000000000E+00 -0.00000000000E+00 -0.74141319504E+03  0.74141319505E+03  0.25500000000E-02 0.  1.
    5000001    1    1    2    0    0  0.14452426586E+03 -0.34406960693E+02 -0.25908750310E+03  0.35505131549E+03  0.19200000000E+03 0.  0.
   -5000001    1    1    2    0    0 -0.14452426586E+03  0.34406960693E+02 -0.40042186476E+03  0.46826570678E+03  0.19200000000E+03 0.  0.
<mgrwt>
<rscale>  0 0.49284715E+03</rscale>
<asrwt>0</asrwt>
<pdfrwt beam="1">  1        2 0.10591617E+00 0.49284715E+03</pdfrwt>
<pdfrwt beam="2">  1       -2 0.11700547E-01 0.49284715E+03</pdfrwt>
<totfact> 0.22168435E+03</totfact>
</mgrwt>
</event>
<event>
 4    1  0.5812319E-005  0.8494329E+03  0.7818608E-02  0.9491098E-01
          2   -1    0    0  501    0  0.00000000000E+00  0.00000000000E+00  0.15597343352E+04  0.15597343352E+04  0.25500000000E-02 0.  1.
         -2   -1    0    0    0  501 -0.00000000000E+00 -0.00000000000E+00 -0.11565049509E+03  0.11565049512E+03  0.25500000000E-02 0. -1.
    5000001    1    1    2    0    0 -0.23966447325E+02 -0.37808102020E+03  0.72079500999E+03  0.83661765154E+03  0.19200000000E+03 0.  0.
   -5000001    1    1    2    0    0  0.23966447325E+02  0.37808102020E+03  0.72328883010E+03  0.83876717877E+03  0.19200000000E+03 0.  0.
<mgrwt>
<rscale>  0 0.84943287E+03</rscale>
<asrwt>0</asrwt>
<pdfrwt beam="1">  1        2 0.22281921E+00 0.84943287E+03</pdfrwt>
<pdfrwt beam="2">  1       -2 0.16521498E-01 0.84943287E+03</pdfrwt>
<totfact> 0.40613652E+02</totfact>
</mgrwt>
</event>
<event>
 4    1  0.5812319E-005  0.7015204E+03  0.7818608E-02  0.9714636E-01
          2   -1    0    0  501    0  0.00000000000E+00  0.00000000000E+00  0.22973986054E+04  0.22973986054E+04  0.25500000000E-02 0.  1.
         -2   -1    0    0    0  501 -0.00000000000E+00 -0.00000000000E+00 -0.53553050995E+02  0.53553051056E+02  0.25500000000E-02 0. -1.
    5000001    1    1    2    0    0  0.24586727322E+03  0.55147697601E+02  0.16265765652E+04  0.16571382884E+04  0.19200000000E+03 0.  0.
   -5000001    1    1    2    0    0 -0.24586727322E+03 -0.55147697601E+02  0.61726898921E+03  0.69381336802E+03  0.19200000000E+03 0.  0.
<mgrwt>
<rscale>  0 0.70152036E+03</rscale>
<asrwt>0</asrwt>
<pdfrwt beam="1">  1        2 0.32819986E+00 0.70152036E+03</pdfrwt>
<pdfrwt beam="2">  1       -2 0.76504346E-02 0.70152036E+03</pdfrwt>
<totfact> 0.61311341E+02</totfact>
</mgrwt>
</event>
<event>
 4    1  0.5812319E-005  0.1303609E+04  0.7818608E-02  0.9026708E-01
          2   -1    0    0  501    0  0.00000000000E+00  0.00000000000E+00  0.77342680388E+03  0.77342680388E+03  0.25500000000E-02 0.  1.
         -2   -1    0    0    0  501 -0.00000000000E+00 -0.00000000000E+00 -0.54930731833E+03  0.54930731833E+03  0.25500000000E-02 0. -1.
    5000001    1    1    2    0    0 -0.39501422945E+03  0.47980814980E+03  0.15429860348E+03  0.66852386728E+03  0.19200000000E+03 0.  0.
   -5000001    1    1    2    0    0  0.39501422945E+03 -0.47980814980E+03  0.69820882072E+02  0.65421025493E+03  0.19200000000E+03 0.  0.
<mgrwt>
<rscale>  0 0.13036088E+04</rscale>
<asrwt>0</asrwt>
<pdfrwt beam="1">  1        2 0.11048954E+00 0.13036088E+04</pdfrwt>
<pdfrwt beam="2">  1       -2 0.78472475E-01 0.13036088E+04</pdfrwt>
<totfact> 0.56243089E+01</totfact>
</mgrwt>
</event>
<event>
 4    1  0.5812319E-005  0.9806816E+03  0.7818608E-02  0.9329990E-01
          2   -1    0    0  501    0  0.00000000000E+00  0.00000000000E+00  0.78406679965E+03  0.78406679966E+03  0.25500000000E-02 0.  1.
         -2   -1    0    0    0  501 -0.00000000000E+00 -0.00000000000E+00 -0.30665002957E+03  0.30665002958E+03  0.25500000000E-02 0. -1.
    5000001    1    1    2    0    0 -0.91117872382E+00  0.43873254369E+03  0.12162014514E+03  0.49410781702E+03  0.19200000000E+03 0.  0.
   -5000001    1    1    2    0    0  0.91117872382E+00 -0.43873254369E+03  0.35579662495E+03  0.59660901222E+03  0.19200000000E+03 0.  0.
<mgrwt>
<rscale>  0 0.98068161E+03</rscale>
<asrwt>0</asrwt>
<pdfrwt beam="1">  1        2 0.11200955E+00 0.98068161E+03</pdfrwt>
<pdfrwt beam="2">  1       -2 0.43807146E-01 0.98068161E+03</pdfrwt>
<totfact> 0.19244345E+02</totfact>
</mgrwt>
</event>
<event>
 4    1  0.5812319E-005  0.7499167E+03  0.7818608E-02  0.9635481E-01
          2   -1    0    0  501    0  0.00000000000E+00  0.00000000000E+00  0.26786939207E+04  0.26786939207E+04  0.25500000000E-02 0.  1.
         -2   -1    0    0    0  501 -0.00000000000E+00 -0.00000000000E+00 -0.52485943633E+02  0.52485943695E+02  0.25500000000E-02 0. -1.
    5000001    1    1    2    0    0  0.23647647154E+03 -0.21824803532E+03  0.13614822422E+04  0.14121087856E+04  0.19200000000E+03 0.  0.
   -5000001    1    1    2    0    0 -0.23647647154E+03  0.21824803532E+03  0.12647257349E+04  0.13190710788E+04  0.19200000000E+03 0.  0.
<mgrwt>
<rscale>  0 0.74991674E+03</rscale>
<asrwt>0</asrwt>
<pdfrwt beam="1">  1        2 0.38267062E+00 0.74991674E+03</pdfrwt>
<pdfrwt beam="2">  1       -2 0.74979908E-02 0.74991674E+03</pdfrwt>
<totfact> 0.40088679E+02</totfact>
</mgrwt>
</event>
<event>
 4    1  0.5812319E-005  0.5597244E+03  0.7818608E-02  0.9992678E-01
          2   -1    0    0  501    0  0.00000000000E+00  0.00000000000E+00  0.35604843448E+04  0.35604843448E+04  0.25500000000E-02 0.  1.
         -2   -1    0    0    0  501 -0.00000000000E+00 -0.00000000000E+00 -0.21997808252E+02  0.21997808400E+02  0.25500000000E-02 0. -1.
    5000001    1    1    2    0    0  0.14472205653E+03 -0.47834064263E+02  0.90515358199E+03  0.93776307154E+03  0.19200000000E+03 0.  0.
   -5000001    1    1    2    0    0 -0.14472205653E+03  0.47834064263E+02  0.26333329546E+04  0.26447190817E+04  0.19200000000E+03 0.  0.
<mgrwt>
<rscale>  0 0.55972440E+03</rscale>
<asrwt>0</asrwt>
<pdfrwt beam="1">  1        2 0.50864041E+00 0.55972440E+03</pdfrwt>
<pdfrwt beam="2">  1       -2 0.31425453E-02 0.55972440E+03</pdfrwt>
<totfact> 0.50839654E+02</totfact>
</mgrwt>
</event>
<event>
 4    1  0.5812319E-005  0.7663394E+03  0.7818608E-02  0.9610060E-01
          2   -1    0    0  501    0  0.00000000000E+00  0.00000000000E+00  0.31293395032E+03  0.31293395033E+03  0.25500000000E-02 0.  1.
         -2   -1    0    0    0  501 -0.00000000000E+00 -0.00000000000E+00 -0.46916929878E+03  0.46916929878E+03  0.25500000000E-02 0. -1.
    5000001    1    1    2    0    0  0.14424376488E+03  0.29846085589E+03 -0.86647581331E+02  0.39275558501E+03  0.19200000000E+03 0.  0.
   -5000001    1    1    2    0    0 -0.14424376488E+03 -0.29846085589E+03 -0.69587767129E+02  0.38934766410E+03  0.19200000000E+03 0.  0.
<mgrwt>
<rscale>  0 0.76633936E+03</rscale>
<asrwt>0</asrwt>
<pdfrwt beam="1">  1        2 0.44704850E-01 0.76633936E+03</pdfrwt>
<pdfrwt beam="2">  1       -2 0.67024185E-01 0.76633936E+03</pdfrwt>
<totfact> 0.23435839E+02</totfact>
</mgrwt>
</event>
<event>
 4    1  0.5812319E-005  0.6869327E+03  0.7818608E-02  0.9739844E-01
         -2   -1    0    0    0  501 -0.00000000000E+00  0.00000000000E+00  0.59079766112E+02  0.59079766167E+02  0.25500000000E-02 0.  1.
          2   -1    0    0  501    0  0.00000000000E+00 -0.00000000000E+00 -0.19967770126E+04  0.19967770126E+04  0.25500000000E-02 0. -1.
    5000001    1    1    2    0    0 -0.12440929984E+03  0.89124874427E+01 -0.20261984910E+03  0.30573830242E+03  0.19200000000E+03 0.  0.
   -5000001    1    1    2    0    0  0.12440929984E+03 -0.89124874427E+01 -0.17350773974E+04  0.17501184764E+04  0.19200000000E+03 0.  0.
<mgrwt>
<rscale>  0 0.68693266E+03</rscale>
<asrwt>0</asrwt>
<pdfrwt beam="1">  1        2 0.28525381E+00 0.68693266E+03</pdfrwt>
<pdfrwt beam="2">  1       -2 0.84399679E-02 0.68693266E+03</pdfrwt>
<totfact> 0.74437998E+02</totfact>
</mgrwt>
</event>
<event>
 4    1  0.5812319E-005  0.5740030E+03  0.7818608E-02  0.9960860E-01
          2   -1    0    0  501    0  0.00000000000E+00  0.00000000000E+00  0.39011565142E+03  0.39011565143E+03  0.25500000000E-02 0.  1.
         -2   -1    0    0    0  501 -0.00000000000E+00 -0.00000000000E+00 -0.21114213196E+03  0.21114213198E+03  0.25500000000E-02 0. -1.
    5000001    1    1    2    0    0  0.12956181880E+03  0.16561824733E+03  0.12711136934E+03  0.31182842871E+03  0.19200000000E+03 0.  0.
   -5000001    1    1    2    0    0 -0.12956181880E+03 -0.16561824733E+03  0.51862150123E+02  0.28942935469E+03  0.19200000000E+03 0.  0.
<mgrwt>
<rscale>  0 0.57400296E+03</rscale>
<asrwt>0</asrwt>
<pdfrwt beam="1">  1        2 0.55730807E-01 0.57400296E+03</pdfrwt>
<pdfrwt beam="2">  1       -2 0.30163162E-01 0.57400296E+03</pdfrwt>
<totfact> 0.90512900E+02</totfact>
</mgrwt>
</event>
<event>
 4    1  0.5812319E-005  0.6065419E+03  0.7818608E-02  0.9891926E-01
          2   -1    0    0  501    0  0.00000000000E+00  0.00000000000E+00  0.21009465900E+04  0.21009465900E+04  0.25500000000E-02 0.  1.
         -2   -1    0    0    0  501 -0.00000000000E+00 -0.00000000000E+00 -0.43777059416E+02  0.43777059491E+02  0.25500000000E-02 0. -1.
    5000001    1    1    2    0    0  0.58397089804E+01  0.19725792346E+03  0.57902097522E+03  0.64115059098E+03  0.19200000000E+03 0.  0.
   -5000001    1    1    2    0    0 -0.58397089804E+01 -0.19725792346E+03  0.14781485554E+04  0.15035730585E+04  0.19200000000E+03 0.  0.
<mgrwt>
<rscale>  0 0.60654188E+03</rscale>
<asrwt>0</asrwt>
<pdfrwt beam="1">  1        2 0.30013530E+00 0.60654188E+03</pdfrwt>
<pdfrwt beam="2">  1       -2 0.62538641E-02 0.60654188E+03</pdfrwt>
<totfact> 0.10665787E+03</totfact>
</mgrwt>
</event>
<event>
 4    1  0.5812319E-005  0.6204796E+03  0.7818608E-02  0.9863805E-01
         -2   -1    0    0    0  501 -0.00000000000E+00  0.00000000000E+00  0.15549126838E+03  0.15549126840E+03  0.25500000000E-02 0. -1.
          2   -1    0    0  501    0  0.00000000000E+00 -0.00000000000E+00 -0.61899758460E+03  0.61899758460E+03  0.25500000000E-02 0.  1.
    5000001    1    1    2    0    0  0.30129328477E+02  0.15634034901E+03 -0.14773760664E+01  0.24943188209E+03  0.19200000000E+03 0.  0.
   -5000001    1    1    2    0    0 -0.30129328477E+02 -0.15634034901E+03 -0.46202894015E+03  0.52505697091E+03  0.19200000000E+03 0.  0.
<mgrwt>
<rscale>  0 0.62047956E+03</rscale>
<asrwt>0</asrwt>
<pdfrwt beam="1">  1        2 0.88428225E-01 0.62047956E+03</pdfrwt>
<pdfrwt beam="2">  1       -2 0.22213039E-01 0.62047956E+03</pdfrwt>
<totfact> 0.92891967E+02</totfact>
</mgrwt>
</event>
<event>
 4    1  0.5812319E-005  0.5715719E+03  0.7818608E-02  0.9966206E-01
          2   -1    0    0  501    0  0.00000000000E+00  0.00000000000E+00  0.46605091624E+03  0.46605091625E+03  0.25500000000E-02 0.  1.
         -2   -1    0    0    0  501 -0.00000000000E+00 -0.00000000000E+00 -0.17524610344E+03  0.17524610346E+03  0.25500000000E-02 0. -1.
    5000001    1    1    2    0    0  0.20648192690E+03 -0.38768374550E+02  0.11632073430E+03  0.30746103205E+03  0.19200000000E+03 0.  0.
   -5000001    1    1    2    0    0 -0.20648192690E+03  0.38768374550E+02  0.17448407850E+03  0.33383598765E+03  0.19200000000E+03 0.  0.
<mgrwt>
<rscale>  0 0.57157189E+03</rscale>
<asrwt>0</asrwt>
<pdfrwt beam="1">  1        2 0.66578703E-01 0.57157189E+03</pdfrwt>
<pdfrwt beam="2">  1       -2 0.25035157E-01 0.57157189E+03</pdfrwt>
<totfact> 0.10419058E+03</totfact>
</mgrwt>
</event>
<event>
 4    1  0.5812319E-005  0.4453912E+03  0.7818608E-02  0.1029105E+00
          2   -1    0    0  501    0  0.00000000000E+00  0.00000000000E+00  0.49662841832E+03  0.49662841833E+03  0.25500000000E-02 0.  1.
         -2   -1    0    0    0  501 -0.00000000000E+00 -0.00000000000E+00 -0.99860041501E+02  0.99860041534E+02  0.25500000000E-02 0. -1.
    5000001    1    1    2    0    0 -0.75069512472E+02 -0.34321153226E+02  0.30139268636E+03  0.36676276345E+03  0.19200000000E+03 0.  0.
   -5000001    1    1    2    0    0  0.75069512472E+02  0.34321153226E+02  0.95375690459E+02  0.22972569641E+03  0.19200000000E+03 0.  0.
<mgrwt>
<rscale>  0 0.44539122E+03</rscale>
<asrwt>0</asrwt>
<pdfrwt beam="1">  1        2 0.70946915E-01 0.44539122E+03</pdfrwt>
<pdfrwt beam="2">  1       -2 0.14265721E-01 0.44539122E+03</pdfrwt>
<totfact> 0.25564259E+03</totfact>
</mgrwt>
</event>
<event>
 4    1  0.5812319E-005  0.5508110E+03  0.7818608E-02  0.1001306E+00
         -2   -1    0    0    0  501 -0.00000000000E+00  0.00000000000E+00  0.35202565520E+03  0.35202565521E+03  0.25500000000E-02 0. -1.
          2   -1    0    0  501    0  0.00000000000E+00 -0.00000000000E+00 -0.21546206814E+03  0.21546206815E+03  0.25500000000E-02 0.  1.
    5000001    1    1    2    0    0  0.99611484622E+02 -0.29269971486E+02 -0.10474642293E+03  0.24210533290E+03  0.19200000000E+03 0.  0.
   -5000001    1    1    2    0    0 -0.99611484622E+02  0.29269971486E+02  0.24131001000E+03  0.32538239047E+03  0.19200000000E+03 0.  0.
<mgrwt>
<rscale>  0 0.55081095E+03</rscale>
<asrwt>0</asrwt>
<pdfrwt beam="1">  1        2 0.30780296E-01 0.55081095E+03</pdfrwt>
<pdfrwt beam="2">  1       -2 0.50289379E-01 0.55081095E+03</pdfrwt>
<totfact> 0.65058876E+02</totfact>
</mgrwt>
</event>
<event>
 4    1  0.5812319E-005  0.8485492E+03  0.7818608E-02  0.9492286E-01
         -2   -1    0    0    0  501 -0.00000000000E+00  0.00000000000E+00  0.29157271539E+03  0.29157271540E+03  0.25500000000E-02 0. -1.
          2   -1    0    0  501    0  0.00000000000E+00 -0.00000000000E+00 -0.61737241246E+03  0.61737241246E+03  0.25500000000E-02 0.  1.
    5000001    1    1    2    0    0 -0.33597260081E+03  0.17055607902E+03 -0.19966452161E+03  0.46765038840E+03  0.19200000000E+03 0.  0.
   -5000001    1    1    2    0    0  0.33597260081E+03 -0.17055607902E+03 -0.12613517546E+03  0.44129473946E+03  0.19200000000E+03 0.  0.
<mgrwt>
<rscale>  0 0.84854923E+03</rscale>
<asrwt>0</asrwt>
<pdfrwt beam="1">  1        2 0.88196058E-01 0.84854923E+03</pdfrwt>
<pdfrwt beam="2">  1       -2 0.41653246E-01 0.84854923E+03</pdfrwt>
<totfact> 0.28743468E+02</totfact>
</mgrwt>
</event>
<event>
 4    1  0.5812319E-005  0.4569808E+03  0.7818608E-02  0.1025661E+00
          2   -1    0    0  501    0  0.00000000000E+00  0.00000000000E+00  0.19969014513E+04  0.19969014513E+04  0.25500000000E-02 0.  1.
         -2   -1    0    0    0  501 -0.00000000000E+00 -0.00000000000E+00 -0.26144436294E+02  0.26144436418E+02  0.25500000000E-02 0. -1.
    5000001    1    1    2    0    0 -0.68698076380E+02 -0.83006222696E+02  0.12559103819E+04  0.12750624872E+04  0.19200000000E+03 0.  0.
   -5000001    1    1    2    0    0  0.68698076380E+02  0.83006222696E+02  0.71484663309E+03  0.74798340058E+03  0.19200000000E+03 0.  0.
<mgrwt>
<rscale>  0 0.45698080E+03</rscale>
<asrwt>0</asrwt>
<pdfrwt beam="1">  1        2 0.28527160E+00 0.45698080E+03</pdfrwt>
<pdfrwt beam="2">  1       -2 0.37349199E-02 0.45698080E+03</pdfrwt>
<totfact> 0.26851172E+03</totfact>
</mgrwt>
</event>
<event>
 4    1  0.5812319E-005  0.8331738E+03  0.7818608E-02  0.9513203E-01
          2   -1    0    0  501    0  0.00000000000E+00  0.00000000000E+00  0.14826477360E+04  0.14826477361E+04  0.25500000000E-02 0.  1.
         -2   -1    0    0    0  501 -0.00000000000E+00 -0.00000000000E+00 -0.11705047829E+03  0.11705047832E+03  0.25500000000E-02 0. -1.
    5000001    1    1    2    0    0  0.32545171857E+03  0.16577101573E+03  0.79278957527E+03  0.89374390148E+03  0.19200000000E+03 0.  0.
   -5000001    1    1    2    0    0 -0.32545171857E+03 -0.16577101573E+03  0.57280768249E+03  0.70595431289E+03  0.19200000000E+03 0.  0.
<mgrwt>
<rscale>  0 0.83317376E+03</rscale>
<asrwt>0</asrwt>
<pdfrwt beam="1">  1        2 0.21180683E+00 0.83317376E+03</pdfrwt>
<pdfrwt beam="2">  1       -2 0.16721496E-01 0.83317376E+03</pdfrwt>
<totfact> 0.43712926E+02</totfact>
</mgrwt>
</event>
<event>
 4    1  0.5812319E-005  0.6932190E+03  0.7818608E-02  0.9728899E-01
         -2   -1    0    0    0  501 -0.00000000000E+00  0.00000000000E+00  0.23507355183E+03  0.23507355185E+03  0.25500000000E-02 0. -1.
          2   -1    0    0  501    0  0.00000000000E+00 -0.00000000000E+00 -0.51106618562E+03  0.51106618562E+03  0.25500000000E-02 0.  1.
    5000001    1    1    2    0    0  0.10679311799E+03  0.26806422099E+03 -0.14155750096E+03  0.37438712946E+03  0.19200000000E+03 0.  0.
   -5000001    1    1    2    0    0 -0.10679311799E+03 -0.26806422099E+03 -0.13443513282E+03  0.37175260801E+03  0.19200000000E+03 0.  0.
<mgrwt>
<rscale>  0 0.69321899E+03</rscale>
<asrwt>0</asrwt>
<pdfrwt beam="1">  1        2 0.73009455E-01 0.69321899E+03</pdfrwt>
<pdfrwt beam="2">  1       -2 0.33581936E-01 0.69321899E+03</pdfrwt>
<totfact> 0.54555338E+02</totfact>
</mgrwt>
</event>
<event>
 4    1  0.5812319E-005  0.1151202E+04  0.7818608E-02  0.9156675E-01
         -2   -1    0    0    0  501 -0.00000000000E+00  0.00000000000E+00  0.19595043792E+03  0.19595043794E+03  0.25500000000E-02 0. -1.
          2   -1    0    0  501    0  0.00000000000E+00 -0.00000000000E+00 -0.16908180575E+04  0.16908180575E+04  0.25500000000E-02 0.  1.
    5000001    1    1    2    0    0 -0.18206495521E+03 -0.46784722642E+03 -0.40985733667E+03  0.67592581812E+03  0.19200000000E+03 0.  0.
   -5000001    1    1    2    0    0  0.18206495521E+03  0.46784722642E+03 -0.10850102829E+04  0.12108426773E+04  0.19200000000E+03 0.  0.
<mgrwt>
<rscale>  0 0.11512020E+04</rscale>
<asrwt>0</asrwt>
<pdfrwt beam="1">  1        2 0.24154543E+00 0.11512020E+04</pdfrwt>
<pdfrwt beam="2">  1       -2 0.27992921E-01 0.11512020E+04</pdfrwt>
<totfact> 0.13374823E+02</totfact>
</mgrwt>
</event>
<event>
 4    1  0.5812319E-005  0.8921722E+03  0.7818608E-02  0.9435420E-01
          2   -1    0    0  501    0  0.00000000000E+00  0.00000000000E+00  0.14786689117E+04  0.14786689117E+04  0.25500000000E-02 0.  1.
         -2   -1    0    0    0  501 -0.00000000000E+00 -0.00000000000E+00 -0.13457563672E+03  0.13457563674E+03  0.25500000000E-02 0. -1.
    5000001    1    1    2    0    0 -0.93216635709E+02 -0.36279722852E+03  0.93913527012E+03  0.10291502445E+04  0.19200000000E+03 0.  0.
   -5000001    1    1    2    0    0  0.93216635709E+02  0.36279722852E+03  0.40495800488E+03  0.58409430395E+03  0.19200000000E+03 0.  0.
<mgrwt>
<rscale>  0 0.89217220E+03</rscale>
<asrwt>0</asrwt>
<pdfrwt beam="1">  1        2 0.21123839E+00 0.89217220E+03</pdfrwt>
<pdfrwt beam="2">  1       -2 0.19225093E-01 0.89217220E+03</pdfrwt>
<totfact> 0.34403467E+02</totfact>
</mgrwt>
</event>
<event>
 4    1  0.5812319E-005  0.6513602E+03  0.7818608E-02  0.9804230E-01
          2   -1    0    0  501    0  0.00000000000E+00  0.00000000000E+00  0.51110964940E+03  0.51110964941E+03  0.25500000000E-02 0.  1.
         -2   -1    0    0    0  501 -0.00000000000E+00 -0.00000000000E+00 -0.20752399224E+03  0.20752399226E+03  0.25500000000E-02 0. -1.
    5000001    1    1    2    0    0 -0.43780361783E+02  0.25667851666E+03  0.19311707681E+03  0.37677418482E+03  0.19200000000E+03 0.  0.
   -5000001    1    1    2    0    0  0.43780361783E+02 -0.25667851666E+03  0.11046858035E+03  0.34185945685E+03  0.19200000000E+03 0.  0.
<mgrwt>
<rscale>  0 0.65136016E+03</rscale>
<asrwt>0</asrwt>
<pdfrwt beam="1">  1        2 0.73015665E-01 0.65136016E+03</pdfrwt>
<pdfrwt beam="2">  1       -2 0.29646284E-01 0.65136016E+03</pdfrwt>
<totfact> 0.68902404E+02</totfact>
</mgrwt>
</event>
<event>
 4    1  0.5812319E-005  0.1924404E+04  0.7818608E-02  0.8642803E-01
          2   -1    0    0  501    0  0.00000000000E+00  0.00000000000E+00  0.21172896858E+04  0.21172896858E+04  0.25500000000E-02 0.  1.
         -2   -1    0    0    0  501 -0.00000000000E+00 -0.00000000000E+00 -0.43727255392E+03  0.43727255392E+03  0.25500000000E-02 0. -1.
    5000001    1    1    2    0    0 -0.31970758374E+03 -0.78228026523E+03  0.28502176733E+03  0.91229203675E+03  0.19200000000E+03 0.  0.
   -5000001    1    1    2    0    0  0.31970758374E+03  0.78228026523E+03  0.13949953646E+04  0.16422702030E+04  0.19200000000E+03 0.  0.
<mgrwt>
<rscale>  0 0.19244040E+04</rscale>
<asrwt>0</asrwt>
<pdfrwt beam="1">  1        2 0.30246996E+00 0.19244040E+04</pdfrwt>
<pdfrwt beam="2">  1       -2 0.62467506E-01 0.19244040E+04</pdfrwt>
<totfact> 0.15560121E+01</totfact>
</mgrwt>
</event>
<event>
 4    1  0.5812319E-005  0.4284842E+03  0.7818608E-02  0.1034340E+00
         -2   -1    0    0    0  501 -0.00000000000E+00  0.00000000000E+00  0.47071413473E+02  0.47071413542E+02  0.25500000000E-02 0. -1.
          2   -1    0    0  501    0  0.00000000000E+00 -0.00000000000E+00 -0.97510747444E+03  0.97510747445E+03  0.25500000000E-02 0.  1.
    5000001    1    1    2    0    0 -0.77464560682E+02 -0.46091076096E+02 -0.53600302334E+03  0.57644460835E+03  0.19200000000E+03 0.  0.
   -5000001    1    1    2    0    0  0.77464560682E+02  0.46091076096E+02 -0.39203303763E+03  0.44573427964E+03  0.19200000000E+03 0.  0.
<mgrwt>
<rscale>  0 0.42848425E+03</rscale>
<asrwt>0</asrwt>
<pdfrwt beam="1">  1        2 0.13930106E+00 0.42848425E+03</pdfrwt>
<pdfrwt beam="2">  1       -2 0.67244882E-02 0.42848425E+03</pdfrwt>
<totfact> 0.37597658E+03</totfact>
</mgrwt>
</event>
<event>
 4    1  0.5812319E-005  0.4452279E+03  0.7818608E-02  0.1029155E+00
         -2   -1    0    0    0  501 -0.00000000000E+00  0.00000000000E+00  0.48504317675E+02  0.48504317742E+02  0.25500000000E-02 0. -1.
          2   -1    0    0  501    0  0.00000000000E+00 -0.00000000000E+00 -0.10217022202E+04  0.10217022202E+04  0.25500000000E-02 0.  1.
    5000001    1    1    2    0    0  0.56521904220E+02 -0.72528142993E+02 -0.33011810065E+03  0.39280659053E+03  0.19200000000E+03 0.  0.
   -5000001    1    1    2    0    0 -0.56521904220E+02  0.72528142993E+02 -0.64307980183E+03  0.67739994737E+03  0.19200000000E+03 0.  0.
<mgrwt>
<rscale>  0 0.44522789E+03</rscale>
<asrwt>0</asrwt>
<pdfrwt beam="1">  1        2 0.14595745E+00 0.44522789E+03</pdfrwt>
<pdfrwt beam="2">  1       -2 0.69291888E-02 0.44522789E+03</pdfrwt>
<totfact> 0.33636635E+03</totfact>
</mgrwt>
</event>
<event>
 4    1  0.5812319E-005  0.8001185E+03  0.7818608E-02  0.9559846E-01
          2   -1    0    0  501    0  0.00000000000E+00  0.00000000000E+00  0.53970396773E+03  0.53970396774E+03  0.25500000000E-02 0.  1.
         -2   -1    0    0    0  501 -0.00000000000E+00 -0.00000000000E+00 -0.29654667374E+03  0.29654667375E+03  0.25500000000E-02 0. -1.
    5000001    1    1    2    0    0  0.15767743632E+03 -0.29301645428E+03  0.23825597181E+03  0.45205168345E+03  0.19200000000E+03 0.  0.
   -5000001    1    1    2    0    0 -0.15767743632E+03  0.29301645428E+03  0.49013221854E+01  0.38419895804E+03  0.19200000000E+03 0.  0.
<mgrwt>
<rscale>  0 0.80011853E+03</rscale>
<asrwt>0</asrwt>
<pdfrwt beam="1">  1        2 0.77100566E-01 0.80011853E+03</pdfrwt>
<pdfrwt beam="2">  1       -2 0.42363811E-01 0.80011853E+03</pdfrwt>
<totfact> 0.32630410E+02</totfact>
</mgrwt>
</event>
<event>
 4    1  0.5812319E-005  0.4670135E+03  0.7818608E-02  0.1022767E+00
          2   -1    0    0  501    0  0.00000000000E+00  0.00000000000E+00  0.51062253707E+03  0.51062253708E+03  0.25500000000E-02 0.  1.
         -2   -1    0    0    0  501 -0.00000000000E+00 -0.00000000000E+00 -0.10678222568E+03  0.10678222571E+03  0.25500000000E-02 0. -1.
    5000001    1    1    2    0    0 -0.12165842303E+03  0.50135334135E+02  0.22654990069E+03  0.32481253228E+03  0.19200000000E+03 0.  0.
   -5000001    1    1    2    0    0  0.12165842303E+03 -0.50135334135E+02  0.17729041071E+03  0.29259223050E+03  0.19200000000E+03 0.  0.
<mgrwt>
<rscale>  0 0.46701354E+03</rscale>
<asrwt>0</asrwt>
<pdfrwt beam="1">  1        2 0.72946077E-01 0.46701354E+03</pdfrwt>
<pdfrwt beam="2">  1       -2 0.15254604E-01 0.46701354E+03</pdfrwt>
<totfact> 0.22161542E+03</totfact>
</mgrwt>
</event>
<event>
 4    1  0.5812319E-005  0.8155465E+03  0.7818608E-02  0.9537783E-01
         -2   -1    0    0    0  501 -0.00000000000E+00  0.00000000000E+00  0.99321368021E+02  0.99321368053E+02  0.25500000000E-02 0. -1.
          2   -1    0    0  501    0  0.00000000000E+00 -0.00000000000E+00 -0.16741515234E+04  0.16741515234E+04  0.25500000000E-02 0.  1.
    5000001    1    1    2    0    0 -0.11432829438E+03  0.34098912610E+03 -0.80567076877E+03  0.90294735763E+03  0.19200000000E+03 0.  0.
   -5000001    1    1    2    0    0  0.11432829438E+03 -0.34098912610E+03 -0.76915938658E+03  0.87052553379E+03  0.19200000000E+03 0.  0.
<mgrwt>
<rscale>  0 0.81554649E+03</rscale>
<asrwt>0</asrwt>
<pdfrwt beam="1">  1        2 0.23916449E+00 0.81554649E+03</pdfrwt>
<pdfrwt beam="2">  1       -2 0.14188768E-01 0.81554649E+03</pdfrwt>
<totfact> 0.45956246E+02</totfact>
</mgrwt>
</event>
<event>
 4    1  0.5812319E-005  0.4983826E+03  0.7818608E-02  0.1014202E+00
         -2   -1    0    0    0  501 -0.00000000000E+00  0.00000000000E+00  0.51810121852E+03  0.51810121853E+03  0.25500000000E-02 0. -1.
          2   -1    0    0  501    0  0.00000000000E+00 -0.00000000000E+00 -0.11985362881E+03  0.11985362884E+03  0.25500000000E-02 0.  1.
    5000001    1    1    2    0    0 -0.37026649283E+02  0.75909501649E+02  0.26914984559E+02  0.21147491953E+03  0.19200000000E+03 0.  0.
   -5000001    1    1    2    0    0  0.37026649283E+02 -0.75909501649E+02  0.37133260515E+03  0.42647992783E+03  0.19200000000E+03 0.  0.
<mgrwt>
<rscale>  0 0.49838263E+03</rscale>
<asrwt>0</asrwt>
<pdfrwt beam="1">  1        2 0.17121947E-01 0.49838263E+03</pdfrwt>
<pdfrwt beam="2">  1       -2 0.74014461E-01 0.49838263E+03</pdfrwt>
<totfact> 0.56630818E+02</totfact>
</mgrwt>
</event>
<event>
 4    1  0.5812319E-005  0.7539609E+03  0.7818608E-02  0.9629157E-01
          2   -1    0    0  501    0  0.00000000000E+00  0.00000000000E+00  0.69230110041E+03  0.69230110041E+03  0.25500000000E-02 0.  1.
         -2   -1    0    0    0  501 -0.00000000000E+00 -0.00000000000E+00 -0.20527808895E+03  0.20527808896E+03  0.25500000000E-02 0. -1.
    5000001    1    1    2    0    0  0.31893156260E+03 -0.59411394238E+02  0.24563827618E+03  0.44994357215E+03  0.19200000000E+03 0.  0.
   -5000001    1    1    2    0    0 -0.31893156260E+03  0.59411394238E+02  0.24138473527E+03  0.44763561723E+03  0.19200000000E+03 0.  0.
<mgrwt>
<rscale>  0 0.75396087E+03</rscale>
<asrwt>0</asrwt>
<pdfrwt beam="1">  1        2 0.98900156E-01 0.75396087E+03</pdfrwt>
<pdfrwt beam="2">  1       -2 0.29325442E-01 0.75396087E+03</pdfrwt>
<totfact> 0.48978182E+02</totfact>
</mgrwt>
</event>
<event>
 4    1  0.5812319E-005  0.5499065E+03  0.7818608E-02  0.1001516E+00
          2   -1    0    0  501    0  0.00000000000E+00  0.00000000000E+00  0.32355588811E+03  0.32355588812E+03  0.25500000000E-02 0.  1.
         -2   -1    0    0    0  501 -0.00000000000E+00 -0.00000000000E+00 -0.23365138029E+03  0.23365138031E+03  0.25500000000E-02 0. -1.
    5000001    1    1    2    0    0  0.13379006038E+03  0.38768310603E+02 -0.95935146633E+02  0.25587167589E+03  0.19200000000E+03 0.  0.
   -5000001    1    1    2    0    0 -0.13379006038E+03 -0.38768310603E+02  0.18583965445E+03  0.30133559254E+03  0.19200000000E+03 0.  0.
<mgrwt>
<rscale>  0 0.54990646E+03</rscale>
<asrwt>0</asrwt>
<pdfrwt beam="1">  1        2 0.46222270E-01 0.54990646E+03</pdfrwt>
<pdfrwt beam="2">  1       -2 0.33378768E-01 0.54990646E+03</pdfrwt>
<totfact> 0.92168200E+02</totfact>
</mgrwt>
</event>
<event>
 4    1  0.5812319E-005  0.5927913E+03  0.7818608E-02  0.9920476E-01
          2   -1    0    0  501    0  0.00000000000E+00  0.00000000000E+00  0.11266937894E+04  0.11266937894E+04  0.25500000000E-02 0.  1.
         -2   -1    0    0    0  501 -0.00000000000E+00 -0.00000000000E+00 -0.77971845719E+02  0.77971845761E+02  0.25500000000E-02 0. -1.
    5000001    1    1    2    0    0 -0.22223108388E+03 -0.74430671281E+01  0.60422223813E+03  0.67185606118E+03  0.19200000000E+03 0.  0.
   -5000001    1    1    2    0    0  0.22223108388E+03  0.74430671281E+01  0.44449970553E+03  0.53280957396E+03  0.19200000000E+03 0.  0.
<mgrwt>
<rscale>  0 0.59279134E+03</rscale>
<asrwt>0</asrwt>
<pdfrwt beam="1">  1        2 0.16095626E+00 0.59279134E+03</pdfrwt>
<pdfrwt beam="2">  1       -2 0.11138835E-01 0.59279134E+03</pdfrwt>
<totfact> 0.13648653E+03</totfact>
</mgrwt>
</event>
<event>
 4    1  0.5812319E-005  0.6357349E+03  0.7818608E-02  0.9833921E-01
          2   -1    0    0  501    0  0.00000000000E+00  0.00000000000E+00  0.14814895110E+04  0.14814895110E+04  0.25500000000E-02 0.  1.
         -2   -1    0    0    0  501 -0.00000000000E+00 -0.00000000000E+00 -0.68201432510E+02  0.68201432557E+02  0.25500000000E-02 0. -1.
    5000001    1    1    2    0    0 -0.35844865279E+01 -0.20297514357E+03  0.10760401783E+04  0.11117275848E+04  0.19200000000E+03 0.  0.
   -5000001    1    1    2    0    0  0.35844865279E+01  0.20297514357E+03  0.33724790020E+03  0.43796335879E+03  0.19200000000E+03 0.  0.
<mgrwt>
<rscale>  0 0.63573487E+03</rscale>
<asrwt>0</asrwt>
<pdfrwt beam="1">  1        2 0.21164135E+00 0.63573487E+03</pdfrwt>
<pdfrwt beam="2">  1       -2 0.97430620E-02 0.63573487E+03</pdfrwt>
<totfact> 0.10851625E+03</totfact>
</mgrwt>
</event>
<event>
 4    1  0.5812319E-005  0.4247239E+03  0.7818608E-02  0.1035540E+00
         -2   -1    0    0    0  501 -0.00000000000E+00  0.00000000000E+00  0.41433188309E+02  0.41433188388E+02  0.25500000000E-02 0. -1.
          2   -1    0    0  501    0  0.00000000000E+00 -0.00000000000E+00 -0.10884414058E+04  0.10884414058E+04  0.25500000000E-02 0.  1.
    5000001    1    1    2    0    0  0.43814832810E+02 -0.26053431177E+02 -0.32380622257E+03  0.37988549673E+03  0.19200000000E+03 0.  0.
   -5000001    1    1    2    0    0 -0.43814832810E+02  0.26053431177E+02 -0.72320199488E+03  0.74998909742E+03  0.19200000000E+03 0.  0.
<mgrwt>
<rscale>  0 0.42472390E+03</rscale>
<asrwt>0</asrwt>
<pdfrwt beam="1">  1        2 0.15549161E+00 0.42472390E+03</pdfrwt>
<pdfrwt beam="2">  1       -2 0.59190276E-02 0.42472390E+03</pdfrwt>
<totfact> 0.39291479E+03</totfact>
</mgrwt>
</event>
<event>
 4    1  0.5812319E-005  0.5526343E+03  0.7818608E-02  0.1000886E+00
         -2   -1    0    0    0  501 -0.00000000000E+00  0.00000000000E+00  0.57010099917E+03  0.57010099917E+03  0.25500000000E-02 0. -1.
          2   -1    0    0  501    0  0.00000000000E+00 -0.00000000000E+00 -0.13392568794E+03  0.13392568796E+03  0.25500000000E-02 0.  1.
    5000001    1    1    2    0    0 -0.17631186639E+03 -0.20462189151E+02  0.33190888669E+03  0.42253057224E+03  0.19200000000E+03 0.  0.
   -5000001    1    1    2    0    0  0.17631186639E+03  0.20462189151E+02  0.10426642454E+03  0.28149611489E+03  0.19200000000E+03 0.  0.
<mgrwt>
<rscale>  0 0.55263430E+03</rscale>
<asrwt>0</asrwt>
<pdfrwt beam="1">  1        2 0.19132241E-01 0.55263430E+03</pdfrwt>
<pdfrwt beam="2">  1       -2 0.81443002E-01 0.55263430E+03</pdfrwt>
<totfact> 0.40148159E+02</totfact>
</mgrwt>
</event>
<event>
 4    1  0.5812319E-005  0.8003035E+03  0.7818608E-02  0.9559578E-01
          2   -1    0    0  501    0  0.00000000000E+00  0.00000000000E+00  0.90781272832E+03  0.90781272832E+03  0.25500000000E-02 0.  1.
         -2   -1    0    0    0  501 -0.00000000000E+00 -0.00000000000E+00 -0.17638156610E+03  0.17638156611E+03  0.25500000000E-02 0. -1.
    5000001    1    1    2    0    0 -0.17422541348E+03  0.95795577131E+02 -0.26281591449E+02  0.27764367335E+03  0.19200000000E+03 0.  0.
   -5000001    1    1    2    0    0  0.17422541348E+03 -0.95795577131E+02  0.75771275367E+03  0.80655062109E+03  0.19200000000E+03 0.  0.
<mgrwt>
<rscale>  0 0.80030352E+03</rscale>
<asrwt>0</asrwt>
<pdfrwt beam="1">  1        2 0.12968753E+00 0.80030352E+03</pdfrwt>
<pdfrwt beam="2">  1       -2 0.25197366E-01 0.80030352E+03</pdfrwt>
<totfact> 0.45520949E+02</totfact>
</mgrwt>
</event>
<event>
 4    1  0.5812319E-005  0.6406560E+03  0.7818608E-02  0.9824472E-01
          2   -1    0    0  501    0  0.00000000000E+00  0.00000000000E+00  0.10559787537E+04  0.10559787537E+04  0.25500000000E-02 0.  1.
         -2   -1    0    0    0  501 -0.00000000000E+00 -0.00000000000E+00 -0.97170545375E+02  0.97170545408E+02  0.25500000000E-02 0. -1.
    5000001    1    1    2    0    0 -0.24757924516E+03 -0.48961039249E+02  0.39784099821E+03  0.50875743322E+03  0.19200000000E+03 0.  0.
   -5000001    1    1    2    0    0  0.24757924516E+03  0.48961039249E+02  0.56096721010E+03  0.64439186588E+03  0.19200000000E+03 0.  0.
<mgrwt>
<rscale>  0 0.64065601E+03</rscale>
<asrwt>0</asrwt>
<pdfrwt beam="1">  1        2 0.15085411E+00 0.64065601E+03</pdfrwt>
<pdfrwt beam="2">  1       -2 0.13881506E-01 0.64065601E+03</pdfrwt>
<totfact> 0.10420177E+03</totfact>
</mgrwt>
</event>
<event>
 4    1  0.5812319E-005  0.5224228E+03  0.7818608E-02  0.1008086E+00
         -2   -1    0    0    0  501 -0.00000000000E+00  0.00000000000E+00  0.28746624053E+02  0.28746624166E+02  0.25500000000E-02 0. -1.
          2   -1    0    0  501    0  0.00000000000E+00 -0.00000000000E+00 -0.23735446430E+04  0.23735446430E+04  0.25500000000E-02 0.  1.
    5000001    1    1    2    0    0 -0.83347059147E+02  0.12874809290E+03 -0.15796749159E+04  0.15986743394E+04  0.19200000000E+03 0.  0.
   -5000001    1    1    2    0    0  0.83347059147E+02 -0.12874809290E+03 -0.76512310302E+03  0.80361692769E+03  0.19200000000E+03 0.  0.
<mgrwt>
<rscale>  0 0.52242280E+03</rscale>
<asrwt>0</asrwt>
<pdfrwt beam="1">  1        2 0.33907768E+00 0.52242280E+03</pdfrwt>
<pdfrwt beam="2">  1       -2 0.41066621E-02 0.52242280E+03</pdfrwt>
<totfact> 0.15001252E+03</totfact>
</mgrwt>
</event>
<event>
 4    1  0.5812319E-005  0.9493238E+03  0.7818608E-02  0.9365941E-01
         -2   -1    0    0    0  501 -0.00000000000E+00  0.00000000000E+00  0.37653424959E+03  0.37653424960E+03  0.25500000000E-02 0. -1.
          2   -1    0    0  501    0  0.00000000000E+00 -0.00000000000E+00 -0.59836229715E+03  0.59836229716E+03  0.25500000000E-02 0.  1.
    5000001    1    1    2    0    0 -0.38441726774E+03 -0.20979734735E+02 -0.31687361707E+03  0.53431233768E+03  0.19200000000E+03 0.  0.
   -5000001    1    1    2    0    0  0.38441726774E+03  0.20979734735E+02  0.95045569504E+02  0.44058420907E+03  0.19200000000E+03 0.  0.
<mgrwt>
<rscale>  0 0.94932376E+03</rscale>
<asrwt>0</asrwt>
<pdfrwt beam="1">  1        2 0.85480328E-01 0.94932376E+03</pdfrwt>
<pdfrwt beam="2">  1       -2 0.53790607E-01 0.94932376E+03</pdfrwt>
<totfact> 0.17741687E+02</totfact>
</mgrwt>
</event>
<event>
 4    1  0.5812319E-005  0.5857971E+03  0.7818608E-02  0.9935319E-01
         -2   -1    0    0    0  501 -0.00000000000E+00  0.00000000000E+00  0.89494230839E+02  0.89494230875E+02  0.25500000000E-02 0. -1.
          2   -1    0    0  501    0  0.00000000000E+00 -0.00000000000E+00 -0.95860451344E+03  0.95860451344E+03  0.25500000000E-02 0.  1.
    5000001    1    1    2    0    0  0.97449780520E+01  0.18630521464E+03 -0.22194336875E+03  0.34774625308E+03  0.19200000000E+03 0.  0.
   -5000001    1    1    2    0    0 -0.97449780520E+01 -0.18630521464E+03 -0.64716691385E+03  0.70035249124E+03  0.19200000000E+03 0.  0.
<mgrwt>
<rscale>  0 0.58579714E+03</rscale>
<asrwt>0</asrwt>
<pdfrwt beam="1">  1        2 0.13694350E+00 0.58579714E+03</pdfrwt>
<pdfrwt beam="2">  1       -2 0.12784891E-01 0.58579714E+03</pdfrwt>
<totfact> 0.13711460E+03</totfact>
</mgrwt>
</event>
<event>
 4    1  0.5812319E-005  0.4123282E+03  0.7818608E-02  0.1039593E+00
         -2   -1    0    0    0  501 -0.00000000000E+00  0.00000000000E+00  0.13424926902E+03  0.13424926904E+03  0.25500000000E-02 0. -1.
          2   -1    0    0  501    0  0.00000000000E+00 -0.00000000000E+00 -0.31660242212E+03  0.31660242213E+03  0.25500000000E-02 0.  1.
    5000001    1    1    2    0    0  0.51711415615E+02  0.51091324995E+02 -0.11178560495E+03  0.23376144992E+03  0.19200000000E+03 0.  0.
   -5000001    1    1    2    0    0 -0.51711415615E+02 -0.51091324995E+02 -0.70567548145E+02  0.21709024125E+03  0.19200000000E+03 0.  0.
<mgrwt>
<rscale>  0 0.41232824E+03</rscale>
<asrwt>0</asrwt>
<pdfrwt beam="1">  1        2 0.45228917E-01 0.41232824E+03</pdfrwt>
<pdfrwt beam="2">  1       -2 0.19178467E-01 0.41232824E+03</pdfrwt>
<totfact> 0.25445010E+03</totfact>
</mgrwt>
</event>
<event>
 4    1  0.5812319E-005  0.4958380E+03  0.7818608E-02  0.1014871E+00
         -2   -1    0    0    0  501 -0.00000000000E+00  0.00000000000E+00  0.75258194195E+02  0.75258194239E+02  0.25500000000E-02 0. -1.
          2   -1    0    0  501    0  0.00000000000E+00 -0.00000000000E+00 -0.81670615114E+03  0.81670615115E+03  0.25500000000E-02 0.  1.
    5000001    1    1    2    0    0 -0.12795152112E+02  0.14513269033E+03 -0.47519387492E+03  0.53282307803E+03  0.19200000000E+03 0.  0.
   -5000001    1    1    2    0    0  0.12795152112E+02 -0.14513269033E+03 -0.26625408203E+03  0.35914126735E+03  0.19200000000E+03 0.  0.
<mgrwt>
<rscale>  0 0.49583800E+03</rscale>
<asrwt>0</asrwt>
<pdfrwt beam="1">  1        2 0.11667230E+00 0.49583800E+03</pdfrwt>
<pdfrwt beam="2">  1       -2 0.10751171E-01 0.49583800E+03</pdfrwt>
<totfact> 0.22533432E+03</totfact>
</mgrwt>
</event>
<event>
 4    1  0.5812319E-005  0.5077794E+03  0.7818608E-02  0.1011768E+00
          2   -1    0    0  501    0  0.00000000000E+00  0.00000000000E+00  0.23935743625E+03  0.23935743626E+03  0.25500000000E-02 0.  1.
         -2   -1    0    0    0  501 -0.00000000000E+00 -0.00000000000E+00 -0.26930425521E+03  0.26930425522E+03  0.25500000000E-02 0. -1.
    5000001    1    1    2    0    0  0.14500629255E+03  0.80299201296E+02 -0.26001147931E+02  0.25498009001E+03  0.19200000000E+03 0.  0.
   -5000001    1    1    2    0    0 -0.14500629255E+03 -0.80299201296E+02 -0.39456710300E+01  0.25368160148E+03  0.19200000000E+03 0.  0.
<mgrwt>
<rscale>  0 0.50777939E+03</rscale>
<asrwt>0</asrwt>
<pdfrwt beam="1">  1        2 0.34193920E-01 0.50777939E+03</pdfrwt>
<pdfrwt beam="2">  1       -2 0.38472036E-01 0.50777939E+03</pdfrwt>
<totfact> 0.98158067E+02</totfact>
</mgrwt>
</event>
<event>
 4    1  0.5812319E-005  0.1035512E+04  0.7818608E-02  0.9270431E-01
          2   -1    0    0  501    0  0.00000000000E+00  0.00000000000E+00  0.34922885374E+03  0.34922885375E+03  0.25500000000E-02 0.  1.
         -2   -1    0    0    0  501 -0.00000000000E+00 -0.00000000000E+00 -0.76760880712E+03  0.76760880712E+03  0.25500000000E-02 0. -1.
    5000001    1    1    2    0    0 -0.39969860490E+03  0.10789665402E+03 -0.47295010544E+03  0.65722634225E+03  0.19200000000E+03 0.  0.
   -5000001    1    1    2    0    0  0.39969860490E+03 -0.10789665402E+03  0.54570152066E+02  0.45961131862E+03  0.19200000000E+03 0.  0.
<mgrwt>
<rscale>  0 0.10355117E+04</rscale>
<asrwt>0</asrwt>
<pdfrwt beam="1">  1        2 0.49889837E-01 0.10355117E+04</pdfrwt>
<pdfrwt beam="2">  1       -2 0.10965840E+00 0.10355117E+04</pdfrwt>
<totfact> 0.66445521E+01</totfact>
</mgrwt>
</event>
<event>
 4    1  0.5812319E-005  0.4851454E+03  0.7818608E-02  0.1017731E+00
         -2   -1    0    0    0  501 -0.00000000000E+00  0.00000000000E+00  0.27480453240E+02  0.27480453358E+02  0.25500000000E-02 0. -1.
          2   -1    0    0  501    0  0.00000000000E+00 -0.00000000000E+00 -0.21412135195E+04  0.21412135195E+04  0.25500000000E-02 0.  1.
    5000001    1    1    2    0    0 -0.14510145406E+03 -0.30044996011E+02 -0.10366840304E+04  0.10646759661E+04  0.19200000000E+03 0.  0.
   -5000001    1    1    2    0    0  0.14510145406E+03  0.30044996011E+02 -0.10770490358E+04  0.11040180068E+04  0.19200000000E+03 0.  0.
<mgrwt>
<rscale>  0 0.48514541E+03</rscale>
<asrwt>0</asrwt>
<pdfrwt beam="1">  1        2 0.30588754E+00 0.48514541E+03</pdfrwt>
<pdfrwt beam="2">  1       -2 0.39257804E-02 0.48514541E+03</pdfrwt>
<totfact> 0.21066926E+03</totfact>
</mgrwt>
</event>
<event>
 4    1  0.5812319E-005  0.5989207E+03  0.7818608E-02  0.9907648E-01
          2   -1    0    0  501    0  0.00000000000E+00  0.00000000000E+00  0.24727760558E+04  0.24727760558E+04  0.25500000000E-02 0. -1.
         -2   -1    0    0    0  501 -0.00000000000E+00 -0.00000000000E+00 -0.36265519939E+02  0.36265520029E+02  0.25500000000E-02 0.  1.
    5000001    1    1    2    0    0 -0.21474089778E+03 -0.12732121031E+02  0.15569585707E+04  0.15834329007E+04  0.19200000000E+03 0.  0.
   -5000001    1    1    2    0    0  0.21474089778E+03  0.12732121031E+02  0.87955196507E+03  0.92560867506E+03  0.19200000000E+03 0.  0.
<mgrwt>
<rscale>  0 0.59892073E+03</rscale>
<asrwt>0</asrwt>
<pdfrwt beam="1">  1        2 0.35325367E+00 0.59892073E+03</pdfrwt>
<pdfrwt beam="2">  1       -2 0.51807894E-02 0.59892073E+03</pdfrwt>
<totfact> 0.92815971E+02</totfact>
</mgrwt>
</event>
<event>
 4    1  0.5812319E-005  0.7155415E+03  0.7818608E-02  0.9691017E-01
          2   -1    0    0  501    0  0.00000000000E+00  0.00000000000E+00  0.91949738520E+03  0.91949738520E+03  0.25500000000E-02 0.  1.
         -2   -1    0    0    0  501 -0.00000000000E+00 -0.00000000000E+00 -0.13920640585E+03  0.13920640587E+03  0.25500000000E-02 0. -1.
    5000001    1    1    2    0    0  0.18459411641E+03  0.12316688428E+03  0.69297572606E+03  0.75254529837E+03  0.19200000000E+03 0.  0.
   -5000001    1    1    2    0    0 -0.18459411641E+03 -0.12316688428E+03  0.87315253291E+02  0.30615849270E+03  0.19200000000E+03 0.  0.
<mgrwt>
<rscale>  0 0.71554155E+03</rscale>
<asrwt>0</asrwt>
<pdfrwt beam="1">  1        2 0.13135676E+00 0.71554155E+03</pdfrwt>
<pdfrwt beam="2">  1       -2 0.19886630E-01 0.71554155E+03</pdfrwt>
<totfact> 0.68313439E+02</totfact>
</mgrwt>
</event>
<event>
 4    1  0.5812319E-005  0.4824227E+03  0.7818608E-02  0.1018471E+00
         -2   -1    0    0    0  501 -0.00000000000E+00  0.00000000000E+00  0.85822386182E+02  0.85822386220E+02  0.25500000000E-02 0. -1.
          2   -1    0    0  501    0  0.00000000000E+00 -0.00000000000E+00 -0.67794562363E+03  0.67794562364E+03  0.25500000000E-02 0.  1.
    5000001    1    1    2    0    0  0.11354992574E+03 -0.65477794919E+02 -0.19421933206E+03  0.30292916038E+03  0.19200000000E+03 0.  0.
   -5000001    1    1    2    0    0 -0.11354992574E+03  0.65477794919E+02 -0.39790390539E+03  0.46083884948E+03  0.19200000000E+03 0.  0.
<mgrwt>
<rscale>  0 0.48242268E+03</rscale>
<asrwt>0</asrwt>
<pdfrwt beam="1">  1        2 0.96849371E-01 0.48242268E+03</pdfrwt>
<pdfrwt beam="2">  1       -2 0.12260341E-01 0.48242268E+03</pdfrwt>
<totfact> 0.22900055E+03</totfact>
</mgrwt>
</event>
<event>
 4    1  0.5812319E-005  0.8052930E+03  0.7818608E-02  0.9552387E-01
         -2   -1    0    0    0  501 -0.00000000000E+00  0.00000000000E+00  0.13227640654E+03  0.13227640656E+03  0.25500000000E-02 0. -1.
          2   -1    0    0  501    0  0.00000000000E+00 -0.00000000000E+00 -0.12256472980E+04  0.12256472980E+04  0.25500000000E-02 0.  1.
    5000001    1    1    2    0    0 -0.21971261626E+03  0.58284423860E+02 -0.89250450300E+02  0.31064505579E+03  0.19200000000E+03 0.  0.
   -5000001    1    1    2    0    0  0.21971261626E+03 -0.58284423860E+02 -0.10041204412E+04  0.10472786488E+04  0.19200000000E+03 0.  0.
<mgrwt>
<rscale>  0 0.80529304E+03</rscale>
<asrwt>0</asrwt>
<pdfrwt beam="1">  1        2 0.17509247E+00 0.80529304E+03</pdfrwt>
<pdfrwt beam="2">  1       -2 0.18896630E-01 0.80529304E+03</pdfrwt>
<totfact> 0.48881461E+02</totfact>
</mgrwt>
</event>
<event>
 4    1  0.5812319E-005  0.4936771E+03  0.7818608E-02  0.1015443E+00
          2   -1    0    0  501    0  0.00000000000E+00  0.00000000000E+00  0.14199933999E+03  0.14199934001E+03  0.25500000000E-02 0.  1.
         -2   -1    0    0    0  501 -0.00000000000E+00 -0.00000000000E+00 -0.42908138394E+03  0.42908138395E+03  0.25500000000E-02 0. -1.
    5000001    1    1    2    0    0  0.14200896895E+03 -0.10937027113E+02 -0.21465404316E+03  0.32128884834E+03  0.19200000000E+03 0.  0.
   -5000001    1    1    2    0    0 -0.14200896895E+03  0.10937027113E+02 -0.72428000790E+02  0.24979187561E+03  0.19200000000E+03 0.  0.
<mgrwt>
<rscale>  0 0.49367711E+03</rscale>
<asrwt>0</asrwt>
<pdfrwt beam="1">  1        2 0.20285620E-01 0.49367711E+03</pdfrwt>
<pdfrwt beam="2">  1       -2 0.61297340E-01 0.49367711E+03</pdfrwt>
<totfact> 0.69567388E+02</totfact>
</mgrwt>
</event>
<event>
 4    1  0.5812319E-005  0.4767248E+03  0.7818608E-02  0.1020039E+00
          2   -1    0    0  501    0  0.00000000000E+00  0.00000000000E+00  0.28289344680E+03  0.28289344681E+03  0.25500000000E-02 0.  1.
         -2   -1    0    0    0  501 -0.00000000000E+00 -0.00000000000E+00 -0.20084113410E+03  0.20084113412E+03  0.25500000000E-02 0. -1.
    5000001    1    1    2    0    0  0.31403641849E+02 -0.13039553906E+03 -0.39362845105E+01  0.23424064477E+03  0.19200000000E+03 0.  0.
   -5000001    1    1    2    0    0 -0.31403641849E+02  0.13039553906E+03  0.85988597211E+02  0.24949393616E+03  0.19200000000E+03 0.  0.
<mgrwt>
<rscale>  0 0.47672483E+03</rscale>
<asrwt>0</asrwt>
<pdfrwt beam="1">  1        2 0.40413349E-01 0.47672483E+03</pdfrwt>
<pdfrwt beam="2">  1       -2 0.28691591E-01 0.47672483E+03</pdfrwt>
<totfact> 0.14132799E+03</totfact>
</mgrwt>
</event>
<event>
 4    1  0.5812319E-005  0.4350924E+03  0.7818608E-02  0.1032263E+00
          2   -1    0    0  501    0  0.00000000000E+00  0.00000000000E+00  0.95760726353E+02  0.95760726387E+02  0.25500000000E-02 0.  1.
         -2   -1    0    0    0  501 -0.00000000000E+00 -0.00000000000E+00 -0.49421452879E+03  0.49421452880E+03  0.25500000000E-02 0. -1.
    5000001    1    1    2    0    0  0.86316167304E+02 -0.42710876653E+02 -0.24595683909E+03  0.32654780113E+03  0.19200000000E+03 0.  0.
   -5000001    1    1    2    0    0 -0.86316167304E+02  0.42710876653E+02 -0.15249696334E+03  0.26342745406E+03  0.19200000000E+03 0.  0.
<mgrwt>
<rscale>  0 0.43509237E+03</rscale>
<asrwt>0</asrwt>
<pdfrwt beam="1">  1        2 0.13680104E-01 0.43509237E+03</pdfrwt>
<pdfrwt beam="2">  1       -2 0.70602074E-01 0.43509237E+03</pdfrwt>
<totfact> 0.82174370E+02</totfact>
</mgrwt>
</event>
<event>
 4    1  0.5812319E-005  0.1184683E+04  0.7818608E-02  0.9126370E-01
          2   -1    0    0  501    0  0.00000000000E+00  0.00000000000E+00  0.39619722687E+03  0.39619722688E+03  0.25500000000E-02 0.  1.
         -2   -1    0    0    0  501 -0.00000000000E+00 -0.00000000000E+00 -0.88559023813E+03  0.88559023813E+03  0.25500000000E-02 0. -1.
    5000001    1    1    2    0    0  0.49135090271E+03 -0.39247266626E+02 -0.53307329182E+03  0.75099746470E+03  0.19200000000E+03 0.  0.
   -5000001    1    1    2    0    0 -0.49135090271E+03  0.39247266626E+02  0.43680280560E+02  0.53079000032E+03  0.19200000000E+03 0.  0.
<mgrwt>
<rscale>  0 0.11846829E+04</rscale>
<asrwt>0</asrwt>
<pdfrwt beam="1">  1        2 0.56599604E-01 0.11846829E+04</pdfrwt>
<pdfrwt beam="2">  1       -2 0.12651289E+00 0.11846829E+04</pdfrwt>
<totfact> 0.40184130E+01</totfact>
</mgrwt>
</event>
<event>
 4    1  0.5812319E-005  0.7865824E+03  0.7818608E-02  0.9579644E-01
          2   -1    0    0  501    0  0.00000000000E+00  0.00000000000E+00  0.22197486551E+04  0.22197486551E+04  0.25500000000E-02 0.  1.
         -2   -1    0    0    0  501 -0.00000000000E+00 -0.00000000000E+00 -0.69682644100E+02  0.69682644146E+02  0.25500000000E-02 0. -1.
    5000001    1    1    2    0    0  0.27113726524E+03 -0.20940421167E+03  0.11366674558E+04  0.12025982062E+04  0.19200000000E+03 0.  0.
   -5000001    1    1    2    0    0 -0.27113726524E+03  0.20940421167E+03  0.10133985552E+04  0.10868330930E+04  0.19200000000E+03 0.  0.
<mgrwt>
<rscale>  0 0.78658237E+03</rscale>
<asrwt>0</asrwt>
<pdfrwt beam="1">  1        2 0.31710705E+00 0.78658237E+03</pdfrwt>
<pdfrwt beam="2">  1       -2 0.99546602E-02 0.78658237E+03</pdfrwt>
<totfact> 0.43674623E+02</totfact>
</mgrwt>
</event>
<event>
 4    1  0.5812319E-005  0.5193299E+03  0.7818608E-02  0.1008853E+00
         -2   -1    0    0    0  501 -0.00000000000E+00  0.00000000000E+00  0.36989374381E+03  0.36989374382E+03  0.25500000000E-02 0.  1.
          2   -1    0    0  501    0  0.00000000000E+00 -0.00000000000E+00 -0.18228446034E+03  0.18228446036E+03  0.25500000000E-02 0. -1.
    5000001    1    1    2    0    0  0.53743185997E+02  0.16447589226E+03  0.12030568458E+03  0.28509315480E+03  0.19200000000E+03 0.  0.
   -5000001    1    1    2    0    0 -0.53743185997E+02 -0.16447589226E+03  0.67303598899E+02  0.26708504937E+03  0.19200000000E+03 0.  0.
<mgrwt>
<rscale>  0 0.51932988E+03</rscale>
<asrwt>0</asrwt>
<pdfrwt beam="1">  1        2 0.26040637E-01 0.51932988E+03</pdfrwt>
<pdfrwt beam="2">  1       -2 0.52841963E-01 0.51932988E+03</pdfrwt>
<totfact> 0.71032925E+02</totfact>
</mgrwt>
</event>
<event>
 4    1  0.5812319E-005  0.8757822E+03  0.7818608E-02  0.9456372E-01
         -2   -1    0    0    0  501 -0.00000000000E+00  0.00000000000E+00  0.17727475430E+03  0.17727475432E+03  0.25500000000E-02 0. -1.
          2   -1    0    0  501    0  0.00000000000E+00 -0.00000000000E+00 -0.10816465487E+04  0.10816465487E+04  0.25500000000E-02 0.  1.
    5000001    1    1    2    0    0  0.23865939131E+03  0.24053149227E+03 -0.73993708558E+03  0.83617258653E+03  0.19200000000E+03 0.  0.
   -5000001    1    1    2    0    0 -0.23865939131E+03 -0.24053149227E+03 -0.16443470883E+03  0.42274871650E+03  0.19200000000E+03 0.  0.
<mgrwt>
<rscale>  0 0.87578222E+03</rscale>
<asrwt>0</asrwt>
<pdfrwt beam="1">  1        2 0.15452093E+00 0.87578222E+03</pdfrwt>
<pdfrwt beam="2">  1       -2 0.25324966E-01 0.87578222E+03</pdfrwt>
<totfact> 0.35098762E+02</totfact>
</mgrwt>
</event>
<event>
 4    1  0.5812319E-005  0.5359512E+03  0.7818608E-02  0.1004799E+00
          2   -1    0    0  501    0  0.00000000000E+00  0.00000000000E+00  0.18894825113E+03  0.18894825115E+03  0.25500000000E-02 0.  1.
         -2   -1    0    0    0  501 -0.00000000000E+00 -0.00000000000E+00 -0.38005603676E+03  0.38005603677E+03  0.25500000000E-02 0. -1.
    5000001    1    1    2    0    0 -0.46045346567E+02  0.12813110195E+03  0.40444444314E+02  0.23882526312E+03  0.19200000000E+03 0.  0.
   -5000001    1    1    2    0    0  0.46045346567E+02 -0.12813110195E+03 -0.23155222994E+03  0.33017902480E+03  0.19200000000E+03 0.  0.
<mgrwt>
<rscale>  0 0.53595120E+03</rscale>
<asrwt>0</asrwt>
<pdfrwt beam="1">  1        2 0.26992608E-01 0.53595120E+03</pdfrwt>
<pdfrwt beam="2">  1       -2 0.54293719E-01 0.53595120E+03</pdfrwt>
<totfact> 0.64507237E+02</totfact>
</mgrwt>
</event>
<event>
 4    1  0.5812319E-005  0.5178077E+03  0.7818608E-02  0.1009233E+00
         -2   -1    0    0    0  501 -0.00000000000E+00  0.00000000000E+00  0.40143684574E+03  0.40143684575E+03  0.25500000000E-02 0. -1.
          2   -1    0    0  501    0  0.00000000000E+00 -0.00000000000E+00 -0.16697823247E+03  0.16697823249E+03  0.25500000000E-02 0.  1.
    5000001    1    1    2    0    0 -0.56818859620E+02 -0.76262162570E+01 -0.62747738501E+02  0.20997099959E+03  0.19200000000E+03 0.  0.
   -5000001    1    1    2    0    0  0.56818859620E+02  0.76262162570E+01  0.29720635177E+03  0.35844407865E+03  0.19200000000E+03 0.  0.
<mgrwt>
<rscale>  0 0.51780774E+03</rscale>
<asrwt>0</asrwt>
<pdfrwt beam="1">  1        2 0.23854034E-01 0.51780774E+03</pdfrwt>
<pdfrwt beam="2">  1       -2 0.57348120E-01 0.51780774E+03</pdfrwt>
<totfact> 0.66317460E+02</totfact>
</mgrwt>
</event>
<event>
 4    1  0.5812319E-005  0.4915964E+03  0.7818608E-02  0.1015996E+00
         -2   -1    0    0    0  501 -0.00000000000E+00  0.00000000000E+00  0.23463660389E+02  0.23463660527E+02  0.25500000000E-02 0. -1.
          2   -1    0    0  501    0  0.00000000000E+00 -0.00000000000E+00 -0.25749071490E+04  0.25749071490E+04  0.25500000000E-02 0.  1.
    5000001    1    1    2    0    0 -0.13757106739E+03  0.56511654838E+02 -0.10756096498E+04  0.11026873920E+04  0.19200000000E+03 0.  0.
   -5000001    1    1    2    0    0  0.13757106739E+03 -0.56511654838E+02 -0.14758338388E+04  0.14956834176E+04  0.19200000000E+03 0.  0.
<mgrwt>
<rscale>  0 0.49159637E+03</rscale>
<asrwt>0</asrwt>
<pdfrwt beam="1">  1        2 0.36784370E+00 0.49159637E+03</pdfrwt>
<pdfrwt beam="2">  1       -2 0.33519531E-02 0.49159637E+03</pdfrwt>
<totfact> 0.16180183E+03</totfact>
</mgrwt>
</event>
<event>
 4    1  0.5812319E-005  0.5635414E+03  0.7818608E-02  0.9984073E-01
          2   -1    0    0  501    0  0.00000000000E+00  0.00000000000E+00  0.22781302981E+03  0.22781302983E+03  0.25500000000E-02 0.  1.
         -2   -1    0    0    0  501 -0.00000000000E+00 -0.00000000000E+00 -0.34850829560E+03  0.34850829561E+03  0.25500000000E-02 0. -1.
    5000001    1    1    2    0    0 -0.64410145573E+02  0.18172509226E+03 -0.13520635809E+03  0.30383784372E+03  0.19200000000E+03 0.  0.
   -5000001    1    1    2    0    0  0.64410145573E+02 -0.18172509226E+03  0.14511092299E+02  0.27248348172E+03  0.19200000000E+03 0.  0.
<mgrwt>
<rscale>  0 0.56354141E+03</rscale>
<asrwt>0</asrwt>
<pdfrwt beam="1">  1        2 0.32544719E-01 0.56354141E+03</pdfrwt>
<pdfrwt beam="2">  1       -2 0.49786899E-01 0.56354141E+03</pdfrwt>
<totfact> 0.62377512E+02</totfact>
</mgrwt>
</event>
<event>
 4    1  0.5812319E-005  0.5416008E+03  0.7818608E-02  0.1003457E+00
         -2   -1    0    0    0  501 -0.00000000000E+00  0.00000000000E+00  0.44231710049E+03  0.44231710050E+03  0.25500000000E-02 0. -1.
          2   -1    0    0  501    0  0.00000000000E+00 -0.00000000000E+00 -0.16579249094E+03  0.16579249095E+03  0.25500000000E-02 0.  1.
    5000001    1    1    2    0    0 -0.28297051333E+02  0.16842821334E+03  0.23419485923E+03  0.34767803821E+03  0.19200000000E+03 0.  0.
   -5000001    1    1    2    0    0  0.28297051333E+02 -0.16842821334E+03  0.42329750325E+02  0.26043155324E+03  0.19200000000E+03 0.  0.
<mgrwt>
<rscale>  0 0.54160079E+03</rscale>
<asrwt>0</asrwt>
<pdfrwt beam="1">  1        2 0.23684642E-01 0.54160079E+03</pdfrwt>
<pdfrwt beam="2">  1       -2 0.63188155E-01 0.54160079E+03</pdfrwt>
<totfact> 0.54534222E+02</totfact>
</mgrwt>
</event>
<event>
 4    1  0.5812319E-005  0.1002972E+04  0.7818608E-02  0.9305291E-01
         -2   -1    0    0    0  501 -0.00000000000E+00  0.00000000000E+00  0.62005598912E+03  0.62005598913E+03  0.25500000000E-02 0. -1.
          2   -1    0    0  501    0  0.00000000000E+00 -0.00000000000E+00 -0.40558928926E+03  0.40558928927E+03  0.25500000000E-02 0.  1.
    5000001    1    1    2    0    0  0.33437912684E+03 -0.31796439424E+03  0.14956124366E+03  0.52167357809E+03  0.19200000000E+03 0.  0.
   -5000001    1    1    2    0    0 -0.33437912684E+03  0.31796439424E+03  0.64905456204E+02  0.50397170031E+03  0.19200000000E+03 0.  0.
<mgrwt>
<rscale>  0 0.10029717E+04</rscale>
<asrwt>0</asrwt>
<pdfrwt beam="1">  1        2 0.57941328E-01 0.10029717E+04</pdfrwt>
<pdfrwt beam="2">  1       -2 0.88579426E-01 0.10029717E+04</pdfrwt>
<totfact> 0.93260336E+01</totfact>
</mgrwt>
</event>
<event>
 4    1  0.5812319E-005  0.6274074E+03  0.7818608E-02  0.9850121E-01
         -2   -1    0    0    0  501 -0.00000000000E+00  0.00000000000E+00  0.15869346010E+03  0.15869346012E+03  0.25500000000E-02 0. -1.
          2   -1    0    0  501    0  0.00000000000E+00 -0.00000000000E+00 -0.62012645154E+03  0.62012645154E+03  0.25500000000E-02 0.  1.
    5000001    1    1    2    0    0  0.88135339521E+02  0.18861799957E+03 -0.39818768196E+03  0.48863280477E+03  0.19200000000E+03 0.  0.
   -5000001    1    1    2    0    0 -0.88135339521E+02 -0.18861799957E+03 -0.63245309477E+02  0.29018710689E+03  0.19200000000E+03 0.  0.
<mgrwt>
<rscale>  0 0.62740740E+03</rscale>
<asrwt>0</asrwt>
<pdfrwt beam="1">  1        2 0.88589492E-01 0.62740740E+03</pdfrwt>
<pdfrwt beam="2">  1       -2 0.22670495E-01 0.62740740E+03</pdfrwt>
<totfact> 0.89396238E+02</totfact>
</mgrwt>
</event>
<event>
 4    1  0.5812319E-005  0.4812594E+03  0.7818608E-02  0.1018790E+00
         -2   -1    0    0    0  501 -0.00000000000E+00  0.00000000000E+00  0.49119364582E+02  0.49119364648E+02  0.25500000000E-02 0. -1.
          2   -1    0    0  501    0  0.00000000000E+00 -0.00000000000E+00 -0.11788151880E+04  0.11788151880E+04  0.25500000000E-02 0.  1.
    5000001    1    1    2    0    0 -0.58560074918E+02  0.13189462550E+03 -0.52759436550E+03  0.57969413410E+03  0.19200000000E+03 0.  0.
   -5000001    1    1    2    0    0  0.58560074918E+02 -0.13189462550E+03 -0.60210145795E+03  0.64824041858E+03  0.19200000000E+03 0.  0.
<mgrwt>
<rscale>  0 0.48125940E+03</rscale>
<asrwt>0</asrwt>
<pdfrwt beam="1">  1        2 0.16840215E+00 0.48125940E+03</pdfrwt>
<pdfrwt beam="2">  1       -2 0.70170528E-02 0.48125940E+03</pdfrwt>
<totfact> 0.26773674E+03</totfact>
</mgrwt>
</event>
<event>
 4    1  0.5812319E-005  0.1287286E+04  0.7818608E-02  0.9039709E-01
         -2   -1    0    0    0  501 -0.00000000000E+00  0.00000000000E+00  0.33246039197E+03  0.33246039198E+03  0.25500000000E-02 0.  1.
          2   -1    0    0  501    0  0.00000000000E+00 -0.00000000000E+00 -0.12460916093E+04  0.12460916093E+04  0.25500000000E-02 0. -1.
    5000001    1    1    2    0    0  0.41024515080E+03 -0.42468125752E+03 -0.66476354557E+03  0.90963169787E+03  0.19200000000E+03 0.  0.
   -5000001    1    1    2    0    0 -0.41024515080E+03  0.42468125752E+03 -0.24886767171E+03  0.66892030337E+03  0.19200000000E+03 0.  0.
<mgrwt>
<rscale>  0 0.12872857E+04</rscale>
<asrwt>0</asrwt>
<pdfrwt beam="1">  1        2 0.17801308E+00 0.12872857E+04</pdfrwt>
<pdfrwt beam="2">  1       -2 0.47494342E-01 0.12872857E+04</pdfrwt>
<totfact> 0.82950013E+01</totfact>
</mgrwt>
</event>
<event>
 4    1  0.5812319E-005  0.4891219E+03  0.7818608E-02  0.1016658E+00
         -2   -1    0    0    0  501 -0.00000000000E+00  0.00000000000E+00  0.21822888716E+03  0.21822888717E+03  0.25500000000E-02 0. -1.
          2   -1    0    0  501    0  0.00000000000E+00 -0.00000000000E+00 -0.27407032065E+03  0.27407032066E+03  0.25500000000E-02 0.  1.
    5000001    1    1    2    0    0 -0.97228481251E+02  0.10726940098E+03 -0.72774302914E+02  0.25123734022E+03  0.19200000000E+03 0.  0.
   -5000001    1    1    2    0    0  0.97228481251E+02 -0.10726940098E+03  0.16932869423E+02  0.24106186762E+03  0.19200000000E+03 0.  0.
<mgrwt>
<rscale>  0 0.48912191E+03</rscale>
<asrwt>0</asrwt>
<pdfrwt beam="1">  1        2 0.39152903E-01 0.48912191E+03</pdfrwt>
<pdfrwt beam="2">  1       -2 0.31175555E-01 0.48912191E+03</pdfrwt>
<totfact> 0.12563713E+03</totfact>
</mgrwt>
</event>
<event>
 4    1  0.5812319E-005  0.4992652E+03  0.7818608E-02  0.1013971E+00
          2   -1    0    0  501    0  0.00000000000E+00  0.00000000000E+00  0.18607537213E+04  0.18607537213E+04  0.25500000000E-02 0.  1.
         -2   -1    0    0    0  501 -0.00000000000E+00 -0.00000000000E+00 -0.33489889888E+02  0.33489889985E+02  0.25500000000E-02 0. -1.
    5000001    1    1    2    0    0 -0.11719710849E+03 -0.10823269608E+03  0.90710591646E+03  0.94082656341E+03  0.19200000000E+03 0.  0.
   -5000001    1    1    2    0    0  0.11719710849E+03  0.10823269608E+03  0.92015791497E+03  0.95341704790E+03  0.19200000000E+03 0.  0.
<mgrwt>
<rscale>  0 0.49926521E+03</rscale>
<asrwt>0</asrwt>
<pdfrwt beam="1">  1        2 0.26582197E+00 0.49926521E+03</pdfrwt>
<pdfrwt beam="2">  1       -2 0.47842698E-02 0.49926521E+03</pdfrwt>
<totfact> 0.21454186E+03</totfact>
</mgrwt>
</event>
<event>
 4    1  0.5812319E-005  0.6946556E+03  0.7818608E-02  0.9726416E-01
          2   -1    0    0  501    0  0.00000000000E+00  0.00000000000E+00  0.15817030016E+04  0.15817030016E+04  0.25500000000E-02 0.  1.
         -2   -1    0    0    0  501 -0.00000000000E+00 -0.00000000000E+00 -0.76270075475E+02  0.76270075518E+02  0.25500000000E-02 0. -1.
    5000001    1    1    2    0    0 -0.24008372451E+03 -0.13895785901E+03  0.94986774986E+03  0.10079991188E+04  0.19200000000E+03 0.  0.
   -5000001    1    1    2    0    0  0.24008372451E+03  0.13895785901E+03  0.55556517622E+03  0.64997395824E+03  0.19200000000E+03 0.  0.
<mgrwt>
<rscale>  0 0.69465562E+03</rscale>
<asrwt>0</asrwt>
<pdfrwt beam="1">  1        2 0.22595754E+00 0.69465562E+03</pdfrwt>
<pdfrwt beam="2">  1       -2 0.10895727E-01 0.69465562E+03</pdfrwt>
<totfact> 0.80007906E+02</totfact>
</mgrwt>
</event>
<event>
 4    1  0.5812319E-005  0.7867596E+03  0.7818608E-02  0.9579382E-01
          2   -1    0    0  501    0  0.00000000000E+00  0.00000000000E+00  0.11222994351E+03  0.11222994354E+03  0.25500000000E-02 0.  1.
         -2   -1    0    0    0  501 -0.00000000000E+00 -0.00000000000E+00 -0.13788447567E+04  0.13788447567E+04  0.25500000000E-02 0. -1.
    5000001    1    1    2    0    0 -0.12421959129E+03  0.16842680140E+03 -0.11745652728E+03  0.30734041402E+03  0.19200000000E+03 0.  0.
   -5000001    1    1    2    0    0  0.12421959129E+03 -0.16842680140E+03 -0.11491582859E+04  0.11837342862E+04  0.19200000000E+03 0.  0.
<mgrwt>
<rscale>  0 0.78675961E+03</rscale>
<asrwt>0</asrwt>
<pdfrwt beam="1">  1        2 0.16032850E-01 0.78675961E+03</pdfrwt>
<pdfrwt beam="2">  1       -2 0.19697781E+00 0.78675961E+03</pdfrwt>
<totfact> 0.52273478E+01</totfact>
</mgrwt>
</event>
<event>
 4    1  0.5812319E-005  0.4862037E+03  0.7818608E-02  0.1017444E+00
         -2   -1    0    0    0  501 -0.00000000000E+00  0.00000000000E+00  0.62351962612E+02  0.62351962665E+02  0.25500000000E-02 0. -1.
          2   -1    0    0  501    0  0.00000000000E+00 -0.00000000000E+00 -0.94782103899E+03  0.94782103899E+03  0.25500000000E-02 0.  1.
    5000001    1    1    2    0    0  0.13918844412E+03  0.47546006188E+02 -0.39182276306E+03  0.46045968698E+03  0.19200000000E+03 0.  0.
   -5000001    1    1    2    0    0 -0.13918844412E+03 -0.47546006188E+02 -0.49364631332E+03  0.54971331468E+03  0.19200000000E+03 0.  0.
<mgrwt>
<rscale>  0 0.48620367E+03</rscale>
<asrwt>0</asrwt>
<pdfrwt beam="1">  1        2 0.13540300E+00 0.48620367E+03</pdfrwt>
<pdfrwt beam="2">  1       -2 0.89074238E-02 0.48620367E+03</pdfrwt>
<totfact> 0.25078754E+03</totfact>
</mgrwt>
</event>
<event>
 4    1  0.5812319E-005  0.4403488E+03  0.7818608E-02  0.1030640E+00
          2   -1    0    0  501    0  0.00000000000E+00  0.00000000000E+00  0.23103526643E+03  0.23103526644E+03  0.25500000000E-02 0.  1.
         -2   -1    0    0    0  501 -0.00000000000E+00 -0.00000000000E+00 -0.20982414428E+03  0.20982414429E+03  0.25500000000E-02 0. -1.
    5000001    1    1    2    0    0 -0.52408819147E+02  0.89380211526E+02 -0.19047533656E+02  0.21900300243E+03  0.19200000000E+03 0.  0.
   -5000001    1    1    2    0    0  0.52408819147E+02 -0.89380211526E+02  0.40258655805E+02  0.22185640830E+03  0.19200000000E+03 0.  0.
<mgrwt>
<rscale>  0 0.44034885E+03</rscale>
<asrwt>0</asrwt>
<pdfrwt beam="1">  1        2 0.33005038E-01 0.44034885E+03</pdfrwt>
<pdfrwt beam="2">  1       -2 0.29974878E-01 0.44034885E+03</pdfrwt>
<totfact> 0.16296691E+03</totfact>
</mgrwt>
</event>
<event>
 4    1  0.5812319E-005  0.6195555E+03  0.7818608E-02  0.9865645E-01
          2   -1    0    0  501    0  0.00000000000E+00  0.00000000000E+00  0.11309681156E+03  0.11309681159E+03  0.25500000000E-02 0.  1.
         -2   -1    0    0    0  501 -0.00000000000E+00 -0.00000000000E+00 -0.84849667849E+03  0.84849667849E+03  0.25500000000E-02 0. -1.
    5000001    1    1    2    0    0  0.14817467593E+03  0.18202553643E+03 -0.46597474266E+03  0.55595457665E+03  0.19200000000E+03 0.  0.
   -5000001    1    1    2    0    0 -0.14817467593E+03 -0.18202553643E+03 -0.26942512427E+03  0.40563891343E+03  0.19200000000E+03 0.  0.
<mgrwt>
<rscale>  0 0.61955555E+03</rscale>
<asrwt>0</asrwt>
<pdfrwt beam="1">  1        2 0.16156688E-01 0.61955555E+03</pdfrwt>
<pdfrwt beam="2">  1       -2 0.12121381E+00 0.61955555E+03</pdfrwt>
<totfact> 0.19223326E+02</totfact>
</mgrwt>
</event>
<event>
 4    1  0.5812319E-005  0.4771750E+03  0.7818608E-02  0.1019914E+00
          2   -1    0    0  501    0  0.00000000000E+00  0.00000000000E+00  0.12512608759E+04  0.12512608759E+04  0.25500000000E-02 0.  1.
         -2   -1    0    0    0  501 -0.00000000000E+00 -0.00000000000E+00 -0.45493313262E+02  0.45493313333E+02  0.25500000000E-02 0. -1.
    5000001    1    1    2    0    0  0.12081195465E+02 -0.12518086657E+03  0.42584952127E+03  0.48376442553E+03  0.19200000000E+03 0.  0.
   -5000001    1    1    2    0    0 -0.12081195465E+02  0.12518086657E+03  0.77991804134E+03  0.81298976368E+03  0.19200000000E+03 0.  0.
<mgrwt>
<rscale>  0 0.47717503E+03</rscale>
<asrwt>0</asrwt>
<pdfrwt beam="1">  1        2 0.17875154E+00 0.47717503E+03</pdfrwt>
<pdfrwt beam="2">  1       -2 0.64990451E-02 0.47717503E+03</pdfrwt>
<totfact> 0.27535530E+03</totfact>
</mgrwt>
</event>
<event>
 4    1  0.5812319E-005  0.5299421E+03  0.7818608E-02  0.1006246E+00
          2   -1    0    0  501    0  0.00000000000E+00  0.00000000000E+00  0.25458383827E+04  0.25458383827E+04  0.25500000000E-02 0.  1.
         -2   -1    0    0    0  501 -0.00000000000E+00 -0.00000000000E+00 -0.27578205294E+02  0.27578205412E+02  0.25500000000E-02 0. -1.
    5000001    1    1    2    0    0 -0.16461309904E+03  0.41060811672E+02  0.15871259930E+04  0.16076742146E+04  0.19200000000E+03 0.  0.
   -5000001    1    1    2    0    0  0.16461309904E+03 -0.41060811672E+02  0.93113418440E+03  0.96574237350E+03  0.19200000000E+03 0.  0.
<mgrwt>
<rscale>  0 0.52994209E+03</rscale>
<asrwt>0</asrwt>
<pdfrwt beam="1">  1        2 0.36369106E+00 0.52994209E+03</pdfrwt>
<pdfrwt beam="2">  1       -2 0.39397451E-02 0.52994209E+03</pdfrwt>
<totfact> 0.13054551E+03</totfact>
</mgrwt>
</event>
<event>
 4    1  0.5812319E-005  0.4777500E+03  0.7818608E-02  0.1019755E+00
          2   -1    0    0  501    0  0.00000000000E+00  0.00000000000E+00  0.20637611365E+04  0.20637611365E+04  0.25500000000E-02 0.  1.
         -2   -1    0    0    0  501 -0.00000000000E+00 -0.00000000000E+00 -0.27649158435E+02  0.27649158553E+02  0.25500000000E-02 0. -1.
    5000001    1    1    2    0    0 -0.22499880375E+02  0.14025904035E+03  0.10368419404E+04  0.10639943855E+04  0.19200000000E+03 0.  0.
   -5000001    1    1    2    0    0  0.22499880375E+02 -0.14025904035E+03  0.99927003764E+03  0.10274159095E+04  0.19200000000E+03 0.  0.
<mgrwt>
<rscale>  0 0.47774997E+03</rscale>
<asrwt>0</asrwt>
<pdfrwt beam="1">  1        2 0.29482303E+00 0.47774997E+03</pdfrwt>
<pdfrwt beam="2">  1       -2 0.39498796E-02 0.47774997E+03</pdfrwt>
<totfact> 0.22819337E+03</totfact>
</mgrwt>
</event>
<event>
 4    1  0.5812319E-005  0.9700502E+03  0.7818608E-02  0.9342017E-01
          2   -1    0    0  501    0  0.00000000000E+00  0.00000000000E+00  0.38458206869E+04  0.38458206869E+04  0.25500000000E-02 0.  1.
         -2   -1    0    0    0  501 -0.00000000000E+00 -0.00000000000E+00 -0.61170127917E+02  0.61170127970E+02  0.25500000000E-02 0. -1.
    5000001    1    1    2    0    0 -0.28141854141E+03 -0.34083047571E+03  0.16708599874E+04  0.17389648950E+04  0.19200000000E+03 0.  0.
   -5000001    1    1    2    0    0  0.28141854141E+03  0.34083047571E+03  0.21137905716E+04  0.21680259198E+04  0.19200000000E+03 0.  0.
<mgrwt>
<rscale>  0 0.97005019E+03</rscale>
<asrwt>0</asrwt>
<pdfrwt beam="1">  1        2 0.54940305E+00 0.97005019E+03</pdfrwt>
<pdfrwt beam="2">  1       -2 0.87385882E-02 0.97005019E+03</pdfrwt>
<totfact> 0.64843381E+01</totfact>
</mgrwt>
</event>
<event>
 4    1  0.5812319E-005  0.7100623E+03  0.7818608E-02  0.9700177E-01
          2   -1    0    0  501    0  0.00000000000E+00  0.00000000000E+00  0.12376480266E+04  0.12376480266E+04  0.25500000000E-02 0.  1.
         -2   -1    0    0    0  501 -0.00000000000E+00 -0.00000000000E+00 -0.10184407804E+03  0.10184407808E+03  0.25500000000E-02 0. -1.
    5000001    1    1    2    0    0 -0.89505447909E+02 -0.36155780307E+02  0.34786842846E+02  0.21769839248E+03  0.19200000000E+03 0.  0.
   -5000001    1    1    2    0    0  0.89505447909E+02  0.36155780307E+02  0.11010171057E+04  0.11217937121E+04  0.19200000000E+03 0.  0.
<mgrwt>
<rscale>  0 0.71006231E+03</rscale>
<asrwt>0</asrwt>
<pdfrwt beam="1">  1        2 0.17680685E+00 0.71006231E+03</pdfrwt>
<pdfrwt beam="2">  1       -2 0.14549155E-01 0.71006231E+03</pdfrwt>
<totfact> 0.75564535E+02</totfact>
</mgrwt>
</event>
<event>
 4    1  0.5812319E-005  0.4495528E+03  0.7818608E-02  0.1027855E+00
          2   -1    0    0  501    0  0.00000000000E+00  0.00000000000E+00  0.44892528426E+03  0.44892528427E+03  0.25500000000E-02 0.  1.
         -2   -1    0    0    0  501 -0.00000000000E+00 -0.00000000000E+00 -0.11254532105E+03  0.11254532107E+03  0.25500000000E-02 0. -1.
    5000001    1    1    2    0    0  0.62567133339E+02 -0.91377757066E+02  0.12152690562E+03  0.25277921087E+03  0.19200000000E+03 0.  0.
   -5000001    1    1    2    0    0 -0.62567133339E+02  0.91377757066E+02  0.21485305760E+03  0.30869139447E+03  0.19200000000E+03 0.  0.
<mgrwt>
<rscale>  0 0.44955285E+03</rscale>
<asrwt>0</asrwt>
<pdfrwt beam="1">  1        2 0.64132184E-01 0.44955285E+03</pdfrwt>
<pdfrwt beam="2">  1       -2 0.16077903E-01 0.44955285E+03</pdfrwt>
<totfact> 0.23430257E+03</totfact>
</mgrwt>
</event>
<event>
 4    1  0.5812319E-005  0.6603957E+03  0.7818608E-02  0.9787466E-01
         -2   -1    0    0    0  501 -0.00000000000E+00  0.00000000000E+00  0.63348562807E+02  0.63348562858E+02  0.25500000000E-02 0. -1.
          2   -1    0    0  501    0  0.00000000000E+00 -0.00000000000E+00 -0.17211223016E+04  0.17211223016E+04  0.25500000000E-02 0.  1.
    5000001    1    1    2    0    0  0.12053331310E+03  0.22788525868E+03 -0.10330117629E+04  0.10818674933E+04  0.19200000000E+03 0.  0.
   -5000001    1    1    2    0    0 -0.12053331310E+03 -0.22788525868E+03 -0.62476197586E+03  0.70260337117E+03  0.19200000000E+03 0.  0.
<mgrwt>
<rscale>  0 0.66039571E+03</rscale>
<asrwt>0</asrwt>
<pdfrwt beam="1">  1        2 0.24587458E+00 0.66039571E+03</pdfrwt>
<pdfrwt beam="2">  1       -2 0.90497958E-02 0.66039571E+03</pdfrwt>
<totfact> 0.91880344E+02</totfact>
</mgrwt>
</event>
<event>
 4    1  0.5812319E-005  0.7163303E+03  0.7818608E-02  0.9689706E-01
         -2   -1    0    0    0  501 -0.00000000000E+00  0.00000000000E+00  0.22332995812E+03  0.22332995813E+03  0.25500000000E-02 0. -1.
          2   -1    0    0  501    0  0.00000000000E+00 -0.00000000000E+00 -0.57440688994E+03  0.57440688995E+03  0.25500000000E-02 0.  1.
    5000001    1    1    2    0    0 -0.41689229979E+02 -0.28353590480E+03 -0.68213779817E+02  0.35163577885E+03  0.19200000000E+03 0.  0.
   -5000001    1    1    2    0    0  0.41689229979E+02  0.28353590480E+03 -0.28286315201E+03  0.44610106923E+03  0.19200000000E+03 0.  0.
<mgrwt>
<rscale>  0 0.71633028E+03</rscale>
<asrwt>0</asrwt>
<pdfrwt beam="1">  1        2 0.82058127E-01 0.71633028E+03</pdfrwt>
<pdfrwt beam="2">  1       -2 0.31904280E-01 0.71633028E+03</pdfrwt>
<totfact> 0.52431870E+02</totfact>
</mgrwt>
</event>
<event>
 4    1  0.5812319E-005  0.4472890E+03  0.7818608E-02  0.1028534E+00
         -2   -1    0    0    0  501 -0.00000000000E+00  0.00000000000E+00  0.26629585405E+03  0.26629585406E+03  0.25500000000E-02 0. -1.
          2   -1    0    0  501    0  0.00000000000E+00 -0.00000000000E+00 -0.18782438230E+03  0.18782438231E+03  0.25500000000E-02 0.  1.
    5000001    1    1    2    0    0  0.10521659103E+03 -0.99559919751E+01  0.84449024122E+02  0.23487292411E+03  0.19200000000E+03 0.  0.
   -5000001    1    1    2    0    0 -0.10521659103E+03  0.99559919751E+01 -0.59775523713E+01  0.21924731227E+03  0.19200000000E+03 0.  0.
<mgrwt>
<rscale>  0 0.44728896E+03</rscale>
<asrwt>0</asrwt>
<pdfrwt beam="1">  1        2 0.26832055E-01 0.44728896E+03</pdfrwt>
<pdfrwt beam="2">  1       -2 0.38042264E-01 0.44728896E+03</pdfrwt>
<totfact> 0.13140780E+03</totfact>
</mgrwt>
</event>
<event>
 4    1  0.5812319E-005  0.7594496E+03  0.7818608E-02  0.9620641E-01
          2   -1    0    0  501    0  0.00000000000E+00  0.00000000000E+00  0.20987970988E+03  0.20987970989E+03  0.25500000000E-02 0.  1.
         -2   -1    0    0    0  501 -0.00000000000E+00 -0.00000000000E+00 -0.68701691371E+03  0.68701691371E+03  0.25500000000E-02 0. -1.
    5000001    1    1    2    0    0 -0.27540626869E+03  0.51638743952E+02 -0.43902881073E+03  0.55509050556E+03  0.19200000000E+03 0.  0.
   -5000001    1    1    2    0    0  0.27540626869E+03 -0.51638743952E+02 -0.38108393100E+02  0.34180611805E+03  0.19200000000E+03 0.  0.
<mgrwt>
<rscale>  0 0.75944957E+03</rscale>
<asrwt>0</asrwt>
<pdfrwt beam="1">  1        2 0.29982816E-01 0.75944957E+03</pdfrwt>
<pdfrwt beam="2">  1       -2 0.98145272E-01 0.75944957E+03</pdfrwt>
<totfact> 0.15505728E+02</totfact>
</mgrwt>
</event>
<event>
 4    1  0.5812319E-005  0.5339817E+03  0.7818608E-02  0.1005271E+00
          2   -1    0    0  501    0  0.00000000000E+00  0.00000000000E+00  0.26513416316E+03  0.26513416317E+03  0.25500000000E-02 0.  1.
         -2   -1    0    0    0  501 -0.00000000000E+00 -0.00000000000E+00 -0.26886051499E+03  0.26886051501E+03  0.25500000000E-02 0. -1.
    5000001    1    1    2    0    0  0.37848420612E+02 -0.18122737516E+03  0.10147245871E+02  0.26691352728E+03  0.19200000000E+03 0.  0.
   -5000001    1    1    2    0    0 -0.37848420612E+02  0.18122737516E+03 -0.13873597709E+02  0.26708115089E+03  0.19200000000E+03 0.  0.
<mgrwt>
<rscale>  0 0.53398168E+03</rscale>
<asrwt>0</asrwt>
<pdfrwt beam="1">  1        2 0.37876309E-01 0.53398168E+03</pdfrwt>
<pdfrwt beam="2">  1       -2 0.38408645E-01 0.53398168E+03</pdfrwt>
<totfact> 0.87924326E+02</totfact>
</mgrwt>
</event>
<event>
 4    1  0.5812319E-005  0.5558107E+03  0.7818608E-02  0.1000158E+00
         -2   -1    0    0    0  501 -0.00000000000E+00  0.00000000000E+00  0.94264840804E+02  0.94264840839E+02  0.25500000000E-02 0. -1.
          2   -1    0    0  501    0  0.00000000000E+00 -0.00000000000E+00 -0.81930198989E+03  0.81930198989E+03  0.25500000000E-02 0.  1.
    5000001    1    1    2    0    0  0.19253404840E+02 -0.17910072143E+03 -0.21624517956E+03  0.34069596373E+03  0.19200000000E+03 0.  0.
   -5000001    1    1    2    0    0 -0.19253404840E+02  0.17910072143E+03 -0.50879196952E+03  0.57287086700E+03  0.19200000000E+03 0.  0.
<mgrwt>
<rscale>  0 0.55581066E+03</rscale>
<asrwt>0</asrwt>
<pdfrwt beam="1">  1        2 0.11704314E+00 0.55581066E+03</pdfrwt>
<pdfrwt beam="2">  1       -2 0.13466406E-01 0.55581066E+03</pdfrwt>
<totfact> 0.15501988E+03</totfact>
</mgrwt>
</event>
<event>
 4    1  0.5812319E-005  0.5278361E+03  0.7818608E-02  0.1006758E+00
         -2   -1    0    0    0  501 -0.00000000000E+00  0.00000000000E+00  0.49626964448E+03  0.49626964449E+03  0.25500000000E-02 0. -1.
          2   -1    0    0  501    0  0.00000000000E+00 -0.00000000000E+00 -0.14035260543E+03  0.14035260545E+03  0.25500000000E-02 0.  1.
    5000001    1    1    2    0    0  0.81313821378E+02  0.15574865918E+03  0.12512156547E+03  0.28877151613E+03  0.19200000000E+03 0.  0.
   -5000001    1    1    2    0    0 -0.81313821378E+02 -0.15574865918E+03  0.23079547358E+03  0.34785073381E+03  0.19200000000E+03 0.  0.
<mgrwt>
<rscale>  0 0.52783610E+03</rscale>
<asrwt>0</asrwt>
<pdfrwt beam="1">  1        2 0.20050372E-01 0.52783610E+03</pdfrwt>
<pdfrwt beam="2">  1       -2 0.70895664E-01 0.52783610E+03</pdfrwt>
<totfact> 0.51647452E+02</totfact>
</mgrwt>
</event>
<event>
 4    1  0.5812319E-005  0.9954991E+03  0.7818608E-02  0.9313495E-01
         -2   -1    0    0    0  501 -0.00000000000E+00  0.00000000000E+00  0.19514535646E+03  0.19514535647E+03  0.25500000000E-02 0. -1.
          2   -1    0    0  501    0  0.00000000000E+00 -0.00000000000E+00 -0.12695899970E+04  0.12695899970E+04  0.25500000000E-02 0.  1.
    5000001    1    1    2    0    0 -0.44786452499E+02 -0.39768962109E+03 -0.20583107408E+03  0.48927833807E+03  0.19200000000E+03 0.  0.
   -5000001    1    1    2    0    0  0.44786452499E+02  0.39768962109E+03 -0.86861356645E+03  0.97545701539E+03  0.19200000000E+03 0.  0.
<mgrwt>
<rscale>  0 0.99549906E+03</rscale>
<asrwt>0</asrwt>
<pdfrwt beam="1">  1        2 0.18137000E+00 0.99549906E+03</pdfrwt>
<pdfrwt beam="2">  1       -2 0.27877909E-01 0.99549906E+03</pdfrwt>
<totfact> 0.22840575E+02</totfact>
</mgrwt>
</event>
<event>
 4    1  0.5812319E-005  0.5968351E+03  0.7818608E-02  0.9911994E-01
          2   -1    0    0  501    0  0.00000000000E+00  0.00000000000E+00  0.25698744952E+04  0.25698744952E+04  0.25500000000E-02 0.  1.
         -2   -1    0    0    0  501 -0.00000000000E+00 -0.00000000000E+00 -0.34652682033E+02  0.34652682127E+02  0.25500000000E-02 0. -1.
    5000001    1    1    2    0    0 -0.10283646270E+02 -0.22786234793E+03  0.13231612594E+04  0.13563357701E+04  0.19200000000E+03 0.  0.
   -5000001    1    1    2    0    0  0.10283646270E+02  0.22786234793E+03  0.12120605538E+04  0.12481914072E+04  0.19200000000E+03 0.  0.
<mgrwt>
<rscale>  0 0.59683513E+03</rscale>
<asrwt>0</asrwt>
<pdfrwt beam="1">  1        2 0.36712505E+00 0.59683513E+03</pdfrwt>
<pdfrwt beam="2">  1       -2 0.49503816E-02 0.59683513E+03</pdfrwt>
<totfact> 0.88805801E+02</totfact>
</mgrwt>
</event>
<event>
 4    1  0.5812319E-005  0.7465137E+03  0.7818608E-02  0.9640836E-01
          2   -1    0    0  501    0  0.00000000000E+00  0.00000000000E+00  0.23898627203E+03  0.23898627204E+03  0.25500000000E-02 0.  1.
         -2   -1    0    0    0  501 -0.00000000000E+00 -0.00000000000E+00 -0.58296525037E+03  0.58296525038E+03  0.25500000000E-02 0. -1.
    5000001    1    1    2    0    0 -0.21531905034E+03 -0.17590930242E+03  0.26249359698E+01  0.33790126725E+03  0.19200000000E+03 0.  0.
   -5000001    1    1    2    0    0  0.21531905034E+03  0.17590930242E+03 -0.34660391431E+03  0.48405025517E+03  0.19200000000E+03 0.  0.
<mgrwt>
<rscale>  0 0.74651374E+03</rscale>
<asrwt>0</asrwt>
<pdfrwt beam="1">  1        2 0.34140896E-01 0.74651374E+03</pdfrwt>
<pdfrwt beam="2">  1       -2 0.83280749E-01 0.74651374E+03</pdfrwt>
<totfact> 0.19582297E+02</totfact>
</mgrwt>
</event>
<event>
 4    1  0.5812319E-005  0.5148845E+03  0.7818608E-02  0.1009965E+00
          2   -1    0    0  501    0  0.00000000000E+00  0.00000000000E+00  0.50821623447E+03  0.50821623448E+03  0.25500000000E-02 0.  1.
         -2   -1    0    0    0  501 -0.00000000000E+00 -0.00000000000E+00 -0.13041006294E+03  0.13041006297E+03  0.25500000000E-02 0. -1.
    5000001    1    1    2    0    0  0.18311032357E+02  0.14526609713E+03  0.78138293638E+02  0.25378559024E+03  0.19200000000E+03 0.  0.
   -5000001    1    1    2    0    0 -0.18311032357E+02 -0.14526609713E+03  0.29966787789E+03  0.38484070720E+03  0.19200000000E+03 0.  0.
<mgrwt>
<rscale>  0 0.51488450E+03</rscale>
<asrwt>0</asrwt>
<pdfrwt beam="1">  1        2 0.72602318E-01 0.51488450E+03</pdfrwt>
<pdfrwt beam="2">  1       -2 0.18630009E-01 0.51488450E+03</pdfrwt>
<totfact> 0.15876422E+03</totfact>
</mgrwt>
</event>
<event>
 4    1  0.5812319E-005  0.5840752E+03  0.7818608E-02  0.9939007E-01
         -2   -1    0    0    0  501 -0.00000000000E+00  0.00000000000E+00  0.43916758057E+02  0.43916758131E+02  0.25500000000E-02 0. -1.
          2   -1    0    0  501    0  0.00000000000E+00 -0.00000000000E+00 -0.19419915108E+04  0.19419915108E+04  0.25500000000E-02 0.  1.
    5000001    1    1    2    0    0 -0.19179481858E+03  0.93419838567E+02 -0.11324359869E+04  0.11682413206E+04  0.19200000000E+03 0.  0.
   -5000001    1    1    2    0    0  0.19179481858E+03 -0.93419838567E+02 -0.76563876580E+03  0.81766694831E+03  0.19200000000E+03 0.  0.
<mgrwt>
<rscale>  0 0.58407524E+03</rscale>
<asrwt>0</asrwt>
<pdfrwt beam="1">  1        2 0.27742730E+00 0.58407524E+03</pdfrwt>
<pdfrwt beam="2">  1       -2 0.62738238E-02 0.58407524E+03</pdfrwt>
<totfact> 0.12769273E+03</totfact>
</mgrwt>
</event>
<event>
 4    1  0.5812319E-005  0.4649809E+03  0.7818608E-02  0.1023346E+00
          2   -1    0    0  501    0  0.00000000000E+00  0.00000000000E+00  0.71721210995E+03  0.71721210995E+03  0.25500000000E-02 0.  1.
         -2   -1    0    0    0  501 -0.00000000000E+00 -0.00000000000E+00 -0.75363754980E+02  0.75363755023E+02  0.25500000000E-02 0. -1.
    5000001    1    1    2    0    0  0.12988667119E+03  0.14410371415E+02  0.30308008854E+03  0.38183732954E+03  0.19200000000E+03 0.  0.
   -5000001    1    1    2    0    0 -0.12988667119E+03 -0.14410371415E+02  0.33876826642E+03  0.41073853544E+03  0.19200000000E+03 0.  0.
<mgrwt>
<rscale>  0 0.46498085E+03</rscale>
<asrwt>0</asrwt>
<pdfrwt beam="1">  1        2 0.10245887E+00 0.46498085E+03</pdfrwt>
<pdfrwt beam="2">  1       -2 0.10766251E-01 0.46498085E+03</pdfrwt>
<totfact> 0.26432613E+03</totfact>
</mgrwt>
</event>
<event>
 4    1  0.5812319E-005  0.1142147E+04  0.7818608E-02  0.9165059E-01
          2   -1    0    0  501    0  0.00000000000E+00  0.00000000000E+00  0.10621414792E+04  0.10621414792E+04  0.25500000000E-02 0.  1.
         -2   -1    0    0    0  501 -0.00000000000E+00 -0.00000000000E+00 -0.30704462734E+03  0.30704462735E+03  0.25500000000E-02 0. -1.
    5000001    1    1    2    0    0 -0.52909382328E+03 -0.28436652883E+02  0.48814820453E+03  0.74558808107E+03  0.19200000000E+03 0.  0.
   -5000001    1    1    2    0    0  0.52909382328E+03  0.28436652883E+02  0.26694864730E+03  0.62359802546E+03  0.19200000000E+03 0.  0.
<mgrwt>
<rscale>  0 0.11421468E+04</rscale>
<asrwt>0</asrwt>
<pdfrwt beam="1">  1        2 0.15173450E+00 0.11421468E+04</pdfrwt>
<pdfrwt beam="2">  1       -2 0.43863519E-01 0.11421468E+04</pdfrwt>
<totfact> 0.12554216E+02</totfact>
</mgrwt>
</event>
<event>
 4    1  0.5812319E-005  0.5532854E+03  0.7818608E-02  0.1000736E+00
          2   -1    0    0  501    0  0.00000000000E+00  0.00000000000E+00  0.22874097972E+04  0.22874097972E+04  0.25500000000E-02 0.  1.
         -2   -1    0    0    0  501 -0.00000000000E+00 -0.00000000000E+00 -0.33457577419E+02  0.33457577516E+02  0.25500000000E-02 0. -1.
    5000001    1    1    2    0    0  0.13238530713E+03 -0.14817458507E+03  0.11841247139E+04  0.12159345851E+04  0.19200000000E+03 0.  0.
   -5000001    1    1    2    0    0 -0.13238530713E+03  0.14817458507E+03  0.10698275059E+04  0.11049327896E+04  0.19200000000E+03 0.  0.
<mgrwt>
<rscale>  0 0.55328543E+03</rscale>
<asrwt>0</asrwt>
<pdfrwt beam="1">  1        2 0.32677295E+00 0.55328543E+03</pdfrwt>
<pdfrwt beam="2">  1       -2 0.47796522E-02 0.55328543E+03</pdfrwt>
<totfact> 0.13102867E+03</totfact>
</mgrwt>
</event>
<event>
 4    1  0.5812319E-005  0.7071527E+03  0.7818608E-02  0.9705078E-01
          2   -1    0    0  501    0  0.00000000000E+00  0.00000000000E+00  0.56446064879E+03  0.56446064880E+03  0.25500000000E-02 0.  1.
         -2   -1    0    0    0  501 -0.00000000000E+00 -0.00000000000E+00 -0.22147910035E+03  0.22147910037E+03  0.25500000000E-02 0. -1.
    5000001    1    1    2    0    0 -0.68210629274E+02  0.14665316121E+03 -0.10523222897E+03  0.27220885668E+03  0.19200000000E+03 0.  0.
   -5000001    1    1    2    0    0  0.68210629274E+02 -0.14665316121E+03  0.44821377741E+03  0.51373089249E+03  0.19200000000E+03 0.  0.
<mgrwt>
<rscale>  0 0.70715270E+03</rscale>
<asrwt>0</asrwt>
<pdfrwt beam="1">  1        2 0.80637234E-01 0.70715270E+03</pdfrwt>
<pdfrwt beam="2">  1       -2 0.31639872E-01 0.70715270E+03</pdfrwt>
<totfact> 0.54366971E+02</totfact>
</mgrwt>
</event>
<event>
 4    1  0.5812319E-005  0.4850131E+03  0.7818608E-02  0.1017766E+00
          2   -1    0    0  501    0  0.00000000000E+00  0.00000000000E+00  0.28061905357E+04  0.28061905357E+04  0.25500000000E-02 0.  1.
         -2   -1    0    0    0  501 -0.00000000000E+00 -0.00000000000E+00 -0.20957028743E+02  0.20957028898E+02  0.25500000000E-02 0. -1.
    5000001    1    1    2    0    0 -0.49346276892E+01 -0.13887021682E+03  0.16918971824E+04  0.17084172100E+04  0.19200000000E+03 0.  0.
   -5000001    1    1    2    0    0  0.49346276892E+01  0.13887021682E+03  0.10933363246E+04  0.11187303546E+04  0.19200000000E+03 0.  0.
<mgrwt>
<rscale>  0 0.48501306E+03</rscale>
<asrwt>0</asrwt>
<pdfrwt beam="1">  1        2 0.40088469E+00 0.48501306E+03</pdfrwt>
<pdfrwt beam="2">  1       -2 0.29938588E-02 0.48501306E+03</pdfrwt>
<totfact> 0.14569036E+03</totfact>
</mgrwt>
</event>
<event>
 4    1  0.5812319E-005  0.5062492E+03  0.7818608E-02  0.1012161E+00
         -2   -1    0    0    0  501 -0.00000000000E+00  0.00000000000E+00  0.68712019042E+02  0.68712019089E+02  0.25500000000E-02 0. -1.
          2   -1    0    0  501    0  0.00000000000E+00 -0.00000000000E+00 -0.93247251417E+03  0.93247251417E+03  0.25500000000E-02 0.  1.
    5000001    1    1    2    0    0  0.13651571301E+03  0.90276249280E+02 -0.39126715818E+03  0.46555378868E+03  0.19200000000E+03 0.  0.
   -5000001    1    1    2    0    0 -0.13651571301E+03 -0.90276249280E+02 -0.47249333694E+03  0.53563074458E+03  0.19200000000E+03 0.  0.
<mgrwt>
<rscale>  0 0.50624922E+03</rscale>
<asrwt>0</asrwt>
<pdfrwt beam="1">  1        2 0.13321035E+00 0.50624922E+03</pdfrwt>
<pdfrwt beam="2">  1       -2 0.98160033E-02 0.50624922E+03</pdfrwt>
<totfact> 0.21937560E+03</totfact>
</mgrwt>
</event>
<event>
 4    1  0.5812319E-005  0.6852498E+03  0.7818608E-02  0.9742795E-01
         -2   -1    0    0    0  501 -0.00000000000E+00  0.00000000000E+00  0.54283078882E+02  0.54283078942E+02  0.25500000000E-02 0. -1.
          2   -1    0    0  501    0  0.00000000000E+00 -0.00000000000E+00 -0.21625860408E+04  0.21625860408E+04  0.25500000000E-02 0.  1.
    5000001    1    1    2    0    0 -0.27923116125E+03 -0.44416870066E+02 -0.11323939745E+04  0.11828453040E+04  0.19200000000E+03 0.  0.
   -5000001    1    1    2    0    0  0.27923116125E+03  0.44416870066E+02 -0.97590898742E+03  0.10340238157E+04  0.19200000000E+03 0.  0.
<mgrwt>
<rscale>  0 0.68524982E+03</rscale>
<asrwt>0</asrwt>
<pdfrwt beam="1">  1        2 0.30894081E+00 0.68524982E+03</pdfrwt>
<pdfrwt beam="2">  1       -2 0.77547269E-02 0.68524982E+03</pdfrwt>
<totfact> 0.70304171E+02</totfact>
</mgrwt>
</event>
<event>
 4    1  0.5812319E-005  0.6852067E+03  0.7818608E-02  0.9742871E-01
          2   -1    0    0  501    0  0.00000000000E+00  0.00000000000E+00  0.11684990848E+04  0.11684990848E+04  0.25500000000E-02 0.  1.
         -2   -1    0    0    0  501 -0.00000000000E+00 -0.00000000000E+00 -0.10045113491E+03  0.10045113494E+03  0.25500000000E-02 0. -1.
    5000001    1    1    2    0    0  0.24953129265E+03 -0.12874192670E+03  0.60976536006E+03  0.69822499528E+03  0.19200000000E+03 0.  0.
   -5000001    1    1    2    0    0 -0.24953129265E+03  0.12874192670E+03  0.45828258988E+03  0.57072522451E+03  0.19200000000E+03 0.  0.
<mgrwt>
<rscale>  0 0.68520671E+03</rscale>
<asrwt>0</asrwt>
<pdfrwt beam="1">  1        2 0.16692844E+00 0.68520671E+03</pdfrwt>
<pdfrwt beam="2">  1       -2 0.14350162E-01 0.68520671E+03</pdfrwt>
<totfact> 0.84664257E+02</totfact>
</mgrwt>
</event>
<event>
 4    1  0.5812319E-005  0.6249240E+03  0.7818608E-02  0.9855005E-01
         -2   -1    0    0    0  501 -0.00000000000E+00  0.00000000000E+00  0.59489934748E+02  0.59489934802E+02  0.25500000000E-02 0. -1.
          2   -1    0    0  501    0  0.00000000000E+00 -0.00000000000E+00 -0.16411597546E+04  0.16411597546E+04  0.25500000000E-02 0.  1.
    5000001    1    1    2    0    0 -0.14049667312E+03  0.14138410621E+03 -0.39609819051E+03  0.48320446725E+03  0.19200000000E+03 0.  0.
   -5000001    1    1    2    0    0  0.14049667312E+03 -0.14138410621E+03 -0.11855716294E+04  0.12174452222E+04  0.19200000000E+03 0.  0.
<mgrwt>
<rscale>  0 0.62492395E+03</rscale>
<asrwt>0</asrwt>
<pdfrwt beam="1">  1        2 0.23445137E+00 0.62492395E+03</pdfrwt>
<pdfrwt beam="2">  1       -2 0.84985631E-02 0.62492395E+03</pdfrwt>
<totfact> 0.11184868E+03</totfact>
</mgrwt>
</event>
<event>
 4    1  0.5812319E-005  0.5835267E+03  0.7818608E-02  0.9940185E-01
          2   -1    0    0  501    0  0.00000000000E+00  0.00000000000E+00  0.39624585335E+03  0.39624585336E+03  0.25500000000E-02 0.  1.
         -2   -1    0    0    0  501 -0.00000000000E+00 -0.00000000000E+00 -0.21483086913E+03  0.21483086914E+03  0.25500000000E-02 0. -1.
    5000001    1    1    2    0    0  0.14202327093E+03 -0.12442076732E+03  0.20830678414E+03  0.34045095557E+03  0.19200000000E+03 0.  0.
   -5000001    1    1    2    0    0 -0.14202327093E+03  0.12442076732E+03 -0.26891799917E+02  0.27062576694E+03  0.19200000000E+03 0.  0.
<mgrwt>
<rscale>  0 0.58352666E+03</rscale>
<asrwt>0</asrwt>
<pdfrwt beam="1">  1        2 0.56606551E-01 0.58352666E+03</pdfrwt>
<pdfrwt beam="2">  1       -2 0.30690124E-01 0.58352666E+03</pdfrwt>
<totfact> 0.86147080E+02</totfact>
</mgrwt>
</event>
<event>
 4    1  0.5812319E-005  0.4251805E+03  0.7818608E-02  0.1035393E+00
          2   -1    0    0  501    0  0.00000000000E+00  0.00000000000E+00  0.17390256906E+03  0.17390256907E+03  0.25500000000E-02 0.  1.
         -2   -1    0    0    0  501 -0.00000000000E+00 -0.00000000000E+00 -0.25988462744E+03  0.25988462746E+03  0.25500000000E-02 0. -1.
    5000001    1    1    2    0    0  0.62654323350E+02  0.27398091848E+02 -0.10466622992E+03  0.22911839594E+03  0.19200000000E+03 0.  0.
   -5000001    1    1    2    0    0 -0.62654323350E+02 -0.27398091848E+02  0.18684171527E+02  0.20466880060E+03  0.19200000000E+03 0.  0.
<mgrwt>
<rscale>  0 0.42518045E+03</rscale>
<asrwt>0</asrwt>
<pdfrwt beam="1">  1        2 0.24843224E-01 0.42518045E+03</pdfrwt>
<pdfrwt beam="2">  1       -2 0.37126375E-01 0.42518045E+03</pdfrwt>
<totfact> 0.15011508E+03</totfact>
</mgrwt>
</event>
<event>
 4    1  0.5812319E-005  0.5898071E+03  0.7818608E-02  0.9926782E-01
          2   -1    0    0  501    0  0.00000000000E+00  0.00000000000E+00  0.56363950870E+03  0.56363950871E+03  0.25500000000E-02 0.  1.
         -2   -1    0    0    0  501 -0.00000000000E+00 -0.00000000000E+00 -0.15429740508E+03  0.15429740510E+03  0.25500000000E-02 0. -1.
    5000001    1    1    2    0    0 -0.20241044570E+03  0.34875488360E+02  0.31298371219E+03  0.42072448504E+03  0.19200000000E+03 0.  0.
   -5000001    1    1    2    0    0  0.20241044570E+03 -0.34875488360E+02  0.96358391435E+02  0.29721242877E+03  0.19200000000E+03 0.  0.
<mgrwt>
<rscale>  0 0.58980713E+03</rscale>
<asrwt>0</asrwt>
<pdfrwt beam="1">  1        2 0.80519930E-01 0.58980713E+03</pdfrwt>
<pdfrwt beam="2">  1       -2 0.22042486E-01 0.58980713E+03</pdfrwt>
<totfact> 0.10515014E+03</totfact>
</mgrwt>
</event>
<event>
 4    1  0.5812319E-005  0.6940151E+03  0.7818608E-02  0.9727522E-01
          2   -1    0    0  501    0  0.00000000000E+00  0.00000000000E+00  0.35828459631E+04  0.35828459631E+04  0.25500000000E-02 0.  1.
         -2   -1    0    0    0  501 -0.00000000000E+00 -0.00000000000E+00 -0.33608540701E+02  0.33608540798E+02  0.25500000000E-02 0. -1.
    5000001    1    1    2    0    0  0.20102128204E+02 -0.22235582703E+03  0.81796461700E+03  0.86935396935E+03  0.19200000000E+03 0.  0.
   -5000001    1    1    2    0    0 -0.20102128204E+02  0.22235582703E+03  0.27312728054E+04  0.27471005346E+04  0.19200000000E+03 0.  0.
<mgrwt>
<rscale>  0 0.69401506E+03</rscale>
<asrwt>0</asrwt>
<pdfrwt beam="1">  1        2 0.51183487E+00 0.69401506E+03</pdfrwt>
<pdfrwt beam="2">  1       -2 0.48012226E-02 0.69401506E+03</pdfrwt>
<totfact> 0.25286328E+02</totfact>
</mgrwt>
</event>
<event>
 4    1  0.5812319E-005  0.1590490E+04  0.7818608E-02  0.8826412E-01
          2   -1    0    0  501    0  0.00000000000E+00  0.00000000000E+00  0.17064390243E+04  0.17064390243E+04  0.25500000000E-02 0.  1.
         -2   -1    0    0    0  501 -0.00000000000E+00 -0.00000000000E+00 -0.37060499424E+03  0.37060499425E+03  0.25500000000E-02 0. -1.
    5000001    1    1    2    0    0 -0.23177274717E+03  0.61634643599E+03  0.11934551158E+04  0.13765175803E+04  0.19200000000E+03 0.  0.
   -5000001    1    1    2    0    0  0.23177274717E+03 -0.61634643599E+03  0.14237891431E+03  0.70052643828E+03  0.19200000000E+03 0.  0.
<mgrwt>
<rscale>  0 0.15904903E+04</rscale>
<asrwt>0</asrwt>
<pdfrwt beam="1">  1        2 0.24377700E+00 0.15904903E+04</pdfrwt>
<pdfrwt beam="2">  1       -2 0.52943570E-01 0.15904903E+04</pdfrwt>
<totfact> 0.36815231E+01</totfact>
</mgrwt>
</event>
<event>
 4    1  0.5812319E-005  0.6082721E+03  0.7818608E-02  0.9888391E-01
          2   -1    0    0  501    0  0.00000000000E+00  0.00000000000E+00  0.11100979356E+04  0.11100979356E+04  0.25500000000E-02 0.  1.
         -2   -1    0    0    0  501 -0.00000000000E+00 -0.00000000000E+00 -0.83324856851E+02  0.83324856890E+02  0.25500000000E-02 0. -1.
    5000001    1    1    2    0    0  0.23396523865E+03  0.20997536761E+02  0.55519678688E+03  0.63268325535E+03  0.19200000000E+03 0.  0.
   -5000001    1    1    2    0    0 -0.23396523865E+03 -0.20997536761E+02  0.47157629184E+03  0.56073953711E+03  0.19200000000E+03 0.  0.
<mgrwt>
<rscale>  0 0.60827215E+03</rscale>
<asrwt>0</asrwt>
<pdfrwt beam="1">  1        2 0.15858541E+00 0.60827215E+03</pdfrwt>
<pdfrwt beam="2">  1       -2 0.11903552E-01 0.60827215E+03</pdfrwt>
<totfact> 0.12508714E+03</totfact>
</mgrwt>
</event>
<event>
 4    1  0.5812319E-005  0.4119774E+03  0.7818608E-02  0.1039709E+00
          2   -1    0    0  501    0  0.00000000000E+00  0.00000000000E+00  0.21309106871E+04  0.21309106871E+04  0.25500000000E-02 0.  1.
         -2   -1    0    0    0  501 -0.00000000000E+00 -0.00000000000E+00 -0.19912306226E+02  0.19912306389E+02  0.25500000000E-02 0. -1.
    5000001    1    1    2    0    0 -0.38878214709E+02  0.30272913433E+02  0.13480176739E+04  0.13625137114E+04  0.19200000000E+03 0.  0.
   -5000001    1    1    2    0    0  0.38878214709E+02 -0.30272913433E+02  0.76298070702E+03  0.78830928204E+03  0.19200000000E+03 0.  0.
<mgrwt>
<rscale>  0 0.41197741E+03</rscale>
<asrwt>0</asrwt>
<pdfrwt beam="1">  1        2 0.30441571E+00 0.41197741E+03</pdfrwt>
<pdfrwt beam="2">  1       -2 0.28446162E-02 0.41197741E+03</pdfrwt>
<totfact> 0.34826121E+03</totfact>
</mgrwt>
</event>
<event>
 4    1  0.5812319E-005  0.5620446E+03  0.7818608E-02  0.9987439E-01
         -2   -1    0    0    0  501 -0.00000000000E+00  0.00000000000E+00  0.20306800066E+03  0.20306800067E+03  0.25500000000E-02 0. -1.
          2   -1    0    0  501    0  0.00000000000E+00 -0.00000000000E+00 -0.38890190882E+03  0.38890190883E+03  0.25500000000E-02 0.  1.
    5000001    1    1    2    0    0 -0.16134536128E+03  0.52075466562E+02 -0.21468100082E+03  0.33420968259E+03  0.19200000000E+03 0.  0.
   -5000001    1    1    2    0    0  0.16134536128E+03 -0.52075466562E+02  0.28847092658E+02  0.25776022691E+03  0.19200000000E+03 0.  0.
<mgrwt>
<rscale>  0 0.56204460E+03</rscale>
<asrwt>0</asrwt>
<pdfrwt beam="1">  1        2 0.55557415E-01 0.56204460E+03</pdfrwt>
<pdfrwt beam="2">  1       -2 0.29009714E-01 0.56204460E+03</pdfrwt>
<totfact> 0.97594203E+02</totfact>
</mgrwt>
</event>
<event>
 4    1  0.5812319E-005  0.4938566E+03  0.7818608E-02  0.1015395E+00
         -2   -1    0    0    0  501 -0.00000000000E+00  0.00000000000E+00  0.30341877125E+02  0.30341877232E+02  0.25500000000E-02 0. -1.
          2   -1    0    0  501    0  0.00000000000E+00 -0.00000000000E+00 -0.20095520389E+04  0.20095520389E+04  0.25500000000E-02 0.  1.
    5000001    1    1    2    0    0 -0.10810607798E+03  0.15286281232E+02 -0.53357810222E+03  0.57748609131E+03  0.19200000000E+03 0.  0.
   -5000001    1    1    2    0    0  0.10810607798E+03 -0.15286281232E+02 -0.14456320596E+04  0.14624078248E+04  0.19200000000E+03 0.  0.
<mgrwt>
<rscale>  0 0.49385658E+03</rscale>
<asrwt>0</asrwt>
<pdfrwt beam="1">  1        2 0.28707878E+00 0.49385658E+03</pdfrwt>
<pdfrwt beam="2">  1       -2 0.43345551E-02 0.49385658E+03</pdfrwt>
<totfact> 0.21049938E+03</totfact>
</mgrwt>
</event>
<event>
 4    1  0.5812319E-005  0.4873362E+03  0.7818608E-02  0.1017138E+00
         -2   -1    0    0    0  501 -0.00000000000E+00  0.00000000000E+00  0.35662979051E+02  0.35662979142E+02  0.25500000000E-02 0. -1.
          2   -1    0    0  501    0  0.00000000000E+00 -0.00000000000E+00 -0.16648675075E+04  0.16648675075E+04  0.25500000000E-02 0.  1.
    5000001    1    1    2    0    0 -0.89666766251E+01  0.14554463813E+03 -0.69140514538E+03  0.73223542528E+03  0.19200000000E+03 0.  0.
   -5000001    1    1    2    0    0  0.89666766251E+01 -0.14554463813E+03 -0.93779938308E+03  0.96829506138E+03  0.19200000000E+03 0.  0.
<mgrwt>
<rscale>  0 0.48733617E+03</rscale>
<asrwt>0</asrwt>
<pdfrwt beam="1">  1        2 0.23783817E+00 0.48733617E+03</pdfrwt>
<pdfrwt beam="2">  1       -2 0.50947123E-02 0.48733617E+03</pdfrwt>
<totfact> 0.24435800E+03</totfact>
</mgrwt>
</event>
<event>
 4    1  0.5812319E-005  0.6076073E+03  0.7818608E-02  0.9889748E-01
         -2   -1    0    0    0  501 -0.00000000000E+00  0.00000000000E+00  0.25480803683E+02  0.25480803810E+02  0.25500000000E-02 0. -1.
          2   -1    0    0  501    0  0.00000000000E+00 -0.00000000000E+00 -0.36222033539E+04  0.36222033539E+04  0.25500000000E-02 0.  1.
    5000001    1    1    2    0    0 -0.14754107913E+03  0.16702908455E+03 -0.13425182723E+04  0.13743676351E+04  0.19200000000E+03 0.  0.
   -5000001    1    1    2    0    0  0.14754107913E+03 -0.16702908455E+03 -0.22542042779E+04  0.22733165225E+04  0.19200000000E+03 0.  0.
<mgrwt>
<rscale>  0 0.60760728E+03</rscale>
<asrwt>0</asrwt>
<pdfrwt beam="1">  1        2 0.51745729E+00 0.60760728E+03</pdfrwt>
<pdfrwt beam="2">  1       -2 0.36401171E-02 0.60760728E+03</pdfrwt>
<totfact> 0.37059181E+02</totfact>
</mgrwt>
</event>
<event>
 4    1  0.5812319E-005  0.5778730E+03  0.7818608E-02  0.9952407E-01
         -2   -1    0    0    0  501 -0.00000000000E+00  0.00000000000E+00  0.14298802602E+03  0.14298802604E+03  0.25500000000E-02 0. -1.
          2   -1    0    0  501    0  0.00000000000E+00 -0.00000000000E+00 -0.58385515148E+03  0.58385515148E+03  0.25500000000E-02 0.  1.
    5000001    1    1    2    0    0 -0.23591435269E+02 -0.20329499888E+03 -0.30698274419E+03  0.41591804195E+03  0.19200000000E+03 0.  0.
   -5000001    1    1    2    0    0  0.23591435269E+02  0.20329499888E+03 -0.13388438127E+03  0.31092513558E+03  0.19200000000E+03 0.  0.
<mgrwt>
<rscale>  0 0.57787298E+03</rscale>
<asrwt>0</asrwt>
<pdfrwt beam="1">  1        2 0.83407878E-01 0.57787298E+03</pdfrwt>
<pdfrwt beam="2">  1       -2 0.20426861E-01 0.57787298E+03</pdfrwt>
<totfact> 0.11535237E+03</totfact>
</mgrwt>
</event>
<event>
 4    1  0.5812319E-005  0.4250561E+03  0.7818608E-02  0.1035433E+00
          2   -1    0    0  501    0  0.00000000000E+00  0.00000000000E+00  0.37114582167E+04  0.37114582167E+04  0.25500000000E-02 0.  1.
         -2   -1    0    0    0  501 -0.00000000000E+00 -0.00000000000E+00 -0.12169926807E+02  0.12169927075E+02  0.25500000000E-02 0. -1.
    5000001    1    1    2    0    0 -0.62057903678E+02 -0.66719315640E+02  0.18388264540E+04  0.18510670918E+04  0.19200000000E+03 0.  0.
   -5000001    1    1    2    0    0  0.62057903678E+02  0.66719315640E+02  0.18604618359E+04  0.18725610520E+04  0.19200000000E+03 0.  0.
<mgrwt>
<rscale>  0 0.42505612E+03</rscale>
<asrwt>0</asrwt>
<pdfrwt beam="1">  1        2 0.53020861E+00 0.42505612E+03</pdfrwt>
<pdfrwt beam="2">  1       -2 0.17385600E-02 0.42505612E+03</pdfrwt>
<totfact> 0.10188806E+03</totfact>
</mgrwt>
</event>
<event>
 4    1  0.5812319E-005  0.5099366E+03  0.7818608E-02  0.1011217E+00
          2   -1    0    0  501    0  0.00000000000E+00  0.00000000000E+00  0.23017764854E+04  0.23017764854E+04  0.25500000000E-02 0.  1.
         -2   -1    0    0    0  501 -0.00000000000E+00 -0.00000000000E+00 -0.28242896115E+02  0.28242896230E+02  0.25500000000E-02 0. -1.
    5000001    1    1    2    0    0 -0.11198693574E+03  0.10949418949E+03  0.86205047266E+03  0.89695321434E+03  0.19200000000E+03 0.  0.
   -5000001    1    1    2    0    0  0.11198693574E+03 -0.10949418949E+03  0.14114831166E+04  0.14330661673E+04  0.19200000000E+03 0.  0.
<mgrwt>
<rscale>  0 0.50993660E+03</rscale>
<asrwt>0</asrwt>
<pdfrwt beam="1">  1        2 0.32882518E+00 0.50993660E+03</pdfrwt>
<pdfrwt beam="2">  1       -2 0.40346999E-02 0.50993660E+03</pdfrwt>
<totfact> 0.16765733E+03</totfact>
</mgrwt>
</event>
<event>
 4    1  0.5812319E-005  0.7929169E+03  0.7818608E-02  0.9570327E-01
          2   -1    0    0  501    0  0.00000000000E+00  0.00000000000E+00  0.29176205916E+04  0.29176205916E+04  0.25500000000E-02 0.  1.
         -2   -1    0    0    0  501 -0.00000000000E+00 -0.00000000000E+00 -0.53872431658E+02  0.53872431719E+02  0.25500000000E-02 0. -1.
    5000001    1    1    2    0    0  0.14598618956E+02 -0.14488350964E+03  0.25207548595E+03  0.34872682956E+03  0.19200000000E+03 0.  0.
   -5000001    1    1    2    0    0 -0.14598618956E+02  0.14488350964E+03  0.26116726740E+04  0.26227661938E+04  0.19200000000E+03 0.  0.
<mgrwt>
<rscale>  0 0.79291693E+03</rscale>
<asrwt>0</asrwt>
<pdfrwt beam="1">  1        2 0.41680304E+00 0.79291693E+03</pdfrwt>
<pdfrwt beam="2">  1       -2 0.76960598E-02 0.79291693E+03</pdfrwt>
<totfact> 0.28564000E+02</totfact>
</mgrwt>
</event>
<event>
 4    1  0.5812319E-005  0.4770782E+03  0.7818608E-02  0.1019941E+00
         -2   -1    0    0    0  501 -0.00000000000E+00  0.00000000000E+00  0.42264892790E+03  0.42264892790E+03  0.25500000000E-02 0. -1.
          2   -1    0    0  501    0  0.00000000000E+00 -0.00000000000E+00 -0.13462921358E+03  0.13462921360E+03  0.25500000000E-02 0.  1.
    5000001    1    1    2    0    0  0.91522832741E+02  0.83255403652E+02  0.22433790359E+03  0.32015525318E+03  0.19200000000E+03 0.  0.
   -5000001    1    1    2    0    0 -0.91522832741E+02 -0.83255403652E+02  0.63681810727E+02  0.23712288833E+03  0.19200000000E+03 0.  0.
<mgrwt>
<rscale>  0 0.47707816E+03</rscale>
<asrwt>0</asrwt>
<pdfrwt beam="1">  1        2 0.19232745E-01 0.47707816E+03</pdfrwt>
<pdfrwt beam="2">  1       -2 0.60378419E-01 0.47707816E+03</pdfrwt>
<totfact> 0.76413918E+02</totfact>
</mgrwt>
</event>
<event>
 4    1  0.5812319E-005  0.7014398E+03  0.7818608E-02  0.9714773E-01
          2   -1    0    0  501    0  0.00000000000E+00  0.00000000000E+00  0.25317831069E+04  0.25317831069E+04  0.25500000000E-02 0.  1.
         -2   -1    0    0    0  501 -0.00000000000E+00 -0.00000000000E+00 -0.48584114046E+02  0.48584114113E+02  0.25500000000E-02 0. -1.
    5000001    1    1    2    0    0 -0.23013670824E+03 -0.38270968943E+02  0.58649755562E+03  0.65975067586E+03  0.19200000000E+03 0.  0.
   -5000001    1    1    2    0    0  0.23013670824E+03  0.38270968943E+02  0.18967014372E+04  0.19206165452E+04  0.19200000000E+03 0.  0.
<mgrwt>
<rscale>  0 0.70143977E+03</rscale>
<asrwt>0</asrwt>
<pdfrwt beam="1">  1        2 0.36168336E+00 0.70143977E+03</pdfrwt>
<pdfrwt beam="2">  1       -2 0.69405865E-02 0.70143977E+03</pdfrwt>
<totfact> 0.54279972E+02</totfact>
</mgrwt>
</event>
<event>
 4    1  0.5812319E-005  0.8408706E+03  0.7818608E-02  0.9502673E-01
         -2   -1    0    0    0  501 -0.00000000000E+00  0.00000000000E+00  0.75791986549E+02  0.75791986592E+02  0.25500000000E-02 0. -1.
          2   -1    0    0  501    0  0.00000000000E+00 -0.00000000000E+00 -0.23322497428E+04  0.23322497428E+04  0.25500000000E-02 0.  1.
    5000001    1    1    2    0    0  0.29800402967E+03 -0.11011264817E+03 -0.56289679438E+03  0.67427590652E+03  0.19200000000E+03 0.  0.
   -5000001    1    1    2    0    0 -0.29800402967E+03  0.11011264817E+03 -0.16935609618E+04  0.17337658228E+04  0.19200000000E+03 0.  0.
<mgrwt>
<rscale>  0 0.84087060E+03</rscale>
<asrwt>0</asrwt>
<pdfrwt beam="1">  1        2 0.33317849E+00 0.84087060E+03</pdfrwt>
<pdfrwt beam="2">  1       -2 0.10827428E-01 0.84087060E+03</pdfrwt>
<totfact> 0.33220374E+02</totfact>
</mgrwt>
</event>
<event>
 4    1  0.5812319E-005  0.5230843E+03  0.7818608E-02  0.1007923E+00
         -2   -1    0    0    0  501 -0.00000000000E+00  0.00000000000E+00  0.53054340751E+03  0.53054340751E+03  0.25500000000E-02 0. -1.
          2   -1    0    0  501    0  0.00000000000E+00 -0.00000000000E+00 -0.12893250114E+03  0.12893250117E+03  0.25500000000E-02 0.  1.
    5000001    1    1    2    0    0  0.10882074827E+03 -0.13563686607E+03  0.24627928503E+03  0.35743083377E+03  0.19200000000E+03 0.  0.
   -5000001    1    1    2    0    0 -0.10882074827E+03  0.13563686607E+03  0.15533162133E+03  0.30204507491E+03  0.19200000000E+03 0.  0.
<mgrwt>
<rscale>  0 0.52308427E+03</rscale>
<asrwt>0</asrwt>
<pdfrwt beam="1">  1        2 0.18418928E-01 0.52308427E+03</pdfrwt>
<pdfrwt beam="2">  1       -2 0.75791917E-01 0.52308427E+03</pdfrwt>
<totfact> 0.49290199E+02</totfact>
</mgrwt>
</event>
<event>
 4    1  0.5812319E-005  0.8776709E+03  0.7818608E-02  0.9453933E-01
         -2   -1    0    0    0  501 -0.00000000000E+00  0.00000000000E+00  0.48917471624E+02  0.48917471691E+02  0.25500000000E-02 0.  1.
          2   -1    0    0  501    0  0.00000000000E+00 -0.00000000000E+00 -0.39367640148E+04  0.39367640148E+04  0.25500000000E-02 0. -1.
    5000001    1    1    2    0    0 -0.20220202921E+03 -0.28751530413E+03 -0.11295166671E+04  0.11984250548E+04  0.19200000000E+03 0.  0.
   -5000001    1    1    2    0    0  0.20220202921E+03  0.28751530413E+03 -0.27583298761E+04  0.27872564317E+04  0.19200000000E+03 0.  0.
<mgrwt>
<rscale>  0 0.87767088E+03</rscale>
<asrwt>0</asrwt>
<pdfrwt beam="1">  1        2 0.56239466E+00 0.87767088E+03</pdfrwt>
<pdfrwt beam="2">  1       -2 0.69882127E-02 0.87767088E+03</pdfrwt>
<totfact> 0.81792385E+01</totfact>
</mgrwt>
</event>
<event>
 4    1  0.5812319E-005  0.4329610E+03  0.7818608E-02  0.1032929E+00
          2   -1    0    0  501    0  0.00000000000E+00  0.00000000000E+00  0.33383589778E+03  0.33383589779E+03  0.25500000000E-02 0.  1.
         -2   -1    0    0    0  501 -0.00000000000E+00 -0.00000000000E+00 -0.14037975616E+03  0.14037975618E+03  0.25500000000E-02 0. -1.
    5000001    1    1    2    0    0 -0.59069344288E+02 -0.78100341756E+02  0.74524531155E+02  0.22804989928E+03  0.19200000000E+03 0.  0.
   -5000001    1    1    2    0    0  0.59069344288E+02  0.78100341756E+02  0.11893161047E+03  0.24616575470E+03  0.19200000000E+03 0.  0.
<mgrwt>
<rscale>  0 0.43296098E+03</rscale>
<asrwt>0</asrwt>
<pdfrwt beam="1">  1        2 0.47690841E-01 0.43296098E+03</pdfrwt>
<pdfrwt beam="2">  1       -2 0.20054251E-01 0.43296098E+03</pdfrwt>
<totfact> 0.22249070E+03</totfact>
</mgrwt>
</event>
<event>
 4    1  0.5812319E-005  0.4780199E+03  0.7818608E-02  0.1019681E+00
         -2   -1    0    0    0  501 -0.00000000000E+00  0.00000000000E+00  0.95245947057E+03  0.95245947058E+03  0.25500000000E-02 0. -1.
          2   -1    0    0  501    0  0.00000000000E+00 -0.00000000000E+00 -0.59977095342E+02  0.59977095396E+02  0.25500000000E-02 0.  1.
    5000001    1    1    2    0    0  0.11702174658E+03  0.38764974566E+02  0.59697442100E+03  0.63909253771E+03  0.19200000000E+03 0.  0.
   -5000001    1    1    2    0    0 -0.11702174658E+03 -0.38764974566E+02  0.29550795424E+03  0.37334402827E+03  0.19200000000E+03 0.  0.
<mgrwt>
<rscale>  0 0.47801988E+03</rscale>
<asrwt>0</asrwt>
<pdfrwt beam="1">  1        2 0.85681569E-02 0.47801988E+03</pdfrwt>
<pdfrwt beam="2">  1       -2 0.13606563E+00 0.47801988E+03</pdfrwt>
<totfact> 0.31780683E+02</totfact>
</mgrwt>
</event>
<event>
 4    1  0.5812319E-005  0.5451618E+03  0.7818608E-02  0.1002620E+00
          2   -1    0    0  501    0  0.00000000000E+00  0.00000000000E+00  0.66410520069E+03  0.66410520069E+03  0.25500000000E-02 0.  1.
         -2   -1    0    0    0  501 -0.00000000000E+00 -0.00000000000E+00 -0.11188038084E+03  0.11188038087E+03  0.25500000000E-02 0. -1.
    5000001    1    1    2    0    0 -0.72130709074E+02 -0.17739779163E+03  0.23678091255E+03  0.36000280029E+03  0.19200000000E+03 0.  0.
   -5000001    1    1    2    0    0  0.72130709074E+02  0.17739779163E+03  0.31544390730E+03  0.41598278128E+03  0.19200000000E+03 0.  0.
<mgrwt>
<rscale>  0 0.54516178E+03</rscale>
<asrwt>0</asrwt>
<pdfrwt beam="1">  1        2 0.94872173E-01 0.54516178E+03</pdfrwt>
<pdfrwt beam="2">  1       -2 0.15982911E-01 0.54516178E+03</pdfrwt>
<totfact> 0.15095640E+03</totfact>
</mgrwt>
</event>
<event>
 4    1  0.5812319E-005  0.7531275E+03  0.7818608E-02  0.9630457E-01
          2   -1    0    0  501    0  0.00000000000E+00  0.00000000000E+00  0.45710628503E+03  0.45710628504E+03  0.25500000000E-02 0.  1.
         -2   -1    0    0    0  501 -0.00000000000E+00 -0.00000000000E+00 -0.31021289894E+03  0.31021289895E+03  0.25500000000E-02 0. -1.
    5000001    1    1    2    0    0 -0.25805024565E+03 -0.16401896459E+03 -0.35546320276E+02  0.36279428181E+03  0.19200000000E+03 0.  0.
   -5000001    1    1    2    0    0  0.25805024565E+03  0.16401896459E+03  0.18243970636E+03  0.40452490218E+03  0.19200000000E+03 0.  0.
<mgrwt>
<rscale>  0 0.75312752E+03</rscale>
<asrwt>0</asrwt>
<pdfrwt beam="1">  1        2 0.65300898E-01 0.75312752E+03</pdfrwt>
<pdfrwt beam="2">  1       -2 0.44316128E-01 0.75312752E+03</pdfrwt>
<totfact> 0.36159400E+02</totfact>
</mgrwt>
</event>
<event>
 4    1  0.5812319E-005  0.6059728E+03  0.7818608E-02  0.9893091E-01
          2   -1    0    0  501    0  0.00000000000E+00  0.00000000000E+00  0.38996410050E+03  0.38996410051E+03  0.25500000000E-02 0.  1.
         -2   -1    0    0    0  501 -0.00000000000E+00 -0.00000000000E+00 -0.23540822171E+03  0.23540822173E+03  0.25500000000E-02 0. -1.
    5000001    1    1    2    0    0  0.18199044054E+03  0.94279887809E+02  0.19461722514E+03  0.34168564795E+03  0.19200000000E+03 0.  0.
   -5000001    1    1    2    0    0 -0.18199044054E+03 -0.94279887809E+02 -0.40061346351E+02  0.28368667428E+03  0.19200000000E+03 0.  0.
<mgrwt>
<rscale>  0 0.60597279E+03</rscale>
<asrwt>0</asrwt>
<pdfrwt beam="1">  1        2 0.55709157E-01 0.60597279E+03</pdfrwt>
<pdfrwt beam="2">  1       -2 0.33629746E-01 0.60597279E+03</pdfrwt>
<totfact> 0.73898956E+02</totfact>
</mgrwt>
</event>
<event>
 4    1  0.5812319E-005  0.8383134E+03  0.7818608E-02  0.9506158E-01
         -2   -1    0    0    0  501 -0.00000000000E+00  0.00000000000E+00  0.83645258975E+02  0.83645259014E+02  0.25500000000E-02 0.  1.
          2   -1    0    0  501    0  0.00000000000E+00 -0.00000000000E+00 -0.21004457326E+04  0.21004457326E+04  0.25500000000E-02 0. -1.
    5000001    1    1    2    0    0 -0.15802094044E+02 -0.29902892686E+03 -0.43074103790E+03  0.55863212135E+03  0.19200000000E+03 0.  0.
   -5000001    1    1    2    0    0  0.15802094044E+02  0.29902892686E+03 -0.15860594358E+04  0.16254588703E+04  0.19200000000E+03 0.  0.
<mgrwt>
<rscale>  0 0.83831337E+03</rscale>
<asrwt>0</asrwt>
<pdfrwt beam="1">  1        2 0.30006364E+00 0.83831337E+03</pdfrwt>
<pdfrwt beam="2">  1       -2 0.11949324E-01 0.83831337E+03</pdfrwt>
<totfact> 0.37072504E+02</totfact>
</mgrwt>
</event>
<event>
 4    1  0.5812319E-005  0.5877437E+03  0.7818608E-02  0.9931165E-01
          2   -1    0    0  501    0  0.00000000000E+00  0.00000000000E+00  0.86024309544E+02  0.86024309581E+02  0.25500000000E-02 0.  1.
         -2   -1    0    0    0  501 -0.00000000000E+00 -0.00000000000E+00 -0.10039101362E+04  0.10039101362E+04  0.25500000000E-02 0. -1.
    5000001    1    1    2    0    0 -0.12172675286E+03  0.17227255674E+03 -0.59009037927E+03  0.65541276450E+03  0.19200000000E+03 0.  0.
   -5000001    1    1    2    0    0  0.12172675286E+03 -0.17227255674E+03 -0.32779544735E+03  0.43452168124E+03  0.19200000000E+03 0.  0.
<mgrwt>
<rscale>  0 0.58774374E+03</rscale>
<asrwt>0</asrwt>
<pdfrwt beam="1">  1        2 0.12289188E-01 0.58774374E+03</pdfrwt>
<pdfrwt beam="2">  1       -2 0.14341573E+00 0.58774374E+03</pdfrwt>
<totfact> 0.17559160E+02</totfact>
</mgrwt>
</event>
<event>
 4    1  0.5812319E-005  0.4824252E+03  0.7818608E-02  0.1018471E+00
         -2   -1    0    0    0  501 -0.00000000000E+00  0.00000000000E+00  0.34163030101E+02  0.34163030196E+02  0.25500000000E-02 0. -1.
          2   -1    0    0  501    0  0.00000000000E+00 -0.00000000000E+00 -0.17031136811E+04  0.17031136811E+04  0.25500000000E-02 0.  1.
    5000001    1    1    2    0    0 -0.70841140575E+01  0.89553702073E+02 -0.12489884699E+04  0.12668489445E+04  0.19200000000E+03 0.  0.
   -5000001    1    1    2    0    0  0.70841140575E+01 -0.89553702073E+02 -0.41996218112E+03  0.47042776683E+03  0.19200000000E+03 0.  0.
<mgrwt>
<rscale>  0 0.48242522E+03</rscale>
<asrwt>0</asrwt>
<pdfrwt beam="1">  1        2 0.24330190E+00 0.48242522E+03</pdfrwt>
<pdfrwt beam="2">  1       -2 0.48804339E-02 0.48242522E+03</pdfrwt>
<totfact> 0.24977765E+03</totfact>
</mgrwt>
</event>
<event>
 4    1  0.5812319E-005  0.4611771E+03  0.7818608E-02  0.1024440E+00
         -2   -1    0    0    0  501 -0.00000000000E+00  0.00000000000E+00  0.14882289874E+03  0.14882289876E+03  0.25500000000E-02 0. -1.
          2   -1    0    0  501    0  0.00000000000E+00 -0.00000000000E+00 -0.35727760416E+03  0.35727760417E+03  0.25500000000E-02 0.  1.
    5000001    1    1    2    0    0  0.12024133496E+03  0.22871803731E+02 -0.64266087335E+02  0.23659084517E+03  0.19200000000E+03 0.  0.
   -5000001    1    1    2    0    0 -0.12024133496E+03 -0.22871803731E+02 -0.14418861809E+03  0.26950965776E+03  0.19200000000E+03 0.  0.
<mgrwt>
<rscale>  0 0.46117714E+03</rscale>
<asrwt>0</asrwt>
<pdfrwt beam="1">  1        2 0.51039657E-01 0.46117714E+03</pdfrwt>
<pdfrwt beam="2">  1       -2 0.21260414E-01 0.46117714E+03</pdfrwt>
<totfact> 0.18674228E+03</totfact>
</mgrwt>
</event>
<event>
 4    1  0.5812319E-005  0.4374587E+03  0.7818608E-02  0.1031529E+00
         -2   -1    0    0    0  501 -0.00000000000E+00  0.00000000000E+00  0.30446045833E+02  0.30446045940E+02  0.25500000000E-02 0. -1.
          2   -1    0    0  501    0  0.00000000000E+00 -0.00000000000E+00 -0.15713869649E+04  0.15713869649E+04  0.25500000000E-02 0.  1.
    5000001    1    1    2    0    0  0.96086647324E+02 -0.40552161184E+02 -0.80734232154E+03  0.83638672020E+03  0.19200000000E+03 0.  0.
   -5000001    1    1    2    0    0 -0.96086647324E+02  0.40552161184E+02 -0.73359859754E+03  0.76544629066E+03  0.19200000000E+03 0.  0.
<mgrwt>
<rscale>  0 0.43745866E+03</rscale>
<asrwt>0</asrwt>
<pdfrwt beam="1">  1        2 0.22448380E+00 0.43745866E+03</pdfrwt>
<pdfrwt beam="2">  1       -2 0.43494361E-02 0.43745866E+03</pdfrwt>
<totfact> 0.34790385E+03</totfact>
</mgrwt>
</event>
<event>
 4    1  0.5812319E-005  0.4669233E+03  0.7818608E-02  0.1022792E+00
          2   -1    0    0  501    0  0.00000000000E+00  0.00000000000E+00  0.19527603032E+03  0.19527603033E+03  0.25500000000E-02 0.  1.
         -2   -1    0    0    0  501 -0.00000000000E+00 -0.00000000000E+00 -0.27911434890E+03  0.27911434891E+03  0.25500000000E-02 0. -1.
    5000001    1    1    2    0    0  0.12250471875E+03  0.42660402931E+02 -0.12949556827E+02  0.23207543411E+03  0.19200000000E+03 0.  0.
   -5000001    1    1    2    0    0 -0.12250471875E+03 -0.42660402931E+02 -0.70888761752E+02  0.24231494514E+03  0.19200000000E+03 0.  0.
<mgrwt>
<rscale>  0 0.46692330E+03</rscale>
<asrwt>0</asrwt>
<pdfrwt beam="1">  1        2 0.27896576E-01 0.46692330E+03</pdfrwt>
<pdfrwt beam="2">  1       -2 0.39873478E-01 0.46692330E+03</pdfrwt>
<totfact> 0.11494742E+03</totfact>
</mgrwt>
</event>
<event>
 4    1  0.5812319E-005  0.5435798E+03  0.7818608E-02  0.1002991E+00
          2   -1    0    0  501    0  0.00000000000E+00  0.00000000000E+00  0.50427437784E+03  0.50427437785E+03  0.25500000000E-02 0.  1.
         -2   -1    0    0    0  501 -0.00000000000E+00 -0.00000000000E+00 -0.14648722063E+03  0.14648722065E+03  0.25500000000E-02 0. -1.
    5000001    1    1    2    0    0  0.19170283280E+03  0.11533218704E+02  0.16562915191E+03  0.31808804945E+03  0.19200000000E+03 0.  0.
   -5000001    1    1    2    0    0 -0.19170283280E+03 -0.11533218704E+02  0.19215800530E+03  0.33267354905E+03  0.19200000000E+03 0.  0.
<mgrwt>
<rscale>  0 0.54357981E+03</rscale>
<asrwt>0</asrwt>
<pdfrwt beam="1">  1        2 0.72039197E-01 0.54357981E+03</pdfrwt>
<pdfrwt beam="2">  1       -2 0.20926746E-01 0.54357981E+03</pdfrwt>
<totfact> 0.13092880E+03</totfact>
</mgrwt>
</event>
<event>
 4    1  0.5812319E-005  0.5101033E+03  0.7818608E-02  0.1011175E+00
         -2   -1    0    0    0  501 -0.00000000000E+00  0.00000000000E+00  0.64426343292E+02  0.64426343342E+02  0.25500000000E-02 0.  1.
          2   -1    0    0  501    0  0.00000000000E+00 -0.00000000000E+00 -0.10097009389E+04  0.10097009389E+04  0.25500000000E-02 0. -1.
    5000001    1    1    2    0    0  0.20924313853E+01  0.11471882898E+03 -0.73072628843E+03  0.76419218564E+03  0.19200000000E+03 0.  0.
   -5000001    1    1    2    0    0 -0.20924313853E+01 -0.11471882898E+03 -0.21454830716E+03  0.30993509658E+03  0.19200000000E+03 0.  0.
<mgrwt>
<rscale>  0 0.51010328E+03</rscale>
<asrwt>0</asrwt>
<pdfrwt beam="1">  1        2 0.14424298E+00 0.51010328E+03</pdfrwt>
<pdfrwt beam="2">  1       -2 0.92037639E-02 0.51010328E+03</pdfrwt>
<totfact> 0.21809758E+03</totfact>
</mgrwt>
</event>
<event>
 4    1  0.5812319E-005  0.6859959E+03  0.7818608E-02  0.9741485E-01
         -2   -1    0    0    0  501 -0.00000000000E+00  0.00000000000E+00  0.18800992363E+03  0.18800992365E+03  0.25500000000E-02 0. -1.
          2   -1    0    0  501    0  0.00000000000E+00 -0.00000000000E+00 -0.62575204649E+03  0.62575204650E+03  0.25500000000E-02 0.  1.
    5000001    1    1    2    0    0  0.17663231062E+03 -0.22068235478E+03 -0.18360294595E+03  0.38790941807E+03  0.19200000000E+03 0.  0.
   -5000001    1    1    2    0    0 -0.17663231062E+03  0.22068235478E+03 -0.25413917690E+03  0.42585255207E+03  0.19200000000E+03 0.  0.
<mgrwt>
<rscale>  0 0.68599590E+03</rscale>
<asrwt>0</asrwt>
<pdfrwt beam="1">  1        2 0.89393149E-01 0.68599590E+03</pdfrwt>
<pdfrwt beam="2">  1       -2 0.26858561E-01 0.68599590E+03</pdfrwt>
<totfact> 0.65153834E+02</totfact>
</mgrwt>
</event>
<event>
 4    1  0.5812319E-005  0.5879000E+03  0.7818608E-02  0.9930833E-01
         -2   -1    0    0    0  501 -0.00000000000E+00  0.00000000000E+00  0.42022373274E+02  0.42022373351E+02  0.25500000000E-02 0. -1.
          2   -1    0    0  501    0  0.00000000000E+00 -0.00000000000E+00 -0.20562045597E+04  0.20562045597E+04  0.25500000000E-02 0.  1.
    5000001    1    1    2    0    0  0.16645267920E+03 -0.14177832540E+03 -0.85842918201E+03  0.90640622708E+03  0.19200000000E+03 0.  0.
   -5000001    1    1    2    0    0 -0.16645267920E+03  0.14177832540E+03 -0.11557530044E+04  0.11918207060E+04  0.19200000000E+03 0.  0.
<mgrwt>
<rscale>  0 0.58789998E+03</rscale>
<asrwt>0</asrwt>
<pdfrwt beam="1">  1        2 0.29374345E+00 0.58789998E+03</pdfrwt>
<pdfrwt beam="2">  1       -2 0.60031975E-02 0.58789998E+03</pdfrwt>
<totfact> 0.11988835E+03</totfact>
</mgrwt>
</event>
<event>
 4    1  0.5812319E-005  0.4462408E+03  0.7818608E-02  0.1028849E+00
         -2   -1    0    0    0  501 -0.00000000000E+00  0.00000000000E+00  0.82218539178E+02  0.82218539217E+02  0.25500000000E-02 0. -1.
          2   -1    0    0  501    0  0.00000000000E+00 -0.00000000000E+00 -0.60549265118E+03  0.60549265119E+03  0.25500000000E-02 0.  1.
    5000001    1    1    2    0    0 -0.99770891924E+02  0.46275889273E+02 -0.21742453643E+03  0.31021463190E+03  0.19200000000E+03 0.  0.
   -5000001    1    1    2    0    0  0.99770891924E+02 -0.46275889273E+02 -0.30584957558E+03  0.37749655851E+03  0.19200000000E+03 0.  0.
<mgrwt>
<rscale>  0 0.44624084E+03</rscale>
<asrwt>0</asrwt>
<pdfrwt beam="1">  1        2 0.86498948E-01 0.44624084E+03</pdfrwt>
<pdfrwt beam="2">  1       -2 0.11745506E-01 0.44624084E+03</pdfrwt>
<totfact> 0.28065756E+03</totfact>
</mgrwt>
</event>
<event>
 4    1  0.5812319E-005  0.4164485E+03  0.7818608E-02  0.1038228E+00
          2   -1    0    0  501    0  0.00000000000E+00  0.00000000000E+00  0.98882219060E+03  0.98882219061E+03  0.25500000000E-02 0.  1.
         -2   -1    0    0    0  501 -0.00000000000E+00 -0.00000000000E+00 -0.43847448439E+02  0.43847448513E+02  0.25500000000E-02 0. -1.
    5000001    1    1    2    0    0  0.56046600045E+02 -0.53084239392E+02  0.52979874141E+03  0.56877927551E+03  0.19200000000E+03 0.  0.
   -5000001    1    1    2    0    0 -0.56046600045E+02  0.53084239392E+02  0.41517600076E+03  0.46389036361E+03  0.19200000000E+03 0.  0.
<mgrwt>
<rscale>  0 0.41644846E+03</rscale>
<asrwt>0</asrwt>
<pdfrwt beam="1">  1        2 0.14126029E+00 0.41644846E+03</pdfrwt>
<pdfrwt beam="2">  1       -2 0.62639221E-02 0.41644846E+03</pdfrwt>
<totfact> 0.41189179E+03</totfact>
</mgrwt>
</event>
<event>
 4    1  0.5812319E-005  0.1142896E+04  0.7818608E-02  0.9164363E-01
          2   -1    0    0  501    0  0.00000000000E+00  0.00000000000E+00  0.98915880870E+03  0.98915880870E+03  0.25500000000E-02 0.  1.
         -2   -1    0    0    0  501 -0.00000000000E+00 -0.00000000000E+00 -0.33013172957E+03  0.33013172958E+03  0.25500000000E-02 0. -1.
    5000001    1    1    2    0    0 -0.47025609846E+03 -0.26106446038E+03  0.35240494420E+03  0.67108024506E+03  0.19200000000E+03 0.  0.
   -5000001    1    1    2    0    0  0.47025609846E+03  0.26106446038E+03  0.30662213493E+03  0.64821029322E+03  0.19200000000E+03 0.  0.
<mgrwt>
<rscale>  0 0.11428958E+04</rscale>
<asrwt>0</asrwt>
<pdfrwt beam="1">  1        2 0.14130840E+00 0.11428958E+04</pdfrwt>
<pdfrwt beam="2">  1       -2 0.47161675E-01 0.11428958E+04</pdfrwt>
<totfact> 0.12033124E+02</totfact>
</mgrwt>
</event>
<event>
 4    1  0.5812319E-005  0.4794229E+03  0.7818608E-02  0.1019294E+00
          2   -1    0    0  501    0  0.00000000000E+00  0.00000000000E+00  0.39061737077E+03  0.39061737078E+03  0.25500000000E-02 0.  1.
         -2   -1    0    0    0  501 -0.00000000000E+00 -0.00000000000E+00 -0.14710454317E+03  0.14710454319E+03  0.25500000000E-02 0. -1.
    5000001    1    1    2    0    0 -0.13891924372E+03 -0.62330547151E+01  0.81940593489E+02  0.25082995855E+03  0.19200000000E+03 0.  0.
   -5000001    1    1    2    0    0  0.13891924372E+03  0.62330547151E+01  0.16157223411E+03  0.28689195541E+03  0.19200000000E+03 0.  0.
<mgrwt>
<rscale>  0 0.47942294E+03</rscale>
<asrwt>0</asrwt>
<pdfrwt beam="1">  1        2 0.55802480E-01 0.47942294E+03</pdfrwt>
<pdfrwt beam="2">  1       -2 0.21014935E-01 0.47942294E+03</pdfrwt>
<totfact> 0.17280525E+03</totfact>
</mgrwt>
</event>
<event>
 4    1  0.5812319E-005  0.7246749E+03  0.7818608E-02  0.9675941E-01
         -2   -1    0    0    0  501 -0.00000000000E+00  0.00000000000E+00  0.27120707635E+03  0.27120707636E+03  0.25500000000E-02 0. -1.
          2   -1    0    0  501    0  0.00000000000E+00 -0.00000000000E+00 -0.48408921340E+03  0.48408921341E+03  0.25500000000E-02 0.  1.
    5000001    1    1    2    0    0  0.24723991930E+03 -0.14521997879E+03 -0.22159967756E+03  0.41010588514E+03  0.19200000000E+03 0.  0.
   -5000001    1    1    2    0    0 -0.24723991930E+03  0.14521997879E+03  0.87175404991E+01  0.34519040463E+03  0.19200000000E+03 0.  0.
<mgrwt>
<rscale>  0 0.72467488E+03</rscale>
<asrwt>0</asrwt>
<pdfrwt beam="1">  1        2 0.69155601E-01 0.72467488E+03</pdfrwt>
<pdfrwt beam="2">  1       -2 0.38743868E-01 0.72467488E+03</pdfrwt>
<totfact> 0.44130210E+02</totfact>
</mgrwt>
</event>
<event>
 4    1  0.5812319E-005  0.6503155E+03  0.7818608E-02  0.9806187E-01
          2   -1    0    0  501    0  0.00000000000E+00  0.00000000000E+00  0.59081113543E+03  0.59081113543E+03  0.25500000000E-02 0.  1.
         -2   -1    0    0    0  501 -0.00000000000E+00 -0.00000000000E+00 -0.17895325837E+03  0.17895325839E+03  0.25500000000E-02 0. -1.
    5000001    1    1    2    0    0  0.82233955261E+02  0.24708608821E+03  0.24427754653E+03  0.40540039236E+03  0.19200000000E+03 0.  0.
   -5000001    1    1    2    0    0 -0.82233955261E+02 -0.24708608821E+03  0.16758033053E+03  0.36436400147E+03  0.19200000000E+03 0.  0.
<mgrwt>
<rscale>  0 0.65031555E+03</rscale>
<asrwt>0</asrwt>
<pdfrwt beam="1">  1        2 0.84401590E-01 0.65031555E+03</pdfrwt>
<pdfrwt beam="2">  1       -2 0.25564752E-01 0.65031555E+03</pdfrwt>
<totfact> 0.76326373E+02</totfact>
</mgrwt>
</event>
<event>
 4    1  0.5812319E-005  0.4983014E+03  0.7818608E-02  0.1014223E+00
          2   -1    0    0  501    0  0.00000000000E+00  0.00000000000E+00  0.93585336300E+03  0.93585336300E+03  0.25500000000E-02 0.  1.
         -2   -1    0    0    0  501 -0.00000000000E+00 -0.00000000000E+00 -0.66330991760E+02  0.66330991809E+02  0.25500000000E-02 0. -1.
    5000001    1    1    2    0    0  0.16228466806E+02  0.15060913264E+03  0.53049113676E+03  0.58415008358E+03  0.19200000000E+03 0.  0.
   -5000001    1    1    2    0    0 -0.16228466806E+02 -0.15060913264E+03  0.33903123448E+03  0.41803427123E+03  0.19200000000E+03 0.  0.
<mgrwt>
<rscale>  0 0.49830144E+03</rscale>
<asrwt>0</asrwt>
<pdfrwt beam="1">  1        2 0.13369333E+00 0.49830144E+03</pdfrwt>
<pdfrwt beam="2">  1       -2 0.94758564E-02 0.49830144E+03</pdfrwt>
<totfact> 0.23106058E+03</totfact>
</mgrwt>
</event>
<event>
 4    1  0.5812319E-005  0.1056343E+04  0.7818608E-02  0.9248820E-01
         -2   -1    0    0    0  501 -0.00000000000E+00  0.00000000000E+00  0.26298795999E+03  0.26298796000E+03  0.25500000000E-02 0. -1.
          2   -1    0    0  501    0  0.00000000000E+00 -0.00000000000E+00 -0.10607515964E+04  0.10607515964E+04  0.25500000000E-02 0.  1.
    5000001    1    1    2    0    0 -0.37302878561E+03  0.27449434531E+03 -0.60708055958E+03  0.78734263591E+03  0.19200000000E+03 0.  0.
   -5000001    1    1    2    0    0  0.37302878561E+03 -0.27449434531E+03 -0.19068307680E+03  0.53639692046E+03  0.19200000000E+03 0.  0.
<mgrwt>
<rscale>  0 0.10563426E+04</rscale>
<asrwt>0</asrwt>
<pdfrwt beam="1">  1        2 0.15153594E+00 0.10563426E+04</pdfrwt>
<pdfrwt beam="2">  1       -2 0.37569709E-01 0.10563426E+04</pdfrwt>
<totfact> 0.17124253E+02</totfact>
</mgrwt>
</event>
<event>
 4    1  0.5812319E-005  0.4682024E+03  0.7818608E-02  0.1022429E+00
          2   -1    0    0  501    0  0.00000000000E+00  0.00000000000E+00  0.30554208925E+03  0.30554208926E+03  0.25500000000E-02 0.  1.
         -2   -1    0    0    0  501 -0.00000000000E+00 -0.00000000000E+00 -0.17936439841E+03  0.17936439843E+03  0.25500000000E-02 0. -1.
    5000001    1    1    2    0    0 -0.13160224795E+03  0.21735919441E+02  0.75678656687E+02  0.24572924314E+03  0.19200000000E+03 0.  0.
   -5000001    1    1    2    0    0  0.13160224795E+03 -0.21735919441E+02  0.50499034148E+02  0.23917724455E+03  0.19200000000E+03 0.  0.
<mgrwt>
<rscale>  0 0.46820241E+03</rscale>
<asrwt>0</asrwt>
<pdfrwt beam="1">  1        2 0.43648870E-01 0.46820241E+03</pdfrwt>
<pdfrwt beam="2">  1       -2 0.25623485E-01 0.46820241E+03</pdfrwt>
<totfact> 0.15935034E+03</totfact>
</mgrwt>
</event>
<event>
 4    1  0.5812319E-005  0.5151543E+03  0.7818608E-02  0.1009897E+00
          2   -1    0    0  501    0  0.00000000000E+00  0.00000000000E+00  0.46406562051E+02  0.46406562121E+02  0.25500000000E-02 0.  1.
         -2   -1    0    0    0  501 -0.00000000000E+00 -0.00000000000E+00 -0.14296682295E+04  0.14296682295E+04  0.25500000000E-02 0. -1.
    5000001    1    1    2    0    0  0.16955587505E+03  0.21798131062E+02 -0.64563984210E+03  0.69493824114E+03  0.19200000000E+03 0.  0.
   -5000001    1    1    2    0    0 -0.16955587505E+03 -0.21798131062E+02 -0.73762182538E+03  0.78113655052E+03  0.19200000000E+03 0.  0.
<mgrwt>
<rscale>  0 0.51515430E+03</rscale>
<asrwt>0</asrwt>
<pdfrwt beam="1">  1        2 0.66295098E-02 0.51515430E+03</pdfrwt>
<pdfrwt beam="2">  1       -2 0.20423829E+00 0.51515430E+03</pdfrwt>
<totfact> 0.14564695E+02</totfact>
</mgrwt>
</event>
<event>
 4    1  0.5812319E-005  0.1006635E+04  0.7818608E-02  0.9301297E-01
          2   -1    0    0  501    0  0.00000000000E+00  0.00000000000E+00  0.13998432497E+04  0.13998432497E+04  0.25500000000E-02 0.  1.
         -2   -1    0    0    0  501 -0.00000000000E+00 -0.00000000000E+00 -0.18096925491E+03  0.18096925493E+03  0.25500000000E-02 0. -1.
    5000001    1    1    2    0    0  0.93724189409E+01  0.41636470089E+03  0.28372837905E+03  0.53927098889E+03  0.19200000000E+03 0.  0.
   -5000001    1    1    2    0    0 -0.93724189409E+01 -0.41636470089E+03  0.93514561573E+03  0.10415415157E+04  0.19200000000E+03 0.  0.
<mgrwt>
<rscale>  0 0.10066352E+04</rscale>
<asrwt>0</asrwt>
<pdfrwt beam="1">  1        2 0.19997762E+00 0.10066352E+04</pdfrwt>
<pdfrwt beam="2">  1       -2 0.25852749E-01 0.10066352E+04</pdfrwt>
<totfact> 0.22230942E+02</totfact>
</mgrwt>
</event>
<event>
 4    1  0.5812319E-005  0.6615046E+03  0.7818608E-02  0.9785428E-01
          2   -1    0    0  501    0  0.00000000000E+00  0.00000000000E+00  0.25527934513E+04  0.25527934513E+04  0.25500000000E-02 0.  1.
         -2   -1    0    0    0  501 -0.00000000000E+00 -0.00000000000E+00 -0.42853876163E+02  0.42853876239E+02  0.25500000000E-02 0. -1.
    5000001    1    1    2    0    0  0.14485496730E+03  0.22569106324E+03  0.11577661087E+04  0.12038296308E+04  0.19200000000E+03 0.  0.
   -5000001    1    1    2    0    0 -0.14485496730E+03 -0.22569106324E+03  0.13521734665E+04  0.13918176967E+04  0.19200000000E+03 0.  0.
<mgrwt>
<rscale>  0 0.66150463E+03</rscale>
<asrwt>0</asrwt>
<pdfrwt beam="1">  1        2 0.36468478E+00 0.66150463E+03</pdfrwt>
<pdfrwt beam="2">  1       -2 0.61219822E-02 0.66150463E+03</pdfrwt>
<totfact> 0.64736498E+02</totfact>
</mgrwt>
</event>
<event>
 4    1  0.5812319E-005  0.5489672E+03  0.7818608E-02  0.1001733E+00
         -2   -1    0    0    0  501 -0.00000000000E+00  0.00000000000E+00  0.28615288897E+02  0.28615289011E+02  0.25500000000E-02 0. -1.
          2   -1    0    0  501    0  0.00000000000E+00 -0.00000000000E+00 -0.26329022351E+04  0.26329022351E+04  0.25500000000E-02 0.  1.
    5000001    1    1    2    0    0 -0.16319138058E+03 -0.10731359949E+03 -0.12141213990E+04  0.12446294255E+04  0.19200000000E+03 0.  0.
   -5000001    1    1    2    0    0  0.16319138058E+03  0.10731359949E+03 -0.13901655473E+04  0.14168880987E+04  0.19200000000E+03 0.  0.
<mgrwt>
<rscale>  0 0.54896724E+03</rscale>
<asrwt>0</asrwt>
<pdfrwt beam="1">  1        2 0.37612874E+00 0.54896724E+03</pdfrwt>
<pdfrwt beam="2">  1       -2 0.40879001E-02 0.54896724E+03</pdfrwt>
<totfact> 0.11109533E+03</totfact>
</mgrwt>
</event>
<event>
 4    1  0.5812319E-005  0.4442316E+03  0.7818608E-02  0.1029456E+00
          2   -1    0    0  501    0  0.00000000000E+00  0.00000000000E+00  0.19956039053E+04  0.19956039053E+04  0.25500000000E-02 0.  1.
         -2   -1    0    0    0  501 -0.00000000000E+00 -0.00000000000E+00 -0.24722053949E+02  0.24722054081E+02  0.25500000000E-02 0. -1.
    5000001    1    1    2    0    0  0.35233677819E+02  0.80162210962E+02  0.13006618956E+04  0.13176694421E+04  0.19200000000E+03 0.  0.
   -5000001    1    1    2    0    0 -0.35233677819E+02 -0.80162210962E+02  0.67021995577E+03  0.70265651725E+03  0.19200000000E+03 0.  0.
<mgrwt>
<rscale>  0 0.44423160E+03</rscale>
<asrwt>0</asrwt>
<pdfrwt beam="1">  1        2 0.28508628E+00 0.44423160E+03</pdfrwt>
<pdfrwt beam="2">  1       -2 0.35317219E-02 0.44423160E+03</pdfrwt>
<totfact> 0.29289196E+03</totfact>
</mgrwt>
</event>
<event>
 4    1  0.5812319E-005  0.5665378E+03  0.7818608E-02  0.9977369E-01
         -2   -1    0    0    0  501 -0.00000000000E+00  0.00000000000E+00  0.97667464065E+02  0.97667464098E+02  0.25500000000E-02 0.  1.
          2   -1    0    0  501    0  0.00000000000E+00 -0.00000000000E+00 -0.82157612659E+03  0.82157612659E+03  0.25500000000E-02 0. -1.
    5000001    1    1    2    0    0 -0.18552295183E+03 -0.14825934137E+02 -0.21027558063E+03  0.34017406395E+03  0.19200000000E+03 0.  0.
   -5000001    1    1    2    0    0  0.18552295183E+03  0.14825934137E+02 -0.51363308190E+03  0.57906952674E+03  0.19200000000E+03 0.  0.
<mgrwt>
<rscale>  0 0.56653775E+03</rscale>
<asrwt>0</asrwt>
<pdfrwt beam="1">  1        2 0.11736801E+00 0.56653775E+03</pdfrwt>
<pdfrwt beam="2">  1       -2 0.13952495E-01 0.56653775E+03</pdfrwt>
<totfact> 0.14559430E+03</totfact>
</mgrwt>
</event>
<event>
 4    1  0.5812319E-005  0.9622055E+03  0.7818608E-02  0.9350997E-01
          2   -1    0    0  501    0  0.00000000000E+00  0.00000000000E+00  0.21854169632E+03  0.21854169633E+03  0.25500000000E-02 0.  1.
         -2   -1    0    0    0  501 -0.00000000000E+00 -0.00000000000E+00 -0.10591108182E+04  0.10591108182E+04  0.25500000000E-02 0. -1.
    5000001    1    1    2    0    0 -0.35590234990E+03  0.10546662743E+03 -0.10380715925E+03  0.43061539507E+03  0.19200000000E+03 0.  0.
   -5000001    1    1    2    0    0  0.35590234990E+03 -0.10546662743E+03 -0.73676196263E+03  0.84703711946E+03  0.19200000000E+03 0.  0.
<mgrwt>
<rscale>  0 0.96220554E+03</rscale>
<asrwt>0</asrwt>
<pdfrwt beam="1">  1        2 0.31220243E-01 0.96220554E+03</pdfrwt>
<pdfrwt beam="2">  1       -2 0.15130154E+00 0.96220554E+03</pdfrwt>
<totfact> 0.49835052E+01</totfact>
</mgrwt>
</event>
<event>
 4    1  0.5812319E-005  0.5557616E+03  0.7818608E-02  0.1000169E+00
          2   -1    0    0  501    0  0.00000000000E+00  0.00000000000E+00  0.18807607268E+04  0.18807607268E+04  0.25500000000E-02 0.  1.
         -2   -1    0    0    0  501 -0.00000000000E+00 -0.00000000000E+00 -0.41056650720E+02  0.41056650799E+02  0.25500000000E-02 0. -1.
    5000001    1    1    2    0    0 -0.14563124855E+03 -0.13767117828E+03  0.96775765833E+03  0.10067674504E+04  0.19200000000E+03 0.  0.
   -5000001    1    1    2    0    0  0.14563124855E+03  0.13767117828E+03  0.87194641775E+03  0.91504992722E+03  0.19200000000E+03 0.  0.
<mgrwt>
<rscale>  0 0.55576159E+03</rscale>
<asrwt>0</asrwt>
<pdfrwt beam="1">  1        2 0.26868006E+00 0.55576159E+03</pdfrwt>
<pdfrwt beam="2">  1       -2 0.58652368E-02 0.55576159E+03</pdfrwt>
<totfact> 0.15249754E+03</totfact>
</mgrwt>
</event>
<event>
 4    1  0.5812319E-005  0.5622124E+03  0.7818608E-02  0.9987061E-01
         -2   -1    0    0    0  501 -0.00000000000E+00  0.00000000000E+00  0.72331628367E+03  0.72331628367E+03  0.25500000000E-02 0. -1.
          2   -1    0    0  501    0  0.00000000000E+00 -0.00000000000E+00 -0.10924777956E+03  0.10924777959E+03  0.25500000000E-02 0.  1.
    5000001    1    1    2    0    0 -0.13599857992E+01 -0.13362135014E+03  0.53788006846E+03  0.58654538002E+03  0.19200000000E+03 0.  0.
   -5000001    1    1    2    0    0  0.13599857992E+01  0.13362135014E+03  0.76188435650E+02  0.24601868324E+03  0.19200000000E+03 0.  0.
<mgrwt>
<rscale>  0 0.56221241E+03</rscale>
<asrwt>0</asrwt>
<pdfrwt beam="1">  1        2 0.15606826E-01 0.56221241E+03</pdfrwt>
<pdfrwt beam="2">  1       -2 0.10333090E+00 0.56221241E+03</pdfrwt>
<totfact> 0.29537903E+02</totfact>
</mgrwt>
</event>
<event>
 4    1  0.5812319E-005  0.6713114E+03  0.7818608E-02  0.9767592E-01
          2   -1    0    0  501    0  0.00000000000E+00  0.00000000000E+00  0.31123474314E+03  0.31123474315E+03  0.25500000000E-02 0.  1.
         -2   -1    0    0    0  501 -0.00000000000E+00 -0.00000000000E+00 -0.36199284851E+03  0.36199284852E+03  0.25500000000E-02 0. -1.
    5000001    1    1    2    0    0  0.16089176429E+03 -0.10414951161E+03 -0.22359816522E+03  0.35155855853E+03  0.19200000000E+03 0.  0.
   -5000001    1    1    2    0    0 -0.16089176429E+03  0.10414951161E+03  0.17284005986E+03  0.32166903313E+03  0.19200000000E+03 0.  0.
<mgrwt>
<rscale>  0 0.67131141E+03</rscale>
<asrwt>0</asrwt>
<pdfrwt beam="1">  1        2 0.44462106E-01 0.67131141E+03</pdfrwt>
<pdfrwt beam="2">  1       -2 0.51713264E-01 0.67131141E+03</pdfrwt>
<totfact> 0.40767201E+02</totfact>
</mgrwt>
</event>
<event>
 4    1  0.5812319E-005  0.6986813E+03  0.7818608E-02  0.9719490E-01
         -2   -1    0    0    0  501 -0.00000000000E+00  0.00000000000E+00  0.12498731140E+03  0.12498731143E+03  0.25500000000E-02 0. -1.
          2   -1    0    0  501    0  0.00000000000E+00 -0.00000000000E+00 -0.97641030772E+03  0.97641030772E+03  0.25500000000E-02 0.  1.
    5000001    1    1    2    0    0  0.98749606740E+02  0.10602795942E+03 -0.26346607974E+02  0.24197428946E+03  0.19200000000E+03 0.  0.
   -5000001    1    1    2    0    0 -0.98749606740E+02 -0.10602795942E+03 -0.82507638834E+03  0.85942332968E+03  0.19200000000E+03 0.  0.
<mgrwt>
<rscale>  0 0.69868133E+03</rscale>
<asrwt>0</asrwt>
<pdfrwt beam="1">  1        2 0.13948718E+00 0.69868133E+03</pdfrwt>
<pdfrwt beam="2">  1       -2 0.17855331E-01 0.69868133E+03</pdfrwt>
<totfact> 0.75853483E+02</totfact>
</mgrwt>
</event>
<event>
 4    1  0.5812319E-005  0.6487260E+03  0.7818608E-02  0.9809173E-01
         -2   -1    0    0    0  501 -0.00000000000E+00  0.00000000000E+00  0.11696679674E+04  0.11696679674E+04  0.25500000000E-02 0. -1.
          2   -1    0    0  501    0  0.00000000000E+00 -0.00000000000E+00 -0.89949768884E+02  0.89949768920E+02  0.25500000000E-02 0.  1.
    5000001    1    1    2    0    0 -0.78171716068E+02 -0.24942128781E+03  0.53004115848E+03  0.62139313296E+03  0.19200000000E+03 0.  0.
   -5000001    1    1    2    0    0  0.78171716068E+02  0.24942128781E+03  0.54967704008E+03  0.63822460341E+03  0.19200000000E+03 0.  0.
<mgrwt>
<rscale>  0 0.64872602E+03</rscale>
<asrwt>0</asrwt>
<pdfrwt beam="1">  1        2 0.12849967E-01 0.64872602E+03</pdfrwt>
<pdfrwt beam="2">  1       -2 0.16709543E+00 0.64872602E+03</pdfrwt>
<totfact> 0.11030739E+02</totfact>
</mgrwt>
</event>
<event>
 4    1  0.5812319E-005  0.4128748E+03  0.7818608E-02  0.1039411E+00
         -2   -1    0    0    0  501 -0.00000000000E+00  0.00000000000E+00  0.85097888400E+02  0.85097888438E+02  0.25500000000E-02 0. -1.
          2   -1    0    0  501    0  0.00000000000E+00 -0.00000000000E+00 -0.50079256485E+03  0.50079256486E+03  0.25500000000E-02 0.  1.
    5000001    1    1    2    0    0 -0.51195932357E+02 -0.37504668407E+02 -0.14891370582E+03  0.25113127130E+03  0.19200000000E+03 0.  0.
   -5000001    1    1    2    0    0  0.51195932357E+02  0.37504668407E+02 -0.26678097063E+03  0.33475918200E+03  0.19200000000E+03 0.  0.
<mgrwt>
<rscale>  0 0.41287475E+03</rscale>
<asrwt>0</asrwt>
<pdfrwt beam="1">  1        2 0.71541793E-01 0.41287475E+03</pdfrwt>
<pdfrwt beam="2">  1       -2 0.12156841E-01 0.41287475E+03</pdfrwt>
<totfact> 0.32933725E+03</totfact>
</mgrwt>
</event>
<event>
 4    1  0.5812319E-005  0.6369135E+03  0.7818608E-02  0.9831650E-01
          2   -1    0    0  501    0  0.00000000000E+00  0.00000000000E+00  0.19031872550E+03  0.19031872552E+03  0.25500000000E-02 0.  1.
         -2   -1    0    0    0  501 -0.00000000000E+00 -0.00000000000E+00 -0.53286772953E+03  0.53286772953E+03  0.25500000000E-02 0. -1.
    5000001    1    1    2    0    0 -0.36760717638E+02 -0.19512679874E+03  0.87045230517E+01  0.27634324068E+03  0.19200000000E+03 0.  0.
   -5000001    1    1    2    0    0  0.36760717638E+02  0.19512679874E+03 -0.35125352708E+03  0.44684321437E+03  0.19200000000E+03 0.  0.
<mgrwt>
<rscale>  0 0.63691352E+03</rscale>
<asrwt>0</asrwt>
<pdfrwt beam="1">  1        2 0.27188390E-01 0.63691352E+03</pdfrwt>
<pdfrwt beam="2">  1       -2 0.76123960E-01 0.63691352E+03</pdfrwt>
<totfact> 0.31055802E+02</totfact>
</mgrwt>
</event>
<event>
 4    1  0.5812319E-005  0.5979867E+03  0.7818608E-02  0.9909592E-01
         -2   -1    0    0    0  501 -0.00000000000E+00  0.00000000000E+00  0.36599100782E+02  0.36599100870E+02  0.25500000000E-02 0. -1.
          2   -1    0    0  501    0  0.00000000000E+00 -0.00000000000E+00 -0.24426019179E+04  0.24426019179E+04  0.25500000000E-02 0.  1.
    5000001    1    1    2    0    0 -0.18657951942E+03  0.12965722083E+03 -0.10779265639E+04  0.11182184890E+04  0.19200000000E+03 0.  0.
   -5000001    1    1    2    0    0  0.18657951942E+03 -0.12965722083E+03 -0.13280762533E+04  0.13609825298E+04  0.19200000000E+03 0.  0.
<mgrwt>
<rscale>  0 0.59798674E+03</rscale>
<asrwt>0</asrwt>
<pdfrwt beam="1">  1        2 0.34894303E+00 0.59798674E+03</pdfrwt>
<pdfrwt beam="2">  1       -2 0.52284445E-02 0.59798674E+03</pdfrwt>
<totfact> 0.94820178E+02</totfact>
</mgrwt>
</event>
<event>
 4    1  0.5812319E-005  0.8095796E+03  0.7818608E-02  0.9546254E-01
         -2   -1    0    0    0  501 -0.00000000000E+00  0.00000000000E+00  0.18454587576E+03  0.18454587578E+03  0.25500000000E-02 0. -1.
          2   -1    0    0  501    0  0.00000000000E+00 -0.00000000000E+00 -0.88788111975E+03  0.88788111975E+03  0.25500000000E-02 0.  1.
    5000001    1    1    2    0    0  0.47210161043E+02 -0.32558880558E+03 -0.17026051576E+03  0.41724035381E+03  0.19200000000E+03 0.  0.
   -5000001    1    1    2    0    0 -0.47210161043E+02  0.32558880558E+03 -0.53307472822E+03  0.65518664172E+03  0.19200000000E+03 0.  0.
<mgrwt>
<rscale>  0 0.80957964E+03</rscale>
<asrwt>0</asrwt>
<pdfrwt beam="1">  1        2 0.12684016E+00 0.80957964E+03</pdfrwt>
<pdfrwt beam="2">  1       -2 0.26363697E-01 0.80957964E+03</pdfrwt>
<totfact> 0.43196049E+02</totfact>
</mgrwt>
</event>
<event>
 4    1  0.5812319E-005  0.8007394E+03  0.7818608E-02  0.9558947E-01
         -2   -1    0    0    0  501 -0.00000000000E+00  0.00000000000E+00  0.82967642360E+02  0.82967642399E+02  0.25500000000E-02 0. -1.
          2   -1    0    0  501    0  0.00000000000E+00 -0.00000000000E+00 -0.19320292709E+04  0.19320292709E+04  0.25500000000E-02 0.  1.
    5000001    1    1    2    0    0  0.10781903206E+01  0.29869660299E+03 -0.13899739425E+04  0.14346122765E+04  0.19200000000E+03 0.  0.
   -5000001    1    1    2    0    0 -0.10781903206E+01 -0.29869660299E+03 -0.45908768605E+03  0.58038463679E+03  0.19200000000E+03 0.  0.
<mgrwt>
<rscale>  0 0.80073944E+03</rscale>
<asrwt>0</asrwt>
<pdfrwt beam="1">  1        2 0.27600415E+00 0.80073944E+03</pdfrwt>
<pdfrwt beam="2">  1       -2 0.11852522E-01 0.80073944E+03</pdfrwt>
<totfact> 0.45858804E+02</totfact>
</mgrwt>
</event>
<event>
 4    1  0.5812319E-005  0.5229153E+03  0.7818608E-02  0.1007965E+00
         -2   -1    0    0    0  501 -0.00000000000E+00  0.00000000000E+00  0.10903208158E+03  0.10903208161E+03  0.25500000000E-02 0. -1.
          2   -1    0    0  501    0  0.00000000000E+00 -0.00000000000E+00 -0.62697248398E+03  0.62697248398E+03  0.25500000000E-02 0.  1.
    5000001    1    1    2    0    0 -0.14211924803E+03  0.83144341777E+01 -0.40811966044E+03  0.47296159222E+03  0.19200000000E+03 0.  0.
   -5000001    1    1    2    0    0  0.14211924803E+03 -0.83144341777E+01 -0.10982074196E+03  0.26304297337E+03  0.19200000000E+03 0.  0.
<mgrwt>
<rscale>  0 0.52291535E+03</rscale>
<asrwt>0</asrwt>
<pdfrwt beam="1">  1        2 0.89567495E-01 0.52291535E+03</pdfrwt>
<pdfrwt beam="2">  1       -2 0.15576012E-01 0.52291535E+03</pdfrwt>
<totfact> 0.16887676E+03</totfact>
</mgrwt>
</event>
<event>
 4    1  0.5812319E-005  0.6619788E+03  0.7818608E-02  0.9784558E-01
         -2   -1    0    0    0  501 -0.00000000000E+00  0.00000000000E+00  0.11109954821E+04  0.11109954821E+04  0.25500000000E-02 0. -1.
          2   -1    0    0  501    0  0.00000000000E+00 -0.00000000000E+00 -0.98608849117E+02  0.98608849150E+02  0.25500000000E-02 0.  1.
    5000001    1    1    2    0    0 -0.22656837406E+03  0.11432091755E+03  0.33984797661E+03  0.46557829365E+03  0.19200000000E+03 0.  0.
   -5000001    1    1    2    0    0  0.22656837406E+03 -0.11432091755E+03  0.67253865640E+03  0.74402603763E+03  0.19200000000E+03 0.  0.
<mgrwt>
<rscale>  0 0.66197881E+03</rscale>
<asrwt>0</asrwt>
<pdfrwt beam="1">  1        2 0.14086978E-01 0.66197881E+03</pdfrwt>
<pdfrwt beam="2">  1       -2 0.15871364E+00 0.66197881E+03</pdfrwt>
<totfact> 0.11323909E+02</totfact>
</mgrwt>
</event>
<event>
 4    1  0.5812319E-005  0.1128215E+04  0.7818608E-02  0.9178119E-01
          2   -1    0    0  501    0  0.00000000000E+00  0.00000000000E+00  0.81032023727E+03  0.81032023728E+03  0.25500000000E-02 0.  1.
         -2   -1    0    0    0  501 -0.00000000000E+00 -0.00000000000E+00 -0.39270584741E+03  0.39270584742E+03  0.25500000000E-02 0. -1.
    5000001    1    1    2    0    0  0.39480017026E+03 -0.17298781294E+03  0.53843556748E+03  0.71593911626E+03  0.19200000000E+03 0.  0.
   -5000001    1    1    2    0    0 -0.39480017026E+03  0.17298781294E+03 -0.12082117762E+03  0.48708696844E+03  0.19200000000E+03 0.  0.
<mgrwt>
<rscale>  0 0.11282154E+04</rscale>
<asrwt>0</asrwt>
<pdfrwt beam="1">  1        2 0.11576003E+00 0.11282154E+04</pdfrwt>
<pdfrwt beam="2">  1       -2 0.56100837E-01 0.11282154E+04</pdfrwt>
<totfact> 0.11058041E+02</totfact>
</mgrwt>
</event>
<event>
 4    1  0.5812319E-005  0.5773592E+03  0.7818608E-02  0.9953525E-01
          2   -1    0    0  501    0  0.00000000000E+00  0.00000000000E+00  0.12353149640E+04  0.12353149640E+04  0.25500000000E-02 0.  1.
         -2   -1    0    0    0  501 -0.00000000000E+00 -0.00000000000E+00 -0.67461273312E+02  0.67461273361E+02  0.25500000000E-02 0. -1.
    5000001    1    1    2    0    0  0.11626531849E+03  0.11315980505E+03  0.26363039183E+03  0.36426329661E+03  0.19200000000E+03 0.  0.
   -5000001    1    1    2    0    0 -0.11626531849E+03 -0.11315980505E+03  0.90422329889E+03  0.93851294078E+03  0.19200000000E+03 0.  0.
<mgrwt>
<rscale>  0 0.57735923E+03</rscale>
<asrwt>0</asrwt>
<pdfrwt beam="1">  1        2 0.17647355E+00 0.57735923E+03</pdfrwt>
<pdfrwt beam="2">  1       -2 0.96373255E-02 0.57735923E+03</pdfrwt>
<totfact> 0.15002787E+03</totfact>
</mgrwt>
</event>
<event>
 4    1  0.5812319E-005  0.5895749E+03  0.7818608E-02  0.9927274E-01
         -2   -1    0    0    0  501 -0.00000000000E+00  0.00000000000E+00  0.40985844416E+02  0.40985844495E+02  0.25500000000E-02 0. -1.
          2   -1    0    0  501    0  0.00000000000E+00 -0.00000000000E+00 -0.21202356099E+04  0.21202356099E+04  0.25500000000E-02 0.  1.
    5000001    1    1    2    0    0  0.60064606805E+02  0.16178468922E+03 -0.15613135812E+04  0.15825126039E+04  0.19200000000E+03 0.  0.
   -5000001    1    1    2    0    0 -0.60064606805E+02 -0.16178468922E+03 -0.51793618428E+03  0.57870885050E+03  0.19200000000E+03 0.  0.
<mgrwt>
<rscale>  0 0.58957492E+03</rscale>
<asrwt>0</asrwt>
<pdfrwt beam="1">  1        2 0.30289073E+00 0.58957492E+03</pdfrwt>
<pdfrwt beam="2">  1       -2 0.58551220E-02 0.58957492E+03</pdfrwt>
<totfact> 0.11575846E+03</totfact>
</mgrwt>
</event>
<event>
 4    1  0.5812319E-005  0.6712722E+03  0.7818608E-02  0.9767662E-01
         -2   -1    0    0    0  501 -0.00000000000E+00  0.00000000000E+00  0.12016967104E+03  0.12016967107E+03  0.25500000000E-02 0.  1.
          2   -1    0    0  501    0  0.00000000000E+00 -0.00000000000E+00 -0.93743773405E+03  0.93743773405E+03  0.25500000000E-02 0. -1.
    5000001    1    1    2    0    0 -0.10865607066E+03 -0.24445048995E+03 -0.51104813577E+03  0.60794438956E+03  0.19200000000E+03 0.  0.
   -5000001    1    1    2    0    0  0.10865607066E+03  0.24445048995E+03 -0.30621992724E+03  0.44966301556E+03  0.19200000000E+03 0.  0.
<mgrwt>
<rscale>  0 0.67127218E+03</rscale>
<asrwt>0</asrwt>
<pdfrwt beam="1">  1        2 0.13391967E+00 0.67127218E+03</pdfrwt>
<pdfrwt beam="2">  1       -2 0.17167096E-01 0.67127218E+03</pdfrwt>
<totfact> 0.85913829E+02</totfact>
</mgrwt>
</event>
<event>
 4    1  0.5812319E-005  0.5591522E+03  0.7818608E-02  0.9993975E-01
         -2   -1    0    0    0  501 -0.00000000000E+00  0.00000000000E+00  0.23465091731E+02  0.23465091869E+02  0.25500000000E-02 0. -1.
          2   -1    0    0  501    0  0.00000000000E+00 -0.00000000000E+00 -0.33310247574E+04  0.33310247574E+04  0.25500000000E-02 0.  1.
    5000001    1    1    2    0    0 -0.19918271964E+03  0.26442296771E+02 -0.18363235732E+04  0.18572348307E+04  0.19200000000E+03 0.  0.
   -5000001    1    1    2    0    0  0.19918271964E+03 -0.26442296771E+02 -0.14712360925E+04  0.14972550187E+04  0.19200000000E+03 0.  0.
<mgrwt>
<rscale>  0 0.55915222E+03</rscale>
<asrwt>0</asrwt>
<pdfrwt beam="1">  1        2 0.47586038E+00 0.55915222E+03</pdfrwt>
<pdfrwt beam="2">  1       -2 0.33521581E-02 0.55915222E+03</pdfrwt>
<totfact> 0.62821126E+02</totfact>
</mgrwt>
</event>
<event>
 4    1  0.5812319E-005  0.6763002E+03  0.7818608E-02  0.9758643E-01
         -2   -1    0    0    0  501 -0.00000000000E+00  0.00000000000E+00  0.15538093399E+03  0.15538093401E+03  0.25500000000E-02 0. -1.
          2   -1    0    0  501    0  0.00000000000E+00 -0.00000000000E+00 -0.73590419494E+03  0.73590419495E+03  0.25500000000E-02 0.  1.
    5000001    1    1    2    0    0  0.25414883670E+03  0.10474232738E+03 -0.23253147258E+03  0.40804101765E+03  0.19200000000E+03 0.  0.
   -5000001    1    1    2    0    0 -0.25414883670E+03 -0.10474232738E+03 -0.34799178837E+03  0.48324411131E+03  0.19200000000E+03 0.  0.
<mgrwt>
<rscale>  0 0.67630017E+03</rscale>
<asrwt>0</asrwt>
<pdfrwt beam="1">  1        2 0.10512917E+00 0.67630017E+03</pdfrwt>
<pdfrwt beam="2">  1       -2 0.22197277E-01 0.67630017E+03</pdfrwt>
<totfact> 0.75286943E+02</totfact>
</mgrwt>
</event>
<event>
 4    1  0.5812319E-005  0.7772548E+03  0.7818608E-02  0.9593536E-01
          2   -1    0    0  501    0  0.00000000000E+00  0.00000000000E+00  0.96714358809E+03  0.96714358809E+03  0.25500000000E-02 0.  1.
         -2   -1    0    0    0  501 -0.00000000000E+00 -0.00000000000E+00 -0.15616218900E+03  0.15616218903E+03  0.25500000000E-02 0. -1.
    5000001    1    1    2    0    0 -0.26120271899E+02  0.29939597568E+03  0.18231247256E+03  0.40052722318E+03  0.19200000000E+03 0.  0.
   -5000001    1    1    2    0    0  0.26120271899E+02 -0.29939597568E+03  0.62866892653E+03  0.72277855394E+03  0.19200000000E+03 0.  0.
<mgrwt>
<rscale>  0 0.77725481E+03</rscale>
<asrwt>0</asrwt>
<pdfrwt beam="1">  1        2 0.13816337E+00 0.77725481E+03</pdfrwt>
<pdfrwt beam="2">  1       -2 0.22308883E-01 0.77725481E+03</pdfrwt>
<totfact> 0.51940087E+02</totfact>
</mgrwt>
</event>
<event>
 4    1  0.5812319E-005  0.6292844E+03  0.7818608E-02  0.9846446E-01
          2   -1    0    0  501    0  0.00000000000E+00  0.00000000000E+00  0.43077038925E+03  0.43077038926E+03  0.25500000000E-02 0.  1.
         -2   -1    0    0    0  501 -0.00000000000E+00 -0.00000000000E+00 -0.22982012256E+03  0.22982012257E+03  0.25500000000E-02 0. -1.
    5000001    1    1    2    0    0  0.17681919341E+02 -0.13611171251E+03  0.31890527210E+03  0.39674125211E+03  0.19200000000E+03 0.  0.
   -5000001    1    1    2    0    0 -0.17681919341E+02  0.13611171251E+03 -0.11795500541E+03  0.26384925972E+03  0.19200000000E+03 0.  0.
<mgrwt>
<rscale>  0 0.62928437E+03</rscale>
<asrwt>0</asrwt>
<pdfrwt beam="1">  1        2 0.61538626E-01 0.62928437E+03</pdfrwt>
<pdfrwt beam="2">  1       -2 0.32831447E-01 0.62928437E+03</pdfrwt>
<totfact> 0.69169381E+02</totfact>
</mgrwt>
</event>
<event>
 4    1  0.5812319E-005  0.1453197E+04  0.7818608E-02  0.8916187E-01
          2   -1    0    0  501    0  0.00000000000E+00  0.00000000000E+00  0.84527048634E+03  0.84527048634E+03  0.25500000000E-02 0.  1.
         -2   -1    0    0    0  501 -0.00000000000E+00 -0.00000000000E+00 -0.62458753069E+03  0.62458753070E+03  0.25500000000E-02 0. -1.
    5000001    1    1    2    0    0 -0.27966847808E+03 -0.48049120557E+03 -0.32115851132E+03  0.67014404843E+03  0.19200000000E+03 0.  0.
   -5000001    1    1    2    0    0  0.27966847808E+03  0.48049120557E+03  0.54184146696E+03  0.79971396860E+03  0.19200000000E+03 0.  0.
<mgrwt>
<rscale>  0 0.14531970E+04</rscale>
<asrwt>0</asrwt>
<pdfrwt beam="1">  1        2 0.12075293E+00 0.14531970E+04</pdfrwt>
<pdfrwt beam="2">  1       -2 0.89226790E-01 0.14531970E+04</pdfrwt>
<totfact> 0.37044956E+01</totfact>
</mgrwt>
</event>
<event>
 4    1  0.5812319E-005  0.4678347E+03  0.7818608E-02  0.1022533E+00
         -2   -1    0    0    0  501 -0.00000000000E+00  0.00000000000E+00  0.21896864379E+02  0.21896864527E+02  0.25500000000E-02 0. -1.
          2   -1    0    0  501    0  0.00000000000E+00 -0.00000000000E+00 -0.24988662986E+04  0.24988662986E+04  0.25500000000E-02 0.  1.
    5000001    1    1    2    0    0  0.56269649498E+02  0.47901691582E+02 -0.63866756396E+03  0.67098517328E+03  0.19200000000E+03 0.  0.
   -5000001    1    1    2    0    0 -0.56269649498E+02 -0.47901691582E+02 -0.18383018703E+04  0.18497779899E+04  0.19200000000E+03 0.  0.
<mgrwt>
<rscale>  0 0.46783474E+03</rscale>
<asrwt>0</asrwt>
<pdfrwt beam="1">  1        2 0.35698072E+00 0.46783474E+03</pdfrwt>
<pdfrwt beam="2">  1       -2 0.31281251E-02 0.46783474E+03</pdfrwt>
<totfact> 0.19680231E+03</totfact>
</mgrwt>
</event>
<event>
 4    1  0.5812319E-005  0.1233513E+04  0.7818608E-02  0.9084018E-01
         -2   -1    0    0    0  501 -0.00000000000E+00  0.00000000000E+00  0.24234817132E+03  0.24234817133E+03  0.25500000000E-02 0. -1.
          2   -1    0    0  501    0  0.00000000000E+00 -0.00000000000E+00 -0.15695958228E+04  0.15695958228E+04  0.25500000000E-02 0.  1.
    5000001    1    1    2    0    0 -0.51552671185E+03  0.24639148842E+03 -0.85541969321E+03  0.10464623298E+04  0.19200000000E+03 0.  0.
   -5000001    1    1    2    0    0  0.51552671185E+03 -0.24639148842E+03 -0.47182795827E+03  0.76548166432E+03  0.19200000000E+03 0.  0.
<mgrwt>
<rscale>  0 0.12335132E+04</rscale>
<asrwt>0</asrwt>
<pdfrwt beam="1">  1        2 0.22422797E+00 0.12335132E+04</pdfrwt>
<pdfrwt beam="2">  1       -2 0.34621168E-01 0.12335132E+04</pdfrwt>
<totfact> 0.10334157E+02</totfact>
</mgrwt>
</event>
<event>
 4    1  0.5812319E-005  0.4346138E+03  0.7818608E-02  0.1032412E+00
         -2   -1    0    0    0  501 -0.00000000000E+00  0.00000000000E+00  0.21215468656E+02  0.21215468809E+02  0.25500000000E-02 0. -1.
          2   -1    0    0  501    0  0.00000000000E+00 -0.00000000000E+00 -0.22258419227E+04  0.22258419227E+04  0.25500000000E-02 0.  1.
    5000001    1    1    2    0    0  0.10050847057E+03 -0.15934486812E+02 -0.10942715672E+04  0.11156388857E+04  0.19200000000E+03 0.  0.
   -5000001    1    1    2    0    0 -0.10050847057E+03  0.15934486812E+02 -0.11103548868E+04  0.11314185058E+04  0.19200000000E+03 0.  0.
<mgrwt>
<rscale>  0 0.43461376E+03</rscale>
<asrwt>0</asrwt>
<pdfrwt beam="1">  1        2 0.31797727E+00 0.43461376E+03</pdfrwt>
<pdfrwt beam="2">  1       -2 0.30307827E-02 0.43461376E+03</pdfrwt>
<totfact> 0.28372936E+03</totfact>
</mgrwt>
</event>
<event>
 4    1  0.5812319E-005  0.4612474E+03  0.7818608E-02  0.1024420E+00
         -2   -1    0    0    0  501 -0.00000000000E+00  0.00000000000E+00  0.29555052846E+02  0.29555052956E+02  0.25500000000E-02 0. -1.
          2   -1    0    0  501    0  0.00000000000E+00 -0.00000000000E+00 -0.17996004313E+04  0.17996004313E+04  0.25500000000E-02 0.  1.
    5000001    1    1    2    0    0 -0.11518677199E+03 -0.52586154280E+02 -0.95255446037E+03  0.97992718915E+03  0.19200000000E+03 0.  0.
   -5000001    1    1    2    0    0  0.11518677199E+03  0.52586154280E+02 -0.81749091807E+03  0.84922829510E+03  0.19200000000E+03 0.  0.
<mgrwt>
<rscale>  0 0.46124738E+03</rscale>
<asrwt>0</asrwt>
<pdfrwt beam="1">  1        2 0.25708571E+00 0.46124738E+03</pdfrwt>
<pdfrwt beam="2">  1       -2 0.42221515E-02 0.46124738E+03</pdfrwt>
<totfact> 0.27923599E+03</totfact>
</mgrwt>
</event>
<event>
 4    1  0.5812319E-005  0.4921545E+03  0.7818608E-02  0.1015847E+00
          2   -1    0    0  501    0  0.00000000000E+00  0.00000000000E+00  0.15394139519E+03  0.15394139521E+03  0.25500000000E-02 0.  1.
         -2   -1    0    0    0  501 -0.00000000000E+00 -0.00000000000E+00 -0.39335755333E+03  0.39335755334E+03  0.25500000000E-02 0. -1.
    5000001    1    1    2    0    0 -0.11378613709E+03  0.30529238671E+02 -0.95610052018E+01  0.22546558990E+03  0.19200000000E+03 0.  0.
   -5000001    1    1    2    0    0  0.11378613709E+03 -0.30529238671E+02 -0.22985515294E+03  0.32183335865E+03  0.19200000000E+03 0.  0.
<mgrwt>
<rscale>  0 0.49215449E+03</rscale>
<asrwt>0</asrwt>
<pdfrwt beam="1">  1        2 0.21991628E-01 0.49215449E+03</pdfrwt>
<pdfrwt beam="2">  1       -2 0.56193936E-01 0.49215449E+03</pdfrwt>
<totfact> 0.75950584E+02</totfact>
</mgrwt>
</event>
<event>
 4    1  0.5812319E-005  0.5848822E+03  0.7818608E-02  0.9937277E-01
         -2   -1    0    0    0  501 -0.00000000000E+00  0.00000000000E+00  0.43262677219E+03  0.43262677220E+03  0.25500000000E-02 0. -1.
          2   -1    0    0  501    0  0.00000000000E+00 -0.00000000000E+00 -0.19768031940E+03  0.19768031942E+03  0.25500000000E-02 0.  1.
    5000001    1    1    2    0    0 -0.13893471452E+03 -0.23435745373E+02 -0.65430718706E+02  0.24697624989E+03  0.19200000000E+03 0.  0.
   -5000001    1    1    2    0    0  0.13893471452E+03  0.23435745373E+02  0.30037717150E+03  0.38333084172E+03  0.19200000000E+03 0.  0.
<mgrwt>
<rscale>  0 0.58488221E+03</rscale>
<asrwt>0</asrwt>
<pdfrwt beam="1">  1        2 0.28240046E-01 0.58488221E+03</pdfrwt>
<pdfrwt beam="2">  1       -2 0.61803825E-01 0.58488221E+03</pdfrwt>
<totfact> 0.46759382E+02</totfact>
</mgrwt>
</event>
<event>
 4    1  0.5812319E-005  0.5312911E+03  0.7818608E-02  0.1005919E+00
          2   -1    0    0  501    0  0.00000000000E+00  0.00000000000E+00  0.16170903329E+04  0.16170903329E+04  0.25500000000E-02 0.  1.
         -2   -1    0    0    0  501 -0.00000000000E+00 -0.00000000000E+00 -0.43638597658E+02  0.43638597732E+02  0.25500000000E-02 0. -1.
    5000001    1    1    2    0    0 -0.17738221518E+03  0.30634177657E+02  0.89945772814E+03  0.93717186675E+03  0.19200000000E+03 0.  0.
   -5000001    1    1    2    0    0  0.17738221518E+03 -0.30634177657E+02  0.67399400713E+03  0.72355706392E+03  0.19200000000E+03 0.  0.
<mgrwt>
<rscale>  0 0.53129109E+03</rscale>
<asrwt>0</asrwt>
<pdfrwt beam="1">  1        2 0.23101291E+00 0.53129109E+03</pdfrwt>
<pdfrwt beam="2">  1       -2 0.62340853E-02 0.53129109E+03</pdfrwt>
<totfact> 0.18858352E+03</totfact>
</mgrwt>
</event>
<event>
 4    1  0.5812319E-005  0.4782919E+03  0.7818608E-02  0.1019606E+00
         -2   -1    0    0    0  501 -0.00000000000E+00  0.00000000000E+00  0.42072592468E+03  0.42072592469E+03  0.25500000000E-02 0. -1.
          2   -1    0    0  501    0  0.00000000000E+00 -0.00000000000E+00 -0.13593358646E+03  0.13593358649E+03  0.25500000000E-02 0.  1.
    5000001    1    1    2    0    0 -0.32182488348E+02 -0.87622868906E+02  0.16973940348E+02  0.21416254192E+03  0.19200000000E+03 0.  0.
   -5000001    1    1    2    0    0  0.32182488348E+02  0.87622868906E+02  0.26781839787E+03  0.34249696926E+03  0.19200000000E+03 0.  0.
<mgrwt>
<rscale>  0 0.47829189E+03</rscale>
<asrwt>0</asrwt>
<pdfrwt beam="1">  1        2 0.19419084E-01 0.47829189E+03</pdfrwt>
<pdfrwt beam="2">  1       -2 0.60103704E-01 0.47829189E+03</pdfrwt>
<totfact> 0.76283421E+02</totfact>
</mgrwt>
</event>
<event>
 4    1  0.5812319E-005  0.7910635E+03  0.7818608E-02  0.9573043E-01
          2   -1    0    0  501    0  0.00000000000E+00  0.00000000000E+00  0.14029766975E+04  0.14029766975E+04  0.25500000000E-02 0.  1.
         -2   -1    0    0    0  501 -0.00000000000E+00 -0.00000000000E+00 -0.11150959672E+03  0.11150959675E+03  0.25500000000E-02 0. -1.
    5000001    1    1    2    0    0 -0.71640238758E+02 -0.23595351374E+03  0.11098748886E+04  0.11530362756E+04  0.19200000000E+03 0.  0.
   -5000001    1    1    2    0    0  0.71640238758E+02  0.23595351374E+03  0.18159221212E+03  0.36145001862E+03  0.19200000000E+03 0.  0.
<mgrwt>
<rscale>  0 0.79106350E+03</rscale>
<asrwt>0</asrwt>
<pdfrwt beam="1">  1        2 0.20042525E+00 0.79106350E+03</pdfrwt>
<pdfrwt beam="2">  1       -2 0.15929942E-01 0.79106350E+03</pdfrwt>
<totfact> 0.52468469E+02</totfact>
</mgrwt>
</event>
<event>
 4    1  0.5812319E-005  0.4381387E+03  0.7818608E-02  0.1031319E+00
         -2   -1    0    0    0  501 -0.00000000000E+00  0.00000000000E+00  0.12372008933E+03  0.12372008935E+03  0.25500000000E-02 0. -1.
          2   -1    0    0  501    0  0.00000000000E+00 -0.00000000000E+00 -0.38790285588E+03  0.38790285589E+03  0.25500000000E-02 0.  1.
    5000001    1    1    2    0    0 -0.58206661539E+02  0.23658417740E+02 -0.33147319083E+02  0.20472049467E+03  0.19200000000E+03 0.  0.
   -5000001    1    1    2    0    0  0.58206661539E+02 -0.23658417740E+02 -0.23103544747E+03  0.30690245057E+03  0.19200000000E+03 0.  0.
<mgrwt>
<rscale>  0 0.43813868E+03</rscale>
<asrwt>0</asrwt>
<pdfrwt beam="1">  1        2 0.55414693E-01 0.43813868E+03</pdfrwt>
<pdfrwt beam="2">  1       -2 0.17674299E-01 0.43813868E+03</pdfrwt>
<totfact> 0.23447361E+03</totfact>
</mgrwt>
</event>
<event>
 4    1  0.5812319E-005  0.7315697E+03  0.7818608E-02  0.9664717E-01
          2   -1    0    0  501    0  0.00000000000E+00  0.00000000000E+00  0.20695005871E+04  0.20695005871E+04  0.25500000000E-02 0.  1.
         -2   -1    0    0    0  501 -0.00000000000E+00 -0.00000000000E+00 -0.64652580462E+02  0.64652580513E+02  0.25500000000E-02 0. -1.
    5000001    1    1    2    0    0  0.22132279429E+03  0.21897310160E+03  0.99878648727E+03  0.10636594594E+04  0.19200000000E+03 0.  0.
   -5000001    1    1    2    0    0 -0.22132279429E+03 -0.21897310160E+03  0.10060615194E+04  0.10704937082E+04  0.19200000000E+03 0.  0.
<mgrwt>
<rscale>  0 0.73156969E+03</rscale>
<asrwt>0</asrwt>
<pdfrwt beam="1">  1        2 0.29564294E+00 0.73156969E+03</pdfrwt>
<pdfrwt beam="2">  1       -2 0.92360829E-02 0.73156969E+03</pdfrwt>
<totfact> 0.58994029E+02</totfact>
</mgrwt>
</event>
<event>
 4    1  0.5812319E-005  0.1355671E+04  0.7818608E-02  0.8986546E-01
          2   -1    0    0  501    0  0.00000000000E+00  0.00000000000E+00  0.12790188697E+04  0.12790188697E+04  0.25500000000E-02 0.  1.
         -2   -1    0    0    0  501 -0.00000000000E+00 -0.00000000000E+00 -0.35922923179E+03  0.35922923179E+03  0.25500000000E-02 0. -1.
    5000001    1    1    2    0    0 -0.41073736656E+03 -0.32558527719E+03  0.92461219508E+03  0.10800382717E+04  0.19200000000E+03 0.  0.
   -5000001    1    1    2    0    0  0.41073736656E+03  0.32558527719E+03 -0.48225571926E+01  0.55820982979E+03  0.19200000000E+03 0.  0.
<mgrwt>
<rscale>  0 0.13556710E+04</rscale>
<asrwt>0</asrwt>
<pdfrwt beam="1">  1        2 0.18271698E+00 0.13556710E+04</pdfrwt>
<pdfrwt beam="2">  1       -2 0.51318461E-01 0.13556710E+04</pdfrwt>
<totfact> 0.67601274E+01</totfact>
</mgrwt>
</event>
<event>
 4    1  0.5812319E-005  0.4938921E+03  0.7818608E-02  0.1015386E+00
          2   -1    0    0  501    0  0.00000000000E+00  0.00000000000E+00  0.19909729276E+04  0.19909729276E+04  0.25500000000E-02 0.  1.
         -2   -1    0    0    0  501 -0.00000000000E+00 -0.00000000000E+00 -0.30629423047E+02  0.30629423154E+02  0.25500000000E-02 0. -1.
    5000001    1    1    2    0    0 -0.58928513267E+02  0.10809414362E+03  0.13676546329E+04  0.13865425015E+04  0.19200000000E+03 0.  0.
   -5000001    1    1    2    0    0  0.58928513267E+02 -0.10809414362E+03  0.59268887164E+03  0.63505984925E+03  0.19200000000E+03 0.  0.
<mgrwt>
<rscale>  0 0.49389210E+03</rscale>
<asrwt>0</asrwt>
<pdfrwt beam="1">  1        2 0.28442467E+00 0.49389210E+03</pdfrwt>
<pdfrwt beam="2">  1       -2 0.43756324E-02 0.49389210E+03</pdfrwt>
<totfact> 0.21194717E+03</totfact>
</mgrwt>
</event>
<event>
 4    1  0.5812319E-005  0.6225780E+03  0.7818608E-02  0.9859640E-01
         -2   -1    0    0    0  501 -0.00000000000E+00  0.00000000000E+00  0.27902701474E+03  0.27902701475E+03  0.25500000000E-02 0. -1.
          2   -1    0    0  501    0  0.00000000000E+00 -0.00000000000E+00 -0.34728124918E+03  0.34728124919E+03  0.25500000000E-02 0.  1.
    5000001    1    1    2    0    0 -0.76793072486E+01 -0.10961818699E+03  0.18618672250E+03  0.28914462526E+03  0.19200000000E+03 0.  0.
   -5000001    1    1    2    0    0  0.76793072486E+01  0.10961818699E+03 -0.25444095694E+03  0.33716363868E+03  0.19200000000E+03 0.  0.
<mgrwt>
<rscale>  0 0.62257803E+03</rscale>
<asrwt>0</asrwt>
<pdfrwt beam="1">  1        2 0.49611607E-01 0.62257803E+03</pdfrwt>
<pdfrwt beam="2">  1       -2 0.39861002E-01 0.62257803E+03</pdfrwt>
<totfact> 0.60703918E+02</totfact>
</mgrwt>
</event>
<event>
 4    1  0.5812319E-005  0.4088839E+03  0.7818608E-02  0.1040746E+00
          2   -1    0    0  501    0  0.00000000000E+00  0.00000000000E+00  0.89343637712E+03  0.89343637713E+03  0.25500000000E-02 0.  1.
         -2   -1    0    0    0  501 -0.00000000000E+00 -0.00000000000E+00 -0.46781742499E+02  0.46781742569E+02  0.25500000000E-02 0. -1.
    5000001    1    1    2    0    0  0.57843075697E+02  0.15293744125E+02  0.33875195072E+03  0.39395000207E+03  0.19200000000E+03 0.  0.
   -5000001    1    1    2    0    0 -0.57843075697E+02 -0.15293744125E+02  0.50790268390E+03  0.54626811762E+03  0.19200000000E+03 0.  0.
<mgrwt>
<rscale>  0 0.40888390E+03</rscale>
<asrwt>0</asrwt>
<pdfrwt beam="1">  1        2 0.12763376E+00 0.40888390E+03</pdfrwt>
<pdfrwt beam="2">  1       -2 0.66831064E-02 0.40888390E+03</pdfrwt>
<totfact> 0.42664289E+03</totfact>
</mgrwt>
</event>
<event>
 4    1  0.5812319E-005  0.4344258E+03  0.7818608E-02  0.1032471E+00
          2   -1    0    0  501    0  0.00000000000E+00  0.00000000000E+00  0.31776967091E+03  0.31776967092E+03  0.25500000000E-02 0.  1.
         -2   -1    0    0    0  501 -0.00000000000E+00 -0.00000000000E+00 -0.14847688558E+03  0.14847688560E+03  0.25500000000E-02 0. -1.
    5000001    1    1    2    0    0 -0.59013819332E+02 -0.73907748244E+02  0.44886003508E+02  0.21868639517E+03  0.19200000000E+03 0.  0.
   -5000001    1    1    2    0    0  0.59013819332E+02  0.73907748244E+02  0.12440678183E+03  0.24756016135E+03  0.19200000000E+03 0.  0.
<mgrwt>
<rscale>  0 0.43442583E+03</rscale>
<asrwt>0</asrwt>
<pdfrwt beam="1">  1        2 0.45395667E-01 0.43442583E+03</pdfrwt>
<pdfrwt beam="2">  1       -2 0.21210984E-01 0.43442583E+03</pdfrwt>
<totfact> 0.21303485E+03</totfact>
</mgrwt>
</event>
<event>
 4    1  0.5812319E-005  0.7800455E+03  0.7818608E-02  0.9589358E-01
         -2   -1    0    0    0  501 -0.00000000000E+00  0.00000000000E+00  0.17289294894E+03  0.17289294896E+03  0.25500000000E-02 0. -1.
          2   -1    0    0  501    0  0.00000000000E+00 -0.00000000000E+00 -0.87983775066E+03  0.87983775066E+03  0.25500000000E-02 0.  1.
    5000001    1    1    2    0    0 -0.14815535967E+03 -0.30535900726E+03 -0.36389208936E+03  0.53336252832E+03  0.19200000000E+03 0.  0.
   -5000001    1    1    2    0    0  0.14815535967E+03  0.30535900726E+03 -0.34305271235E+03  0.51936817131E+03  0.19200000000E+03 0.  0.
<mgrwt>
<rscale>  0 0.78004549E+03</rscale>
<asrwt>0</asrwt>
<pdfrwt beam="1">  1        2 0.12569111E+00 0.78004549E+03</pdfrwt>
<pdfrwt beam="2">  1       -2 0.24698993E-01 0.78004549E+03</pdfrwt>
<totfact> 0.49258856E+02</totfact>
</mgrwt>
</event>
<event>
 4    1  0.5812319E-005  0.4833459E+03  0.7818608E-02  0.1018220E+00
         -2   -1    0    0    0  501 -0.00000000000E+00  0.00000000000E+00  0.15539941328E+02  0.15539941537E+02  0.25500000000E-02 0. -1.
          2   -1    0    0  501    0  0.00000000000E+00 -0.00000000000E+00 -0.37584319627E+04  0.37584319627E+04  0.25500000000E-02 0.  1.
    5000001    1    1    2    0    0 -0.43216040968E+02  0.18245986515E+02 -0.78556277183E+03  0.81004531398E+03  0.19200000000E+03 0.  0.
   -5000001    1    1    2    0    0  0.43216040968E+02 -0.18245986515E+02 -0.29573292496E+04  0.29639265903E+04  0.19200000000E+03 0.  0.
<mgrwt>
<rscale>  0 0.48334589E+03</rscale>
<asrwt>0</asrwt>
<pdfrwt beam="1">  1        2 0.53691827E+00 0.48334589E+03</pdfrwt>
<pdfrwt beam="2">  1       -2 0.22199940E-02 0.48334589E+03</pdfrwt>
<totfact> 0.65638145E+02</totfact>
</mgrwt>
</event>
<event>
 4    1  0.5812319E-005  0.5941117E+03  0.7818608E-02  0.9917698E-01
         -2   -1    0    0    0  501 -0.00000000000E+00  0.00000000000E+00  0.66064353526E+02  0.66064353575E+02  0.25500000000E-02 0. -1.
          2   -1    0    0  501    0  0.00000000000E+00 -0.00000000000E+00 -0.13357004880E+04  0.13357004880E+04  0.25500000000E-02 0.  1.
    5000001    1    1    2    0    0 -0.11545145908E+03 -0.14163178743E+03 -0.95127719199E+03  0.98751248023E+03  0.19200000000E+03 0.  0.
   -5000001    1    1    2    0    0  0.11545145908E+03  0.14163178743E+03 -0.31835894245E+03  0.41425236131E+03  0.19200000000E+03 0.  0.
<mgrwt>
<rscale>  0 0.59411174E+03</rscale>
<asrwt>0</asrwt>
<pdfrwt beam="1">  1        2 0.19081434E+00 0.59411174E+03</pdfrwt>
<pdfrwt beam="2">  1       -2 0.94377656E-02 0.59411174E+03</pdfrwt>
<totfact> 0.13672993E+03</totfact>
</mgrwt>
</event>
<event>
 4    1  0.5812319E-005  0.5993547E+03  0.7818608E-02  0.9906746E-01
         -2   -1    0    0    0  501 -0.00000000000E+00  0.00000000000E+00  0.68021433071E+02  0.68021433119E+02  0.25500000000E-02 0. -1.
          2   -1    0    0  501    0  0.00000000000E+00 -0.00000000000E+00 -0.13202680000E+04  0.13202680000E+04  0.25500000000E-02 0.  1.
    5000001    1    1    2    0    0 -0.64261929134E+02  0.13788636179E+03 -0.10259816951E+04  0.10548197395E+04  0.19200000000E+03 0.  0.
   -5000001    1    1    2    0    0  0.64261929134E+02 -0.13788636179E+03 -0.22626487188E+03  0.33346969360E+03  0.19200000000E+03 0.  0.
<mgrwt>
<rscale>  0 0.59935472E+03</rscale>
<asrwt>0</asrwt>
<pdfrwt beam="1">  1        2 0.18860970E+00 0.59935472E+03</pdfrwt>
<pdfrwt beam="2">  1       -2 0.97173484E-02 0.59935472E+03</pdfrwt>
<totfact> 0.13293774E+03</totfact>
</mgrwt>
</event>
<event>
 4    1  0.5812319E-005  0.4435598E+03  0.7818608E-02  0.1029660E+00
         -2   -1    0    0    0  501 -0.00000000000E+00  0.00000000000E+00  0.16843168650E+02  0.16843168843E+02  0.25500000000E-02 0. -1.
          2   -1    0    0  501    0  0.00000000000E+00 -0.00000000000E+00 -0.29202542502E+04  0.29202542502E+04  0.25500000000E-02 0.  1.
    5000001    1    1    2    0    0  0.79391834589E+02 -0.37664768829E+02 -0.10025723986E+04  0.10245667926E+04  0.19200000000E+03 0.  0.
   -5000001    1    1    2    0    0 -0.79391834589E+02  0.37664768829E+02 -0.19008386830E+04  0.19125306264E+04  0.19200000000E+03 0.  0.
<mgrwt>
<rscale>  0 0.44355985E+03</rscale>
<asrwt>0</asrwt>
<pdfrwt beam="1">  1        2 0.41717886E+00 0.44355985E+03</pdfrwt>
<pdfrwt beam="2">  1       -2 0.24061688E-02 0.44355985E+03</pdfrwt>
<totfact> 0.17677039E+03</totfact>
</mgrwt>
</event>
<event>
 4    1  0.5812319E-005  0.5172304E+03  0.7818608E-02  0.1009377E+00
          2   -1    0    0  501    0  0.00000000000E+00  0.00000000000E+00  0.18875843712E+04  0.18875843712E+04  0.25500000000E-02 0.  1.
         -2   -1    0    0    0  501 -0.00000000000E+00 -0.00000000000E+00 -0.35432496021E+02  0.35432496112E+02  0.25500000000E-02 0. -1.
    5000001    1    1    2    0    0 -0.15632889865E+03 -0.48582368141E+02  0.11370114628E+04  0.11646707851E+04  0.19200000000E+03 0.  0.
   -5000001    1    1    2    0    0  0.15632889865E+03  0.48582368141E+02  0.71514041242E+03  0.75834608229E+03  0.19200000000E+03 0.  0.
<mgrwt>
<rscale>  0 0.51723042E+03</rscale>
<asrwt>0</asrwt>
<pdfrwt beam="1">  1        2 0.26965506E+00 0.51723042E+03</pdfrwt>
<pdfrwt beam="2">  1       -2 0.50617824E-02 0.51723042E+03</pdfrwt>
<totfact> 0.19053686E+03</totfact>
</mgrwt>
</event>
<event>
 4    1  0.5812319E-005  0.5067984E+03  0.7818608E-02  0.1012020E+00
          2   -1    0    0  501    0  0.00000000000E+00  0.00000000000E+00  0.86583861688E+03  0.86583861688E+03  0.25500000000E-02 0.  1.
         -2   -1    0    0    0  501 -0.00000000000E+00 -0.00000000000E+00 -0.74160641790E+02  0.74160641834E+02  0.25500000000E-02 0. -1.
    5000001    1    1    2    0    0 -0.12672633367E+03  0.98852876857E+02  0.46804907466E+03  0.53081577896E+03  0.19200000000E+03 0.  0.
   -5000001    1    1    2    0    0  0.12672633367E+03 -0.98852876857E+02  0.32362890043E+03  0.40918347975E+03  0.19200000000E+03 0.  0.
<mgrwt>
<rscale>  0 0.50679837E+03</rscale>
<asrwt>0</asrwt>
<pdfrwt beam="1">  1        2 0.12369122E+00 0.50679837E+03</pdfrwt>
<pdfrwt beam="2">  1       -2 0.10594378E-01 0.50679837E+03</pdfrwt>
<totfact> 0.21398192E+03</totfact>
</mgrwt>
</event>
<event>
 4    1  0.5812319E-005  0.1081639E+04  0.7818608E-02  0.9223275E-01
         -2   -1    0    0    0  501 -0.00000000000E+00  0.00000000000E+00  0.20685835724E+03  0.20685835725E+03  0.25500000000E-02 0. -1.
          2   -1    0    0  501    0  0.00000000000E+00 -0.00000000000E+00 -0.14139417339E+04  0.14139417339E+04  0.25500000000E-02 0.  1.
    5000001    1    1    2    0    0  0.22867027250E+03  0.44424921752E+03 -0.71936265110E+03  0.89665717228E+03  0.19200000000E+03 0.  0.
   -5000001    1    1    2    0    0 -0.22867027250E+03 -0.44424921752E+03 -0.48772072552E+03  0.72414291884E+03  0.19200000000E+03 0.  0.
<mgrwt>
<rscale>  0 0.10816389E+04</rscale>
<asrwt>0</asrwt>
<pdfrwt beam="1">  1        2 0.20199167E+00 0.10816389E+04</pdfrwt>
<pdfrwt beam="2">  1       -2 0.29551195E-01 0.10816389E+04</pdfrwt>
<totfact> 0.17011042E+02</totfact>
</mgrwt>
</event>
<event>
 4    1  0.5812319E-005  0.4961971E+03  0.7818608E-02  0.1014776E+00
          2   -1    0    0  501    0  0.00000000000E+00  0.00000000000E+00  0.19853060213E+04  0.19853060213E+04  0.25500000000E-02 0.  1.
         -2   -1    0    0    0  501 -0.00000000000E+00 -0.00000000000E+00 -0.31004229484E+02  0.31004229589E+02  0.25500000000E-02 0. -1.
    5000001    1    1    2    0    0  0.15341042570E+03 -0.33968929745E+02  0.97912782173E+03  0.10100712540E+04  0.19200000000E+03 0.  0.
   -5000001    1    1    2    0    0 -0.15341042570E+03  0.33968929745E+02  0.97517397008E+03  0.10062389969E+04  0.19200000000E+03 0.  0.
<mgrwt>
<rscale>  0 0.49619707E+03</rscale>
<asrwt>0</asrwt>
<pdfrwt beam="1">  1        2 0.28361523E+00 0.49619707E+03</pdfrwt>
<pdfrwt beam="2">  1       -2 0.44291743E-02 0.49619707E+03</pdfrwt>
<totfact> 0.20936420E+03</totfact>
</mgrwt>
</event>
<event>
 4    1  0.5812319E-005  0.4395412E+03  0.7818608E-02  0.1030888E+00
          2   -1    0    0  501    0  0.00000000000E+00  0.00000000000E+00  0.20742949743E+04  0.20742949743E+04  0.25500000000E-02 0.  1.
         -2   -1    0    0    0  501 -0.00000000000E+00 -0.00000000000E+00 -0.23284591184E+02  0.23284591323E+02  0.25500000000E-02 0. -1.
    5000001    1    1    2    0    0  0.96238320145E+02  0.26241532630E+01  0.80338439399E+03  0.83160037575E+03  0.19200000000E+03 0.  0.
   -5000001    1    1    2    0    0 -0.96238320145E+02 -0.26241532630E+01  0.12476259891E+04  0.12659791898E+04  0.19200000000E+03 0.  0.
<mgrwt>
<rscale>  0 0.43954117E+03</rscale>
<asrwt>0</asrwt>
<pdfrwt beam="1">  1        2 0.29632779E+00 0.43954117E+03</pdfrwt>
<pdfrwt beam="2">  1       -2 0.33263709E-02 0.43954117E+03</pdfrwt>
<totfact> 0.29317563E+03</totfact>
</mgrwt>
</event>
<event>
 4    1  0.5812319E-005  0.7837754E+03  0.7818608E-02  0.9583803E-01
         -2   -1    0    0    0  501 -0.00000000000E+00  0.00000000000E+00  0.12990564035E+03  0.12990564038E+03  0.25500000000E-02 0. -1.
          2   -1    0    0  501    0  0.00000000000E+00 -0.00000000000E+00 -0.11822117257E+04  0.11822117257E+04  0.25500000000E-02 0.  1.
    5000001    1    1    2    0    0  0.39073196931E+02  0.28531528427E+03 -0.21846279141E+03  0.40929392542E+03  0.19200000000E+03 0.  0.
   -5000001    1    1    2    0    0 -0.39073196931E+02 -0.28531528427E+03 -0.83384329391E+03  0.90282344063E+03  0.19200000000E+03 0.  0.
<mgrwt>
<rscale>  0 0.78377540E+03</rscale>
<asrwt>0</asrwt>
<pdfrwt beam="1">  1        2 0.16888738E+00 0.78377540E+03</pdfrwt>
<pdfrwt beam="2">  1       -2 0.18557949E-01 0.78377540E+03</pdfrwt>
<totfact> 0.53423459E+02</totfact>
</mgrwt>
</event>
<event>
 4    1  0.5812319E-005  0.7450118E+03  0.7818608E-02  0.9643209E-01
         -2   -1    0    0    0  501 -0.00000000000E+00  0.00000000000E+00  0.37714321747E+03  0.37714321748E+03  0.25500000000E-02 0. -1.
          2   -1    0    0  501    0  0.00000000000E+00 -0.00000000000E+00 -0.36792564505E+03  0.36792564506E+03  0.25500000000E-02 0.  1.
    5000001    1    1    2    0    0  0.81943908041E+02  0.30355324164E+03  0.59724590953E+02  0.37321629297E+03  0.19200000000E+03 0.  0.
   -5000001    1    1    2    0    0 -0.81943908041E+02 -0.30355324164E+03 -0.50507018526E+02  0.37185256957E+03  0.19200000000E+03 0.  0.
<mgrwt>
<rscale>  0 0.74501184E+03</rscale>
<asrwt>0</asrwt>
<pdfrwt beam="1">  1        2 0.52560807E-01 0.74501184E+03</pdfrwt>
<pdfrwt beam="2">  1       -2 0.53877602E-01 0.74501184E+03</pdfrwt>
<totfact> 0.31062646E+02</totfact>
</mgrwt>
</event>
<event>
 4    1  0.5812319E-005  0.5842130E+03  0.7818608E-02  0.9938711E-01
          2   -1    0    0  501    0  0.00000000000E+00  0.00000000000E+00  0.34438833719E+04  0.34438833719E+04  0.25500000000E-02 0.  1.
         -2   -1    0    0    0  501 -0.00000000000E+00 -0.00000000000E+00 -0.24776159801E+02  0.24776159932E+02  0.25500000000E-02 0. -1.
    5000001    1    1    2    0    0 -0.21251165588E+03 -0.55144496785E+02  0.16138014428E+04  0.16399454919E+04  0.19200000000E+03 0.  0.
   -5000001    1    1    2    0    0  0.21251165588E+03  0.55144496785E+02  0.18053057692E+04  0.18287140399E+04  0.19200000000E+03 0.  0.
<mgrwt>
<rscale>  0 0.58421299E+03</rscale>
<asrwt>0</asrwt>
<pdfrwt beam="1">  1        2 0.49198317E+00 0.58421299E+03</pdfrwt>
<pdfrwt beam="2">  1       -2 0.35394526E-02 0.58421299E+03</pdfrwt>
<totfact> 0.49585887E+02</totfact>
</mgrwt>
</event>
<event>
 4    1  0.5812319E-005  0.4540253E+03  0.7818608E-02  0.1026528E+00
          2   -1    0    0  501    0  0.00000000000E+00  0.00000000000E+00  0.32111359299E+03  0.32111359300E+03  0.25500000000E-02 0.  1.
         -2   -1    0    0    0  501 -0.00000000000E+00 -0.00000000000E+00 -0.16048755312E+03  0.16048755314E+03  0.25500000000E-02 0. -1.
    5000001    1    1    2    0    0  0.10761484897E+03 -0.55584237406E+02  0.80752495207E+02  0.24094714908E+03  0.19200000000E+03 0.  0.
   -5000001    1    1    2    0    0 -0.10761484897E+03  0.55584237406E+02  0.79873544662E+02  0.24065399706E+03  0.19200000000E+03 0.  0.
<mgrwt>
<rscale>  0 0.45402526E+03</rscale>
<asrwt>0</asrwt>
<pdfrwt beam="1">  1        2 0.45873370E-01 0.45402526E+03</pdfrwt>
<pdfrwt beam="2">  1       -2 0.22926794E-01 0.45402526E+03</pdfrwt>
<totfact> 0.18384896E+03</totfact>
</mgrwt>
</event>
<event>
 4    1  0.5812319E-005  0.1000107E+04  0.7818608E-02  0.9308427E-01
         -2   -1    0    0    0  501 -0.00000000000E+00  0.00000000000E+00  0.43887735033E+03  0.43887735034E+03  0.25500000000E-02 0. -1.
          2   -1    0    0  501    0  0.00000000000E+00 -0.00000000000E+00 -0.56975750814E+03  0.56975750815E+03  0.25500000000E-02 0.  1.
    5000001    1    1    2    0    0 -0.17185428656E+03  0.17283683130E+03 -0.46093581998E+03  0.55563683841E+03  0.19200000000E+03 0.  0.
   -5000001    1    1    2    0    0  0.17185428656E+03 -0.17283683130E+03  0.33005566216E+03  0.45299802007E+03  0.19200000000E+03 0.  0.
<mgrwt>
<rscale>  0 0.10001073E+04</rscale>
<asrwt>0</asrwt>
<pdfrwt beam="1">  1        2 0.81393929E-01 0.10001073E+04</pdfrwt>
<pdfrwt beam="2">  1       -2 0.62696765E-01 0.10001073E+04</pdfrwt>
<totfact> 0.13593689E+02</totfact>
</mgrwt>
</event>
<event>
 4    1  0.5812319E-005  0.4939394E+03  0.7818608E-02  0.1015373E+00
          2   -1    0    0  501    0  0.00000000000E+00  0.00000000000E+00  0.70080187101E+03  0.70080187101E+03  0.25500000000E-02 0.  1.
         -2   -1    0    0    0  501 -0.00000000000E+00 -0.00000000000E+00 -0.87034628581E+02  0.87034628618E+02  0.25500000000E-02 0. -1.
    5000001    1    1    2    0    0  0.36364722522E+02 -0.91199989472E+02  0.49888290857E+03  0.54349607872E+03  0.19200000000E+03 0.  0.
   -5000001    1    1    2    0    0 -0.36364722522E+02  0.91199989472E+02  0.11488433386E+03  0.24434042091E+03  0.19200000000E+03 0.  0.
<mgrwt>
<rscale>  0 0.49393939E+03</rscale>
<asrwt>0</asrwt>
<pdfrwt beam="1">  1        2 0.10011456E+00 0.49393939E+03</pdfrwt>
<pdfrwt beam="2">  1       -2 0.12433517E-01 0.49393939E+03</pdfrwt>
<totfact> 0.21501330E+03</totfact>
</mgrwt>
</event>
<event>
 4    1  0.5812319E-005  0.8081527E+03  0.7818608E-02  0.9548291E-01
          2   -1    0    0  501    0  0.00000000000E+00  0.00000000000E+00  0.19231963599E+04  0.19231963599E+04  0.25500000000E-02 0.  1.
         -2   -1    0    0    0  501 -0.00000000000E+00 -0.00000000000E+00 -0.84899121508E+02  0.84899121546E+02  0.25500000000E-02 0. -1.
    5000001    1    1    2    0    0  0.31569146672E+03  0.16345930084E+03  0.90473758910E+03  0.99085526205E+03  0.19200000000E+03 0.  0.
   -5000001    1    1    2    0    0 -0.31569146672E+03 -0.16345930084E+03  0.93355964932E+03  0.10172402194E+04  0.19200000000E+03 0.  0.
<mgrwt>
<rscale>  0 0.80815266E+03</rscale>
<asrwt>0</asrwt>
<pdfrwt beam="1">  1        2 0.27474237E+00 0.80815266E+03</pdfrwt>
<pdfrwt beam="2">  1       -2 0.12128444E-01 0.80815266E+03</pdfrwt>
<totfact> 0.44582165E+02</totfact>
</mgrwt>
</event>
<event>
 4    1  0.5812319E-005  0.5340349E+03  0.7818608E-02  0.1005258E+00
          2   -1    0    0  501    0  0.00000000000E+00  0.00000000000E+00  0.63984494692E+03  0.63984494692E+03  0.25500000000E-02 0.  1.
         -2   -1    0    0    0  501 -0.00000000000E+00 -0.00000000000E+00 -0.11143061676E+03  0.11143061679E+03  0.25500000000E-02 0. -1.
    5000001    1    1    2    0    0 -0.76969743153E+02 -0.15939959140E+03  0.34255603589E+03  0.43074494637E+03  0.19200000000E+03 0.  0.
   -5000001    1    1    2    0    0  0.76969743153E+02  0.15939959140E+03  0.18585829427E+03  0.32053061734E+03  0.19200000000E+03 0.  0.
<mgrwt>
<rscale>  0 0.53403489E+03</rscale>
<asrwt>0</asrwt>
<pdfrwt beam="1">  1        2 0.91406419E-01 0.53403489E+03</pdfrwt>
<pdfrwt beam="2">  1       -2 0.15918660E-01 0.53403489E+03</pdfrwt>
<totfact> 0.15890926E+03</totfact>
</mgrwt>
</event>
<event>
 4    1  0.5812319E-005  0.5058189E+03  0.7818608E-02  0.1012271E+00
          2   -1    0    0  501    0  0.00000000000E+00  0.00000000000E+00  0.66987209362E+03  0.66987209363E+03  0.25500000000E-02 0.  1.
         -2   -1    0    0    0  501 -0.00000000000E+00 -0.00000000000E+00 -0.95485694267E+02  0.95485694301E+02  0.25500000000E-02 0. -1.
    5000001    1    1    2    0    0 -0.16030219918E+03 -0.27509988146E+02  0.24874697727E+03  0.35382573848E+03  0.19200000000E+03 0.  0.
   -5000001    1    1    2    0    0  0.16030219918E+03  0.27509988146E+02  0.32563942208E+03  0.41153204945E+03  0.19200000000E+03 0.  0.
<mgrwt>
<rscale>  0 0.50581895E+03</rscale>
<asrwt>0</asrwt>
<pdfrwt beam="1">  1        2 0.95696017E-01 0.50581895E+03</pdfrwt>
<pdfrwt beam="2">  1       -2 0.13640813E-01 0.50581895E+03</pdfrwt>
<totfact> 0.19483753E+03</totfact>
</mgrwt>
</event>
<event>
 4    1  0.5812319E-005  0.4626147E+03  0.7818608E-02  0.1024026E+00
         -2   -1    0    0    0  501 -0.00000000000E+00  0.00000000000E+00  0.56602062271E+02  0.56602062329E+02  0.25500000000E-02 0. -1.
          2   -1    0    0  501    0  0.00000000000E+00 -0.00000000000E+00 -0.94524976409E+03  0.94524976410E+03  0.25500000000E-02 0.  1.
    5000001    1    1    2    0    0 -0.59899347022E+02  0.10542574069E+03 -0.34902220569E+03  0.41639286574E+03  0.19200000000E+03 0.  0.
   -5000001    1    1    2    0    0  0.59899347022E+02 -0.10542574069E+03 -0.53962549613E+03  0.58545896069E+03  0.19200000000E+03 0.  0.
<mgrwt>
<rscale>  0 0.46261468E+03</rscale>
<asrwt>0</asrwt>
<pdfrwt beam="1">  1        2 0.13503567E+00 0.46261468E+03</pdfrwt>
<pdfrwt beam="2">  1       -2 0.80860095E-02 0.46261468E+03</pdfrwt>
<totfact> 0.29356774E+03</totfact>
</mgrwt>
</event>
<event>
 4    1  0.5812319E-005  0.5621587E+03  0.7818608E-02  0.9987182E-01
          2   -1    0    0  501    0  0.00000000000E+00  0.00000000000E+00  0.18338293561E+03  0.18338293563E+03  0.25500000000E-02 0.  1.
         -2   -1    0    0    0  501 -0.00000000000E+00 -0.00000000000E+00 -0.43082300719E+03  0.43082300719E+03  0.25500000000E-02 0. -1.
    5000001    1    1    2    0    0  0.18688082462E+03 -0.37205131543E+02 -0.40275433349E+02  0.27348633413E+03  0.19200000000E+03 0.  0.
   -5000001    1    1    2    0    0 -0.18688082462E+03  0.37205131543E+02 -0.20716463822E+03  0.34071960870E+03  0.19200000000E+03 0.  0.
<mgrwt>
<rscale>  0 0.56215865E+03</rscale>
<asrwt>0</asrwt>
<pdfrwt beam="1">  1        2 0.26197562E-01 0.56215865E+03</pdfrwt>
<pdfrwt beam="2">  1       -2 0.61546143E-01 0.56215865E+03</pdfrwt>
<totfact> 0.51377238E+02</totfact>
</mgrwt>
</event>
<event>
 4    1  0.5812319E-005  0.4130609E+03  0.7818608E-02  0.1039349E+00
          2   -1    0    0  501    0  0.00000000000E+00  0.00000000000E+00  0.41744275720E+03  0.41744275720E+03  0.25500000000E-02 0.  1.
         -2   -1    0    0    0  501 -0.00000000000E+00 -0.00000000000E+00 -0.10218124404E+03  0.10218124408E+03  0.25500000000E-02 0. -1.
    5000001    1    1    2    0    0  0.55287419326E+02 -0.51992752962E+02  0.15064071487E+03  0.25557106658E+03  0.19200000000E+03 0.  0.
   -5000001    1    1    2    0    0 -0.55287419326E+02  0.51992752962E+02  0.16462079828E+03  0.26405293470E+03  0.19200000000E+03 0.  0.
<mgrwt>
<rscale>  0 0.41306087E+03</rscale>
<asrwt>0</asrwt>
<pdfrwt beam="1">  1        2 0.59634679E-01 0.41306087E+03</pdfrwt>
<pdfrwt beam="2">  1       -2 0.14597321E-01 0.41306087E+03</pdfrwt>
<totfact> 0.29819360E+03</totfact>
</mgrwt>
</event>
<event>
 4    1  0.5812319E-005  0.5358598E+03  0.7818608E-02  0.1004821E+00
          2   -1    0    0  501    0  0.00000000000E+00  0.00000000000E+00  0.12662646984E+04  0.12662646984E+04  0.25500000000E-02 0.  1.
         -2   -1    0    0    0  501 -0.00000000000E+00 -0.00000000000E+00 -0.56691498702E+02  0.56691498759E+02  0.25500000000E-02 0. -1.
    5000001    1    1    2    0    0 -0.17136799753E+03  0.28365911568E+02  0.43461820379E+03  0.50589386098E+03  0.19200000000E+03 0.  0.
   -5000001    1    1    2    0    0  0.17136799753E+03 -0.28365911568E+02  0.77495499588E+03  0.81706233615E+03  0.19200000000E+03 0.  0.
<mgrwt>
<rscale>  0 0.53585985E+03</rscale>
<asrwt>0</asrwt>
<pdfrwt beam="1">  1        2 0.18089497E+00 0.53585985E+03</pdfrwt>
<pdfrwt beam="2">  1       -2 0.80987850E-02 0.53585985E+03</pdfrwt>
<totfact> 0.19080925E+03</totfact>
</mgrwt>
</event>
<event>
 4    1  0.5812319E-005  0.5209250E+03  0.7818608E-02  0.1008457E+00
          2   -1    0    0  501    0  0.00000000000E+00  0.00000000000E+00  0.91864525110E+03  0.91864525110E+03  0.25500000000E-02 0.  1.
         -2   -1    0    0    0  501 -0.00000000000E+00 -0.00000000000E+00 -0.73848662180E+02  0.73848662224E+02  0.25500000000E-02 0. -1.
    5000001    1    1    2    0    0  0.52226280358E+02 -0.16698416039E+03  0.38597712204E+03  0.46524577690E+03  0.19200000000E+03 0.  0.
   -5000001    1    1    2    0    0 -0.52226280358E+02  0.16698416039E+03  0.45881946687E+03  0.52724813643E+03  0.19200000000E+03 0.  0.
<mgrwt>
<rscale>  0 0.52092503E+03</rscale>
<asrwt>0</asrwt>
<pdfrwt beam="1">  1        2 0.13123503E+00 0.52092503E+03</pdfrwt>
<pdfrwt beam="2">  1       -2 0.10549809E-01 0.52092503E+03</pdfrwt>
<totfact> 0.19918495E+03</totfact>
</mgrwt>
</event>
<event>
 4    1  0.5812319E-005  0.7692338E+03  0.7818608E-02  0.9605650E-01
         -2   -1    0    0    0  501 -0.00000000000E+00  0.00000000000E+00  0.11930302328E+03  0.11930302331E+03  0.25500000000E-02 0. -1.
          2   -1    0    0  501    0  0.00000000000E+00 -0.00000000000E+00 -0.12399531126E+04  0.12399531126E+04  0.25500000000E-02 0.  1.
    5000001    1    1    2    0    0  0.24793953596E+03 -0.10577861220E+03 -0.90660366452E+03  0.96512037219E+03  0.19200000000E+03 0.  0.
   -5000001    1    1    2    0    0 -0.24793953596E+03  0.10577861220E+03 -0.21404642484E+03  0.39413576376E+03  0.19200000000E+03 0.  0.
<mgrwt>
<rscale>  0 0.76923379E+03</rscale>
<asrwt>0</asrwt>
<pdfrwt beam="1">  1        2 0.17713615E+00 0.76923379E+03</pdfrwt>
<pdfrwt beam="2">  1       -2 0.17043290E-01 0.76923379E+03</pdfrwt>
<totfact> 0.57440639E+02</totfact>
</mgrwt>
</event>
<event>
 4    1  0.5812319E-005  0.5615307E+03  0.7818608E-02  0.9988597E-01
          2   -1    0    0  501    0  0.00000000000E+00  0.00000000000E+00  0.11721055372E+04  0.11721055372E+04  0.25500000000E-02 0.  1.
         -2   -1    0    0    0  501 -0.00000000000E+00 -0.00000000000E+00 -0.67254343845E+02  0.67254343893E+02  0.25500000000E-02 0. -1.
    5000001    1    1    2    0    0 -0.83417510168E+02 -0.14153124598E+03  0.82252040204E+03  0.86046114751E+03  0.19200000000E+03 0.  0.
   -5000001    1    1    2    0    0  0.83417510168E+02  0.14153124598E+03  0.28233079130E+03  0.37889873358E+03  0.19200000000E+03 0.  0.
<mgrwt>
<rscale>  0 0.56153073E+03</rscale>
<asrwt>0</asrwt>
<pdfrwt beam="1">  1        2 0.16744364E+00 0.56153073E+03</pdfrwt>
<pdfrwt beam="2">  1       -2 0.96077637E-02 0.56153073E+03</pdfrwt>
<totfact> 0.16360356E+03</totfact>
</mgrwt>
</event>
<event>
 4    1  0.5812319E-005  0.9286926E+03  0.7818608E-02  0.9390408E-01
          2   -1    0    0  501    0  0.00000000000E+00  0.00000000000E+00  0.24780864719E+04  0.24780864719E+04  0.25500000000E-02 0.  1.
         -2   -1    0    0    0  501 -0.00000000000E+00 -0.00000000000E+00 -0.87009678971E+02  0.87009679009E+02  0.25500000000E-02 0. -1.
    5000001    1    1    2    0    0  0.38565030643E+03 -0.13850014050E+03  0.14831773067E+04  0.15506731992E+04  0.19200000000E+03 0.  0.
   -5000001    1    1    2    0    0 -0.38565030643E+03  0.13850014050E+03  0.90789948629E+03  0.10144229517E+04  0.19200000000E+03 0.  0.
<mgrwt>
<rscale>  0 0.92869265E+03</rscale>
<asrwt>0</asrwt>
<pdfrwt beam="1">  1        2 0.35401231E+00 0.92869265E+03</pdfrwt>
<pdfrwt beam="2">  1       -2 0.12429956E-01 0.92869265E+03</pdfrwt>
<totfact> 0.22090482E+02</totfact>
</mgrwt>
</event>
<event>
 4    1  0.5812319E-005  0.4742676E+03  0.7818608E-02  0.1020723E+00
          2   -1    0    0  501    0  0.00000000000E+00  0.00000000000E+00  0.11397292633E+03  0.11397292636E+03  0.25500000000E-02 0.  1.
         -2   -1    0    0    0  501 -0.00000000000E+00 -0.00000000000E+00 -0.49338428559E+03  0.49338428560E+03  0.25500000000E-02 0. -1.
    5000001    1    1    2    0    0  0.11657155174E+03  0.23007559020E+02 -0.28249706072E+03  0.36164466505E+03  0.19200000000E+03 0.  0.
   -5000001    1    1    2    0    0 -0.11657155174E+03 -0.23007559020E+02 -0.96914298541E+02  0.24571254691E+03  0.19200000000E+03 0.  0.
<mgrwt>
<rscale>  0 0.47426765E+03</rscale>
<asrwt>0</asrwt>
<pdfrwt beam="1">  1        2 0.16281847E-01 0.47426765E+03</pdfrwt>
<pdfrwt beam="2">  1       -2 0.70483468E-01 0.47426765E+03</pdfrwt>
<totfact> 0.66891082E+02</totfact>
</mgrwt>
</event>
<event>
 4    1  0.5812319E-005  0.5300626E+03  0.7818608E-02  0.1006217E+00
          2   -1    0    0  501    0  0.00000000000E+00  0.00000000000E+00  0.34148657144E+04  0.34148657144E+04  0.25500000000E-02 0. -1.
         -2   -1    0    0    0  501 -0.00000000000E+00 -0.00000000000E+00 -0.20569359990E+02  0.20569360148E+02  0.25500000000E-02 0.  1.
    5000001    1    1    2    0    0 -0.12817916837E+03 -0.12611435855E+03  0.14878477990E+04  0.15109234937E+04  0.19200000000E+03 0.  0.
   -5000001    1    1    2    0    0  0.12817916837E+03  0.12611435855E+03  0.19064485553E+04  0.19245115808E+04  0.19200000000E+03 0.  0.
<mgrwt>
<rscale>  0 0.53006265E+03</rscale>
<asrwt>0</asrwt>
<pdfrwt beam="1">  1        2 0.48783771E+00 0.53006265E+03</pdfrwt>
<pdfrwt beam="2">  1       -2 0.29384815E-02 0.53006265E+03</pdfrwt>
<totfact> 0.68867521E+02</totfact>
</mgrwt>
</event>
<event>
 4    1  0.5812319E-005  0.6535864E+03  0.7818608E-02  0.9800073E-01
          2   -1    0    0  501    0  0.00000000000E+00  0.00000000000E+00  0.17416451361E+04  0.17416451361E+04  0.25500000000E-02 0.  1.
         -2   -1    0    0    0  501 -0.00000000000E+00 -0.00000000000E+00 -0.61317770129E+02  0.61317770182E+02  0.25500000000E-02 0. -1.
    5000001    1    1    2    0    0 -0.34998007831E+02  0.24066656981E+03  0.11266372475E+04  0.11684694030E+04  0.19200000000E+03 0.  0.
   -5000001    1    1    2    0    0  0.34998007831E+02 -0.24066656981E+03  0.55369011849E+03  0.63449350326E+03  0.19200000000E+03 0.  0.
<mgrwt>
<rscale>  0 0.65358640E+03</rscale>
<asrwt>0</asrwt>
<pdfrwt beam="1">  1        2 0.24880641E+00 0.65358640E+03</pdfrwt>
<pdfrwt beam="2">  1       -2 0.87596828E-02 0.65358640E+03</pdfrwt>
<totfact> 0.94557348E+02</totfact>
</mgrwt>
</event>
<event>
 4    1  0.5812319E-005  0.7239397E+03  0.7818608E-02  0.9677146E-01
          2   -1    0    0  501    0  0.00000000000E+00  0.00000000000E+00  0.27860647392E+04  0.27860647392E+04  0.25500000000E-02 0.  1.
         -2   -1    0    0    0  501 -0.00000000000E+00 -0.00000000000E+00 -0.47027685779E+02  0.47027685848E+02  0.25500000000E-02 0. -1.
    5000001    1    1    2    0    0  0.26279943488E+03  0.93156925558E+02  0.18709338339E+04  0.19013151150E+04  0.19200000000E+03 0.  0.
   -5000001    1    1    2    0    0 -0.26279943488E+03 -0.93156925558E+02  0.86810321955E+03  0.93177731006E+03  0.19200000000E+03 0.  0.
<mgrwt>
<rscale>  0 0.72393971E+03</rscale>
<asrwt>0</asrwt>
<pdfrwt beam="1">  1        2 0.39800939E+00 0.72393971E+03</pdfrwt>
<pdfrwt beam="2">  1       -2 0.67182384E-02 0.72393971E+03</pdfrwt>
<totfact> 0.41972880E+02</totfact>
</mgrwt>
</event>
<event>
 4    1  0.5812319E-005  0.5179829E+03  0.7818608E-02  0.1009189E+00
          2   -1    0    0  501    0  0.00000000000E+00  0.00000000000E+00  0.43723071059E+03  0.43723071060E+03  0.25500000000E-02 0.  1.
         -2   -1    0    0    0  501 -0.00000000000E+00 -0.00000000000E+00 -0.15341231495E+03  0.15341231497E+03  0.25500000000E-02 0. -1.
    5000001    1    1    2    0    0 -0.45086690932E+02  0.10015857598E+03  0.29552091114E+03  0.36913569180E+03  0.19200000000E+03 0.  0.
   -5000001    1    1    2    0    0  0.45086690932E+02 -0.10015857598E+03 -0.11702515505E+02  0.22150733376E+03  0.19200000000E+03 0.  0.
<mgrwt>
<rscale>  0 0.51798292E+03</rscale>
<asrwt>0</asrwt>
<pdfrwt beam="1">  1        2 0.62461530E-01 0.51798292E+03</pdfrwt>
<pdfrwt beam="2">  1       -2 0.21916045E-01 0.51798292E+03</pdfrwt>
<totfact> 0.14175133E+03</totfact>
</mgrwt>
</event>
<event>
 4    1  0.5812319E-005  0.6878773E+03  0.7818608E-02  0.9738191E-01
          2   -1    0    0  501    0  0.00000000000E+00  0.00000000000E+00  0.24080526007E+04  0.24080526007E+04  0.25500000000E-02 0.  1.
         -2   -1    0    0    0  501 -0.00000000000E+00 -0.00000000000E+00 -0.49124262565E+02  0.49124262631E+02  0.25500000000E-02 0. -1.
    5000001    1    1    2    0    0 -0.22290561459E+03  0.12697508770E+03  0.73301808142E+03  0.79999318347E+03  0.19200000000E+03 0.  0.
   -5000001    1    1    2    0    0  0.22290561459E+03 -0.12697508770E+03  0.16259102567E+04  0.16571836799E+04  0.19200000000E+03 0.  0.
<mgrwt>
<rscale>  0 0.68787734E+03</rscale>
<asrwt>0</asrwt>
<pdfrwt beam="1">  1        2 0.34400754E+00 0.68787734E+03</pdfrwt>
<pdfrwt beam="2">  1       -2 0.70177512E-02 0.68787734E+03</pdfrwt>
<totfact> 0.61819230E+02</totfact>
</mgrwt>
</event>
<event>
 4    1  0.5812319E-005  0.6971586E+03  0.7818608E-02  0.9722104E-01
          2   -1    0    0  501    0  0.00000000000E+00  0.00000000000E+00  0.40924889115E+03  0.40924889116E+03  0.25500000000E-02 0.  1.
         -2   -1    0    0    0  501 -0.00000000000E+00 -0.00000000000E+00 -0.29690373424E+03  0.29690373425E+03  0.25500000000E-02 0. -1.
    5000001    1    1    2    0    0 -0.20550329102E+03  0.38311246370E+02 -0.14878455182E+03  0.32046871467E+03  0.19200000000E+03 0.  0.
   -5000001    1    1    2    0    0  0.20550329102E+03 -0.38311246370E+02  0.26112970874E+03  0.38568391074E+03  0.19200000000E+03 0.  0.
<mgrwt>
<rscale>  0 0.69715859E+03</rscale>
<asrwt>0</asrwt>
<pdfrwt beam="1">  1        2 0.58464127E-01 0.69715859E+03</pdfrwt>
<pdfrwt beam="2">  1       -2 0.42414820E-01 0.69715859E+03</pdfrwt>
<totfact> 0.44724354E+02</totfact>
</mgrwt>
</event>
<event>
 4    1  0.5812319E-005  0.4929238E+03  0.7818608E-02  0.1015643E+00
         -2   -1    0    0    0  501 -0.00000000000E+00  0.00000000000E+00  0.11315402928E+03  0.11315402931E+03  0.25500000000E-02 0. -1.
          2   -1    0    0  501    0  0.00000000000E+00 -0.00000000000E+00 -0.53682099551E+03  0.53682099552E+03  0.25500000000E-02 0.  1.
    5000001    1    1    2    0    0  0.15130443737E+03  0.64986773231E+01 -0.17131554636E+03  0.29857709557E+03  0.19200000000E+03 0.  0.
   -5000001    1    1    2    0    0 -0.15130443737E+03 -0.64986773231E+01 -0.25235141987E+03  0.35139792926E+03  0.19200000000E+03 0.  0.
<mgrwt>
<rscale>  0 0.49292376E+03</rscale>
<asrwt>0</asrwt>
<pdfrwt beam="1">  1        2 0.76688713E-01 0.49292376E+03</pdfrwt>
<pdfrwt beam="2">  1       -2 0.16164862E-01 0.49292376E+03</pdfrwt>
<totfact> 0.18996368E+03</totfact>
</mgrwt>
</event>
<event>
 4    1  0.5812319E-005  0.4729817E+03  0.7818608E-02  0.1021082E+00
         -2   -1    0    0    0  501 -0.00000000000E+00  0.00000000000E+00  0.22352351193E+03  0.22352351195E+03  0.25500000000E-02 0. -1.
          2   -1    0    0  501    0  0.00000000000E+00 -0.00000000000E+00 -0.25021044760E+03  0.25021044761E+03  0.25500000000E-02 0.  1.
    5000001    1    1    2    0    0 -0.12139393611E+03  0.64441326337E+02 -0.10330085917E+00  0.23612111921E+03  0.19200000000E+03 0.  0.
   -5000001    1    1    2    0    0  0.12139393611E+03 -0.64441326337E+02 -0.26583634808E+02  0.23761284036E+03  0.19200000000E+03 0.  0.
<mgrwt>
<rscale>  0 0.47298168E+03</rscale>
<asrwt>0</asrwt>
<pdfrwt beam="1">  1        2 0.35744350E-01 0.47298168E+03</pdfrwt>
<pdfrwt beam="2">  1       -2 0.31931930E-01 0.47298168E+03</pdfrwt>
<totfact> 0.13284514E+03</totfact>
</mgrwt>
</event>
<event>
 4    1  0.5812319E-005  0.5849693E+03  0.7818608E-02  0.9937090E-01
         -2   -1    0    0    0  501 -0.00000000000E+00  0.00000000000E+00  0.70962157165E+02  0.70962157211E+02  0.25500000000E-02 0. -1.
          2   -1    0    0  501    0  0.00000000000E+00 -0.00000000000E+00 -0.12055335217E+04  0.12055335217E+04  0.25500000000E-02 0.  1.
    5000001    1    1    2    0    0 -0.20294928302E+03 -0.83279760619E+02 -0.61889404387E+03  0.68411824091E+03  0.19200000000E+03 0.  0.
   -5000001    1    1    2    0    0  0.20294928302E+03  0.83279760619E+02 -0.51567732064E+03  0.59237743798E+03  0.19200000000E+03 0.  0.
<mgrwt>
<rscale>  0 0.58496926E+03</rscale>
<asrwt>0</asrwt>
<pdfrwt beam="1">  1        2 0.17221906E+00 0.58496926E+03</pdfrwt>
<pdfrwt beam="2">  1       -2 0.10137452E-01 0.58496926E+03</pdfrwt>
<totfact> 0.14358056E+03</totfact>
</mgrwt>
</event>
<event>
 4    1  0.5812319E-005  0.4475382E+03  0.7818608E-02  0.1028459E+00
         -2   -1    0    0    0  501 -0.00000000000E+00  0.00000000000E+00  0.28021469463E+02  0.28021469579E+02  0.25500000000E-02 0. -1.
          2   -1    0    0  501    0  0.00000000000E+00 -0.00000000000E+00 -0.17869376540E+04  0.17869376540E+04  0.25500000000E-02 0.  1.
    5000001    1    1    2    0    0 -0.78437923769E+02 -0.56984099455E+02 -0.11297448234E+04  0.11500378521E+04  0.19200000000E+03 0.  0.
   -5000001    1    1    2    0    0  0.78437923769E+02  0.56984099455E+02 -0.62917136122E+03  0.66492127147E+03  0.19200000000E+03 0.  0.
<mgrwt>
<rscale>  0 0.44753824E+03</rscale>
<asrwt>0</asrwt>
<pdfrwt beam="1">  1        2 0.25527674E+00 0.44753824E+03</pdfrwt>
<pdfrwt beam="2">  1       -2 0.40030682E-02 0.44753824E+03</pdfrwt>
<totfact> 0.30745781E+03</totfact>
</mgrwt>
</event>
<event>
 4    1  0.5812319E-005  0.6376808E+03  0.7818608E-02  0.9830174E-01
          2   -1    0    0  501    0  0.00000000000E+00  0.00000000000E+00  0.11344933926E+04  0.11344933926E+04  0.25500000000E-02 0.  1.
         -2   -1    0    0    0  501 -0.00000000000E+00 -0.00000000000E+00 -0.89607581640E+02  0.89607581676E+02  0.25500000000E-02 0. -1.
    5000001    1    1    2    0    0 -0.22332024662E+03 -0.12214756020E+03  0.52590370187E+03  0.61500460377E+03  0.19200000000E+03 0.  0.
   -5000001    1    1    2    0    0  0.22332024662E+03  0.12214756020E+03  0.51898210910E+03  0.60909637052E+03  0.19200000000E+03 0.  0.
<mgrwt>
<rscale>  0 0.63768083E+03</rscale>
<asrwt>0</asrwt>
<pdfrwt beam="1">  1        2 0.16207048E+00 0.63768083E+03</pdfrwt>
<pdfrwt beam="2">  1       -2 0.12801083E-01 0.63768083E+03</pdfrwt>
<totfact> 0.10730836E+03</totfact>
</mgrwt>
</event>
<event>
 4    1  0.5812319E-005  0.5629026E+03  0.7818608E-02  0.9985508E-01
          2   -1    0    0  501    0  0.00000000000E+00  0.00000000000E+00  0.75431776486E+02  0.75431776529E+02  0.25500000000E-02 0.  1.
         -2   -1    0    0    0  501 -0.00000000000E+00 -0.00000000000E+00 -0.10501518842E+04  0.10501518842E+04  0.25500000000E-02 0. -1.
    5000001    1    1    2    0    0  0.17201027326E+03 -0.10972867442E+03 -0.54112330398E+03  0.60934911685E+03  0.19200000000E+03 0.  0.
   -5000001    1    1    2    0    0 -0.17201027326E+03  0.10972867442E+03 -0.43359680378E+03  0.51623454393E+03  0.19200000000E+03 0.  0.
<mgrwt>
<rscale>  0 0.56290256E+03</rscale>
<asrwt>0</asrwt>
<pdfrwt beam="1">  1        2 0.10775969E-01 0.56290256E+03</pdfrwt>
<pdfrwt beam="2">  1       -2 0.15002169E+00 0.56290256E+03</pdfrwt>
<totfact> 0.18411096E+02</totfact>
</mgrwt>
</event>
<event>
 4    1  0.5812319E-005  0.4971422E+03  0.7818608E-02  0.1014528E+00
          2   -1    0    0  501    0  0.00000000000E+00  0.00000000000E+00  0.10145166013E+04  0.10145166013E+04  0.25500000000E-02 0.  1.
         -2   -1    0    0    0  501 -0.00000000000E+00 -0.00000000000E+00 -0.60903480820E+02  0.60903480874E+02  0.25500000000E-02 0. -1.
    5000001    1    1    2    0    0  0.14761848785E+03 -0.18326017166E+02  0.59120164661E+03  0.63914822054E+03  0.19200000000E+03 0.  0.
   -5000001    1    1    2    0    0 -0.14761848785E+03  0.18326017166E+02  0.36241147384E+03  0.43627186161E+03  0.19200000000E+03 0.  0.
<mgrwt>
<rscale>  0 0.49714220E+03</rscale>
<asrwt>0</asrwt>
<pdfrwt beam="1">  1        2 0.14493094E+00 0.49714220E+03</pdfrwt>
<pdfrwt beam="2">  1       -2 0.87004973E-02 0.49714220E+03</pdfrwt>
<totfact> 0.23706176E+03</totfact>
</mgrwt>
</event>
<event>
 4    1  0.5812319E-005  0.8240369E+03  0.7818608E-02  0.9525862E-01
         -2   -1    0    0    0  501 -0.00000000000E+00  0.00000000000E+00  0.11794937418E+03  0.11794937421E+03  0.25500000000E-02 0. -1.
          2   -1    0    0  501    0  0.00000000000E+00 -0.00000000000E+00 -0.14392549239E+04  0.14392549239E+04  0.25500000000E-02 0.  1.
    5000001    1    1    2    0    0  0.10460386164E+03  0.29377243549E+03 -0.30384458892E+03  0.47584634699E+03  0.19200000000E+03 0.  0.
   -5000001    1    1    2    0    0 -0.10460386164E+03 -0.29377243549E+03 -0.10174609608E+04  0.10813579511E+04  0.19200000000E+03 0.  0.
<mgrwt>
<rscale>  0 0.82403694E+03</rscale>
<asrwt>0</asrwt>
<pdfrwt beam="1">  1        2 0.20560783E+00 0.82403694E+03</pdfrwt>
<pdfrwt beam="2">  1       -2 0.16849912E-01 0.82403694E+03</pdfrwt>
<totfact> 0.45513597E+02</totfact>
</mgrwt>
</event>
<event>
 4    1  0.5812319E-005  0.8722920E+03  0.7818608E-02  0.9460896E-01
         -2   -1    0    0    0  501 -0.00000000000E+00  0.00000000000E+00  0.17280089065E+03  0.17280089067E+03  0.25500000000E-02 0. -1.
          2   -1    0    0  501    0  0.00000000000E+00 -0.00000000000E+00 -0.11008236837E+04  0.11008236837E+04  0.25500000000E-02 0.  1.
    5000001    1    1    2    0    0  0.22574825344E+03 -0.24889610493E+03 -0.75765925946E+03  0.85077793719E+03  0.19200000000E+03 0.  0.
   -5000001    1    1    2    0    0 -0.22574825344E+03  0.24889610493E+03 -0.17036353356E+03  0.42284663714E+03  0.19200000000E+03 0.  0.
<mgrwt>
<rscale>  0 0.87229195E+03</rscale>
<asrwt>0</asrwt>
<pdfrwt beam="1">  1        2 0.15726052E+00 0.87229195E+03</pdfrwt>
<pdfrwt beam="2">  1       -2 0.24685842E-01 0.87229195E+03</pdfrwt>
<totfact> 0.35816424E+02</totfact>
</mgrwt>
</event>
<event>
 4    1  0.5812319E-005  0.6616929E+03  0.7818608E-02  0.9785082E-01
         -2   -1    0    0    0  501 -0.00000000000E+00  0.00000000000E+00  0.96033544880E+02  0.96033544914E+02  0.25500000000E-02 0. -1.
          2   -1    0    0  501    0  0.00000000000E+00 -0.00000000000E+00 -0.11398035714E+04  0.11398035714E+04  0.25500000000E-02 0.  1.
    5000001    1    1    2    0    0  0.10918746765E+03 -0.52586956241E+02 -0.72442284492E+02  0.23832577628E+03  0.19200000000E+03 0.  0.
   -5000001    1    1    2    0    0 -0.10918746765E+03  0.52586956241E+02 -0.97132774201E+03  0.99751134002E+03  0.19200000000E+03 0.  0.
<mgrwt>
<rscale>  0 0.66169291E+03</rscale>
<asrwt>0</asrwt>
<pdfrwt beam="1">  1        2 0.16282907E+00 0.66169291E+03</pdfrwt>
<pdfrwt beam="2">  1       -2 0.13719079E-01 0.66169291E+03</pdfrwt>
<totfact> 0.94881554E+02</totfact>
</mgrwt>
</event>
<event>
 4    1  0.5812319E-005  0.1780732E+04  0.7818608E-02  0.8716614E-01
         -2   -1    0    0    0  501 -0.00000000000E+00  0.00000000000E+00  0.39298983687E+03  0.39298983688E+03  0.25500000000E-02 0. -1.
          2   -1    0    0  501    0  0.00000000000E+00 -0.00000000000E+00 -0.20172312211E+04  0.20172312211E+04  0.25500000000E-02 0.  1.
    5000001    1    1    2    0    0 -0.45843578748E+03 -0.69098266689E+03 -0.45847885752E+03  0.96679226309E+03  0.19200000000E+03 0.  0.
   -5000001    1    1    2    0    0  0.45843578748E+03  0.69098266689E+03 -0.11657625267E+04  0.14434287949E+04  0.19200000000E+03 0.  0.
<mgrwt>
<rscale>  0 0.17807317E+04</rscale>
<asrwt>0</asrwt>
<pdfrwt beam="1">  1        2 0.28817588E+00 0.17807317E+04</pdfrwt>
<pdfrwt beam="2">  1       -2 0.56141406E-01 0.17807317E+04</pdfrwt>
<totfact> 0.22196738E+01</totfact>
</mgrwt>
</event>
<event>
 4    1  0.5812319E-005  0.5218046E+03  0.7818608E-02  0.1008239E+00
         -2   -1    0    0    0  501 -0.00000000000E+00  0.00000000000E+00  0.46867321422E+02  0.46867321491E+02  0.25500000000E-02 0. -1.
          2   -1    0    0  501    0  0.00000000000E+00 -0.00000000000E+00 -0.14523983091E+04  0.14523983091E+04  0.25500000000E-02 0.  1.
    5000001    1    1    2    0    0 -0.74390491775E+02  0.15799755753E+03 -0.62626816130E+03  0.67791812434E+03  0.19200000000E+03 0.  0.
   -5000001    1    1    2    0    0  0.74390491775E+02 -0.15799755753E+03 -0.77926282634E+03  0.82134750622E+03  0.19200000000E+03 0.  0.
<mgrwt>
<rscale>  0 0.52180463E+03</rscale>
<asrwt>0</asrwt>
<pdfrwt beam="1">  1        2 0.20748544E+00 0.52180463E+03</pdfrwt>
<pdfrwt beam="2">  1       -2 0.66953326E-02 0.52180463E+03</pdfrwt>
<totfact> 0.20512517E+03</totfact>
</mgrwt>
</event>
<event>
 4    1  0.5812319E-005  0.8433351E+03  0.7818608E-02  0.9499326E-01
         -2   -1    0    0    0  501 -0.00000000000E+00  0.00000000000E+00  0.58744644013E+02  0.58744644068E+02  0.25500000000E-02 0. -1.
          2   -1    0    0  501    0  0.00000000000E+00 -0.00000000000E+00 -0.30267187457E+04  0.30267187457E+04  0.25500000000E-02 0.  1.
    5000001    1    1    2    0    0  0.12939786375E+03  0.21142000246E+03 -0.25155515665E+04  0.25350159582E+04  0.19200000000E+03 0.  0.
   -5000001    1    1    2    0    0 -0.12939786375E+03 -0.21142000246E+03 -0.45242253519E+03  0.55044743158E+03  0.19200000000E+03 0.  0.
<mgrwt>
<rscale>  0 0.84333508E+03</rscale>
<asrwt>0</asrwt>
<pdfrwt beam="1">  1        2 0.43238829E+00 0.84333508E+03</pdfrwt>
<pdfrwt beam="2">  1       -2 0.83920939E-02 0.84333508E+03</pdfrwt>
<totfact> 0.21566859E+02</totfact>
</mgrwt>
</event>
<event>
 4    1  0.5812319E-005  0.6338956E+03  0.7818608E-02  0.9837476E-01
          2   -1    0    0  501    0  0.00000000000E+00  0.00000000000E+00  0.19541633583E+04  0.19541633583E+04  0.25500000000E-02 0.  1.
         -2   -1    0    0    0  501 -0.00000000000E+00 -0.00000000000E+00 -0.51406094967E+02  0.51406095031E+02  0.25500000000E-02 0. -1.
    5000001    1    1    2    0    0  0.35240703749E+02  0.19549452226E+03  0.14428697287E+04  0.14690803482E+04  0.19200000000E+03 0.  0.
   -5000001    1    1    2    0    0 -0.35240703749E+02 -0.19549452226E+03  0.45988753467E+03  0.53648910518E+03  0.19200000000E+03 0.  0.
<mgrwt>
<rscale>  0 0.63389560E+03</rscale>
<asrwt>0</asrwt>
<pdfrwt beam="1">  1        2 0.27916620E+00 0.63389560E+03</pdfrwt>
<pdfrwt beam="2">  1       -2 0.73437278E-02 0.63389560E+03</pdfrwt>
<totfact> 0.97948929E+02</totfact>
</mgrwt>
</event>
<event>
 4    1  0.5812319E-005  0.5324145E+03  0.7818608E-02  0.1005648E+00
          2   -1    0    0  501    0  0.00000000000E+00  0.00000000000E+00  0.36086220928E+03  0.36086220929E+03  0.25500000000E-02 0.  1.
         -2   -1    0    0    0  501 -0.00000000000E+00 -0.00000000000E+00 -0.19638052670E+03  0.19638052672E+03  0.25500000000E-02 0. -1.
    5000001    1    1    2    0    0 -0.17500000414E+03  0.51596040512E+02  0.11023036286E+03  0.28688305238E+03  0.19200000000E+03 0.  0.
   -5000001    1    1    2    0    0  0.17500000414E+03 -0.51596040512E+02  0.54251319721E+02  0.27035968364E+03  0.19200000000E+03 0.  0.
<mgrwt>
<rscale>  0 0.53241454E+03</rscale>
<asrwt>0</asrwt>
<pdfrwt beam="1">  1        2 0.51551743E-01 0.53241454E+03</pdfrwt>
<pdfrwt beam="2">  1       -2 0.28054361E-01 0.53241454E+03</pdfrwt>
<totfact> 0.11271931E+03</totfact>
</mgrwt>
</event>
<event>
 4    1  0.5812319E-005  0.4361309E+03  0.7818608E-02  0.1031941E+00
         -2   -1    0    0    0  501 -0.00000000000E+00  0.00000000000E+00  0.55031735835E+03  0.55031735835E+03  0.25500000000E-02 0. -1.
          2   -1    0    0  501    0  0.00000000000E+00 -0.00000000000E+00 -0.86409312350E+02  0.86409312387E+02  0.25500000000E-02 0.  1.
    5000001    1    1    2    0    0 -0.80197563017E+02  0.64638128546E+02  0.21899355686E+03  0.30892056377E+03  0.19200000000E+03 0.  0.
   -5000001    1    1    2    0    0  0.80197563017E+02 -0.64638128546E+02  0.24491448914E+03  0.32780610697E+03  0.19200000000E+03 0.  0.
<mgrwt>
<rscale>  0 0.43613092E+03</rscale>
<asrwt>0</asrwt>
<pdfrwt beam="1">  1        2 0.12344188E-01 0.43613092E+03</pdfrwt>
<pdfrwt beam="2">  1       -2 0.78616765E-01 0.43613092E+03</pdfrwt>
<totfact> 0.73617686E+02</totfact>
</mgrwt>
</event>
<event>
 4    1  0.5812319E-005  0.6281310E+03  0.7818608E-02  0.9848703E-01
          2   -1    0    0  501    0  0.00000000000E+00  0.00000000000E+00  0.16916536629E+04  0.16916536629E+04  0.25500000000E-02 0.  1.
         -2   -1    0    0    0  501 -0.00000000000E+00 -0.00000000000E+00 -0.58308118636E+02  0.58308118691E+02  0.25500000000E-02 0. -1.
    5000001    1    1    2    0    0 -0.21446404377E+03  0.12448395263E+03  0.86346250912E+03  0.91865259222E+03  0.19200000000E+03 0.  0.
   -5000001    1    1    2    0    0  0.21446404377E+03 -0.12448395263E+03  0.76988303509E+03  0.83130918933E+03  0.19200000000E+03 0.  0.
<mgrwt>
<rscale>  0 0.62813101E+03</rscale>
<asrwt>0</asrwt>
<pdfrwt beam="1">  1        2 0.24166483E+00 0.62813101E+03</pdfrwt>
<pdfrwt beam="2">  1       -2 0.83297305E-02 0.62813101E+03</pdfrwt>
<totfact> 0.10882204E+03</totfact>
</mgrwt>
</event>
<event>
 4    1  0.5812319E-005  0.4553308E+03  0.7818608E-02  0.1026144E+00
          2   -1    0    0  501    0  0.00000000000E+00  0.00000000000E+00  0.95814786173E+03  0.95814786173E+03  0.25500000000E-02 0.  1.
         -2   -1    0    0    0  501 -0.00000000000E+00 -0.00000000000E+00 -0.54095547538E+02  0.54095547598E+02  0.25500000000E-02 0. -1.
    5000001    1    1    2    0    0  0.92145457516E+02 -0.46026786256E+02  0.59878883916E+03  0.63719802597E+03  0.19200000000E+03 0.  0.
   -5000001    1    1    2    0    0 -0.92145457516E+02  0.46026786256E+02  0.30526347503E+03  0.37504538336E+03  0.19200000000E+03 0.  0.
<mgrwt>
<rscale>  0 0.45533080E+03</rscale>
<asrwt>0</asrwt>
<pdfrwt beam="1">  1        2 0.13687826E+00 0.45533080E+03</pdfrwt>
<pdfrwt beam="2">  1       -2 0.77279354E-02 0.45533080E+03</pdfrwt>
<totfact> 0.30960988E+03</totfact>
</mgrwt>
</event>
<event>
 4    1  0.5812319E-005  0.4850327E+03  0.7818608E-02  0.1017761E+00
         -2   -1    0    0    0  501 -0.00000000000E+00  0.00000000000E+00  0.84503641764E+02  0.84503641802E+02  0.25500000000E-02 0. -1.
          2   -1    0    0  501    0  0.00000000000E+00 -0.00000000000E+00 -0.69599583088E+03  0.69599583089E+03  0.25500000000E-02 0.  1.
    5000001    1    1    2    0    0  0.85061821849E+02 -0.51593586625E+02 -0.12908332573E+03  0.25184105444E+03  0.19200000000E+03 0.  0.
   -5000001    1    1    2    0    0 -0.85061821849E+02  0.51593586625E+02 -0.48240886338E+03  0.52865841825E+03  0.19200000000E+03 0.  0.
<mgrwt>
<rscale>  0 0.48503271E+03</rscale>
<asrwt>0</asrwt>
<pdfrwt beam="1">  1        2 0.99427972E-01 0.48503271E+03</pdfrwt>
<pdfrwt beam="2">  1       -2 0.12071949E-01 0.48503271E+03</pdfrwt>
<totfact> 0.22756022E+03</totfact>
</mgrwt>
</event>
<event>
 4    1  0.5812319E-005  0.1823835E+04  0.7818608E-02  0.8693726E-01
          2   -1    0    0  501    0  0.00000000000E+00  0.00000000000E+00  0.11433171386E+04  0.11433171387E+04  0.25500000000E-02 0.  1.
         -2   -1    0    0    0  501 -0.00000000000E+00 -0.00000000000E+00 -0.72735160922E+03  0.72735160922E+03  0.25500000000E-02 0. -1.
    5000001    1    1    2    0    0  0.83928062556E+02 -0.76952595899E+03 -0.24554289676E+03  0.83448752860E+03  0.19200000000E+03 0.  0.
   -5000001    1    1    2    0    0 -0.83928062556E+02  0.76952595899E+03  0.66150842620E+03  0.10361812193E+04  0.19200000000E+03 0.  0.
<mgrwt>
<rscale>  0 0.18238350E+04</rscale>
<asrwt>0</asrwt>
<pdfrwt beam="1">  1        2 0.16333102E+00 0.18238350E+04</pdfrwt>
<pdfrwt beam="2">  1       -2 0.10390737E+00 0.18238350E+04</pdfrwt>
<totfact> 0.16421746E+01</totfact>
</mgrwt>
</event>
<event>
 4    1  0.5812319E-005  0.6907890E+03  0.7818608E-02  0.9733115E-01
          2   -1    0    0  501    0  0.00000000000E+00  0.00000000000E+00  0.92777621253E+03  0.92777621254E+03  0.25500000000E-02 0.  1.
         -2   -1    0    0    0  501 -0.00000000000E+00 -0.00000000000E+00 -0.12858419983E+03  0.12858419985E+03  0.25500000000E-02 0. -1.
    5000001    1    1    2    0    0 -0.12669927187E+03 -0.18207406123E+03  0.12083638624E+03  0.31728394461E+03  0.19200000000E+03 0.  0.
   -5000001    1    1    2    0    0  0.12669927187E+03  0.18207406123E+03  0.67835562646E+03  0.73907646778E+03  0.19200000000E+03 0.  0.
<mgrwt>
<rscale>  0 0.69078900E+03</rscale>
<asrwt>0</asrwt>
<pdfrwt beam="1">  1        2 0.13253945E+00 0.69078900E+03</pdfrwt>
<pdfrwt beam="2">  1       -2 0.18369172E-01 0.69078900E+03</pdfrwt>
<totfact> 0.77519548E+02</totfact>
</mgrwt>
</event>
<event>
 4    1  0.5812319E-005  0.5699523E+03  0.7818608E-02  0.9969784E-01
          2   -1    0    0  501    0  0.00000000000E+00  0.00000000000E+00  0.11195458792E+04  0.11195458792E+04  0.25500000000E-02 0.  1.
         -2   -1    0    0    0  501 -0.00000000000E+00 -0.00000000000E+00 -0.72539598132E+02  0.72539598177E+02  0.25500000000E-02 0. -1.
    5000001    1    1    2    0    0 -0.19388254767E+02  0.20246437048E+03  0.63767363256E+03  0.69631845258E+03  0.19200000000E+03 0.  0.
   -5000001    1    1    2    0    0  0.19388254767E+02 -0.20246437048E+03  0.40933264846E+03  0.49576702476E+03  0.19200000000E+03 0.  0.
<mgrwt>
<rscale>  0 0.56995231E+03</rscale>
<asrwt>0</asrwt>
<pdfrwt beam="1">  1        2 0.15993511E+00 0.56995231E+03</pdfrwt>
<pdfrwt beam="2">  1       -2 0.10362800E-01 0.56995231E+03</pdfrwt>
<totfact> 0.15506425E+03</totfact>
</mgrwt>
</event>
<event>
 4    1  0.5812319E-005  0.7239202E+03  0.7818608E-02  0.9677178E-01
          2   -1    0    0  501    0  0.00000000000E+00  0.00000000000E+00  0.90601281930E+03  0.90601281931E+03  0.25500000000E-02 0.  1.
         -2   -1    0    0    0  501 -0.00000000000E+00 -0.00000000000E+00 -0.14460626465E+03  0.14460626467E+03  0.25500000000E-02 0. -1.
    5000001    1    1    2    0    0 -0.22998114635E+03 -0.20128401663E+03  0.42030376000E+03  0.55400887511E+03  0.19200000000E+03 0.  0.
   -5000001    1    1    2    0    0  0.22998114635E+03  0.20128401663E+03  0.34110279465E+03  0.49661020887E+03  0.19200000000E+03 0.  0.
<mgrwt>
<rscale>  0 0.72392024E+03</rscale>
<asrwt>0</asrwt>
<pdfrwt beam="1">  1        2 0.12943041E+00 0.72392024E+03</pdfrwt>
<pdfrwt beam="2">  1       -2 0.20658037E-01 0.72392024E+03</pdfrwt>
<totfact> 0.65184157E+02</totfact>
</mgrwt>
</event>
<event>
 4    1  0.5812319E-005  0.5856204E+03  0.7818608E-02  0.9935696E-01
          2   -1    0    0  501    0  0.00000000000E+00  0.00000000000E+00  0.29578982641E+03  0.29578982642E+03  0.25500000000E-02 0.  1.
         -2   -1    0    0    0  501 -0.00000000000E+00 -0.00000000000E+00 -0.28986061280E+03  0.28986061282E+03  0.25500000000E-02 0. -1.
    5000001    1    1    2    0    0 -0.12740275609E+03  0.17698141983E+03 -0.33368166703E+02  0.29245738112E+03  0.19200000000E+03 0.  0.
   -5000001    1    1    2    0    0  0.12740275609E+03 -0.17698141983E+03  0.39297380306E+02  0.29319305811E+03  0.19200000000E+03 0.  0.
<mgrwt>
<rscale>  0 0.58562042E+03</rscale>
<asrwt>0</asrwt>
<pdfrwt beam="1">  1        2 0.42255689E-01 0.58562042E+03</pdfrwt>
<pdfrwt beam="2">  1       -2 0.41408659E-01 0.58562042E+03</pdfrwt>
<totfact> 0.67329083E+02</totfact>
</mgrwt>
</event>
<event>
 4    1  0.5812319E-005  0.5811237E+03  0.7818608E-02  0.9945361E-01
          2   -1    0    0  501    0  0.00000000000E+00  0.00000000000E+00  0.28892323488E+03  0.28892323489E+03  0.25500000000E-02 0.  1.
         -2   -1    0    0    0  501 -0.00000000000E+00 -0.00000000000E+00 -0.29220975662E+03  0.29220975663E+03  0.25500000000E-02 0. -1.
    5000001    1    1    2    0    0  0.15258225718E+03  0.85249988105E+02  0.12879379917E+03  0.28982882600E+03  0.19200000000E+03 0.  0.
   -5000001    1    1    2    0    0 -0.15258225718E+03 -0.85249988105E+02 -0.13208032091E+03  0.29130416552E+03  0.19200000000E+03 0.  0.
<mgrwt>
<rscale>  0 0.58112370E+03</rscale>
<asrwt>0</asrwt>
<pdfrwt beam="1">  1        2 0.41274748E-01 0.58112370E+03</pdfrwt>
<pdfrwt beam="2">  1       -2 0.41744251E-01 0.58112370E+03</pdfrwt>
<totfact> 0.68018696E+02</totfact>
</mgrwt>
</event>
<event>
 4    1  0.5812319E-005  0.6316288E+03  0.7818608E-02  0.9841875E-01
         -2   -1    0    0    0  501 -0.00000000000E+00  0.00000000000E+00  0.74640279174E+02  0.74640279217E+02  0.25500000000E-02 0. -1.
          2   -1    0    0  501    0  0.00000000000E+00 -0.00000000000E+00 -0.13362589300E+04  0.13362589300E+04  0.25500000000E-02 0.  1.
    5000001    1    1    2    0    0  0.16844000140E+02  0.17631902245E+03 -0.23434199659E+03  0.35093060480E+03  0.19200000000E+03 0.  0.
   -5000001    1    1    2    0    0 -0.16844000140E+02 -0.17631902245E+03 -0.10272766542E+04  0.10599686044E+04  0.19200000000E+03 0.  0.
<mgrwt>
<rscale>  0 0.63162881E+03</rscale>
<asrwt>0</asrwt>
<pdfrwt beam="1">  1        2 0.19089412E+00 0.63162881E+03</pdfrwt>
<pdfrwt beam="2">  1       -2 0.10662898E-01 0.63162881E+03</pdfrwt>
<totfact> 0.11195817E+03</totfact>
</mgrwt>
</event>
<event>
 4    1  0.5812319E-005  0.4628914E+03  0.7818608E-02  0.1023946E+00
         -2   -1    0    0    0  501 -0.00000000000E+00  0.00000000000E+00  0.14048319713E+03  0.14048319715E+03  0.25500000000E-02 0. -1.
          2   -1    0    0  501    0  0.00000000000E+00 -0.00000000000E+00 -0.38130614705E+03  0.38130614706E+03  0.25500000000E-02 0.  1.
    5000001    1    1    2    0    0 -0.77657578593E+02  0.97143965878E+02 -0.16003288572E+03  0.27918125677E+03  0.19200000000E+03 0.  0.
   -5000001    1    1    2    0    0  0.77657578593E+02 -0.97143965878E+02 -0.80790064204E+02  0.24260808744E+03  0.19200000000E+03 0.  0.
<mgrwt>
<rscale>  0 0.46289138E+03</rscale>
<asrwt>0</asrwt>
<pdfrwt beam="1">  1        2 0.54472306E-01 0.46289138E+03</pdfrwt>
<pdfrwt beam="2">  1       -2 0.20069028E-01 0.46289138E+03</pdfrwt>
<totfact> 0.19220137E+03</totfact>
</mgrwt>
</event>
<event>
 4    1  0.5812319E-005  0.5318692E+03  0.7818608E-02  0.1005780E+00
          2   -1    0    0  501    0  0.00000000000E+00  0.00000000000E+00  0.27663653381E+03  0.27663653382E+03  0.25500000000E-02 0.  1.
         -2   -1    0    0    0  501 -0.00000000000E+00 -0.00000000000E+00 -0.25564671964E+03  0.25564671965E+03  0.25500000000E-02 0. -1.
    5000001    1    1    2    0    0  0.15053279737E+03  0.88291797185E+01  0.11602434447E+03  0.27030302626E+03  0.19200000000E+03 0.  0.
   -5000001    1    1    2    0    0 -0.15053279737E+03 -0.88291797185E+01 -0.95034530298E+02  0.26198022721E+03  0.19200000000E+03 0.  0.
<mgrwt>
<rscale>  0 0.53186924E+03</rscale>
<asrwt>0</asrwt>
<pdfrwt beam="1">  1        2 0.39519505E-01 0.53186924E+03</pdfrwt>
<pdfrwt beam="2">  1       -2 0.36520960E-01 0.53186924E+03</pdfrwt>
<totfact> 0.92391324E+02</totfact>
</mgrwt>
</event>
<event>
 4    1  0.5812319E-005  0.5999983E+03  0.7818608E-02  0.9905410E-01
         -2   -1    0    0    0  501 -0.00000000000E+00  0.00000000000E+00  0.17297999383E+03  0.17297999385E+03  0.25500000000E-02 0. -1.
          2   -1    0    0  501    0  0.00000000000E+00 -0.00000000000E+00 -0.52028835939E+03  0.52028835940E+03  0.25500000000E-02 0.  1.
    5000001    1    1    2    0    0  0.13612883548E+03  0.17580877305E+03 -0.10341178772E+03  0.31144466984E+03  0.19200000000E+03 0.  0.
   -5000001    1    1    2    0    0 -0.13612883548E+03 -0.17580877305E+03 -0.24389657784E+03  0.38182368341E+03  0.19200000000E+03 0.  0.
<mgrwt>
<rscale>  0 0.59999826E+03</rscale>
<asrwt>0</asrwt>
<pdfrwt beam="1">  1        2 0.74326908E-01 0.59999826E+03</pdfrwt>
<pdfrwt beam="2">  1       -2 0.24711428E-01 0.59999826E+03</pdfrwt>
<totfact> 0.94099214E+02</totfact>
</mgrwt>
</event>
<event>
 4    1  0.5812319E-005  0.8661280E+03  0.7818608E-02  0.9468943E-01
         -2   -1    0    0    0  501 -0.00000000000E+00  0.00000000000E+00  0.10866339601E+03  0.10866339604E+03  0.25500000000E-02 0. -1.
          2   -1    0    0  501    0  0.00000000000E+00 -0.00000000000E+00 -0.17259208726E+04  0.17259208726E+04  0.25500000000E-02 0.  1.
    5000001    1    1    2    0    0  0.31686796420E+03  0.11670674750E+03 -0.12141560795E+04  0.12747802780E+04  0.19200000000E+03 0.  0.
   -5000001    1    1    2    0    0 -0.31686796420E+03 -0.11670674750E+03 -0.40310139701E+03  0.55980399062E+03  0.19200000000E+03 0.  0.
<mgrwt>
<rscale>  0 0.86612799E+03</rscale>
<asrwt>0</asrwt>
<pdfrwt beam="1">  1        2 0.24656011E+00 0.86612799E+03</pdfrwt>
<pdfrwt beam="2">  1       -2 0.15523343E-01 0.86612799E+03</pdfrwt>
<totfact> 0.37015650E+02</totfact>
</mgrwt>
</event>
<event>
 4    1  0.5812319E-005  0.5462026E+03  0.7818608E-02  0.1002377E+00
          2   -1    0    0  501    0  0.00000000000E+00  0.00000000000E+00  0.49415988184E+03  0.49415988185E+03  0.25500000000E-02 0.  1.
         -2   -1    0    0    0  501 -0.00000000000E+00 -0.00000000000E+00 -0.15093154560E+03  0.15093154562E+03  0.25500000000E-02 0. -1.
    5000001    1    1    2    0    0  0.17692613867E+03 -0.34240738972E+02  0.25714868926E+03  0.36805534250E+03  0.19200000000E+03 0.  0.
   -5000001    1    1    2    0    0 -0.17692613867E+03  0.34240738972E+02  0.86079646984E+02  0.27703608497E+03  0.19200000000E+03 0.  0.
<mgrwt>
<rscale>  0 0.54620258E+03</rscale>
<asrwt>0</asrwt>
<pdfrwt beam="1">  1        2 0.70594268E-01 0.54620258E+03</pdfrwt>
<pdfrwt beam="2">  1       -2 0.21561650E-01 0.54620258E+03</pdfrwt>
<totfact> 0.12713733E+03</totfact>
</mgrwt>
</event>
<event>
 4    1  0.5812319E-005  0.8671385E+03  0.7818608E-02  0.9467619E-01
         -2   -1    0    0    0  501 -0.00000000000E+00  0.00000000000E+00  0.20489818766E+03  0.20489818768E+03  0.25500000000E-02 0. -1.
          2   -1    0    0  501    0  0.00000000000E+00 -0.00000000000E+00 -0.91744242536E+03  0.91744242537E+03  0.25500000000E-02 0.  1.
    5000001    1    1    2    0    0  0.21555393526E+03  0.77922952180E+02  0.50112067363E+02  0.30316778321E+03  0.19200000000E+03 0.  0.
   -5000001    1    1    2    0    0 -0.21555393526E+03 -0.77922952180E+02 -0.76265630506E+03  0.81917282983E+03  0.19200000000E+03 0.  0.
<mgrwt>
<rscale>  0 0.86713849E+03</rscale>
<asrwt>0</asrwt>
<pdfrwt beam="1">  1        2 0.13106320E+00 0.86713849E+03</pdfrwt>
<pdfrwt beam="2">  1       -2 0.29271170E-01 0.86713849E+03</pdfrwt>
<totfact> 0.34025593E+02</totfact>
</mgrwt>
</event>
<event>
 4    1  0.5812319E-005  0.5784052E+03  0.7818608E-02  0.9951250E-01
         -2   -1    0    0    0  501 -0.00000000000E+00  0.00000000000E+00  0.81561959956E+02  0.81561959996E+02  0.25500000000E-02 0. -1.
          2   -1    0    0  501    0  0.00000000000E+00 -0.00000000000E+00 -0.10254554479E+04  0.10254554479E+04  0.25500000000E-02 0.  1.
    5000001    1    1    2    0    0  0.16520615343E+03  0.23258715935E+02 -0.73534538967E+03  0.77809439216E+03  0.19200000000E+03 0.  0.
   -5000001    1    1    2    0    0 -0.16520615343E+03 -0.23258715935E+02 -0.20854809830E+03  0.32892301577E+03  0.19200000000E+03 0.  0.
<mgrwt>
<rscale>  0 0.57840524E+03</rscale>
<asrwt>0</asrwt>
<pdfrwt beam="1">  1        2 0.14649363E+00 0.57840524E+03</pdfrwt>
<pdfrwt beam="2">  1       -2 0.11651709E-01 0.57840524E+03</pdfrwt>
<totfact> 0.14543781E+03</totfact>
</mgrwt>
</event>
<event>
 4    1  0.5812319E-005  0.4519402E+03  0.7818608E-02  0.1027145E+00
          2   -1    0    0  501    0  0.00000000000E+00  0.00000000000E+00  0.10860621644E+04  0.10860621644E+04  0.25500000000E-02 0.  1.
         -2   -1    0    0    0  501 -0.00000000000E+00 -0.00000000000E+00 -0.47016182885E+02  0.47016182954E+02  0.25500000000E-02 0. -1.
    5000001    1    1    2    0    0 -0.64384955753E+02 -0.73699412728E+02  0.34908396036E+03  0.41024460672E+03  0.19200000000E+03 0.  0.
   -5000001    1    1    2    0    0  0.64384955753E+02  0.73699412728E+02  0.68996202115E+03  0.72283374063E+03  0.19200000000E+03 0.  0.
<mgrwt>
<rscale>  0 0.45194025E+03</rscale>
<asrwt>0</asrwt>
<pdfrwt beam="1">  1        2 0.15515173E+00 0.45194025E+03</pdfrwt>
<pdfrwt beam="2">  1       -2 0.67165980E-02 0.45194025E+03</pdfrwt>
<totfact> 0.32378800E+03</totfact>
</mgrwt>
</event>
<event>
 4    1  0.5812319E-005  0.7451920E+03  0.7818608E-02  0.9642924E-01
         -2   -1    0    0    0  501 -0.00000000000E+00  0.00000000000E+00  0.74147000504E+02  0.74147000548E+02  0.25500000000E-02 0.  1.
          2   -1    0    0  501    0  0.00000000000E+00 -0.00000000000E+00 -0.18723316980E+04  0.18723316980E+04  0.25500000000E-02 0. -1.
    5000001    1    1    2    0    0 -0.41300255487E+02 -0.28456405458E+03 -0.53638998723E+03  0.63816975066E+03  0.19200000000E+03 0.  0.
   -5000001    1    1    2    0    0  0.41300255487E+02  0.28456405458E+03 -0.12617947102E+04  0.13083089478E+04  0.19200000000E+03 0.  0.
<mgrwt>
<rscale>  0 0.74519200E+03</rscale>
<asrwt>0</asrwt>
<pdfrwt beam="1">  1        2 0.26747593E+00 0.74519200E+03</pdfrwt>
<pdfrwt beam="2">  1       -2 0.10592430E-01 0.74519200E+03</pdfrwt>
<totfact> 0.59351441E+02</totfact>
</mgrwt>
</event>
<event>
 4    1  0.5812319E-005  0.5292175E+03  0.7818608E-02  0.1006422E+00
         -2   -1    0    0    0  501 -0.00000000000E+00  0.00000000000E+00  0.61250782701E+03  0.61250782702E+03  0.25500000000E-02 0. -1.
          2   -1    0    0  501    0  0.00000000000E+00 -0.00000000000E+00 -0.11431328675E+03  0.11431328677E+03  0.25500000000E-02 0.  1.
    5000001    1    1    2    0    0 -0.37607001606E+02 -0.13963420723E+03  0.40105252612E+03  0.46756724340E+03  0.19200000000E+03 0.  0.
   -5000001    1    1    2    0    0  0.37607001606E+02  0.13963420723E+03  0.97142014148E+02  0.25925387039E+03  0.19200000000E+03 0.  0.
<mgrwt>
<rscale>  0 0.52921747E+03</rscale>
<asrwt>0</asrwt>
<pdfrwt beam="1">  1        2 0.16330469E-01 0.52921747E+03</pdfrwt>
<pdfrwt beam="2">  1       -2 0.87501121E-01 0.52921747E+03</pdfrwt>
<totfact> 0.41202342E+02</totfact>
</mgrwt>
</event>
<event>
 4    1  0.5812319E-005  0.5415735E+03  0.7818608E-02  0.1003463E+00
         -2   -1    0    0    0  501 -0.00000000000E+00  0.00000000000E+00  0.59112925063E+02  0.59112925118E+02  0.25500000000E-02 0. -1.
          2   -1    0    0  501    0  0.00000000000E+00 -0.00000000000E+00 -0.12404304155E+04  0.12404304155E+04  0.25500000000E-02 0.  1.
    5000001    1    1    2    0    0  0.10178028808E+03 -0.15468772065E+03 -0.70254026232E+03  0.75147477545E+03  0.19200000000E+03 0.  0.
   -5000001    1    1    2    0    0 -0.10178028808E+03  0.15468772065E+03 -0.47877722812E+03  0.54806856517E+03  0.19200000000E+03 0.  0.
<mgrwt>
<rscale>  0 0.54157352E+03</rscale>
<asrwt>0</asrwt>
<pdfrwt beam="1">  1        2 0.17720433E+00 0.54157352E+03</pdfrwt>
<pdfrwt beam="2">  1       -2 0.84447043E-02 0.54157352E+03</pdfrwt>
<totfact> 0.18441023E+03</totfact>
</mgrwt>
</event>
<event>
 4    1  0.5812319E-005  0.1143662E+04  0.7818608E-02  0.9163650E-01
         -2   -1    0    0    0  501 -0.00000000000E+00  0.00000000000E+00  0.17930574308E+03  0.17930574310E+03  0.25500000000E-02 0. -1.
          2   -1    0    0  501    0  0.00000000000E+00 -0.00000000000E+00 -0.18236502242E+04  0.18236502242E+04  0.25500000000E-02 0.  1.
    5000001    1    1    2    0    0  0.55196878605E+02 -0.41369880109E+03 -0.22585395097E+03  0.51192519043E+03  0.19200000000E+03 0.  0.
   -5000001    1    1    2    0    0 -0.55196878605E+02  0.41369880109E+03 -0.14184905301E+04  0.14910307768E+04  0.19200000000E+03 0.  0.
<mgrwt>
<rscale>  0 0.11436625E+04</rscale>
<asrwt>0</asrwt>
<pdfrwt beam="1">  1        2 0.26052145E+00 0.11436625E+04</pdfrwt>
<pdfrwt beam="2">  1       -2 0.25615107E-01 0.11436625E+04</pdfrwt>
<totfact> 0.13441935E+02</totfact>
</mgrwt>
</event>
<event>
 4    1  0.5812319E-005  0.4631382E+03  0.7818608E-02  0.1023875E+00
          2   -1    0    0  501    0  0.00000000000E+00  0.00000000000E+00  0.29340792660E+04  0.29340792660E+04  0.25500000000E-02 0.  1.
         -2   -1    0    0    0  501 -0.00000000000E+00 -0.00000000000E+00 -0.18276349693E+02  0.18276349871E+02  0.25500000000E-02 0. -1.
    5000001    1    1    2    0    0  0.90661313214E+02  0.81316613384E+01  0.87106215052E+03  0.89660407522E+03  0.19200000000E+03 0.  0.
   -5000001    1    1    2    0    0 -0.90661313214E+02 -0.81316613384E+01  0.20447407658E+04  0.20557515407E+04  0.19200000000E+03 0.  0.
<mgrwt>
<rscale>  0 0.46313825E+03</rscale>
<asrwt>0</asrwt>
<pdfrwt beam="1">  1        2 0.41915393E+00 0.46313825E+03</pdfrwt>
<pdfrwt beam="2">  1       -2 0.26109086E-02 0.46313825E+03</pdfrwt>
<totfact> 0.15348371E+03</totfact>
</mgrwt>
</event>
<event>
 4    1  0.5812319E-005  0.5317483E+03  0.7818608E-02  0.1005809E+00
          2   -1    0    0  501    0  0.00000000000E+00  0.00000000000E+00  0.23197570407E+04  0.23197570407E+04  0.25500000000E-02 0.  1.
         -2   -1    0    0    0  501 -0.00000000000E+00 -0.00000000000E+00 -0.30472610808E+02  0.30472610915E+02  0.25500000000E-02 0. -1.
    5000001    1    1    2    0    0 -0.15540063263E+03 -0.53027694223E+02  0.77847008489E+03  0.81843812597E+03  0.19200000000E+03 0.  0.
   -5000001    1    1    2    0    0  0.15540063263E+03  0.53027694223E+02  0.15108143450E+04  0.15317915257E+04  0.19200000000E+03 0.  0.
<mgrwt>
<rscale>  0 0.53174826E+03</rscale>
<asrwt>0</asrwt>
<pdfrwt beam="1">  1        2 0.33139397E+00 0.53174826E+03</pdfrwt>
<pdfrwt beam="2">  1       -2 0.43532287E-02 0.53174826E+03</pdfrwt>
<totfact> 0.14594206E+03</totfact>
</mgrwt>
</event>
<event>
 4    1  0.5812319E-005  0.1189917E+04  0.7818608E-02  0.9121728E-01
          2   -1    0    0  501    0  0.00000000000E+00  0.00000000000E+00  0.17360694149E+04  0.17360694149E+04  0.25500000000E-02 0.  1.
         -2   -1    0    0    0  501 -0.00000000000E+00 -0.00000000000E+00 -0.20389481585E+03  0.20389481587E+03  0.25500000000E-02 0. -1.
    5000001    1    1    2    0    0  0.64810334588E+01 -0.55702548144E+03  0.90045074708E+03  0.10761017325E+04  0.19200000000E+03 0.  0.
   -5000001    1    1    2    0    0 -0.64810334588E+01  0.55702548144E+03  0.63172385198E+03  0.86386249828E+03  0.19200000000E+03 0.  0.
<mgrwt>
<rscale>  0 0.11899169E+04</rscale>
<asrwt>0</asrwt>
<pdfrwt beam="1">  1        2 0.24800991E+00 0.11899169E+04</pdfrwt>
<pdfrwt beam="2">  1       -2 0.29127832E-01 0.11899169E+04</pdfrwt>
<totfact> 0.11743856E+02</totfact>
</mgrwt>
</event>
<event>
 4    1  0.5812319E-005  0.5125691E+03  0.7818608E-02  0.1010549E+00
          2   -1    0    0  501    0  0.00000000000E+00  0.00000000000E+00  0.69689189143E+03  0.69689189143E+03  0.25500000000E-02 0.  1.
         -2   -1    0    0    0  501 -0.00000000000E+00 -0.00000000000E+00 -0.94249568221E+02  0.94249568256E+02  0.25500000000E-02 0. -1.
    5000001    1    1    2    0    0 -0.55351264413E+02 -0.14898253916E+03  0.39339091126E+03  0.46570373469E+03  0.19200000000E+03 0.  0.
   -5000001    1    1    2    0    0  0.55351264413E+02  0.14898253916E+03  0.20925141195E+03  0.32543772500E+03  0.19200000000E+03 0.  0.
<mgrwt>
<rscale>  0 0.51256906E+03</rscale>
<asrwt>0</asrwt>
<pdfrwt beam="1">  1        2 0.99555986E-01 0.51256906E+03</pdfrwt>
<pdfrwt beam="2">  1       -2 0.13464224E-01 0.51256906E+03</pdfrwt>
<totfact> 0.18981118E+03</totfact>
</mgrwt>
</event>
<event>
 4    1  0.5812319E-005  0.6107931E+03  0.7818608E-02  0.9883263E-01
          2   -1    0    0  501    0  0.00000000000E+00  0.00000000000E+00  0.12891220871E+04  0.12891220871E+04  0.25500000000E-02 0.  1.
         -2   -1    0    0    0  501 -0.00000000000E+00 -0.00000000000E+00 -0.72349279336E+02  0.72349279381E+02  0.25500000000E-02 0. -1.
    5000001    1    1    2    0    0  0.21527515171E+03  0.95379272338E+02  0.53923433758E+03  0.61893316874E+03  0.19200000000E+03 0.  0.
   -5000001    1    1    2    0    0 -0.21527515171E+03 -0.95379272338E+02  0.67753847019E+03  0.74253819776E+03  0.19200000000E+03 0.  0.
<mgrwt>
<rscale>  0 0.61079310E+03</rscale>
<asrwt>0</asrwt>
<pdfrwt beam="1">  1        2 0.18416029E+00 0.61079310E+03</pdfrwt>
<pdfrwt beam="2">  1       -2 0.10335612E-01 0.61079310E+03</pdfrwt>
<totfact> 0.12502133E+03</totfact>
</mgrwt>
</event>
<event>
 4    1  0.5812319E-005  0.5303500E+03  0.7818608E-02  0.1006147E+00
          2   -1    0    0  501    0  0.00000000000E+00  0.00000000000E+00  0.59202076179E+03  0.59202076179E+03  0.25500000000E-02 0.  1.
         -2   -1    0    0    0  501 -0.00000000000E+00 -0.00000000000E+00 -0.11877587941E+03  0.11877587944E+03  0.25500000000E-02 0. -1.
    5000001    1    1    2    0    0 -0.84425103056E+02  0.13832132259E+03  0.12295138640E+03  0.27971669547E+03  0.19200000000E+03 0.  0.
   -5000001    1    1    2    0    0  0.84425103056E+02 -0.13832132259E+03  0.35029349598E+03  0.43107994576E+03  0.19200000000E+03 0.  0.
<mgrwt>
<rscale>  0 0.53035002E+03</rscale>
<asrwt>0</asrwt>
<pdfrwt beam="1">  1        2 0.84574396E-01 0.53035002E+03</pdfrwt>
<pdfrwt beam="2">  1       -2 0.16967983E-01 0.53035002E+03</pdfrwt>
<totfact> 0.15627821E+03</totfact>
</mgrwt>
</event>
<event>
 4    1  0.5812319E-005  0.5079095E+03  0.7818608E-02  0.1011735E+00
          2   -1    0    0  501    0  0.00000000000E+00  0.00000000000E+00  0.18337313983E+04  0.18337313983E+04  0.25500000000E-02 0.  1.
         -2   -1    0    0    0  501 -0.00000000000E+00 -0.00000000000E+00 -0.35170365463E+02  0.35170365555E+02  0.25500000000E-02 0. -1.
    5000001    1    1    2    0    0  0.55738861068E+01  0.13346557618E+03  0.12632607708E+04  0.12847318410E+04  0.19200000000E+03 0.  0.
   -5000001    1    1    2    0    0 -0.55738861068E+01 -0.13346557618E+03  0.53530026199E+03  0.58416992281E+03  0.19200000000E+03 0.  0.
<mgrwt>
<rscale>  0 0.50790945E+03</rscale>
<asrwt>0</asrwt>
<pdfrwt beam="1">  1        2 0.26196173E+00 0.50790945E+03</pdfrwt>
<pdfrwt beam="2">  1       -2 0.50243359E-02 0.50790945E+03</pdfrwt>
<totfact> 0.20515707E+03</totfact>
</mgrwt>
</event>
<event>
 4    1  0.5812319E-005  0.6390924E+03  0.7818608E-02  0.9827465E-01
          2   -1    0    0  501    0  0.00000000000E+00  0.00000000000E+00  0.58437656151E+03  0.58437656152E+03  0.25500000000E-02 0.  1.
         -2   -1    0    0    0  501 -0.00000000000E+00 -0.00000000000E+00 -0.17473284043E+03  0.17473284045E+03  0.25500000000E-02 0. -1.
    5000001    1    1    2    0    0 -0.20910600522E+03  0.13595740786E+03  0.13937416852E+03  0.34423668750E+03  0.19200000000E+03 0.  0.
   -5000001    1    1    2    0    0  0.20910600522E+03 -0.13595740786E+03  0.27026955256E+03  0.41487271447E+03  0.19200000000E+03 0.  0.
<mgrwt>
<rscale>  0 0.63909241E+03</rscale>
<asrwt>0</asrwt>
<pdfrwt beam="1">  1        2 0.83482367E-01 0.63909241E+03</pdfrwt>
<pdfrwt beam="2">  1       -2 0.24961834E-01 0.63909241E+03</pdfrwt>
<totfact> 0.80726509E+02</totfact>
</mgrwt>
</event>
<event>
 4    1  0.5812319E-005  0.5801138E+03  0.7818608E-02  0.9947545E-01
          2   -1    0    0  501    0  0.00000000000E+00  0.00000000000E+00  0.15682017977E+03  0.15682017979E+03  0.25500000000E-02 0.  1.
         -2   -1    0    0    0  501 -0.00000000000E+00 -0.00000000000E+00 -0.53649347183E+03  0.53649347184E+03  0.25500000000E-02 0. -1.
    5000001    1    1    2    0    0  0.75955629328E+01 -0.21715791099E+03 -0.19859884592E+03  0.35145519271E+03  0.19200000000E+03 0.  0.
   -5000001    1    1    2    0    0 -0.75955629328E+01  0.21715791099E+03 -0.18107444615E+03  0.34185845891E+03  0.19200000000E+03 0.  0.
<mgrwt>
<rscale>  0 0.58011379E+03</rscale>
<asrwt>0</asrwt>
<pdfrwt beam="1">  1        2 0.22402883E-01 0.58011379E+03</pdfrwt>
<pdfrwt beam="2">  1       -2 0.76641924E-01 0.58011379E+03</pdfrwt>
<totfact> 0.38236032E+02</totfact>
</mgrwt>
</event>
<event>
 4    1  0.5812319E-005  0.6120930E+03  0.7818608E-02  0.9880630E-01
          2   -1    0    0  501    0  0.00000000000E+00  0.00000000000E+00  0.50504902355E+03  0.50504902356E+03  0.25500000000E-02 0. -1.
         -2   -1    0    0    0  501 -0.00000000000E+00 -0.00000000000E+00 -0.18545614868E+03  0.18545614870E+03  0.25500000000E-02 0.  1.
    5000001    1    1    2    0    0  0.20332788015E+03 -0.10822462973E+03  0.22883839889E+03  0.37720791367E+03  0.19200000000E+03 0.  0.
   -5000001    1    1    2    0    0 -0.20332788015E+03  0.10822462973E+03  0.90754475978E+02  0.31329725859E+03  0.19200000000E+03 0.  0.
<mgrwt>
<rscale>  0 0.61209296E+03</rscale>
<asrwt>0</asrwt>
<pdfrwt beam="1">  1        2 0.72149861E-01 0.61209296E+03</pdfrwt>
<pdfrwt beam="2">  1       -2 0.26493735E-01 0.61209296E+03</pdfrwt>
<totfact> 0.85854747E+02</totfact>
</mgrwt>
</event>
<event>
 4    1  0.5812319E-005  0.6280391E+03  0.7818608E-02  0.9848883E-01
          2   -1    0    0  501    0  0.00000000000E+00  0.00000000000E+00  0.25314898447E+04  0.25314898447E+04  0.25500000000E-02 0.  1.
         -2   -1    0    0    0  501 -0.00000000000E+00 -0.00000000000E+00 -0.38952665544E+02  0.38952665628E+02  0.25500000000E-02 0. -1.
    5000001    1    1    2    0    0  0.20785978478E+03  0.12702349686E+03  0.10456117443E+04  0.10906459456E+04  0.19200000000E+03 0.  0.
   -5000001    1    1    2    0    0 -0.20785978478E+03 -0.12702349686E+03  0.14469254349E+04  0.14797965647E+04  0.19200000000E+03 0.  0.
<mgrwt>
<rscale>  0 0.62803910E+03</rscale>
<asrwt>0</asrwt>
<pdfrwt beam="1">  1        2 0.36164146E+00 0.62803910E+03</pdfrwt>
<pdfrwt beam="2">  1       -2 0.55646657E-02 0.62803910E+03</pdfrwt>
<totfact> 0.77300464E+02</totfact>
</mgrwt>
</event>
<event>
 4    1  0.5812319E-005  0.9760146E+03  0.7818608E-02  0.9335250E-01
         -2   -1    0    0    0  501 -0.00000000000E+00  0.00000000000E+00  0.32612387883E+03  0.32612387884E+03  0.25500000000E-02 0. -1.
          2   -1    0    0  501    0  0.00000000000E+00 -0.00000000000E+00 -0.73024741325E+03  0.73024741325E+03  0.25500000000E-02 0.  1.
    5000001    1    1    2    0    0  0.21574348433E+03  0.38009337118E+03 -0.31175111900E+03  0.57014821060E+03  0.19200000000E+03 0.  0.
   -5000001    1    1    2    0    0 -0.21574348433E+03 -0.38009337118E+03 -0.92372415420E+02  0.48622308149E+03  0.19200000000E+03 0.  0.
<mgrwt>
<rscale>  0 0.97601459E+03</rscale>
<asrwt>0</asrwt>
<pdfrwt beam="1">  1        2 0.10432106E+00 0.97601459E+03</pdfrwt>
<pdfrwt beam="2">  1       -2 0.46589126E-01 0.97601459E+03</pdfrwt>
<totfact> 0.18628571E+02</totfact>
</mgrwt>
</event>
<event>
 4    1  0.5812319E-005  0.6615383E+03  0.7818608E-02  0.9785366E-01
          2   -1    0    0  501    0  0.00000000000E+00  0.00000000000E+00  0.26268479049E+03  0.26268479051E+03  0.25500000000E-02 0.  1.
         -2   -1    0    0    0  501 -0.00000000000E+00 -0.00000000000E+00 -0.41650011197E+03  0.41650011198E+03  0.25500000000E-02 0. -1.
    5000001    1    1    2    0    0  0.26314519229E+03  0.14331702951E+02 -0.19805192012E+02  0.32666042853E+03  0.19200000000E+03 0.  0.
   -5000001    1    1    2    0    0 -0.26314519229E+03 -0.14331702951E+02 -0.13401012947E+03  0.35252447395E+03  0.19200000000E+03 0.  0.
<mgrwt>
<rscale>  0 0.66153834E+03</rscale>
<asrwt>0</asrwt>
<pdfrwt beam="1">  1        2 0.37526399E-01 0.66153834E+03</pdfrwt>
<pdfrwt beam="2">  1       -2 0.59500016E-01 0.66153834E+03</pdfrwt>
<totfact> 0.36794502E+02</totfact>
</mgrwt>
</event>
<event>
 4    1  0.5812319E-005  0.1317046E+04  0.7818608E-02  0.9016155E-01
          2   -1    0    0  501    0  0.00000000000E+00  0.00000000000E+00  0.16864558235E+04  0.16864558235E+04  0.25500000000E-02 0.  1.
         -2   -1    0    0    0  501 -0.00000000000E+00 -0.00000000000E+00 -0.25713852270E+03  0.25713852271E+03  0.25500000000E-02 0. -1.
    5000001    1    1    2    0    0  0.11909347065E+03  0.52785930536E+03  0.23882109278E+03  0.62186671833E+03  0.19200000000E+03 0.  0.
   -5000001    1    1    2    0    0 -0.11909347065E+03 -0.52785930536E+03  0.11904962080E+04  0.13217276279E+04  0.19200000000E+03 0.  0.
<mgrwt>
<rscale>  0 0.13170463E+04</rscale>
<asrwt>0</asrwt>
<pdfrwt beam="1">  1        2 0.24092226E+00 0.13170463E+04</pdfrwt>
<pdfrwt beam="2">  1       -2 0.36734075E-01 0.13170463E+04</pdfrwt>
<totfact> 0.79679120E+01</totfact>
</mgrwt>
</event>
<event>
 4    1  0.5812319E-005  0.1247744E+04  0.7818608E-02  0.9072063E-01
          2   -1    0    0  501    0  0.00000000000E+00  0.00000000000E+00  0.62250988801E+03  0.62250988802E+03  0.25500000000E-02 0.  1.
         -2   -1    0    0    0  501 -0.00000000000E+00 -0.00000000000E+00 -0.62523695750E+03  0.62523695750E+03  0.25500000000E-02 0. -1.
    5000001    1    1    2    0    0 -0.56667228501E+03  0.99959367427E+02 -0.14711310126E+03  0.62419197231E+03  0.19200000000E+03 0.  0.
   -5000001    1    1    2    0    0  0.56667228501E+03 -0.99959367427E+02  0.14438603177E+03  0.62355487321E+03  0.19200000000E+03 0.  0.
<mgrwt>
<rscale>  0 0.12477439E+04</rscale>
<asrwt>0</asrwt>
<pdfrwt beam="1">  1        2 0.88929984E-01 0.12477439E+04</pdfrwt>
<pdfrwt beam="2">  1       -2 0.89319565E-01 0.12477439E+04</pdfrwt>
<totfact> 0.55014359E+01</totfact>
</mgrwt>
</event>
<event>
 4    1  0.5812319E-005  0.6988568E+03  0.7818608E-02  0.9719189E-01
         -2   -1    0    0    0  501 -0.00000000000E+00  0.00000000000E+00  0.19606650606E+03  0.19606650608E+03  0.25500000000E-02 0. -1.
          2   -1    0    0  501    0  0.00000000000E+00 -0.00000000000E+00 -0.62274898262E+03  0.62274898262E+03  0.25500000000E-02 0.  1.
    5000001    1    1    2    0    0  0.14893596463E+03  0.22470035948E+03 -0.82011656609E+02  0.34097226417E+03  0.19200000000E+03 0.  0.
   -5000001    1    1    2    0    0 -0.14893596463E+03 -0.22470035948E+03 -0.34467081995E+03  0.47784322453E+03  0.19200000000E+03 0.  0.
<mgrwt>
<rscale>  0 0.69885683E+03</rscale>
<asrwt>0</asrwt>
<pdfrwt beam="1">  1        2 0.88964140E-01 0.69885683E+03</pdfrwt>
<pdfrwt beam="2">  1       -2 0.28009501E-01 0.69885683E+03</pdfrwt>
<totfact> 0.60676496E+02</totfact>
</mgrwt>
</event>
<event>
 4    1  0.5812319E-005  0.4026471E+03  0.7818608E-02  0.1042867E+00
         -2   -1    0    0    0  501 -0.00000000000E+00  0.00000000000E+00  0.21041590659E+03  0.21041590661E+03  0.25500000000E-02 0. -1.
          2   -1    0    0  501    0  0.00000000000E+00 -0.00000000000E+00 -0.19262412417E+03  0.19262412418E+03  0.25500000000E-02 0.  1.
    5000001    1    1    2    0    0 -0.44094770802E+02 -0.40976588052E+02  0.15516734499E+02  0.20181228563E+03  0.19200000000E+03 0.  0.
   -5000001    1    1    2    0    0  0.44094770802E+02  0.40976588052E+02  0.22750479247E+01  0.20122774516E+03  0.19200000000E+03 0.  0.
<mgrwt>
<rscale>  0 0.40264714E+03</rscale>
<asrwt>0</asrwt>
<pdfrwt beam="1">  1        2 0.27517732E-01 0.40264714E+03</pdfrwt>
<pdfrwt beam="2">  1       -2 0.30059415E-01 0.40264714E+03</pdfrwt>
<totfact> 0.19827881E+03</totfact>
</mgrwt>
</event>
<event>
 4    1  0.5812319E-005  0.9446621E+03  0.7818608E-02  0.9371412E-01
         -2   -1    0    0    0  501 -0.00000000000E+00  0.00000000000E+00  0.19631966647E+03  0.19631966648E+03  0.25500000000E-02 0. -1.
          2   -1    0    0  501    0  0.00000000000E+00 -0.00000000000E+00 -0.11363947198E+04  0.11363947199E+04  0.25500000000E-02 0.  1.
    5000001    1    1    2    0    0 -0.30419904013E+03  0.18669856961E+03 -0.12782646942E+03  0.42496707895E+03  0.19200000000E+03 0.  0.
   -5000001    1    1    2    0    0  0.30419904013E+03 -0.18669856961E+03 -0.81224858396E+03  0.90774730738E+03  0.19200000000E+03 0.  0.
<mgrwt>
<rscale>  0 0.94466212E+03</rscale>
<asrwt>0</asrwt>
<pdfrwt beam="1">  1        2 0.16234210E+00 0.94466212E+03</pdfrwt>
<pdfrwt beam="2">  1       -2 0.28045667E-01 0.94466212E+03</pdfrwt>
<totfact> 0.26965985E+02</totfact>
</mgrwt>
</event>
<event>
 4    1  0.5812319E-005  0.5353289E+03  0.7818608E-02  0.1004948E+00
         -2   -1    0    0    0  501 -0.00000000000E+00  0.00000000000E+00  0.54435849375E+02  0.54435849434E+02  0.25500000000E-02 0. -1.
          2   -1    0    0  501    0  0.00000000000E+00 -0.00000000000E+00 -0.13161229181E+04  0.13161229181E+04  0.25500000000E-02 0.  1.
    5000001    1    1    2    0    0  0.26789994991E+02  0.16482116202E+03 -0.41822903727E+03  0.48955413071E+03  0.19200000000E+03 0.  0.
   -5000001    1    1    2    0    0 -0.26789994991E+02 -0.16482116202E+03 -0.84345803141E+03  0.88100463678E+03  0.19200000000E+03 0.  0.
<mgrwt>
<rscale>  0 0.53532894E+03</rscale>
<asrwt>0</asrwt>
<pdfrwt beam="1">  1        2 0.18801754E+00 0.53532894E+03</pdfrwt>
<pdfrwt beam="2">  1       -2 0.77765508E-02 0.53532894E+03</pdfrwt>
<totfact> 0.19122907E+03</totfact>
</mgrwt>
</event>
<event>
 4    1  0.5812319E-005  0.8879115E+03  0.7818608E-02  0.9440820E-01
         -2   -1    0    0    0  501 -0.00000000000E+00  0.00000000000E+00  0.21949963564E+03  0.21949963566E+03  0.25500000000E-02 0. -1.
          2   -1    0    0  501    0  0.00000000000E+00 -0.00000000000E+00 -0.89793644705E+03  0.89793644706E+03  0.25500000000E-02 0.  1.
    5000001    1    1    2    0    0  0.30706356198E+03  0.21659586270E+03 -0.51283168186E+03  0.66412508818E+03  0.19200000000E+03 0.  0.
   -5000001    1    1    2    0    0 -0.30706356198E+03 -0.21659586270E+03 -0.16560512955E+03  0.45331099453E+03  0.19200000000E+03 0.  0.
<mgrwt>
<rscale>  0 0.88791153E+03</rscale>
<asrwt>0</asrwt>
<pdfrwt beam="1">  1        2 0.12827663E+00 0.88791153E+03</pdfrwt>
<pdfrwt beam="2">  1       -2 0.31357091E-01 0.88791153E+03</pdfrwt>
<totfact> 0.30792584E+02</totfact>
</mgrwt>
</event>
<event>
 4    1  0.5812319E-005  0.6766070E+03  0.7818608E-02  0.9758095E-01
          2   -1    0    0  501    0  0.00000000000E+00  0.00000000000E+00  0.12819146432E+04  0.12819146432E+04  0.25500000000E-02 0.  1.
         -2   -1    0    0    0  501 -0.00000000000E+00 -0.00000000000E+00 -0.89279931358E+02  0.89279931394E+02  0.25500000000E-02 0. -1.
    5000001    1    1    2    0    0  0.24465699017E+03  0.89055163712E+02  0.79691125940E+03  0.86006942766E+03  0.19200000000E+03 0.  0.
   -5000001    1    1    2    0    0 -0.24465699017E+03 -0.89055163712E+02  0.39572345244E+03  0.51112514694E+03  0.19200000000E+03 0.  0.
<mgrwt>
<rscale>  0 0.67660698E+03</rscale>
<asrwt>0</asrwt>
<pdfrwt beam="1">  1        2 0.18313065E+00 0.67660698E+03</pdfrwt>
<pdfrwt beam="2">  1       -2 0.12754277E-01 0.67660698E+03</pdfrwt>
<totfact> 0.89122193E+02</totfact>
</mgrwt>
</event>
<event>
 4    1  0.5812319E-005  0.5401532E+03  0.7818608E-02  0.1003799E+00
          2   -1    0    0  501    0  0.00000000000E+00  0.00000000000E+00  0.64055328025E+03  0.64055328025E+03  0.25500000000E-02 0.  1.
         -2   -1    0    0    0  501 -0.00000000000E+00 -0.00000000000E+00 -0.11387245943E+03  0.11387245946E+03  0.25500000000E-02 0. -1.
    5000001    1    1    2    0    0  0.51584868861E+02  0.18225761454E+03  0.28302037301E+03  0.39095187465E+03  0.19200000000E+03 0.  0.
   -5000001    1    1    2    0    0 -0.51584868861E+02 -0.18225761454E+03  0.24366044781E+03  0.36347386506E+03  0.19200000000E+03 0.  0.
<mgrwt>
<rscale>  0 0.54015323E+03</rscale>
<asrwt>0</asrwt>
<pdfrwt beam="1">  1        2 0.91507610E-01 0.54015323E+03</pdfrwt>
<pdfrwt beam="2">  1       -2 0.16267495E-01 0.54015323E+03</pdfrwt>
<totfact> 0.15298207E+03</totfact>
</mgrwt>
</event>
<event>
 4    1  0.5812319E-005  0.5610096E+03  0.7818608E-02  0.9989773E-01
         -2   -1    0    0    0  501 -0.00000000000E+00  0.00000000000E+00  0.96852881847E+02  0.96852881881E+02  0.25500000000E-02 0. -1.
          2   -1    0    0  501    0  0.00000000000E+00 -0.00000000000E+00 -0.81239641120E+03  0.81239641120E+03  0.25500000000E-02 0.  1.
    5000001    1    1    2    0    0 -0.19192294487E+03  0.45268062599E+02 -0.26996249081E+03  0.38552219223E+03  0.19200000000E+03 0.  0.
   -5000001    1    1    2    0    0  0.19192294487E+03 -0.45268062599E+02 -0.44558103854E+03  0.52372710085E+03  0.19200000000E+03 0.  0.
<mgrwt>
<rscale>  0 0.56100957E+03</rscale>
<asrwt>0</asrwt>
<pdfrwt beam="1">  1        2 0.11605663E+00 0.56100957E+03</pdfrwt>
<pdfrwt beam="2">  1       -2 0.13836126E-01 0.56100957E+03</pdfrwt>
<totfact> 0.14979706E+03</totfact>
</mgrwt>
</event>
<event>
 4    1  0.5812319E-005  0.5286874E+03  0.7818608E-02  0.1006551E+00
         -2   -1    0    0    0  501 -0.00000000000E+00  0.00000000000E+00  0.28370749723E+03  0.28370749724E+03  0.25500000000E-02 0. -1.
          2   -1    0    0  501    0  0.00000000000E+00 -0.00000000000E+00 -0.24630156465E+03  0.24630156466E+03  0.25500000000E-02 0.  1.
    5000001    1    1    2    0    0  0.11386675654E+03 -0.10504513460E+03  0.11387965778E+03  0.27172172347E+03  0.19200000000E+03 0.  0.
   -5000001    1    1    2    0    0 -0.11386675654E+03  0.10504513460E+03 -0.76473725201E+02  0.25828733843E+03  0.19200000000E+03 0.  0.
<mgrwt>
<rscale>  0 0.52868743E+03</rscale>
<asrwt>0</asrwt>
<pdfrwt beam="1">  1        2 0.35185938E-01 0.52868743E+03</pdfrwt>
<pdfrwt beam="2">  1       -2 0.40529642E-01 0.52868743E+03</pdfrwt>
<totfact> 0.85988157E+02</totfact>
</mgrwt>
</event>
<event>
 4    1  0.5812319E-005  0.5628485E+03  0.7818608E-02  0.9985630E-01
         -2   -1    0    0    0  501 -0.00000000000E+00  0.00000000000E+00  0.25513391792E+02  0.25513391920E+02  0.25500000000E-02 0. -1.
          2   -1    0    0  501    0  0.00000000000E+00 -0.00000000000E+00 -0.31042367570E+04  0.31042367570E+04  0.25500000000E-02 0.  1.
    5000001    1    1    2    0    0 -0.11139455009E+03 -0.13537331588E+03 -0.21382757684E+04  0.21540245918E+04  0.19200000000E+03 0.  0.
   -5000001    1    1    2    0    0  0.11139455009E+03  0.13537331588E+03 -0.94044759688E+03  0.97572555717E+03  0.19200000000E+03 0.  0.
<mgrwt>
<rscale>  0 0.56284850E+03</rscale>
<asrwt>0</asrwt>
<pdfrwt beam="1">  1        2 0.44346215E+00 0.56284850E+03</pdfrwt>
<pdfrwt beam="2">  1       -2 0.36447723E-02 0.56284850E+03</pdfrwt>
<totfact> 0.74128812E+02</totfact>
</mgrwt>
</event>
<event>
 4    1  0.5812319E-005  0.5362724E+03  0.7818608E-02  0.1004722E+00
         -2   -1    0    0    0  501 -0.00000000000E+00  0.00000000000E+00  0.21427441058E+02  0.21427441209E+02  0.25500000000E-02 0. -1.
          2   -1    0    0  501    0  0.00000000000E+00 -0.00000000000E+00 -0.33553717239E+04  0.33553717239E+04  0.25500000000E-02 0.  1.
    5000001    1    1    2    0    0 -0.15988315165E+03 -0.27205148162E+02 -0.22553198166E+04  0.22692805506E+04  0.19200000000E+03 0.  0.
   -5000001    1    1    2    0    0  0.15988315165E+03  0.27205148162E+02 -0.10786244662E+04  0.11075186145E+04  0.19200000000E+03 0.  0.
<mgrwt>
<rscale>  0 0.53627243E+03</rscale>
<asrwt>0</asrwt>
<pdfrwt beam="1">  1        2 0.47933848E+00 0.53627243E+03</pdfrwt>
<pdfrwt beam="2">  1       -2 0.30610652E-02 0.53627243E+03</pdfrwt>
<totfact> 0.70019262E+02</totfact>
</mgrwt>
</event>
<event>
 4    1  0.5812319E-005  0.6787478E+03  0.7818608E-02  0.9754283E-01
          2   -1    0    0  501    0  0.00000000000E+00  0.00000000000E+00  0.51180107050E+03  0.51180107051E+03  0.25500000000E-02 0.  1.
         -2   -1    0    0    0  501 -0.00000000000E+00 -0.00000000000E+00 -0.22503791763E+03  0.22503791765E+03  0.25500000000E-02 0. -1.
    5000001    1    1    2    0    0  0.14325354070E+03 -0.21701848920E+03  0.31129455032E+02  0.32473318979E+03  0.19200000000E+03 0.  0.
   -5000001    1    1    2    0    0 -0.14325354070E+03  0.21701848920E+03  0.25563369784E+03  0.41210579837E+03  0.19200000000E+03 0.  0.
<mgrwt>
<rscale>  0 0.67874781E+03</rscale>
<asrwt>0</asrwt>
<pdfrwt beam="1">  1        2 0.73114438E-01 0.67874781E+03</pdfrwt>
<pdfrwt beam="2">  1       -2 0.32148274E-01 0.67874781E+03</pdfrwt>
<totfact> 0.59140162E+02</totfact>
</mgrwt>
</event>
<event>
 4    1  0.5812319E-005  0.1264856E+04  0.7818608E-02  0.9057908E-01
         -2   -1    0    0    0  501 -0.00000000000E+00  0.00000000000E+00  0.33929241397E+03  0.33929241398E+03  0.25500000000E-02 0. -1.
          2   -1    0    0  501    0  0.00000000000E+00 -0.00000000000E+00 -0.11788223130E+04  0.11788223130E+04  0.25500000000E-02 0.  1.
    5000001    1    1    2    0    0 -0.57093427413E+03  0.11403080985E+03 -0.23331405045E+03  0.65594848662E+03  0.19200000000E+03 0.  0.
   -5000001    1    1    2    0    0  0.57093427413E+03 -0.11403080985E+03 -0.60621584860E+03  0.86216624038E+03  0.19200000000E+03 0.  0.
<mgrwt>
<rscale>  0 0.12648565E+04</rscale>
<asrwt>0</asrwt>
<pdfrwt beam="1">  1        2 0.16840319E+00 0.12648565E+04</pdfrwt>
<pdfrwt beam="2">  1       -2 0.48470346E-01 0.12648565E+04</pdfrwt>
<totfact> 0.87064366E+01</totfact>
</mgrwt>
</event>
<event>
 4    1  0.5812319E-005  0.1504496E+04  0.7818608E-02  0.8881468E-01
         -2   -1    0    0    0  501 -0.00000000000E+00  0.00000000000E+00  0.17496567409E+04  0.17496567409E+04  0.25500000000E-02 0. -1.
          2   -1    0    0  501    0  0.00000000000E+00 -0.00000000000E+00 -0.32342192160E+03  0.32342192161E+03  0.25500000000E-02 0.  1.
    5000001    1    1    2    0    0 -0.46710304633E+03 -0.37834902037E+03  0.12773594028E+04  0.14247260372E+04  0.19200000000E+03 0.  0.
   -5000001    1    1    2    0    0  0.46710304633E+03  0.37834902037E+03  0.14887541647E+03  0.64835262530E+03  0.19200000000E+03 0.  0.
<mgrwt>
<rscale>  0 0.15044964E+04</rscale>
<asrwt>0</asrwt>
<pdfrwt beam="1">  1        2 0.46203132E-01 0.15044964E+04</pdfrwt>
<pdfrwt beam="2">  1       -2 0.24995096E+00 0.15044964E+04</pdfrwt>
<totfact> 0.68300911E+00</totfact>
</mgrwt>
</event>
<event>
 4    1  0.5812319E-005  0.5577967E+03  0.7818608E-02  0.9997052E-01
         -2   -1    0    0    0  501 -0.00000000000E+00  0.00000000000E+00  0.91616559121E+02  0.91616559157E+02  0.25500000000E-02 0. -1.
          2   -1    0    0  501    0  0.00000000000E+00 -0.00000000000E+00 -0.84902001377E+03  0.84902001377E+03  0.25500000000E-02 0.  1.
    5000001    1    1    2    0    0 -0.12951608465E+02 -0.20096732213E+03 -0.34649815743E+03  0.44438787317E+03  0.19200000000E+03 0.  0.
   -5000001    1    1    2    0    0  0.12951608465E+02  0.20096732213E+03 -0.41090529722E+03  0.49624869975E+03  0.19200000000E+03 0.  0.
<mgrwt>
<rscale>  0 0.55779671E+03</rscale>
<asrwt>0</asrwt>
<pdfrwt beam="1">  1        2 0.12128857E+00 0.55779671E+03</pdfrwt>
<pdfrwt beam="2">  1       -2 0.13088080E-01 0.55779671E+03</pdfrwt>
<totfact> 0.15520229E+03</totfact>
</mgrwt>
</event>
<event>
 4    1  0.5812319E-005  0.5632721E+03  0.7818608E-02  0.9984678E-01
         -2   -1    0    0    0  501 -0.00000000000E+00  0.00000000000E+00  0.53813506837E+02  0.53813506898E+02  0.25500000000E-02 0. -1.
          2   -1    0    0  501    0  0.00000000000E+00 -0.00000000000E+00 -0.14739582693E+04  0.14739582693E+04  0.25500000000E-02 0.  1.
    5000001    1    1    2    0    0 -0.95317771482E+02  0.17945302453E+03 -0.61745571900E+03  0.67779379645E+03  0.19200000000E+03 0.  0.
   -5000001    1    1    2    0    0  0.95317771482E+02 -0.17945302453E+03 -0.80268904349E+03  0.84997797978E+03  0.19200000000E+03 0.  0.
<mgrwt>
<rscale>  0 0.56327210E+03</rscale>
<asrwt>0</asrwt>
<pdfrwt beam="1">  1        2 0.21056544E+00 0.56327210E+03</pdfrwt>
<pdfrwt beam="2">  1       -2 0.76876448E-02 0.56327210E+03</pdfrwt>
<totfact> 0.16050550E+03</totfact>
</mgrwt>
</event>
<event>
 4    1  0.5812319E-005  0.6055924E+03  0.7818608E-02  0.9893871E-01
         -2   -1    0    0    0  501 -0.00000000000E+00  0.00000000000E+00  0.38022999849E+03  0.38022999850E+03  0.25500000000E-02 0. -1.
          2   -1    0    0  501    0  0.00000000000E+00 -0.00000000000E+00 -0.24113178326E+03  0.24113178328E+03  0.25500000000E-02 0.  1.
    5000001    1    1    2    0    0 -0.91043755529E+02 -0.19274611369E+03  0.16892944038E+03  0.33292819885E+03  0.19200000000E+03 0.  0.
   -5000001    1    1    2    0    0  0.91043755529E+02  0.19274611369E+03 -0.29831225159E+02  0.28843358292E+03  0.19200000000E+03 0.  0.
<mgrwt>
<rscale>  0 0.60559240E+03</rscale>
<asrwt>0</asrwt>
<pdfrwt beam="1">  1        2 0.34447398E-01 0.60559240E+03</pdfrwt>
<pdfrwt beam="2">  1       -2 0.54318571E-01 0.60559240E+03</pdfrwt>
<totfact> 0.48981593E+02</totfact>
</mgrwt>
</event>
<event>
 4    1  0.5812319E-005  0.4458984E+03  0.7818608E-02  0.1028952E+00
          2   -1    0    0  501    0  0.00000000000E+00  0.00000000000E+00  0.10208936233E+04  0.10208936233E+04  0.25500000000E-02 0.  1.
         -2   -1    0    0    0  501 -0.00000000000E+00 -0.00000000000E+00 -0.48689055534E+02  0.48689055600E+02  0.25500000000E-02 0. -1.
    5000001    1    1    2    0    0  0.29800107738E+02  0.59310057818E+02  0.70642669146E+03  0.73505673236E+03  0.19200000000E+03 0.  0.
   -5000001    1    1    2    0    0 -0.29800107738E+02 -0.59310057818E+02  0.26577787632E+03  0.33452594656E+03  0.19200000000E+03 0.  0.
<mgrwt>
<rscale>  0 0.44589840E+03</rscale>
<asrwt>0</asrwt>
<pdfrwt beam="1">  1        2 0.14584194E+00 0.44589840E+03</pdfrwt>
<pdfrwt beam="2">  1       -2 0.69555797E-02 0.44589840E+03</pdfrwt>
<totfact> 0.33474120E+03</totfact>
</mgrwt>
</event>
<event>
 4    1  0.5812319E-005  0.8300871E+03  0.7818608E-02  0.9517460E-01
          2   -1    0    0  501    0  0.00000000000E+00  0.00000000000E+00  0.16755220909E+04  0.16755220909E+04  0.25500000000E-02 0.  1.
         -2   -1    0    0    0  501 -0.00000000000E+00 -0.00000000000E+00 -0.10281044263E+03  0.10281044266E+03  0.25500000000E-02 0. -1.
    5000001    1    1    2    0    0  0.17652675916E+03  0.29278918863E+03  0.10778246085E+04  0.11469337786E+04  0.19200000000E+03 0.  0.
   -5000001    1    1    2    0    0 -0.17652675916E+03 -0.29278918863E+03  0.49488703971E+03  0.63139875495E+03  0.19200000000E+03 0.  0.
<mgrwt>
<rscale>  0 0.83008715E+03</rscale>
<asrwt>0</asrwt>
<pdfrwt beam="1">  1        2 0.23936028E+00 0.83008715E+03</pdfrwt>
<pdfrwt beam="2">  1       -2 0.14687207E-01 0.83008715E+03</pdfrwt>
<totfact> 0.43250637E+02</totfact>
</mgrwt>
</event>
<event>
 4    1  0.5812319E-005  0.7776794E+03  0.7818608E-02  0.9592899E-01
         -2   -1    0    0    0  501 -0.00000000000E+00  0.00000000000E+00  0.59277985530E+02  0.59277985585E+02  0.25500000000E-02 0. -1.
          2   -1    0    0  501    0  0.00000000000E+00 -0.00000000000E+00 -0.25506317278E+04  0.25506317278E+04  0.25500000000E-02 0.  1.
    5000001    1    1    2    0    0  0.21869636855E+02  0.31629701344E+03 -0.16400663593E+04  0.16814290781E+04  0.19200000000E+03 0.  0.
   -5000001    1    1    2    0    0 -0.21869636855E+02 -0.31629701344E+03 -0.85128738297E+03  0.92848063530E+03  0.19200000000E+03 0.  0.
<mgrwt>
<rscale>  0 0.77767940E+03</rscale>
<asrwt>0</asrwt>
<pdfrwt beam="1">  1        2 0.36437589E+00 0.77767940E+03</pdfrwt>
<pdfrwt beam="2">  1       -2 0.84682853E-02 0.77767940E+03</pdfrwt>
<totfact> 0.38399927E+02</totfact>
</mgrwt>
</event>
<event>
 4    1  0.5812319E-005  0.5292497E+03  0.7818608E-02  0.1006414E+00
         -2   -1    0    0    0  501 -0.00000000000E+00  0.00000000000E+00  0.48057008049E+02  0.48057008117E+02  0.25500000000E-02 0. -1.
          2   -1    0    0  501    0  0.00000000000E+00 -0.00000000000E+00 -0.14571506465E+04  0.14571506465E+04  0.25500000000E-02 0.  1.
    5000001    1    1    2    0    0  0.75816686302E+02  0.14936277720E+03 -0.50134430399E+03  0.56237667117E+03  0.19200000000E+03 0.  0.
   -5000001    1    1    2    0    0 -0.75816686302E+02 -0.14936277720E+03 -0.90774933447E+03  0.94283098346E+03  0.19200000000E+03 0.  0.
<mgrwt>
<rscale>  0 0.52924966E+03</rscale>
<asrwt>0</asrwt>
<pdfrwt beam="1">  1        2 0.20816435E+00 0.52924966E+03</pdfrwt>
<pdfrwt beam="2">  1       -2 0.68652877E-02 0.52924966E+03</pdfrwt>
<totfact> 0.19603758E+03</totfact>
</mgrwt>
</event>
<event>
 4    1  0.5812319E-005  0.5739453E+03  0.7818608E-02  0.9960986E-01
         -2   -1    0    0    0  501 -0.00000000000E+00  0.00000000000E+00  0.51792661848E+03  0.51792661849E+03  0.25500000000E-02 0. -1.
          2   -1    0    0  501    0  0.00000000000E+00 -0.00000000000E+00 -0.15900573341E+03  0.15900573343E+03  0.25500000000E-02 0.  1.
    5000001    1    1    2    0    0  0.99285755607E+02  0.80752062230E+02  0.38069447348E+03  0.44516383384E+03  0.19200000000E+03 0.  0.
   -5000001    1    1    2    0    0 -0.99285755607E+02 -0.80752062230E+02 -0.21773588410E+02  0.23176851808E+03  0.19200000000E+03 0.  0.
<mgrwt>
<rscale>  0 0.57394530E+03</rscale>
<asrwt>0</asrwt>
<pdfrwt beam="1">  1        2 0.22715104E-01 0.57394530E+03</pdfrwt>
<pdfrwt beam="2">  1       -2 0.73989518E-01 0.57394530E+03</pdfrwt>
<totfact> 0.40676293E+02</totfact>
</mgrwt>
</event>
<event>
 4    1  0.5812319E-005  0.4510882E+03  0.7818608E-02  0.1027398E+00
          2   -1    0    0  501    0  0.00000000000E+00  0.00000000000E+00  0.36649244382E+04  0.36649244382E+04  0.25500000000E-02 0.  1.
         -2   -1    0    0    0  501 -0.00000000000E+00 -0.00000000000E+00 -0.13880272313E+02  0.13880272547E+02  0.25500000000E-02 0. -1.
    5000001    1    1    2    0    0  0.85516075586E+02 -0.81739050425E+02  0.18536293477E+04  0.18672975206E+04  0.19200000000E+03 0.  0.
   -5000001    1    1    2    0    0 -0.85516075586E+02  0.81739050425E+02  0.17974148182E+04  0.18115071902E+04  0.19200000000E+03 0.  0.
<mgrwt>
<rscale>  0 0.45108824E+03</rscale>
<asrwt>0</asrwt>
<pdfrwt beam="1">  1        2 0.52356108E+00 0.45108824E+03</pdfrwt>
<pdfrwt beam="2">  1       -2 0.19828944E-02 0.45108824E+03</pdfrwt>
<totfact> 0.89151637E+02</totfact>
</mgrwt>
</event>
<event>
 4    1  0.5812319E-005  0.5590996E+03  0.7818608E-02  0.9994094E-01
         -2   -1    0    0    0  501 -0.00000000000E+00  0.00000000000E+00  0.44630301903E+03  0.44630301904E+03  0.25500000000E-02 0. -1.
          2   -1    0    0  501    0  0.00000000000E+00 -0.00000000000E+00 -0.17510099049E+03  0.17510099051E+03  0.25500000000E-02 0.  1.
    5000001    1    1    2    0    0 -0.34220953665E+02  0.18002989533E+03  0.23314354897E+03  0.35327291335E+03  0.19200000000E+03 0.  0.
   -5000001    1    1    2    0    0  0.34220953665E+02 -0.18002989533E+03  0.38058479567E+02  0.26813109620E+03  0.19200000000E+03 0.  0.
<mgrwt>
<rscale>  0 0.55909964E+03</rscale>
<asrwt>0</asrwt>
<pdfrwt beam="1">  1        2 0.25014427E-01 0.55909964E+03</pdfrwt>
<pdfrwt beam="2">  1       -2 0.63757574E-01 0.55909964E+03</pdfrwt>
<totfact> 0.50252634E+02</totfact>
</mgrwt>
</event>
<event>
 4    1  0.5812319E-005  0.5432840E+03  0.7818608E-02  0.1003060E+00
         -2   -1    0    0    0  501 -0.00000000000E+00  0.00000000000E+00  0.12388433719E+03  0.12388433721E+03  0.25500000000E-02 0. -1.
          2   -1    0    0  501    0  0.00000000000E+00 -0.00000000000E+00 -0.59563120864E+03  0.59563120864E+03  0.25500000000E-02 0.  1.
    5000001    1    1    2    0    0  0.17673541045E+02 -0.18734760601E+03 -0.18434326680E+03  0.32597226806E+03  0.19200000000E+03 0.  0.
   -5000001    1    1    2    0    0 -0.17673541045E+02  0.18734760601E+03 -0.28740360465E+03  0.39354327779E+03  0.19200000000E+03 0.  0.
<mgrwt>
<rscale>  0 0.54328400E+03</rscale>
<asrwt>0</asrwt>
<pdfrwt beam="1">  1        2 0.85090171E-01 0.54328400E+03</pdfrwt>
<pdfrwt beam="2">  1       -2 0.17697763E-01 0.54328400E+03</pdfrwt>
<totfact> 0.14440854E+03</totfact>
</mgrwt>
</event>
<event>
 4    1  0.5812319E-005  0.5407592E+03  0.7818608E-02  0.1003656E+00
          2   -1    0    0  501    0  0.00000000000E+00  0.00000000000E+00  0.19561095704E+03  0.19561095706E+03  0.25500000000E-02 0.  1.
         -2   -1    0    0    0  501 -0.00000000000E+00 -0.00000000000E+00 -0.37372715189E+03  0.37372715190E+03  0.25500000000E-02 0. -1.
    5000001    1    1    2    0    0 -0.14072442325E+03  0.11904513084E+03 -0.13917660784E+03  0.30034852196E+03  0.19200000000E+03 0.  0.
   -5000001    1    1    2    0    0  0.14072442325E+03 -0.11904513084E+03 -0.38939587012E+02  0.26898958700E+03  0.19200000000E+03 0.  0.
<mgrwt>
<rscale>  0 0.54075919E+03</rscale>
<asrwt>0</asrwt>
<pdfrwt beam="1">  1        2 0.27944422E-01 0.54075919E+03</pdfrwt>
<pdfrwt beam="2">  1       -2 0.53389593E-01 0.54075919E+03</pdfrwt>
<totfact> 0.64204419E+02</totfact>
</mgrwt>
</event>
<event>
 4    1  0.5812319E-005  0.6321961E+03  0.7818608E-02  0.9840773E-01
         -2   -1    0    0    0  501 -0.00000000000E+00  0.00000000000E+00  0.29925643424E+02  0.29925643533E+02  0.25500000000E-02 0.  1.
          2   -1    0    0  501    0  0.00000000000E+00 -0.00000000000E+00 -0.33388744228E+04  0.33388744228E+04  0.25500000000E-02 0. -1.
    5000001    1    1    2    0    0  0.69219750763E+02 -0.75921483010E+02 -0.28754218631E+04  0.28836557242E+04  0.19200000000E+03 0.  0.
   -5000001    1    1    2    0    0 -0.69219750763E+02  0.75921483010E+02 -0.43352691631E+03  0.48514434207E+03  0.19200000000E+03 0.  0.
<mgrwt>
<rscale>  0 0.63219606E+03</rscale>
<asrwt>0</asrwt>
<pdfrwt beam="1">  1        2 0.47698182E+00 0.63219606E+03</pdfrwt>
<pdfrwt beam="2">  1       -2 0.42750941E-02 0.63219606E+03</pdfrwt>
<totfact> 0.42481493E+02</totfact>
</mgrwt>
</event>
<event>
 4    1  0.5812319E-005  0.4991675E+03  0.7818608E-02  0.1013996E+00
         -2   -1    0    0    0  501 -0.00000000000E+00  0.00000000000E+00  0.15598041945E+03  0.15598041947E+03  0.25500000000E-02 0. -1.
          2   -1    0    0  501    0  0.00000000000E+00 -0.00000000000E+00 -0.39935814712E+03  0.39935814713E+03  0.25500000000E-02 0.  1.
    5000001    1    1    2    0    0 -0.13883049962E+03  0.78413913080E+02 -0.11910312041E+03  0.27653607845E+03  0.19200000000E+03 0.  0.
   -5000001    1    1    2    0    0  0.13883049962E+03 -0.78413913080E+02 -0.12427460726E+03  0.27880248815E+03  0.19200000000E+03 0.  0.
<mgrwt>
<rscale>  0 0.49916751E+03</rscale>
<asrwt>0</asrwt>
<pdfrwt beam="1">  1        2 0.57051164E-01 0.49916751E+03</pdfrwt>
<pdfrwt beam="2">  1       -2 0.22282917E-01 0.49916751E+03</pdfrwt>
<totfact> 0.15221353E+03</totfact>
</mgrwt>
</event>
<event>
 4    1  0.5812319E-005  0.6082340E+03  0.7818608E-02  0.9888469E-01
         -2   -1    0    0    0  501 -0.00000000000E+00  0.00000000000E+00  0.47587018027E+02  0.47587018096E+02  0.25500000000E-02 0. -1.
          2   -1    0    0  501    0  0.00000000000E+00 -0.00000000000E+00 -0.19435376224E+04  0.19435376224E+04  0.25500000000E-02 0.  1.
    5000001    1    1    2    0    0 -0.40819174321E+02 -0.23207001214E+03 -0.98078738973E+03  0.10268060184E+04  0.19200000000E+03 0.  0.
   -5000001    1    1    2    0    0  0.40819174321E+02  0.23207001214E+03 -0.91516321461E+03  0.96431862209E+03  0.19200000000E+03 0.  0.
<mgrwt>
<rscale>  0 0.60823403E+03</rscale>
<asrwt>0</asrwt>
<pdfrwt beam="1">  1        2 0.27764818E+00 0.60823403E+03</pdfrwt>
<pdfrwt beam="2">  1       -2 0.67981467E-02 0.60823403E+03</pdfrwt>
<totfact> 0.11220053E+03</totfact>
</mgrwt>
</event>
<event>
 4    1  0.5812319E-005  0.9487628E+03  0.7818608E-02  0.9366598E-01
         -2   -1    0    0    0  501 -0.00000000000E+00  0.00000000000E+00  0.41899912525E+03  0.41899912525E+03  0.25500000000E-02 0. -1.
          2   -1    0    0  501    0  0.00000000000E+00 -0.00000000000E+00 -0.53708399600E+03  0.53708399601E+03  0.25500000000E-02 0.  1.
    5000001    1    1    2    0    0 -0.37802734693E+03 -0.10115836209E+03 -0.24766579201E+03  0.50133824289E+03  0.19200000000E+03 0.  0.
   -5000001    1    1    2    0    0  0.37802734693E+03  0.10115836209E+03  0.12958092126E+03  0.45474487837E+03  0.19200000000E+03 0.  0.
<mgrwt>
<rscale>  0 0.94876282E+03</rscale>
<asrwt>0</asrwt>
<pdfrwt beam="1">  1        2 0.76726284E-01 0.94876282E+03</pdfrwt>
<pdfrwt beam="2">  1       -2 0.59857018E-01 0.94876282E+03</pdfrwt>
<totfact> 0.16112554E+02</totfact>
</mgrwt>
</event>
<event>
 4    1  0.5812319E-005  0.7405458E+03  0.7818608E-02  0.9650300E-01
         -2   -1    0    0    0  501 -0.00000000000E+00  0.00000000000E+00  0.91215243137E+02  0.91215243172E+02  0.25500000000E-02 0. -1.
          2   -1    0    0  501    0  0.00000000000E+00 -0.00000000000E+00 -0.15030602651E+04  0.15030602651E+04  0.25500000000E-02 0.  1.
    5000001    1    1    2    0    0 -0.28460031947E+02 -0.16378256622E+03 -0.12584013963E+03  0.28343331342E+03  0.19200000000E+03 0.  0.
   -5000001    1    1    2    0    0  0.28460031947E+02  0.16378256622E+03 -0.12860048823E+04  0.13108421949E+04  0.19200000000E+03 0.  0.
<mgrwt>
<rscale>  0 0.74054577E+03</rscale>
<asrwt>0</asrwt>
<pdfrwt beam="1">  1        2 0.21472288E+00 0.74054577E+03</pdfrwt>
<pdfrwt beam="2">  1       -2 0.13030750E-01 0.74054577E+03</pdfrwt>
<totfact> 0.65291115E+02</totfact>
</mgrwt>
</event>
<event>
 4    1  0.5812319E-005  0.6809174E+03  0.7818608E-02  0.9750434E-01
         -2   -1    0    0    0  501 -0.00000000000E+00  0.00000000000E+00  0.20751968571E+03  0.20751968573E+03  0.25500000000E-02 0. -1.
          2   -1    0    0  501    0  0.00000000000E+00 -0.00000000000E+00 -0.55855972745E+03  0.55855972746E+03  0.25500000000E-02 0.  1.
    5000001    1    1    2    0    0  0.19496038956E+03 -0.58686056072E+01  0.52300697233E+02  0.27864557589E+03  0.19200000000E+03 0.  0.
   -5000001    1    1    2    0    0 -0.19496038956E+03  0.58686056072E+01 -0.40334073897E+03  0.48743383730E+03  0.19200000000E+03 0.  0.
<mgrwt>
<rscale>  0 0.68091744E+03</rscale>
<asrwt>0</asrwt>
<pdfrwt beam="1">  1        2 0.79794246E-01 0.68091744E+03</pdfrwt>
<pdfrwt beam="2">  1       -2 0.29645670E-01 0.68091744E+03</pdfrwt>
<totfact> 0.62154923E+02</totfact>
</mgrwt>
</event>
<event>
 4    1  0.5812319E-005  0.6932760E+03  0.7818608E-02  0.9728801E-01
          2   -1    0    0  501    0  0.00000000000E+00  0.00000000000E+00  0.18942700676E+04  0.18942700676E+04  0.25500000000E-02 0.  1.
         -2   -1    0    0    0  501 -0.00000000000E+00 -0.00000000000E+00 -0.63432298562E+02  0.63432298614E+02  0.25500000000E-02 0. -1.
    5000001    1    1    2    0    0  0.34339837423E+02 -0.26317346646E+03  0.12355784741E+04  0.12782635345E+04  0.19200000000E+03 0.  0.
   -5000001    1    1    2    0    0 -0.34339837423E+02  0.26317346646E+03  0.59525929496E+03  0.67943883177E+03  0.19200000000E+03 0.  0.
<mgrwt>
<rscale>  0 0.69327600E+03</rscale>
<asrwt>0</asrwt>
<pdfrwt beam="1">  1        2 0.27060997E+00 0.69327600E+03</pdfrwt>
<pdfrwt beam="2">  1       -2 0.90617581E-02 0.69327600E+03</pdfrwt>
<totfact> 0.74769943E+02</totfact>
</mgrwt>
</event>
<event>
 4    1  0.5812319E-005  0.4334112E+03  0.7818608E-02  0.1032788E+00
         -2   -1    0    0    0  501 -0.00000000000E+00  0.00000000000E+00  0.99281194449E+02  0.99281194481E+02  0.25500000000E-02 0. -1.
          2   -1    0    0  501    0  0.00000000000E+00 -0.00000000000E+00 -0.47301329102E+03  0.47301329103E+03  0.25500000000E-02 0.  1.
    5000001    1    1    2    0    0  0.17820120036E+02  0.73239700575E+02 -0.27461054168E+03  0.34344804559E+03  0.19200000000E+03 0.  0.
   -5000001    1    1    2    0    0 -0.17820120036E+02 -0.73239700575E+02 -0.99121554889E+02  0.22884643992E+03  0.19200000000E+03 0.  0.
<mgrwt>
<rscale>  0 0.43341123E+03</rscale>
<asrwt>0</asrwt>
<pdfrwt beam="1">  1        2 0.67573326E-01 0.43341123E+03</pdfrwt>
<pdfrwt beam="2">  1       -2 0.14183028E-01 0.43341123E+03</pdfrwt>
<totfact> 0.27252940E+03</totfact>
</mgrwt>
</event>
<event>
 4    1  0.5812319E-005  0.4480588E+03  0.7818608E-02  0.1028303E+00
          2   -1    0    0  501    0  0.00000000000E+00  0.00000000000E+00  0.39055002695E+04  0.39055002695E+04  0.25500000000E-02 0.  1.
         -2   -1    0    0    0  501 -0.00000000000E+00 -0.00000000000E+00 -0.12850893933E+02  0.12850894186E+02  0.25500000000E-02 0. -1.
    5000001    1    1    2    0    0  0.72689949192E+02 -0.14037863072E+02  0.11717828305E+04  0.11897142061E+04  0.19200000000E+03 0.  0.
   -5000001    1    1    2    0    0 -0.72689949192E+02  0.14037863072E+02  0.27208665451E+04  0.27286369576E+04  0.19200000000E+03 0.  0.
<mgrwt>
<rscale>  0 0.44805879E+03</rscale>
<asrwt>0</asrwt>
<pdfrwt beam="1">  1        2 0.55792896E+00 0.44805879E+03</pdfrwt>
<pdfrwt beam="2">  1       -2 0.18358409E-02 0.44805879E+03</pdfrwt>
<totfact> 0.70681206E+02</totfact>
</mgrwt>
</event>
<event>
 4    1  0.5812319E-005  0.4578503E+03  0.7818608E-02  0.1025407E+00
          2   -1    0    0  501    0  0.00000000000E+00  0.00000000000E+00  0.82949525477E+02  0.82949525516E+02  0.25500000000E-02 0.  1.
         -2   -1    0    0    0  501 -0.00000000000E+00 -0.00000000000E+00 -0.63179064369E+03  0.63179064370E+03  0.25500000000E-02 0. -1.
    5000001    1    1    2    0    0  0.83546660752E+02  0.67937520895E+02 -0.37249780662E+03  0.43268252473E+03  0.19200000000E+03 0.  0.
   -5000001    1    1    2    0    0 -0.83546660752E+02 -0.67937520895E+02 -0.17634331160E+03  0.28205764449E+03  0.19200000000E+03 0.  0.
<mgrwt>
<rscale>  0 0.45785034E+03</rscale>
<asrwt>0</asrwt>
<pdfrwt beam="1">  1        2 0.11849933E-01 0.45785034E+03</pdfrwt>
<pdfrwt beam="2">  1       -2 0.90255804E-01 0.45785034E+03</pdfrwt>
<totfact> 0.56741883E+02</totfact>
</mgrwt>
</event>
<event>
 4    1  0.5812319E-005  0.4813333E+03  0.7818608E-02  0.1018769E+00
         -2   -1    0    0    0  501 -0.00000000000E+00  0.00000000000E+00  0.58419913290E+02  0.58419913346E+02  0.25500000000E-02 0. -1.
          2   -1    0    0  501    0  0.00000000000E+00 -0.00000000000E+00 -0.99145033638E+03  0.99145033639E+03  0.25500000000E-02 0.  1.
    5000001    1    1    2    0    0  0.99323223306E+02  0.10566068256E+03 -0.45514794393E+03  0.51483291794E+03  0.19200000000E+03 0.  0.
   -5000001    1    1    2    0    0 -0.99323223306E+02 -0.10566068256E+03 -0.47788247916E+03  0.53503733180E+03  0.19200000000E+03 0.  0.
<mgrwt>
<rscale>  0 0.48133333E+03</rscale>
<asrwt>0</asrwt>
<pdfrwt beam="1">  1        2 0.14163575E+00 0.48133333E+03</pdfrwt>
<pdfrwt beam="2">  1       -2 0.83457025E-02 0.48133333E+03</pdfrwt>
<totfact> 0.26157099E+03</totfact>
</mgrwt>
</event>
<event>
 4    1  0.5812319E-005  0.7509083E+03  0.7818608E-02  0.9633926E-01
         -2   -1    0    0    0  501 -0.00000000000E+00  0.00000000000E+00  0.11868144291E+04  0.11868144291E+04  0.25500000000E-02 0. -1.
          2   -1    0    0  501    0  0.00000000000E+00 -0.00000000000E+00 -0.11877662821E+03  0.11877662823E+03  0.25500000000E-02 0.  1.
    5000001    1    1    2    0    0 -0.43095860736E+02 -0.24492917647E+03  0.89141970338E+03  0.94516699174E+03  0.19200000000E+03 0.  0.
   -5000001    1    1    2    0    0  0.43095860736E+02  0.24492917647E+03  0.17661809754E+03  0.36042406562E+03  0.19200000000E+03 0.  0.
<mgrwt>
<rscale>  0 0.75090829E+03</rscale>
<asrwt>0</asrwt>
<pdfrwt beam="1">  1        2 0.16968089E-01 0.75090829E+03</pdfrwt>
<pdfrwt beam="2">  1       -2 0.16954492E+00 0.75090829E+03</pdfrwt>
<totfact> 0.75159956E+01</totfact>
</mgrwt>
</event>
<event>
 4    1  0.5812319E-005  0.9931357E+03  0.7818608E-02  0.9316106E-01
          2   -1    0    0  501    0  0.00000000000E+00  0.00000000000E+00  0.75836844137E+03  0.75836844138E+03  0.25500000000E-02 0.  1.
         -2   -1    0    0    0  501 -0.00000000000E+00 -0.00000000000E+00 -0.32514486697E+03  0.32514486698E+03  0.25500000000E-02 0. -1.
    5000001    1    1    2    0    0 -0.45139884246E+03 -0.20176917250E+02  0.13535164415E+03  0.50926622757E+03  0.19200000000E+03 0.  0.
   -5000001    1    1    2    0    0  0.45139884246E+03  0.20176917250E+02  0.29787193025E+03  0.57424708079E+03  0.19200000000E+03 0.  0.
<mgrwt>
<rscale>  0 0.99313565E+03</rscale>
<asrwt>0</asrwt>
<pdfrwt beam="1">  1        2 0.10833835E+00 0.99313565E+03</pdfrwt>
<pdfrwt beam="2">  1       -2 0.46449267E-01 0.99313565E+03</pdfrwt>
<totfact> 0.17853203E+02</totfact>
</mgrwt>
</event>
<event>
 4    1  0.5812319E-005  0.7316320E+03  0.7818608E-02  0.9664616E-01
          2   -1    0    0  501    0  0.00000000000E+00  0.00000000000E+00  0.52801086795E+02  0.52801086856E+02  0.25500000000E-02 0.  1.
         -2   -1    0    0    0  501 -0.00000000000E+00 -0.00000000000E+00 -0.25344433541E+04  0.25344433541E+04  0.25500000000E-02 0. -1.
    5000001    1    1    2    0    0 -0.18642697806E+03  0.18571515558E+03 -0.65213954821E+03  0.72896853670E+03  0.19200000000E+03 0.  0.
   -5000001    1    1    2    0    0  0.18642697806E+03 -0.18571515558E+03 -0.18295027191E+04  0.18582759043E+04  0.19200000000E+03 0.  0.
<mgrwt>
<rscale>  0 0.73163205E+03</rscale>
<asrwt>0</asrwt>
<pdfrwt beam="1">  1        2 0.75430140E-02 0.73163205E+03</pdfrwt>
<pdfrwt beam="2">  1       -2 0.36206326E+00 0.73163205E+03</pdfrwt>
<totfact> 0.13235253E+01</totfact>
</mgrwt>
</event>
<event>
 4    1  0.5812319E-005  0.4973186E+03  0.7818608E-02  0.1014481E+00
          2   -1    0    0  501    0  0.00000000000E+00  0.00000000000E+00  0.22739861891E+04  0.22739861891E+04  0.25500000000E-02 0.  1.
         -2   -1    0    0    0  501 -0.00000000000E+00 -0.00000000000E+00 -0.27190772545E+02  0.27190772665E+02  0.25500000000E-02 0. -1.
    5000001    1    1    2    0    0  0.13848843356E+03  0.70793757330E+02  0.99444663726E+03  0.10246847889E+04  0.19200000000E+03 0.  0.
   -5000001    1    1    2    0    0 -0.13848843356E+03 -0.70793757330E+02  0.12523487793E+04  0.12764921728E+04  0.19200000000E+03 0.  0.
<mgrwt>
<rscale>  0 0.49731858E+03</rscale>
<asrwt>0</asrwt>
<pdfrwt beam="1">  1        2 0.32485525E+00 0.49731858E+03</pdfrwt>
<pdfrwt beam="2">  1       -2 0.38843951E-02 0.49731858E+03</pdfrwt>
<totfact> 0.18361414E+03</totfact>
</mgrwt>
</event>
<event>
 4    1  0.5812319E-005  0.1409078E+04  0.7818608E-02  0.8947274E-01
         -2   -1    0    0    0  501 -0.00000000000E+00  0.00000000000E+00  0.60347312826E+03  0.60347312827E+03  0.25500000000E-02 0. -1.
          2   -1    0    0  501    0  0.00000000000E+00 -0.00000000000E+00 -0.82253064250E+03  0.82253064251E+03  0.25500000000E-02 0.  1.
    5000001    1    1    2    0    0 -0.51060633867E+03 -0.24189629304E+03  0.26950789599E+03  0.65477565294E+03  0.19200000000E+03 0.  0.
   -5000001    1    1    2    0    0  0.51060633867E+03  0.24189629304E+03 -0.48856541023E+03  0.77122811784E+03  0.19200000000E+03 0.  0.
<mgrwt>
<rscale>  0 0.14090779E+04</rscale>
<asrwt>0</asrwt>
<pdfrwt beam="1">  1        2 0.11750438E+00 0.14090779E+04</pdfrwt>
<pdfrwt beam="2">  1       -2 0.86210447E-01 0.14090779E+04</pdfrwt>
<totfact> 0.41680539E+01</totfact>
</mgrwt>
</event>
<event>
 4    1  0.5812319E-005  0.5014880E+03  0.7818608E-02  0.1013391E+00
         -2   -1    0    0    0  501 -0.00000000000E+00  0.00000000000E+00  0.88752157558E+02  0.88752157594E+02  0.25500000000E-02 0. -1.
          2   -1    0    0  501    0  0.00000000000E+00 -0.00000000000E+00 -0.70840578361E+03  0.70840578362E+03  0.25500000000E-02 0.  1.
    5000001    1    1    2    0    0 -0.43541540475E+02 -0.15254996985E+03 -0.35592979704E+03  0.43441613629E+03  0.19200000000E+03 0.  0.
   -5000001    1    1    2    0    0  0.43541540475E+02  0.15254996985E+03 -0.26372382901E+03  0.36274180492E+03  0.19200000000E+03 0.  0.
<mgrwt>
<rscale>  0 0.50148795E+03</rscale>
<asrwt>0</asrwt>
<pdfrwt beam="1">  1        2 0.10120082E+00 0.50148795E+03</pdfrwt>
<pdfrwt beam="2">  1       -2 0.12678880E-01 0.50148795E+03</pdfrwt>
<totfact> 0.20549538E+03</totfact>
</mgrwt>
</event>
<event>
 4    1  0.5812319E-005  0.4499233E+03  0.7818608E-02  0.1027745E+00
          2   -1    0    0  501    0  0.00000000000E+00  0.00000000000E+00  0.18010848122E+04  0.18010848122E+04  0.25500000000E-02 0.  1.
         -2   -1    0    0    0  501 -0.00000000000E+00 -0.00000000000E+00 -0.28098478218E+02  0.28098478334E+02  0.25500000000E-02 0. -1.
    5000001    1    1    2    0    0 -0.19727905123E+02  0.54573326328E+02  0.13006264136E+04  0.13160017120E+04  0.19200000000E+03 0.  0.
   -5000001    1    1    2    0    0  0.19727905123E+02 -0.54573326328E+02  0.47235992044E+03  0.51318157861E+03  0.19200000000E+03 0.  0.
<mgrwt>
<rscale>  0 0.44992329E+03</rscale>
<asrwt>0</asrwt>
<pdfrwt beam="1">  1        2 0.25729770E+00 0.44992329E+03</pdfrwt>
<pdfrwt beam="2">  1       -2 0.40140703E-02 0.44992329E+03</pdfrwt>
<totfact> 0.30121361E+03</totfact>
</mgrwt>
</event>
<event>
 4    1  0.5812319E-005  0.4654683E+03  0.7818608E-02  0.1023207E+00
          2   -1    0    0  501    0  0.00000000000E+00  0.00000000000E+00  0.49617733334E+02  0.49617733400E+02  0.25500000000E-02 0.  1.
         -2   -1    0    0    0  501 -0.00000000000E+00 -0.00000000000E+00 -0.10916499255E+04  0.10916499255E+04  0.25500000000E-02 0. -1.
    5000001    1    1    2    0    0 -0.12932824693E+03 -0.23843081741E+02 -0.52745986652E+03  0.57651730138E+03  0.19200000000E+03 0.  0.
   -5000001    1    1    2    0    0  0.12932824693E+03  0.23843081741E+02 -0.51457232562E+03  0.56475035749E+03  0.19200000000E+03 0.  0.
<mgrwt>
<rscale>  0 0.46546834E+03</rscale>
<asrwt>0</asrwt>
<pdfrwt beam="1">  1        2 0.70882483E-02 0.46546834E+03</pdfrwt>
<pdfrwt beam="2">  1       -2 0.15594998E+00 0.46546834E+03</pdfrwt>
<totfact> 0.28518599E+02</totfact>
</mgrwt>
</event>
<event>
 4    1  0.5812319E-005  0.4329678E+03  0.7818608E-02  0.1032927E+00
         -2   -1    0    0    0  501 -0.00000000000E+00  0.00000000000E+00  0.29003303311E+03  0.29003303312E+03  0.25500000000E-02 0. -1.
          2   -1    0    0  501    0  0.00000000000E+00 -0.00000000000E+00 -0.16158597991E+03  0.16158597993E+03  0.25500000000E-02 0.  1.
    5000001    1    1    2    0    0  0.43217015348E+02  0.87467008745E+02  0.87149506309E+02  0.23232999050E+03  0.19200000000E+03 0.  0.
   -5000001    1    1    2    0    0 -0.43217015348E+02 -0.87467008745E+02  0.41297546886E+02  0.21928902256E+03  0.19200000000E+03 0.  0.
<mgrwt>
<rscale>  0 0.43296777E+03</rscale>
<asrwt>0</asrwt>
<pdfrwt beam="1">  1        2 0.23083712E-01 0.43296777E+03</pdfrwt>
<pdfrwt beam="2">  1       -2 0.41433290E-01 0.43296777E+03</pdfrwt>
<totfact> 0.13219222E+03</totfact>
</mgrwt>
</event>
<event>
 4    1  0.5812319E-005  0.6457064E+03  0.7818608E-02  0.9814869E-01
         -2   -1    0    0    0  501 -0.00000000000E+00  0.00000000000E+00  0.44296042914E+02  0.44296042987E+02  0.25500000000E-02 0. -1.
          2   -1    0    0  501    0  0.00000000000E+00 -0.00000000000E+00 -0.23531265120E+04  0.23531265120E+04  0.25500000000E-02 0.  1.
    5000001    1    1    2    0    0  0.36577696974E+02 -0.25690921575E+03 -0.11341061556E+04  0.11791526810E+04  0.19200000000E+03 0.  0.
   -5000001    1    1    2    0    0 -0.36577696974E+02  0.25690921575E+03 -0.11747243135E+04  0.12182698739E+04  0.19200000000E+03 0.  0.
<mgrwt>
<rscale>  0 0.64570641E+03</rscale>
<asrwt>0</asrwt>
<pdfrwt beam="1">  1        2 0.33616085E+00 0.64570641E+03</pdfrwt>
<pdfrwt beam="2">  1       -2 0.63280076E-02 0.64570641E+03</pdfrwt>
<totfact> 0.77881576E+02</totfact>
</mgrwt>
</event>
<event>
 4    1  0.5812319E-005  0.4100104E+03  0.7818608E-02  0.1040368E+00
         -2   -1    0    0    0  501 -0.00000000000E+00  0.00000000000E+00  0.89065900310E+02  0.89065900346E+02  0.25500000000E-02 0. -1.
          2   -1    0    0  501    0  0.00000000000E+00 -0.00000000000E+00 -0.47186562723E+03  0.47186562723E+03  0.25500000000E-02 0.  1.
    5000001    1    1    2    0    0  0.57771016955E+02 -0.42722058088E+02 -0.19045967656E+03  0.27982414664E+03  0.19200000000E+03 0.  0.
   -5000001    1    1    2    0    0 -0.57771016955E+02  0.42722058088E+02 -0.19234005035E+03  0.28110738094E+03  0.19200000000E+03 0.  0.
<mgrwt>
<rscale>  0 0.41001042E+03</rscale>
<asrwt>0</asrwt>
<pdfrwt beam="1">  1        2 0.67409374E-01 0.41001042E+03</pdfrwt>
<pdfrwt beam="2">  1       -2 0.12723700E-01 0.41001042E+03</pdfrwt>
<totfact> 0.32666922E+03</totfact>
</mgrwt>
</event>
<event>
 4    1  0.5812319E-005  0.6248884E+03  0.7818608E-02  0.9855075E-01
          2   -1    0    0  501    0  0.00000000000E+00  0.00000000000E+00  0.35305010795E+03  0.35305010796E+03  0.25500000000E-02 0.  1.
         -2   -1    0    0    0  501 -0.00000000000E+00 -0.00000000000E+00 -0.27650859327E+03  0.27650859328E+03  0.25500000000E-02 0. -1.
    5000001    1    1    2    0    0 -0.11060803725E+03  0.44720530568E+02 -0.17903394143E+03  0.28835952550E+03  0.19200000000E+03 0.  0.
   -5000001    1    1    2    0    0  0.11060803725E+03 -0.44720530568E+02  0.25557545611E+03  0.34119917574E+03  0.19200000000E+03 0.  0.
<mgrwt>
<rscale>  0 0.62488843E+03</rscale>
<asrwt>0</asrwt>
<pdfrwt beam="1">  1        2 0.50435729E-01 0.62488843E+03</pdfrwt>
<pdfrwt beam="2">  1       -2 0.39501228E-01 0.62488843E+03</pdfrwt>
<totfact> 0.60662290E+02</totfact>
</mgrwt>
</event>
<event>
 4    1  0.5812319E-005  0.5782480E+03  0.7818608E-02  0.9951591E-01
          2   -1    0    0  501    0  0.00000000000E+00  0.00000000000E+00  0.10747658738E+04  0.10747658738E+04  0.25500000000E-02 0.  1.
         -2   -1    0    0    0  501 -0.00000000000E+00 -0.00000000000E+00 -0.77777578035E+02  0.77777578077E+02  0.25500000000E-02 0. -1.
    5000001    1    1    2    0    0 -0.35161778193E+02 -0.20174065893E+03  0.63648452826E+03  0.69563797972E+03  0.19200000000E+03 0.  0.
   -5000001    1    1    2    0    0  0.35161778193E+02  0.20174065893E+03  0.36050376751E+03  0.45690547217E+03  0.19200000000E+03 0.  0.
<mgrwt>
<rscale>  0 0.57824800E+03</rscale>
<asrwt>0</asrwt>
<pdfrwt beam="1">  1        2 0.15353798E+00 0.57824800E+03</pdfrwt>
<pdfrwt beam="2">  1       -2 0.11111083E-01 0.57824800E+03</pdfrwt>
<totfact> 0.14695018E+03</totfact>
</mgrwt>
</event>
<event>
 4    1  0.5812319E-005  0.7599266E+03  0.7818608E-02  0.9619904E-01
          2   -1    0    0  501    0  0.00000000000E+00  0.00000000000E+00  0.93777535243E+03  0.93777535243E+03  0.25500000000E-02 0.  1.
         -2   -1    0    0    0  501 -0.00000000000E+00 -0.00000000000E+00 -0.15395170627E+03  0.15395170630E+03  0.25500000000E-02 0. -1.
    5000001    1    1    2    0    0  0.13504169763E+03 -0.12235019480E+03  0.31108250032E+00  0.26470724780E+03  0.19200000000E+03 0.  0.
   -5000001    1    1    2    0    0 -0.13504169763E+03  0.12235019480E+03  0.78351256365E+03  0.82701981093E+03  0.19200000000E+03 0.  0.
<mgrwt>
<rscale>  0 0.75992662E+03</rscale>
<asrwt>0</asrwt>
<pdfrwt beam="1">  1        2 0.13396790E+00 0.75992662E+03</pdfrwt>
<pdfrwt beam="2">  1       -2 0.21993101E-01 0.75992662E+03</pdfrwt>
<totfact> 0.55626042E+02</totfact>
</mgrwt>
</event>
<event>
 4    1  0.5812319E-005  0.4834526E+03  0.7818608E-02  0.1018191E+00
         -2   -1    0    0    0  501 -0.00000000000E+00  0.00000000000E+00  0.33043134244E+02  0.33043134343E+02  0.25500000000E-02 0. -1.
          2   -1    0    0  501    0  0.00000000000E+00 -0.00000000000E+00 -0.17683431046E+04  0.17683431046E+04  0.25500000000E-02 0.  1.
    5000001    1    1    2    0    0  0.40386120346E+02  0.13319927676E+03 -0.10422008496E+04  0.10688403515E+04  0.19200000000E+03 0.  0.
   -5000001    1    1    2    0    0 -0.40386120346E+02 -0.13319927676E+03 -0.69309912071E+03  0.73254588742E+03  0.19200000000E+03 0.  0.
<mgrwt>
<rscale>  0 0.48345258E+03</rscale>
<asrwt>0</asrwt>
<pdfrwt beam="1">  1        2 0.25262038E+00 0.48345258E+03</pdfrwt>
<pdfrwt beam="2">  1       -2 0.47204489E-02 0.48345258E+03</pdfrwt>
<totfact> 0.24379276E+03</totfact>
</mgrwt>
</event>
<event>
 4    1  0.5812319E-005  0.5367889E+03  0.7818608E-02  0.1004599E+00
         -2   -1    0    0    0  501 -0.00000000000E+00  0.00000000000E+00  0.34197893999E+03  0.34197894000E+03  0.25500000000E-02 0. -1.
          2   -1    0    0  501    0  0.00000000000E+00 -0.00000000000E+00 -0.21064329283E+03  0.21064329284E+03  0.25500000000E-02 0.  1.
    5000001    1    1    2    0    0 -0.64446207079E+02  0.14791494585E+03 -0.32752389349E+02  0.25292066705E+03  0.19200000000E+03 0.  0.
   -5000001    1    1    2    0    0  0.64446207079E+02 -0.14791494585E+03  0.16408803651E+03  0.29970156579E+03  0.19200000000E+03 0.  0.
<mgrwt>
<rscale>  0 0.53678886E+03</rscale>
<asrwt>0</asrwt>
<pdfrwt beam="1">  1        2 0.30091899E-01 0.53678886E+03</pdfrwt>
<pdfrwt beam="2">  1       -2 0.48854134E-01 0.53678886E+03</pdfrwt>
<totfact> 0.70753266E+02</totfact>
</mgrwt>
</event>
<event>
 4    1  0.5812319E-005  0.7565338E+03  0.7818608E-02  0.9625155E-01
          2   -1    0    0  501    0  0.00000000000E+00  0.00000000000E+00  0.10938542658E+03  0.10938542661E+03  0.25500000000E-02 0.  1.
         -2   -1    0    0    0  501 -0.00000000000E+00 -0.00000000000E+00 -0.13080887678E+04  0.13080887678E+04  0.25500000000E-02 0. -1.
    5000001    1    1    2    0    0  0.26553124967E+03  0.17469109662E+03 -0.46426703082E+03  0.59450121925E+03  0.19200000000E+03 0.  0.
   -5000001    1    1    2    0    0 -0.26553124967E+03 -0.17469109662E+03 -0.73443631039E+03  0.82297297514E+03  0.19200000000E+03 0.  0.
<mgrwt>
<rscale>  0 0.75653380E+03</rscale>
<asrwt>0</asrwt>
<pdfrwt beam="1">  1        2 0.15626490E-01 0.75653380E+03</pdfrwt>
<pdfrwt beam="2">  1       -2 0.18686981E+00 0.75653380E+03</pdfrwt>
<totfact> 0.63030182E+01</totfact>
</mgrwt>
</event>
<event>
 4    1  0.5812319E-005  0.4462662E+03  0.7818608E-02  0.1028841E+00
         -2   -1    0    0    0  501 -0.00000000000E+00  0.00000000000E+00  0.21769160109E+02  0.21769160258E+02  0.25500000000E-02 0. -1.
          2   -1    0    0  501    0  0.00000000000E+00 -0.00000000000E+00 -0.22871058300E+04  0.22871058300E+04  0.25500000000E-02 0.  1.
    5000001    1    1    2    0    0  0.39297652061E+02  0.97034474091E+02 -0.13619762513E+04  0.13794213655E+04  0.19200000000E+03 0.  0.
   -5000001    1    1    2    0    0 -0.39297652061E+02 -0.97034474091E+02 -0.90336041866E+03  0.92945362478E+03  0.19200000000E+03 0.  0.
<mgrwt>
<rscale>  0 0.44626617E+03</rscale>
<asrwt>0</asrwt>
<pdfrwt beam="1">  1        2 0.32672925E+00 0.44626617E+03</pdfrwt>
<pdfrwt beam="2">  1       -2 0.31098815E-02 0.44626617E+03</pdfrwt>
<totfact> 0.25420757E+03</totfact>
</mgrwt>
</event>
<event>
 4    1  0.5812319E-005  0.1001508E+04  0.7818608E-02  0.9306893E-01
         -2   -1    0    0    0  501 -0.00000000000E+00  0.00000000000E+00  0.41287609341E+03  0.41287609342E+03  0.25500000000E-02 0. -1.
          2   -1    0    0  501    0  0.00000000000E+00 -0.00000000000E+00 -0.60733555315E+03  0.60733555316E+03  0.25500000000E-02 0.  1.
    5000001    1    1    2    0    0 -0.80739072842E+02 -0.41639510360E+03  0.90567958620E+02  0.47431027325E+03  0.19200000000E+03 0.  0.
   -5000001    1    1    2    0    0  0.80739072842E+02  0.41639510360E+03 -0.28502741836E+03  0.54590137333E+03  0.19200000000E+03 0.  0.
<mgrwt>
<rscale>  0 0.10015075E+04</rscale>
<asrwt>0</asrwt>
<pdfrwt beam="1">  1        2 0.86762222E-01 0.10015075E+04</pdfrwt>
<pdfrwt beam="2">  1       -2 0.58982299E-01 0.10015075E+04</pdfrwt>
<totfact> 0.14344090E+02</totfact>
</mgrwt>
</event>
<event>
 4    1  0.5812319E-005  0.6830770E+03  0.7818608E-02  0.9746618E-01
          2   -1    0    0  501    0  0.00000000000E+00  0.00000000000E+00  0.83430952289E+03  0.83430952289E+03  0.25500000000E-02 0.  1.
         -2   -1    0    0    0  501 -0.00000000000E+00 -0.00000000000E+00 -0.13981449299E+03  0.13981449302E+03  0.25500000000E-02 0. -1.
    5000001    1    1    2    0    0  0.21955599214E+03 -0.10388339418E+02  0.94256306040E+02  0.30669366232E+03  0.19200000000E+03 0.  0.
   -5000001    1    1    2    0    0 -0.21955599214E+03  0.10388339418E+02  0.60023872385E+03  0.66743035359E+03  0.19200000000E+03 0.  0.
<mgrwt>
<rscale>  0 0.68307705E+03</rscale>
<asrwt>0</asrwt>
<pdfrwt beam="1">  1        2 0.11918707E+00 0.68307705E+03</pdfrwt>
<pdfrwt beam="2">  1       -2 0.19973500E-01 0.68307705E+03</pdfrwt>
<totfact> 0.77228020E+02</totfact>
</mgrwt>
</event>
<event>
 4    1  0.5812319E-005  0.4972777E+03  0.7818608E-02  0.1014492E+00
         -2   -1    0    0    0  501 -0.00000000000E+00  0.00000000000E+00  0.28211062350E+02  0.28211062465E+02  0.25500000000E-02 0. -1.
          2   -1    0    0  501    0  0.00000000000E+00 -0.00000000000E+00 -0.21913840069E+04  0.21913840069E+04  0.25500000000E-02 0.  1.
    5000001    1    1    2    0    0 -0.13831157351E+03 -0.75501359223E+02 -0.10313400825E+04  0.10608284086E+04  0.19200000000E+03 0.  0.
   -5000001    1    1    2    0    0  0.13831157351E+03  0.75501359223E+02 -0.11318328620E+04  0.11587666608E+04  0.19200000000E+03 0.  0.
<mgrwt>
<rscale>  0 0.49727767E+03</rscale>
<asrwt>0</asrwt>
<pdfrwt beam="1">  1        2 0.31305475E+00 0.49727767E+03</pdfrwt>
<pdfrwt beam="2">  1       -2 0.40301531E-02 0.49727767E+03</pdfrwt>
<totfact> 0.19092104E+03</totfact>
</mgrwt>
</event>
<event>
 4    1  0.5812319E-005  0.7477608E+03  0.7818608E-02  0.9638870E-01
         -2   -1    0    0    0  501 -0.00000000000E+00  0.00000000000E+00  0.21585230198E+03  0.21585230199E+03  0.25500000000E-02 0. -1.
          2   -1    0    0  501    0  0.00000000000E+00 -0.00000000000E+00 -0.64760270913E+03  0.64760270914E+03  0.25500000000E-02 0.  1.
    5000001    1    1    2    0    0 -0.28370704761E+03 -0.20566096042E+02 -0.38718646331E+03  0.51738767916E+03  0.19200000000E+03 0.  0.
   -5000001    1    1    2    0    0  0.28370704761E+03  0.20566096042E+02 -0.44563943839E+02  0.34606733197E+03  0.19200000000E+03 0.  0.
<mgrwt>
<rscale>  0 0.74776075E+03</rscale>
<asrwt>0</asrwt>
<pdfrwt beam="1">  1        2 0.92514672E-01 0.74776075E+03</pdfrwt>
<pdfrwt beam="2">  1       -2 0.30836043E-01 0.74776075E+03</pdfrwt>
<totfact> 0.48406290E+02</totfact>
</mgrwt>
</event>
<event>
 4    1  0.5812319E-005  0.6926303E+03  0.7818608E-02  0.9729919E-01
          2   -1    0    0  501    0  0.00000000000E+00  0.00000000000E+00  0.10053451441E+04  0.10053451441E+04  0.25500000000E-02 0.  1.
         -2   -1    0    0    0  501 -0.00000000000E+00 -0.00000000000E+00 -0.11929650994E+03  0.11929650997E+03  0.25500000000E-02 0. -1.
    5000001    1    1    2    0    0 -0.71813623234E+02  0.25656815767E+03  0.26451966933E+03  0.42168598682E+03  0.19200000000E+03 0.  0.
   -5000001    1    1    2    0    0  0.71813623234E+02 -0.25656815767E+03  0.62152896487E+03  0.70295566730E+03  0.19200000000E+03 0.  0.
<mgrwt>
<rscale>  0 0.69263025E+03</rscale>
<asrwt>0</asrwt>
<pdfrwt beam="1">  1        2 0.14362074E+00 0.69263025E+03</pdfrwt>
<pdfrwt beam="2">  1       -2 0.17042358E-01 0.69263025E+03</pdfrwt>
<totfact> 0.78884837E+02</totfact>
</mgrwt>
</event>
<event>
 4    1  0.5812319E-005  0.6057222E+03  0.7818608E-02  0.9893605E-01
          2   -1    0    0  501    0  0.00000000000E+00  0.00000000000E+00  0.59401422442E+03  0.59401422442E+03  0.25500000000E-02 0.  1.
         -2   -1    0    0    0  501 -0.00000000000E+00 -0.00000000000E+00 -0.15441522581E+03  0.15441522583E+03  0.25500000000E-02 0. -1.
    5000001    1    1    2    0    0 -0.19208358178E+03  0.12798372655E+03  0.17060926801E+03  0.34532225382E+03  0.19200000000E+03 0.  0.
   -5000001    1    1    2    0    0  0.19208358178E+03 -0.12798372655E+03  0.26898973060E+03  0.40310719644E+03  0.19200000000E+03 0.  0.
<mgrwt>
<rscale>  0 0.60572218E+03</rscale>
<asrwt>0</asrwt>
<pdfrwt beam="1">  1        2 0.84859173E-01 0.60572218E+03</pdfrwt>
<pdfrwt beam="2">  1       -2 0.22059318E-01 0.60572218E+03</pdfrwt>
<totfact> 0.98746492E+02</totfact>
</mgrwt>
</event>
<event>
 4    1  0.5812319E-005  0.6079177E+03  0.7818608E-02  0.9889114E-01
         -2   -1    0    0    0  501 -0.00000000000E+00  0.00000000000E+00  0.70401733521E+02  0.70401733567E+02  0.25500000000E-02 0. -1.
          2   -1    0    0  501    0  0.00000000000E+00 -0.00000000000E+00 -0.13123395579E+04  0.13123395579E+04  0.25500000000E-02 0.  1.
    5000001    1    1    2    0    0  0.73088447406E+02  0.21739464383E+03 -0.74397636765E+03  0.80185234796E+03  0.19200000000E+03 0.  0.
   -5000001    1    1    2    0    0 -0.73088447406E+02 -0.21739464383E+03 -0.49796145676E+03  0.58088894354E+03  0.19200000000E+03 0.  0.
<mgrwt>
<rscale>  0 0.60791769E+03</rscale>
<asrwt>0</asrwt>
<pdfrwt beam="1">  1        2 0.18747706E+00 0.60791769E+03</pdfrwt>
<pdfrwt beam="2">  1       -2 0.10057391E-01 0.60791769E+03</pdfrwt>
<totfact> 0.12695078E+03</totfact>
</mgrwt>
</event>
<event>
 4    1  0.5812319E-005  0.4290973E+03  0.7818608E-02  0.1034145E+00
          2   -1    0    0  501    0  0.00000000000E+00  0.00000000000E+00  0.10953066789E+04  0.10953066789E+04  0.25500000000E-02 0.  1.
         -2   -1    0    0    0  501 -0.00000000000E+00 -0.00000000000E+00 -0.42025786934E+02  0.42025787011E+02  0.25500000000E-02 0. -1.
    5000001    1    1    2    0    0 -0.77115250361E+02  0.52598892192E+02  0.47018243924E+03  0.51638060718E+03  0.19200000000E+03 0.  0.
   -5000001    1    1    2    0    0  0.77115250361E+02 -0.52598892192E+02  0.58309845273E+03  0.62095185875E+03  0.19200000000E+03 0.  0.
<mgrwt>
<rscale>  0 0.42909731E+03</rscale>
<asrwt>0</asrwt>
<pdfrwt beam="1">  1        2 0.15647237E+00 0.42909731E+03</pdfrwt>
<pdfrwt beam="2">  1       -2 0.60036842E-02 0.42909731E+03</pdfrwt>
<totfact> 0.38089128E+03</totfact>
</mgrwt>
</event>
<event>
 4    1  0.5812319E-005  0.6852231E+03  0.7818608E-02  0.9742842E-01
         -2   -1    0    0    0  501 -0.00000000000E+00  0.00000000000E+00  0.59593454860E+02  0.59593454914E+02  0.25500000000E-02 0. -1.
          2   -1    0    0  501    0  0.00000000000E+00 -0.00000000000E+00 -0.19697243264E+04  0.19697243264E+04  0.25500000000E-02 0.  1.
    5000001    1    1    2    0    0 -0.18161694051E+03 -0.20042047062E+03 -0.12092341629E+04  0.12538996526E+04  0.19200000000E+03 0.  0.
   -5000001    1    1    2    0    0  0.18161694051E+03  0.20042047062E+03 -0.70089670865E+03  0.77541812871E+03  0.19200000000E+03 0.  0.
<mgrwt>
<rscale>  0 0.68522311E+03</rscale>
<asrwt>0</asrwt>
<pdfrwt beam="1">  1        2 0.28138915E+00 0.68522311E+03</pdfrwt>
<pdfrwt beam="2">  1       -2 0.85133520E-02 0.68522311E+03</pdfrwt>
<totfact> 0.75762386E+02</totfact>
</mgrwt>
</event>
<event>
 4    1  0.5812319E-005  0.4743035E+03  0.7818608E-02  0.1020713E+00
         -2   -1    0    0    0  501 -0.00000000000E+00  0.00000000000E+00  0.63339267997E+03  0.63339267997E+03  0.25500000000E-02 0. -1.
          2   -1    0    0  501    0  0.00000000000E+00 -0.00000000000E+00 -0.88793180150E+02  0.88793180187E+02  0.25500000000E-02 0.  1.
    5000001    1    1    2    0    0 -0.79087009850E+01 -0.12485482676E+03  0.36523814014E+03  0.43117765983E+03  0.19200000000E+03 0.  0.
   -5000001    1    1    2    0    0  0.79087009850E+01  0.12485482676E+03  0.17936135967E+03  0.29100820033E+03  0.19200000000E+03 0.  0.
<mgrwt>
<rscale>  0 0.47430349E+03</rscale>
<asrwt>0</asrwt>
<pdfrwt beam="1">  1        2 0.12684740E-01 0.47430349E+03</pdfrwt>
<pdfrwt beam="2">  1       -2 0.90484668E-01 0.47430349E+03</pdfrwt>
<totfact> 0.51869585E+02</totfact>
</mgrwt>
</event>
<event>
 4    1  0.5812319E-005  0.4797594E+03  0.7818608E-02  0.1019201E+00
          2   -1    0    0  501    0  0.00000000000E+00  0.00000000000E+00  0.10867408610E+03  0.10867408613E+03  0.25500000000E-02 0.  1.
         -2   -1    0    0    0  501 -0.00000000000E+00 -0.00000000000E+00 -0.52949398221E+03  0.52949398222E+03  0.25500000000E-02 0. -1.
    5000001    1    1    2    0    0 -0.49894613324E+02 -0.10040300991E+03 -0.90634047867E+02  0.24010157740E+03  0.19200000000E+03 0.  0.
   -5000001    1    1    2    0    0  0.49894613324E+02  0.10040300991E+03 -0.33018584825E+03  0.39806649095E+03  0.19200000000E+03 0.  0.
<mgrwt>
<rscale>  0 0.47975942E+03</rscale>
<asrwt>0</asrwt>
<pdfrwt beam="1">  1        2 0.15524870E-01 0.47975942E+03</pdfrwt>
<pdfrwt beam="2">  1       -2 0.75641996E-01 0.47975942E+03</pdfrwt>
<totfact> 0.60685629E+02</totfact>
</mgrwt>
</event>
<event>
 4    1  0.5812319E-005  0.5253708E+03  0.7818608E-02  0.1007361E+00
          2   -1    0    0  501    0  0.00000000000E+00  0.00000000000E+00  0.19760348057E+04  0.19760348057E+04  0.25500000000E-02 0.  1.
         -2   -1    0    0    0  501 -0.00000000000E+00 -0.00000000000E+00 -0.34920242654E+02  0.34920242747E+02  0.25500000000E-02 0. -1.
    5000001    1    1    2    0    0  0.11837588462E+03 -0.91582042019E+02  0.13483074391E+04  0.13701084157E+04  0.19200000000E+03 0.  0.
   -5000001    1    1    2    0    0 -0.11837588462E+03  0.91582042019E+02  0.59280712389E+03  0.64084663268E+03  0.19200000000E+03 0.  0.
<mgrwt>
<rscale>  0 0.52537078E+03</rscale>
<asrwt>0</asrwt>
<pdfrwt beam="1">  1        2 0.28229057E+00 0.52537078E+03</pdfrwt>
<pdfrwt beam="2">  1       -2 0.49886081E-02 0.52537078E+03</pdfrwt>
<totfact> 0.17594633E+03</totfact>
</mgrwt>
</event>
<event>
 4    1  0.5812319E-005  0.6693663E+03  0.7818608E-02  0.9771103E-01
         -2   -1    0    0    0  501 -0.00000000000E+00  0.00000000000E+00  0.13460765840E+03  0.13460765843E+03  0.25500000000E-02 0. -1.
          2   -1    0    0  501    0  0.00000000000E+00 -0.00000000000E+00 -0.83214285999E+03  0.83214286000E+03  0.25500000000E-02 0.  1.
    5000001    1    1    2    0    0 -0.23223196520E+03  0.95699894184E+02 -0.19016881115E+03  0.36894217994E+03  0.19200000000E+03 0.  0.
   -5000001    1    1    2    0    0  0.23223196520E+03 -0.95699894184E+02 -0.50736639044E+03  0.59780833848E+03  0.19200000000E+03 0.  0.
<mgrwt>
<rscale>  0 0.66936627E+03</rscale>
<asrwt>0</asrwt>
<pdfrwt beam="1">  1        2 0.11887755E+00 0.66936627E+03</pdfrwt>
<pdfrwt beam="2">  1       -2 0.19229666E-01 0.66936627E+03</pdfrwt>
<totfact> 0.82813731E+02</totfact>
</mgrwt>
</event>
<event>
 4    1  0.5812319E-005  0.5039527E+03  0.7818608E-02  0.1012752E+00
          2   -1    0    0  501    0  0.00000000000E+00  0.00000000000E+00  0.84292908117E+03  0.84292908118E+03  0.25500000000E-02 0.  1.
         -2   -1    0    0    0  501 -0.00000000000E+00 -0.00000000000E+00 -0.75323160838E+02  0.75323160881E+02  0.25500000000E-02 0. -1.
    5000001    1    1    2    0    0 -0.15408561851E+03  0.53629915764E+02  0.38942999969E+03  0.46383000157E+03  0.19200000000E+03 0.  0.
   -5000001    1    1    2    0    0  0.15408561851E+03 -0.53629915764E+02  0.37817592064E+03  0.45442224049E+03  0.19200000000E+03 0.  0.
<mgrwt>
<rscale>  0 0.50395271E+03</rscale>
<asrwt>0</asrwt>
<pdfrwt beam="1">  1        2 0.12041844E+00 0.50395271E+03</pdfrwt>
<pdfrwt beam="2">  1       -2 0.10760452E-01 0.50395271E+03</pdfrwt>
<totfact> 0.21605765E+03</totfact>
</mgrwt>
</event>
<event>
 4    1  0.5812319E-005  0.5087588E+03  0.7818608E-02  0.1011518E+00
          2   -1    0    0  501    0  0.00000000000E+00  0.00000000000E+00  0.14394786300E+04  0.14394786301E+04  0.25500000000E-02 0.  1.
         -2   -1    0    0    0  501 -0.00000000000E+00 -0.00000000000E+00 -0.44952990723E+02  0.44952990795E+02  0.25500000000E-02 0. -1.
    5000001    1    1    2    0    0  0.87814491198E+02  0.88905299924E+02  0.37459944735E+03  0.43909484530E+03  0.19200000000E+03 0.  0.
   -5000001    1    1    2    0    0 -0.87814491198E+02 -0.88905299924E+02  0.10199261920E+04  0.10453367755E+04  0.19200000000E+03 0.  0.
<mgrwt>
<rscale>  0 0.50875876E+03</rscale>
<asrwt>0</asrwt>
<pdfrwt beam="1">  1        2 0.20563976E+00 0.50875876E+03</pdfrwt>
<pdfrwt beam="2">  1       -2 0.64218573E-02 0.50875876E+03</pdfrwt>
<totfact> 0.22249013E+03</totfact>
</mgrwt>
</event>
<event>
 4    1  0.5812319E-005  0.5112386E+03  0.7818608E-02  0.1010886E+00
          2   -1    0    0  501    0  0.00000000000E+00  0.00000000000E+00  0.20645116125E+03  0.20645116127E+03  0.25500000000E-02 0.  1.
         -2   -1    0    0    0  501 -0.00000000000E+00 -0.00000000000E+00 -0.31649719913E+03  0.31649719914E+03  0.25500000000E-02 0. -1.
    5000001    1    1    2    0    0 -0.42921220013E+01 -0.16735543403E+03 -0.76745015289E+02  0.26604522357E+03  0.19200000000E+03 0.  0.
   -5000001    1    1    2    0    0  0.42921220013E+01  0.16735543403E+03 -0.33301022585E+02  0.25690313684E+03  0.19200000000E+03 0.  0.
<mgrwt>
<rscale>  0 0.51123855E+03</rscale>
<asrwt>0</asrwt>
<pdfrwt beam="1">  1        2 0.29493023E-01 0.51123855E+03</pdfrwt>
<pdfrwt beam="2">  1       -2 0.45213885E-01 0.51123855E+03</pdfrwt>
<totfact> 0.84474960E+02</totfact>
</mgrwt>
</event>
<event>
 4    1  0.5812319E-005  0.7041262E+03  0.7818608E-02  0.9710202E-01
         -2   -1    0    0    0  501 -0.00000000000E+00  0.00000000000E+00  0.12837218919E+03  0.12837218922E+03  0.25500000000E-02 0. -1.
          2   -1    0    0  501    0  0.00000000000E+00 -0.00000000000E+00 -0.96553942003E+03  0.96553942004E+03  0.25500000000E-02 0.  1.
    5000001    1    1    2    0    0 -0.16598814937E+02 -0.24810568814E+03 -0.17170494574E+03  0.35802030883E+03  0.19200000000E+03 0.  0.
   -5000001    1    1    2    0    0  0.16598814937E+02  0.24810568814E+03 -0.66546228510E+03  0.73589130042E+03  0.19200000000E+03 0.  0.
<mgrwt>
<rscale>  0 0.70412615E+03</rscale>
<asrwt>0</asrwt>
<pdfrwt beam="1">  1        2 0.13793420E+00 0.70412615E+03</pdfrwt>
<pdfrwt beam="2">  1       -2 0.18338885E-01 0.70412615E+03</pdfrwt>
<totfact> 0.73561934E+02</totfact>
</mgrwt>
</event>
<event>
 4    1  0.5812319E-005  0.5680063E+03  0.7818608E-02  0.9974100E-01
          2   -1    0    0  501    0  0.00000000000E+00  0.00000000000E+00  0.18313479983E+04  0.18313479983E+04  0.25500000000E-02 0.  1.
         -2   -1    0    0    0  501 -0.00000000000E+00 -0.00000000000E+00 -0.44042849160E+02  0.44042849234E+02  0.25500000000E-02 0. -1.
    5000001    1    1    2    0    0 -0.20389885151E+03 -0.35442080259E+02  0.79119844264E+03  0.84005348540E+03  0.19200000000E+03 0.  0.
   -5000001    1    1    2    0    0  0.20389885151E+03  0.35442080259E+02  0.99610670655E+03  0.10353373622E+04  0.19200000000E+03 0.  0.
<mgrwt>
<rscale>  0 0.56800628E+03</rscale>
<asrwt>0</asrwt>
<pdfrwt beam="1">  1        2 0.26162115E+00 0.56800628E+03</pdfrwt>
<pdfrwt beam="2">  1       -2 0.62918353E-02 0.56800628E+03</pdfrwt>
<totfact> 0.14459205E+03</totfact>
</mgrwt>
</event>
<event>
 4    1  0.5812319E-005  0.8071627E+03  0.7818608E-02  0.9549707E-01
          2   -1    0    0  501    0  0.00000000000E+00  0.00000000000E+00  0.10909221063E+04  0.10909221064E+04  0.25500000000E-02 0.  1.
         -2   -1    0    0    0  501 -0.00000000000E+00 -0.00000000000E+00 -0.14930296894E+03  0.14930296896E+03  0.25500000000E-02 0. -1.
    5000001    1    1    2    0    0  0.27600609646E+03  0.21572870054E+03  0.55901826438E+03  0.68708344284E+03  0.19200000000E+03 0.  0.
   -5000001    1    1    2    0    0 -0.27600609646E+03 -0.21572870054E+03  0.38260087303E+03  0.55314163247E+03  0.19200000000E+03 0.  0.
<mgrwt>
<rscale>  0 0.80716271E+03</rscale>
<asrwt>0</asrwt>
<pdfrwt beam="1">  1        2 0.15584601E+00 0.80716271E+03</pdfrwt>
<pdfrwt beam="2">  1       -2 0.21328996E-01 0.80716271E+03</pdfrwt>
<totfact> 0.47251979E+02</totfact>
</mgrwt>
</event>
<event>
 4    1  0.5812319E-005  0.4647593E+03  0.7818608E-02  0.1023410E+00
          2   -1    0    0  501    0  0.00000000000E+00  0.00000000000E+00  0.13864847999E+03  0.13864848002E+03  0.25500000000E-02 0.  1.
         -2   -1    0    0    0  501 -0.00000000000E+00 -0.00000000000E+00 -0.38947626370E+03  0.38947626371E+03  0.25500000000E-02 0. -1.
    5000001    1    1    2    0    0 -0.11461986131E+03  0.15082501302E+02 -0.19519572068E+03  0.29720458244E+03  0.19200000000E+03 0.  0.
   -5000001    1    1    2    0    0  0.11461986131E+03 -0.15082501302E+02 -0.55632063027E+02  0.23092016129E+03  0.19200000000E+03 0.  0.
<mgrwt>
<rscale>  0 0.46475926E+03</rscale>
<asrwt>0</asrwt>
<pdfrwt beam="1">  1        2 0.19806926E-01 0.46475926E+03</pdfrwt>
<pdfrwt beam="2">  1       -2 0.55639466E-01 0.46475926E+03</pdfrwt>
<totfact> 0.87503328E+02</totfact>
</mgrwt>
</event>
<event>
 4    1  0.5812319E-005  0.9368144E+03  0.7818608E-02  0.9380697E-01
          2   -1    0    0  501    0  0.00000000000E+00  0.00000000000E+00  0.29865611497E+04  0.29865611497E+04  0.25500000000E-02 0.  1.
         -2   -1    0    0    0  501 -0.00000000000E+00 -0.00000000000E+00 -0.73464195586E+02  0.73464195630E+02  0.25500000000E-02 0. -1.
    5000001    1    1    2    0    0  0.94232799875E+00  0.40737883558E+03  0.18771799987E+04  0.19304473967E+04  0.19200000000E+03 0.  0.
   -5000001    1    1    2    0    0 -0.94232799875E+00 -0.40737883558E+03  0.10359169554E+04  0.11295779487E+04  0.19200000000E+03 0.  0.
<mgrwt>
<rscale>  0 0.93681442E+03</rscale>
<asrwt>0</asrwt>
<pdfrwt beam="1">  1        2 0.42665150E+00 0.93681442E+03</pdfrwt>
<pdfrwt beam="2">  1       -2 0.10494887E-01 0.93681442E+03</pdfrwt>
<totfact> 0.15644056E+02</totfact>
</mgrwt>
</event>
<event>
 4    1  0.5812319E-005  0.4833865E+03  0.7818608E-02  0.1018209E+00
          2   -1    0    0  501    0  0.00000000000E+00  0.00000000000E+00  0.24294813937E+03  0.24294813939E+03  0.25500000000E-02 0.  1.
         -2   -1    0    0    0  501 -0.00000000000E+00 -0.00000000000E+00 -0.24044487922E+03  0.24044487923E+03  0.25500000000E-02 0. -1.
    5000001    1    1    2    0    0 -0.89595384726E+02 -0.11613150265E+03 -0.48947651582E+01  0.24166468008E+03  0.19200000000E+03 0.  0.
   -5000001    1    1    2    0    0  0.89595384726E+02  0.11613150265E+03  0.73980253154E+01  0.24172833853E+03  0.19200000000E+03 0.  0.
<mgrwt>
<rscale>  0 0.48338654E+03</rscale>
<asrwt>0</asrwt>
<pdfrwt beam="1">  1        2 0.34706877E-01 0.48338654E+03</pdfrwt>
<pdfrwt beam="2">  1       -2 0.34349268E-01 0.48338654E+03</pdfrwt>
<totfact> 0.11975550E+03</totfact>
</mgrwt>
</event>
<event>
 4    1  0.5812319E-005  0.5031564E+03  0.7818608E-02  0.1012958E+00
         -2   -1    0    0    0  501 -0.00000000000E+00  0.00000000000E+00  0.29652289479E+02  0.29652289589E+02  0.25500000000E-02 0. -1.
          2   -1    0    0  501    0  0.00000000000E+00 -0.00000000000E+00 -0.21344591049E+04  0.21344591049E+04  0.25500000000E-02 0.  1.
    5000001    1    1    2    0    0  0.85608011382E+02  0.13806209608E+03 -0.10788210150E+04  0.11077493654E+04  0.19200000000E+03 0.  0.
   -5000001    1    1    2    0    0 -0.85608011382E+02 -0.13806209608E+03 -0.10259858004E+04  0.10563620292E+04  0.19200000000E+03 0.  0.
<mgrwt>
<rscale>  0 0.50315643E+03</rscale>
<asrwt>0</asrwt>
<pdfrwt beam="1">  1        2 0.30492263E+00 0.50315643E+03</pdfrwt>
<pdfrwt beam="2">  1       -2 0.42360427E-02 0.50315643E+03</pdfrwt>
<totfact> 0.18882191E+03</totfact>
</mgrwt>
</event>
<event>
 4    1  0.5812319E-005  0.6495551E+03  0.7818608E-02  0.9807614E-01
         -2   -1    0    0    0  501 -0.00000000000E+00  0.00000000000E+00  0.23842001026E+02  0.23842001162E+02  0.25500000000E-02 0. -1.
          2   -1    0    0  501    0  0.00000000000E+00 -0.00000000000E+00 -0.44241450264E+04  0.44241450264E+04  0.25500000000E-02 0.  1.
    5000001    1    1    2    0    0 -0.17232637811E+03 -0.16606901763E+03 -0.14709015038E+04  0.15025613242E+04  0.19200000000E+03 0.  0.
   -5000001    1    1    2    0    0  0.17232637811E+03  0.16606901763E+03 -0.29294015216E+04  0.29454257034E+04  0.19200000000E+03 0.  0.
<mgrwt>
<rscale>  0 0.64955514E+03</rscale>
<asrwt>0</asrwt>
<pdfrwt beam="1">  1        2 0.63202019E+00 0.64955514E+03</pdfrwt>
<pdfrwt beam="2">  1       -2 0.34060030E-02 0.64955514E+03</pdfrwt>
<totfact> 0.11713226E+02</totfact>
</mgrwt>
</event>
<event>
 4    1  0.5812319E-005  0.5571964E+03  0.7818608E-02  0.9998418E-01
         -2   -1    0    0    0  501 -0.00000000000E+00  0.00000000000E+00  0.14130716767E+03  0.14130716769E+03  0.25500000000E-02 0. -1.
          2   -1    0    0  501    0  0.00000000000E+00 -0.00000000000E+00 -0.54927825035E+03  0.54927825036E+03  0.25500000000E-02 0.  1.
    5000001    1    1    2    0    0 -0.17944215204E+03  0.79772404866E+02 -0.14598735106E+03  0.31102962749E+03  0.19200000000E+03 0.  0.
   -5000001    1    1    2    0    0  0.17944215204E+03 -0.79772404866E+02 -0.26198373162E+03  0.37955579055E+03  0.19200000000E+03 0.  0.
<mgrwt>
<rscale>  0 0.55719639E+03</rscale>
<asrwt>0</asrwt>
<pdfrwt beam="1">  1        2 0.78468320E-01 0.55719639E+03</pdfrwt>
<pdfrwt beam="2">  1       -2 0.20186739E-01 0.55719639E+03</pdfrwt>
<totfact> 0.12641877E+03</totfact>
</mgrwt>
</event>
<event>
 4    1  0.5812319E-005  0.5653782E+03  0.7818608E-02  0.9979958E-01
         -2   -1    0    0    0  501 -0.00000000000E+00  0.00000000000E+00  0.17531657028E+03  0.17531657030E+03  0.25500000000E-02 0. -1.
          2   -1    0    0  501    0  0.00000000000E+00 -0.00000000000E+00 -0.45582191360E+03  0.45582191361E+03  0.25500000000E-02 0.  1.
    5000001    1    1    2    0    0  0.14434491024E+01 -0.19320563214E+03 -0.22467003085E+03  0.35308798139E+03  0.19200000000E+03 0.  0.
   -5000001    1    1    2    0    0 -0.14434491024E+01  0.19320563214E+03 -0.55835312472E+02  0.27805050253E+03  0.19200000000E+03 0.  0.
<mgrwt>
<rscale>  0 0.56537823E+03</rscale>
<asrwt>0</asrwt>
<pdfrwt beam="1">  1        2 0.65117416E-01 0.56537823E+03</pdfrwt>
<pdfrwt beam="2">  1       -2 0.25045224E-01 0.56537823E+03</pdfrwt>
<totfact> 0.10674928E+03</totfact>
</mgrwt>
</event>
<event>
 4    1  0.5812319E-005  0.9874092E+03  0.7818608E-02  0.9322463E-01
         -2   -1    0    0    0  501 -0.00000000000E+00  0.00000000000E+00  0.15939561481E+03  0.15939561483E+03  0.25500000000E-02 0. -1.
          2   -1    0    0  501    0  0.00000000000E+00 -0.00000000000E+00 -0.15291776403E+04  0.15291776403E+04  0.25500000000E-02 0.  1.
    5000001    1    1    2    0    0 -0.10984009302E+03  0.41931598655E+03 -0.92054736452E+03  0.10354526512E+04  0.19200000000E+03 0.  0.
   -5000001    1    1    2    0    0  0.10984009302E+03 -0.41931598655E+03 -0.44923466092E+03  0.65312060386E+03  0.19200000000E+03 0.  0.
<mgrwt>
<rscale>  0 0.98740916E+03</rscale>
<asrwt>0</asrwt>
<pdfrwt beam="1">  1        2 0.21845394E+00 0.98740916E+03</pdfrwt>
<pdfrwt beam="2">  1       -2 0.22770803E-01 0.98740916E+03</pdfrwt>
<totfact> 0.23868324E+02</totfact>
</mgrwt>
</event>
<event>
 4    1  0.5812319E-005  0.9496006E+03  0.7818608E-02  0.9365617E-01
          2   -1    0    0  501    0  0.00000000000E+00  0.00000000000E+00  0.13186900325E+04  0.13186900325E+04  0.25500000000E-02 0.  1.
         -2   -1    0    0    0  501 -0.00000000000E+00 -0.00000000000E+00 -0.17095400692E+03  0.17095400694E+03  0.25500000000E-02 0. -1.
    5000001    1    1    2    0    0 -0.28236854646E+03  0.20773468875E+03  0.97591494068E+03  0.10545898105E+04  0.19200000000E+03 0.  0.
   -5000001    1    1    2    0    0  0.28236854646E+03 -0.20773468875E+03  0.17182108493E+03  0.43505422899E+03  0.19200000000E+03 0.  0.
<mgrwt>
<rscale>  0 0.94960064E+03</rscale>
<asrwt>0</asrwt>
<pdfrwt beam="1">  1        2 0.18838430E+00 0.94960064E+03</pdfrwt>
<pdfrwt beam="2">  1       -2 0.24422000E-01 0.94960064E+03</pdfrwt>
<totfact> 0.27369243E+02</totfact>
</mgrwt>
</event>
<event>
 4    1  0.5812319E-005  0.8142115E+03  0.7818608E-02  0.9539671E-01
          2   -1    0    0  501    0  0.00000000000E+00  0.00000000000E+00  0.30708328238E+04  0.30708328238E+04  0.25500000000E-02 0.  1.
         -2   -1    0    0    0  501 -0.00000000000E+00 -0.00000000000E+00 -0.53970735961E+02  0.53970736021E+02  0.25500000000E-02 0. -1.
    5000001    1    1    2    0    0  0.17753605078E+03 -0.12928314269E+03  0.41861010996E+03  0.51022701268E+03  0.19200000000E+03 0.  0.
   -5000001    1    1    2    0    0 -0.17753605078E+03  0.12928314269E+03  0.25982519779E+04  0.26145765471E+04  0.19200000000E+03 0.  0.
<mgrwt>
<rscale>  0 0.81421154E+03</rscale>
<asrwt>0</asrwt>
<pdfrwt beam="1">  1        2 0.43869037E+00 0.81421154E+03</pdfrwt>
<pdfrwt beam="2">  1       -2 0.77101057E-02 0.81421154E+03</pdfrwt>
<totfact> 0.23424427E+02</totfact>
</mgrwt>
</event>
<event>
 4    1  0.5812319E-005  0.8174424E+03  0.7818608E-02  0.9535108E-01
         -2   -1    0    0    0  501 -0.00000000000E+00  0.00000000000E+00  0.46944833646E+03  0.46944833647E+03  0.25500000000E-02 0. -1.
          2   -1    0    0  501    0  0.00000000000E+00 -0.00000000000E+00 -0.35584965927E+03  0.35584965927E+03  0.25500000000E-02 0.  1.
    5000001    1    1    2    0    0 -0.34633019812E+03  0.48771121461E+02 -0.32742317989E+02  0.40032397855E+03  0.19200000000E+03 0.  0.
   -5000001    1    1    2    0    0  0.34633019812E+03 -0.48771121461E+02  0.14634099519E+03  0.42497401719E+03  0.19200000000E+03 0.  0.
<mgrwt>
<rscale>  0 0.81744243E+03</rscale>
<asrwt>0</asrwt>
<pdfrwt beam="1">  1        2 0.50835666E-01 0.81744243E+03</pdfrwt>
<pdfrwt beam="2">  1       -2 0.67064048E-01 0.81744243E+03</pdfrwt>
<totfact> 0.20253241E+02</totfact>
</mgrwt>
</event>
<event>
 4    1  0.5812319E-005  0.6306085E+03  0.7818608E-02  0.9843862E-01
          2   -1    0    0  501    0  0.00000000000E+00  0.00000000000E+00  0.19094342568E+03  0.19094342569E+03  0.25500000000E-02 0. -1.
         -2   -1    0    0    0  501 -0.00000000000E+00 -0.00000000000E+00 -0.52066081049E+03  0.52066081050E+03  0.25500000000E-02 0.  1.
    5000001    1    1    2    0    0  0.23730222528E+03 -0.18072635791E+01 -0.75739406079E+02  0.31450925258E+03  0.19200000000E+03 0.  0.
   -5000001    1    1    2    0    0 -0.23730222528E+03  0.18072635791E+01 -0.25397797874E+03  0.39709498361E+03  0.19200000000E+03 0.  0.
<mgrwt>
<rscale>  0 0.63060846E+03</rscale>
<asrwt>0</asrwt>
<pdfrwt beam="1">  1        2 0.27277632E-01 0.63060846E+03</pdfrwt>
<pdfrwt beam="2">  1       -2 0.74380116E-01 0.63060846E+03</pdfrwt>
<totfact> 0.32571638E+02</totfact>
</mgrwt>
</event>
<event>
 4    1  0.5812319E-005  0.9282682E+03  0.7818608E-02  0.9390919E-01
         -2   -1    0    0    0  501 -0.00000000000E+00  0.00000000000E+00  0.70674378118E+02  0.70674378164E+02  0.25500000000E-02 0. -1.
          2   -1    0    0  501    0  0.00000000000E+00 -0.00000000000E+00 -0.30480703322E+04  0.30480703322E+04  0.25500000000E-02 0.  1.
    5000001    1    1    2    0    0  0.60529245342E+02 -0.29800956671E+03 -0.24744439171E+04  0.25004419990E+04  0.19200000000E+03 0.  0.
   -5000001    1    1    2    0    0 -0.60529245342E+02  0.29800956671E+03 -0.50295203693E+03  0.61830271133E+03  0.19200000000E+03 0.  0.
<mgrwt>
<rscale>  0 0.92826823E+03</rscale>
<asrwt>0</asrwt>
<pdfrwt beam="1">  1        2 0.43543854E+00 0.92826823E+03</pdfrwt>
<pdfrwt beam="2">  1       -2 0.10096342E-01 0.92826823E+03</pdfrwt>
<totfact> 0.15426024E+02</totfact>
</mgrwt>
</event>
<event>
 4    1  0.5812319E-005  0.4420750E+03  0.7818608E-02  0.1030112E+00
          2   -1    0    0  501    0  0.00000000000E+00  0.00000000000E+00  0.34276026350E+04  0.34276026350E+04  0.25500000000E-02 0.  1.
         -2   -1    0    0    0  501 -0.00000000000E+00 -0.00000000000E+00 -0.14254151064E+02  0.14254151293E+02  0.25500000000E-02 0. -1.
    5000001    1    1    2    0    0 -0.96770516981E+02  0.49820206879E+02  0.18010643018E+04  0.18145366365E+04  0.19200000000E+03 0.  0.
   -5000001    1    1    2    0    0  0.96770516981E+02 -0.49820206879E+02  0.16122841821E+04  0.16273201498E+04  0.19200000000E+03 0.  0.
<mgrwt>
<rscale>  0 0.44207495E+03</rscale>
<asrwt>0</asrwt>
<pdfrwt beam="1">  1        2 0.48965791E+00 0.44207495E+03</pdfrwt>
<pdfrwt beam="2">  1       -2 0.20363057E-02 0.44207495E+03</pdfrwt>
<totfact> 0.11870481E+03</totfact>
</mgrwt>
</event>
<event>
 4    1  0.5812319E-005  0.5919779E+03  0.7818608E-02  0.9922191E-01
         -2   -1    0    0    0  501 -0.00000000000E+00  0.00000000000E+00  0.18344976779E+03  0.18344976780E+03  0.25500000000E-02 0. -1.
          2   -1    0    0  501    0  0.00000000000E+00 -0.00000000000E+00 -0.47756640025E+03  0.47756640026E+03  0.25500000000E-02 0.  1.
    5000001    1    1    2    0    0  0.20043884496E+03 -0.92407486015E+02 -0.19737543121E+03  0.35289649316E+03  0.19200000000E+03 0.  0.
   -5000001    1    1    2    0    0 -0.20043884496E+03  0.92407486015E+02 -0.96741201259E+02  0.30811967490E+03  0.19200000000E+03 0.  0.
<mgrwt>
<rscale>  0 0.59197786E+03</rscale>
<asrwt>0</asrwt>
<pdfrwt beam="1">  1        2 0.68223771E-01 0.59197786E+03</pdfrwt>
<pdfrwt beam="2">  1       -2 0.26207110E-01 0.59197786E+03</pdfrwt>
<totfact> 0.93329124E+02</totfact>
</mgrwt>
</event>
<event>
 4    1  0.5812319E-005  0.7469201E+03  0.7818608E-02  0.9640195E-01
          2   -1    0    0  501    0  0.00000000000E+00  0.00000000000E+00  0.27749855766E+04  0.27749855766E+04  0.25500000000E-02 0.  1.
         -2   -1    0    0    0  501 -0.00000000000E+00 -0.00000000000E+00 -0.50260584460E+02  0.50260584525E+02  0.25500000000E-02 0. -1.
    5000001    1    1    2    0    0 -0.30006523323E+03  0.10818387381E+03  0.14736422808E+04  0.15199435735E+04  0.19200000000E+03 0.  0.
   -5000001    1    1    2    0    0  0.30006523323E+03 -0.10818387381E+03  0.12510827113E+04  0.13053025876E+04  0.19200000000E+03 0.  0.
<mgrwt>
<rscale>  0 0.74692007E+03</rscale>
<asrwt>0</asrwt>
<pdfrwt beam="1">  1        2 0.39642644E+00 0.74692007E+03</pdfrwt>
<pdfrwt beam="2">  1       -2 0.71800848E-02 0.74692007E+03</pdfrwt>
<totfact> 0.38211800E+02</totfact>
</mgrwt>
</event>
<event>
 4    1  0.5812319E-005  0.6197123E+03  0.7818608E-02  0.9865333E-01
         -2   -1    0    0    0  501 -0.00000000000E+00  0.00000000000E+00  0.50074962628E+02  0.50074962693E+02  0.25500000000E-02 0. -1.
          2   -1    0    0  501    0  0.00000000000E+00 -0.00000000000E+00 -0.19173423290E+04  0.19173423290E+04  0.25500000000E-02 0.  1.
    5000001    1    1    2    0    0  0.20203544265E+03  0.12959844808E+03 -0.80934130092E+03  0.86574327558E+03  0.19200000000E+03 0.  0.
   -5000001    1    1    2    0    0 -0.20203544265E+03 -0.12959844808E+03 -0.10579260655E+04  0.11016740162E+04  0.19200000000E+03 0.  0.
<mgrwt>
<rscale>  0 0.61971234E+03</rscale>
<asrwt>0</asrwt>
<pdfrwt beam="1">  1        2 0.27390600E+00 0.61971234E+03</pdfrwt>
<pdfrwt beam="2">  1       -2 0.71535673E-02 0.61971234E+03</pdfrwt>
<totfact> 0.10664107E+03</totfact>
</mgrwt>
</event>
<event>
 4    1  0.5812319E-005  0.4702852E+03  0.7818608E-02  0.1021840E+00
         -2   -1    0    0    0  501 -0.00000000000E+00  0.00000000000E+00  0.43299105937E+02  0.43299106012E+02  0.25500000000E-02 0. -1.
          2   -1    0    0  501    0  0.00000000000E+00 -0.00000000000E+00 -0.12769788520E+04  0.12769788520E+04  0.25500000000E-02 0.  1.
    5000001    1    1    2    0    0 -0.44514550202E+02 -0.12427241113E+03 -0.70574470418E+03  0.74321246278E+03  0.19200000000E+03 0.  0.
   -5000001    1    1    2    0    0  0.44514550202E+02  0.12427241113E+03 -0.52793504188E+03  0.57706549524E+03  0.19200000000E+03 0.  0.
<mgrwt>
<rscale>  0 0.47028520E+03</rscale>
<asrwt>0</asrwt>
<pdfrwt beam="1">  1        2 0.18242553E+00 0.47028520E+03</pdfrwt>
<pdfrwt beam="2">  1       -2 0.61855874E-02 0.47028520E+03</pdfrwt>
<totfact> 0.28803556E+03</totfact>
</mgrwt>
</event>
<event>
 4    1  0.5812319E-005  0.6438051E+03  0.7818608E-02  0.9818473E-01
         -2   -1    0    0    0  501 -0.00000000000E+00  0.00000000000E+00  0.14085959757E+03  0.14085959759E+03  0.25500000000E-02 0. -1.
          2   -1    0    0  501    0  0.00000000000E+00 -0.00000000000E+00 -0.73563501879E+03  0.73563501880E+03  0.25500000000E-02 0.  1.
    5000001    1    1    2    0    0  0.23903652967E+03 -0.39736260896E+01 -0.16397466034E+03  0.34771531668E+03  0.19200000000E+03 0.  0.
   -5000001    1    1    2    0    0 -0.23903652967E+03  0.39736260896E+01 -0.43080076088E+03  0.52877929971E+03  0.19200000000E+03 0.  0.
<mgrwt>
<rscale>  0 0.64380510E+03</rscale>
<asrwt>0</asrwt>
<pdfrwt beam="1">  1        2 0.10509071E+00 0.64380510E+03</pdfrwt>
<pdfrwt beam="2">  1       -2 0.20122800E-01 0.64380510E+03</pdfrwt>
<totfact> 0.89563717E+02</totfact>
</mgrwt>
</event>
<event>
 4    1  0.5812319E-005  0.4365491E+03  0.7818608E-02  0.1031811E+00
          2   -1    0    0  501    0  0.00000000000E+00  0.00000000000E+00  0.11700747363E+03  0.11700747365E+03  0.25500000000E-02 0. -1.
         -2   -1    0    0    0  501 -0.00000000000E+00 -0.00000000000E+00 -0.40718570240E+03  0.40718570241E+03  0.25500000000E-02 0.  1.
    5000001    1    1    2    0    0 -0.47615959945E+01 -0.10361988199E+03 -0.15046146509E+03  0.26507056649E+03  0.19200000000E+03 0.  0.
   -5000001    1    1    2    0    0  0.47615959945E+01  0.10361988199E+03 -0.13971676368E+03  0.25912260957E+03  0.19200000000E+03 0.  0.
<mgrwt>
<rscale>  0 0.43654906E+03</rscale>
<asrwt>0</asrwt>
<pdfrwt beam="1">  1        2 0.16715354E-01 0.43654906E+03</pdfrwt>
<pdfrwt beam="2">  1       -2 0.58169385E-01 0.43654906E+03</pdfrwt>
<totfact> 0.97408757E+02</totfact>
</mgrwt>
</event>
<event>
 4    1  0.5812319E-005  0.5723334E+03  0.7818608E-02  0.9964528E-01
         -2   -1    0    0    0  501 -0.00000000000E+00  0.00000000000E+00  0.40354244184E+02  0.40354244264E+02  0.25500000000E-02 0. -1.
          2   -1    0    0  501    0  0.00000000000E+00 -0.00000000000E+00 -0.20293125760E+04  0.20293125760E+04  0.25500000000E-02 0.  1.
    5000001    1    1    2    0    0  0.12761212312E+03  0.12877864576E+03 -0.59573639864E+03  0.65163996980E+03  0.19200000000E+03 0.  0.
   -5000001    1    1    2    0    0 -0.12761212312E+03 -0.12877864576E+03 -0.13932219331E+04  0.14180268504E+04  0.19200000000E+03 0.  0.
<mgrwt>
<rscale>  0 0.57233338E+03</rscale>
<asrwt>0</asrwt>
<pdfrwt beam="1">  1        2 0.28990173E+00 0.57233338E+03</pdfrwt>
<pdfrwt beam="2">  1       -2 0.57648933E-02 0.57233338E+03</pdfrwt>
<totfact> 0.13186479E+03</totfact>
</mgrwt>
</event>
<event>
 4    1  0.5812319E-005  0.5601231E+03  0.7818608E-02  0.9991776E-01
         -2   -1    0    0    0  501 -0.00000000000E+00  0.00000000000E+00  0.32964238037E+02  0.32964238135E+02  0.25500000000E-02 0. -1.
          2   -1    0    0  501    0  0.00000000000E+00 -0.00000000000E+00 -0.23793809491E+04  0.23793809491E+04  0.25500000000E-02 0.  1.
    5000001    1    1    2    0    0 -0.27679784041E+02 -0.19378333794E+03 -0.14188223384E+04  0.14450740398E+04  0.19200000000E+03 0.  0.
   -5000001    1    1    2    0    0  0.27679784041E+02  0.19378333794E+03 -0.92759437270E+03  0.96727114749E+03  0.19200000000E+03 0.  0.
<mgrwt>
<rscale>  0 0.56012313E+03</rscale>
<asrwt>0</asrwt>
<pdfrwt beam="1">  1        2 0.33991146E+00 0.56012313E+03</pdfrwt>
<pdfrwt beam="2">  1       -2 0.47091784E-02 0.56012313E+03</pdfrwt>
<totfact> 0.12040001E+03</totfact>
</mgrwt>
</event>
<event>
 4    1  0.5812319E-005  0.9720853E+03  0.7818608E-02  0.9339702E-01
          2   -1    0    0  501    0  0.00000000000E+00  0.00000000000E+00  0.92996546590E+03  0.92996546591E+03  0.25500000000E-02 0.  1.
         -2   -1    0    0    0  501 -0.00000000000E+00 -0.00000000000E+00 -0.25402819654E+03  0.25402819655E+03  0.25500000000E-02 0. -1.
    5000001    1    1    2    0    0 -0.33748805409E+03  0.14682863442E+03  0.64589855841E+03  0.76779279906E+03  0.19200000000E+03 0.  0.
   -5000001    1    1    2    0    0  0.33748805409E+03 -0.14682863442E+03  0.30038710958E+02  0.41620086340E+03  0.19200000000E+03 0.  0.
<mgrwt>
<rscale>  0 0.97208528E+03</rscale>
<asrwt>0</asrwt>
<pdfrwt beam="1">  1        2 0.13285221E+00 0.97208528E+03</pdfrwt>
<pdfrwt beam="2">  1       -2 0.36289742E-01 0.97208528E+03</pdfrwt>
<totfact> 0.22166644E+02</totfact>
</mgrwt>
</event>
<event>
 4    1  0.5812319E-005  0.9158519E+03  0.7818608E-02  0.9405980E-01
         -2   -1    0    0    0  501 -0.00000000000E+00  0.00000000000E+00  0.54633982136E+03  0.54633982137E+03  0.25500000000E-02 0. -1.
          2   -1    0    0  501    0  0.00000000000E+00 -0.00000000000E+00 -0.38382002722E+03  0.38382002723E+03  0.25500000000E-02 0.  1.
    5000001    1    1    2    0    0  0.35058124586E+03  0.20054277812E+03  0.18132603799E+03  0.48256372415E+03  0.19200000000E+03 0.  0.
   -5000001    1    1    2    0    0 -0.35058124586E+03 -0.20054277812E+03 -0.18806243852E+02  0.44759612444E+03  0.19200000000E+03 0.  0.
<mgrwt>
<rscale>  0 0.91585188E+03</rscale>
<asrwt>0</asrwt>
<pdfrwt beam="1">  1        2 0.54831433E-01 0.91585188E+03</pdfrwt>
<pdfrwt beam="2">  1       -2 0.78048545E-01 0.91585188E+03</pdfrwt>
<totfact> 0.13277862E+02</totfact>
</mgrwt>
</event>
<event>
 4    1  0.5812319E-005  0.8989704E+03  0.7818608E-02  0.9426869E-01
         -2   -1    0    0    0  501 -0.00000000000E+00  0.00000000000E+00  0.17323835941E+03  0.17323835943E+03  0.25500000000E-02 0. -1.
          2   -1    0    0  501    0  0.00000000000E+00 -0.00000000000E+00 -0.11662366569E+04  0.11662366569E+04  0.25500000000E-02 0.  1.
    5000001    1    1    2    0    0 -0.12756990883E+03 -0.24620623103E+03 -0.53784702631E+02  0.34153826151E+03  0.19200000000E+03 0.  0.
   -5000001    1    1    2    0    0  0.12756990883E+03  0.24620623103E+03 -0.93921359483E+03  0.99793675478E+03  0.19200000000E+03 0.  0.
<mgrwt>
<rscale>  0 0.89897036E+03</rscale>
<asrwt>0</asrwt>
<pdfrwt beam="1">  1        2 0.16660523E+00 0.89897036E+03</pdfrwt>
<pdfrwt beam="2">  1       -2 0.24748338E-01 0.89897036E+03</pdfrwt>
<totfact> 0.32622799E+02</totfact>
</mgrwt>
</event>
<event>
 4    1  0.5812319E-005  0.5818012E+03  0.7818608E-02  0.9943899E-01
         -2   -1    0    0    0  501 -0.00000000000E+00  0.00000000000E+00  0.87887627742E+02  0.87887627779E+02  0.25500000000E-02 0. -1.
          2   -1    0    0  501    0  0.00000000000E+00 -0.00000000000E+00 -0.96285642434E+03  0.96285642434E+03  0.25500000000E-02 0.  1.
    5000001    1    1    2    0    0 -0.82966933524E+01  0.21822135000E+03 -0.42239853961E+03  0.51280982731E+03  0.19200000000E+03 0.  0.
   -5000001    1    1    2    0    0  0.82966933524E+01 -0.21822135000E+03 -0.45257025698E+03  0.53793422481E+03  0.19200000000E+03 0.  0.
<mgrwt>
<rscale>  0 0.58180123E+03</rscale>
<asrwt>0</asrwt>
<pdfrwt beam="1">  1        2 0.13755091E+00 0.58180123E+03</pdfrwt>
<pdfrwt beam="2">  1       -2 0.12555376E-01 0.58180123E+03</pdfrwt>
<totfact> 0.14043553E+03</totfact>
</mgrwt>
</event>
<event>
 4    1  0.5812319E-005  0.4142082E+03  0.7818608E-02  0.1038968E+00
         -2   -1    0    0    0  501 -0.00000000000E+00  0.00000000000E+00  0.82824845605E+02  0.82824845644E+02  0.25500000000E-02 0. -1.
          2   -1    0    0  501    0  0.00000000000E+00 -0.00000000000E+00 -0.51786511145E+03  0.51786511146E+03  0.25500000000E-02 0.  1.
    5000001    1    1    2    0    0 -0.75642513092E+02  0.17487963110E+02 -0.21852410858E+03  0.30107209215E+03  0.19200000000E+03 0.  0.
   -5000001    1    1    2    0    0  0.75642513092E+02 -0.17487963110E+02 -0.21651615727E+03  0.29961786495E+03  0.19200000000E+03 0.  0.
<mgrwt>
<rscale>  0 0.41420815E+03</rscale>
<asrwt>0</asrwt>
<pdfrwt beam="1">  1        2 0.73980728E-01 0.41420815E+03</pdfrwt>
<pdfrwt beam="2">  1       -2 0.11832121E-01 0.41420815E+03</pdfrwt>
<totfact> 0.33147022E+03</totfact>
</mgrwt>
</event>
<event>
 4    1  0.5812319E-005  0.7654373E+03  0.7818608E-02  0.9611438E-01
          2   -1    0    0  501    0  0.00000000000E+00  0.00000000000E+00  0.58935645185E+03  0.58935645186E+03  0.25500000000E-02 0.  1.
         -2   -1    0    0    0  501 -0.00000000000E+00 -0.00000000000E+00 -0.24853133932E+03  0.24853133933E+03  0.25500000000E-02 0. -1.
    5000001    1    1    2    0    0  0.17266856171E+03 -0.16458148104E+03  0.42172543749E+03  0.52116968516E+03  0.19200000000E+03 0.  0.
   -5000001    1    1    2    0    0 -0.17266856171E+03  0.16458148104E+03 -0.80900324957E+02  0.31671810602E+03  0.19200000000E+03 0.  0.
<mgrwt>
<rscale>  0 0.76543726E+03</rscale>
<asrwt>0</asrwt>
<pdfrwt beam="1">  1        2 0.84193778E-01 0.76543726E+03</pdfrwt>
<pdfrwt beam="2">  1       -2 0.35504477E-01 0.76543726E+03</pdfrwt>
<totfact> 0.41504110E+02</totfact>
</mgrwt>
</event>
<event>
 4    1  0.5812319E-005  0.5403028E+03  0.7818608E-02  0.1003764E+00
          2   -1    0    0  501    0  0.00000000000E+00  0.00000000000E+00  0.30763458691E+04  0.30763458691E+04  0.25500000000E-02 0.  1.
         -2   -1    0    0    0  501 -0.00000000000E+00 -0.00000000000E+00 -0.23723525519E+02  0.23723525656E+02  0.25500000000E-02 0. -1.
    5000001    1    1    2    0    0  0.99676540051E+02 -0.16156762154E+03  0.15770694471E+04  0.16000161093E+04  0.19200000000E+03 0.  0.
   -5000001    1    1    2    0    0 -0.99676540051E+02  0.16156762154E+03  0.14755528964E+04  0.15000532854E+04  0.19200000000E+03 0.  0.
<mgrwt>
<rscale>  0 0.54030277E+03</rscale>
<asrwt>0</asrwt>
<pdfrwt beam="1">  1        2 0.43947785E+00 0.54030277E+03</pdfrwt>
<pdfrwt beam="2">  1       -2 0.33890761E-02 0.54030277E+03</pdfrwt>
<totfact> 0.85999486E+02</totfact>
</mgrwt>
</event>
<event>
 4    1  0.5812319E-005  0.6401179E+03  0.7818608E-02  0.9825501E-01
          2   -1    0    0  501    0  0.00000000000E+00  0.00000000000E+00  0.97769894659E+02  0.97769894693E+02  0.25500000000E-02 0.  1.
         -2   -1    0    0    0  501 -0.00000000000E+00 -0.00000000000E+00 -0.10477429672E+04  0.10477429672E+04  0.25500000000E-02 0. -1.
    5000001    1    1    2    0    0 -0.22055601662E+03  0.11115181079E+03 -0.59601566565E+03  0.67312580935E+03  0.19200000000E+03 0.  0.
   -5000001    1    1    2    0    0  0.22055601662E+03 -0.11115181079E+03 -0.35395740685E+03  0.47238705251E+03  0.19200000000E+03 0.  0.
<mgrwt>
<rscale>  0 0.64011786E+03</rscale>
<asrwt>0</asrwt>
<pdfrwt beam="1">  1        2 0.13967128E-01 0.64011786E+03</pdfrwt>
<pdfrwt beam="2">  1       -2 0.14967756E+00 0.64011786E+03</pdfrwt>
<totfact> 0.13386490E+02</totfact>
</mgrwt>
</event>
<event>
 4    1  0.5812319E-005  0.1817874E+04  0.7818608E-02  0.8696851E-01
          2   -1    0    0  501    0  0.00000000000E+00  0.00000000000E+00  0.48005646480E+03  0.48005646481E+03  0.25500000000E-02 0.  1.
         -2   -1    0    0    0  501 -0.00000000000E+00 -0.00000000000E+00 -0.17209786274E+04  0.17209786274E+04  0.25500000000E-02 0. -1.
    5000001    1    1    2    0    0 -0.63486405847E+03 -0.59446831556E+03 -0.40098691793E+03  0.97678014891E+03  0.19200000000E+03 0.  0.
   -5000001    1    1    2    0    0  0.63486405847E+03  0.59446831556E+03 -0.83993524467E+03  0.12242549433E+04  0.19200000000E+03 0.  0.
<mgrwt>
<rscale>  0 0.18178745E+04</rscale>
<asrwt>0</asrwt>
<pdfrwt beam="1">  1        2 0.68579496E-01 0.18178745E+04</pdfrwt>
<pdfrwt beam="2">  1       -2 0.24585409E+00 0.18178745E+04</pdfrwt>
<totfact> 0.45322147E+00</totfact>
</mgrwt>
</event>
<event>
 4    1  0.5812319E-005  0.4118465E+03  0.7818608E-02  0.1039753E+00
          2   -1    0    0  501    0  0.00000000000E+00  0.00000000000E+00  0.76057173336E+03  0.76057173336E+03  0.25500000000E-02 0.  1.
         -2   -1    0    0    0  501 -0.00000000000E+00 -0.00000000000E+00 -0.55753294511E+02  0.55753294569E+02  0.25500000000E-02 0. -1.
    5000001    1    1    2    0    0  0.39160056772E+02 -0.51792215238E+02  0.28027467552E+03  0.34588124746E+03  0.19200000000E+03 0.  0.
   -5000001    1    1    2    0    0 -0.39160056772E+02  0.51792215238E+02  0.42454376332E+03  0.47044378047E+03  0.19200000000E+03 0.  0.
<mgrwt>
<rscale>  0 0.41184648E+03</rscale>
<asrwt>0</asrwt>
<pdfrwt beam="1">  1        2 0.10865310E+00 0.41184648E+03</pdfrwt>
<pdfrwt beam="2">  1       -2 0.79647566E-02 0.41184648E+03</pdfrwt>
<totfact> 0.39772980E+03</totfact>
</mgrwt>
</event>
<event>
 4    1  0.5812319E-005  0.9317193E+03  0.7818608E-02  0.9386777E-01
         -2   -1    0    0    0  501 -0.00000000000E+00  0.00000000000E+00  0.56780197703E+03  0.56780197703E+03  0.25500000000E-02 0. -1.
          2   -1    0    0  501    0  0.00000000000E+00 -0.00000000000E+00 -0.38221988987E+03  0.38221988988E+03  0.25500000000E-02 0.  1.
    5000001    1    1    2    0    0  0.38897332548E+03 -0.11459489686E+03  0.22066987755E+03  0.49999143310E+03  0.19200000000E+03 0.  0.
   -5000001    1    1    2    0    0 -0.38897332548E+03  0.11459489686E+03 -0.35087790392E+02  0.45003043381E+03  0.19200000000E+03 0.  0.
<mgrwt>
<rscale>  0 0.93171929E+03</rscale>
<asrwt>0</asrwt>
<pdfrwt beam="1">  1        2 0.54602841E-01 0.93171929E+03</pdfrwt>
<pdfrwt beam="2">  1       -2 0.81114568E-01 0.93171929E+03</pdfrwt>
<totfact> 0.12224516E+02</totfact>
</mgrwt>
</event>
<event>
 4    1  0.5812319E-005  0.7760645E+03  0.7818608E-02  0.9595324E-01
          2   -1    0    0  501    0  0.00000000000E+00  0.00000000000E+00  0.10352663324E+04  0.10352663324E+04  0.25500000000E-02 0.  1.
         -2   -1    0    0    0  501 -0.00000000000E+00 -0.00000000000E+00 -0.14543988956E+03  0.14543988958E+03  0.25500000000E-02 0. -1.
    5000001    1    1    2    0    0  0.21214028196E+03 -0.24698129136E+03  0.31139543193E+03  0.48972887657E+03  0.19200000000E+03 0.  0.
   -5000001    1    1    2    0    0 -0.21214028196E+03  0.24698129136E+03  0.57843101092E+03  0.69097734544E+03  0.19200000000E+03 0.  0.
<mgrwt>
<rscale>  0 0.77606448E+03</rscale>
<asrwt>0</asrwt>
<pdfrwt beam="1">  1        2 0.14789520E+00 0.77606448E+03</pdfrwt>
<pdfrwt beam="2">  1       -2 0.20777126E-01 0.77606448E+03</pdfrwt>
<totfact> 0.53486282E+02</totfact>
</mgrwt>
</event>
<event>
 4    1  0.5812319E-005  0.5000847E+03  0.7818608E-02  0.1013757E+00
         -2   -1    0    0    0  501 -0.00000000000E+00  0.00000000000E+00  0.38808981979E+02  0.38808982063E+02  0.25500000000E-02 0. -1.
          2   -1    0    0  501    0  0.00000000000E+00 -0.00000000000E+00 -0.16109974518E+04  0.16109974518E+04  0.25500000000E-02 0.  1.
    5000001    1    1    2    0    0 -0.89584379990E+02 -0.56779708349E+02 -0.39009950439E+03  0.44753873547E+03  0.19200000000E+03 0.  0.
   -5000001    1    1    2    0    0  0.89584379990E+02  0.56779708349E+02 -0.11820889655E+04  0.12022676984E+04  0.19200000000E+03 0.  0.
<mgrwt>
<rscale>  0 0.50008468E+03</rscale>
<asrwt>0</asrwt>
<pdfrwt beam="1">  1        2 0.23014245E+00 0.50008468E+03</pdfrwt>
<pdfrwt beam="2">  1       -2 0.55441413E-02 0.50008468E+03</pdfrwt>
<totfact> 0.22823877E+03</totfact>
</mgrwt>
</event>
<event>
 4    1  0.5812319E-005  0.5321474E+03  0.7818608E-02  0.1005713E+00
          2   -1    0    0  501    0  0.00000000000E+00  0.00000000000E+00  0.11505899469E+04  0.11505899469E+04  0.25500000000E-02 0.  1.
         -2   -1    0    0    0  501 -0.00000000000E+00 -0.00000000000E+00 -0.61529485736E+02  0.61529485789E+02  0.25500000000E-02 0. -1.
    5000001    1    1    2    0    0  0.53709264975E+02  0.17269577850E+03  0.46488279587E+03  0.53449839191E+03  0.19200000000E+03 0.  0.
   -5000001    1    1    2    0    0 -0.53709264975E+02 -0.17269577850E+03  0.62417766526E+03  0.67762104075E+03  0.19200000000E+03 0.  0.
<mgrwt>
<rscale>  0 0.53214738E+03</rscale>
<asrwt>0</asrwt>
<pdfrwt beam="1">  1        2 0.16436998E+00 0.53214738E+03</pdfrwt>
<pdfrwt beam="2">  1       -2 0.87899270E-02 0.53214738E+03</pdfrwt>
<totfact> 0.19421105E+03</totfact>
</mgrwt>
</event>
<event>
 4    1  0.5812319E-005  0.6412385E+03  0.7818608E-02  0.9823360E-01
         -2   -1    0    0    0  501 -0.00000000000E+00  0.00000000000E+00  0.10453286108E+03  0.10453286111E+03  0.25500000000E-02 0. -1.
          2   -1    0    0  501    0  0.00000000000E+00 -0.00000000000E+00 -0.98339129918E+03  0.98339129918E+03  0.25500000000E-02 0.  1.
    5000001    1    1    2    0    0  0.18802076059E+03  0.15587933370E+03 -0.30495271337E+03  0.43532784252E+03  0.19200000000E+03 0.  0.
   -5000001    1    1    2    0    0 -0.18802076059E+03 -0.15587933370E+03 -0.57390572473E+03  0.65259631777E+03  0.19200000000E+03 0.  0.
<mgrwt>
<rscale>  0 0.64123851E+03</rscale>
<asrwt>0</asrwt>
<pdfrwt beam="1">  1        2 0.14048447E+00 0.64123851E+03</pdfrwt>
<pdfrwt beam="2">  1       -2 0.14933266E-01 0.64123851E+03</pdfrwt>
<totfact> 0.10198617E+03</totfact>
</mgrwt>
</event>
<event>
 4    1  0.5812319E-005  0.4063188E+03  0.7818608E-02  0.1041613E+00
          2   -1    0    0  501    0  0.00000000000E+00  0.00000000000E+00  0.73028480360E+03  0.73028480361E+03  0.25500000000E-02 0.  1.
         -2   -1    0    0    0  501 -0.00000000000E+00 -0.00000000000E+00 -0.56517322837E+02  0.56517322895E+02  0.25500000000E-02 0. -1.
    5000001    1    1    2    0    0 -0.57137084424E+02 -0.33836415448E+02  0.33773357288E+03  0.39412880594E+03  0.19200000000E+03 0.  0.
   -5000001    1    1    2    0    0  0.57137084424E+02  0.33836415448E+02  0.33603390789E+03  0.39267332056E+03  0.19200000000E+03 0.  0.
<mgrwt>
<rscale>  0 0.40631880E+03</rscale>
<asrwt>0</asrwt>
<pdfrwt beam="1">  1        2 0.10432640E+00 0.40631880E+03</pdfrwt>
<pdfrwt beam="2">  1       -2 0.80739031E-02 0.40631880E+03</pdfrwt>
<totfact> 0.40913334E+03</totfact>
</mgrwt>
</event>
<event>
 4    1  0.5812319E-005  0.6657247E+03  0.7818608E-02  0.9777712E-01
         -2   -1    0    0    0  501 -0.00000000000E+00  0.00000000000E+00  0.10959842942E+03  0.10959842945E+03  0.25500000000E-02 0. -1.
          2   -1    0    0  501    0  0.00000000000E+00 -0.00000000000E+00 -0.10109390954E+04  0.10109390954E+04  0.25500000000E-02 0.  1.
    5000001    1    1    2    0    0 -0.63885456834E+02 -0.26246444058E+03 -0.39839930855E+03  0.51822287021E+03  0.19200000000E+03 0.  0.
   -5000001    1    1    2    0    0  0.63885456834E+02  0.26246444058E+03 -0.50294135742E+03  0.60231465462E+03  0.19200000000E+03 0.  0.
<mgrwt>
<rscale>  0 0.66572468E+03</rscale>
<asrwt>0</asrwt>
<pdfrwt beam="1">  1        2 0.14441987E+00 0.66572468E+03</pdfrwt>
<pdfrwt beam="2">  1       -2 0.15656919E-01 0.66572468E+03</pdfrwt>
<totfact> 0.90501904E+02</totfact>
</mgrwt>
</event>
<event>
 4    1  0.5812319E-005  0.5774324E+03  0.7818608E-02  0.9953365E-01
          2   -1    0    0  501    0  0.00000000000E+00  0.00000000000E+00  0.54008828971E+03  0.54008828972E+03  0.25500000000E-02 0.  1.
         -2   -1    0    0    0  501 -0.00000000000E+00 -0.00000000000E+00 -0.15433965664E+03  0.15433965666E+03  0.25500000000E-02 0. -1.
    5000001    1    1    2    0    0  0.68791677426E+02 -0.20254455644E+03  0.22551035074E+03  0.36534300392E+03  0.19200000000E+03 0.  0.
   -5000001    1    1    2    0    0 -0.68791677426E+02  0.20254455644E+03  0.16023828234E+03  0.32908494246E+03  0.19200000000E+03 0.  0.
<mgrwt>
<rscale>  0 0.57743239E+03</rscale>
<asrwt>0</asrwt>
<pdfrwt beam="1">  1        2 0.77155470E-01 0.57743239E+03</pdfrwt>
<pdfrwt beam="2">  1       -2 0.22048522E-01 0.57743239E+03</pdfrwt>
<totfact> 0.11042761E+03</totfact>
</mgrwt>
</event>
<event>
 4    1  0.5812319E-005  0.5043314E+03  0.7818608E-02  0.1012655E+00
          2   -1    0    0  501    0  0.00000000000E+00  0.00000000000E+00  0.92989957787E+03  0.92989957788E+03  0.25500000000E-02 0.  1.
         -2   -1    0    0    0  501 -0.00000000000E+00 -0.00000000000E+00 -0.68381078822E+02  0.68381078869E+02  0.25500000000E-02 0. -1.
    5000001    1    1    2    0    0  0.70470029789E+02 -0.10090213523E+03  0.64373050521E+03  0.68293501106E+03  0.19200000000E+03 0.  0.
   -5000001    1    1    2    0    0 -0.70470029789E+02  0.10090213523E+03  0.21778799384E+03  0.31534564569E+03  0.19200000000E+03 0.  0.
<mgrwt>
<rscale>  0 0.50433138E+03</rscale>
<asrwt>0</asrwt>
<pdfrwt beam="1">  1        2 0.13284279E+00 0.50433138E+03</pdfrwt>
<pdfrwt beam="2">  1       -2 0.97687262E-02 0.50433138E+03</pdfrwt>
<totfact> 0.22191597E+03</totfact>
</mgrwt>
</event>
<event>
 4    1  0.5812319E-005  0.8313003E+03  0.7818608E-02  0.9515785E-01
         -2   -1    0    0    0  501 -0.00000000000E+00  0.00000000000E+00  0.11950836981E+03  0.11950836983E+03  0.25500000000E-02 0. -1.
          2   -1    0    0  501    0  0.00000000000E+00 -0.00000000000E+00 -0.14456313694E+04  0.14456313694E+04  0.25500000000E-02 0.  1.
    5000001    1    1    2    0    0  0.22510324742E+03  0.29013912316E+03 -0.60208603952E+03  0.73090613745E+03  0.19200000000E+03 0.  0.
   -5000001    1    1    2    0    0 -0.22510324742E+03 -0.29013912316E+03 -0.72403696009E+03  0.83423360179E+03  0.19200000000E+03 0.  0.
<mgrwt>
<rscale>  0 0.83130030E+03</rscale>
<asrwt>0</asrwt>
<pdfrwt beam="1">  1        2 0.20651876E+00 0.83130030E+03</pdfrwt>
<pdfrwt beam="2">  1       -2 0.17072625E-01 0.83130030E+03</pdfrwt>
<totfact> 0.44136559E+02</totfact>
</mgrwt>
</event>
<event>
 4    1  0.5812319E-005  0.5581194E+03  0.7818608E-02  0.9996319E-01
         -2   -1    0    0    0  501 -0.00000000000E+00  0.00000000000E+00  0.77131064565E+02  0.77131064607E+02  0.25500000000E-02 0. -1.
          2   -1    0    0  501    0  0.00000000000E+00 -0.00000000000E+00 -0.10096361027E+04  0.10096361027E+04  0.25500000000E-02 0.  1.
    5000001    1    1    2    0    0  0.27522443215E+01  0.15931434755E+03 -0.70962594865E+03  0.75221115598E+03  0.19200000000E+03 0.  0.
   -5000001    1    1    2    0    0 -0.27522443215E+01 -0.15931434755E+03 -0.22287908948E+03  0.33455601132E+03  0.19200000000E+03 0.  0.
<mgrwt>
<rscale>  0 0.55811937E+03</rscale>
<asrwt>0</asrwt>
<pdfrwt beam="1">  1        2 0.14423372E+00 0.55811937E+03</pdfrwt>
<pdfrwt beam="2">  1       -2 0.11018724E-01 0.55811937E+03</pdfrwt>
<totfact> 0.16294359E+03</totfact>
</mgrwt>
</event>
<event>
 4    1  0.5812319E-005  0.1270018E+04  0.7818608E-02  0.9053685E-01
         -2   -1    0    0    0  501 -0.00000000000E+00  0.00000000000E+00  0.60200751197E+03  0.60200751198E+03  0.25500000000E-02 0. -1.
          2   -1    0    0  501    0  0.00000000000E+00 -0.00000000000E+00 -0.66981935939E+03  0.66981935939E+03  0.25500000000E-02 0.  1.
    5000001    1    1    2    0    0 -0.22890898283E+03  0.55475993039E+03  0.45037728415E+02  0.63170428190E+03  0.19200000000E+03 0.  0.
   -5000001    1    1    2    0    0  0.22890898283E+03 -0.55475993039E+03 -0.11284957583E+03  0.64012258947E+03  0.19200000000E+03 0.  0.
<mgrwt>
<rscale>  0 0.12700178E+04</rscale>
<asrwt>0</asrwt>
<pdfrwt beam="1">  1        2 0.95688480E-01 0.12700178E+04</pdfrwt>
<pdfrwt beam="2">  1       -2 0.86001073E-01 0.12700178E+04</pdfrwt>
<totfact> 0.54835993E+01</totfact>
</mgrwt>
</event>
<event>
 4    1  0.5812319E-005  0.7427112E+03  0.7818608E-02  0.9646855E-01
          2   -1    0    0  501    0  0.00000000000E+00  0.00000000000E+00  0.16269024481E+04  0.16269024481E+04  0.25500000000E-02 0.  1.
         -2   -1    0    0    0  501 -0.00000000000E+00 -0.00000000000E+00 -0.84765366330E+02  0.84765366369E+02  0.25500000000E-02 0. -1.
    5000001    1    1    2    0    0 -0.14329375745E+03 -0.27178641283E+03  0.95886371616E+03  0.10250290636E+04  0.19200000000E+03 0.  0.
   -5000001    1    1    2    0    0  0.14329375745E+03  0.27178641283E+03  0.58327336560E+03  0.68663875083E+03  0.19200000000E+03 0.  0.
<mgrwt>
<rscale>  0 0.74271120E+03</rscale>
<asrwt>0</asrwt>
<pdfrwt beam="1">  1        2 0.23241461E+00 0.74271120E+03</pdfrwt>
<pdfrwt beam="2">  1       -2 0.12109339E-01 0.74271120E+03</pdfrwt>
<totfact> 0.63570717E+02</totfact>
</mgrwt>
</event>
<event>
 4    1  0.5812319E-005  0.4429134E+03  0.7818608E-02  0.1029857E+00
         -2   -1    0    0    0  501 -0.00000000000E+00  0.00000000000E+00  0.18106015974E+02  0.18106016154E+02  0.25500000000E-02 0. -1.
          2   -1    0    0  501    0  0.00000000000E+00 -0.00000000000E+00 -0.27086614438E+04  0.27086614438E+04  0.25500000000E-02 0.  1.
    5000001    1    1    2    0    0  0.98535632402E+02  0.25021672867E+02 -0.16096256423E+04  0.16242210636E+04  0.19200000000E+03 0.  0.
   -5000001    1    1    2    0    0 -0.98535632402E+02 -0.25021672867E+02 -0.10809297855E+04  0.11025463964E+04  0.19200000000E+03 0.  0.
<mgrwt>
<rscale>  0 0.44291339E+03</rscale>
<asrwt>0</asrwt>
<pdfrwt beam="1">  1        2 0.38695138E+00 0.44291339E+03</pdfrwt>
<pdfrwt beam="2">  1       -2 0.25865755E-02 0.44291339E+03</pdfrwt>
<totfact> 0.20487306E+03</totfact>
</mgrwt>
</event>
<event>
 4    1  0.5812319E-005  0.1184628E+04  0.7818608E-02  0.9126419E-01
         -2   -1    0    0    0  501 -0.00000000000E+00  0.00000000000E+00  0.11976528345E+03  0.11976528347E+03  0.25500000000E-02 0. -1.
          2   -1    0    0  501    0  0.00000000000E+00 -0.00000000000E+00 -0.29293616644E+04  0.29293616644E+04  0.25500000000E-02 0.  1.
    5000001    1    1    2    0    0  0.47721482256E+03  0.29058482775E+03 -0.15139484436E+04  0.16251391998E+04  0.19200000000E+03 0.  0.
   -5000001    1    1    2    0    0 -0.47721482256E+03 -0.29058482775E+03 -0.12956479374E+04  0.14239877481E+04  0.19200000000E+03 0.  0.
<mgrwt>
<rscale>  0 0.11846279E+04</rscale>
<asrwt>0</asrwt>
<pdfrwt beam="1">  1        2 0.41848019E+00 0.11846279E+04</pdfrwt>
<pdfrwt beam="2">  1       -2 0.17109328E-01 0.11846279E+04</pdfrwt>
<totfact> 0.72344371E+01</totfact>
</mgrwt>
</event>
<event>
 4    1  0.5812319E-005  0.4728647E+03  0.7818608E-02  0.1021115E+00
         -2   -1    0    0    0  501 -0.00000000000E+00  0.00000000000E+00  0.25761823305E+03  0.25761823306E+03  0.25500000000E-02 0. -1.
          2   -1    0    0  501    0  0.00000000000E+00 -0.00000000000E+00 -0.21698877332E+03  0.21698877333E+03  0.25500000000E-02 0.  1.
    5000001    1    1    2    0    0 -0.12509281286E+03 -0.41058737644E+02  0.61724867320E+02  0.24084848144E+03  0.19200000000E+03 0.  0.
   -5000001    1    1    2    0    0  0.12509281286E+03  0.41058737644E+02 -0.21095407587E+02  0.23375852495E+03  0.19200000000E+03 0.  0.
<mgrwt>
<rscale>  0 0.47286473E+03</rscale>
<asrwt>0</asrwt>
<pdfrwt beam="1">  1        2 0.30998396E-01 0.47286473E+03</pdfrwt>
<pdfrwt beam="2">  1       -2 0.36802605E-01 0.47286473E+03</pdfrwt>
<totfact> 0.11913386E+03</totfact>
</mgrwt>
</event>
<event>
 4    1  0.5812319E-005  0.4628161E+03  0.7818608E-02  0.1023968E+00
          2   -1    0    0  501    0  0.00000000000E+00  0.00000000000E+00  0.50690301916E+03  0.50690301917E+03  0.25500000000E-02 0.  1.
         -2   -1    0    0    0  501 -0.00000000000E+00 -0.00000000000E+00 -0.10564090417E+03  0.10564090420E+03  0.25500000000E-02 0. -1.
    5000001    1    1    2    0    0 -0.27855391147E+02 -0.14379274700E+02  0.36648284534E+03  0.41491729572E+03  0.19200000000E+03 0.  0.
   -5000001    1    1    2    0    0  0.27855391147E+02  0.14379274700E+02  0.34779269652E+02  0.19762662765E+03  0.19200000000E+03 0.  0.
<mgrwt>
<rscale>  0 0.46281613E+03</rscale>
<asrwt>0</asrwt>
<pdfrwt beam="1">  1        2 0.72414717E-01 0.46281613E+03</pdfrwt>
<pdfrwt beam="2">  1       -2 0.15091558E-01 0.46281613E+03</pdfrwt>
<totfact> 0.22749846E+03</totfact>
</mgrwt>
</event>
<event>
 4    1  0.5812319E-005  0.5928718E+03  0.7818608E-02  0.9920306E-01
         -2   -1    0    0    0  501 -0.00000000000E+00  0.00000000000E+00  0.73430253778E+02  0.73430253822E+02  0.25500000000E-02 0. -1.
          2   -1    0    0  501    0  0.00000000000E+00 -0.00000000000E+00 -0.11967034265E+04  0.11967034265E+04  0.25500000000E-02 0.  1.
    5000001    1    1    2    0    0  0.23858425099E+02  0.21231746425E+03 -0.71851545991E+03  0.77380643329E+03  0.19200000000E+03 0.  0.
   -5000001    1    1    2    0    0 -0.23858425099E+02 -0.21231746425E+03 -0.40475771285E+03  0.49632724707E+03  0.19200000000E+03 0.  0.
<mgrwt>
<rscale>  0 0.59287178E+03</rscale>
<asrwt>0</asrwt>
<pdfrwt beam="1">  1        2 0.17095762E+00 0.59287178E+03</pdfrwt>
<pdfrwt beam="2">  1       -2 0.10490037E-01 0.59287178E+03</pdfrwt>
<totfact> 0.13735302E+03</totfact>
</mgrwt>
</event>
<event>
 4    1  0.5812319E-005  0.6630553E+03  0.7818608E-02  0.9782586E-01
          2   -1    0    0  501    0  0.00000000000E+00  0.00000000000E+00  0.12847055571E+04  0.12847055571E+04  0.25500000000E-02 0.  1.
         -2   -1    0    0    0  501 -0.00000000000E+00 -0.00000000000E+00 -0.85553133734E+02  0.85553133772E+02  0.25500000000E-02 0. -1.
    5000001    1    1    2    0    0 -0.21780105441E+03  0.13502313167E+03  0.77708642204E+03  0.84047358835E+03  0.19200000000E+03 0.  0.
   -5000001    1    1    2    0    0  0.21780105441E+03 -0.13502313167E+03  0.42206600133E+03  0.52978510254E+03  0.19200000000E+03 0.  0.
<mgrwt>
<rscale>  0 0.66305531E+03</rscale>
<asrwt>0</asrwt>
<pdfrwt beam="1">  1        2 0.18352938E+00 0.66305531E+03</pdfrwt>
<pdfrwt beam="2">  1       -2 0.12221876E-01 0.66305531E+03</pdfrwt>
<totfact> 0.95352786E+02</totfact>
</mgrwt>
</event>
<event>
 4    1  0.5812319E-005  0.4634761E+03  0.7818608E-02  0.1023778E+00
          2   -1    0    0  501    0  0.00000000000E+00  0.00000000000E+00  0.45549541109E+03  0.45549541110E+03  0.25500000000E-02 0.  1.
         -2   -1    0    0    0  501 -0.00000000000E+00 -0.00000000000E+00 -0.11789916579E+03  0.11789916582E+03  0.25500000000E-02 0. -1.
    5000001    1    1    2    0    0 -0.11168089254E+03 -0.85821026696E+01  0.24985109793E+03  0.33441866781E+03  0.19200000000E+03 0.  0.
   -5000001    1    1    2    0    0  0.11168089254E+03  0.85821026696E+01  0.87745147376E+02  0.23897590910E+03  0.19200000000E+03 0.  0.
<mgrwt>
<rscale>  0 0.46347612E+03</rscale>
<asrwt>0</asrwt>
<pdfrwt beam="1">  1        2 0.65070774E-01 0.46347612E+03</pdfrwt>
<pdfrwt beam="2">  1       -2 0.16842738E-01 0.46347612E+03</pdfrwt>
<totfact> 0.21319126E+03</totfact>
</mgrwt>
</event>
<event>
 4    1  0.5812319E-005  0.5016776E+03  0.7818608E-02  0.1013342E+00
         -2   -1    0    0    0  501 -0.00000000000E+00  0.00000000000E+00  0.21127676975E+02  0.21127677129E+02  0.25500000000E-02 0. -1.
          2   -1    0    0  501    0  0.00000000000E+00 -0.00000000000E+00 -0.29780893633E+04  0.29780893633E+04  0.25500000000E-02 0.  1.
    5000001    1    1    2    0    0 -0.35136097671E+02  0.15527382664E+03 -0.13190022992E+04  0.13423768367E+04  0.19200000000E+03 0.  0.
   -5000001    1    1    2    0    0  0.35136097671E+02 -0.15527382664E+03 -0.16379593872E+04  0.16568402037E+04  0.19200000000E+03 0.  0.
<mgrwt>
<rscale>  0 0.50167763E+03</rscale>
<asrwt>0</asrwt>
<pdfrwt beam="1">  1        2 0.42544107E+00 0.50167763E+03</pdfrwt>
<pdfrwt beam="2">  1       -2 0.30182415E-02 0.50167763E+03</pdfrwt>
<totfact> 0.11639195E+03</totfact>
</mgrwt>
</event>
<event>
 4    1  0.5812319E-005  0.4973156E+03  0.7818608E-02  0.1014482E+00
         -2   -1    0    0    0  501 -0.00000000000E+00  0.00000000000E+00  0.84731841898E+02  0.84731841937E+02  0.25500000000E-02 0. -1.
          2   -1    0    0  501    0  0.00000000000E+00 -0.00000000000E+00 -0.72972200609E+03  0.72972200610E+03  0.25500000000E-02 0.  1.
    5000001    1    1    2    0    0 -0.13951168835E+03 -0.45931659720E+00 -0.20100721347E+03  0.31101707674E+03  0.19200000000E+03 0.  0.
   -5000001    1    1    2    0    0  0.13951168835E+03  0.45931659720E+00 -0.44398295073E+03  0.50343677129E+03  0.19200000000E+03 0.  0.
<mgrwt>
<rscale>  0 0.49731555E+03</rscale>
<asrwt>0</asrwt>
<pdfrwt beam="1">  1        2 0.10424600E+00 0.49731555E+03</pdfrwt>
<pdfrwt beam="2">  1       -2 0.12104549E-01 0.49731555E+03</pdfrwt>
<totfact> 0.21385368E+03</totfact>
</mgrwt>
</event>
<event>
 4    1  0.5812319E-005  0.7632580E+03  0.7818608E-02  0.9614777E-01
          2   -1    0    0  501    0  0.00000000000E+00  0.00000000000E+00  0.60943271556E+03  0.60943271557E+03  0.25500000000E-02 0.  1.
         -2   -1    0    0    0  501 -0.00000000000E+00 -0.00000000000E+00 -0.23897750640E+03  0.23897750642E+03  0.25500000000E-02 0. -1.
    5000001    1    1    2    0    0  0.11586755547E+03  0.30561341544E+03  0.23433635683E+03  0.44564826740E+03  0.19200000000E+03 0.  0.
   -5000001    1    1    2    0    0 -0.11586755547E+03 -0.30561341544E+03  0.13611885233E+03  0.40276195459E+03  0.19200000000E+03 0.  0.
<mgrwt>
<rscale>  0 0.76325804E+03</rscale>
<asrwt>0</asrwt>
<pdfrwt beam="1">  1        2 0.87061816E-01 0.76325804E+03</pdfrwt>
<pdfrwt beam="2">  1       -2 0.34139644E-01 0.76325804E+03</pdfrwt>
<totfact> 0.42978654E+02</totfact>
</mgrwt>
</event>
<event>
 4    1  0.5812319E-005  0.5263123E+03  0.7818608E-02  0.1007130E+00
          2   -1    0    0  501    0  0.00000000000E+00  0.00000000000E+00  0.45414605976E+02  0.45414606048E+02  0.25500000000E-02 0.  1.
         -2   -1    0    0    0  501 -0.00000000000E+00 -0.00000000000E+00 -0.15248653118E+04  0.15248653118E+04  0.25500000000E-02 0. -1.
    5000001    1    1    2    0    0  0.10391190841E+03  0.14350422285E+03 -0.83388515999E+03  0.87385330963E+03  0.19200000000E+03 0.  0.
   -5000001    1    1    2    0    0 -0.10391190841E+03 -0.14350422285E+03 -0.64556554587E+03  0.69642660827E+03  0.19200000000E+03 0.  0.
<mgrwt>
<rscale>  0 0.52631229E+03</rscale>
<asrwt>0</asrwt>
<pdfrwt beam="1">  1        2 0.64878018E-02 0.52631229E+03</pdfrwt>
<pdfrwt beam="2">  1       -2 0.21783787E+00 0.52631229E+03</pdfrwt>
<totfact> 0.12297833E+02</totfact>
</mgrwt>
</event>
<event>
 4    1  0.5812319E-005  0.4777738E+03  0.7818608E-02  0.1019749E+00
          2   -1    0    0  501    0  0.00000000000E+00  0.00000000000E+00  0.21335684883E+04  0.21335684883E+04  0.25500000000E-02 0.  1.
         -2   -1    0    0    0  501 -0.00000000000E+00 -0.00000000000E+00 -0.26747182235E+02  0.26747182357E+02  0.25500000000E-02 0. -1.
    5000001    1    1    2    0    0  0.12356802834E+03  0.40106957150E+02  0.79266828384E+03  0.82587204447E+03  0.19200000000E+03 0.  0.
   -5000001    1    1    2    0    0 -0.12356802834E+03 -0.40106957150E+02  0.13141530222E+04  0.13344436262E+04  0.19200000000E+03 0.  0.
<mgrwt>
<rscale>  0 0.47777378E+03</rscale>
<asrwt>0</asrwt>
<pdfrwt beam="1">  1        2 0.30479555E+00 0.47777378E+03</pdfrwt>
<pdfrwt beam="2">  1       -2 0.38210254E-02 0.47777378E+03</pdfrwt>
<totfact> 0.22155849E+03</totfact>
</mgrwt>
</event>
<event>
 4    1  0.5812319E-005  0.6290754E+03  0.7818608E-02  0.9846855E-01
          2   -1    0    0  501    0  0.00000000000E+00  0.00000000000E+00  0.15433647686E+04  0.15433647686E+04  0.25500000000E-02 0.  1.
         -2   -1    0    0    0  501 -0.00000000000E+00 -0.00000000000E+00 -0.64102777858E+02  0.64102777908E+02  0.25500000000E-02 0. -1.
    5000001    1    1    2    0    0  0.23127777539E+03  0.81881557731E+01  0.50385807611E+03  0.58676521382E+03  0.19200000000E+03 0.  0.
   -5000001    1    1    2    0    0 -0.23127777539E+03 -0.81881557731E+01  0.97540391464E+03  0.10207023327E+04  0.19200000000E+03 0.  0.
<mgrwt>
<rscale>  0 0.62907541E+03</rscale>
<asrwt>0</asrwt>
<pdfrwt beam="1">  1        2 0.22048066E+00 0.62907541E+03</pdfrwt>
<pdfrwt beam="2">  1       -2 0.91575407E-02 0.62907541E+03</pdfrwt>
<totfact> 0.11138904E+03</totfact>
</mgrwt>
</event>
<event>
 4    1  0.5812319E-005  0.4498908E+03  0.7818608E-02  0.1027755E+00
          2   -1    0    0  501    0  0.00000000000E+00  0.00000000000E+00  0.72468839456E+03  0.72468839457E+03  0.25500000000E-02 0.  1.
         -2   -1    0    0    0  501 -0.00000000000E+00 -0.00000000000E+00 -0.69823703921E+02  0.69823703967E+02  0.25500000000E-02 0. -1.
    5000001    1    1    2    0    0  0.98328436642E+02  0.35592232366E+02  0.23396481013E+03  0.32021683410E+03  0.19200000000E+03 0.  0.
   -5000001    1    1    2    0    0 -0.98328436642E+02 -0.35592232366E+02  0.42089988051E+03  0.47429526444E+03  0.19200000000E+03 0.  0.
<mgrwt>
<rscale>  0 0.44989078E+03</rscale>
<asrwt>0</asrwt>
<pdfrwt beam="1">  1        2 0.10352692E+00 0.44989078E+03</pdfrwt>
<pdfrwt beam="2">  1       -2 0.99748143E-02 0.44989078E+03</pdfrwt>
<totfact> 0.29517458E+03</totfact>
</mgrwt>
</event>
<event>
 4    1  0.5812319E-005  0.9269827E+03  0.7818608E-02  0.9392466E-01
         -2   -1    0    0    0  501 -0.00000000000E+00  0.00000000000E+00  0.10127415700E+03  0.10127415704E+03  0.25500000000E-02 0. -1.
          2   -1    0    0  501    0  0.00000000000E+00 -0.00000000000E+00 -0.21212147996E+04  0.21212147996E+04  0.25500000000E-02 0.  1.
    5000001    1    1    2    0    0 -0.25461911316E+02 -0.40940408085E+03 -0.77383606412E+03  0.89663050610E+03  0.19200000000E+03 0.  0.
   -5000001    1    1    2    0    0  0.25461911316E+02  0.40940408085E+03 -0.12461045785E+04  0.13258584506E+04  0.19200000000E+03 0.  0.
<mgrwt>
<rscale>  0 0.92698272E+03</rscale>
<asrwt>0</asrwt>
<pdfrwt beam="1">  1        2 0.30303066E+00 0.92698272E+03</pdfrwt>
<pdfrwt beam="2">  1       -2 0.14467738E-01 0.92698272E+03</pdfrwt>
<totfact> 0.26116216E+02</totfact>
</mgrwt>
</event>
<event>
 4    1  0.5812319E-005  0.1655949E+04  0.7818608E-02  0.8786895E-01
         -2   -1    0    0    0  501 -0.00000000000E+00  0.00000000000E+00  0.23265769594E+03  0.23265769596E+03  0.25500000000E-02 0. -1.
          2   -1    0    0  501    0  0.00000000000E+00 -0.00000000000E+00 -0.29465698938E+04  0.29465698938E+04  0.25500000000E-02 0.  1.
    5000001    1    1    2    0    0  0.25865871834E+03  0.73334377376E+03 -0.95432640493E+03  0.12459134441E+04  0.19200000000E+03 0.  0.
   -5000001    1    1    2    0    0 -0.25865871834E+03 -0.73334377376E+03 -0.17595857929E+04  0.19333141457E+04  0.19200000000E+03 0.  0.
<mgrwt>
<rscale>  0 0.16559495E+04</rscale>
<asrwt>0</asrwt>
<pdfrwt beam="1">  1        2 0.42093853E+00 0.16559495E+04</pdfrwt>
<pdfrwt beam="2">  1       -2 0.33236816E-01 0.16559495E+04</pdfrwt>
<totfact> 0.20499564E+01</totfact>
</mgrwt>
</event>
<event>
 4    1  0.5812319E-005  0.4861559E+03  0.7818608E-02  0.1017457E+00
         -2   -1    0    0    0  501 -0.00000000000E+00  0.00000000000E+00  0.69224613096E+02  0.69224613143E+02  0.25500000000E-02 0. -1.
          2   -1    0    0  501    0  0.00000000000E+00 -0.00000000000E+00 -0.85355322222E+03  0.85355322223E+03  0.25500000000E-02 0.  1.
    5000001    1    1    2    0    0 -0.55947424266E+02 -0.10151776090E+03 -0.57009052811E+03  0.61261993136E+03  0.19200000000E+03 0.  0.
   -5000001    1    1    2    0    0  0.55947424266E+02  0.10151776090E+03 -0.21423808102E+03  0.31015790401E+03  0.19200000000E+03 0.  0.
<mgrwt>
<rscale>  0 0.48615591E+03</rscale>
<asrwt>0</asrwt>
<pdfrwt beam="1">  1        2 0.12193617E+00 0.48615591E+03</pdfrwt>
<pdfrwt beam="2">  1       -2 0.98892310E-02 0.48615591E+03</pdfrwt>
<totfact> 0.24367494E+03</totfact>
</mgrwt>
</event>
<event>
 4    1  0.5812319E-005  0.4973052E+03  0.7818608E-02  0.1014485E+00
         -2   -1    0    0    0  501 -0.00000000000E+00  0.00000000000E+00  0.75573585949E+03  0.75573585949E+03  0.25500000000E-02 0.  1.
          2   -1    0    0  501    0  0.00000000000E+00 -0.00000000000E+00 -0.81811809889E+02  0.81811809929E+02  0.25500000000E-02 0. -1.
    5000001    1    1    2    0    0 -0.12336712965E+03 -0.75665444848E+02  0.44373656057E+03  0.50468885802E+03  0.19200000000E+03 0.  0.
   -5000001    1    1    2    0    0  0.12336712965E+03  0.75665444848E+02  0.23018748903E+03  0.33285881141E+03  0.19200000000E+03 0.  0.
<mgrwt>
<rscale>  0 0.49730521E+03</rscale>
<asrwt>0</asrwt>
<pdfrwt beam="1">  1        2 0.11687401E-01 0.49730521E+03</pdfrwt>
<pdfrwt beam="2">  1       -2 0.10796227E+00 0.49730521E+03</pdfrwt>
<totfact> 0.37939350E+02</totfact>
</mgrwt>
</event>
<event>
 4    1  0.5812319E-005  0.7945746E+03  0.7818608E-02  0.9567904E-01
          2   -1    0    0  501    0  0.00000000000E+00  0.00000000000E+00  0.61181431252E+03  0.61181431252E+03  0.25500000000E-02 0.  1.
         -2   -1    0    0    0  501 -0.00000000000E+00 -0.00000000000E+00 -0.25798216188E+03  0.25798216189E+03  0.25500000000E-02 0. -1.
    5000001    1    1    2    0    0  0.34577297987E+03  0.31590819344E+02  0.15458252381E+03  0.42581297555E+03  0.19200000000E+03 0.  0.
   -5000001    1    1    2    0    0 -0.34577297987E+03 -0.31590819344E+02  0.19924962683E+03  0.44398349887E+03  0.19200000000E+03 0.  0.
<mgrwt>
<rscale>  0 0.79457455E+03</rscale>
<asrwt>0</asrwt>
<pdfrwt beam="1">  1        2 0.87402044E-01 0.79457455E+03</pdfrwt>
<pdfrwt beam="2">  1       -2 0.36854595E-01 0.79457455E+03</pdfrwt>
<totfact> 0.36930027E+02</totfact>
</mgrwt>
</event>
<event>
 4    1  0.5812319E-005  0.4335738E+03  0.7818608E-02  0.1032737E+00
          2   -1    0    0  501    0  0.00000000000E+00  0.00000000000E+00  0.80923749271E+03  0.80923749271E+03  0.25500000000E-02 0.  1.
         -2   -1    0    0    0  501 -0.00000000000E+00 -0.00000000000E+00 -0.58075106830E+02  0.58075106886E+02  0.25500000000E-02 0. -1.
    5000001    1    1    2    0    0 -0.72594719706E+02  0.69706808947E+02  0.37933494536E+03  0.43690735095E+03  0.19200000000E+03 0.  0.
   -5000001    1    1    2    0    0  0.72594719706E+02 -0.69706808947E+02  0.37182744052E+03  0.43040524865E+03  0.19200000000E+03 0.  0.
<mgrwt>
<rscale>  0 0.43357377E+03</rscale>
<asrwt>0</asrwt>
<pdfrwt beam="1">  1        2 0.11560535E+00 0.43357377E+03</pdfrwt>
<pdfrwt beam="2">  1       -2 0.82964441E-02 0.43357377E+03</pdfrwt>
<totfact> 0.34521116E+03</totfact>
</mgrwt>
</event>
<event>
 4    1  0.5812319E-005  0.5949572E+03  0.7818608E-02  0.9915924E-01
         -2   -1    0    0    0  501 -0.00000000000E+00  0.00000000000E+00  0.55000659017E+02  0.55000659076E+02  0.25500000000E-02 0. -1.
          2   -1    0    0  501    0  0.00000000000E+00 -0.00000000000E+00 -0.16089540336E+04  0.16089540336E+04  0.25500000000E-02 0.  1.
    5000001    1    1    2    0    0 -0.18281511368E+03  0.42140951156E+02 -0.11354897645E+04  0.11667897115E+04  0.19200000000E+03 0.  0.
   -5000001    1    1    2    0    0  0.18281511368E+03 -0.42140951156E+02 -0.41846361008E+03  0.49716498118E+03  0.19200000000E+03 0.  0.
<mgrwt>
<rscale>  0 0.59495725E+03</rscale>
<asrwt>0</asrwt>
<pdfrwt beam="1">  1        2 0.22985055E+00 0.59495725E+03</pdfrwt>
<pdfrwt beam="2">  1       -2 0.78572380E-02 0.59495725E+03</pdfrwt>
<totfact> 0.13185384E+03</totfact>
</mgrwt>
</event>
<event>
 4    1  0.5812319E-005  0.4892873E+03  0.7818608E-02  0.1016614E+00
         -2   -1    0    0    0  501 -0.00000000000E+00  0.00000000000E+00  0.11311156998E+03  0.11311157001E+03  0.25500000000E-02 0. -1.
          2   -1    0    0  501    0  0.00000000000E+00 -0.00000000000E+00 -0.52912805140E+03  0.52912805140E+03  0.25500000000E-02 0.  1.
    5000001    1    1    2    0    0 -0.13440532592E+03  0.23019678427E+02 -0.12102114445E+03  0.26477313805E+03  0.19200000000E+03 0.  0.
   -5000001    1    1    2    0    0  0.13440532592E+03 -0.23019678427E+02 -0.29499533696E+03  0.37746648336E+03  0.19200000000E+03 0.  0.
<mgrwt>
<rscale>  0 0.48928726E+03</rscale>
<asrwt>0</asrwt>
<pdfrwt beam="1">  1        2 0.75589720E-01 0.48928726E+03</pdfrwt>
<pdfrwt beam="2">  1       -2 0.16158796E-01 0.48928726E+03</pdfrwt>
<totfact> 0.19323546E+03</totfact>
</mgrwt>
</event>
<event>
 4    1  0.5812319E-005  0.4473342E+03  0.7818608E-02  0.1028520E+00
         -2   -1    0    0    0  501 -0.00000000000E+00  0.00000000000E+00  0.23165624514E+02  0.23165624654E+02  0.25500000000E-02 0. -1.
          2   -1    0    0  501    0  0.00000000000E+00 -0.00000000000E+00 -0.21595344163E+04  0.21595344163E+04  0.25500000000E-02 0.  1.
    5000001    1    1    2    0    0 -0.10238299031E+03 -0.51635028425E+02 -0.10867712634E+04  0.11095423525E+04  0.19200000000E+03 0.  0.
   -5000001    1    1    2    0    0  0.10238299031E+03  0.51635028425E+02 -0.10495975284E+04  0.10731576885E+04  0.19200000000E+03 0.  0.
<mgrwt>
<rscale>  0 0.44733416E+03</rscale>
<asrwt>0</asrwt>
<pdfrwt beam="1">  1        2 0.30850479E+00 0.44733416E+03</pdfrwt>
<pdfrwt beam="2">  1       -2 0.33093763E-02 0.44733416E+03</pdfrwt>
<totfact> 0.26791037E+03</totfact>
</mgrwt>
</event>
<event>
 4    1  0.5812319E-005  0.4380878E+03  0.7818608E-02  0.1031335E+00
         -2   -1    0    0    0  501 -0.00000000000E+00  0.00000000000E+00  0.68174690948E+02  0.68174690996E+02  0.25500000000E-02 0. -1.
          2   -1    0    0  501    0  0.00000000000E+00 -0.00000000000E+00 -0.70378369105E+03  0.70378369105E+03  0.25500000000E-02 0.  1.
    5000001    1    1    2    0    0 -0.71367696781E+01  0.99067090601E+02 -0.38012970874E+03  0.43729602947E+03  0.19200000000E+03 0.  0.
   -5000001    1    1    2    0    0  0.71367696781E+01 -0.99067090601E+02 -0.25547929136E+03  0.33466235258E+03  0.19200000000E+03 0.  0.
<mgrwt>
<rscale>  0 0.43808783E+03</rscale>
<asrwt>0</asrwt>
<pdfrwt beam="1">  1        2 0.10054052E+00 0.43808783E+03</pdfrwt>
<pdfrwt beam="2">  1       -2 0.97392419E-02 0.43808783E+03</pdfrwt>
<totfact> 0.31778092E+03</totfact>
</mgrwt>
</event>
<event>
 4    1  0.5812319E-005  0.5184453E+03  0.7818608E-02  0.1009073E+00
          2   -1    0    0  501    0  0.00000000000E+00  0.00000000000E+00  0.22247044049E+03  0.22247044051E+03  0.25500000000E-02 0.  1.
         -2   -1    0    0    0  501 -0.00000000000E+00 -0.00000000000E+00 -0.30204636820E+03  0.30204636821E+03  0.25500000000E-02 0. -1.
    5000001    1    1    2    0    0  0.70256144299E+02 -0.14535445063E+03 -0.10588720208E+03  0.27228650663E+03  0.19200000000E+03 0.  0.
   -5000001    1    1    2    0    0 -0.70256144299E+02  0.14535445063E+03  0.26311274378E+02  0.25223030208E+03  0.19200000000E+03 0.  0.
<mgrwt>
<rscale>  0 0.51844532E+03</rscale>
<asrwt>0</asrwt>
<pdfrwt beam="1">  1        2 0.31781492E-01 0.51844532E+03</pdfrwt>
<pdfrwt beam="2">  1       -2 0.43149481E-01 0.51844532E+03</pdfrwt>
<totfact> 0.85206031E+02</totfact>
</mgrwt>
</event>
<event>
 4    1  0.5812319E-005  0.5129272E+03  0.7818608E-02  0.1010459E+00
         -2   -1    0    0    0  501 -0.00000000000E+00  0.00000000000E+00  0.47924992582E+02  0.47924992650E+02  0.25500000000E-02 0. -1.
          2   -1    0    0  501    0  0.00000000000E+00 -0.00000000000E+00 -0.13724274090E+04  0.13724274090E+04  0.25500000000E-02 0.  1.
    5000001    1    1    2    0    0 -0.31732273969E+02 -0.16599701037E+03 -0.61062166781E+03  0.66203078921E+03  0.19200000000E+03 0.  0.
   -5000001    1    1    2    0    0  0.31732273969E+02  0.16599701037E+03 -0.71388074861E+03  0.75832161245E+03  0.19200000000E+03 0.  0.
<mgrwt>
<rscale>  0 0.51292718E+03</rscale>
<asrwt>0</asrwt>
<pdfrwt beam="1">  1        2 0.19606103E+00 0.51292718E+03</pdfrwt>
<pdfrwt beam="2">  1       -2 0.68464284E-02 0.51292718E+03</pdfrwt>
<totfact> 0.21827117E+03</totfact>
</mgrwt>
</event>
<event>
 4    1  0.5812319E-005  0.1173062E+04  0.7818608E-02  0.9136768E-01
         -2   -1    0    0    0  501 -0.00000000000E+00  0.00000000000E+00  0.25717714914E+03  0.25717714915E+03  0.25500000000E-02 0. -1.
          2   -1    0    0  501    0  0.00000000000E+00 -0.00000000000E+00 -0.13376715132E+04  0.13376715132E+04  0.25500000000E-02 0.  1.
    5000001    1    1    2    0    0  0.14264893099E+03 -0.38397278083E+03 -0.32690738386E+02  0.45355980676E+03  0.19200000000E+03 0.  0.
   -5000001    1    1    2    0    0 -0.14264893099E+03  0.38397278083E+03 -0.10478036257E+04  0.11412888556E+04  0.19200000000E+03 0.  0.
<mgrwt>
<rscale>  0 0.11730619E+04</rscale>
<asrwt>0</asrwt>
<pdfrwt beam="1">  1        2 0.19109593E+00 0.11730619E+04</pdfrwt>
<pdfrwt beam="2">  1       -2 0.36739593E-01 0.11730619E+04</pdfrwt>
<totfact> 0.12329907E+02</totfact>
</mgrwt>
</event>
<event>
 4    1  0.5812319E-005  0.5033277E+03  0.7818608E-02  0.1012914E+00
         -2   -1    0    0    0  501 -0.00000000000E+00  0.00000000000E+00  0.51216622437E+03  0.51216622438E+03  0.25500000000E-02 0. -1.
          2   -1    0    0  501    0  0.00000000000E+00 -0.00000000000E+00 -0.12366041773E+03  0.12366041775E+03  0.25500000000E-02 0.  1.
    5000001    1    1    2    0    0  0.13029610641E+03  0.66063131183E+02  0.10378053396E+03  0.26263246539E+03  0.19200000000E+03 0.  0.
   -5000001    1    1    2    0    0 -0.13029610641E+03 -0.66063131183E+02  0.28472527269E+03  0.37319417674E+03  0.19200000000E+03 0.  0.
<mgrwt>
<rscale>  0 0.50332768E+03</rscale>
<asrwt>0</asrwt>
<pdfrwt beam="1">  1        2 0.17665774E-01 0.50332768E+03</pdfrwt>
<pdfrwt beam="2">  1       -2 0.73166604E-01 0.50332768E+03</pdfrwt>
<totfact> 0.55962747E+02</totfact>
</mgrwt>
</event>
<event>
 4    1  0.5812319E-005  0.5330315E+03  0.7818608E-02  0.1005500E+00
         -2   -1    0    0    0  501 -0.00000000000E+00  0.00000000000E+00  0.55213136818E+02  0.55213136877E+02  0.25500000000E-02 0. -1.
          2   -1    0    0  501    0  0.00000000000E+00 -0.00000000000E+00 -0.12864809754E+04  0.12864809754E+04  0.25500000000E-02 0.  1.
    5000001    1    1    2    0    0 -0.15299168274E+03  0.57032334737E+02 -0.39753750572E+03  0.47070076550E+03  0.19200000000E+03 0.  0.
   -5000001    1    1    2    0    0  0.15299168274E+03 -0.57032334737E+02 -0.83373033285E+03  0.87099334677E+03  0.19200000000E+03 0.  0.
<mgrwt>
<rscale>  0 0.53303152E+03</rscale>
<asrwt>0</asrwt>
<pdfrwt beam="1">  1        2 0.18378298E+00 0.53303152E+03</pdfrwt>
<pdfrwt beam="2">  1       -2 0.78875917E-02 0.53303152E+03</pdfrwt>
<totfact> 0.19401943E+03</totfact>
</mgrwt>
</event>
<event>
 4    1  0.5812319E-005  0.5468195E+03  0.7818608E-02  0.1002233E+00
         -2   -1    0    0    0  501 -0.00000000000E+00  0.00000000000E+00  0.99328395490E+02  0.99328395523E+02  0.25500000000E-02 0. -1.
          2   -1    0    0  501    0  0.00000000000E+00 -0.00000000000E+00 -0.75258325466E+03  0.75258325467E+03  0.25500000000E-02 0.  1.
    5000001    1    1    2    0    0 -0.32569322783E+02 -0.19024134230E+03 -0.36592822622E+03  0.45609209141E+03  0.19200000000E+03 0.  0.
   -5000001    1    1    2    0    0  0.32569322783E+02  0.19024134230E+03 -0.28732663295E+03  0.39581955878E+03  0.19200000000E+03 0.  0.
<mgrwt>
<rscale>  0 0.54681948E+03</rscale>
<asrwt>0</asrwt>
<pdfrwt beam="1">  1        2 0.10751189E+00 0.54681948E+03</pdfrwt>
<pdfrwt beam="2">  1       -2 0.14189771E-01 0.54681948E+03</pdfrwt>
<totfact> 0.15821252E+03</totfact>
</mgrwt>
</event>
<event>
 4    1  0.5812319E-005  0.1479404E+04  0.7818608E-02  0.8898266E-01
         -2   -1    0    0    0  501 -0.00000000000E+00  0.00000000000E+00  0.35018223823E+03  0.35018223824E+03  0.25500000000E-02 0. -1.
          2   -1    0    0  501    0  0.00000000000E+00 -0.00000000000E+00 -0.15624976200E+04  0.15624976200E+04  0.25500000000E-02 0.  1.
    5000001    1    1    2    0    0 -0.18844455251E+03  0.49732121084E+03  0.10442227836E+02  0.56551991675E+03  0.19200000000E+03 0.  0.
   -5000001    1    1    2    0    0  0.18844455251E+03 -0.49732121084E+03 -0.12227576096E+04  0.13471599415E+04  0.19200000000E+03 0.  0.
<mgrwt>
<rscale>  0 0.14794038E+04</rscale>
<asrwt>0</asrwt>
<pdfrwt beam="1">  1        2 0.22321394E+00 0.14794038E+04</pdfrwt>
<pdfrwt beam="2">  1       -2 0.50026035E-01 0.14794038E+04</pdfrwt>
<totfact> 0.49599363E+01</totfact>
</mgrwt>
</event>
<event>
 4    1  0.5812319E-005  0.5762780E+03  0.7818608E-02  0.9955882E-01
          2   -1    0    0  501    0  0.00000000000E+00  0.00000000000E+00  0.21065942173E+04  0.21065942173E+04  0.25500000000E-02 0.  1.
         -2   -1    0    0    0  501 -0.00000000000E+00 -0.00000000000E+00 -0.39411517360E+02  0.39411517442E+02  0.25500000000E-02 0. -1.
    5000001    1    1    2    0    0 -0.18021981930E+03  0.11037369235E+03  0.88943527576E+03  0.93414166217E+03  0.19200000000E+03 0.  0.
   -5000001    1    1    2    0    0  0.18021981930E+03 -0.11037369235E+03  0.11777474242E+04  0.12118640726E+04  0.19200000000E+03 0.  0.
<mgrwt>
<rscale>  0 0.57627797E+03</rscale>
<asrwt>0</asrwt>
<pdfrwt beam="1">  1        2 0.30094198E+00 0.57627797E+03</pdfrwt>
<pdfrwt beam="2">  1       -2 0.56302176E-02 0.57627797E+03</pdfrwt>
<totfact> 0.12510994E+03</totfact>
</mgrwt>
</event>
<event>
 4    1  0.5812319E-005  0.5978635E+03  0.7818608E-02  0.9909849E-01
          2   -1    0    0  501    0  0.00000000000E+00  0.00000000000E+00  0.12764710798E+04  0.12764710798E+04  0.25500000000E-02 0.  1.
         -2   -1    0    0    0  501 -0.00000000000E+00 -0.00000000000E+00 -0.70005655992E+02  0.70005656039E+02  0.25500000000E-02 0. -1.
    5000001    1    1    2    0    0  0.55879848211E+02  0.21447516627E+03  0.47241336461E+03  0.55602206920E+03  0.19200000000E+03 0.  0.
   -5000001    1    1    2    0    0 -0.55879848211E+02 -0.21447516627E+03  0.73405205916E+03  0.79045466660E+03  0.19200000000E+03 0.  0.
<mgrwt>
<rscale>  0 0.59786351E+03</rscale>
<asrwt>0</asrwt>
<pdfrwt beam="1">  1        2 0.18235298E+00 0.59786351E+03</pdfrwt>
<pdfrwt beam="2">  1       -2 0.10000810E-01 0.59786351E+03</pdfrwt>
<totfact> 0.13405444E+03</totfact>
</mgrwt>
</event>
<event>
 4    1  0.5812319E-005  0.6170580E+03  0.7818608E-02  0.9870635E-01
         -2   -1    0    0    0  501 -0.00000000000E+00  0.00000000000E+00  0.19533892696E+03  0.19533892698E+03  0.25500000000E-02 0. -1.
          2   -1    0    0  501    0  0.00000000000E+00 -0.00000000000E+00 -0.48730755523E+03  0.48730755524E+03  0.25500000000E-02 0.  1.
    5000001    1    1    2    0    0  0.18997434168E+03  0.74823335150E+02 -0.28868038168E+03  0.40235450134E+03  0.19200000000E+03 0.  0.
   -5000001    1    1    2    0    0 -0.18997434168E+03 -0.74823335150E+02 -0.32882465921E+01  0.28029198088E+03  0.19200000000E+03 0.  0.
<mgrwt>
<rscale>  0 0.61705797E+03</rscale>
<asrwt>0</asrwt>
<pdfrwt beam="1">  1        2 0.69615364E-01 0.61705797E+03</pdfrwt>
<pdfrwt beam="2">  1       -2 0.27905561E-01 0.61705797E+03</pdfrwt>
<totfact> 0.81353593E+02</totfact>
</mgrwt>
</event>
<event>
 4    1  0.5812319E-005  0.5917396E+03  0.7818608E-02  0.9922694E-01
          2   -1    0    0  501    0  0.00000000000E+00  0.00000000000E+00  0.27448167487E+04  0.27448167487E+04  0.25500000000E-02 0.  1.
         -2   -1    0    0    0  501 -0.00000000000E+00 -0.00000000000E+00 -0.31892451098E+02  0.31892451200E+02  0.25500000000E-02 0. -1.
    5000001    1    1    2    0    0 -0.10609590403E+03 -0.16698953255E+03  0.85252937651E+03  0.89599786977E+03  0.19200000000E+03 0.  0.
   -5000001    1    1    2    0    0  0.10609590403E+03  0.16698953255E+03  0.18603949211E+04  0.18807113301E+04  0.19200000000E+03 0.  0.
<mgrwt>
<rscale>  0 0.59173958E+03</rscale>
<asrwt>0</asrwt>
<pdfrwt beam="1">  1        2 0.39211685E+00 0.59173958E+03</pdfrwt>
<pdfrwt beam="2">  1       -2 0.45560625E-02 0.59173958E+03</pdfrwt>
<totfact> 0.81900698E+02</totfact>
</mgrwt>
</event>
<event>
 4    1  0.5812319E-005  0.5574885E+03  0.7818608E-02  0.9997754E-01
         -2   -1    0    0    0  501 -0.00000000000E+00  0.00000000000E+00  0.16201458468E+03  0.16201458470E+03  0.25500000000E-02 0. -1.
          2   -1    0    0  501    0  0.00000000000E+00 -0.00000000000E+00 -0.47957625144E+03  0.47957625144E+03  0.25500000000E-02 0.  1.
    5000001    1    1    2    0    0  0.12937195995E+03 -0.92492814721E+02 -0.30225715146E+03  0.39181042661E+03  0.19200000000E+03 0.  0.
   -5000001    1    1    2    0    0 -0.12937195995E+03  0.92492814721E+02 -0.15304515307E+02  0.24978040953E+03  0.19200000000E+03 0.  0.
<mgrwt>
<rscale>  0 0.55748847E+03</rscale>
<asrwt>0</asrwt>
<pdfrwt beam="1">  1        2 0.68510892E-01 0.55748847E+03</pdfrwt>
<pdfrwt beam="2">  1       -2 0.23144941E-01 0.55748847E+03</pdfrwt>
<totfact> 0.11605670E+03</totfact>
</mgrwt>
</event>
<event>
 4    1  0.5812319E-005  0.4209781E+03  0.7818608E-02  0.1036748E+00
          2   -1    0    0  501    0  0.00000000000E+00  0.00000000000E+00  0.16644089707E+04  0.16644089707E+04  0.25500000000E-02 0.  1.
         -2   -1    0    0    0  501 -0.00000000000E+00 -0.00000000000E+00 -0.26619447532E+02  0.26619447654E+02  0.25500000000E-02 0. -1.
    5000001    1    1    2    0    0  0.35923763668E+02  0.58362553097E+02  0.10293491713E+04  0.10493428519E+04  0.19200000000E+03 0.  0.
   -5000001    1    1    2    0    0 -0.35923763668E+02 -0.58362553097E+02  0.60844035182E+03  0.64168556639E+03  0.19200000000E+03 0.  0.
<mgrwt>
<rscale>  0 0.42097813E+03</rscale>
<asrwt>0</asrwt>
<pdfrwt beam="1">  1        2 0.23777267E+00 0.42097813E+03</pdfrwt>
<pdfrwt beam="2">  1       -2 0.38027789E-02 0.42097813E+03</pdfrwt>
<totfact> 0.38311826E+03</totfact>
</mgrwt>
</event>
<event>
 4    1  0.5812319E-005  0.3911959E+03  0.7818608E-02  0.1046872E+00
          2   -1    0    0  501    0  0.00000000000E+00  0.00000000000E+00  0.12237158078E+03  0.12237158081E+03  0.25500000000E-02 0.  1.
         -2   -1    0    0    0  501 -0.00000000000E+00 -0.00000000000E+00 -0.31264258284E+03  0.31264258285E+03  0.25500000000E-02 0. -1.
    5000001    1    1    2    0    0  0.60967815645E+01 -0.12357021570E+02 -0.13373205864E+03  0.23438884409E+03  0.19200000000E+03 0.  0.
   -5000001    1    1    2    0    0 -0.60967815645E+01  0.12357021570E+02 -0.56538943417E+02  0.20062531956E+03  0.19200000000E+03 0.  0.
<mgrwt>
<rscale>  0 0.39119595E+03</rscale>
<asrwt>0</asrwt>
<pdfrwt beam="1">  1        2 0.17481655E-01 0.39119595E+03</pdfrwt>
<pdfrwt beam="2">  1       -2 0.44663226E-01 0.39119595E+03</pdfrwt>
<totfact> 0.15739140E+03</totfact>
</mgrwt>
</event>
<event>
 4    1  0.5812319E-005  0.4492021E+03  0.7818608E-02  0.1027960E+00
          2   -1    0    0  501    0  0.00000000000E+00  0.00000000000E+00  0.25595567650E+03  0.25595567651E+03  0.25500000000E-02 0.  1.
         -2   -1    0    0    0  501 -0.00000000000E+00 -0.00000000000E+00 -0.19708734989E+03  0.19708734990E+03  0.25500000000E-02 0. -1.
    5000001    1    1    2    0    0  0.58979694266E+02 -0.74923630003E+02 -0.38142274761E+02  0.21774064341E+03  0.19200000000E+03 0.  0.
   -5000001    1    1    2    0    0 -0.58979694266E+02  0.74923630003E+02  0.97010601374E+02  0.23530238300E+03  0.19200000000E+03 0.  0.
<mgrwt>
<rscale>  0 0.44920207E+03</rscale>
<asrwt>0</asrwt>
<pdfrwt beam="1">  1        2 0.36565096E-01 0.44920207E+03</pdfrwt>
<pdfrwt beam="2">  1       -2 0.28155336E-01 0.44920207E+03</pdfrwt>
<totfact> 0.16321110E+03</totfact>
</mgrwt>
</event>
<event>
 4    1  0.5812319E-005  0.5293149E+03  0.7818608E-02  0.1006398E+00
          2   -1    0    0  501    0  0.00000000000E+00  0.00000000000E+00  0.13151272961E+03  0.13151272963E+03  0.25500000000E-02 0.  1.
         -2   -1    0    0    0  501 -0.00000000000E+00 -0.00000000000E+00 -0.53259919297E+03  0.53259919298E+03  0.25500000000E-02 0. -1.
    5000001    1    1    2    0    0 -0.90273943322E+02 -0.16244057847E+01 -0.20542958226E+01  0.21217974377E+03  0.19200000000E+03 0.  0.
   -5000001    1    1    2    0    0  0.90273943322E+02  0.16244057847E+01 -0.39903216754E+03  0.45193217883E+03  0.19200000000E+03 0.  0.
<mgrwt>
<rscale>  0 0.52931493E+03</rscale>
<asrwt>0</asrwt>
<pdfrwt beam="1">  1        2 0.18787533E-01 0.52931493E+03</pdfrwt>
<pdfrwt beam="2">  1       -2 0.76085598E-01 0.52931493E+03</pdfrwt>
<totfact> 0.47740554E+02</totfact>
</mgrwt>
</event>
<event>
 4    1  0.5812319E-005  0.5862600E+03  0.7818608E-02  0.9934330E-01
         -2   -1    0    0    0  501 -0.00000000000E+00  0.00000000000E+00  0.21371008698E+03  0.21371008699E+03  0.25500000000E-02 0. -1.
          2   -1    0    0  501    0  0.00000000000E+00 -0.00000000000E+00 -0.40206423564E+03  0.40206423565E+03  0.25500000000E-02 0.  1.
    5000001    1    1    2    0    0  0.26972529635E+02  0.21911515930E+03 -0.75323119558E+02  0.30212007999E+03  0.19200000000E+03 0.  0.
   -5000001    1    1    2    0    0 -0.26972529635E+02 -0.21911515930E+03 -0.11303102911E+03  0.31365424265E+03  0.19200000000E+03 0.  0.
<mgrwt>
<rscale>  0 0.58625995E+03</rscale>
<asrwt>0</asrwt>
<pdfrwt beam="1">  1        2 0.57437748E-01 0.58625995E+03</pdfrwt>
<pdfrwt beam="2">  1       -2 0.30530012E-01 0.58625995E+03</pdfrwt>
<totfact> 0.85585891E+02</totfact>
</mgrwt>
</event>
<event>
 4    1  0.5812319E-005  0.8701743E+03  0.7818608E-02  0.9463653E-01
         -2   -1    0    0    0  501 -0.00000000000E+00  0.00000000000E+00  0.39713376988E+03  0.39713376989E+03  0.25500000000E-02 0. -1.
          2   -1    0    0  501    0  0.00000000000E+00 -0.00000000000E+00 -0.47666767503E+03  0.47666767504E+03  0.25500000000E-02 0.  1.
    5000001    1    1    2    0    0  0.35887991148E+03 -0.14692575095E+03 -0.85286507175E+02  0.44104393825E+03  0.19200000000E+03 0.  0.
   -5000001    1    1    2    0    0 -0.35887991148E+03  0.14692575095E+03  0.57526020274E+01  0.43275750668E+03  0.19200000000E+03 0.  0.
<mgrwt>
<rscale>  0 0.87017431E+03</rscale>
<asrwt>0</asrwt>
<pdfrwt beam="1">  1        2 0.68095381E-01 0.87017431E+03</pdfrwt>
<pdfrwt beam="2">  1       -2 0.56733396E-01 0.87017431E+03</pdfrwt>
<totfact> 0.20760216E+02</totfact>
</mgrwt>
</event>
<event>
 4    1  0.5812319E-005  0.6780877E+03  0.7818608E-02  0.9755457E-01
          2   -1    0    0  501    0  0.00000000000E+00  0.00000000000E+00  0.51009771069E+03  0.51009771069E+03  0.25500000000E-02 0.  1.
         -2   -1    0    0    0  501 -0.00000000000E+00 -0.00000000000E+00 -0.22535044988E+03  0.22535044989E+03  0.25500000000E-02 0. -1.
    5000001    1    1    2    0    0  0.95597122368E+02 -0.26195211838E+03  0.12270013244E+03  0.36010699053E+03  0.19200000000E+03 0.  0.
   -5000001    1    1    2    0    0 -0.95597122368E+02  0.26195211838E+03  0.16204712837E+03  0.37534117006E+03  0.19200000000E+03 0.  0.
<mgrwt>
<rscale>  0 0.67808775E+03</rscale>
<asrwt>0</asrwt>
<pdfrwt beam="1">  1        2 0.72871102E-01 0.67808775E+03</pdfrwt>
<pdfrwt beam="2">  1       -2 0.32192921E-01 0.67808775E+03</pdfrwt>
<totfact> 0.59213356E+02</totfact>
</mgrwt>
</event>
<event>
 4    1  0.5812319E-005  0.5540515E+03  0.7818608E-02  0.1000560E+00
          2   -1    0    0  501    0  0.00000000000E+00  0.00000000000E+00  0.17002658473E+03  0.17002658475E+03  0.25500000000E-02 0.  1.
         -2   -1    0    0    0  501 -0.00000000000E+00 -0.00000000000E+00 -0.45136035567E+03  0.45136035567E+03  0.25500000000E-02 0. -1.
    5000001    1    1    2    0    0  0.65354980580E+02 -0.18869151916E+03 -0.13856962623E+03  0.30974393328E+03  0.19200000000E+03 0.  0.
   -5000001    1    1    2    0    0 -0.65354980580E+02  0.18869151916E+03 -0.14276414471E+03  0.31164300715E+03  0.19200000000E+03 0.  0.
<mgrwt>
<rscale>  0 0.55405148E+03</rscale>
<asrwt>0</asrwt>
<pdfrwt beam="1">  1        2 0.24289512E-01 0.55405148E+03</pdfrwt>
<pdfrwt beam="2">  1       -2 0.64480051E-01 0.55405148E+03</pdfrwt>
<totfact> 0.50741595E+02</totfact>
</mgrwt>
</event>
<event>
 4    1  0.5812319E-005  0.7141282E+03  0.7818608E-02  0.9693372E-01
         -2   -1    0    0    0  501 -0.00000000000E+00  0.00000000000E+00  0.11540456927E+03  0.11540456929E+03  0.25500000000E-02 0. -1.
          2   -1    0    0  501    0  0.00000000000E+00 -0.00000000000E+00 -0.11047636420E+04  0.11047636420E+04  0.25500000000E-02 0.  1.
    5000001    1    1    2    0    0 -0.29457768638E+03 -0.61677568520E+02 -0.48252116708E+03  0.60022563462E+03  0.19200000000E+03 0.  0.
   -5000001    1    1    2    0    0  0.29457768638E+03  0.61677568520E+02 -0.50683790565E+03  0.61994257668E+03  0.19200000000E+03 0.  0.
<mgrwt>
<rscale>  0 0.71412820E+03</rscale>
<asrwt>0</asrwt>
<pdfrwt beam="1">  1        2 0.15782337E+00 0.71412820E+03</pdfrwt>
<pdfrwt beam="2">  1       -2 0.16486368E-01 0.71412820E+03</pdfrwt>
<totfact> 0.72771362E+02</totfact>
</mgrwt>
</event>
<event>
 4    1  0.5812319E-005  0.5649670E+03  0.7818608E-02  0.9980878E-01
          2   -1    0    0  501    0  0.00000000000E+00  0.00000000000E+00  0.15119521131E+04  0.15119521131E+04  0.25500000000E-02 0.  1.
         -2   -1    0    0    0  501 -0.00000000000E+00 -0.00000000000E+00 -0.52777417364E+02  0.52777417425E+02  0.25500000000E-02 0. -1.
    5000001    1    1    2    0    0 -0.17839142037E+03  0.10404700960E+03  0.68294218796E+03  0.73886623361E+03  0.19200000000E+03 0.  0.
   -5000001    1    1    2    0    0  0.17839142037E+03 -0.10404700960E+03  0.77623250773E+03  0.82586329688E+03  0.19200000000E+03 0.  0.
<mgrwt>
<rscale>  0 0.56496700E+03</rscale>
<asrwt>0</asrwt>
<pdfrwt beam="1">  1        2 0.21599313E+00 0.56496700E+03</pdfrwt>
<pdfrwt beam="2">  1       -2 0.75396321E-02 0.56496700E+03</pdfrwt>
<totfact> 0.15815373E+03</totfact>
</mgrwt>
</event>
<event>
 4    1  0.5812319E-005  0.4130289E+03  0.7818608E-02  0.1039359E+00
          2   -1    0    0  501    0  0.00000000000E+00  0.00000000000E+00  0.12278938758E+04  0.12278938758E+04  0.25500000000E-02 0.  1.
         -2   -1    0    0    0  501 -0.00000000000E+00 -0.00000000000E+00 -0.34732819215E+02  0.34732819308E+02  0.25500000000E-02 0. -1.
    5000001    1    1    2    0    0 -0.33533769996E+02  0.64122404422E+02  0.52501686300E+03  0.56368688375E+03  0.19200000000E+03 0.  0.
   -5000001    1    1    2    0    0  0.33533769996E+02 -0.64122404422E+02  0.66814419354E+03  0.69893981131E+03  0.19200000000E+03 0.  0.
<mgrwt>
<rscale>  0 0.41302889E+03</rscale>
<asrwt>0</asrwt>
<pdfrwt beam="1">  1        2 0.17541340E+00 0.41302889E+03</pdfrwt>
<pdfrwt beam="2">  1       -2 0.49618316E-02 0.41302889E+03</pdfrwt>
<totfact> 0.43074778E+03</totfact>
</mgrwt>
</event>
<event>
 4    1  0.5812319E-005  0.7902215E+03  0.7818608E-02  0.9574280E-01
         -2   -1    0    0    0  501 -0.00000000000E+00  0.00000000000E+00  0.22223629321E+03  0.22223629322E+03  0.25500000000E-02 0. -1.
          2   -1    0    0  501    0  0.00000000000E+00 -0.00000000000E+00 -0.70246185379E+03  0.70246185380E+03  0.25500000000E-02 0.  1.
    5000001    1    1    2    0    0 -0.66086281149E+01  0.20128519560E+03 -0.56836559286E+03  0.63282134215E+03  0.19200000000E+03 0.  0.
   -5000001    1    1    2    0    0  0.66086281149E+01 -0.20128519560E+03  0.88140032277E+02  0.29187680487E+03  0.19200000000E+03 0.  0.
<mgrwt>
<rscale>  0 0.79022153E+03</rscale>
<asrwt>0</asrwt>
<pdfrwt beam="1">  1        2 0.10035169E+00 0.79022153E+03</pdfrwt>
<pdfrwt beam="2">  1       -2 0.31748042E-01 0.79022153E+03</pdfrwt>
<totfact> 0.41452398E+02</totfact>
</mgrwt>
</event>
<event>
 4    1  0.5812319E-005  0.6295091E+03  0.7818608E-02  0.9846007E-01
          2   -1    0    0  501    0  0.00000000000E+00  0.00000000000E+00  0.10953322548E+04  0.10953322548E+04  0.25500000000E-02 0.  1.
         -2   -1    0    0    0  501 -0.00000000000E+00 -0.00000000000E+00 -0.90447835795E+02  0.90447835831E+02  0.25500000000E-02 0. -1.
    5000001    1    1    2    0    0  0.24127828976E+03  0.24938321497E+02  0.39310401350E+03  0.50023184467E+03  0.19200000000E+03 0.  0.
   -5000001    1    1    2    0    0 -0.24127828976E+03 -0.24938321497E+02  0.61178040548E+03  0.68554824594E+03  0.19200000000E+03 0.  0.
<mgrwt>
<rscale>  0 0.62950912E+03</rscale>
<asrwt>0</asrwt>
<pdfrwt beam="1">  1        2 0.15647603E+00 0.62950912E+03</pdfrwt>
<pdfrwt beam="2">  1       -2 0.12921120E-01 0.62950912E+03</pdfrwt>
<totfact> 0.11135270E+03</totfact>
</mgrwt>
</event>
<event>
 4    1  0.5812319E-005  0.4553023E+03  0.7818608E-02  0.1026153E+00
         -2   -1    0    0    0  501 -0.00000000000E+00  0.00000000000E+00  0.23101061273E+02  0.23101061414E+02  0.25500000000E-02 0. -1.
          2   -1    0    0  501    0  0.00000000000E+00 -0.00000000000E+00 -0.22434057501E+04  0.22434057501E+04  0.25500000000E-02 0.  1.
    5000001    1    1    2    0    0 -0.70041286092E+02  0.73623084727E+02 -0.77124735063E+03  0.80125689776E+03  0.19200000000E+03 0.  0.
   -5000001    1    1    2    0    0  0.70041286092E+02 -0.73623084727E+02 -0.14490573382E+04  0.14652499138E+04  0.19200000000E+03 0.  0.
<mgrwt>
<rscale>  0 0.45530233E+03</rscale>
<asrwt>0</asrwt>
<pdfrwt beam="1">  1        2 0.32048640E+00 0.45530233E+03</pdfrwt>
<pdfrwt beam="2">  1       -2 0.33001531E-02 0.45530233E+03</pdfrwt>
<totfact> 0.24425346E+03</totfact>
</mgrwt>
</event>
<event>
 4    1  0.5812319E-005  0.9689457E+03  0.7818608E-02  0.9343276E-01
         -2   -1    0    0    0  501 -0.00000000000E+00  0.00000000000E+00  0.17827496806E+03  0.17827496808E+03  0.25500000000E-02 0. -1.
          2   -1    0    0  501    0  0.00000000000E+00 -0.00000000000E+00 -0.13165838436E+04  0.13165838436E+04  0.25500000000E-02 0.  1.
    5000001    1    1    2    0    0 -0.47592182835E+02 -0.39504641873E+03 -0.26244504109E+03  0.51387555732E+03  0.19200000000E+03 0.  0.
   -5000001    1    1    2    0    0  0.47592182835E+02  0.39504641873E+03 -0.87586383442E+03  0.98098325432E+03  0.19200000000E+03 0.  0.
<mgrwt>
<rscale>  0 0.96894570E+03</rscale>
<asrwt>0</asrwt>
<pdfrwt beam="1">  1        2 0.18808340E+00 0.96894570E+03</pdfrwt>
<pdfrwt beam="2">  1       -2 0.25467853E-01 0.96894570E+03</pdfrwt>
<totfact> 0.25412183E+02</totfact>
</mgrwt>
</event>
<event>
 4    1  0.5812319E-005  0.6978314E+03  0.7818608E-02  0.9720948E-01
         -2   -1    0    0    0  501 -0.00000000000E+00  0.00000000000E+00  0.37434457733E+03  0.37434457733E+03  0.25500000000E-02 0. -1.
          2   -1    0    0  501    0  0.00000000000E+00 -0.00000000000E+00 -0.32521415621E+03  0.32521415622E+03  0.25500000000E-02 0.  1.
    5000001    1    1    2    0    0  0.19420471249E+03 -0.20177132654E+03 -0.55951828522E+02  0.34412460779E+03  0.19200000000E+03 0.  0.
   -5000001    1    1    2    0    0 -0.19420471249E+03  0.20177132654E+03  0.10508224964E+03  0.35543412577E+03  0.19200000000E+03 0.  0.
<mgrwt>
<rscale>  0 0.69783137E+03</rscale>
<asrwt>0</asrwt>
<pdfrwt beam="1">  1        2 0.46459165E-01 0.69783137E+03</pdfrwt>
<pdfrwt beam="2">  1       -2 0.53477797E-01 0.69783137E+03</pdfrwt>
<totfact> 0.36224640E+02</totfact>
</mgrwt>
</event>
<event>
 4    1  0.5812319E-005  0.5802510E+03  0.7818608E-02  0.9947248E-01
          2   -1    0    0  501    0  0.00000000000E+00  0.00000000000E+00  0.48509521986E+03  0.48509521986E+03  0.25500000000E-02 0.  1.
         -2   -1    0    0    0  501 -0.00000000000E+00 -0.00000000000E+00 -0.17351813613E+03  0.17351813615E+03  0.25500000000E-02 0. -1.
    5000001    1    1    2    0    0 -0.17298623195E+03  0.13092301729E+03  0.17350932489E+03  0.33769003350E+03  0.19200000000E+03 0.  0.
   -5000001    1    1    2    0    0  0.17298623195E+03 -0.13092301729E+03  0.13806775883E+03  0.32092332251E+03  0.19200000000E+03 0.  0.
<mgrwt>
<rscale>  0 0.58025104E+03</rscale>
<asrwt>0</asrwt>
<pdfrwt beam="1">  1        2 0.69299317E-01 0.58025104E+03</pdfrwt>
<pdfrwt beam="2">  1       -2 0.24788305E-01 0.58025104E+03</pdfrwt>
<totfact> 0.10136392E+03</totfact>
</mgrwt>
</event>
<event>
 4    1  0.5812319E-005  0.5743451E+03  0.7818608E-02  0.9960109E-01
          2   -1    0    0  501    0  0.00000000000E+00  0.00000000000E+00  0.12045498256E+04  0.12045498256E+04  0.25500000000E-02 0.  1.
         -2   -1    0    0    0  501 -0.00000000000E+00 -0.00000000000E+00 -0.68463800911E+02  0.68463800958E+02  0.25500000000E-02 0. -1.
    5000001    1    1    2    0    0 -0.90139914423E+02  0.18337494515E+03  0.70561519758E+03  0.75928149045E+03  0.19200000000E+03 0.  0.
   -5000001    1    1    2    0    0  0.90139914423E+02 -0.18337494515E+03  0.43047082709E+03  0.51373213609E+03  0.19200000000E+03 0.  0.
<mgrwt>
<rscale>  0 0.57434505E+03</rscale>
<asrwt>0</asrwt>
<pdfrwt beam="1">  1        2 0.17207855E+00 0.57434505E+03</pdfrwt>
<pdfrwt beam="2">  1       -2 0.97805429E-02 0.57434505E+03</pdfrwt>
<totfact> 0.15238974E+03</totfact>
</mgrwt>
</event>
<event>
 4    1  0.5812319E-005  0.1161943E+04  0.7818608E-02  0.9146836E-01
         -2   -1    0    0    0  501 -0.00000000000E+00  0.00000000000E+00  0.32692030404E+03  0.32692030405E+03  0.25500000000E-02 0. -1.
          2   -1    0    0  501    0  0.00000000000E+00 -0.00000000000E+00 -0.10324473316E+04  0.10324473316E+04  0.25500000000E-02 0.  1.
    5000001    1    1    2    0    0 -0.91658875632E+02 -0.54058987754E+03 -0.34688707855E+03  0.67663388213E+03  0.19200000000E+03 0.  0.
   -5000001    1    1    2    0    0  0.91658875632E+02  0.54058987754E+03 -0.35863994901E+03  0.68273375353E+03  0.19200000000E+03 0.  0.
<mgrwt>
<rscale>  0 0.11619432E+04</rscale>
<asrwt>0</asrwt>
<pdfrwt beam="1">  1        2 0.14749247E+00 0.11619432E+04</pdfrwt>
<pdfrwt beam="2">  1       -2 0.46702901E-01 0.11619432E+04</pdfrwt>
<totfact> 0.11528301E+02</totfact>
</mgrwt>
</event>
<event>
 4    1  0.5812319E-005  0.8274921E+03  0.7818608E-02  0.9521054E-01
          2   -1    0    0  501    0  0.00000000000E+00  0.00000000000E+00  0.16504214569E+04  0.16504214569E+04  0.25500000000E-02 0.  1.
         -2   -1    0    0    0  501 -0.00000000000E+00 -0.00000000000E+00 -0.10372248103E+03  0.10372248106E+03  0.25500000000E-02 0. -1.
    5000001    1    1    2    0    0 -0.57190434249E+02 -0.31244511706E+03  0.11609316385E+04  0.12188186765E+04  0.19200000000E+03 0.  0.
   -5000001    1    1    2    0    0  0.57190434249E+02  0.31244511706E+03  0.38576733729E+03  0.53532526138E+03  0.19200000000E+03 0.  0.
<mgrwt>
<rscale>  0 0.82749213E+03</rscale>
<asrwt>0</asrwt>
<pdfrwt beam="1">  1        2 0.23577448E+00 0.82749213E+03</pdfrwt>
<pdfrwt beam="2">  1       -2 0.14817498E-01 0.82749213E+03</pdfrwt>
<totfact> 0.43905898E+02</totfact>
</mgrwt>
</event>
<event>
 4    1  0.5812319E-005  0.1034338E+04  0.7818608E-02  0.9271666E-01
          2   -1    0    0  501    0  0.00000000000E+00  0.00000000000E+00  0.12933832848E+04  0.12933832848E+04  0.25500000000E-02 0.  1.
         -2   -1    0    0    0  501 -0.00000000000E+00 -0.00000000000E+00 -0.20679372994E+03  0.20679372996E+03  0.25500000000E-02 0. -1.
    5000001    1    1    2    0    0 -0.23517672331E+03  0.39472149298E+03  0.74575796684E+03  0.89673412632E+03  0.19200000000E+03 0.  0.
   -5000001    1    1    2    0    0  0.23517672331E+03 -0.39472149298E+03  0.34083158801E+03  0.60344288842E+03  0.19200000000E+03 0.  0.
<mgrwt>
<rscale>  0 0.10343376E+04</rscale>
<asrwt>0</asrwt>
<pdfrwt beam="1">  1        2 0.18476904E+00 0.10343376E+04</pdfrwt>
<pdfrwt beam="2">  1       -2 0.29541962E-01 0.10343376E+04</pdfrwt>
<totfact> 0.19861598E+02</totfact>
</mgrwt>
</event>
<event>
 4    1  0.5812319E-005  0.9865119E+03  0.7818608E-02  0.9323463E-01
         -2   -1    0    0    0  501 -0.00000000000E+00  0.00000000000E+00  0.23083068309E+03  0.23083068310E+03  0.25500000000E-02 0. -1.
          2   -1    0    0  501    0  0.00000000000E+00 -0.00000000000E+00 -0.10540254857E+04  0.10540254857E+04  0.25500000000E-02 0.  1.
    5000001    1    1    2    0    0  0.31188865237E+03 -0.31077138441E+03 -0.55770143459E+03  0.73603551204E+03  0.19200000000E+03 0.  0.
   -5000001    1    1    2    0    0 -0.31188865237E+03  0.31077138441E+03 -0.26549336805E+03  0.54882065680E+03  0.19200000000E+03 0.  0.
<mgrwt>
<rscale>  0 0.98651188E+03</rscale>
<asrwt>0</asrwt>
<pdfrwt beam="1">  1        2 0.15057507E+00 0.98651188E+03</pdfrwt>
<pdfrwt beam="2">  1       -2 0.32975813E-01 0.98651188E+03</pdfrwt>
<totfact> 0.22258744E+02</totfact>
</mgrwt>
</event>
<event>
 4    1  0.5812319E-005  0.8506828E+03  0.7818608E-02  0.9489421E-01
         -2   -1    0    0    0  501 -0.00000000000E+00  0.00000000000E+00  0.87269587369E+02  0.87269587406E+02  0.25500000000E-02 0. -1.
          2   -1    0    0  501    0  0.00000000000E+00 -0.00000000000E+00 -0.20730624346E+04  0.20730624346E+04  0.25500000000E-02 0.  1.
    5000001    1    1    2    0    0  0.70061558398E+02  0.35593442002E+03 -0.12762941100E+04  0.13406672177E+04  0.19200000000E+03 0.  0.
   -5000001    1    1    2    0    0 -0.70061558398E+02 -0.35593442002E+03 -0.70949873719E+03  0.81966480429E+03  0.19200000000E+03 0.  0.
<mgrwt>
<rscale>  0 0.85068279E+03</rscale>
<asrwt>0</asrwt>
<pdfrwt beam="1">  1        2 0.29615175E+00 0.85068279E+03</pdfrwt>
<pdfrwt beam="2">  1       -2 0.12467085E-01 0.85068279E+03</pdfrwt>
<totfact> 0.35647539E+02</totfact>
</mgrwt>
</event>
<event>
 4    1  0.5812319E-005  0.5476684E+03  0.7818608E-02  0.1002035E+00
         -2   -1    0    0    0  501 -0.00000000000E+00  0.00000000000E+00  0.36433219941E+03  0.36433219941E+03  0.25500000000E-02 0. -1.
          2   -1    0    0  501    0  0.00000000000E+00 -0.00000000000E+00 -0.20581538961E+03  0.20581538963E+03  0.25500000000E-02 0.  1.
    5000001    1    1    2    0    0 -0.30430972837E+02  0.14979459051E+03 -0.47204853962E+02  0.24991350842E+03  0.19200000000E+03 0.  0.
   -5000001    1    1    2    0    0  0.30430972837E+02 -0.14979459051E+03  0.20572166376E+03  0.32023408062E+03  0.19200000000E+03 0.  0.
<mgrwt>
<rscale>  0 0.54766842E+03</rscale>
<asrwt>0</asrwt>
<pdfrwt beam="1">  1        2 0.29402198E-01 0.54766842E+03</pdfrwt>
<pdfrwt beam="2">  1       -2 0.52047458E-01 0.54766842E+03</pdfrwt>
<totfact> 0.63869339E+02</totfact>
</mgrwt>
</event>
<event>
 4    1  0.5812319E-005  0.7475408E+03  0.7818608E-02  0.9639216E-01
          2   -1    0    0  501    0  0.00000000000E+00  0.00000000000E+00  0.15208551601E+03  0.15208551604E+03  0.25500000000E-02 0.  1.
         -2   -1    0    0    0  501 -0.00000000000E+00 -0.00000000000E+00 -0.91859042319E+03  0.91859042319E+03  0.25500000000E-02 0. -1.
    5000001    1    1    2    0    0  0.12704714439E+03  0.27075483493E+03 -0.54899421665E+03  0.65399373655E+03  0.19200000000E+03 0.  0.
   -5000001    1    1    2    0    0 -0.12704714439E+03 -0.27075483493E+03 -0.21751069052E+03  0.41668220267E+03  0.19200000000E+03 0.  0.
<mgrwt>
<rscale>  0 0.74754076E+03</rscale>
<asrwt>0</asrwt>
<pdfrwt beam="1">  1        2 0.21726503E-01 0.74754076E+03</pdfrwt>
<pdfrwt beam="2">  1       -2 0.13122720E+00 0.74754076E+03</pdfrwt>
<totfact> 0.11043804E+02</totfact>
</mgrwt>
</event>
<event>
 4    1  0.5812319E-005  0.8647765E+03  0.7818608E-02  0.9470716E-01
         -2   -1    0    0    0  501 -0.00000000000E+00  0.00000000000E+00  0.96293849113E+02  0.96293849147E+02  0.25500000000E-02 0. -1.
          2   -1    0    0  501    0  0.00000000000E+00 -0.00000000000E+00 -0.19415529058E+04  0.19415529058E+04  0.25500000000E-02 0.  1.
    5000001    1    1    2    0    0  0.37496617194E+03 -0.61465504257E+02 -0.74443746476E+03  0.85757144149E+03  0.19200000000E+03 0.  0.
   -5000001    1    1    2    0    0 -0.37496617194E+03  0.61465504257E+02 -0.11008215920E+04  0.11802753135E+04  0.19200000000E+03 0.  0.
<mgrwt>
<rscale>  0 0.86477651E+03</rscale>
<asrwt>0</asrwt>
<pdfrwt beam="1">  1        2 0.27736468E+00 0.86477651E+03</pdfrwt>
<pdfrwt beam="2">  1       -2 0.13756265E-01 0.86477651E+03</pdfrwt>
<totfact> 0.35238940E+02</totfact>
</mgrwt>
</event>
<event>
 4    1  0.5812319E-005  0.1122131E+04  0.7818608E-02  0.9183886E-01
          2   -1    0    0  501    0  0.00000000000E+00  0.00000000000E+00  0.46281106139E+03  0.46281106139E+03  0.25500000000E-02 0.  1.
         -2   -1    0    0    0  501 -0.00000000000E+00 -0.00000000000E+00 -0.68017900159E+03  0.68017900160E+03  0.25500000000E-02 0. -1.
    5000001    1    1    2    0    0  0.29445868523E+03 -0.39286730126E+03  0.86926844529E+02  0.53429477820E+03  0.19200000000E+03 0.  0.
   -5000001    1    1    2    0    0 -0.29445868523E+03  0.39286730126E+03 -0.30429478474E+03  0.60869528479E+03  0.19200000000E+03 0.  0.
<mgrwt>
<rscale>  0 0.11221308E+04</rscale>
<asrwt>0</asrwt>
<pdfrwt beam="1">  1        2 0.66115866E-01 0.11221308E+04</pdfrwt>
<pdfrwt beam="2">  1       -2 0.97168428E-01 0.11221308E+04</pdfrwt>
<totfact> 0.64355872E+01</totfact>
</mgrwt>
</event>
<event>
 4    1  0.5812319E-005  0.8971110E+03  0.7818608E-02  0.9429200E-01
         -2   -1    0    0    0  501 -0.00000000000E+00  0.00000000000E+00  0.40682559723E+03  0.40682559724E+03  0.25500000000E-02 0. -1.
          2   -1    0    0  501    0  0.00000000000E+00 -0.00000000000E+00 -0.49456576902E+03  0.49456576903E+03  0.25500000000E-02 0.  1.
    5000001    1    1    2    0    0  0.16764916435E+03  0.36111330013E+03 -0.12058196905E+03  0.45816271029E+03  0.19200000000E+03 0.  0.
   -5000001    1    1    2    0    0 -0.16764916435E+03 -0.36111330013E+03  0.32841797262E+02  0.44322865598E+03  0.19200000000E+03 0.  0.
<mgrwt>
<rscale>  0 0.89711095E+03</rscale>
<asrwt>0</asrwt>
<pdfrwt beam="1">  1        2 0.70652253E-01 0.89711095E+03</pdfrwt>
<pdfrwt beam="2">  1       -2 0.58117942E-01 0.89711095E+03</pdfrwt>
<totfact> 0.18901730E+02</totfact>
</mgrwt>
</event>
<event>
 4    1  0.5812319E-005  0.5591875E+03  0.7818608E-02  0.9993895E-01
         -2   -1    0    0    0  501 -0.00000000000E+00  0.00000000000E+00  0.33330656284E+02  0.33330656381E+02  0.25500000000E-02 0. -1.
          2   -1    0    0  501    0  0.00000000000E+00 -0.00000000000E+00 -0.23453679426E+04  0.23453679426E+04  0.25500000000E-02 0.  1.
    5000001    1    1    2    0    0  0.18119501957E+03 -0.49123990947E+02 -0.14872689324E+04  0.15113165383E+04  0.19200000000E+03 0.  0.
   -5000001    1    1    2    0    0 -0.18119501957E+03  0.49123990947E+02 -0.82476835392E+03  0.86738206070E+03  0.19200000000E+03 0.  0.
<mgrwt>
<rscale>  0 0.55918746E+03</rscale>
<asrwt>0</asrwt>
<pdfrwt beam="1">  1        2 0.33505246E+00 0.55918746E+03</pdfrwt>
<pdfrwt beam="2">  1       -2 0.47615238E-02 0.55918746E+03</pdfrwt>
<totfact> 0.12316059E+03</totfact>
</mgrwt>
</event>
<event>
 4    1  0.5812319E-005  0.7941852E+03  0.7818608E-02  0.9568472E-01
         -2   -1    0    0    0  501 -0.00000000000E+00  0.00000000000E+00  0.16623631262E+03  0.16623631264E+03  0.25500000000E-02 0. -1.
          2   -1    0    0  501    0  0.00000000000E+00 -0.00000000000E+00 -0.94854445456E+03  0.94854445456E+03  0.25500000000E-02 0.  1.
    5000001    1    1    2    0    0  0.32866281908E+02 -0.28399048483E+03 -0.66867004350E+03  0.75213989060E+03  0.19200000000E+03 0.  0.
   -5000001    1    1    2    0    0 -0.32866281908E+02  0.28399048483E+03 -0.11363809844E+03  0.36264087660E+03  0.19200000000E+03 0.  0.
<mgrwt>
<rscale>  0 0.79418520E+03</rscale>
<asrwt>0</asrwt>
<pdfrwt beam="1">  1        2 0.13550635E+00 0.79418520E+03</pdfrwt>
<pdfrwt beam="2">  1       -2 0.23748045E-01 0.79418520E+03</pdfrwt>
<totfact> 0.47699031E+02</totfact>
</mgrwt>
</event>
<event>
 4    1  0.5812319E-005  0.5744994E+03  0.7818608E-02  0.9959771E-01
         -2   -1    0    0    0  501 -0.00000000000E+00  0.00000000000E+00  0.69893634806E+02  0.69893634852E+02  0.25500000000E-02 0. -1.
          2   -1    0    0  501    0  0.00000000000E+00 -0.00000000000E+00 -0.11805422823E+04  0.11805422823E+04  0.25500000000E-02 0.  1.
    5000001    1    1    2    0    0  0.18691483176E+03 -0.99407593812E+02 -0.49264197367E+03  0.56954292048E+03  0.19200000000E+03 0.  0.
   -5000001    1    1    2    0    0 -0.18691483176E+03  0.99407593812E+02 -0.61800667384E+03  0.68089299669E+03  0.19200000000E+03 0.  0.
<mgrwt>
<rscale>  0 0.57449940E+03</rscale>
<asrwt>0</asrwt>
<pdfrwt beam="1">  1        2 0.16864889E+00 0.57449940E+03</pdfrwt>
<pdfrwt beam="2">  1       -2 0.99848057E-02 0.57449940E+03</pdfrwt>
<totfact> 0.15201944E+03</totfact>
</mgrwt>
</event>
<event>
 4    1  0.5812319E-005  0.8194753E+03  0.7818608E-02  0.9532247E-01
         -2   -1    0    0    0  501 -0.00000000000E+00  0.00000000000E+00  0.31000537170E+03  0.31000537171E+03  0.25500000000E-02 0. -1.
          2   -1    0    0  501    0  0.00000000000E+00 -0.00000000000E+00 -0.54155498408E+03  0.54155498408E+03  0.25500000000E-02 0.  1.
    5000001    1    1    2    0    0 -0.33084035932E+03 -0.14668021305E+03 -0.10838834308E+03  0.42377170879E+03  0.19200000000E+03 0.  0.
   -5000001    1    1    2    0    0  0.33084035932E+03  0.14668021305E+03 -0.12316126929E+03  0.42778864701E+03  0.19200000000E+03 0.  0.
<mgrwt>
<rscale>  0 0.81947533E+03</rscale>
<asrwt>0</asrwt>
<pdfrwt beam="1">  1        2 0.77364998E-01 0.81947533E+03</pdfrwt>
<pdfrwt beam="2">  1       -2 0.44286482E-01 0.81947533E+03</pdfrwt>
<totfact> 0.29747051E+02</totfact>
</mgrwt>
</event>
<event>
 4    1  0.5812319E-005  0.8067216E+03  0.7818608E-02  0.9550338E-01
         -2   -1    0    0    0  501 -0.00000000000E+00  0.00000000000E+00  0.15880849549E+03  0.15880849551E+03  0.25500000000E-02 0. -1.
          2   -1    0    0  501    0  0.00000000000E+00 -0.00000000000E+00 -0.10245040257E+04  0.10245040257E+04  0.25500000000E-02 0.  1.
    5000001    1    1    2    0    0 -0.12900613253E+03 -0.30492660941E+03 -0.24607690845E+03  0.45501721311E+03  0.19200000000E+03 0.  0.
   -5000001    1    1    2    0    0  0.12900613253E+03  0.30492660941E+03 -0.61961862172E+03  0.72829530806E+03  0.19200000000E+03 0.  0.
<mgrwt>
<rscale>  0 0.80672162E+03</rscale>
<asrwt>0</asrwt>
<pdfrwt beam="1">  1        2 0.14635771E+00 0.80672162E+03</pdfrwt>
<pdfrwt beam="2">  1       -2 0.22686928E-01 0.80672162E+03</pdfrwt>
<totfact> 0.46415421E+02</totfact>
</mgrwt>
</event>
<event>
 4    1  0.5812319E-005  0.6628930E+03  0.7818608E-02  0.9782883E-01
          2   -1    0    0  501    0  0.00000000000E+00  0.00000000000E+00  0.20403671739E+03  0.20403671741E+03  0.25500000000E-02 0.  1.
         -2   -1    0    0    0  501 -0.00000000000E+00 -0.00000000000E+00 -0.53841666159E+03  0.53841666159E+03  0.25500000000E-02 0. -1.
    5000001    1    1    2    0    0  0.19997955990E+03 -0.90116825385E+02  0.94748630692E+01  0.29166185837E+03  0.19200000000E+03 0.  0.
   -5000001    1    1    2    0    0 -0.19997955990E+03  0.90116825385E+02 -0.34385480727E+03  0.45079152063E+03  0.19200000000E+03 0.  0.
<mgrwt>
<rscale>  0 0.66289296E+03</rscale>
<asrwt>0</asrwt>
<pdfrwt beam="1">  1        2 0.29148103E-01 0.66289296E+03</pdfrwt>
<pdfrwt beam="2">  1       -2 0.76916666E-01 0.66289296E+03</pdfrwt>
<totfact> 0.28031583E+02</totfact>
</mgrwt>
</event>
<event>
 4    1  0.5812319E-005  0.6014065E+03  0.7818608E-02  0.9902492E-01
         -2   -1    0    0    0  501 -0.00000000000E+00  0.00000000000E+00  0.32332633857E+02  0.32332633958E+02  0.25500000000E-02 0. -1.
          2   -1    0    0  501    0  0.00000000000E+00 -0.00000000000E+00 -0.27966310006E+04  0.27966310006E+04  0.25500000000E-02 0.  1.
    5000001    1    1    2    0    0 -0.72222569376E+02  0.21972693762E+03 -0.14193129744E+04  0.14507961076E+04  0.19200000000E+03 0.  0.
   -5000001    1    1    2    0    0  0.72222569376E+02 -0.21972693762E+03 -0.13449853924E+04  0.13781675270E+04  0.19200000000E+03 0.  0.
<mgrwt>
<rscale>  0 0.60140651E+03</rscale>
<asrwt>0</asrwt>
<pdfrwt beam="1">  1        2 0.39951856E+00 0.60140651E+03</pdfrwt>
<pdfrwt beam="2">  1       -2 0.46189495E-02 0.60140651E+03</pdfrwt>
<totfact> 0.75231238E+02</totfact>
</mgrwt>
</event>
<event>
 4    1  0.5812319E-005  0.6637796E+03  0.7818608E-02  0.9781261E-01
          2   -1    0    0  501    0  0.00000000000E+00  0.00000000000E+00  0.39897511523E+04  0.39897511523E+04  0.25500000000E-02 0.  1.
         -2   -1    0    0    0  501 -0.00000000000E+00 -0.00000000000E+00 -0.27608447753E+02  0.27608447871E+02  0.25500000000E-02 0. -1.
    5000001    1    1    2    0    0  0.14196316620E+03  0.52822128806E+02  0.62311168809E+03  0.66938471276E+03  0.19200000000E+03 0.  0.
   -5000001    1    1    2    0    0 -0.14196316620E+03 -0.52822128806E+02  0.33390310164E+04  0.33479748874E+04  0.19200000000E+03 0.  0.
<mgrwt>
<rscale>  0 0.66377959E+03</rscale>
<asrwt>0</asrwt>
<pdfrwt beam="1">  1        2 0.56996438E+00 0.66377959E+03</pdfrwt>
<pdfrwt beam="2">  1       -2 0.39440645E-02 0.66377959E+03</pdfrwt>
<totfact> 0.18973517E+02</totfact>
</mgrwt>
</event>
<event>
 4    1  0.5812319E-005  0.4613023E+03  0.7818608E-02  0.1024404E+00
         -2   -1    0    0    0  501 -0.00000000000E+00  0.00000000000E+00  0.96001882017E+03  0.96001882018E+03  0.25500000000E-02 0. -1.
          2   -1    0    0  501    0  0.00000000000E+00 -0.00000000000E+00 -0.55415539415E+02  0.55415539474E+02  0.25500000000E-02 0.  1.
    5000001    1    1    2    0    0  0.10684266885E+03  0.34309588340E+02  0.31762178825E+03  0.38773715854E+03  0.19200000000E+03 0.  0.
   -5000001    1    1    2    0    0 -0.10684266885E+03 -0.34309588340E+02  0.58698149251E+03  0.62769720111E+03  0.19200000000E+03 0.  0.
<mgrwt>
<rscale>  0 0.46130233E+03</rscale>
<asrwt>0</asrwt>
<pdfrwt beam="1">  1        2 0.79165054E-02 0.46130233E+03</pdfrwt>
<pdfrwt beam="2">  1       -2 0.13714555E+00 0.46130233E+03</pdfrwt>
<totfact> 0.34496392E+02</totfact>
</mgrwt>
</event>
<event>
 4    1  0.5812319E-005  0.9302919E+03  0.7818608E-02  0.9388488E-01
         -2   -1    0    0    0  501 -0.00000000000E+00  0.00000000000E+00  0.20158598786E+03  0.20158598788E+03  0.25500000000E-02 0.  1.
          2   -1    0    0  501    0  0.00000000000E+00 -0.00000000000E+00 -0.10732926509E+04  0.10732926509E+04  0.25500000000E-02 0. -1.
    5000001    1    1    2    0    0  0.11397948054E+03 -0.38687148191E+03 -0.25803862017E+03  0.51585733978E+03  0.19200000000E+03 0.  0.
   -5000001    1    1    2    0    0 -0.11397948054E+03  0.38687148191E+03 -0.61366804284E+03  0.75902129898E+03  0.19200000000E+03 0.  0.
<mgrwt>
<rscale>  0 0.93029191E+03</rscale>
<asrwt>0</asrwt>
<pdfrwt beam="1">  1        2 0.15332752E+00 0.93029191E+03</pdfrwt>
<pdfrwt beam="2">  1       -2 0.28797999E-01 0.93029191E+03</pdfrwt>
<totfact> 0.27995234E+02</totfact>
</mgrwt>
</event>
<event>
 4    1  0.5812319E-005  0.1057287E+04  0.7818608E-02  0.9247853E-01
         -2   -1    0    0    0  501 -0.00000000000E+00  0.00000000000E+00  0.86223176509E+02  0.86223176546E+02  0.25500000000E-02 0. -1.
          2   -1    0    0  501    0  0.00000000000E+00 -0.00000000000E+00 -0.32411692721E+04  0.32411692721E+04  0.25500000000E-02 0.  1.
    5000001    1    1    2    0    0  0.33318114221E+03  0.31968374331E+03 -0.21170206066E+04  0.21752810435E+04  0.19200000000E+03 0.  0.
   -5000001    1    1    2    0    0 -0.33318114221E+03 -0.31968374331E+03 -0.10379254889E+04  0.11521114051E+04  0.19200000000E+03 0.  0.
<mgrwt>
<rscale>  0 0.10572869E+04</rscale>
<asrwt>0</asrwt>
<pdfrwt beam="1">  1        2 0.46302410E+00 0.10572869E+04</pdfrwt>
<pdfrwt beam="2">  1       -2 0.12317599E-01 0.10572869E+04</pdfrwt>
<totfact> 0.85389608E+01</totfact>
</mgrwt>
</event>
<event>
 4    1  0.5812319E-005  0.5434347E+03  0.7818608E-02  0.1003025E+00
         -2   -1    0    0    0  501 -0.00000000000E+00  0.00000000000E+00  0.90757478767E+02  0.90757478803E+02  0.25500000000E-02 0. -1.
          2   -1    0    0  501    0  0.00000000000E+00 -0.00000000000E+00 -0.81349005023E+03  0.81349005023E+03  0.25500000000E-02 0.  1.
    5000001    1    1    2    0    0  0.18305358669E+03 -0.51188572830E+02 -0.40951800144E+03  0.49060970138E+03  0.19200000000E+03 0.  0.
   -5000001    1    1    2    0    0 -0.18305358669E+03  0.51188572830E+02 -0.31321457002E+03  0.41363782765E+03  0.19200000000E+03 0.  0.
<mgrwt>
<rscale>  0 0.54343465E+03</rscale>
<asrwt>0</asrwt>
<pdfrwt beam="1">  1        2 0.11621286E+00 0.54343465E+03</pdfrwt>
<pdfrwt beam="2">  1       -2 0.12965355E-01 0.54343465E+03</pdfrwt>
<totfact> 0.16661340E+03</totfact>
</mgrwt>
</event>
<event>
 4    1  0.5812319E-005  0.7417176E+03  0.7818608E-02  0.9648434E-01
         -2   -1    0    0    0  501 -0.00000000000E+00  0.00000000000E+00  0.16968128287E+03  0.16968128289E+03  0.25500000000E-02 0. -1.
          2   -1    0    0  501    0  0.00000000000E+00 -0.00000000000E+00 -0.81055647863E+03  0.81055647863E+03  0.25500000000E-02 0.  1.
    5000001    1    1    2    0    0 -0.43760757098E+02 -0.29568035454E+03 -0.46111203920E+03  0.58209122018E+03  0.19200000000E+03 0.  0.
   -5000001    1    1    2    0    0  0.43760757098E+02  0.29568035454E+03 -0.17976315656E+03  0.39814654134E+03  0.19200000000E+03 0.  0.
<mgrwt>
<rscale>  0 0.74171764E+03</rscale>
<asrwt>0</asrwt>
<pdfrwt beam="1">  1        2 0.11579378E+00 0.74171764E+03</pdfrwt>
<pdfrwt beam="2">  1       -2 0.24240184E-01 0.74171764E+03</pdfrwt>
<totfact> 0.56820848E+02</totfact>
</mgrwt>
</event>
<event>
 4    1  0.5812319E-005  0.1016790E+04  0.7818608E-02  0.9290320E-01
          2   -1    0    0  501    0  0.00000000000E+00  0.00000000000E+00  0.12299962502E+04  0.12299962502E+04  0.25500000000E-02 0.  1.
         -2   -1    0    0    0  501 -0.00000000000E+00 -0.00000000000E+00 -0.21013497283E+03  0.21013497284E+03  0.25500000000E-02 0. -1.
    5000001    1    1    2    0    0 -0.24313439826E+03  0.40099958105E+03  0.56809129337E+03  0.76125338569E+03  0.19200000000E+03 0.  0.
   -5000001    1    1    2    0    0  0.24313439826E+03 -0.40099958105E+03  0.45176998404E+03  0.67887783739E+03  0.19200000000E+03 0.  0.
<mgrwt>
<rscale>  0 0.10167895E+04</rscale>
<asrwt>0</asrwt>
<pdfrwt beam="1">  1        2 0.17571375E+00 0.10167895E+04</pdfrwt>
<pdfrwt beam="2">  1       -2 0.30019282E-01 0.10167895E+04</pdfrwt>
<totfact> 0.20937355E+02</totfact>
</mgrwt>
</event>
<event>
 4    1  0.5812319E-005  0.7952677E+03  0.7818608E-02  0.9566892E-01
          2   -1    0    0  501    0  0.00000000000E+00  0.00000000000E+00  0.22313552350E+04  0.22313552350E+04  0.25500000000E-02 0.  1.
         -2   -1    0    0    0  501 -0.00000000000E+00 -0.00000000000E+00 -0.70859489344E+02  0.70859489390E+02  0.25500000000E-02 0. -1.
    5000001    1    1    2    0    0 -0.29105263197E+03 -0.99231530541E+02  0.15531900690E+04  0.15949363378E+04  0.19200000000E+03 0.  0.
   -5000001    1    1    2    0    0  0.29105263197E+03  0.99231530541E+02  0.60730567668E+03  0.70727838660E+03  0.19200000000E+03 0.  0.
<mgrwt>
<rscale>  0 0.79526773E+03</rscale>
<asrwt>0</asrwt>
<pdfrwt beam="1">  1        2 0.31876496E+00 0.79526773E+03</pdfrwt>
<pdfrwt beam="2">  1       -2 0.10122787E-01 0.79526773E+03</pdfrwt>
<totfact> 0.41898738E+02</totfact>
</mgrwt>
</event>
<event>
 4    1  0.5812319E-005  0.1142331E+04  0.7818608E-02  0.9164888E-01
         -2   -1    0    0    0  501 -0.00000000000E+00  0.00000000000E+00  0.50549229270E+03  0.50549229271E+03  0.25500000000E-02 0. -1.
          2   -1    0    0  501    0  0.00000000000E+00 -0.00000000000E+00 -0.64537064877E+03  0.64537064878E+03  0.25500000000E-02 0.  1.
    5000001    1    1    2    0    0 -0.49288687199E+03  0.21089683846E+03 -0.11443857450E+03  0.58084002305E+03  0.19200000000E+03 0.  0.
   -5000001    1    1    2    0    0  0.49288687199E+03 -0.21089683846E+03 -0.25439781573E+02  0.57002291843E+03  0.19200000000E+03 0.  0.
<mgrwt>
<rscale>  0 0.11423308E+04</rscale>
<asrwt>0</asrwt>
<pdfrwt beam="1">  1        2 0.92195807E-01 0.11423308E+04</pdfrwt>
<pdfrwt beam="2">  1       -2 0.72213185E-01 0.11423308E+04</pdfrwt>
<totfact> 0.85582950E+01</totfact>
</mgrwt>
</event>
<event>
 4    1  0.5812319E-005  0.3980901E+03  0.7818608E-02  0.1044443E+00
          2   -1    0    0  501    0  0.00000000000E+00  0.00000000000E+00  0.10643058958E+04  0.10643058958E+04  0.25500000000E-02 0.  1.
         -2   -1    0    0    0  501 -0.00000000000E+00 -0.00000000000E+00 -0.37225129134E+02  0.37225129221E+02  0.25500000000E-02 0. -1.
    5000001    1    1    2    0    0 -0.14317861075E+02  0.20374406273E+02  0.64138860585E+03  0.66997273175E+03  0.19200000000E+03 0.  0.
   -5000001    1    1    2    0    0  0.14317861075E+02 -0.20374406273E+02  0.38569216081E+03  0.43155829327E+03  0.19200000000E+03 0.  0.
<mgrwt>
<rscale>  0 0.39809006E+03</rscale>
<asrwt>0</asrwt>
<pdfrwt beam="1">  1        2 0.15204366E+00 0.39809006E+03</pdfrwt>
<pdfrwt beam="2">  1       -2 0.53178771E-02 0.39809006E+03</pdfrwt>
<totfact> 0.47851139E+03</totfact>
</mgrwt>
</event>
<event>
 4    1  0.5812319E-005  0.4383973E+03  0.7818608E-02  0.1031240E+00
          2   -1    0    0  501    0  0.00000000000E+00  0.00000000000E+00  0.25606981595E+03  0.25606981596E+03  0.25500000000E-02 0.  1.
         -2   -1    0    0    0  501 -0.00000000000E+00 -0.00000000000E+00 -0.18763651221E+03  0.18763651223E+03  0.25500000000E-02 0. -1.
    5000001    1    1    2    0    0  0.28719974546E+02 -0.98222063636E+02  0.61216221613E+02  0.22601733675E+03  0.19200000000E+03 0.  0.
   -5000001    1    1    2    0    0 -0.28719974546E+02  0.98222063636E+02  0.72170821250E+01  0.21768899145E+03  0.19200000000E+03 0.  0.
<mgrwt>
<rscale>  0 0.43839730E+03</rscale>
<asrwt>0</asrwt>
<pdfrwt beam="1">  1        2 0.36581402E-01 0.43839730E+03</pdfrwt>
<pdfrwt beam="2">  1       -2 0.26805216E-01 0.43839730E+03</pdfrwt>
<totfact> 0.17826694E+03</totfact>
</mgrwt>
</event>
<event>
 4    1  0.5812319E-005  0.6007293E+03  0.7818608E-02  0.9903894E-01
         -2   -1    0    0    0  501 -0.00000000000E+00  0.00000000000E+00  0.44698339117E+02  0.44698339190E+02  0.25500000000E-02 0. -1.
          2   -1    0    0  501    0  0.00000000000E+00 -0.00000000000E+00 -0.20183951473E+04  0.20183951473E+04  0.25500000000E-02 0.  1.
    5000001    1    1    2    0    0  0.22276913178E+03 -0.47092836789E+02 -0.11203496182E+04  0.11592631662E+04  0.19200000000E+03 0.  0.
   -5000001    1    1    2    0    0 -0.22276913178E+03  0.47092836789E+02 -0.85334718997E+03  0.90383032034E+03  0.19200000000E+03 0.  0.
<mgrwt>
<rscale>  0 0.60072926E+03</rscale>
<asrwt>0</asrwt>
<pdfrwt beam="1">  1        2 0.28834211E+00 0.60072926E+03</pdfrwt>
<pdfrwt beam="2">  1       -2 0.63854783E-02 0.60072926E+03</pdfrwt>
<totfact> 0.11360425E+03</totfact>
</mgrwt>
</event>
<event>
 4    1  0.5812319E-005  0.4980403E+03  0.7818608E-02  0.1014292E+00
         -2   -1    0    0    0  501 -0.00000000000E+00  0.00000000000E+00  0.12632776622E+03  0.12632776624E+03  0.25500000000E-02 0. -1.
          2   -1    0    0  501    0  0.00000000000E+00 -0.00000000000E+00 -0.49087412460E+03  0.49087412461E+03  0.25500000000E-02 0.  1.
    5000001    1    1    2    0    0 -0.30671639512E+02 -0.14358352206E+03 -0.10802030179E+03  0.26474395720E+03  0.19200000000E+03 0.  0.
   -5000001    1    1    2    0    0  0.30671639512E+02  0.14358352206E+03 -0.25652605660E+03  0.35245793365E+03  0.19200000000E+03 0.  0.
<mgrwt>
<rscale>  0 0.49804029E+03</rscale>
<asrwt>0</asrwt>
<pdfrwt beam="1">  1        2 0.70124874E-01 0.49804029E+03</pdfrwt>
<pdfrwt beam="2">  1       -2 0.18046824E-01 0.49804029E+03</pdfrwt>
<totfact> 0.17437233E+03</totfact>
</mgrwt>
</event>
<event>
 4    1  0.5812319E-005  0.5311166E+03  0.7818608E-02  0.1005962E+00
         -2   -1    0    0    0  501 -0.00000000000E+00  0.00000000000E+00  0.24212844316E+03  0.24212844317E+03  0.25500000000E-02 0. -1.
          2   -1    0    0  501    0  0.00000000000E+00 -0.00000000000E+00 -0.29125533890E+03  0.29125533891E+03  0.25500000000E-02 0.  1.
    5000001    1    1    2    0    0 -0.18975874348E+02  0.17264950049E+03  0.34758734423E+02  0.26122806787E+03  0.19200000000E+03 0.  0.
   -5000001    1    1    2    0    0  0.18975874348E+02 -0.17264950049E+03 -0.83885630164E+02  0.27215571420E+03  0.19200000000E+03 0.  0.
<mgrwt>
<rscale>  0 0.53111657E+03</rscale>
<asrwt>0</asrwt>
<pdfrwt beam="1">  1        2 0.41607905E-01 0.53111657E+03</pdfrwt>
<pdfrwt beam="2">  1       -2 0.34589778E-01 0.53111657E+03</pdfrwt>
<totfact> 0.96770628E+02</totfact>
</mgrwt>
</event>
<event>
 4    1  0.5812319E-005  0.7877585E+03  0.7818608E-02  0.9577907E-01
         -2   -1    0    0    0  501 -0.00000000000E+00  0.00000000000E+00  0.37577283254E+03  0.37577283254E+03  0.25500000000E-02 0. -1.
          2   -1    0    0  501    0  0.00000000000E+00 -0.00000000000E+00 -0.41285813971E+03  0.41285813971E+03  0.25500000000E-02 0.  1.
    5000001    1    1    2    0    0  0.30827536617E+03  0.11602163377E+03 -0.11755695226E+03  0.39897162545E+03  0.19200000000E+03 0.  0.
   -5000001    1    1    2    0    0 -0.30827536617E+03 -0.11602163377E+03  0.80471645089E+02  0.38965934681E+03  0.19200000000E+03 0.  0.
<mgrwt>
<rscale>  0 0.78775852E+03</rscale>
<asrwt>0</asrwt>
<pdfrwt beam="1">  1        2 0.58979734E-01 0.78775852E+03</pdfrwt>
<pdfrwt beam="2">  1       -2 0.53681833E-01 0.78775852E+03</pdfrwt>
<totfact> 0.27477382E+02</totfact>
</mgrwt>
</event>
<event>
 4    1  0.5812319E-005  0.6385525E+03  0.7818608E-02  0.9828500E-01
         -2   -1    0    0    0  501 -0.00000000000E+00  0.00000000000E+00  0.51534824978E+03  0.51534824978E+03  0.25500000000E-02 0. -1.
          2   -1    0    0  501    0  0.00000000000E+00 -0.00000000000E+00 -0.19780276502E+03  0.19780276504E+03  0.25500000000E-02 0.  1.
    5000001    1    1    2    0    0  0.15076234621E+02 -0.22999673057E+03  0.28084691999E+03  0.41093160184E+03  0.19200000000E+03 0.  0.
   -5000001    1    1    2    0    0 -0.15076234621E+02  0.22999673057E+03  0.36698564764E+02  0.30221941298E+03  0.19200000000E+03 0.  0.
<mgrwt>
<rscale>  0 0.63855245E+03</rscale>
<asrwt>0</asrwt>
<pdfrwt beam="1">  1        2 0.28257538E-01 0.63855245E+03</pdfrwt>
<pdfrwt beam="2">  1       -2 0.73621178E-01 0.63855245E+03</pdfrwt>
<totfact> 0.32003775E+02</totfact>
</mgrwt>
</event>
<event>
 4    1  0.5812319E-005  0.4576394E+03  0.7818608E-02  0.1025468E+00
          2   -1    0    0  501    0  0.00000000000E+00  0.00000000000E+00  0.27843783203E+04  0.27843783203E+04  0.25500000000E-02 0.  1.
         -2   -1    0    0    0  501 -0.00000000000E+00 -0.00000000000E+00 -0.18804364884E+02  0.18804365056E+02  0.25500000000E-02 0. -1.
    5000001    1    1    2    0    0 -0.60178041071E+01 -0.75145531948E+02  0.77605977591E+03  0.80300425947E+03  0.19200000000E+03 0.  0.
   -5000001    1    1    2    0    0  0.60178041071E+01  0.75145531948E+02  0.19895141795E+04  0.20001784259E+04  0.19200000000E+03 0.  0.
<mgrwt>
<rscale>  0 0.45763945E+03</rscale>
<asrwt>0</asrwt>
<pdfrwt beam="1">  1        2 0.39776841E+00 0.45763945E+03</pdfrwt>
<pdfrwt beam="2">  1       -2 0.26863373E-02 0.45763945E+03</pdfrwt>
<totfact> 0.17654037E+03</totfact>
</mgrwt>
</event>
<event>
 4    1  0.5812319E-005  0.1148036E+04  0.7818608E-02  0.9159597E-01
         -2   -1    0    0    0  501 -0.00000000000E+00  0.00000000000E+00  0.31260179836E+03  0.31260179837E+03  0.25500000000E-02 0.  1.
          2   -1    0    0  501    0  0.00000000000E+00 -0.00000000000E+00 -0.10540459329E+04  0.10540459329E+04  0.25500000000E-02 0. -1.
    5000001    1    1    2    0    0 -0.27352061455E+03  0.42491339143E+03 -0.14091276835E+03  0.55864597473E+03  0.19200000000E+03 0.  0.
   -5000001    1    1    2    0    0  0.27352061455E+03 -0.42491339143E+03 -0.60053136615E+03  0.80800175652E+03  0.19200000000E+03 0.  0.
<mgrwt>
<rscale>  0 0.11480360E+04</rscale>
<asrwt>0</asrwt>
<pdfrwt beam="1">  1        2 0.15057799E+00 0.11480360E+04</pdfrwt>
<pdfrwt beam="2">  1       -2 0.44657400E-01 0.11480360E+04</pdfrwt>
<totfact> 0.12246120E+02</totfact>
</mgrwt>
</event>
<event>
 4    1  0.5812319E-005  0.1239571E+04  0.7818608E-02  0.9078908E-01
         -2   -1    0    0    0  501 -0.00000000000E+00  0.00000000000E+00  0.28563725976E+03  0.28563725977E+03  0.25500000000E-02 0.  1.
          2   -1    0    0  501    0  0.00000000000E+00 -0.00000000000E+00 -0.13448315955E+04  0.13448315956E+04  0.25500000000E-02 0. -1.
    5000001    1    1    2    0    0  0.29059014585E+03  0.39430274926E+03 -0.98626553532E+02  0.53526487649E+03  0.19200000000E+03 0.  0.
   -5000001    1    1    2    0    0 -0.29059014585E+03 -0.39430274926E+03 -0.96056778226E+03  0.10952039788E+04  0.19200000000E+03 0.  0.
<mgrwt>
<rscale>  0 0.12395709E+04</rscale>
<asrwt>0</asrwt>
<pdfrwt beam="1">  1        2 0.19211880E+00 0.12395709E+04</pdfrwt>
<pdfrwt beam="2">  1       -2 0.40805323E-01 0.12395709E+04</pdfrwt>
<totfact> 0.99213164E+01</totfact>
</mgrwt>
</event>
<event>
 4    1  0.5812319E-005  0.8095921E+03  0.7818608E-02  0.9546236E-01
          2   -1    0    0  501    0  0.00000000000E+00  0.00000000000E+00  0.32966820198E+04  0.32966820198E+04  0.25500000000E-02 0.  1.
         -2   -1    0    0    0  501 -0.00000000000E+00 -0.00000000000E+00 -0.49704471630E+02  0.49704471696E+02  0.25500000000E-02 0. -1.
    5000001    1    1    2    0    0  0.11600165930E+03 -0.30639639336E+03  0.10439141451E+04  0.11108356662E+04  0.19200000000E+03 0.  0.
   -5000001    1    1    2    0    0 -0.11600165930E+03  0.30639639336E+03  0.22030634030E+04  0.22355508253E+04  0.19200000000E+03 0.  0.
<mgrwt>
<rscale>  0 0.80959209E+03</rscale>
<asrwt>0</asrwt>
<pdfrwt beam="1">  1        2 0.47095478E+00 0.80959209E+03</pdfrwt>
<pdfrwt beam="2">  1       -2 0.71006357E-02 0.80959209E+03</pdfrwt>
<totfact> 0.19920891E+02</totfact>
</mgrwt>
</event>
<event>
 4    1  0.5812319E-005  0.4659010E+03  0.7818608E-02  0.1023084E+00
         -2   -1    0    0    0  501 -0.00000000000E+00  0.00000000000E+00  0.41608898127E+03  0.41608898127E+03  0.25500000000E-02 0. -1.
          2   -1    0    0  501    0  0.00000000000E+00 -0.00000000000E+00 -0.13041908201E+03  0.13041908204E+03  0.25500000000E-02 0.  1.
    5000001    1    1    2    0    0  0.66031959049E+02  0.10361829081E+03  0.86518425905E+02  0.24381634036E+03  0.19200000000E+03 0.  0.
   -5000001    1    1    2    0    0 -0.66031959049E+02 -0.10361829081E+03  0.19915147335E+03  0.30269172295E+03  0.19200000000E+03 0.  0.
<mgrwt>
<rscale>  0 0.46590103E+03</rscale>
<asrwt>0</asrwt>
<pdfrwt beam="1">  1        2 0.18631298E-01 0.46590103E+03</pdfrwt>
<pdfrwt beam="2">  1       -2 0.59441282E-01 0.46590103E+03</pdfrwt>
<totfact> 0.81946404E+02</totfact>
</mgrwt>
</event>
<event>
 4    1  0.5812319E-005  0.8541742E+03  0.7818608E-02  0.9484752E-01
         -2   -1    0    0    0  501 -0.00000000000E+00  0.00000000000E+00  0.25994424652E+03  0.25994424653E+03  0.25500000000E-02 0. -1.
          2   -1    0    0  501    0  0.00000000000E+00 -0.00000000000E+00 -0.70170201923E+03  0.70170201923E+03  0.25500000000E-02 0.  1.
    5000001    1    1    2    0    0 -0.32411946586E+03  0.19900734030E+03 -0.25431503410E+03  0.49618291608E+03  0.19200000000E+03 0.  0.
   -5000001    1    1    2    0    0  0.32411946586E+03 -0.19900734030E+03 -0.18744273860E+03  0.46546334968E+03  0.19200000000E+03 0.  0.
<mgrwt>
<rscale>  0 0.85417423E+03</rscale>
<asrwt>0</asrwt>
<pdfrwt beam="1">  1        2 0.10024315E+00 0.85417423E+03</pdfrwt>
<pdfrwt beam="2">  1       -2 0.37134892E-01 0.85417423E+03</pdfrwt>
<totfact> 0.30750928E+02</totfact>
</mgrwt>
</event>
<event>
 4    1  0.5812319E-005  0.4726218E+03  0.7818608E-02  0.1021183E+00
          2   -1    0    0  501    0  0.00000000000E+00  0.00000000000E+00  0.85241710186E+03  0.85241710186E+03  0.25500000000E-02 0. -1.
         -2   -1    0    0    0  501 -0.00000000000E+00 -0.00000000000E+00 -0.65511174635E+02  0.65511174685E+02  0.25500000000E-02 0.  1.
    5000001    1    1    2    0    0  0.12513081233E+03  0.52501286067E+02  0.34729789343E+03  0.41939710540E+03  0.19200000000E+03 0.  0.
   -5000001    1    1    2    0    0 -0.12513081233E+03 -0.52501286067E+02  0.43960803379E+03  0.49853117115E+03  0.19200000000E+03 0.  0.
<mgrwt>
<rscale>  0 0.47262182E+03</rscale>
<asrwt>0</asrwt>
<pdfrwt beam="1">  1        2 0.12177387E+00 0.47262182E+03</pdfrwt>
<pdfrwt beam="2">  1       -2 0.93587396E-02 0.47262182E+03</pdfrwt>
<totfact> 0.26668834E+03</totfact>
</mgrwt>
</event>
<event>
 4    1  0.5812319E-005  0.5057242E+03  0.7818608E-02  0.1012296E+00
         -2   -1    0    0    0  501 -0.00000000000E+00  0.00000000000E+00  0.12074115003E+03  0.12074115005E+03  0.25500000000E-02 0. -1.
          2   -1    0    0  501    0  0.00000000000E+00 -0.00000000000E+00 -0.52955629170E+03  0.52955629170E+03  0.25500000000E-02 0.  1.
    5000001    1    1    2    0    0  0.13352913904E+03 -0.93600785636E+02 -0.17611549542E+03  0.30736266165E+03  0.19200000000E+03 0.  0.
   -5000001    1    1    2    0    0 -0.13352913904E+03  0.93600785636E+02 -0.23269964625E+03  0.34293478011E+03  0.19200000000E+03 0.  0.
<mgrwt>
<rscale>  0 0.50572418E+03</rscale>
<asrwt>0</asrwt>
<pdfrwt beam="1">  1        2 0.75650898E-01 0.50572418E+03</pdfrwt>
<pdfrwt beam="2">  1       -2 0.17248736E-01 0.50572418E+03</pdfrwt>
<totfact> 0.17284425E+03</totfact>
</mgrwt>
</event>
<event>
 4    1  0.5812319E-005  0.7648438E+03  0.7818608E-02  0.9612346E-01
          2   -1    0    0  501    0  0.00000000000E+00  0.00000000000E+00  0.81249880212E+03  0.81249880212E+03  0.25500000000E-02 0.  1.
         -2   -1    0    0    0  501 -0.00000000000E+00 -0.00000000000E+00 -0.17999596148E+03  0.17999596150E+03  0.25500000000E-02 0. -1.
    5000001    1    1    2    0    0  0.21496253269E+03 -0.19670907599E+03  0.11322448067E+03  0.36686119181E+03  0.19200000000E+03 0.  0.
   -5000001    1    1    2    0    0 -0.21496253269E+03  0.19670907599E+03  0.51927835997E+03  0.62563357181E+03  0.19200000000E+03 0.  0.
<mgrwt>
<rscale>  0 0.76484378E+03</rscale>
<asrwt>0</asrwt>
<pdfrwt beam="1">  1        2 0.11607126E+00 0.76484378E+03</pdfrwt>
<pdfrwt beam="2">  1       -2 0.25713709E-01 0.76484378E+03</pdfrwt>
<totfact> 0.50889869E+02</totfact>
</mgrwt>
</event>
<event>
 4    1  0.5812319E-005  0.7493863E+03  0.7818608E-02  0.9636314E-01
          2   -1    0    0  501    0  0.00000000000E+00  0.00000000000E+00  0.81798899973E+03  0.81798899974E+03  0.25500000000E-02 0.  1.
         -2   -1    0    0    0  501 -0.00000000000E+00 -0.00000000000E+00 -0.17163427259E+03  0.17163427260E+03  0.25500000000E-02 0. -1.
    5000001    1    1    2    0    0 -0.54146340698E+02  0.31716973123E+03  0.32525799526E+03  0.49617056351E+03  0.19200000000E+03 0.  0.
   -5000001    1    1    2    0    0  0.54146340698E+02 -0.31716973123E+03  0.32109673189E+03  0.49345270883E+03  0.19200000000E+03 0.  0.
<mgrwt>
<rscale>  0 0.74938627E+03</rscale>
<asrwt>0</asrwt>
<pdfrwt beam="1">  1        2 0.11685557E+00 0.74938627E+03</pdfrwt>
<pdfrwt beam="2">  1       -2 0.24519182E-01 0.74938627E+03</pdfrwt>
<totfact> 0.54996924E+02</totfact>
</mgrwt>
</event>
<event>
 4    1  0.5812319E-005  0.6550512E+03  0.7818608E-02  0.9797347E-01
         -2   -1    0    0    0  501 -0.00000000000E+00  0.00000000000E+00  0.18571610471E+03  0.18571610473E+03  0.25500000000E-02 0. -1.
          2   -1    0    0  501    0  0.00000000000E+00 -0.00000000000E+00 -0.57761823497E+03  0.57761823497E+03  0.25500000000E-02 0.  1.
    5000001    1    1    2    0    0 -0.26020163288E+03  0.48815189354E+02 -0.21683559681E+03  0.39238946024E+03  0.19200000000E+03 0.  0.
   -5000001    1    1    2    0    0  0.26020163288E+03 -0.48815189354E+02 -0.17506653344E+03  0.37094487946E+03  0.19200000000E+03 0.  0.
<mgrwt>
<rscale>  0 0.65505117E+03</rscale>
<asrwt>0</asrwt>
<pdfrwt beam="1">  1        2 0.82516890E-01 0.65505117E+03</pdfrwt>
<pdfrwt beam="2">  1       -2 0.26530872E-01 0.65505117E+03</pdfrwt>
<totfact> 0.73281088E+02</totfact>
</mgrwt>
</event>
<event>
 4    1  0.5812319E-005  0.7282526E+03  0.7818608E-02  0.9670100E-01
         -2   -1    0    0    0  501 -0.00000000000E+00  0.00000000000E+00  0.13310753378E+03  0.13310753381E+03  0.25500000000E-02 0. -1.
          2   -1    0    0  501    0  0.00000000000E+00 -0.00000000000E+00 -0.99609657237E+03  0.99609657237E+03  0.25500000000E-02 0.  1.
    5000001    1    1    2    0    0 -0.30377667531E+03 -0.56711241265E+02 -0.40810588807E+03  0.54672739937E+03  0.19200000000E+03 0.  0.
   -5000001    1    1    2    0    0  0.30377667531E+03  0.56711241265E+02 -0.45488315051E+03  0.58247670681E+03  0.19200000000E+03 0.  0.
<mgrwt>
<rscale>  0 0.72825259E+03</rscale>
<asrwt>0</asrwt>
<pdfrwt beam="1">  1        2 0.14229951E+00 0.72825259E+03</pdfrwt>
<pdfrwt beam="2">  1       -2 0.19015363E-01 0.72825259E+03</pdfrwt>
<totfact> 0.66089162E+02</totfact>
</mgrwt>
</event>
<event>
 4    1  0.5812319E-005  0.5424674E+03  0.7818608E-02  0.1003253E+00
          2   -1    0    0  501    0  0.00000000000E+00  0.00000000000E+00  0.66691114767E+03  0.66691114768E+03  0.25500000000E-02 0.  1.
         -2   -1    0    0    0  501 -0.00000000000E+00 -0.00000000000E+00 -0.11031110947E+03  0.11031110950E+03  0.25500000000E-02 0. -1.
    5000001    1    1    2    0    0 -0.16975374303E+03 -0.78819151893E+02  0.21966349487E+03  0.34661916126E+03  0.19200000000E+03 0.  0.
   -5000001    1    1    2    0    0  0.16975374303E+03  0.78819151893E+02  0.33693654333E+03  0.43060309591E+03  0.19200000000E+03 0.  0.
<mgrwt>
<rscale>  0 0.54246736E+03</rscale>
<asrwt>0</asrwt>
<pdfrwt beam="1">  1        2 0.95273024E-01 0.54246736E+03</pdfrwt>
<pdfrwt beam="2">  1       -2 0.15758729E-01 0.54246736E+03</pdfrwt>
<totfact> 0.15382334E+03</totfact>
</mgrwt>
</event>
<event>
 4    1  0.5812319E-005  0.9522941E+03  0.7818608E-02  0.9362473E-01
          2   -1    0    0  501    0  0.00000000000E+00  0.00000000000E+00  0.50246378058E+03  0.50246378058E+03  0.25500000000E-02 0. -1.
         -2   -1    0    0    0  501 -0.00000000000E+00 -0.00000000000E+00 -0.45120867075E+03  0.45120867076E+03  0.25500000000E-02 0.  1.
    5000001    1    1    2    0    0  0.27844048097E+03  0.32058907834E+03  0.12347032870E+03  0.48209478390E+03  0.19200000000E+03 0.  0.
   -5000001    1    1    2    0    0 -0.27844048097E+03 -0.32058907834E+03 -0.72215218875E+02  0.47157766744E+03  0.19200000000E+03 0.  0.
<mgrwt>
<rscale>  0 0.95229410E+03</rscale>
<asrwt>0</asrwt>
<pdfrwt beam="1">  1        2 0.71780540E-01 0.95229410E+03</pdfrwt>
<pdfrwt beam="2">  1       -2 0.64458381E-01 0.95229410E+03</pdfrwt>
<totfact> 0.14861931E+02</totfact>
</mgrwt>
</event>
<event>
 4    1  0.5812319E-005  0.4978411E+03  0.7818608E-02  0.1014344E+00
         -2   -1    0    0    0  501 -0.00000000000E+00  0.00000000000E+00  0.24451631186E+02  0.24451631319E+02  0.25500000000E-02 0. -1.
          2   -1    0    0  501    0  0.00000000000E+00 -0.00000000000E+00 -0.25340408861E+04  0.25340408861E+04  0.25500000000E-02 0.  1.
    5000001    1    1    2    0    0  0.74212403173E+02  0.99344588282E+02 -0.74810725290E+03  0.78224375347E+03  0.19200000000E+03 0.  0.
   -5000001    1    1    2    0    0 -0.74212403173E+02 -0.99344588282E+02 -0.17614820020E+04  0.17762487639E+04  0.19200000000E+03 0.  0.
<mgrwt>
<rscale>  0 0.49784107E+03</rscale>
<asrwt>0</asrwt>
<pdfrwt beam="1">  1        2 0.36200567E+00 0.49784107E+03</pdfrwt>
<pdfrwt beam="2">  1       -2 0.34930918E-02 0.49784107E+03</pdfrwt>
<totfact> 0.15940718E+03</totfact>
</mgrwt>
</event>
<event>
 4    1  0.5812319E-005  0.8580317E+03  0.7818608E-02  0.9479620E-01
          2   -1    0    0  501    0  0.00000000000E+00  0.00000000000E+00  0.21847160907E+04  0.21847160907E+04  0.25500000000E-02 0.  1.
         -2   -1    0    0    0  501 -0.00000000000E+00 -0.00000000000E+00 -0.84246464334E+02  0.84246464373E+02  0.25500000000E-02 0. -1.
    5000001    1    1    2    0    0  0.45955013707E+02 -0.24741952578E+03  0.28444880461E+03  0.42556246012E+03  0.19200000000E+03 0.  0.
   -5000001    1    1    2    0    0 -0.45955013707E+02  0.24741952578E+03  0.18160208218E+04  0.18434000950E+04  0.19200000000E+03 0.  0.
<mgrwt>
<rscale>  0 0.85803172E+03</rscale>
<asrwt>0</asrwt>
<pdfrwt beam="1">  1        2 0.31210232E+00 0.85803172E+03</pdfrwt>
<pdfrwt beam="2">  1       -2 0.12035208E-01 0.85803172E+03</pdfrwt>
<totfact> 0.33146924E+02</totfact>
</mgrwt>
</event>
<event>
 4    1  0.5812319E-005  0.4128113E+03  0.7818608E-02  0.1039432E+00
          2   -1    0    0  501    0  0.00000000000E+00  0.00000000000E+00  0.55371394490E+03  0.55371394490E+03  0.25500000000E-02 0.  1.
         -2   -1    0    0    0  501 -0.00000000000E+00 -0.00000000000E+00 -0.76940991820E+02  0.76940991862E+02  0.25500000000E-02 0. -1.
    5000001    1    1    2    0    0 -0.29533949758E+02 -0.47295228822E+02  0.16003716771E+03  0.25609566163E+03  0.19200000000E+03 0.  0.
   -5000001    1    1    2    0    0  0.29533949758E+02  0.47295228822E+02  0.31673578536E+03  0.37455927513E+03  0.19200000000E+03 0.  0.
<mgrwt>
<rscale>  0 0.41281134E+03</rscale>
<asrwt>0</asrwt>
<pdfrwt beam="1">  1        2 0.79101991E-01 0.41281134E+03</pdfrwt>
<pdfrwt beam="2">  1       -2 0.10991570E-01 0.41281134E+03</pdfrwt>
<totfact> 0.34624739E+03</totfact>
</mgrwt>
</event>
<event>
 4    1  0.5812319E-005  0.4627210E+03  0.7818608E-02  0.1023995E+00
         -2   -1    0    0    0  501 -0.00000000000E+00  0.00000000000E+00  0.15639605517E+03  0.15639605519E+03  0.25500000000E-02 0. -1.
          2   -1    0    0  501    0  0.00000000000E+00 -0.00000000000E+00 -0.34225721335E+03  0.34225721336E+03  0.25500000000E-02 0.  1.
    5000001    1    1    2    0    0  0.65517397495E+02 -0.35187111378E+02  0.20776076442E+02  0.20694518002E+03  0.19200000000E+03 0.  0.
   -5000001    1    1    2    0    0 -0.65517397495E+02  0.35187111378E+02 -0.20663723463E+03  0.29170808853E+03  0.19200000000E+03 0.  0.
<mgrwt>
<rscale>  0 0.46272099E+03</rscale>
<asrwt>0</asrwt>
<pdfrwt beam="1">  1        2 0.48893887E-01 0.46272099E+03</pdfrwt>
<pdfrwt beam="2">  1       -2 0.22342294E-01 0.46272099E+03</pdfrwt>
<totfact> 0.17945326E+03</totfact>
</mgrwt>
</event>
<event>
 4    1  0.5812319E-005  0.4803809E+03  0.7818608E-02  0.1019031E+00
         -2   -1    0    0    0  501 -0.00000000000E+00  0.00000000000E+00  0.61206308257E+02  0.61206308310E+02  0.25500000000E-02 0. -1.
          2   -1    0    0  501    0  0.00000000000E+00 -0.00000000000E+00 -0.94257367338E+03  0.94257367338E+03  0.25500000000E-02 0.  1.
    5000001    1    1    2    0    0 -0.20299327625E+02 -0.11055904194E+03 -0.62980921196E+03  0.66795135146E+03  0.19200000000E+03 0.  0.
   -5000001    1    1    2    0    0  0.20299327625E+02  0.11055904194E+03 -0.25155815316E+03  0.33582863023E+03  0.19200000000E+03 0.  0.
<mgrwt>
<rscale>  0 0.48038091E+03</rscale>
<asrwt>0</asrwt>
<pdfrwt beam="1">  1        2 0.13465337E+00 0.48038091E+03</pdfrwt>
<pdfrwt beam="2">  1       -2 0.87437589E-02 0.48038091E+03</pdfrwt>
<totfact> 0.26026920E+03</totfact>
</mgrwt>
</event>
<event>
 4    1  0.5812319E-005  0.4094621E+03  0.7818608E-02  0.1040552E+00
          2   -1    0    0  501    0  0.00000000000E+00  0.00000000000E+00  0.11284041537E+04  0.11284041537E+04  0.25500000000E-02 0.  1.
         -2   -1    0    0    0  501 -0.00000000000E+00 -0.00000000000E+00 -0.37145207908E+02  0.37145207996E+02  0.25500000000E-02 0. -1.
    5000001    1    1    2    0    0  0.22377583744E+02  0.53699344601E+02  0.66183067443E+03  0.69156938732E+03  0.19200000000E+03 0.  0.
   -5000001    1    1    2    0    0 -0.22377583744E+02 -0.53699344601E+02  0.42942827135E+03  0.47397997437E+03  0.19200000000E+03 0.  0.
<mgrwt>
<rscale>  0 0.40946212E+03</rscale>
<asrwt>0</asrwt>
<pdfrwt beam="1">  1        2 0.16120059E+00 0.40946212E+03</pdfrwt>
<pdfrwt beam="2">  1       -2 0.53064583E-02 0.40946212E+03</pdfrwt>
<totfact> 0.44125519E+03</totfact>
</mgrwt>
</event>
<event>
 4    1  0.5812319E-005  0.1577666E+04  0.7818608E-02  0.8834387E-01
         -2   -1    0    0    0  501 -0.00000000000E+00  0.00000000000E+00  0.62181505862E+03  0.62181505863E+03  0.25500000000E-02 0. -1.
          2   -1    0    0  501    0  0.00000000000E+00 -0.00000000000E+00 -0.10007119668E+04  0.10007119668E+04  0.25500000000E-02 0.  1.
    5000001    1    1    2    0    0  0.18279459487E+03 -0.73754341275E+03 -0.28148975639E+03  0.83275724707E+03  0.19200000000E+03 0.  0.
   -5000001    1    1    2    0    0 -0.18279459487E+03  0.73754341275E+03 -0.97407151792E+02  0.78976977836E+03  0.19200000000E+03 0.  0.
<mgrwt>
<rscale>  0 0.15776663E+04</rscale>
<asrwt>0</asrwt>
<pdfrwt beam="1">  1        2 0.14295885E+00 0.15776663E+04</pdfrwt>
<pdfrwt beam="2">  1       -2 0.88830723E-01 0.15776663E+04</pdfrwt>
<totfact> 0.29424459E+01</totfact>
</mgrwt>
</event>
<event>
 4    1  0.5812319E-005  0.5872179E+03  0.7818608E-02  0.9932286E-01
         -2   -1    0    0    0  501 -0.00000000000E+00  0.00000000000E+00  0.59481527716E+02  0.59481527771E+02  0.25500000000E-02 0. -1.
          2   -1    0    0  501    0  0.00000000000E+00 -0.00000000000E+00 -0.14492938050E+04  0.14492938050E+04  0.25500000000E-02 0.  1.
    5000001    1    1    2    0    0  0.11323786573E+03 -0.10052901883E+03 -0.27732898143E+03  0.36973539431E+03  0.19200000000E+03 0.  0.
   -5000001    1    1    2    0    0 -0.11323786573E+03  0.10052901883E+03 -0.11124832958E+04  0.11390399385E+04  0.19200000000E+03 0.  0.
<mgrwt>
<rscale>  0 0.58721788E+03</rscale>
<asrwt>0</asrwt>
<pdfrwt beam="1">  1        2 0.20704195E+00 0.58721788E+03</pdfrwt>
<pdfrwt beam="2">  1       -2 0.84973620E-02 0.58721788E+03</pdfrwt>
<totfact> 0.14085768E+03</totfact>
</mgrwt>
</event>
<event>
 4    1  0.5812319E-005  0.6921962E+03  0.7818608E-02  0.9730672E-01
         -2   -1    0    0    0  501 -0.00000000000E+00  0.00000000000E+00  0.14838706425E+03  0.14838706427E+03  0.25500000000E-02 0. -1.
          2   -1    0    0  501    0  0.00000000000E+00 -0.00000000000E+00 -0.80723955818E+03  0.80723955819E+03  0.25500000000E-02 0.  1.
    5000001    1    1    2    0    0  0.10204982882E+03 -0.26004338065E+03 -0.23295221981E+03  0.41129972538E+03  0.19200000000E+03 0.  0.
   -5000001    1    1    2    0    0 -0.10204982882E+03  0.26004338065E+03 -0.42590027413E+03  0.54432689708E+03  0.19200000000E+03 0.  0.
<mgrwt>
<rscale>  0 0.69219624E+03</rscale>
<asrwt>0</asrwt>
<pdfrwt beam="1">  1        2 0.11531993E+00 0.69219624E+03</pdfrwt>
<pdfrwt beam="2">  1       -2 0.21198152E-01 0.69219624E+03</pdfrwt>
<totfact> 0.72598606E+02</totfact>
</mgrwt>
</event>
<event>
 4    1  0.5812319E-005  0.1168700E+04  0.7818608E-02  0.9140703E-01
         -2   -1    0    0    0  501 -0.00000000000E+00  0.00000000000E+00  0.33474935346E+03  0.33474935347E+03  0.25500000000E-02 0. -1.
          2   -1    0    0  501    0  0.00000000000E+00 -0.00000000000E+00 -0.10200614104E+04  0.10200614104E+04  0.25500000000E-02 0.  1.
    5000001    1    1    2    0    0  0.43117318623E+03  0.12260134011E+03 -0.71588912620E+03  0.86620011899E+03  0.19200000000E+03 0.  0.
   -5000001    1    1    2    0    0 -0.43117318623E+03 -0.12260134011E+03  0.30577069262E+02  0.48861064488E+03  0.19200000000E+03 0.  0.
<mgrwt>
<rscale>  0 0.11687000E+04</rscale>
<asrwt>0</asrwt>
<pdfrwt beam="1">  1        2 0.14572306E+00 0.11687000E+04</pdfrwt>
<pdfrwt beam="2">  1       -2 0.47821337E-01 0.11687000E+04</pdfrwt>
<totfact> 0.11179769E+02</totfact>
</mgrwt>
</event>
<event>
 4    1  0.5812319E-005  0.7418970E+03  0.7818608E-02  0.9648149E-01
          2   -1    0    0  501    0  0.00000000000E+00  0.00000000000E+00  0.39005024906E+03  0.39005024907E+03  0.25500000000E-02 0.  1.
         -2   -1    0    0    0  501 -0.00000000000E+00 -0.00000000000E+00 -0.35278224200E+03  0.35278224200E+03  0.25500000000E-02 0. -1.
    5000001    1    1    2    0    0  0.13067929805E+03 -0.35106139877E+02  0.30610101541E+03  0.38583850460E+03  0.19200000000E+03 0.  0.
   -5000001    1    1    2    0    0 -0.13067929805E+03  0.35106139877E+02 -0.26883300835E+03  0.35699398647E+03  0.19200000000E+03 0.  0.
<mgrwt>
<rscale>  0 0.74189703E+03</rscale>
<asrwt>0</asrwt>
<pdfrwt beam="1">  1        2 0.55721465E-01 0.74189703E+03</pdfrwt>
<pdfrwt beam="2">  1       -2 0.50397463E-01 0.74189703E+03</pdfrwt>
<totfact> 0.33376816E+02</totfact>
</mgrwt>
</event>
<event>
 4    1  0.5812319E-005  0.4783951E+03  0.7818608E-02  0.1019577E+00
          2   -1    0    0  501    0  0.00000000000E+00  0.00000000000E+00  0.44346592609E+03  0.44346592610E+03  0.25500000000E-02 0.  1.
         -2   -1    0    0    0  501 -0.00000000000E+00 -0.00000000000E+00 -0.12901888405E+03  0.12901888407E+03  0.25500000000E-02 0. -1.
    5000001    1    1    2    0    0  0.94111965112E+02  0.10355434094E+03  0.19044971259E+03  0.30449245727E+03  0.19200000000E+03 0.  0.
   -5000001    1    1    2    0    0 -0.94111965112E+02 -0.10355434094E+03  0.12399732945E+03  0.26799235290E+03  0.19200000000E+03 0.  0.
<mgrwt>
<rscale>  0 0.47839515E+03</rscale>
<asrwt>0</asrwt>
<pdfrwt beam="1">  1        2 0.63352274E-01 0.47839515E+03</pdfrwt>
<pdfrwt beam="2">  1       -2 0.18431269E-01 0.47839515E+03</pdfrwt>
<totfact> 0.18840640E+03</totfact>
</mgrwt>
</event>
<event>
 4    1  0.5812319E-005  0.9103351E+03  0.7818608E-02  0.9412753E-01
          2   -1    0    0  501    0  0.00000000000E+00  0.00000000000E+00  0.15444725555E+04  0.15444725555E+04  0.25500000000E-02 0.  1.
         -2   -1    0    0    0  501 -0.00000000000E+00 -0.00000000000E+00 -0.13414127145E+03  0.13414127148E+03  0.25500000000E-02 0. -1.
    5000001    1    1    2    0    0 -0.23759510078E+03 -0.33637774927E+03  0.75437152224E+03  0.88064851995E+03  0.19200000000E+03 0.  0.
   -5000001    1    1    2    0    0  0.23759510078E+03  0.33637774927E+03  0.65595976176E+03  0.79796530699E+03  0.19200000000E+03 0.  0.
<mgrwt>
<rscale>  0 0.91033513E+03</rscale>
<asrwt>0</asrwt>
<pdfrwt beam="1">  1        2 0.22063895E+00 0.91033513E+03</pdfrwt>
<pdfrwt beam="2">  1       -2 0.19163038E-01 0.91033513E+03</pdfrwt>
<totfact> 0.31909022E+02</totfact>
</mgrwt>
</event>
<event>
 4    1  0.5812319E-005  0.4670935E+03  0.7818608E-02  0.1022744E+00
          2   -1    0    0  501    0  0.00000000000E+00  0.00000000000E+00  0.12104673707E+04  0.12104673707E+04  0.25500000000E-02 0.  1.
         -2   -1    0    0    0  501 -0.00000000000E+00 -0.00000000000E+00 -0.45060353240E+02  0.45060353313E+02  0.25500000000E-02 0. -1.
    5000001    1    1    2    0    0 -0.82918886428E+02 -0.85218662306E+02  0.42272314215E+03  0.47926674936E+03  0.19200000000E+03 0.  0.
   -5000001    1    1    2    0    0  0.82918886428E+02  0.85218662306E+02  0.74268387533E+03  0.77626097467E+03  0.19200000000E+03 0.  0.
<mgrwt>
<rscale>  0 0.46709351E+03</rscale>
<asrwt>0</asrwt>
<pdfrwt beam="1">  1        2 0.17292387E+00 0.46709351E+03</pdfrwt>
<pdfrwt beam="2">  1       -2 0.64371947E-02 0.46709351E+03</pdfrwt>
<totfact> 0.29432541E+03</totfact>
</mgrwt>
</event>
<event>
 4    1  0.5812319E-005  0.4126225E+03  0.7818608E-02  0.1039495E+00
         -2   -1    0    0    0  501 -0.00000000000E+00  0.00000000000E+00  0.15294587684E+04  0.15294587684E+04  0.25500000000E-02 0. -1.
          2   -1    0    0  501    0  0.00000000000E+00 -0.00000000000E+00 -0.27829663673E+02  0.27829663790E+02  0.25500000000E-02 0.  1.
    5000001    1    1    2    0    0  0.57088616532E+02  0.40059922529E+02  0.64166366250E+03  0.67339450793E+03  0.19200000000E+03 0.  0.
   -5000001    1    1    2    0    0 -0.57088616532E+02 -0.40059922529E+02  0.85996544217E+03  0.88389392421E+03  0.19200000000E+03 0.  0.
<mgrwt>
<rscale>  0 0.41262246E+03</rscale>
<asrwt>0</asrwt>
<pdfrwt beam="1">  1        2 0.39756656E-02 0.41262246E+03</pdfrwt>
<pdfrwt beam="2">  1       -2 0.21849415E+00 0.41262246E+03</pdfrwt>
<totfact> 0.23610110E+02</totfact>
</mgrwt>
</event>
<event>
 4    1  0.5812319E-005  0.5681513E+03  0.7818608E-02  0.9973778E-01
          2   -1    0    0  501    0  0.00000000000E+00  0.00000000000E+00  0.15302302909E+03  0.15302302911E+03  0.25500000000E-02 0.  1.
         -2   -1    0    0    0  501 -0.00000000000E+00 -0.00000000000E+00 -0.52736491255E+03  0.52736491255E+03  0.25500000000E-02 0. -1.
    5000001    1    1    2    0    0  0.24932720278E+02  0.10342671217E+03 -0.40311578289E+03  0.45900442236E+03  0.19200000000E+03 0.  0.
   -5000001    1    1    2    0    0 -0.24932720278E+02 -0.10342671217E+03  0.28773899428E+02  0.22138351930E+03  0.19200000000E+03 0.  0.
<mgrwt>
<rscale>  0 0.56815131E+03</rscale>
<asrwt>0</asrwt>
<pdfrwt beam="1">  1        2 0.21860433E-01 0.56815131E+03</pdfrwt>
<pdfrwt beam="2">  1       -2 0.75337844E-01 0.56815131E+03</pdfrwt>
<totfact> 0.40865604E+02</totfact>
</mgrwt>
</event>
<event>
 4    1  0.5812319E-005  0.6050999E+03  0.7818608E-02  0.9894882E-01
          2   -1    0    0  501    0  0.00000000000E+00  0.00000000000E+00  0.38781566226E+04  0.38781566226E+04  0.25500000000E-02 0.  1.
         -2   -1    0    0    0  501 -0.00000000000E+00 -0.00000000000E+00 -0.23603086279E+02  0.23603086416E+02  0.25500000000E-02 0. -1.
    5000001    1    1    2    0    0 -0.55499209813E+02 -0.21369476117E+03  0.24236924700E+04  0.24412895777E+04  0.19200000000E+03 0.  0.
   -5000001    1    1    2    0    0  0.55499209813E+02  0.21369476117E+03  0.14308610663E+04  0.14604701313E+04  0.19200000000E+03 0.  0.
<mgrwt>
<rscale>  0 0.60509988E+03</rscale>
<asrwt>0</asrwt>
<pdfrwt beam="1">  1        2 0.55402216E+00 0.60509988E+03</pdfrwt>
<pdfrwt beam="2">  1       -2 0.33718708E-02 0.60509988E+03</pdfrwt>
<totfact> 0.28790520E+02</totfact>
</mgrwt>
</event>
<event>
 4    1  0.5812319E-005  0.7766429E+03  0.7818608E-02  0.9594455E-01
         -2   -1    0    0    0  501 -0.00000000000E+00  0.00000000000E+00  0.24078936853E+03  0.24078936854E+03  0.25500000000E-02 0. -1.
          2   -1    0    0  501    0  0.00000000000E+00 -0.00000000000E+00 -0.62624663817E+03  0.62624663817E+03  0.25500000000E-02 0.  1.
    5000001    1    1    2    0    0  0.85549242628E+02 -0.25204074976E+03 -0.42446035312E+03  0.53653872537E+03  0.19200000000E+03 0.  0.
   -5000001    1    1    2    0    0 -0.85549242628E+02  0.25204074976E+03  0.39003083479E+02  0.33049728134E+03  0.19200000000E+03 0.  0.
<mgrwt>
<rscale>  0 0.77664286E+03</rscale>
<asrwt>0</asrwt>
<pdfrwt beam="1">  1        2 0.89463805E-01 0.77664286E+03</pdfrwt>
<pdfrwt beam="2">  1       -2 0.34398481E-01 0.77664286E+03</pdfrwt>
<totfact> 0.40995723E+02</totfact>
</mgrwt>
</event>
<event>
 4    1  0.5812319E-005  0.6412248E+03  0.7818608E-02  0.9823386E-01
         -2   -1    0    0    0  501 -0.00000000000E+00  0.00000000000E+00  0.45817451390E+02  0.45817451461E+02  0.25500000000E-02 0.  1.
          2   -1    0    0  501    0  0.00000000000E+00 -0.00000000000E+00 -0.22435189602E+04  0.22435189602E+04  0.25500000000E-02 0. -1.
    5000001    1    1    2    0    0  0.16184377805E+03 -0.13836087979E+03 -0.16111690855E+04  0.16364800529E+04  0.19200000000E+03 0.  0.
   -5000001    1    1    2    0    0 -0.16184377805E+03  0.13836087979E+03 -0.58653242331E+03  0.65285635874E+03  0.19200000000E+03 0.  0.
<mgrwt>
<rscale>  0 0.64122483E+03</rscale>
<asrwt>0</asrwt>
<pdfrwt beam="1">  1        2 0.32050264E+00 0.64122483E+03</pdfrwt>
<pdfrwt beam="2">  1       -2 0.65453516E-02 0.64122483E+03</pdfrwt>
<totfact> 0.83958974E+02</totfact>
</mgrwt>
</event>
<event>
 4    1  0.5812319E-005  0.1154950E+04  0.7818608E-02  0.9153230E-01
          2   -1    0    0  501    0  0.00000000000E+00  0.00000000000E+00  0.17747051578E+04  0.17747051578E+04  0.25500000000E-02 0.  1.
         -2   -1    0    0    0  501 -0.00000000000E+00 -0.00000000000E+00 -0.18790562836E+03  0.18790562837E+03  0.25500000000E-02 0. -1.
    5000001    1    1    2    0    0  0.33297710739E+03 -0.33004269160E+03  0.12643590186E+04  0.13620828390E+04  0.19200000000E+03 0.  0.
   -5000001    1    1    2    0    0 -0.33297710739E+03  0.33004269160E+03  0.32244051083E+03  0.60052794718E+03  0.19200000000E+03 0.  0.
<mgrwt>
<rscale>  0 0.11549495E+04</rscale>
<asrwt>0</asrwt>
<pdfrwt beam="1">  1        2 0.25352930E+00 0.11549495E+04</pdfrwt>
<pdfrwt beam="2">  1       -2 0.26843662E-01 0.11549495E+04</pdfrwt>
<totfact> 0.13068542E+02</totfact>
</mgrwt>
</event>
<event>
 4    1  0.5812319E-005  0.6941778E+03  0.7818608E-02  0.9727241E-01
          2   -1    0    0  501    0  0.00000000000E+00  0.00000000000E+00  0.20788459091E+04  0.20788459091E+04  0.25500000000E-02 0. -1.
         -2   -1    0    0    0  501 -0.00000000000E+00 -0.00000000000E+00 -0.57950764242E+02  0.57950764298E+02  0.25500000000E-02 0.  1.
    5000001    1    1    2    0    0 -0.83396593272E+02 -0.26468400969E+03  0.76048787709E+03  0.83199665141E+03  0.19200000000E+03 0.  0.
   -5000001    1    1    2    0    0  0.83396593272E+02  0.26468400969E+03  0.12604072678E+04  0.13048000220E+04  0.19200000000E+03 0.  0.
<mgrwt>
<rscale>  0 0.69417781E+03</rscale>
<asrwt>0</asrwt>
<pdfrwt beam="1">  1        2 0.29697796E+00 0.69417781E+03</pdfrwt>
<pdfrwt beam="2">  1       -2 0.82786813E-02 0.69417781E+03</pdfrwt>
<totfact> 0.69763403E+02</totfact>
</mgrwt>
</event>
<event>
 4    1  0.5812319E-005  0.8372642E+03  0.7818608E-02  0.9507592E-01
          2   -1    0    0  501    0  0.00000000000E+00  0.00000000000E+00  0.37301592294E+04  0.37301592294E+04  0.25500000000E-02 0.  1.
         -2   -1    0    0    0  501 -0.00000000000E+00 -0.00000000000E+00 -0.46982669261E+02  0.46982669330E+02  0.25500000000E-02 0. -1.
    5000001    1    1    2    0    0  0.31555031315E+03 -0.18868384552E+03  0.15857840447E+04  0.16391304494E+04  0.19200000000E+03 0.  0.
   -5000001    1    1    2    0    0 -0.31555031315E+03  0.18868384552E+03  0.20973925154E+04  0.21380114493E+04  0.19200000000E+03 0.  0.
<mgrwt>
<rscale>  0 0.83726421E+03</rscale>
<asrwt>0</asrwt>
<pdfrwt beam="1">  1        2 0.53287993E+00 0.83726421E+03</pdfrwt>
<pdfrwt beam="2">  1       -2 0.67118094E-02 0.83726421E+03</pdfrwt>
<totfact> 0.11916172E+02</totfact>
</mgrwt>
</event>
<event>
 4    1  0.5812319E-005  0.5319050E+03  0.7818608E-02  0.1005771E+00
         -2   -1    0    0    0  501 -0.00000000000E+00  0.00000000000E+00  0.25478693187E+03  0.25478693188E+03  0.25500000000E-02 0. -1.
          2   -1    0    0  501    0  0.00000000000E+00 -0.00000000000E+00 -0.27760738425E+03  0.27760738426E+03  0.25500000000E-02 0.  1.
    5000001    1    1    2    0    0  0.61351905095E+02 -0.14639503212E+03  0.81794564160E+02  0.26220204502E+03  0.19200000000E+03 0.  0.
   -5000001    1    1    2    0    0 -0.61351905095E+02  0.14639503212E+03 -0.10461501654E+03  0.27019227112E+03  0.19200000000E+03 0.  0.
<mgrwt>
<rscale>  0 0.53190501E+03</rscale>
<asrwt>0</asrwt>
<pdfrwt beam="1">  1        2 0.39658198E-01 0.53190501E+03</pdfrwt>
<pdfrwt beam="2">  1       -2 0.36398133E-01 0.53190501E+03</pdfrwt>
<totfact> 0.92627779E+02</totfact>
</mgrwt>
</event>
<event>
 4    1  0.5812319E-005  0.4871033E+03  0.7818608E-02  0.1017201E+00
          2   -1    0    0  501    0  0.00000000000E+00  0.00000000000E+00  0.51506431669E+03  0.51506431670E+03  0.25500000000E-02 0.  1.
         -2   -1    0    0    0  501 -0.00000000000E+00 -0.00000000000E+00 -0.11516502338E+03  0.11516502341E+03  0.25500000000E-02 0. -1.
    5000001    1    1    2    0    0  0.10078820115E+03  0.86037593456E+02  0.29045001262E+03  0.37253984862E+03  0.19200000000E+03 0.  0.
   -5000001    1    1    2    0    0 -0.10078820115E+03 -0.86037593456E+02  0.10944928069E+03  0.25768949149E+03  0.19200000000E+03 0.  0.
<mgrwt>
<rscale>  0 0.48710325E+03</rscale>
<asrwt>0</asrwt>
<pdfrwt beam="1">  1        2 0.73580617E-01 0.48710325E+03</pdfrwt>
<pdfrwt beam="2">  1       -2 0.16452146E-01 0.48710325E+03</pdfrwt>
<totfact> 0.19327466E+03</totfact>
</mgrwt>
</event>
<event>
 4    1  0.5812319E-005  0.5189154E+03  0.7818608E-02  0.1008956E+00
         -2   -1    0    0    0  501 -0.00000000000E+00  0.00000000000E+00  0.10743024765E+03  0.10743024768E+03  0.25500000000E-02 0. -1.
          2   -1    0    0  501    0  0.00000000000E+00 -0.00000000000E+00 -0.62662330310E+03  0.62662330310E+03  0.25500000000E-02 0.  1.
    5000001    1    1    2    0    0  0.16593930007E+03  0.26242568527E+02 -0.19279882778E+03  0.31978103712E+03  0.19200000000E+03 0.  0.
   -5000001    1    1    2    0    0 -0.16593930007E+03 -0.26242568527E+02 -0.32639422767E+03  0.41427251365E+03  0.19200000000E+03 0.  0.
<mgrwt>
<rscale>  0 0.51891539E+03</rscale>
<asrwt>0</asrwt>
<pdfrwt beam="1">  1        2 0.89517612E-01 0.51891539E+03</pdfrwt>
<pdfrwt beam="2">  1       -2 0.15347179E-01 0.51891539E+03</pdfrwt>
<totfact> 0.17325128E+03</totfact>
</mgrwt>
</event>
<event>
 4    1  0.5812319E-005  0.5882911E+03  0.7818608E-02  0.9930001E-01
          2   -1    0    0  501    0  0.00000000000E+00  0.00000000000E+00  0.18855081946E+04  0.18855081946E+04  0.25500000000E-02 0.  1.
         -2   -1    0    0    0  501 -0.00000000000E+00 -0.00000000000E+00 -0.45887683675E+02  0.45887683746E+02  0.25500000000E-02 0. -1.
    5000001    1    1    2    0    0  0.71479940865E+02  0.11602503625E+03  0.34096253350E+03  0.41435569289E+03  0.19200000000E+03 0.  0.
   -5000001    1    1    2    0    0 -0.71479940865E+02 -0.11602503625E+03  0.14986579774E+04  0.15170401854E+04  0.19200000000E+03 0.  0.
<mgrwt>
<rscale>  0 0.58829110E+03</rscale>
<asrwt>0</asrwt>
<pdfrwt beam="1">  1        2 0.26935831E+00 0.58829110E+03</pdfrwt>
<pdfrwt beam="2">  1       -2 0.65553835E-02 0.58829110E+03</pdfrwt>
<totfact> 0.12720132E+03</totfact>
</mgrwt>
</event>
<event>
 4    1  0.5812319E-005  0.6151501E+03  0.7818608E-02  0.9874463E-01
          2   -1    0    0  501    0  0.00000000000E+00  0.00000000000E+00  0.21832658268E+04  0.21832658268E+04  0.25500000000E-02 0.  1.
         -2   -1    0    0    0  501 -0.00000000000E+00 -0.00000000000E+00 -0.43330693462E+02  0.43330693537E+02  0.25500000000E-02 0. -1.
    5000001    1    1    2    0    0  0.23680252668E+03 -0.34182452113E+02  0.11504615865E+04  0.11906593714E+04  0.19200000000E+03 0.  0.
   -5000001    1    1    2    0    0 -0.23680252668E+03  0.34182452113E+02  0.98947354686E+03  0.10359371490E+04  0.19200000000E+03 0.  0.
<mgrwt>
<rscale>  0 0.61515014E+03</rscale>
<asrwt>0</asrwt>
<pdfrwt beam="1">  1        2 0.31189520E+00 0.61515014E+03</pdfrwt>
<pdfrwt beam="2">  1       -2 0.61900974E-02 0.61515014E+03</pdfrwt>
<totfact> 0.98476278E+02</totfact>
</mgrwt>
</event>
<event>
 4    1  0.5812319E-005  0.5591822E+03  0.7818608E-02  0.9993907E-01
          2   -1    0    0  501    0  0.00000000000E+00  0.00000000000E+00  0.62799788171E+02  0.62799788223E+02  0.25500000000E-02 0.  1.
         -2   -1    0    0    0  501 -0.00000000000E+00 -0.00000000000E+00 -0.12447682338E+04  0.12447682338E+04  0.25500000000E-02 0. -1.
    5000001    1    1    2    0    0 -0.11693340244E+03  0.16340442769E+03 -0.51956839393E+03  0.58922809129E+03  0.19200000000E+03 0.  0.
   -5000001    1    1    2    0    0  0.11693340244E+03 -0.16340442769E+03 -0.66240005167E+03  0.71833993070E+03  0.19200000000E+03 0.  0.
<mgrwt>
<rscale>  0 0.55918219E+03</rscale>
<asrwt>0</asrwt>
<pdfrwt beam="1">  1        2 0.89713990E-02 0.55918219E+03</pdfrwt>
<pdfrwt beam="2">  1       -2 0.17782402E+00 0.55918219E+03</pdfrwt>
<totfact> 0.14653756E+02</totfact>
</mgrwt>
</event>
<event>
 4    1  0.5812319E-005  0.9415018E+03  0.7818608E-02  0.9375139E-01
         -2   -1    0    0    0  501 -0.00000000000E+00  0.00000000000E+00  0.34221381100E+03  0.34221381101E+03  0.25500000000E-02 0.  1.
          2   -1    0    0  501    0  0.00000000000E+00 -0.00000000000E+00 -0.64756711629E+03  0.64756711629E+03  0.25500000000E-02 0. -1.
    5000001    1    1    2    0    0  0.41584969136E+03  0.10843520678E+03 -0.14500513456E+03  0.49252375468E+03  0.19200000000E+03 0.  0.
   -5000001    1    1    2    0    0 -0.41584969136E+03 -0.10843520678E+03 -0.16034817073E+03  0.49725717263E+03  0.19200000000E+03 0.  0.
<mgrwt>
<rscale>  0 0.94150180E+03</rscale>
<asrwt>0</asrwt>
<pdfrwt beam="1">  1        2 0.92509588E-01 0.94150180E+03</pdfrwt>
<pdfrwt beam="2">  1       -2 0.48887687E-01 0.94150180E+03</pdfrwt>
<totfact> 0.19632561E+02</totfact>
</mgrwt>
</event>
<event>
 4    1  0.5812319E-005  0.8588781E+03  0.7818608E-02  0.9478498E-01
          2   -1    0    0  501    0  0.00000000000E+00  0.00000000000E+00  0.17302100954E+04  0.17302100954E+04  0.25500000000E-02 0.  1.
         -2   -1    0    0    0  501 -0.00000000000E+00 -0.00000000000E+00 -0.10658698603E+03  0.10658698606E+03  0.25500000000E-02 0. -1.
    5000001    1    1    2    0    0 -0.61367573839E+02  0.37056230655E+03  0.63977078220E+03  0.76632438035E+03  0.19200000000E+03 0.  0.
   -5000001    1    1    2    0    0  0.61367573839E+02 -0.37056230655E+03  0.98385232722E+03  0.10704727012E+04  0.19200000000E+03 0.  0.
<mgrwt>
<rscale>  0 0.85887806E+03</rscale>
<asrwt>0</asrwt>
<pdfrwt beam="1">  1        2 0.24717284E+00 0.85887806E+03</pdfrwt>
<pdfrwt beam="2">  1       -2 0.15226714E-01 0.85887806E+03</pdfrwt>
<totfact> 0.38071907E+02</totfact>
</mgrwt>
</event>
<event>
 4    1  0.5812319E-005  0.5826293E+03  0.7818608E-02  0.9942115E-01
         -2   -1    0    0    0  501 -0.00000000000E+00  0.00000000000E+00  0.39540111265E+02  0.39540111347E+02  0.25500000000E-02 0. -1.
          2   -1    0    0  501    0  0.00000000000E+00 -0.00000000000E+00 -0.21462815961E+04  0.21462815961E+04  0.25500000000E-02 0.  1.
    5000001    1    1    2    0    0 -0.15461065556E+03  0.67786351706E+02 -0.52947084623E+03  0.58796498306E+03  0.19200000000E+03 0.  0.
   -5000001    1    1    2    0    0  0.15461065556E+03 -0.67786351706E+02 -0.15772706386E+04  0.15978567244E+04  0.19200000000E+03 0.  0.
<mgrwt>
<rscale>  0 0.58262926E+03</rscale>
<asrwt>0</asrwt>
<pdfrwt beam="1">  1        2 0.30661158E+00 0.58262926E+03</pdfrwt>
<pdfrwt beam="2">  1       -2 0.56485887E-02 0.58262926E+03</pdfrwt>
<totfact> 0.11884972E+03</totfact>
</mgrwt>
</event>
<event>
 4    1  0.5812319E-005  0.5618172E+03  0.7818608E-02  0.9987951E-01
          2   -1    0    0  501    0  0.00000000000E+00  0.00000000000E+00  0.11813801066E+04  0.11813801066E+04  0.25500000000E-02 0.  1.
         -2   -1    0    0    0  501 -0.00000000000E+00 -0.00000000000E+00 -0.66794457669E+02  0.66794457718E+02  0.25500000000E-02 0. -1.
    5000001    1    1    2    0    0  0.12456317967E+03  0.14319031109E+03  0.38482749722E+03  0.47008047560E+03  0.19200000000E+03 0.  0.
   -5000001    1    1    2    0    0 -0.12456317967E+03 -0.14319031109E+03  0.72975815173E+03  0.77809408874E+03  0.19200000000E+03 0.  0.
<mgrwt>
<rscale>  0 0.56181721E+03</rscale>
<asrwt>0</asrwt>
<pdfrwt beam="1">  1        2 0.16876857E+00 0.56181721E+03</pdfrwt>
<pdfrwt beam="2">  1       -2 0.95420661E-02 0.56181721E+03</pdfrwt>
<totfact> 0.16344447E+03</totfact>
</mgrwt>
</event>
<event>
 4    1  0.5812319E-005  0.7973246E+03  0.7818608E-02  0.9563898E-01
         -2   -1    0    0    0  501 -0.00000000000E+00  0.00000000000E+00  0.25463414236E+03  0.25463414237E+03  0.25500000000E-02 0. -1.
          2   -1    0    0  501    0  0.00000000000E+00 -0.00000000000E+00 -0.62415686188E+03  0.62415686188E+03  0.25500000000E-02 0.  1.
    5000001    1    1    2    0    0 -0.30557434046E+03  0.35303809915E+02 -0.36735551168E+03  0.51617449424E+03  0.19200000000E+03 0.  0.
   -5000001    1    1    2    0    0  0.30557434046E+03 -0.35303809915E+02 -0.21672078390E+01  0.36261651001E+03  0.19200000000E+03 0.  0.
<mgrwt>
<rscale>  0 0.79732464E+03</rscale>
<asrwt>0</asrwt>
<pdfrwt beam="1">  1        2 0.89165265E-01 0.79732464E+03</pdfrwt>
<pdfrwt beam="2">  1       -2 0.36376306E-01 0.79732464E+03</pdfrwt>
<totfact> 0.36971325E+02</totfact>
</mgrwt>
</event>
<event>
 4    1  0.5812319E-005  0.5886656E+03  0.7818608E-02  0.9929204E-01
         -2   -1    0    0    0  501 -0.00000000000E+00  0.00000000000E+00  0.13306974386E+03  0.13306974389E+03  0.25500000000E-02 0. -1.
          2   -1    0    0  501    0  0.00000000000E+00 -0.00000000000E+00 -0.65102552711E+03  0.65102552711E+03  0.25500000000E-02 0.  1.
    5000001    1    1    2    0    0  0.20043914600E+03  0.38205872264E+02 -0.13886052480E+03  0.31270079193E+03  0.19200000000E+03 0.  0.
   -5000001    1    1    2    0    0 -0.20043914600E+03 -0.38205872264E+02 -0.37909525844E+03  0.47139447907E+03  0.19200000000E+03 0.  0.
<mgrwt>
<rscale>  0 0.58866561E+03</rscale>
<asrwt>0</asrwt>
<pdfrwt beam="1">  1        2 0.93003645E-01 0.58866561E+03</pdfrwt>
<pdfrwt beam="2">  1       -2 0.19009964E-01 0.58866561E+03</pdfrwt>
<totfact> 0.11488900E+03</totfact>
</mgrwt>
</event>
<event>
 4    1  0.5812319E-005  0.1410440E+04  0.7818608E-02  0.8946296E-01
          2   -1    0    0  501    0  0.00000000000E+00  0.00000000000E+00  0.24264868992E+04  0.24264868992E+04  0.25500000000E-02 0. -1.
         -2   -1    0    0    0  501 -0.00000000000E+00 -0.00000000000E+00 -0.20496112594E+03  0.20496112596E+03  0.25500000000E-02 0.  1.
    5000001    1    1    2    0    0 -0.47909882483E+03 -0.45357492535E+03  0.81456052905E+03  0.10656635268E+04  0.19200000000E+03 0.  0.
   -5000001    1    1    2    0    0  0.47909882483E+03  0.45357492535E+03  0.14069652442E+04  0.15657844983E+04  0.19200000000E+03 0.  0.
<mgrwt>
<rscale>  0 0.14104403E+04</rscale>
<asrwt>0</asrwt>
<pdfrwt beam="1">  1        2 0.34664101E+00 0.14104403E+04</pdfrwt>
<pdfrwt beam="2">  1       -2 0.29280159E-01 0.14104403E+04</pdfrwt>
<totfact> 0.50428536E+01</totfact>
</mgrwt>
</event>
<event>
 4    1  0.5812319E-005  0.5063658E+03  0.7818608E-02  0.1012131E+00
         -2   -1    0    0    0  501 -0.00000000000E+00  0.00000000000E+00  0.13785320978E+03  0.13785320981E+03  0.25500000000E-02 0. -1.
          2   -1    0    0  501    0  0.00000000000E+00 -0.00000000000E+00 -0.46499878621E+03  0.46499878622E+03  0.25500000000E-02 0.  1.
    5000001    1    1    2    0    0  0.82621845739E+02  0.17630181255E+02  0.52179132332E+01  0.20982950055E+03  0.19200000000E+03 0.  0.
   -5000001    1    1    2    0    0 -0.82621845739E+02 -0.17630181255E+02 -0.33236348966E+03  0.39302249547E+03  0.19200000000E+03 0.  0.
<mgrwt>
<rscale>  0 0.50636578E+03</rscale>
<asrwt>0</asrwt>
<pdfrwt beam="1">  1        2 0.66428397E-01 0.50636578E+03</pdfrwt>
<pdfrwt beam="2">  1       -2 0.19693316E-01 0.50636578E+03</pdfrwt>
<totfact> 0.15945994E+03</totfact>
</mgrwt>
</event>
<event>
 4    1  0.5812319E-005  0.4736407E+03  0.7818608E-02  0.1020898E+00
         -2   -1    0    0    0  501 -0.00000000000E+00  0.00000000000E+00  0.11534789157E+03  0.11534789160E+03  0.25500000000E-02 0. -1.
          2   -1    0    0  501    0  0.00000000000E+00 -0.00000000000E+00 -0.48621505656E+03  0.48621505657E+03  0.25500000000E-02 0.  1.
    5000001    1    1    2    0    0  0.37582758184E+02 -0.13234939388E+03 -0.16376551279E+03  0.28742297916E+03  0.19200000000E+03 0.  0.
   -5000001    1    1    2    0    0 -0.37582758184E+02  0.13234939388E+03 -0.20710165221E+03  0.31413996900E+03  0.19200000000E+03 0.  0.
<mgrwt>
<rscale>  0 0.47364071E+03</rscale>
<asrwt>0</asrwt>
<pdfrwt beam="1">  1        2 0.69459293E-01 0.47364071E+03</pdfrwt>
<pdfrwt beam="2">  1       -2 0.16478270E-01 0.47364071E+03</pdfrwt>
<totfact> 0.20568709E+03</totfact>
</mgrwt>
</event>
<event>
 4    1  0.5812319E-005  0.7179266E+03  0.7818608E-02  0.9687057E-01
         -2   -1    0    0    0  501 -0.00000000000E+00  0.00000000000E+00  0.85222531328E+02  0.85222531366E+02  0.25500000000E-02 0. -1.
          2   -1    0    0  501    0  0.00000000000E+00 -0.00000000000E+00 -0.15119788253E+04  0.15119788253E+04  0.25500000000E-02 0.  1.
    5000001    1    1    2    0    0 -0.92489856334E+02  0.99660736549E+02 -0.11021448186E+03  0.25980351796E+03  0.19200000000E+03 0.  0.
   -5000001    1    1    2    0    0  0.92489856334E+02 -0.99660736549E+02 -0.13165418121E+04  0.13373978387E+04  0.19200000000E+03 0.  0.
<mgrwt>
<rscale>  0 0.71792663E+03</rscale>
<asrwt>0</asrwt>
<pdfrwt beam="1">  1        2 0.21599696E+00 0.71792663E+03</pdfrwt>
<pdfrwt beam="2">  1       -2 0.12174648E-01 0.71792663E+03</pdfrwt>
<totfact> 0.72382929E+02</totfact>
</mgrwt>
</event>
<event>
 4    1  0.5812319E-005  0.6490429E+03  0.7818608E-02  0.9808577E-01
         -2   -1    0    0    0  501 -0.00000000000E+00  0.00000000000E+00  0.64186811053E+02  0.64186811104E+02  0.25500000000E-02 0. -1.
          2   -1    0    0  501    0  0.00000000000E+00 -0.00000000000E+00 -0.16407449535E+04  0.16407449535E+04  0.25500000000E-02 0.  1.
    5000001    1    1    2    0    0 -0.12517941048E+03 -0.11189189404E+03 -0.13153549972E+04  0.13398553838E+04  0.19200000000E+03 0.  0.
   -5000001    1    1    2    0    0  0.12517941048E+03  0.11189189404E+03 -0.26120314526E+03  0.36507638084E+03  0.19200000000E+03 0.  0.
<mgrwt>
<rscale>  0 0.64904295E+03</rscale>
<asrwt>0</asrwt>
<pdfrwt beam="1">  1        2 0.23439211E+00 0.64904295E+03</pdfrwt>
<pdfrwt beam="2">  1       -2 0.91695455E-02 0.64904295E+03</pdfrwt>
<totfact> 0.98931616E+02</totfact>
</mgrwt>
</event>
<event>
 4    1  0.5812319E-005  0.5672097E+03  0.7818608E-02  0.9975872E-01
         -2   -1    0    0    0  501 -0.00000000000E+00  0.00000000000E+00  0.73158115392E+02  0.73158115437E+02  0.25500000000E-02 0. -1.
          2   -1    0    0  501    0  0.00000000000E+00 -0.00000000000E+00 -0.10994229520E+04  0.10994229520E+04  0.25500000000E-02 0.  1.
    5000001    1    1    2    0    0 -0.17471096792E+03 -0.65731868254E+02 -0.32005347545E+03  0.41730423909E+03  0.19200000000E+03 0.  0.
   -5000001    1    1    2    0    0  0.17471096792E+03  0.65731868254E+02 -0.70621136115E+03  0.75527682835E+03  0.19200000000E+03 0.  0.
<mgrwt>
<rscale>  0 0.56720970E+03</rscale>
<asrwt>0</asrwt>
<pdfrwt beam="1">  1        2 0.15706041E+00 0.56720970E+03</pdfrwt>
<pdfrwt beam="2">  1       -2 0.10451160E-01 0.56720970E+03</pdfrwt>
<totfact> 0.15710258E+03</totfact>
</mgrwt>
</event>
<event>
 4    1  0.5812319E-005  0.4816836E+03  0.7818608E-02  0.1018673E+00
          2   -1    0    0  501    0  0.00000000000E+00  0.00000000000E+00  0.18593333976E+04  0.18593333976E+04  0.25500000000E-02 0.  1.
         -2   -1    0    0    0  501 -0.00000000000E+00 -0.00000000000E+00 -0.31196543377E+02  0.31196543481E+02  0.25500000000E-02 0. -1.
    5000001    1    1    2    0    0 -0.13097215019E+03  0.51930589998E+02  0.77308616360E+03  0.80893553924E+03  0.19200000000E+03 0.  0.
   -5000001    1    1    2    0    0  0.13097215019E+03 -0.51930589998E+02  0.10550506906E+04  0.10815944018E+04  0.19200000000E+03 0.  0.
<mgrwt>
<rscale>  0 0.48168361E+03</rscale>
<asrwt>0</asrwt>
<pdfrwt beam="1">  1        2 0.26561904E+00 0.48168361E+03</pdfrwt>
<pdfrwt beam="2">  1       -2 0.44566493E-02 0.48168361E+03</pdfrwt>
<totfact> 0.23981565E+03</totfact>
</mgrwt>
</event>
<event>
 4    1  0.5812319E-005  0.4858549E+03  0.7818608E-02  0.1017538E+00
         -2   -1    0    0    0  501 -0.00000000000E+00  0.00000000000E+00  0.37004242158E+02  0.37004242246E+02  0.25500000000E-02 0. -1.
          2   -1    0    0  501    0  0.00000000000E+00 -0.00000000000E+00 -0.15947832462E+04  0.15947832462E+04  0.25500000000E-02 0.  1.
    5000001    1    1    2    0    0 -0.10256084880E+03  0.10767976805E+03 -0.79906491765E+03  0.83515411918E+03  0.19200000000E+03 0.  0.
   -5000001    1    1    2    0    0  0.10256084880E+03 -0.10767976805E+03 -0.75871408640E+03  0.79663336928E+03  0.19200000000E+03 0.  0.
<mgrwt>
<rscale>  0 0.48585490E+03</rscale>
<asrwt>0</asrwt>
<pdfrwt beam="1">  1        2 0.22782613E+00 0.48585490E+03</pdfrwt>
<pdfrwt beam="2">  1       -2 0.52863213E-02 0.48585490E+03</pdfrwt>
<totfact> 0.25053099E+03</totfact>
</mgrwt>
</event>
<event>
 4    1  0.5812319E-005  0.7867103E+03  0.7818608E-02  0.9579455E-01
         -2   -1    0    0    0  501 -0.00000000000E+00  0.00000000000E+00  0.52074008363E+02  0.52074008425E+02  0.25500000000E-02 0. -1.
          2   -1    0    0  501    0  0.00000000000E+00 -0.00000000000E+00 -0.29713146130E+04  0.29713146130E+04  0.25500000000E-02 0.  1.
    5000001    1    1    2    0    0 -0.13934060785E+02  0.28715393672E+03 -0.73846475981E+03  0.81538073493E+03  0.19200000000E+03 0.  0.
   -5000001    1    1    2    0    0  0.13934060785E+02 -0.28715393672E+03 -0.21807758448E+04  0.22080078865E+04  0.19200000000E+03 0.  0.
<mgrwt>
<rscale>  0 0.78671027E+03</rscale>
<asrwt>0</asrwt>
<pdfrwt beam="1">  1        2 0.42447341E+00 0.78671027E+03</pdfrwt>
<pdfrwt beam="2">  1       -2 0.74391459E-02 0.78671027E+03</pdfrwt>
<totfact> 0.28209738E+02</totfact>
</mgrwt>
</event>
<event>
 4    1  0.5812319E-005  0.1234638E+04  0.7818608E-02  0.9083067E-01
          2   -1    0    0  501    0  0.00000000000E+00  0.00000000000E+00  0.29214753936E+04  0.29214753936E+04  0.25500000000E-02 0.  1.
         -2   -1    0    0    0  501 -0.00000000000E+00 -0.00000000000E+00 -0.13044195235E+03  0.13044195238E+03  0.25500000000E-02 0. -1.
    5000001    1    1    2    0    0  0.55538510046E+03  0.16877656444E+03  0.16064392772E+04  0.17188511541E+04  0.19200000000E+03 0.  0.
   -5000001    1    1    2    0    0 -0.55538510046E+03 -0.16877656444E+03  0.11845941640E+04  0.13330661919E+04  0.19200000000E+03 0.  0.
<mgrwt>
<rscale>  0 0.12346383E+04</rscale>
<asrwt>0</asrwt>
<pdfrwt beam="1">  1        2 0.41735358E+00 0.12346383E+04</pdfrwt>
<pdfrwt beam="2">  1       -2 0.18634567E-01 0.12346383E+04</pdfrwt>
<totfact> 0.62734476E+01</totfact>
</mgrwt>
</event>
<event>
 4    1  0.5812319E-005  0.9144862E+03  0.7818608E-02  0.9407652E-01
          2   -1    0    0  501    0  0.00000000000E+00  0.00000000000E+00  0.12467804207E+04  0.12467804207E+04  0.25500000000E-02 0.  1.
         -2   -1    0    0    0  501 -0.00000000000E+00 -0.00000000000E+00 -0.16768891539E+03  0.16768891541E+03  0.25500000000E-02 0. -1.
    5000001    1    1    2    0    0  0.24341676017E+03 -0.33124493139E+03  0.45160819275E+03  0.64014754819E+03  0.19200000000E+03 0.  0.
   -5000001    1    1    2    0    0 -0.24341676017E+03  0.33124493139E+03  0.62748331255E+03  0.77432178791E+03  0.19200000000E+03 0.  0.
<mgrwt>
<rscale>  0 0.91448621E+03</rscale>
<asrwt>0</asrwt>
<pdfrwt beam="1">  1        2 0.17811148E+00 0.91448621E+03</pdfrwt>
<pdfrwt beam="2">  1       -2 0.23955560E-01 0.91448621E+03</pdfrwt>
<totfact> 0.31116450E+02</totfact>
</mgrwt>
</event>
<event>
 4    1  0.5812319E-005  0.5815511E+03  0.7818608E-02  0.9944438E-01
          2   -1    0    0  501    0  0.00000000000E+00  0.00000000000E+00  0.13546532516E+04  0.13546532516E+04  0.25500000000E-02 0.  1.
         -2   -1    0    0    0  501 -0.00000000000E+00 -0.00000000000E+00 -0.62414811709E+02  0.62414811761E+02  0.25500000000E-02 0. -1.
    5000001    1    1    2    0    0 -0.59929638997E+02  0.20979604591E+03  0.62425868887E+03  0.68859919630E+03  0.19200000000E+03 0.  0.
   -5000001    1    1    2    0    0  0.59929638997E+02 -0.20979604591E+03  0.66797975102E+03  0.72846886707E+03  0.19200000000E+03 0.  0.
<mgrwt>
<rscale>  0 0.58155112E+03</rscale>
<asrwt>0</asrwt>
<pdfrwt beam="1">  1        2 0.19352190E+00 0.58155112E+03</pdfrwt>
<pdfrwt beam="2">  1       -2 0.89164013E-02 0.58155112E+03</pdfrwt>
<totfact> 0.14640580E+03</totfact>
</mgrwt>
</event>
<event>
 4    1  0.5812319E-005  0.9371302E+03  0.7818608E-02  0.9380321E-01
         -2   -1    0    0    0  501 -0.00000000000E+00  0.00000000000E+00  0.61838929588E+03  0.61838929589E+03  0.25500000000E-02 0. -1.
          2   -1    0    0  501    0  0.00000000000E+00 -0.00000000000E+00 -0.35504050139E+03  0.35504050140E+03  0.25500000000E-02 0.  1.
    5000001    1    1    2    0    0  0.25549261830E+03 -0.31794633351E+03 -0.10355038189E+01  0.45081195777E+03  0.19200000000E+03 0.  0.
   -5000001    1    1    2    0    0 -0.25549261830E+03  0.31794633351E+03  0.26438429831E+03  0.52261783953E+03  0.19200000000E+03 0.  0.
<mgrwt>
<rscale>  0 0.93713018E+03</rscale>
<asrwt>0</asrwt>
<pdfrwt beam="1">  1        2 0.50720072E-01 0.93713018E+03</pdfrwt>
<pdfrwt beam="2">  1       -2 0.88341328E-01 0.93713018E+03</pdfrwt>
<totfact> 0.10926630E+02</totfact>
</mgrwt>
</event>
<event>
 4    1  0.5812319E-005  0.4680151E+03  0.7818608E-02  0.1022482E+00
         -2   -1    0    0    0  501 -0.00000000000E+00  0.00000000000E+00  0.94681730390E+03  0.94681730391E+03  0.25500000000E-02 0. -1.
          2   -1    0    0  501    0  0.00000000000E+00 -0.00000000000E+00 -0.57835384053E+02  0.57835384109E+02  0.25500000000E-02 0.  1.
    5000001    1    1    2    0    0 -0.12162297831E+02  0.13321847725E+03  0.44594411647E+03  0.50361219125E+03  0.19200000000E+03 0.  0.
   -5000001    1    1    2    0    0  0.12162297831E+02 -0.13321847725E+03  0.44303780338E+03  0.50104049676E+03  0.19200000000E+03 0.  0.
<mgrwt>
<rscale>  0 0.46801514E+03</rscale>
<asrwt>0</asrwt>
<pdfrwt beam="1">  1        2 0.82621977E-02 0.46801514E+03</pdfrwt>
<pdfrwt beam="2">  1       -2 0.13525962E+00 0.46801514E+03</pdfrwt>
<totfact> 0.33810025E+02</totfact>
</mgrwt>
</event>
<event>
 4    1  0.5812319E-005  0.7838079E+03  0.7818608E-02  0.9583755E-01
         -2   -1    0    0    0  501 -0.00000000000E+00  0.00000000000E+00  0.92703019919E+02  0.92703019954E+02  0.25500000000E-02 0. -1.
          2   -1    0    0  501    0  0.00000000000E+00 -0.00000000000E+00 -0.16567820385E+04  0.16567820385E+04  0.25500000000E-02 0.  1.
    5000001    1    1    2    0    0  0.20349861283E+03 -0.10314649553E+02 -0.13941483473E+04  0.14219816074E+04  0.19200000000E+03 0.  0.
   -5000001    1    1    2    0    0 -0.20349861283E+03  0.10314649553E+02 -0.16993067125E+03  0.32750345105E+03  0.19200000000E+03 0.  0.
<mgrwt>
<rscale>  0 0.78380788E+03</rscale>
<asrwt>0</asrwt>
<pdfrwt beam="1">  1        2 0.23668313E+00 0.78380788E+03</pdfrwt>
<pdfrwt beam="2">  1       -2 0.13243290E-01 0.78380788E+03</pdfrwt>
<totfact> 0.52757002E+02</totfact>
</mgrwt>
</event>
<event>
 4    1  0.5812319E-005  0.8597689E+03  0.7818608E-02  0.9477318E-01
         -2   -1    0    0    0  501 -0.00000000000E+00  0.00000000000E+00  0.14161954922E+03  0.14161954925E+03  0.25500000000E-02 0. -1.
          2   -1    0    0  501    0  0.00000000000E+00 -0.00000000000E+00 -0.13049090527E+04  0.13049090527E+04  0.25500000000E-02 0.  1.
    5000001    1    1    2    0    0  0.45036800583E+02 -0.26612456580E+03 -0.10426701868E+04  0.10940181518E+04  0.19200000000E+03 0.  0.
   -5000001    1    1    2    0    0 -0.45036800583E+02  0.26612456580E+03 -0.12061931665E+03  0.35251045017E+03  0.19200000000E+03 0.  0.
<mgrwt>
<rscale>  0 0.85976888E+03</rscale>
<asrwt>0</asrwt>
<pdfrwt beam="1">  1        2 0.18641557E+00 0.85976888E+03</pdfrwt>
<pdfrwt beam="2">  1       -2 0.20231365E-01 0.85976888E+03</pdfrwt>
<totfact> 0.39105245E+02</totfact>
</mgrwt>
</event>
<event>
 4    1  0.5812319E-005  0.5652781E+03  0.7818608E-02  0.9980182E-01
         -2   -1    0    0    0  501 -0.00000000000E+00  0.00000000000E+00  0.50584027404E+02  0.50584027468E+02  0.25500000000E-02 0. -1.
          2   -1    0    0  501    0  0.00000000000E+00 -0.00000000000E+00 -0.15792503626E+04  0.15792503626E+04  0.25500000000E-02 0.  1.
    5000001    1    1    2    0    0  0.20401106823E+03 -0.23795526204E+02 -0.84760354183E+03  0.89301876080E+03  0.19200000000E+03 0.  0.
   -5000001    1    1    2    0    0 -0.20401106823E+03  0.23795526204E+02 -0.68106279339E+03  0.73681562929E+03  0.19200000000E+03 0.  0.
<mgrwt>
<rscale>  0 0.56527814E+03</rscale>
<asrwt>0</asrwt>
<pdfrwt beam="1">  1        2 0.22560716E+00 0.56527814E+03</pdfrwt>
<pdfrwt beam="2">  1       -2 0.72262907E-02 0.56527814E+03</pdfrwt>
<totfact> 0.15613563E+03</totfact>
</mgrwt>
</event>
<event>
 4    1  0.5812319E-005  0.4985872E+03  0.7818608E-02  0.1014148E+00
          2   -1    0    0  501    0  0.00000000000E+00  0.00000000000E+00  0.18971850597E+03  0.18971850599E+03  0.25500000000E-02 0.  1.
         -2   -1    0    0    0  501 -0.00000000000E+00 -0.00000000000E+00 -0.32757636073E+03  0.32757636074E+03  0.25500000000E-02 0. -1.
    5000001    1    1    2    0    0 -0.13486377495E+03  0.65746511393E+02 -0.12355870029E+03  0.27320613824E+03  0.19200000000E+03 0.  0.
   -5000001    1    1    2    0    0  0.13486377495E+03 -0.65746511393E+02 -0.14299154469E+02  0.24408872849E+03  0.19200000000E+03 0.  0.
<mgrwt>
<rscale>  0 0.49858720E+03</rscale>
<asrwt>0</asrwt>
<pdfrwt beam="1">  1        2 0.27102644E-01 0.49858720E+03</pdfrwt>
<pdfrwt beam="2">  1       -2 0.46796623E-01 0.49858720E+03</pdfrwt>
<totfact> 0.86760202E+02</totfact>
</mgrwt>
</event>
<event>
 4    1  0.5812319E-005  0.7477914E+03  0.7818608E-02  0.9638822E-01
         -2   -1    0    0    0  501 -0.00000000000E+00  0.00000000000E+00  0.37522580873E+02  0.37522580959E+02  0.25500000000E-02 0.  1.
          2   -1    0    0  501    0  0.00000000000E+00 -0.00000000000E+00 -0.37257027287E+04  0.37257027287E+04  0.25500000000E-02 0. -1.
    5000001    1    1    2    0    0 -0.27723359155E+03 -0.14017581073E+03 -0.14406686878E+04  0.14862361825E+04  0.19200000000E+03 0.  0.
   -5000001    1    1    2    0    0  0.27723359155E+03  0.14017581073E+03 -0.22475114600E+04  0.22769891271E+04  0.19200000000E+03 0.  0.
<mgrwt>
<rscale>  0 0.74779137E+03</rscale>
<asrwt>0</asrwt>
<pdfrwt beam="1">  1        2 0.53224301E+00 0.74779137E+03</pdfrwt>
<pdfrwt beam="2">  1       -2 0.53603711E-02 0.74779137E+03</pdfrwt>
<totfact> 0.17274103E+02</totfact>
</mgrwt>
</event>
<event>
 4    1  0.5812319E-005  0.5976755E+03  0.7818608E-02  0.9910241E-01
          2   -1    0    0  501    0  0.00000000000E+00  0.00000000000E+00  0.16637099123E+03  0.16637099125E+03  0.25500000000E-02 0.  1.
         -2   -1    0    0    0  501 -0.00000000000E+00 -0.00000000000E+00 -0.53677619826E+03  0.53677619827E+03  0.25500000000E-02 0. -1.
    5000001    1    1    2    0    0  0.11835520873E+03  0.19220481304E+03 -0.13980027492E+03  0.32765647019E+03  0.19200000000E+03 0.  0.
   -5000001    1    1    2    0    0 -0.11835520873E+03 -0.19220481304E+03 -0.23060493211E+03  0.37549071933E+03  0.19200000000E+03 0.  0.
<mgrwt>
<rscale>  0 0.59767546E+03</rscale>
<asrwt>0</asrwt>
<pdfrwt beam="1">  1        2 0.23767285E-01 0.59767546E+03</pdfrwt>
<pdfrwt beam="2">  1       -2 0.76682313E-01 0.59767546E+03</pdfrwt>
<totfact> 0.35664301E+02</totfact>
</mgrwt>
</event>
<event>
 4    1  0.5812319E-005  0.7478631E+03  0.7818608E-02  0.9638709E-01
          2   -1    0    0  501    0  0.00000000000E+00  0.00000000000E+00  0.18973178769E+04  0.18973178769E+04  0.25500000000E-02 0.  1.
         -2   -1    0    0    0  501 -0.00000000000E+00 -0.00000000000E+00 -0.73696034902E+02  0.73696034946E+02  0.25500000000E-02 0. -1.
    5000001    1    1    2    0    0 -0.25177587596E+03 -0.38276077143E+02  0.14262768268E+04  0.14615011927E+04  0.19200000000E+03 0.  0.
   -5000001    1    1    2    0    0  0.25177587596E+03  0.38276077143E+02  0.39734501518E+03  0.50951271906E+03  0.19200000000E+03 0.  0.
<mgrwt>
<rscale>  0 0.74786310E+03</rscale>
<asrwt>0</asrwt>
<pdfrwt beam="1">  1        2 0.27104538E+00 0.74786310E+03</pdfrwt>
<pdfrwt beam="2">  1       -2 0.10528006E-01 0.74786310E+03</pdfrwt>
<totfact> 0.58214252E+02</totfact>
</mgrwt>
</event>
<event>
 4    1  0.5812319E-005  0.5795578E+03  0.7818608E-02  0.9948749E-01
          2   -1    0    0  501    0  0.00000000000E+00  0.00000000000E+00  0.30340741925E+03  0.30340741926E+03  0.25500000000E-02 0.  1.
         -2   -1    0    0    0  501 -0.00000000000E+00 -0.00000000000E+00 -0.27676251224E+03  0.27676251226E+03  0.25500000000E-02 0. -1.
    5000001    1    1    2    0    0 -0.31390525791E+02  0.21316497975E+03  0.39486738000E+02  0.29128658771E+03  0.19200000000E+03 0.  0.
   -5000001    1    1    2    0    0  0.31390525791E+02 -0.21316497975E+03 -0.12841830995E+02  0.28888334380E+03  0.19200000000E+03 0.  0.
<mgrwt>
<rscale>  0 0.57955776E+03</rscale>
<asrwt>0</asrwt>
<pdfrwt beam="1">  1        2 0.43343917E-01 0.57955776E+03</pdfrwt>
<pdfrwt beam="2">  1       -2 0.39537502E-01 0.57955776E+03</pdfrwt>
<totfact> 0.71630422E+02</totfact>
</mgrwt>
</event>
<event>
 4    1  0.5812319E-005  0.8702379E+03  0.7818608E-02  0.9463570E-01
         -2   -1    0    0    0  501 -0.00000000000E+00  0.00000000000E+00  0.79309900314E+02  0.79309900355E+02  0.25500000000E-02 0. -1.
          2   -1    0    0  501    0  0.00000000000E+00 -0.00000000000E+00 -0.23871985802E+04  0.23871985802E+04  0.25500000000E-02 0.  1.
    5000001    1    1    2    0    0 -0.14669395516E+03  0.32848372575E+03 -0.72369347173E+03  0.83067256821E+03  0.19200000000E+03 0.  0.
   -5000001    1    1    2    0    0  0.14669395516E+03 -0.32848372575E+03 -0.15841952082E+04  0.16358359124E+04  0.19200000000E+03 0.  0.
<mgrwt>
<rscale>  0 0.87023786E+03</rscale>
<asrwt>0</asrwt>
<pdfrwt beam="1">  1        2 0.34102832E+00 0.87023786E+03</pdfrwt>
<pdfrwt beam="2">  1       -2 0.11329987E-01 0.87023786E+03</pdfrwt>
<totfact> 0.28826597E+02</totfact>
</mgrwt>
</event>
<event>
 4    1  0.5812319E-005  0.5687118E+03  0.7818608E-02  0.9972533E-01
         -2   -1    0    0    0  501 -0.00000000000E+00  0.00000000000E+00  0.62757794331E+02  0.62757794383E+02  0.25500000000E-02 0. -1.
          2   -1    0    0  501    0  0.00000000000E+00 -0.00000000000E+00 -0.12884180630E+04  0.12884180630E+04  0.25500000000E-02 0.  1.
    5000001    1    1    2    0    0  0.10175735941E+03  0.15591938400E+03 -0.38335588287E+03  0.46743036640E+03  0.19200000000E+03 0.  0.
   -5000001    1    1    2    0    0 -0.10175735941E+03 -0.15591938400E+03 -0.84230438578E+03  0.88374549097E+03  0.19200000000E+03 0.  0.
<mgrwt>
<rscale>  0 0.56871179E+03</rscale>
<asrwt>0</asrwt>
<pdfrwt beam="1">  1        2 0.18405971E+00 0.56871179E+03</pdfrwt>
<pdfrwt beam="2">  1       -2 0.89654000E-02 0.56871179E+03</pdfrwt>
<totfact> 0.15763611E+03</totfact>
</mgrwt>
</event>
<event>
 4    1  0.5812319E-005  0.6247218E+03  0.7818608E-02  0.9855403E-01
         -2   -1    0    0    0  501 -0.00000000000E+00  0.00000000000E+00  0.15442298560E+03  0.15442298563E+03  0.25500000000E-02 0. -1.
          2   -1    0    0  501    0  0.00000000000E+00 -0.00000000000E+00 -0.63183175354E+03  0.63183175354E+03  0.25500000000E-02 0.  1.
    5000001    1    1    2    0    0 -0.19968547570E+03 -0.13670899576E+03 -0.29694911156E+03  0.42849318966E+03  0.19200000000E+03 0.  0.
   -5000001    1    1    2    0    0  0.19968547570E+03  0.13670899576E+03 -0.18045965638E+03  0.35776154951E+03  0.19200000000E+03 0.  0.
<mgrwt>
<rscale>  0 0.62472184E+03</rscale>
<asrwt>0</asrwt>
<pdfrwt beam="1">  1        2 0.90261678E-01 0.62472184E+03</pdfrwt>
<pdfrwt beam="2">  1       -2 0.22060427E-01 0.62472184E+03</pdfrwt>
<totfact> 0.91756256E+02</totfact>
</mgrwt>
</event>
<event>
 4    1  0.5812319E-005  0.1230136E+04  0.7818608E-02  0.9086880E-01
         -2   -1    0    0    0  501 -0.00000000000E+00  0.00000000000E+00  0.10932010648E+03  0.10932010651E+03  0.25500000000E-02 0. -1.
          2   -1    0    0  501    0  0.00000000000E+00 -0.00000000000E+00 -0.34605588513E+04  0.34605588513E+04  0.25500000000E-02 0.  1.
    5000001    1    1    2    0    0  0.51432290045E+03 -0.27714384765E+03 -0.17057646290E+04  0.18132384641E+04  0.19200000000E+03 0.  0.
   -5000001    1    1    2    0    0 -0.51432290045E+03  0.27714384765E+03 -0.16454741158E+04  0.17566404937E+04  0.19200000000E+03 0.  0.
<mgrwt>
<rscale>  0 0.12301360E+04</rscale>
<asrwt>0</asrwt>
<pdfrwt beam="1">  1        2 0.49436548E+00 0.12301360E+04</pdfrwt>
<pdfrwt beam="2">  1       -2 0.15617160E-01 0.12301360E+04</pdfrwt>
<totfact> 0.41826851E+01</totfact>
</mgrwt>
</event>
<event>
 4    1  0.5812319E-005  0.5472081E+03  0.7818608E-02  0.1002142E+00
          2   -1    0    0  501    0  0.00000000000E+00  0.00000000000E+00  0.31910897852E+03  0.31910897853E+03  0.25500000000E-02 0.  1.
         -2   -1    0    0    0  501 -0.00000000000E+00 -0.00000000000E+00 -0.23458810732E+03  0.23458810734E+03  0.25500000000E-02 0. -1.
    5000001    1    1    2    0    0 -0.38541314033E+02  0.16617727417E+03  0.13769135259E+03  0.29141590196E+03  0.19200000000E+03 0.  0.
   -5000001    1    1    2    0    0  0.38541314033E+02 -0.16617727417E+03 -0.53170481394E+02  0.26228118390E+03  0.19200000000E+03 0.  0.
<mgrwt>
<rscale>  0 0.54720808E+03</rscale>
<asrwt>0</asrwt>
<pdfrwt beam="1">  1        2 0.45586997E-01 0.54720808E+03</pdfrwt>
<pdfrwt beam="2">  1       -2 0.33512587E-01 0.54720808E+03</pdfrwt>
<totfact> 0.92883885E+02</totfact>
</mgrwt>
</event>
<event>
 4    1  0.5812319E-005  0.9336094E+03  0.7818608E-02  0.9384516E-01
          2   -1    0    0  501    0  0.00000000000E+00  0.00000000000E+00  0.58611060914E+03  0.58611060914E+03  0.25500000000E-02 0.  1.
         -2   -1    0    0    0  501 -0.00000000000E+00 -0.00000000000E+00 -0.37178417709E+03  0.37178417710E+03  0.25500000000E-02 0. -1.
    5000001    1    1    2    0    0 -0.40883977170E+03  0.10827253287E+03  0.59370969946E+02  0.46825400411E+03  0.19200000000E+03 0.  0.
   -5000001    1    1    2    0    0  0.40883977170E+03 -0.10827253287E+03  0.15495546210E+03  0.48964078213E+03  0.19200000000E+03 0.  0.
<mgrwt>
<rscale>  0 0.93360945E+03</rscale>
<asrwt>0</asrwt>
<pdfrwt beam="1">  1        2 0.83730087E-01 0.93360945E+03</pdfrwt>
<pdfrwt beam="2">  1       -2 0.53112025E-01 0.93360945E+03</pdfrwt>
<totfact> 0.18678882E+02</totfact>
</mgrwt>
</event>
<event>
 4    1  0.5812319E-005  0.5349989E+03  0.7818608E-02  0.1005027E+00
         -2   -1    0    0    0  501 -0.00000000000E+00  0.00000000000E+00  0.15007235690E+02  0.15007235907E+02  0.25500000000E-02 0. -1.
          2   -1    0    0  501    0  0.00000000000E+00 -0.00000000000E+00 -0.47680976140E+04  0.47680976140E+04  0.25500000000E-02 0.  1.
    5000001    1    1    2    0    0  0.21688822418E+02  0.10537925957E+03 -0.37358616517E+04  0.37423390379E+04  0.19200000000E+03 0.  0.
   -5000001    1    1    2    0    0 -0.21688822418E+02 -0.10537925957E+03 -0.10172287266E+04  0.10407658121E+04  0.19200000000E+03 0.  0.
<mgrwt>
<rscale>  0 0.53499894E+03</rscale>
<asrwt>0</asrwt>
<pdfrwt beam="1">  1        2 0.68115583E+00 0.53499894E+03</pdfrwt>
<pdfrwt beam="2">  1       -2 0.21438939E-02 0.53499894E+03</pdfrwt>
<totfact> 0.12784264E+02</totfact>
</mgrwt>
</event>
<event>
 4    1  0.5812319E-005  0.1210338E+04  0.7818608E-02  0.9103855E-01
          2   -1    0    0  501    0  0.00000000000E+00  0.00000000000E+00  0.13110452089E+04  0.13110452089E+04  0.25500000000E-02 0.  1.
         -2   -1    0    0    0  501 -0.00000000000E+00 -0.00000000000E+00 -0.27934166226E+03  0.27934166227E+03  0.25500000000E-02 0. -1.
    5000001    1    1    2    0    0 -0.22296763170E+03 -0.52794007965E+03  0.55592895888E+03  0.82119199936E+03  0.19200000000E+03 0.  0.
   -5000001    1    1    2    0    0  0.22296763170E+03  0.52794007965E+03  0.47577458779E+03  0.76919487184E+03  0.19200000000E+03 0.  0.
<mgrwt>
<rscale>  0 0.12103380E+04</rscale>
<asrwt>0</asrwt>
<pdfrwt beam="1">  1        2 0.18729218E+00 0.12103380E+04</pdfrwt>
<pdfrwt beam="2">  1       -2 0.39905951E-01 0.12103380E+04</pdfrwt>
<totfact> 0.10837864E+02</totfact>
</mgrwt>
</event>
<event>
 4    1  0.5812319E-005  0.8095283E+03  0.7818608E-02  0.9546327E-01
         -2   -1    0    0    0  501 -0.00000000000E+00  0.00000000000E+00  0.92104146361E+02  0.92104146396E+02  0.25500000000E-02 0. -1.
          2   -1    0    0  501    0  0.00000000000E+00 -0.00000000000E+00 -0.17787908324E+04  0.17787908324E+04  0.25500000000E-02 0.  1.
    5000001    1    1    2    0    0 -0.12189569662E+03  0.33340325873E+03 -0.91471524003E+03  0.99979211046E+03  0.19200000000E+03 0.  0.
   -5000001    1    1    2    0    0  0.12189569662E+03 -0.33340325873E+03 -0.77197144603E+03  0.87110286836E+03  0.19200000000E+03 0.  0.
<mgrwt>
<rscale>  0 0.80952829E+03</rscale>
<asrwt>0</asrwt>
<pdfrwt beam="1">  1        2 0.25411296E+00 0.80952829E+03</pdfrwt>
<pdfrwt beam="2">  1       -2 0.13157736E-01 0.80952829E+03</pdfrwt>
<totfact> 0.46107923E+02</totfact>
</mgrwt>
</event>
<event>
 4    1  0.5812319E-005  0.1864106E+04  0.7818608E-02  0.8672932E-01
          2   -1    0    0  501    0  0.00000000000E+00  0.00000000000E+00  0.21025842891E+04  0.21025842891E+04  0.25500000000E-02 0.  1.
         -2   -1    0    0    0  501 -0.00000000000E+00 -0.00000000000E+00 -0.41316918539E+03  0.41316918540E+03  0.25500000000E-02 0. -1.
    5000001    1    1    2    0    0 -0.43026597847E+03  0.61522842746E+03  0.15436580225E+04  0.17272460510E+04  0.19200000000E+03 0.  0.
   -5000001    1    1    2    0    0  0.43026597847E+03 -0.61522842746E+03  0.14575708118E+03  0.78850742349E+03  0.19200000000E+03 0.  0.
<mgrwt>
<rscale>  0 0.18641063E+04</rscale>
<asrwt>0</asrwt>
<pdfrwt beam="1">  1        2 0.30036919E+00 0.18641063E+04</pdfrwt>
<pdfrwt beam="2">  1       -2 0.59024169E-01 0.18641063E+04</pdfrwt>
<totfact> 0.17941109E+01</totfact>
</mgrwt>
</event>
<event>
 4    1  0.5812319E-005  0.7389009E+03  0.7818608E-02  0.9652926E-01
         -2   -1    0    0    0  501 -0.00000000000E+00  0.00000000000E+00  0.68966188980E+02  0.68966189027E+02  0.25500000000E-02 0. -1.
          2   -1    0    0  501    0  0.00000000000E+00 -0.00000000000E+00 -0.19791384877E+04  0.19791384877E+04  0.25500000000E-02 0.  1.
    5000001    1    1    2    0    0 -0.25964300868E+03  0.17815153143E+03 -0.10156350921E+04  0.10805235307E+04  0.19200000000E+03 0.  0.
   -5000001    1    1    2    0    0  0.25964300868E+03 -0.17815153143E+03 -0.89453720663E+03  0.96758114603E+03  0.19200000000E+03 0.  0.
<mgrwt>
<rscale>  0 0.73890091E+03</rscale>
<asrwt>0</asrwt>
<pdfrwt beam="1">  1        2 0.28273403E+00 0.73890091E+03</pdfrwt>
<pdfrwt beam="2">  1       -2 0.98523140E-02 0.73890091E+03</pdfrwt>
<totfact> 0.58994340E+02</totfact>
</mgrwt>
</event>
<event>
 4    1  0.5812319E-005  0.5828790E+03  0.7818608E-02  0.9941578E-01
         -2   -1    0    0    0  501 -0.00000000000E+00  0.00000000000E+00  0.68823305930E+02  0.68823305978E+02  0.25500000000E-02 0. -1.
          2   -1    0    0  501    0  0.00000000000E+00 -0.00000000000E+00 -0.12341308976E+04  0.12341308976E+04  0.25500000000E-02 0.  1.
    5000001    1    1    2    0    0  0.24903700006E+02  0.19439024952E+03 -0.80241767481E+03  0.84802469789E+03  0.19200000000E+03 0.  0.
   -5000001    1    1    2    0    0 -0.24903700006E+02 -0.19439024952E+03 -0.36288991681E+03  0.45492950565E+03  0.19200000000E+03 0.  0.
<mgrwt>
<rscale>  0 0.58287895E+03</rscale>
<asrwt>0</asrwt>
<pdfrwt beam="1">  1        2 0.17630440E+00 0.58287895E+03</pdfrwt>
<pdfrwt beam="2">  1       -2 0.98319016E-02 0.58287895E+03</pdfrwt>
<totfact> 0.14545823E+03</totfact>
</mgrwt>
</event>
<event>
 4    1  0.5812319E-005  0.6365562E+03  0.7818608E-02  0.9832338E-01
         -2   -1    0    0    0  501 -0.00000000000E+00  0.00000000000E+00  0.85963726113E+02  0.85963726151E+02  0.25500000000E-02 0. -1.
          2   -1    0    0  501    0  0.00000000000E+00 -0.00000000000E+00 -0.11784150708E+04  0.11784150708E+04  0.25500000000E-02 0.  1.
    5000001    1    1    2    0    0 -0.21254591233E+03  0.99199747879E+02 -0.73901350859E+03  0.79876236810E+03  0.19200000000E+03 0.  0.
   -5000001    1    1    2    0    0  0.21254591233E+03 -0.99199747879E+02 -0.35343783609E+03  0.46561642884E+03  0.19200000000E+03 0.  0.
<mgrwt>
<rscale>  0 0.63655620E+03</rscale>
<asrwt>0</asrwt>
<pdfrwt beam="1">  1        2 0.16834500E+00 0.63655620E+03</pdfrwt>
<pdfrwt beam="2">  1       -2 0.12280533E-01 0.63655620E+03</pdfrwt>
<totfact> 0.10850123E+03</totfact>
</mgrwt>
</event>
<event>
 4    1  0.5812319E-005  0.6952094E+03  0.7818608E-02  0.9725460E-01
         -2   -1    0    0    0  501 -0.00000000000E+00  0.00000000000E+00  0.11052815284E+03  0.11052815287E+03  0.25500000000E-02 0. -1.
          2   -1    0    0  501    0  0.00000000000E+00 -0.00000000000E+00 -0.10931968038E+04  0.10931968038E+04  0.25500000000E-02 0.  1.
    5000001    1    1    2    0    0 -0.19545631826E+03 -0.92202835347E+02 -0.15711165337E+03  0.32901763907E+03  0.19200000000E+03 0.  0.
   -5000001    1    1    2    0    0  0.19545631826E+03  0.92202835347E+02 -0.82555699756E+03  0.87470731757E+03  0.19200000000E+03 0.  0.
<mgrwt>
<rscale>  0 0.69520939E+03</rscale>
<asrwt>0</asrwt>
<pdfrwt beam="1">  1        2 0.15617097E+00 0.69520939E+03</pdfrwt>
<pdfrwt beam="2">  1       -2 0.15789737E-01 0.69520939E+03</pdfrwt>
<totfact> 0.79602997E+02</totfact>
</mgrwt>
</event>
<event>
 4    1  0.5812319E-005  0.6310774E+03  0.7818608E-02  0.9842949E-01
          2   -1    0    0  501    0  0.00000000000E+00  0.00000000000E+00  0.13492676612E+04  0.13492676612E+04  0.25500000000E-02 0.  1.
         -2   -1    0    0    0  501 -0.00000000000E+00 -0.00000000000E+00 -0.73791645162E+02  0.73791645206E+02  0.25500000000E-02 0. -1.
    5000001    1    1    2    0    0 -0.11611142654E+03  0.22074709549E+03  0.68763025930E+03  0.75624765589E+03  0.19200000000E+03 0.  0.
   -5000001    1    1    2    0    0  0.11611142654E+03 -0.22074709549E+03  0.58784575669E+03  0.66681165047E+03  0.19200000000E+03 0.  0.
<mgrwt>
<rscale>  0 0.63107743E+03</rscale>
<asrwt>0</asrwt>
<pdfrwt beam="1">  1        2 0.19275252E+00 0.63107743E+03</pdfrwt>
<pdfrwt beam="2">  1       -2 0.10541664E-01 0.63107743E+03</pdfrwt>
<totfact> 0.11224037E+03</totfact>
</mgrwt>
</event>
<event>
 4    1  0.5812319E-005  0.6183053E+03  0.7818608E-02  0.9868140E-01
         -2   -1    0    0    0  501 -0.00000000000E+00  0.00000000000E+00  0.27373582389E+02  0.27373582508E+02  0.25500000000E-02 0. -1.
          2   -1    0    0  501    0  0.00000000000E+00 -0.00000000000E+00 -0.34915182904E+04  0.34915182904E+04  0.25500000000E-02 0.  1.
    5000001    1    1    2    0    0 -0.69772078683E+02  0.22753838387E+03 -0.14731699073E+04  0.15045715121E+04  0.19200000000E+03 0.  0.
   -5000001    1    1    2    0    0  0.69772078683E+02 -0.22753838387E+03 -0.19909748006E+04  0.20143203608E+04  0.19200000000E+03 0.  0.
<mgrwt>
<rscale>  0 0.61830531E+03</rscale>
<asrwt>0</asrwt>
<pdfrwt beam="1">  1        2 0.49878804E+00 0.61830531E+03</pdfrwt>
<pdfrwt beam="2">  1       -2 0.39105140E-02 0.61830531E+03</pdfrwt>
<totfact> 0.39737792E+02</totfact>
</mgrwt>
</event>
<event>
 4    1  0.5812319E-005  0.4620209E+03  0.7818608E-02  0.1024197E+00
          2   -1    0    0  501    0  0.00000000000E+00  0.00000000000E+00  0.21944870001E+04  0.21944870001E+04  0.25500000000E-02 0.  1.
         -2   -1    0    0    0  501 -0.00000000000E+00 -0.00000000000E+00 -0.24318131844E+02  0.24318131978E+02  0.25500000000E-02 0. -1.
    5000001    1    1    2    0    0 -0.71838514227E+00 -0.12321876492E+03  0.91070774037E+03  0.93884821376E+03  0.19200000000E+03 0.  0.
   -5000001    1    1    2    0    0  0.71838514227E+00  0.12321876492E+03  0.12594611279E+04  0.12799569184E+04  0.19200000000E+03 0.  0.
<mgrwt>
<rscale>  0 0.46202088E+03</rscale>
<asrwt>0</asrwt>
<pdfrwt beam="1">  1        2 0.31349835E+00 0.46202088E+03</pdfrwt>
<pdfrwt beam="2">  1       -2 0.34740165E-02 0.46202088E+03</pdfrwt>
<totfact> 0.23895766E+03</totfact>
</mgrwt>
</event>
<event>
 4    1  0.5812319E-005  0.6679075E+03  0.7818608E-02  0.9773745E-01
          2   -1    0    0  501    0  0.00000000000E+00  0.00000000000E+00  0.90675725370E+03  0.90675725370E+03  0.25500000000E-02 0.  1.
         -2   -1    0    0    0  501 -0.00000000000E+00 -0.00000000000E+00 -0.12299335224E+03  0.12299335227E+03  0.25500000000E-02 0. -1.
    5000001    1    1    2    0    0  0.52401799114E+02 -0.16492597980E+03  0.65864885477E+02  0.26673715621E+03  0.19200000000E+03 0.  0.
   -5000001    1    1    2    0    0 -0.52401799114E+02  0.16492597980E+03  0.71789901598E+03  0.76301344976E+03  0.19200000000E+03 0.  0.
<mgrwt>
<rscale>  0 0.66790752E+03</rscale>
<asrwt>0</asrwt>
<pdfrwt beam="1">  1        2 0.12953675E+00 0.66790752E+03</pdfrwt>
<pdfrwt beam="2">  1       -2 0.17570479E-01 0.66790752E+03</pdfrwt>
<totfact> 0.86380654E+02</totfact>
</mgrwt>
</event>
<event>
 4    1  0.5812319E-005  0.6305351E+03  0.7818608E-02  0.9844005E-01
          2   -1    0    0  501    0  0.00000000000E+00  0.00000000000E+00  0.22344199179E+03  0.22344199180E+03  0.25500000000E-02 0. -1.
         -2   -1    0    0    0  501 -0.00000000000E+00 -0.00000000000E+00 -0.44482970485E+03  0.44482970486E+03  0.25500000000E-02 0.  1.
    5000001    1    1    2    0    0 -0.22110152069E+02 -0.14912356587E+03 -0.32214077129E+03  0.40418482560E+03  0.19200000000E+03 0.  0.
   -5000001    1    1    2    0    0  0.22110152069E+02  0.14912356587E+03  0.10075305823E+03  0.26408687106E+03  0.19200000000E+03 0.  0.
<mgrwt>
<rscale>  0 0.63053512E+03</rscale>
<asrwt>0</asrwt>
<pdfrwt beam="1">  1        2 0.31920285E-01 0.63053512E+03</pdfrwt>
<pdfrwt beam="2">  1       -2 0.63547100E-01 0.63053512E+03</pdfrwt>
<totfact> 0.38373133E+02</totfact>
</mgrwt>
</event>
<event>
 4    1  0.5812319E-005  0.4865683E+03  0.7818608E-02  0.1017345E+00
          2   -1    0    0  501    0  0.00000000000E+00  0.00000000000E+00  0.21077398317E+04  0.21077398317E+04  0.25500000000E-02 0.  1.
         -2   -1    0    0    0  501 -0.00000000000E+00 -0.00000000000E+00 -0.28080879558E+02  0.28080879674E+02  0.25500000000E-02 0. -1.
    5000001    1    1    2    0    0 -0.12973231180E+03  0.62998972853E+02  0.12111823389E+04  0.12347574666E+04  0.19200000000E+03 0.  0.
   -5000001    1    1    2    0    0  0.12973231180E+03 -0.62998972853E+02  0.86847661324E+03  0.90106324476E+03  0.19200000000E+03 0.  0.
<mgrwt>
<rscale>  0 0.48656834E+03</rscale>
<asrwt>0</asrwt>
<pdfrwt beam="1">  1        2 0.30110587E+00 0.48656834E+03</pdfrwt>
<pdfrwt beam="2">  1       -2 0.40115518E-02 0.48656834E+03</pdfrwt>
<totfact> 0.21180309E+03</totfact>
</mgrwt>
</event>
<event>
 4    1  0.5812319E-005  0.9689345E+03  0.7818608E-02  0.9343289E-01
         -2   -1    0    0    0  501 -0.00000000000E+00  0.00000000000E+00  0.78488147187E+03  0.78488147187E+03  0.25500000000E-02 0. -1.
          2   -1    0    0  501    0  0.00000000000E+00 -0.00000000000E+00 -0.29903688234E+03  0.29903688235E+03  0.25500000000E-02 0.  1.
    5000001    1    1    2    0    0 -0.24852321061E+03 -0.10809256613E+03  0.63747644994E+03  0.71881013717E+03  0.19200000000E+03 0.  0.
   -5000001    1    1    2    0    0  0.24852321061E+03  0.10809256613E+03 -0.15163186041E+03  0.36510821705E+03  0.19200000000E+03 0.  0.
<mgrwt>
<rscale>  0 0.96893448E+03</rscale>
<asrwt>0</asrwt>
<pdfrwt beam="1">  1        2 0.42719555E-01 0.96893448E+03</pdfrwt>
<pdfrwt beam="2">  1       -2 0.11212592E+00 0.96893448E+03</pdfrwt>
<totfact> 0.75083070E+01</totfact>
</mgrwt>
</event>
<event>
 4    1  0.5812319E-005  0.8689771E+03  0.7818608E-02  0.9465215E-01
          2   -1    0    0  501    0  0.00000000000E+00  0.00000000000E+00  0.11187550372E+04  0.11187550372E+04  0.25500000000E-02 0.  1.
         -2   -1    0    0    0  501 -0.00000000000E+00 -0.00000000000E+00 -0.16874141746E+03  0.16874141748E+03  0.25500000000E-02 0. -1.
    5000001    1    1    2    0    0 -0.67794373381E+02  0.31031801383E+03  0.14033391541E+03  0.39680090043E+03  0.19200000000E+03 0.  0.
   -5000001    1    1    2    0    0  0.67794373381E+02 -0.31031801383E+03  0.80967970431E+03  0.89069555424E+03  0.19200000000E+03 0.  0.
<mgrwt>
<rscale>  0 0.86897712E+03</rscale>
<asrwt>0</asrwt>
<pdfrwt beam="1">  1        2 0.15982215E+00 0.86897712E+03</pdfrwt>
<pdfrwt beam="2">  1       -2 0.24105916E-01 0.86897712E+03</pdfrwt>
<totfact> 0.36493722E+02</totfact>
</mgrwt>
</event>
<event>
 4    1  0.5812319E-005  0.4502854E+03  0.7818608E-02  0.1027637E+00
          2   -1    0    0  501    0  0.00000000000E+00  0.00000000000E+00  0.28177862372E+04  0.28177862372E+04  0.25500000000E-02 0.  1.
         -2   -1    0    0    0  501 -0.00000000000E+00 -0.00000000000E+00 -0.17989024308E+02  0.17989024488E+02  0.25500000000E-02 0. -1.
    5000001    1    1    2    0    0 -0.95177817649E+02  0.66311802596E+02  0.15208991517E+04  0.15373530179E+04  0.19200000000E+03 0.  0.
   -5000001    1    1    2    0    0  0.95177817649E+02 -0.66311802596E+02  0.12788980612E+04  0.12984222438E+04  0.19200000000E+03 0.  0.
<mgrwt>
<rscale>  0 0.45028536E+03</rscale>
<asrwt>0</asrwt>
<pdfrwt beam="1">  1        2 0.40254135E+00 0.45028536E+03</pdfrwt>
<pdfrwt beam="2">  1       -2 0.25698577E-02 0.45028536E+03</pdfrwt>
<totfact> 0.18134412E+03</totfact>
</mgrwt>
</event>
<event>
 4    1  0.5812319E-005  0.2294577E+04  0.7818608E-02  0.8480062E-01
         -2   -1    0    0    0  501 -0.00000000000E+00  0.00000000000E+00  0.57534285057E+03  0.57534285058E+03  0.25500000000E-02 0. -1.
          2   -1    0    0  501    0  0.00000000000E+00 -0.00000000000E+00 -0.22878024390E+04  0.22878024390E+04  0.25500000000E-02 0.  1.
    5000001    1    1    2    0    0 -0.46251720162E+03 -0.10315167261E+04 -0.90387272762E+03  0.14600680894E+04  0.19200000000E+03 0.  0.
   -5000001    1    1    2    0    0  0.46251720162E+03  0.10315167261E+04 -0.80858686083E+03  0.14030772002E+04  0.19200000000E+03 0.  0.
<mgrwt>
<rscale>  0 0.22945769E+04</rscale>
<asrwt>0</asrwt>
<pdfrwt beam="1">  1        2 0.32682892E+00 0.22945769E+04</pdfrwt>
<pdfrwt beam="2">  1       -2 0.82191837E-01 0.22945769E+04</pdfrwt>
<totfact> 0.67490261E+00</totfact>
</mgrwt>
</event>
<event>
 4    1  0.5812319E-005  0.6861032E+03  0.7818608E-02  0.9741297E-01
         -2   -1    0    0    0  501 -0.00000000000E+00  0.00000000000E+00  0.33971823828E+03  0.33971823829E+03  0.25500000000E-02 0. -1.
          2   -1    0    0  501    0  0.00000000000E+00 -0.00000000000E+00 -0.34641763293E+03  0.34641763294E+03  0.25500000000E-02 0.  1.
    5000001    1    1    2    0    0  0.47487211050E+02 -0.21953503509E+03 -0.17762711036E+03  0.34476957114E+03  0.19200000000E+03 0.  0.
   -5000001    1    1    2    0    0 -0.47487211050E+02  0.21953503509E+03  0.17092771570E+03  0.34136630010E+03  0.19200000000E+03 0.  0.
<mgrwt>
<rscale>  0 0.68610316E+03</rscale>
<asrwt>0</asrwt>
<pdfrwt beam="1">  1        2 0.49488233E-01 0.68610316E+03</pdfrwt>
<pdfrwt beam="2">  1       -2 0.48531177E-01 0.68610316E+03</pdfrwt>
<totfact> 0.41177536E+02</totfact>
</mgrwt>
</event>
<event>
 4    1  0.5812319E-005  0.5090827E+03  0.7818608E-02  0.1011435E+00
          2   -1    0    0  501    0  0.00000000000E+00  0.00000000000E+00  0.80437994151E+03  0.80437994152E+03  0.25500000000E-02 0.  1.
         -2   -1    0    0    0  501 -0.00000000000E+00 -0.00000000000E+00 -0.80548125923E+02  0.80548125964E+02  0.25500000000E-02 0. -1.
    5000001    1    1    2    0    0 -0.52161917846E+01  0.16567067027E+03  0.39892604826E+03  0.47273668318E+03  0.19200000000E+03 0.  0.
   -5000001    1    1    2    0    0  0.52161917846E+01 -0.16567067027E+03  0.32490576733E+03  0.41219138430E+03  0.19200000000E+03 0.  0.
<mgrwt>
<rscale>  0 0.50908269E+03</rscale>
<asrwt>0</asrwt>
<pdfrwt beam="1">  1        2 0.11491141E+00 0.50908269E+03</pdfrwt>
<pdfrwt beam="2">  1       -2 0.11506876E-01 0.50908269E+03</pdfrwt>
<totfact> 0.20568895E+03</totfact>
</mgrwt>
</event>
<event>
 4    1  0.5812319E-005  0.7335500E+03  0.7818608E-02  0.9661517E-01
          2   -1    0    0  501    0  0.00000000000E+00  0.00000000000E+00  0.36690765690E+03  0.36690765691E+03  0.25500000000E-02 0.  1.
         -2   -1    0    0    0  501 -0.00000000000E+00 -0.00000000000E+00 -0.36664237779E+03  0.36664237780E+03  0.25500000000E-02 0. -1.
    5000001    1    1    2    0    0 -0.25959631522E+03  0.89866850698E+02 -0.14884252929E+03  0.36672114237E+03  0.19200000000E+03 0.  0.
   -5000001    1    1    2    0    0  0.25959631522E+03 -0.89866850698E+02  0.14910780840E+03  0.36682889234E+03  0.19200000000E+03 0.  0.
<mgrwt>
<rscale>  0 0.73354999E+03</rscale>
<asrwt>0</asrwt>
<pdfrwt beam="1">  1        2 0.52415380E-01 0.73354999E+03</pdfrwt>
<pdfrwt beam="2">  1       -2 0.52377482E-01 0.73354999E+03</pdfrwt>
<totfact> 0.33034413E+02</totfact>
</mgrwt>
</event>
<event>
 4    1  0.5812319E-005  0.7509108E+03  0.7818608E-02  0.9633922E-01
          2   -1    0    0  501    0  0.00000000000E+00  0.00000000000E+00  0.64090805786E+03  0.64090805786E+03  0.25500000000E-02 0.  1.
         -2   -1    0    0    0  501 -0.00000000000E+00 -0.00000000000E+00 -0.21994850139E+03  0.21994850141E+03  0.25500000000E-02 0. -1.
    5000001    1    1    2    0    0  0.25076733203E+03 -0.10123277132E+03  0.41223096676E+03  0.52908477464E+03  0.19200000000E+03 0.  0.
   -5000001    1    1    2    0    0 -0.25076733203E+03  0.10123277132E+03  0.87285897049E+01  0.33177178463E+03  0.19200000000E+03 0.  0.
<mgrwt>
<rscale>  0 0.75091083E+03</rscale>
<asrwt>0</asrwt>
<pdfrwt beam="1">  1        2 0.91558293E-01 0.75091083E+03</pdfrwt>
<pdfrwt beam="2">  1       -2 0.31421215E-01 0.75091083E+03</pdfrwt>
<totfact> 0.47322294E+02</totfact>
</mgrwt>
</event>
<event>
 4    1  0.5812319E-005  0.4840898E+03  0.7818608E-02  0.1018017E+00
          2   -1    0    0  501    0  0.00000000000E+00  0.00000000000E+00  0.45300587789E+03  0.45300587789E+03  0.25500000000E-02 0.  1.
         -2   -1    0    0    0  501 -0.00000000000E+00 -0.00000000000E+00 -0.12932667305E+03  0.12932667307E+03  0.25500000000E-02 0. -1.
    5000001    1    1    2    0    0 -0.89349490610E+02 -0.42301311072E+02  0.30344046830E+02  0.21807680658E+03  0.19200000000E+03 0.  0.
   -5000001    1    1    2    0    0  0.89349490610E+02  0.42301311072E+02  0.29333515801E+03  0.36425574438E+03  0.19200000000E+03 0.  0.
<mgrwt>
<rscale>  0 0.48408984E+03</rscale>
<asrwt>0</asrwt>
<pdfrwt beam="1">  1        2 0.64715125E-01 0.48408984E+03</pdfrwt>
<pdfrwt beam="2">  1       -2 0.18475239E-01 0.48408984E+03</pdfrwt>
<totfact> 0.18325575E+03</totfact>
</mgrwt>
</event>
<event>
 4    1  0.5812319E-005  0.5453664E+03  0.7818608E-02  0.1002572E+00
          2   -1    0    0  501    0  0.00000000000E+00  0.00000000000E+00  0.42354189516E+03  0.42354189517E+03  0.25500000000E-02 0.  1.
         -2   -1    0    0    0  501 -0.00000000000E+00 -0.00000000000E+00 -0.17555790028E+03  0.17555790030E+03  0.25500000000E-02 0. -1.
    5000001    1    1    2    0    0  0.12536521716E+03 -0.92553229440E+02  0.25024898778E+03  0.35181116219E+03  0.19200000000E+03 0.  0.
   -5000001    1    1    2    0    0 -0.12536521716E+03  0.92553229440E+02 -0.22649929035E+01  0.24728863328E+03  0.19200000000E+03 0.  0.
<mgrwt>
<rscale>  0 0.54536639E+03</rscale>
<asrwt>0</asrwt>
<pdfrwt beam="1">  1        2 0.60505984E-01 0.54536639E+03</pdfrwt>
<pdfrwt beam="2">  1       -2 0.25079701E-01 0.54536639E+03</pdfrwt>
<totfact> 0.11560364E+03</totfact>
</mgrwt>
</event>
<event>
 4    1  0.5812319E-005  0.3965948E+03  0.7818608E-02  0.1044965E+00
          2   -1    0    0  501    0  0.00000000000E+00  0.00000000000E+00  0.10877900480E+03  0.10877900483E+03  0.25500000000E-02 0.  1.
         -2   -1    0    0    0  501 -0.00000000000E+00 -0.00000000000E+00 -0.36148394114E+03  0.36148394115E+03  0.25500000000E-02 0. -1.
    5000001    1    1    2    0    0 -0.14875074252E+02 -0.42598886813E+02 -0.10199601075E+03  0.22204305709E+03  0.19200000000E+03 0.  0.
   -5000001    1    1    2    0    0  0.14875074252E+02  0.42598886813E+02 -0.15070892559E+03  0.24821988890E+03  0.19200000000E+03 0.  0.
<mgrwt>
<rscale>  0 0.39659482E+03</rscale>
<asrwt>0</asrwt>
<pdfrwt beam="1">  1        2 0.15539858E-01 0.39659482E+03</pdfrwt>
<pdfrwt beam="2">  1       -2 0.51640562E-01 0.39659482E+03</pdfrwt>
<totfact> 0.13550250E+03</totfact>
</mgrwt>
</event>
<event>
 4    1  0.5812319E-005  0.6358733E+03  0.7818608E-02  0.9833654E-01
          2   -1    0    0  501    0  0.00000000000E+00  0.00000000000E+00  0.65204976189E+03  0.65204976190E+03  0.25500000000E-02 0.  1.
         -2   -1    0    0    0  501 -0.00000000000E+00 -0.00000000000E+00 -0.15502454414E+03  0.15502454416E+03  0.25500000000E-02 0. -1.
    5000001    1    1    2    0    0 -0.94418427365E+02 -0.22793606239E+03  0.17504985300E+03  0.35829616101E+03  0.19200000000E+03 0.  0.
   -5000001    1    1    2    0    0  0.94418427365E+02  0.22793606239E+03  0.32197536476E+03  0.44877814505E+03  0.19200000000E+03 0.  0.
<mgrwt>
<rscale>  0 0.63587331E+03</rscale>
<asrwt>0</asrwt>
<pdfrwt beam="1">  1        2 0.93149965E-01 0.63587331E+03</pdfrwt>
<pdfrwt beam="2">  1       -2 0.22146364E-01 0.63587331E+03</pdfrwt>
<totfact> 0.87737377E+02</totfact>
</mgrwt>
</event>
<event>
 4    1  0.5812319E-005  0.5216111E+03  0.7818608E-02  0.1008287E+00
          2   -1    0    0  501    0  0.00000000000E+00  0.00000000000E+00  0.24808306683E+04  0.24808306683E+04  0.25500000000E-02 0.  1.
         -2   -1    0    0    0  501 -0.00000000000E+00 -0.00000000000E+00 -0.27418048054E+02  0.27418048173E+02  0.25500000000E-02 0. -1.
    5000001    1    1    2    0    0  0.14257443884E+03  0.92042036159E+02  0.99328440476E+03  0.10258055936E+04  0.19200000000E+03 0.  0.
   -5000001    1    1    2    0    0 -0.14257443884E+03 -0.92042036159E+02  0.14601282155E+04  0.14824431230E+04  0.19200000000E+03 0.  0.
<mgrwt>
<rscale>  0 0.52161110E+03</rscale>
<asrwt>0</asrwt>
<pdfrwt beam="1">  1        2 0.35440414E+00 0.52161110E+03</pdfrwt>
<pdfrwt beam="2">  1       -2 0.39168667E-02 0.52161110E+03</pdfrwt>
<totfact> 0.14227634E+03</totfact>
</mgrwt>
</event>
<event>
 4    1  0.5812319E-005  0.5658481E+03  0.7818608E-02  0.9978909E-01
         -2   -1    0    0    0  501 -0.00000000000E+00  0.00000000000E+00  0.63281380583E+03  0.63281380584E+03  0.25500000000E-02 0. -1.
          2   -1    0    0  501    0  0.00000000000E+00 -0.00000000000E+00 -0.12649220520E+03  0.12649220522E+03  0.25500000000E-02 0.  1.
    5000001    1    1    2    0    0  0.12078674625E+03  0.14958720614E+03  0.35895966223E+03  0.45020196515E+03  0.19200000000E+03 0.  0.
   -5000001    1    1    2    0    0 -0.12078674625E+03 -0.14958720614E+03  0.14736193840E+03  0.30910404592E+03  0.19200000000E+03 0.  0.
<mgrwt>
<rscale>  0 0.56584808E+03</rscale>
<asrwt>0</asrwt>
<pdfrwt beam="1">  1        2 0.18070315E-01 0.56584808E+03</pdfrwt>
<pdfrwt beam="2">  1       -2 0.90401974E-01 0.56584808E+03</pdfrwt>
<totfact> 0.33879910E+02</totfact>
</mgrwt>
</event>
<event>
 4    1  0.5812319E-005  0.4881360E+03  0.7818608E-02  0.1016923E+00
          2   -1    0    0  501    0  0.00000000000E+00  0.00000000000E+00  0.62432396393E+02  0.62432396445E+02  0.25500000000E-02 0.  1.
         -2   -1    0    0    0  501 -0.00000000000E+00 -0.00000000000E+00 -0.95413925598E+03  0.95413925599E+03  0.25500000000E-02 0. -1.
    5000001    1    1    2    0    0 -0.14613819459E+03 -0.60964467983E+01 -0.52127716422E+03  0.57444531552E+03  0.19200000000E+03 0.  0.
   -5000001    1    1    2    0    0  0.14613819459E+03  0.60964467983E+01 -0.37042969537E+03  0.44212633691E+03  0.19200000000E+03 0.  0.
<mgrwt>
<rscale>  0 0.48813605E+03</rscale>
<asrwt>0</asrwt>
<pdfrwt beam="1">  1        2 0.89189144E-02 0.48813605E+03</pdfrwt>
<pdfrwt beam="2">  1       -2 0.13630560E+00 0.48813605E+03</pdfrwt>
<totfact> 0.30049408E+02</totfact>
</mgrwt>
</event>
<event>
 4    1  0.5812319E-005  0.4740185E+03  0.7818608E-02  0.1020792E+00
          2   -1    0    0  501    0  0.00000000000E+00  0.00000000000E+00  0.37297739822E+02  0.37297739909E+02  0.25500000000E-02 0.  1.
         -2   -1    0    0    0  501 -0.00000000000E+00 -0.00000000000E+00 -0.15060800898E+04  0.15060800898E+04  0.25500000000E-02 0. -1.
    5000001    1    1    2    0    0 -0.12269873789E+03  0.59395525669E+02 -0.82215531355E+03  0.85521118348E+03  0.19200000000E+03 0.  0.
   -5000001    1    1    2    0    0  0.12269873789E+03 -0.59395525669E+02 -0.64662703644E+03  0.68816664624E+03  0.19200000000E+03 0.  0.
<mgrwt>
<rscale>  0 0.47401850E+03</rscale>
<asrwt>0</asrwt>
<pdfrwt beam="1">  1        2 0.53282495E-02 0.47401850E+03</pdfrwt>
<pdfrwt beam="2">  1       -2 0.21515426E+00 0.47401850E+03</pdfrwt>
<totfact> 0.16645635E+02</totfact>
</mgrwt>
</event>
<event>
 4    1  0.5812319E-005  0.5579576E+03  0.7818608E-02  0.9996687E-01
          2   -1    0    0  501    0  0.00000000000E+00  0.00000000000E+00  0.12972404083E+04  0.12972404083E+04  0.25500000000E-02 0.  1.
         -2   -1    0    0    0  501 -0.00000000000E+00 -0.00000000000E+00 -0.59995939882E+02  0.59995939936E+02  0.25500000000E-02 0. -1.
    5000001    1    1    2    0    0  0.18693024870E+03 -0.11400034000E+02  0.43190002791E+03  0.50840388744E+03  0.19200000000E+03 0.  0.
   -5000001    1    1    2    0    0 -0.18693024870E+03  0.11400034000E+02  0.80534444051E+03  0.84883246081E+03  0.19200000000E+03 0.  0.
<mgrwt>
<rscale>  0 0.55795755E+03</rscale>
<asrwt>0</asrwt>
<pdfrwt beam="1">  1        2 0.18532007E+00 0.55795755E+03</pdfrwt>
<pdfrwt beam="2">  1       -2 0.85708481E-02 0.55795755E+03</pdfrwt>
<totfact> 0.16760325E+03</totfact>
</mgrwt>
</event>
<event>
 4    1  0.5812319E-005  0.4667831E+03  0.7818608E-02  0.1022832E+00
         -2   -1    0    0    0  501 -0.00000000000E+00  0.00000000000E+00  0.12145739299E+03  0.12145739301E+03  0.25500000000E-02 0. -1.
          2   -1    0    0  501    0  0.00000000000E+00 -0.00000000000E+00 -0.44848340002E+03  0.44848340003E+03  0.25500000000E-02 0.  1.
    5000001    1    1    2    0    0 -0.20168734750E+02  0.11962995749E+03 -0.97879220970E+02  0.24731042535E+03  0.19200000000E+03 0.  0.
   -5000001    1    1    2    0    0  0.20168734750E+02 -0.11962995749E+03 -0.22914678607E+03  0.32263036769E+03  0.19200000000E+03 0.  0.
<mgrwt>
<rscale>  0 0.46678314E+03</rscale>
<asrwt>0</asrwt>
<pdfrwt beam="1">  1        2 0.64069056E-01 0.46678314E+03</pdfrwt>
<pdfrwt beam="2">  1       -2 0.17351056E-01 0.46678314E+03</pdfrwt>
<totfact> 0.20623922E+03</totfact>
</mgrwt>
</event>
<event>
 4    1  0.5812319E-005  0.5895319E+03  0.7818608E-02  0.9927365E-01
         -2   -1    0    0    0  501 -0.00000000000E+00  0.00000000000E+00  0.53397864430E+03  0.53397864431E+03  0.25500000000E-02 0. -1.
          2   -1    0    0  501    0  0.00000000000E+00 -0.00000000000E+00 -0.16271619461E+03  0.16271619463E+03  0.25500000000E-02 0.  1.
    5000001    1    1    2    0    0 -0.22552935615E+02  0.14717081572E+03  0.38286783961E+03  0.45345304775E+03  0.19200000000E+03 0.  0.
   -5000001    1    1    2    0    0  0.22552935615E+02 -0.14717081572E+03 -0.11605389921E+02  0.24324179119E+03  0.19200000000E+03 0.  0.
<mgrwt>
<rscale>  0 0.58953193E+03</rscale>
<asrwt>0</asrwt>
<pdfrwt beam="1">  1        2 0.23245170E-01 0.58953193E+03</pdfrwt>
<pdfrwt beam="2">  1       -2 0.76282665E-01 0.58953193E+03</pdfrwt>
<totfact> 0.37019354E+02</totfact>
</mgrwt>
</event>
<event>
 4    1  0.5812319E-005  0.6366798E+03  0.7818608E-02  0.9832100E-01
         -2   -1    0    0    0  501 -0.00000000000E+00  0.00000000000E+00  0.76520373270E+02  0.76520373312E+02  0.25500000000E-02 0. -1.
          2   -1    0    0  501    0  0.00000000000E+00 -0.00000000000E+00 -0.13243568096E+04  0.13243568096E+04  0.25500000000E-02 0.  1.
    5000001    1    1    2    0    0 -0.11576367664E+03 -0.20224552613E+03 -0.84582871078E+03  0.89810616837E+03  0.19200000000E+03 0.  0.
   -5000001    1    1    2    0    0  0.11576367664E+03  0.20224552613E+03 -0.40200772554E+03  0.50277101454E+03  0.19200000000E+03 0.  0.
<mgrwt>
<rscale>  0 0.63667975E+03</rscale>
<asrwt>0</asrwt>
<pdfrwt beam="1">  1        2 0.18919382E+00 0.63667975E+03</pdfrwt>
<pdfrwt beam="2">  1       -2 0.10931483E-01 0.63667975E+03</pdfrwt>
<totfact> 0.10908718E+03</totfact>
</mgrwt>
</event>
<event>
 4    1  0.5812319E-005  0.8467653E+03  0.7818608E-02  0.9494689E-01
          2   -1    0    0  501    0  0.00000000000E+00  0.00000000000E+00  0.70052836009E+03  0.70052836010E+03  0.25500000000E-02 0.  1.
         -2   -1    0    0    0  501 -0.00000000000E+00 -0.00000000000E+00 -0.25588239371E+03  0.25588239373E+03  0.25500000000E-02 0. -1.
    5000001    1    1    2    0    0  0.32852152203E+03 -0.18558465192E+03  0.21716922846E+03  0.47580933918E+03  0.19200000000E+03 0.  0.
   -5000001    1    1    2    0    0 -0.32852152203E+03  0.18558465192E+03  0.22747673792E+03  0.48060141464E+03  0.19200000000E+03 0.  0.
<mgrwt>
<rscale>  0 0.84676531E+03</rscale>
<asrwt>0</asrwt>
<pdfrwt beam="1">  1        2 0.10007548E+00 0.84676531E+03</pdfrwt>
<pdfrwt beam="2">  1       -2 0.36554628E-01 0.84676531E+03</pdfrwt>
<totfact> 0.31771217E+02</totfact>
</mgrwt>
</event>
<event>
 4    1  0.5812319E-005  0.4578647E+03  0.7818608E-02  0.1025402E+00
         -2   -1    0    0    0  501 -0.00000000000E+00  0.00000000000E+00  0.20443608249E+03  0.20443608251E+03  0.25500000000E-02 0. -1.
          2   -1    0    0  501    0  0.00000000000E+00 -0.00000000000E+00 -0.25636384767E+03  0.25636384768E+03  0.25500000000E-02 0.  1.
    5000001    1    1    2    0    0 -0.12892682422E+02 -0.95436681257E+02 -0.10566525150E+03  0.23938155059E+03  0.19200000000E+03 0.  0.
   -5000001    1    1    2    0    0  0.12892682422E+02  0.95436681257E+02  0.53737486322E+02  0.22141837960E+03  0.19200000000E+03 0.  0.
<mgrwt>
<rscale>  0 0.45786470E+03</rscale>
<asrwt>0</asrwt>
<pdfrwt beam="1">  1        2 0.36623407E-01 0.45786470E+03</pdfrwt>
<pdfrwt beam="2">  1       -2 0.29205155E-01 0.45786470E+03</pdfrwt>
<totfact> 0.15242747E+03</totfact>
</mgrwt>
</event>
<event>
 4    1  0.5812319E-005  0.4876462E+03  0.7818608E-02  0.1017055E+00
         -2   -1    0    0    0  501 -0.00000000000E+00  0.00000000000E+00  0.12219535513E+03  0.12219535516E+03  0.25500000000E-02 0. -1.
          2   -1    0    0  501    0  0.00000000000E+00 -0.00000000000E+00 -0.48651366259E+03  0.48651366259E+03  0.25500000000E-02 0.  1.
    5000001    1    1    2    0    0 -0.14976202810E+03  0.10254179591E+02 -0.17316678701E+03  0.29897248934E+03  0.19200000000E+03 0.  0.
   -5000001    1    1    2    0    0  0.14976202810E+03 -0.10254179591E+02 -0.19115152044E+03  0.30973652840E+03  0.19200000000E+03 0.  0.
<mgrwt>
<rscale>  0 0.48764622E+03</rscale>
<asrwt>0</asrwt>
<pdfrwt beam="1">  1        2 0.69501951E-01 0.48764622E+03</pdfrwt>
<pdfrwt beam="2">  1       -2 0.17456480E-01 0.48764622E+03</pdfrwt>
<totfact> 0.18641010E+03</totfact>
</mgrwt>
</event>
<event>
 4    1  0.5812319E-005  0.6370211E+03  0.7818608E-02  0.9831443E-01
          2   -1    0    0  501    0  0.00000000000E+00  0.00000000000E+00  0.72563138072E+03  0.72563138073E+03  0.25500000000E-02 0.  1.
         -2   -1    0    0    0  501 -0.00000000000E+00 -0.00000000000E+00 -0.13980784417E+03  0.13980784420E+03  0.25500000000E-02 0. -1.
    5000001    1    1    2    0    0 -0.97789296947E+02 -0.15580696045E+03  0.54690823281E+02  0.27146572836E+03  0.19200000000E+03 0.  0.
   -5000001    1    1    2    0    0  0.97789296947E+02  0.15580696045E+03  0.53113271327E+03  0.59397349657E+03  0.19200000000E+03 0.  0.
<mgrwt>
<rscale>  0 0.63702106E+03</rscale>
<asrwt>0</asrwt>
<pdfrwt beam="1">  1        2 0.10366163E+00 0.63702106E+03</pdfrwt>
<pdfrwt beam="2">  1       -2 0.19972549E-01 0.63702106E+03</pdfrwt>
<totfact> 0.92312179E+02</totfact>
</mgrwt>
</event>
<event>
 4    1  0.5812319E-005  0.1307972E+04  0.7818608E-02  0.9023267E-01
         -2   -1    0    0    0  501 -0.00000000000E+00  0.00000000000E+00  0.24368843195E+03  0.24368843197E+03  0.25500000000E-02 0. -1.
          2   -1    0    0  501    0  0.00000000000E+00 -0.00000000000E+00 -0.17551008535E+04  0.17551008535E+04  0.25500000000E-02 0.  1.
    5000001    1    1    2    0    0 -0.14926523228E+03 -0.49052694396E+03 -0.13023023672E+04  0.14127109569E+04  0.19200000000E+03 0.  0.
   -5000001    1    1    2    0    0  0.14926523228E+03  0.49052694396E+03 -0.20911005436E+03  0.58607832851E+03  0.19200000000E+03 0.  0.
<mgrwt>
<rscale>  0 0.13079721E+04</rscale>
<asrwt>0</asrwt>
<pdfrwt beam="1">  1        2 0.25072869E+00 0.13079721E+04</pdfrwt>
<pdfrwt beam="2">  1       -2 0.34812634E-01 0.13079721E+04</pdfrwt>
<totfact> 0.81424266E+01</totfact>
</mgrwt>
</event>
<event>
 4    1  0.5812319E-005  0.5161641E+03  0.7818608E-02  0.1009644E+00
          2   -1    0    0  501    0  0.00000000000E+00  0.00000000000E+00  0.11115321514E+04  0.11115321514E+04  0.25500000000E-02 0.  1.
         -2   -1    0    0    0  501 -0.00000000000E+00 -0.00000000000E+00 -0.59923001105E+02  0.59923001159E+02  0.25500000000E-02 0. -1.
    5000001    1    1    2    0    0 -0.14635513670E+03 -0.81184365903E+02  0.62024622298E+03  0.67050734852E+03  0.19200000000E+03 0.  0.
   -5000001    1    1    2    0    0  0.14635513670E+03  0.81184365903E+02  0.43136292729E+03  0.50094780402E+03  0.19200000000E+03 0.  0.
<mgrwt>
<rscale>  0 0.51616409E+03</rscale>
<asrwt>0</asrwt>
<pdfrwt beam="1">  1        2 0.15879030E+00 0.51616409E+03</pdfrwt>
<pdfrwt beam="2">  1       -2 0.85604293E-02 0.51616409E+03</pdfrwt>
<totfact> 0.21332678E+03</totfact>
</mgrwt>
</event>
<event>
 4    1  0.5812319E-005  0.5917475E+03  0.7818608E-02  0.9922677E-01
         -2   -1    0    0    0  501 -0.00000000000E+00  0.00000000000E+00  0.80511916331E+02  0.80511916372E+02  0.25500000000E-02 0. -1.
          2   -1    0    0  501    0  0.00000000000E+00 -0.00000000000E+00 -0.10873083676E+04  0.10873083676E+04  0.25500000000E-02 0.  1.
    5000001    1    1    2    0    0  0.14416085571E+03 -0.10690580984E+03 -0.77157852984E+03  0.81511265001E+03  0.19200000000E+03 0.  0.
   -5000001    1    1    2    0    0 -0.14416085571E+03  0.10690580984E+03 -0.23521792143E+03  0.35270763397E+03  0.19200000000E+03 0.  0.
<mgrwt>
<rscale>  0 0.59174751E+03</rscale>
<asrwt>0</asrwt>
<pdfrwt beam="1">  1        2 0.15532976E+00 0.59174751E+03</pdfrwt>
<pdfrwt beam="2">  1       -2 0.11501703E-01 0.59174751E+03</pdfrwt>
<totfact> 0.13650366E+03</totfact>
</mgrwt>
</event>
<event>
 4    1  0.5812319E-005  0.5854542E+03  0.7818608E-02  0.9936052E-01
         -2   -1    0    0    0  501 -0.00000000000E+00  0.00000000000E+00  0.20757868175E+03  0.20757868176E+03  0.25500000000E-02 0. -1.
          2   -1    0    0  501    0  0.00000000000E+00 -0.00000000000E+00 -0.41280331917E+03  0.41280331918E+03  0.25500000000E-02 0.  1.
    5000001    1    1    2    0    0  0.13654254803E+03  0.17165947989E+03 -0.74290968152E+02  0.30082219401E+03  0.19200000000E+03 0.  0.
   -5000001    1    1    2    0    0 -0.13654254803E+03 -0.17165947989E+03 -0.13093366927E+03  0.31955980693E+03  0.19200000000E+03 0.  0.
<mgrwt>
<rscale>  0 0.58545425E+03</rscale>
<asrwt>0</asrwt>
<pdfrwt beam="1">  1        2 0.58971903E-01 0.58545425E+03</pdfrwt>
<pdfrwt beam="2">  1       -2 0.29654097E-01 0.58545425E+03</pdfrwt>
<totfact> 0.87706789E+02</totfact>
</mgrwt>
</event>
<event>
 4    1  0.5812319E-005  0.5813416E+03  0.7818608E-02  0.9944891E-01
         -2   -1    0    0    0  501 -0.00000000000E+00  0.00000000000E+00  0.63661089105E+03  0.63661089105E+03  0.25500000000E-02 0. -1.
          2   -1    0    0  501    0  0.00000000000E+00 -0.00000000000E+00 -0.13271765334E+03  0.13271765337E+03  0.25500000000E-02 0.  1.
    5000001    1    1    2    0    0  0.20441815978E+03 -0.74312524034E+02  0.27548501916E+03  0.40008140554E+03  0.19200000000E+03 0.  0.
   -5000001    1    1    2    0    0 -0.20441815978E+03  0.74312524034E+02  0.22840821854E+03  0.36924713888E+03  0.19200000000E+03 0.  0.
<mgrwt>
<rscale>  0 0.58134156E+03</rscale>
<asrwt>0</asrwt>
<pdfrwt beam="1">  1        2 0.18959665E-01 0.58134156E+03</pdfrwt>
<pdfrwt beam="2">  1       -2 0.90944413E-01 0.58134156E+03</pdfrwt>
<totfact> 0.31564409E+02</totfact>
</mgrwt>
</event>
<event>
 4    1  0.5812319E-005  0.6818847E+03  0.7818608E-02  0.9748723E-01
          2   -1    0    0  501    0  0.00000000000E+00  0.00000000000E+00  0.16407535175E+04  0.16407535175E+04  0.25500000000E-02 0.  1.
         -2   -1    0    0    0  501 -0.00000000000E+00 -0.00000000000E+00 -0.70846531359E+02  0.70846531405E+02  0.25500000000E-02 0. -1.
    5000001    1    1    2    0    0 -0.22622602379E+03  0.51834602339E+01  0.36364045917E+03  0.46936495997E+03  0.19200000000E+03 0.  0.
   -5000001    1    1    2    0    0  0.22622602379E+03 -0.51834602339E+01  0.12062665270E+04  0.12422350889E+04  0.19200000000E+03 0.  0.
<mgrwt>
<rscale>  0 0.68188473E+03</rscale>
<asrwt>0</asrwt>
<pdfrwt beam="1">  1        2 0.23439336E+00 0.68188473E+03</pdfrwt>
<pdfrwt beam="2">  1       -2 0.10120933E-01 0.68188473E+03</pdfrwt>
<totfact> 0.84182529E+02</totfact>
</mgrwt>
</event>
<event>
 4    1  0.5812319E-005  0.6672987E+03  0.7818608E-02  0.9774850E-01
          2   -1    0    0  501    0  0.00000000000E+00  0.00000000000E+00  0.15969824042E+04  0.15969824042E+04  0.25500000000E-02 0.  1.
         -2   -1    0    0    0  501 -0.00000000000E+00 -0.00000000000E+00 -0.69707643722E+02  0.69707643769E+02  0.25500000000E-02 0. -1.
    5000001    1    1    2    0    0 -0.69386165688E+01  0.26555759483E+03  0.91939451993E+03  0.97607339061E+03  0.19200000000E+03 0.  0.
   -5000001    1    1    2    0    0  0.69386165688E+01 -0.26555759483E+03  0.60788024051E+03  0.69061665733E+03  0.19200000000E+03 0.  0.
<mgrwt>
<rscale>  0 0.66729868E+03</rscale>
<asrwt>0</asrwt>
<pdfrwt beam="1">  1        2 0.22814030E+00 0.66729868E+03</pdfrwt>
<pdfrwt beam="2">  1       -2 0.99582365E-02 0.66729868E+03</pdfrwt>
<totfact> 0.91095534E+02</totfact>
</mgrwt>
</event>
<event>
 4    1  0.5812319E-005  0.5761920E+03  0.7818608E-02  0.9956069E-01
         -2   -1    0    0    0  501 -0.00000000000E+00  0.00000000000E+00  0.59976839146E+02  0.59976839200E+02  0.25500000000E-02 0. -1.
          2   -1    0    0  501    0  0.00000000000E+00 -0.00000000000E+00 -0.13838560564E+04  0.13838560564E+04  0.25500000000E-02 0.  1.
    5000001    1    1    2    0    0 -0.20020614563E+03 -0.55911992388E+02 -0.79750095172E+03  0.84621535062E+03  0.19200000000E+03 0.  0.
   -5000001    1    1    2    0    0  0.20020614563E+03  0.55911992388E+02 -0.52637826557E+03  0.59761754501E+03  0.19200000000E+03 0.  0.
<mgrwt>
<rscale>  0 0.57619202E+03</rscale>
<asrwt>0</asrwt>
<pdfrwt beam="1">  1        2 0.19769370E+00 0.57619202E+03</pdfrwt>
<pdfrwt beam="2">  1       -2 0.85681207E-02 0.57619202E+03</pdfrwt>
<totfact> 0.15057846E+03</totfact>
</mgrwt>
</event>
<event>
 4    1  0.5812319E-005  0.5372273E+03  0.7818608E-02  0.1004494E+00
          2   -1    0    0  501    0  0.00000000000E+00  0.00000000000E+00  0.90634444453E+03  0.90634444453E+03  0.25500000000E-02 0.  1.
         -2   -1    0    0    0  501 -0.00000000000E+00 -0.00000000000E+00 -0.79609128694E+02  0.79609128735E+02  0.25500000000E-02 0. -1.
    5000001    1    1    2    0    0 -0.15016282839E+03 -0.95761596267E+02  0.30370958605E+03  0.40102702030E+03  0.19200000000E+03 0.  0.
   -5000001    1    1    2    0    0  0.15016282839E+03  0.95761596267E+02  0.52302572978E+03  0.58492655296E+03  0.19200000000E+03 0.  0.
<mgrwt>
<rscale>  0 0.53722729E+03</rscale>
<asrwt>0</asrwt>
<pdfrwt beam="1">  1        2 0.12947778E+00 0.53722729E+03</pdfrwt>
<pdfrwt beam="2">  1       -2 0.11372732E-01 0.53722729E+03</pdfrwt>
<totfact> 0.17944508E+03</totfact>
</mgrwt>
</event>
<event>
 4    1  0.5812319E-005  0.5990898E+03  0.7818608E-02  0.9907296E-01
          2   -1    0    0  501    0  0.00000000000E+00  0.00000000000E+00  0.15297259828E+04  0.15297259829E+04  0.25500000000E-02 0.  1.
         -2   -1    0    0    0  501 -0.00000000000E+00 -0.00000000000E+00 -0.58655699505E+02  0.58655699560E+02  0.25500000000E-02 0. -1.
    5000001    1    1    2    0    0 -0.15392632764E+03 -0.15205156163E+03  0.94176247483E+03  0.98518706383E+03  0.19200000000E+03 0.  0.
   -5000001    1    1    2    0    0  0.15392632764E+03  0.15205156163E+03  0.52930780851E+03  0.60319461858E+03  0.19200000000E+03 0.  0.
<mgrwt>
<rscale>  0 0.59908980E+03</rscale>
<asrwt>0</asrwt>
<pdfrwt beam="1">  1        2 0.21853229E+00 0.59908980E+03</pdfrwt>
<pdfrwt beam="2">  1       -2 0.83793854E-02 0.59908980E+03</pdfrwt>
<totfact> 0.13071479E+03</totfact>
</mgrwt>
</event>
<event>
 4    1  0.5812319E-005  0.5719435E+03  0.7818608E-02  0.9965387E-01
         -2   -1    0    0    0  501 -0.00000000000E+00  0.00000000000E+00  0.13361487066E+03  0.13361487069E+03  0.25500000000E-02 0. -1.
          2   -1    0    0  501    0  0.00000000000E+00 -0.00000000000E+00 -0.61205651553E+03  0.61205651553E+03  0.25500000000E-02 0.  1.
    5000001    1    1    2    0    0 -0.15691928720E+03  0.83784811195E+02 -0.89021721475E+02  0.27646414628E+03  0.19200000000E+03 0.  0.
   -5000001    1    1    2    0    0  0.15691928720E+03 -0.83784811195E+02 -0.38941992339E+03  0.46920723994E+03  0.19200000000E+03 0.  0.
<mgrwt>
<rscale>  0 0.57194354E+03</rscale>
<asrwt>0</asrwt>
<pdfrwt beam="1">  1        2 0.87436643E-01 0.57194354E+03</pdfrwt>
<pdfrwt beam="2">  1       -2 0.19087839E-01 0.57194354E+03</pdfrwt>
<totfact> 0.12278771E+03</totfact>
</mgrwt>
</event>
<event>
 4    1  0.5812319E-005  0.4664945E+03  0.7818608E-02  0.1022914E+00
         -2   -1    0    0    0  501 -0.00000000000E+00  0.00000000000E+00  0.33312530531E+02  0.33312530629E+02  0.25500000000E-02 0. -1.
          2   -1    0    0  501    0  0.00000000000E+00 -0.00000000000E+00 -0.16331475914E+04  0.16331475914E+04  0.25500000000E-02 0.  1.
    5000001    1    1    2    0    0  0.20519698595E+02  0.11913021388E+03 -0.60664257713E+03  0.64768223866E+03  0.19200000000E+03 0.  0.
   -5000001    1    1    2    0    0 -0.20519698595E+02 -0.11913021388E+03 -0.99319248376E+03  0.10187778834E+04  0.19200000000E+03 0.  0.
<mgrwt>
<rscale>  0 0.46649450E+03</rscale>
<asrwt>0</asrwt>
<pdfrwt beam="1">  1        2 0.23330675E+00 0.46649450E+03</pdfrwt>
<pdfrwt beam="2">  1       -2 0.47589339E-02 0.46649450E+03</pdfrwt>
<totfact> 0.28180545E+03</totfact>
</mgrwt>
</event>
<event>
 4    1  0.5812319E-005  0.4437059E+03  0.7818608E-02  0.1029616E+00
          2   -1    0    0  501    0  0.00000000000E+00  0.00000000000E+00  0.13467661976E+04  0.13467661976E+04  0.25500000000E-02 0.  1.
         -2   -1    0    0    0  501 -0.00000000000E+00 -0.00000000000E+00 -0.36545854669E+02  0.36545854758E+02  0.25500000000E-02 0. -1.
    5000001    1    1    2    0    0 -0.33922238187E+02  0.37434437075E+02  0.34643825891E+03  0.39929377976E+03  0.19200000000E+03 0.  0.
   -5000001    1    1    2    0    0  0.33922238187E+02 -0.37434437075E+02  0.96378208403E+03  0.98401827261E+03  0.19200000000E+03 0.  0.
<mgrwt>
<rscale>  0 0.44370586E+03</rscale>
<asrwt>0</asrwt>
<pdfrwt beam="1">  1        2 0.19239519E+00 0.44370586E+03</pdfrwt>
<pdfrwt beam="2">  1       -2 0.52208360E-02 0.44370586E+03</pdfrwt>
<totfact> 0.34375417E+03</totfact>
</mgrwt>
</event>
<event>
 4    1  0.5812319E-005  0.5396744E+03  0.7818608E-02  0.1003913E+00
          2   -1    0    0  501    0  0.00000000000E+00  0.00000000000E+00  0.77541985087E+03  0.77541985087E+03  0.25500000000E-02 0.  1.
         -2   -1    0    0    0  501 -0.00000000000E+00 -0.00000000000E+00 -0.93900258963E+02  0.93900258998E+02  0.25500000000E-02 0. -1.
    5000001    1    1    2    0    0  0.84431900281E+02  0.16891436871E+03  0.36806384685E+03  0.45606557105E+03  0.19200000000E+03 0.  0.
   -5000001    1    1    2    0    0 -0.84431900281E+02 -0.16891436871E+03  0.31345574506E+03  0.41325453882E+03  0.19200000000E+03 0.  0.
<mgrwt>
<rscale>  0 0.53967444E+03</rscale>
<asrwt>0</asrwt>
<pdfrwt beam="1">  1        2 0.11077426E+00 0.53967444E+03</pdfrwt>
<pdfrwt beam="2">  1       -2 0.13414323E-01 0.53967444E+03</pdfrwt>
<totfact> 0.16735461E+03</totfact>
</mgrwt>
</event>
<event>
 4    1  0.5812319E-005  0.7282620E+03  0.7818608E-02  0.9670085E-01
         -2   -1    0    0    0  501 -0.00000000000E+00  0.00000000000E+00  0.12921306442E+04  0.12921306442E+04  0.25500000000E-02 0. -1.
          2   -1    0    0  501    0  0.00000000000E+00 -0.00000000000E+00 -0.10261453691E+03  0.10261453694E+03  0.25500000000E-02 0.  1.
    5000001    1    1    2    0    0 -0.24394269579E+02 -0.28287753791E+03  0.35931987252E+03  0.49657784146E+03  0.19200000000E+03 0.  0.
   -5000001    1    1    2    0    0  0.24394269579E+02  0.28287753791E+03  0.83019623480E+03  0.89816733971E+03  0.19200000000E+03 0.  0.
<mgrwt>
<rscale>  0 0.72826201E+03</rscale>
<asrwt>0</asrwt>
<pdfrwt beam="1">  1        2 0.14659220E-01 0.72826201E+03</pdfrwt>
<pdfrwt beam="2">  1       -2 0.18459008E+00 0.72826201E+03</pdfrwt>
<totfact> 0.70683651E+01</totfact>
</mgrwt>
</event>
<event>
 4    1  0.5812319E-005  0.8254590E+03  0.7818608E-02  0.9523880E-01
         -2   -1    0    0    0  501 -0.00000000000E+00  0.00000000000E+00  0.40929245259E+03  0.40929245260E+03  0.25500000000E-02 0. -1.
          2   -1    0    0  501    0  0.00000000000E+00 -0.00000000000E+00 -0.41619536597E+03  0.41619536598E+03  0.25500000000E-02 0.  1.
    5000001    1    1    2    0    0  0.56596071784E+02 -0.29986736657E+03 -0.20435165962E+03  0.41442388163E+03  0.19200000000E+03 0.  0.
   -5000001    1    1    2    0    0 -0.56596071784E+02  0.29986736657E+03  0.19744874624E+03  0.41106393696E+03  0.19200000000E+03 0.  0.
<mgrwt>
<rscale>  0 0.82545896E+03</rscale>
<asrwt>0</asrwt>
<pdfrwt beam="1">  1        2 0.59456481E-01 0.82545896E+03</pdfrwt>
<pdfrwt beam="2">  1       -2 0.58470350E-01 0.82545896E+03</pdfrwt>
<totfact> 0.22761370E+02</totfact>
</mgrwt>
</event>
<event>
 4    1  0.5812319E-005  0.4484335E+03  0.7818608E-02  0.1028190E+00
         -2   -1    0    0    0  501 -0.00000000000E+00  0.00000000000E+00  0.44628934915E+03  0.44628934916E+03  0.25500000000E-02 0. -1.
          2   -1    0    0  501    0  0.00000000000E+00 -0.00000000000E+00 -0.11264696713E+03  0.11264696716E+03  0.25500000000E-02 0.  1.
    5000001    1    1    2    0    0  0.10890656889E+03 -0.39293105433E+02  0.16416167728E+03  0.27788063116E+03  0.19200000000E+03 0.  0.
   -5000001    1    1    2    0    0 -0.10890656889E+03  0.39293105433E+02  0.16948070474E+03  0.28105568516E+03  0.19200000000E+03 0.  0.
<mgrwt>
<rscale>  0 0.44843346E+03</rscale>
<asrwt>0</asrwt>
<pdfrwt beam="1">  1        2 0.16092424E-01 0.44843346E+03</pdfrwt>
<pdfrwt beam="2">  1       -2 0.63755622E-01 0.44843346E+03</pdfrwt>
<totfact> 0.84090014E+02</totfact>
</mgrwt>
</event>
<event>
 4    1  0.5812319E-005  0.4970979E+03  0.7818608E-02  0.1014539E+00
          2   -1    0    0  501    0  0.00000000000E+00  0.00000000000E+00  0.65979972092E+03  0.65979972092E+03  0.25500000000E-02 0.  1.
         -2   -1    0    0    0  501 -0.00000000000E+00 -0.00000000000E+00 -0.93629298115E+02  0.93629298149E+02  0.25500000000E-02 0. -1.
    5000001    1    1    2    0    0  0.93274790354E+02 -0.10277394484E+03  0.39701081521E+03  0.46232483997E+03  0.19200000000E+03 0.  0.
   -5000001    1    1    2    0    0 -0.93274790354E+02  0.10277394484E+03  0.16915960759E+03  0.29110417911E+03  0.19200000000E+03 0.  0.
<mgrwt>
<rscale>  0 0.49709792E+03</rscale>
<asrwt>0</asrwt>
<pdfrwt beam="1">  1        2 0.94257105E-01 0.49709792E+03</pdfrwt>
<pdfrwt beam="2">  1       -2 0.13375614E-01 0.49709792E+03</pdfrwt>
<totfact> 0.20496833E+03</totfact>
</mgrwt>
</event>
<event>
 4    1  0.5812319E-005  0.6702942E+03  0.7818608E-02  0.9769427E-01
         -2   -1    0    0    0  501 -0.00000000000E+00  0.00000000000E+00  0.82794852689E+02  0.82794852728E+02  0.25500000000E-02 0. -1.
          2   -1    0    0  501    0  0.00000000000E+00 -0.00000000000E+00 -0.13566491236E+04  0.13566491236E+04  0.25500000000E-02 0.  1.
    5000001    1    1    2    0    0  0.46267638901E+02 -0.25990759398E+03 -0.80000725291E+03  0.86404181411E+03  0.19200000000E+03 0.  0.
   -5000001    1    1    2    0    0 -0.46267638901E+02  0.25990759398E+03 -0.47384701799E+03  0.57540216221E+03  0.19200000000E+03 0.  0.
<mgrwt>
<rscale>  0 0.67029416E+03</rscale>
<asrwt>0</asrwt>
<pdfrwt beam="1">  1        2 0.19380700E+00 0.67029416E+03</pdfrwt>
<pdfrwt beam="2">  1       -2 0.11827837E-01 0.67029416E+03</pdfrwt>
<totfact> 0.91966528E+02</totfact>
</mgrwt>
</event>
<event>
 4    1  0.5812319E-005  0.6337670E+03  0.7818608E-02  0.9837725E-01
          2   -1    0    0  501    0  0.00000000000E+00  0.00000000000E+00  0.27858988690E+04  0.27858988690E+04  0.25500000000E-02 0.  1.
         -2   -1    0    0    0  501 -0.00000000000E+00 -0.00000000000E+00 -0.36044080869E+02  0.36044080959E+02  0.25500000000E-02 0. -1.
    5000001    1    1    2    0    0 -0.22120384937E+03 -0.76268743332E+02  0.95715821024E+03  0.10038744461E+04  0.19200000000E+03 0.  0.
   -5000001    1    1    2    0    0  0.22120384937E+03  0.76268743332E+02  0.17926965778E+04  0.18180685038E+04  0.19200000000E+03 0.  0.
<mgrwt>
<rscale>  0 0.63376704E+03</rscale>
<asrwt>0</asrwt>
<pdfrwt beam="1">  1        2 0.39798567E+00 0.63376704E+03</pdfrwt>
<pdfrwt beam="2">  1       -2 0.51491529E-02 0.63376704E+03</pdfrwt>
<totfact> 0.64224271E+02</totfact>
</mgrwt>
</event>
<event>
 4    1  0.5812319E-005  0.5791428E+03  0.7818608E-02  0.9949649E-01
          2   -1    0    0  501    0  0.00000000000E+00  0.00000000000E+00  0.53469383779E+03  0.53469383780E+03  0.25500000000E-02 0.  1.
         -2   -1    0    0    0  501 -0.00000000000E+00 -0.00000000000E+00 -0.15682170562E+03  0.15682170564E+03  0.25500000000E-02 0. -1.
    5000001    1    1    2    0    0 -0.18988463580E+03  0.64299566073E+02  0.28737674651E+03  0.39954975103E+03  0.19200000000E+03 0.  0.
   -5000001    1    1    2    0    0  0.18988463580E+03 -0.64299566073E+02  0.90495385666E+02  0.29196579241E+03  0.19200000000E+03 0.  0.
<mgrwt>
<rscale>  0 0.57914281E+03</rscale>
<asrwt>0</asrwt>
<pdfrwt beam="1">  1        2 0.76384834E-01 0.57914281E+03</pdfrwt>
<pdfrwt beam="2">  1       -2 0.22403101E-01 0.57914281E+03</pdfrwt>
<totfact> 0.10860712E+03</totfact>
</mgrwt>
</event>
<event>
 4    1  0.5812319E-005  0.4141821E+03  0.7818608E-02  0.1038977E+00
          2   -1    0    0  501    0  0.00000000000E+00  0.00000000000E+00  0.79614987837E+03  0.79614987838E+03  0.25500000000E-02 0.  1.
         -2   -1    0    0    0  501 -0.00000000000E+00 -0.00000000000E+00 -0.53867631004E+02  0.53867631064E+02  0.25500000000E-02 0. -1.
    5000001    1    1    2    0    0  0.38533783018E+02  0.66518593512E+02  0.39296991073E+03  0.44407085747E+03  0.19200000000E+03 0.  0.
   -5000001    1    1    2    0    0 -0.38533783018E+02 -0.66518593512E+02  0.34931233664E+03  0.40594665197E+03  0.19200000000E+03 0.  0.
<mgrwt>
<rscale>  0 0.41418212E+03</rscale>
<asrwt>0</asrwt>
<pdfrwt beam="1">  1        2 0.11373570E+00 0.41418212E+03</pdfrwt>
<pdfrwt beam="2">  1       -2 0.76953760E-02 0.41418212E+03</pdfrwt>
<totfact> 0.39665826E+03</totfact>
</mgrwt>
</event>
<event>
 4    1  0.5812319E-005  0.5972490E+03  0.7818608E-02  0.9911130E-01
          2   -1    0    0  501    0  0.00000000000E+00  0.00000000000E+00  0.24579805100E+04  0.24579805100E+04  0.25500000000E-02 0.  1.
         -2   -1    0    0    0  501 -0.00000000000E+00 -0.00000000000E+00 -0.36280432111E+02  0.36280432200E+02  0.25500000000E-02 0. -1.
    5000001    1    1    2    0    0 -0.11459594958E+03  0.19791719360E+03  0.12234813490E+04  0.12593943221E+04  0.19200000000E+03 0.  0.
   -5000001    1    1    2    0    0  0.11459594958E+03 -0.19791719360E+03  0.11982187289E+04  0.12348666201E+04  0.19200000000E+03 0.  0.
<mgrwt>
<rscale>  0 0.59724901E+03</rscale>
<asrwt>0</asrwt>
<pdfrwt beam="1">  1        2 0.35114006E+00 0.59724901E+03</pdfrwt>
<pdfrwt beam="2">  1       -2 0.51829191E-02 0.59724901E+03</pdfrwt>
<totfact> 0.94398959E+02</totfact>
</mgrwt>
</event>
<event>
 4    1  0.5812319E-005  0.7436170E+03  0.7818608E-02  0.9645418E-01
         -2   -1    0    0    0  501 -0.00000000000E+00  0.00000000000E+00  0.96252014463E+02  0.96252014497E+02  0.25500000000E-02 0. -1.
          2   -1    0    0  501    0  0.00000000000E+00 -0.00000000000E+00 -0.14362457035E+04  0.14362457035E+04  0.25500000000E-02 0.  1.
    5000001    1    1    2    0    0  0.75770513461E+02 -0.27261261044E+03 -0.36909054266E+03  0.50314077033E+03  0.19200000000E+03 0.  0.
   -5000001    1    1    2    0    0 -0.75770513461E+02  0.27261261044E+03 -0.97090314636E+03  0.10293569477E+04  0.19200000000E+03 0.  0.
<mgrwt>
<rscale>  0 0.74361695E+03</rscale>
<asrwt>0</asrwt>
<pdfrwt beam="1">  1        2 0.20517794E+00 0.74361695E+03</pdfrwt>
<pdfrwt beam="2">  1       -2 0.13750289E-01 0.74361695E+03</pdfrwt>
<totfact> 0.64723101E+02</totfact>
</mgrwt>
</event>
<event>
 4    1  0.5812319E-005  0.5373088E+03  0.7818608E-02  0.1004475E+00
          2   -1    0    0  501    0  0.00000000000E+00  0.00000000000E+00  0.10554144475E+04  0.10554144475E+04  0.25500000000E-02 0.  1.
         -2   -1    0    0    0  501 -0.00000000000E+00 -0.00000000000E+00 -0.68385634716E+02  0.68385634763E+02  0.25500000000E-02 0. -1.
    5000001    1    1    2    0    0  0.64927902127E+02  0.10097543259E+03  0.79588059404E+03  0.82746697242E+03  0.19200000000E+03 0.  0.
   -5000001    1    1    2    0    0 -0.64927902127E+02 -0.10097543259E+03  0.19114821872E+03  0.29633310983E+03  0.19200000000E+03 0.  0.
<mgrwt>
<rscale>  0 0.53730880E+03</rscale>
<asrwt>0</asrwt>
<pdfrwt beam="1">  1        2 0.15077347E+00 0.53730880E+03</pdfrwt>
<pdfrwt beam="2">  1       -2 0.97693776E-02 0.53730880E+03</pdfrwt>
<totfact> 0.18603439E+03</totfact>
</mgrwt>
</event>
<event>
 4    1  0.5812319E-005  0.5335521E+03  0.7818608E-02  0.1005374E+00
         -2   -1    0    0    0  501 -0.00000000000E+00  0.00000000000E+00  0.39792412277E+02  0.39792412359E+02  0.25500000000E-02 0. -1.
          2   -1    0    0  501    0  0.00000000000E+00 -0.00000000000E+00 -0.17885186891E+04  0.17885186891E+04  0.25500000000E-02 0.  1.
    5000001    1    1    2    0    0 -0.88295645430E+02  0.16235035203E+03 -0.91657047337E+03  0.95452563636E+03  0.19200000000E+03 0.  0.
   -5000001    1    1    2    0    0  0.88295645430E+02 -0.16235035203E+03 -0.83215580346E+03  0.87378546511E+03  0.19200000000E+03 0.  0.
<mgrwt>
<rscale>  0 0.53355215E+03</rscale>
<asrwt>0</asrwt>
<pdfrwt beam="1">  1        2 0.25550262E+00 0.53355215E+03</pdfrwt>
<pdfrwt beam="2">  1       -2 0.56846315E-02 0.53355215E+03</pdfrwt>
<totfact> 0.17831636E+03</totfact>
</mgrwt>
</event>
<event>
 4    1  0.5812319E-005  0.6931086E+03  0.7818608E-02  0.9729091E-01
          2   -1    0    0  501    0  0.00000000000E+00  0.00000000000E+00  0.16131183468E+04  0.16131183468E+04  0.25500000000E-02 0.  1.
         -2   -1    0    0    0  501 -0.00000000000E+00 -0.00000000000E+00 -0.74451989089E+02  0.74451989133E+02  0.25500000000E-02 0. -1.
    5000001    1    1    2    0    0  0.13483279391E+03  0.16721490390E+03  0.12382753201E+04  0.12713498633E+04  0.19200000000E+03 0.  0.
   -5000001    1    1    2    0    0 -0.13483279391E+03 -0.16721490390E+03  0.30039103756E+03  0.41622047264E+03  0.19200000000E+03 0.  0.
<mgrwt>
<rscale>  0 0.69310856E+03</rscale>
<asrwt>0</asrwt>
<pdfrwt beam="1">  1        2 0.23044548E+00 0.69310856E+03</pdfrwt>
<pdfrwt beam="2">  1       -2 0.10635998E-01 0.69310856E+03</pdfrwt>
<totfact> 0.80180363E+02</totfact>
</mgrwt>
</event>
<event>
 4    1  0.5812319E-005  0.4900126E+03  0.7818608E-02  0.1016419E+00
         -2   -1    0    0    0  501 -0.00000000000E+00  0.00000000000E+00  0.18586143154E+03  0.18586143156E+03  0.25500000000E-02 0. -1.
          2   -1    0    0  501    0  0.00000000000E+00 -0.00000000000E+00 -0.32297224717E+03  0.32297224718E+03  0.25500000000E-02 0.  1.
    5000001    1    1    2    0    0 -0.80038551296E+02  0.11848164128E+03 -0.12271236768E+03  0.26901002620E+03  0.19200000000E+03 0.  0.
   -5000001    1    1    2    0    0  0.80038551296E+02 -0.11848164128E+03 -0.14398447955E+02  0.23982365254E+03  0.19200000000E+03 0.  0.
<mgrwt>
<rscale>  0 0.49001259E+03</rscale>
<asrwt>0</asrwt>
<pdfrwt beam="1">  1        2 0.46138892E-01 0.49001259E+03</pdfrwt>
<pdfrwt beam="2">  1       -2 0.26551633E-01 0.49001259E+03</pdfrwt>
<totfact> 0.14069468E+03</totfact>
</mgrwt>
</event>
<event>
 4    1  0.5812319E-005  0.6558173E+03  0.7818608E-02  0.9795924E-01
         -2   -1    0    0    0  501 -0.00000000000E+00  0.00000000000E+00  0.28658805832E+02  0.28658805946E+02  0.25500000000E-02 0. -1.
          2   -1    0    0  501    0  0.00000000000E+00 -0.00000000000E+00 -0.37518693519E+04  0.37518693519E+04  0.25500000000E-02 0.  1.
    5000001    1    1    2    0    0 -0.19272851773E+03  0.15725338516E+03 -0.13212311899E+04  0.13580827537E+04  0.19200000000E+03 0.  0.
   -5000001    1    1    2    0    0  0.19272851773E+03 -0.15725338516E+03 -0.24019793562E+04  0.24224454042E+04  0.19200000000E+03 0.  0.
<mgrwt>
<rscale>  0 0.65581734E+03</rscale>
<asrwt>0</asrwt>
<pdfrwt beam="1">  1        2 0.53598102E+00 0.65581734E+03</pdfrwt>
<pdfrwt beam="2">  1       -2 0.40941175E-02 0.65581734E+03</pdfrwt>
<totfact> 0.25564032E+02</totfact>
</mgrwt>
</event>
<event>
 4    1  0.5812319E-005  0.7689563E+03  0.7818608E-02  0.9606071E-01
          2   -1    0    0  501    0  0.00000000000E+00  0.00000000000E+00  0.86164521319E+03  0.86164521319E+03  0.25500000000E-02 0.  1.
         -2   -1    0    0    0  501 -0.00000000000E+00 -0.00000000000E+00 -0.17155955145E+03  0.17155955147E+03  0.25500000000E-02 0. -1.
    5000001    1    1    2    0    0 -0.62997211122E+02 -0.28388725024E+03  0.56335462152E+03  0.66241455981E+03  0.19200000000E+03 0.  0.
   -5000001    1    1    2    0    0  0.62997211122E+02  0.28388725024E+03  0.12673104022E+03  0.37079020485E+03  0.19200000000E+03 0.  0.
<mgrwt>
<rscale>  0 0.76895635E+03</rscale>
<asrwt>0</asrwt>
<pdfrwt beam="1">  1        2 0.12309217E+00 0.76895635E+03</pdfrwt>
<pdfrwt beam="2">  1       -2 0.24508507E-01 0.76895635E+03</pdfrwt>
<totfact> 0.51378729E+02</totfact>
</mgrwt>
</event>
<event>
 4    1  0.5812319E-005  0.4366826E+03  0.7818608E-02  0.1031770E+00
         -2   -1    0    0    0  501 -0.00000000000E+00  0.00000000000E+00  0.10693643564E+03  0.10693643568E+03  0.25500000000E-02 0. -1.
          2   -1    0    0  501    0  0.00000000000E+00 -0.00000000000E+00 -0.44580626258E+03  0.44580626259E+03  0.25500000000E-02 0.  1.
    5000001    1    1    2    0    0  0.89150243184E+02  0.50610811246E+02 -0.14752152103E+03  0.26293691114E+03  0.19200000000E+03 0.  0.
   -5000001    1    1    2    0    0 -0.89150243184E+02 -0.50610811246E+02 -0.19134830590E+03  0.28980578712E+03  0.19200000000E+03 0.  0.
<mgrwt>
<rscale>  0 0.43668264E+03</rscale>
<asrwt>0</asrwt>
<pdfrwt beam="1">  1        2 0.63686608E-01 0.43668264E+03</pdfrwt>
<pdfrwt beam="2">  1       -2 0.15276634E-01 0.43668264E+03</pdfrwt>
<totfact> 0.25721288E+03</totfact>
</mgrwt>
</event>
<event>
 4    1  0.5812319E-005  0.4222095E+03  0.7818608E-02  0.1036350E+00
          2   -1    0    0  501    0  0.00000000000E+00  0.00000000000E+00  0.29325375471E+04  0.29325375471E+04  0.25500000000E-02 0.  1.
         -2   -1    0    0    0  501 -0.00000000000E+00 -0.00000000000E+00 -0.15196808047E+02  0.15196808261E+02  0.25500000000E-02 0. -1.
    5000001    1    1    2    0    0 -0.65585270155E+02 -0.31735940323E+02  0.18001749947E+04  0.18118506034E+04  0.19200000000E+03 0.  0.
   -5000001    1    1    2    0    0  0.65585270155E+02  0.31735940323E+02  0.11171657444E+04  0.11358837520E+04  0.19200000000E+03 0.  0.
<mgrwt>
<rscale>  0 0.42220948E+03</rscale>
<asrwt>0</asrwt>
<pdfrwt beam="1">  1        2 0.41893360E+00 0.42220948E+03</pdfrwt>
<pdfrwt beam="2">  1       -2 0.21709743E-02 0.42220948E+03</pdfrwt>
<totfact> 0.20343945E+03</totfact>
</mgrwt>
</event>
<event>
 4    1  0.5812319E-005  0.5078408E+03  0.7818608E-02  0.1011752E+00
          2   -1    0    0  501    0  0.00000000000E+00  0.00000000000E+00  0.18861580185E+04  0.18861580185E+04  0.25500000000E-02 0.  1.
         -2   -1    0    0    0  501 -0.00000000000E+00 -0.00000000000E+00 -0.34183546561E+02  0.34183546656E+02  0.25500000000E-02 0. -1.
    5000001    1    1    2    0    0  0.16388175365E+03  0.12538677503E+02  0.10183895320E+04  0.10492834158E+04  0.19200000000E+03 0.  0.
   -5000001    1    1    2    0    0 -0.16388175365E+03 -0.12538677503E+02  0.83358493987E+03  0.87105814938E+03  0.19200000000E+03 0.  0.
<mgrwt>
<rscale>  0 0.50784080E+03</rscale>
<asrwt>0</asrwt>
<pdfrwt beam="1">  1        2 0.26945113E+00 0.50784080E+03</pdfrwt>
<pdfrwt beam="2">  1       -2 0.48833640E-02 0.50784080E+03</pdfrwt>
<totfact> 0.20180606E+03</totfact>
</mgrwt>
</event>
<event>
 4    1  0.5812319E-005  0.7872867E+03  0.7818608E-02  0.9578604E-01
          2   -1    0    0  501    0  0.00000000000E+00  0.00000000000E+00  0.31607185005E+03  0.31607185006E+03  0.25500000000E-02 0.  1.
         -2   -1    0    0    0  501 -0.00000000000E+00 -0.00000000000E+00 -0.49025269134E+03  0.49025269134E+03  0.25500000000E-02 0. -1.
    5000001    1    1    2    0    0 -0.13495782611E+03  0.23072479495E+03 -0.30828408441E+03  0.45094414570E+03  0.19200000000E+03 0.  0.
   -5000001    1    1    2    0    0  0.13495782611E+03 -0.23072479495E+03  0.13410324312E+03  0.35538039570E+03  0.19200000000E+03 0.  0.
<mgrwt>
<rscale>  0 0.78728667E+03</rscale>
<asrwt>0</asrwt>
<pdfrwt beam="1">  1        2 0.45153121E-01 0.78728667E+03</pdfrwt>
<pdfrwt beam="2">  1       -2 0.70036099E-01 0.78728667E+03</pdfrwt>
<totfact> 0.21052577E+02</totfact>
</mgrwt>
</event>
<event>
 4    1  0.5812319E-005  0.5169741E+03  0.7818608E-02  0.1009441E+00
         -2   -1    0    0    0  501 -0.00000000000E+00  0.00000000000E+00  0.46006631918E+03  0.46006631919E+03  0.25500000000E-02 0. -1.
          2   -1    0    0  501    0  0.00000000000E+00 -0.00000000000E+00 -0.14523028966E+03  0.14523028968E+03  0.25500000000E-02 0.  1.
    5000001    1    1    2    0    0 -0.12550421015E+03  0.91079067217E+02  0.24738937429E+03  0.34944556910E+03  0.19200000000E+03 0.  0.
   -5000001    1    1    2    0    0  0.12550421015E+03 -0.91079067217E+02  0.67446655234E+02  0.25585103977E+03  0.19200000000E+03 0.  0.
<mgrwt>
<rscale>  0 0.51697414E+03</rscale>
<asrwt>0</asrwt>
<pdfrwt beam="1">  1        2 0.20747184E-01 0.51697414E+03</pdfrwt>
<pdfrwt beam="2">  1       -2 0.65723759E-01 0.51697414E+03</pdfrwt>
<totfact> 0.58445697E+02</totfact>
</mgrwt>
</event>
<event>
 4    1  0.5812319E-005  0.5304284E+03  0.7818608E-02  0.1006128E+00
         -2   -1    0    0    0  501 -0.00000000000E+00  0.00000000000E+00  0.42628983675E+02  0.42628983751E+02  0.25500000000E-02 0. -1.
          2   -1    0    0  501    0  0.00000000000E+00 -0.00000000000E+00 -0.16500178452E+04  0.16500178452E+04  0.25500000000E-02 0.  1.
    5000001    1    1    2    0    0 -0.80488760169E+02  0.99152469323E+02 -0.12217755733E+04  0.12433459712E+04  0.19200000000E+03 0.  0.
   -5000001    1    1    2    0    0  0.80488760169E+02 -0.99152469323E+02 -0.38561328823E+03  0.44930085772E+03  0.19200000000E+03 0.  0.
<mgrwt>
<rscale>  0 0.53042845E+03</rscale>
<asrwt>0</asrwt>
<pdfrwt beam="1">  1        2 0.23571679E+00 0.53042845E+03</pdfrwt>
<pdfrwt beam="2">  1       -2 0.60898559E-02 0.53042845E+03</pdfrwt>
<totfact> 0.18820634E+03</totfact>
</mgrwt>
</event>
<event>
 4    1  0.5812319E-005  0.1839413E+04  0.7818608E-02  0.8685616E-01
          2   -1    0    0  501    0  0.00000000000E+00  0.00000000000E+00  0.19256425617E+04  0.19256425617E+04  0.25500000000E-02 0.  1.
         -2   -1    0    0    0  501 -0.00000000000E+00 -0.00000000000E+00 -0.43926134809E+03  0.43926134810E+03  0.25500000000E-02 0. -1.
    5000001    1    1    2    0    0 -0.74816490656E+03 -0.31760285986E+03  0.12384276668E+04  0.14937166364E+04  0.19200000000E+03 0.  0.
   -5000001    1    1    2    0    0  0.74816490656E+03  0.31760285986E+03  0.24795354684E+03  0.87118727343E+03  0.19200000000E+03 0.  0.
<mgrwt>
<rscale>  0 0.18394133E+04</rscale>
<asrwt>0</asrwt>
<pdfrwt beam="1">  1        2 0.27509179E+00 0.18394133E+04</pdfrwt>
<pdfrwt beam="2">  1       -2 0.62751622E-01 0.18394133E+04</pdfrwt>
<totfact> 0.19475240E+01</totfact>
</mgrwt>
</event>
<event>
 4    1  0.5812319E-005  0.4926173E+03  0.7818608E-02  0.1015724E+00
          2   -1    0    0  501    0  0.00000000000E+00  0.00000000000E+00  0.32237437257E+03  0.32237437258E+03  0.25500000000E-02 0.  1.
         -2   -1    0    0    0  501 -0.00000000000E+00 -0.00000000000E+00 -0.18819100779E+03  0.18819100781E+03  0.25500000000E-02 0. -1.
    5000001    1    1    2    0    0  0.14518508288E+03  0.41612256289E+02  0.34420658380E+02  0.24669631105E+03  0.19200000000E+03 0.  0.
   -5000001    1    1    2    0    0 -0.14518508288E+03 -0.41612256289E+02  0.99762706400E+02  0.26386906934E+03  0.19200000000E+03 0.  0.
<mgrwt>
<rscale>  0 0.49261733E+03</rscale>
<asrwt>0</asrwt>
<pdfrwt beam="1">  1        2 0.46053482E-01 0.49261733E+03</pdfrwt>
<pdfrwt beam="2">  1       -2 0.26884430E-01 0.49261733E+03</pdfrwt>
<totfact> 0.13784895E+03</totfact>
</mgrwt>
</event>
<event>
 4    1  0.5812319E-005  0.5074070E+03  0.7818608E-02  0.1011863E+00
          2   -1    0    0  501    0  0.00000000000E+00  0.00000000000E+00  0.42016700851E+02  0.42016700929E+02  0.25500000000E-02 0.  1.
         -2   -1    0    0    0  501 -0.00000000000E+00 -0.00000000000E+00 -0.15319020313E+04  0.15319020313E+04  0.25500000000E-02 0. -1.
    5000001    1    1    2    0    0  0.14128442187E+03  0.60688846975E+02 -0.93758565754E+03  0.96931691888E+03  0.19200000000E+03 0.  0.
   -5000001    1    1    2    0    0 -0.14128442187E+03 -0.60688846975E+02 -0.55229967295E+03  0.60460181339E+03  0.19200000000E+03 0.  0.
<mgrwt>
<rscale>  0 0.50740701E+03</rscale>
<asrwt>0</asrwt>
<pdfrwt beam="1">  1        2 0.60023868E-02 0.50740701E+03</pdfrwt>
<pdfrwt beam="2">  1       -2 0.21884311E+00 0.50740701E+03</pdfrwt>
<totfact> 0.13450076E+02</totfact>
</mgrwt>
</event>
<event>
 4    1  0.5812319E-005  0.6805139E+03  0.7818608E-02  0.9751149E-01
         -2   -1    0    0    0  501 -0.00000000000E+00  0.00000000000E+00  0.58042436474E+02  0.58042436530E+02  0.25500000000E-02 0.  1.
          2   -1    0    0  501    0  0.00000000000E+00 -0.00000000000E+00 -0.19946575002E+04  0.19946575002E+04  0.25500000000E-02 0. -1.
    5000001    1    1    2    0    0  0.18969281017E+03  0.17305416540E+03 -0.62465432874E+03  0.70213113932E+03  0.19200000000E+03 0.  0.
   -5000001    1    1    2    0    0 -0.18969281017E+03 -0.17305416540E+03 -0.13119607350E+04  0.13505687974E+04  0.19200000000E+03 0.  0.
<mgrwt>
<rscale>  0 0.68051387E+03</rscale>
<asrwt>0</asrwt>
<pdfrwt beam="1">  1        2 0.28495103E+00 0.68051387E+03</pdfrwt>
<pdfrwt beam="2">  1       -2 0.82917779E-02 0.68051387E+03</pdfrwt>
<totfact> 0.76800487E+02</totfact>
</mgrwt>
</event>
<event>
 4    1  0.5812319E-005  0.6869861E+03  0.7818608E-02  0.9739750E-01
          2   -1    0    0  501    0  0.00000000000E+00  0.00000000000E+00  0.11755526151E+04  0.11755526151E+04  0.25500000000E-02 0.  1.
         -2   -1    0    0    0  501 -0.00000000000E+00 -0.00000000000E+00 -0.10036765800E+03  0.10036765803E+03  0.25500000000E-02 0. -1.
    5000001    1    1    2    0    0 -0.15797553835E+03  0.23305894994E+03  0.45769267074E+03  0.57063063860E+03  0.19200000000E+03 0.  0.
   -5000001    1    1    2    0    0  0.15797553835E+03 -0.23305894994E+03  0.61749228633E+03  0.70528963450E+03  0.19200000000E+03 0.  0.
<mgrwt>
<rscale>  0 0.68698606E+03</rscale>
<asrwt>0</asrwt>
<pdfrwt beam="1">  1        2 0.16793608E+00 0.68698606E+03</pdfrwt>
<pdfrwt beam="2">  1       -2 0.14338238E-01 0.68698606E+03</pdfrwt>
<totfact> 0.83998075E+02</totfact>
</mgrwt>
</event>
<event>
 4    1  0.5812319E-005  0.7510129E+03  0.7818608E-02  0.9633763E-01
          2   -1    0    0  501    0  0.00000000000E+00  0.00000000000E+00  0.60854323117E+03  0.60854323117E+03  0.25500000000E-02 0.  1.
         -2   -1    0    0    0  501 -0.00000000000E+00 -0.00000000000E+00 -0.23170922699E+03  0.23170922701E+03  0.25500000000E-02 0. -1.
    5000001    1    1    2    0    0  0.18619585483E+03  0.15280767827E+03 -0.51862361967E+02  0.31236643143E+03  0.19200000000E+03 0.  0.
   -5000001    1    1    2    0    0 -0.18619585483E+03 -0.15280767827E+03  0.42869636615E+03  0.52788602675E+03  0.19200000000E+03 0.  0.
<mgrwt>
<rscale>  0 0.75101287E+03</rscale>
<asrwt>0</asrwt>
<pdfrwt beam="1">  1        2 0.86934746E-01 0.75101287E+03</pdfrwt>
<pdfrwt beam="2">  1       -2 0.33101318E-01 0.75101287E+03</pdfrwt>
<totfact> 0.45658589E+02</totfact>
</mgrwt>
</event>
<event>
 4    1  0.5812319E-005  0.5004580E+03  0.7818608E-02  0.1013659E+00
         -2   -1    0    0    0  501 -0.00000000000E+00  0.00000000000E+00  0.11422364791E+04  0.11422364791E+04  0.25500000000E-02 0. -1.
          2   -1    0    0  501    0  0.00000000000E+00 -0.00000000000E+00 -0.54817503615E+02  0.54817503674E+02  0.25500000000E-02 0.  1.
    5000001    1    1    2    0    0  0.92487326247E+02 -0.11642492350E+03  0.68805695109E+03  0.72965405246E+03  0.19200000000E+03 0.  0.
   -5000001    1    1    2    0    0 -0.92487326247E+02  0.11642492350E+03  0.39936202437E+03  0.46739993030E+03  0.19200000000E+03 0.  0.
<mgrwt>
<rscale>  0 0.50045800E+03</rscale>
<asrwt>0</asrwt>
<pdfrwt beam="1">  1        2 0.78310721E-02 0.50045800E+03</pdfrwt>
<pdfrwt beam="2">  1       -2 0.16317664E+00 0.50045800E+03</pdfrwt>
<totfact> 0.22167771E+02</totfact>
</mgrwt>
</event>
<event>
 4    1  0.5812319E-005  0.5050403E+03  0.7818608E-02  0.1012472E+00
         -2   -1    0    0    0  501 -0.00000000000E+00  0.00000000000E+00  0.18635247261E+03  0.18635247263E+03  0.25500000000E-02 0. -1.
          2   -1    0    0  501    0  0.00000000000E+00 -0.00000000000E+00 -0.34218186038E+03  0.34218186039E+03  0.25500000000E-02 0.  1.
    5000001    1    1    2    0    0 -0.12436310973E+03  0.10101749967E+03 -0.41186236546E+02  0.25343840353E+03  0.19200000000E+03 0.  0.
   -5000001    1    1    2    0    0  0.12436310973E+03 -0.10101749967E+03 -0.11464315122E+03  0.27509592949E+03  0.19200000000E+03 0.  0.
<mgrwt>
<rscale>  0 0.50504034E+03</rscale>
<asrwt>0</asrwt>
<pdfrwt beam="1">  1        2 0.48883123E-01 0.50504034E+03</pdfrwt>
<pdfrwt beam="2">  1       -2 0.26621782E-01 0.50504034E+03</pdfrwt>
<totfact> 0.13143217E+03</totfact>
</mgrwt>
</event>
<event>
 4    1  0.5812319E-005  0.5351772E+03  0.7818608E-02  0.1004984E+00
          2   -1    0    0  501    0  0.00000000000E+00  0.00000000000E+00  0.22742441629E+04  0.22742441629E+04  0.25500000000E-02 0.  1.
         -2   -1    0    0    0  501 -0.00000000000E+00 -0.00000000000E+00 -0.31484597205E+02  0.31484597308E+02  0.25500000000E-02 0. -1.
    5000001    1    1    2    0    0 -0.81426016704E+02  0.16489974244E+03  0.99087597752E+03  0.10259246191E+04  0.19200000000E+03 0.  0.
   -5000001    1    1    2    0    0  0.81426016704E+02 -0.16489974244E+03  0.12518835881E+04  0.12798041411E+04  0.19200000000E+03 0.  0.
<mgrwt>
<rscale>  0 0.53517721E+03</rscale>
<asrwt>0</asrwt>
<pdfrwt beam="1">  1        2 0.32489218E+00 0.53517721E+03</pdfrwt>
<pdfrwt beam="2">  1       -2 0.44977974E-02 0.53517721E+03</pdfrwt>
<totfact> 0.14628368E+03</totfact>
</mgrwt>
</event>
<event>
 4    1  0.5812319E-005  0.4605661E+03  0.7818608E-02  0.1024617E+00
          2   -1    0    0  501    0  0.00000000000E+00  0.00000000000E+00  0.28040514122E+04  0.28040514122E+04  0.25500000000E-02 0.  1.
         -2   -1    0    0    0  501 -0.00000000000E+00 -0.00000000000E+00 -0.18912019109E+02  0.18912019281E+02  0.25500000000E-02 0. -1.
    5000001    1    1    2    0    0 -0.61221907466E+02  0.10311560191E+03  0.16515531050E+04  0.16669950834E+04  0.19200000000E+03 0.  0.
   -5000001    1    1    2    0    0  0.61221907466E+02 -0.10311560191E+03  0.11335862880E+04  0.11559683481E+04  0.19200000000E+03 0.  0.
<mgrwt>
<rscale>  0 0.46056606E+03</rscale>
<asrwt>0</asrwt>
<pdfrwt beam="1">  1        2 0.40057874E+00 0.46056606E+03</pdfrwt>
<pdfrwt beam="2">  1       -2 0.27017172E-02 0.46056606E+03</pdfrwt>
<totfact> 0.17088146E+03</totfact>
</mgrwt>
</event>
<event>
 4    1  0.5812319E-005  0.7467556E+03  0.7818608E-02  0.9640454E-01
         -2   -1    0    0    0  501 -0.00000000000E+00  0.00000000000E+00  0.73179805506E+03  0.73179805506E+03  0.25500000000E-02 0. -1.
          2   -1    0    0  501    0  0.00000000000E+00 -0.00000000000E+00 -0.19050471704E+03  0.19050471706E+03  0.25500000000E-02 0.  1.
    5000001    1    1    2    0    0 -0.65978583713E+02  0.30023400815E+03  0.38148328717E+03  0.52620065712E+03  0.19200000000E+03 0.  0.
   -5000001    1    1    2    0    0  0.65978583713E+02 -0.30023400815E+03  0.15981005085E+03  0.39610211501E+03  0.19200000000E+03 0.  0.
<mgrwt>
<rscale>  0 0.74675560E+03</rscale>
<asrwt>0</asrwt>
<pdfrwt beam="1">  1        2 0.27214960E-01 0.74675560E+03</pdfrwt>
<pdfrwt beam="2">  1       -2 0.10454258E+00 0.74675560E+03</pdfrwt>
<totfact> 0.14901635E+02</totfact>
</mgrwt>
</event>
<event>
 4    1  0.5812319E-005  0.7147002E+03  0.7818608E-02  0.9692418E-01
          2   -1    0    0  501    0  0.00000000000E+00  0.00000000000E+00  0.14656083180E+04  0.14656083180E+04  0.25500000000E-02 0.  1.
         -2   -1    0    0    0  501 -0.00000000000E+00 -0.00000000000E+00 -0.87130443505E+02  0.87130443542E+02  0.25500000000E-02 0. -1.
    5000001    1    1    2    0    0  0.26569353428E+03 -0.91563862835E+02  0.92582119405E+03  0.98640046558E+03  0.19200000000E+03 0.  0.
   -5000001    1    1    2    0    0 -0.26569353428E+03  0.91563862835E+02  0.45265668047E+03  0.56633829600E+03  0.19200000000E+03 0.  0.
<mgrwt>
<rscale>  0 0.71470022E+03</rscale>
<asrwt>0</asrwt>
<pdfrwt beam="1">  1        2 0.20937262E+00 0.71470022E+03</pdfrwt>
<pdfrwt beam="2">  1       -2 0.12447206E-01 0.71470022E+03</pdfrwt>
<totfact> 0.73815447E+02</totfact>
</mgrwt>
</event>
<event>
 4    1  0.5812319E-005  0.5806848E+03  0.7818608E-02  0.9946310E-01
          2   -1    0    0  501    0  0.00000000000E+00  0.00000000000E+00  0.41451511146E+03  0.41451511147E+03  0.25500000000E-02 0.  1.
         -2   -1    0    0    0  501 -0.00000000000E+00 -0.00000000000E+00 -0.20336702640E+03  0.20336702642E+03  0.25500000000E-02 0. -1.
    5000001    1    1    2    0    0  0.72263503639E+02 -0.14578262966E+03 -0.48476076580E+02  0.25629771569E+03  0.19200000000E+03 0.  0.
   -5000001    1    1    2    0    0 -0.72263503639E+02  0.14578262966E+03  0.25962416164E+03  0.36158442220E+03  0.19200000000E+03 0.  0.
<mgrwt>
<rscale>  0 0.58068479E+03</rscale>
<asrwt>0</asrwt>
<pdfrwt beam="1">  1        2 0.59216446E-01 0.58068479E+03</pdfrwt>
<pdfrwt beam="2">  1       -2 0.29052432E-01 0.58068479E+03</pdfrwt>
<totfact> 0.90663037E+02</totfact>
</mgrwt>
</event>
<event>
 4    1  0.5812319E-005  0.8177973E+03  0.7818608E-02  0.9534608E-01
         -2   -1    0    0    0  501 -0.00000000000E+00  0.00000000000E+00  0.74961524994E+02  0.74961525037E+02  0.25500000000E-02 0. -1.
          2   -1    0    0  501    0  0.00000000000E+00 -0.00000000000E+00 -0.22304523094E+04  0.22304523094E+04  0.25500000000E-02 0.  1.
    5000001    1    1    2    0    0 -0.19675510912E+03 -0.29373722656E+03 -0.87174272274E+03  0.96010077902E+03  0.19200000000E+03 0.  0.
   -5000001    1    1    2    0    0  0.19675510912E+03  0.29373722656E+03 -0.12837480616E+04  0.13453130554E+04  0.19200000000E+03 0.  0.
<mgrwt>
<rscale>  0 0.81779730E+03</rscale>
<asrwt>0</asrwt>
<pdfrwt beam="1">  1        2 0.31863600E+00 0.81779730E+03</pdfrwt>
<pdfrwt beam="2">  1       -2 0.10708791E-01 0.81779730E+03</pdfrwt>
<totfact> 0.38193774E+02</totfact>
</mgrwt>
</event>
<event>
 4    1  0.5812319E-005  0.8059087E+03  0.7818608E-02  0.9551504E-01
         -2   -1    0    0    0  501 -0.00000000000E+00  0.00000000000E+00  0.12806229417E+03  0.12806229420E+03  0.25500000000E-02 0. -1.
          2   -1    0    0  501    0  0.00000000000E+00 -0.00000000000E+00 -0.12679157912E+04  0.12679157912E+04  0.25500000000E-02 0.  1.
    5000001    1    1    2    0    0  0.11792754491E+03  0.29801918732E+03 -0.83139893792E+03  0.91148808869E+03  0.19200000000E+03 0.  0.
   -5000001    1    1    2    0    0 -0.11792754491E+03 -0.29801918732E+03 -0.30845455907E+03  0.48448999666E+03  0.19200000000E+03 0.  0.
<mgrwt>
<rscale>  0 0.80590869E+03</rscale>
<asrwt>0</asrwt>
<pdfrwt beam="1">  1        2 0.18113082E+00 0.80590869E+03</pdfrwt>
<pdfrwt beam="2">  1       -2 0.18294614E-01 0.80590869E+03</pdfrwt>
<totfact> 0.48971753E+02</totfact>
</mgrwt>
</event>
<event>
 4    1  0.5812319E-005  0.7646747E+03  0.7818608E-02  0.9612605E-01
         -2   -1    0    0    0  501 -0.00000000000E+00  0.00000000000E+00  0.13821930651E+03  0.13821930653E+03  0.25500000000E-02 0. -1.
          2   -1    0    0  501    0  0.00000000000E+00 -0.00000000000E+00 -0.10576079314E+04  0.10576079314E+04  0.25500000000E-02 0.  1.
    5000001    1    1    2    0    0 -0.25825953783E+03  0.20328030993E+03 -0.51601335898E+03  0.64121342775E+03  0.19200000000E+03 0.  0.
   -5000001    1    1    2    0    0  0.25825953783E+03 -0.20328030993E+03 -0.40337526589E+03  0.55461381016E+03  0.19200000000E+03 0.  0.
<mgrwt>
<rscale>  0 0.76467466E+03</rscale>
<asrwt>0</asrwt>
<pdfrwt beam="1">  1        2 0.15108684E+00 0.76467466E+03</pdfrwt>
<pdfrwt beam="2">  1       -2 0.19745616E-01 0.76467466E+03</pdfrwt>
<totfact> 0.56724528E+02</totfact>
</mgrwt>
</event>
<event>
 4    1  0.5812319E-005  0.6521623E+03  0.7818608E-02  0.9802730E-01
         -2   -1    0    0    0  501 -0.00000000000E+00  0.00000000000E+00  0.88346395886E+03  0.88346395886E+03  0.25500000000E-02 0. -1.
          2   -1    0    0  501    0  0.00000000000E+00 -0.00000000000E+00 -0.12035457569E+03  0.12035457572E+03  0.25500000000E-02 0.  1.
    5000001    1    1    2    0    0 -0.21280373848E+02 -0.24300755425E+03  0.53516351830E+03  0.61868369709E+03  0.19200000000E+03 0.  0.
   -5000001    1    1    2    0    0  0.21280373848E+02  0.24300755425E+03  0.22794586487E+03  0.38513483749E+03  0.19200000000E+03 0.  0.
<mgrwt>
<rscale>  0 0.65216234E+03</rscale>
<asrwt>0</asrwt>
<pdfrwt beam="1">  1        2 0.17193510E-01 0.65216234E+03</pdfrwt>
<pdfrwt beam="2">  1       -2 0.12620914E+00 0.65216234E+03</pdfrwt>
<totfact> 0.16116725E+02</totfact>
</mgrwt>
</event>
<event>
 4    1  0.5812319E-005  0.9398905E+03  0.7818608E-02  0.9377046E-01
          2   -1    0    0  501    0  0.00000000000E+00  0.00000000000E+00  0.82083900290E+03  0.82083900291E+03  0.25500000000E-02 0.  1.
         -2   -1    0    0    0  501 -0.00000000000E+00 -0.00000000000E+00 -0.26905220566E+03  0.26905220567E+03  0.25500000000E-02 0. -1.
    5000001    1    1    2    0    0 -0.39600133378E+03 -0.86304831064E+02  0.43872846313E+03  0.62738524415E+03  0.19200000000E+03 0.  0.
   -5000001    1    1    2    0    0  0.39600133378E+03  0.86304831064E+02  0.11305833412E+03  0.46250596443E+03  0.19200000000E+03 0.  0.
<mgrwt>
<rscale>  0 0.93989051E+03</rscale>
<asrwt>0</asrwt>
<pdfrwt beam="1">  1        2 0.11726272E+00 0.93989051E+03</pdfrwt>
<pdfrwt beam="2">  1       -2 0.38436029E-01 0.93989051E+03</pdfrwt>
<totfact> 0.23488362E+02</totfact>
</mgrwt>
</event>
<event>
 4    1  0.5812319E-005  0.7421224E+03  0.7818608E-02  0.9647791E-01
          2   -1    0    0  501    0  0.00000000000E+00  0.00000000000E+00  0.51352260828E+03  0.51352260829E+03  0.25500000000E-02 0.  1.
         -2   -1    0    0    0  501 -0.00000000000E+00 -0.00000000000E+00 -0.26812145767E+03  0.26812145768E+03  0.25500000000E-02 0. -1.
    5000001    1    1    2    0    0 -0.32008331307E+02 -0.29551450763E+03  0.24031228128E+03  0.42774682936E+03  0.19200000000E+03 0.  0.
   -5000001    1    1    2    0    0  0.32008331307E+02  0.29551450763E+03  0.50888693360E+01  0.35389723661E+03  0.19200000000E+03 0.  0.
<mgrwt>
<rscale>  0 0.74212244E+03</rscale>
<asrwt>0</asrwt>
<pdfrwt beam="1">  1        2 0.73360372E-01 0.74212244E+03</pdfrwt>
<pdfrwt beam="2">  1       -2 0.38303066E-01 0.74212244E+03</pdfrwt>
<totfact> 0.42149684E+02</totfact>
</mgrwt>
</event>
<event>
 4    1  0.5812319E-005  0.7705185E+03  0.7818608E-02  0.9603699E-01
          2   -1    0    0  501    0  0.00000000000E+00  0.00000000000E+00  0.42494550545E+03  0.42494550546E+03  0.25500000000E-02 0.  1.
         -2   -1    0    0    0  501 -0.00000000000E+00 -0.00000000000E+00 -0.34927933738E+03  0.34927933739E+03  0.25500000000E-02 0. -1.
    5000001    1    1    2    0    0 -0.22538699029E+03 -0.58340593801E+02  0.27847991509E+03  0.41063120118E+03  0.19200000000E+03 0.  0.
   -5000001    1    1    2    0    0  0.22538699029E+03  0.58340593801E+02 -0.20281374702E+03  0.36359364166E+03  0.19200000000E+03 0.  0.
<mgrwt>
<rscale>  0 0.77051849E+03</rscale>
<asrwt>0</asrwt>
<pdfrwt beam="1">  1        2 0.60706500E-01 0.77051849E+03</pdfrwt>
<pdfrwt beam="2">  1       -2 0.49897049E-01 0.77051849E+03</pdfrwt>
<totfact> 0.30917097E+02</totfact>
</mgrwt>
</event>
<event>
 4    1  0.5812319E-005  0.4609620E+03  0.7818608E-02  0.1024503E+00
          2   -1    0    0  501    0  0.00000000000E+00  0.00000000000E+00  0.37955306695E+04  0.37955306695E+04  0.25500000000E-02 0.  1.
         -2   -1    0    0    0  501 -0.00000000000E+00 -0.00000000000E+00 -0.13995798608E+02  0.13995798840E+02  0.25500000000E-02 0. -1.
    5000001    1    1    2    0    0 -0.34360211463E+02 -0.11549605443E+03  0.15462819865E+04  0.15628089917E+04  0.19200000000E+03 0.  0.
   -5000001    1    1    2    0    0  0.34360211463E+02  0.11549605443E+03  0.22352528844E+04  0.22467174766E+04  0.19200000000E+03 0.  0.
<mgrwt>
<rscale>  0 0.46096197E+03</rscale>
<asrwt>0</asrwt>
<pdfrwt beam="1">  1        2 0.54221881E+00 0.46096197E+03</pdfrwt>
<pdfrwt beam="2">  1       -2 0.19993993E-02 0.46096197E+03</pdfrwt>
<totfact> 0.72994792E+02</totfact>
</mgrwt>
</event>
<event>
 4    1  0.5812319E-005  0.5381821E+03  0.7818608E-02  0.1004267E+00
          2   -1    0    0  501    0  0.00000000000E+00  0.00000000000E+00  0.39917682213E+03  0.39917682214E+03  0.25500000000E-02 0. -1.
         -2   -1    0    0    0  501 -0.00000000000E+00 -0.00000000000E+00 -0.18139830135E+03  0.18139830137E+03  0.25500000000E-02 0.  1.
    5000001    1    1    2    0    0  0.98602948962E+02  0.12346628431E+03  0.21984822651E+03  0.33190918578E+03  0.19200000000E+03 0.  0.
   -5000001    1    1    2    0    0 -0.98602948962E+02 -0.12346628431E+03 -0.20697057302E+01  0.24866593773E+03  0.19200000000E+03 0.  0.
<mgrwt>
<rscale>  0 0.53818212E+03</rscale>
<asrwt>0</asrwt>
<pdfrwt beam="1">  1        2 0.57025259E-01 0.53818212E+03</pdfrwt>
<pdfrwt beam="2">  1       -2 0.25914044E-01 0.53818212E+03</pdfrwt>
<totfact> 0.11641220E+03</totfact>
</mgrwt>
</event>
<event>
 4    1  0.5812319E-005  0.5279837E+03  0.7818608E-02  0.1006722E+00
         -2   -1    0    0    0  501 -0.00000000000E+00  0.00000000000E+00  0.31758093112E+03  0.31758093113E+03  0.25500000000E-02 0. -1.
          2   -1    0    0  501    0  0.00000000000E+00 -0.00000000000E+00 -0.21944550252E+03  0.21944550253E+03  0.25500000000E-02 0.  1.
    5000001    1    1    2    0    0  0.94098488939E+02 -0.15268474312E+03  0.22926354796E+02  0.26373618285E+03  0.19200000000E+03 0.  0.
   -5000001    1    1    2    0    0 -0.94098488939E+02  0.15268474312E+03  0.75209073808E+02  0.27329025081E+03  0.19200000000E+03 0.  0.
<mgrwt>
<rscale>  0 0.52798374E+03</rscale>
<asrwt>0</asrwt>
<pdfrwt beam="1">  1        2 0.31349358E-01 0.52798374E+03</pdfrwt>
<pdfrwt beam="2">  1       -2 0.45368704E-01 0.52798374E+03</pdfrwt>
<totfact> 0.78362290E+02</totfact>
</mgrwt>
</event>
<event>
 4    1  0.5812319E-005  0.5733295E+03  0.7818608E-02  0.9962338E-01
          2   -1    0    0  501    0  0.00000000000E+00  0.00000000000E+00  0.13212431387E+04  0.13212431387E+04  0.25500000000E-02 0.  1.
         -2   -1    0    0    0  501 -0.00000000000E+00 -0.00000000000E+00 -0.62196478339E+02  0.62196478391E+02  0.25500000000E-02 0. -1.
    5000001    1    1    2    0    0 -0.16911221119E+03  0.12757472960E+03  0.68004764979E+03  0.73770119804E+03  0.19200000000E+03 0.  0.
   -5000001    1    1    2    0    0  0.16911221119E+03 -0.12757472960E+03  0.57899901060E+03  0.64573841909E+03  0.19200000000E+03 0.  0.
<mgrwt>
<rscale>  0 0.57332947E+03</rscale>
<asrwt>0</asrwt>
<pdfrwt beam="1">  1        2 0.18874901E+00 0.57332947E+03</pdfrwt>
<pdfrwt beam="2">  1       -2 0.88852118E-02 0.57332947E+03</pdfrwt>
<totfact> 0.15348609E+03</totfact>
</mgrwt>
</event>
<event>
 4    1  0.5812319E-005  0.6036813E+03  0.7818608E-02  0.9897798E-01
          2   -1    0    0  501    0  0.00000000000E+00  0.00000000000E+00  0.12006458068E+04  0.12006458068E+04  0.25500000000E-02 0.  1.
         -2   -1    0    0    0  501 -0.00000000000E+00 -0.00000000000E+00 -0.75882318362E+02  0.75882318405E+02  0.25500000000E-02 0. -1.
    5000001    1    1    2    0    0  0.20119030679E+03  0.10297688026E+03  0.44347561006E+03  0.53349451181E+03  0.19200000000E+03 0.  0.
   -5000001    1    1    2    0    0 -0.20119030679E+03 -0.10297688026E+03  0.68128787842E+03  0.74303361343E+03  0.19200000000E+03 0.  0.
<mgrwt>
<rscale>  0 0.60368133E+03</rscale>
<asrwt>0</asrwt>
<pdfrwt beam="1">  1        2 0.17152082E+00 0.60368133E+03</pdfrwt>
<pdfrwt beam="2">  1       -2 0.10840332E-01 0.60368133E+03</pdfrwt>
<totfact> 0.12949765E+03</totfact>
</mgrwt>
</event>
<event>
 4    1  0.5812319E-005  0.4142937E+03  0.7818608E-02  0.1038940E+00
         -2   -1    0    0    0  501 -0.00000000000E+00  0.00000000000E+00  0.17428884414E+03  0.17428884416E+03  0.25500000000E-02 0. -1.
          2   -1    0    0  501    0  0.00000000000E+00 -0.00000000000E+00 -0.24619948211E+03  0.24619948212E+03  0.25500000000E-02 0.  1.
    5000001    1    1    2    0    0 -0.46423718742E+02  0.62138399575E+02 -0.41466126902E+02  0.21118660479E+03  0.19200000000E+03 0.  0.
   -5000001    1    1    2    0    0  0.46423718742E+02 -0.62138399575E+02 -0.30444511071E+02  0.20930172149E+03  0.19200000000E+03 0.  0.
<mgrwt>
<rscale>  0 0.41429373E+03</rscale>
<asrwt>0</asrwt>
<pdfrwt beam="1">  1        2 0.35171355E-01 0.41429373E+03</pdfrwt>
<pdfrwt beam="2">  1       -2 0.24898406E-01 0.41429373E+03</pdfrwt>
<totfact> 0.21231547E+03</totfact>
</mgrwt>
</event>
<event>
 4    1  0.5812319E-005  0.5254070E+03  0.7818608E-02  0.1007352E+00
         -2   -1    0    0    0  501 -0.00000000000E+00  0.00000000000E+00  0.66387739073E+02  0.66387739122E+02  0.25500000000E-02 0. -1.
          2   -1    0    0  501    0  0.00000000000E+00 -0.00000000000E+00 -0.10395464385E+04  0.10395464385E+04  0.25500000000E-02 0.  1.
    5000001    1    1    2    0    0 -0.13393341027E+03  0.85485292993E+02 -0.66146734939E+03  0.70685850636E+03  0.19200000000E+03 0.  0.
   -5000001    1    1    2    0    0  0.13393341027E+03 -0.85485292993E+02 -0.31169135003E+03  0.39907567125E+03  0.19200000000E+03 0.  0.
<mgrwt>
<rscale>  0 0.52540703E+03</rscale>
<asrwt>0</asrwt>
<pdfrwt beam="1">  1        2 0.14850662E+00 0.52540703E+03</pdfrwt>
<pdfrwt beam="2">  1       -2 0.94839633E-02 0.52540703E+03</pdfrwt>
<totfact> 0.19943711E+03</totfact>
</mgrwt>
</event>
<event>
 4    1  0.5812319E-005  0.9536244E+03  0.7818608E-02  0.9360924E-01
          2   -1    0    0  501    0  0.00000000000E+00  0.00000000000E+00  0.21607784396E+04  0.21607784396E+04  0.25500000000E-02 0.  1.
         -2   -1    0    0    0  501 -0.00000000000E+00 -0.00000000000E+00 -0.10521665998E+03  0.10521666001E+03  0.25500000000E-02 0. -1.
    5000001    1    1    2    0    0 -0.35810326189E+03 -0.19382048077E+03  0.14010894487E+04  0.14716385317E+04  0.19200000000E+03 0.  0.
   -5000001    1    1    2    0    0  0.35810326189E+03  0.19382048077E+03  0.65447233102E+03  0.79435656793E+03  0.19200000000E+03 0.  0.
<mgrwt>
<rscale>  0 0.95362443E+03</rscale>
<asrwt>0</asrwt>
<pdfrwt beam="1">  1        2 0.30868262E+00 0.95362443E+03</pdfrwt>
<pdfrwt beam="2">  1       -2 0.15030952E-01 0.95362443E+03</pdfrwt>
<totfact> 0.23325303E+02</totfact>
</mgrwt>
</event>
<event>
 4    1  0.5812319E-005  0.6842697E+03  0.7818608E-02  0.9744518E-01
          2   -1    0    0  501    0  0.00000000000E+00  0.00000000000E+00  0.34147129566E+03  0.34147129567E+03  0.25500000000E-02 0.  1.
         -2   -1    0    0    0  501 -0.00000000000E+00 -0.00000000000E+00 -0.34279972990E+03  0.34279972991E+03  0.25500000000E-02 0. -1.
    5000001    1    1    2    0    0 -0.18242607532E+03  0.13249911182E+03  0.17067489396E+03  0.34180287742E+03  0.19200000000E+03 0.  0.
   -5000001    1    1    2    0    0  0.18242607532E+03 -0.13249911182E+03 -0.17200332820E+03  0.34246814815E+03  0.19200000000E+03 0.  0.
<mgrwt>
<rscale>  0 0.68426974E+03</rscale>
<asrwt>0</asrwt>
<pdfrwt beam="1">  1        2 0.48781614E-01 0.68426974E+03</pdfrwt>
<pdfrwt beam="2">  1       -2 0.48971390E-01 0.68426974E+03</pdfrwt>
<totfact> 0.41084849E+02</totfact>
</mgrwt>
</event>
<event>
 4    1  0.5812319E-005  0.7232749E+03  0.7818608E-02  0.9678237E-01
          2   -1    0    0  501    0  0.00000000000E+00  0.00000000000E+00  0.14812806289E+04  0.14812806290E+04  0.25500000000E-02 0.  1.
         -2   -1    0    0    0  501 -0.00000000000E+00 -0.00000000000E+00 -0.88289583853E+02  0.88289583890E+02  0.25500000000E-02 0. -1.
    5000001    1    1    2    0    0  0.47844617711E+02 -0.30169037491E+03  0.64283417503E+03  0.73716074661E+03  0.19200000000E+03 0.  0.
   -5000001    1    1    2    0    0 -0.47844617711E+02  0.30169037491E+03  0.75015687006E+03  0.83240946623E+03  0.19200000000E+03 0.  0.
<mgrwt>
<rscale>  0 0.72327491E+03</rscale>
<asrwt>0</asrwt>
<pdfrwt beam="1">  1        2 0.21161149E+00 0.72327491E+03</pdfrwt>
<pdfrwt beam="2">  1       -2 0.12612799E-01 0.72327491E+03</pdfrwt>
<totfact> 0.70826917E+02</totfact>
</mgrwt>
</event>
<event>
 4    1  0.5812319E-005  0.4661238E+03  0.7818608E-02  0.1023020E+00
         -2   -1    0    0    0  501 -0.00000000000E+00  0.00000000000E+00  0.23432401346E+02  0.23432401485E+02  0.25500000000E-02 0. -1.
          2   -1    0    0  501    0  0.00000000000E+00 -0.00000000000E+00 -0.23180656754E+04  0.23180656754E+04  0.25500000000E-02 0.  1.
    5000001    1    1    2    0    0 -0.74059855072E+02 -0.97542624299E+02 -0.89844983974E+03  0.92686328021E+03  0.19200000000E+03 0.  0.
   -5000001    1    1    2    0    0  0.74059855072E+02  0.97542624299E+02 -0.13961834343E+04  0.14146347967E+04  0.19200000000E+03 0.  0.
<mgrwt>
<rscale>  0 0.46612378E+03</rscale>
<asrwt>0</asrwt>
<pdfrwt beam="1">  1        2 0.33115209E+00 0.46612378E+03</pdfrwt>
<pdfrwt beam="2">  1       -2 0.33474874E-02 0.46612378E+03</pdfrwt>
<totfact> 0.21919665E+03</totfact>
</mgrwt>
</event>
<event>
 4    1  0.5812319E-005  0.6385212E+03  0.7818608E-02  0.9828560E-01
          2   -1    0    0  501    0  0.00000000000E+00  0.00000000000E+00  0.11198370882E+03  0.11198370885E+03  0.25500000000E-02 0.  1.
         -2   -1    0    0    0  501 -0.00000000000E+00 -0.00000000000E+00 -0.91019770833E+03  0.91019770834E+03  0.25500000000E-02 0. -1.
    5000001    1    1    2    0    0  0.21407537140E+03  0.12126203722E+03 -0.29135407666E+03  0.42694723831E+03  0.19200000000E+03 0.  0.
   -5000001    1    1    2    0    0 -0.21407537140E+03 -0.12126203722E+03 -0.50685992285E+03  0.59523417888E+03  0.19200000000E+03 0.  0.
<mgrwt>
<rscale>  0 0.63852115E+03</rscale>
<asrwt>0</asrwt>
<pdfrwt beam="1">  1        2 0.15997673E-01 0.63852115E+03</pdfrwt>
<pdfrwt beam="2">  1       -2 0.13002824E+00 0.63852115E+03</pdfrwt>
<totfact> 0.16312561E+02</totfact>
</mgrwt>
</event>
<event>
 4    1  0.5812319E-005  0.1303434E+04  0.7818608E-02  0.9026847E-01
          2   -1    0    0  501    0  0.00000000000E+00  0.00000000000E+00  0.26717322427E+04  0.26717322427E+04  0.25500000000E-02 0.  1.
         -2   -1    0    0    0  501 -0.00000000000E+00 -0.00000000000E+00 -0.15897354308E+03  0.15897354310E+03  0.25500000000E-02 0. -1.
    5000001    1    1    2    0    0 -0.59097141494E+03 -0.14033977391E+03  0.15551661225E+04  0.16805797018E+04  0.19200000000E+03 0.  0.
   -5000001    1    1    2    0    0  0.59097141494E+03  0.14033977391E+03  0.95759257709E+03  0.11501260840E+04  0.19200000000E+03 0.  0.
<mgrwt>
<rscale>  0 0.13034335E+04</rscale>
<asrwt>0</asrwt>
<pdfrwt beam="1">  1        2 0.38167602E+00 0.13034335E+04</pdfrwt>
<pdfrwt beam="2">  1       -2 0.22710507E-01 0.13034335E+04</pdfrwt>
<totfact> 0.60008394E+01</totfact>
</mgrwt>
</event>
<event>
 4    1  0.5812319E-005  0.8741418E+03  0.7818608E-02  0.9458495E-01
         -2   -1    0    0    0  501 -0.00000000000E+00  0.00000000000E+00  0.97875584136E+02  0.97875584169E+02  0.25500000000E-02 0. -1.
          2   -1    0    0  501    0  0.00000000000E+00 -0.00000000000E+00 -0.19517737113E+04  0.19517737113E+04  0.25500000000E-02 0.  1.
    5000001    1    1    2    0    0 -0.21602098838E+03  0.30107255013E+03 -0.62251661810E+03  0.74946693568E+03  0.19200000000E+03 0.  0.
   -5000001    1    1    2    0    0  0.21602098838E+03 -0.30107255013E+03 -0.12313815091E+04  0.13001823598E+04  0.19200000000E+03 0.  0.
<mgrwt>
<rscale>  0 0.87414185E+03</rscale>
<asrwt>0</asrwt>
<pdfrwt beam="1">  1        2 0.27882479E+00 0.87414185E+03</pdfrwt>
<pdfrwt beam="2">  1       -2 0.13982227E-01 0.87414185E+03</pdfrwt>
<totfact> 0.33858429E+02</totfact>
</mgrwt>
</event>
<event>
 4    1  0.5812319E-005  0.1105456E+04  0.7818608E-02  0.9199890E-01
          2   -1    0    0  501    0  0.00000000000E+00  0.00000000000E+00  0.50521916276E+03  0.50521916277E+03  0.25500000000E-02 0.  1.
         -2   -1    0    0    0  501 -0.00000000000E+00 -0.00000000000E+00 -0.60470425135E+03  0.60470425136E+03  0.25500000000E-02 0. -1.
    5000001    1    1    2    0    0  0.51511239954E+03 -0.21927331215E+02  0.36001569024E+01  0.55018047325E+03  0.19200000000E+03 0.  0.
   -5000001    1    1    2    0    0 -0.51511239954E+03  0.21927331215E+02 -0.10308524550E+03  0.55974294087E+03  0.19200000000E+03 0.  0.
<mgrwt>
<rscale>  0 0.11054559E+04</rscale>
<asrwt>0</asrwt>
<pdfrwt beam="1">  1        2 0.72174167E-01 0.11054559E+04</pdfrwt>
<pdfrwt beam="2">  1       -2 0.86386321E-01 0.11054559E+04</pdfrwt>
<totfact> 0.76555080E+01</totfact>
</mgrwt>
</event>
<event>
 4    1  0.5812319E-005  0.6442647E+03  0.7818608E-02  0.9817601E-01
          2   -1    0    0  501    0  0.00000000000E+00  0.00000000000E+00  0.20064132880E+04  0.20064132880E+04  0.25500000000E-02 0.  1.
         -2   -1    0    0    0  501 -0.00000000000E+00 -0.00000000000E+00 -0.51718778181E+02  0.51718778244E+02  0.25500000000E-02 0. -1.
    5000001    1    1    2    0    0  0.28186600649E+02  0.22404098328E+03  0.13803716194E+04  0.14118352079E+04  0.19200000000E+03 0.  0.
   -5000001    1    1    2    0    0 -0.28186600649E+02 -0.22404098328E+03  0.57432289050E+03  0.64629685842E+03  0.19200000000E+03 0.  0.
<mgrwt>
<rscale>  0 0.64426468E+03</rscale>
<asrwt>0</asrwt>
<pdfrwt beam="1">  1        2 0.28663050E+00 0.64426468E+03</pdfrwt>
<pdfrwt beam="2">  1       -2 0.73883961E-02 0.64426468E+03</pdfrwt>
<totfact> 0.91257233E+02</totfact>
</mgrwt>
</event>
<event>
 4    1  0.5812319E-005  0.9809095E+03  0.7818608E-02  0.9329734E-01
          2   -1    0    0  501    0  0.00000000000E+00  0.00000000000E+00  0.51284614395E+03  0.51284614395E+03  0.25500000000E-02 0.  1.
         -2   -1    0    0    0  501 -0.00000000000E+00 -0.00000000000E+00 -0.46904102495E+03  0.46904102496E+03  0.25500000000E-02 0. -1.
    5000001    1    1    2    0    0 -0.32132162097E+03  0.10399799714E+03 -0.27775965140E+03  0.47757469725E+03  0.19200000000E+03 0.  0.
   -5000001    1    1    2    0    0  0.32132162097E+03 -0.10399799714E+03  0.32156477040E+03  0.50431247166E+03  0.19200000000E+03 0.  0.
<mgrwt>
<rscale>  0 0.98090954E+03</rscale>
<asrwt>0</asrwt>
<pdfrwt beam="1">  1        2 0.73263735E-01 0.98090954E+03</pdfrwt>
<pdfrwt beam="2">  1       -2 0.67005861E-01 0.98090954E+03</pdfrwt>
<totfact> 0.13334113E+02</totfact>
</mgrwt>
</event>
<event>
 4    1  0.5812319E-005  0.5117286E+03  0.7818608E-02  0.1010762E+00
         -2   -1    0    0    0  501 -0.00000000000E+00  0.00000000000E+00  0.11804015129E+03  0.11804015132E+03  0.25500000000E-02 0. -1.
          2   -1    0    0  501    0  0.00000000000E+00 -0.00000000000E+00 -0.55461248089E+03  0.55461248090E+03  0.25500000000E-02 0.  1.
    5000001    1    1    2    0    0 -0.13772045875E+03 -0.72793681976E+02 -0.13172349245E+03  0.28014446872E+03  0.19200000000E+03 0.  0.
   -5000001    1    1    2    0    0  0.13772045875E+03  0.72793681976E+02 -0.30484883715E+03  0.39250816349E+03  0.19200000000E+03 0.  0.
<mgrwt>
<rscale>  0 0.51172860E+03</rscale>
<asrwt>0</asrwt>
<pdfrwt beam="1">  1        2 0.79230353E-01 0.51172860E+03</pdfrwt>
<pdfrwt beam="2">  1       -2 0.16862879E-01 0.51172860E+03</pdfrwt>
<totfact> 0.17035521E+03</totfact>
</mgrwt>
</event>
<event>
 4    1  0.5812319E-005  0.7526623E+03  0.7818608E-02  0.9631183E-01
         -2   -1    0    0    0  501 -0.00000000000E+00  0.00000000000E+00  0.24719062817E+03  0.24719062819E+03  0.25500000000E-02 0. -1.
          2   -1    0    0  501    0  0.00000000000E+00 -0.00000000000E+00 -0.57293891238E+03  0.57293891239E+03  0.25500000000E-02 0.  1.
    5000001    1    1    2    0    0 -0.77780850384E+02 -0.30979506737E+03 -0.21989341036E+03  0.43271232519E+03  0.19200000000E+03 0.  0.
   -5000001    1    1    2    0    0  0.77780850384E+02  0.30979506737E+03 -0.10585487385E+03  0.38741721538E+03  0.19200000000E+03 0.  0.
<mgrwt>
<rscale>  0 0.75266229E+03</rscale>
<asrwt>0</asrwt>
<pdfrwt beam="1">  1        2 0.81848416E-01 0.75266229E+03</pdfrwt>
<pdfrwt beam="2">  1       -2 0.35312947E-01 0.75266229E+03</pdfrwt>
<totfact> 0.43369482E+02</totfact>
</mgrwt>
</event>
<event>
 4    1  0.5812319E-005  0.4243440E+03  0.7818608E-02  0.1035662E+00
          2   -1    0    0  501    0  0.00000000000E+00  0.00000000000E+00  0.39017619038E+03  0.39017619039E+03  0.25500000000E-02 0.  1.
         -2   -1    0    0    0  501 -0.00000000000E+00 -0.00000000000E+00 -0.11537596681E+03  0.11537596684E+03  0.25500000000E-02 0. -1.
    5000001    1    1    2    0    0 -0.61793527979E+02 -0.47014562583E+02  0.19230867708E+03  0.28262242741E+03  0.19200000000E+03 0.  0.
   -5000001    1    1    2    0    0  0.61793527979E+02  0.47014562583E+02  0.82491546494E+02  0.22292972982E+03  0.19200000000E+03 0.  0.
<mgrwt>
<rscale>  0 0.42434399E+03</rscale>
<asrwt>0</asrwt>
<pdfrwt beam="1">  1        2 0.55739456E-01 0.42434399E+03</pdfrwt>
<pdfrwt beam="2">  1       -2 0.16482281E-01 0.42434399E+03</pdfrwt>
<totfact> 0.26213868E+03</totfact>
</mgrwt>
</event>
<event>
 4    1  0.5812319E-005  0.5665026E+03  0.7818608E-02  0.9977448E-01
          2   -1    0    0  501    0  0.00000000000E+00  0.00000000000E+00  0.10132956184E+04  0.10132956184E+04  0.25500000000E-02 0.  1.
         -2   -1    0    0    0  501 -0.00000000000E+00 -0.00000000000E+00 -0.79178570445E+02  0.79178570486E+02  0.25500000000E-02 0. -1.
    5000001    1    1    2    0    0  0.18271200316E+03 -0.90044464297E+02  0.38354028187E+03  0.47482505143E+03  0.19200000000E+03 0.  0.
   -5000001    1    1    2    0    0 -0.18271200316E+03  0.90044464297E+02  0.55057676604E+03  0.61764913741E+03  0.19200000000E+03 0.  0.
<mgrwt>
<rscale>  0 0.56650260E+03</rscale>
<asrwt>0</asrwt>
<pdfrwt beam="1">  1        2 0.14475652E+00 0.56650260E+03</pdfrwt>
<pdfrwt beam="2">  1       -2 0.11311224E-01 0.56650260E+03</pdfrwt>
<totfact> 0.15530529E+03</totfact>
</mgrwt>
</event>
<event>
 4    1  0.5812319E-005  0.6657588E+03  0.7818608E-02  0.9777650E-01
          2   -1    0    0  501    0  0.00000000000E+00  0.00000000000E+00  0.12050679793E+04  0.12050679793E+04  0.25500000000E-02 0.  1.
         -2   -1    0    0    0  501 -0.00000000000E+00 -0.00000000000E+00 -0.91952223548E+02  0.91952223583E+02  0.25500000000E-02 0. -1.
    5000001    1    1    2    0    0 -0.16274966939E+03  0.16596860733E+03  0.83146338707E+03  0.88443676854E+03  0.19200000000E+03 0.  0.
   -5000001    1    1    2    0    0  0.16274966939E+03 -0.16596860733E+03  0.28165236864E+03  0.41258343431E+03  0.19200000000E+03 0.  0.
<mgrwt>
<rscale>  0 0.66575876E+03</rscale>
<asrwt>0</asrwt>
<pdfrwt beam="1">  1        2 0.17215256E+00 0.66575876E+03</pdfrwt>
<pdfrwt beam="2">  1       -2 0.13136033E-01 0.66575876E+03</pdfrwt>
<totfact> 0.93651898E+02</totfact>
</mgrwt>
</event>
<event>
 4    1  0.5812319E-005  0.4998473E+03  0.7818608E-02  0.1013819E+00
          2   -1    0    0  501    0  0.00000000000E+00  0.00000000000E+00  0.40420010001E+02  0.40420010081E+02  0.25500000000E-02 0.  1.
         -2   -1    0    0    0  501 -0.00000000000E+00 -0.00000000000E+00 -0.15453192191E+04  0.15453192191E+04  0.25500000000E-02 0. -1.
    5000001    1    1    2    0    0  0.14860139604E+03  0.23162231486E+02 -0.57929804926E+03  0.62854522013E+03  0.19200000000E+03 0.  0.
   -5000001    1    1    2    0    0 -0.14860139604E+03 -0.23162231486E+02 -0.92560115982E+03  0.95719400903E+03  0.19200000000E+03 0.  0.
<mgrwt>
<rscale>  0 0.49984725E+03</rscale>
<asrwt>0</asrwt>
<pdfrwt beam="1">  1        2 0.57742881E-02 0.49984725E+03</pdfrwt>
<pdfrwt beam="2">  1       -2 0.22075985E+00 0.49984725E+03</pdfrwt>
<totfact> 0.13784451E+02</totfact>
</mgrwt>
</event>
<event>
 4    1  0.5812319E-005  0.7801118E+03  0.7818608E-02  0.9589259E-01
          2   -1    0    0  501    0  0.00000000000E+00  0.00000000000E+00  0.86186082550E+03  0.86186082551E+03  0.25500000000E-02 0.  1.
         -2   -1    0    0    0  501 -0.00000000000E+00 -0.00000000000E+00 -0.17652918283E+03  0.17652918285E+03  0.25500000000E-02 0. -1.
    5000001    1    1    2    0    0 -0.28438360198E+03  0.58847558245E+02  0.10852264122E+03  0.36466180475E+03  0.19200000000E+03 0.  0.
   -5000001    1    1    2    0    0  0.28438360198E+03 -0.58847558245E+02  0.57680900145E+03  0.67372820361E+03  0.19200000000E+03 0.  0.
<mgrwt>
<rscale>  0 0.78011175E+03</rscale>
<asrwt>0</asrwt>
<pdfrwt beam="1">  1        2 0.12312297E+00 0.78011175E+03</pdfrwt>
<pdfrwt beam="2">  1       -2 0.25218455E-01 0.78011175E+03</pdfrwt>
<totfact> 0.48765921E+02</totfact>
</mgrwt>
</event>
<event>
 4    1  0.5812319E-005  0.5075202E+03  0.7818608E-02  0.1011834E+00
         -2   -1    0    0    0  501 -0.00000000000E+00  0.00000000000E+00  0.21397694288E+02  0.21397694440E+02  0.25500000000E-02 0. -1.
          2   -1    0    0  501    0  0.00000000000E+00 -0.00000000000E+00 -0.30093986602E+04  0.30093986602E+04  0.25500000000E-02 0.  1.
    5000001    1    1    2    0    0 -0.11713142053E+03  0.11736209920E+03 -0.15301091084E+04  0.15509969425E+04  0.19200000000E+03 0.  0.
   -5000001    1    1    2    0    0  0.11713142053E+03 -0.11736209920E+03 -0.14578918576E+04  0.14797994122E+04  0.19200000000E+03 0.  0.
<mgrwt>
<rscale>  0 0.50752022E+03</rscale>
<asrwt>0</asrwt>
<pdfrwt beam="1">  1        2 0.42991382E+00 0.50752022E+03</pdfrwt>
<pdfrwt beam="2">  1       -2 0.30568154E-02 0.50752022E+03</pdfrwt>
<totfact> 0.10975249E+03</totfact>
</mgrwt>
</event>
<event>
 4    1  0.5812319E-005  0.8031898E+03  0.7818608E-02  0.9555411E-01
          2   -1    0    0  501    0  0.00000000000E+00  0.00000000000E+00  0.56708191717E+03  0.56708191718E+03  0.25500000000E-02 0. -1.
         -2   -1    0    0    0  501 -0.00000000000E+00 -0.00000000000E+00 -0.28440068113E+03  0.28440068114E+03  0.25500000000E-02 0.  1.
    5000001    1    1    2    0    0 -0.24637974656E+03  0.23306558878E+03  0.24407956548E+03  0.45984930409E+03  0.19200000000E+03 0.  0.
   -5000001    1    1    2    0    0  0.24637974656E+03 -0.23306558878E+03  0.38601670565E+02  0.39163329424E+03  0.19200000000E+03 0.  0.
<mgrwt>
<rscale>  0 0.80318985E+03</rscale>
<asrwt>0</asrwt>
<pdfrwt beam="1">  1        2 0.81011701E-01 0.80318985E+03</pdfrwt>
<pdfrwt beam="2">  1       -2 0.40628669E-01 0.80318985E+03</pdfrwt>
<totfact> 0.33431272E+02</totfact>
</mgrwt>
</event>
<event>
 4    1  0.5812319E-005  0.4540171E+03  0.7818608E-02  0.1026531E+00
          2   -1    0    0  501    0  0.00000000000E+00  0.00000000000E+00  0.12077652833E+03  0.12077652835E+03  0.25500000000E-02 0. -1.
         -2   -1    0    0    0  501 -0.00000000000E+00 -0.00000000000E+00 -0.42667952272E+03  0.42667952273E+03  0.25500000000E-02 0.  1.
    5000001    1    1    2    0    0  0.55346523267E+02 -0.10606237295E+03 -0.17571557868E+03  0.28644795196E+03  0.19200000000E+03 0.  0.
   -5000001    1    1    2    0    0 -0.55346523267E+02  0.10606237295E+03 -0.13018741571E+03  0.26100809912E+03  0.19200000000E+03 0.  0.
<mgrwt>
<rscale>  0 0.45401705E+03</rscale>
<asrwt>0</asrwt>
<pdfrwt beam="1">  1        2 0.17253790E-01 0.45401705E+03</pdfrwt>
<pdfrwt beam="2">  1       -2 0.60954217E-01 0.45401705E+03</pdfrwt>
<totfact> 0.85105244E+02</totfact>
</mgrwt>
</event>
<event>
 4    1  0.5812319E-005  0.5965310E+03  0.7818608E-02  0.9912629E-01
          2   -1    0    0  501    0  0.00000000000E+00  0.00000000000E+00  0.30966879592E+04  0.30966879592E+04  0.25500000000E-02 0.  1.
         -2   -1    0    0    0  501 -0.00000000000E+00 -0.00000000000E+00 -0.28728214331E+02  0.28728214444E+02  0.25500000000E-02 0. -1.
    5000001    1    1    2    0    0  0.19731118927E+03  0.10208609001E+03  0.12594755480E+04  0.12932501425E+04  0.19200000000E+03 0.  0.
   -5000001    1    1    2    0    0 -0.19731118927E+03 -0.10208609001E+03  0.18084841969E+04  0.18321660311E+04  0.19200000000E+03 0.  0.
<mgrwt>
<rscale>  0 0.59653102E+03</rscale>
<asrwt>0</asrwt>
<pdfrwt beam="1">  1        2 0.44238401E+00 0.59653102E+03</pdfrwt>
<pdfrwt beam="2">  1       -2 0.41040305E-02 0.59653102E+03</pdfrwt>
<totfact> 0.62181268E+02</totfact>
</mgrwt>
</event>
<event>
 4    1  0.5812319E-005  0.9768116E+03  0.7818608E-02  0.9334349E-01
          2   -1    0    0  501    0  0.00000000000E+00  0.00000000000E+00  0.23258375912E+03  0.23258375913E+03  0.25500000000E-02 0.  1.
         -2   -1    0    0    0  501 -0.00000000000E+00 -0.00000000000E+00 -0.10256100269E+04  0.10256100269E+04  0.25500000000E-02 0. -1.
    5000001    1    1    2    0    0  0.28431759849E+03 -0.30841740561E+03 -0.18994703333E+03  0.49890045937E+03  0.19200000000E+03 0.  0.
   -5000001    1    1    2    0    0 -0.28431759849E+03  0.30841740561E+03 -0.60307923448E+03  0.75929332669E+03  0.19200000000E+03 0.  0.
<mgrwt>
<rscale>  0 0.97681162E+03</rscale>
<asrwt>0</asrwt>
<pdfrwt beam="1">  1        2 0.33226252E-01 0.97681162E+03</pdfrwt>
<pdfrwt beam="2">  1       -2 0.14651572E+00 0.97681162E+03</pdfrwt>
<totfact> 0.50537341E+01</totfact>
</mgrwt>
</event>
<event>
 4    1  0.5812319E-005  0.5795515E+03  0.7818608E-02  0.9948762E-01
          2   -1    0    0  501    0  0.00000000000E+00  0.00000000000E+00  0.67487747358E+03  0.67487747359E+03  0.25500000000E-02 0.  1.
         -2   -1    0    0    0  501 -0.00000000000E+00 -0.00000000000E+00 -0.12442256945E+03  0.12442256948E+03  0.25500000000E-02 0. -1.
    5000001    1    1    2    0    0  0.18832254678E+03  0.10769048603E+03  0.26614512465E+03  0.39339528439E+03  0.19200000000E+03 0.  0.
   -5000001    1    1    2    0    0 -0.18832254678E+03 -0.10769048603E+03  0.28430977948E+03  0.40590475867E+03  0.19200000000E+03 0.  0.
<mgrwt>
<rscale>  0 0.57955151E+03</rscale>
<asrwt>0</asrwt>
<pdfrwt beam="1">  1        2 0.96411070E-01 0.57955151E+03</pdfrwt>
<pdfrwt beam="2">  1       -2 0.17774652E-01 0.57955151E+03</pdfrwt>
<totfact> 0.12352156E+03</totfact>
</mgrwt>
</event>
<event>
 4    1  0.5812319E-005  0.4585810E+03  0.7818608E-02  0.1025194E+00
         -2   -1    0    0    0  501 -0.00000000000E+00  0.00000000000E+00  0.52078107669E+02  0.52078107731E+02  0.25500000000E-02 0. -1.
          2   -1    0    0  501    0  0.00000000000E+00 -0.00000000000E+00 -0.10095246703E+04  0.10095246703E+04  0.25500000000E-02 0.  1.
    5000001    1    1    2    0    0 -0.10189576760E+03 -0.35663633198E+02 -0.62614714075E+03  0.66376116492E+03  0.19200000000E+03 0.  0.
   -5000001    1    1    2    0    0  0.10189576760E+03  0.35663633198E+02 -0.33129942188E+03  0.39784161312E+03  0.19200000000E+03 0.  0.
<mgrwt>
<rscale>  0 0.45858100E+03</rscale>
<asrwt>0</asrwt>
<pdfrwt beam="1">  1        2 0.14421780E+00 0.45858100E+03</pdfrwt>
<pdfrwt beam="2">  1       -2 0.74397303E-02 0.45858100E+03</pdfrwt>
<totfact> 0.30593042E+03</totfact>
</mgrwt>
</event>
<event>
 4    1  0.5812319E-005  0.5020963E+03  0.7818608E-02  0.1013233E+00
          2   -1    0    0  501    0  0.00000000000E+00  0.00000000000E+00  0.77575865215E+03  0.77575865215E+03  0.25500000000E-02 0.  1.
         -2   -1    0    0    0  501 -0.00000000000E+00 -0.00000000000E+00 -0.81243268994E+02  0.81243269034E+02  0.25500000000E-02 0. -1.
    5000001    1    1    2    0    0 -0.14620323917E+03 -0.68106728017E+02  0.32654529786E+03  0.41171561192E+03  0.19200000000E+03 0.  0.
   -5000001    1    1    2    0    0  0.14620323917E+03  0.68106728017E+02  0.36797008529E+03  0.44528630926E+03  0.19200000000E+03 0.  0.
<mgrwt>
<rscale>  0 0.50209628E+03</rscale>
<asrwt>0</asrwt>
<pdfrwt beam="1">  1        2 0.11082267E+00 0.50209628E+03</pdfrwt>
<pdfrwt beam="2">  1       -2 0.11606181E-01 0.50209628E+03</pdfrwt>
<totfact> 0.21232278E+03</totfact>
</mgrwt>
</event>
<event>
 4    1  0.5812319E-005  0.4929139E+03  0.7818608E-02  0.1015645E+00
         -2   -1    0    0    0  501 -0.00000000000E+00  0.00000000000E+00  0.34933669871E+03  0.34933669872E+03  0.25500000000E-02 0. -1.
          2   -1    0    0  501    0  0.00000000000E+00 -0.00000000000E+00 -0.17387529423E+03  0.17387529425E+03  0.25500000000E-02 0.  1.
    5000001    1    1    2    0    0  0.10989864547E+03  0.10357472409E+03  0.52983481707E+02  0.24995336581E+03  0.19200000000E+03 0.  0.
   -5000001    1    1    2    0    0 -0.10989864547E+03 -0.10357472409E+03  0.12247792277E+03  0.27325862715E+03  0.19200000000E+03 0.  0.
<mgrwt>
<rscale>  0 0.49291387E+03</rscale>
<asrwt>0</asrwt>
<pdfrwt beam="1">  1        2 0.24839328E-01 0.49291387E+03</pdfrwt>
<pdfrwt beam="2">  1       -2 0.49905242E-01 0.49291387E+03</pdfrwt>
<totfact> 0.84186135E+02</totfact>
</mgrwt>
</event>
<event>
 4    1  0.5812319E-005  0.8684765E+03  0.7818608E-02  0.9465868E-01
          2   -1    0    0  501    0  0.00000000000E+00  0.00000000000E+00  0.29167363509E+03  0.29167363510E+03  0.25500000000E-02 0.  1.
         -2   -1    0    0    0  501 -0.00000000000E+00 -0.00000000000E+00 -0.64648584875E+03  0.64648584875E+03  0.25500000000E-02 0. -1.
    5000001    1    1    2    0    0 -0.23516249960E+03  0.27761642969E+03 -0.27231589772E+02  0.41228369205E+03  0.19200000000E+03 0.  0.
   -5000001    1    1    2    0    0  0.23516249960E+03 -0.27761642969E+03 -0.32758062389E+03  0.52587579180E+03  0.19200000000E+03 0.  0.
<mgrwt>
<rscale>  0 0.86847655E+03</rscale>
<asrwt>0</asrwt>
<pdfrwt beam="1">  1        2 0.41667663E-01 0.86847655E+03</pdfrwt>
<pdfrwt beam="2">  1       -2 0.92355120E-01 0.86847655E+03</pdfrwt>
<totfact> 0.12310343E+02</totfact>
</mgrwt>
</event>
<event>
 4    1  0.5812319E-005  0.6976224E+03  0.7818608E-02  0.9721307E-01
         -2   -1    0    0    0  501 -0.00000000000E+00  0.00000000000E+00  0.13509620597E+03  0.13509620600E+03  0.25500000000E-02 0. -1.
          2   -1    0    0  501    0  0.00000000000E+00 -0.00000000000E+00 -0.90061202862E+03  0.90061202863E+03  0.25500000000E-02 0.  1.
    5000001    1    1    2    0    0 -0.28596974182E+03 -0.20386921664E+02 -0.30689733747E+03  0.46178381908E+03  0.19200000000E+03 0.  0.
   -5000001    1    1    2    0    0  0.28596974182E+03  0.20386921664E+02 -0.45861848518E+03  0.57392441555E+03  0.19200000000E+03 0.  0.
<mgrwt>
<rscale>  0 0.69762244E+03</rscale>
<asrwt>0</asrwt>
<pdfrwt beam="1">  1        2 0.12865886E+00 0.69762244E+03</pdfrwt>
<pdfrwt beam="2">  1       -2 0.19299459E-01 0.69762244E+03</pdfrwt>
<totfact> 0.74064013E+02</totfact>
</mgrwt>
</event>
<event>
 4    1  0.5812319E-005  0.5453916E+03  0.7818608E-02  0.1002566E+00
          2   -1    0    0  501    0  0.00000000000E+00  0.00000000000E+00  0.15155341919E+04  0.15155341919E+04  0.25500000000E-02 0.  1.
         -2   -1    0    0    0  501 -0.00000000000E+00 -0.00000000000E+00 -0.49067192807E+02  0.49067192874E+02  0.25500000000E-02 0. -1.
    5000001    1    1    2    0    0  0.13145447868E+03 -0.12833137901E+03  0.90890384692E+03  0.94695270513E+03  0.19200000000E+03 0.  0.
   -5000001    1    1    2    0    0 -0.13145447868E+03  0.12833137901E+03  0.55756315213E+03  0.61764867960E+03  0.19200000000E+03 0.  0.
<mgrwt>
<rscale>  0 0.54539163E+03</rscale>
<asrwt>0</asrwt>
<pdfrwt beam="1">  1        2 0.21650483E+00 0.54539163E+03</pdfrwt>
<pdfrwt beam="2">  1       -2 0.70096006E-02 0.54539163E+03</pdfrwt>
<totfact> 0.17682322E+03</totfact>
</mgrwt>
</event>
<event>
 4    1  0.5812319E-005  0.7744438E+03  0.7818608E-02  0.9597764E-01
          2   -1    0    0  501    0  0.00000000000E+00  0.00000000000E+00  0.16021145006E+03  0.16021145008E+03  0.25500000000E-02 0.  1.
         -2   -1    0    0    0  501 -0.00000000000E+00 -0.00000000000E+00 -0.93589312071E+03  0.93589312071E+03  0.25500000000E-02 0. -1.
    5000001    1    1    2    0    0 -0.16972657774E+03 -0.28755950877E+03 -0.44408562113E+03  0.58785510219E+03  0.19200000000E+03 0.  0.
   -5000001    1    1    2    0    0  0.16972657774E+03  0.28755950877E+03 -0.33159604952E+03  0.50824946860E+03  0.19200000000E+03 0.  0.
<mgrwt>
<rscale>  0 0.77444378E+03</rscale>
<asrwt>0</asrwt>
<pdfrwt beam="1">  1        2 0.22887350E-01 0.77444378E+03</pdfrwt>
<pdfrwt beam="2">  1       -2 0.13369901E+00 0.77444378E+03</pdfrwt>
<totfact> 0.99027893E+01</totfact>
</mgrwt>
</event>
<event>
 4    1  0.5812319E-005  0.8986036E+03  0.7818608E-02  0.9427329E-01
          2   -1    0    0  501    0  0.00000000000E+00  0.00000000000E+00  0.17918028488E+04  0.17918028488E+04  0.25500000000E-02 0.  1.
         -2   -1    0    0    0  501 -0.00000000000E+00 -0.00000000000E+00 -0.11266424372E+03  0.11266424375E+03  0.25500000000E-02 0. -1.
    5000001    1    1    2    0    0 -0.22504098716E+03  0.22131376836E+03  0.29763831065E+03  0.47442153612E+03  0.19200000000E+03 0.  0.
   -5000001    1    1    2    0    0  0.22504098716E+03 -0.22131376836E+03  0.13815002944E+04  0.14300455564E+04  0.19200000000E+03 0.  0.
<mgrwt>
<rscale>  0 0.89860361E+03</rscale>
<asrwt>0</asrwt>
<pdfrwt beam="1">  1        2 0.25597181E+00 0.89860361E+03</pdfrwt>
<pdfrwt beam="2">  1       -2 0.16094894E-01 0.89860361E+03</pdfrwt>
<totfact> 0.32135500E+02</totfact>
</mgrwt>
</event>
<event>
 4    1  0.5812319E-005  0.4317634E+03  0.7818608E-02  0.1033304E+00
          2   -1    0    0  501    0  0.00000000000E+00  0.00000000000E+00  0.61726050012E+03  0.61726050013E+03  0.25500000000E-02 0.  1.
         -2   -1    0    0    0  501 -0.00000000000E+00 -0.00000000000E+00 -0.75502825433E+02  0.75502825476E+02  0.25500000000E-02 0. -1.
    5000001    1    1    2    0    0  0.83786553537E+01  0.80366003085E+02  0.36181316556E+03  0.41749450666E+03  0.19200000000E+03 0.  0.
   -5000001    1    1    2    0    0 -0.83786553537E+01 -0.80366003085E+02  0.17994450913E+03  0.27526881894E+03  0.19200000000E+03 0.  0.
<mgrwt>
<rscale>  0 0.43176342E+03</rscale>
<asrwt>0</asrwt>
<pdfrwt beam="1">  1        2 0.88180072E-01 0.43176342E+03</pdfrwt>
<pdfrwt beam="2">  1       -2 0.10786118E-01 0.43176342E+03</pdfrwt>
<totfact> 0.31505150E+03</totfact>
</mgrwt>
</event>
<event>
 4    1  0.5812319E-005  0.1274606E+04  0.7818608E-02  0.9049949E-01
         -2   -1    0    0    0  501 -0.00000000000E+00  0.00000000000E+00  0.94067853286E+02  0.94067853320E+02  0.25500000000E-02 0. -1.
          2   -1    0    0  501    0  0.00000000000E+00 -0.00000000000E+00 -0.43176848161E+04  0.43176848161E+04  0.25500000000E-02 0.  1.
    5000001    1    1    2    0    0 -0.41522037708E+03  0.36934052568E+03 -0.12606537933E+04  0.13910184658E+04  0.19200000000E+03 0.  0.
   -5000001    1    1    2    0    0  0.41522037708E+03 -0.36934052568E+03 -0.29629631695E+04  0.30207342037E+04  0.19200000000E+03 0.  0.
<mgrwt>
<rscale>  0 0.12746064E+04</rscale>
<asrwt>0</asrwt>
<pdfrwt beam="1">  1        2 0.61681199E+00 0.12746064E+04</pdfrwt>
<pdfrwt beam="2">  1       -2 0.13438267E-01 0.12746064E+04</pdfrwt>
<totfact> 0.14480418E+01</totfact>
</mgrwt>
</event>
<event>
 4    1  0.5812319E-005  0.4481801E+03  0.7818608E-02  0.1028266E+00
         -2   -1    0    0    0  501 -0.00000000000E+00  0.00000000000E+00  0.45925927084E+02  0.45925927154E+02  0.25500000000E-02 0. -1.
          2   -1    0    0  501    0  0.00000000000E+00 -0.00000000000E+00 -0.10934203373E+04  0.10934203373E+04  0.25500000000E-02 0.  1.
    5000001    1    1    2    0    0  0.11215295137E+03 -0.27821449887E+02 -0.52334404564E+03  0.56930247469E+03  0.19200000000E+03 0.  0.
   -5000001    1    1    2    0    0 -0.11215295137E+03  0.27821449887E+02 -0.52415036459E+03  0.57004378978E+03  0.19200000000E+03 0.  0.
<mgrwt>
<rscale>  0 0.44818007E+03</rscale>
<asrwt>0</asrwt>
<pdfrwt beam="1">  1        2 0.15620289E+00 0.44818007E+03</pdfrwt>
<pdfrwt beam="2">  1       -2 0.65608474E-02 0.44818007E+03</pdfrwt>
<totfact> 0.33260961E+03</totfact>
</mgrwt>
</event>
<event>
 4    1  0.5812319E-005  0.7546164E+03  0.7818608E-02  0.9628136E-01
         -2   -1    0    0    0  501 -0.00000000000E+00  0.00000000000E+00  0.71003110535E+03  0.71003110535E+03  0.25500000000E-02 0. -1.
          2   -1    0    0  501    0  0.00000000000E+00 -0.00000000000E+00 -0.20050035201E+03  0.20050035203E+03  0.25500000000E-02 0.  1.
    5000001    1    1    2    0    0  0.27925239470E+03  0.14071875689E+03  0.14879038328E+03  0.39596243085E+03  0.19200000000E+03 0.  0.
   -5000001    1    1    2    0    0 -0.27925239470E+03 -0.14071875689E+03  0.36074037006E+03  0.51456902654E+03  0.19200000000E+03 0.  0.
<mgrwt>
<rscale>  0 0.75461642E+03</rscale>
<asrwt>0</asrwt>
<pdfrwt beam="1">  1        2 0.28642907E-01 0.75461642E+03</pdfrwt>
<pdfrwt beam="2">  1       -2 0.10143302E+00 0.75461642E+03</pdfrwt>
<totfact> 0.15107166E+02</totfact>
</mgrwt>
</event>
<event>
 4    1  0.5812319E-005  0.4496752E+03  0.7818608E-02  0.1027819E+00
         -2   -1    0    0    0  501 -0.00000000000E+00  0.00000000000E+00  0.33232815807E+03  0.33232815808E+03  0.25500000000E-02 0. -1.
          2   -1    0    0  501    0  0.00000000000E+00 -0.00000000000E+00 -0.15211454394E+03  0.15211454396E+03  0.25500000000E-02 0.  1.
    5000001    1    1    2    0    0  0.10287509815E+03 -0.19356809768E+02  0.33817907034E+02  0.22128177227E+03  0.19200000000E+03 0.  0.
   -5000001    1    1    2    0    0 -0.10287509815E+03  0.19356809768E+02  0.14639570710E+03  0.26316092977E+03  0.19200000000E+03 0.  0.
<mgrwt>
<rscale>  0 0.44967520E+03</rscale>
<asrwt>0</asrwt>
<pdfrwt beam="1">  1        2 0.21730649E-01 0.44967520E+03</pdfrwt>
<pdfrwt beam="2">  1       -2 0.47475451E-01 0.44967520E+03</pdfrwt>
<totfact> 0.10841038E+03</totfact>
</mgrwt>
</event>
<event>
 4    1  0.5812319E-005  0.6811615E+03  0.7818608E-02  0.9750002E-01
         -2   -1    0    0    0  501 -0.00000000000E+00  0.00000000000E+00  0.60109179350E+02  0.60109179404E+02  0.25500000000E-02 0. -1.
          2   -1    0    0  501    0  0.00000000000E+00 -0.00000000000E+00 -0.19297426985E+04  0.19297426985E+04  0.25500000000E-02 0.  1.
    5000001    1    1    2    0    0 -0.31438246475E+02  0.23471884478E+03 -0.13783290408E+04  0.14116431008E+04  0.19200000000E+03 0.  0.
   -5000001    1    1    2    0    0  0.31438246475E+02 -0.23471884478E+03 -0.49130447838E+03  0.57820877710E+03  0.19200000000E+03 0.  0.
<mgrwt>
<rscale>  0 0.68116151E+03</rscale>
<asrwt>0</asrwt>
<pdfrwt beam="1">  1        2 0.27567749E+00 0.68116151E+03</pdfrwt>
<pdfrwt beam="2">  1       -2 0.85870268E-02 0.68116151E+03</pdfrwt>
<totfact> 0.78293405E+02</totfact>
</mgrwt>
</event>
<event>
 4    1  0.5812319E-005  0.6031681E+03  0.7818608E-02  0.9898855E-01
         -2   -1    0    0    0  501 -0.00000000000E+00  0.00000000000E+00  0.20814397026E+03  0.20814397027E+03  0.25500000000E-02 0. -1.
          2   -1    0    0  501    0  0.00000000000E+00 -0.00000000000E+00 -0.43697128547E+03  0.43697128548E+03  0.25500000000E-02 0.  1.
    5000001    1    1    2    0    0 -0.15396016943E+03 -0.16171540275E+03 -0.18400258871E+03  0.34724135397E+03  0.19200000000E+03 0.  0.
   -5000001    1    1    2    0    0  0.15396016943E+03  0.16171540275E+03 -0.44824726504E+02  0.29787390178E+03  0.19200000000E+03 0.  0.
<mgrwt>
<rscale>  0 0.60316810E+03</rscale>
<asrwt>0</asrwt>
<pdfrwt beam="1">  1        2 0.62424469E-01 0.60316810E+03</pdfrwt>
<pdfrwt beam="2">  1       -2 0.29734853E-01 0.60316810E+03</pdfrwt>
<totfact> 0.81882466E+02</totfact>
</mgrwt>
</event>
<event>
 4    1  0.5812319E-005  0.8017546E+03  0.7818608E-02  0.9557481E-01
          2   -1    0    0  501    0  0.00000000000E+00  0.00000000000E+00  0.17204041076E+04  0.17204041076E+04  0.25500000000E-02 0.  1.
         -2   -1    0    0    0  501 -0.00000000000E+00 -0.00000000000E+00 -0.93409806672E+02  0.93409806706E+02  0.25500000000E-02 0. -1.
    5000001    1    1    2    0    0  0.34388897925E+03  0.66942344236E+02  0.73854318744E+03  0.83967311926E+03  0.19200000000E+03 0.  0.
   -5000001    1    1    2    0    0 -0.34388897925E+03 -0.66942344236E+02  0.88845111347E+03  0.97414079503E+03  0.19200000000E+03 0.  0.
<mgrwt>
<rscale>  0 0.80175461E+03</rscale>
<asrwt>0</asrwt>
<pdfrwt beam="1">  1        2 0.24577200E+00 0.80175461E+03</pdfrwt>
<pdfrwt beam="2">  1       -2 0.13344259E-01 0.80175461E+03</pdfrwt>
<totfact> 0.48264707E+02</totfact>
</mgrwt>
</event>
<event>
 4    1  0.5812319E-005  0.4940092E+03  0.7818608E-02  0.1015355E+00
         -2   -1    0    0    0  501 -0.00000000000E+00  0.00000000000E+00  0.83077658701E+02  0.83077658740E+02  0.25500000000E-02 0. -1.
          2   -1    0    0  501    0  0.00000000000E+00 -0.00000000000E+00 -0.73438837060E+03  0.73438837060E+03  0.25500000000E-02 0.  1.
    5000001    1    1    2    0    0  0.49177317942E+02 -0.14004136205E+03 -0.24951352663E+03  0.34806751020E+03  0.19200000000E+03 0.  0.
   -5000001    1    1    2    0    0 -0.49177317942E+02  0.14004136205E+03 -0.40179718527E+03  0.46939851915E+03  0.19200000000E+03 0.  0.
<mgrwt>
<rscale>  0 0.49400918E+03</rscale>
<asrwt>0</asrwt>
<pdfrwt beam="1">  1        2 0.10491262E+00 0.49400918E+03</pdfrwt>
<pdfrwt beam="2">  1       -2 0.11868237E-01 0.49400918E+03</pdfrwt>
<totfact> 0.21914539E+03</totfact>
</mgrwt>
</event>
<event>
 4    1  0.5812319E-005  0.4063345E+03  0.7818608E-02  0.1041608E+00
         -2   -1    0    0    0  501 -0.00000000000E+00  0.00000000000E+00  0.30205927089E+02  0.30205927197E+02  0.25500000000E-02 0. -1.
          2   -1    0    0  501    0  0.00000000000E+00 -0.00000000000E+00 -0.13665176096E+04  0.13665176096E+04  0.25500000000E-02 0.  1.
    5000001    1    1    2    0    0  0.44447013970E+02 -0.30112892181E+02 -0.53367551674E+03  0.56969806081E+03  0.19200000000E+03 0.  0.
   -5000001    1    1    2    0    0 -0.44447013970E+02  0.30112892181E+02 -0.80263616577E+03  0.82702547598E+03  0.19200000000E+03 0.  0.
<mgrwt>
<rscale>  0 0.40633450E+03</rscale>
<asrwt>0</asrwt>
<pdfrwt beam="1">  1        2 0.19521676E+00 0.40633450E+03</pdfrwt>
<pdfrwt beam="2">  1       -2 0.43151333E-02 0.40633450E+03</pdfrwt>
<totfact> 0.44944457E+03</totfact>
</mgrwt>
</event>
<event>
 4    1  0.5812319E-005  0.4965930E+03  0.7818608E-02  0.1014672E+00
          2   -1    0    0  501    0  0.00000000000E+00  0.00000000000E+00  0.57727139268E+03  0.57727139269E+03  0.25500000000E-02 0.  1.
         -2   -1    0    0    0  501 -0.00000000000E+00 -0.00000000000E+00 -0.10679753583E+03  0.10679753586E+03  0.25500000000E-02 0. -1.
    5000001    1    1    2    0    0 -0.11887832239E+03  0.87614270168E+02  0.31042055812E+03  0.39374260473E+03  0.19200000000E+03 0.  0.
   -5000001    1    1    2    0    0  0.11887832239E+03 -0.87614270168E+02  0.16005329873E+03  0.29032632383E+03  0.19200000000E+03 0.  0.
<mgrwt>
<rscale>  0 0.49659304E+03</rscale>
<asrwt>0</asrwt>
<pdfrwt beam="1">  1        2 0.82467341E-01 0.49659304E+03</pdfrwt>
<pdfrwt beam="2">  1       -2 0.15256791E-01 0.49659304E+03</pdfrwt>
<totfact> 0.19259781E+03</totfact>
</mgrwt>
</event>
<event>
 4    1  0.5812319E-005  0.5238877E+03  0.7818608E-02  0.1007725E+00
         -2   -1    0    0    0  501 -0.00000000000E+00  0.00000000000E+00  0.99578218543E+02  0.99578218576E+02  0.25500000000E-02 0. -1.
          2   -1    0    0  501    0  0.00000000000E+00 -0.00000000000E+00 -0.68905215599E+03  0.68905215599E+03  0.25500000000E-02 0.  1.
    5000001    1    1    2    0    0 -0.11002020981E+03  0.12256853020E+03 -0.39709023129E+03  0.47082071210E+03  0.19200000000E+03 0.  0.
   -5000001    1    1    2    0    0  0.11002020981E+03 -0.12256853020E+03 -0.19238370615E+03  0.31780966246E+03  0.19200000000E+03 0.  0.
<mgrwt>
<rscale>  0 0.52388772E+03</rscale>
<asrwt>0</asrwt>
<pdfrwt beam="1">  1        2 0.98436019E-01 0.52388772E+03</pdfrwt>
<pdfrwt beam="2">  1       -2 0.14225460E-01 0.52388772E+03</pdfrwt>
<totfact> 0.17560659E+03</totfact>
</mgrwt>
</event>
<event>
 4    1  0.5812319E-005  0.4561968E+03  0.7818608E-02  0.1025890E+00
         -2   -1    0    0    0  501 -0.00000000000E+00  0.00000000000E+00  0.67653086933E+03  0.67653086933E+03  0.25500000000E-02 0. -1.
          2   -1    0    0  501    0  0.00000000000E+00 -0.00000000000E+00 -0.76905417909E+02  0.76905417951E+02  0.25500000000E-02 0.  1.
    5000001    1    1    2    0    0  0.10818390089E+03 -0.55772258222E+02  0.26888892850E+03  0.35210730902E+03  0.19200000000E+03 0.  0.
   -5000001    1    1    2    0    0 -0.10818390089E+03  0.55772258222E+02  0.33073652292E+03  0.40132897826E+03  0.19200000000E+03 0.  0.
<mgrwt>
<rscale>  0 0.45619684E+03</rscale>
<asrwt>0</asrwt>
<pdfrwt beam="1">  1        2 0.10986489E-01 0.45619684E+03</pdfrwt>
<pdfrwt beam="2">  1       -2 0.96647265E-01 0.45619684E+03</pdfrwt>
<totfact> 0.53237531E+02</totfact>
</mgrwt>
</event>
<event>
 4    1  0.5812319E-005  0.8513676E+03  0.7818608E-02  0.9488503E-01
         -2   -1    0    0    0  501 -0.00000000000E+00  0.00000000000E+00  0.11400342806E+04  0.11400342806E+04  0.25500000000E-02 0. -1.
          2   -1    0    0  501    0  0.00000000000E+00 -0.00000000000E+00 -0.15894846537E+03  0.15894846539E+03  0.25500000000E-02 0.  1.
    5000001    1    1    2    0    0  0.30487261504E+03 -0.84940519660E+02  0.81124482466E+03  0.89170867935E+03  0.19200000000E+03 0.  0.
   -5000001    1    1    2    0    0 -0.30487261504E+03  0.84940519660E+02  0.16984099056E+03  0.40727406664E+03  0.19200000000E+03 0.  0.
<mgrwt>
<rscale>  0 0.85136760E+03</rscale>
<asrwt>0</asrwt>
<pdfrwt beam="1">  1        2 0.22706924E-01 0.85136760E+03</pdfrwt>
<pdfrwt beam="2">  1       -2 0.16286204E+00 0.85136760E+03</pdfrwt>
<totfact> 0.59197253E+01</totfact>
</mgrwt>
</event>
<event>
 4    1  0.5812319E-005  0.6662178E+03  0.7818608E-02  0.9776815E-01
         -2   -1    0    0    0  501 -0.00000000000E+00  0.00000000000E+00  0.59192430011E+02  0.59192430066E+02  0.25500000000E-02 0. -1.
          2   -1    0    0  501    0  0.00000000000E+00 -0.00000000000E+00 -0.18745901626E+04  0.18745901626E+04  0.25500000000E-02 0.  1.
    5000001    1    1    2    0    0 -0.41409353357E+02  0.26456122470E+03 -0.76579119420E+03  0.83367111577E+03  0.19200000000E+03 0.  0.
   -5000001    1    1    2    0    0  0.41409353357E+02 -0.26456122470E+03 -0.10496065384E+04  0.11001114769E+04  0.19200000000E+03 0.  0.
<mgrwt>
<rscale>  0 0.66621782E+03</rscale>
<asrwt>0</asrwt>
<pdfrwt beam="1">  1        2 0.26779856E+00 0.66621782E+03</pdfrwt>
<pdfrwt beam="2">  1       -2 0.84560626E-02 0.66621782E+03</pdfrwt>
<totfact> 0.85634628E+02</totfact>
</mgrwt>
</event>
<event>
 4    1  0.5812319E-005  0.6085879E+03  0.7818608E-02  0.9887747E-01
         -2   -1    0    0    0  501 -0.00000000000E+00  0.00000000000E+00  0.38347525380E+03  0.38347525381E+03  0.25500000000E-02 0. -1.
          2   -1    0    0  501    0  0.00000000000E+00 -0.00000000000E+00 -0.24146230197E+03  0.24146230198E+03  0.25500000000E-02 0.  1.
    5000001    1    1    2    0    0 -0.20171597332E+03  0.10928956239E+03  0.12815475882E+03  0.32545534955E+03  0.19200000000E+03 0.  0.
   -5000001    1    1    2    0    0  0.20171597332E+03 -0.10928956239E+03  0.13858193003E+02  0.29948220624E+03  0.19200000000E+03 0.  0.
<mgrwt>
<rscale>  0 0.60858793E+03</rscale>
<asrwt>0</asrwt>
<pdfrwt beam="1">  1        2 0.34494614E-01 0.60858793E+03</pdfrwt>
<pdfrwt beam="2">  1       -2 0.54782179E-01 0.60858793E+03</pdfrwt>
<totfact> 0.48054336E+02</totfact>
</mgrwt>
</event>
<event>
 4    1  0.5812319E-005  0.5023714E+03  0.7818608E-02  0.1013162E+00
         -2   -1    0    0    0  501 -0.00000000000E+00  0.00000000000E+00  0.28091170647E+02  0.28091170763E+02  0.25500000000E-02 0. -1.
          2   -1    0    0  501    0  0.00000000000E+00 -0.00000000000E+00 -0.22460526018E+04  0.22460526018E+04  0.25500000000E-02 0.  1.
    5000001    1    1    2    0    0  0.54395104220E+02 -0.40689639976E+02 -0.44343418289E+03  0.48796756933E+03  0.19200000000E+03 0.  0.
   -5000001    1    1    2    0    0 -0.54395104220E+02  0.40689639976E+02 -0.17745272483E+04  0.17861762033E+04  0.19200000000E+03 0.  0.
<mgrwt>
<rscale>  0 0.50237136E+03</rscale>
<asrwt>0</asrwt>
<pdfrwt beam="1">  1        2 0.32086454E+00 0.50237136E+03</pdfrwt>
<pdfrwt beam="2">  1       -2 0.40130258E-02 0.50237136E+03</pdfrwt>
<totfact> 0.18037689E+03</totfact>
</mgrwt>
</event>
<event>
 4    1  0.5812319E-005  0.8442372E+03  0.7818608E-02  0.9498104E-01
          2   -1    0    0  501    0  0.00000000000E+00  0.00000000000E+00  0.32422344112E+04  0.32422344112E+04  0.25500000000E-02 0.  1.
         -2   -1    0    0    0  501 -0.00000000000E+00 -0.00000000000E+00 -0.54957192066E+02  0.54957192125E+02  0.25500000000E-02 0. -1.
    5000001    1    1    2    0    0 -0.33059622449E+03 -0.85333320094E+02  0.97928458385E+03  0.10547217336E+04  0.19200000000E+03 0.  0.
   -5000001    1    1    2    0    0  0.33059622449E+03  0.85333320094E+02  0.22079926353E+04  0.22424698698E+04  0.19200000000E+03 0.  0.
<mgrwt>
<rscale>  0 0.84423717E+03</rscale>
<asrwt>0</asrwt>
<pdfrwt beam="1">  1        2 0.46317636E+00 0.84423717E+03</pdfrwt>
<pdfrwt beam="2">  1       -2 0.78510273E-02 0.84423717E+03</pdfrwt>
<totfact> 0.18168146E+02</totfact>
</mgrwt>
</event>
<event>
 4    1  0.5812319E-005  0.4419682E+03  0.7818608E-02  0.1030145E+00
         -2   -1    0    0    0  501 -0.00000000000E+00  0.00000000000E+00  0.40415854619E+02  0.40415854699E+02  0.25500000000E-02 0. -1.
          2   -1    0    0  501    0  0.00000000000E+00 -0.00000000000E+00 -0.12082875140E+04  0.12082875140E+04  0.25500000000E-02 0.  1.
    5000001    1    1    2    0    0  0.36592137814E+02  0.69510248674E+02 -0.36877830099E+03  0.42312184356E+03  0.19200000000E+03 0.  0.
   -5000001    1    1    2    0    0 -0.36592137814E+02 -0.69510248674E+02 -0.79909335837E+03  0.82558152511E+03  0.19200000000E+03 0.  0.
<mgrwt>
<rscale>  0 0.44196820E+03</rscale>
<asrwt>0</asrwt>
<pdfrwt beam="1">  1        2 0.17261248E+00 0.44196820E+03</pdfrwt>
<pdfrwt beam="2">  1       -2 0.57736943E-02 0.44196820E+03</pdfrwt>
<totfact> 0.34958540E+03</totfact>
</mgrwt>
</event>
<event>
 4    1  0.5812319E-005  0.4427049E+03  0.7818608E-02  0.1029920E+00
         -2   -1    0    0    0  501 -0.00000000000E+00  0.00000000000E+00  0.26254097993E+03  0.26254097994E+03  0.25500000000E-02 0. -1.
          2   -1    0    0  501    0  0.00000000000E+00 -0.00000000000E+00 -0.18662577289E+03  0.18662577291E+03  0.25500000000E-02 0.  1.
    5000001    1    1    2    0    0  0.63964778763E+01  0.10995593873E+03  0.39276544234E+02  0.22480629510E+03  0.19200000000E+03 0.  0.
   -5000001    1    1    2    0    0 -0.63964778763E+01 -0.10995593873E+03  0.36638662801E+02  0.22436045775E+03  0.19200000000E+03 0.  0.
<mgrwt>
<rscale>  0 0.44270493E+03</rscale>
<asrwt>0</asrwt>
<pdfrwt beam="1">  1        2 0.26660825E-01 0.44270493E+03</pdfrwt>
<pdfrwt beam="2">  1       -2 0.37505854E-01 0.44270493E+03</pdfrwt>
<totfact> 0.13598758E+03</totfact>
</mgrwt>
</event>
<event>
 4    1  0.5812319E-005  0.5360162E+03  0.7818608E-02  0.1004783E+00
          2   -1    0    0  501    0  0.00000000000E+00  0.00000000000E+00  0.10246808227E+04  0.10246808227E+04  0.25500000000E-02 0. -1.
         -2   -1    0    0    0  501 -0.00000000000E+00 -0.00000000000E+00 -0.70098248530E+02  0.70098248577E+02  0.25500000000E-02 0.  1.
    5000001    1    1    2    0    0 -0.72251269019E+02 -0.12072987854E+03  0.72883775607E+03  0.76672317307E+03  0.19200000000E+03 0.  0.
   -5000001    1    1    2    0    0  0.72251269019E+02  0.12072987854E+03  0.22574481807E+03  0.32805589818E+03  0.19200000000E+03 0.  0.
<mgrwt>
<rscale>  0 0.53601616E+03</rscale>
<asrwt>0</asrwt>
<pdfrwt beam="1">  1        2 0.14638297E+00 0.53601616E+03</pdfrwt>
<pdfrwt beam="2">  1       -2 0.10014036E-01 0.53601616E+03</pdfrwt>
<totfact> 0.18643748E+03</totfact>
</mgrwt>
</event>
<event>
 4    1  0.5812319E-005  0.5324408E+03  0.7818608E-02  0.1005642E+00
         -2   -1    0    0    0  501 -0.00000000000E+00  0.00000000000E+00  0.57317200552E+02  0.57317200609E+02  0.25500000000E-02 0. -1.
          2   -1    0    0  501    0  0.00000000000E+00 -0.00000000000E+00 -0.12365101144E+04  0.12365101144E+04  0.25500000000E-02 0.  1.
    5000001    1    1    2    0    0 -0.14267371109E+03  0.10465314470E+03 -0.46330157320E+03  0.53180862748E+03  0.19200000000E+03 0.  0.
   -5000001    1    1    2    0    0  0.14267371109E+03 -0.10465314470E+03 -0.71589134063E+03  0.76201868752E+03  0.19200000000E+03 0.  0.
<mgrwt>
<rscale>  0 0.53244079E+03</rscale>
<asrwt>0</asrwt>
<pdfrwt beam="1">  1        2 0.17664428E+00 0.53244079E+03</pdfrwt>
<pdfrwt beam="2">  1       -2 0.81881723E-02 0.53244079E+03</pdfrwt>
<totfact> 0.19470350E+03</totfact>
</mgrwt>
</event>
<event>
 4    1  0.5812319E-005  0.8611896E+03  0.7818608E-02  0.9475441E-01
         -2   -1    0    0    0  501 -0.00000000000E+00  0.00000000000E+00  0.84859186018E+02  0.84859186056E+02  0.25500000000E-02 0. -1.
          2   -1    0    0  501    0  0.00000000000E+00 -0.00000000000E+00 -0.21849356800E+04  0.21849356800E+04  0.25500000000E-02 0.  1.
    5000001    1    1    2    0    0  0.83907954531E+02 -0.32117446275E+03 -0.53386583539E+03  0.65732055388E+03  0.19200000000E+03 0.  0.
   -5000001    1    1    2    0    0 -0.83907954531E+02  0.32117446275E+03 -0.15662106586E+04  0.16124743122E+04  0.19200000000E+03 0.  0.
<mgrwt>
<rscale>  0 0.86118956E+03</rscale>
<asrwt>0</asrwt>
<pdfrwt beam="1">  1        2 0.31213363E+00 0.86118956E+03</pdfrwt>
<pdfrwt beam="2">  1       -2 0.12122742E-01 0.86118956E+03</pdfrwt>
<totfact> 0.32735216E+02</totfact>
</mgrwt>
</event>
<event>
 4    1  0.5812319E-005  0.4721352E+03  0.7818608E-02  0.1021319E+00
          2   -1    0    0  501    0  0.00000000000E+00  0.00000000000E+00  0.21951200367E+04  0.21951200367E+04  0.25500000000E-02 0.  1.
         -2   -1    0    0    0  501 -0.00000000000E+00 -0.00000000000E+00 -0.25387186723E+02  0.25387186851E+02  0.25500000000E-02 0. -1.
    5000001    1    1    2    0    0  0.50033734065E+02 -0.12742610778E+03  0.11370551106E+04  0.11612489449E+04  0.19200000000E+03 0.  0.
   -5000001    1    1    2    0    0 -0.50033734065E+02  0.12742610778E+03  0.10326777394E+04  0.10592582786E+04  0.19200000000E+03 0.  0.
<mgrwt>
<rscale>  0 0.47213525E+03</rscale>
<asrwt>0</asrwt>
<pdfrwt beam="1">  1        2 0.31358849E+00 0.47213525E+03</pdfrwt>
<pdfrwt beam="2">  1       -2 0.36267419E-02 0.47213525E+03</pdfrwt>
<totfact> 0.22356509E+03</totfact>
</mgrwt>
</event>
<event>
 4    1  0.5812319E-005  0.7180732E+03  0.7818608E-02  0.9686814E-01
         -2   -1    0    0    0  501 -0.00000000000E+00  0.00000000000E+00  0.10869592354E+03  0.10869592357E+03  0.25500000000E-02 0. -1.
          2   -1    0    0  501    0  0.00000000000E+00 -0.00000000000E+00 -0.11859438670E+04  0.11859438670E+04  0.25500000000E-02 0.  1.
    5000001    1    1    2    0    0 -0.20652303565E+03 -0.19497782249E+03 -0.34633304373E+03  0.48731785592E+03  0.19200000000E+03 0.  0.
   -5000001    1    1    2    0    0  0.20652303565E+03  0.19497782249E+03 -0.73091489976E+03  0.80732193467E+03  0.19200000000E+03 0.  0.
<mgrwt>
<rscale>  0 0.71807315E+03</rscale>
<asrwt>0</asrwt>
<pdfrwt beam="1">  1        2 0.16942055E+00 0.71807315E+03</pdfrwt>
<pdfrwt beam="2">  1       -2 0.15527990E-01 0.71807315E+03</pdfrwt>
<totfact> 0.72352312E+02</totfact>
</mgrwt>
</event>
<event>
 4    1  0.5812319E-005  0.4427099E+03  0.7818608E-02  0.1029919E+00
         -2   -1    0    0    0  501 -0.00000000000E+00  0.00000000000E+00  0.17576602823E+03  0.17576602825E+03  0.25500000000E-02 0. -1.
          2   -1    0    0  501    0  0.00000000000E+00 -0.00000000000E+00 -0.27876835042E+03  0.27876835043E+03  0.25500000000E-02 0.  1.
    5000001    1    1    2    0    0 -0.10644932063E+03 -0.27892849811E+02 -0.46415391316E+02  0.22611469984E+03  0.19200000000E+03 0.  0.
   -5000001    1    1    2    0    0  0.10644932063E+03  0.27892849811E+02 -0.56586930870E+02  0.22841967883E+03  0.19200000000E+03 0.  0.
<mgrwt>
<rscale>  0 0.44270986E+03</rscale>
<asrwt>0</asrwt>
<pdfrwt beam="1">  1        2 0.39824050E-01 0.44270986E+03</pdfrwt>
<pdfrwt beam="2">  1       -2 0.25109433E-01 0.44270986E+03</pdfrwt>
<totfact> 0.18260243E+03</totfact>
</mgrwt>
</event>
<event>
 4    1  0.5812319E-005  0.1521595E+04  0.7818608E-02  0.8870218E-01
          2   -1    0    0  501    0  0.00000000000E+00  0.00000000000E+00  0.13642704567E+04  0.13642704567E+04  0.25500000000E-02 0.  1.
         -2   -1    0    0    0  501 -0.00000000000E+00 -0.00000000000E+00 -0.42426555805E+03  0.42426555806E+03  0.25500000000E-02 0. -1.
    5000001    1    1    2    0    0 -0.72452880872E+03 -0.12729803770E+03  0.50329406787E+03  0.91176515826E+03  0.19200000000E+03 0.  0.
   -5000001    1    1    2    0    0  0.72452880872E+03  0.12729803770E+03  0.43671083073E+03  0.87677085646E+03  0.19200000000E+03 0.  0.
<mgrwt>
<rscale>  0 0.15215952E+04</rscale>
<asrwt>0</asrwt>
<pdfrwt beam="1">  1        2 0.19489578E+00 0.15215952E+04</pdfrwt>
<pdfrwt beam="2">  1       -2 0.60609365E-01 0.15215952E+04</pdfrwt>
<totfact> 0.42384342E+01</totfact>
</mgrwt>
</event>
<event>
 4    1  0.5812319E-005  0.7905935E+03  0.7818608E-02  0.9573733E-01
         -2   -1    0    0    0  501 -0.00000000000E+00  0.00000000000E+00  0.10596695469E+03  0.10596695472E+03  0.25500000000E-02 0. -1.
          2   -1    0    0  501    0  0.00000000000E+00 -0.00000000000E+00 -0.14746061413E+04  0.14746061413E+04  0.25500000000E-02 0.  1.
    5000001    1    1    2    0    0 -0.27335773287E+03 -0.15904852417E+03 -0.96259713204E+03  0.10312507560E+04  0.19200000000E+03 0.  0.
   -5000001    1    1    2    0    0  0.27335773287E+03  0.15904852417E+03 -0.40604205457E+03  0.54932234002E+03  0.19200000000E+03 0.  0.
<mgrwt>
<rscale>  0 0.79059350E+03</rscale>
<asrwt>0</asrwt>
<pdfrwt beam="1">  1        2 0.21065801E+00 0.79059350E+03</pdfrwt>
<pdfrwt beam="2">  1       -2 0.15138137E-01 0.79059350E+03</pdfrwt>
<totfact> 0.52409060E+02</totfact>
</mgrwt>
</event>
<event>
 4    1  0.5812319E-005  0.5159915E+03  0.7818608E-02  0.1009687E+00
          2   -1    0    0  501    0  0.00000000000E+00  0.00000000000E+00  0.28912508078E+04  0.28912508078E+04  0.25500000000E-02 0.  1.
         -2   -1    0    0    0  501 -0.00000000000E+00 -0.00000000000E+00 -0.23021798928E+02  0.23021799069E+02  0.25500000000E-02 0. -1.
    5000001    1    1    2    0    0  0.14863169503E+03 -0.27277554903E+02  0.19019832909E+04  0.19176130696E+04  0.19200000000E+03 0.  0.
   -5000001    1    1    2    0    0 -0.14863169503E+03  0.27277554903E+02  0.96624571801E+03  0.99665953732E+03  0.19200000000E+03 0.  0.
<mgrwt>
<rscale>  0 0.51599145E+03</rscale>
<asrwt>0</asrwt>
<pdfrwt beam="1">  1        2 0.41303589E+00 0.51599145E+03</pdfrwt>
<pdfrwt beam="2">  1       -2 0.32888280E-02 0.51599145E+03</pdfrwt>
<totfact> 0.11360095E+03</totfact>
</mgrwt>
</event>
<event>
 4    1  0.5812319E-005  0.5578619E+03  0.7818608E-02  0.9996904E-01
          2   -1    0    0  501    0  0.00000000000E+00  0.00000000000E+00  0.17936016280E+04  0.17936016280E+04  0.25500000000E-02 0.  1.
         -2   -1    0    0    0  501 -0.00000000000E+00 -0.00000000000E+00 -0.43377782710E+02  0.43377782785E+02  0.25500000000E-02 0. -1.
    5000001    1    1    2    0    0 -0.12146672514E+03  0.10297249692E+03  0.12861430841E+04  0.13101089776E+04  0.19200000000E+03 0.  0.
   -5000001    1    1    2    0    0  0.12146672514E+03 -0.10297249692E+03  0.46408076111E+03  0.52687043310E+03  0.19200000000E+03 0.  0.
<mgrwt>
<rscale>  0 0.55786185E+03</rscale>
<asrwt>0</asrwt>
<pdfrwt beam="1">  1        2 0.25622878E+00 0.55786185E+03</pdfrwt>
<pdfrwt beam="2">  1       -2 0.61968267E-02 0.55786185E+03</pdfrwt>
<totfact> 0.15477520E+03</totfact>
</mgrwt>
</event>
<event>
 4    1  0.5812319E-005  0.6090011E+03  0.7818608E-02  0.9886906E-01
          2   -1    0    0  501    0  0.00000000000E+00  0.00000000000E+00  0.53875869189E+03  0.53875869190E+03  0.25500000000E-02 0.  1.
         -2   -1    0    0    0  501 -0.00000000000E+00 -0.00000000000E+00 -0.17210039819E+03  0.17210039821E+03  0.25500000000E-02 0. -1.
    5000001    1    1    2    0    0 -0.12713975759E+03 -0.15426920880E+03  0.36176031906E+02  0.27952855315E+03  0.19200000000E+03 0.  0.
   -5000001    1    1    2    0    0  0.12713975759E+03  0.15426920880E+03  0.33048226179E+03  0.43133053695E+03  0.19200000000E+03 0.  0.
<mgrwt>
<rscale>  0 0.60900110E+03</rscale>
<asrwt>0</asrwt>
<pdfrwt beam="1">  1        2 0.76965527E-01 0.60900110E+03</pdfrwt>
<pdfrwt beam="2">  1       -2 0.24585771E-01 0.60900110E+03</pdfrwt>
<totfact> 0.91220560E+02</totfact>
</mgrwt>
</event>
<event>
 4    1  0.5812319E-005  0.6355689E+03  0.7818608E-02  0.9834241E-01
          2   -1    0    0  501    0  0.00000000000E+00  0.00000000000E+00  0.26535878587E+03  0.26535878589E+03  0.25500000000E-02 0.  1.
         -2   -1    0    0    0  501 -0.00000000000E+00 -0.00000000000E+00 -0.38056759194E+03  0.38056759195E+03  0.25500000000E-02 0. -1.
    5000001    1    1    2    0    0 -0.93160859883E+02 -0.22766469633E+03 -0.11869044836E+03  0.33385862622E+03  0.19200000000E+03 0.  0.
   -5000001    1    1    2    0    0  0.93160859883E+02  0.22766469633E+03  0.34816422844E+01  0.31206775162E+03  0.19200000000E+03 0.  0.
<mgrwt>
<rscale>  0 0.63556889E+03</rscale>
<asrwt>0</asrwt>
<pdfrwt beam="1">  1        2 0.37908398E-01 0.63556889E+03</pdfrwt>
<pdfrwt beam="2">  1       -2 0.54366799E-01 0.63556889E+03</pdfrwt>
<totfact> 0.43928216E+02</totfact>
</mgrwt>
</event>
<event>
 4    1  0.5812319E-005  0.7445439E+03  0.7818608E-02  0.9643949E-01
         -2   -1    0    0    0  501 -0.00000000000E+00  0.00000000000E+00  0.25796648314E+03  0.25796648315E+03  0.25500000000E-02 0. -1.
          2   -1    0    0  501    0  0.00000000000E+00 -0.00000000000E+00 -0.53722639890E+03  0.53722639890E+03  0.25500000000E-02 0.  1.
    5000001    1    1    2    0    0  0.23739722913E+03 -0.19651177683E+03 -0.22736485035E+03  0.42840763066E+03  0.19200000000E+03 0.  0.
   -5000001    1    1    2    0    0 -0.23739722913E+03  0.19651177683E+03 -0.51895065405E+02  0.36678525140E+03  0.19200000000E+03 0.  0.
<mgrwt>
<rscale>  0 0.74454390E+03</rscale>
<asrwt>0</asrwt>
<pdfrwt beam="1">  1        2 0.76746628E-01 0.74454390E+03</pdfrwt>
<pdfrwt beam="2">  1       -2 0.36852355E-01 0.74454390E+03</pdfrwt>
<totfact> 0.43096151E+02</totfact>
</mgrwt>
</event>
<event>
 4    1  0.5812319E-005  0.4908145E+03  0.7818608E-02  0.1016205E+00
          2   -1    0    0  501    0  0.00000000000E+00  0.00000000000E+00  0.97091371664E+03  0.97091371665E+03  0.25500000000E-02 0.  1.
         -2   -1    0    0    0  501 -0.00000000000E+00 -0.00000000000E+00 -0.62028909344E+02  0.62028909397E+02  0.25500000000E-02 0. -1.
    5000001    1    1    2    0    0 -0.10832911021E+03 -0.10356449531E+03  0.39130883857E+03  0.46092017525E+03  0.19200000000E+03 0.  0.
   -5000001    1    1    2    0    0  0.10832911021E+03  0.10356449531E+03  0.51757596873E+03  0.57202245080E+03  0.19200000000E+03 0.  0.
<mgrwt>
<rscale>  0 0.49081450E+03</rscale>
<asrwt>0</asrwt>
<pdfrwt beam="1">  1        2 0.13870197E+00 0.49081450E+03</pdfrwt>
<pdfrwt beam="2">  1       -2 0.88612723E-02 0.49081450E+03</pdfrwt>
<totfact> 0.24470538E+03</totfact>
</mgrwt>
</event>
<event>
 4    1  0.5812319E-005  0.7503784E+03  0.7818608E-02  0.9634757E-01
         -2   -1    0    0    0  501 -0.00000000000E+00  0.00000000000E+00  0.13988460974E+03  0.13988460977E+03  0.25500000000E-02 0. -1.
          2   -1    0    0  501    0  0.00000000000E+00 -0.00000000000E+00 -0.10063076245E+04  0.10063076245E+04  0.25500000000E-02 0.  1.
    5000001    1    1    2    0    0 -0.26949536700E+03 -0.25087822160E+02 -0.70061223315E+03  0.77522812958E+03  0.19200000000E+03 0.  0.
   -5000001    1    1    2    0    0  0.26949536700E+03  0.25087822160E+02 -0.16581078156E+03  0.37096410465E+03  0.19200000000E+03 0.  0.
<mgrwt>
<rscale>  0 0.75037844E+03</rscale>
<asrwt>0</asrwt>
<pdfrwt beam="1">  1        2 0.14375823E+00 0.75037844E+03</pdfrwt>
<pdfrwt beam="2">  1       -2 0.19983516E-01 0.75037844E+03</pdfrwt>
<totfact> 0.59694313E+02</totfact>
</mgrwt>
</event>
<event>
 4    1  0.5812319E-005  0.5281813E+03  0.7818608E-02  0.1006674E+00
         -2   -1    0    0    0  501 -0.00000000000E+00  0.00000000000E+00  0.18500467686E+03  0.18500467688E+03  0.25500000000E-02 0. -1.
          2   -1    0    0  501    0  0.00000000000E+00 -0.00000000000E+00 -0.37698431510E+03  0.37698431511E+03  0.25500000000E-02 0.  1.
    5000001    1    1    2    0    0  0.14592482275E+03 -0.78945480071E+02 -0.17384014308E+03  0.30758874827E+03  0.19200000000E+03 0.  0.
   -5000001    1    1    2    0    0 -0.14592482275E+03  0.78945480071E+02 -0.18139495163E+02  0.25440024372E+03  0.19200000000E+03 0.  0.
<mgrwt>
<rscale>  0 0.52818126E+03</rscale>
<asrwt>0</asrwt>
<pdfrwt beam="1">  1        2 0.53854902E-01 0.52818126E+03</pdfrwt>
<pdfrwt beam="2">  1       -2 0.26429240E-01 0.52818126E+03</pdfrwt>
<totfact> 0.11969488E+03</totfact>
</mgrwt>
</event>
<event>
 4    1  0.5812319E-005  0.4072964E+03  0.7818608E-02  0.1041282E+00
         -2   -1    0    0    0  501 -0.00000000000E+00  0.00000000000E+00  0.78838188886E+03  0.78838188886E+03  0.25500000000E-02 0. -1.
          2   -1    0    0  501    0  0.00000000000E+00 -0.00000000000E+00 -0.52604689288E+02  0.52604689350E+02  0.25500000000E-02 0.  1.
    5000001    1    1    2    0    0  0.67515954109E+02  0.22310035517E+01  0.35400629278E+03  0.40834769102E+03  0.19200000000E+03 0.  0.
   -5000001    1    1    2    0    0 -0.67515954109E+02 -0.22310035517E+01  0.38177090679E+03  0.43263888719E+03  0.19200000000E+03 0.  0.
<mgrwt>
<rscale>  0 0.40729638E+03</rscale>
<asrwt>0</asrwt>
<pdfrwt beam="1">  1        2 0.75149566E-02 0.40729638E+03</pdfrwt>
<pdfrwt beam="2">  1       -2 0.11262597E+00 0.40729638E+03</pdfrwt>
<totfact> 0.60046834E+02</totfact>
</mgrwt>
</event>
<event>
 4    1  0.5812319E-005  0.6533855E+03  0.7818608E-02  0.9800447E-01
         -2   -1    0    0    0  501 -0.00000000000E+00  0.00000000000E+00  0.27943270162E+02  0.27943270279E+02  0.25500000000E-02 0. -1.
          2   -1    0    0  501    0  0.00000000000E+00 -0.00000000000E+00 -0.38194582088E+04  0.38194582088E+04  0.25500000000E-02 0.  1.
    5000001    1    1    2    0    0  0.14515923574E+03  0.21439690751E+03 -0.22088368043E+04  0.22322323503E+04  0.19200000000E+03 0.  0.
   -5000001    1    1    2    0    0 -0.14515923574E+03 -0.21439690751E+03 -0.15826781343E+04  0.16151691288E+04  0.19200000000E+03 0.  0.
<mgrwt>
<rscale>  0 0.65338550E+03</rscale>
<asrwt>0</asrwt>
<pdfrwt beam="1">  1        2 0.54563656E+00 0.65338550E+03</pdfrwt>
<pdfrwt beam="2">  1       -2 0.39918982E-02 0.65338550E+03</pdfrwt>
<totfact> 0.24090081E+02</totfact>
</mgrwt>
</event>
<event>
 4    1  0.5812319E-005  0.4621432E+03  0.7818608E-02  0.1024161E+00
          2   -1    0    0  501    0  0.00000000000E+00  0.00000000000E+00  0.59469438689E+02  0.59469438743E+02  0.25500000000E-02 0.  1.
         -2   -1    0    0    0  501 -0.00000000000E+00 -0.00000000000E+00 -0.89784087250E+03  0.89784087250E+03  0.25500000000E-02 0. -1.
    5000001    1    1    2    0    0 -0.39901822409E+02  0.96088796099E+02 -0.26272712614E+03  0.34163541236E+03  0.19200000000E+03 0.  0.
   -5000001    1    1    2    0    0  0.39901822409E+02 -0.96088796099E+02 -0.57564430767E+03  0.61567489889E+03  0.19200000000E+03 0.  0.
<mgrwt>
<rscale>  0 0.46214324E+03</rscale>
<asrwt>0</asrwt>
<pdfrwt beam="1">  1        2 0.84956347E-02 0.46214324E+03</pdfrwt>
<pdfrwt beam="2">  1       -2 0.12826297E+00 0.46214324E+03</pdfrwt>
<totfact> 0.37278586E+02</totfact>
</mgrwt>
</event>
<event>
 4    1  0.5812319E-005  0.4679134E+03  0.7818608E-02  0.1022511E+00
         -2   -1    0    0    0  501 -0.00000000000E+00  0.00000000000E+00  0.18606426841E+02  0.18606427015E+02  0.25500000000E-02 0. -1.
          2   -1    0    0  501    0  0.00000000000E+00 -0.00000000000E+00 -0.29417645518E+04  0.29417645518E+04  0.25500000000E-02 0.  1.
    5000001    1    1    2    0    0  0.13039065222E+03 -0.10300381738E+02 -0.12867148339E+04  0.13075193627E+04  0.19200000000E+03 0.  0.
   -5000001    1    1    2    0    0 -0.13039065222E+03  0.10300381738E+02 -0.16364432911E+04  0.16528516162E+04  0.19200000000E+03 0.  0.
<mgrwt>
<rscale>  0 0.46791336E+03</rscale>
<asrwt>0</asrwt>
<pdfrwt beam="1">  1        2 0.42025178E+00 0.46791336E+03</pdfrwt>
<pdfrwt beam="2">  1       -2 0.26580629E-02 0.46791336E+03</pdfrwt>
<totfact> 0.14793607E+03</totfact>
</mgrwt>
</event>
<event>
 4    1  0.5812319E-005  0.5292554E+03  0.7818608E-02  0.1006413E+00
          2   -1    0    0  501    0  0.00000000000E+00  0.00000000000E+00  0.87609032192E+03  0.87609032192E+03  0.25500000000E-02 0.  1.
         -2   -1    0    0    0  501 -0.00000000000E+00 -0.00000000000E+00 -0.79932192023E+02  0.79932192064E+02  0.25500000000E-02 0. -1.
    5000001    1    1    2    0    0 -0.10427567592E+03 -0.14706065648E+03  0.35154777660E+03  0.43926084791E+03  0.19200000000E+03 0.  0.
   -5000001    1    1    2    0    0  0.10427567592E+03  0.14706065648E+03  0.44461035329E+03  0.51676166608E+03  0.19200000000E+03 0.  0.
<mgrwt>
<rscale>  0 0.52925540E+03</rscale>
<asrwt>0</asrwt>
<pdfrwt beam="1">  1        2 0.12515575E+00 0.52925540E+03</pdfrwt>
<pdfrwt beam="2">  1       -2 0.11418886E-01 0.52925540E+03</pdfrwt>
<totfact> 0.18648285E+03</totfact>
</mgrwt>
</event>
<event>
 4    1  0.5812319E-005  0.5887816E+03  0.7818608E-02  0.9928958E-01
          2   -1    0    0  501    0  0.00000000000E+00  0.00000000000E+00  0.47911971017E+02  0.47911971084E+02  0.25500000000E-02 0.  1.
         -2   -1    0    0    0  501 -0.00000000000E+00 -0.00000000000E+00 -0.18088579322E+04  0.18088579322E+04  0.25500000000E-02 0. -1.
    5000001    1    1    2    0    0  0.20826177930E+03  0.43085878684E+02 -0.66722504111E+03  0.72614228436E+03  0.19200000000E+03 0.  0.
   -5000001    1    1    2    0    0 -0.20826177930E+03 -0.43085878684E+02 -0.10937209200E+04  0.11306276189E+04  0.19200000000E+03 0.  0.
<mgrwt>
<rscale>  0 0.58878162E+03</rscale>
<asrwt>0</asrwt>
<pdfrwt beam="1">  1        2 0.68445684E-02 0.58878162E+03</pdfrwt>
<pdfrwt beam="2">  1       -2 0.25840823E+00 0.58878162E+03</pdfrwt>
<totfact> 0.64696204E+01</totfact>
</mgrwt>
</event>
<event>
 4    1  0.5812319E-005  0.7552496E+03  0.7818608E-02  0.9627150E-01
          2   -1    0    0  501    0  0.00000000000E+00  0.00000000000E+00  0.23122438464E+04  0.23122438464E+04  0.25500000000E-02 0.  1.
         -2   -1    0    0    0  501 -0.00000000000E+00 -0.00000000000E+00 -0.61671904797E+02  0.61671904850E+02  0.25500000000E-02 0. -1.
    5000001    1    1    2    0    0  0.11682149281E+03  0.25658123759E+03  0.61597478228E+03  0.70410945532E+03  0.19200000000E+03 0.  0.
   -5000001    1    1    2    0    0 -0.11682149281E+03 -0.25658123759E+03  0.16345971593E+04  0.16698062959E+04  0.19200000000E+03 0.  0.
<mgrwt>
<rscale>  0 0.75524958E+03</rscale>
<asrwt>0</asrwt>
<pdfrwt beam="1">  1        2 0.33032049E+00 0.75524958E+03</pdfrwt>
<pdfrwt beam="2">  1       -2 0.88102738E-02 0.75524958E+03</pdfrwt>
<totfact> 0.47867467E+02</totfact>
</mgrwt>
</event>
<event>
 4    1  0.5812319E-005  0.4981367E+03  0.7818608E-02  0.1014266E+00
          2   -1    0    0  501    0  0.00000000000E+00  0.00000000000E+00  0.24662502066E+04  0.24662502066E+04  0.25500000000E-02 0.  1.
         -2   -1    0    0    0  501 -0.00000000000E+00 -0.00000000000E+00 -0.25153588858E+02  0.25153588987E+02  0.25500000000E-02 0. -1.
    5000001    1    1    2    0    0 -0.11957553830E+03 -0.10423102066E+03  0.12352400096E+04  0.12600969392E+04  0.19200000000E+03 0.  0.
   -5000001    1    1    2    0    0  0.11957553830E+03  0.10423102066E+03  0.12058566082E+04  0.12313068563E+04  0.19200000000E+03 0.  0.
<mgrwt>
<rscale>  0 0.49813670E+03</rscale>
<asrwt>0</asrwt>
<pdfrwt beam="1">  1        2 0.35232112E+00 0.49813670E+03</pdfrwt>
<pdfrwt beam="2">  1       -2 0.35933733E-02 0.49813670E+03</pdfrwt>
<totfact> 0.16533351E+03</totfact>
</mgrwt>
</event>
<event>
 4    1  0.5812319E-005  0.7338315E+03  0.7818608E-02  0.9661063E-01
          2   -1    0    0  501    0  0.00000000000E+00  0.00000000000E+00  0.84811830802E+03  0.84811830802E+03  0.25500000000E-02 0.  1.
         -2   -1    0    0    0  501 -0.00000000000E+00 -0.00000000000E+00 -0.15873629364E+03  0.15873629366E+03  0.25500000000E-02 0. -1.
    5000001    1    1    2    0    0  0.24453116020E+03 -0.16379162506E+03  0.19987636445E+03  0.40427434474E+03  0.19200000000E+03 0.  0.
   -5000001    1    1    2    0    0 -0.24453116020E+03  0.16379162506E+03  0.48950564993E+03  0.60258025695E+03  0.19200000000E+03 0.  0.
<mgrwt>
<rscale>  0 0.73383147E+03</rscale>
<asrwt>0</asrwt>
<pdfrwt beam="1">  1        2 0.12115976E+00 0.73383147E+03</pdfrwt>
<pdfrwt beam="2">  1       -2 0.22676613E-01 0.73383147E+03</pdfrwt>
<totfact> 0.60351855E+02</totfact>
</mgrwt>
</event>
<event>
 4    1  0.5812319E-005  0.4710796E+03  0.7818608E-02  0.1021616E+00
          2   -1    0    0  501    0  0.00000000000E+00  0.00000000000E+00  0.10433644106E+04  0.10433644106E+04  0.25500000000E-02 0.  1.
         -2   -1    0    0    0  501 -0.00000000000E+00 -0.00000000000E+00 -0.53173176178E+02  0.53173176239E+02  0.25500000000E-02 0. -1.
    5000001    1    1    2    0    0  0.33161171268E+02 -0.13231068843E+03  0.48802837350E+03  0.54188695767E+03  0.19200000000E+03 0.  0.
   -5000001    1    1    2    0    0 -0.33161171268E+02  0.13231068843E+03  0.50216286094E+03  0.55465062919E+03  0.19200000000E+03 0.  0.
<mgrwt>
<rscale>  0 0.47107961E+03</rscale>
<asrwt>0</asrwt>
<pdfrwt beam="1">  1        2 0.14905206E+00 0.47107961E+03</pdfrwt>
<pdfrwt beam="2">  1       -2 0.75961680E-02 0.47107961E+03</pdfrwt>
<totfact> 0.28264936E+03</totfact>
</mgrwt>
</event>
<event>
 4    1  0.5812319E-005  0.5614901E+03  0.7818608E-02  0.9988689E-01
         -2   -1    0    0    0  501 -0.00000000000E+00  0.00000000000E+00  0.94705614639E+02  0.94705614673E+02  0.25500000000E-02 0. -1.
          2   -1    0    0  501    0  0.00000000000E+00 -0.00000000000E+00 -0.83223990027E+03  0.83223990028E+03  0.25500000000E-02 0.  1.
    5000001    1    1    2    0    0  0.16683525555E+03  0.77713579044E+02 -0.22036909055E+03  0.34539823238E+03  0.19200000000E+03 0.  0.
   -5000001    1    1    2    0    0 -0.16683525555E+03 -0.77713579044E+02 -0.51716519508E+03  0.58154728257E+03  0.19200000000E+03 0.  0.
<mgrwt>
<rscale>  0 0.56149013E+03</rscale>
<asrwt>0</asrwt>
<pdfrwt beam="1">  1        2 0.11889141E+00 0.56149013E+03</pdfrwt>
<pdfrwt beam="2">  1       -2 0.13529374E-01 0.56149013E+03</pdfrwt>
<totfact> 0.15073805E+03</totfact>
</mgrwt>
</event>
<event>
 4    1  0.5812319E-005  0.8332881E+03  0.7818608E-02  0.9513046E-01
          2   -1    0    0  501    0  0.00000000000E+00  0.00000000000E+00  0.77064381659E+03  0.77064381660E+03  0.25500000000E-02 0.  1.
         -2   -1    0    0    0  501 -0.00000000000E+00 -0.00000000000E+00 -0.22525614993E+03  0.22525614995E+03  0.25500000000E-02 0. -1.
    5000001    1    1    2    0    0 -0.74002218408E+02  0.19958501768E+03  0.63405028430E+03  0.69584069343E+03  0.19200000000E+03 0.  0.
   -5000001    1    1    2    0    0  0.74002218408E+02 -0.19958501768E+03 -0.88662617644E+02  0.30005927311E+03  0.19200000000E+03 0.  0.
<mgrwt>
<rscale>  0 0.83328809E+03</rscale>
<asrwt>0</asrwt>
<pdfrwt beam="1">  1        2 0.11009197E+00 0.83328809E+03</pdfrwt>
<pdfrwt beam="2">  1       -2 0.32179450E-01 0.83328809E+03</pdfrwt>
<totfact> 0.35926291E+02</totfact>
</mgrwt>
</event>
<event>
 4    1  0.5812319E-005  0.1081236E+04  0.7818608E-02  0.9223676E-01
          2   -1    0    0  501    0  0.00000000000E+00  0.00000000000E+00  0.14261574922E+03  0.14261574924E+03  0.25500000000E-02 0.  1.
         -2   -1    0    0    0  501 -0.00000000000E+00 -0.00000000000E+00 -0.20493367455E+04  0.20493367455E+04  0.25500000000E-02 0. -1.
    5000001    1    1    2    0    0  0.44621475913E+03 -0.82256978750E+02 -0.50218620758E+03  0.70351176884E+03  0.19200000000E+03 0.  0.
   -5000001    1    1    2    0    0 -0.44621475913E+03  0.82256978750E+02 -0.14045347887E+04  0.14884407259E+04  0.19200000000E+03 0.  0.
<mgrwt>
<rscale>  0 0.10812358E+04</rscale>
<asrwt>0</asrwt>
<pdfrwt beam="1">  1        2 0.20373680E-01 0.10812358E+04</pdfrwt>
<pdfrwt beam="2">  1       -2 0.29276237E+00 0.10812358E+04</pdfrwt>
<totfact> 0.98573716E+00</totfact>
</mgrwt>
</event>
<event>
 4    1  0.5812319E-005  0.8576728E+03  0.7818608E-02  0.9480096E-01
         -2   -1    0    0    0  501 -0.00000000000E+00  0.00000000000E+00  0.13495567781E+03  0.13495567783E+03  0.25500000000E-02 0. -1.
          2   -1    0    0  501    0  0.00000000000E+00 -0.00000000000E+00 -0.13626745494E+04  0.13626745494E+04  0.25500000000E-02 0.  1.
    5000001    1    1    2    0    0  0.22644910762E+03 -0.23438440518E+03 -0.96665815607E+03  0.10380304612E+04  0.19200000000E+03 0.  0.
   -5000001    1    1    2    0    0 -0.22644910762E+03  0.23438440518E+03 -0.26106071555E+03  0.45959976603E+03  0.19200000000E+03 0.  0.
<mgrwt>
<rscale>  0 0.85767282E+03</rscale>
<asrwt>0</asrwt>
<pdfrwt beam="1">  1        2 0.19466779E+00 0.85767282E+03</pdfrwt>
<pdfrwt beam="2">  1       -2 0.19279383E-01 0.85767282E+03</pdfrwt>
<totfact> 0.39571658E+02</totfact>
</mgrwt>
</event>
<event>
 4    1  0.5812319E-005  0.6414256E+03  0.7818608E-02  0.9823003E-01
          2   -1    0    0  501    0  0.00000000000E+00  0.00000000000E+00  0.94001428061E+02  0.94001428096E+02  0.25500000000E-02 0.  1.
         -2   -1    0    0    0  501 -0.00000000000E+00 -0.00000000000E+00 -0.10942035487E+04  0.10942035487E+04  0.25500000000E-02 0. -1.
    5000001    1    1    2    0    0  0.10277868123E+03  0.22597639598E+03 -0.37772883829E+03  0.49109252095E+03  0.19200000000E+03 0.  0.
   -5000001    1    1    2    0    0 -0.10277868123E+03 -0.22597639598E+03 -0.62247328230E+03  0.69711245580E+03  0.19200000000E+03 0.  0.
<mgrwt>
<rscale>  0 0.64142559E+03</rscale>
<asrwt>0</asrwt>
<pdfrwt beam="1">  1        2 0.13428776E-01 0.64142559E+03</pdfrwt>
<pdfrwt beam="2">  1       -2 0.15631478E+00 0.64142559E+03</pdfrwt>
<totfact> 0.12521094E+02</totfact>
</mgrwt>
</event>
<event>
 4    1  0.5812319E-005  0.5322689E+03  0.7818608E-02  0.1005683E+00
         -2   -1    0    0    0  501 -0.00000000000E+00  0.00000000000E+00  0.33515597708E+03  0.33515597709E+03  0.25500000000E-02 0. -1.
          2   -1    0    0  501    0  0.00000000000E+00 -0.00000000000E+00 -0.21132710374E+03  0.21132710376E+03  0.25500000000E-02 0.  1.
    5000001    1    1    2    0    0 -0.13018197506E+02 -0.13926502776E+03  0.18511611938E+03  0.30115809648E+03  0.19200000000E+03 0.  0.
   -5000001    1    1    2    0    0  0.13018197506E+02  0.13926502776E+03 -0.61287246045E+02  0.24532498436E+03  0.19200000000E+03 0.  0.
<mgrwt>
<rscale>  0 0.53226889E+03</rscale>
<asrwt>0</asrwt>
<pdfrwt beam="1">  1        2 0.30189586E-01 0.53226889E+03</pdfrwt>
<pdfrwt beam="2">  1       -2 0.47879425E-01 0.53226889E+03</pdfrwt>
<totfact> 0.73411346E+02</totfact>
</mgrwt>
</event>
<event>
 4    1  0.5812319E-005  0.5402935E+03  0.7818608E-02  0.1003766E+00
         -2   -1    0    0    0  501 -0.00000000000E+00  0.00000000000E+00  0.52264599694E+02  0.52264599756E+02  0.25500000000E-02 0. -1.
          2   -1    0    0  501    0  0.00000000000E+00 -0.00000000000E+00 -0.13963420464E+04  0.13963420464E+04  0.25500000000E-02 0.  1.
    5000001    1    1    2    0    0 -0.10567949847E+03 -0.91614089977E+02 -0.10170010828E+04  0.10443737359E+04  0.19200000000E+03 0.  0.
   -5000001    1    1    2    0    0  0.10567949847E+03  0.91614089977E+02 -0.32707636384E+03  0.40423291017E+03  0.19200000000E+03 0.  0.
<mgrwt>
<rscale>  0 0.54029347E+03</rscale>
<asrwt>0</asrwt>
<pdfrwt beam="1">  1        2 0.19947741E+00 0.54029347E+03</pdfrwt>
<pdfrwt beam="2">  1       -2 0.74663723E-02 0.54029347E+03</pdfrwt>
<totfact> 0.18478765E+03</totfact>
</mgrwt>
</event>
<event>
 4    1  0.5812319E-005  0.7744380E+03  0.7818608E-02  0.9597772E-01
          2   -1    0    0  501    0  0.00000000000E+00  0.00000000000E+00  0.14149932579E+04  0.14149932579E+04  0.25500000000E-02 0.  1.
         -2   -1    0    0    0  501 -0.00000000000E+00 -0.00000000000E+00 -0.10596416084E+03  0.10596416087E+03  0.25500000000E-02 0. -1.
    5000001    1    1    2    0    0 -0.15365807246E+03  0.24182588793E+03  0.10002143932E+04  0.10580091661E+04  0.19200000000E+03 0.  0.
   -5000001    1    1    2    0    0  0.15365807246E+03 -0.24182588793E+03  0.30881470392E+03  0.46294825268E+03  0.19200000000E+03 0.  0.
<mgrwt>
<rscale>  0 0.77443805E+03</rscale>
<asrwt>0</asrwt>
<pdfrwt beam="1">  1        2 0.20214189E+00 0.77443805E+03</pdfrwt>
<pdfrwt beam="2">  1       -2 0.15137738E-01 0.77443805E+03</pdfrwt>
<totfact> 0.56420276E+02</totfact>
</mgrwt>
</event>
<event>
 4    1  0.5812319E-005  0.7327372E+03  0.7818608E-02  0.9662829E-01
         -2   -1    0    0    0  501 -0.00000000000E+00  0.00000000000E+00  0.39018934327E+02  0.39018934410E+02  0.25500000000E-02 0. -1.
          2   -1    0    0  501    0  0.00000000000E+00 -0.00000000000E+00 -0.34400209952E+04  0.34400209952E+04  0.25500000000E-02 0.  1.
    5000001    1    1    2    0    0 -0.10647414566E+03  0.27547162723E+03 -0.12223745131E+04  0.12721182379E+04  0.19200000000E+03 0.  0.
   -5000001    1    1    2    0    0  0.10647414566E+03 -0.27547162723E+03 -0.21786275478E+04  0.22069216916E+04  0.19200000000E+03 0.  0.
<mgrwt>
<rscale>  0 0.73273721E+03</rscale>
<asrwt>0</asrwt>
<pdfrwt beam="1">  1        2 0.49143138E+00 0.73273721E+03</pdfrwt>
<pdfrwt beam="2">  1       -2 0.55741357E-02 0.73273721E+03</pdfrwt>
<totfact> 0.24280459E+02</totfact>
</mgrwt>
</event>
<event>
 4    1  0.5812319E-005  0.6963815E+03  0.7818608E-02  0.9723440E-01
         -2   -1    0    0    0  501 -0.00000000000E+00  0.00000000000E+00  0.38992915385E+03  0.38992915386E+03  0.25500000000E-02 0. -1.
          2   -1    0    0  501    0  0.00000000000E+00 -0.00000000000E+00 -0.31092005493E+03  0.31092005494E+03  0.25500000000E-02 0.  1.
    5000001    1    1    2    0    0 -0.23893473866E+03  0.15297356266E+03 -0.23201473886E+02  0.34335554255E+03  0.19200000000E+03 0.  0.
   -5000001    1    1    2    0    0  0.23893473866E+03 -0.15297356266E+03  0.10221057281E+03  0.35749366625E+03  0.19200000000E+03 0.  0.
<mgrwt>
<rscale>  0 0.69638149E+03</rscale>
<asrwt>0</asrwt>
<pdfrwt beam="1">  1        2 0.44417151E-01 0.69638149E+03</pdfrwt>
<pdfrwt beam="2">  1       -2 0.55704165E-01 0.69638149E+03</pdfrwt>
<totfact> 0.34996302E+02</totfact>
</mgrwt>
</event>
<event>
 4    1  0.5812319E-005  0.4619704E+03  0.7818608E-02  0.1024211E+00
         -2   -1    0    0    0  501 -0.00000000000E+00  0.00000000000E+00  0.26079587596E+03  0.26079587597E+03  0.25500000000E-02 0. -1.
          2   -1    0    0  501    0  0.00000000000E+00 -0.00000000000E+00 -0.20458209067E+03  0.20458209068E+03  0.25500000000E-02 0.  1.
    5000001    1    1    2    0    0  0.18195976119E+02 -0.75848916331E+02  0.13086920230E+03  0.24510181510E+03  0.19200000000E+03 0.  0.
   -5000001    1    1    2    0    0 -0.18195976119E+02  0.75848916331E+02 -0.74655417003E+02  0.22027615155E+03  0.19200000000E+03 0.  0.
<mgrwt>
<rscale>  0 0.46197041E+03</rscale>
<asrwt>0</asrwt>
<pdfrwt beam="1">  1        2 0.29226013E-01 0.46197041E+03</pdfrwt>
<pdfrwt beam="2">  1       -2 0.37256553E-01 0.46197041E+03</pdfrwt>
<totfact> 0.12427224E+03</totfact>
</mgrwt>
</event>
<event>
 4    1  0.5812319E-005  0.8237574E+03  0.7818608E-02  0.9526252E-01
          2   -1    0    0  501    0  0.00000000000E+00  0.00000000000E+00  0.19409006303E+04  0.19409006303E+04  0.25500000000E-02 0.  1.
         -2   -1    0    0    0  501 -0.00000000000E+00 -0.00000000000E+00 -0.87404812526E+02  0.87404812564E+02  0.25500000000E-02 0. -1.
    5000001    1    1    2    0    0 -0.31057044373E+03 -0.91457515521E+02  0.13384801501E+04  0.13903997950E+04  0.19200000000E+03 0.  0.
   -5000001    1    1    2    0    0  0.31057044373E+03  0.91457515521E+02  0.51501566768E+03  0.63790564790E+03  0.19200000000E+03 0.  0.
<mgrwt>
<rscale>  0 0.82375738E+03</rscale>
<asrwt>0</asrwt>
<pdfrwt beam="1">  1        2 0.27727150E+00 0.82375738E+03</pdfrwt>
<pdfrwt beam="2">  1       -2 0.12486403E-01 0.82375738E+03</pdfrwt>
<totfact> 0.41570143E+02</totfact>
</mgrwt>
</event>
<event>
 4    1  0.5812319E-005  0.6155297E+03  0.7818608E-02  0.9873701E-01
          2   -1    0    0  501    0  0.00000000000E+00  0.00000000000E+00  0.14383981967E+04  0.14383981967E+04  0.25500000000E-02 0.  1.
         -2   -1    0    0    0  501 -0.00000000000E+00 -0.00000000000E+00 -0.65850467466E+02  0.65850467515E+02  0.25500000000E-02 0. -1.
    5000001    1    1    2    0    0  0.13032758533E+03 -0.19571110804E+03  0.56245408172E+03  0.63914529753E+03  0.19200000000E+03 0.  0.
   -5000001    1    1    2    0    0 -0.13032758533E+03  0.19571110804E+03  0.81009364749E+03  0.86510336666E+03  0.19200000000E+03 0.  0.
<mgrwt>
<rscale>  0 0.61552967E+03</rscale>
<asrwt>0</asrwt>
<pdfrwt beam="1">  1        2 0.20548548E+00 0.61552967E+03</pdfrwt>
<pdfrwt beam="2">  1       -2 0.94072088E-02 0.61552967E+03</pdfrwt>
<totfact> 0.12109012E+03</totfact>
</mgrwt>
</event>
<event>
 4    1  0.5812319E-005  0.5170576E+03  0.7818608E-02  0.1009420E+00
          2   -1    0    0  501    0  0.00000000000E+00  0.00000000000E+00  0.35614806043E+03  0.35614806044E+03  0.25500000000E-02 0.  1.
         -2   -1    0    0    0  501 -0.00000000000E+00 -0.00000000000E+00 -0.18766671256E+03  0.18766671258E+03  0.25500000000E-02 0. -1.
    5000001    1    1    2    0    0 -0.17139753868E+03  0.34752284215E+01  0.10965607844E+03  0.27978143080E+03  0.19200000000E+03 0.  0.
   -5000001    1    1    2    0    0  0.17139753868E+03 -0.34752284215E+01  0.58825269426E+02  0.26403334222E+03  0.19200000000E+03 0.  0.
<mgrwt>
<rscale>  0 0.51705758E+03</rscale>
<asrwt>0</asrwt>
<pdfrwt beam="1">  1        2 0.50878293E-01 0.51705758E+03</pdfrwt>
<pdfrwt beam="2">  1       -2 0.26809531E-01 0.51705758E+03</pdfrwt>
<totfact> 0.12419059E+03</totfact>
</mgrwt>
</event>
<event>
 4    1  0.5812319E-005  0.6652096E+03  0.7818608E-02  0.9778651E-01
         -2   -1    0    0    0  501 -0.00000000000E+00  0.00000000000E+00  0.60063911269E+02  0.60063911323E+02  0.25500000000E-02 0. -1.
          2   -1    0    0  501    0  0.00000000000E+00 -0.00000000000E+00 -0.18418039985E+04  0.18418039985E+04  0.25500000000E-02 0.  1.
    5000001    1    1    2    0    0 -0.87290187401E+02  0.11145504195E+03 -0.22821051390E+03  0.33013003778E+03  0.19200000000E+03 0.  0.
   -5000001    1    1    2    0    0  0.87290187401E+02 -0.11145504195E+03 -0.15535295733E+04  0.15717378720E+04  0.19200000000E+03 0.  0.
<mgrwt>
<rscale>  0 0.66520960E+03</rscale>
<asrwt>0</asrwt>
<pdfrwt beam="1">  1        2 0.26311482E+00 0.66520960E+03</pdfrwt>
<pdfrwt beam="2">  1       -2 0.85805599E-02 0.66520960E+03</pdfrwt>
<totfact> 0.86908645E+02</totfact>
</mgrwt>
</event>
<event>
 4    1  0.5812319E-005  0.4931946E+03  0.7818608E-02  0.1015571E+00
          2   -1    0    0  501    0  0.00000000000E+00  0.00000000000E+00  0.61123103330E+03  0.61123103330E+03  0.25500000000E-02 0.  1.
         -2   -1    0    0    0  501 -0.00000000000E+00 -0.00000000000E+00 -0.99488136690E+02  0.99488136723E+02  0.25500000000E-02 0. -1.
    5000001    1    1    2    0    0 -0.14032093252E+01  0.11300080161E+03  0.10353454149E+03  0.24567163337E+03  0.19200000000E+03 0.  0.
   -5000001    1    1    2    0    0  0.14032093252E+01 -0.11300080161E+03  0.40820835512E+03  0.46504753666E+03  0.19200000000E+03 0.  0.
<mgrwt>
<rscale>  0 0.49319463E+03</rscale>
<asrwt>0</asrwt>
<pdfrwt beam="1">  1        2 0.87318721E-01 0.49319463E+03</pdfrwt>
<pdfrwt beam="2">  1       -2 0.14212591E-01 0.49319463E+03</pdfrwt>
<totfact> 0.20286169E+03</totfact>
</mgrwt>
</event>
<event>
 4    1  0.5812319E-005  0.1071462E+04  0.7818608E-02  0.9233462E-01
         -2   -1    0    0    0  501 -0.00000000000E+00  0.00000000000E+00  0.35213526528E+03  0.35213526529E+03  0.25500000000E-02 0. -1.
          2   -1    0    0  501    0  0.00000000000E+00 -0.00000000000E+00 -0.81504963822E+03  0.81504963822E+03  0.25500000000E-02 0.  1.
    5000001    1    1    2    0    0  0.22712525522E+03 -0.44429667319E+03 -0.26853160785E+03  0.59829644807E+03  0.19200000000E+03 0.  0.
   -5000001    1    1    2    0    0 -0.22712525522E+03  0.44429667319E+03 -0.19438276509E+03  0.56888845544E+03  0.19200000000E+03 0.  0.
<mgrwt>
<rscale>  0 0.10714620E+04</rscale>
<asrwt>0</asrwt>
<pdfrwt beam="1">  1        2 0.11643566E+00 0.10714620E+04</pdfrwt>
<pdfrwt beam="2">  1       -2 0.50305038E-01 0.10714620E+04</pdfrwt>
<totfact> 0.13788309E+02</totfact>
</mgrwt>
</event>
<event>
 4    1  0.5812319E-005  0.6228734E+03  0.7818608E-02  0.9859055E-01
         -2   -1    0    0    0  501 -0.00000000000E+00  0.00000000000E+00  0.21274849835E+03  0.21274849837E+03  0.25500000000E-02 0. -1.
          2   -1    0    0  501    0  0.00000000000E+00 -0.00000000000E+00 -0.45590366885E+03  0.45590366885E+03  0.25500000000E-02 0.  1.
    5000001    1    1    2    0    0  0.21610859945E+03 -0.11478168085E+03 -0.10456817832E+03  0.32814061762E+03  0.19200000000E+03 0.  0.
   -5000001    1    1    2    0    0 -0.21610859945E+03  0.11478168085E+03 -0.13858699218E+03  0.34051154961E+03  0.19200000000E+03 0.  0.
<mgrwt>
<rscale>  0 0.62287341E+03</rscale>
<asrwt>0</asrwt>
<pdfrwt beam="1">  1        2 0.65129095E-01 0.62287341E+03</pdfrwt>
<pdfrwt beam="2">  1       -2 0.30392643E-01 0.62287341E+03</pdfrwt>
<totfact> 0.74957764E+02</totfact>
</mgrwt>
</event>
<event>
 4    1  0.5812319E-005  0.4578688E+03  0.7818608E-02  0.1025401E+00
          2   -1    0    0  501    0  0.00000000000E+00  0.00000000000E+00  0.14804129744E+04  0.14804129744E+04  0.25500000000E-02 0.  1.
         -2   -1    0    0    0  501 -0.00000000000E+00 -0.00000000000E+00 -0.35402926905E+02  0.35402926997E+02  0.25500000000E-02 0. -1.
    5000001    1    1    2    0    0 -0.70989552942E+02  0.85701344568E+02  0.53632396859E+03  0.58042366972E+03  0.19200000000E+03 0.  0.
   -5000001    1    1    2    0    0  0.70989552942E+02 -0.85701344568E+02  0.90868607887E+03  0.93539223164E+03  0.19200000000E+03 0.  0.
<mgrwt>
<rscale>  0 0.45786877E+03</rscale>
<asrwt>0</asrwt>
<pdfrwt beam="1">  1        2 0.21148760E+00 0.45786877E+03</pdfrwt>
<pdfrwt beam="2">  1       -2 0.50575602E-02 0.45786877E+03</pdfrwt>
<totfact> 0.30724113E+03</totfact>
</mgrwt>
</event>
<event>
 4    1  0.5812319E-005  0.4976430E+03  0.7818608E-02  0.1014396E+00
          2   -1    0    0  501    0  0.00000000000E+00  0.00000000000E+00  0.15510688874E+04  0.15510688874E+04  0.25500000000E-02 0. -1.
         -2   -1    0    0    0  501 -0.00000000000E+00 -0.00000000000E+00 -0.39915790979E+02  0.39915791060E+02  0.25500000000E-02 0.  1.
    5000001    1    1    2    0    0  0.74231722349E+02 -0.12728509212E+03  0.94023981949E+03  0.97088967521E+03  0.19200000000E+03 0.  0.
   -5000001    1    1    2    0    0 -0.74231722349E+02  0.12728509212E+03  0.57091327693E+03  0.62009500325E+03  0.19200000000E+03 0.  0.
<mgrwt>
<rscale>  0 0.49764301E+03</rscale>
<asrwt>0</asrwt>
<pdfrwt beam="1">  1        2 0.22158128E+00 0.49764301E+03</pdfrwt>
<pdfrwt beam="2">  1       -2 0.57022555E-02 0.49764301E+03</pdfrwt>
<totfact> 0.23447848E+03</totfact>
</mgrwt>
</event>
<event>
 4    1  0.5812319E-005  0.5639256E+03  0.7818608E-02  0.9983211E-01
          2   -1    0    0  501    0  0.00000000000E+00  0.00000000000E+00  0.65214418609E+03  0.65214418609E+03  0.25500000000E-02 0.  1.
         -2   -1    0    0    0  501 -0.00000000000E+00 -0.00000000000E+00 -0.12191019935E+03  0.12191019938E+03  0.25500000000E-02 0. -1.
    5000001    1    1    2    0    0 -0.20225787896E+03  0.39135504073E+02  0.24574457154E+03  0.37375691529E+03  0.19200000000E+03 0.  0.
   -5000001    1    1    2    0    0  0.20225787896E+03 -0.39135504073E+02  0.28448941519E+03  0.40029747019E+03  0.19200000000E+03 0.  0.
<mgrwt>
<rscale>  0 0.56392563E+03</rscale>
<asrwt>0</asrwt>
<pdfrwt beam="1">  1        2 0.93163454E-01 0.56392563E+03</pdfrwt>
<pdfrwt beam="2">  1       -2 0.17415743E-01 0.56392563E+03</pdfrwt>
<totfact> 0.13331487E+03</totfact>
</mgrwt>
</event>
<event>
 4    1  0.5812319E-005  0.4231490E+03  0.7818608E-02  0.1036046E+00
         -2   -1    0    0    0  501 -0.00000000000E+00  0.00000000000E+00  0.21387826825E+03  0.21387826826E+03  0.25500000000E-02 0. -1.
          2   -1    0    0  501    0  0.00000000000E+00 -0.00000000000E+00 -0.20929557817E+03  0.20929557818E+03  0.25500000000E-02 0.  1.
    5000001    1    1    2    0    0  0.69157624072E+02 -0.14482370441E+02 -0.51630828353E+02  0.21100298211E+03  0.19200000000E+03 0.  0.
   -5000001    1    1    2    0    0 -0.69157624072E+02  0.14482370441E+02  0.56213518431E+02  0.21217086434E+03  0.19200000000E+03 0.  0.
<mgrwt>
<rscale>  0 0.42314903E+03</rscale>
<asrwt>0</asrwt>
<pdfrwt beam="1">  1        2 0.29899368E-01 0.42314903E+03</pdfrwt>
<pdfrwt beam="2">  1       -2 0.30554038E-01 0.42314903E+03</pdfrwt>
<totfact> 0.17550508E+03</totfact>
</mgrwt>
</event>
<event>
 4    1  0.5812319E-005  0.1113638E+04  0.7818608E-02  0.9192001E-01
          2   -1    0    0  501    0  0.00000000000E+00  0.00000000000E+00  0.21717311218E+04  0.21717311218E+04  0.25500000000E-02 0.  1.
         -2   -1    0    0    0  501 -0.00000000000E+00 -0.00000000000E+00 -0.14276497830E+03  0.14276497832E+03  0.25500000000E-02 0. -1.
    5000001    1    1    2    0    0  0.11100975551E+03 -0.35041067922E+03  0.24221883105E+03  0.48025490320E+03  0.19200000000E+03 0.  0.
   -5000001    1    1    2    0    0 -0.11100975551E+03  0.35041067922E+03  0.17867473124E+04  0.18342411969E+04  0.19200000000E+03 0.  0.
<mgrwt>
<rscale>  0 0.11136375E+04</rscale>
<asrwt>0</asrwt>
<pdfrwt beam="1">  1        2 0.31024728E+00 0.11136375E+04</pdfrwt>
<pdfrwt beam="2">  1       -2 0.20394999E-01 0.11136375E+04</pdfrwt>
<totfact> 0.13431793E+02</totfact>
</mgrwt>
</event>
<event>
 4    1  0.5812319E-005  0.6325127E+03  0.7818608E-02  0.9840158E-01
          2   -1    0    0  501    0  0.00000000000E+00  0.00000000000E+00  0.61216036123E+02  0.61216036177E+02  0.25500000000E-02 0.  1.
         -2   -1    0    0    0  501 -0.00000000000E+00 -0.00000000000E+00 -0.16338542453E+04  0.16338542453E+04  0.25500000000E-02 0. -1.
    5000001    1    1    2    0    0 -0.12272986432E+03  0.14019811386E+03 -0.33440871522E+03  0.42826547787E+03  0.19200000000E+03 0.  0.
   -5000001    1    1    2    0    0  0.12272986432E+03 -0.14019811386E+03 -0.12382294939E+04  0.12668048036E+04  0.19200000000E+03 0.  0.
<mgrwt>
<rscale>  0 0.63251271E+03</rscale>
<asrwt>0</asrwt>
<pdfrwt beam="1">  1        2 0.87451491E-02 0.63251271E+03</pdfrwt>
<pdfrwt beam="2">  1       -2 0.23340772E+00 0.63251271E+03</pdfrwt>
<totfact> 0.66346070E+01</totfact>
</mgrwt>
</event>
<event>
 4    1  0.5812319E-005  0.8472476E+03  0.7818608E-02  0.9494039E-01
         -2   -1    0    0    0  501 -0.00000000000E+00  0.00000000000E+00  0.15305363059E+03  0.15305363061E+03  0.25500000000E-02 0. -1.
          2   -1    0    0  501    0  0.00000000000E+00 -0.00000000000E+00 -0.11725113942E+04  0.11725113942E+04  0.25500000000E-02 0.  1.
    5000001    1    1    2    0    0 -0.24236245729E+03 -0.28928644270E+03 -0.48951527598E+03  0.64723675116E+03  0.19200000000E+03 0.  0.
   -5000001    1    1    2    0    0  0.24236245729E+03  0.28928644270E+03 -0.52994248762E+03  0.67832827364E+03  0.19200000000E+03 0.  0.
<mgrwt>
<rscale>  0 0.84724760E+03</rscale>
<asrwt>0</asrwt>
<pdfrwt beam="1">  1        2 0.16750162E+00 0.84724760E+03</pdfrwt>
<pdfrwt beam="2">  1       -2 0.21864805E-01 0.84724760E+03</pdfrwt>
<totfact> 0.40476910E+02</totfact>
</mgrwt>
</event>
<event>
 4    1  0.5812319E-005  0.4046759E+03  0.7818608E-02  0.1042173E+00
         -2   -1    0    0    0  501 -0.00000000000E+00  0.00000000000E+00  0.70577054310E+03  0.70577054311E+03  0.25500000000E-02 0. -1.
          2   -1    0    0  501    0  0.00000000000E+00 -0.00000000000E+00 -0.58008430262E+02  0.58008430318E+02  0.25500000000E-02 0.  1.
    5000001    1    1    2    0    0  0.33509457675E+02 -0.36773722835E+02  0.24835145432E+03  0.31783271591E+03  0.19200000000E+03 0.  0.
   -5000001    1    1    2    0    0 -0.33509457675E+02  0.36773722835E+02  0.39941065852E+03  0.44594625751E+03  0.19200000000E+03 0.  0.
<mgrwt>
<rscale>  0 0.40467588E+03</rscale>
<asrwt>0</asrwt>
<pdfrwt beam="1">  1        2 0.82869190E-02 0.40467588E+03</pdfrwt>
<pdfrwt beam="2">  1       -2 0.10082436E+00 0.40467588E+03</pdfrwt>
<totfact> 0.68881994E+02</totfact>
</mgrwt>
</event>
<event>
 4    1  0.5812319E-005  0.7802023E+03  0.7818608E-02  0.9589124E-01
          2   -1    0    0  501    0  0.00000000000E+00  0.00000000000E+00  0.72581565700E+03  0.72581565701E+03  0.25500000000E-02 0.  1.
         -2   -1    0    0    0  501 -0.00000000000E+00 -0.00000000000E+00 -0.20966607460E+03  0.20966607461E+03  0.25500000000E-02 0. -1.
    5000001    1    1    2    0    0  0.20378770507E+03 -0.24455882727E+03  0.11632356312E+03  0.38952999893E+03  0.19200000000E+03 0.  0.
   -5000001    1    1    2    0    0 -0.20378770507E+03  0.24455882727E+03  0.39982601928E+03  0.54595173269E+03  0.19200000000E+03 0.  0.
<mgrwt>
<rscale>  0 0.78020233E+03</rscale>
<asrwt>0</asrwt>
<pdfrwt beam="1">  1        2 0.10368795E+00 0.78020233E+03</pdfrwt>
<pdfrwt beam="2">  1       -2 0.29952296E-01 0.78020233E+03</pdfrwt>
<totfact> 0.44381471E+02</totfact>
</mgrwt>
</event>
<event>
 4    1  0.5812319E-005  0.5350681E+03  0.7818608E-02  0.1005010E+00
         -2   -1    0    0    0  501 -0.00000000000E+00  0.00000000000E+00  0.34426758359E+02  0.34426758453E+02  0.25500000000E-02 0.  1.
          2   -1    0    0  501    0  0.00000000000E+00 -0.00000000000E+00 -0.20790355484E+04  0.20790355484E+04  0.25500000000E-02 0. -1.
    5000001    1    1    2    0    0 -0.15173364416E+03  0.57472138925E+02 -0.13839799245E+04  0.14066238221E+04  0.19200000000E+03 0.  0.
   -5000001    1    1    2    0    0  0.15173364416E+03 -0.57472138925E+02 -0.66062886552E+03  0.70683848472E+03  0.19200000000E+03 0.  0.
<mgrwt>
<rscale>  0 0.53506805E+03</rscale>
<asrwt>0</asrwt>
<pdfrwt beam="1">  1        2 0.29700500E+00 0.53506805E+03</pdfrwt>
<pdfrwt beam="2">  1       -2 0.49181097E-02 0.53506805E+03</pdfrwt>
<totfact> 0.15967633E+03</totfact>
</mgrwt>
</event>
<event>
 4    1  0.5812319E-005  0.1708168E+04  0.7818608E-02  0.8756719E-01
         -2   -1    0    0    0  501 -0.00000000000E+00  0.00000000000E+00  0.44578312040E+03  0.44578312041E+03  0.25500000000E-02 0. -1.
          2   -1    0    0  501    0  0.00000000000E+00 -0.00000000000E+00 -0.16363553633E+04  0.16363553633E+04  0.25500000000E-02 0.  1.
    5000001    1    1    2    0    0 -0.53079559688E+03 -0.60761545156E+03 -0.84406475042E+03  0.11833215140E+04  0.19200000000E+03 0.  0.
   -5000001    1    1    2    0    0  0.53079559688E+03  0.60761545156E+03 -0.34650749247E+03  0.89881696968E+03  0.19200000000E+03 0.  0.
<mgrwt>
<rscale>  0 0.17081681E+04</rscale>
<asrwt>0</asrwt>
<pdfrwt beam="1">  1        2 0.23376505E+00 0.17081681E+04</pdfrwt>
<pdfrwt beam="2">  1       -2 0.63683304E-01 0.17081681E+04</pdfrwt>
<totfact> 0.26930382E+01</totfact>
</mgrwt>
</event>
<event>
 4    1  0.5812319E-005  0.4849806E+03  0.7818608E-02  0.1017775E+00
          2   -1    0    0  501    0  0.00000000000E+00  0.00000000000E+00  0.49316574362E+03  0.49316574363E+03  0.25500000000E-02 0.  1.
         -2   -1    0    0    0  501 -0.00000000000E+00 -0.00000000000E+00 -0.11923283131E+03  0.11923283134E+03  0.25500000000E-02 0. -1.
    5000001    1    1    2    0    0 -0.11438698392E+03  0.92381701968E+02  0.20951196718E+03  0.31996566275E+03  0.19200000000E+03 0.  0.
   -5000001    1    1    2    0    0  0.11438698392E+03 -0.92381701968E+02  0.16442094513E+03  0.29243291221E+03  0.19200000000E+03 0.  0.
<mgrwt>
<rscale>  0 0.48498061E+03</rscale>
<asrwt>0</asrwt>
<pdfrwt beam="1">  1        2 0.70452248E-01 0.48498061E+03</pdfrwt>
<pdfrwt beam="2">  1       -2 0.17033262E-01 0.48498061E+03</pdfrwt>
<totfact> 0.19140203E+03</totfact>
</mgrwt>
</event>
<event>
 4    1  0.5812319E-005  0.9526569E+03  0.7818608E-02  0.9362050E-01
         -2   -1    0    0    0  501 -0.00000000000E+00  0.00000000000E+00  0.27979884753E+03  0.27979884754E+03  0.25500000000E-02 0. -1.
          2   -1    0    0  501    0  0.00000000000E+00 -0.00000000000E+00 -0.81089973566E+03  0.81089973566E+03  0.25500000000E-02 0.  1.
    5000001    1    1    2    0    0  0.29613092725E+03 -0.10502715371E+03 -0.61149379450E+03  0.71380171603E+03  0.19200000000E+03 0.  0.
   -5000001    1    1    2    0    0 -0.29613092725E+03  0.10502715371E+03  0.80392906373E+02  0.37689686717E+03  0.19200000000E+03 0.  0.
<mgrwt>
<rscale>  0 0.95265694E+03</rscale>
<asrwt>0</asrwt>
<pdfrwt beam="1">  1        2 0.11584282E+00 0.95265694E+03</pdfrwt>
<pdfrwt beam="2">  1       -2 0.39971264E-01 0.95265694E+03</pdfrwt>
<totfact> 0.22099815E+02</totfact>
</mgrwt>
</event>
<event>
 4    1  0.5812319E-005  0.6305976E+03  0.7818608E-02  0.9843883E-01
          2   -1    0    0  501    0  0.00000000000E+00  0.00000000000E+00  0.11405375259E+04  0.11405375259E+04  0.25500000000E-02 0.  1.
         -2   -1    0    0    0  501 -0.00000000000E+00 -0.00000000000E+00 -0.87163584627E+02  0.87163584664E+02  0.25500000000E-02 0. -1.
    5000001    1    1    2    0    0  0.24082020995E+03  0.63886426317E+02  0.48432308199E+03  0.57750211838E+03  0.19200000000E+03 0.  0.
   -5000001    1    1    2    0    0 -0.24082020995E+03 -0.63886426317E+02  0.56905085932E+03  0.65019899222E+03  0.19200000000E+03 0.  0.
<mgrwt>
<rscale>  0 0.63059762E+03</rscale>
<asrwt>0</asrwt>
<pdfrwt beam="1">  1        2 0.16293392E+00 0.63059762E+03</pdfrwt>
<pdfrwt beam="2">  1       -2 0.12451942E-01 0.63059762E+03</pdfrwt>
<totfact> 0.11146471E+03</totfact>
</mgrwt>
</event>
<event>
 4    1  0.5812319E-005  0.4354264E+03  0.7818608E-02  0.1032159E+00
          2   -1    0    0  501    0  0.00000000000E+00  0.00000000000E+00  0.76643575776E+03  0.76643575777E+03  0.25500000000E-02 0.  1.
         -2   -1    0    0    0  501 -0.00000000000E+00 -0.00000000000E+00 -0.61843465389E+02  0.61843465442E+02  0.25500000000E-02 0. -1.
    5000001    1    1    2    0    0 -0.99611036867E+01  0.83359184272E+02  0.46462519295E+03  0.50969456257E+03  0.19200000000E+03 0.  0.
   -5000001    1    1    2    0    0  0.99611036867E+01 -0.83359184272E+02  0.23996709943E+03  0.31858466064E+03  0.19200000000E+03 0.  0.
<mgrwt>
<rscale>  0 0.43542643E+03</rscale>
<asrwt>0</asrwt>
<pdfrwt beam="1">  1        2 0.10949082E+00 0.43542643E+03</pdfrwt>
<pdfrwt beam="2">  1       -2 0.88347809E-02 0.43542643E+03</pdfrwt>
<totfact> 0.33445800E+03</totfact>
</mgrwt>
</event>
<event>
 4    1  0.5812319E-005  0.6944990E+03  0.7818608E-02  0.9726686E-01
         -2   -1    0    0    0  501 -0.00000000000E+00  0.00000000000E+00  0.14127075886E+04  0.14127075886E+04  0.25500000000E-02 0. -1.
          2   -1    0    0  501    0  0.00000000000E+00 -0.00000000000E+00 -0.85355399478E+02  0.85355399516E+02  0.25500000000E-02 0.  1.
    5000001    1    1    2    0    0 -0.23160324207E+03 -0.27224236659E+02  0.10331351273E+04  0.10763890617E+04  0.19200000000E+03 0.  0.
   -5000001    1    1    2    0    0  0.23160324207E+03  0.27224236659E+02  0.29421706187E+03  0.42167392651E+03  0.19200000000E+03 0.  0.
<mgrwt>
<rscale>  0 0.69449902E+03</rscale>
<asrwt>0</asrwt>
<pdfrwt beam="1">  1        2 0.12193629E-01 0.69449902E+03</pdfrwt>
<pdfrwt beam="2">  1       -2 0.20181536E+00 0.69449902E+03</pdfrwt>
<totfact> 0.68404060E+01</totfact>
</mgrwt>
</event>
<event>
 4    1  0.5812319E-005  0.4362884E+03  0.7818608E-02  0.1031892E+00
          2   -1    0    0  501    0  0.00000000000E+00  0.00000000000E+00  0.50248872676E+03  0.50248872676E+03  0.25500000000E-02 0.  1.
         -2   -1    0    0    0  501 -0.00000000000E+00 -0.00000000000E+00 -0.94702414947E+02  0.94702414981E+02  0.25500000000E-02 0. -1.
    5000001    1    1    2    0    0  0.15020653156E+02 -0.54419792989E+02  0.85069404129E+02  0.21745789802E+03  0.19200000000E+03 0.  0.
   -5000001    1    1    2    0    0 -0.15020653156E+02  0.54419792989E+02  0.32271690768E+03  0.37973324373E+03  0.19200000000E+03 0.  0.
<mgrwt>
<rscale>  0 0.43628842E+03</rscale>
<asrwt>0</asrwt>
<pdfrwt beam="1">  1        2 0.71784103E-01 0.43628842E+03</pdfrwt>
<pdfrwt beam="2">  1       -2 0.13528917E-01 0.43628842E+03</pdfrwt>
<totfact> 0.27541456E+03</totfact>
</mgrwt>
</event>
<event>
 4    1  0.5812319E-005  0.6434943E+03  0.7818608E-02  0.9819064E-01
         -2   -1    0    0    0  501 -0.00000000000E+00  0.00000000000E+00  0.49967511505E+02  0.49967511570E+02  0.25500000000E-02 0. -1.
          2   -1    0    0  501    0  0.00000000000E+00 -0.00000000000E+00 -0.20717706971E+04  0.20717706971E+04  0.25500000000E-02 0.  1.
    5000001    1    1    2    0    0  0.17584091362E+03  0.18641110521E+03 -0.11145463562E+04  0.11596321430E+04  0.19200000000E+03 0.  0.
   -5000001    1    1    2    0    0 -0.17584091362E+03 -0.18641110521E+03 -0.90725682940E+03  0.96210606564E+03  0.19200000000E+03 0.  0.
<mgrwt>
<rscale>  0 0.64349429E+03</rscale>
<asrwt>0</asrwt>
<pdfrwt beam="1">  1        2 0.29596719E+00 0.64349429E+03</pdfrwt>
<pdfrwt beam="2">  1       -2 0.71382172E-02 0.64349429E+03</pdfrwt>
<totfact> 0.89355425E+02</totfact>
</mgrwt>
</event>
<event>
 4    1  0.5812319E-005  0.5024572E+03  0.7818608E-02  0.1013140E+00
         -2   -1    0    0    0  501 -0.00000000000E+00  0.00000000000E+00  0.98727136656E+02  0.98727136689E+02  0.25500000000E-02 0. -1.
          2   -1    0    0  501    0  0.00000000000E+00 -0.00000000000E+00 -0.63929543347E+03  0.63929543348E+03  0.25500000000E-02 0.  1.
    5000001    1    1    2    0    0 -0.15858374102E+03  0.32950913903E+02 -0.26418506837E+03  0.36454398362E+03  0.19200000000E+03 0.  0.
   -5000001    1    1    2    0    0  0.15858374102E+03 -0.32950913903E+02 -0.27638322845E+03  0.37347858655E+03  0.19200000000E+03 0.  0.
<mgrwt>
<rscale>  0 0.50245719E+03</rscale>
<asrwt>0</asrwt>
<pdfrwt beam="1">  1        2 0.91327917E-01 0.50245719E+03</pdfrwt>
<pdfrwt beam="2">  1       -2 0.14103877E-01 0.50245719E+03</pdfrwt>
<totfact> 0.19488439E+03</totfact>
</mgrwt>
</event>
<event>
 4    1  0.5812319E-005  0.4459464E+03  0.7818608E-02  0.1028938E+00
         -2   -1    0    0    0  501 -0.00000000000E+00  0.00000000000E+00  0.29427142568E+02  0.29427142678E+02  0.25500000000E-02 0. -1.
          2   -1    0    0  501    0  0.00000000000E+00 -0.00000000000E+00 -0.16894963694E+04  0.16894963694E+04  0.25500000000E-02 0.  1.
    5000001    1    1    2    0    0 -0.50225029207E+02  0.80101836733E+02 -0.10711889000E+04  0.10923591521E+04  0.19200000000E+03 0.  0.
   -5000001    1    1    2    0    0  0.50225029207E+02 -0.80101836733E+02 -0.58888032690E+03  0.62656436000E+03  0.19200000000E+03 0.  0.
<mgrwt>
<rscale>  0 0.44594641E+03</rscale>
<asrwt>0</asrwt>
<pdfrwt beam="1">  1        2 0.24135656E+00 0.44594641E+03</pdfrwt>
<pdfrwt beam="2">  1       -2 0.42038786E-02 0.44594641E+03</pdfrwt>
<totfact> 0.31931575E+03</totfact>
</mgrwt>
</event>
<event>
 4    1  0.5812319E-005  0.6864399E+03  0.7818608E-02  0.9740707E-01
          2   -1    0    0  501    0  0.00000000000E+00  0.00000000000E+00  0.11255661810E+04  0.11255661810E+04  0.25500000000E-02 0.  1.
         -2   -1    0    0    0  501 -0.00000000000E+00 -0.00000000000E+00 -0.10465837992E+03  0.10465837996E+03  0.25500000000E-02 0. -1.
    5000001    1    1    2    0    0  0.16385135930E+03  0.20416034784E+03  0.71008080519E+03  0.78077363267E+03  0.19200000000E+03 0.  0.
   -5000001    1    1    2    0    0 -0.16385135930E+03 -0.20416034784E+03  0.31082699592E+03  0.44945092832E+03  0.19200000000E+03 0.  0.
<mgrwt>
<rscale>  0 0.68643990E+03</rscale>
<asrwt>0</asrwt>
<pdfrwt beam="1">  1        2 0.16079517E+00 0.68643990E+03</pdfrwt>
<pdfrwt beam="2">  1       -2 0.14951197E-01 0.68643990E+03</pdfrwt>
<totfact> 0.83620801E+02</totfact>
</mgrwt>
</event>
<event>
 4    1  0.5812319E-005  0.5588763E+03  0.7818608E-02  0.9994601E-01
          2   -1    0    0  501    0  0.00000000000E+00  0.00000000000E+00  0.34863701182E+03  0.34863701183E+03  0.25500000000E-02 0. -1.
         -2   -1    0    0    0  501 -0.00000000000E+00 -0.00000000000E+00 -0.22397412760E+03  0.22397412762E+03  0.25500000000E-02 0.  1.
    5000001    1    1    2    0    0  0.12577715365E+03  0.15864382704E+03  0.46661313934E+02  0.28289403397E+03  0.19200000000E+03 0.  0.
   -5000001    1    1    2    0    0 -0.12577715365E+03 -0.15864382704E+03  0.78001570288E+02  0.28971710548E+03  0.19200000000E+03 0.  0.
<mgrwt>
<rscale>  0 0.55887627E+03</rscale>
<asrwt>0</asrwt>
<pdfrwt beam="1">  1        2 0.49805287E-01 0.55887627E+03</pdfrwt>
<pdfrwt beam="2">  1       -2 0.31996304E-01 0.55887627E+03</pdfrwt>
<totfact> 0.91874906E+02</totfact>
</mgrwt>
</event>
<event>
 4    1  0.5812319E-005  0.1046042E+04  0.7818608E-02  0.9259440E-01
          2   -1    0    0  501    0  0.00000000000E+00  0.00000000000E+00  0.97778024205E+03  0.97778024205E+03  0.25500000000E-02 0.  1.
         -2   -1    0    0    0  501 -0.00000000000E+00 -0.00000000000E+00 -0.27976751215E+03  0.27976751217E+03  0.25500000000E-02 0. -1.
    5000001    1    1    2    0    0  0.31476078460E+03 -0.24427846156E+03  0.68463401125E+03  0.81506689766E+03  0.19200000000E+03 0.  0.
   -5000001    1    1    2    0    0 -0.31476078460E+03  0.24427846156E+03  0.13378718640E+02  0.44248085655E+03  0.19200000000E+03 0.  0.
<mgrwt>
<rscale>  0 0.10460423E+04</rscale>
<asrwt>0</asrwt>
<pdfrwt beam="1">  1        2 0.13968289E+00 0.10460423E+04</pdfrwt>
<pdfrwt beam="2">  1       -2 0.39966787E-01 0.10460423E+04</pdfrwt>
<totfact> 0.17081980E+02</totfact>
</mgrwt>
</event>
<event>
 4    1  0.5812319E-005  0.6088174E+03  0.7818608E-02  0.9887280E-01
          2   -1    0    0  501    0  0.00000000000E+00  0.00000000000E+00  0.64311539341E+03  0.64311539341E+03  0.25500000000E-02 0.  1.
         -2   -1    0    0    0  501 -0.00000000000E+00 -0.00000000000E+00 -0.14408714827E+03  0.14408714829E+03  0.25500000000E-02 0. -1.
    5000001    1    1    2    0    0  0.60384628264E+01  0.21716808524E+03  0.36943775076E+03  0.46962398998E+03  0.19200000000E+03 0.  0.
   -5000001    1    1    2    0    0 -0.60384628264E+01 -0.21716808524E+03  0.12959049437E+03  0.31757855172E+03  0.19200000000E+03 0.  0.
<mgrwt>
<rscale>  0 0.60881742E+03</rscale>
<asrwt>0</asrwt>
<pdfrwt beam="1">  1        2 0.91873627E-01 0.60881742E+03</pdfrwt>
<pdfrwt beam="2">  1       -2 0.20583879E-01 0.60881742E+03</pdfrwt>
<totfact> 0.10149272E+03</totfact>
</mgrwt>
</event>
<event>
 4    1  0.5812319E-005  0.6645617E+03  0.7818608E-02  0.9779832E-01
         -2   -1    0    0    0  501 -0.00000000000E+00  0.00000000000E+00  0.62795935856E+02  0.62795935907E+02  0.25500000000E-02 0. -1.
          2   -1    0    0  501    0  0.00000000000E+00 -0.00000000000E+00 -0.17582437286E+04  0.17582437286E+04  0.25500000000E-02 0.  1.
    5000001    1    1    2    0    0  0.19846956236E+03  0.96690533570E+02 -0.41613113777E+03  0.50869278577E+03  0.19200000000E+03 0.  0.
   -5000001    1    1    2    0    0 -0.19846956236E+03 -0.96690533570E+02 -0.12793166550E+04  0.13123468787E+04  0.19200000000E+03 0.  0.
<mgrwt>
<rscale>  0 0.66456169E+03</rscale>
<asrwt>0</asrwt>
<pdfrwt beam="1">  1        2 0.25117765E+00 0.66456169E+03</pdfrwt>
<pdfrwt beam="2">  1       -2 0.89708490E-02 0.66456169E+03</pdfrwt>
<totfact> 0.89202436E+02</totfact>
</mgrwt>
</event>
<event>
 4    1  0.5812319E-005  0.1020437E+04  0.7818608E-02  0.9286409E-01
          2   -1    0    0  501    0  0.00000000000E+00  0.00000000000E+00  0.16373353702E+03  0.16373353704E+03  0.25500000000E-02 0.  1.
         -2   -1    0    0    0  501 -0.00000000000E+00 -0.00000000000E+00 -0.15899194555E+04  0.15899194555E+04  0.25500000000E-02 0. -1.
    5000001    1    1    2    0    0 -0.21359583261E+03 -0.39432347902E+03 -0.45620309031E+03  0.66790676402E+03  0.19200000000E+03 0.  0.
   -5000001    1    1    2    0    0  0.21359583261E+03  0.39432347902E+03 -0.96998282820E+03  0.10857462286E+04  0.19200000000E+03 0.  0.
<mgrwt>
<rscale>  0 0.10204374E+04</rscale>
<asrwt>0</asrwt>
<pdfrwt beam="1">  1        2 0.23390506E-01 0.10204374E+04</pdfrwt>
<pdfrwt beam="2">  1       -2 0.22713134E+00 0.10204374E+04</pdfrwt>
<totfact> 0.21145489E+01</totfact>
</mgrwt>
</event>
<event>
 4    1  0.5812319E-005  0.6640695E+03  0.7818608E-02  0.9780731E-01
          2   -1    0    0  501    0  0.00000000000E+00  0.00000000000E+00  0.13589324851E+03  0.13589324853E+03  0.25500000000E-02 0.  1.
         -2   -1    0    0    0  501 -0.00000000000E+00 -0.00000000000E+00 -0.81127700224E+03  0.81127700224E+03  0.25500000000E-02 0. -1.
    5000001    1    1    2    0    0  0.77182317393E+02  0.22423360816E+03 -0.52445296379E+03  0.60675590839E+03  0.19200000000E+03 0.  0.
   -5000001    1    1    2    0    0 -0.77182317393E+02 -0.22423360816E+03 -0.15093078994E+03  0.34041434238E+03  0.19200000000E+03 0.  0.
<mgrwt>
<rscale>  0 0.66406948E+03</rscale>
<asrwt>0</asrwt>
<pdfrwt beam="1">  1        2 0.19413322E-01 0.66406948E+03</pdfrwt>
<pdfrwt beam="2">  1       -2 0.11589671E+00 0.66406948E+03</pdfrwt>
<totfact> 0.17225742E+02</totfact>
</mgrwt>
</event>
<event>
 4    1  0.5812319E-005  0.5506320E+03  0.7818608E-02  0.1001348E+00
         -2   -1    0    0    0  501 -0.00000000000E+00  0.00000000000E+00  0.13763594306E+03  0.13763594309E+03  0.25500000000E-02 0. -1.
          2   -1    0    0  501    0  0.00000000000E+00 -0.00000000000E+00 -0.55072029388E+03  0.55072029389E+03  0.25500000000E-02 0.  1.
    5000001    1    1    2    0    0  0.90324812729E+02 -0.11658022571E+03 -0.42660108556E+02  0.24583206805E+03  0.19200000000E+03 0.  0.
   -5000001    1    1    2    0    0 -0.90324812729E+02  0.11658022571E+03 -0.37042424227E+03  0.44252416892E+03  0.19200000000E+03 0.  0.
<mgrwt>
<rscale>  0 0.55063203E+03</rscale>
<asrwt>0</asrwt>
<pdfrwt beam="1">  1        2 0.78674327E-01 0.55063203E+03</pdfrwt>
<pdfrwt beam="2">  1       -2 0.19662278E-01 0.55063203E+03</pdfrwt>
<totfact> 0.13194095E+03</totfact>
</mgrwt>
</event>
<event>
 4    1  0.5812319E-005  0.5727175E+03  0.7818608E-02  0.9963683E-01
          2   -1    0    0  501    0  0.00000000000E+00  0.00000000000E+00  0.43399814680E+03  0.43399814681E+03  0.25500000000E-02 0.  1.
         -2   -1    0    0    0  501 -0.00000000000E+00 -0.00000000000E+00 -0.18894397558E+03  0.18894397559E+03  0.25500000000E-02 0. -1.
    5000001    1    1    2    0    0  0.11170429801E+01 -0.16100156137E+03  0.27329979585E+03  0.37078232018E+03  0.19200000000E+03 0.  0.
   -5000001    1    1    2    0    0 -0.11170429801E+01  0.16100156137E+03 -0.28245624623E+02  0.25215980222E+03  0.19200000000E+03 0.  0.
<mgrwt>
<rscale>  0 0.57271751E+03</rscale>
<asrwt>0</asrwt>
<pdfrwt beam="1">  1        2 0.61999734E-01 0.57271751E+03</pdfrwt>
<pdfrwt beam="2">  1       -2 0.26991997E-01 0.57271751E+03</pdfrwt>
<totfact> 0.98525701E+02</totfact>
</mgrwt>
</event>
<event>
 4    1  0.5812319E-005  0.8512212E+03  0.7818608E-02  0.9488699E-01
          2   -1    0    0  501    0  0.00000000000E+00  0.00000000000E+00  0.70661931990E+03  0.70661931990E+03  0.25500000000E-02 0.  1.
         -2   -1    0    0    0  501 -0.00000000000E+00 -0.00000000000E+00 -0.25635358330E+03  0.25635358332E+03  0.25500000000E-02 0. -1.
    5000001    1    1    2    0    0 -0.18610725824E+03  0.19763799026E+03  0.52568779811E+03  0.62201957192E+03  0.19200000000E+03 0.  0.
   -5000001    1    1    2    0    0  0.18610725824E+03 -0.19763799026E+03 -0.75422061519E+02  0.34095333130E+03  0.19200000000E+03 0.  0.
<mgrwt>
<rscale>  0 0.85122123E+03</rscale>
<asrwt>0</asrwt>
<pdfrwt beam="1">  1        2 0.10094562E+00 0.85122123E+03</pdfrwt>
<pdfrwt beam="2">  1       -2 0.36621941E-01 0.85122123E+03</pdfrwt>
<totfact> 0.31316168E+02</totfact>
</mgrwt>
</event>
<event>
 4    1  0.5812319E-005  0.8708832E+03  0.7818608E-02  0.9462729E-01
         -2   -1    0    0    0  501 -0.00000000000E+00  0.00000000000E+00  0.16023281715E+03  0.16023281717E+03  0.25500000000E-02 0. -1.
          2   -1    0    0  501    0  0.00000000000E+00 -0.00000000000E+00 -0.11833367084E+04  0.11833367084E+04  0.25500000000E-02 0.  1.
    5000001    1    1    2    0    0 -0.25928309882E+03  0.62402648258E+01 -0.60497236293E+02  0.32831476031E+03  0.19200000000E+03 0.  0.
   -5000001    1    1    2    0    0  0.25928309882E+03 -0.62402648258E+01 -0.96260665492E+03  0.10152547652E+04  0.19200000000E+03 0.  0.
<mgrwt>
<rscale>  0 0.87088317E+03</rscale>
<asrwt>0</asrwt>
<pdfrwt beam="1">  1        2 0.16904810E+00 0.87088317E+03</pdfrwt>
<pdfrwt beam="2">  1       -2 0.22890403E-01 0.87088317E+03</pdfrwt>
<totfact> 0.36739688E+02</totfact>
</mgrwt>
</event>
<event>
 4    1  0.5812319E-005  0.6005133E+03  0.7818608E-02  0.9904342E-01
          2   -1    0    0  501    0  0.00000000000E+00  0.00000000000E+00  0.32513081477E+03  0.32513081478E+03  0.25500000000E-02 0.  1.
         -2   -1    0    0    0  501 -0.00000000000E+00 -0.00000000000E+00 -0.27728548025E+03  0.27728548026E+03  0.25500000000E-02 0. -1.
    5000001    1    1    2    0    0  0.13205456974E+03  0.17144204501E+03  0.10454693843E+03  0.30761151884E+03  0.19200000000E+03 0.  0.
   -5000001    1    1    2    0    0 -0.13205456974E+03 -0.17144204501E+03 -0.56701603905E+02  0.29480477620E+03  0.19200000000E+03 0.  0.
<mgrwt>
<rscale>  0 0.60051329E+03</rscale>
<asrwt>0</asrwt>
<pdfrwt beam="1">  1        2 0.46447259E-01 0.60051329E+03</pdfrwt>
<pdfrwt beam="2">  1       -2 0.39612211E-01 0.60051329E+03</pdfrwt>
<totfact> 0.66111022E+02</totfact>
</mgrwt>
</event>
<event>
 4    1  0.5812319E-005  0.5126328E+03  0.7818608E-02  0.1010533E+00
          2   -1    0    0  501    0  0.00000000000E+00  0.00000000000E+00  0.13427063277E+04  0.13427063277E+04  0.25500000000E-02 0.  1.
         -2   -1    0    0    0  501 -0.00000000000E+00 -0.00000000000E+00 -0.48929601607E+02  0.48929601674E+02  0.25500000000E-02 0. -1.
    5000001    1    1    2    0    0  0.12417874978E+03 -0.11535505009E+03  0.67496090701E+03  0.72191646017E+03  0.19200000000E+03 0.  0.
   -5000001    1    1    2    0    0 -0.12417874978E+03  0.11535505009E+03  0.61881581906E+03  0.66971946918E+03  0.19200000000E+03 0.  0.
<mgrwt>
<rscale>  0 0.51263276E+03</rscale>
<asrwt>0</asrwt>
<pdfrwt beam="1">  1        2 0.19181518E+00 0.51263276E+03</pdfrwt>
<pdfrwt beam="2">  1       -2 0.69899434E-02 0.51263276E+03</pdfrwt>
<totfact> 0.21910961E+03</totfact>
</mgrwt>
</event>
<event>
 4    1  0.5812319E-005  0.4835977E+03  0.7818608E-02  0.1018151E+00
          2   -1    0    0  501    0  0.00000000000E+00  0.00000000000E+00  0.84855223486E+03  0.84855223487E+03  0.25500000000E-02 0.  1.
         -2   -1    0    0    0  501 -0.00000000000E+00 -0.00000000000E+00 -0.68901694773E+02  0.68901694820E+02  0.25500000000E-02 0. -1.
    5000001    1    1    2    0    0 -0.12174434775E+03 -0.71928114038E+02  0.31376552059E+03  0.39409153976E+03  0.19200000000E+03 0.  0.
   -5000001    1    1    2    0    0  0.12174434775E+03  0.71928114038E+02  0.46588501950E+03  0.52336238993E+03  0.19200000000E+03 0.  0.
<mgrwt>
<rscale>  0 0.48359771E+03</rscale>
<asrwt>0</asrwt>
<pdfrwt beam="1">  1        2 0.12122175E+00 0.48359771E+03</pdfrwt>
<pdfrwt beam="2">  1       -2 0.98430995E-02 0.48359771E+03</pdfrwt>
<totfact> 0.24739197E+03</totfact>
</mgrwt>
</event>
<event>
 4    1  0.5812319E-005  0.8796582E+03  0.7818608E-02  0.9451373E-01
          2   -1    0    0  501    0  0.00000000000E+00  0.00000000000E+00  0.28483913072E+04  0.28483913072E+04  0.25500000000E-02 0.  1.
         -2   -1    0    0    0  501 -0.00000000000E+00 -0.00000000000E+00 -0.67915402463E+02  0.67915402511E+02  0.25500000000E-02 0. -1.
    5000001    1    1    2    0    0  0.21006494549E+02  0.34721340283E+03  0.76482585023E+03  0.86187064059E+03  0.19200000000E+03 0.  0.
   -5000001    1    1    2    0    0 -0.21006494549E+02 -0.34721340283E+03  0.20156500545E+04  0.20544360691E+04  0.19200000000E+03 0.  0.
<mgrwt>
<rscale>  0 0.87965821E+03</rscale>
<asrwt>0</asrwt>
<pdfrwt beam="1">  1        2 0.40691304E+00 0.87965821E+03</pdfrwt>
<pdfrwt beam="2">  1       -2 0.97022005E-02 0.87965821E+03</pdfrwt>
<totfact> 0.21258023E+02</totfact>
</mgrwt>
</event>
