<event>
 8    1  0.5361529E-011  0.1898504E+04  0.7818608E-02  0.8655601E-01
         -4   -1    0    0    0  501 -0.00000000000E+00  0.00000000000E+00  0.35219357264E+04  0.35219359554E+04  0.12700000000E+01 0. -1.
          4   -1    0    0  501    0  0.00000000000E+00 -0.00000000000E+00 -0.25584593209E+03  0.25584908416E+03  0.12700000000E+01 0.  1.
     200001    2    1    2    0    0  0.39875253563E+03  0.46423572326E+03  0.20133830358E+04  0.22177233054E+04  0.70004786920E+03 0.  0.
    5000001    2    3    3    0    0  0.20697675695E+03  0.15719495074E+03  0.79337097403E+03  0.85043349850E+03  0.16201852509E+03 0.  0.
        -11    1    4    4    0    0  0.21973331666E+03  0.10699366374E+03  0.59530279034E+03  0.64351828778E+03  0.51100000000E-03 0. -1.
     200002    1    4    4    0    0 -0.12756559706E+02  0.50201287000E+02  0.19806818369E+03  0.20691521071E+03  0.30000000000E+02 0. -1.
     200000    1    3    3    0    0  0.19177577867E+03  0.30704077253E+03  0.12200120618E+04  0.13672898069E+04  0.50000000000E+03 0.  1.
    -200001    1    1    2    0    0 -0.39875253563E+03 -0.46423572326E+03  0.12527067585E+04  0.15600617341E+04  0.70000000000E+03 0.  1.
<mgrwt>
<rscale>  0 0.18985040E+04</rscale>
<asrwt>0</asrwt>
<pdfrwt beam="1">  1        4 0.36549658E-01 0.18985040E+04</pdfrwt>
<pdfrwt beam="2">  1       -4 0.50313395E+00 0.18985040E+04</pdfrwt>
<totfact> 0.15878512E-02</totfact>
</mgrwt>
</event>
<event>
 8    1  0.5361529E-011  0.2173286E+04  0.7818608E-02  0.8529630E-01
          4   -1    0    0  501    0  0.00000000000E+00  0.00000000000E+00  0.92423941834E+03  0.92424029090E+03  0.12700000000E+01 0.  1.
         -4   -1    0    0    0  501 -0.00000000000E+00 -0.00000000000E+00 -0.12775814671E+04  0.12775820984E+04  0.12700000000E+01 0. -1.
     200001    2    1    2    0    0 -0.81323540212E+03  0.42435767148E+02 -0.34555610547E+03  0.11279447265E+04  0.69978401701E+03 0.  0.
    5000001    2    3    3    0    0 -0.18103295679E+03  0.43115523874E+02 -0.87422048611E+02  0.28159161744E+03  0.19240411790E+03 0.  0.
        -11    1    4    4    0    0 -0.17725532273E+03  0.45746849880E+02 -0.13339090781E+03  0.22650686082E+03  0.51100000000E-03 0. -1.
     200002    1    4    4    0    0 -0.37776340642E+01 -0.26313260066E+01  0.45968859201E+02  0.55084756620E+02  0.30000000000E+02 0. -1.
     200000    1    3    3    0    0 -0.63220244533E+03 -0.67975672521E+00 -0.25813405686E+03  0.84635310909E+03  0.50000000000E+03 0. -1.
    -200001    1    1    2    0    0  0.81323540212E+03 -0.42435767148E+02 -0.77859433116E+01  0.10738776627E+04  0.70000000000E+03 0. -1.
<mgrwt>
<rscale>  0 0.21732858E+04</rscale>
<asrwt>0</asrwt>
<pdfrwt beam="1">  1        4 0.13203431E+00 0.21732858E+04</pdfrwt>
<pdfrwt beam="2">  1       -4 0.18251175E+00 0.21732858E+04</pdfrwt>
<totfact> 0.13267167E-01</totfact>
</mgrwt>
</event>
<event>
 8    1  0.5361529E-011  0.1571825E+04  0.7818608E-02  0.8838046E-01
          4   -1    0    0  501    0  0.00000000000E+00  0.00000000000E+00  0.38919251415E+03  0.38919458625E+03  0.12700000000E+01 0.  1.
         -4   -1    0    0    0  501 -0.00000000000E+00 -0.00000000000E+00 -0.15870188756E+04  0.15870193838E+04  0.12700000000E+01 0. -1.
     200001    2    1    2    0    0 -0.10723945441E+03  0.22322629910E+03 -0.92301364702E+03  0.11844739185E+04  0.69978138716E+03 0.  0.
    5000001    2    3    3    0    0 -0.68203150424E+02  0.12946396168E+03 -0.25557129936E+03  0.34435815481E+03  0.17847482350E+03 0.  0.
        -11    1    4    4    0    0  0.10829259402E+02  0.97642428639E+02 -0.23058430582E+03  0.25064005829E+03  0.51100000000E-03 0. -1.
     200002    1    4    4    0    0 -0.79032409826E+02  0.31821533045E+02 -0.24986993539E+02  0.93718096514E+02  0.30000000000E+02 0. -1.
     200000    1    3    3    0    0 -0.39036303987E+02  0.93762337418E+02 -0.66744234766E+03  0.84011576369E+03  0.50000000000E+03 0. -1.
    -200001    1    1    2    0    0  0.10723945441E+03 -0.22322629910E+03 -0.27481271447E+03  0.79174005155E+03  0.70000000000E+03 0.  1.
<mgrwt>
<rscale>  0 0.15718249E+04</rscale>
<asrwt>0</asrwt>
<pdfrwt beam="1">  1        4 0.55599116E-01 0.15718249E+04</pdfrwt>
<pdfrwt beam="2">  1       -4 0.22671716E+00 0.15718249E+04</pdfrwt>
<totfact> 0.52791359E-01</totfact>
</mgrwt>
</event>
<event>
 8    1  0.5361529E-011  0.1499649E+04  0.7818608E-02  0.8884686E-01
         -4   -1    0    0    0  501 -0.00000000000E+00  0.00000000000E+00  0.93769951716E+03  0.93770037719E+03  0.12700000000E+01 0. -1.
          4   -1    0    0  501    0  0.00000000000E+00 -0.00000000000E+00 -0.59958968930E+03  0.59959103430E+03  0.12700000000E+01 0.  1.
     200001    2    1    2    0    0 -0.96439463456E+02 -0.20545150701E+03  0.31598702757E+03  0.80108470808E+03  0.70026995943E+03 0.  0.
    5000001    2    3    3    0    0 -0.78424881241E+02 -0.88565211475E+02  0.58751441602E+02  0.22649174089E+03  0.18399053813E+03 0.  0.
        -11    1    4    4    0    0 -0.78506903250E+02 -0.40943934213E+02  0.11618504901E+03  0.14607773691E+03  0.51100000000E-03 0. -1.
     200002    1    4    4    0    0  0.82022008837E-01 -0.47621277262E+02 -0.57433607412E+02  0.80414003979E+02  0.30000000000E+02 0. -1.
     200000    1    3    3    0    0 -0.18014582215E+02 -0.11688629554E+03  0.25723558597E+03  0.57459296719E+03  0.50000000000E+03 0. -1.
    -200001    1    1    2    0    0  0.96439463456E+02  0.20545150701E+03  0.22122800285E+02  0.73620670340E+03  0.70000000000E+03 0.  1.
<mgrwt>
<rscale>  0 0.14996488E+04</rscale>
<asrwt>0</asrwt>
<pdfrwt beam="1">  1        4 0.85655828E-01 0.14996488E+04</pdfrwt>
<pdfrwt beam="2">  1       -4 0.13395723E+00 0.14996488E+04</pdfrwt>
<totfact> 0.92414679E-01</totfact>
</mgrwt>
</event>
<event>
 8    1  0.5361529E-011  0.1728296E+04  0.7818608E-02  0.8745389E-01
         -4   -1    0    0    0  501 -0.00000000000E+00  0.00000000000E+00  0.70654671324E+03  0.70654785463E+03  0.12700000000E+01 0. -1.
          4   -1    0    0  501    0  0.00000000000E+00 -0.00000000000E+00 -0.10569007358E+04  0.10569014988E+04  0.12700000000E+01 0.  1.
     200001    2    1    2    0    0 -0.14833282373E+03  0.47659949042E+03 -0.13252938264E+03  0.87654615997E+03  0.70825096712E+03 0.  0.
    5000001    2    3    3    0    0  0.55274153188E+02  0.77630252395E+02  0.44141126395E+02  0.18239579967E+03  0.14912444669E+03 0.  0.
        -11    1    4    4    0    0 -0.20429292133E+02 -0.12398668215E+02  0.55545894287E+02  0.60468415912E+02  0.51100000000E-03 0. -1.
     200002    1    4    4    0    0  0.75703445321E+02  0.90028920611E+02 -0.11404767891E+02  0.12192738376E+03  0.30000000000E+02 0. -1.
     200000    1    3    3    0    0 -0.20360697692E+03  0.39896923802E+03 -0.17667050904E+03  0.69415036030E+03  0.50000000000E+03 0. -1.
    -200001    1    1    2    0    0  0.14833282373E+03 -0.47659949042E+03 -0.21782463992E+03  0.88690319349E+03  0.70000000000E+03 0.  1.
<mgrwt>
<rscale>  0 0.17282956E+04</rscale>
<asrwt>0</asrwt>
<pdfrwt beam="1">  1        4 0.15098595E+00 0.17282956E+04</pdfrwt>
<pdfrwt beam="2">  1       -4 0.10093538E+00 0.17282956E+04</pdfrwt>
<totfact> 0.45216637E-01</totfact>
</mgrwt>
</event>
<event>
 8    1  0.5361529E-011  0.1589446E+04  0.7818608E-02  0.8827058E-01
         -4   -1    0    0    0  501 -0.00000000000E+00  0.00000000000E+00  0.44115409782E+03  0.44115592586E+03  0.12700000000E+01 0. -1.
          4   -1    0    0  501    0  0.00000000000E+00 -0.00000000000E+00 -0.14316598259E+04  0.14316603892E+04  0.12700000000E+01 0.  1.
     200001    2    1    2    0    0  0.13868214563E+03  0.52846852500E+01 -0.90747702163E+03  0.11543774301E+04  0.69986573059E+03 0.  0.
    5000001    2    3    3    0    0 -0.52416233422E+02  0.21267680134E+02 -0.31755057699E+03  0.35764205576E+03  0.15449820502E+03 0.  0.
        -11    1    4    4    0    0 -0.88596458631E+02  0.54645760032E+02 -0.17139221385E+03  0.20052626397E+03  0.51100000000E-03 0. -1.
     200002    1    4    4    0    0  0.36180225209E+02 -0.33378079898E+02 -0.14615836314E+03  0.15711579179E+03  0.30000000000E+02 0. -1.
     200000    1    3    3    0    0  0.19109837905E+03 -0.15982994884E+02 -0.58992644463E+03  0.79673537431E+03  0.50000000000E+03 0.  1.
    -200001    1    1    2    0    0 -0.13868214563E+03 -0.52846852500E+01 -0.83028706488E+02  0.71843888502E+03  0.70000000000E+03 0. -1.
<mgrwt>
<rscale>  0 0.15894462E+04</rscale>
<asrwt>0</asrwt>
<pdfrwt beam="1">  1        4 0.20452300E+00 0.15894462E+04</pdfrwt>
<pdfrwt beam="2">  1       -4 0.63022186E-01 0.15894462E+04</pdfrwt>
<totfact> 0.55940273E-01</totfact>
</mgrwt>
</event>
<event>
 8    1  0.5361529E-011  0.1639316E+04  0.7818608E-02  0.8796752E-01
         -4   -1    0    0    0  501 -0.00000000000E+00  0.00000000000E+00  0.61103318529E+03  0.61103450510E+03  0.12700000000E+01 0. -1.
          4   -1    0    0  501    0  0.00000000000E+00 -0.00000000000E+00 -0.10995112903E+04  0.10995120238E+04  0.12700000000E+01 0.  1.
     200001    2    1    2    0    0  0.16022128753E+03  0.22094465457E+03 -0.58734564080E+03  0.95274563751E+03  0.69875743049E+03 0.  0.
    5000001    2    3    3    0    0  0.55637190573E+02 -0.74213103356E+01 -0.26463970240E+03  0.30681377582E+03  0.14474096907E+03 0.  0.
        -11    1    4    4    0    0  0.89733759667E+02 -0.17984728141E+02 -0.23336488814E+03  0.25066864401E+03  0.51100000000E-03 0. -1.
     200002    1    4    4    0    0 -0.34096569093E+02  0.10563417806E+02 -0.31274814254E+02  0.56145131813E+02  0.30000000000E+02 0. -1.
     200000    1    3    3    0    0  0.10458409695E+03  0.22836596491E+03 -0.32270593840E+03  0.64593186169E+03  0.50000000000E+03 0.  1.
    -200001    1    1    2    0    0 -0.16022128753E+03 -0.22094465457E+03  0.98867535752E+02  0.75780089139E+03  0.70000000000E+03 0. -1.
<mgrwt>
<rscale>  0 0.16393165E+04</rscale>
<asrwt>0</asrwt>
<pdfrwt beam="1">  1        4 0.15707319E+00 0.16393165E+04</pdfrwt>
<pdfrwt beam="2">  1       -4 0.87290602E-01 0.16393165E+04</pdfrwt>
<totfact> 0.57548021E-01</totfact>
</mgrwt>
</event>
<event>
 8    1  0.5361529E-011  0.1469538E+04  0.7818608E-02  0.8904967E-01
         -4   -1    0    0    0  501 -0.00000000000E+00  0.00000000000E+00  0.51778250606E+03  0.51778406356E+03  0.12700000000E+01 0. -1.
          4   -1    0    0  501    0  0.00000000000E+00 -0.00000000000E+00 -0.10426838945E+04  0.10426846680E+04  0.12700000000E+01 0.  1.
     200001    2    1    2    0    0  0.19512150184E+03  0.10356574147E+03 -0.22773077668E+03  0.76856682107E+03  0.70002527705E+03 0.  0.
    5000001    2    3    3    0    0  0.35802132646E+02  0.40498967857E+02 -0.12057959179E+03  0.22926963421E+03  0.18735839483E+03 0.  0.
        -11    1    4    4    0    0 -0.23037293488E+02  0.55609062066E+02  0.27688314466E+02  0.66255018175E+02  0.51100000000E-03 0. -1.
     200002    1    4    4    0    0  0.58839426134E+02 -0.15110094209E+02 -0.14826790625E+03  0.16301461603E+03  0.30000000000E+02 0. -1.
     200000    1    3    3    0    0  0.15931936919E+03  0.63066773609E+02 -0.10715118490E+03  0.53929718686E+03  0.50000000000E+03 0. -1.
    -200001    1    1    2    0    0 -0.19512150184E+03 -0.10356574147E+03 -0.29717061179E+03  0.79190191046E+03  0.70000000000E+03 0. -1.
<mgrwt>
<rscale>  0 0.14695377E+04</rscale>
<asrwt>0</asrwt>
<pdfrwt beam="1">  1        4 0.14895501E+00 0.14695377E+04</pdfrwt>
<pdfrwt beam="2">  1       -4 0.73969097E-01 0.14695377E+04</pdfrwt>
<totfact> 0.97841247E-01</totfact>
</mgrwt>
</event>
<event>
 8    1  0.5361529E-011  0.2083816E+04  0.7818608E-02  0.8568406E-01
         -4   -1    0    0    0  501 -0.00000000000E+00  0.00000000000E+00  0.14423345613E+04  0.14423351204E+04  0.12700000000E+01 0. -1.
          4   -1    0    0  501    0  0.00000000000E+00 -0.00000000000E+00 -0.75264843426E+03  0.75264950574E+03  0.12700000000E+01 0.  1.
     200001    2    1    2    0    0 -0.67881279373E+03 -0.11712386222E+03  0.71004696382E+03  0.12126815305E+04  0.70137364901E+03 0.  0.
    5000001    2    3    3    0    0 -0.20418567260E+03 -0.63501605573E+01  0.30996244048E+03  0.40793974401E+03  0.16913310379E+03 0.  0.
        -11    1    4    4    0    0 -0.12245063594E+02  0.57331174984E+02  0.48824877594E+02  0.76293340992E+02  0.51100000000E-03 0. -1.
     200002    1    4    4    0    0 -0.19194060900E+03 -0.63681335541E+02  0.26113756289E+03  0.33164640301E+03  0.30000000000E+02 0. -1.
     200000    1    3    3    0    0 -0.47462712114E+03 -0.11077370166E+03  0.40008452333E+03  0.80474178648E+03  0.50000000000E+03 0. -1.
    -200001    1    1    2    0    0  0.67881279373E+03  0.11712386222E+03 -0.20360836818E+02  0.98230309564E+03  0.70000000000E+03 0.  1.
<mgrwt>
<rscale>  0 0.20838163E+04</rscale>
<asrwt>0</asrwt>
<pdfrwt beam="1">  1        4 0.10752132E+00 0.20838163E+04</pdfrwt>
<pdfrwt beam="2">  1       -4 0.20604791E+00 0.20838163E+04</pdfrwt>
<totfact> 0.15485193E-01</totfact>
</mgrwt>
</event>
<event>
 8    1  0.5361529E-011  0.1531181E+04  0.7818608E-02  0.8863979E-01
          4   -1    0    0  501    0  0.00000000000E+00  0.00000000000E+00  0.16436064543E+04  0.16436069450E+04  0.12700000000E+01 0.  1.
         -4   -1    0    0    0  501 -0.00000000000E+00 -0.00000000000E+00 -0.35660962884E+03  0.35661189027E+03  0.12700000000E+01 0. -1.
     200001    2    1    2    0    0  0.22337827414E+03  0.20594475277E+03  0.73021053925E+03  0.10555908328E+04  0.69910906162E+03 0.  0.
    5000001    2    3    3    0    0  0.81388372372E+02 -0.29668351247E+02  0.20404975640E+03  0.27936932031E+03  0.17001951600E+03 0.  0.
        -11    1    4    4    0    0 -0.25398238594E+02 -0.14431620574E+02  0.15397114614E+03  0.15671775917E+03  0.51100000000E-03 0. -1.
     200002    1    4    4    0    0  0.10678661097E+03 -0.15236730673E+02  0.50078610253E+02  0.12265156113E+03  0.30000000000E+02 0. -1.
     200000    1    3    3    0    0  0.14198990176E+03  0.23561310402E+03  0.52616078285E+03  0.77622151246E+03  0.50000000000E+03 0.  1.
    -200001    1    1    2    0    0 -0.22337827414E+03 -0.20594475277E+03  0.55678628623E+03  0.94462800249E+03  0.70000000000E+03 0.  1.
<mgrwt>
<rscale>  0 0.15311808E+04</rscale>
<asrwt>0</asrwt>
<pdfrwt beam="1">  1        4 0.23480111E+00 0.15311808E+04</pdfrwt>
<pdfrwt beam="2">  1       -4 0.50944430E-01 0.15311808E+04</pdfrwt>
<totfact> 0.56628328E-01</totfact>
</mgrwt>
</event>
<event>
 8    1  0.5361529E-011  0.1951046E+04  0.7818608E-02  0.8629856E-01
         -4   -1    0    0    0  501 -0.00000000000E+00  0.00000000000E+00  0.45787979818E+03  0.45788155945E+03  0.12700000000E+01 0. -1.
          4   -1    0    0  501    0  0.00000000000E+00 -0.00000000000E+00 -0.20783675681E+04  0.20783679561E+04  0.12700000000E+01 0.  1.
     200001    2    1    2    0    0  0.40772958911E+03 -0.51092831455E+03 -0.10513271895E+04  0.14221422825E+04  0.69993474831E+03 0.  0.
    5000001    2    3    3    0    0  0.96171437617E+01 -0.12596843481E+03 -0.19328687886E+03  0.28507552861E+03  0.16717566644E+03 0.  0.
        -11    1    4    4    0    0  0.43077759832E+02  0.26508817280E+02 -0.46501440227E+02  0.68708039771E+02  0.51100000000E-03 0. -1.
     200002    1    4    4    0    0 -0.33460616071E+02 -0.15247725209E+03 -0.14678543863E+03  0.21636748884E+03  0.30000000000E+02 0. -1.
     200000    1    3    3    0    0  0.39811244535E+03 -0.38495987974E+03 -0.85804031059E+03  0.11370667539E+04  0.50000000000E+03 0.  1.
    -200001    1    1    2    0    0 -0.40772958911E+03  0.51092831455E+03 -0.56916058043E+03  0.11141072331E+04  0.70000000000E+03 0. -1.
<mgrwt>
<rscale>  0 0.19510461E+04</rscale>
<asrwt>0</asrwt>
<pdfrwt beam="1">  1        4 0.29690980E+00 0.19510461E+04</pdfrwt>
<pdfrwt beam="2">  1       -4 0.65411554E-01 0.19510461E+04</pdfrwt>
<totfact> 0.13214136E-01</totfact>
</mgrwt>
</event>
<event>
 8    1  0.5361529E-011  0.1688849E+04  0.7818608E-02  0.8767750E-01
         -4   -1    0    0    0  501 -0.00000000000E+00  0.00000000000E+00  0.12436104926E+04  0.12436111411E+04  0.12700000000E+01 0. -1.
          4   -1    0    0  501    0  0.00000000000E+00 -0.00000000000E+00 -0.57337162394E+03  0.57337303045E+03  0.12700000000E+01 0.  1.
     200001    2    1    2    0    0 -0.10707129169E+02 -0.10765351060E+03  0.82985883756E+03  0.10909108588E+04  0.69979774984E+03 0.  0.
    5000001    2    3    3    0    0 -0.55628590770E+02 -0.61607612758E+02  0.26293796020E+03  0.33226901738E+03  0.18540844353E+03 0.  0.
        -11    1    4    4    0    0 -0.34379311210E+02 -0.13809642028E+02  0.26911446406E+03  0.27165278945E+03  0.51100000000E-03 0. -1.
     200002    1    4    4    0    0 -0.21249279560E+02 -0.47797970730E+02 -0.61765038584E+01  0.60616227923E+02  0.30000000000E+02 0. -1.
     200000    1    3    3    0    0  0.44921461600E+02 -0.46045897843E+02  0.56692087736E+03  0.75864184145E+03  0.50000000000E+03 0. -1.
    -200001    1    1    2    0    0  0.10707129169E+02  0.10765351060E+03 -0.15961996888E+03  0.72607331271E+03  0.70000000000E+03 0.  1.
<mgrwt>
<rscale>  0 0.16888491E+04</rscale>
<asrwt>0</asrwt>
<pdfrwt beam="1">  1        4 0.81910380E-01 0.16888491E+04</pdfrwt>
<pdfrwt beam="2">  1       -4 0.17765879E+00 0.16888491E+04</pdfrwt>
<totfact> 0.47074585E-01</totfact>
</mgrwt>
</event>
<event>
 8    1  0.5361529E-011  0.1565926E+04  0.7818608E-02  0.8841759E-01
         -4   -1    0    0    0  501 -0.00000000000E+00  0.00000000000E+00  0.38179375065E+03  0.38179586291E+03  0.12700000000E+01 0. -1.
          4   -1    0    0  501    0  0.00000000000E+00 -0.00000000000E+00 -0.16056524964E+04  0.16056529987E+04  0.12700000000E+01 0.  1.
     200001    2    1    2    0    0 -0.34885384217E+03  0.18898246299E+02 -0.57086594811E+03  0.96840237555E+03  0.69989933800E+03 0.  0.
    5000001    2    3    3    0    0 -0.44265140386E+02  0.12228018594E+03 -0.16852778236E+03  0.25053184243E+03  0.13210883436E+03 0.  0.
        -11    1    4    4    0    0  0.39128297570E+01 -0.16414954542E+02  0.82489350510E+01  0.18783128043E+02  0.51100000000E-03 0. -1.
     200002    1    4    4    0    0 -0.48177970143E+02  0.13869514048E+03 -0.17677671741E+03  0.23174871439E+03  0.30000000000E+02 0. -1.
     200000    1    3    3    0    0 -0.30458870179E+03 -0.10338193964E+03 -0.40233816575E+03  0.71787053312E+03  0.50000000000E+03 0.  1.
    -200001    1    1    2    0    0  0.34885384217E+03 -0.18898246299E+02 -0.65299279764E+03  0.10190464860E+04  0.70000000000E+03 0.  1.
<mgrwt>
<rscale>  0 0.15659255E+04</rscale>
<asrwt>0</asrwt>
<pdfrwt beam="1">  1        4 0.22937911E+00 0.15659255E+04</pdfrwt>
<pdfrwt beam="2">  1       -4 0.54542152E-01 0.15659255E+04</pdfrwt>
<totfact> 0.52921171E-01</totfact>
</mgrwt>
</event>
<event>
 8    1  0.5361529E-011  0.1466896E+04  0.7818608E-02  0.8906770E-01
         -4   -1    0    0    0  501 -0.00000000000E+00  0.00000000000E+00  0.42616782920E+03  0.42616972152E+03  0.12700000000E+01 0.  1.
          4   -1    0    0  501    0  0.00000000000E+00 -0.00000000000E+00 -0.12622825004E+04  0.12622831393E+04  0.12700000000E+01 0. -1.
     200001    2    1    2    0    0  0.18285990847E+03 -0.91641723616E+02 -0.33128676208E+03  0.80149898971E+03  0.70058101612E+03 0.  0.
    5000001    2    3    3    0    0  0.14294792714E+03  0.75827576808E+02 -0.19752885038E+02  0.18774636089E+03  0.93137469809E+02 0.  0.
        -11    1    4    4    0    0  0.13072292937E+03  0.40668514614E+02 -0.25164974876E+01  0.13692605707E+03  0.51100000000E-03 0. -1.
     200002    1    4    4    0    0  0.12224997768E+02  0.35159062194E+02 -0.17236387551E+02  0.50820303822E+02  0.30000000000E+02 0. -1.
     200000    1    3    3    0    0  0.39911981325E+02 -0.16746930042E+03 -0.31153387704E+03  0.61375262882E+03  0.50000000000E+03 0.  1.
    -200001    1    1    2    0    0 -0.18285990847E+03  0.91641723616E+02 -0.50482790915E+03  0.88695387112E+03  0.70000000000E+03 0. -1.
<mgrwt>
<rscale>  0 0.14668965E+04</rscale>
<asrwt>0</asrwt>
<pdfrwt beam="1">  1        4 0.18032625E+00 0.14668965E+04</pdfrwt>
<pdfrwt beam="2">  1       -4 0.60881300E-01 0.14668965E+04</pdfrwt>
<totfact> 0.88463705E-01</totfact>
</mgrwt>
</event>
<event>
 8    1  0.5361529E-011  0.1459038E+04  0.7818608E-02  0.8912158E-01
         -4   -1    0    0    0  501 -0.00000000000E+00  0.00000000000E+00  0.28350573725E+03  0.28350858180E+03  0.12700000000E+01 0. -1.
          4   -1    0    0  501    0  0.00000000000E+00 -0.00000000000E+00 -0.18771921792E+04  0.18771926088E+04  0.12700000000E+01 0.  1.
     200001    2    1    2    0    0 -0.11919208764E+03 -0.11362123688E+03 -0.63620927846E+03  0.96325429915E+03  0.70425851760E+03 0.  0.
    5000001    2    3    3    0    0 -0.15012552571E+03 -0.14210243073E+02 -0.24090881244E+03  0.31742004664E+03  0.14134647368E+03 0.  0.
        -11    1    4    4    0    0 -0.68337193829E+02 -0.16342422635E+02 -0.10451326036E+02  0.71037152632E+02  0.51100000000E-03 0. -1.
     200002    1    4    4    0    0 -0.81788331880E+02  0.21321795621E+01 -0.23045748640E+03  0.24638289401E+03  0.30000000000E+02 0. -1.
     200000    1    3    3    0    0  0.30933438067E+02 -0.99410993807E+02 -0.39530046602E+03  0.64583425251E+03  0.50000000000E+03 0. -1.
    -200001    1    1    2    0    0  0.11919208764E+03  0.11362123688E+03 -0.95747716350E+03  0.11974468915E+04  0.70000000000E+03 0.  1.
<mgrwt>
<rscale>  0 0.14590384E+04</rscale>
<asrwt>0</asrwt>
<pdfrwt beam="1">  1        4 0.26817054E+00 0.14590384E+04</pdfrwt>
<pdfrwt beam="2">  1       -4 0.40501055E-01 0.14590384E+04</pdfrwt>
<totfact> 0.56662400E-01</totfact>
</mgrwt>
</event>
<event>
 8    1  0.5361529E-011  0.1519286E+04  0.7818608E-02  0.8871728E-01
         -4   -1    0    0    0  501 -0.00000000000E+00  0.00000000000E+00  0.58739206699E+03  0.58739343992E+03  0.12700000000E+01 0. -1.
          4   -1    0    0  501    0  0.00000000000E+00 -0.00000000000E+00 -0.98240287524E+03  0.98240369613E+03  0.12700000000E+01 0.  1.
     200001    2    1    2    0    0 -0.21836657975E+03 -0.12726694200E+03 -0.32889541791E+02  0.74214222650E+03  0.69700252849E+03 0.  0.
    5000001    2    3    3    0    0 -0.11587671331E+03 -0.28628888603E+02 -0.10200698900E+03  0.21772744810E+03  0.15084027944E+03 0.  0.
        -11    1    4    4    0    0 -0.92615072750E+02  0.12639924410E+02 -0.12587475989E+03  0.15678576009E+03  0.51100000000E-03 0. -1.
     200002    1    4    4    0    0 -0.23261640558E+02 -0.41268813013E+02  0.23867770898E+02  0.60941688002E+02  0.30000000000E+02 0. -1.
     200000    1    3    3    0    0 -0.10248986645E+03 -0.98638053401E+02  0.69117447205E+02  0.52441477841E+03  0.50000000000E+03 0. -1.
    -200001    1    1    2    0    0  0.21836657975E+03  0.12726694200E+03 -0.36212126646E+03  0.82765490955E+03  0.70000000000E+03 0.  1.
<mgrwt>
<rscale>  0 0.15192859E+04</rscale>
<asrwt>0</asrwt>
<pdfrwt beam="1">  1        4 0.14034342E+00 0.15192859E+04</pdfrwt>
<pdfrwt beam="2">  1       -4 0.83913309E-01 0.15192859E+04</pdfrwt>
<totfact> 0.85761690E-01</totfact>
</mgrwt>
</event>
<event>
 8    1  0.5361529E-011  0.1769270E+04  0.7818608E-02  0.8722814E-01
          4   -1    0    0  501    0  0.00000000000E+00  0.00000000000E+00  0.97507061872E+03  0.97507144579E+03  0.12700000000E+01 0.  1.
         -4   -1    0    0    0  501 -0.00000000000E+00 -0.00000000000E+00 -0.80258528933E+03  0.80258629414E+03  0.12700000000E+01 0. -1.
     200001    2    1    2    0    0 -0.53298498651E+03 -0.10905210768E+03  0.52993224805E+02  0.88309431507E+03  0.69360069882E+03 0.  0.
    5000001    2    3    3    0    0 -0.28106995150E+03 -0.11391354742E+03  0.14037918167E+02  0.32184362743E+03  0.10681593258E+03 0.  0.
        -11    1    4    4    0    0 -0.23777959881E+03 -0.58360938596E+02  0.14861670906E+02  0.24528759860E+03  0.51100000000E-03 0. -1.
     200002    1    4    4    0    0 -0.43290352694E+02 -0.55552608820E+02 -0.82375273850E+00  0.76556028839E+02  0.30000000000E+02 0. -1.
     200000    1    3    3    0    0 -0.25191503501E+03  0.48614397341E+01  0.38955306638E+02  0.56125068764E+03  0.50000000000E+03 0. -1.
    -200001    1    1    2    0    0  0.53298498651E+03  0.10905210768E+03  0.11949210459E+03  0.89456342486E+03  0.70000000000E+03 0.  1.
<mgrwt>
<rscale>  0 0.17692699E+04</rscale>
<asrwt>0</asrwt>
<pdfrwt beam="1">  1        4 0.13929593E+00 0.17692699E+04</pdfrwt>
<pdfrwt beam="2">  1       -4 0.11465517E+00 0.17692699E+04</pdfrwt>
<totfact> 0.40934696E-01</totfact>
</mgrwt>
</event>
<event>
 8    1  0.5361529E-011  0.1561704E+04  0.7818608E-02  0.8844426E-01
         -4   -1    0    0    0  501 -0.00000000000E+00  0.00000000000E+00  0.50639734952E+03  0.50639894205E+03  0.12700000000E+01 0. -1.
          4   -1    0    0  501    0  0.00000000000E+00 -0.00000000000E+00 -0.12040508234E+04  0.12040514932E+04  0.12700000000E+01 0.  1.
     200001    2    1    2    0    0  0.20104012583E+02 -0.33283594445E+03 -0.44826260124E+03  0.89596916190E+03  0.70045516785E+03 0.  0.
    5000001    2    3    3    0    0 -0.17161142076E+01 -0.51237747098E+02  0.51379681679E+01  0.16429591582E+03  0.15600800448E+03 0.  0.
        -11    1    4    4    0    0  0.18767915433E+02 -0.67909358484E+02 -0.56855705412E+02  0.90534451219E+02  0.51100000000E-03 0. -1.
     200002    1    4    4    0    0 -0.20484029641E+02  0.16671611386E+02  0.61993673580E+02  0.73761464603E+02  0.30000000000E+02 0. -1.
     200000    1    3    3    0    0  0.21820126790E+02 -0.28159819736E+03 -0.45340056941E+03  0.73167324608E+03  0.50000000000E+03 0. -1.
    -200001    1    1    2    0    0 -0.20104012583E+02  0.33283594445E+03 -0.24939087263E+03  0.81448127332E+03  0.70000000000E+03 0. -1.
<mgrwt>
<rscale>  0 0.15617043E+04</rscale>
<asrwt>0</asrwt>
<pdfrwt beam="1">  1        4 0.17200742E+00 0.15617043E+04</pdfrwt>
<pdfrwt beam="2">  1       -4 0.72342641E-01 0.15617043E+04</pdfrwt>
<totfact> 0.68909653E-01</totfact>
</mgrwt>
</event>
<event>
 8    1  0.5361529E-011  0.2202633E+04  0.7818608E-02  0.8517333E-01
          4   -1    0    0  501    0  0.00000000000E+00  0.00000000000E+00  0.30132842348E+03  0.30133109979E+03  0.12700000000E+01 0.  1.
         -4   -1    0    0    0  501 -0.00000000000E+00 -0.00000000000E+00 -0.40251507568E+04  0.40251509572E+04  0.12700000000E+01 0. -1.
     200001    2    1    2    0    0  0.44850120050E+03  0.25646910349E+03 -0.31886182498E+04  0.33050256756E+04  0.69927008088E+03 0.  0.
    5000001    2    3    3    0    0  0.14437107286E+03 -0.17180453709E+02 -0.10376864691E+04  0.10591657646E+04  0.15459862288E+03 0.  0.
        -11    1    4    4    0    0  0.64814189445E+02 -0.12862347251E+02 -0.11556389377E+03  0.13312149591E+03  0.51100000000E-03 0. -1.
     200002    1    4    4    0    0  0.79556883412E+02 -0.43181064582E+01 -0.92212257530E+03  0.92604426871E+03  0.30000000000E+02 0. -1.
     200000    1    3    3    0    0  0.30413012765E+03  0.27364955720E+03 -0.21509317807E+04  0.22458599110E+04  0.50000000000E+03 0. -1.
    -200001    1    1    2    0    0 -0.44850120050E+03 -0.25646910349E+03 -0.53520408360E+03  0.10214563813E+04  0.70000000000E+03 0.  1.
<mgrwt>
<rscale>  0 0.22026335E+04</rscale>
<asrwt>0</asrwt>
<pdfrwt beam="1">  1        4 0.43047125E-01 0.22026335E+04</pdfrwt>
<pdfrwt beam="2">  1       -4 0.57502171E+00 0.22026335E+04</pdfrwt>
<totfact> 0.27339804E-03</totfact>
</mgrwt>
</event>
<event>
 8    1  0.5361529E-011  0.1786994E+04  0.7818608E-02  0.8713247E-01
          4   -1    0    0  501    0  0.00000000000E+00  0.00000000000E+00  0.42114166431E+03  0.42114357922E+03  0.12700000000E+01 0.  1.
         -4   -1    0    0    0  501 -0.00000000000E+00 -0.00000000000E+00 -0.18956421984E+04  0.18956426238E+04  0.12700000000E+01 0. -1.
     200001    2    1    2    0    0  0.22564303016E+03  0.32739569280E+03 -0.23487170397E+03  0.83868527509E+03  0.70008967754E+03 0.  0.
    5000001    2    3    3    0    0 -0.54502203561E+01  0.14415661053E+03 -0.99679555854E+01  0.21614021829E+03  0.16064370689E+03 0.  0.
        -11    1    4    4    0    0  0.36599938184E+02  0.15807677317E+03 -0.11020504385E+02  0.16263232523E+03  0.51100000000E-03 0. -1.
     200002    1    4    4    0    0 -0.42050158540E+02 -0.13920162645E+02  0.10525487994E+01  0.53507893065E+02  0.30000000000E+02 0.  1.
     200000    1    3    3    0    0  0.23109325052E+03  0.18323908227E+03 -0.22490374838E+03  0.62254505680E+03  0.50000000000E+03 0.  1.
    -200001    1    1    2    0    0 -0.22564303016E+03 -0.32739569280E+03 -0.12396288301E+04  0.14781009279E+04  0.70000000000E+03 0. -1.
<mgrwt>
<rscale>  0 0.17869937E+04</rscale>
<asrwt>0</asrwt>
<pdfrwt beam="1">  1        4 0.60163263E-01 0.17869937E+04</pdfrwt>
<pdfrwt beam="2">  1       -4 0.27080619E+00 0.17869937E+04</pdfrwt>
<totfact> 0.23309667E-01</totfact>
</mgrwt>
</event>
<event>
 8    1  0.5361529E-011  0.1879906E+04  0.7818608E-02  0.8664924E-01
          4   -1    0    0  501    0  0.00000000000E+00  0.00000000000E+00  0.12960887422E+04  0.12960893644E+04  0.12700000000E+01 0.  1.
         -4   -1    0    0    0  501 -0.00000000000E+00 -0.00000000000E+00 -0.68167399350E+03  0.68167517655E+03  0.12700000000E+01 0. -1.
     200001    2    1    2    0    0  0.58990859850E+03 -0.68776389717E+02  0.51769024066E+03  0.10546838420E+04  0.70116508389E+03 0.  0.
    5000001    2    3    3    0    0  0.20847677003E+03 -0.32272634405E+02  0.10825909187E+03  0.30338055466E+03  0.18925021373E+03 0.  0.
        -11    1    4    4    0    0  0.10230487162E+03  0.54179657909E+02 -0.14992627802E+02  0.11673260460E+03  0.51100000000E-03 0. -1.
     200002    1    4    4    0    0  0.10617189841E+03 -0.86452292314E+02  0.12325171967E+03  0.18664795005E+03  0.30000000000E+02 0. -1.
     200000    1    3    3    0    0  0.38143182847E+03 -0.36503755313E+02  0.40943114880E+03  0.75130328731E+03  0.50000000000E+03 0.  1.
    -200001    1    1    2    0    0 -0.58990859850E+03  0.68776389717E+02  0.96724508017E+02  0.92308069898E+03  0.70000000000E+03 0. -1.
<mgrwt>
<rscale>  0 0.18799061E+04</rscale>
<asrwt>0</asrwt>
<pdfrwt beam="1">  1        4 0.18515566E+00 0.18799061E+04</pdfrwt>
<pdfrwt beam="2">  1       -4 0.97382130E-01 0.18799061E+04</pdfrwt>
<totfact> 0.27540948E-01</totfact>
</mgrwt>
</event>
<event>
 8    1  0.5361529E-011  0.1437751E+04  0.7818608E-02  0.8926937E-01
         -4   -1    0    0    0  501 -0.00000000000E+00  0.00000000000E+00  0.27703444092E+03  0.27703735192E+03  0.12700000000E+01 0. -1.
          4   -1    0    0  501    0  0.00000000000E+00 -0.00000000000E+00 -0.18653948346E+04  0.18653952669E+04  0.12700000000E+01 0.  1.
     200001    2    1    2    0    0  0.27699576911E+02 -0.15907698997E+03 -0.76335718760E+03  0.10484933859E+04  0.70039376719E+03 0.  0.
    5000001    2    3    3    0    0  0.57651064700E+02 -0.26352810973E+02 -0.29446803871E+02  0.15008520993E+03  0.13281694197E+03 0.  0.
        -11    1    4    4    0    0  0.70965337399E+02 -0.23427299372E+02 -0.66827646001E+02  0.10025393627E+03  0.51100000000E-03 0. -1.
     200002    1    4    4    0    0 -0.13314272700E+02 -0.29255116007E+01  0.37380842130E+02  0.49831273654E+02  0.30000000000E+02 0.  1.
     200000    1    3    3    0    0 -0.29951487789E+02 -0.13272417899E+03 -0.73391038373E+03  0.89840817598E+03  0.50000000000E+03 0.  1.
    -200001    1    1    2    0    0 -0.27699576911E+02  0.15907698997E+03 -0.82500320604E+03  0.10939392329E+04  0.70000000000E+03 0. -1.
<mgrwt>
<rscale>  0 0.14377513E+04</rscale>
<asrwt>0</asrwt>
<pdfrwt beam="1">  1        4 0.26648521E+00 0.14377513E+04</pdfrwt>
<pdfrwt beam="2">  1       -4 0.39576589E-01 0.14377513E+04</pdfrwt>
<totfact> 0.60898377E-01</totfact>
</mgrwt>
</event>
<event>
 8    1  0.5361529E-011  0.1865471E+04  0.7818608E-02  0.8672237E-01
          4   -1    0    0  501    0  0.00000000000E+00  0.00000000000E+00  0.39433794546E+03  0.39433999053E+03  0.12700000000E+01 0.  1.
         -4   -1    0    0    0  501 -0.00000000000E+00 -0.00000000000E+00 -0.22062092710E+04  0.22062096365E+04  0.12700000000E+01 0. -1.
     200001    2    1    2    0    0 -0.19086041978E+03 -0.21842686760E+03 -0.16641617136E+04  0.18285676805E+04  0.70006253786E+03 0.  0.
    5000001    2    3    3    0    0 -0.60901986293E+01 -0.18359020279E+02 -0.44687898675E+03  0.48471336727E+03  0.18674066367E+03 0.  0.
        -11    1    4    4    0    0 -0.90207568403E+02 -0.30246244453E+02 -0.26878819974E+03  0.28513038600E+03  0.51100000000E-03 0. -1.
     200002    1    4    4    0    0  0.84117369773E+02  0.11887224175E+02 -0.17809078701E+03  0.19958298127E+03  0.30000000000E+02 0. -1.
     200000    1    3    3    0    0 -0.18477022115E+03 -0.20006784732E+03 -0.12172827268E+04  0.13438543132E+04  0.50000000000E+03 0.  1.
    -200001    1    1    2    0    0  0.19086041978E+03  0.21842686760E+03 -0.14770961193E+03  0.77198194654E+03  0.70000000000E+03 0. -1.
<mgrwt>
<rscale>  0 0.18654706E+04</rscale>
<asrwt>0</asrwt>
<pdfrwt beam="1">  1        4 0.56334165E-01 0.18654706E+04</pdfrwt>
<pdfrwt beam="2">  1       -4 0.31517292E+00 0.18654706E+04</pdfrwt>
<totfact> 0.14123948E-01</totfact>
</mgrwt>
</event>
<event>
 8    1  0.5361529E-011  0.1576196E+04  0.7818608E-02  0.8835306E-01
          4   -1    0    0  501    0  0.00000000000E+00  0.00000000000E+00  0.35031862846E+03  0.35032093050E+03  0.12700000000E+01 0.  1.
         -4   -1    0    0    0  501 -0.00000000000E+00 -0.00000000000E+00 -0.17729456674E+04  0.17729461223E+04  0.12700000000E+01 0. -1.
     200001    2    1    2    0    0 -0.12867229223E+03  0.20882077243E+03 -0.34617982707E+03  0.81601754570E+03  0.69705199837E+03 0.  0.
    5000001    2    3    3    0    0 -0.20031457485E+02  0.10683997157E+03 -0.15749363792E+03  0.26121542539E+03  0.17780105079E+03 0.  0.
        -11    1    4    4    0    0 -0.30274362476E+02 -0.23208372181E+02  0.16607598029E+02  0.41605022235E+02  0.51100000000E-03 0. -1.
     200002    1    4    4    0    0  0.10242904991E+02  0.13004834375E+03 -0.17410123595E+03  0.21961040316E+03  0.30000000000E+02 0. -1.
     200000    1    3    3    0    0 -0.10864083474E+03  0.10198080086E+03 -0.18868618915E+03  0.55480212030E+03  0.50000000000E+03 0.  1.
    -200001    1    1    2    0    0  0.12867229223E+03 -0.20882077243E+03 -0.10764472119E+04  0.13072495071E+04  0.70000000000E+03 0. -1.
<mgrwt>
<rscale>  0 0.15761965E+04</rscale>
<asrwt>0</asrwt>
<pdfrwt beam="1">  1        4 0.50045716E-01 0.15761965E+04</pdfrwt>
<pdfrwt beam="2">  1       -4 0.25327815E+00 0.15761965E+04</pdfrwt>
<totfact> 0.44945497E-01</totfact>
</mgrwt>
</event>
<event>
 8    1  0.5361529E-011  0.1544366E+04  0.7818608E-02  0.8855474E-01
         -4   -1    0    0    0  501 -0.00000000000E+00  0.00000000000E+00  0.24835976156E+04  0.24835979403E+04  0.12700000000E+01 0. -1.
          4   -1    0    0  501    0  0.00000000000E+00 -0.00000000000E+00 -0.24007985069E+03  0.24008320976E+03  0.12700000000E+01 0.  1.
     200001    2    1    2    0    0 -0.11027236915E+03  0.20181460453E+03  0.76126829229E+03  0.10684009233E+04  0.71348580233E+03 0.  0.
    5000001    2    3    3    0    0 -0.43775263606E+02  0.58869354691E+02  0.14297722580E+03  0.25775978670E+03  0.20153348584E+03 0.  0.
        -11    1    4    4    0    0 -0.19600844091E+02 -0.70993123491E+02  0.78830149402E+02  0.10788145868E+03  0.51100000000E-03 0. -1.
     200002    1    4    4    0    0 -0.24174419516E+02  0.12986247818E+03  0.64147076398E+02  0.14987832802E+03  0.30000000000E+02 0. -1.
     200000    1    3    3    0    0 -0.66497105541E+02  0.14294524984E+03  0.61829106649E+03  0.81064113663E+03  0.50000000000E+03 0.  1.
    -200001    1    1    2    0    0  0.11027236915E+03 -0.20181460453E+03  0.14822494727E+04  0.16552802268E+04  0.70000000000E+03 0. -1.
<mgrwt>
<rscale>  0 0.15443662E+04</rscale>
<asrwt>0</asrwt>
<pdfrwt beam="1">  1        4 0.34297384E-01 0.15443662E+04</pdfrwt>
<pdfrwt beam="2">  1       -4 0.35479993E+00 0.15443662E+04</pdfrwt>
<totfact> 0.22366882E-01</totfact>
</mgrwt>
</event>
<event>
 8    1  0.5361529E-011  0.1808458E+04  0.7818608E-02  0.8701814E-01
          4   -1    0    0  501    0  0.00000000000E+00  0.00000000000E+00  0.32529959453E+04  0.32529961932E+04  0.12700000000E+01 0.  1.
         -4   -1    0    0    0  501 -0.00000000000E+00 -0.00000000000E+00 -0.25134505175E+03  0.25134826027E+03  0.12700000000E+01 0. -1.
     200001    2    1    2    0    0  0.34569903949E+03  0.19431757347E+03  0.70027522478E+03  0.10663950869E+04  0.69967560029E+03 0.  0.
    5000001    2    3    3    0    0  0.90519713022E+02  0.44246177107E+02  0.16186954204E+03  0.27423437601E+03  0.19710708184E+03 0.  0.
        -11    1    4    4    0    0 -0.44201957387E+02  0.30190783114E+02 -0.88457038676E+01  0.54254427460E+02  0.51100000000E-03 0. -1.
     200002    1    4    4    0    0  0.13472167041E+03  0.14055393993E+02  0.17071524591E+03  0.21997994855E+03  0.30000000000E+02 0. -1.
     200000    1    3    3    0    0  0.25517932646E+03  0.15007139636E+03  0.53840568273E+03  0.79216071088E+03  0.50000000000E+03 0.  1.
    -200001    1    1    2    0    0 -0.34569903949E+03 -0.19431757347E+03  0.23013756687E+04  0.24379493666E+04  0.70000000000E+03 0.  1.
<mgrwt>
<rscale>  0 0.18084584E+04</rscale>
<asrwt>0</asrwt>
<pdfrwt beam="1">  1        4 0.46471395E+00 0.18084584E+04</pdfrwt>
<pdfrwt beam="2">  1       -4 0.35906683E-01 0.18084584E+04</pdfrwt>
<totfact> 0.33293511E-02</totfact>
</mgrwt>
</event>
<event>
 8    1  0.5361529E-011  0.1724386E+04  0.7818608E-02  0.8747577E-01
         -4   -1    0    0    0  501 -0.00000000000E+00  0.00000000000E+00  0.10311659020E+04  0.10311666841E+04  0.12700000000E+01 0. -1.
          4   -1    0    0  501    0  0.00000000000E+00 -0.00000000000E+00 -0.72090723338E+03  0.72090835204E+03  0.12700000000E+01 0.  1.
     200001    2    1    2    0    0  0.43017497215E+03 -0.24629650414E+03  0.68800342689E+02  0.86100006859E+03  0.70062483280E+03 0.  0.
    5000001    2    3    3    0    0  0.10088244289E+03 -0.38374350581E+02 -0.31061809870E+02  0.21941013625E+03  0.18848372287E+03 0.  0.
        -11    1    4    4    0    0 -0.10097682616E+02 -0.89733338096E+02 -0.23299094515E+02  0.93257079975E+02  0.51100000000E-03 0. -1.
     200002    1    4    4    0    0  0.11098012551E+03  0.51358987515E+02 -0.77627153556E+01  0.12615305627E+03  0.30000000000E+02 0. -1.
     200000    1    3    3    0    0  0.32929252926E+03 -0.20792215356E+03  0.99862152560E+02  0.64158993234E+03  0.50000000000E+03 0.  1.
    -200001    1    1    2    0    0 -0.43017497215E+03  0.24629650414E+03  0.24145832594E+03  0.89107496755E+03  0.70000000000E+03 0. -1.
<mgrwt>
<rscale>  0 0.17243858E+04</rscale>
<asrwt>0</asrwt>
<pdfrwt beam="1">  1        4 0.10298688E+00 0.17243858E+04</pdfrwt>
<pdfrwt beam="2">  1       -4 0.14730955E+00 0.17243858E+04</pdfrwt>
<totfact> 0.46018143E-01</totfact>
</mgrwt>
</event>
<event>
 8    1  0.5361529E-011  0.1434374E+04  0.7818608E-02  0.8929306E-01
          4   -1    0    0  501    0  0.00000000000E+00  0.00000000000E+00  0.18706943905E+04  0.18706948216E+04  0.12700000000E+01 0.  1.
         -4   -1    0    0    0  501 -0.00000000000E+00 -0.00000000000E+00 -0.27495316738E+03  0.27495610041E+03  0.12700000000E+01 0. -1.
     200001    2    1    2    0    0  0.57545289699E+02 -0.94744195386E+02  0.96888990161E+03  0.11994847092E+04  0.69837525968E+03 0.  0.
    5000001    2    3    3    0    0  0.65357580194E+02 -0.24883686464E+02  0.34420894675E+03  0.39626131693E+03  0.18344596243E+03 0.  0.
        -11    1    4    4    0    0  0.10390044140E+03 -0.68663123118E+02  0.26924828635E+03  0.29665563521E+03  0.51100000000E-03 0. -1.
     200002    1    4    4    0    0 -0.38542861204E+02  0.43779436654E+02  0.74960660391E+02  0.99605681715E+02  0.30000000000E+02 0. -1.
     200000    1    3    3    0    0 -0.78122904950E+01 -0.69860508922E+02  0.62468095487E+03  0.80322339231E+03  0.50000000000E+03 0.  1.
    -200001    1    1    2    0    0 -0.57545289699E+02  0.94744195386E+02  0.62685132153E+03  0.94616621279E+03  0.70000000000E+03 0. -1.
<mgrwt>
<rscale>  0 0.14343737E+04</rscale>
<asrwt>0</asrwt>
<pdfrwt beam="1">  1        4 0.26724230E+00 0.14343737E+04</pdfrwt>
<pdfrwt beam="2">  1       -4 0.39279263E-01 0.14343737E+04</pdfrwt>
<totfact> 0.61183816E-01</totfact>
</mgrwt>
</event>
<event>
 8    1  0.5361529E-011  0.1459321E+04  0.7818608E-02  0.8911964E-01
         -4   -1    0    0    0  501 -0.00000000000E+00  0.00000000000E+00  0.15429889332E+04  0.15429894558E+04  0.12700000000E+01 0. -1.
          4   -1    0    0  501    0  0.00000000000E+00 -0.00000000000E+00 -0.34504566745E+03  0.34504800467E+03  0.12700000000E+01 0.  1.
     200001    2    1    2    0    0 -0.10998336822E+02 -0.83917378980E+02  0.36811877810E+03  0.79910597956E+03  0.70419872328E+03 0.  0.
    5000001    2    3    3    0    0  0.11722924563E+02 -0.56248408813E+02  0.12251158356E+03  0.24089032084E+03  0.19929312109E+03 0.  0.
        -11    1    4    4    0    0  0.17630004047E+02 -0.70413314708E+02 -0.34453660271E+02  0.80348656723E+02  0.51100000000E-03 0. -1.
     200002    1    4    4    0    0 -0.59070794843E+01  0.14164905894E+02  0.15696524383E+03  0.16054166412E+03  0.30000000000E+02 0. -1.
     200000    1    3    3    0    0 -0.22721261385E+02 -0.27668970166E+02  0.24560719454E+03  0.55821565872E+03  0.50000000000E+03 0.  1.
    -200001    1    1    2    0    0  0.10998336822E+02  0.83917378980E+02  0.82982448762E+03  0.10889314809E+04  0.70000000000E+03 0. -1.
<mgrwt>
<rscale>  0 0.14593209E+04</rscale>
<asrwt>0</asrwt>
<pdfrwt beam="1">  1        4 0.49292441E-01 0.14593209E+04</pdfrwt>
<pdfrwt beam="2">  1       -4 0.22042720E+00 0.14593209E+04</pdfrwt>
<totfact> 0.75148904E-01</totfact>
</mgrwt>
</event>
<event>
 8    1  0.5361529E-011  0.1565782E+04  0.7818608E-02  0.8841850E-01
         -4   -1    0    0    0  501 -0.00000000000E+00  0.00000000000E+00  0.61650200396E+03  0.61650331207E+03  0.12700000000E+01 0. -1.
          4   -1    0    0  501    0  0.00000000000E+00 -0.00000000000E+00 -0.99418371073E+03  0.99418452190E+03  0.12700000000E+01 0.  1.
     200001    2    1    2    0    0 -0.97972874820E+01  0.34446319594E+03 -0.25616941825E+03  0.82105746699E+03  0.69982977434E+03 0.  0.
    5000001    2    3    3    0    0  0.69016626909E+01  0.10213459854E+03 -0.11456438379E+03  0.24742518945E+03  0.19394617081E+03 0.  0.
        -11    1    4    4    0    0  0.63673811933E+02 -0.31467601898E+02 -0.34717842953E+02  0.79056264236E+02  0.51100000000E-03 0. -1.
     200002    1    4    4    0    0 -0.56772149242E+02  0.13360220044E+03 -0.79846540841E+02  0.16836892521E+03  0.30000000000E+02 0. -1.
     200000    1    3    3    0    0 -0.16698950173E+02  0.24232859740E+03 -0.14160503446E+03  0.57363227754E+03  0.50000000000E+03 0. -1.
    -200001    1    1    2    0    0  0.97972874820E+01 -0.34446319594E+03 -0.12151228852E+03  0.78963036698E+03  0.70000000000E+03 0. -1.
<mgrwt>
<rscale>  0 0.15657815E+04</rscale>
<asrwt>0</asrwt>
<pdfrwt beam="1">  1        4 0.14202640E+00 0.15657815E+04</pdfrwt>
<pdfrwt beam="2">  1       -4 0.88071867E-01 0.15657815E+04</pdfrwt>
<totfact> 0.74120923E-01</totfact>
</mgrwt>
</event>
<event>
 8    1  0.5361529E-011  0.2004331E+04  0.7818608E-02  0.8604598E-01
          4   -1    0    0  501    0  0.00000000000E+00  0.00000000000E+00  0.52385900204E+03  0.52386054147E+03  0.12700000000E+01 0.  1.
         -4   -1    0    0    0  501 -0.00000000000E+00 -0.00000000000E+00 -0.19171829807E+04  0.19171834013E+04  0.12700000000E+01 0. -1.
     200001    2    1    2    0    0 -0.39377997665E+03  0.59861178609E+03 -0.73480728732E+03  0.12422766705E+04  0.69993630857E+03 0.  0.
    5000001    2    3    3    0    0 -0.84534452000E+02  0.19608278647E+03 -0.94784727515E+02  0.28452343132E+03  0.16240352729E+03 0.  0.
        -11    1    4    4    0    0  0.34060751981E+02  0.10813087224E+03 -0.65844725685E+02  0.13110281560E+03  0.51100000000E-03 0. -1.
     200002    1    4    4    0    0 -0.11859520398E+03  0.87951914228E+02 -0.28940001830E+02  0.15342061572E+03  0.30000000000E+02 0. -1.
     200000    1    3    3    0    0 -0.30924552465E+03  0.40252899963E+03 -0.64002255980E+03  0.95775323915E+03  0.50000000000E+03 0.  1.
    -200001    1    1    2    0    0  0.39377997665E+03 -0.59861178609E+03 -0.65851669135E+03  0.11987672723E+04  0.70000000000E+03 0.  1.
<mgrwt>
<rscale>  0 0.20043313E+04</rscale>
<asrwt>0</asrwt>
<pdfrwt beam="1">  1        4 0.74837141E-01 0.20043313E+04</pdfrwt>
<pdfrwt beam="2">  1       -4 0.27388342E+00 0.20043313E+04</pdfrwt>
<totfact> 0.13565546E-01</totfact>
</mgrwt>
</event>
<event>
 8    1  0.5361529E-011  0.2895888E+04  0.7818608E-02  0.8274102E-01
         -4   -1    0    0    0  501 -0.00000000000E+00  0.00000000000E+00  0.20166271608E+04  0.20166275607E+04  0.12700000000E+01 0. -1.
          4   -1    0    0  501    0  0.00000000000E+00 -0.00000000000E+00 -0.10396268815E+04  0.10396276572E+04  0.12700000000E+01 0.  1.
     200001    2    1    2    0    0  0.72116422138E+03  0.59342551741E+03 -0.41506834848E+03  0.12396411302E+04  0.70156733028E+03 0.  0.
    5000001    2    3    3    0    0  0.13657899603E+03  0.20122836991E+03 -0.16265900259E+03  0.34004735184E+03  0.17328465413E+03 0.  0.
        -11    1    4    4    0    0  0.34074777648E+02  0.15430886276E+03 -0.15775111447E+03  0.22328844510E+03  0.51100000000E-03 0. -1.
     200002    1    4    4    0    0  0.10250421838E+03  0.46919507153E+02 -0.49078881149E+01  0.11675890674E+03  0.30000000000E+02 0. -1.
     200000    1    3    3    0    0  0.58458522535E+03  0.39219714750E+03 -0.25240934589E+03  0.89959377838E+03  0.50000000000E+03 0.  1.
    -200001    1    1    2    0    0 -0.72116422138E+03 -0.59342551741E+03  0.13920686278E+04  0.18166140877E+04  0.70000000000E+03 0. -1.
<mgrwt>
<rscale>  0 0.28958878E+04</rscale>
<asrwt>0</asrwt>
<pdfrwt beam="1">  1        4 0.14851821E+00 0.28958878E+04</pdfrwt>
<pdfrwt beam="2">  1       -4 0.28808968E+00 0.28958878E+04</pdfrwt>
<totfact> 0.19452962E-02</totfact>
</mgrwt>
</event>
<event>
 8    1  0.5361529E-011  0.1495793E+04  0.7818608E-02  0.8887255E-01
          4   -1    0    0  501    0  0.00000000000E+00  0.00000000000E+00  0.98742644585E+03  0.98742726257E+03  0.12700000000E+01 0.  1.
         -4   -1    0    0    0  501 -0.00000000000E+00 -0.00000000000E+00 -0.56646988247E+03  0.56647130611E+03  0.12700000000E+01 0. -1.
     200001    2    1    2    0    0 -0.13111124538E+03 -0.13754262470E+03  0.30608479873E+02  0.73019974109E+03  0.70437678168E+03 0.  0.
    5000001    2    3    3    0    0 -0.63951450908E+02 -0.90513013114E+02  0.26832849628E+02  0.22350804218E+03  0.19223280023E+03 0.  0.
        -11    1    4    4    0    0  0.66598803192E+02 -0.16399679773E+02  0.37693240170E+01  0.68691759965E+02  0.51100000000E-03 0. -1.
     200002    1    4    4    0    0 -0.13055025410E+03 -0.74113333340E+02  0.23063525612E+02  0.15481628221E+03  0.30000000000E+02 0. -1.
     200000    1    3    3    0    0 -0.67159794472E+02 -0.47029611587E+02  0.37756302443E+01  0.50669169891E+03  0.50000000000E+03 0. -1.
    -200001    1    1    2    0    0  0.13111124538E+03  0.13754262470E+03  0.39034808351E+03  0.82369882759E+03  0.70000000000E+03 0.  1.
<mgrwt>
<rscale>  0 0.14957929E+04</rscale>
<asrwt>0</asrwt>
<pdfrwt beam="1">  1        4 0.14106108E+00 0.14957929E+04</pdfrwt>
<pdfrwt beam="2">  1       -4 0.80924428E-01 0.14957929E+04</pdfrwt>
<totfact> 0.92077224E-01</totfact>
</mgrwt>
</event>
<event>
 8    1  0.5361529E-011  0.1673117E+04  0.7818608E-02  0.8776847E-01
          4   -1    0    0  501    0  0.00000000000E+00  0.00000000000E+00  0.49899258405E+03  0.49899420021E+03  0.12700000000E+01 0.  1.
         -4   -1    0    0    0  501 -0.00000000000E+00 -0.00000000000E+00 -0.14024823781E+04  0.14024829531E+04  0.12700000000E+01 0. -1.
     200001    2    1    2    0    0  0.31296719747E+03 -0.30842033316E+03 -0.59507631905E+03  0.10193261231E+04  0.70131187865E+03 0.  0.
    5000001    2    3    3    0    0  0.11482143761E+03 -0.76789523142E+02 -0.18782553586E+03  0.30604653225E+03  0.19825603291E+03 0.  0.
        -11    1    4    4    0    0  0.10199725194E+03 -0.10171551442E+03 -0.35599466131E+02  0.14838061620E+03  0.51100000000E-03 0. -1.
     200002    1    4    4    0    0  0.12824185673E+02  0.24925991278E+02 -0.15222606973E+03  0.15766591605E+03  0.30000000000E+02 0. -1.
     200000    1    3    3    0    0  0.19814575986E+03 -0.23163081002E+03 -0.40725078320E+03  0.71327959084E+03  0.50000000000E+03 0.  1.
    -200001    1    1    2    0    0 -0.31296719747E+03  0.30842033316E+03 -0.30841347501E+03  0.88215103025E+03  0.70000000000E+03 0.  1.
<mgrwt>
<rscale>  0 0.16731173E+04</rscale>
<asrwt>0</asrwt>
<pdfrwt beam="1">  1        4 0.71284812E-01 0.16731173E+04</pdfrwt>
<pdfrwt beam="2">  1       -4 0.20035478E+00 0.16731173E+04</pdfrwt>
<totfact> 0.45183206E-01</totfact>
</mgrwt>
</event>
<event>
 8    1  0.5361529E-011  0.1588147E+04  0.7818608E-02  0.8827863E-01
          4   -1    0    0  501    0  0.00000000000E+00  0.00000000000E+00  0.58487308290E+03  0.58487446175E+03  0.12700000000E+01 0.  1.
         -4   -1    0    0    0  501 -0.00000000000E+00 -0.00000000000E+00 -0.10780994488E+04  0.10781001968E+04  0.12700000000E+01 0. -1.
     200001    2    1    2    0    0  0.31617286634E+03  0.10020241265E+03 -0.42199240037E+03  0.88510572181E+03  0.70379595616E+03 0.  0.
    5000001    2    3    3    0    0  0.43491149138E+02 -0.91829459161E+02 -0.39216749248E+02  0.17254080703E+03  0.13382169871E+03 0.  0.
        -11    1    4    4    0    0  0.53812303884E+02  0.98077875283E+01 -0.37011969335E+02  0.66044247440E+02  0.51100000000E-03 0. -1.
     200002    1    4    4    0    0 -0.10321154747E+02 -0.10163724669E+03 -0.22047799128E+01  0.10649655959E+03  0.30000000000E+02 0. -1.
     200000    1    3    3    0    0  0.27268171720E+03  0.19203187181E+03 -0.38277565112E+03  0.71256491478E+03  0.50000000000E+03 0. -1.
    -200001    1    1    2    0    0 -0.31617286634E+03 -0.10020241265E+03 -0.71233965504E+02  0.77786893674E+03  0.70000000000E+03 0.  1.
<mgrwt>
<rscale>  0 0.15881475E+04</rscale>
<asrwt>0</asrwt>
<pdfrwt beam="1">  1        4 0.83553450E-01 0.15881475E+04</pdfrwt>
<pdfrwt beam="2">  1       -4 0.15401436E+00 0.15881475E+04</pdfrwt>
<totfact> 0.67369399E-01</totfact>
</mgrwt>
</event>
<event>
 8    1  0.5361529E-011  0.2151866E+04  0.7818608E-02  0.8538734E-01
         -4   -1    0    0    0  501 -0.00000000000E+00  0.00000000000E+00  0.45522266801E+03  0.45522443956E+03  0.12700000000E+01 0. -1.
          4   -1    0    0  501    0  0.00000000000E+00 -0.00000000000E+00 -0.25429951880E+04  0.25429955051E+04  0.12700000000E+01 0.  1.
     200001    2    1    2    0    0 -0.79916696516E+02  0.59729487248E+03 -0.27550375808E+03  0.96414376410E+03  0.70037349612E+03 0.  0.
    5000001    2    3    3    0    0 -0.15031167196E+03  0.15944623550E+03 -0.10489625909E+02  0.24518662232E+03  0.10949770211E+03 0.  0.
        -11    1    4    4    0    0 -0.11876464444E+03  0.77954111957E+02 -0.41045250778E+02  0.14787358436E+03  0.51100000000E-03 0. -1.
     200002    1    4    4    0    0 -0.31547027525E+02  0.81492123547E+02  0.30555624868E+02  0.97313037960E+02  0.30000000000E+02 0. -1.
     200000    1    3    3    0    0  0.70394975445E+02  0.43784863698E+03 -0.26501413217E+03  0.71895714178E+03  0.50000000000E+03 0. -1.
    -200001    1    1    2    0    0  0.79916696516E+02 -0.59729487248E+03 -0.18122687619E+04  0.20340761806E+04  0.70000000000E+03 0.  1.
<mgrwt>
<rscale>  0 0.21518663E+04</rscale>
<asrwt>0</asrwt>
<pdfrwt beam="1">  1        4 0.36328517E+00 0.21518663E+04</pdfrwt>
<pdfrwt beam="2">  1       -4 0.65031960E-01 0.21518663E+04</pdfrwt>
<totfact> 0.49446403E-02</totfact>
</mgrwt>
</event>
<event>
 8    1  0.5361529E-011  0.1559419E+04  0.7818608E-02  0.8845874E-01
         -4   -1    0    0    0  501 -0.00000000000E+00  0.00000000000E+00  0.14362843382E+04  0.14362848997E+04  0.12700000000E+01 0. -1.
          4   -1    0    0  501    0  0.00000000000E+00 -0.00000000000E+00 -0.42327595539E+03  0.42327786065E+03  0.12700000000E+01 0.  1.
     200001    2    1    2    0    0  0.97977200518E+01  0.16536343255E+03  0.86606314933E+03  0.11253734375E+04  0.69925598674E+03 0.  0.
    5000001    2    3    3    0    0 -0.68827900506E+02  0.26726399035E+02  0.13247702686E+03  0.22340292002E+03  0.16403390422E+03 0.  0.
        -11    1    4    4    0    0 -0.10583708472E+03  0.58930451772E+02  0.10176982971E+03  0.15821309960E+03  0.51100000000E-03 0. -1.
     200002    1    4    4    0    0  0.37009184212E+02 -0.32204052736E+02  0.30707197153E+02  0.65189820415E+02  0.30000000000E+02 0. -1.
     200000    1    3    3    0    0  0.78625620558E+02  0.13863703351E+03  0.73358612247E+03  0.90197051745E+03  0.50000000000E+03 0. -1.
    -200001    1    1    2    0    0 -0.97977200518E+01 -0.16536343255E+03  0.14694523346E+03  0.73418932284E+03  0.70000000000E+03 0.  1.
<mgrwt>
<rscale>  0 0.15594190E+04</rscale>
<asrwt>0</asrwt>
<pdfrwt beam="1">  1        4 0.60468170E-01 0.15594190E+04</pdfrwt>
<pdfrwt beam="2">  1       -4 0.20518365E+00 0.15594190E+04</pdfrwt>
<totfact> 0.60704035E-01</totfact>
</mgrwt>
</event>
<event>
 8    1  0.5361529E-011  0.1438173E+04  0.7818608E-02  0.8926642E-01
          4   -1    0    0  501    0  0.00000000000E+00  0.00000000000E+00  0.72023721004E+03  0.72023832974E+03  0.12700000000E+01 0.  1.
         -4   -1    0    0    0  501 -0.00000000000E+00 -0.00000000000E+00 -0.71793489256E+03  0.71793601585E+03  0.12700000000E+01 0. -1.
     200001    2    1    2    0    0 -0.31691211657E+02 -0.14207239084E+03 -0.72768120831E+02  0.71926929772E+03  0.70061703241E+03 0.  0.
    5000001    2    3    3    0    0 -0.19057950484E+02  0.32586422876E+02 -0.52477433569E+02  0.18910233111E+03  0.17770967943E+03 0.  0.
        -11    1    4    4    0    0  0.40725485564E+02  0.84120237240E+02 -0.46670206929E+02  0.10446476776E+03  0.51100000000E-03 0. -1.
     200002    1    4    4    0    0 -0.59783436048E+02 -0.51533814364E+02 -0.58072266396E+01  0.84637563350E+02  0.30000000000E+02 0. -1.
     200000    1    3    3    0    0 -0.12633261173E+02 -0.17465881372E+03 -0.20290687262E+02  0.53016696661E+03  0.50000000000E+03 0. -1.
    -200001    1    1    2    0    0  0.31691211657E+02  0.14207239084E+03  0.75070438312E+02  0.71890504786E+03  0.70000000000E+03 0. -1.
<mgrwt>
<rscale>  0 0.14381725E+04</rscale>
<asrwt>0</asrwt>
<pdfrwt beam="1">  1        4 0.10289119E+00 0.14381725E+04</pdfrwt>
<pdfrwt beam="2">  1       -4 0.10256229E+00 0.14381725E+04</pdfrwt>
<totfact> 0.11691958E+00</totfact>
</mgrwt>
</event>
<event>
 8    1  0.5361529E-011  0.1521598E+04  0.7818608E-02  0.8870216E-01
         -4   -1    0    0    0  501 -0.00000000000E+00  0.00000000000E+00  0.53855556274E+03  0.53855706017E+03  0.12700000000E+01 0. -1.
          4   -1    0    0  501    0  0.00000000000E+00 -0.00000000000E+00 -0.10747508742E+04  0.10747516245E+04  0.12700000000E+01 0.  1.
     200001    2    1    2    0    0  0.27595202703E+03 -0.11087452019E+03 -0.24949731796E+03  0.80051201892E+03  0.70009135142E+03 0.  0.
    5000001    2    3    3    0    0 -0.58584067578E+02 -0.78877501711E+02 -0.41129140237E+02  0.16305181995E+03  0.12345256807E+03 0.  0.
        -11    1    4    4    0    0  0.10732699019E+01 -0.44646127151E+02 -0.69681777415E+02  0.82764597999E+02  0.51100000000E-03 0. -1.
     200002    1    4    4    0    0 -0.59657337480E+02 -0.34231374560E+02  0.28552637178E+02  0.80287221956E+02  0.30000000000E+02 0. -1.
     200000    1    3    3    0    0  0.33453609460E+03 -0.31997018477E+02 -0.20836817772E+03  0.63746019897E+03  0.50000000000E+03 0.  1.
    -200001    1    1    2    0    0 -0.27595202703E+03  0.11087452019E+03 -0.28669799349E+03  0.81279666579E+03  0.70000000000E+03 0.  1.
<mgrwt>
<rscale>  0 0.15215977E+04</rscale>
<asrwt>0</asrwt>
<pdfrwt beam="1">  1        4 0.15353600E+00 0.15215977E+04</pdfrwt>
<pdfrwt beam="2">  1       -4 0.76936670E-01 0.15215977E+04</pdfrwt>
<totfact> 0.82321075E-01</totfact>
</mgrwt>
</event>
<event>
 8    1  0.5361529E-011  0.1638130E+04  0.7818608E-02  0.8797460E-01
         -4   -1    0    0    0  501 -0.00000000000E+00  0.00000000000E+00  0.30679294928E+04  0.30679297557E+04  0.12700000000E+01 0. -1.
          4   -1    0    0  501    0  0.00000000000E+00 -0.00000000000E+00 -0.21866886772E+03  0.21867255568E+03  0.12700000000E+01 0.  1.
     200001    2    1    2    0    0  0.34908280895E+03  0.87272175739E+02  0.97941502878E+03  0.12578594015E+04  0.70248219567E+03 0.  0.
    5000001    2    3    3    0    0  0.13499124210E+03  0.63166197442E+02  0.39175657714E+03  0.45676093506E+03  0.18150683767E+03 0.  0.
        -11    1    4    4    0    0  0.16911010561E+03  0.69320768905E+02  0.34953456546E+03  0.39443378313E+03  0.51100000000E-03 0. -1.
     200002    1    4    4    0    0 -0.34118863516E+02 -0.61545714626E+01  0.42222011688E+02  0.62327151936E+02  0.30000000000E+02 0. -1.
     200000    1    3    3    0    0  0.21409156685E+03  0.24105978297E+02  0.58765845164E+03  0.80109846646E+03  0.50000000000E+03 0.  1.
    -200001    1    1    2    0    0 -0.34908280895E+03 -0.87272175739E+02  0.18698455963E+04  0.20287429098E+04  0.70000000000E+03 0. -1.
<mgrwt>
<rscale>  0 0.16381296E+04</rscale>
<asrwt>0</asrwt>
<pdfrwt beam="1">  1        4 0.31238693E-01 0.16381296E+04</pdfrwt>
<pdfrwt beam="2">  1       -4 0.43827591E+00 0.16381296E+04</pdfrwt>
<totfact> 0.70337358E-02</totfact>
</mgrwt>
</event>
<event>
 8    1  0.5361529E-011  0.1554003E+04  0.7818608E-02  0.8849315E-01
          4   -1    0    0  501    0  0.00000000000E+00  0.00000000000E+00  0.23449148258E+03  0.23449492170E+03  0.12700000000E+01 0.  1.
         -4   -1    0    0    0  501 -0.00000000000E+00 -0.00000000000E+00 -0.25746171275E+04  0.25746174408E+04  0.12700000000E+01 0. -1.
     200001    2    1    2    0    0  0.19797582161E+03  0.23696758294E+03 -0.92442381691E+03  0.11999014604E+04  0.69989717827E+03 0.  0.
    5000001    2    3    3    0    0  0.15089756171E+02  0.92592902451E+02 -0.31827683494E+03  0.38032503016E+03  0.18586510856E+03 0.  0.
        -11    1    4    4    0    0  0.59365196022E+02 -0.23205243353E+02 -0.18577727114E+03  0.19640749551E+03  0.51100000000E-03 0. -1.
     200002    1    4    4    0    0 -0.44275439851E+02  0.11579814580E+03 -0.13249956379E+03  0.18391753465E+03  0.30000000000E+02 0. -1.
     200000    1    3    3    0    0  0.18288606544E+03  0.14437468049E+03 -0.60614698197E+03  0.81957643027E+03  0.50000000000E+03 0.  1.
    -200001    1    1    2    0    0 -0.19797582161E+03 -0.23696758294E+03 -0.14157018280E+04  0.16092109020E+04  0.70000000000E+03 0. -1.
<mgrwt>
<rscale>  0 0.15540026E+04</rscale>
<asrwt>0</asrwt>
<pdfrwt beam="1">  1        4 0.33499053E-01 0.15540026E+04</pdfrwt>
<pdfrwt beam="2">  1       -4 0.36780270E+00 0.15540026E+04</pdfrwt>
<totfact> 0.19216932E-01</totfact>
</mgrwt>
</event>
<event>
 8    1  0.5361529E-011  0.1776608E+04  0.7818608E-02  0.8718839E-01
          4   -1    0    0  501    0  0.00000000000E+00  0.00000000000E+00  0.13326667305E+04  0.13326673357E+04  0.12700000000E+01 0. -1.
         -4   -1    0    0    0  501 -0.00000000000E+00 -0.00000000000E+00 -0.59210766757E+03  0.59210902956E+03  0.12700000000E+01 0.  1.
     200001    2    1    2    0    0 -0.15489047055E+03 -0.47975533887E+03  0.60046582826E+03  0.10508299381E+04  0.69966285089E+03 0.  0.
    5000001    2    3    3    0    0 -0.68258350922E+02 -0.88006315603E+02  0.15729867551E+03  0.27149076507E+03  0.19120682034E+03 0.  0.
        -11    1    4    4    0    0 -0.67248956882E+02 -0.75187488430E+02  0.19625887858E+03  0.22066519444E+03  0.51100000000E-03 0. -1.
     200002    1    4    4    0    0 -0.10093940394E+01 -0.12818827173E+02 -0.38960203069E+02  0.50825570627E+02  0.30000000000E+02 0. -1.
     200000    1    3    3    0    0 -0.86632119627E+02 -0.39174902327E+03  0.44316715275E+03  0.77933917306E+03  0.50000000000E+03 0. -1.
    -200001    1    1    2    0    0  0.15489047055E+03  0.47975533887E+03  0.14009323470E+03  0.87394642711E+03  0.70000000000E+03 0.  1.
<mgrwt>
<rscale>  0 0.17766081E+04</rscale>
<asrwt>0</asrwt>
<pdfrwt beam="1">  1        4 0.19038110E+00 0.17766081E+04</pdfrwt>
<pdfrwt beam="2">  1       -4 0.84586951E-01 0.17766081E+04</pdfrwt>
<totfact> 0.35521579E-01</totfact>
</mgrwt>
</event>
<event>
 8    1  0.5361529E-011  0.1520121E+04  0.7818608E-02  0.8871182E-01
         -4   -1    0    0    0  501 -0.00000000000E+00  0.00000000000E+00  0.55829772145E+03  0.55829916593E+03  0.12700000000E+01 0. -1.
          4   -1    0    0  501    0  0.00000000000E+00 -0.00000000000E+00 -0.10347351579E+04  0.10347359373E+04  0.12700000000E+01 0.  1.
     200001    2    1    2    0    0  0.79198124808E+02  0.20492434181E+03 -0.44632018171E+03  0.85875084088E+03  0.69998926654E+03 0.  0.
    5000001    2    3    3    0    0  0.67685526798E+02  0.49648467140E+02 -0.15859586576E+03  0.26123228957E+03  0.18985088794E+03 0.  0.
        -11    1    4    4    0    0  0.18399281621E+02  0.28434352204E+01  0.42743655766E+02  0.46622299348E+02  0.51100000000E-03 0. -1.
     200002    1    4    4    0    0  0.49286245177E+02  0.46805031920E+02 -0.20133952152E+03  0.21460999022E+03  0.30000000000E+02 0. -1.
     200000    1    3    3    0    0  0.11512598010E+02  0.15527587467E+03 -0.28772431595E+03  0.59751855131E+03  0.50000000000E+03 0.  1.
    -200001    1    1    2    0    0 -0.79198124808E+02 -0.20492434181E+03 -0.30117254719E+02  0.73428426231E+03  0.70000000000E+03 0.  1.
<mgrwt>
<rscale>  0 0.15201211E+04</rscale>
<asrwt>0</asrwt>
<pdfrwt beam="1">  1        4 0.14781947E+00 0.15201211E+04</pdfrwt>
<pdfrwt beam="2">  1       -4 0.79756977E-01 0.15201211E+04</pdfrwt>
<totfact> 0.83984228E-01</totfact>
</mgrwt>
</event>
<event>
 8    1  0.5361529E-011  0.1691003E+04  0.7818608E-02  0.8766512E-01
         -4   -1    0    0    0  501 -0.00000000000E+00  0.00000000000E+00  0.17764338027E+04  0.17764342567E+04  0.12700000000E+01 0. -1.
          4   -1    0    0  501    0  0.00000000000E+00 -0.00000000000E+00 -0.40241876933E+03  0.40242077333E+03  0.12700000000E+01 0.  1.
     200001    2    1    2    0    0  0.11620709283E+03  0.39770028679E+03  0.39125301282E+03  0.90312355530E+03  0.70063087968E+03 0.  0.
    5000001    2    3    3    0    0  0.77833776311E+02  0.17992806678E+03  0.10576000631E+03  0.28635495364E+03  0.17994936674E+03 0.  0.
        -11    1    4    4    0    0 -0.33599969274E+02  0.13444420208E+03  0.32658559179E+02  0.14237549964E+03  0.51100000000E-03 0. -1.
     200002    1    4    4    0    0  0.11143374559E+03  0.45483864701E+02  0.73101447136E+02  0.14397945401E+03  0.30000000000E+02 0. -1.
     200000    1    3    3    0    0  0.38373316521E+02  0.21777222001E+03  0.28549300651E+03  0.61676860166E+03  0.50000000000E+03 0.  1.
    -200001    1    1    2    0    0 -0.11620709283E+03 -0.39770028679E+03  0.98276202059E+03  0.12757314747E+04  0.70000000000E+03 0. -1.
<mgrwt>
<rscale>  0 0.16910032E+04</rscale>
<asrwt>0</asrwt>
<pdfrwt beam="1">  1        4 0.57488572E-01 0.16910032E+04</pdfrwt>
<pdfrwt beam="2">  1       -4 0.25377643E+00 0.16910032E+04</pdfrwt>
<totfact> 0.33004236E-01</totfact>
</mgrwt>
</event>
<event>
 8    1  0.5361529E-011  0.1669482E+04  0.7818608E-02  0.8778964E-01
          4   -1    0    0  501    0  0.00000000000E+00  0.00000000000E+00  0.81814321123E+03  0.81814419693E+03  0.12700000000E+01 0.  1.
         -4   -1    0    0    0  501 -0.00000000000E+00 -0.00000000000E+00 -0.85167361412E+03  0.85167456102E+03  0.12700000000E+01 0. -1.
     200001    2    1    2    0    0  0.22070446293E+03  0.39554678484E+03 -0.52320706090E+02  0.83583986467E+03  0.70051631254E+03 0.  0.
    5000001    2    3    3    0    0  0.39485119720E+01  0.12500937173E+03  0.83959152259E+01  0.22439882723E+03  0.18612202584E+03 0.  0.
        -11    1    4    4    0    0  0.21082331592E+02 -0.21148864922E+02  0.58826599567E+02  0.65972024448E+02  0.51100000000E-03 0. -1.
     200002    1    4    4    0    0 -0.17133819619E+02  0.14615823665E+03 -0.50430684341E+02  0.15842680278E+03  0.30000000000E+02 0. -1.
     200000    1    3    3    0    0  0.21675595096E+03  0.27053741311E+03 -0.60716621316E+02  0.61144103745E+03  0.50000000000E+03 0.  1.
    -200001    1    1    2    0    0 -0.22070446293E+03 -0.39554678484E+03  0.18790303191E+02  0.83397889329E+03  0.70000000000E+03 0. -1.
<mgrwt>
<rscale>  0 0.16694821E+04</rscale>
<asrwt>0</asrwt>
<pdfrwt beam="1">  1        4 0.11687774E+00 0.16694821E+04</pdfrwt>
<pdfrwt beam="2">  1       -4 0.12166780E+00 0.16694821E+04</pdfrwt>
<totfact> 0.55546842E-01</totfact>
</mgrwt>
</event>
<event>
 8    1  0.5361529E-011  0.1801841E+04  0.7818608E-02  0.8705321E-01
          4   -1    0    0  501    0  0.00000000000E+00  0.00000000000E+00  0.12813619603E+04  0.12813625897E+04  0.12700000000E+01 0.  1.
         -4   -1    0    0    0  501 -0.00000000000E+00 -0.00000000000E+00 -0.63343251640E+03  0.63343378954E+03  0.12700000000E+01 0. -1.
     200001    2    1    2    0    0 -0.18878692020E+03  0.34208932608E+03 -0.11263992906E+03  0.80974824481E+03  0.70024199967E+03 0.  0.
    5000001    2    3    3    0    0 -0.68055700439E+02  0.11654888783E+03  0.70227356471E+02  0.21908339837E+03  0.15764019864E+03 0.  0.
        -11    1    4    4    0    0 -0.22035093116E+02 -0.23110295991E+02 -0.25682832231E+02  0.40978518532E+02  0.51100000000E-03 0. -1.
     200002    1    4    4    0    0 -0.46020607322E+02  0.13965918382E+03  0.95910188702E+02  0.17810487984E+03  0.30000000000E+02 0. -1.
     200000    1    3    3    0    0 -0.12073121976E+03  0.22554043824E+03 -0.18286728553E+03  0.59066484644E+03  0.50000000000E+03 0. -1.
    -200001    1    1    2    0    0  0.18878692020E+03 -0.34208932608E+03  0.76056937294E+03  0.11050481344E+04  0.70000000000E+03 0.  1.
<mgrwt>
<rscale>  0 0.18018414E+04</rscale>
<asrwt>0</asrwt>
<pdfrwt beam="1">  1        4 0.18305185E+00 0.18018414E+04</pdfrwt>
<pdfrwt beam="2">  1       -4 0.90490494E-01 0.18018414E+04</pdfrwt>
<totfact> 0.34033186E-01</totfact>
</mgrwt>
</event>
<event>
 8    1  0.5361529E-011  0.1438627E+04  0.7818608E-02  0.8926323E-01
         -4   -1    0    0    0  501 -0.00000000000E+00  0.00000000000E+00  0.62857191435E+03  0.62857319734E+03  0.12700000000E+01 0. -1.
          4   -1    0    0  501    0  0.00000000000E+00 -0.00000000000E+00 -0.82315254602E+03  0.82315352573E+03  0.12700000000E+01 0.  1.
     200001    2    1    2    0    0 -0.14786077813E+01  0.47777980233E+02 -0.25724469946E+03  0.74730376272E+03  0.70000225478E+03 0.  0.
    5000001    2    3    3    0    0 -0.39657412095E+02  0.75968427199E+02 -0.95309589931E+01  0.18729088821E+03  0.16626221869E+03 0.  0.
        -11    1    4    4    0    0 -0.37095171214E+02  0.10676991163E+03 -0.54099265116E+02  0.12531000058E+03  0.51100000000E-03 0. -1.
     200002    1    4    4    0    0 -0.25622408814E+01 -0.30801484436E+02  0.44568306123E+02  0.61980887638E+02  0.30000000000E+02 0. -1.
     200000    1    3    3    0    0  0.38178804314E+02 -0.28190446966E+02 -0.24771374046E+03  0.56001287451E+03  0.50000000000E+03 0.  1.
    -200001    1    1    2    0    0  0.14786077813E+01 -0.47777980233E+02  0.62664067786E+02  0.70442296035E+03  0.70000000000E+03 0. -1.
<mgrwt>
<rscale>  0 0.14386274E+04</rscale>
<asrwt>0</asrwt>
<pdfrwt beam="1">  1        4 0.11759338E+00 0.14386274E+04</pdfrwt>
<pdfrwt beam="2">  1       -4 0.89796149E-01 0.14386274E+04</pdfrwt>
<totfact> 0.11558538E+00</totfact>
</mgrwt>
</event>
<event>
 8    1  0.5361529E-011  0.1433169E+04  0.7818608E-02  0.8930153E-01
          4   -1    0    0  501    0  0.00000000000E+00  0.00000000000E+00  0.55896500204E+03  0.55896644479E+03  0.12700000000E+01 0.  1.
         -4   -1    0    0    0  501 -0.00000000000E+00 -0.00000000000E+00 -0.91864657077E+03  0.91864744864E+03  0.12700000000E+01 0. -1.
     200001    2    1    2    0    0 -0.10081498976E+03  0.11315456214E+03 -0.16486180818E+03  0.73537245280E+03  0.70044672277E+03 0.  0.
    5000001    2    3    3    0    0  0.22037112133E+02 -0.40681677601E+02 -0.17176381748E+03  0.19796584200E+03  0.86873657688E+02 0.  0.
        -11    1    4    4    0    0  0.18580379681E+02 -0.41463744371E+02 -0.33527753606E+02  0.56467538183E+02  0.51100000000E-03 0. -1.
     200002    1    4    4    0    0  0.34567324518E+01  0.78206677007E+00 -0.13823606387E+03  0.14149830382E+03  0.30000000000E+02 0. -1.
     200000    1    3    3    0    0 -0.12285210189E+03  0.15383623974E+03  0.69020092998E+01  0.53740661080E+03  0.50000000000E+03 0.  1.
    -200001    1    1    2    0    0  0.10081498976E+03 -0.11315456214E+03 -0.19481976055E+03  0.74224144063E+03  0.70000000000E+03 0.  1.
<mgrwt>
<rscale>  0 0.14331685E+04</rscale>
<asrwt>0</asrwt>
<pdfrwt beam="1">  1        4 0.79852309E-01 0.14331685E+04</pdfrwt>
<pdfrwt beam="2">  1       -4 0.13123539E+00 0.14331685E+04</pdfrwt>
<totfact> 0.11483196E+00</totfact>
</mgrwt>
</event>
<event>
 8    1  0.5361529E-011  0.1793870E+04  0.7818608E-02  0.8709566E-01
         -4   -1    0    0    0  501 -0.00000000000E+00  0.00000000000E+00  0.61830995417E+03  0.61831125845E+03  0.12700000000E+01 0. -1.
          4   -1    0    0  501    0  0.00000000000E+00 -0.00000000000E+00 -0.13011116669E+04  0.13011122868E+04  0.12700000000E+01 0.  1.
     200001    2    1    2    0    0 -0.29023910699E+03  0.14915870426E+03  0.14793502127E+03  0.78513496660E+03  0.69861655218E+03 0.  0.
    5000001    2    3    3    0    0  0.13797107837E+02  0.14515371013E+02  0.54893942738E+02  0.17749733659E+03  0.16760341096E+03 0.  0.
        -11    1    4    4    0    0 -0.53298820518E+02 -0.10612891132E+02 -0.30290334338E+02  0.62216574009E+02  0.51100000000E-03 0. -1.
     200002    1    4    4    0    0  0.67095928355E+02  0.25128262145E+02  0.85184277077E+02  0.11528076258E+03  0.30000000000E+02 0. -1.
     200000    1    3    3    0    0 -0.30403621482E+03  0.13464333325E+03  0.93041078535E+02  0.60763763001E+03  0.50000000000E+03 0. -1.
    -200001    1    1    2    0    0  0.29023910699E+03 -0.14915870426E+03 -0.83073673405E+03  0.11342885786E+04  0.70000000000E+03 0.  1.
<mgrwt>
<rscale>  0 0.17938697E+04</rscale>
<asrwt>0</asrwt>
<pdfrwt beam="1">  1        4 0.18587323E+00 0.17938697E+04</pdfrwt>
<pdfrwt beam="2">  1       -4 0.88330132E-01 0.17938697E+04</pdfrwt>
<totfact> 0.34448741E-01</totfact>
</mgrwt>
</event>
<event>
 8    1  0.5361529E-011  0.1519167E+04  0.7818608E-02  0.8871806E-01
         -4   -1    0    0    0  501 -0.00000000000E+00  0.00000000000E+00  0.10137882323E+04  0.10137890278E+04  0.12700000000E+01 0. -1.
          4   -1    0    0  501    0  0.00000000000E+00 -0.00000000000E+00 -0.56911797461E+03  0.56911939163E+03  0.12700000000E+01 0.  1.
     200001    2    1    2    0    0  0.19847988137E+03  0.13918279851E+03  0.47743891532E+02  0.74248194741E+03  0.70016701461E+03 0.  0.
    5000001    2    3    3    0    0  0.56447819448E+02  0.70929609238E+02 -0.12017907808E+02  0.21484279314E+03  0.19441098186E+03 0.  0.
        -11    1    4    4    0    0  0.10164840845E+03 -0.24030315970E+02  0.27486269848E+01  0.10448641049E+03  0.51100000000E-03 0. -1.
     200002    1    4    4    0    0 -0.45200589005E+02  0.94959925208E+02 -0.14766534793E+02  0.11035638265E+03  0.30000000000E+02 0. -1.
     200000    1    3    3    0    0  0.14203206192E+03  0.68253189271E+02  0.59761799340E+02  0.52763915427E+03  0.50000000000E+03 0.  1.
    -200001    1    1    2    0    0 -0.19847988137E+03 -0.13918279851E+03  0.39692636618E+03  0.84042647203E+03  0.70000000000E+03 0. -1.
<mgrwt>
<rscale>  0 0.15191667E+04</rscale>
<asrwt>0</asrwt>
<pdfrwt beam="1">  1        4 0.81302726E-01 0.15191667E+04</pdfrwt>
<pdfrwt beam="2">  1       -4 0.14482705E+00 0.15191667E+04</pdfrwt>
<totfact> 0.84875236E-01</totfact>
</mgrwt>
</event>
<event>
 8    1  0.5361529E-011  0.1431474E+04  0.7818608E-02  0.8931346E-01
          4   -1    0    0  501    0  0.00000000000E+00  0.00000000000E+00  0.84523447125E+03  0.84523542536E+03  0.12700000000E+01 0.  1.
         -4   -1    0    0    0  501 -0.00000000000E+00 -0.00000000000E+00 -0.60607773484E+03  0.60607906544E+03  0.12700000000E+01 0. -1.
     200001    2    1    2    0    0 -0.41510097807E+02 -0.10383436139E+03  0.19335238309E+02  0.70913785829E+03  0.69999856271E+03 0.  0.
    5000001    2    3    3    0    0  0.34234467187E+02 -0.16134305049E+02 -0.15835424145E+02  0.19468133485E+03  0.19030960811E+03 0.  0.
        -11    1    4    4    0    0  0.80593393023E+02 -0.75256217307E+02  0.73921286492E+01  0.11051441901E+03  0.51100000000E-03 0. -1.
     200002    1    4    4    0    0 -0.46358925837E+02  0.59121912258E+02 -0.23227552794E+02  0.84166915843E+02  0.30000000000E+02 0. -1.
     200000    1    3    3    0    0 -0.75744564993E+02 -0.87700056342E+02  0.35170662454E+02  0.51445652344E+03  0.50000000000E+03 0. -1.
    -200001    1    1    2    0    0  0.41510097807E+02  0.10383436139E+03  0.21982149810E+03  0.74217663252E+03  0.70000000000E+03 0.  1.
<mgrwt>
<rscale>  0 0.14314740E+04</rscale>
<asrwt>0</asrwt>
<pdfrwt beam="1">  1        4 0.12074795E+00 0.14314740E+04</pdfrwt>
<pdfrwt beam="2">  1       -4 0.86582697E-01 0.14314740E+04</pdfrwt>
<totfact> 0.11779427E+00</totfact>
</mgrwt>
</event>
<event>
 8    1  0.5361529E-011  0.1522102E+04  0.7818608E-02  0.8869887E-01
          4   -1    0    0  501    0  0.00000000000E+00  0.00000000000E+00  0.77617836556E+03  0.77617940456E+03  0.12700000000E+01 0.  1.
         -4   -1    0    0    0  501 -0.00000000000E+00 -0.00000000000E+00 -0.74621680613E+03  0.74621788685E+03  0.12700000000E+01 0. -1.
     200001    2    1    2    0    0 -0.56748223108E+02  0.54467269529E+02 -0.27346996679E+03  0.75541767279E+03  0.69977353005E+03 0.  0.
    5000001    2    3    3    0    0  0.18406072783E+02  0.49052581226E+02 -0.12624806951E+03  0.22877569376E+03  0.18345245640E+03 0.  0.
        -11    1    4    4    0    0 -0.33222378515E+02  0.96401845168E+02 -0.30554534683E+02  0.10644539340E+03  0.51100000000E-03 0. -1.
     200002    1    4    4    0    0  0.51628451299E+02 -0.47349263941E+02 -0.95693534824E+02  0.12233030036E+03  0.30000000000E+02 0. -1.
     200000    1    3    3    0    0 -0.75154295891E+02  0.54146883031E+01 -0.14722189728E+03  0.52664197903E+03  0.50000000000E+03 0. -1.
    -200001    1    1    2    0    0  0.56748223108E+02 -0.54467269529E+02  0.30343152622E+03  0.76697961862E+03  0.70000000000E+03 0.  1.
<mgrwt>
<rscale>  0 0.15221024E+04</rscale>
<asrwt>0</asrwt>
<pdfrwt beam="1">  1        4 0.11088277E+00 0.15221024E+04</pdfrwt>
<pdfrwt beam="2">  1       -4 0.10660255E+00 0.15221024E+04</pdfrwt>
<totfact> 0.88358076E-01</totfact>
</mgrwt>
</event>
<event>
 8    1  0.5361529E-011  0.1624654E+04  0.7818608E-02  0.8805544E-01
          4   -1    0    0  501    0  0.00000000000E+00  0.00000000000E+00  0.75210917773E+03  0.75211024998E+03  0.12700000000E+01 0.  1.
         -4   -1    0    0    0  501 -0.00000000000E+00 -0.00000000000E+00 -0.87736362943E+03  0.87736454861E+03  0.12700000000E+01 0. -1.
     200001    2    1    2    0    0 -0.26944667050E+03 -0.24768142117E+03  0.12419296444E+03  0.80112003881E+03  0.70172774602E+03 0.  0.
    5000001    2    3    3    0    0 -0.16160324465E+03 -0.18693750323E+03  0.65233571873E+02  0.28266441097E+03  0.12075807027E+03 0.  0.
        -11    1    4    4    0    0 -0.11566641768E+03 -0.15716260971E+03  0.90773889570E+02  0.21521780850E+03  0.51100000000E-03 0. -1.
     200002    1    4    4    0    0 -0.45936826970E+02 -0.29774893525E+02 -0.25540317697E+02  0.67446602469E+02  0.30000000000E+02 0. -1.
     200000    1    3    3    0    0 -0.10784342585E+03 -0.60743917940E+02  0.58959392564E+02  0.51845562784E+03  0.50000000000E+03 0.  1.
    -200001    1    1    2    0    0  0.26944667050E+03  0.24768142117E+03 -0.24944741614E+03  0.82835475978E+03  0.70000000000E+03 0. -1.
<mgrwt>
<rscale>  0 0.16246536E+04</rscale>
<asrwt>0</asrwt>
<pdfrwt beam="1">  1        4 0.10744431E+00 0.16246536E+04</pdfrwt>
<pdfrwt beam="2">  1       -4 0.12533780E+00 0.16246536E+04</pdfrwt>
<totfact> 0.63517737E-01</totfact>
</mgrwt>
</event>
<event>
 8    1  0.5361529E-011  0.1486107E+04  0.7818608E-02  0.8893745E-01
         -4   -1    0    0    0  501 -0.00000000000E+00  0.00000000000E+00  0.24585808301E+04  0.24585811581E+04  0.12700000000E+01 0. -1.
          4   -1    0    0  501    0  0.00000000000E+00 -0.00000000000E+00 -0.22456979533E+03  0.22457338639E+03  0.12700000000E+01 0.  1.
     200001    2    1    2    0    0 -0.19130815050E+03  0.15746396803E+03  0.10847718362E+04  0.13148912492E+04  0.70058215152E+03 0.  0.
    5000001    2    3    3    0    0 -0.76719949014E+02  0.11266844528E+03  0.91691463906E+02  0.19625559783E+03  0.10737227755E+03 0.  0.
        -11    1    4    4    0    0  0.22191541346E+02  0.19410995805E+02  0.35456284954E+02  0.46112898504E+02  0.51100000000E-03 0. -1.
     200002    1    4    4    0    0 -0.98911490360E+02  0.93257449475E+02  0.56235178951E+02  0.15014269932E+03  0.30000000000E+02 0. -1.
     200000    1    3    3    0    0 -0.11458820149E+03  0.44795522750E+02  0.99308037226E+03  0.11186356514E+04  0.50000000000E+03 0. -1.
    -200001    1    1    2    0    0  0.19130815050E+03 -0.15746396803E+03  0.11492391986E+04  0.13682632953E+04  0.70000000000E+03 0.  1.
<mgrwt>
<rscale>  0 0.14861067E+04</rscale>
<asrwt>0</asrwt>
<pdfrwt beam="1">  1        4 0.32081681E-01 0.14861067E+04</pdfrwt>
<pdfrwt beam="2">  1       -4 0.35122609E+00 0.14861067E+04</pdfrwt>
<totfact> 0.27045978E-01</totfact>
</mgrwt>
</event>
<event>
 8    1  0.5361529E-011  0.1551159E+04  0.7818608E-02  0.8851127E-01
          4   -1    0    0  501    0  0.00000000000E+00  0.00000000000E+00  0.75288237527E+03  0.75288344642E+03  0.12700000000E+01 0.  1.
         -4   -1    0    0    0  501 -0.00000000000E+00 -0.00000000000E+00 -0.79895923796E+03  0.79896024734E+03  0.12700000000E+01 0. -1.
     200001    2    1    2    0    0 -0.20408780864E+03 -0.20370191702E+03  0.14504481948E+03  0.77102758094E+03  0.70021370044E+03 0.  0.
    5000001    2    3    3    0    0 -0.38122894212E+02 -0.36679250618E+02  0.56333485003E+02  0.21128601131E+03  0.19664586076E+03 0.  0.
        -11    1    4    4    0    0 -0.10349398934E+03 -0.68422047843E+02  0.24479695256E+02  0.12645883892E+03  0.51100000000E-03 0. -1.
     200002    1    4    4    0    0  0.65371095130E+02  0.31742797225E+02  0.31853789748E+02  0.84827172388E+02  0.30000000000E+02 0. -1.
     200000    1    3    3    0    0 -0.16596491443E+03 -0.16702266640E+03  0.88711334478E+02  0.55974156963E+03  0.50000000000E+03 0.  1.
    -200001    1    1    2    0    0  0.20408780864E+03  0.20370191702E+03 -0.19112168217E+03  0.78081611281E+03  0.70000000000E+03 0. -1.
<mgrwt>
<rscale>  0 0.15511595E+04</rscale>
<asrwt>0</asrwt>
<pdfrwt beam="1">  1        4 0.10755477E+00 0.15511595E+04</pdfrwt>
<pdfrwt beam="2">  1       -4 0.11413718E+00 0.15511595E+04</pdfrwt>
<totfact> 0.80406248E-01</totfact>
</mgrwt>
</event>
<event>
 8    1  0.5361529E-011  0.1720028E+04  0.7818608E-02  0.8750024E-01
          4   -1    0    0  501    0  0.00000000000E+00  0.00000000000E+00  0.83031333322E+03  0.83031430448E+03  0.12700000000E+01 0. -1.
         -4   -1    0    0    0  501 -0.00000000000E+00 -0.00000000000E+00 -0.89077478489E+03  0.89077569023E+03  0.12700000000E+01 0.  1.
     200001    2    1    2    0    0 -0.41579033809E+03 -0.21651941643E+03 -0.20369809165E+03  0.86652636455E+03  0.69972334889E+03 0.  0.
    5000001    2    3    3    0    0 -0.16048586054E+03 -0.61087055090E+02 -0.14862833380E+03  0.28140050335E+03  0.16615812333E+03 0.  0.
        -11    1    4    4    0    0 -0.98169352366E+02  0.43904235847E+02 -0.38376515965E+02  0.11418213804E+03  0.51100000000E-03 0. -1.
     200002    1    4    4    0    0 -0.62316508169E+02 -0.10499129094E+03 -0.11025181783E+03  0.16721836532E+03  0.30000000000E+02 0. -1.
     200000    1    3    3    0    0 -0.25530447756E+03 -0.15543236134E+03 -0.55069757852E+02  0.58512586120E+03  0.50000000000E+03 0. -1.
    -200001    1    1    2    0    0  0.41579033809E+03  0.21651941643E+03  0.14323663998E+03  0.85456363015E+03  0.70000000000E+03 0. -1.
<mgrwt>
<rscale>  0 0.17200277E+04</rscale>
<asrwt>0</asrwt>
<pdfrwt beam="1">  1        4 0.11861632E+00 0.17200277E+04</pdfrwt>
<pdfrwt beam="2">  1       -4 0.12725368E+00 0.17200277E+04</pdfrwt>
<totfact> 0.47650387E-01</totfact>
</mgrwt>
</event>
<event>
 8    1  0.5361529E-011  0.1437550E+04  0.7818608E-02  0.8927078E-01
         -4   -1    0    0    0  501 -0.00000000000E+00  0.00000000000E+00  0.34162235689E+03  0.34162471753E+03  0.12700000000E+01 0. -1.
          4   -1    0    0  501    0  0.00000000000E+00 -0.00000000000E+00 -0.15122980932E+04  0.15122986264E+04  0.12700000000E+01 0.  1.
     200001    2    1    2    0    0  0.22161713727E+02 -0.51280336539E+02 -0.37575279648E+03  0.79325219102E+03  0.69637494213E+03 0.  0.
    5000001    2    3    3    0    0  0.27353162029E+01 -0.78969360453E+01 -0.78457520655E+02  0.20960504986E+03  0.19418766909E+03 0.  0.
        -11    1    4    4    0    0  0.20720113224E+02 -0.64228079170E+02 -0.11541184700E+03  0.13369541381E+03  0.51100000000E-03 0. -1.
     200002    1    4    4    0    0 -0.17984797021E+02  0.56331143125E+02  0.36954326343E+02  0.75909636049E+02  0.30000000000E+02 0. -1.
     200000    1    3    3    0    0  0.19426397524E+02 -0.43383400494E+02 -0.29729527582E+03  0.58364714116E+03  0.50000000000E+03 0.  1.
    -200001    1    1    2    0    0 -0.22161713727E+02  0.51280336539E+02 -0.79492293980E+03  0.10606711529E+04  0.70000000000E+03 0.  1.
<mgrwt>
<rscale>  0 0.14375500E+04</rscale>
<asrwt>0</asrwt>
<pdfrwt beam="1">  1        4 0.21604279E+00 0.14375500E+04</pdfrwt>
<pdfrwt beam="2">  1       -4 0.48803401E-01 0.14375500E+04</pdfrwt>
<totfact> 0.81960940E-01</totfact>
</mgrwt>
</event>
<event>
 8    1  0.5361529E-011  0.3047700E+04  0.7818608E-02  0.8230240E-01
          4   -1    0    0  501    0  0.00000000000E+00  0.00000000000E+00  0.23691441873E+04  0.23691445277E+04  0.12700000000E+01 0.  1.
         -4   -1    0    0    0  501 -0.00000000000E+00 -0.00000000000E+00 -0.98014997499E+03  0.98015079777E+03  0.12700000000E+01 0. -1.
     200001    2    1    2    0    0  0.10636194557E+04  0.77094092666E+03  0.34465808473E+03  0.15309790146E+04  0.70673282716E+03 0.  0.
    5000001    2    3    3    0    0  0.31872397867E+03  0.24865110481E+03  0.76916890504E+02  0.45890566045E+03  0.20313997795E+03 0.  0.
        -11    1    4    4    0    0  0.24435618848E+02  0.99319902442E+02  0.76182920637E+02  0.12753579845E+03  0.51100000000E-03 0. -1.
     200002    1    4    4    0    0  0.29428835982E+03  0.14933120237E+03  0.73396986707E+00  0.33136986200E+03  0.30000000000E+02 0. -1.
     200000    1    3    3    0    0  0.74489547701E+03  0.52228982185E+03  0.26774119423E+03  0.10720733542E+04  0.50000000000E+03 0. -1.
    -200001    1    1    2    0    0 -0.10636194557E+04 -0.77094092666E+03  0.10443361276E+04  0.18183163108E+04  0.70000000000E+03 0.  1.
<mgrwt>
<rscale>  0 0.30476998E+04</rscale>
<asrwt>0</asrwt>
<pdfrwt beam="1">  1        4 0.33844925E+00 0.30476998E+04</pdfrwt>
<pdfrwt beam="2">  1       -4 0.14002151E+00 0.30476998E+04</pdfrwt>
<totfact> 0.10773335E-02</totfact>
</mgrwt>
</event>
<event>
 8    1  0.5361529E-011  0.1486630E+04  0.7818608E-02  0.8893393E-01
          4   -1    0    0  501    0  0.00000000000E+00  0.00000000000E+00  0.12023018433E+04  0.12023025141E+04  0.12700000000E+01 0.  1.
         -4   -1    0    0    0  501 -0.00000000000E+00 -0.00000000000E+00 -0.45954782289E+03  0.45954957776E+03  0.12700000000E+01 0. -1.
     200001    2    1    2    0    0  0.22469374690E+03  0.15709836727E+02  0.49443527798E+03  0.88571017393E+03  0.69948709010E+03 0.  0.
    5000001    2    3    3    0    0  0.64428068028E+02  0.62245033524E+02  0.10112178532E+03  0.22802779172E+03  0.18369985895E+03 0.  0.
        -11    1    4    4    0    0  0.23024022077E+02 -0.63603311267E+02  0.43833195902E+02  0.80602951931E+02  0.51100000000E-03 0. -1.
     200002    1    4    4    0    0  0.41404045951E+02  0.12584834479E+03  0.57288589419E+02  0.14742483978E+03  0.30000000000E+02 0. -1.
     200000    1    3    3    0    0  0.16026567888E+03 -0.46535196797E+02  0.39331349265E+03  0.65768238221E+03  0.50000000000E+03 0.  1.
    -200001    1    1    2    0    0 -0.22469374690E+03 -0.15709836727E+02  0.24831874244E+03  0.77614191789E+03  0.70000000000E+03 0.  1.
<mgrwt>
<rscale>  0 0.14866300E+04</rscale>
<asrwt>0</asrwt>
<pdfrwt beam="1">  1        4 0.17175758E+00 0.14866300E+04</pdfrwt>
<pdfrwt beam="2">  1       -4 0.65649863E-01 0.14866300E+04</pdfrwt>
<totfact> 0.86165456E-01</totfact>
</mgrwt>
</event>
<event>
 8    1  0.5361529E-011  0.1705833E+04  0.7818608E-02  0.8758044E-01
          4   -1    0    0  501    0  0.00000000000E+00  0.00000000000E+00  0.65198331732E+03  0.65198455424E+03  0.12700000000E+01 0.  1.
         -4   -1    0    0    0  501 -0.00000000000E+00 -0.00000000000E+00 -0.11157723698E+04  0.11157730926E+04  0.12700000000E+01 0. -1.
     200001    2    1    2    0    0  0.12591487627E+02  0.17452823910E+03 -0.70407043674E+03  0.10072618905E+04  0.69874364708E+03 0.  0.
    5000001    2    3    3    0    0 -0.31424190960E+02 -0.53443662950E+01 -0.13848875074E+03  0.22997547117E+03  0.18081355377E+03 0.  0.
        -11    1    4    4    0    0 -0.33317720890E+02  0.45886427080E+02 -0.15766950330E+03  0.16755687687E+03  0.51100000000E-03 0. -1.
     200002    1    4    4    0    0  0.18935299290E+01 -0.51230793375E+02  0.19180752555E+02  0.62418594297E+02  0.30000000000E+02 0. -1.
     200000    1    3    3    0    0  0.44015678587E+02  0.17987260539E+03 -0.56558168600E+03  0.77728641933E+03  0.50000000000E+03 0. -1.
    -200001    1    1    2    0    0 -0.12591487627E+02 -0.17452823910E+03  0.24028138424E+03  0.76049575634E+03  0.70000000000E+03 0.  1.
<mgrwt>
<rscale>  0 0.17058332E+04</rscale>
<asrwt>0</asrwt>
<pdfrwt beam="1">  1        4 0.93140615E-01 0.17058332E+04</pdfrwt>
<pdfrwt beam="2">  1       -4 0.15939619E+00 0.17058332E+04</pdfrwt>
<totfact> 0.47310486E-01</totfact>
</mgrwt>
</event>
<event>
 8    1  0.5361529E-011  0.1712818E+04  0.7818608E-02  0.8754088E-01
          4   -1    0    0  501    0  0.00000000000E+00  0.00000000000E+00  0.98275542905E+03  0.98275624965E+03  0.12700000000E+01 0.  1.
         -4   -1    0    0    0  501 -0.00000000000E+00 -0.00000000000E+00 -0.74630410427E+03  0.74630518486E+03  0.12700000000E+01 0. -1.
     200001    2    1    2    0    0 -0.35688203611E+03  0.33752207871E+03  0.15927122222E+03  0.87043304601E+03  0.70071422423E+03 0.  0.
    5000001    2    3    3    0    0 -0.10431391077E+03  0.14413718109E+03 -0.53326471807E+02  0.24084099073E+03  0.15330933196E+03 0.  0.
        -11    1    4    4    0    0 -0.20925080392E+02  0.14044107693E+03 -0.10594670527E+02  0.14238610228E+03  0.51100000000E-03 0. -1.
     200002    1    4    4    0    0 -0.83388830378E+02  0.36961041536E+01 -0.42731801280E+02  0.98454888443E+02  0.30000000000E+02 0. -1.
     200000    1    3    3    0    0 -0.25256812534E+03  0.19338489762E+03  0.21259769403E+03  0.62959205528E+03  0.50000000000E+03 0.  1.
    -200001    1    1    2    0    0  0.35688203611E+03 -0.33752207871E+03  0.77180102562E+02  0.85862838851E+03  0.70000000000E+03 0.  1.
<mgrwt>
<rscale>  0 0.17128176E+04</rscale>
<asrwt>0</asrwt>
<pdfrwt beam="1">  1        4 0.14039377E+00 0.17128176E+04</pdfrwt>
<pdfrwt beam="2">  1       -4 0.10661501E+00 0.17128176E+04</pdfrwt>
<totfact> 0.48082694E-01</totfact>
</mgrwt>
</event>
<event>
 8    1  0.5361529E-011  0.1524060E+04  0.7818608E-02  0.8868609E-01
          4   -1    0    0  501    0  0.00000000000E+00  0.00000000000E+00  0.11916124228E+04  0.11916130996E+04  0.12700000000E+01 0.  1.
         -4   -1    0    0    0  501 -0.00000000000E+00 -0.00000000000E+00 -0.48731253102E+03  0.48731418591E+03  0.12700000000E+01 0. -1.
     200001    2    1    2    0    0  0.17197059992E+02 -0.10458375318E+03  0.66619576385E+03  0.96992416503E+03  0.69692366142E+03 0.  0.
    5000001    2    3    3    0    0 -0.13905206208E+02 -0.10251633431E+03  0.13137769405E+03  0.23711996679E+03  0.16811551563E+03 0.  0.
        -11    1    4    4    0    0  0.73343599801E+02 -0.54419232522E+02  0.44603201598E+02  0.10163750338E+03  0.51100000000E-03 0. -1.
     200002    1    4    4    0    0 -0.87248806009E+02 -0.48097101788E+02  0.86774492455E+02  0.13548246341E+03  0.30000000000E+02 0. -1.
     200000    1    3    3    0    0  0.31102266200E+02 -0.20674188673E+01  0.53481806980E+03  0.73280419825E+03  0.50000000000E+03 0.  1.
    -200001    1    1    2    0    0 -0.17197059992E+02  0.10458375318E+03  0.38104127976E+02  0.70900312049E+03  0.70000000000E+03 0. -1.
<mgrwt>
<rscale>  0 0.15240599E+04</rscale>
<asrwt>0</asrwt>
<pdfrwt beam="1">  1        4 0.17023051E+00 0.15240599E+04</pdfrwt>
<pdfrwt beam="2">  1       -4 0.69616245E-01 0.15240599E+04</pdfrwt>
<totfact> 0.77466159E-01</totfact>
</mgrwt>
</event>
<event>
 8    1  0.5361529E-011  0.1618068E+04  0.7818608E-02  0.8809524E-01
          4   -1    0    0  501    0  0.00000000000E+00  0.00000000000E+00  0.59040274425E+03  0.59040411018E+03  0.12700000000E+01 0.  1.
         -4   -1    0    0    0  501 -0.00000000000E+00 -0.00000000000E+00 -0.11086231293E+04  0.11086238567E+04  0.12700000000E+01 0. -1.
     200001    2    1    2    0    0 -0.24943145886E+02  0.39745547124E+03 -0.18377168506E+03  0.82699072856E+03  0.70110528507E+03 0.  0.
    5000001    2    3    3    0    0  0.69016621736E+02  0.23015720572E+03 -0.35432340951E+02  0.27127343660E+03  0.12082298290E+03 0.  0.
        -11    1    4    4    0    0  0.15410575822E+02 -0.99161388810E+00 -0.28011389989E+02  0.31986045624E+02  0.51100000000E-03 0. -1.
     200002    1    4    4    0    0  0.53606045915E+02  0.23114881961E+03 -0.74209509615E+01  0.23928739098E+03  0.30000000000E+02 0. -1.
     200000    1    3    3    0    0 -0.93959767622E+02  0.16729826552E+03 -0.14833934411E+03  0.55571729196E+03  0.50000000000E+03 0. -1.
    -200001    1    1    2    0    0  0.24943145886E+02 -0.39745547124E+03 -0.33444869998E+03  0.87203723835E+03  0.70000000000E+03 0. -1.
<mgrwt>
<rscale>  0 0.16180679E+04</rscale>
<asrwt>0</asrwt>
<pdfrwt beam="1">  1        4 0.84343400E-01 0.16180679E+04</pdfrwt>
<pdfrwt beam="2">  1       -4 0.15837488E+00 0.16180679E+04</pdfrwt>
<totfact> 0.60992150E-01</totfact>
</mgrwt>
</event>
<event>
 8    1  0.5361529E-011  0.1495423E+04  0.7818608E-02  0.8887502E-01
          4   -1    0    0  501    0  0.00000000000E+00  0.00000000000E+00  0.56900577372E+03  0.56900719101E+03  0.12700000000E+01 0.  1.
         -4   -1    0    0    0  501 -0.00000000000E+00 -0.00000000000E+00 -0.98253926452E+03  0.98254008530E+03  0.12700000000E+01 0. -1.
     200001    2    1    2    0    0  0.32277321329E+02 -0.18282001820E+03 -0.39904032480E+03  0.82720271991E+03  0.70040429360E+03 0.  0.
    5000001    2    3    3    0    0  0.47551365645E+02 -0.45289619536E+02 -0.12535303208E+03  0.24064271345E+03  0.19463620134E+03 0.  0.
        -11    1    4    4    0    0  0.31568715289E+01 -0.76131162058E+02 -0.15451946017E+03  0.17228517999E+03  0.51100000000E-03 0. -1.
     200002    1    4    4    0    0  0.44394494116E+02  0.30841542522E+02  0.29166428091E+02  0.68357533458E+02  0.30000000000E+02 0. -1.
     200000    1    3    3    0    0 -0.15274044315E+02 -0.13753039866E+03 -0.27368729272E+03  0.58656000647E+03  0.50000000000E+03 0. -1.
    -200001    1    1    2    0    0 -0.32277321329E+02  0.18282001820E+03 -0.14493166005E+02  0.72434455640E+03  0.70000000000E+03 0.  1.
<mgrwt>
<rscale>  0 0.14954227E+04</rscale>
<asrwt>0</asrwt>
<pdfrwt beam="1">  1        4 0.81286699E-01 0.14954227E+04</pdfrwt>
<pdfrwt beam="2">  1       -4 0.14036291E+00 0.14954227E+04</pdfrwt>
<totfact> 0.92339118E-01</totfact>
</mgrwt>
</event>
<event>
 8    1  0.5361529E-011  0.1702549E+04  0.7818608E-02  0.8759912E-01
         -4   -1    0    0    0  501 -0.00000000000E+00  0.00000000000E+00  0.12391537193E+04  0.12391543701E+04  0.12700000000E+01 0. -1.
          4   -1    0    0  501    0  0.00000000000E+00 -0.00000000000E+00 -0.58480748859E+03  0.58480886759E+03  0.12700000000E+01 0.  1.
     200001    2    1    2    0    0  0.29216668628E+03 -0.13895548383E+03  0.71348312495E+03  0.10505505591E+04  0.69994879001E+03 0.  0.
    5000001    2    3    3    0    0  0.15098008743E+03 -0.43540985909E+02  0.24728340031E+03  0.34600832096E+03  0.18407029595E+03 0.  0.
        -11    1    4    4    0    0  0.16138738453E+03 -0.18339474618E+02  0.94452645491E+02  0.18789232676E+03  0.51100000000E-03 0. -1.
     200002    1    4    4    0    0 -0.10407297096E+02 -0.25201511291E+02  0.15283075482E+03  0.15811599420E+03  0.30000000000E+02 0. -1.
     200000    1    3    3    0    0  0.14118659885E+03 -0.95414497921E+02  0.46619972464E+03  0.70454223817E+03  0.50000000000E+03 0. -1.
    -200001    1    1    2    0    0 -0.29216668628E+03  0.13895548383E+03 -0.59136894273E+02  0.77341267854E+03  0.70000000000E+03 0.  1.
<mgrwt>
<rscale>  0 0.17025489E+04</rscale>
<asrwt>0</asrwt>
<pdfrwt beam="1">  1        4 0.83544073E-01 0.17025489E+04</pdfrwt>
<pdfrwt beam="2">  1       -4 0.17702210E+00 0.17025489E+04</pdfrwt>
<totfact> 0.45415723E-01</totfact>
</mgrwt>
</event>
<event>
 8    1  0.5361529E-011  0.2048418E+04  0.7818608E-02  0.8584312E-01
         -4   -1    0    0    0  501 -0.00000000000E+00  0.00000000000E+00  0.14370627122E+04  0.14370632733E+04  0.12700000000E+01 0. -1.
          4   -1    0    0  501    0  0.00000000000E+00 -0.00000000000E+00 -0.72996258683E+03  0.72996369162E+03  0.12700000000E+01 0.  1.
     200001    2    1    2    0    0  0.48619433670E+03  0.34149567603E+03 -0.12484282602E+03  0.92802199964E+03  0.70187952728E+03 0.  0.
    5000001    2    3    3    0    0  0.10050474595E+03  0.20912172928E+02 -0.15315212060E+02  0.21141433773E+03  0.18418182197E+03 0.  0.
        -11    1    4    4    0    0  0.77134949172E+02  0.93646118398E+02 -0.36414131066E+02  0.12667037861E+03  0.51100000000E-03 0. -1.
     200002    1    4    4    0    0  0.23369796774E+02 -0.72733945470E+02  0.21098919006E+02  0.84743959125E+02  0.30000000000E+02 0. -1.
     200000    1    3    3    0    0  0.38568959076E+03  0.32058350310E+03 -0.10952761396E+03  0.71660766191E+03  0.50000000000E+03 0.  1.
    -200001    1    1    2    0    0 -0.48619433670E+03 -0.34149567603E+03  0.83194295136E+03  0.12390049653E+04  0.70000000000E+03 0. -1.
<mgrwt>
<rscale>  0 0.20484178E+04</rscale>
<asrwt>0</asrwt>
<pdfrwt beam="1">  1        4 0.10428049E+00 0.20484178E+04</pdfrwt>
<pdfrwt beam="2">  1       -4 0.20529479E+00 0.20484178E+04</pdfrwt>
<totfact> 0.16914589E-01</totfact>
</mgrwt>
</event>
<event>
 8    1  0.5361529E-011  0.1539139E+04  0.7818608E-02  0.8858835E-01
          4   -1    0    0  501    0  0.00000000000E+00  0.00000000000E+00  0.40167652973E+03  0.40167853744E+03  0.12700000000E+01 0.  1.
         -4   -1    0    0    0  501 -0.00000000000E+00 -0.00000000000E+00 -0.14744078292E+04  0.14744083761E+04  0.12700000000E+01 0. -1.
     200001    2    1    2    0    0  0.13249166176E+03 -0.24737958856E+03 -0.34526344605E+03  0.82825096316E+03  0.69860010702E+03 0.  0.
    5000001    2    3    3    0    0  0.33895123197E+02 -0.38902049187E+02 -0.18049842848E+03  0.25350608684E+03  0.17036256800E+03 0.  0.
        -11    1    4    4    0    0  0.74120460829E+02 -0.72599197989E+02 -0.63026268158E+02  0.12139520889E+03  0.51100000000E-03 0. -1.
     200002    1    4    4    0    0 -0.40225337632E+02  0.33697148802E+02 -0.11747216032E+03  0.13211087796E+03  0.30000000000E+02 0. -1.
     200000    1    3    3    0    0  0.98596538564E+02 -0.20847753937E+03 -0.16476501757E+03  0.57474487632E+03  0.50000000000E+03 0.  1.
    -200001    1    1    2    0    0 -0.13249166176E+03  0.24737958856E+03 -0.72746785340E+03  0.10478359504E+04  0.70000000000E+03 0.  1.
<mgrwt>
<rscale>  0 0.15391393E+04</rscale>
<asrwt>0</asrwt>
<pdfrwt beam="1">  1        4 0.57382544E-01 0.15391393E+04</pdfrwt>
<pdfrwt beam="2">  1       -4 0.21062987E+00 0.15391393E+04</pdfrwt>
<totfact> 0.62698993E-01</totfact>
</mgrwt>
</event>
<event>
 8    1  0.5361529E-011  0.1659034E+04  0.7818608E-02  0.8785080E-01
          4   -1    0    0  501    0  0.00000000000E+00  0.00000000000E+00  0.42121703194E+03  0.42121894650E+03  0.12700000000E+01 0.  1.
         -4   -1    0    0    0  501 -0.00000000000E+00 -0.00000000000E+00 -0.16335908870E+04  0.16335913807E+04  0.12700000000E+01 0. -1.
     200001    2    1    2    0    0  0.36199520629E+03 -0.41134462672E+02 -0.28914718061E+03  0.84028158490E+03  0.69981031464E+03 0.  0.
    5000001    2    3    3    0    0  0.10048146993E+03 -0.51389683761E+02 -0.19510954296E+03  0.26814726400E+03  0.14525080391E+03 0.  0.
        -11    1    4    4    0    0  0.49661428797E+02 -0.75860404906E+02 -0.18141212696E+03  0.20280882218E+03  0.51100000000E-03 0. -1.
     200002    1    4    4    0    0  0.50820041136E+02  0.24470721145E+02 -0.13697415995E+02  0.65338441819E+02  0.30000000000E+02 0. -1.
     200000    1    3    3    0    0  0.26151373635E+03  0.10255221089E+02 -0.94037637649E+02  0.57213432090E+03  0.50000000000E+03 0.  1.
    -200001    1    1    2    0    0 -0.36199520629E+03  0.41134462672E+02 -0.92322667448E+03  0.12145287423E+04  0.70000000000E+03 0. -1.
<mgrwt>
<rscale>  0 0.16590344E+04</rscale>
<asrwt>0</asrwt>
<pdfrwt beam="1">  1        4 0.60174034E-01 0.16590344E+04</pdfrwt>
<pdfrwt beam="2">  1       -4 0.23337030E+00 0.16590344E+04</pdfrwt>
<totfact> 0.40208637E-01</totfact>
</mgrwt>
</event>
<event>
 8    1  0.5361529E-011  0.1607243E+04  0.7818608E-02  0.8816111E-01
          4   -1    0    0  501    0  0.00000000000E+00  0.00000000000E+00  0.12561080370E+04  0.12561086790E+04  0.12700000000E+01 0.  1.
         -4   -1    0    0    0  501 -0.00000000000E+00 -0.00000000000E+00 -0.51413221010E+03  0.51413377867E+03  0.12700000000E+01 0. -1.
     200001    2    1    2    0    0 -0.63803037384E+02  0.32817067823E+03  0.14014923374E+03  0.78842675711E+03  0.70014864278E+03 0.  0.
    5000001    2    3    3    0    0 -0.66364868687E+02  0.25320991776E+03  0.62971638262E+02  0.27697582121E+03  0.65043216882E+02 0.  0.
        -11    1    4    4    0    0 -0.26512762603E+02  0.15426438968E+03  0.54897994611E+02  0.16587410382E+03  0.51100000000E-03 0. -1.
     200002    1    4    4    0    0 -0.39852106084E+02  0.98945528081E+02  0.80736436511E+01  0.11110171740E+03  0.30000000000E+02 0.  1.
     200000    1    3    3    0    0  0.25618313028E+01  0.74960760472E+02  0.77177595475E+02  0.51145093590E+03  0.50000000000E+03 0. -1.
    -200001    1    1    2    0    0  0.63803037384E+02 -0.32817067823E+03  0.60182659312E+03  0.98181570054E+03  0.70000000000E+03 0.  1.
<mgrwt>
<rscale>  0 0.16072431E+04</rscale>
<asrwt>0</asrwt>
<pdfrwt beam="1">  1        4 0.17944417E+00 0.16072431E+04</pdfrwt>
<pdfrwt beam="2">  1       -4 0.73447616E-01 0.16072431E+04</pdfrwt>
<totfact> 0.58857085E-01</totfact>
</mgrwt>
</event>
<event>
 8    1  0.5361529E-011  0.2022261E+04  0.7818608E-02  0.8596283E-01
         -4   -1    0    0    0  501 -0.00000000000E+00  0.00000000000E+00  0.78842581056E+03  0.78842683343E+03  0.12700000000E+01 0. -1.
          4   -1    0    0  501    0  0.00000000000E+00 -0.00000000000E+00 -0.12967399081E+04  0.12967405300E+04  0.12700000000E+01 0.  1.
     200001    2    1    2    0    0  0.44609604103E+03  0.12219672445E+02 -0.84908422974E+03  0.11877960461E+04  0.70054580127E+03 0.  0.
    5000001    2    3    3    0    0  0.13651108736E+03  0.76552589623E+02 -0.19834843546E+03  0.30834244201E+03  0.17674100753E+03 0.  0.
        -11    1    4    4    0    0  0.14484537536E+03  0.28319334457E+02 -0.61405465203E+02  0.15985242765E+03  0.51100000000E-03 0. -1.
     200002    1    4    4    0    0 -0.83342880053E+01  0.48233255167E+02 -0.13694297026E+03  0.14849001436E+03  0.30000000000E+02 0. -1.
     200000    1    3    3    0    0  0.30958495368E+03 -0.64332917178E+02 -0.65073579428E+03  0.87945360408E+03  0.50000000000E+03 0.  1.
    -200001    1    1    2    0    0 -0.44609604103E+03 -0.12219672445E+02  0.34077013219E+03  0.89737131736E+03  0.70000000000E+03 0. -1.
<mgrwt>
<rscale>  0 0.20222610E+04</rscale>
<asrwt>0</asrwt>
<pdfrwt beam="1">  1        4 0.18524868E+00 0.20222610E+04</pdfrwt>
<pdfrwt beam="2">  1       -4 0.11263238E+00 0.20222610E+04</pdfrwt>
<totfact> 0.19143415E-01</totfact>
</mgrwt>
</event>
<event>
 8    1  0.5361529E-011  0.2072647E+04  0.7818608E-02  0.8573389E-01
         -4   -1    0    0    0  501 -0.00000000000E+00  0.00000000000E+00  0.18530641917E+04  0.18530646269E+04  0.12700000000E+01 0. -1.
          4   -1    0    0  501    0  0.00000000000E+00 -0.00000000000E+00 -0.57956135073E+03  0.57956274221E+03  0.12700000000E+01 0.  1.
     200001    2    1    2    0    0  0.43003270599E+03 -0.60813254678E+03  0.43477623096E+03  0.11104263069E+04  0.69947329422E+03 0.  0.
    5000001    2    3    3    0    0  0.11908811300E+02 -0.12895510875E+03 -0.23060974145E+02  0.18088151785E+03  0.12415746097E+03 0.  0.
        -11    1    4    4    0    0  0.29320037593E+02 -0.79438391669E+01 -0.43797190235E+02  0.53300685341E+02  0.51100000000E-03 0. -1.
     200002    1    4    4    0    0 -0.17411226293E+02 -0.12101126958E+03  0.20736216089E+02  0.12758083251E+03  0.30000000000E+02 0. -1.
     200000    1    3    3    0    0  0.41812389469E+03 -0.47917743803E+03  0.45783720510E+03  0.92954478902E+03  0.50000000000E+03 0.  1.
    -200001    1    1    2    0    0 -0.43003270599E+03  0.60813254678E+03  0.83872661003E+03  0.13222010623E+04  0.70000000000E+03 0. -1.
<mgrwt>
<rscale>  0 0.20726472E+04</rscale>
<asrwt>0</asrwt>
<pdfrwt beam="1">  1        4 0.82794609E-01 0.20726472E+04</pdfrwt>
<pdfrwt beam="2">  1       -4 0.26472359E+00 0.20726472E+04</pdfrwt>
<totfact> 0.12225964E-01</totfact>
</mgrwt>
</event>
<event>
 8    1  0.5361529E-011  0.1890862E+04  0.7818608E-02  0.8659419E-01
         -4   -1    0    0    0  501 -0.00000000000E+00  0.00000000000E+00  0.54450951101E+03  0.54451099207E+03  0.12700000000E+01 0. -1.
          4   -1    0    0  501    0  0.00000000000E+00 -0.00000000000E+00 -0.16415455821E+04  0.16415460734E+04  0.12700000000E+01 0.  1.
     200001    2    1    2    0    0 -0.13660239551E+03  0.61415863365E+03 -0.64922266027E+03  0.11437577358E+04  0.70060020964E+03 0.  0.
    5000001    2    3    3    0    0 -0.72991445563E+02  0.29913982850E+03 -0.18917897279E+03  0.39214387549E+03  0.15223582765E+03 0.  0.
        -11    1    4    4    0    0 -0.42654639929E+02  0.26041211710E+02 -0.81289406806E+02  0.95422904347E+02  0.51100000000E-03 0. -1.
     200002    1    4    4    0    0 -0.30336805634E+02  0.27309861679E+03 -0.10788956598E+03  0.29672097115E+03  0.30000000000E+02 0. -1.
     200000    1    3    3    0    0 -0.63610949942E+02  0.31501880515E+03 -0.46004368748E+03  0.75161386026E+03  0.50000000000E+03 0.  1.
    -200001    1    1    2    0    0  0.13660239551E+03 -0.61415863365E+03 -0.44781341081E+03  0.10422993297E+04  0.70000000000E+03 0. -1.
<mgrwt>
<rscale>  0 0.18908615E+04</rscale>
<asrwt>0</asrwt>
<pdfrwt beam="1">  1        4 0.23450665E+00 0.18908615E+04</pdfrwt>
<pdfrwt beam="2">  1       -4 0.77787214E-01 0.18908615E+04</pdfrwt>
<totfact> 0.22051803E-01</totfact>
</mgrwt>
</event>
<event>
 8    1  0.5361529E-011  0.1440223E+04  0.7818608E-02  0.8925207E-01
          4   -1    0    0  501    0  0.00000000000E+00  0.00000000000E+00  0.54705344624E+03  0.54705492041E+03  0.12700000000E+01 0. -1.
         -4   -1    0    0    0  501 -0.00000000000E+00 -0.00000000000E+00 -0.94791292474E+03  0.94791377550E+03  0.12700000000E+01 0.  1.
     200001    2    1    2    0    0 -0.12502381284E+03  0.29286464850E+02 -0.88801379522E+02  0.71787867028E+03  0.70069640319E+03 0.  0.
    5000001    2    3    3    0    0  0.37634514970E+02  0.58245069970E+02 -0.21191903924E+02  0.18696683805E+03  0.17233298246E+03 0.  0.
        -11    1    4    4    0    0  0.84265532105E+01  0.11444108895E+03 -0.22208577189E+02  0.11688024016E+03  0.51100000000E-03 0. -1.
     200002    1    4    4    0    0  0.29207961760E+02 -0.56196018978E+02  0.10166732655E+01  0.70086597889E+02  0.30000000000E+02 0. -1.
     200000    1    3    3    0    0 -0.16265832781E+03 -0.28958605120E+02 -0.67609475598E+02  0.53091183223E+03  0.50000000000E+03 0. -1.
    -200001    1    1    2    0    0  0.12502381284E+03 -0.29286464850E+02 -0.31205809898E+03  0.77709002563E+03  0.70000000000E+03 0.  1.
<mgrwt>
<rscale>  0 0.14402233E+04</rscale>
<asrwt>0</asrwt>
<pdfrwt beam="1">  1        4 0.78150658E-01 0.14402233E+04</pdfrwt>
<pdfrwt beam="2">  1       -4 0.13541630E+00 0.14402233E+04</pdfrwt>
<totfact> 0.11121889E+00</totfact>
</mgrwt>
</event>
<event>
 8    1  0.5361529E-011  0.1611246E+04  0.7818608E-02  0.8813669E-01
          4   -1    0    0  501    0  0.00000000000E+00  0.00000000000E+00  0.52856922282E+03  0.52857074854E+03  0.12700000000E+01 0.  1.
         -4   -1    0    0    0  501 -0.00000000000E+00 -0.00000000000E+00 -0.12278927943E+04  0.12278934511E+04  0.12700000000E+01 0. -1.
     200001    2    1    2    0    0  0.27417576316E+03 -0.28955514722E+03 -0.33902890619E+03  0.87395256895E+03  0.69988424840E+03 0.  0.
    5000001    2    3    3    0    0  0.70199017736E+02 -0.10988983181E+03 -0.95823366688E+02  0.25505429566E+03  0.19714689677E+03 0.  0.
        -11    1    4    4    0    0 -0.55308662535E+02  0.10725355921E+02 -0.53396981709E+01  0.56591463913E+02  0.51100000000E-03 0. -1.
     200002    1    4    4    0    0  0.12550768027E+03 -0.12061518773E+03 -0.90483668517E+02  0.19846283175E+03  0.30000000000E+02 0. -1.
     200000    1    3    3    0    0  0.20397674543E+03 -0.17966531541E+03 -0.24320553950E+03  0.61889827329E+03  0.50000000000E+03 0.  1.
    -200001    1    1    2    0    0 -0.27417576316E+03  0.28955514722E+03 -0.36029466526E+03  0.88251163063E+03  0.70000000000E+03 0.  1.
<mgrwt>
<rscale>  0 0.16112458E+04</rscale>
<asrwt>0</asrwt>
<pdfrwt beam="1">  1        4 0.75510045E-01 0.16112458E+04</pdfrwt>
<pdfrwt beam="2">  1       -4 0.17541341E+00 0.16112458E+04</pdfrwt>
<totfact> 0.59020734E-01</totfact>
</mgrwt>
</event>
<event>
 8    1  0.5361529E-011  0.1470604E+04  0.7818608E-02  0.8904239E-01
          4   -1    0    0  501    0  0.00000000000E+00  0.00000000000E+00  0.31373928903E+03  0.31374185946E+03  0.12700000000E+01 0.  1.
         -4   -1    0    0    0  501 -0.00000000000E+00 -0.00000000000E+00 -0.17232976164E+04  0.17232980843E+04  0.12700000000E+01 0. -1.
     200001    2    1    2    0    0 -0.10722993557E+03 -0.18360177146E+03 -0.60034012676E+03  0.94614949755E+03  0.69970188963E+03 0.  0.
    5000001    2    3    3    0    0  0.73934547956E+01 -0.90049274828E+02 -0.17772849734E+03  0.27496309977E+03  0.18935087113E+03 0.  0.
        -11    1    4    4    0    0  0.67877493157E+02 -0.10039309326E+03 -0.51984133256E+02  0.13186537590E+03  0.51100000000E-03 0. -1.
     200002    1    4    4    0    0 -0.60484038361E+02  0.10343818433E+02 -0.12574436409E+03  0.14309772387E+03  0.30000000000E+02 0. -1.
     200000    1    3    3    0    0 -0.11462339036E+03 -0.93552496628E+02 -0.42261162941E+03  0.67118639778E+03  0.50000000000E+03 0. -1.
    -200001    1    1    2    0    0  0.10722993557E+03  0.18360177146E+03 -0.80921820059E+03  0.10908904463E+04  0.70000000000E+03 0. -1.
<mgrwt>
<rscale>  0 0.14706043E+04</rscale>
<asrwt>0</asrwt>
<pdfrwt beam="1">  1        4 0.44820116E-01 0.14706043E+04</pdfrwt>
<pdfrwt beam="2">  1       -4 0.24618559E+00 0.14706043E+04</pdfrwt>
<totfact> 0.62983440E-01</totfact>
</mgrwt>
</event>
<event>
 8    1  0.5361529E-011  0.1959732E+04  0.7818608E-02  0.8625682E-01
          4   -1    0    0  501    0  0.00000000000E+00  0.00000000000E+00  0.89877469701E+03  0.89877559429E+03  0.12700000000E+01 0.  1.
         -4   -1    0    0    0  501 -0.00000000000E+00 -0.00000000000E+00 -0.10682721818E+04  0.10682729367E+04  0.12700000000E+01 0. -1.
     200001    2    1    2    0    0  0.44609786271E+03  0.51833209162E+03 -0.12350289309E+03  0.98736135501E+03  0.70139719164E+03 0.  0.
    5000001    2    3    3    0    0  0.13475285504E+03  0.96551385395E+02 -0.68208923180E+02  0.26079951934E+03  0.18942922193E+03 0.  0.
        -11    1    4    4    0    0  0.16059810510E+03  0.44500079872E+02 -0.93017126748E+02  0.19085123615E+03  0.51100000000E-03 0. -1.
     200002    1    4    4    0    0 -0.25845250053E+02  0.52051305523E+02  0.24808203569E+02  0.69948283190E+02  0.30000000000E+02 0. -1.
     200000    1    3    3    0    0  0.31134500767E+03  0.42178070622E+03 -0.55293969915E+02  0.72656183567E+03  0.50000000000E+03 0. -1.
    -200001    1    1    2    0    0 -0.44609786271E+03 -0.51833209162E+03 -0.45994591687E+02  0.97968717598E+03  0.70000000000E+03 0. -1.
<mgrwt>
<rscale>  0 0.19597323E+04</rscale>
<asrwt>0</asrwt>
<pdfrwt beam="1">  1        4 0.12839650E+00 0.19597323E+04</pdfrwt>
<pdfrwt beam="2">  1       -4 0.15261043E+00 0.19597323E+04</pdfrwt>
<totfact> 0.23873775E-01</totfact>
</mgrwt>
</event>
<event>
 8    1  0.5361529E-011  0.1453020E+04  0.7818608E-02  0.8916309E-01
          4   -1    0    0  501    0  0.00000000000E+00  0.00000000000E+00  0.86928773004E+03  0.86928865775E+03  0.12700000000E+01 0.  1.
         -4   -1    0    0    0  501 -0.00000000000E+00 -0.00000000000E+00 -0.60718139149E+03  0.60718271968E+03  0.12700000000E+01 0. -1.
     200001    2    1    2    0    0  0.14050760075E+03  0.11646877661E+03  0.64363845519E+02  0.72653174296E+03  0.70028444730E+03 0.  0.
    5000001    2    3    3    0    0  0.79418812522E+02 -0.88683750559E+01  0.62071919949E+02  0.20744938480E+03  0.18109756527E+03 0.  0.
        -11    1    4    4    0    0 -0.41358283297E+02  0.60042516631E+01  0.70367712431E+02  0.81842370373E+02  0.51100000000E-03 0. -1.
     200002    1    4    4    0    0  0.12077709582E+03 -0.14872626719E+02 -0.82957924819E+01  0.12560701443E+03  0.30000000000E+02 0. -1.
     200000    1    3    3    0    0  0.61088788229E+02  0.12533715167E+03  0.22919255706E+01  0.51908235817E+03  0.50000000000E+03 0. -1.
    -200001    1    1    2    0    0 -0.14050760075E+03 -0.11646877661E+03  0.19774249303E+03  0.74993963447E+03  0.70000000000E+03 0. -1.
<mgrwt>
<rscale>  0 0.14530203E+04</rscale>
<asrwt>0</asrwt>
<pdfrwt beam="1">  1        4 0.12418412E+00 0.14530203E+04</pdfrwt>
<pdfrwt beam="2">  1       -4 0.86740361E-01 0.14530203E+04</pdfrwt>
<totfact> 0.10916599E+00</totfact>
</mgrwt>
</event>
<event>
 8    1  0.5361529E-011  0.1426192E+04  0.7818608E-02  0.8935075E-01
         -4   -1    0    0    0  501 -0.00000000000E+00  0.00000000000E+00  0.25376001877E+04  0.25376005055E+04  0.12700000000E+01 0. -1.
          4   -1    0    0  501    0  0.00000000000E+00 -0.00000000000E+00 -0.20038608760E+03  0.20039011204E+03  0.12700000000E+01 0.  1.
     200001    2    1    2    0    0  0.68478467568E+02  0.51901444033E+02  0.13616168507E+04  0.15341745795E+04  0.70164672865E+03 0.  0.
    5000001    2    3    3    0    0  0.20929465186E+02 -0.73000374209E+00  0.31398280254E+03  0.37117497683E+03  0.19684279950E+03 0.  0.
        -11    1    4    4    0    0  0.71869238168E+02 -0.52388270260E+02  0.65136330023E+02  0.11023819549E+03  0.51100000000E-03 0. -1.
     200002    1    4    4    0    0 -0.50939772982E+02  0.51658266518E+02  0.24884647252E+03  0.26093678134E+03  0.30000000000E+02 0. -1.
     200000    1    3    3    0    0  0.47549002382E+02  0.52631447775E+02  0.10476340482E+04  0.11629996027E+04  0.50000000000E+03 0.  1.
    -200001    1    1    2    0    0 -0.68478467568E+02 -0.51901444033E+02  0.97559724939E+03  0.12038160380E+04  0.70000000000E+03 0.  1.
<mgrwt>
<rscale>  0 0.14261917E+04</rscale>
<asrwt>0</asrwt>
<pdfrwt beam="1">  1        4 0.28626896E-01 0.14261917E+04</pdfrwt>
<pdfrwt beam="2">  1       -4 0.36251460E+00 0.14261917E+04</pdfrwt>
<totfact> 0.28610041E-01</totfact>
</mgrwt>
</event>
<event>
 8    1  0.5361529E-011  0.1569563E+04  0.7818608E-02  0.8839468E-01
          4   -1    0    0  501    0  0.00000000000E+00  0.00000000000E+00  0.50327002161E+03  0.50327162403E+03  0.12700000000E+01 0.  1.
         -4   -1    0    0    0  501 -0.00000000000E+00 -0.00000000000E+00 -0.12237570799E+04  0.12237577389E+04  0.12700000000E+01 0. -1.
     200001    2    1    2    0    0 -0.34319249946E+03 -0.54098355637E+02 -0.38951659238E+03  0.87835441154E+03  0.70645281001E+03 0.  0.
    5000001    2    3    3    0    0 -0.16550560643E+03 -0.95966781892E+01 -0.75619462535E+02  0.26022461986E+03  0.18578037483E+03 0.  0.
        -11    1    4    4    0    0 -0.16683235648E+03  0.58642225868E-01  0.11838771979E+02  0.16725189126E+03  0.51100000000E-03 0. -1.
     200002    1    4    4    0    0  0.13267500518E+01 -0.96553204151E+01 -0.87458234514E+02  0.92972728595E+02  0.30000000000E+02 0. -1.
     200000    1    3    3    0    0 -0.17768689303E+03 -0.44501677448E+02 -0.31389712984E+03  0.61812979169E+03  0.50000000000E+03 0. -1.
    -200001    1    1    2    0    0  0.34319249946E+03  0.54098355637E+02 -0.33097046588E+03  0.84867495135E+03  0.70000000000E+03 0. -1.
<mgrwt>
<rscale>  0 0.15695633E+04</rscale>
<asrwt>0</asrwt>
<pdfrwt beam="1">  1        4 0.71895879E-01 0.15695633E+04</pdfrwt>
<pdfrwt beam="2">  1       -4 0.17482260E+00 0.15695633E+04</pdfrwt>
<totfact> 0.66691661E-01</totfact>
</mgrwt>
</event>
<event>
 8    1  0.5361529E-011  0.1608589E+04  0.7818608E-02  0.8815289E-01
         -4   -1    0    0    0  501 -0.00000000000E+00  0.00000000000E+00  0.11734775299E+04  0.11734782171E+04  0.12700000000E+01 0. -1.
          4   -1    0    0  501    0  0.00000000000E+00 -0.00000000000E+00 -0.55125723023E+03  0.55125869316E+03  0.12700000000E+01 0.  1.
     200001    2    1    2    0    0  0.73392000199E+02 -0.11214137843E+03 -0.78727094943E+02  0.72509231121E+03  0.70823642229E+03 0.  0.
    5000001    2    3    3    0    0 -0.11569905832E+03 -0.84532352697E+02  0.48804361927E+00  0.18398906331E+03  0.11541120606E+03 0.  0.
        -11    1    4    4    0    0 -0.12966822970E+03 -0.61147581898E+02  0.29479273232E+01  0.14339305018E+03  0.51100000000E-03 0. -1.
     200002    1    4    4    0    0  0.13969171376E+02 -0.23384770800E+02 -0.24598837039E+01  0.40596013131E+02  0.30000000000E+02 0. -1.
     200000    1    3    3    0    0  0.18909105852E+03 -0.27609025735E+02 -0.79215138562E+02  0.54110324790E+03  0.50000000000E+03 0.  1.
    -200001    1    1    2    0    0 -0.73392000199E+02  0.11214137843E+03  0.70094739460E+03  0.99964459907E+03  0.70000000000E+03 0.  1.
<mgrwt>
<rscale>  0 0.16085892E+04</rscale>
<asrwt>0</asrwt>
<pdfrwt beam="1">  1        4 0.78751187E-01 0.16085892E+04</pdfrwt>
<pdfrwt beam="2">  1       -4 0.16763980E+00 0.16085892E+04</pdfrwt>
<totfact> 0.61004605E-01</totfact>
</mgrwt>
</event>
<event>
 8    1  0.5361529E-011  0.1614436E+04  0.7818608E-02  0.8811728E-01
          4   -1    0    0  501    0  0.00000000000E+00  0.00000000000E+00  0.66951368118E+03  0.66951488571E+03  0.12700000000E+01 0.  1.
         -4   -1    0    0    0  501 -0.00000000000E+00 -0.00000000000E+00 -0.97324278454E+03  0.97324361316E+03  0.12700000000E+01 0. -1.
     200001    2    1    2    0    0  0.96393548028E+02 -0.39151801780E+03 -0.14218105559E+03  0.81894065123E+03  0.69847710292E+03 0.  0.
    5000001    2    3    3    0    0  0.12361075594E+03 -0.22964290001E+03 -0.72278331121E+02  0.28806333861E+03  0.98695741505E+02 0.  0.
        -11    1    4    4    0    0  0.26888201659E+02 -0.85121482795E+02 -0.66825285614E+02  0.11150901766E+03  0.51100000000E-03 0. -1.
     200002    1    4    4    0    0  0.96722554278E+02 -0.14452141722E+03 -0.54530455073E+01  0.17655432095E+03  0.30000000000E+02 0. -1.
     200000    1    3    3    0    0 -0.27217207909E+02 -0.16187511779E+03 -0.69902724472E+02  0.53087731262E+03  0.50000000000E+03 0. -1.
    -200001    1    1    2    0    0 -0.96393548028E+02  0.39151801780E+03 -0.16154804777E+03  0.82381784765E+03  0.70000000000E+03 0. -1.
<mgrwt>
<rscale>  0 0.16144362E+04</rscale>
<asrwt>0</asrwt>
<pdfrwt beam="1">  1        4 0.95644957E-01 0.16144362E+04</pdfrwt>
<pdfrwt beam="2">  1       -4 0.13903483E+00 0.16144362E+04</pdfrwt>
<totfact> 0.64408676E-01</totfact>
</mgrwt>
</event>
<event>
 8    1  0.5361529E-011  0.1763882E+04  0.7818608E-02  0.8725746E-01
         -4   -1    0    0    0  501 -0.00000000000E+00  0.00000000000E+00  0.52941408811E+03  0.52941561140E+03  0.12700000000E+01 0. -1.
          4   -1    0    0  501    0  0.00000000000E+00 -0.00000000000E+00 -0.14692053265E+04  0.14692058754E+04  0.12700000000E+01 0.  1.
     200001    2    1    2    0    0 -0.12715332574E+03 -0.26371907695E+03 -0.97763704415E+03  0.12389188971E+04  0.70244581550E+03 0.  0.
    5000001    2    3    3    0    0  0.95166641523E+01 -0.47729157021E+02 -0.35298617993E+03  0.39896709264E+03  0.17946269379E+03 0.  0.
        -11    1    4    4    0    0  0.22227795451E+02  0.52168820549E+02 -0.41599064787E+02  0.70328819978E+02  0.51100000000E-03 0. -1.
     200002    1    4    4    0    0 -0.12711131299E+02 -0.99897977570E+02 -0.31138711514E+03  0.32863827266E+03  0.30000000000E+02 0. -1.
     200000    1    3    3    0    0 -0.13666998989E+03 -0.21598991993E+03 -0.62465086422E+03  0.83995180446E+03  0.50000000000E+03 0.  1.
    -200001    1    1    2    0    0  0.12715332574E+03  0.26371907695E+03  0.37845805758E+02  0.75970258971E+03  0.70000000000E+03 0. -1.
<mgrwt>
<rscale>  0 0.17638822E+04</rscale>
<asrwt>0</asrwt>
<pdfrwt beam="1">  1        4 0.20988662E+00 0.17638822E+04</pdfrwt>
<pdfrwt beam="2">  1       -4 0.75630732E-01 0.17638822E+04</pdfrwt>
<totfact> 0.34059830E-01</totfact>
</mgrwt>
</event>
<event>
 8    1  0.5361529E-011  0.1562517E+04  0.7818608E-02  0.8843912E-01
          4   -1    0    0  501    0  0.00000000000E+00  0.00000000000E+00  0.28353321123E+03  0.28353605550E+03  0.12700000000E+01 0.  1.
         -4   -1    0    0    0  501 -0.00000000000E+00 -0.00000000000E+00 -0.21526970217E+04  0.21526973963E+04  0.12700000000E+01 0. -1.
     200001    2    1    2    0    0  0.33612091173E+03  0.53732363277E+02 -0.10410085941E+04  0.12997012276E+04  0.69975706784E+03 0.  0.
    5000001    2    3    3    0    0  0.98448493785E+02  0.16155433497E+02 -0.17133182968E+03  0.26808217079E+03  0.18044486824E+03 0.  0.
        -11    1    4    4    0    0  0.98067104470E+02  0.73980939319E+02 -0.54659480106E+02  0.13445443513E+03  0.51100000000E-03 0. -1.
     200002    1    4    4    0    0  0.38138931571E+00 -0.57825505822E+02 -0.11667234957E+03  0.13362773565E+03  0.30000000000E+02 0. -1.
     200000    1    3    3    0    0  0.23767241794E+03  0.37576929779E+02 -0.86967676439E+03  0.10316190568E+04  0.50000000000E+03 0. -1.
    -200001    1    1    2    0    0 -0.33612091173E+03 -0.53732363277E+02 -0.82815521637E+03  0.11365322242E+04  0.70000000000E+03 0.  1.
<mgrwt>
<rscale>  0 0.15625172E+04</rscale>
<asrwt>0</asrwt>
<pdfrwt beam="1">  1        4 0.40504976E-01 0.15625172E+04</pdfrwt>
<pdfrwt beam="2">  1       -4 0.30752837E+00 0.15625172E+04</pdfrwt>
<totfact> 0.32067601E-01</totfact>
</mgrwt>
</event>
<event>
 8    1  0.5361529E-011  0.1661219E+04  0.7818608E-02  0.8783797E-01
          4   -1    0    0  501    0  0.00000000000E+00  0.00000000000E+00  0.58725361267E+03  0.58725498592E+03  0.12700000000E+01 0.  1.
         -4   -1    0    0    0  501 -0.00000000000E+00 -0.00000000000E+00 -0.11748087402E+04  0.11748094267E+04  0.12700000000E+01 0. -1.
     200001    2    1    2    0    0  0.93305954173E+02  0.11074863518E+03 -0.74133569035E+03  0.10308874691E+04  0.70155477819E+03 0.  0.
    5000001    2    3    3    0    0  0.14762818131E+03  0.87610435580E+02 -0.32796329750E+03  0.37945595631E+03  0.83410010973E+02 0.  0.
        -11    1    4    4    0    0  0.78497359473E+02  0.61797262332E+02 -0.11640472966E+03  0.15339751681E+03  0.51100000000E-03 0. -1.
     200002    1    4    4    0    0  0.69130821832E+02  0.25813173248E+02 -0.21155856784E+03  0.22605843950E+03  0.30000000000E+02 0. -1.
     200000    1    3    3    0    0 -0.54322227132E+02  0.23138199601E+02 -0.41337239285E+03  0.65143151275E+03  0.50000000000E+03 0. -1.
    -200001    1    1    2    0    0 -0.93305954173E+02 -0.11074863518E+03  0.15378056279E+03  0.73117694354E+03  0.70000000000E+03 0.  1.
<mgrwt>
<rscale>  0 0.16612194E+04</rscale>
<asrwt>0</asrwt>
<pdfrwt beam="1">  1        4 0.83893521E-01 0.16612194E+04</pdfrwt>
<pdfrwt beam="2">  1       -4 0.16782997E+00 0.16612194E+04</pdfrwt>
<totfact> 0.52451370E-01</totfact>
</mgrwt>
</event>
<event>
 8    1  0.5361529E-011  0.1908184E+04  0.7818608E-02  0.8650793E-01
          4   -1    0    0  501    0  0.00000000000E+00  0.00000000000E+00  0.11238161646E+04  0.11238168822E+04  0.12700000000E+01 0.  1.
         -4   -1    0    0    0  501 -0.00000000000E+00 -0.00000000000E+00 -0.80999930641E+03  0.81000030202E+03  0.12700000000E+01 0. -1.
     200001    2    1    2    0    0 -0.43439093436E+03  0.15177612531E+03  0.62026249194E+03  0.10418304117E+04  0.69925215173E+03 0.  0.
    5000001    2    3    3    0    0 -0.18821600315E+03  0.24265984134E+02  0.25533163492E+03  0.36357127000E+03  0.17599921235E+03 0.  0.
        -11    1    4    4    0    0 -0.11374820802E+03 -0.64467521853E+02  0.17888965315E+03  0.22157667794E+03  0.51100000000E-03 0. -1.
     200002    1    4    4    0    0 -0.74467795135E+02  0.88733505987E+02  0.76441981774E+02  0.14199459206E+03  0.30000000000E+02 0. -1.
     200000    1    3    3    0    0 -0.24617493121E+03  0.12751014118E+03  0.36493085702E+03  0.67825914167E+03  0.50000000000E+03 0.  1.
    -200001    1    1    2    0    0  0.43439093436E+03 -0.15177612531E+03 -0.30644563371E+03  0.89198677260E+03  0.70000000000E+03 0. -1.
<mgrwt>
<rscale>  0 0.19081844E+04</rscale>
<asrwt>0</asrwt>
<pdfrwt beam="1">  1        4 0.16054529E+00 0.19081844E+04</pdfrwt>
<pdfrwt beam="2">  1       -4 0.11571431E+00 0.19081844E+04</pdfrwt>
<totfact> 0.27103518E-01</totfact>
</mgrwt>
</event>
<event>
 8    1  0.5361529E-011  0.1765791E+04  0.7818608E-02  0.8724706E-01
          4   -1    0    0  501    0  0.00000000000E+00  0.00000000000E+00  0.84882811766E+03  0.84882906773E+03  0.12700000000E+01 0.  1.
         -4   -1    0    0    0  501 -0.00000000000E+00 -0.00000000000E+00 -0.91832833065E+03  0.91832920882E+03  0.12700000000E+01 0. -1.
     200001    2    1    2    0    0  0.13080548739E+03  0.41531940279E+03 -0.35193616584E+03  0.89573969210E+03  0.69920687161E+03 0.  0.
    5000001    2    3    3    0    0  0.11582895444E+03  0.14351296416E+03 -0.20329890292E+03  0.30735540224E+03  0.13829165481E+03 0.  0.
        -11    1    4    4    0    0  0.93955558563E+02  0.11988266380E+03 -0.21341948129E+03  0.26219720643E+03  0.51100000000E-03 0. -1.
     200002    1    4    4    0    0  0.21873395873E+02  0.23630300367E+02  0.10120578373E+02  0.45158195813E+02  0.30000000000E+02 0. -1.
     200000    1    3    3    0    0  0.14976532952E+02  0.27180643863E+03 -0.14863726292E+03  0.58838428986E+03  0.50000000000E+03 0. -1.
    -200001    1    1    2    0    0 -0.13080548739E+03 -0.41531940279E+03  0.28243595285E+03  0.87141858445E+03  0.70000000000E+03 0.  1.
<mgrwt>
<rscale>  0 0.17657911E+04</rscale>
<asrwt>0</asrwt>
<pdfrwt beam="1">  1        4 0.12126129E+00 0.17657911E+04</pdfrwt>
<pdfrwt beam="2">  1       -4 0.13118989E+00 0.17657911E+04</pdfrwt>
<totfact> 0.41591903E-01</totfact>
</mgrwt>
</event>
<event>
 8    1  0.5361529E-011  0.2617111E+04  0.7818608E-02  0.8362412E-01
         -4   -1    0    0    0  501 -0.00000000000E+00  0.00000000000E+00  0.13830693017E+04  0.13830698848E+04  0.12700000000E+01 0. -1.
          4   -1    0    0  501    0  0.00000000000E+00 -0.00000000000E+00 -0.12380551220E+04  0.12380557734E+04  0.12700000000E+01 0.  1.
     200001    2    1    2    0    0  0.64394278563E+03  0.19258177641E+03  0.95161271425E+03  0.13592416509E+04  0.70015787932E+03 0.  0.
    5000001    2    3    3    0    0  0.26386600115E+03  0.12621398025E+03  0.36668570058E+03  0.49842653852E+03  0.16856860893E+03 0.  0.
        -11    1    4    4    0    0  0.92378247046E+02 -0.21993738491E+02  0.48536815230E+02  0.10664561638E+03  0.51100000000E-03 0. -1.
     200002    1    4    4    0    0  0.17148775410E+03  0.14820771874E+03  0.31814888535E+03  0.39178092214E+03  0.30000000000E+02 0. -1.
     200000    1    3    3    0    0  0.38007678448E+03  0.66367796161E+02  0.58492701367E+03  0.86081511243E+03  0.50000000000E+03 0. -1.
    -200001    1    1    2    0    0 -0.64394278563E+03 -0.19258177641E+03 -0.80659853460E+03  0.12618840073E+04  0.70000000000E+03 0.  1.
<mgrwt>
<rscale>  0 0.26171111E+04</rscale>
<asrwt>0</asrwt>
<pdfrwt beam="1">  1        4 0.17686510E+00 0.26171111E+04</pdfrwt>
<pdfrwt beam="2">  1       -4 0.19758142E+00 0.26171111E+04</pdfrwt>
<totfact> 0.45936236E-02</totfact>
</mgrwt>
</event>
<event>
 8    1  0.5361529E-011  0.1831119E+04  0.7818608E-02  0.8689923E-01
          4   -1    0    0  501    0  0.00000000000E+00  0.00000000000E+00  0.16890830043E+04  0.16890834818E+04  0.12700000000E+01 0.  1.
         -4   -1    0    0    0  501 -0.00000000000E+00 -0.00000000000E+00 -0.49627348129E+03  0.49627510630E+03  0.12700000000E+01 0. -1.
     200001    2    1    2    0    0  0.43374941003E+03  0.38053039878E+03  0.74477765174E+03  0.11735905846E+04  0.69977080154E+03 0.  0.
    5000001    2    3    3    0    0  0.10131467730E+03  0.44063035427E+02  0.15257013501E+03  0.26560772080E+03  0.18725277121E+03 0.  0.
        -11    1    4    4    0    0 -0.13106636729E+02  0.45821909433E+02  0.13850161182E+03  0.14647227651E+03  0.51100000000E-03 0. -1.
     200002    1    4    4    0    0  0.11442131403E+03 -0.17588740065E+01  0.14068523196E+02  0.11913544429E+03  0.30000000000E+02 0. -1.
     200000    1    3    3    0    0  0.33243473273E+03  0.33646736335E+03  0.59220751673E+03  0.90798286382E+03  0.50000000000E+03 0. -1.
    -200001    1    1    2    0    0 -0.43374941003E+03 -0.38053039878E+03  0.44803187128E+03  0.10117680034E+04  0.70000000000E+03 0.  1.
<mgrwt>
<rscale>  0 0.18311192E+04</rscale>
<asrwt>0</asrwt>
<pdfrwt beam="1">  1        4 0.24129772E+00 0.18311192E+04</pdfrwt>
<pdfrwt beam="2">  1       -4 0.70896363E-01 0.18311192E+04</pdfrwt>
<totfact> 0.24726450E-01</totfact>
</mgrwt>
</event>
<event>
 8    1  0.5361529E-011  0.2460306E+04  0.7818608E-02  0.8417265E-01
          4   -1    0    0  501    0  0.00000000000E+00  0.00000000000E+00  0.12175441667E+04  0.12175448291E+04  0.12700000000E+01 0.  1.
         -4   -1    0    0    0  501 -0.00000000000E+00 -0.00000000000E+00 -0.12428913668E+04  0.12428920157E+04  0.12700000000E+01 0. -1.
     200001    2    1    2    0    0 -0.31944123393E+03 -0.62951881106E+03 -0.73635875862E+03  0.12381954317E+04  0.70183122642E+03 0.  0.
    5000001    2    3    3    0    0 -0.15139725590E+02 -0.22541272015E+02 -0.73456057986E+02  0.16559992019E+03  0.14591168863E+03 0.  0.
        -11    1    4    4    0    0 -0.23737197259E+02 -0.73319760636E+02 -0.86452567413E+01  0.77549869747E+02  0.51100000000E-03 0. -1.
     200002    1    4    4    0    0  0.85974716689E+01  0.50778488621E+02 -0.64810801245E+02  0.88050050447E+02  0.30000000000E+02 0. -1.
     200000    1    3    3    0    0 -0.30430150834E+03 -0.60697753904E+03 -0.66290270064E+03  0.10725955115E+04  0.50000000000E+03 0. -1.
    -200001    1    1    2    0    0  0.31944123393E+03  0.62951881106E+03  0.71101155852E+03  0.12222414130E+04  0.70000000000E+03 0.  1.
<mgrwt>
<rscale>  0 0.24603063E+04</rscale>
<asrwt>0</asrwt>
<pdfrwt beam="1">  1        4 0.17393498E+00 0.24603063E+04</pdfrwt>
<pdfrwt beam="2">  1       -4 0.17755600E+00 0.24603063E+04</pdfrwt>
<totfact> 0.66878724E-02</totfact>
</mgrwt>
</event>
<event>
 8    1  0.5361529E-011  0.1601830E+04  0.7818608E-02  0.8819424E-01
         -4   -1    0    0    0  501 -0.00000000000E+00  0.00000000000E+00  0.16840740461E+04  0.16840745249E+04  0.12700000000E+01 0. -1.
          4   -1    0    0  501    0  0.00000000000E+00 -0.00000000000E+00 -0.38089923472E+03  0.38090135194E+03  0.12700000000E+01 0.  1.
     200001    2    1    2    0    0 -0.12724395052E+03 -0.28640870576E+03  0.95085853879E+03  0.12209689305E+04  0.69886493596E+03 0.  0.
    5000001    2    3    3    0    0  0.11097044955E+02 -0.63118714409E+02  0.33483126991E+03  0.38521403383E+03  0.17936208082E+03 0.  0.
        -11    1    4    4    0    0 -0.79729510013E+02 -0.86323381100E+01  0.13269454471E+03  0.15504565206E+03  0.51100000000E-03 0. -1.
     200002    1    4    4    0    0  0.90826554968E+02 -0.54486376299E+02  0.20213672520E+03  0.23016838177E+03  0.30000000000E+02 0. -1.
     200000    1    3    3    0    0 -0.13834099547E+03 -0.22328999135E+03  0.61602726888E+03  0.83575489665E+03  0.50000000000E+03 0. -1.
    -200001    1    1    2    0    0  0.12724395052E+03  0.28640870576E+03  0.35231627256E+03  0.84400694641E+03  0.70000000000E+03 0.  1.
<mgrwt>
<rscale>  0 0.16018304E+04</rscale>
<asrwt>0</asrwt>
<pdfrwt beam="1">  1        4 0.54414363E-01 0.16018304E+04</pdfrwt>
<pdfrwt beam="2">  1       -4 0.24058219E+00 0.16018304E+04</pdfrwt>
<totfact> 0.45116875E-01</totfact>
</mgrwt>
</event>
<event>
 8    1  0.5361529E-011  0.2449918E+04  0.7818608E-02  0.8421048E-01
         -4   -1    0    0    0  501 -0.00000000000E+00  0.00000000000E+00  0.16175655805E+04  0.16175660791E+04  0.12700000000E+01 0. -1.
          4   -1    0    0  501    0  0.00000000000E+00 -0.00000000000E+00 -0.92764299629E+03  0.92764386565E+03  0.12700000000E+01 0.  1.
     200001    2    1    2    0    0 -0.72029059987E+03 -0.67907062034E+03  0.16300935825E+03  0.12232443614E+04  0.69985660047E+03 0.  0.
    5000001    2    3    3    0    0 -0.12132187221E+03 -0.11798347907E+02 -0.33470480699E+02  0.17795963975E+03  0.12526437087E+03 0.  0.
        -11    1    4    4    0    0 -0.27332158084E+02 -0.17015877977E+02  0.42507615339E+02  0.53324331509E+02  0.51100000000E-03 0. -1.
     200002    1    4    4    0    0 -0.93989714131E+02  0.52175300704E+01 -0.75978096038E+02  0.12463530824E+03  0.30000000000E+02 0. -1.
     200000    1    3    3    0    0 -0.59896872766E+03 -0.66727227244E+03  0.19647983895E+03  0.10452847217E+04  0.50000000000E+03 0. -1.
    -200001    1    1    2    0    0  0.72029059987E+03  0.67907062034E+03  0.52691322595E+03  0.13219655833E+04  0.70000000000E+03 0.  1.
<mgrwt>
<rscale>  0 0.24499185E+04</rscale>
<asrwt>0</asrwt>
<pdfrwt beam="1">  1        4 0.13252053E+00 0.24499185E+04</pdfrwt>
<pdfrwt beam="2">  1       -4 0.23108089E+00 0.24499185E+04</pdfrwt>
<totfact> 0.61672168E-02</totfact>
</mgrwt>
</event>
<event>
 8    1  0.5361529E-011  0.1902418E+04  0.7818608E-02  0.8653654E-01
          4   -1    0    0  501    0  0.00000000000E+00  0.00000000000E+00  0.59078839071E+03  0.59078975575E+03  0.12700000000E+01 0.  1.
         -4   -1    0    0    0  501 -0.00000000000E+00 -0.00000000000E+00 -0.15315074103E+04  0.15315079369E+04  0.12700000000E+01 0. -1.
     200001    2    1    2    0    0  0.50779041090E+03  0.36230729981E+03 -0.64964732716E+03  0.11405439501E+04  0.69977222830E+03 0.  0.
    5000001    2    3    3    0    0  0.17099216669E+03  0.19373961915E+03 -0.22707476024E+03  0.38528525628E+03  0.17351778257E+03 0.  0.
        -11    1    4    4    0    0  0.53600482519E+02  0.17887248674E+03 -0.16055513628E+03  0.24626475595E+03  0.51100000000E-03 0. -1.
     200002    1    4    4    0    0  0.11739168417E+03  0.14867132412E+02 -0.66519623956E+02  0.13902050032E+03  0.30000000000E+02 0. -1.
     200000    1    3    3    0    0  0.33679824421E+03  0.16856768066E+03 -0.42257256692E+03  0.75525869382E+03  0.50000000000E+03 0. -1.
    -200001    1    1    2    0    0 -0.50779041090E+03 -0.36230729981E+03 -0.29107169247E+03  0.98175374258E+03  0.70000000000E+03 0. -1.
<mgrwt>
<rscale>  0 0.19024183E+04</rscale>
<asrwt>0</asrwt>
<pdfrwt beam="1">  1        4 0.84398477E-01 0.19024183E+04</pdfrwt>
<pdfrwt beam="2">  1       -4 0.21878691E+00 0.19024183E+04</pdfrwt>
<totfact> 0.23014077E-01</totfact>
</mgrwt>
</event>
<event>
 8    1  0.5361529E-011  0.1585000E+04  0.7818608E-02  0.8829816E-01
         -4   -1    0    0    0  501 -0.00000000000E+00  0.00000000000E+00  0.17311932145E+04  0.17311936804E+04  0.12700000000E+01 0. -1.
          4   -1    0    0  501    0  0.00000000000E+00 -0.00000000000E+00 -0.36278646935E+03  0.36278869227E+03  0.12700000000E+01 0.  1.
     200001    2    1    2    0    0 -0.26823157241E+03  0.16936341920E+03  0.93824362722E+03  0.12132596851E+04  0.70076088317E+03 0.  0.
    5000001    2    3    3    0    0 -0.58534377591E+01  0.20023929337E+02 -0.20379503594E+02  0.90716645566E+02  0.85900903001E+02 0.  0.
        -11    1    4    4    0    0 -0.27051726265E+02  0.23189401452E+02  0.15875806787E+02  0.39007505367E+02  0.51100000000E-03 0. -1.
     200002    1    4    4    0    0  0.21198288506E+02 -0.31654721144E+01 -0.36255310381E+02  0.51709140199E+02  0.30000000000E+02 0.  1.
     200000    1    3    3    0    0 -0.26237813466E+03  0.14933948986E+03  0.95862313082E+03  0.11225430396E+04  0.50000000000E+03 0. -1.
    -200001    1    1    2    0    0  0.26823157241E+03 -0.16936341920E+03  0.43016311795E+03  0.88072268748E+03  0.70000000000E+03 0.  1.
<mgrwt>
<rscale>  0 0.15850000E+04</rscale>
<asrwt>0</asrwt>
<pdfrwt beam="1">  1        4 0.51826830E-01 0.15850000E+04</pdfrwt>
<pdfrwt beam="2">  1       -4 0.24731351E+00 0.15850000E+04</pdfrwt>
<totfact> 0.45458028E-01</totfact>
</mgrwt>
</event>
<event>
 8    1  0.5361529E-011  0.1524491E+04  0.7818608E-02  0.8868328E-01
         -4   -1    0    0    0  501 -0.00000000000E+00  0.00000000000E+00  0.65783153149E+03  0.65783275741E+03  0.12700000000E+01 0. -1.
          4   -1    0    0  501    0  0.00000000000E+00 -0.00000000000E+00 -0.88322959806E+03  0.88323051112E+03  0.12700000000E+01 0.  1.
     200001    2    1    2    0    0 -0.10870036567E+03  0.34717776687E+02 -0.39543443923E+03  0.81172558163E+03  0.69964914824E+03 0.  0.
    5000001    2    3    3    0    0 -0.83660255464E+02 -0.14127943475E+02 -0.91827511656E+02  0.22419679258E+03  0.18610016865E+03 0.  0.
        -11    1    4    4    0    0 -0.13620662396E+03 -0.16044673820E+02 -0.35876641517E+02  0.14176321588E+03  0.51100000000E-03 0. -1.
     200002    1    4    4    0    0  0.52546368500E+02  0.19167303458E+01 -0.55950870139E+02  0.82433576697E+02  0.30000000000E+02 0. -1.
     200000    1    3    3    0    0 -0.25040110203E+02  0.48845720162E+02 -0.30360692757E+03  0.58752878905E+03  0.50000000000E+03 0.  1.
    -200001    1    1    2    0    0  0.10870036567E+03 -0.34717776687E+02  0.17003637266E+03  0.72933768691E+03  0.70000000000E+03 0. -1.
<mgrwt>
<rscale>  0 0.15244906E+04</rscale>
<asrwt>0</asrwt>
<pdfrwt beam="1">  1        4 0.12617581E+00 0.15244906E+04</pdfrwt>
<pdfrwt beam="2">  1       -4 0.93976086E-01 0.15244906E+04</pdfrwt>
<totfact> 0.86616598E-01</totfact>
</mgrwt>
</event>
<event>
 8    1  0.5361529E-011  0.2052079E+04  0.7818608E-02  0.8582652E-01
         -4   -1    0    0    0  501 -0.00000000000E+00  0.00000000000E+00  0.78445847583E+03  0.78445950387E+03  0.12700000000E+01 0. -1.
          4   -1    0    0  501    0  0.00000000000E+00 -0.00000000000E+00 -0.13420155130E+04  0.13420161140E+04  0.12700000000E+01 0.  1.
     200001    2    1    2    0    0  0.62481092561E+03  0.14250790765E+03 -0.68270726894E+03  0.11692087914E+04  0.70018767932E+03 0.  0.
    5000001    2    3    3    0    0  0.20986388462E+03  0.43704042904E+02 -0.17602173451E+03  0.33934525964E+03  0.19549593547E+03 0.  0.
        -11    1    4    4    0    0  0.53314221761E+02 -0.73914265275E+02 -0.43305251495E+02  0.10090128671E+03  0.51100000000E-03 0. -1.
     200002    1    4    4    0    0  0.15654966286E+03  0.11761830818E+03 -0.13271648302E+03  0.23844397292E+03  0.30000000000E+02 0. -1.
     200000    1    3    3    0    0  0.41494704099E+03  0.98803864748E+02 -0.50668553443E+03  0.82986353175E+03  0.50000000000E+03 0.  1.
    -200001    1    1    2    0    0 -0.62481092561E+03 -0.14250790765E+03  0.12515023174E+03  0.95726682644E+03  0.70000000000E+03 0. -1.
<mgrwt>
<rscale>  0 0.20520791E+04</rscale>
<asrwt>0</asrwt>
<pdfrwt beam="1">  1        4 0.19171662E+00 0.20520791E+04</pdfrwt>
<pdfrwt beam="2">  1       -4 0.11206561E+00 0.20520791E+04</pdfrwt>
<totfact> 0.17474573E-01</totfact>
</mgrwt>
</event>
<event>
 8    1  0.5361529E-011  0.1632615E+04  0.7818608E-02  0.8800758E-01
         -4   -1    0    0    0  501 -0.00000000000E+00  0.00000000000E+00  0.11447661886E+04  0.11447668931E+04  0.12700000000E+01 0. -1.
          4   -1    0    0  501    0  0.00000000000E+00 -0.00000000000E+00 -0.58208958355E+03  0.58209096898E+03  0.12700000000E+01 0.  1.
     200001    2    1    2    0    0 -0.19110266201E+03 -0.37421679675E+03  0.31775011583E+03  0.87448034973E+03  0.69799162428E+03 0.  0.
    5000001    2    3    3    0    0  0.13033636767E+02  0.18446354549E+01  0.10820752968E+02  0.14832646586E+03  0.14734440408E+03 0.  0.
        -11    1    4    4    0    0 -0.41628093366E+02  0.51314322796E+02  0.17787542451E+02  0.68428462996E+02  0.51100000000E-03 0. -1.
     200002    1    4    4    0    0  0.54661730133E+02 -0.49469687341E+02 -0.69667894826E+01  0.79898002869E+02  0.30000000000E+02 0. -1.
     200000    1    3    3    0    0 -0.20413629878E+03 -0.37606143220E+03  0.30692936286E+03  0.72615388387E+03  0.50000000000E+03 0. -1.
    -200001    1    1    2    0    0  0.19110266201E+03  0.37421679675E+03  0.24492648924E+03  0.85237751233E+03  0.70000000000E+03 0. -1.
<mgrwt>
<rscale>  0 0.16326154E+04</rscale>
<asrwt>0</asrwt>
<pdfrwt beam="1">  1        4 0.83155803E-01 0.16326154E+04</pdfrwt>
<pdfrwt beam="2">  1       -4 0.16353818E+00 0.16326154E+04</pdfrwt>
<totfact> 0.57632715E-01</totfact>
</mgrwt>
</event>
<event>
 8    1  0.5361529E-011  0.1719798E+04  0.7818608E-02  0.8750153E-01
         -4   -1    0    0    0  501 -0.00000000000E+00  0.00000000000E+00  0.18161500258E+04  0.18161504699E+04  0.12700000000E+01 0. -1.
          4   -1    0    0  501    0  0.00000000000E+00 -0.00000000000E+00 -0.40713807462E+03  0.40714005539E+03  0.12700000000E+01 0.  1.
     200001    2    1    2    0    0 -0.34700660186E+03 -0.11690001575E+03  0.26635003303E+03  0.83413414290E+03  0.70054138553E+03 0.  0.
    5000001    2    3    3    0    0 -0.11840935940E+03 -0.15295669797E+03  0.13270772252E+03  0.26719759376E+03  0.12793235184E+03 0.  0.
        -11    1    4    4    0    0 -0.52726132216E+02 -0.11677633723E+03  0.21755654367E+02  0.12996178843E+03  0.51100000000E-03 0. -1.
     200002    1    4    4    0    0 -0.65683227184E+02 -0.36180360740E+02  0.11095206815E+03  0.13723580533E+03  0.30000000000E+02 0. -1.
     200000    1    3    3    0    0 -0.22859724246E+03  0.36056682217E+02  0.13364231051E+03  0.56693654914E+03  0.50000000000E+03 0.  1.
    -200001    1    1    2    0    0  0.34700660186E+03  0.11690001575E+03  0.11426619182E+04  0.13891563824E+04  0.70000000000E+03 0. -1.
<mgrwt>
<rscale>  0 0.17197983E+04</rscale>
<asrwt>0</asrwt>
<pdfrwt beam="1">  1        4 0.58162756E-01 0.17197983E+04</pdfrwt>
<pdfrwt beam="2">  1       -4 0.25945017E+00 0.17197983E+04</pdfrwt>
<totfact> 0.29622362E-01</totfact>
</mgrwt>
</event>
<event>
 8    1  0.5361529E-011  0.1451761E+04  0.7818608E-02  0.8917181E-01
         -4   -1    0    0    0  501 -0.00000000000E+00  0.00000000000E+00  0.35520143179E+03  0.35520370218E+03  0.12700000000E+01 0. -1.
          4   -1    0    0  501    0  0.00000000000E+00 -0.00000000000E+00 -0.14833828915E+04  0.14833834351E+04  0.12700000000E+01 0.  1.
     200001    2    1    2    0    0  0.23182522345E+02 -0.13314180938E+03 -0.73638496103E+03  0.10250954858E+04  0.70020980668E+03 0.  0.
    5000001    2    3    3    0    0  0.20733961417E+02  0.59624353804E+02 -0.24294961420E+03  0.29664285819E+03  0.15807437982E+03 0.  0.
        -11    1    4    4    0    0  0.40940649967E+02 -0.21909756209E+02 -0.10415831530E+02  0.47588483728E+02  0.51100000000E-03 0. -1.
     200002    1    4    4    0    0 -0.20206688549E+02  0.81534110013E+02 -0.23253378267E+03  0.24905437447E+03  0.30000000000E+02 0. -1.
     200000    1    3    3    0    0  0.24485609274E+01 -0.19276616318E+03 -0.49343534683E+03  0.72845262758E+03  0.50000000000E+03 0.  1.
    -200001    1    1    2    0    0 -0.23182522345E+02  0.13314180938E+03 -0.39179649864E+03  0.81349165152E+03  0.70000000000E+03 0.  1.
<mgrwt>
<rscale>  0 0.14517607E+04</rscale>
<asrwt>0</asrwt>
<pdfrwt beam="1">  1        4 0.21191204E+00 0.14517607E+04</pdfrwt>
<pdfrwt beam="2">  1       -4 0.50743263E-01 0.14517607E+04</pdfrwt>
<totfact> 0.80255070E-01</totfact>
</mgrwt>
</event>
<event>
 8    1  0.5361529E-011  0.1534221E+04  0.7818608E-02  0.8862010E-01
         -4   -1    0    0    0  501 -0.00000000000E+00  0.00000000000E+00  0.27627352513E+03  0.27627644414E+03  0.12700000000E+01 0. -1.
          4   -1    0    0  501    0  0.00000000000E+00 -0.00000000000E+00 -0.21299697413E+04  0.21299701199E+04  0.12700000000E+01 0.  1.
     200001    2    1    2    0    0  0.46773963148E+02 -0.29589082520E+03 -0.10758623798E+04  0.13177776113E+04  0.69951325120E+03 0.  0.
    5000001    2    3    3    0    0  0.13274154062E+03  0.83973330498E+01 -0.32973059834E+03  0.36557262136E+03  0.85030830874E+02 0.  0.
        -11    1    4    4    0    0  0.81074021639E+02  0.10692006989E+02 -0.26555527572E+03  0.27786133315E+03  0.51100000000E-03 0. -1.
     200002    1    4    4    0    0  0.51667518983E+02 -0.22946739392E+01 -0.64175322626E+02  0.87711288216E+02  0.30000000000E+02 0. -1.
     200000    1    3    3    0    0 -0.85967577474E+02 -0.30428815825E+03 -0.74613178145E+03  0.95220498997E+03  0.50000000000E+03 0.  1.
    -200001    1    1    2    0    0 -0.46773963148E+02  0.29589082520E+03 -0.77783383640E+03  0.10884689528E+04  0.70000000000E+03 0. -1.
<mgrwt>
<rscale>  0 0.15342206E+04</rscale>
<asrwt>0</asrwt>
<pdfrwt beam="1">  1        4 0.30428162E+00 0.15342206E+04</pdfrwt>
<pdfrwt beam="2">  1       -4 0.39467883E-01 0.15342206E+04</pdfrwt>
<totfact> 0.35485734E-01</totfact>
</mgrwt>
</event>
<event>
 8    1  0.5361529E-011  0.1660823E+04  0.7818608E-02  0.8784029E-01
         -4   -1    0    0    0  501 -0.00000000000E+00  0.00000000000E+00  0.11516864356E+04  0.11516871359E+04  0.12700000000E+01 0. -1.
          4   -1    0    0  501    0  0.00000000000E+00 -0.00000000000E+00 -0.59875832688E+03  0.59875967375E+03  0.12700000000E+01 0.  1.
     200001    2    1    2    0    0  0.28828876944E+03  0.28994292357E+03  0.86842420558E+02  0.81534618282E+03  0.70005033984E+03 0.  0.
    5000001    2    3    3    0    0  0.15740279523E+03  0.15352749095E+03  0.53120393239E+02  0.27973673216E+03  0.16457379111E+03 0.  0.
        -11    1    4    4    0    0  0.35800660612E+02  0.11600856384E+03 -0.29672799846E+02  0.12498059543E+03  0.51100000000E-03 0. -1.
     200002    1    4    4    0    0  0.12160213462E+03  0.37518927112E+02  0.82793193085E+02  0.15475613673E+03  0.30000000000E+02 0. -1.
     200000    1    3    3    0    0  0.13088597421E+03  0.13641543263E+03  0.33722027319E+02  0.53560945065E+03  0.50000000000E+03 0.  1.
    -200001    1    1    2    0    0 -0.28828876944E+03 -0.28994292357E+03  0.46608568820E+03  0.93510062681E+03  0.70000000000E+03 0. -1.
<mgrwt>
<rscale>  0 0.16608235E+04</rscale>
<asrwt>0</asrwt>
<pdfrwt beam="1">  1        4 0.85537052E-01 0.16608235E+04</pdfrwt>
<pdfrwt beam="2">  1       -4 0.16452678E+00 0.16608235E+04</pdfrwt>
<totfact> 0.53015793E-01</totfact>
</mgrwt>
</event>
<event>
 8    1  0.5361529E-011  0.2520555E+04  0.7818608E-02  0.8395699E-01
          4   -1    0    0  501    0  0.00000000000E+00  0.00000000000E+00  0.29740692075E+04  0.29740694786E+04  0.12700000000E+01 0.  1.
         -4   -1    0    0    0  501 -0.00000000000E+00 -0.00000000000E+00 -0.53404810956E+03  0.53404961963E+03  0.12700000000E+01 0. -1.
     200001    2    1    2    0    0 -0.32076210881E+03  0.57588867222E+03  0.23548331503E+04  0.25428248013E+04  0.69726803407E+03 0.  0.
    5000001    2    3    3    0    0 -0.12649941158E+03  0.14615245910E+03  0.83075261080E+03  0.87092985868E+03  0.17608599027E+03 0.  0.
        -11    1    4    4    0    0  0.19192434070E+02  0.10196663898E+03  0.39391766269E+03  0.40735324962E+03  0.51100000000E-03 0. -1.
     200002    1    4    4    0    0 -0.14569184565E+03  0.44185820118E+02  0.43683494810E+03  0.46357660907E+03  0.30000000000E+02 0. -1.
     200000    1    3    3    0    0 -0.19426269723E+03  0.42973621312E+03  0.15240805395E+04  0.16718949427E+04  0.50000000000E+03 0.  1.
    -200001    1    1    2    0    0  0.32076210881E+03 -0.57588867222E+03  0.85187947602E+02  0.96529429691E+03  0.70000000000E+03 0. -1.
<mgrwt>
<rscale>  0 0.25205548E+04</rscale>
<asrwt>0</asrwt>
<pdfrwt beam="1">  1        4 0.42486717E+00 0.25205548E+04</pdfrwt>
<pdfrwt beam="2">  1       -4 0.76292712E-01 0.25205548E+04</pdfrwt>
<totfact> 0.12563820E-02</totfact>
</mgrwt>
</event>
<event>
 8    1  0.5361529E-011  0.1472483E+04  0.7818608E-02  0.8902960E-01
         -4   -1    0    0    0  501 -0.00000000000E+00  0.00000000000E+00  0.57047051117E+03  0.57047192482E+03  0.12700000000E+01 0. -1.
          4   -1    0    0  501    0  0.00000000000E+00 -0.00000000000E+00 -0.95018044208E+03  0.95018129081E+03  0.12700000000E+01 0.  1.
     200001    2    1    2    0    0 -0.44691450232E+02 -0.19472706842E+03 -0.29970547240E+03  0.78831676954E+03  0.70121608799E+03 0.  0.
    5000001    2    3    3    0    0 -0.26432160285E+00 -0.86859552633E+02 -0.20685596304E+03  0.26655992760E+03  0.14394496799E+03 0.  0.
        -11    1    4    4    0    0  0.14021164112E+02 -0.31406759110E+02  0.13475912873E+02  0.36940192052E+02  0.51100000000E-03 0. -1.
     200002    1    4    4    0    0 -0.14285485715E+02 -0.55452793524E+02 -0.22033187591E+03  0.22961973555E+03  0.30000000000E+02 0. -1.
     200000    1    3    3    0    0 -0.44427128629E+02 -0.10786751578E+03 -0.92849509367E+02  0.52175684194E+03  0.50000000000E+03 0. -1.
    -200001    1    1    2    0    0  0.44691450232E+02  0.19472706842E+03 -0.80004458503E+02  0.73233644609E+03  0.70000000000E+03 0. -1.
<mgrwt>
<rscale>  0 0.14724831E+04</rscale>
<asrwt>0</asrwt>
<pdfrwt beam="1">  1        4 0.13574023E+00 0.14724831E+04</pdfrwt>
<pdfrwt beam="2">  1       -4 0.81495949E-01 0.14724831E+04</pdfrwt>
<totfact> 0.10029758E+00</totfact>
</mgrwt>
</event>
<event>
 8    1  0.5361529E-011  0.1840549E+04  0.7818608E-02  0.8685029E-01
         -4   -1    0    0    0  501 -0.00000000000E+00  0.00000000000E+00  0.13530264008E+04  0.13530269969E+04  0.12700000000E+01 0. -1.
          4   -1    0    0  501    0  0.00000000000E+00 -0.00000000000E+00 -0.62593231602E+03  0.62593360442E+03  0.12700000000E+01 0.  1.
     200001    2    1    2    0    0 -0.27258471214E+03  0.81444211765E+02  0.92820398696E+03  0.11970521810E+04  0.70031114351E+03 0.  0.
    5000001    2    3    3    0    0 -0.11543870219E+03  0.54353121104E+02  0.42709454353E+03  0.47142178616E+03  0.15345486507E+03 0.  0.
        -11    1    4    4    0    0 -0.56017321035E+02 -0.48826449343E+02  0.12643023432E+03  0.14665117307E+03  0.51100000000E-03 0. -1.
     200002    1    4    4    0    0 -0.59421381159E+02  0.10317957045E+03  0.30066430921E+03  0.32477061309E+03  0.30000000000E+02 0. -1.
     200000    1    3    3    0    0 -0.15714600995E+03  0.27091090661E+02  0.50110944343E+03  0.72563039485E+03  0.50000000000E+03 0. -1.
    -200001    1    1    2    0    0  0.27258471214E+03 -0.81444211765E+02 -0.20110990217E+03  0.78190842026E+03  0.70000000000E+03 0. -1.
<mgrwt>
<rscale>  0 0.18405486E+04</rscale>
<asrwt>0</asrwt>
<pdfrwt beam="1">  1        4 0.89419037E-01 0.18405486E+04</pdfrwt>
<pdfrwt beam="2">  1       -4 0.19328962E+00 0.18405486E+04</pdfrwt>
<totfact> 0.29719791E-01</totfact>
</mgrwt>
</event>
<event>
 8    1  0.5361529E-011  0.1428468E+04  0.7818608E-02  0.8933466E-01
         -4   -1    0    0    0  501 -0.00000000000E+00  0.00000000000E+00  0.29914668218E+03  0.29914937800E+03  0.12700000000E+01 0. -1.
          4   -1    0    0  501    0  0.00000000000E+00 -0.00000000000E+00 -0.17052736377E+04  0.17052741106E+04  0.12700000000E+01 0.  1.
     200001    2    1    2    0    0  0.26400322621E+02 -0.22203725319E+01 -0.90052308343E+03  0.11405154018E+04  0.69937947550E+03 0.  0.
    5000001    2    3    3    0    0 -0.30102211726E+02 -0.10225880089E+03 -0.28666593423E+03  0.34050238738E+03  0.14967134814E+03 0.  0.
        -11    1    4    4    0    0 -0.74886545887E+02 -0.31518282322E+02 -0.73635239284E+02  0.10965192812E+03  0.51100000000E-03 0. -1.
     200002    1    4    4    0    0  0.44784334161E+02 -0.70740518567E+02 -0.21303069495E+03  0.23085045927E+03  0.30000000000E+02 0. -1.
     200000    1    3    3    0    0  0.56502534346E+02  0.10003842836E+03 -0.61385714920E+03  0.80001301437E+03  0.50000000000E+03 0.  1.
    -200001    1    1    2    0    0 -0.26400322621E+02  0.22203725319E+01 -0.50560387211E+03  0.86390808688E+03  0.70000000000E+03 0. -1.
<mgrwt>
<rscale>  0 0.14284679E+04</rscale>
<asrwt>0</asrwt>
<pdfrwt beam="1">  1        4 0.24361074E+00 0.14284679E+04</pdfrwt>
<pdfrwt beam="2">  1       -4 0.42735468E-01 0.14284679E+04</pdfrwt>
<totfact> 0.72245925E-01</totfact>
</mgrwt>
</event>
<event>
 8    1  0.5361529E-011  0.1484968E+04  0.7818608E-02  0.8894511E-01
         -4   -1    0    0    0  501 -0.00000000000E+00  0.00000000000E+00  0.13103799151E+04  0.13103805305E+04  0.12700000000E+01 0. -1.
          4   -1    0    0  501    0  0.00000000000E+00 -0.00000000000E+00 -0.42070277601E+03  0.42070469291E+03  0.12700000000E+01 0.  1.
     200001    2    1    2    0    0 -0.98075310146E+02  0.13198162609E+03  0.65931954112E+03  0.97603387483E+03  0.70064395482E+03 0.  0.
    5000001    2    3    3    0    0 -0.34710870418E+01  0.94891528106E+02  0.18790273302E+03  0.28136888985E+03  0.18666698838E+03 0.  0.
        -11    1    4    4    0    0  0.56722734416E+02  0.18489156900E+01 -0.49104597320E+01  0.56964898876E+02  0.51100000000E-03 0. -1.
     200002    1    4    4    0    0 -0.60193821458E+02  0.93042612416E+02  0.19281319275E+03  0.22440399098E+03  0.30000000000E+02 0. -1.
     200000    1    3    3    0    0 -0.94604223104E+02  0.37090097982E+02  0.47141680809E+03  0.69466498498E+03  0.50000000000E+03 0.  1.
    -200001    1    1    2    0    0  0.98075310146E+02 -0.13198162609E+03  0.23035759796E+03  0.75505134860E+03  0.70000000000E+03 0.  1.
<mgrwt>
<rscale>  0 0.14849682E+04</rscale>
<asrwt>0</asrwt>
<pdfrwt beam="1">  1        4 0.60100577E-01 0.14849682E+04</pdfrwt>
<pdfrwt beam="2">  1       -4 0.18719731E+00 0.14849682E+04</pdfrwt>
<totfact> 0.81487727E-01</totfact>
</mgrwt>
</event>
<event>
 8    1  0.5361529E-011  0.1441268E+04  0.7818608E-02  0.8924476E-01
         -4   -1    0    0    0  501 -0.00000000000E+00  0.00000000000E+00  0.40511019661E+03  0.40511218729E+03  0.12700000000E+01 0. -1.
          4   -1    0    0  501    0  0.00000000000E+00 -0.00000000000E+00 -0.12819016594E+04  0.12819022885E+04  0.12700000000E+01 0.  1.
     200001    2    1    2    0    0  0.45274555733E+02  0.15399927679E+03 -0.36595571883E+03  0.80569800600E+03  0.69961426949E+03 0.  0.
    5000001    2    3    3    0    0  0.15619848655E+03  0.29268205703E+02 -0.12382846268E+03  0.22562252238E+03  0.10157479693E+03 0.  0.
        -11    1    4    4    0    0  0.11959192870E+03  0.25050993250E+02 -0.12917180060E+03  0.17780645585E+03  0.51100000000E-03 0. -1.
     200002    1    4    4    0    0  0.36606557853E+02  0.42172124533E+01  0.53433379155E+01  0.47816066534E+02  0.30000000000E+02 0. -1.
     200000    1    3    3    0    0 -0.11092393082E+03  0.12473107109E+03 -0.24212725615E+03  0.58007548362E+03  0.50000000000E+03 0.  1.
    -200001    1    1    2    0    0 -0.45274555733E+02 -0.15399927679E+03 -0.51083574400E+03  0.88131646983E+03  0.70000000000E+03 0. -1.
<mgrwt>
<rscale>  0 0.14412684E+04</rscale>
<asrwt>0</asrwt>
<pdfrwt beam="1">  1        4 0.18312899E+00 0.14412684E+04</pdfrwt>
<pdfrwt beam="2">  1       -4 0.57873073E-01 0.14412684E+04</pdfrwt>
<totfact> 0.94492796E-01</totfact>
</mgrwt>
</event>
<event>
 8    1  0.5361529E-011  0.2157918E+04  0.7818608E-02  0.8536150E-01
         -4   -1    0    0    0  501 -0.00000000000E+00  0.00000000000E+00  0.63128193287E+03  0.63128321035E+03  0.12700000000E+01 0.  1.
          4   -1    0    0  501    0  0.00000000000E+00 -0.00000000000E+00 -0.18441056050E+04  0.18441060423E+04  0.12700000000E+01 0. -1.
     200001    2    1    2    0    0 -0.33770105265E+03  0.43985112696E+02 -0.14632815012E+04  0.16576449067E+04  0.70044071416E+03 0.  0.
    5000001    2    3    3    0    0 -0.54091165878E+02 -0.98619401489E+02 -0.47789584022E+03  0.50796864094E+03  0.13036895909E+03 0.  0.
        -11    1    4    4    0    0  0.35128679859E+02 -0.61500256618E+02 -0.18555752983E+03  0.19861496063E+03  0.51100000000E-03 0. -1.
     200002    1    4    4    0    0 -0.89219845737E+02 -0.37119144871E+02 -0.29233831040E+03  0.30935368030E+03  0.30000000000E+02 0. -1.
     200000    1    3    3    0    0 -0.28360988677E+03  0.14260451418E+03 -0.98538566095E+03  0.11496762658E+04  0.50000000000E+03 0. -1.
    -200001    1    1    2    0    0  0.33770105265E+03 -0.43985112696E+02  0.25045782908E+03  0.81774434590E+03  0.70000000000E+03 0.  1.
<mgrwt>
<rscale>  0 0.21579181E+04</rscale>
<asrwt>0</asrwt>
<pdfrwt beam="1">  1        4 0.26344378E+00 0.21579181E+04</pdfrwt>
<pdfrwt beam="2">  1       -4 0.90183256E-01 0.21579181E+04</pdfrwt>
<totfact> 0.10149472E-01</totfact>
</mgrwt>
</event>
<event>
 8    1  0.5361529E-011  0.2023759E+04  0.7818608E-02  0.8595592E-01
          4   -1    0    0  501    0  0.00000000000E+00  0.00000000000E+00  0.11563374699E+04  0.11563381673E+04  0.12700000000E+01 0.  1.
         -4   -1    0    0    0  501 -0.00000000000E+00 -0.00000000000E+00 -0.88546698957E+03  0.88546790033E+03  0.12700000000E+01 0. -1.
     200001    2    1    2    0    0 -0.17684237199E+03  0.23440729412E+03 -0.53858232740E+03  0.93210617488E+03  0.70180552419E+03 0.  0.
    5000001    2    3    3    0    0 -0.40960361198E+02  0.69473135953E+02 -0.17415543757E+03  0.27752680199E+03  0.20046631032E+03 0.  0.
        -11    1    4    4    0    0 -0.45073676750E+02 -0.51870582447E+02 -0.12598179286E+03  0.14350472393E+03  0.51100000000E-03 0. -1.
     200002    1    4    4    0    0  0.41133155518E+01  0.12134371840E+03 -0.48173644715E+02  0.13402207805E+03  0.30000000000E+02 0. -1.
     200000    1    3    3    0    0 -0.13588201080E+03  0.16493415816E+03 -0.36442688982E+03  0.65457937289E+03  0.50000000000E+03 0. -1.
    -200001    1    1    2    0    0  0.17684237199E+03 -0.23440729412E+03  0.80945280773E+03  0.11096998928E+04  0.70000000000E+03 0.  1.
<mgrwt>
<rscale>  0 0.20237592E+04</rscale>
<asrwt>0</asrwt>
<pdfrwt beam="1">  1        4 0.16519118E+00 0.20237592E+04</pdfrwt>
<pdfrwt beam="2">  1       -4 0.12649540E+00 0.20237592E+04</pdfrwt>
<totfact> 0.19868959E-01</totfact>
</mgrwt>
</event>
<event>
 8    1  0.5361529E-011  0.1498072E+04  0.7818608E-02  0.8885736E-01
         -4   -1    0    0    0  501 -0.00000000000E+00  0.00000000000E+00  0.12793079676E+04  0.12793085980E+04  0.12700000000E+01 0. -1.
          4   -1    0    0  501    0  0.00000000000E+00 -0.00000000000E+00 -0.43855952168E+03  0.43856136053E+03  0.12700000000E+01 0.  1.
     200001    2    1    2    0    0 -0.24790075010E+03  0.92895155529E+02  0.38870679163E+03  0.84355539896E+03  0.70029168882E+03 0.  0.
    5000001    2    3    3    0    0 -0.45787242403E+01  0.46794216480E+02  0.39592518227E+02  0.18536721861E+03  0.17487931503E+03 0.  0.
        -11    1    4    4    0    0 -0.16930782101E+02 -0.17626052309E+02  0.92654212561E+02  0.95823442894E+02  0.51100000000E-03 0. -1.
     200002    1    4    4    0    0  0.12352057861E+02  0.64420268789E+02 -0.53061694334E+02  0.89543775718E+02  0.30000000000E+02 0. -1.
     200000    1    3    3    0    0 -0.24332202586E+03  0.46100939050E+02  0.34911427341E+03  0.65818818035E+03  0.50000000000E+03 0. -1.
    -200001    1    1    2    0    0  0.24790075010E+03 -0.92895155529E+02  0.45204165427E+03  0.87431455954E+03  0.70000000000E+03 0.  1.
<mgrwt>
<rscale>  0 0.14980718E+04</rscale>
<asrwt>0</asrwt>
<pdfrwt beam="1">  1        4 0.62651537E-01 0.14980718E+04</pdfrwt>
<pdfrwt beam="2">  1       -4 0.18275846E+00 0.14980718E+04</pdfrwt>
<totfact> 0.79817706E-01</totfact>
</mgrwt>
</event>
<event>
 8    1  0.5361529E-011  0.1721811E+04  0.7818608E-02  0.8749022E-01
          4   -1    0    0  501    0  0.00000000000E+00  0.00000000000E+00  0.11881664563E+04  0.11881671350E+04  0.12700000000E+01 0.  1.
         -4   -1    0    0    0  501 -0.00000000000E+00 -0.00000000000E+00 -0.62378173067E+03  0.62378302351E+03  0.12700000000E+01 0. -1.
     200001    2    1    2    0    0 -0.42869496667E+03  0.21525456169E+03  0.43369449441E+03  0.95335022998E+03  0.70047972543E+03 0.  0.
    5000001    2    3    3    0    0 -0.15591330234E+03  0.13458360876E+03  0.12801897602E+03  0.30192474569E+03  0.17985546487E+03 0.  0.
        -11    1    4    4    0    0  0.18915502971E+02  0.85040391306E+02  0.23809538519E+02  0.90313667465E+02  0.51100000000E-03 0. -1.
     200002    1    4    4    0    0 -0.17482880531E+03  0.49543217453E+02  0.10420943750E+03  0.21161107822E+03  0.30000000000E+02 0. -1.
     200000    1    3    3    0    0 -0.27278166433E+03  0.80670952929E+02  0.30567551839E+03  0.65142548429E+03  0.50000000000E+03 0. -1.
    -200001    1    1    2    0    0  0.42869496667E+03 -0.21525456169E+03  0.13069023120E+03  0.85859992855E+03  0.70000000000E+03 0. -1.
<mgrwt>
<rscale>  0 0.17218110E+04</rscale>
<asrwt>0</asrwt>
<pdfrwt beam="1">  1        4 0.16973821E+00 0.17218110E+04</pdfrwt>
<pdfrwt beam="2">  1       -4 0.89111816E-01 0.17218110E+04</pdfrwt>
<totfact> 0.44019312E-01</totfact>
</mgrwt>
</event>
<event>
 8    1  0.5361529E-011  0.1860734E+04  0.7818608E-02  0.8674652E-01
          4   -1    0    0  501    0  0.00000000000E+00  0.00000000000E+00  0.11776674270E+04  0.11776681118E+04  0.12700000000E+01 0.  1.
         -4   -1    0    0    0  501 -0.00000000000E+00 -0.00000000000E+00 -0.73499627529E+03  0.73499737250E+03  0.12700000000E+01 0. -1.
     200001    2    1    2    0    0  0.24679807954E+03 -0.55297000167E+03  0.12440833592E+03  0.93390282932E+03  0.70000853263E+03 0.  0.
    5000001    2    3    3    0    0  0.14785870363E+03 -0.23397451098E+03  0.46799046742E+02  0.32762704640E+03  0.16894692282E+03 0.  0.
        -11    1    4    4    0    0 -0.31273379597E+02 -0.47141427373E+02 -0.17552083257E+02  0.59231867041E+02  0.51100000000E-03 0. -1.
     200002    1    4    4    0    0  0.17913208323E+03 -0.18683308361E+03  0.64351130000E+02  0.26839517936E+03  0.30000000000E+02 0. -1.
     200000    1    3    3    0    0  0.98939375905E+02 -0.31899549069E+03  0.77609289178E+02  0.60627578292E+03  0.50000000000E+03 0.  1.
    -200001    1    1    2    0    0 -0.24679807954E+03  0.55297000167E+03  0.31826281577E+03  0.97876265494E+03  0.70000000000E+03 0.  1.
<mgrwt>
<rscale>  0 0.18607341E+04</rscale>
<asrwt>0</asrwt>
<pdfrwt beam="1">  1        4 0.16823833E+00 0.18607341E+04</pdfrwt>
<pdfrwt beam="2">  1       -4 0.10499960E+00 0.18607341E+04</pdfrwt>
<totfact> 0.30283004E-01</totfact>
</mgrwt>
</event>
<event>
 8    1  0.5361529E-011  0.2659421E+04  0.7818608E-02  0.8348293E-01
         -4   -1    0    0    0  501 -0.00000000000E+00  0.00000000000E+00  0.21680030275E+04  0.21680033995E+04  0.12700000000E+01 0. -1.
          4   -1    0    0  501    0  0.00000000000E+00 -0.00000000000E+00 -0.81555603356E+03  0.81555702240E+03  0.12700000000E+01 0.  1.
     200001    2    1    2    0    0 -0.41196776145E+03 -0.79953146263E+02  0.18540631204E+04  0.20255788561E+04  0.69950675892E+03 0.  0.
    5000001    2    3    3    0    0 -0.11547472305E+03 -0.19675914256E+02  0.68248843308E+03  0.71633147135E+03  0.18335419899E+03 0.  0.
        -11    1    4    4    0    0 -0.16055108418E+03 -0.19690902210E+02  0.54729131701E+03  0.57069446111E+03  0.51100000000E-03 0. -1.
     200002    1    4    4    0    0  0.45076361135E+02  0.14987954131E-01  0.13519711607E+03  0.14563701024E+03  0.30000000000E+02 0. -1.
     200000    1    3    3    0    0 -0.29649303840E+03 -0.60277232007E+02  0.11715746874E+04  0.13092473848E+04  0.50000000000E+03 0.  1.
    -200001    1    1    2    0    0  0.41196776145E+03  0.79953146263E+02 -0.50161612645E+03  0.95798156579E+03  0.70000000000E+03 0. -1.
<mgrwt>
<rscale>  0 0.26594210E+04</rscale>
<asrwt>0</asrwt>
<pdfrwt beam="1">  1        4 0.11650810E+00 0.26594210E+04</pdfrwt>
<pdfrwt beam="2">  1       -4 0.30971482E+00 0.26594210E+04</pdfrwt>
<totfact> 0.27095673E-02</totfact>
</mgrwt>
</event>
<event>
 8    1  0.5361529E-011  0.1891954E+04  0.7818608E-02  0.8658872E-01
         -4   -1    0    0    0  501 -0.00000000000E+00  0.00000000000E+00  0.10086906921E+04  0.10086914916E+04  0.12700000000E+01 0. -1.
          4   -1    0    0  501    0  0.00000000000E+00 -0.00000000000E+00 -0.88716093535E+03  0.88716184438E+03  0.12700000000E+01 0.  1.
     200001    2    1    2    0    0 -0.65392142035E+02  0.35276694820E+03  0.58870631178E+03  0.98099018466E+03  0.69788678801E+03 0.  0.
    5000001    2    3    3    0    0 -0.72489822394E+02  0.43726559402E+02  0.75026996866E+02  0.20033483333E+03  0.16534270120E+03 0.  0.
        -11    1    4    4    0    0 -0.65807974758E+02  0.35964589315E+02 -0.37202127093E+02  0.83714631259E+02  0.51100000000E-03 0. -1.
     200002    1    4    4    0    0 -0.66818476361E+01  0.77619700865E+01  0.11222912396E+03  0.11662020208E+03  0.30000000000E+02 0. -1.
     200000    1    3    3    0    0  0.70976803588E+01  0.30904038879E+03  0.51367931492E+03  0.78065535132E+03  0.50000000000E+03 0.  1.
    -200001    1    1    2    0    0  0.65392142035E+02 -0.35276694820E+03 -0.46717655507E+03  0.91486315129E+03  0.70000000000E+03 0.  1.
<mgrwt>
<rscale>  0 0.18919541E+04</rscale>
<asrwt>0</asrwt>
<pdfrwt beam="1">  1        4 0.12673740E+00 0.18919541E+04</pdfrwt>
<pdfrwt beam="2">  1       -4 0.14409879E+00 0.18919541E+04</pdfrwt>
<totfact> 0.28894181E-01</totfact>
</mgrwt>
</event>
<event>
 8    1  0.5361529E-011  0.1559532E+04  0.7818608E-02  0.8845802E-01
          4   -1    0    0  501    0  0.00000000000E+00  0.00000000000E+00  0.10561472593E+04  0.10561480229E+04  0.12700000000E+01 0.  1.
         -4   -1    0    0    0  501 -0.00000000000E+00 -0.00000000000E+00 -0.57570855159E+03  0.57570995239E+03  0.12700000000E+01 0. -1.
     200001    2    1    2    0    0  0.33333792037E+03 -0.48237763360E+02  0.29958745040E+03  0.83426896568E+03  0.70200499692E+03 0.  0.
    5000001    2    3    3    0    0  0.70760743203E+01 -0.77592754237E+02  0.32760200499E+02  0.17966581188E+03  0.15854294965E+03 0.  0.
        -11    1    4    4    0    0 -0.45114980558E+02 -0.69831023793E+02  0.69805568523E+02  0.10855667069E+03  0.51100000000E-03 0. -1.
     200002    1    4    4    0    0  0.52191054879E+02 -0.77617304438E+01 -0.37045368024E+02  0.71109141190E+02  0.30000000000E+02 0. -1.
     200000    1    3    3    0    0  0.32626184605E+03  0.29354990877E+02  0.26682724990E+03  0.65460315380E+03  0.50000000000E+03 0. -1.
    -200001    1    1    2    0    0 -0.33333792037E+03  0.48237763360E+02  0.18085125733E+03  0.79758900961E+03  0.70000000000E+03 0.  1.
<mgrwt>
<rscale>  0 0.15595317E+04</rscale>
<asrwt>0</asrwt>
<pdfrwt beam="1">  1        4 0.15087833E+00 0.15595317E+04</pdfrwt>
<pdfrwt beam="2">  1       -4 0.82244235E-01 0.15595317E+04</pdfrwt>
<totfact> 0.73955028E-01</totfact>
</mgrwt>
</event>
<event>
 8    1  0.5361529E-011  0.1582066E+04  0.7818608E-02  0.8831642E-01
         -4   -1    0    0    0  501 -0.00000000000E+00  0.00000000000E+00  0.30490912415E+03  0.30491176902E+03  0.12700000000E+01 0. -1.
          4   -1    0    0  501    0  0.00000000000E+00 -0.00000000000E+00 -0.20521843903E+04  0.20521847833E+04  0.12700000000E+01 0.  1.
     200001    2    1    2    0    0  0.19973674204E+03 -0.25722802111E+03 -0.11325822071E+04  0.13702284873E+04  0.69908699780E+03 0.  0.
    5000001    2    3    3    0    0  0.32214481273E+02 -0.20236780177E+02 -0.51039742698E+03  0.52090966800E+03  0.96922900668E+02 0.  0.
        -11    1    4    4    0    0 -0.19546413082E+01 -0.40469804054E+02 -0.10631488881E+03  0.11377381617E+03  0.51100000000E-03 0. -1.
     200002    1    4    4    0    0  0.34169122582E+02  0.20233023877E+02 -0.40408253817E+03  0.40713585183E+03  0.30000000000E+02 0. -1.
     200000    1    3    3    0    0  0.16752226077E+03 -0.23699124093E+03 -0.62218478013E+03  0.84931881926E+03  0.50000000000E+03 0.  1.
    -200001    1    1    2    0    0 -0.19973674204E+03  0.25722802111E+03 -0.61469305907E+03  0.98686806506E+03  0.70000000000E+03 0. -1.
<mgrwt>
<rscale>  0 0.15820661E+04</rscale>
<asrwt>0</asrwt>
<pdfrwt beam="1">  1        4 0.29316941E+00 0.15820661E+04</pdfrwt>
<pdfrwt beam="2">  1       -4 0.43558665E-01 0.15820661E+04</pdfrwt>
<totfact> 0.33926170E-01</totfact>
</mgrwt>
</event>
<event>
 8    1  0.5361529E-011  0.1715935E+04  0.7818608E-02  0.8752328E-01
         -4   -1    0    0    0  501 -0.00000000000E+00  0.00000000000E+00  0.74197250620E+03  0.74197359310E+03  0.12700000000E+01 0. -1.
          4   -1    0    0  501    0  0.00000000000E+00 -0.00000000000E+00 -0.99209361686E+03  0.99209442974E+03  0.12700000000E+01 0.  1.
     200001    2    1    2    0    0  0.23065789000E+03  0.76249906765E+02 -0.56177642602E+03  0.93023585995E+03  0.70052044353E+03 0.  0.
    5000001    2    3    3    0    0  0.16040646729E+03  0.40353319804E+02 -0.67458590355E+02  0.22272335122E+03  0.13302783392E+03 0.  0.
        -11    1    4    4    0    0  0.83441358801E+02 -0.38437104385E+02 -0.36426452071E+01  0.91940960494E+02  0.51100000000E-03 0. -1.
     200002    1    4    4    0    0  0.76965108493E+02  0.78790424190E+02 -0.63815945148E+02  0.13078239073E+03  0.30000000000E+02 0. -1.
     200000    1    3    3    0    0  0.70251422701E+02  0.35896586960E+02 -0.49431783566E+03  0.70751250873E+03  0.50000000000E+03 0.  1.
    -200001    1    1    2    0    0 -0.23065789000E+03 -0.76249906765E+02  0.31165531536E+03  0.80383216289E+03  0.70000000000E+03 0. -1.
<mgrwt>
<rscale>  0 0.17159345E+04</rscale>
<asrwt>0</asrwt>
<pdfrwt beam="1">  1        4 0.14172780E+00 0.17159345E+04</pdfrwt>
<pdfrwt beam="2">  1       -4 0.10599621E+00 0.17159345E+04</pdfrwt>
<totfact> 0.47561194E-01</totfact>
</mgrwt>
</event>
<event>
 8    1  0.5361529E-011  0.1689874E+04  0.7818608E-02  0.8767161E-01
         -4   -1    0    0    0  501 -0.00000000000E+00  0.00000000000E+00  0.71922970766E+03  0.71923082893E+03  0.12700000000E+01 0. -1.
          4   -1    0    0  501    0  0.00000000000E+00 -0.00000000000E+00 -0.99261261967E+03  0.99261343213E+03  0.12700000000E+01 0.  1.
     200001    2    1    2    0    0 -0.30140159417E+02  0.44612058988E+03 -0.29477890321E+03  0.88094727685E+03  0.69945799937E+03 0.  0.
    5000001    2    3    3    0    0 -0.52551694941E+01  0.15638746466E+03 -0.72213724727E+02  0.26118941668E+03  0.19626623101E+03 0.  0.
        -11    1    4    4    0    0  0.92219000984E+02  0.92281922396E+02 -0.40956129998E+02  0.13673954047E+03  0.51100000000E-03 0. -1.
     200002    1    4    4    0    0 -0.97474170478E+02  0.64105542262E+02 -0.31257594729E+02  0.12444987620E+03  0.30000000000E+02 0. -1.
     200000    1    3    3    0    0 -0.24884989923E+02  0.28973312522E+03 -0.22256517848E+03  0.61975786017E+03  0.50000000000E+03 0.  1.
    -200001    1    1    2    0    0  0.30140159417E+02 -0.44612058988E+03  0.21395991198E+02  0.83089698421E+03  0.70000000000E+03 0. -1.
<mgrwt>
<rscale>  0 0.16898735E+04</rscale>
<asrwt>0</asrwt>
<pdfrwt beam="1">  1        4 0.14180194E+00 0.16898735E+04</pdfrwt>
<pdfrwt beam="2">  1       -4 0.10274724E+00 0.16898735E+04</pdfrwt>
<totfact> 0.51300618E-01</totfact>
</mgrwt>
</event>
<event>
 8    1  0.5361529E-011  0.1492265E+04  0.7818608E-02  0.8889613E-01
          4   -1    0    0  501    0  0.00000000000E+00  0.00000000000E+00  0.33730475501E+03  0.33730714587E+03  0.12700000000E+01 0.  1.
         -4   -1    0    0    0  501 -0.00000000000E+00 -0.00000000000E+00 -0.16504694865E+04  0.16504699751E+04  0.12700000000E+01 0. -1.
     200001    2    1    2    0    0  0.22225977756E+02 -0.22753727831E+03 -0.81517864933E+03  0.10988129231E+04  0.70043301076E+03 0.  0.
    5000001    2    3    3    0    0 -0.31586144208E+02 -0.84199278947E+02 -0.16047715899E+03  0.26091342556E+03  0.18502890045E+03 0.  0.
        -11    1    4    4    0    0 -0.95389014096E+01 -0.13816876908E+03 -0.92977806485E+02  0.16681268503E+03  0.51100000000E-03 0. -1.
     200002    1    4    4    0    0 -0.22047242798E+02  0.53969490132E+02 -0.67499352504E+02  0.94100740531E+02  0.30000000000E+02 0. -1.
     200000    1    3    3    0    0  0.53812121964E+02 -0.14333799936E+03 -0.65470149034E+03  0.83789949754E+03  0.50000000000E+03 0. -1.
    -200001    1    1    2    0    0 -0.22225977756E+02  0.22753727831E+03 -0.49798608219E+03  0.88896419791E+03  0.70000000000E+03 0.  1.
<mgrwt>
<rscale>  0 0.14922655E+04</rscale>
<asrwt>0</asrwt>
<pdfrwt beam="1">  1        4 0.48186600E-01 0.14922655E+04</pdfrwt>
<pdfrwt beam="2">  1       -4 0.23578156E+00 0.14922655E+04</pdfrwt>
<totfact> 0.62876974E-01</totfact>
</mgrwt>
</event>
<event>
 8    1  0.5361529E-011  0.1812640E+04  0.7818608E-02  0.8699606E-01
         -4   -1    0    0    0  501 -0.00000000000E+00  0.00000000000E+00  0.10479702652E+04  0.10479710348E+04  0.12700000000E+01 0. -1.
          4   -1    0    0  501    0  0.00000000000E+00 -0.00000000000E+00 -0.78381480284E+03  0.78381583172E+03  0.12700000000E+01 0.  1.
     200001    2    1    2    0    0 -0.36566120990E+03 -0.20340719400E+02 -0.31656456197E+03  0.85129841066E+03  0.70026708962E+03 0.  0.
    5000001    2    3    3    0    0 -0.18092409604E+03  0.95560120992E+02 -0.62513755330E+02  0.24954877967E+03  0.12845761394E+03 0.  0.
        -11    1    4    4    0    0 -0.12051947807E+03  0.11004605360E+03 -0.11223510154E+02  0.16358803651E+03  0.51100000000E-03 0. -1.
     200002    1    4    4    0    0 -0.60404617966E+02 -0.14485932608E+02 -0.51290245176E+02  0.85960743164E+02  0.30000000000E+02 0. -1.
     200000    1    3    3    0    0 -0.18473711387E+03 -0.11590084039E+03 -0.25405080664E+03  0.60174963099E+03  0.50000000000E+03 0.  1.
    -200001    1    1    2    0    0  0.36566120990E+03  0.20340719400E+02  0.58072002436E+03  0.98048845582E+03  0.70000000000E+03 0.  1.
<mgrwt>
<rscale>  0 0.18126403E+04</rscale>
<asrwt>0</asrwt>
<pdfrwt beam="1">  1        4 0.11197367E+00 0.18126403E+04</pdfrwt>
<pdfrwt beam="2">  1       -4 0.14971016E+00 0.18126403E+04</pdfrwt>
<totfact> 0.35747573E-01</totfact>
</mgrwt>
</event>
<event>
 8    1  0.5361529E-011  0.1881832E+04  0.7818608E-02  0.8663953E-01
         -4   -1    0    0    0  501 -0.00000000000E+00  0.00000000000E+00  0.90916324158E+03  0.90916412860E+03  0.12700000000E+01 0. -1.
          4   -1    0    0  501    0  0.00000000000E+00 -0.00000000000E+00 -0.97377624052E+03  0.97377706869E+03  0.12700000000E+01 0.  1.
     200001    2    1    2    0    0 -0.40478444978E+03 -0.48039420626E+03 -0.42247575471E+01  0.94045735982E+03  0.69986652504E+03 0.  0.
    5000001    2    3    3    0    0 -0.18492968352E+03 -0.16354988335E+03 -0.95333818525E+02  0.30247044444E+03  0.14646597084E+03 0.  0.
        -11    1    4    4    0    0 -0.15990777789E+03 -0.17980987097E+03 -0.98565403860E+02  0.26003312475E+03  0.51100000000E-03 0. -1.
     200002    1    4    4    0    0 -0.25021905624E+02  0.16259987622E+02  0.32315853347E+01  0.42437319688E+02  0.30000000000E+02 0. -1.
     200000    1    3    3    0    0 -0.21985476626E+03 -0.31684432291E+03  0.91109060978E+02  0.63798691538E+03  0.50000000000E+03 0. -1.
    -200001    1    1    2    0    0  0.40478444978E+03  0.48039420626E+03 -0.60388241399E+02  0.94248383747E+03  0.70000000000E+03 0.  1.
<mgrwt>
<rscale>  0 0.18818323E+04</rscale>
<asrwt>0</asrwt>
<pdfrwt beam="1">  1        4 0.13911101E+00 0.18818323E+04</pdfrwt>
<pdfrwt beam="2">  1       -4 0.12988059E+00 0.18818323E+04</pdfrwt>
<totfact> 0.29803392E-01</totfact>
</mgrwt>
</event>
<event>
 8    1  0.5361529E-011  0.1575456E+04  0.7818608E-02  0.8835770E-01
         -4   -1    0    0    0  501 -0.00000000000E+00  0.00000000000E+00  0.16293077813E+04  0.16293082762E+04  0.12700000000E+01 0. -1.
          4   -1    0    0  501    0  0.00000000000E+00 -0.00000000000E+00 -0.38084427669E+03  0.38084639421E+03  0.12700000000E+01 0.  1.
     200001    2    1    2    0    0  0.33480811883E+03  0.83778169821E+02  0.75932675045E+03  0.10890846284E+04  0.70029490618E+03 0.  0.
    5000001    2    3    3    0    0  0.13181776985E+03  0.80820326839E+02  0.24392564035E+03  0.34285937088E+03  0.18478360452E+03 0.  0.
        -11    1    4    4    0    0  0.96577476256E+02  0.47597809946E+02  0.17137419709E+02  0.10902500441E+03  0.51100000000E-03 0. -1.
     200002    1    4    4    0    0  0.35240293593E+02  0.33222516894E+02  0.22678822064E+03  0.23383436647E+03  0.30000000000E+02 0. -1.
     200000    1    3    3    0    0  0.20299034898E+03  0.29578429816E+01  0.51540111010E+03  0.74622525748E+03  0.50000000000E+03 0. -1.
    -200001    1    1    2    0    0 -0.33480811883E+03 -0.83778169821E+02  0.48913675412E+03  0.92107004207E+03  0.70000000000E+03 0.  1.
<mgrwt>
<rscale>  0 0.15754557E+04</rscale>
<asrwt>0</asrwt>
<pdfrwt beam="1">  1        4 0.54406512E-01 0.15754557E+04</pdfrwt>
<pdfrwt beam="2">  1       -4 0.23275844E+00 0.15754557E+04</pdfrwt>
<totfact> 0.50620588E-01</totfact>
</mgrwt>
</event>
<event>
 8    1  0.5361529E-011  0.1585625E+04  0.7818608E-02  0.8829428E-01
          4   -1    0    0  501    0  0.00000000000E+00  0.00000000000E+00  0.18878518655E+04  0.18878522927E+04  0.12700000000E+01 0.  1.
         -4   -1    0    0    0  501 -0.00000000000E+00 -0.00000000000E+00 -0.33294366320E+03  0.33294608537E+03  0.12700000000E+01 0. -1.
     200001    2    1    2    0    0 -0.32836134736E+03  0.74594816638E+02  0.99914471925E+03  0.12656760769E+04  0.70018583280E+03 0.  0.
    5000001    2    3    3    0    0 -0.13041928346E+03 -0.76741910551E+02  0.26747108339E+03  0.34511636937E+03  0.15705418691E+03 0.  0.
        -11    1    4    4    0    0 -0.47807237376E+02 -0.16952590056E+02  0.22499991577E+03  0.23064666560E+03  0.51100000000E-03 0. -1.
     200002    1    4    4    0    0 -0.82612046086E+02 -0.59789320495E+02  0.42471167622E+02  0.11446970378E+03  0.30000000000E+02 0. -1.
     200000    1    3    3    0    0 -0.19794206390E+03  0.15133672719E+03  0.73167363586E+03  0.92055970750E+03  0.50000000000E+03 0.  1.
    -200001    1    1    2    0    0  0.32836134736E+03 -0.74594816638E+02  0.55576348304E+03  0.95512230117E+03  0.70000000000E+03 0. -1.
<mgrwt>
<rscale>  0 0.15856248E+04</rscale>
<asrwt>0</asrwt>
<pdfrwt beam="1">  1        4 0.26969333E+00 0.15856248E+04</pdfrwt>
<pdfrwt beam="2">  1       -4 0.47563583E-01 0.15856248E+04</pdfrwt>
<totfact> 0.39526414E-01</totfact>
</mgrwt>
</event>
<event>
 8    1  0.5361529E-011  0.1694366E+04  0.7818608E-02  0.8764584E-01
         -4   -1    0    0    0  501 -0.00000000000E+00  0.00000000000E+00  0.43435423082E+03  0.43435608748E+03  0.12700000000E+01 0. -1.
          4   -1    0    0  501    0  0.00000000000E+00 -0.00000000000E+00 -0.16523760722E+04  0.16523765603E+04  0.12700000000E+01 0.  1.
     200001    2    1    2    0    0  0.29153154105E+03  0.37344140834E+03 -0.53733639988E+03  0.10014760904E+04  0.69983914452E+03 0.  0.
    5000001    2    3    3    0    0  0.42440419516E+02  0.18720594715E+03 -0.13506505179E+03  0.28834758076E+03  0.16749478576E+03 0.  0.
        -11    1    4    4    0    0  0.83512622774E+02  0.18554877453E+03 -0.10150955924E+03  0.22739150492E+03  0.51100000000E-03 0. -1.
     200002    1    4    4    0    0 -0.41072203258E+02  0.16571726204E+01 -0.33555492548E+02  0.60956075839E+02  0.30000000000E+02 0. -1.
     200000    1    3    3    0    0  0.24909112153E+03  0.18623546119E+03 -0.40227134809E+03  0.71312850969E+03  0.50000000000E+03 0.  1.
    -200001    1    1    2    0    0 -0.29153154105E+03 -0.37344140834E+03 -0.68068544154E+03  0.10852565573E+04  0.70000000000E+03 0. -1.
<mgrwt>
<rscale>  0 0.16943659E+04</rscale>
<asrwt>0</asrwt>
<pdfrwt beam="1">  1        4 0.23605389E+00 0.16943659E+04</pdfrwt>
<pdfrwt beam="2">  1       -4 0.62050773E-01 0.16943659E+04</pdfrwt>
<totfact> 0.36098414E-01</totfact>
</mgrwt>
</event>
<event>
 8    1  0.5361529E-011  0.1927845E+04  0.7818608E-02  0.8641119E-01
          4   -1    0    0  501    0  0.00000000000E+00  0.00000000000E+00  0.56782614703E+03  0.56782756727E+03  0.12700000000E+01 0.  1.
         -4   -1    0    0    0  501 -0.00000000000E+00 -0.00000000000E+00 -0.16363177958E+04  0.16363182886E+04  0.12700000000E+01 0. -1.
     200001    2    1    2    0    0  0.54241162781E+03  0.30816167331E+03 -0.27129089788E+03  0.97341313590E+03  0.69624736336E+03 0.  0.
    5000001    2    3    3    0    0  0.11442359654E+03 -0.48769913652E+02 -0.99994918973E+02  0.20535309588E+03  0.12922711111E+03 0.  0.
        -11    1    4    4    0    0  0.59649012329E+02 -0.64028373969E+02 -0.10970909186E+03  0.14033432289E+03  0.51100000000E-03 0. -1.
     200002    1    4    4    0    0  0.54774584206E+02  0.15258460316E+02  0.97141728838E+01  0.65018772989E+02  0.30000000000E+02 0. -1.
     200000    1    3    3    0    0  0.42798803127E+03  0.35693158696E+03 -0.17129597891E+03  0.76806004002E+03  0.50000000000E+03 0. -1.
    -200001    1    1    2    0    0 -0.54241162781E+03 -0.30816167331E+03 -0.79720075087E+03  0.12307327200E+04  0.70000000000E+03 0.  1.
<mgrwt>
<rscale>  0 0.19278445E+04</rscale>
<asrwt>0</asrwt>
<pdfrwt beam="1">  1        4 0.81118158E-01 0.19278445E+04</pdfrwt>
<pdfrwt beam="2">  1       -4 0.23375982E+00 0.19278445E+04</pdfrwt>
<totfact> 0.20208986E-01</totfact>
</mgrwt>
</event>
<event>
 8    1  0.5361529E-011  0.1481117E+04  0.7818608E-02  0.8897108E-01
          4   -1    0    0  501    0  0.00000000000E+00  0.00000000000E+00  0.19436263849E+04  0.19436267998E+04  0.12700000000E+01 0.  1.
         -4   -1    0    0    0  501 -0.00000000000E+00 -0.00000000000E+00 -0.28216494102E+03  0.28216779909E+03  0.12700000000E+01 0. -1.
     200001    2    1    2    0    0  0.16454382058E+03 -0.24225879973E+02  0.58052018658E+03  0.92729717346E+03  0.70371499823E+03 0.  0.
    5000001    2    3    3    0    0 -0.47158449220E+01  0.24054153421E+02  0.95789918601E+02  0.20900529081E+03  0.18413761590E+03 0.  0.
        -11    1    4    4    0    0  0.38192707394E+02 -0.39348839972E+02  0.11245059926E+03  0.12510855838E+03  0.51100000000E-03 0. -1.
     200002    1    4    4    0    0 -0.42908552316E+02  0.63402993392E+02 -0.16660680656E+02  0.83896732433E+02  0.30000000000E+02 0. -1.
     200000    1    3    3    0    0  0.16925966551E+03 -0.48280033394E+02  0.48473026798E+03  0.71829188265E+03  0.50000000000E+03 0.  1.
    -200001    1    1    2    0    0 -0.16454382058E+03  0.24225879973E+02  0.10809412573E+04  0.12984974254E+04  0.70000000000E+03 0. -1.
<mgrwt>
<rscale>  0 0.14811170E+04</rscale>
<asrwt>0</asrwt>
<pdfrwt beam="1">  1        4 0.27766113E+00 0.14811170E+04</pdfrwt>
<pdfrwt beam="2">  1       -4 0.40309513E-01 0.14811170E+04</pdfrwt>
<totfact> 0.49913706E-01</totfact>
</mgrwt>
</event>
<event>
 8    1  0.5361529E-011  0.2400875E+04  0.7818608E-02  0.8439176E-01
         -4   -1    0    0    0  501 -0.00000000000E+00  0.00000000000E+00  0.99817763073E+03  0.99817843865E+03  0.12700000000E+01 0. -1.
          4   -1    0    0  501    0  0.00000000000E+00 -0.00000000000E+00 -0.14436795478E+04  0.14436801065E+04  0.12700000000E+01 0.  1.
     200001    2    1    2    0    0  0.18309526807E+03  0.14269370464E+03 -0.11857681536E+04  0.13969281783E+04  0.70105409974E+03 0.  0.
    5000001    2    3    3    0    0  0.40538720081E+02  0.61788514394E+02 -0.22356582310E+03  0.30025076723E+03  0.18629985943E+03 0.  0.
        -11    1    4    4    0    0 -0.15239633896E+02  0.86821250736E+02 -0.21404668830E+03  0.23148684800E+03  0.51100000000E-03 0. -1.
     200002    1    4    4    0    0  0.55778353977E+02 -0.25032736342E+02 -0.95191347991E+01  0.68763919234E+02  0.30000000000E+02 0. -1.
     200000    1    3    3    0    0  0.14255654799E+03  0.80905190247E+02 -0.96220233050E+03  0.10966774111E+04  0.50000000000E+03 0.  1.
    -200001    1    1    2    0    0 -0.18309526807E+03 -0.14269370464E+03  0.74026623649E+03  0.10449303668E+04  0.70000000000E+03 0. -1.
<mgrwt>
<rscale>  0 0.24008751E+04</rscale>
<asrwt>0</asrwt>
<pdfrwt beam="1">  1        4 0.20624003E+00 0.24008751E+04</pdfrwt>
<pdfrwt beam="2">  1       -4 0.14259690E+00 0.24008751E+04</pdfrwt>
<totfact> 0.73912898E-02</totfact>
</mgrwt>
</event>
<event>
 8    1  0.5361529E-011  0.1422157E+04  0.7818608E-02  0.8937935E-01
          4   -1    0    0  501    0  0.00000000000E+00  0.00000000000E+00  0.20008521631E+04  0.20008525661E+04  0.12700000000E+01 0.  1.
         -4   -1    0    0    0  501 -0.00000000000E+00 -0.00000000000E+00 -0.25270656248E+03  0.25270975372E+03  0.12700000000E+01 0. -1.
     200001    2    1    2    0    0 -0.31249601716E+02 -0.11065832541E+03  0.95219081377E+03  0.11873701114E+04  0.69997045162E+03 0.  0.
    5000001    2    3    3    0    0  0.59475318177E+02 -0.33934600045E+02  0.20834127190E+03  0.28325193219E+03  0.17926712181E+03 0.  0.
        -11    1    4    4    0    0  0.11501770266E+03 -0.48660747006E+02  0.11613786282E+03  0.17054308371E+03  0.51100000000E-03 0. -1.
     200002    1    4    4    0    0 -0.55542384479E+02  0.14726146962E+02  0.92203409084E+02  0.11270884848E+03  0.30000000000E+02 0. -1.
     200000    1    3    3    0    0 -0.90724919893E+02 -0.76723725365E+02  0.74384954187E+03  0.90411817926E+03  0.50000000000E+03 0. -1.
    -200001    1    1    2    0    0  0.31249601716E+02  0.11065832541E+03  0.79595478684E+03  0.10661922084E+04  0.70000000000E+03 0. -1.
<mgrwt>
<rscale>  0 0.14221568E+04</rscale>
<asrwt>0</asrwt>
<pdfrwt beam="1">  1        4 0.28583630E+00 0.14221568E+04</pdfrwt>
<pdfrwt beam="2">  1       -4 0.36101192E-01 0.14221568E+04</pdfrwt>
<totfact> 0.55675243E-01</totfact>
</mgrwt>
</event>
<event>
 8    1  0.5361529E-011  0.1439718E+04  0.7818608E-02  0.8925560E-01
          4   -1    0    0  501    0  0.00000000000E+00  0.00000000000E+00  0.38606885248E+03  0.38607094135E+03  0.12700000000E+01 0.  1.
         -4   -1    0    0    0  501 -0.00000000000E+00 -0.00000000000E+00 -0.13422331220E+04  0.13422337229E+04  0.12700000000E+01 0. -1.
     200001    2    1    2    0    0  0.53723950934E+02 -0.12884872488E+03 -0.36694999856E+03  0.80274444794E+03  0.70018432605E+03 0.  0.
    5000001    2    3    3    0    0  0.47771677963E+02 -0.64271613076E+02 -0.18867021519E+03  0.26796476052E+03  0.17261427900E+03 0.  0.
        -11    1    4    4    0    0 -0.18987290082E+02 -0.52077248189E+02 -0.18560204930E+03  0.19370254946E+03  0.51100000000E-03 0. -1.
     200002    1    4    4    0    0  0.66758968045E+02 -0.12194364887E+02 -0.30681658966E+01  0.74262211059E+02  0.30000000000E+02 0. -1.
     200000    1    3    3    0    0  0.59522729718E+01 -0.64577111804E+02 -0.17827978337E+03  0.53477968742E+03  0.50000000000E+03 0.  1.
    -200001    1    1    2    0    0 -0.53723950934E+02  0.12884872488E+03 -0.58921427100E+03  0.92556021628E+03  0.70000000000E+03 0. -1.
<mgrwt>
<rscale>  0 0.14397176E+04</rscale>
<asrwt>0</asrwt>
<pdfrwt beam="1">  1        4 0.55152886E-01 0.14397176E+04</pdfrwt>
<pdfrwt beam="2">  1       -4 0.19174778E+00 0.14397176E+04</pdfrwt>
<totfact> 0.91487726E-01</totfact>
</mgrwt>
</event>
<event>
 8    1  0.5361529E-011  0.1761405E+04  0.7818608E-02  0.8727098E-01
          4   -1    0    0  501    0  0.00000000000E+00  0.00000000000E+00  0.13576067926E+04  0.13576073866E+04  0.12700000000E+01 0.  1.
         -4   -1    0    0    0  501 -0.00000000000E+00 -0.00000000000E+00 -0.57132505817E+03  0.57132646971E+03  0.12700000000E+01 0. -1.
     200001    2    1    2    0    0 -0.10269817593E+03 -0.31444059032E+03 -0.66501315602E+02  0.77712713183E+03  0.70006025018E+03 0.  0.
    5000001    2    3    3    0    0 -0.84785058870E-01 -0.80834949312E+02  0.76405710427E+02  0.19788320948E+03  0.16366317787E+03 0.  0.
        -11    1    4    4    0    0  0.58859950508E+02 -0.66063846978E+02 -0.89081673721E+01  0.88928516785E+02  0.51100000000E-03 0. -1.
     200002    1    4    4    0    0 -0.58944735567E+02 -0.14771102334E+02  0.85313877799E+02  0.10895469270E+03  0.30000000000E+02 0. -1.
     200000    1    3    3    0    0 -0.10261339088E+03 -0.23360564100E+03 -0.14290702603E+03  0.57924392235E+03  0.50000000000E+03 0. -1.
    -200001    1    1    2    0    0  0.10269817593E+03  0.31444059032E+03  0.85278305003E+03  0.11518067245E+04  0.70000000000E+03 0.  1.
<mgrwt>
<rscale>  0 0.17614048E+04</rscale>
<asrwt>0</asrwt>
<pdfrwt beam="1">  1        4 0.19394397E+00 0.17614048E+04</pdfrwt>
<pdfrwt beam="2">  1       -4 0.81618009E-01 0.17614048E+04</pdfrwt>
<totfact> 0.36518188E-01</totfact>
</mgrwt>
</event>
<event>
 8    1  0.5361529E-011  0.2105477E+04  0.7818608E-02  0.8558834E-01
          4   -1    0    0  501    0  0.00000000000E+00  0.00000000000E+00  0.11302430942E+04  0.11302438077E+04  0.12700000000E+01 0.  1.
         -4   -1    0    0    0  501 -0.00000000000E+00 -0.00000000000E+00 -0.98054762776E+03  0.98054845021E+03  0.12700000000E+01 0. -1.
     200001    2    1    2    0    0 -0.48767174705E+03 -0.44147412076E+02  0.69123973277E+03  0.10993364164E+04  0.70068214006E+03 0.  0.
    5000001    2    3    3    0    0 -0.15443047390E+03 -0.28650919880E+02  0.26798365614E+03  0.36419316926E+03  0.19013620934E+03 0.  0.
        -11    1    4    4    0    0 -0.10951754083E+03 -0.12511115174E+02  0.28478343858E+03  0.30537227550E+03  0.51100000000E-03 0. -1.
     200002    1    4    4    0    0 -0.44912933074E+02 -0.16139804706E+02 -0.16799782444E+02  0.58820893766E+02  0.30000000000E+02 0. -1.
     200000    1    3    3    0    0 -0.33324127314E+03 -0.15496492196E+02  0.42325607663E+03  0.73514324713E+03  0.50000000000E+03 0.  1.
    -200001    1    1    2    0    0  0.48767174705E+03  0.44147412076E+02 -0.54154426637E+03  0.10114558415E+04  0.70000000000E+03 0. -1.
<mgrwt>
<rscale>  0 0.21054774E+04</rscale>
<asrwt>0</asrwt>
<pdfrwt beam="1">  1        4 0.16146341E+00 0.21054774E+04</pdfrwt>
<pdfrwt beam="2">  1       -4 0.14007834E+00 0.21054774E+04</pdfrwt>
<totfact> 0.16183013E-01</totfact>
</mgrwt>
</event>
<event>
 8    1  0.5361529E-011  0.1779831E+04  0.7818608E-02  0.8717099E-01
          4   -1    0    0  501    0  0.00000000000E+00  0.00000000000E+00  0.81478220362E+03  0.81478319339E+03  0.12700000000E+01 0.  1.
         -4   -1    0    0    0  501 -0.00000000000E+00 -0.00000000000E+00 -0.97197549203E+03  0.97197632173E+03  0.12700000000E+01 0. -1.
     200001    2    1    2    0    0  0.15004416557E+03 -0.35943522060E+03  0.31094577888E+03  0.85893349923E+03  0.69955167734E+03 0.  0.
    5000001    2    3    3    0    0  0.79139419958E+02 -0.21119307527E+03  0.14850154308E+03  0.30812378041E+03  0.14839808936E+03 0.  0.
        -11    1    4    4    0    0 -0.18894636242E+02 -0.11396027601E+03  0.11480891098E+03  0.16286509088E+03  0.51100000000E-03 0. -1.
     200002    1    4    4    0    0  0.98034056201E+02 -0.97232799260E+02  0.33692632100E+02  0.14525868953E+03  0.30000000000E+02 0. -1.
     200000    1    3    3    0    0  0.70904745616E+02 -0.14824214533E+03  0.16244423581E+03  0.55080971882E+03  0.50000000000E+03 0.  1.
    -200001    1    1    2    0    0 -0.15004416557E+03  0.35943522060E+03 -0.46813906729E+03  0.92782601589E+03  0.70000000000E+03 0. -1.
<mgrwt>
<rscale>  0 0.17798314E+04</rscale>
<asrwt>0</asrwt>
<pdfrwt beam="1">  1        4 0.11639759E+00 0.17798314E+04</pdfrwt>
<pdfrwt beam="2">  1       -4 0.13885377E+00 0.17798314E+04</pdfrwt>
<totfact> 0.39742823E-01</totfact>
</mgrwt>
</event>
<event>
 8    1  0.5361529E-011  0.1519819E+04  0.7818608E-02  0.8871379E-01
         -4   -1    0    0    0  501 -0.00000000000E+00  0.00000000000E+00  0.16914832366E+04  0.16914837134E+04  0.12700000000E+01 0. -1.
          4   -1    0    0  501    0  0.00000000000E+00 -0.00000000000E+00 -0.34139247109E+03  0.34139483332E+03  0.12700000000E+01 0.  1.
     200001    2    1    2    0    0  0.19395783766E+03  0.21694586475E+03  0.74067331429E+03  0.10602147914E+04  0.70055213539E+03 0.  0.
    5000001    2    3    3    0    0 -0.10236187010E+02  0.14858113025E+02  0.18669598732E+03  0.26057391082E+03  0.18088070177E+03 0.  0.
        -11    1    4    4    0    0 -0.78997448120E+02  0.44521288086E+01  0.26613941823E+02  0.83478860558E+02  0.51100000000E-03 0. -1.
     200002    1    4    4    0    0  0.68761261110E+02  0.10405984217E+02  0.16008204550E+03  0.17709505027E+03  0.30000000000E+02 0. -1.
     200000    1    3    3    0    0  0.20419402467E+03  0.20208775173E+03  0.55397732697E+03  0.79964088058E+03  0.50000000000E+03 0.  1.
    -200001    1    1    2    0    0 -0.19395783766E+03 -0.21694586475E+03  0.60941745127E+03  0.97266375533E+03  0.70000000000E+03 0.  1.
<mgrwt>
<rscale>  0 0.15198191E+04</rscale>
<asrwt>0</asrwt>
<pdfrwt beam="1">  1        4 0.48770557E-01 0.15198191E+04</pdfrwt>
<pdfrwt beam="2">  1       -4 0.24164066E+00 0.15198191E+04</pdfrwt>
<totfact> 0.56255175E-01</totfact>
</mgrwt>
</event>
<event>
 8    1  0.5361529E-011  0.2087085E+04  0.7818608E-02  0.8566954E-01
          4   -1    0    0  501    0  0.00000000000E+00  0.00000000000E+00  0.17834891764E+04  0.17834896285E+04  0.12700000000E+01 0.  1.
         -4   -1    0    0    0  501 -0.00000000000E+00 -0.00000000000E+00 -0.61058870111E+03  0.61059002189E+03  0.12700000000E+01 0. -1.
     200001    2    1    2    0    0 -0.84311073802E+02 -0.74023844504E+03  0.35038682297E+03  0.10819858958E+04  0.70204076832E+03 0.  0.
    5000001    2    3    3    0    0 -0.14201835219E+02 -0.17879622338E+03  0.13122580494E+03  0.29575169063E+03  0.19513858924E+03 0.  0.
        -11    1    4    4    0    0 -0.69089288553E+02 -0.16597340522E+03  0.39627586745E+02  0.18409466767E+03  0.51100000000E-03 0. -1.
     200002    1    4    4    0    0  0.54887453335E+02 -0.12822818157E+02  0.91598218198E+02  0.11165702296E+03  0.30000000000E+02 0. -1.
     200000    1    3    3    0    0 -0.70109238583E+02 -0.56144222166E+03  0.21916101803E+03  0.78623420520E+03  0.50000000000E+03 0.  1.
    -200001    1    1    2    0    0  0.84311073802E+02  0.74023844504E+03  0.82251365228E+03  0.13120937546E+04  0.70000000000E+03 0. -1.
<mgrwt>
<rscale>  0 0.20870845E+04</rscale>
<asrwt>0</asrwt>
<pdfrwt beam="1">  1        4 0.25478430E+00 0.20870845E+04</pdfrwt>
<pdfrwt beam="2">  1       -4 0.87227083E-01 0.20870845E+04</pdfrwt>
<totfact> 0.12481888E-01</totfact>
</mgrwt>
</event>
<event>
 8    1  0.5361529E-011  0.1596852E+04  0.7818608E-02  0.8822484E-01
          4   -1    0    0  501    0  0.00000000000E+00  0.00000000000E+00  0.43899573262E+03  0.43899756965E+03  0.12700000000E+01 0.  1.
         -4   -1    0    0    0  501 -0.00000000000E+00 -0.00000000000E+00 -0.14521371838E+04  0.14521377391E+04  0.12700000000E+01 0. -1.
     200001    2    1    2    0    0 -0.15835207284E+03  0.34946966719E+03 -0.51756742530E+03  0.95156197881E+03  0.70027832504E+03 0.  0.
    5000001    2    3    3    0    0 -0.64540448619E+02 -0.44886069905E+02 -0.16190552721E+03  0.21616245884E+03  0.11971875413E+03 0.  0.
        -11    1    4    4    0    0 -0.28852366639E+02 -0.79872766694E+02 -0.97188796350E+02  0.12906502259E+03  0.51100000000E-03 0. -1.
     200002    1    4    4    0    0 -0.35688081980E+02  0.34986696789E+02 -0.64716730860E+02  0.87097436247E+02  0.30000000000E+02 0. -1.
     200000    1    3    3    0    0 -0.93811624220E+02  0.39435573710E+03 -0.35566189809E+03  0.73539951997E+03  0.50000000000E+03 0. -1.
    -200001    1    1    2    0    0  0.15835207284E+03 -0.34946966719E+03 -0.49557402584E+03  0.93957332995E+03  0.70000000000E+03 0.  1.
<mgrwt>
<rscale>  0 0.15968523E+04</rscale>
<asrwt>0</asrwt>
<pdfrwt beam="1">  1        4 0.62713848E-01 0.15968523E+04</pdfrwt>
<pdfrwt beam="2">  1       -4 0.20744834E+00 0.15968523E+04</pdfrwt>
<totfact> 0.54078480E-01</totfact>
</mgrwt>
</event>
<event>
 8    1  0.5361529E-011  0.1741249E+04  0.7818608E-02  0.8738182E-01
         -4   -1    0    0    0  501 -0.00000000000E+00  0.00000000000E+00  0.10537682747E+04  0.10537690400E+04  0.12700000000E+01 0. -1.
          4   -1    0    0  501    0  0.00000000000E+00 -0.00000000000E+00 -0.71930917828E+03  0.71931029942E+03  0.12700000000E+01 0.  1.
     200001    2    1    2    0    0  0.25668441102E+03 -0.40594467955E+02 -0.28858095901E+03  0.80060121199E+03  0.70010608699E+03 0.  0.
    5000001    2    3    3    0    0  0.21024669492E+02 -0.67543990666E+02 -0.47526736712E+02  0.19697141763E+03  0.17758018262E+03 0.  0.
        -11    1    4    4    0    0 -0.23140687794E+02 -0.25469533479E+02  0.60345334700E+02  0.69467603871E+02  0.51100000000E-03 0. -1.
     200002    1    4    4    0    0  0.44165357287E+02 -0.42074457187E+02 -0.10787207141E+03  0.12750381376E+03  0.30000000000E+02 0. -1.
     200000    1    3    3    0    0  0.23565974153E+03  0.26949522711E+02 -0.24105422230E+03  0.60362979436E+03  0.50000000000E+03 0.  1.
    -200001    1    1    2    0    0 -0.25668441102E+03  0.40594467955E+02  0.62304005548E+03  0.97247812748E+03  0.70000000000E+03 0. -1.
<mgrwt>
<rscale>  0 0.17412488E+04</rscale>
<asrwt>0</asrwt>
<pdfrwt beam="1">  1        4 0.10275859E+00 0.17412488E+04</pdfrwt>
<pdfrwt beam="2">  1       -4 0.15053846E+00 0.17412488E+04</pdfrwt>
<totfact> 0.43616097E-01</totfact>
</mgrwt>
</event>
<event>
 8    1  0.5361529E-011  0.1699239E+04  0.7818608E-02  0.8761798E-01
          4   -1    0    0  501    0  0.00000000000E+00  0.00000000000E+00  0.10570828011E+04  0.10570835640E+04  0.12700000000E+01 0.  1.
         -4   -1    0    0    0  501 -0.00000000000E+00 -0.00000000000E+00 -0.68287161278E+03  0.68287279375E+03  0.12700000000E+01 0. -1.
     200001    2    1    2    0    0  0.44567159719E+03 -0.15336980795E+03  0.29030741264E+03  0.89190841450E+03  0.69934022871E+03 0.  0.
    5000001    2    3    3    0    0  0.21900967973E+03  0.53115049727E+02  0.11225677511E+03  0.27895356233E+03  0.12011268898E+03 0.  0.
        -11    1    4    4    0    0  0.61571646516E+02 -0.35924385397E+02  0.22032521529E+02  0.74612741043E+02  0.51100000000E-03 0. -1.
     200002    1    4    4    0    0  0.15743803321E+03  0.89039435124E+02  0.90224253583E+02  0.20434082129E+03  0.30000000000E+02 0. -1.
     200000    1    3    3    0    0  0.22666191746E+03 -0.20648485768E+03  0.17805063753E+03  0.61295485217E+03  0.50000000000E+03 0. -1.
    -200001    1    1    2    0    0 -0.44567159719E+03  0.15336980795E+03  0.83903775709E+02  0.84804794328E+03  0.70000000000E+03 0.  1.
<mgrwt>
<rscale>  0 0.16992393E+04</rscale>
<asrwt>0</asrwt>
<pdfrwt beam="1">  1        4 0.15101197E+00 0.16992393E+04</pdfrwt>
<pdfrwt beam="2">  1       -4 0.97553228E-01 0.16992393E+04</pdfrwt>
<totfact> 0.49120527E-01</totfact>
</mgrwt>
</event>
<event>
 8    1  0.5361529E-011  0.1449664E+04  0.7818608E-02  0.8918633E-01
         -4   -1    0    0    0  501 -0.00000000000E+00  0.00000000000E+00  0.50928255932E+03  0.50928414282E+03  0.12700000000E+01 0.  1.
          4   -1    0    0  501    0  0.00000000000E+00 -0.00000000000E+00 -0.10316075155E+04  0.10316082972E+04  0.12700000000E+01 0. -1.
     200001    2    1    2    0    0 -0.81326542049E+02 -0.15084388222E+03 -0.32578826729E+03  0.79390210991E+03  0.70340221906E+03 0.  0.
    5000001    2    3    3    0    0 -0.59595675014E+01 -0.30867713973E+02 -0.96714814999E+02  0.22596803949E+03  0.20179065197E+03 0.  0.
        -11    1    4    4    0    0  0.32488956301E+02 -0.57466058562E+02 -0.14050072835E+03  0.15523638374E+03  0.51100000000E-03 0. -1.
     200002    1    4    4    0    0 -0.38448523802E+02  0.26598344589E+02  0.43785913355E+02  0.70731655755E+02  0.30000000000E+02 0. -1.
     200000    1    3    3    0    0 -0.75366974547E+02 -0.11997616825E+03 -0.22907345229E+03  0.56793407042E+03  0.50000000000E+03 0. -1.
    -200001    1    1    2    0    0  0.81326542049E+02  0.15084388222E+03 -0.19653668887E+03  0.74699033014E+03  0.70000000000E+03 0. -1.
<mgrwt>
<rscale>  0 0.14496642E+04</rscale>
<asrwt>0</asrwt>
<pdfrwt beam="1">  1        4 0.14737267E+00 0.14496642E+04</pdfrwt>
<pdfrwt beam="2">  1       -4 0.72754821E-01 0.14496642E+04</pdfrwt>
<totfact> 0.10458105E+00</totfact>
</mgrwt>
</event>
<event>
 8    1  0.5361529E-011  0.1919668E+04  0.7818608E-02  0.8645128E-01
         -4   -1    0    0    0  501 -0.00000000000E+00  0.00000000000E+00  0.28527422859E+04  0.28527425686E+04  0.12700000000E+01 0. -1.
          4   -1    0    0  501    0  0.00000000000E+00 -0.00000000000E+00 -0.32294442808E+03  0.32294692525E+03  0.12700000000E+01 0.  1.
     200001    2    1    2    0    0  0.57790184573E+03 -0.22027948527E+02  0.74937078936E+03  0.11770959084E+04  0.69967308347E+03 0.  0.
    5000001    2    3    3    0    0  0.20271752903E+03  0.50026618484E+02  0.25003022404E+03  0.37379264539E+03  0.18332694751E+03 0.  0.
        -11    1    4    4    0    0  0.21237856386E+03  0.15205599506E+01  0.22878352281E+03  0.31216801054E+03  0.51100000000E-03 0. -1.
     200002    1    4    4    0    0 -0.96610348284E+01  0.48506058533E+02  0.21246701223E+02  0.61624634856E+02  0.30000000000E+02 0. -1.
     200000    1    3    3    0    0  0.37518431669E+03 -0.72054567011E+02  0.49934056533E+03  0.80330326297E+03  0.50000000000E+03 0.  1.
    -200001    1    1    2    0    0 -0.57790184573E+03  0.22027948527E+02  0.17804270685E+04  0.19985935855E+04  0.70000000000E+03 0. -1.
<mgrwt>
<rscale>  0 0.19196683E+04</rscale>
<asrwt>0</asrwt>
<pdfrwt beam="1">  1        4 0.46135118E-01 0.19196683E+04</pdfrwt>
<pdfrwt beam="2">  1       -4 0.40753480E+00 0.19196683E+04</pdfrwt>
<totfact> 0.52170138E-02</totfact>
</mgrwt>
</event>
<event>
 8    1  0.5361529E-011  0.1509482E+04  0.7818608E-02  0.8878172E-01
          4   -1    0    0  501    0  0.00000000000E+00  0.00000000000E+00  0.82639711008E+03  0.82639808594E+03  0.12700000000E+01 0.  1.
         -4   -1    0    0    0  501 -0.00000000000E+00 -0.00000000000E+00 -0.68929633655E+03  0.68929750651E+03  0.12700000000E+01 0. -1.
     200001    2    1    2    0    0 -0.16047847633E+03 -0.42578877373E+02 -0.15002144328E+03  0.74109539264E+03  0.70650523380E+03 0.  0.
    5000001    2    3    3    0    0 -0.11785993159E+03  0.45168497825E+02 -0.79239782633E+02  0.22677449505E+03  0.17092855754E+03 0.  0.
        -11    1    4    4    0    0  0.56574415616E+01  0.17752219364E+02  0.43899261265E+02  0.47689548931E+02  0.51100000000E-03 0. -1.
     200002    1    4    4    0    0 -0.12351737315E+03  0.27416278461E+02 -0.12313904390E+03  0.17908494612E+03  0.30000000000E+02 0. -1.
     200000    1    3    3    0    0 -0.42618544732E+02 -0.87747375198E+02 -0.70781660642E+02  0.51432089758E+03  0.50000000000E+03 0. -1.
    -200001    1    1    2    0    0  0.16047847633E+03  0.42578877373E+02  0.28712221681E+03  0.77460019981E+03  0.70000000000E+03 0.  1.
<mgrwt>
<rscale>  0 0.15094822E+04</rscale>
<asrwt>0</asrwt>
<pdfrwt beam="1">  1        4 0.11805688E+00 0.15094822E+04</pdfrwt>
<pdfrwt beam="2">  1       -4 0.98471059E-01 0.15094822E+04</pdfrwt>
<totfact> 0.91752407E-01</totfact>
</mgrwt>
</event>
<event>
 8    1  0.5361529E-011  0.1414545E+04  0.7818608E-02  0.8943357E-01
          4   -1    0    0  501    0  0.00000000000E+00  0.00000000000E+00  0.53194827314E+03  0.53194978917E+03  0.12700000000E+01 0.  1.
         -4   -1    0    0    0  501 -0.00000000000E+00 -0.00000000000E+00 -0.94037878168E+03  0.94037963926E+03  0.12700000000E+01 0. -1.
     200001    2    1    2    0    0 -0.61645880521E+02 -0.21456682812E+02 -0.20297720443E+03  0.73988716859E+03  0.70850029845E+03 0.  0.
    5000001    2    3    3    0    0  0.46957606974E+02 -0.13512978555E+03 -0.39122604784E+02  0.19073817095E+03  0.11993913397E+03 0.  0.
        -11    1    4    4    0    0  0.26054033914E+02 -0.12385925685E+03 -0.67177788199E+02  0.14329264956E+03  0.51100000000E-03 0. -1.
     200002    1    4    4    0    0  0.20903573060E+02 -0.11270528698E+02  0.28055183415E+02  0.47445521393E+02  0.30000000000E+02 0. -1.
     200000    1    3    3    0    0 -0.10860348750E+03  0.11367310274E+03 -0.16385459964E+03  0.54914899764E+03  0.50000000000E+03 0. -1.
    -200001    1    1    2    0    0  0.61645880521E+02  0.21456682812E+02 -0.20545330411E+03  0.73244225984E+03  0.70000000000E+03 0. -1.
<mgrwt>
<rscale>  0 0.14145453E+04</rscale>
<asrwt>0</asrwt>
<pdfrwt beam="1">  1        4 0.75992780E-01 0.14145453E+04</pdfrwt>
<pdfrwt beam="2">  1       -4 0.13434000E+00 0.14145453E+04</pdfrwt>
<totfact> 0.12111435E+00</totfact>
</mgrwt>
</event>
<event>
 8    1  0.5361529E-011  0.1498997E+04  0.7818608E-02  0.8885120E-01
         -4   -1    0    0    0  501 -0.00000000000E+00  0.00000000000E+00  0.12198074873E+04  0.12198081484E+04  0.12700000000E+01 0. -1.
          4   -1    0    0  501    0  0.00000000000E+00 -0.00000000000E+00 -0.46051990532E+03  0.46052165649E+03  0.12700000000E+01 0.  1.
     200001    2    1    2    0    0 -0.87384221265E+02 -0.13134942254E+03  0.13242539119E+03  0.72752086333E+03  0.69775457678E+03 0.  0.
    5000001    2    3    3    0    0 -0.41356132496E+02 -0.77831087299E+02  0.20860279329E+02  0.21038493212E+03  0.18989118085E+03 0.  0.
        -11    1    4    4    0    0 -0.69922084767E+02 -0.53193675035E+02  0.90215701408E+02  0.12592671592E+03  0.51100000000E-03 0. -1.
     200002    1    4    4    0    0  0.28565952271E+02 -0.24637412264E+02 -0.69355422079E+02  0.84458216202E+02  0.30000000000E+02 0. -1.
     200000    1    3    3    0    0 -0.46028088769E+02 -0.53518335244E+02  0.11156511186E+03  0.51713593121E+03  0.50000000000E+03 0.  1.
    -200001    1    1    2    0    0  0.87384221265E+02  0.13134942254E+03  0.62686219079E+03  0.95280894159E+03  0.70000000000E+03 0.  1.
<mgrwt>
<rscale>  0 0.14989965E+04</rscale>
<asrwt>0</asrwt>
<pdfrwt beam="1">  1        4 0.65788730E-01 0.14989965E+04</pdfrwt>
<pdfrwt beam="2">  1       -4 0.17425839E+00 0.14989965E+04</pdfrwt>
<totfact> 0.82267933E-01</totfact>
</mgrwt>
</event>
<event>
 8    1  0.5361529E-011  0.1418775E+04  0.7818608E-02  0.8940340E-01
          4   -1    0    0  501    0  0.00000000000E+00  0.00000000000E+00  0.57201634990E+03  0.57201775973E+03  0.12700000000E+01 0. -1.
         -4   -1    0    0    0  501 -0.00000000000E+00 -0.00000000000E+00 -0.87974528121E+03  0.87974619789E+03  0.12700000000E+01 0.  1.
     200001    2    1    2    0    0 -0.45356741214E+01 -0.91320601430E+02 -0.76768434171E+02  0.70899698486E+03  0.69887288363E+03 0.  0.
    5000001    2    3    3    0    0 -0.82179817300E+02 -0.15235973208E+02  0.63426913550E+02  0.17845743012E+03  0.14435519995E+03 0.  0.
        -11    1    4    4    0    0 -0.50818016354E+02  0.40872293606E+02 -0.20695156026E+02  0.68420060318E+02  0.51100000000E-03 0. -1.
     200002    1    4    4    0    0 -0.31361800947E+02 -0.56108266814E+02  0.84122069576E+02  0.11003736980E+03  0.30000000000E+02 0. -1.
     200000    1    3    3    0    0  0.77644143179E+02 -0.76084628222E+02 -0.14019534772E+03  0.53053955474E+03  0.50000000000E+03 0.  1.
    -200001    1    1    2    0    0  0.45356741214E+01  0.91320601430E+02 -0.23096049714E+03  0.74276697276E+03  0.70000000000E+03 0. -1.
<mgrwt>
<rscale>  0 0.14187746E+04</rscale>
<asrwt>0</asrwt>
<pdfrwt beam="1">  1        4 0.81716788E-01 0.14187746E+04</pdfrwt>
<pdfrwt beam="2">  1       -4 0.12567806E+00 0.14187746E+04</pdfrwt>
<totfact> 0.12172110E+00</totfact>
</mgrwt>
</event>
<event>
 8    1  0.5361529E-011  0.2184526E+04  0.7818608E-02  0.8524896E-01
         -4   -1    0    0    0  501 -0.00000000000E+00  0.00000000000E+00  0.19228773620E+04  0.19228777814E+04  0.12700000000E+01 0. -1.
          4   -1    0    0  501    0  0.00000000000E+00 -0.00000000000E+00 -0.62044318560E+03  0.62044448540E+03  0.12700000000E+01 0.  1.
     200001    2    1    2    0    0 -0.54702590111E+02  0.17742379896E+03 -0.30022007645E+03  0.78463746503E+03  0.70075122506E+03 0.  0.
    5000001    2    3    3    0    0 -0.34722892963E+02  0.10616721880E+03 -0.13114983346E+00  0.19681942142E+03  0.16205156526E+03 0.  0.
        -11    1    4    4    0    0  0.29692977511E+02 -0.30447009057E+02 -0.45114798415E+01  0.42767355829E+02  0.51100000000E-03 0. -1.
     200002    1    4    4    0    0 -0.64415870474E+02  0.13661422786E+03  0.43803300081E+01  0.15405206559E+03  0.30000000000E+02 0. -1.
     200000    1    3    3    0    0 -0.19979697148E+02  0.71256580162E+02 -0.30008892661E+03  0.58781804361E+03  0.50000000000E+03 0.  1.
    -200001    1    1    2    0    0  0.54702590111E+02 -0.17742379896E+03  0.16026542529E+04  0.17586848018E+04  0.70000000000E+03 0. -1.
<mgrwt>
<rscale>  0 0.21845259E+04</rscale>
<asrwt>0</asrwt>
<pdfrwt beam="1">  1        4 0.88634863E-01 0.21845259E+04</pdfrwt>
<pdfrwt beam="2">  1       -4 0.27469689E+00 0.21845259E+04</pdfrwt>
<totfact> 0.89793767E-02</totfact>
</mgrwt>
</event>
<event>
 8    1  0.5361529E-011  0.1904223E+04  0.7818608E-02  0.8652757E-01
         -4   -1    0    0    0  501 -0.00000000000E+00  0.00000000000E+00  0.64778464020E+03  0.64778588514E+03  0.12700000000E+01 0. -1.
          4   -1    0    0  501    0  0.00000000000E+00 -0.00000000000E+00 -0.13994073282E+04  0.13994079045E+04  0.12700000000E+01 0.  1.
     200001    2    1    2    0    0 -0.26363651224E+03 -0.37710435103E+03 -0.86194713077E+03  0.12022775897E+04  0.70057593762E+03 0.  0.
    5000001    2    3    3    0    0 -0.15617061451E+03 -0.23981143244E+02 -0.14993691105E+03  0.25718316480E+03  0.13673970489E+03 0.  0.
        -11    1    4    4    0    0 -0.17267149521E+03 -0.22044065532E+02 -0.13214602538E+03  0.21854966966E+03  0.51100000000E-03 0. -1.
     200002    1    4    4    0    0  0.16500880698E+02 -0.19370777112E+01 -0.17790885671E+02  0.38633495141E+02  0.30000000000E+02 0. -1.
     200000    1    3    3    0    0 -0.10746589773E+03 -0.35312320779E+03 -0.71201021971E+03  0.94509442493E+03  0.50000000000E+03 0.  1.
    -200001    1    1    2    0    0  0.26363651224E+03  0.37710435103E+03  0.11032444277E+03  0.84491619988E+03  0.70000000000E+03 0. -1.
<mgrwt>
<rscale>  0 0.19042231E+04</rscale>
<asrwt>0</asrwt>
<pdfrwt beam="1">  1        4 0.19991546E+00 0.19042231E+04</pdfrwt>
<pdfrwt beam="2">  1       -4 0.92540793E-01 0.19042231E+04</pdfrwt>
<totfact> 0.24655860E-01</totfact>
</mgrwt>
</event>
<event>
 8    1  0.5361529E-011  0.1416720E+04  0.7818608E-02  0.8941804E-01
          4   -1    0    0  501    0  0.00000000000E+00  0.00000000000E+00  0.20939838566E+04  0.20939842417E+04  0.12700000000E+01 0.  1.
         -4   -1    0    0    0  501 -0.00000000000E+00 -0.00000000000E+00 -0.23962437423E+03  0.23962773968E+03  0.12700000000E+01 0. -1.
     200001    2    1    2    0    0  0.80567290482E+02  0.41237675352E+02  0.10288795113E+04  0.12475140039E+04  0.69964741613E+03 0.  0.
    5000001    2    3    3    0    0 -0.44050344662E+02  0.80513004289E+02  0.36718768373E+03  0.40792590180E+03  0.15216428474E+03 0.  0.
        -11    1    4    4    0    0 -0.85712501440E+02  0.45865456398E+02  0.12731228585E+03  0.16018330476E+03  0.51100000000E-03 0. -1.
     200002    1    4    4    0    0  0.41662156778E+02  0.34647547890E+02  0.23987539788E+03  0.24774259704E+03  0.30000000000E+02 0. -1.
     200000    1    3    3    0    0  0.12461763514E+03 -0.39275328937E+02  0.66169182756E+03  0.83958810206E+03  0.50000000000E+03 0.  1.
    -200001    1    1    2    0    0 -0.80567290482E+02 -0.41237675352E+02  0.82547997105E+03  0.10860979775E+04  0.70000000000E+03 0.  1.
<mgrwt>
<rscale>  0 0.14167201E+04</rscale>
<asrwt>0</asrwt>
<pdfrwt beam="1">  1        4 0.29914083E+00 0.14167201E+04</pdfrwt>
<pdfrwt beam="2">  1       -4 0.34232320E-01 0.14167201E+04</pdfrwt>
<totfact> 0.51194601E-01</totfact>
</mgrwt>
</event>
<event>
 8    1  0.5361529E-011  0.1846077E+04  0.7818608E-02  0.8682173E-01
          4   -1    0    0  501    0  0.00000000000E+00  0.00000000000E+00  0.10333011497E+04  0.10333019302E+04  0.12700000000E+01 0.  1.
         -4   -1    0    0    0  501 -0.00000000000E+00 -0.00000000000E+00 -0.82454039084E+03  0.82454136890E+03  0.12700000000E+01 0. -1.
     200001    2    1    2    0    0 -0.13614593491E+03 -0.20921144168E+03  0.65554019119E+03  0.99071181884E+03  0.69962262885E+03 0.  0.
    5000001    2    3    3    0    0  0.14445010902E+01  0.35232453391E+02  0.20153599560E+03  0.25940903918E+03  0.15947689404E+03 0.  0.
        -11    1    4    4    0    0  0.42852148689E+02 -0.29653449464E+01 -0.49919219399E+01  0.43243718652E+02  0.51100000000E-03 0. -1.
     200002    1    4    4    0    0 -0.41407647599E+02  0.38197798337E+02  0.20652791754E+03  0.21616532053E+03  0.30000000000E+02 0. -1.
     200000    1    3    3    0    0 -0.13759043600E+03 -0.24444389508E+03  0.45400419559E+03  0.73130277965E+03  0.50000000000E+03 0. -1.
    -200001    1    1    2    0    0  0.13614593491E+03  0.20921144168E+03 -0.44677943229E+03  0.86713148025E+03  0.70000000000E+03 0. -1.
<mgrwt>
<rscale>  0 0.18460771E+04</rscale>
<asrwt>0</asrwt>
<pdfrwt beam="1">  1        4 0.14761458E+00 0.18460771E+04</pdfrwt>
<pdfrwt beam="2">  1       -4 0.11779161E+00 0.18460771E+04</pdfrwt>
<totfact> 0.32691758E-01</totfact>
</mgrwt>
</event>
<event>
 8    1  0.5361529E-011  0.1822514E+04  0.7818608E-02  0.8694418E-01
          4   -1    0    0  501    0  0.00000000000E+00  0.00000000000E+00  0.96965971425E+03  0.96966054593E+03  0.12700000000E+01 0.  1.
         -4   -1    0    0    0  501 -0.00000000000E+00 -0.00000000000E+00 -0.85636978276E+03  0.85637072447E+03  0.12700000000E+01 0. -1.
     200001    2    1    2    0    0 -0.13188116678E+03  0.46862893927E+03  0.37813672856E+03  0.93319895087E+03  0.70061913443E+03 0.  0.
    5000001    2    3    3    0    0 -0.20452580716E+02  0.17751356798E+03  0.12242993275E+03  0.29089804427E+03  0.19417314142E+03 0.  0.
        -11    1    4    4    0    0 -0.65923650109E+02 -0.10110699276E+02  0.16710669852E+02  0.68756093336E+02  0.51100000000E-03 0. -1.
     200002    1    4    4    0    0  0.45471069393E+02  0.18762426726E+03  0.10571926290E+03  0.22214195093E+03  0.30000000000E+02 0. -1.
     200000    1    3    3    0    0 -0.11142858606E+03  0.29111537129E+03  0.25570679581E+03  0.64230090660E+03  0.50000000000E+03 0. -1.
    -200001    1    1    2    0    0  0.13188116678E+03 -0.46862893927E+03 -0.26484679708E+03  0.89283231953E+03  0.70000000000E+03 0. -1.
<mgrwt>
<rscale>  0 0.18225135E+04</rscale>
<asrwt>0</asrwt>
<pdfrwt beam="1">  1        4 0.13852294E+00 0.18225135E+04</pdfrwt>
<pdfrwt beam="2">  1       -4 0.12233867E+00 0.18225135E+04</pdfrwt>
<totfact> 0.35216362E-01</totfact>
</mgrwt>
</event>
<event>
 8    1  0.5361529E-011  0.1799963E+04  0.7818608E-02  0.8706319E-01
         -4   -1    0    0    0  501 -0.00000000000E+00  0.00000000000E+00  0.14883370769E+04  0.14883376187E+04  0.12700000000E+01 0. -1.
          4   -1    0    0  501    0  0.00000000000E+00 -0.00000000000E+00 -0.54420785869E+03  0.54420934056E+03  0.12700000000E+01 0.  1.
     200001    2    1    2    0    0 -0.72929126187E+02  0.21356283126E+03  0.10578337903E+04  0.12883316208E+04  0.69989877620E+03 0.  0.
    5000001    2    3    3    0    0  0.39646093474E+02  0.13255213244E+03  0.39225211198E+03  0.44439152582E+03  0.15646158739E+03 0.  0.
        -11    1    4    4    0    0  0.49144410846E+02 -0.87298666541E+01  0.18488601393E+03  0.19150514832E+03  0.51100000000E-03 0. -1.
     200002    1    4    4    0    0 -0.94983173723E+01  0.14128199910E+03  0.20736609806E+03  0.25288637750E+03  0.30000000000E+02 0. -1.
     200000    1    3    3    0    0 -0.11257521966E+03  0.81010698818E+02  0.66558167828E+03  0.84394009495E+03  0.50000000000E+03 0. -1.
    -200001    1    1    2    0    0  0.72929126187E+02 -0.21356283126E+03 -0.11370457209E+03  0.74421533850E+03  0.70000000000E+03 0.  1.
<mgrwt>
<rscale>  0 0.17999631E+04</rscale>
<asrwt>0</asrwt>
<pdfrwt beam="1">  1        4 0.77744123E-01 0.17999631E+04</pdfrwt>
<pdfrwt beam="2">  1       -4 0.21261973E+00 0.17999631E+04</pdfrwt>
<totfact> 0.30645945E-01</totfact>
</mgrwt>
</event>
<event>
 8    1  0.5361529E-011  0.1762471E+04  0.7818608E-02  0.8726516E-01
         -4   -1    0    0    0  501 -0.00000000000E+00  0.00000000000E+00  0.77560932926E+03  0.77561036902E+03  0.12700000000E+01 0. -1.
          4   -1    0    0  501    0  0.00000000000E+00 -0.00000000000E+00 -0.10012439620E+04  0.10012447674E+04  0.12700000000E+01 0.  1.
     200001    2    1    2    0    0 -0.52283823016E+03  0.52665371998E+02 -0.21468100965E+03  0.90149610258E+03  0.70033836874E+03 0.  0.
    5000001    2    3    3    0    0 -0.10454474603E+03 -0.22136177404E+02 -0.14994103502E+03  0.24213582551E+03  0.15725084972E+03 0.  0.
        -11    1    4    4    0    0 -0.75717768645E+02 -0.46706926672E+02 -0.47228638462E+01  0.89089970990E+02  0.51100000000E-03 0. -1.
     200002    1    4    4    0    0 -0.28826977380E+02  0.24570749268E+02 -0.14521817118E+03  0.15304585452E+03  0.30000000000E+02 0. -1.
     200000    1    3    3    0    0 -0.41829348414E+03  0.74801549402E+02 -0.64739974630E+02  0.65936027707E+03  0.50000000000E+03 0.  1.
    -200001    1    1    2    0    0  0.52283823016E+03 -0.52665371998E+02 -0.10953623071E+02  0.87535903387E+03  0.70000000000E+03 0. -1.
<mgrwt>
<rscale>  0 0.17624708E+04</rscale>
<asrwt>0</asrwt>
<pdfrwt beam="1">  1        4 0.14303498E+00 0.17624708E+04</pdfrwt>
<pdfrwt beam="2">  1       -4 0.11080147E+00 0.17624708E+04</pdfrwt>
<totfact> 0.41542272E-01</totfact>
</mgrwt>
</event>
<event>
 8    1  0.5361529E-011  0.1585589E+04  0.7818608E-02  0.8829451E-01
         -4   -1    0    0    0  501 -0.00000000000E+00  0.00000000000E+00  0.56766141244E+03  0.56766283309E+03  0.12700000000E+01 0. -1.
          4   -1    0    0  501    0  0.00000000000E+00 -0.00000000000E+00 -0.11072112561E+04  0.11072119845E+04  0.12700000000E+01 0.  1.
     200001    2    1    2    0    0 -0.15087302537E+03 -0.15448729217E+03  0.51812643523E+02  0.73341925063E+03  0.69899231322E+03 0.  0.
    5000001    2    3    3    0    0 -0.48592802919E+02 -0.26903642262E+02  0.86610504743E+02  0.20620987783E+03  0.17870665270E+03 0.  0.
        -11    1    4    4    0    0 -0.11296697964E+03 -0.13791122445E+02  0.63813373794E+02  0.13047559244E+03  0.51100000000E-03 0. -1.
     200002    1    4    4    0    0  0.64374176718E+02 -0.13112519816E+02  0.22797130948E+02  0.75734285390E+02  0.30000000000E+02 0. -1.
     200000    1    3    3    0    0 -0.10228022245E+03 -0.12758364990E+03 -0.34797861219E+02  0.52720937280E+03  0.50000000000E+03 0. -1.
    -200001    1    1    2    0    0  0.15087302537E+03  0.15448729217E+03 -0.59136248719E+03  0.94145556692E+03  0.70000000000E+03 0.  1.
<mgrwt>
<rscale>  0 0.15855887E+04</rscale>
<asrwt>0</asrwt>
<pdfrwt beam="1">  1        4 0.15817319E+00 0.15855887E+04</pdfrwt>
<pdfrwt beam="2">  1       -4 0.81094641E-01 0.15855887E+04</pdfrwt>
<totfact> 0.67109414E-01</totfact>
</mgrwt>
</event>
<event>
 8    1  0.5361529E-011  0.1628995E+04  0.7818608E-02  0.8802930E-01
         -4   -1    0    0    0  501 -0.00000000000E+00  0.00000000000E+00  0.10153931747E+04  0.10153939689E+04  0.12700000000E+01 0. -1.
          4   -1    0    0  501    0  0.00000000000E+00 -0.00000000000E+00 -0.65334772479E+03  0.65334895912E+03  0.12700000000E+01 0.  1.
     200001    2    1    2    0    0 -0.37730917536E+03 -0.13491695728E+03  0.29571644169E+03  0.85944425849E+03  0.70045086937E+03 0.  0.
    5000001    2    3    3    0    0 -0.17824847557E+03  0.66691948661E+02  0.12032810086E+03  0.25858455502E+03  0.12714867352E+03 0.  0.
        -11    1    4    4    0    0 -0.13468790524E+03  0.15350933406E+02  0.24613986765E+02  0.13777638157E+03  0.51100000000E-03 0. -1.
     200002    1    4    4    0    0 -0.43560570333E+02  0.51341015255E+02  0.95714114097E+02  0.12080817345E+03  0.30000000000E+02 0. -1.
     200000    1    3    3    0    0 -0.19906069979E+03 -0.20160890594E+03  0.17538834083E+03  0.60085970347E+03  0.50000000000E+03 0.  1.
    -200001    1    1    2    0    0  0.37730917536E+03  0.13491695728E+03  0.66329008188E+02  0.80929866953E+03  0.70000000000E+03 0.  1.
<mgrwt>
<rscale>  0 0.16289954E+04</rscale>
<asrwt>0</asrwt>
<pdfrwt beam="1">  1        4 0.93335534E-01 0.16289954E+04</pdfrwt>
<pdfrwt beam="2">  1       -4 0.14505631E+00 0.16289954E+04</pdfrwt>
<totfact> 0.60970959E-01</totfact>
</mgrwt>
</event>
<event>
 8    1  0.5361529E-011  0.1576666E+04  0.7818608E-02  0.8835012E-01
          4   -1    0    0  501    0  0.00000000000E+00  0.00000000000E+00  0.11518746213E+04  0.11518753214E+04  0.12700000000E+01 0.  1.
         -4   -1    0    0    0  501 -0.00000000000E+00 -0.00000000000E+00 -0.53952696001E+03  0.53952845474E+03  0.12700000000E+01 0. -1.
     200001    2    1    2    0    0 -0.22090919182E+03  0.27370134537E+03  0.21027603285E+03  0.81085003452E+03  0.69967740495E+03 0.  0.
    5000001    2    3    3    0    0 -0.10016595164E+03  0.88680629726E+02  0.12895223238E+03  0.25819719974E+03  0.17927532948E+03 0.  0.
        -11    1    4    4    0    0  0.45947986928E+02  0.51584972719E+02  0.50909623547E+02  0.85813849017E+02  0.51100000000E-03 0. -1.
     200002    1    4    4    0    0 -0.14611393857E+03  0.37095657007E+02  0.78042608829E+02  0.17238335072E+03  0.30000000000E+02 0. -1.
     200000    1    3    3    0    0 -0.12074324017E+03  0.18502071564E+03  0.81323800476E+02  0.55265283478E+03  0.50000000000E+03 0.  1.
    -200001    1    1    2    0    0  0.22090919182E+03 -0.27370134537E+03  0.40207162839E+03  0.88055374160E+03  0.70000000000E+03 0.  1.
<mgrwt>
<rscale>  0 0.15766664E+04</rscale>
<asrwt>0</asrwt>
<pdfrwt beam="1">  1        4 0.16455367E+00 0.15766664E+04</pdfrwt>
<pdfrwt beam="2">  1       -4 0.77075436E-01 0.15766664E+04</pdfrwt>
<totfact> 0.67587624E-01</totfact>
</mgrwt>
</event>
<event>
 8    1  0.5361529E-011  0.1731817E+04  0.7818608E-02  0.8743423E-01
         -4   -1    0    0    0  501 -0.00000000000E+00  0.00000000000E+00  0.10484567100E+04  0.10484574792E+04  0.12700000000E+01 0. -1.
          4   -1    0    0  501    0  0.00000000000E+00 -0.00000000000E+00 -0.71514255303E+03  0.71514368071E+03  0.12700000000E+01 0.  1.
     200001    2    1    2    0    0 -0.14239865826E+03 -0.38256094663E+03 -0.14460799546E+03  0.82283559954E+03  0.69965469752E+03 0.  0.
    5000001    2    3    3    0    0 -0.10447949367E+02 -0.56897501975E+02 -0.23304589005E+02  0.19979291627E+03  0.18980943113E+03 0.  0.
        -11    1    4    4    0    0 -0.63645749635E+02 -0.71680996704E+02 -0.72336139558E+02  0.12008939929E+03  0.51100000000E-03 0. -1.
     200002    1    4    4    0    0  0.53197800268E+02  0.14783494728E+02  0.49031550553E+02  0.79703516982E+02  0.30000000000E+02 0. -1.
     200000    1    3    3    0    0 -0.13195070889E+03 -0.32566344465E+03 -0.12130340646E+03  0.62304268327E+03  0.50000000000E+03 0.  1.
    -200001    1    1    2    0    0  0.14239865826E+03  0.38256094663E+03  0.47792215244E+03  0.94076556036E+03  0.70000000000E+03 0. -1.
<mgrwt>
<rscale>  0 0.17318172E+04</rscale>
<asrwt>0</asrwt>
<pdfrwt beam="1">  1        4 0.10216336E+00 0.17318172E+04</pdfrwt>
<pdfrwt beam="2">  1       -4 0.14977967E+00 0.17318172E+04</pdfrwt>
<totfact> 0.44861547E-01</totfact>
</mgrwt>
</event>
<event>
 8    1  0.5361529E-011  0.1634946E+04  0.7818608E-02  0.8799362E-01
          4   -1    0    0  501    0  0.00000000000E+00  0.00000000000E+00  0.10016860782E+04  0.10016868833E+04  0.12700000000E+01 0.  1.
         -4   -1    0    0    0  501 -0.00000000000E+00 -0.00000000000E+00 -0.66713559619E+03  0.66713680502E+03  0.12700000000E+01 0. -1.
     200001    2    1    2    0    0  0.35290204641E+03  0.10507355925E+03  0.37300428294E+03  0.87695311682E+03  0.70308908880E+03 0.  0.
    5000001    2    3    3    0    0  0.64500940751E+02  0.38689526850E+02  0.18715813220E+03  0.26693604390E+03  0.17484116861E+03 0.  0.
        -11    1    4    4    0    0 -0.38070670737E+02  0.63179319975E+02  0.41532640442E+02  0.84652009221E+02  0.51100000000E-03 0. -1.
     200002    1    4    4    0    0  0.10257161149E+03 -0.24489793125E+02  0.14562549175E+03  0.18228403468E+03  0.30000000000E+02 0. -1.
     200000    1    3    3    0    0  0.28840110566E+03  0.66384032399E+02  0.18584615075E+03  0.61001707292E+03  0.50000000000E+03 0. -1.
    -200001    1    1    2    0    0 -0.35290204641E+03 -0.10507355925E+03 -0.38453800924E+02  0.79187057151E+03  0.70000000000E+03 0. -1.
<mgrwt>
<rscale>  0 0.16349460E+04</rscale>
<asrwt>0</asrwt>
<pdfrwt beam="1">  1        4 0.14309816E+00 0.16349460E+04</pdfrwt>
<pdfrwt beam="2">  1       -4 0.95305229E-01 0.16349460E+04</pdfrwt>
<totfact> 0.60142140E-01</totfact>
</mgrwt>
</event>
<event>
 8    1  0.5361529E-011  0.1663826E+04  0.7818608E-02  0.8782269E-01
          4   -1    0    0  501    0  0.00000000000E+00  0.00000000000E+00  0.11291526393E+04  0.11291533535E+04  0.12700000000E+01 0.  1.
         -4   -1    0    0    0  501 -0.00000000000E+00 -0.00000000000E+00 -0.61291720386E+03  0.61291851961E+03  0.12700000000E+01 0. -1.
     200001    2    1    2    0    0 -0.24633240279E+03  0.16604657883E+02  0.65151149786E+03  0.98758199226E+03  0.69992541907E+03 0.  0.
    5000001    2    3    3    0    0 -0.46307739795E+02  0.81813612340E+02  0.78602610506E+02  0.19860375000E+03  0.15629205100E+03 0.  0.
        -11    1    4    4    0    0 -0.41038462318E+02 -0.28764944727E+02 -0.13048494271E+02  0.51786490879E+02  0.51100000000E-03 0. -1.
     200002    1    4    4    0    0 -0.52692774763E+01  0.11057855707E+03  0.91651104777E+02  0.14681725912E+03  0.30000000000E+02 0. -1.
     200000    1    3    3    0    0 -0.20002466300E+03 -0.65208954457E+02  0.57290888735E+03  0.78897824226E+03  0.50000000000E+03 0.  1.
    -200001    1    1    2    0    0  0.24633240279E+03 -0.16604657883E+02 -0.13527606238E+03  0.75448988090E+03  0.70000000000E+03 0. -1.
<mgrwt>
<rscale>  0 0.16638255E+04</rscale>
<asrwt>0</asrwt>
<pdfrwt beam="1">  1        4 0.16130766E+00 0.16638255E+04</pdfrwt>
<pdfrwt beam="2">  1       -4 0.87559747E-01 0.16638255E+04</pdfrwt>
<totfact> 0.53035411E-01</totfact>
</mgrwt>
</event>
<event>
 8    1  0.5361529E-011  0.1541150E+04  0.7818608E-02  0.8857540E-01
         -4   -1    0    0    0  501 -0.00000000000E+00  0.00000000000E+00  0.35195576506E+04  0.35195578797E+04  0.12700000000E+01 0.  1.
          4   -1    0    0  501    0  0.00000000000E+00 -0.00000000000E+00 -0.16870780491E+03  0.16871258500E+03  0.12700000000E+01 0. -1.
     200001    2    1    2    0    0 -0.29286575215E+03 -0.80372864928E+02  0.19294021728E+04  0.20749683749E+04  0.70047902637E+03 0.  0.
    5000001    2    3    3    0    0 -0.15800936859E+03  0.64624493984E+01  0.68767176578E+03  0.72677661568E+03  0.17407776377E+03 0.  0.
        -11    1    4    4    0    0 -0.10269971167E+02  0.19074084640E+02  0.40997143390E+03  0.41054338337E+03  0.51100000000E-03 0. -1.
     200002    1    4    4    0    0 -0.14773939742E+03 -0.12611635242E+02  0.27770033188E+03  0.31623323231E+03  0.30000000000E+02 0. -1.
     200000    1    3    3    0    0 -0.13485638356E+03 -0.86835314326E+02  0.12417304070E+04  0.13481917592E+04  0.50000000000E+03 0. -1.
    -200001    1    1    2    0    0  0.29286575215E+03  0.80372864928E+02  0.14214476729E+04  0.16133020898E+04  0.70000000000E+03 0. -1.
<mgrwt>
<rscale>  0 0.15411503E+04</rscale>
<asrwt>0</asrwt>
<pdfrwt beam="1">  1        4 0.24101476E-01 0.15411503E+04</pdfrwt>
<pdfrwt beam="2">  1       -4 0.50279425E+00 0.15411503E+04</pdfrwt>
<totfact> 0.37151047E-02</totfact>
</mgrwt>
</event>
<event>
 8    1  0.5361529E-011  0.1567183E+04  0.7818608E-02  0.8840966E-01
         -4   -1    0    0    0  501 -0.00000000000E+00  0.00000000000E+00  0.89388179798E+03  0.89388270017E+03  0.12700000000E+01 0. -1.
          4   -1    0    0  501    0  0.00000000000E+00 -0.00000000000E+00 -0.68690736238E+03  0.68690853641E+03  0.12700000000E+01 0.  1.
     200001    2    1    2    0    0  0.69184109821E+02  0.31872730455E+03 -0.31686748839E+02  0.77250125354E+03  0.69955743221E+03 0.  0.
    5000001    2    3    3    0    0  0.30417602617E+02  0.13029221897E+03 -0.21768122604E+02  0.23667571971E+03  0.19401095914E+03 0.  0.
        -11    1    4    4    0    0  0.96422186943E+02  0.12134127572E+03 -0.42555026879E+02  0.16072297173E+03  0.51100000000E-03 0. -1.
     200002    1    4    4    0    0 -0.66004584326E+02  0.89509432508E+01  0.20786904274E+02  0.75952747985E+02  0.30000000000E+02 0. -1.
     200000    1    3    3    0    0  0.38766507205E+02  0.18843508558E+03 -0.99186262344E+01  0.53582553383E+03  0.50000000000E+03 0. -1.
    -200001    1    1    2    0    0 -0.69184109821E+02 -0.31872730455E+03  0.23866118444E+03  0.80828998304E+03  0.70000000000E+03 0. -1.
<mgrwt>
<rscale>  0 0.15671830E+04</rscale>
<asrwt>0</asrwt>
<pdfrwt beam="1">  1        4 0.98129772E-01 0.15671830E+04</pdfrwt>
<pdfrwt beam="2">  1       -4 0.12769755E+00 0.15671830E+04</pdfrwt>
<totfact> 0.75650090E-01</totfact>
</mgrwt>
</event>
<event>
 8    1  0.5361529E-011  0.1450097E+04  0.7818608E-02  0.8918333E-01
         -4   -1    0    0    0  501 -0.00000000000E+00  0.00000000000E+00  0.19662513146E+03  0.19662923287E+03  0.12700000000E+01 0. -1.
          4   -1    0    0  501    0  0.00000000000E+00 -0.00000000000E+00 -0.26735592280E+04  0.26735595296E+04  0.12700000000E+01 0.  1.
     200001    2    1    2    0    0 -0.15241384669E+03  0.11252770915E+03 -0.12245225421E+04  0.14229751750E+04  0.69965021742E+03 0.  0.
    5000001    2    3    3    0    0 -0.87068889880E+02  0.69045030668E+02 -0.18392645656E+03  0.26582310211E+03  0.15647610791E+03 0.  0.
        -11    1    4    4    0    0 -0.54169790086E+02  0.97918685799E+02 -0.51550448422E+02  0.12320667157E+03  0.51100000000E-03 0. -1.
     200002    1    4    4    0    0 -0.32899099794E+02 -0.28873655131E+02 -0.13237600814E+03  0.14261643054E+03  0.30000000000E+02 0. -1.
     200000    1    3    3    0    0 -0.65344956814E+02  0.43482678484E+02 -0.10405960855E+04  0.11571520729E+04  0.50000000000E+03 0. -1.
    -200001    1    1    2    0    0  0.15241384669E+03 -0.11252770915E+03 -0.12524115545E+04  0.14472135875E+04  0.70000000000E+03 0.  1.
<mgrwt>
<rscale>  0 0.14500969E+04</rscale>
<asrwt>0</asrwt>
<pdfrwt beam="1">  1        4 0.38193733E+00 0.14500969E+04</pdfrwt>
<pdfrwt beam="2">  1       -4 0.28089621E-01 0.14500969E+04</pdfrwt>
<totfact> 0.21964248E-01</totfact>
</mgrwt>
</event>
<event>
 8    1  0.5361529E-011  0.1775611E+04  0.7818608E-02  0.8719378E-01
          4   -1    0    0  501    0  0.00000000000E+00  0.00000000000E+00  0.16228407011E+04  0.16228411980E+04  0.12700000000E+01 0.  1.
         -4   -1    0    0    0  501 -0.00000000000E+00 -0.00000000000E+00 -0.48568926881E+03  0.48569092923E+03  0.12700000000E+01 0. -1.
     200001    2    1    2    0    0 -0.44031805207E+03 -0.11024408798E+03  0.92914056234E+03  0.12487052447E+04  0.69994918219E+03 0.  0.
    5000001    2    3    3    0    0 -0.87754944704E+02 -0.25381532106E+02  0.29481511644E+03  0.36334025253E+03  0.19171602366E+03 0.  0.
        -11    1    4    4    0    0 -0.12163083970E+03 -0.32561329782E+02  0.29134871280E+03  0.31739309037E+03  0.51100000000E-03 0. -1.
     200002    1    4    4    0    0  0.33875894992E+02  0.71797976759E+01  0.34664036453E+01  0.45947162159E+02  0.30000000000E+02 0. -1.
     200000    1    3    3    0    0 -0.35256310736E+03 -0.84862555874E+02  0.63432544590E+03  0.88536499218E+03  0.50000000000E+03 0.  1.
    -200001    1    1    2    0    0  0.44031805207E+03  0.11024408798E+03  0.20801086990E+03  0.85982688252E+03  0.70000000000E+03 0. -1.
<mgrwt>
<rscale>  0 0.17756110E+04</rscale>
<asrwt>0</asrwt>
<pdfrwt beam="1">  1        4 0.23183454E+00 0.17756110E+04</pdfrwt>
<pdfrwt beam="2">  1       -4 0.69384336E-01 0.17756110E+04</pdfrwt>
<totfact> 0.29863536E-01</totfact>
</mgrwt>
</event>
<event>
 8    1  0.5361529E-011  0.1710631E+04  0.7818608E-02  0.8755325E-01
         -4   -1    0    0    0  501 -0.00000000000E+00  0.00000000000E+00  0.37106693833E+03  0.37106911165E+03  0.12700000000E+01 0. -1.
          4   -1    0    0  501    0  0.00000000000E+00 -0.00000000000E+00 -0.19715072469E+04  0.19715076560E+04  0.12700000000E+01 0.  1.
     200001    2    1    2    0    0  0.48835200026E+03 -0.47977314414E+02 -0.74581894976E+03  0.11337892901E+04  0.69888679317E+03 0.  0.
    5000001    2    3    3    0    0  0.14357087246E+03  0.68385011761E+02 -0.10966785326E+03  0.24660135363E+03  0.15328432510E+03 0.  0.
        -11    1    4    4    0    0  0.12367842598E+03 -0.19315625603E+02 -0.73332131751E+02  0.14507600764E+03  0.51100000000E-03 0. -1.
     200002    1    4    4    0    0  0.19892446480E+02  0.87700637364E+02 -0.36335721511E+02  0.10152534599E+03  0.30000000000E+02 0. -1.
     200000    1    3    3    0    0  0.34478112780E+03 -0.11636232617E+03 -0.63615109649E+03  0.88718793647E+03  0.50000000000E+03 0.  1.
    -200001    1    1    2    0    0 -0.48835200026E+03  0.47977314414E+02 -0.85462135886E+03  0.12087874775E+04  0.70000000000E+03 0.  1.
<mgrwt>
<rscale>  0 0.17106305E+04</rscale>
<asrwt>0</asrwt>
<pdfrwt beam="1">  1        4 0.28164407E+00 0.17106305E+04</pdfrwt>
<pdfrwt beam="2">  1       -4 0.53009748E-01 0.17106305E+04</pdfrwt>
<totfact> 0.26326649E-01</totfact>
</mgrwt>
</event>
<event>
 8    1  0.5361529E-011  0.2696181E+04  0.7818608E-02  0.8336245E-01
         -4   -1    0    0    0  501 -0.00000000000E+00  0.00000000000E+00  0.67506078737E+03  0.67506198200E+03  0.12700000000E+01 0. -1.
          4   -1    0    0  501    0  0.00000000000E+00 -0.00000000000E+00 -0.26921216921E+04  0.26921219917E+04  0.12700000000E+01 0.  1.
     200001    2    1    2    0    0  0.84388946754E+03 -0.52740729268E+03 -0.17339780239E+04  0.21180067232E+04  0.69926018478E+03 0.  0.
    5000001    2    3    3    0    0  0.25738958387E+03 -0.12772335628E+03 -0.55350951739E+03  0.65266196594E+03  0.19243752833E+03 0.  0.
        -11    1    4    4    0    0  0.15101773669E+03  0.19941163000E+02 -0.17787259998E+03  0.23418511610E+03  0.51100000000E-03 0. -1.
     200002    1    4    4    0    0  0.10637184718E+03 -0.14766451928E+03 -0.37563691741E+03  0.41847684984E+03  0.30000000000E+02 0. -1.
     200000    1    3    3    0    0  0.58649988367E+03 -0.39968393640E+03 -0.11804685065E+04  0.14653447572E+04  0.50000000000E+03 0.  1.
    -200001    1    1    2    0    0 -0.84388946754E+03  0.52740729268E+03 -0.28308288080E+03  0.12491772505E+04  0.70000000000E+03 0. -1.
<mgrwt>
<rscale>  0 0.26961812E+04</rscale>
<asrwt>0</asrwt>
<pdfrwt beam="1">  1        4 0.38458892E+00 0.26961812E+04</pdfrwt>
<pdfrwt beam="2">  1       -4 0.96437363E-01 0.26961812E+04</pdfrwt>
<totfact> 0.13831675E-02</totfact>
</mgrwt>
</event>
<event>
 8    1  0.5361529E-011  0.1743557E+04  0.7818608E-02  0.8736905E-01
         -4   -1    0    0    0  501 -0.00000000000E+00  0.00000000000E+00  0.12480727053E+04  0.12480733515E+04  0.12700000000E+01 0. -1.
          4   -1    0    0  501    0  0.00000000000E+00 -0.00000000000E+00 -0.60893554448E+03  0.60893686883E+03  0.12700000000E+01 0.  1.
     200001    2    1    2    0    0  0.48881063825E+03  0.17437439910E+03  0.34772430850E+03  0.93817197467E+03  0.69993727448E+03 0.  0.
    5000001    2    3    3    0    0  0.59091214415E+02  0.29801122305E+00  0.11865807440E+03  0.21884401634E+03  0.17412956221E+03 0.  0.
        -11    1    4    4    0    0  0.42152769200E+02 -0.65398207471E+02 -0.12828318384E+01  0.77816625148E+02  0.51100000000E-03 0. -1.
     200002    1    4    4    0    0  0.16938445214E+02  0.65696218694E+02  0.11994090624E+03  0.14102739119E+03  0.30000000000E+02 0. -1.
     200000    1    3    3    0    0  0.42971942383E+03  0.17407638788E+03  0.22906623410E+03  0.71932795834E+03  0.50000000000E+03 0.  1.
    -200001    1    1    2    0    0 -0.48881063825E+03 -0.17437439910E+03  0.29141285234E+03  0.91883824563E+03  0.70000000000E+03 0. -1.
<mgrwt>
<rscale>  0 0.17435569E+04</rscale>
<asrwt>0</asrwt>
<pdfrwt beam="1">  1        4 0.86990934E-01 0.17435569E+04</pdfrwt>
<pdfrwt beam="2">  1       -4 0.17829624E+00 0.17435569E+04</pdfrwt>
<totfact> 0.40417193E-01</totfact>
</mgrwt>
</event>
<event>
 8    1  0.5361529E-011  0.1576019E+04  0.7818608E-02  0.8835417E-01
         -4   -1    0    0    0  501 -0.00000000000E+00  0.00000000000E+00  0.14651807986E+04  0.14651813490E+04  0.12700000000E+01 0. -1.
          4   -1    0    0  501    0  0.00000000000E+00 -0.00000000000E+00 -0.42380911670E+03  0.42381101955E+03  0.12700000000E+01 0.  1.
     200001    2    1    2    0    0  0.51887352245E+02 -0.18881223219E+03  0.88619185185E+03  0.11457406373E+04  0.69931627560E+03 0.  0.
    5000001    2    3    3    0    0  0.22598254687E+02 -0.18074411887E+03  0.18520888575E+03  0.28417226250E+03  0.11520601456E+03 0.  0.
        -11    1    4    4    0    0  0.61979916908E+02 -0.13134588674E+03  0.11727041787E+03  0.18666976984E+03  0.51100000000E-03 0. -1.
     200002    1    4    4    0    0 -0.39381662221E+02 -0.49398232132E+02  0.67938467874E+02  0.97502492656E+02  0.30000000000E+02 0. -1.
     200000    1    3    3    0    0  0.29289097558E+02 -0.80681133131E+01  0.70098296610E+03  0.86156837480E+03  0.50000000000E+03 0. -1.
    -200001    1    1    2    0    0 -0.51887352245E+02  0.18881223219E+03  0.15517983003E+03  0.74325173124E+03  0.70000000000E+03 0.  1.
<mgrwt>
<rscale>  0 0.15760194E+04</rscale>
<asrwt>0</asrwt>
<pdfrwt beam="1">  1        4 0.60544334E-01 0.15760194E+04</pdfrwt>
<pdfrwt beam="2">  1       -4 0.20931172E+00 0.15760194E+04</pdfrwt>
<totfact> 0.56839793E-01</totfact>
</mgrwt>
</event>
<event>
 8    1  0.5361529E-011  0.1689721E+04  0.7818608E-02  0.8767249E-01
          4   -1    0    0  501    0  0.00000000000E+00  0.00000000000E+00  0.10341657254E+04  0.10341665052E+04  0.12700000000E+01 0. -1.
         -4   -1    0    0    0  501 -0.00000000000E+00 -0.00000000000E+00 -0.69020581299E+03  0.69020698141E+03  0.12700000000E+01 0.  1.
     200001    2    1    2    0    0  0.46445897480E+03 -0.80788525532E+02  0.13179076927E+03  0.85416393117E+03  0.69998449220E+03 0.  0.
    5000001    2    3    3    0    0  0.99304803675E+02 -0.87108740634E+02  0.18016396204E+02  0.22462273175E+03  0.18077998882E+03 0.  0.
        -11    1    4    4    0    0 -0.70640806162E+01 -0.10723086495E+03 -0.12574844266E+02  0.10819651723E+03  0.51100000000E-03 0. -1.
     200002    1    4    4    0    0  0.10636888429E+03  0.20122124318E+02  0.30591240471E+02  0.11642621451E+03  0.30000000000E+02 0. -1.
     200000    1    3    3    0    0  0.36515417112E+03  0.63202151015E+01  0.11377437307E+03  0.62954119943E+03  0.50000000000E+03 0.  1.
    -200001    1    1    2    0    0 -0.46445897480E+03  0.80788525532E+02  0.21216914318E+03  0.87020955548E+03  0.70000000000E+03 0.  1.
<mgrwt>
<rscale>  0 0.16897205E+04</rscale>
<asrwt>0</asrwt>
<pdfrwt beam="1">  1        4 0.14773810E+00 0.16897205E+04</pdfrwt>
<pdfrwt beam="2">  1       -4 0.98600971E-01 0.16897205E+04</pdfrwt>
<totfact> 0.50806610E-01</totfact>
</mgrwt>
</event>
<event>
 8    1  0.5361529E-011  0.1871335E+04  0.7818608E-02  0.8669258E-01
          4   -1    0    0  501    0  0.00000000000E+00  0.00000000000E+00  0.24568794321E+04  0.24568797604E+04  0.12700000000E+01 0.  1.
         -4   -1    0    0    0  501 -0.00000000000E+00 -0.00000000000E+00 -0.35633407437E+03  0.35633633755E+03  0.12700000000E+01 0. -1.
     200001    2    1    2    0    0  0.47570465739E+03 -0.31921832233E+03  0.68969116855E+03  0.11372970063E+04  0.69969658728E+03 0.  0.
    5000001    2    3    3    0    0  0.12867926034E+03 -0.20305132898E+03  0.33293144076E+03  0.42231525837E+03  0.98583157604E+02 0.  0.
        -11    1    4    4    0    0  0.76450513992E+02 -0.13177468962E+03  0.26917667831E+03  0.30929813136E+03  0.51100000000E-03 0. -1.
     200002    1    4    4    0    0  0.52228746345E+02 -0.71276639355E+02  0.63754762448E+02  0.11301712701E+03  0.30000000000E+02 0. -1.
     200000    1    3    3    0    0  0.34702539706E+03 -0.11616699335E+03  0.35675972779E+03  0.71498174796E+03  0.50000000000E+03 0. -1.
    -200001    1    1    2    0    0 -0.47570465739E+03  0.31921832233E+03  0.14108541892E+04  0.16759190916E+04  0.70000000000E+03 0.  1.
<mgrwt>
<rscale>  0 0.18713348E+04</rscale>
<asrwt>0</asrwt>
<pdfrwt beam="1">  1        4 0.35098297E+00 0.18713348E+04</pdfrwt>
<pdfrwt beam="2">  1       -4 0.50905052E-01 0.18713348E+04</pdfrwt>
<totfact> 0.10315100E-01</totfact>
</mgrwt>
</event>
<event>
 8    1  0.5361529E-011  0.1874843E+04  0.7818608E-02  0.8667481E-01
         -4   -1    0    0    0  501 -0.00000000000E+00  0.00000000000E+00  0.81610598442E+03  0.81610697259E+03  0.12700000000E+01 0. -1.
          4   -1    0    0  501    0  0.00000000000E+00 -0.00000000000E+00 -0.10767688141E+04  0.10767695630E+04  0.12700000000E+01 0.  1.
     200001    2    1    2    0    0 -0.34934577030E+02 -0.57680327368E+03 -0.36628672010E+03  0.97905004912E+03  0.70032178044E+03 0.  0.
    5000001    2    3    3    0    0  0.49384357094E+02 -0.21639746057E+03 -0.13122936288E+03  0.31402824951E+03  0.17923705013E+03 0.  0.
        -11    1    4    4    0    0 -0.36153995327E+02 -0.18195011460E+03 -0.64858777721E+02  0.19651874371E+03  0.51100000000E-03 0. -1.
     200002    1    4    4    0    0  0.85538352422E+02 -0.34447345974E+02 -0.66370585154E+02  0.11750950580E+03  0.30000000000E+02 0. -1.
     200000    1    3    3    0    0 -0.84318934124E+02 -0.36040581311E+03 -0.23505735723E+03  0.66502179961E+03  0.50000000000E+03 0. -1.
    -200001    1    1    2    0    0  0.34934577030E+02  0.57680327368E+03  0.10562389045E+03  0.91382648650E+03  0.70000000000E+03 0. -1.
<mgrwt>
<rscale>  0 0.18748431E+04</rscale>
<asrwt>0</asrwt>
<pdfrwt beam="1">  1        4 0.15382424E+00 0.18748431E+04</pdfrwt>
<pdfrwt beam="2">  1       -4 0.11658669E+00 0.18748431E+04</pdfrwt>
<totfact> 0.29968621E-01</totfact>
</mgrwt>
</event>
<event>
 8    1  0.5361529E-011  0.1762488E+04  0.7818608E-02  0.8726506E-01
         -4   -1    0    0    0  501 -0.00000000000E+00  0.00000000000E+00  0.77824208394E+03  0.77824312019E+03  0.12700000000E+01 0. -1.
          4   -1    0    0  501    0  0.00000000000E+00 -0.00000000000E+00 -0.99787680330E+03  0.99787761146E+03  0.12700000000E+01 0.  1.
     200001    2    1    2    0    0  0.29594959933E+03  0.33413175354E+03 -0.40760942433E+03  0.92490707822E+03  0.70005533101E+03 0.  0.
    5000001    2    3    3    0    0  0.28434507581E+02  0.48949801150E+02 -0.60116668047E+02  0.20127437722E+03  0.18355586860E+03 0.  0.
        -11    1    4    4    0    0  0.79599703016E+02  0.46706238970E+02  0.26729237629E+02  0.96083492981E+02  0.51100000000E-03 0. -1.
     200002    1    4    4    0    0 -0.51165195434E+02  0.22435621799E+01 -0.86845905677E+02  0.10519088424E+03  0.30000000000E+02 0. -1.
     200000    1    3    3    0    0  0.26751509175E+03  0.28518195239E+03 -0.34749275628E+03  0.72363270100E+03  0.50000000000E+03 0.  1.
    -200001    1    1    2    0    0 -0.29594959933E+03 -0.33413175354E+03  0.18797470497E+03  0.85121365343E+03  0.70000000000E+03 0. -1.
<mgrwt>
<rscale>  0 0.17624884E+04</rscale>
<asrwt>0</asrwt>
<pdfrwt beam="1">  1        4 0.14255396E+00 0.17624884E+04</pdfrwt>
<pdfrwt beam="2">  1       -4 0.11117757E+00 0.17624884E+04</pdfrwt>
<totfact> 0.41566666E-01</totfact>
</mgrwt>
</event>
<event>
 8    1  0.5361529E-011  0.1554582E+04  0.7818608E-02  0.8848946E-01
          4   -1    0    0  501    0  0.00000000000E+00  0.00000000000E+00  0.16904254642E+04  0.16904259413E+04  0.12700000000E+01 0.  1.
         -4   -1    0    0    0  501 -0.00000000000E+00 -0.00000000000E+00 -0.35741213966E+03  0.35741439601E+03  0.12700000000E+01 0. -1.
     200001    2    1    2    0    0 -0.22190605938E+02  0.20129846998E+03  0.10193175581E+04  0.12544813197E+04  0.70263902542E+03 0.  0.
    5000001    2    3    3    0    0  0.21694795646E+02  0.96389110892E+02  0.18897304001E+03  0.27856947893E+03  0.17924458118E+03 0.  0.
        -11    1    4    4    0    0 -0.13515319797E+02  0.28913276786E+02 -0.30621968185E+02  0.44230604558E+02  0.51100000000E-03 0. -1.
     200002    1    4    4    0    0  0.35210115443E+02  0.67475834105E+02  0.21959500820E+03  0.23433887437E+03  0.30000000000E+02 0. -1.
     200000    1    3    3    0    0 -0.43885401584E+02  0.10490935908E+03  0.83034451812E+03  0.97591184072E+03  0.50000000000E+03 0.  1.
    -200001    1    1    2    0    0  0.22190605938E+02 -0.20129846998E+03  0.31369576643E+03  0.79335901765E+03  0.70000000000E+03 0. -1.
<mgrwt>
<rscale>  0 0.15545821E+04</rscale>
<asrwt>0</asrwt>
<pdfrwt beam="1">  1        4 0.24148955E+00 0.15545821E+04</pdfrwt>
<pdfrwt beam="2">  1       -4 0.51059072E-01 0.15545821E+04</pdfrwt>
<totfact> 0.51100297E-01</totfact>
</mgrwt>
</event>
<event>
 8    1  0.5361529E-011  0.1743308E+04  0.7818608E-02  0.8737042E-01
         -4   -1    0    0    0  501 -0.00000000000E+00  0.00000000000E+00  0.34934518257E+03  0.34934749103E+03  0.12700000000E+01 0. -1.
          4   -1    0    0  501    0  0.00000000000E+00 -0.00000000000E+00 -0.21748615853E+04  0.21748619561E+04  0.12700000000E+01 0.  1.
     200001    2    1    2    0    0  0.44020842188E+03  0.14758306609E+03 -0.12497566726E+04  0.15058463081E+04  0.70008367128E+03 0.  0.
    5000001    2    3    3    0    0 -0.35673830846E+01  0.64304055727E+01 -0.22869381796E+03  0.27725752751E+03  0.15657840799E+03 0.  0.
        -11    1    4    4    0    0 -0.29946702749E+02  0.29785979920E+02  0.16909509706E+01  0.42271372355E+02  0.51100000000E-03 0. -1.
     200002    1    4    4    0    0  0.26379319665E+02 -0.23355574347E+02 -0.23038476893E+03  0.23498615516E+03  0.30000000000E+02 0. -1.
     200000    1    3    3    0    0  0.44377580496E+03  0.14115266051E+03 -0.10210628547E+04  0.12285887806E+04  0.50000000000E+03 0. -1.
    -200001    1    1    2    0    0 -0.44020842188E+03 -0.14758306609E+03 -0.57575973007E+03  0.10183631390E+04  0.70000000000E+03 0.  1.
<mgrwt>
<rscale>  0 0.17433081E+04</rscale>
<asrwt>0</asrwt>
<pdfrwt beam="1">  1        4 0.31069469E+00 0.17433081E+04</pdfrwt>
<pdfrwt beam="2">  1       -4 0.49906647E-01 0.17433081E+04</pdfrwt>
<totfact> 0.19657661E-01</totfact>
</mgrwt>
</event>
<event>
 8    1  0.5361529E-011  0.1540931E+04  0.7818608E-02  0.8857681E-01
          4   -1    0    0  501    0  0.00000000000E+00  0.00000000000E+00  0.15413547826E+04  0.15413553058E+04  0.12700000000E+01 0.  1.
         -4   -1    0    0    0  501 -0.00000000000E+00 -0.00000000000E+00 -0.38512542140E+03  0.38512751538E+03  0.12700000000E+01 0. -1.
     200001    2    1    2    0    0  0.27638115390E+03  0.15902728000E+02  0.38280136489E+03  0.84720977675E+03  0.70326956557E+03 0.  0.
    5000001    2    3    3    0    0  0.29439834209E+02 -0.31804736419E+02  0.39456298519E+02  0.19059584746E+03  0.18136077988E+03 0.  0.
        -11    1    4    4    0    0 -0.42315229655E+02 -0.68538077298E+02  0.62036508206E+02  0.10166894831E+03  0.51100000000E-03 0. -1.
     200002    1    4    4    0    0  0.71755063864E+02  0.36733340879E+02 -0.22580209688E+02  0.88926899146E+02  0.30000000000E+02 0. -1.
     200000    1    3    3    0    0  0.24694131969E+03  0.47707464419E+02  0.34334506637E+03  0.65661392929E+03  0.50000000000E+03 0. -1.
    -200001    1    1    2    0    0 -0.27638115390E+03 -0.15902728000E+02  0.77342799633E+03  0.10792730445E+04  0.70000000000E+03 0.  1.
<mgrwt>
<rscale>  0 0.15409314E+04</rscale>
<asrwt>0</asrwt>
<pdfrwt beam="1">  1        4 0.22019373E+00 0.15409314E+04</pdfrwt>
<pdfrwt beam="2">  1       -4 0.55018103E-01 0.15409314E+04</pdfrwt>
<totfact> 0.59515166E-01</totfact>
</mgrwt>
</event>
<event>
 8    1  0.5361529E-011  0.1721895E+04  0.7818608E-02  0.8748974E-01
          4   -1    0    0  501    0  0.00000000000E+00  0.00000000000E+00  0.19089981685E+04  0.19089985910E+04  0.12700000000E+01 0.  1.
         -4   -1    0    0    0  501 -0.00000000000E+00 -0.00000000000E+00 -0.38828108888E+03  0.38828316584E+03  0.12700000000E+01 0. -1.
     200001    2    1    2    0    0  0.30615843845E+03 -0.11335666901E+02  0.12895806944E+04  0.14989801125E+04  0.70004394385E+03 0.  0.
    5000001    2    3    3    0    0  0.11478052370E+03  0.10408816590E+02  0.23000232601E+03  0.31162816478E+03  0.17586395604E+03 0.  0.
        -11    1    4    4    0    0  0.74330499828E+02  0.36271745903E+02  0.24025585526E+03  0.25409356297E+03  0.51100000000E-03 0. -1.
     200002    1    4    4    0    0  0.40450023872E+02 -0.25862929313E+02 -0.10253529252E+02  0.57534601815E+02  0.30000000000E+02 0. -1.
     200000    1    3    3    0    0  0.19137791475E+03 -0.21744483491E+02  0.10595783684E+04  0.11873519477E+04  0.50000000000E+03 0.  1.
    -200001    1    1    2    0    0 -0.30615843845E+03  0.11335666901E+02  0.23113638519E+03  0.79830164433E+03  0.70000000000E+03 0. -1.
<mgrwt>
<rscale>  0 0.17218952E+04</rscale>
<asrwt>0</asrwt>
<pdfrwt beam="1">  1        4 0.27271421E+00 0.17218952E+04</pdfrwt>
<pdfrwt beam="2">  1       -4 0.55468905E-01 0.17218952E+04</pdfrwt>
<totfact> 0.27133049E-01</totfact>
</mgrwt>
</event>
<event>
 8    1  0.5361529E-011  0.1709970E+04  0.7818608E-02  0.8755698E-01
          4   -1    0    0  501    0  0.00000000000E+00  0.00000000000E+00  0.63831774919E+03  0.63831901259E+03  0.12700000000E+01 0.  1.
         -4   -1    0    0    0  501 -0.00000000000E+00 -0.00000000000E+00 -0.11451938867E+04  0.11451945909E+04  0.12700000000E+01 0. -1.
     200001    2    1    2    0    0  0.27166361934E+03 -0.22983730735E+03 -0.60588128555E+03  0.99204134926E+03  0.70030535949E+03 0.  0.
    5000001    2    3    3    0    0  0.15527779682E+03 -0.85943214282E+02 -0.50758556424E+02  0.22235802860E+03  0.12397270492E+03 0.  0.
        -11    1    4    4    0    0 -0.10676043036E+02 -0.25705132232E+02 -0.31827001850E+02  0.42281080462E+02  0.51100000000E-03 0. -1.
     200002    1    4    4    0    0  0.16595383986E+03 -0.60238082050E+02 -0.18931554573E+02  0.18007694814E+03  0.30000000000E+02 0. -1.
     200000    1    3    3    0    0  0.11638582252E+03 -0.14389409307E+03 -0.55512272913E+03  0.76968332066E+03  0.50000000000E+03 0. -1.
    -200001    1    1    2    0    0 -0.27166361934E+03  0.22983730735E+03  0.99005148020E+02  0.79147225426E+03  0.70000000000E+03 0.  1.
<mgrwt>
<rscale>  0 0.17099700E+04</rscale>
<asrwt>0</asrwt>
<pdfrwt beam="1">  1        4 0.91188391E-01 0.17099700E+04</pdfrwt>
<pdfrwt beam="2">  1       -4 0.16359927E+00 0.17099700E+04</pdfrwt>
<totfact> 0.46264900E-01</totfact>
</mgrwt>
</event>
<event>
 8    1  0.5361529E-011  0.1464022E+04  0.7818608E-02  0.8908737E-01
          4   -1    0    0  501    0  0.00000000000E+00  0.00000000000E+00  0.12577300092E+04  0.12577306504E+04  0.12700000000E+01 0.  1.
         -4   -1    0    0    0  501 -0.00000000000E+00 -0.00000000000E+00 -0.42603579355E+03  0.42603768646E+03  0.12700000000E+01 0. -1.
     200001    2    1    2    0    0 -0.48340575955E+02  0.90024591994E+02  0.63226121310E+03  0.94877530224E+03  0.69998506705E+03 0.  0.
    5000001    2    3    3    0    0 -0.51970600990E+02  0.16414707807E+02  0.30575944260E+03  0.34708186013E+03  0.15494061731E+03 0.  0.
        -11    1    4    4    0    0 -0.34651778349E+01  0.42441895740E+02  0.27308793306E+03  0.27638802643E+03  0.51100000000E-03 0. -1.
     200002    1    4    4    0    0 -0.48505423155E+02 -0.26027187932E+02  0.32671509535E+02  0.70693833695E+02  0.30000000000E+02 0. -1.
     200000    1    3    3    0    0  0.36300250356E+01  0.73609884187E+02  0.32650177051E+03  0.60169344211E+03  0.50000000000E+03 0.  1.
    -200001    1    1    2    0    0  0.48340575955E+02 -0.90024591994E+02  0.19943300256E+03  0.73499303463E+03  0.70000000000E+03 0. -1.
<mgrwt>
<rscale>  0 0.14640220E+04</rscale>
<asrwt>0</asrwt>
<pdfrwt beam="1">  1        4 0.17967590E+00 0.14640220E+04</pdfrwt>
<pdfrwt beam="2">  1       -4 0.60862437E-01 0.14640220E+04</pdfrwt>
<totfact> 0.89466320E-01</totfact>
</mgrwt>
</event>
<event>
 8    1  0.5361529E-011  0.1733781E+04  0.7818608E-02  0.8742329E-01
          4   -1    0    0  501    0  0.00000000000E+00  0.00000000000E+00  0.87388491670E+03  0.87388583953E+03  0.12700000000E+01 0.  1.
         -4   -1    0    0    0  501 -0.00000000000E+00 -0.00000000000E+00 -0.85995071523E+03  0.85995165301E+03  0.12700000000E+01 0. -1.
     200001    2    1    2    0    0 -0.47852997284E+03 -0.53053850872E+02 -0.16633269651E+03  0.86533199428E+03  0.69951929809E+03 0.  0.
    5000001    2    3    3    0    0 -0.64195651514E+02  0.36549148964E+02 -0.59469067575E+02  0.20116223993E+03  0.17740562227E+03 0.  0.
        -11    1    4    4    0    0 -0.31289876298E+02  0.10276676443E+03 -0.11454857996E+02  0.10803368920E+03  0.51100000000E-03 0. -1.
     200002    1    4    4    0    0 -0.32905775216E+02 -0.66217615464E+02 -0.48014209579E+02  0.93128550734E+02  0.30000000000E+02 0. -1.
     200000    1    3    3    0    0 -0.41433432132E+03 -0.89602999837E+02 -0.10686362893E+03  0.66416975435E+03  0.50000000000E+03 0.  1.
    -200001    1    1    2    0    0  0.47852997284E+03  0.53053850872E+02  0.18026689798E+03  0.86850549826E+03  0.70000000000E+03 0.  1.
<mgrwt>
<rscale>  0 0.17337815E+04</rscale>
<asrwt>0</asrwt>
<pdfrwt beam="1">  1        4 0.12484084E+00 0.17337815E+04</pdfrwt>
<pdfrwt beam="2">  1       -4 0.12285024E+00 0.17337815E+04</pdfrwt>
<totfact> 0.45762454E-01</totfact>
</mgrwt>
</event>
<event>
 8    1  0.5361529E-011  0.2023619E+04  0.7818608E-02  0.8595657E-01
         -4   -1    0    0    0  501 -0.00000000000E+00  0.00000000000E+00  0.63363697423E+03  0.63363824696E+03  0.12700000000E+01 0. -1.
          4   -1    0    0  501    0  0.00000000000E+00 -0.00000000000E+00 -0.16156832050E+04  0.16156837041E+04  0.12700000000E+01 0.  1.
     200001    2    1    2    0    0 -0.29140472761E+03  0.66599191759E+03 -0.56959575816E+03  0.11591030089E+04  0.70044165201E+03 0.  0.
    5000001    2    3    3    0    0 -0.10376988983E+03  0.22975736883E+03 -0.13097062842E+03  0.34185187346E+03  0.19013878960E+03 0.  0.
        -11    1    4    4    0    0 -0.82109207831E+02  0.20695105355E+03 -0.17256517994E+03  0.28169025880E+03  0.51100000000E-03 0. -1.
     200002    1    4    4    0    0 -0.21660682002E+02  0.22806315286E+02  0.41594551525E+02  0.60161614658E+02  0.30000000000E+02 0. -1.
     200000    1    3    3    0    0 -0.18763483778E+03  0.43623454876E+03 -0.43862512974E+03  0.81725113541E+03  0.50000000000E+03 0. -1.
    -200001    1    1    2    0    0  0.29140472761E+03 -0.66599191759E+03 -0.41245047257E+03  0.10902189422E+04  0.70000000000E+03 0. -1.
<mgrwt>
<rscale>  0 0.20236191E+04</rscale>
<asrwt>0</asrwt>
<pdfrwt beam="1">  1        4 0.23081201E+00 0.20236191E+04</pdfrwt>
<pdfrwt beam="2">  1       -4 0.90519695E-01 0.20236191E+04</pdfrwt>
<totfact> 0.16257862E-01</totfact>
</mgrwt>
</event>
<event>
 8    1  0.5361529E-011  0.1599927E+04  0.7818608E-02  0.8820593E-01
         -4   -1    0    0    0  501 -0.00000000000E+00  0.00000000000E+00  0.55980334956E+03  0.55980479015E+03  0.12700000000E+01 0. -1.
          4   -1    0    0  501    0  0.00000000000E+00 -0.00000000000E+00 -0.11431510354E+04  0.11431517409E+04  0.12700000000E+01 0.  1.
     200001    2    1    2    0    0  0.21485191904E+03  0.64377041945E+02 -0.62314813043E+03  0.96682486749E+03  0.70436565881E+03 0.  0.
    5000001    2    3    3    0    0  0.30048072990E+02  0.79066327180E+02 -0.14933812217E+03  0.25347771460E+03  0.18653339187E+03 0.  0.
        -11    1    4    4    0    0 -0.56544096095E+02  0.18554459813E+02 -0.12862382780E+03  0.14172364608E+03  0.51100000000E-03 0. -1.
     200002    1    4    4    0    0  0.86592169085E+02  0.60511867367E+02 -0.20714294373E+02  0.11175406852E+03  0.30000000000E+02 0. -1.
     200000    1    3    3    0    0  0.18480384605E+03 -0.14689285235E+02 -0.47381000826E+03  0.71334715289E+03  0.50000000000E+03 0.  1.
    -200001    1    1    2    0    0 -0.21485191904E+03 -0.64377041945E+02  0.39800444582E+02  0.73613166352E+03  0.70000000000E+03 0.  1.
<mgrwt>
<rscale>  0 0.15999270E+04</rscale>
<asrwt>0</asrwt>
<pdfrwt beam="1">  1        4 0.16330744E+00 0.15999270E+04</pdfrwt>
<pdfrwt beam="2">  1       -4 0.79972060E-01 0.15999270E+04</pdfrwt>
<totfact> 0.63391113E-01</totfact>
</mgrwt>
</event>
<event>
 8    1  0.5361529E-011  0.1558404E+04  0.7818608E-02  0.8846518E-01
         -4   -1    0    0    0  501 -0.00000000000E+00  0.00000000000E+00  0.10868292192E+04  0.10868299612E+04  0.12700000000E+01 0. -1.
          4   -1    0    0  501    0  0.00000000000E+00 -0.00000000000E+00 -0.55864706337E+03  0.55864850694E+03  0.12700000000E+01 0.  1.
     200001    2    1    2    0    0 -0.18763606162E+03 -0.12939870827E+03  0.53348353469E+03  0.90928595127E+03  0.70017493675E+03 0.  0.
    5000001    2    3    3    0    0 -0.77339398843E+02  0.85037553857E+01  0.13992266960E+03  0.24892801966E+03  0.19061245771E+03 0.  0.
        -11    1    4    4    0    0 -0.13016003177E+03 -0.26014227519E+02  0.11205101402E+03  0.17370608408E+03  0.51100000000E-03 0. -1.
     200002    1    4    4    0    0  0.52820632931E+02  0.34517982905E+02  0.27871655589E+02  0.75221935580E+02  0.30000000000E+02 0. -1.
     200000    1    3    3    0    0 -0.11029666278E+03 -0.13790246366E+03  0.39356086509E+03  0.66035793160E+03  0.50000000000E+03 0. -1.
    -200001    1    1    2    0    0  0.18763606162E+03  0.12939870827E+03 -0.53013788592E+01  0.73619251690E+03  0.70000000000E+03 0.  1.
<mgrwt>
<rscale>  0 0.15584040E+04</rscale>
<asrwt>0</asrwt>
<pdfrwt beam="1">  1        4 0.79806880E-01 0.15584040E+04</pdfrwt>
<pdfrwt beam="2">  1       -4 0.15526147E+00 0.15584040E+04</pdfrwt>
<totfact> 0.73343768E-01</totfact>
</mgrwt>
</event>
<event>
 8    1  0.5361529E-011  0.1673066E+04  0.7818608E-02  0.8776877E-01
          4   -1    0    0  501    0  0.00000000000E+00  0.00000000000E+00  0.12674784091E+04  0.12674790453E+04  0.12700000000E+01 0.  1.
         -4   -1    0    0    0  501 -0.00000000000E+00 -0.00000000000E+00 -0.55210822653E+03  0.55210968720E+03  0.12700000000E+01 0. -1.
     200001    2    1    2    0    0  0.40216389871E+03  0.21202900293E+03  0.29837043749E+03  0.88653949112E+03  0.70016801686E+03 0.  0.
    5000001    2    3    3    0    0  0.40281972148E+02  0.31552353678E+02  0.11063124775E+03  0.21663177131E+03  0.17908618891E+03 0.  0.
        -11    1    4    4    0    0 -0.53952967150E+02 -0.17462091796E+02  0.86849058693E+02  0.10372370178E+03  0.51100000000E-03 0. -1.
     200002    1    4    4    0    0  0.94234939298E+02  0.49014445474E+02  0.23782189061E+02  0.11290806954E+03  0.30000000000E+02 0. -1.
     200000    1    3    3    0    0  0.36188192656E+03  0.18047664925E+03  0.18773918974E+03  0.66990771981E+03  0.50000000000E+03 0.  1.
    -200001    1    1    2    0    0 -0.40216389871E+03 -0.21202900293E+03  0.41699974504E+03  0.93304924140E+03  0.70000000000E+03 0. -1.
<mgrwt>
<rscale>  0 0.16730656E+04</rscale>
<asrwt>0</asrwt>
<pdfrwt beam="1">  1        4 0.18106849E+00 0.16730656E+04</pdfrwt>
<pdfrwt beam="2">  1       -4 0.78872755E-01 0.16730656E+04</pdfrwt>
<totfact> 0.48621492E-01</totfact>
</mgrwt>
</event>
<event>
 8    1  0.5361529E-011  0.1500565E+04  0.7818608E-02  0.8884077E-01
          4   -1    0    0  501    0  0.00000000000E+00  0.00000000000E+00  0.12356500174E+04  0.12356506700E+04  0.12700000000E+01 0.  1.
         -4   -1    0    0    0  501 -0.00000000000E+00 -0.00000000000E+00 -0.45556758543E+03  0.45556935564E+03  0.12700000000E+01 0. -1.
     200001    2    1    2    0    0 -0.48054956321E+02  0.16791943858E+01  0.68897594612E+03  0.98368028102E+03  0.70044767286E+03 0.  0.
    5000001    2    3    3    0    0  0.36472050901E+02  0.22394675169E+02  0.18355993118E+03  0.26742662885E+03  0.18971299773E+03 0.  0.
        -11    1    4    4    0    0  0.45224618397E+02 -0.46226257279E+02 -0.44879331936E+01  0.64824952880E+02  0.51100000000E-03 0. -1.
     200002    1    4    4    0    0 -0.87525674964E+01  0.68620932448E+02  0.18804786438E+03  0.20260167597E+03  0.30000000000E+02 0. -1.
     200000    1    3    3    0    0 -0.84527007222E+02 -0.20715480783E+02  0.50541601493E+03  0.71625365217E+03  0.50000000000E+03 0.  1.
    -200001    1    1    2    0    0  0.48054956321E+02 -0.16791943858E+01  0.91106485848E+02  0.70753974467E+03  0.70000000000E+03 0. -1.
<mgrwt>
<rscale>  0 0.15005654E+04</rscale>
<asrwt>0</asrwt>
<pdfrwt beam="1">  1        4 0.17652160E+00 0.15005654E+04</pdfrwt>
<pdfrwt beam="2">  1       -4 0.65081258E-01 0.15005654E+04</pdfrwt>
<totfact> 0.81186014E-01</totfact>
</mgrwt>
</event>
<event>
 8    1  0.5361529E-011  0.1533167E+04  0.7818608E-02  0.8862692E-01
         -4   -1    0    0    0  501 -0.00000000000E+00  0.00000000000E+00  0.91933393317E+03  0.91933481038E+03  0.12700000000E+01 0. -1.
          4   -1    0    0  501    0  0.00000000000E+00 -0.00000000000E+00 -0.63921106884E+03  0.63921233047E+03  0.12700000000E+01 0.  1.
     200001    2    1    2    0    0 -0.17981042611E+03 -0.22522173719E+03  0.18660183426E+02  0.75766053605E+03  0.70046032379E+03 0.  0.
    5000001    2    3    3    0    0  0.13980026813E+02 -0.10074455296E+03  0.10146432742E+02  0.20709555987E+03  0.18011306094E+03 0.  0.
        -11    1    4    4    0    0  0.88488055951E+02 -0.66668393711E+02  0.35321240059E+02  0.11628585798E+03  0.51100000000E-03 0. -1.
     200002    1    4    4    0    0 -0.74508029138E+02 -0.34076159248E+02 -0.25174807317E+02  0.90809701897E+02  0.30000000000E+02 0. -1.
     200000    1    3    3    0    0 -0.19379045293E+03 -0.12447718423E+03  0.85137506841E+01  0.55056497618E+03  0.50000000000E+03 0. -1.
    -200001    1    1    2    0    0  0.17981042611E+03  0.22522173719E+03  0.26146268091E+03  0.80088660480E+03  0.70000000000E+03 0.  1.
<mgrwt>
<rscale>  0 0.15331668E+04</rscale>
<asrwt>0</asrwt>
<pdfrwt beam="1">  1        4 0.91316020E-01 0.15331668E+04</pdfrwt>
<pdfrwt beam="2">  1       -4 0.13133357E+00 0.15331668E+04</pdfrwt>
<totfact> 0.83623999E-01</totfact>
</mgrwt>
</event>
<event>
 8    1  0.5361529E-011  0.1838950E+04  0.7818608E-02  0.8685856E-01
          4   -1    0    0  501    0  0.00000000000E+00  0.00000000000E+00  0.20837167487E+04  0.20837171357E+04  0.12700000000E+01 0.  1.
         -4   -1    0    0    0  501 -0.00000000000E+00 -0.00000000000E+00 -0.40573217887E+03  0.40573416650E+03  0.12700000000E+01 0. -1.
     200001    2    1    2    0    0 -0.28927747409E+02 -0.39337684756E+02  0.33576252282E+02  0.70158581991E+03  0.69907870085E+03 0.  0.
    5000001    2    3    3    0    0 -0.32347487027E+02  0.81424584405E+02  0.28887355807E+02  0.18717624961E+03  0.16286235363E+03 0.  0.
        -11    1    4    4    0    0  0.12802551987E+02  0.56115350318E+01 -0.58058493832E+02  0.59717529831E+02  0.51100000000E-03 0. -1.
     200002    1    4    4    0    0 -0.45150039013E+02  0.75813049373E+02  0.86945849639E+02  0.12745871978E+03  0.30000000000E+02 0. -1.
     200000    1    3    3    0    0  0.34197396179E+01 -0.12076226916E+03  0.46888964754E+01  0.51440957031E+03  0.50000000000E+03 0. -1.
    -200001    1    1    2    0    0  0.28927747409E+02  0.39337684756E+02  0.16444083176E+04  0.17878654823E+04  0.70000000000E+03 0.  1.
<mgrwt>
<rscale>  0 0.18389496E+04</rscale>
<asrwt>0</asrwt>
<pdfrwt beam="1">  1        4 0.29767399E+00 0.18389496E+04</pdfrwt>
<pdfrwt beam="2">  1       -4 0.57961910E-01 0.18389496E+04</pdfrwt>
<totfact> 0.17139773E-01</totfact>
</mgrwt>
</event>
<event>
 8    1  0.5361529E-011  0.1619433E+04  0.7818608E-02  0.8808697E-01
          4   -1    0    0  501    0  0.00000000000E+00  0.00000000000E+00  0.13219154281E+04  0.13219160382E+04  0.12700000000E+01 0.  1.
         -4   -1    0    0    0  501 -0.00000000000E+00 -0.00000000000E+00 -0.49597658633E+03  0.49597821231E+03  0.12700000000E+01 0. -1.
     200001    2    1    2    0    0 -0.20322369145E+03  0.15249055185E+03  0.77047293006E+03  0.10711481728E+04  0.69941163485E+03 0.  0.
    5000001    2    3    3    0    0 -0.22204075850E+02  0.83372591391E+02  0.25917086571E+03  0.33021956982E+03  0.18555704429E+03 0.  0.
        -11    1    4    4    0    0  0.68359031780E+02  0.53233184960E+02  0.54373793932E+02  0.10228997348E+03  0.51100000000E-03 0. -1.
     200002    1    4    4    0    0 -0.90563107631E+02  0.30139406431E+02  0.20479707177E+03  0.22792959635E+03  0.30000000000E+02 0. -1.
     200000    1    3    3    0    0 -0.18101961560E+03  0.69117960461E+02  0.51130206436E+03  0.74092860297E+03  0.50000000000E+03 0.  1.
    -200001    1    1    2    0    0  0.20322369145E+03 -0.15249055185E+03  0.55465911716E+02  0.74674607768E+03  0.70000000000E+03 0.  1.
<mgrwt>
<rscale>  0 0.16194334E+04</rscale>
<asrwt>0</asrwt>
<pdfrwt beam="1">  1        4 0.18884522E+00 0.16194334E+04</pdfrwt>
<pdfrwt beam="2">  1       -4 0.70853958E-01 0.16194334E+04</pdfrwt>
<totfact> 0.54901427E-01</totfact>
</mgrwt>
</event>
<event>
 8    1  0.5361529E-011  0.1583962E+04  0.7818608E-02  0.8830462E-01
          4   -1    0    0  501    0  0.00000000000E+00  0.00000000000E+00  0.67152375955E+03  0.67152496048E+03  0.12700000000E+01 0.  1.
         -4   -1    0    0    0  501 -0.00000000000E+00 -0.00000000000E+00 -0.93404300519E+03  0.93404386859E+03  0.12700000000E+01 0. -1.
     200001    2    1    2    0    0  0.73243355586E+02  0.35444804528E+03 -0.50819159537E+02  0.78959399343E+03  0.69991290997E+03 0.  0.
    5000001    2    3    3    0    0  0.32228352078E+02  0.72663032346E+02  0.10799439970E+03  0.19267961881E+03  0.13836206919E+03 0.  0.
        -11    1    4    4    0    0 -0.32947100074E+02 -0.13465416745E+02  0.62046299673E+02  0.71530218473E+02  0.51100000000E-03 0. -1.
     200002    1    4    4    0    0  0.65175452152E+02  0.86128449091E+02  0.45948100026E+02  0.12114940034E+03  0.30000000000E+02 0. -1.
     200000    1    3    3    0    0  0.41015003508E+02  0.28178501294E+03 -0.15881355924E+03  0.59691437462E+03  0.50000000000E+03 0. -1.
    -200001    1    1    2    0    0 -0.73243355586E+02 -0.35444804528E+03 -0.21170008610E+03  0.81597483564E+03  0.70000000000E+03 0.  1.
<mgrwt>
<rscale>  0 0.15839618E+04</rscale>
<asrwt>0</asrwt>
<pdfrwt beam="1">  1        4 0.95932113E-01 0.15839618E+04</pdfrwt>
<pdfrwt beam="2">  1       -4 0.13343486E+00 0.15839618E+04</pdfrwt>
<totfact> 0.71272353E-01</totfact>
</mgrwt>
</event>
<event>
 8    1  0.5361529E-011  0.1438397E+04  0.7818608E-02  0.8926484E-01
         -4   -1    0    0    0  501 -0.00000000000E+00  0.00000000000E+00  0.91095530328E+03  0.91095618856E+03  0.12700000000E+01 0. -1.
          4   -1    0    0  501    0  0.00000000000E+00 -0.00000000000E+00 -0.56780472637E+03  0.56780614666E+03  0.12700000000E+01 0.  1.
     200001    2    1    2    0    0 -0.46645665576E+02  0.12659213784E+03  0.25795579381E+03  0.76080722621E+03  0.70291184114E+03 0.  0.
    5000001    2    3    3    0    0  0.15600534731E+00  0.41682632141E+02  0.11574386232E+03  0.23201212977E+03  0.19671177020E+03 0.  0.
        -11    1    4    4    0    0 -0.84735650681E+01  0.10102398759E+03  0.37104343643E+01  0.10144661008E+03  0.51100000000E-03 0. -1.
     200002    1    4    4    0    0  0.86295704154E+01 -0.59341355450E+02  0.11203342796E+03  0.13056551969E+03  0.30000000000E+02 0. -1.
     200000    1    3    3    0    0 -0.46801670923E+02  0.84909505701E+02  0.14221193149E+03  0.52879509644E+03  0.50000000000E+03 0. -1.
    -200001    1    1    2    0    0  0.46645665576E+02 -0.12659213784E+03  0.85194783099E+02  0.71795510901E+03  0.70000000000E+03 0.  1.
<mgrwt>
<rscale>  0 0.14383969E+04</rscale>
<asrwt>0</asrwt>
<pdfrwt beam="1">  1        4 0.81115125E-01 0.14383969E+04</pdfrwt>
<pdfrwt beam="2">  1       -4 0.13013664E+00 0.14383969E+04</pdfrwt>
<totfact> 0.11317043E+00</totfact>
</mgrwt>
</event>
<event>
 8    1  0.5361529E-011  0.1468384E+04  0.7818608E-02  0.8905754E-01
          4   -1    0    0  501    0  0.00000000000E+00  0.00000000000E+00  0.54735753358E+03  0.54735900693E+03  0.12700000000E+01 0.  1.
         -4   -1    0    0    0  501 -0.00000000000E+00 -0.00000000000E+00 -0.98479728732E+03  0.98479810622E+03  0.12700000000E+01 0. -1.
     200001    2    1    2    0    0 -0.16263828606E+03 -0.82061798959E+02 -0.34619441407E+03  0.80310906059E+03  0.70139021944E+03 0.  0.
    5000001    2    3    3    0    0 -0.39171464066E+02 -0.20057918599E+02  0.22255558593E+02  0.16683559763E+03  0.15938030949E+03 0.  0.
        -11    1    4    4    0    0 -0.18648648173E+02  0.64414140746E+02  0.32106560454E+02  0.74349074179E+02  0.51100000000E-03 0. -1.
     200002    1    4    4    0    0 -0.20522815892E+02 -0.84472059346E+02 -0.98510018618E+01  0.92486523450E+02  0.30000000000E+02 0. -1.
     200000    1    3    3    0    0 -0.12346682199E+03 -0.62003880360E+02 -0.36844997266E+03  0.63627346296E+03  0.50000000000E+03 0. -1.
    -200001    1    1    2    0    0  0.16263828606E+03  0.82061798959E+02 -0.91245339675E+02  0.72904805257E+03  0.70000000000E+03 0. -1.
<mgrwt>
<rscale>  0 0.14683841E+04</rscale>
<asrwt>0</asrwt>
<pdfrwt beam="1">  1        4 0.78194098E-01 0.14683841E+04</pdfrwt>
<pdfrwt beam="2">  1       -4 0.14068549E+00 0.14683841E+04</pdfrwt>
<totfact> 0.10040916E+00</totfact>
</mgrwt>
</event>
<event>
 8    1  0.5361529E-011  0.1471518E+04  0.7818608E-02  0.8903617E-01
         -4   -1    0    0    0  501 -0.00000000000E+00  0.00000000000E+00  0.28110497877E+03  0.28110784761E+03  0.12700000000E+01 0. -1.
          4   -1    0    0  501    0  0.00000000000E+00 -0.00000000000E+00 -0.19257494564E+04  0.19257498752E+04  0.12700000000E+01 0.  1.
     200001    2    1    2    0    0 -0.78655983617E+02 -0.78323943121E+02 -0.11194703404E+04  0.13247413596E+04  0.69957445846E+03 0.  0.
    5000001    2    3    3    0    0  0.25649256623E+02 -0.12208445976E+03 -0.99331563231E+02  0.18304188483E+03  0.89861407007E+02 0.  0.
        -11    1    4    4    0    0 -0.19038231722E+02 -0.39281397708E+02 -0.97909814327E+00  0.43662811481E+02  0.51100000000E-03 0. -1.
     200002    1    4    4    0    0  0.44687488345E+02 -0.82803062051E+02 -0.98352465087E+02  0.13937907335E+03  0.30000000000E+02 0. -1.
     200000    1    3    3    0    0 -0.10430524024E+03  0.43760516638E+02 -0.10201387772E+04  0.11416994748E+04  0.50000000000E+03 0.  1.
    -200001    1    1    2    0    0  0.78655983617E+02  0.78323943121E+02 -0.52517413726E+03  0.88211636322E+03  0.70000000000E+03 0. -1.
<mgrwt>
<rscale>  0 0.14715181E+04</rscale>
<asrwt>0</asrwt>
<pdfrwt beam="1">  1        4 0.27510729E+00 0.14715181E+04</pdfrwt>
<pdfrwt beam="2">  1       -4 0.40158090E-01 0.14715181E+04</pdfrwt>
<totfact> 0.52189241E-01</totfact>
</mgrwt>
</event>
<event>
 8    1  0.5361529E-011  0.2026491E+04  0.7818608E-02  0.8594335E-01
         -4   -1    0    0    0  501 -0.00000000000E+00  0.00000000000E+00  0.27541583842E+04  0.27541586770E+04  0.12700000000E+01 0. -1.
          4   -1    0    0  501    0  0.00000000000E+00 -0.00000000000E+00 -0.37276799606E+03  0.37277015946E+03  0.12700000000E+01 0.  1.
     200001    2    1    2    0    0 -0.56857473505E+03  0.15490462550E+03  0.51767075824E+03  0.10507006382E+04  0.69908235915E+03 0.  0.
    5000001    2    3    3    0    0 -0.11769119269E+03  0.25001023820E+02  0.10321753058E+03  0.24948756268E+03  0.19264972692E+03 0.  0.
        -11    1    4    4    0    0  0.47698945379E+02 -0.84291554705E+01  0.50980140816E+02  0.70322221311E+02  0.51100000000E-03 0. -1.
     200002    1    4    4    0    0 -0.16539013807E+03  0.33430179290E+02  0.52237389760E+02  0.17916534137E+03  0.30000000000E+02 0. -1.
     200000    1    3    3    0    0 -0.45088354236E+03  0.12990360168E+03  0.41445322766E+03  0.80121307554E+03  0.50000000000E+03 0.  1.
    -200001    1    1    2    0    0  0.56857473505E+03 -0.15490462550E+03  0.18637196299E+04  0.20762281983E+04  0.70000000000E+03 0. -1.
<mgrwt>
<rscale>  0 0.20264905E+04</rscale>
<asrwt>0</asrwt>
<pdfrwt beam="1">  1        4 0.53252747E-01 0.20264905E+04</pdfrwt>
<pdfrwt beam="2">  1       -4 0.39345136E+00 0.20264905E+04</pdfrwt>
<totfact> 0.48010105E-02</totfact>
</mgrwt>
</event>
<event>
 8    1  0.5361529E-011  0.2322977E+04  0.7818608E-02  0.8468916E-01
         -4   -1    0    0    0  501 -0.00000000000E+00  0.00000000000E+00  0.22473448435E+04  0.22473452024E+04  0.12700000000E+01 0. -1.
          4   -1    0    0  501    0  0.00000000000E+00 -0.00000000000E+00 -0.60028764295E+03  0.60028898638E+03  0.12700000000E+01 0.  1.
     200001    2    1    2    0    0  0.56973610801E+02  0.82840377923E+03  0.31914944424E+03  0.11321640424E+04  0.70031438465E+03 0.  0.
    5000001    2    3    3    0    0 -0.18651924011E+02  0.33124631417E+03  0.51236629103E+02  0.37409937292E+03  0.16508523173E+03 0.  0.
        -11    1    4    4    0    0 -0.38051641542E+02  0.19093578146E+03  0.10309880005E+03  0.22030379624E+03  0.51100000000E-03 0. -1.
     200002    1    4    4    0    0  0.19399717532E+02  0.14031053272E+03 -0.51862170949E+02  0.15379557668E+03  0.30000000000E+02 0. -1.
     200000    1    3    3    0    0  0.75625534812E+02  0.49715746506E+03  0.26791281514E+03  0.75806466947E+03  0.50000000000E+03 0.  1.
    -200001    1    1    2    0    0 -0.56973610801E+02 -0.82840377923E+03  0.13279077564E+04  0.17154701464E+04  0.70000000000E+03 0. -1.
<mgrwt>
<rscale>  0 0.23229772E+04</rscale>
<asrwt>0</asrwt>
<pdfrwt beam="1">  1        4 0.85755502E-01 0.23229772E+04</pdfrwt>
<pdfrwt beam="2">  1       -4 0.32104938E+00 0.23229772E+04</pdfrwt>
<totfact> 0.49164315E-02</totfact>
</mgrwt>
</event>
<event>
 8    1  0.5361529E-011  0.1749103E+04  0.7818608E-02  0.8733844E-01
          4   -1    0    0  501    0  0.00000000000E+00  0.00000000000E+00  0.61116007759E+03  0.61116139713E+03  0.12700000000E+01 0. -1.
         -4   -1    0    0    0  501 -0.00000000000E+00 -0.00000000000E+00 -0.12514532806E+04  0.12514539250E+04  0.12700000000E+01 0.  1.
     200001    2    1    2    0    0  0.24109264060E+02 -0.52154584289E+03 -0.25364553330E+03  0.90758247279E+03  0.69769518094E+03 0.  0.
    5000001    2    3    3    0    0 -0.22816639072E+02 -0.27485365172E+03 -0.47279292105E+01  0.29519448206E+03  0.10512991982E+03 0.  0.
        -11    1    4    4    0    0 -0.37589332541E+02 -0.12164518683E+03  0.37619248399E+02  0.13276188176E+03  0.51100000000E-03 0. -1.
     200002    1    4    4    0    0  0.14772693469E+02 -0.15320846489E+03 -0.42347177609E+02  0.16243260029E+03  0.30000000000E+02 0. -1.
     200000    1    3    3    0    0  0.46925903132E+02 -0.24669219117E+03 -0.24891760409E+03  0.61238799074E+03  0.50000000000E+03 0. -1.
    -200001    1    1    2    0    0 -0.24109264060E+02  0.52154584289E+03 -0.38664766970E+03  0.95503284935E+03  0.70000000000E+03 0.  1.
<mgrwt>
<rscale>  0 0.17491028E+04</rscale>
<asrwt>0</asrwt>
<pdfrwt beam="1">  1        4 0.87308723E-01 0.17491028E+04</pdfrwt>
<pdfrwt beam="2">  1       -4 0.17877918E+00 0.17491028E+04</pdfrwt>
<totfact> 0.39751260E-01</totfact>
</mgrwt>
</event>
<event>
 8    1  0.5361529E-011  0.2157044E+04  0.7818608E-02  0.8536523E-01
         -4   -1    0    0    0  501 -0.00000000000E+00  0.00000000000E+00  0.95630255156E+03  0.95630339486E+03  0.12700000000E+01 0. -1.
          4   -1    0    0  501    0  0.00000000000E+00 -0.00000000000E+00 -0.12163603298E+04  0.12163609928E+04  0.12700000000E+01 0.  1.
     200001    2    1    2    0    0 -0.40277145770E+03 -0.16238922428E+03  0.57122330657E+03  0.10023553049E+04  0.69987497736E+03 0.  0.
    5000001    2    3    3    0    0 -0.15507384146E+03 -0.59906053657E+02  0.20912050234E+03  0.32932087026E+03  0.19257263439E+03 0.  0.
        -11    1    4    4    0    0  0.43676754171E+02 -0.39758835015E+01  0.52674977726E+02  0.68542831742E+02  0.51100000000E-03 0. -1.
     200002    1    4    4    0    0 -0.19875059563E+03 -0.55930170155E+02  0.15644552462E+03  0.26077803851E+03  0.30000000000E+02 0. -1.
     200000    1    3    3    0    0 -0.24769761623E+03 -0.10248317062E+03  0.36210280423E+03  0.67303443461E+03  0.50000000000E+03 0. -1.
    -200001    1    1    2    0    0  0.40277145770E+03  0.16238922428E+03 -0.83128108484E+03  0.11703090828E+04  0.70000000000E+03 0.  1.
<mgrwt>
<rscale>  0 0.21570444E+04</rscale>
<asrwt>0</asrwt>
<pdfrwt beam="1">  1        4 0.17376587E+00 0.21570444E+04</pdfrwt>
<pdfrwt beam="2">  1       -4 0.13661476E+00 0.21570444E+04</pdfrwt>
<totfact> 0.14015362E-01</totfact>
</mgrwt>
</event>
<event>
 8    1  0.5361529E-011  0.1693785E+04  0.7818608E-02  0.8764917E-01
          4   -1    0    0  501    0  0.00000000000E+00  0.00000000000E+00  0.10352625528E+04  0.10352633318E+04  0.12700000000E+01 0.  1.
         -4   -1    0    0    0  501 -0.00000000000E+00 -0.00000000000E+00 -0.69279589270E+03  0.69279705675E+03  0.12700000000E+01 0. -1.
     200001    2    1    2    0    0  0.86471858871E+02 -0.35580592773E+03 -0.13877859412E+03  0.80303485629E+03  0.70109217771E+03 0.  0.
    5000001    2    3    3    0    0  0.58749305879E+02 -0.66225675483E+02 -0.11377690070E+03  0.22402678458E+03  0.17148030803E+03 0.  0.
        -11    1    4    4    0    0 -0.24638456891E+02 -0.38632813651E+02 -0.12251187796E+03  0.13080026028E+03  0.51100000000E-03 0. -1.
     200002    1    4    4    0    0  0.83387762770E+02 -0.27592861832E+02  0.87349772620E+01  0.93226524293E+02  0.30000000000E+02 0. -1.
     200000    1    3    3    0    0  0.27722552992E+02 -0.28958025225E+03 -0.25001693424E+02  0.57900807171E+03  0.50000000000E+03 0.  1.
    -200001    1    1    2    0    0 -0.86471858871E+02  0.35580592773E+03  0.48124525423E+03  0.92502553224E+03  0.70000000000E+03 0.  1.
<mgrwt>
<rscale>  0 0.16937855E+04</rscale>
<asrwt>0</asrwt>
<pdfrwt beam="1">  1        4 0.14789479E+00 0.16937855E+04</pdfrwt>
<pdfrwt beam="2">  1       -4 0.98970981E-01 0.16937855E+04</pdfrwt>
<totfact> 0.50200207E-01</totfact>
</mgrwt>
</event>
<event>
 8    1  0.5361529E-011  0.1505098E+04  0.7818608E-02  0.8881070E-01
         -4   -1    0    0    0  501 -0.00000000000E+00  0.00000000000E+00  0.16092865949E+04  0.16092870960E+04  0.12700000000E+01 0. -1.
          4   -1    0    0  501    0  0.00000000000E+00 -0.00000000000E+00 -0.35191205165E+03  0.35191434326E+03  0.12700000000E+01 0.  1.
     200001    2    1    2    0    0  0.66860037526E+02  0.24331496093E+03  0.47994014725E+03  0.88506172951E+03  0.69951360621E+03 0.  0.
    5000001    2    3    3    0    0  0.26183719092E+02  0.32951681743E+02  0.16029771667E+03  0.25412706131E+03  0.19264943510E+03 0.  0.
        -11    1    4    4    0    0 -0.46027459942E+02 -0.55470012520E+02  0.94944309421E+02  0.11920516452E+03  0.51100000000E-03 0. -1.
     200002    1    4    4    0    0  0.72211179033E+02  0.88421694263E+02  0.65353407253E+02  0.13492189679E+03  0.30000000000E+02 0. -1.
     200000    1    3    3    0    0  0.40676318434E+02  0.21036327919E+03  0.31964243057E+03  0.63093466820E+03  0.50000000000E+03 0.  1.
    -200001    1    1    2    0    0 -0.66860037526E+02 -0.24331496093E+03  0.77743439596E+03  0.10761397097E+04  0.70000000000E+03 0.  1.
<mgrwt>
<rscale>  0 0.15050981E+04</rscale>
<asrwt>0</asrwt>
<pdfrwt beam="1">  1        4 0.50273351E-01 0.15050981E+04</pdfrwt>
<pdfrwt beam="2">  1       -4 0.22989828E+00 0.15050981E+04</pdfrwt>
<totfact> 0.62621234E-01</totfact>
</mgrwt>
</event>
<event>
 8    1  0.5361529E-011  0.2659941E+04  0.7818608E-02  0.8348121E-01
         -4   -1    0    0    0  501 -0.00000000000E+00  0.00000000000E+00  0.22174695156E+04  0.22174698793E+04  0.12700000000E+01 0.  1.
          4   -1    0    0  501    0  0.00000000000E+00 -0.00000000000E+00 -0.79767492097E+03  0.79767593197E+03  0.12700000000E+01 0. -1.
     200001    2    1    2    0    0 -0.69410907493E+03 -0.89181807786E+03  0.74912914287E+03  0.15262136301E+04  0.70071868827E+03 0.  0.
    5000001    2    3    3    0    0 -0.20102333015E+03 -0.17266558028E+03  0.18580889365E+03  0.37397946567E+03  0.18738173311E+03 0.  0.
        -11    1    4    4    0    0 -0.10358796838E+03 -0.15932150682E+03  0.19306868500E+03  0.27090464532E+03  0.51100000000E-03 0. -1.
     200002    1    4    4    0    0 -0.97435361770E+02 -0.13344073453E+02 -0.72597913453E+01  0.10307482035E+03  0.30000000000E+02 0. -1.
     200000    1    3    3    0    0 -0.49308574478E+03 -0.71915249759E+03  0.56332024922E+03  0.11522341644E+04  0.50000000000E+03 0. -1.
    -200001    1    1    2    0    0  0.69410907493E+03  0.89181807786E+03  0.67066545176E+03  0.14889321812E+04  0.70000000000E+03 0.  1.
<mgrwt>
<rscale>  0 0.26599413E+04</rscale>
<asrwt>0</asrwt>
<pdfrwt beam="1">  1        4 0.11395366E+00 0.26599413E+04</pdfrwt>
<pdfrwt beam="2">  1       -4 0.31678146E+00 0.26599413E+04</pdfrwt>
<totfact> 0.25820304E-02</totfact>
</mgrwt>
</event>
<event>
 8    1  0.5361529E-011  0.1453883E+04  0.7818608E-02  0.8915713E-01
         -4   -1    0    0    0  501 -0.00000000000E+00  0.00000000000E+00  0.10728785712E+04  0.10728793228E+04  0.12700000000E+01 0. -1.
          4   -1    0    0  501    0  0.00000000000E+00 -0.00000000000E+00 -0.49254596448E+03  0.49254760179E+03  0.12700000000E+01 0.  1.
     200001    2    1    2    0    0  0.18172768334E+03 -0.54027779657E+02  0.24536001852E+03  0.76658364419E+03  0.70107417082E+03 0.  0.
    5000001    2    3    3    0    0  0.50562527941E+01 -0.88489546725E+02  0.15692766323E+02  0.18766443179E+03  0.16466848658E+03 0.  0.
        -11    1    4    4    0    0 -0.59756045836E+02 -0.62692588269E+02  0.54558571554E+02  0.10236104419E+03  0.51100000000E-03 0. -1.
     200002    1    4    4    0    0  0.64812298630E+02 -0.25796958456E+02 -0.38865805231E+02  0.85303387597E+02  0.30000000000E+02 0. -1.
     200000    1    3    3    0    0  0.17667143054E+03  0.34461767068E+02  0.22966725219E+03  0.57891921240E+03  0.50000000000E+03 0. -1.
    -200001    1    1    2    0    0 -0.18172768334E+03  0.54027779657E+02  0.33497258817E+03  0.79884328043E+03  0.70000000000E+03 0. -1.
<mgrwt>
<rscale>  0 0.14538829E+04</rscale>
<asrwt>0</asrwt>
<pdfrwt beam="1">  1        4 0.70363879E-01 0.14538829E+04</pdfrwt>
<pdfrwt beam="2">  1       -4 0.15326854E+00 0.14538829E+04</pdfrwt>
<totfact> 0.10142185E+00</totfact>
</mgrwt>
</event>
<event>
 8    1  0.5361529E-011  0.1483401E+04  0.7818608E-02  0.8895566E-01
         -4   -1    0    0    0  501 -0.00000000000E+00  0.00000000000E+00  0.38887165732E+03  0.38887373114E+03  0.12700000000E+01 0. -1.
          4   -1    0    0  501    0  0.00000000000E+00 -0.00000000000E+00 -0.14146507852E+04  0.14146513553E+04  0.12700000000E+01 0.  1.
     200001    2    1    2    0    0 -0.18593721250E+03 -0.10560244648E+03 -0.65093708061E+03  0.98119237754E+03  0.70234953914E+03 0.  0.
    5000001    2    3    3    0    0 -0.94417276319E+01 -0.84841696444E+02 -0.19552289020E+03  0.28191864734E+03  0.18428690525E+03 0.  0.
        -11    1    4    4    0    0  0.75737053546E+02 -0.40294336547E+02 -0.14685644044E+03  0.17007806719E+03  0.51100000000E-03 0. -1.
     200002    1    4    4    0    0 -0.85178781178E+02 -0.44547359897E+02 -0.48666449758E+02  0.11184058015E+03  0.30000000000E+02 0. -1.
     200000    1    3    3    0    0 -0.17649548487E+03 -0.20760750039E+02 -0.45541419041E+03  0.69927373020E+03  0.50000000000E+03 0. -1.
    -200001    1    1    2    0    0  0.18593721250E+03  0.10560244648E+03 -0.37484204729E+03  0.82233270889E+03  0.70000000000E+03 0.  1.
<mgrwt>
<rscale>  0 0.14834015E+04</rscale>
<asrwt>0</asrwt>
<pdfrwt beam="1">  1        4 0.20209316E+00 0.14834015E+04</pdfrwt>
<pdfrwt beam="2">  1       -4 0.55553283E-01 0.14834015E+04</pdfrwt>
<totfact> 0.76659298E-01</totfact>
</mgrwt>
</event>
<event>
 8    1  0.5361529E-011  0.1466094E+04  0.7818608E-02  0.8907318E-01
         -4   -1    0    0    0  501 -0.00000000000E+00  0.00000000000E+00  0.17279369161E+04  0.17279373829E+04  0.12700000000E+01 0. -1.
          4   -1    0    0  501    0  0.00000000000E+00 -0.00000000000E+00 -0.31098050067E+03  0.31098309390E+03  0.12700000000E+01 0.  1.
     200001    2    1    2    0    0  0.15760036089E+03  0.13462370515E+03  0.61049837358E+03  0.95110799794E+03  0.69924011889E+03 0.  0.
    5000001    2    3    3    0    0  0.36956445861E+02  0.74110169810E+01  0.18639688626E+03  0.27243274879E+03  0.19507716766E+03 0.  0.
        -11    1    4    4    0    0  0.49500473139E+02  0.65156610787E+02  0.18916392922E+03  0.20610354895E+03  0.51100000000E-03 0. -1.
     200002    1    4    4    0    0 -0.12544027277E+02 -0.57745593806E+02 -0.27670429662E+01  0.66329199837E+02  0.30000000000E+02 0. -1.
     200000    1    3    3    0    0  0.12064391502E+03  0.12721268817E+03  0.42410148732E+03  0.67867524915E+03  0.50000000000E+03 0.  1.
    -200001    1    1    2    0    0 -0.15760036089E+03 -0.13462370515E+03  0.80645804190E+03  0.10878124788E+04  0.70000000000E+03 0. -1.
<mgrwt>
<rscale>  0 0.14660939E+04</rscale>
<asrwt>0</asrwt>
<pdfrwt beam="1">  1        4 0.44426003E-01 0.14660939E+04</pdfrwt>
<pdfrwt beam="2">  1       -4 0.24684836E+00 0.14660939E+04</pdfrwt>
<totfact> 0.63550801E-01</totfact>
</mgrwt>
</event>
<event>
 8    1  0.5361529E-011  0.2302674E+04  0.7818608E-02  0.8476868E-01
          4   -1    0    0  501    0  0.00000000000E+00  0.00000000000E+00  0.16518031438E+04  0.16518036321E+04  0.12700000000E+01 0.  1.
         -4   -1    0    0    0  501 -0.00000000000E+00 -0.00000000000E+00 -0.80250183133E+03  0.80250283625E+03  0.12700000000E+01 0. -1.
     200001    2    1    2    0    0 -0.62801525390E+02 -0.62034945638E+03 -0.28978756449E+03  0.97907735074E+03  0.69702090828E+03 0.  0.
    5000001    2    3    3    0    0 -0.57404032376E+02 -0.20169340413E+03 -0.80096221984E+02  0.29404269312E+03  0.18992169018E+03 0.  0.
        -11    1    4    4    0    0 -0.11537758498E+03 -0.11158613968E+03 -0.65057745805E+01  0.16064177162E+03  0.51100000000E-03 0. -1.
     200002    1    4    4    0    0  0.57973552609E+02 -0.90107264456E+02 -0.73590447404E+02  0.13340092151E+03  0.30000000000E+02 0. -1.
     200000    1    3    3    0    0 -0.53974930142E+01 -0.41865605225E+03 -0.20969134250E+03  0.68503465762E+03  0.50000000000E+03 0. -1.
    -200001    1    1    2    0    0  0.62801525390E+02  0.62034945638E+03  0.11390888770E+04  0.14752291176E+04  0.70000000000E+03 0.  1.
<mgrwt>
<rscale>  0 0.23026740E+04</rscale>
<asrwt>0</asrwt>
<pdfrwt beam="1">  1        4 0.23597199E+00 0.23026740E+04</pdfrwt>
<pdfrwt beam="2">  1       -4 0.11464322E+00 0.23026740E+04</pdfrwt>
<totfact> 0.83697227E-02</totfact>
</mgrwt>
</event>
<event>
 8    1  0.5361529E-011  0.1437370E+04  0.7818608E-02  0.8927204E-01
          4   -1    0    0  501    0  0.00000000000E+00  0.00000000000E+00  0.36047183088E+03  0.36047406808E+03  0.12700000000E+01 0. -1.
         -4   -1    0    0    0  501 -0.00000000000E+00 -0.00000000000E+00 -0.14328599146E+04  0.14328604774E+04  0.12700000000E+01 0.  1.
     200001    2    1    2    0    0  0.97295017280E+02 -0.11796495426E+03 -0.51341951717E+03  0.88458380454E+03  0.70392247856E+03 0.  0.
    5000001    2    3    3    0    0  0.10233606430E+03 -0.12959062504E+03 -0.15064876503E+03  0.26671392586E+03  0.14551586747E+03 0.  0.
        -11    1    4    4    0    0  0.11217225430E+03 -0.12311468182E+03 -0.71493192698E+02  0.18124876859E+03  0.51100000000E-03 0. -1.
     200002    1    4    4    0    0 -0.98361899988E+01 -0.64759432236E+01 -0.79155572335E+02  0.85465157263E+02  0.30000000000E+02 0. -1.
     200000    1    3    3    0    0 -0.50410470249E+01  0.11625670783E+02 -0.36277075213E+03  0.61786987868E+03  0.50000000000E+03 0. -1.
    -200001    1    1    2    0    0 -0.97295017280E+02  0.11796495426E+03 -0.55896856656E+03  0.90875074098E+03  0.70000000000E+03 0.  1.
<mgrwt>
<rscale>  0 0.14373700E+04</rscale>
<asrwt>0</asrwt>
<pdfrwt beam="1">  1        4 0.51496177E-01 0.14373700E+04</pdfrwt>
<pdfrwt beam="2">  1       -4 0.20469447E+00 0.14373700E+04</pdfrwt>
<totfact> 0.86768835E-01</totfact>
</mgrwt>
</event>
<event>
 8    1  0.5361529E-011  0.2113282E+04  0.7818608E-02  0.8555415E-01
          4   -1    0    0  501    0  0.00000000000E+00  0.00000000000E+00  0.11405293334E+04  0.11405300405E+04  0.12700000000E+01 0.  1.
         -4   -1    0    0    0  501 -0.00000000000E+00 -0.00000000000E+00 -0.97892169615E+03  0.97892251997E+03  0.12700000000E+01 0. -1.
     200001    2    1    2    0    0  0.21807793350E+03 -0.75952030490E+03  0.34477876475E+02  0.10561600068E+04  0.69989724769E+03 0.  0.
    5000001    2    3    3    0    0  0.52741814391E+02 -0.20310134071E+03  0.50464323880E+02  0.28987437956E+03  0.19351654801E+03 0.  0.
        -11    1    4    4    0    0 -0.26961004189E+02  0.21655339559E+02  0.34729251337E+02  0.49009900806E+02  0.51100000000E-03 0. -1.
     200002    1    4    4    0    0  0.79702818580E+02 -0.22475668027E+03  0.15735072543E+02  0.24086447875E+03  0.30000000000E+02 0. -1.
     200000    1    3    3    0    0  0.16533611910E+03 -0.55641896419E+03 -0.15986447405E+02  0.76628562722E+03  0.50000000000E+03 0. -1.
    -200001    1    1    2    0    0 -0.21807793350E+03  0.75952030490E+03  0.12712976078E+03  0.10632925537E+04  0.70000000000E+03 0.  1.
<mgrwt>
<rscale>  0 0.21132823E+04</rscale>
<asrwt>0</asrwt>
<pdfrwt beam="1">  1        4 0.16293287E+00 0.21132823E+04</pdfrwt>
<pdfrwt beam="2">  1       -4 0.13984607E+00 0.21132823E+04</pdfrwt>
<totfact> 0.15842658E-01</totfact>
</mgrwt>
</event>
<event>
 8    1  0.5361529E-011  0.1438235E+04  0.7818608E-02  0.8926597E-01
          4   -1    0    0  501    0  0.00000000000E+00  0.00000000000E+00  0.13580235133E+04  0.13580241071E+04  0.12700000000E+01 0.  1.
         -4   -1    0    0    0  501 -0.00000000000E+00 -0.00000000000E+00 -0.38079456927E+03  0.38079668707E+03  0.12700000000E+01 0. -1.
     200001    2    1    2    0    0  0.83154504356E+02  0.12330720150E+03  0.57432028680E+03  0.91756886963E+03  0.69997821478E+03 0.  0.
    5000001    2    3    3    0    0 -0.26925913326E+01  0.11244302810E+03  0.17670355652E+03  0.27290863486E+03  0.17494082279E+03 0.  0.
        -11    1    4    4    0    0 -0.41257381902E+02  0.11165503429E+01 -0.16653718328E+02  0.44505781428E+02  0.51100000000E-03 0. -1.
     200002    1    4    4    0    0  0.38564790569E+02  0.11132647775E+03  0.19335727484E+03  0.22840285343E+03  0.30000000000E+02 0. -1.
     200000    1    3    3    0    0  0.85847095689E+02  0.10864173405E+02  0.39761673028E+03  0.64466023478E+03  0.50000000000E+03 0. -1.
    -200001    1    1    2    0    0 -0.83154504356E+02 -0.12330720150E+03  0.40290865721E+03  0.82125192456E+03  0.70000000000E+03 0. -1.
<mgrwt>
<rscale>  0 0.14382355E+04</rscale>
<asrwt>0</asrwt>
<pdfrwt beam="1">  1        4 0.19400355E+00 0.14382355E+04</pdfrwt>
<pdfrwt beam="2">  1       -4 0.54399418E-01 0.14382355E+04</pdfrwt>
<totfact> 0.90971207E-01</totfact>
</mgrwt>
</event>
<event>
 8    1  0.5361529E-011  0.1915640E+04  0.7818608E-02  0.8647110E-01
         -4   -1    0    0    0  501 -0.00000000000E+00  0.00000000000E+00  0.82304440468E+03  0.82304538451E+03  0.12700000000E+01 0. -1.
          4   -1    0    0  501    0  0.00000000000E+00 -0.00000000000E+00 -0.11146640016E+04  0.11146647251E+04  0.12700000000E+01 0.  1.
     200001    2    1    2    0    0  0.14513339242E+03  0.37667250889E+03 -0.66549403119E+03  0.10473573856E+04  0.70080618360E+03 0.  0.
    5000001    2    3    3    0    0  0.32572126906E+02  0.16430152711E+03 -0.12993533912E+03  0.27625779079E+03  0.17714186224E+03 0.  0.
        -11    1    4    4    0    0  0.26984544602E+02  0.17570864142E+03 -0.15444546886E+03  0.23548905531E+03  0.51100000000E-03 0. -1.
     200002    1    4    4    0    0  0.55875823047E+01 -0.11407114312E+02  0.24510129739E+02  0.40768735481E+02  0.30000000000E+02 0. -1.
     200000    1    3    3    0    0  0.11256126552E+03  0.21237098178E+03 -0.53555869207E+03  0.77109959477E+03  0.50000000000E+03 0.  1.
    -200001    1    1    2    0    0 -0.14513339242E+03 -0.37667250889E+03  0.37387443430E+03  0.89035272402E+03  0.70000000000E+03 0. -1.
<mgrwt>
<rscale>  0 0.19156405E+04</rscale>
<asrwt>0</asrwt>
<pdfrwt beam="1">  1        4 0.15923783E+00 0.19156405E+04</pdfrwt>
<pdfrwt beam="2">  1       -4 0.11757789E+00 0.19156405E+04</pdfrwt>
<totfact> 0.26633517E-01</totfact>
</mgrwt>
</event>
<event>
 8    1  0.5361529E-011  0.1840561E+04  0.7818608E-02  0.8685022E-01
         -4   -1    0    0    0  501 -0.00000000000E+00  0.00000000000E+00  0.39753622953E+03  0.39753825815E+03  0.12700000000E+01 0. -1.
          4   -1    0    0  501    0  0.00000000000E+00 -0.00000000000E+00 -0.21304038677E+04  0.21304042462E+04  0.12700000000E+01 0.  1.
     200001    2    1    2    0    0  0.34237015727E+03 -0.19815012684E+03 -0.14810920286E+04  0.16854036299E+04  0.70033634874E+03 0.  0.
    5000001    2    3    3    0    0  0.59385880464E+02 -0.89625228741E+02 -0.37677681215E+03  0.43585577106E+03  0.19091915190E+03 0.  0.
        -11    1    4    4    0    0  0.12442953899E+02 -0.11690924053E+03 -0.10677322489E+03  0.15881788053E+03  0.51100000000E-03 0. -1.
     200002    1    4    4    0    0  0.46942926565E+02  0.27284011786E+02 -0.27000358726E+03  0.27703789053E+03  0.30000000000E+02 0. -1.
     200000    1    3    3    0    0  0.28298427681E+03 -0.10852489810E+03 -0.11043152164E+04  0.12495478589E+04  0.50000000000E+03 0.  1.
    -200001    1    1    2    0    0 -0.34237015727E+03  0.19815012684E+03 -0.25177560959E+03  0.84253887444E+03  0.70000000000E+03 0. -1.
<mgrwt>
<rscale>  0 0.18405605E+04</rscale>
<asrwt>0</asrwt>
<pdfrwt beam="1">  1        4 0.30434357E+00 0.18405605E+04</pdfrwt>
<pdfrwt beam="2">  1       -4 0.56791063E-01 0.18405605E+04</pdfrwt>
<totfact> 0.16266870E-01</totfact>
</mgrwt>
</event>
<event>
 8    1  0.5361529E-011  0.1640569E+04  0.7818608E-02  0.8796005E-01
          4   -1    0    0  501    0  0.00000000000E+00  0.00000000000E+00  0.71048805693E+03  0.71048919199E+03  0.12700000000E+01 0.  1.
         -4   -1    0    0    0  501 -0.00000000000E+00 -0.00000000000E+00 -0.94704624012E+03  0.94704709167E+03  0.12700000000E+01 0. -1.
     200001    2    1    2    0    0 -0.37253047177E+03 -0.72765792487E+02 -0.31682413736E+03  0.85721357603E+03  0.70025978605E+03 0.  0.
    5000001    2    3    3    0    0 -0.10866043864E+03 -0.40947232541E+02 -0.67246917698E+02  0.23840132363E+03  0.19705145620E+03 0.  0.
        -11    1    4    4    0    0 -0.15415772486E+03  0.79000612589E+00 -0.70853263966E+02  0.16966264544E+03  0.51100000000E-03 0. -1.
     200002    1    4    4    0    0  0.45497286224E+02 -0.41737238667E+02  0.36063462685E+01  0.68738678186E+02  0.30000000000E+02 0. -1.
     200000    1    3    3    0    0 -0.26387003314E+03 -0.31818559945E+02 -0.24957721966E+03  0.61881225240E+03  0.50000000000E+03 0. -1.
    -200001    1    1    2    0    0  0.37253047177E+03  0.72765792487E+02  0.80265954166E+02  0.80032270763E+03  0.70000000000E+03 0.  1.
<mgrwt>
<rscale>  0 0.16405690E+04</rscale>
<asrwt>0</asrwt>
<pdfrwt beam="1">  1        4 0.10149844E+00 0.16405690E+04</pdfrwt>
<pdfrwt beam="2">  1       -4 0.13529246E+00 0.16405690E+04</pdfrwt>
<totfact> 0.59914843E-01</totfact>
</mgrwt>
</event>
<event>
 8    1  0.5361529E-011  0.1738580E+04  0.7818608E-02  0.8739662E-01
         -4   -1    0    0    0  501 -0.00000000000E+00  0.00000000000E+00  0.34908965452E+03  0.34909196466E+03  0.12700000000E+01 0. -1.
          4   -1    0    0  501    0  0.00000000000E+00 -0.00000000000E+00 -0.21646641376E+04  0.21646645102E+04  0.12700000000E+01 0.  1.
     200001    2    1    2    0    0 -0.28337153119E+03  0.71353735572E+02 -0.15210416394E+04  0.17000363901E+04  0.70083184767E+03 0.  0.
    5000001    2    3    3    0    0 -0.60619234582E+02 -0.78401169804E+01 -0.35790597606E+03  0.41210206600E+03  0.19492374425E+03 0.  0.
        -11    1    4    4    0    0 -0.11698528405E+03 -0.34834418550E+01 -0.12794092072E+03  0.17339714601E+03  0.51100000000E-03 0. -1.
     200002    1    4    4    0    0  0.56366049465E+02 -0.43566751254E+01 -0.22996505534E+03  0.23870491999E+03  0.30000000000E+02 0. -1.
     200000    1    3    3    0    0 -0.22275229661E+03  0.79193852553E+02 -0.11631356633E+04  0.12879343241E+04  0.50000000000E+03 0.  1.
    -200001    1    1    2    0    0  0.28337153119E+03 -0.71353735572E+02 -0.29453284374E+03  0.81372008474E+03  0.70000000000E+03 0. -1.
<mgrwt>
<rscale>  0 0.17385801E+04</rscale>
<asrwt>0</asrwt>
<pdfrwt beam="1">  1        4 0.30923792E+00 0.17385801E+04</pdfrwt>
<pdfrwt beam="2">  1       -4 0.49870143E-01 0.17385801E+04</pdfrwt>
<totfact> 0.20113879E-01</totfact>
</mgrwt>
</event>
<event>
 8    1  0.5361529E-011  0.1987722E+04  0.7818608E-02  0.8612382E-01
         -4   -1    0    0    0  501 -0.00000000000E+00  0.00000000000E+00  0.40049274557E+03  0.40049475921E+03  0.12700000000E+01 0. -1.
          4   -1    0    0  501    0  0.00000000000E+00 -0.00000000000E+00 -0.24663536888E+04  0.24663540157E+04  0.12700000000E+01 0.  1.
     200001    2    1    2    0    0  0.65602567924E+02 -0.33564683928E+03 -0.14324989787E+03  0.79238601818E+03  0.70028035167E+03 0.  0.
    5000001    2    3    3    0    0  0.42956320432E+02 -0.51112146445E+02 -0.50983954828E+02  0.20930296390E+03  0.19170464279E+03 0.  0.
        -11    1    4    4    0    0  0.86401540198E+02 -0.94433441709E+02 -0.58241118973E+02  0.14062335866E+03  0.51100000000E-03 0. -1.
     200002    1    4    4    0    0 -0.43445219767E+02  0.43321295264E+02  0.72571641454E+01  0.68679605236E+02  0.30000000000E+02 0. -1.
     200000    1    3    3    0    0  0.22646247492E+02 -0.28453469283E+03 -0.92265943043E+02  0.58308305429E+03  0.50000000000E+03 0. -1.
    -200001    1    1    2    0    0 -0.65602567924E+02  0.33564683928E+03 -0.19226110453E+04  0.20744627568E+04  0.70000000000E+03 0.  1.
<mgrwt>
<rscale>  0 0.19877224E+04</rscale>
<asrwt>0</asrwt>
<pdfrwt beam="1">  1        4 0.35233640E+00 0.19877224E+04</pdfrwt>
<pdfrwt beam="2">  1       -4 0.57213418E-01 0.19877224E+04</pdfrwt>
<totfact> 0.78132403E-02</totfact>
</mgrwt>
</event>
<event>
 8    1  0.5361529E-011  0.1539744E+04  0.7818608E-02  0.8858446E-01
          4   -1    0    0  501    0  0.00000000000E+00  0.00000000000E+00  0.10368988179E+04  0.10368995957E+04  0.12700000000E+01 0.  1.
         -4   -1    0    0    0  501 -0.00000000000E+00 -0.00000000000E+00 -0.57160910420E+03  0.57161051504E+03  0.12700000000E+01 0. -1.
     200001    2    1    2    0    0 -0.43462743967E+02  0.13712821219E+03  0.53176710964E+03  0.89079679688E+03  0.70003536892E+03 0.  0.
    5000001    2    3    3    0    0 -0.52889304958E+02  0.13011461597E+03  0.55812537793E+02  0.20038329393E+03  0.13157253986E+03 0.  0.
        -11    1    4    4    0    0 -0.74710505510E+02  0.13572997978E+03  0.45216052774E+02  0.16139633972E+03  0.51100000000E-03 0. -1.
     200002    1    4    4    0    0  0.21821200552E+02 -0.56153638130E+01  0.10596485019E+02  0.38986954216E+02  0.30000000000E+02 0. -1.
     200000    1    3    3    0    0  0.94265609906E+01  0.70135962179E+01  0.47595457185E+03  0.69041350294E+03  0.50000000000E+03 0.  1.
    -200001    1    1    2    0    0  0.43462743967E+02 -0.13712821219E+03 -0.66477395916E+02  0.71771331384E+03  0.70000000000E+03 0. -1.
<mgrwt>
<rscale>  0 0.15397436E+04</rscale>
<asrwt>0</asrwt>
<pdfrwt beam="1">  1        4 0.14812856E+00 0.15397436E+04</pdfrwt>
<pdfrwt beam="2">  1       -4 0.81658601E-01 0.15397436E+04</pdfrwt>
<totfact> 0.79054580E-01</totfact>
</mgrwt>
</event>
<event>
 8    1  0.5361529E-011  0.1430281E+04  0.7818608E-02  0.8932186E-01
          4   -1    0    0  501    0  0.00000000000E+00  0.00000000000E+00  0.31149945756E+04  0.31149948345E+04  0.12700000000E+01 0.  1.
         -4   -1    0    0    0  501 -0.00000000000E+00 -0.00000000000E+00 -0.16417933073E+03  0.16418424267E+03  0.12700000000E+01 0. -1.
     200001    2    1    2    0    0 -0.13460019431E+03  0.21706458588E+02  0.15181042587E+04  0.16787887646E+04  0.70363541213E+03 0.  0.
    5000001    2    3    3    0    0 -0.78121877908E+02  0.10354240858E+02  0.41983533056E+03  0.47068557712E+03  0.19766883824E+03 0.  0.
        -11    1    4    4    0    0 -0.10876673398E+03  0.76813376270E+02  0.27943797281E+03  0.30954172230E+03  0.51100000000E-03 0. -1.
     200002    1    4    4    0    0  0.30644856077E+02 -0.66459135412E+02  0.14039735775E+03  0.16114385482E+03  0.30000000000E+02 0. -1.
     200000    1    3    3    0    0 -0.56478316403E+02  0.11352217730E+02  0.10982689282E+04  0.12081031875E+04  0.50000000000E+03 0.  1.
    -200001    1    1    2    0    0  0.13460019431E+03 -0.21706458588E+02  0.14327109861E+04  0.16003903125E+04  0.70000000000E+03 0. -1.
<mgrwt>
<rscale>  0 0.14302814E+04</rscale>
<asrwt>0</asrwt>
<pdfrwt beam="1">  1        4 0.44499958E+00 0.14302814E+04</pdfrwt>
<pdfrwt beam="2">  1       -4 0.23454560E-01 0.14302814E+04</pdfrwt>
<totfact> 0.11083106E-01</totfact>
</mgrwt>
</event>
<event>
 8    1  0.5361529E-011  0.1557543E+04  0.7818608E-02  0.8847064E-01
          4   -1    0    0  501    0  0.00000000000E+00  0.00000000000E+00  0.68081838705E+03  0.68081957158E+03  0.12700000000E+01 0.  1.
         -4   -1    0    0    0  501 -0.00000000000E+00 -0.00000000000E+00 -0.89081532412E+03  0.89081622942E+03  0.12700000000E+01 0. -1.
     200001    2    1    2    0    0 -0.18450706301E+03  0.13603937689E+03  0.15370378860E+03  0.75015677740E+03  0.69753907968E+03 0.  0.
    5000001    2    3    3    0    0 -0.63290283815E+02 -0.28244211387E+02  0.43033901782E+02  0.19885792126E+03  0.18135368935E+03 0.  0.
        -11    1    4    4    0    0 -0.81394772891E+01 -0.15320140957E+01  0.10581578787E+03  0.10613943245E+03  0.51100000000E-03 0. -1.
     200002    1    4    4    0    0 -0.55150806525E+02 -0.26712197291E+02 -0.62781886093E+02  0.92718488803E+02  0.30000000000E+02 0. -1.
     200000    1    3    3    0    0 -0.12121677919E+03  0.16428358828E+03  0.11066988682E+03  0.55129885614E+03  0.50000000000E+03 0.  1.
    -200001    1    1    2    0    0  0.18450706301E+03 -0.13603937689E+03 -0.36370072567E+03  0.82147902360E+03  0.70000000000E+03 0. -1.
<mgrwt>
<rscale>  0 0.15575431E+04</rscale>
<asrwt>0</asrwt>
<pdfrwt beam="1">  1        4 0.97259919E-01 0.15575431E+04</pdfrwt>
<pdfrwt beam="2">  1       -4 0.12725948E+00 0.15575431E+04</pdfrwt>
<totfact> 0.77991046E-01</totfact>
</mgrwt>
</event>
<event>
 8    1  0.5361529E-011  0.1742024E+04  0.7818608E-02  0.8737753E-01
         -4   -1    0    0    0  501 -0.00000000000E+00  0.00000000000E+00  0.21342722780E+04  0.21342726559E+04  0.12700000000E+01 0.  1.
          4   -1    0    0  501    0  0.00000000000E+00 -0.00000000000E+00 -0.35546485769E+03  0.35546712640E+03  0.12700000000E+01 0. -1.
     200001    2    1    2    0    0 -0.33631168813E+03  0.73647535988E+02  0.14384678797E+04  0.16386460659E+04  0.70529538294E+03 0.  0.
    5000001    2    3    3    0    0 -0.96918352579E+02  0.58491620936E+02  0.46547407456E+03  0.51871043573E+03  0.19894714187E+03 0.  0.
        -11    1    4    4    0    0 -0.94890884715E+02  0.11814611943E+03  0.24258051046E+03  0.28602113487E+03  0.51100000000E-03 0. -1.
     200002    1    4    4    0    0 -0.20274678640E+01 -0.59654498490E+02  0.22289356410E+03  0.23268930086E+03  0.30000000000E+02 0. -1.
     200000    1    3    3    0    0 -0.23939333555E+03  0.15155915053E+02  0.97299380514E+03  0.11199356302E+04  0.50000000000E+03 0.  1.
    -200001    1    1    2    0    0  0.33631168813E+03 -0.73647535988E+02  0.34033954061E+03  0.85109371636E+03  0.70000000000E+03 0. -1.
<mgrwt>
<rscale>  0 0.17420242E+04</rscale>
<asrwt>0</asrwt>
<pdfrwt beam="1">  1        4 0.50780883E-01 0.17420242E+04</pdfrwt>
<pdfrwt beam="2">  1       -4 0.30489623E+00 0.17420242E+04</pdfrwt>
<totfact> 0.20610794E-01</totfact>
</mgrwt>
</event>
<event>
 8    1  0.5361529E-011  0.1656635E+04  0.7818608E-02  0.8786491E-01
          4   -1    0    0  501    0  0.00000000000E+00  0.00000000000E+00  0.40608121460E+03  0.40608320052E+03  0.12700000000E+01 0.  1.
         -4   -1    0    0    0  501 -0.00000000000E+00 -0.00000000000E+00 -0.16895812880E+04  0.16895817653E+04  0.12700000000E+01 0. -1.
     200001    2    1    2    0    0  0.31039470139E+03 -0.72060605674E+02 -0.10298176507E+04  0.12857931407E+04  0.70085804950E+03 0.  0.
    5000001    2    3    3    0    0  0.91765573972E+02 -0.52859199502E+02 -0.35659866942E+03  0.41896490740E+03  0.19275364346E+03 0.  0.
        -11    1    4    4    0    0  0.13729663857E+03 -0.11955607994E+02 -0.30082694772E+03  0.33089296759E+03  0.51100000000E-03 0. -1.
     200002    1    4    4    0    0 -0.45531064600E+02 -0.40903591508E+02 -0.55771721700E+02  0.88071939818E+02  0.30000000000E+02 0. -1.
     200000    1    3    3    0    0  0.21862912741E+03 -0.19201406172E+02 -0.67321898127E+03  0.86682823332E+03  0.50000000000E+03 0. -1.
    -200001    1    1    2    0    0 -0.31039470139E+03  0.72060605674E+02 -0.25368242276E+03  0.80987182514E+03  0.70000000000E+03 0.  1.
<mgrwt>
<rscale>  0 0.16566349E+04</rscale>
<asrwt>0</asrwt>
<pdfrwt beam="1">  1        4 0.58011779E-01 0.16566349E+04</pdfrwt>
<pdfrwt beam="2">  1       -4 0.24136893E+00 0.16566349E+04</pdfrwt>
<totfact> 0.38765425E-01</totfact>
</mgrwt>
</event>
<event>
 8    1  0.5361529E-011  0.2305105E+04  0.7818608E-02  0.8475911E-01
         -4   -1    0    0    0  501 -0.00000000000E+00  0.00000000000E+00  0.20908284387E+04  0.20908288245E+04  0.12700000000E+01 0.  1.
          4   -1    0    0  501    0  0.00000000000E+00 -0.00000000000E+00 -0.63533402786E+03  0.63533529720E+03  0.12700000000E+01 0. -1.
     200001    2    1    2    0    0  0.60336967717E+03 -0.68112690194E+03  0.84997735492E+03  0.14282274017E+04  0.69955927790E+03 0.  0.
    5000001    2    3    3    0    0  0.13290044315E+03 -0.70211756811E+02  0.17316530276E+03  0.28689783992E+03  0.17242949251E+03 0.  0.
        -11    1    4    4    0    0  0.70931398704E+02  0.32616135605E+02  0.13749001646E+03  0.15810939331E+03  0.51100000000E-03 0. -1.
     200002    1    4    4    0    0  0.61969044444E+02 -0.10282789242E+03  0.35675286292E+02  0.12878844661E+03  0.30000000000E+02 0. -1.
     200000    1    3    3    0    0  0.47046923402E+03 -0.61091514513E+03  0.67681205216E+03  0.11413295618E+04  0.50000000000E+03 0. -1.
    -200001    1    1    2    0    0 -0.60336967717E+03  0.68112690194E+03  0.60551705596E+03  0.12979367199E+04  0.70000000000E+03 0.  1.
<mgrwt>
<rscale>  0 0.23051045E+04</rscale>
<asrwt>0</asrwt>
<pdfrwt beam="1">  1        4 0.90762123E-01 0.23051045E+04</pdfrwt>
<pdfrwt beam="2">  1       -4 0.29868989E+00 0.23051045E+04</pdfrwt>
<totfact> 0.59671992E-02</totfact>
</mgrwt>
</event>
<event>
 8    1  0.5361529E-011  0.1675640E+04  0.7818608E-02  0.8775381E-01
          4   -1    0    0  501    0  0.00000000000E+00  0.00000000000E+00  0.54352835272E+03  0.54352983645E+03  0.12700000000E+01 0.  1.
         -4   -1    0    0    0  501 -0.00000000000E+00 -0.00000000000E+00 -0.12914513065E+04  0.12914519309E+04  0.12700000000E+01 0. -1.
     200001    2    1    2    0    0  0.12990061355E+03 -0.31695451028E+03 -0.38857685201E+02  0.78136519288E+03  0.70120418849E+03 0.  0.
    5000001    2    3    3    0    0  0.29408252024E+02 -0.54998528773E+02 -0.44631553682E+02  0.20799533970E+03  0.19334012077E+03 0.  0.
        -11    1    4    4    0    0  0.66405357717E+02  0.29425771476E+02 -0.76950267020E+02  0.10581536351E+03  0.51100000000E-03 0. -1.
     200002    1    4    4    0    0 -0.36997105694E+02 -0.84424300249E+02  0.32318713338E+02  0.10217997619E+03  0.30000000000E+02 0. -1.
     200000    1    3    3    0    0  0.10049236153E+03 -0.26195598151E+03  0.57738684816E+01  0.57336985317E+03  0.50000000000E+03 0. -1.
    -200001    1    1    2    0    0 -0.12990061355E+03  0.31695451028E+03 -0.70906526855E+03  0.10536165745E+04  0.70000000000E+03 0. -1.
<mgrwt>
<rscale>  0 0.16756400E+04</rscale>
<asrwt>0</asrwt>
<pdfrwt beam="1">  1        4 0.77647058E-01 0.16756400E+04</pdfrwt>
<pdfrwt beam="2">  1       -4 0.18449319E+00 0.16756400E+04</pdfrwt>
<totfact> 0.47698141E-01</totfact>
</mgrwt>
</event>
<event>
 8    1  0.5361529E-011  0.1671940E+04  0.7818608E-02  0.8777532E-01
          4   -1    0    0  501    0  0.00000000000E+00  0.00000000000E+00  0.40632248608E+03  0.40632447083E+03  0.12700000000E+01 0.  1.
         -4   -1    0    0    0  501 -0.00000000000E+00 -0.00000000000E+00 -0.17199221669E+04  0.17199226358E+04  0.12700000000E+01 0. -1.
     200001    2    1    2    0    0  0.11930663000E+02 -0.14895552335E+03 -0.10829377176E+03  0.72442956391E+03  0.70052877415E+03 0.  0.
    5000001    2    3    3    0    0 -0.71156139679E+02 -0.71411396552E+01 -0.77330646611E+02  0.19719768768E+03  0.16671144841E+03 0.  0.
        -11    1    4    4    0    0 -0.85104140812E+02 -0.68410135983E+02 -0.63151652758E+02  0.12613799085E+03  0.51100000000E-03 0. -1.
     200002    1    4    4    0    0  0.13948001133E+02  0.61268996328E+02 -0.14178993852E+02  0.71059696828E+02  0.30000000000E+02 0. -1.
     200000    1    3    3    0    0  0.83086802679E+02 -0.14181438369E+03 -0.30963125152E+02  0.52723187624E+03  0.50000000000E+03 0.  1.
    -200001    1    1    2    0    0 -0.11930663000E+02  0.14895552335E+03 -0.12053059091E+04  0.14018175427E+04  0.70000000000E+03 0. -1.
<mgrwt>
<rscale>  0 0.16719398E+04</rscale>
<asrwt>0</asrwt>
<pdfrwt beam="1">  1        4 0.58046245E-01 0.16719398E+04</pdfrwt>
<pdfrwt beam="2">  1       -4 0.24570334E+00 0.16719398E+04</pdfrwt>
<totfact> 0.36340316E-01</totfact>
</mgrwt>
</event>
<event>
 8    1  0.5361529E-011  0.1971255E+04  0.7818608E-02  0.8620179E-01
          4   -1    0    0  501    0  0.00000000000E+00  0.00000000000E+00  0.26039848703E+04  0.26039851800E+04  0.12700000000E+01 0.  1.
         -4   -1    0    0    0  501 -0.00000000000E+00 -0.00000000000E+00 -0.37306605372E+03  0.37306821540E+03  0.12700000000E+01 0. -1.
     200001    2    1    2    0    0  0.21805870618E+03 -0.34157096721E+03  0.28064030818E+03  0.86570155705E+03  0.71165994570E+03 0.  0.
    5000001    2    3    3    0    0  0.85276772735E+02  0.53934215652E+00  0.83363920835E+02  0.21486480438E+03  0.17873142422E+03 0.  0.
        -11    1    4    4    0    0 -0.14683779486E+02  0.35890649091E+02  0.96399212984E+02  0.10390649805E+03  0.51100000000E-03 0. -1.
     200002    1    4    4    0    0  0.99960552221E+02 -0.35351306934E+02 -0.13035292149E+02  0.11095830633E+03  0.30000000000E+02 0. -1.
     200000    1    3    3    0    0  0.13278193345E+03 -0.34211030936E+03  0.19727638735E+03  0.65083675267E+03  0.50000000000E+03 0. -1.
    -200001    1    1    2    0    0 -0.21805870618E+03  0.34157096721E+03  0.19502785084E+04  0.21113518383E+04  0.70000000000E+03 0.  1.
<mgrwt>
<rscale>  0 0.19712555E+04</rscale>
<asrwt>0</asrwt>
<pdfrwt beam="1">  1        4 0.37199800E+00 0.19712555E+04</pdfrwt>
<pdfrwt beam="2">  1       -4 0.53295329E-01 0.19712555E+04</pdfrwt>
<totfact> 0.67411334E-02</totfact>
</mgrwt>
</event>
<event>
 8    1  0.5361529E-011  0.1777490E+04  0.7818608E-02  0.8718362E-01
          4   -1    0    0  501    0  0.00000000000E+00  0.00000000000E+00  0.47735487012E+03  0.47735655953E+03  0.12700000000E+01 0.  1.
         -4   -1    0    0    0  501 -0.00000000000E+00 -0.00000000000E+00 -0.16546720601E+04  0.16546725475E+04  0.12700000000E+01 0. -1.
     200001    2    1    2    0    0 -0.29634121780E+03  0.18945126872E+03 -0.84871382309E+02  0.78772715309E+03  0.69971495311E+03 0.  0.
    5000001    2    3    3    0    0 -0.22724433459E+03  0.24053547081E+02 -0.44745977205E+02  0.25505386324E+03  0.10407550118E+03 0.  0.
        -11    1    4    4    0    0 -0.16899831018E+03  0.55980739252E+02 -0.36193462256E+02  0.18167068757E+03  0.51100000000E-03 0. -1.
     200002    1    4    4    0    0 -0.58246024411E+02 -0.31927192171E+02 -0.85525149491E+01  0.73383175671E+02  0.30000000000E+02 0. -1.
     200000    1    3    3    0    0 -0.69096883214E+02  0.16539772164E+03 -0.40125405104E+02  0.53267328986E+03  0.50000000000E+03 0.  1.
    -200001    1    1    2    0    0  0.29634121780E+03 -0.18945126872E+03 -0.10924458077E+04  0.13443019539E+04  0.70000000000E+03 0. -1.
<mgrwt>
<rscale>  0 0.17774905E+04</rscale>
<asrwt>0</asrwt>
<pdfrwt beam="1">  1        4 0.68193709E-01 0.17774905E+04</pdfrwt>
<pdfrwt beam="2">  1       -4 0.23638187E+00 0.17774905E+04</pdfrwt>
<totfact> 0.29045644E-01</totfact>
</mgrwt>
</event>
<event>
 8    1  0.5361529E-011  0.1570808E+04  0.7818608E-02  0.8838685E-01
         -4   -1    0    0    0  501 -0.00000000000E+00  0.00000000000E+00  0.96762950646E+03  0.96763033989E+03  0.12700000000E+01 0. -1.
          4   -1    0    0  501    0  0.00000000000E+00 -0.00000000000E+00 -0.63749351823E+03  0.63749478326E+03  0.12700000000E+01 0.  1.
     200001    2    1    2    0    0 -0.37494212322E+02 -0.22509460821E+03  0.44468308166E+03  0.86001141691E+03  0.69985941124E+03 0.  0.
    5000001    2    3    3    0    0 -0.44628297754E+01 -0.89836916720E+02 -0.72073072637E+01  0.17183219684E+03  0.14623190533E+03 0.  0.
        -11    1    4    4    0    0 -0.56300025571E+02 -0.69203712136E+02  0.34868957028E+02  0.95784606368E+02  0.51100000000E-03 0. -1.
     200002    1    4    4    0    0  0.51837195796E+02 -0.20633204584E+02 -0.42076264292E+02  0.76047590469E+02  0.30000000000E+02 0. -1.
     200000    1    3    3    0    0 -0.33031382547E+02 -0.13525769149E+03  0.45189038892E+03  0.68817922007E+03  0.50000000000E+03 0. -1.
    -200001    1    1    2    0    0  0.37494212322E+02  0.22509460821E+03 -0.11454709343E+03  0.74511370623E+03  0.70000000000E+03 0.  1.
<mgrwt>
<rscale>  0 0.15708077E+04</rscale>
<asrwt>0</asrwt>
<pdfrwt beam="1">  1        4 0.91070653E-01 0.15708077E+04</pdfrwt>
<pdfrwt beam="2">  1       -4 0.13823294E+00 0.15708077E+04</pdfrwt>
<totfact> 0.73575681E-01</totfact>
</mgrwt>
</event>
<event>
 8    1  0.5361529E-011  0.1700921E+04  0.7818608E-02  0.8760839E-01
         -4   -1    0    0    0  501 -0.00000000000E+00  0.00000000000E+00  0.56891296638E+03  0.56891438390E+03  0.12700000000E+01 0. -1.
          4   -1    0    0  501    0  0.00000000000E+00 -0.00000000000E+00 -0.12713394225E+04  0.12713400568E+04  0.12700000000E+01 0.  1.
     200001    2    1    2    0    0 -0.29032702874E+03  0.26660976462E+03 -0.65359905858E+03  0.10354223682E+04  0.69966935117E+03 0.  0.
    5000001    2    3    3    0    0 -0.13290401792E+03  0.13286387682E+01 -0.25541582157E+03  0.32569990814E+03  0.15224304579E+03 0.  0.
        -11    1    4    4    0    0 -0.14557390914E+03 -0.38301254980E+02 -0.19772768228E+03  0.24850550395E+03  0.51100000000E-03 0. -1.
     200002    1    4    4    0    0  0.12669891225E+02  0.39629893748E+02 -0.57688139295E+02  0.77194404185E+02  0.30000000000E+02 0. -1.
     200000    1    3    3    0    0 -0.15742301082E+03  0.26528112585E+03 -0.39818323700E+03  0.70972246005E+03  0.50000000000E+03 0.  1.
    -200001    1    1    2    0    0  0.29032702874E+03 -0.26660976462E+03 -0.48827397519E+02  0.80483207252E+03  0.70000000000E+03 0.  1.
<mgrwt>
<rscale>  0 0.17009214E+04</rscale>
<asrwt>0</asrwt>
<pdfrwt beam="1">  1        4 0.18162006E+00 0.17009214E+04</pdfrwt>
<pdfrwt beam="2">  1       -4 0.81273428E-01 0.17009214E+04</pdfrwt>
<totfact> 0.44930122E-01</totfact>
</mgrwt>
</event>
<event>
 8    1  0.5361529E-011  0.1915853E+04  0.7818608E-02  0.8647006E-01
         -4   -1    0    0    0  501 -0.00000000000E+00  0.00000000000E+00  0.12958816861E+04  0.12958823084E+04  0.12700000000E+01 0. -1.
          4   -1    0    0  501    0  0.00000000000E+00 -0.00000000000E+00 -0.70810550025E+03  0.70810663913E+03  0.12700000000E+01 0.  1.
     200001    2    1    2    0    0  0.33062412162E+03 -0.50413220860E+03  0.26909457154E+02  0.92323315601E+03  0.69869431652E+03 0.  0.
    5000001    2    3    3    0    0  0.90109953213E+02 -0.19862903694E+03 -0.59709158189E+02  0.28395071638E+03  0.17172515185E+03 0.  0.
        -11    1    4    4    0    0  0.12144774802E+02 -0.12836250886E+03  0.41135287481E+02  0.13533861648E+03  0.51100000000E-03 0. -1.
     200002    1    4    4    0    0  0.77965178410E+02 -0.70266528080E+02 -0.10084444567E+03  0.14861209990E+03  0.30000000000E+02 0. -1.
     200000    1    3    3    0    0  0.24051416841E+03 -0.30550317166E+03  0.86618615344E+02  0.63928243963E+03  0.50000000000E+03 0.  1.
    -200001    1    1    2    0    0 -0.33062412162E+03  0.50413220860E+03  0.56086672867E+03  0.10807557915E+04  0.70000000000E+03 0. -1.
<mgrwt>
<rscale>  0 0.19158525E+04</rscale>
<asrwt>0</asrwt>
<pdfrwt beam="1">  1        4 0.10115806E+00 0.19158525E+04</pdfrwt>
<pdfrwt beam="2">  1       -4 0.18512608E+00 0.19158525E+04</pdfrwt>
<totfact> 0.25096736E-01</totfact>
</mgrwt>
</event>
<event>
 8    1  0.5361529E-011  0.1613171E+04  0.7818608E-02  0.8812497E-01
          4   -1    0    0  501    0  0.00000000000E+00  0.00000000000E+00  0.82212259575E+03  0.82212357668E+03  0.12700000000E+01 0.  1.
         -4   -1    0    0    0  501 -0.00000000000E+00 -0.00000000000E+00 -0.79133978583E+03  0.79134080492E+03  0.12700000000E+01 0. -1.
     200001    2    1    2    0    0  0.61812970113E+02 -0.30108179079E+03 -0.24175947210E+03  0.80182999131E+03  0.70000900323E+03 0.  0.
    5000001    2    3    3    0    0  0.10547193736E+03 -0.10477396597E+03 -0.89752004303E+02  0.24187540586E+03  0.16836382084E+03 0.  0.
        -11    1    4    4    0    0  0.36294946510E+02 -0.13758343701E+03 -0.60091972631E+02  0.15445896043E+03  0.51100000000E-03 0. -1.
     200002    1    4    4    0    0  0.69176990847E+02  0.32809471043E+02 -0.29660031672E+02  0.87416445430E+02  0.30000000000E+02 0. -1.
     200000    1    3    3    0    0 -0.43658967244E+02 -0.19630782482E+03 -0.15200746780E+03  0.55995458546E+03  0.50000000000E+03 0. -1.
    -200001    1    1    2    0    0 -0.61812970113E+02  0.30108179079E+03  0.27254228202E+03  0.81163439029E+03  0.70000000000E+03 0.  1.
<mgrwt>
<rscale>  0 0.16131707E+04</rscale>
<asrwt>0</asrwt>
<pdfrwt beam="1">  1        4 0.11744623E+00 0.16131707E+04</pdfrwt>
<pdfrwt beam="2">  1       -4 0.11304868E+00 0.16131707E+04</pdfrwt>
<totfact> 0.66093411E-01</totfact>
</mgrwt>
</event>
<event>
 8    1  0.5361529E-011  0.2039322E+04  0.7818608E-02  0.8588454E-01
         -4   -1    0    0    0  501 -0.00000000000E+00  0.00000000000E+00  0.10891694438E+04  0.10891701842E+04  0.12700000000E+01 0. -1.
          4   -1    0    0  501    0  0.00000000000E+00 -0.00000000000E+00 -0.95458662605E+03  0.95458747087E+03  0.12700000000E+01 0.  1.
     200001    2    1    2    0    0  0.49229977764E+03 -0.49634704511E+03 -0.17933683371E+03  0.10058438784E+04  0.70060027658E+03 0.  0.
    5000001    2    3    3    0    0  0.22441545021E+03 -0.64498642062E+02 -0.73915334225E+02  0.28517145029E+03  0.14607159307E+03 0.  0.
        -11    1    4    4    0    0  0.16397464719E+03  0.21834707103E+02 -0.52232281709E+02  0.17347233384E+03  0.51100000000E-03 0. -1.
     200002    1    4    4    0    0  0.60440803024E+02 -0.86333349165E+02 -0.21683052516E+02  0.11169911644E+03  0.30000000000E+02 0. -1.
     200000    1    3    3    0    0  0.26788432742E+03 -0.43184840305E+03 -0.10542149949E+03  0.72067242812E+03  0.50000000000E+03 0. -1.
    -200001    1    1    2    0    0 -0.49229977764E+03  0.49634704511E+03  0.31391965145E+03  0.10379137767E+04  0.70000000000E+03 0. -1.
<mgrwt>
<rscale>  0 0.20393217E+04</rscale>
<asrwt>0</asrwt>
<pdfrwt beam="1">  1        4 0.13636963E+00 0.20393217E+04</pdfrwt>
<pdfrwt beam="2">  1       -4 0.15559575E+00 0.20393217E+04</pdfrwt>
<totfact> 0.19302861E-01</totfact>
</mgrwt>
</event>
<event>
 8    1  0.5361529E-011  0.1613130E+04  0.7818608E-02  0.8812522E-01
          4   -1    0    0  501    0  0.00000000000E+00  0.00000000000E+00  0.72204818107E+03  0.72204929797E+03  0.12700000000E+01 0.  1.
         -4   -1    0    0    0  501 -0.00000000000E+00 -0.00000000000E+00 -0.90097228664E+03  0.90097318173E+03  0.12700000000E+01 0. -1.
     200001    2    1    2    0    0 -0.23897235915E+03 -0.25587143236E+03 -0.28619652760E+03  0.83303175136E+03  0.69961094047E+03 0.  0.
    5000001    2    3    3    0    0 -0.16577928318E+02 -0.39216787579E+02 -0.41202734452E+02  0.19552059330E+03  0.18632727374E+03 0.  0.
        -11    1    4    4    0    0 -0.72315178929E+02 -0.57659894263E+02 -0.77136925966E+02  0.12043360768E+03  0.51100000000E-03 0. -1.
     200002    1    4    4    0    0  0.55737250611E+02  0.18443106684E+02  0.35934191513E+02  0.75086985620E+02  0.30000000000E+02 0. -1.
     200000    1    3    3    0    0 -0.22239443083E+03 -0.21665464478E+03 -0.24499379315E+03  0.63751115806E+03  0.50000000000E+03 0. -1.
    -200001    1    1    2    0    0  0.23897235915E+03  0.25587143236E+03  0.10727242204E+03  0.78999072834E+03  0.70000000000E+03 0.  1.
<mgrwt>
<rscale>  0 0.16131299E+04</rscale>
<asrwt>0</asrwt>
<pdfrwt beam="1">  1        4 0.10314988E+00 0.16131299E+04</pdfrwt>
<pdfrwt beam="2">  1       -4 0.12871047E+00 0.16131299E+04</pdfrwt>
<totfact> 0.65594996E-01</totfact>
</mgrwt>
</event>
<event>
 8    1  0.5361529E-011  0.1515549E+04  0.7818608E-02  0.8874178E-01
          4   -1    0    0  501    0  0.00000000000E+00  0.00000000000E+00  0.23768303655E+04  0.23768307048E+04  0.12700000000E+01 0.  1.
         -4   -1    0    0    0  501 -0.00000000000E+00 -0.00000000000E+00 -0.24158952530E+03  0.24159286338E+03  0.12700000000E+01 0. -1.
     200001    2    1    2    0    0 -0.16936615767E+03 -0.16409872004E+03  0.13633677088E+04  0.15500596712E+04  0.69878479504E+03 0.  0.
    5000001    2    3    3    0    0 -0.13178214236E+03  0.21574414572E+02  0.42076159598E+03  0.46636536240E+03  0.15041390291E+03 0.  0.
        -11    1    4    4    0    0 -0.14835178620E+03  0.39000784590E+02  0.38255550771E+03  0.41216262585E+03  0.51100000000E-03 0. -1.
     200002    1    4    4    0    0  0.16569643841E+02 -0.17426370018E+02  0.38206088274E+02  0.54202736557E+02  0.30000000000E+02 0. -1.
     200000    1    3    3    0    0 -0.37584015308E+02 -0.18567313461E+03  0.94260611278E+03  0.10836943088E+04  0.50000000000E+03 0.  1.
    -200001    1    1    2    0    0  0.16936615767E+03  0.16409872004E+03  0.77187313145E+03  0.10683638970E+04  0.70000000000E+03 0. -1.
<mgrwt>
<rscale>  0 0.15155489E+04</rscale>
<asrwt>0</asrwt>
<pdfrwt beam="1">  1        4 0.33954746E+00 0.15155489E+04</pdfrwt>
<pdfrwt beam="2">  1       -4 0.34513052E-01 0.15155489E+04</pdfrwt>
<totfact> 0.27805182E-01</totfact>
</mgrwt>
</event>
<event>
 8    1  0.5361529E-011  0.1463632E+04  0.7818608E-02  0.8909004E-01
         -4   -1    0    0    0  501 -0.00000000000E+00  0.00000000000E+00  0.15557187368E+03  0.15557705737E+03  0.12700000000E+01 0. -1.
          4   -1    0    0  501    0  0.00000000000E+00 -0.00000000000E+00 -0.34424288469E+04  0.34424290811E+04  0.12700000000E+01 0.  1.
     200001    2    1    2    0    0 -0.18278745530E+03 -0.81794844816E+02 -0.18241804360E+04  0.19641382421E+04  0.70007365365E+03 0.  0.
    5000001    2    3    3    0    0 -0.47260519819E+02 -0.87213516690E+02 -0.65184959820E+03  0.68243761188E+03  0.17599273056E+03 0.  0.
        -11    1    4    4    0    0 -0.33064867948E+02  0.13274328160E+02 -0.18195354101E+02  0.40007051774E+02  0.51100000000E-03 0. -1.
     200002    1    4    4    0    0 -0.14195651871E+02 -0.10048784485E+03 -0.63365424410E+03  0.64243056010E+03  0.30000000000E+02 0. -1.
     200000    1    3    3    0    0 -0.13552693548E+03  0.54186718741E+01 -0.11723308378E+04  0.12817006302E+04  0.50000000000E+03 0.  1.
    -200001    1    1    2    0    0  0.18278745530E+03  0.81794844816E+02 -0.14626765372E+04  0.16338678964E+04  0.70000000000E+03 0. -1.
<mgrwt>
<rscale>  0 0.14636323E+04</rscale>
<asrwt>0</asrwt>
<pdfrwt beam="1">  1        4 0.49177589E+00 0.14636323E+04</pdfrwt>
<pdfrwt beam="2">  1       -4 0.22224942E-01 0.14636323E+04</pdfrwt>
<totfact> 0.53427629E-02</totfact>
</mgrwt>
</event>
<event>
 8    1  0.5361529E-011  0.1429573E+04  0.7818608E-02  0.8932686E-01
         -4   -1    0    0    0  501 -0.00000000000E+00  0.00000000000E+00  0.14527445485E+04  0.14527451037E+04  0.12700000000E+01 0. -1.
          4   -1    0    0  501    0  0.00000000000E+00 -0.00000000000E+00 -0.35169101633E+03  0.35169330939E+03  0.12700000000E+01 0.  1.
     200001    2    1    2    0    0 -0.14269290721E+03  0.13365833962E+01  0.50845229006E+03  0.87624700799E+03  0.69922960144E+03 0.  0.
    5000001    2    3    3    0    0 -0.11241597931E+02  0.41352545494E+01  0.85584929706E+02  0.20833677171E+03  0.18956781478E+03 0.  0.
        -11    1    4    4    0    0 -0.42563207556E+02 -0.71160314283E+02 -0.46724280978E+01  0.83049675201E+02  0.51100000000E-03 0. -1.
     200002    1    4    4    0    0  0.31321609624E+02  0.75295568833E+02  0.90257357803E+02  0.12528709651E+03  0.30000000000E+02 0. -1.
     200000    1    3    3    0    0 -0.13145130927E+03 -0.27986711532E+01  0.42286736036E+03  0.66791023628E+03  0.50000000000E+03 0. -1.
    -200001    1    1    2    0    0  0.14269290721E+03 -0.13365833962E+01  0.59260124215E+03  0.92819140505E+03  0.70000000000E+03 0.  1.
<mgrwt>
<rscale>  0 0.14295731E+04</rscale>
<asrwt>0</asrwt>
<pdfrwt beam="1">  1        4 0.50241777E-01 0.14295731E+04</pdfrwt>
<pdfrwt beam="2">  1       -4 0.20753514E+00 0.14295731E+04</pdfrwt>
<totfact> 0.87597523E-01</totfact>
</mgrwt>
</event>
<event>
 8    1  0.5361529E-011  0.1803592E+04  0.7818608E-02  0.8704392E-01
         -4   -1    0    0    0  501 -0.00000000000E+00  0.00000000000E+00  0.10420664432E+04  0.10420672171E+04  0.12700000000E+01 0. -1.
          4   -1    0    0  501    0  0.00000000000E+00 -0.00000000000E+00 -0.78040546450E+03  0.78040649787E+03  0.12700000000E+01 0.  1.
     200001    2    1    2    0    0 -0.49991049703E+03 -0.12139014922E+03 -0.11146640945E+03  0.87702666666E+03  0.70150191748E+03 0.  0.
    5000001    2    3    3    0    0 -0.16223222968E+03 -0.97533886158E+02 -0.26151759543E+02  0.26721167585E+03  0.18677796949E+03 0.  0.
        -11    1    4    4    0    0 -0.15477852340E+03  0.79703153855E+01 -0.26723610822E+02  0.15727068579E+03  0.51100000000E-03 0. -1.
     200002    1    4    4    0    0 -0.74537062782E+01 -0.10550420154E+03  0.57185127880E+00  0.10994099006E+03  0.30000000000E+02 0. -1.
     200000    1    3    3    0    0 -0.33767826734E+03 -0.23856263063E+02 -0.85314649906E+02  0.60981499081E+03  0.50000000000E+03 0.  1.
    -200001    1    1    2    0    0  0.49991049703E+03  0.12139014922E+03  0.37312738814E+03  0.94544704830E+03  0.70000000000E+03 0.  1.
<mgrwt>
<rscale>  0 0.18035920E+04</rscale>
<asrwt>0</asrwt>
<pdfrwt beam="1">  1        4 0.11148662E+00 0.18035920E+04</pdfrwt>
<pdfrwt beam="2">  1       -4 0.14886676E+00 0.18035920E+04</pdfrwt>
<totfact> 0.36703043E-01</totfact>
</mgrwt>
</event>
<event>
 8    1  0.5361529E-011  0.1446217E+04  0.7818608E-02  0.8921027E-01
         -4   -1    0    0    0  501 -0.00000000000E+00  0.00000000000E+00  0.48474879253E+03  0.48475045617E+03  0.12700000000E+01 0. -1.
          4   -1    0    0  501    0  0.00000000000E+00 -0.00000000000E+00 -0.10786706954E+04  0.10786714431E+04  0.12700000000E+01 0.  1.
     200001    2    1    2    0    0 -0.27270199744E+02  0.18170939349E+03 -0.31375861947E+03  0.78737200853E+03  0.69838974867E+03 0.  0.
    5000001    2    3    3    0    0 -0.82164309427E+02  0.12888091594E+03 -0.13088472791E+03  0.24955505869E+03  0.14759963104E+03 0.  0.
        -11    1    4    4    0    0 -0.70034400703E+02  0.12269654422E+03 -0.15424615141E+03  0.20916771851E+03  0.51100000000E-03 0. -1.
     200002    1    4    4    0    0 -0.12129908724E+02  0.61843717194E+01  0.23361423491E+02  0.40387340179E+02  0.30000000000E+02 0. -1.
     200000    1    3    3    0    0  0.54894109682E+02  0.52828477552E+02 -0.18287389155E+03  0.53781694983E+03  0.50000000000E+03 0. -1.
    -200001    1    1    2    0    0  0.27270199744E+02 -0.18170939349E+03 -0.28016328344E+03  0.77604989071E+03  0.70000000000E+03 0.  1.
<mgrwt>
<rscale>  0 0.14462174E+04</rscale>
<asrwt>0</asrwt>
<pdfrwt beam="1">  1        4 0.15409599E+00 0.14462174E+04</pdfrwt>
<pdfrwt beam="2">  1       -4 0.69250000E-01 0.14462174E+04</pdfrwt>
<totfact> 0.10360793E+00</totfact>
</mgrwt>
</event>
<event>
 8    1  0.5361529E-011  0.1573721E+04  0.7818608E-02  0.8836857E-01
         -4   -1    0    0    0  501 -0.00000000000E+00  0.00000000000E+00  0.91302015575E+03  0.91302103902E+03  0.12700000000E+01 0. -1.
          4   -1    0    0  501    0  0.00000000000E+00 -0.00000000000E+00 -0.67813163206E+03  0.67813282128E+03  0.12700000000E+01 0.  1.
     200001    2    1    2    0    0  0.27998437140E+03  0.19480237019E+03  0.39070965089E+01  0.77893982979E+03  0.70028050192E+03 0.  0.
    5000001    2    3    3    0    0  0.44179119599E+02 -0.11132662251E+03  0.30870873033E+02  0.14644783601E+03  0.78412667222E+02 0.  0.
        -11    1    4    4    0    0 -0.18591766948E+02 -0.19612438378E+02 -0.86336557720E+00  0.27037879682E+02  0.51100000000E-03 0. -1.
     200002    1    4    4    0    0  0.62770886547E+02 -0.91714184136E+02  0.31734238610E+02  0.11940995633E+03  0.30000000000E+02 0. -1.
     200000    1    3    3    0    0  0.23580525181E+03  0.30612899270E+03 -0.26963776524E+02  0.63249199378E+03  0.50000000000E+03 0.  1.
    -200001    1    1    2    0    0 -0.27998437140E+03 -0.19480237019E+03  0.23098142718E+03  0.81221403051E+03  0.70000000000E+03 0.  1.
<mgrwt>
<rscale>  0 0.15737211E+04</rscale>
<asrwt>0</asrwt>
<pdfrwt beam="1">  1        4 0.96876095E-01 0.15737211E+04</pdfrwt>
<pdfrwt beam="2">  1       -4 0.13043160E+00 0.15737211E+04</pdfrwt>
<totfact> 0.73866280E-01</totfact>
</mgrwt>
</event>
<event>
 8    1  0.5361529E-011  0.2370027E+04  0.7818608E-02  0.8450811E-01
          4   -1    0    0  501    0  0.00000000000E+00  0.00000000000E+00  0.16485935959E+04  0.16485940851E+04  0.12700000000E+01 0.  1.
         -4   -1    0    0    0  501 -0.00000000000E+00 -0.00000000000E+00 -0.85178952712E+03  0.85179047389E+03  0.12700000000E+01 0. -1.
     200001    2    1    2    0    0 -0.41528627483E+03 -0.86138213125E+03  0.41669074750E+03  0.12558251980E+04  0.69930242577E+03 0.  0.
    5000001    2    3    3    0    0 -0.14755038291E+03 -0.38843208158E+03  0.69230611018E+02  0.43968011052E+03  0.12599652611E+03 0.  0.
        -11    1    4    4    0    0 -0.14501610476E+02 -0.20694613836E+01 -0.15451389660E+02  0.21291425962E+02  0.51100000000E-03 0. -1.
     200002    1    4    4    0    0 -0.13304877243E+03 -0.38636262020E+03  0.84682000678E+02  0.41838868456E+03  0.30000000000E+02 0. -1.
     200000    1    3    3    0    0 -0.26773589193E+03 -0.47295004967E+03  0.34746013648E+03  0.81614508744E+03  0.50000000000E+03 0. -1.
    -200001    1    1    2    0    0  0.41528627483E+03  0.86138213125E+03  0.38011332132E+03  0.12445593610E+04  0.70000000000E+03 0.  1.
<mgrwt>
<rscale>  0 0.23700266E+04</rscale>
<asrwt>0</asrwt>
<pdfrwt beam="1">  1        4 0.23551347E+00 0.23700266E+04</pdfrwt>
<pdfrwt beam="2">  1       -4 0.12168432E+00 0.23700266E+04</pdfrwt>
<totfact> 0.72267456E-02</totfact>
</mgrwt>
</event>
<event>
 8    1  0.5361529E-011  0.1706946E+04  0.7818608E-02  0.8757413E-01
         -4   -1    0    0    0  501 -0.00000000000E+00  0.00000000000E+00  0.94733772008E+03  0.94733857136E+03  0.12700000000E+01 0. -1.
          4   -1    0    0  501    0  0.00000000000E+00 -0.00000000000E+00 -0.76890722350E+03  0.76890827232E+03  0.12700000000E+01 0.  1.
     200001    2    1    2    0    0 -0.38408158115E+03 -0.19746103607E+02 -0.20969468301E+03  0.82824362037E+03  0.70292749627E+03 0.  0.
    5000001    2    3    3    0    0 -0.12598710418E+03 -0.13133594382E+02 -0.39799842402E+02  0.24043349695E+03  0.20044699369E+03 0.  0.
        -11    1    4    4    0    0 -0.99148012005E+02 -0.88181230797E+02  0.22939379830E+02  0.13465687096E+03  0.51100000000E-03 0. -1.
     200002    1    4    4    0    0 -0.26839092173E+02  0.75047636416E+02 -0.62739222232E+02  0.10577662599E+03  0.30000000000E+02 0. -1.
     200000    1    3    3    0    0 -0.25809447697E+03 -0.66125092252E+01 -0.16989484061E+03  0.58781012341E+03  0.50000000000E+03 0.  1.
    -200001    1    1    2    0    0  0.38408158115E+03  0.19746103607E+02  0.38812517960E+03  0.88800322332E+03  0.70000000000E+03 0. -1.
<mgrwt>
<rscale>  0 0.17069463E+04</rscale>
<asrwt>0</asrwt>
<pdfrwt beam="1">  1        4 0.10984402E+00 0.17069463E+04</pdfrwt>
<pdfrwt beam="2">  1       -4 0.13533410E+00 0.17069463E+04</pdfrwt>
<totfact> 0.49214325E-01</totfact>
</mgrwt>
</event>
<event>
 8    1  0.5361529E-011  0.1897366E+04  0.7818608E-02  0.8656168E-01
         -4   -1    0    0    0  501 -0.00000000000E+00  0.00000000000E+00  0.64434424060E+03  0.64434549218E+03  0.12700000000E+01 0. -1.
          4   -1    0    0  501    0  0.00000000000E+00 -0.00000000000E+00 -0.13967656048E+04  0.13967661821E+04  0.12700000000E+01 0.  1.
     200001    2    1    2    0    0 -0.99269026654E+02  0.53026618816E+03 -0.74679835654E+03  0.11573310521E+04  0.70047898533E+03 0.  0.
    5000001    2    3    3    0    0  0.45939611985E+02  0.14632442973E+03 -0.31170925295E+03  0.37771617882E+03  0.14827530703E+03 0.  0.
        -11    1    4    4    0    0 -0.47631129273E+02  0.45338093749E+02 -0.58844200069E+02  0.88243453596E+02  0.51100000000E-03 0. -1.
     200002    1    4    4    0    0  0.93570741258E+02  0.10098633599E+03 -0.25286505289E+03  0.28947272522E+03  0.30000000000E+02 0. -1.
     200000    1    3    3    0    0 -0.14520863864E+03  0.38394175843E+03 -0.43508910359E+03  0.77961487330E+03  0.50000000000E+03 0. -1.
    -200001    1    1    2    0    0  0.99269026654E+02 -0.53026618816E+03 -0.56230076243E+01  0.88378062220E+03  0.70000000000E+03 0. -1.
<mgrwt>
<rscale>  0 0.18973663E+04</rscale>
<asrwt>0</asrwt>
<pdfrwt beam="1">  1        4 0.19953807E+00 0.18973663E+04</pdfrwt>
<pdfrwt beam="2">  1       -4 0.92049308E-01 0.18973663E+04</pdfrwt>
<totfact> 0.25122607E-01</totfact>
</mgrwt>
</event>
<event>
 8    1  0.5361529E-011  0.2060282E+04  0.7818608E-02  0.8578944E-01
          4   -1    0    0  501    0  0.00000000000E+00  0.00000000000E+00  0.18585587020E+04  0.18585591359E+04  0.12700000000E+01 0.  1.
         -4   -1    0    0    0  501 -0.00000000000E+00 -0.00000000000E+00 -0.57097399944E+03  0.57097541185E+03  0.12700000000E+01 0. -1.
     200001    2    1    2    0    0 -0.45395610509E+03 -0.54040757967E+03  0.95283806103E+03  0.13806437948E+04  0.70722020630E+03 0.  0.
    5000001    2    3    3    0    0 -0.14139544453E+03 -0.14440510883E+03  0.30463359449E+03  0.41904036625E+03  0.20481136314E+03 0.  0.
        -11    1    4    4    0    0 -0.99090627687E+02 -0.12951415541E+03  0.68594660499E+02  0.17691268015E+03  0.51100000000E-03 0. -1.
     200002    1    4    4    0    0 -0.42304816846E+02 -0.14890953419E+02  0.23603893399E+03  0.24212768611E+03  0.30000000000E+02 0. -1.
     200000    1    3    3    0    0 -0.31256066055E+03 -0.39600247084E+03  0.64820446654E+03  0.96160342859E+03  0.50000000000E+03 0.  1.
    -200001    1    1    2    0    0  0.45395610509E+03  0.54040757967E+03  0.33474664151E+03  0.10488907529E+04  0.70000000000E+03 0.  1.
<mgrwt>
<rscale>  0 0.20602824E+04</rscale>
<asrwt>0</asrwt>
<pdfrwt beam="1">  1        4 0.26550852E+00 0.20602824E+04</pdfrwt>
<pdfrwt beam="2">  1       -4 0.81567845E-01 0.20602824E+04</pdfrwt>
<totfact> 0.12522189E-01</totfact>
</mgrwt>
</event>
<event>
 8    1  0.5361529E-011  0.2263468E+04  0.7818608E-02  0.8492466E-01
          4   -1    0    0  501    0  0.00000000000E+00  0.00000000000E+00  0.90053607474E+03  0.90053697026E+03  0.12700000000E+01 0.  1.
         -4   -1    0    0    0  501 -0.00000000000E+00 -0.00000000000E+00 -0.14222867072E+04  0.14222872742E+04  0.12700000000E+01 0. -1.
     200001    2    1    2    0    0 -0.72263504935E+03 -0.41294528536E+03  0.60824959032E+02  0.10890821551E+04  0.69976784843E+03 0.  0.
    5000001    2    3    3    0    0 -0.19970104373E+03 -0.21010653348E+03  0.80077129572E+02  0.33743451189E+03  0.15305045199E+03 0.  0.
        -11    1    4    4    0    0  0.20770018931E+02 -0.14253331909E+02 -0.10780985584E+02  0.27400379692E+02  0.51100000000E-03 0. -1.
     200002    1    4    4    0    0 -0.22047106266E+03 -0.19585320157E+03  0.90858115156E+02  0.31003413220E+03  0.30000000000E+02 0. -1.
     200000    1    3    3    0    0 -0.52293400561E+03 -0.20283875188E+03 -0.19252170540E+02  0.75164764322E+03  0.50000000000E+03 0.  1.
    -200001    1    1    2    0    0  0.72263504935E+03  0.41294528536E+03 -0.58257559150E+03  0.12337420894E+04  0.70000000000E+03 0.  1.
<mgrwt>
<rscale>  0 0.22634683E+04</rscale>
<asrwt>0</asrwt>
<pdfrwt beam="1">  1        4 0.12864812E+00 0.22634683E+04</pdfrwt>
<pdfrwt beam="2">  1       -4 0.20318392E+00 0.22634683E+04</pdfrwt>
<totfact> 0.10212100E-01</totfact>
</mgrwt>
</event>
<event>
 8    1  0.5361529E-011  0.1940799E+04  0.7818608E-02  0.8634810E-01
          4   -1    0    0  501    0  0.00000000000E+00  0.00000000000E+00  0.18267731217E+04  0.18267735632E+04  0.12700000000E+01 0.  1.
         -4   -1    0    0    0  501 -0.00000000000E+00 -0.00000000000E+00 -0.51548442199E+03  0.51548598644E+03  0.12700000000E+01 0. -1.
     200001    2    1    2    0    0 -0.52202673394E+03  0.26458427276E+03  0.25671466774E+03  0.94775492888E+03  0.69987158553E+03 0.  0.
    5000001    2    3    3    0    0 -0.12953306238E+03  0.20886354506E+03  0.80892486626E+02  0.28588672366E+03  0.12159288493E+03 0.  0.
        -11    1    4    4    0    0  0.20646872140E+02  0.35604144254E+02  0.24390833471E+02  0.47842044008E+02  0.51100000000E-03 0. -1.
     200002    1    4    4    0    0 -0.15017993452E+03  0.17325940080E+03  0.56501653155E+02  0.23804467965E+03  0.30000000000E+02 0. -1.
     200000    1    3    3    0    0 -0.39249367156E+03  0.55720727707E+02  0.17582218112E+03  0.66186820522E+03  0.50000000000E+03 0.  1.
    -200001    1    1    2    0    0  0.52202673394E+03 -0.26458427276E+03  0.10545740320E+04  0.13945046208E+04  0.70000000000E+03 0.  1.
<mgrwt>
<rscale>  0 0.19407993E+04</rscale>
<asrwt>0</asrwt>
<pdfrwt beam="1">  1        4 0.26096773E+00 0.19407993E+04</pdfrwt>
<pdfrwt beam="2">  1       -4 0.73640776E-01 0.19407993E+04</pdfrwt>
<totfact> 0.16995103E-01</totfact>
</mgrwt>
</event>
<event>
 8    1  0.5361529E-011  0.1425722E+04  0.7818608E-02  0.8935408E-01
         -4   -1    0    0    0  501 -0.00000000000E+00  0.00000000000E+00  0.44224640585E+03  0.44224822937E+03  0.12700000000E+01 0. -1.
          4   -1    0    0  501    0  0.00000000000E+00 -0.00000000000E+00 -0.11490618399E+04  0.11490625417E+04  0.12700000000E+01 0.  1.
     200001    2    1    2    0    0 -0.11409827150E+03 -0.76846679065E+02 -0.35468839627E+03  0.79574978764E+03  0.69892062385E+03 0.  0.
    5000001    2    3    3    0    0 -0.68661347436E+02  0.54537114183E+02 -0.19473157933E+03  0.25269141280E+03  0.13506992508E+03 0.  0.
        -11    1    4    4    0    0 -0.92510122512E+02 -0.16792116797E+01 -0.10255927547E+03  0.13812801130E+03  0.51100000000E-03 0. -1.
     200002    1    4    4    0    0  0.23848775077E+02  0.56216325863E+02 -0.92172303852E+02  0.11456340150E+03  0.30000000000E+02 0. -1.
     200000    1    3    3    0    0 -0.45436924068E+02 -0.13138379325E+03 -0.15995681694E+03  0.54305837484E+03  0.50000000000E+03 0. -1.
    -200001    1    1    2    0    0  0.11409827150E+03  0.76846679065E+02 -0.35212703775E+03  0.79556098343E+03  0.70000000000E+03 0. -1.
<mgrwt>
<rscale>  0 0.14257215E+04</rscale>
<asrwt>0</asrwt>
<pdfrwt beam="1">  1        4 0.16415187E+00 0.14257215E+04</pdfrwt>
<pdfrwt beam="2">  1       -4 0.63178239E-01 0.14257215E+04</pdfrwt>
<totfact> 0.10671827E+00</totfact>
</mgrwt>
</event>
<event>
 8    1  0.5361529E-011  0.1568540E+04  0.7818608E-02  0.8840112E-01
          4   -1    0    0  501    0  0.00000000000E+00  0.00000000000E+00  0.66943235569E+03  0.66943356037E+03  0.12700000000E+01 0.  1.
         -4   -1    0    0    0  501 -0.00000000000E+00 -0.00000000000E+00 -0.91880452757E+03  0.91880540528E+03  0.12700000000E+01 0. -1.
     200001    2    1    2    0    0  0.60930090251E+02  0.32862613732E+03 -0.24186401089E+03  0.81250448369E+03  0.69996980094E+03 0.  0.
    5000001    2    3    3    0    0 -0.32531828755E+02  0.10420727383E+03 -0.10685528876E+03  0.24038009893E+03  0.18559920103E+03 0.  0.
        -11    1    4    4    0    0 -0.66399114151E+01  0.12804465472E+03 -0.47663210804E+01  0.12830526039E+03  0.51100000000E-03 0. -1.
     200002    1    4    4    0    0 -0.25891917340E+02 -0.23837380887E+02 -0.10208896768E+03  0.11207483854E+03  0.30000000000E+02 0. -1.
     200000    1    3    3    0    0  0.93461919007E+02  0.22441886348E+03 -0.13500872213E+03  0.57212438476E+03  0.50000000000E+03 0.  1.
    -200001    1    1    2    0    0 -0.60930090251E+02 -0.32862613732E+03 -0.75081609824E+01  0.77573448196E+03  0.70000000000E+03 0.  1.
<mgrwt>
<rscale>  0 0.15685396E+04</rscale>
<asrwt>0</asrwt>
<pdfrwt beam="1">  1        4 0.95633342E-01 0.15685396E+04</pdfrwt>
<pdfrwt beam="2">  1       -4 0.13125794E+00 0.15685396E+04</pdfrwt>
<totfact> 0.74963251E-01</totfact>
</mgrwt>
</event>
<event>
 8    1  0.5361529E-011  0.1619315E+04  0.7818608E-02  0.8808769E-01
         -4   -1    0    0    0  501 -0.00000000000E+00  0.00000000000E+00  0.23980119626E+04  0.23980122989E+04  0.12700000000E+01 0. -1.
          4   -1    0    0  501    0  0.00000000000E+00 -0.00000000000E+00 -0.27336856457E+03  0.27337151460E+03  0.12700000000E+01 0.  1.
     200001    2    1    2    0    0 -0.15313547738E+03 -0.21487656936E+03  0.55090588754E+03  0.92889359361E+03  0.69980254132E+03 0.  0.
    5000001    2    3    3    0    0 -0.13780851477E+03 -0.39033928113E+02  0.32176753601E+02  0.18711501165E+03  0.11602521203E+03 0.  0.
        -11    1    4    4    0    0 -0.14224968459E+03 -0.34860383732E+02  0.46018312298E+02  0.15351841645E+03  0.51100000000E-03 0. -1.
     200002    1    4    4    0    0  0.44411698275E+01 -0.41735443814E+01 -0.13841558697E+02  0.33596595204E+02  0.30000000000E+02 0. -1.
     200000    1    3    3    0    0 -0.15326962609E+02 -0.17584264124E+03  0.51872913394E+03  0.74177858197E+03  0.50000000000E+03 0.  1.
    -200001    1    1    2    0    0  0.15313547738E+03  0.21487656936E+03  0.15737375105E+04  0.17424902199E+04  0.70000000000E+03 0. -1.
<mgrwt>
<rscale>  0 0.16193153E+04</rscale>
<asrwt>0</asrwt>
<pdfrwt beam="1">  1        4 0.39052887E-01 0.16193153E+04</pdfrwt>
<pdfrwt beam="2">  1       -4 0.34257337E+00 0.16193153E+04</pdfrwt>
<totfact> 0.20598466E-01</totfact>
</mgrwt>
</event>
<event>
 8    1  0.5361529E-011  0.1777483E+04  0.7818608E-02  0.8718366E-01
          4   -1    0    0  501    0  0.00000000000E+00  0.00000000000E+00  0.67757556581E+03  0.67757675601E+03  0.12700000000E+01 0.  1.
         -4   -1    0    0    0  501 -0.00000000000E+00 -0.00000000000E+00 -0.11657146882E+04  0.11657153800E+04  0.12700000000E+01 0. -1.
     200001    2    1    2    0    0  0.47566107388E+03  0.11803308932E+03 -0.49692891879E+03  0.98873814244E+03  0.70034241382E+03 0.  0.
    5000001    2    3    3    0    0  0.80968049609E+01  0.10420115224E+03 -0.17467025405E+03  0.23199623461E+03  0.11130640974E+03 0.  0.
        -11    1    4    4    0    0  0.19009162332E+02 -0.17902236099E+02 -0.36271033545E+02  0.44692574155E+02  0.51100000000E-03 0. -1.
     200002    1    4    4    0    0 -0.10912357371E+02  0.12210338834E+03 -0.13839922050E+03  0.18730366046E+03  0.30000000000E+02 0. -1.
     200000    1    3    3    0    0  0.46756426892E+03  0.13831937085E+02 -0.32225866474E+03  0.75674190782E+03  0.50000000000E+03 0.  1.
    -200001    1    1    2    0    0 -0.47566107388E+03 -0.11803308932E+03  0.87897964219E+01  0.85455399355E+03  0.70000000000E+03 0.  1.
<mgrwt>
<rscale>  0 0.17774831E+04</rscale>
<asrwt>0</asrwt>
<pdfrwt beam="1">  1        4 0.96796645E-01 0.17774831E+04</pdfrwt>
<pdfrwt beam="2">  1       -4 0.16653080E+00 0.17774831E+04</pdfrwt>
<totfact> 0.38090318E-01</totfact>
</mgrwt>
</event>
<event>
 8    1  0.5361529E-011  0.1524512E+04  0.7818608E-02  0.8868315E-01
         -4   -1    0    0    0  501 -0.00000000000E+00  0.00000000000E+00  0.66421117820E+03  0.66421239234E+03  0.12700000000E+01 0. -1.
          4   -1    0    0  501    0  0.00000000000E+00 -0.00000000000E+00 -0.87477027451E+03  0.87477119641E+03  0.12700000000E+01 0.  1.
     200001    2    1    2    0    0  0.14524136549E+03  0.21467150518E+03 -0.26125770233E+03  0.79081966418E+03  0.69997231719E+03 0.  0.
    5000001    2    3    3    0    0  0.45194314152E+02  0.19579471538E+01 -0.15486367283E+03  0.22816865355E+03  0.16134378733E+03 0.  0.
        -11    1    4    4    0    0  0.71946209445E+02  0.58074515721E+02 -0.11801629599E+03  0.14992248847E+03  0.51100000000E-03 0. -1.
     200002    1    4    4    0    0 -0.26751895293E+02 -0.56116568568E+02 -0.36847376843E+02  0.78246165080E+02  0.30000000000E+02 0. -1.
     200000    1    3    3    0    0  0.10004705134E+03  0.21271355802E+03 -0.10639402950E+03  0.56265101063E+03  0.50000000000E+03 0. -1.
    -200001    1    1    2    0    0 -0.14524136549E+03 -0.21467150518E+03  0.50698606017E+02  0.74816392458E+03  0.70000000000E+03 0. -1.
<mgrwt>
<rscale>  0 0.15245115E+04</rscale>
<asrwt>0</asrwt>
<pdfrwt beam="1">  1        4 0.12496733E+00 0.15245115E+04</pdfrwt>
<pdfrwt beam="2">  1       -4 0.94887464E-01 0.15245115E+04</pdfrwt>
<totfact> 0.86757576E-01</totfact>
</mgrwt>
</event>
<event>
 8    1  0.5361529E-011  0.1919636E+04  0.7818608E-02  0.8645144E-01
         -4   -1    0    0    0  501 -0.00000000000E+00  0.00000000000E+00  0.13242670515E+04  0.13242676605E+04  0.12700000000E+01 0. -1.
          4   -1    0    0  501    0  0.00000000000E+00 -0.00000000000E+00 -0.69566670683E+03  0.69566786607E+03  0.12700000000E+01 0.  1.
     200001    2    1    2    0    0  0.85255629131E+02 -0.39721080872E+03 -0.22851416616E+03  0.84108429186E+03  0.70011364293E+03 0.  0.
    5000001    2    3    3    0    0  0.91262515260E+02 -0.11572560738E+03  0.32770114788E+02  0.21057697491E+03  0.14679073215E+03 0.  0.
        -11    1    4    4    0    0  0.25310609660E+02  0.46085275624E+01 -0.43652503047E+02  0.50669581706E+02  0.51100000000E-03 0. -1.
     200002    1    4    4    0    0  0.65951905600E+02 -0.12033413494E+03  0.76422617835E+02  0.15990739320E+03  0.30000000000E+02 0. -1.
     200000    1    3    3    0    0 -0.60068861288E+01 -0.28148520134E+03 -0.26128428095E+03  0.63050731695E+03  0.50000000000E+03 0.  1.
    -200001    1    1    2    0    0 -0.85255629131E+02  0.39721080872E+03  0.85711451088E+03  0.11788512347E+04  0.70000000000E+03 0.  1.
<mgrwt>
<rscale>  0 0.19196357E+04</rscale>
<asrwt>0</asrwt>
<pdfrwt beam="1">  1        4 0.99381084E-01 0.19196357E+04</pdfrwt>
<pdfrwt beam="2">  1       -4 0.18918113E+00 0.19196357E+04</pdfrwt>
<totfact> 0.24561353E-01</totfact>
</mgrwt>
</event>
<event>
 8    1  0.5361529E-011  0.1420611E+04  0.7818608E-02  0.8939033E-01
          4   -1    0    0  501    0  0.00000000000E+00  0.00000000000E+00  0.76085973108E+03  0.76086079099E+03  0.12700000000E+01 0.  1.
         -4   -1    0    0    0  501 -0.00000000000E+00 -0.00000000000E+00 -0.66310834586E+03  0.66310956202E+03  0.12700000000E+01 0. -1.
     200001    2    1    2    0    0  0.89302431467E+02  0.26375053743E+01 -0.32169112769E+02  0.70643204986E+03  0.70002107722E+03 0.  0.
    5000001    2    3    3    0    0 -0.26033161021E+02 -0.12732897017E+02 -0.45592638084E+02  0.19289652120E+03  0.18517701559E+03 0.  0.
        -11    1    4    4    0    0  0.69403794311E+02 -0.21204349631E+02 -0.56410133871E+02  0.91916344094E+02  0.51100000000E-03 0. -1.
     200002    1    4    4    0    0 -0.95436955332E+02  0.84714526146E+01  0.10817495787E+02  0.10098017710E+03  0.30000000000E+02 0. -1.
     200000    1    3    3    0    0  0.11533559249E+03  0.15370402391E+02  0.13423525315E+02  0.51353552866E+03  0.50000000000E+03 0.  1.
    -200001    1    1    2    0    0 -0.89302431467E+02 -0.26375053743E+01  0.12992049799E+03  0.71753830316E+03  0.70000000000E+03 0.  1.
<mgrwt>
<rscale>  0 0.14206112E+04</rscale>
<asrwt>0</asrwt>
<pdfrwt beam="1">  1        4 0.10869441E+00 0.14206112E+04</pdfrwt>
<pdfrwt beam="2">  1       -4 0.94729926E-01 0.14206112E+04</pdfrwt>
<totfact> 0.12380275E+00</totfact>
</mgrwt>
</event>
<event>
 8    1  0.5361529E-011  0.2137653E+04  0.7818608E-02  0.8544836E-01
          4   -1    0    0  501    0  0.00000000000E+00  0.00000000000E+00  0.26964728754E+04  0.26964731745E+04  0.12700000000E+01 0.  1.
         -4   -1    0    0    0  501 -0.00000000000E+00 -0.00000000000E+00 -0.42365980040E+03  0.42366170393E+03  0.12700000000E+01 0. -1.
     200001    2    1    2    0    0 -0.15987735807E+03  0.27637066055E+03  0.22193920505E+04  0.23489051348E+04  0.69979478903E+03 0.  0.
    5000001    2    3    3    0    0 -0.57201233711E+02  0.43974345014E+02  0.59985307302E+03  0.63500404850E+03  0.19545001469E+03 0.  0.
        -11    1    4    4    0    0 -0.24670373744E+02 -0.62520794917E+02  0.38816618600E+03  0.39394221034E+03  0.51100000000E-03 0. -1.
     200002    1    4    4    0    0 -0.32530859967E+02  0.10649513993E+03  0.21168688702E+03  0.24106183816E+03  0.30000000000E+02 0. -1.
     200000    1    3    3    0    0 -0.10267612436E+03  0.23239631554E+03  0.16195389775E+04  0.17139010863E+04  0.50000000000E+03 0.  1.
    -200001    1    1    2    0    0  0.15987735807E+03 -0.27637066055E+03  0.53421024539E+02  0.77122974366E+03  0.70000000000E+03 0. -1.
<mgrwt>
<rscale>  0 0.21376535E+04</rscale>
<asrwt>0</asrwt>
<pdfrwt beam="1">  1        4 0.38521055E+00 0.21376535E+04</pdfrwt>
<pdfrwt beam="2">  1       -4 0.60522989E-01 0.21376535E+04</pdfrwt>
<totfact> 0.41199057E-02</totfact>
</mgrwt>
</event>
<event>
 8    1  0.5361529E-011  0.1640120E+04  0.7818608E-02  0.8796273E-01
         -4   -1    0    0    0  501 -0.00000000000E+00  0.00000000000E+00  0.10816092213E+04  0.10816099669E+04  0.12700000000E+01 0. -1.
          4   -1    0    0  501    0  0.00000000000E+00 -0.00000000000E+00 -0.62175529303E+03  0.62175659008E+03  0.12700000000E+01 0.  1.
     200001    2    1    2    0    0  0.49480477824E+02 -0.38950482930E+03  0.40460607242E+03  0.89887003413E+03  0.70007066407E+03 0.  0.
    5000001    2    3    3    0    0  0.58234036307E+02 -0.66927825890E+02  0.14754154852E+03  0.25063032742E+03  0.18214421654E+03 0.  0.
        -11    1    4    4    0    0  0.36915065435E+01  0.51616410529E+02  0.92241867486E+02  0.10576598307E+03  0.51100000000E-03 0. -1.
     200002    1    4    4    0    0  0.54542529763E+02 -0.11854423642E+03  0.55299681035E+02  0.14486434435E+03  0.30000000000E+02 0. -1.
     200000    1    3    3    0    0 -0.87535584828E+01 -0.32257700341E+03  0.25706452390E+03  0.64823970672E+03  0.50000000000E+03 0. -1.
    -200001    1    1    2    0    0 -0.49480477824E+02  0.38950482930E+03  0.55247855876E+02  0.80449652287E+03  0.70000000000E+03 0.  1.
<mgrwt>
<rscale>  0 0.16401195E+04</rscale>
<asrwt>0</asrwt>
<pdfrwt beam="1">  1        4 0.88822330E-01 0.16401195E+04</pdfrwt>
<pdfrwt beam="2">  1       -4 0.15451575E+00 0.16401195E+04</pdfrwt>
<totfact> 0.57788211E-01</totfact>
</mgrwt>
</event>
<event>
 8    1  0.5361529E-011  0.1459849E+04  0.7818608E-02  0.8911601E-01
         -4   -1    0    0    0  501 -0.00000000000E+00  0.00000000000E+00  0.16641811910E+04  0.16641816756E+04  0.12700000000E+01 0. -1.
          4   -1    0    0  501    0  0.00000000000E+00 -0.00000000000E+00 -0.32014956421E+03  0.32015208318E+03  0.12700000000E+01 0.  1.
     200001    2    1    2    0    0  0.11175738621E+03  0.14271731686E+03  0.80667312207E+03  0.10834385881E+04  0.70018547717E+03 0.  0.
    5000001    2    3    3    0    0  0.92392266197E+02  0.15213723496E+02  0.21119247272E+03  0.29525753154E+03  0.18386669400E+03 0.  0.
        -11    1    4    4    0    0  0.22297495186E+02 -0.67847324591E+02  0.21494404393E+02  0.74581815252E+02  0.51100000000E-03 0. -1.
     200002    1    4    4    0    0  0.70094771011E+02  0.83061048088E+02  0.18969806832E+03  0.22067571629E+03  0.30000000000E+02 0. -1.
     200000    1    3    3    0    0  0.19365120008E+02  0.12750359336E+03  0.59548064936E+03  0.78818105658E+03  0.50000000000E+03 0.  1.
    -200001    1    1    2    0    0 -0.11175738621E+03 -0.14271731686E+03  0.53735850470E+03  0.90089517063E+03  0.70000000000E+03 0.  1.
<mgrwt>
<rscale>  0 0.14598491E+04</rscale>
<asrwt>0</asrwt>
<pdfrwt beam="1">  1        4 0.45735867E-01 0.14598491E+04</pdfrwt>
<pdfrwt beam="2">  1       -4 0.23774038E+00 0.14598491E+04</pdfrwt>
<totfact> 0.68248193E-01</totfact>
</mgrwt>
</event>
<event>
 8    1  0.5361529E-011  0.1518254E+04  0.7818608E-02  0.8872404E-01
         -4   -1    0    0    0  501 -0.00000000000E+00  0.00000000000E+00  0.19989547613E+04  0.19989551647E+04  0.12700000000E+01 0. -1.
          4   -1    0    0  501    0  0.00000000000E+00 -0.00000000000E+00 -0.28828581312E+03  0.28828861050E+03  0.12700000000E+01 0.  1.
     200001    2    1    2    0    0  0.16022826549E+03  0.24326848809E+03  0.84562546545E+03  0.11369599488E+04  0.70195643952E+03 0.  0.
    5000001    2    3    3    0    0  0.75225207167E+02  0.12710850343E+03  0.23350362070E+03  0.33358468481E+03  0.18692083250E+03 0.  0.
        -11    1    4    4    0    0 -0.34469299654E+02 -0.13060002861E+02 -0.19423432744E+01  0.36911637609E+02  0.51100000000E-03 0. -1.
     200002    1    4    4    0    0  0.10969450682E+03  0.14016850629E+03  0.23544596397E+03  0.29667304720E+03  0.30000000000E+02 0. -1.
     200000    1    3    3    0    0  0.85003058324E+02  0.11615998466E+03  0.61212184475E+03  0.80337526398E+03  0.50000000000E+03 0. -1.
    -200001    1    1    2    0    0 -0.16022826549E+03 -0.24326848809E+03  0.86504348270E+03  0.11502838264E+04  0.70000000000E+03 0.  1.
<mgrwt>
<rscale>  0 0.15182542E+04</rscale>
<asrwt>0</asrwt>
<pdfrwt beam="1">  1        4 0.41183918E-01 0.15182542E+04</pdfrwt>
<pdfrwt beam="2">  1       -4 0.28556519E+00 0.15182542E+04</pdfrwt>
<totfact> 0.42593813E-01</totfact>
</mgrwt>
</event>
<event>
 8    1  0.5361529E-011  0.1749645E+04  0.7818608E-02  0.8733546E-01
         -4   -1    0    0    0  501 -0.00000000000E+00  0.00000000000E+00  0.14167680378E+04  0.14167686070E+04  0.12700000000E+01 0. -1.
          4   -1    0    0  501    0  0.00000000000E+00 -0.00000000000E+00 -0.54018200437E+03  0.54018349729E+03  0.12700000000E+01 0.  1.
     200001    2    1    2    0    0 -0.29679178319E+03  0.12307748778E+03  0.90239915885E+03  0.11863031907E+04  0.69982682698E+03 0.  0.
    5000001    2    3    3    0    0 -0.12466588328E+02  0.45827429977E+02  0.13761305991E+03  0.22624789801E+03  0.17319118895E+03 0.  0.
        -11    1    4    4    0    0  0.10223119939E+02  0.83394478840E+02  0.59169178040E+01  0.84226843695E+02  0.51100000000E-03 0. -1.
     200002    1    4    4    0    0 -0.22689708268E+02 -0.37567048862E+02  0.13169614211E+03  0.14202105431E+03  0.30000000000E+02 0. -1.
     200000    1    3    3    0    0 -0.28432519486E+03  0.77250057801E+02  0.76478609893E+03  0.96005529267E+03  0.50000000000E+03 0. -1.
    -200001    1    1    2    0    0  0.29679178319E+03 -0.12307748778E+03 -0.25813125461E+02  0.77064891359E+03  0.70000000000E+03 0.  1.
<mgrwt>
<rscale>  0 0.17496452E+04</rscale>
<asrwt>0</asrwt>
<pdfrwt beam="1">  1        4 0.77169006E-01 0.17496452E+04</pdfrwt>
<pdfrwt beam="2">  1       -4 0.20239558E+00 0.17496452E+04</pdfrwt>
<totfact> 0.36470217E-01</totfact>
</mgrwt>
</event>
<event>
 8    1  0.5361529E-011  0.1518203E+04  0.7818608E-02  0.8872437E-01
          4   -1    0    0  501    0  0.00000000000E+00  0.00000000000E+00  0.42448468243E+03  0.42448658226E+03  0.12700000000E+01 0.  1.
         -4   -1    0    0    0  501 -0.00000000000E+00 -0.00000000000E+00 -0.13574888239E+04  0.13574894180E+04  0.12700000000E+01 0. -1.
     200001    2    1    2    0    0  0.70113807165E+02 -0.14278099001E+02 -0.80115696933E+03  0.10660825118E+04  0.69968537380E+03 0.  0.
    5000001    2    3    3    0    0  0.54920377624E+00  0.12701535755E+02 -0.31615323788E+03  0.36551434644E+03  0.18299245066E+03 0.  0.
        -11    1    4    4    0    0 -0.37813658479E+02 -0.48599386116E+02 -0.26484329690E+03  0.27190760381E+03  0.51100000000E-03 0. -1.
     200002    1    4    4    0    0  0.38362862255E+02  0.61300921871E+02 -0.51309940981E+02  0.93606742632E+02  0.30000000000E+02 0. -1.
     200000    1    3    3    0    0  0.69564603389E+02 -0.26979634757E+02 -0.48500373145E+03  0.70056816532E+03  0.50000000000E+03 0. -1.
    -200001    1    1    2    0    0 -0.70113807165E+02  0.14278099001E+02 -0.13184717217E+03  0.71589348850E+03  0.70000000000E+03 0.  1.
<mgrwt>
<rscale>  0 0.15182035E+04</rscale>
<asrwt>0</asrwt>
<pdfrwt beam="1">  1        4 0.60640848E-01 0.15182035E+04</pdfrwt>
<pdfrwt beam="2">  1       -4 0.19392715E+00 0.15182035E+04</pdfrwt>
<totfact> 0.71830450E-01</totfact>
</mgrwt>
</event>
<event>
 8    1  0.5361529E-011  0.2136067E+04  0.7818608E-02  0.8545520E-01
          4   -1    0    0  501    0  0.00000000000E+00  0.00000000000E+00  0.12342184173E+04  0.12342190707E+04  0.12700000000E+01 0.  1.
         -4   -1    0    0    0  501 -0.00000000000E+00 -0.00000000000E+00 -0.92422372505E+03  0.92422459762E+03  0.12700000000E+01 0. -1.
     200001    2    1    2    0    0 -0.54226067981E+02 -0.80134999514E+03  0.81681658122E+02  0.10688432266E+04  0.70046532285E+03 0.  0.
    5000001    2    3    3    0    0 -0.12879240010E+02 -0.31110164475E+03  0.22505294392E+02  0.36488666023E+03  0.18890653337E+03 0.  0.
        -11    1    4    4    0    0  0.19872703125E+02 -0.24088556196E+03  0.89924366622E+02  0.25788984083E+03  0.51100000000E-03 0. -1.
     200002    1    4    4    0    0 -0.32751943135E+02 -0.70216082789E+02 -0.67419072231E+02  0.10699681940E+03  0.30000000000E+02 0. -1.
     200000    1    3    3    0    0 -0.41346827971E+02 -0.49024835038E+03  0.59176363731E+02  0.70395656632E+03  0.50000000000E+03 0. -1.
    -200001    1    1    2    0    0  0.54226067981E+02  0.80134999514E+03  0.22831303412E+03  0.10896004418E+04  0.70000000000E+03 0.  1.
<mgrwt>
<rscale>  0 0.21360670E+04</rscale>
<asrwt>0</asrwt>
<pdfrwt beam="1">  1        4 0.17631703E+00 0.21360670E+04</pdfrwt>
<pdfrwt beam="2">  1       -4 0.13203207E+00 0.21360670E+04</pdfrwt>
<totfact> 0.14700253E-01</totfact>
</mgrwt>
</event>
<event>
 8    1  0.5361529E-011  0.2401274E+04  0.7818608E-02  0.8439027E-01
         -4   -1    0    0    0  501 -0.00000000000E+00  0.00000000000E+00  0.25717375954E+04  0.25717379089E+04  0.12700000000E+01 0. -1.
          4   -1    0    0  501    0  0.00000000000E+00 -0.00000000000E+00 -0.56052620413E+03  0.56052764287E+03  0.12700000000E+01 0.  1.
     200001    2    1    2    0    0 -0.58646165507E+03  0.25950194491E+02  0.20221602718E+04  0.22186296487E+04  0.69898116415E+03 0.  0.
    5000001    2    3    3    0    0 -0.13479004031E+03  0.42540679685E+02  0.55896276921E+03  0.60765807125E+03  0.19191375617E+03 0.  0.
        -11    1    4    4    0    0 -0.62227176407E+02  0.10980936465E+02  0.50127268420E+03  0.50523965242E+03  0.51100000000E-03 0. -1.
     200002    1    4    4    0    0 -0.72562863898E+02  0.31559743220E+02  0.57690085006E+02  0.10241841884E+03  0.30000000000E+02 0. -1.
     200000    1    3    3    0    0 -0.45167161477E+03 -0.16590485194E+02  0.14631975026E+04  0.16109715774E+04  0.50000000000E+03 0. -1.
    -200001    1    1    2    0    0  0.58646165507E+03 -0.25950194491E+02 -0.10948880559E+02  0.91363590311E+03  0.70000000000E+03 0.  1.
<mgrwt>
<rscale>  0 0.24012739E+04</rscale>
<asrwt>0</asrwt>
<pdfrwt beam="1">  1        4 0.80075296E-01 0.24012739E+04</pdfrwt>
<pdfrwt beam="2">  1       -4 0.36739122E+00 0.24012739E+04</pdfrwt>
<totfact> 0.28556741E-02</totfact>
</mgrwt>
</event>
<event>
 8    1  0.5361529E-011  0.1445562E+04  0.7818608E-02  0.8921483E-01
         -4   -1    0    0    0  501 -0.00000000000E+00  0.00000000000E+00  0.14851553137E+03  0.14852096134E+03  0.12700000000E+01 0. -1.
          4   -1    0    0  501    0  0.00000000000E+00 -0.00000000000E+00 -0.35174885954E+04  0.35174888247E+04  0.12700000000E+01 0.  1.
     200001    2    1    2    0    0  0.15675655355E+03  0.87609159861E+02 -0.17367428731E+04  0.18809542188E+04  0.69961774125E+03 0.  0.
    5000001    2    3    3    0    0 -0.59650759606E+02  0.74726238234E+02 -0.24846537490E+03  0.29603529135E+03  0.12945897959E+03 0.  0.
        -11    1    4    4    0    0 -0.27207460023E+01  0.46570491538E+02 -0.10361205035E+02  0.47786689684E+02  0.51100000000E-03 0. -1.
     200002    1    4    4    0    0 -0.56930013603E+02  0.28155746696E+02 -0.23810416987E+03  0.24824860166E+03  0.30000000000E+02 0. -1.
     200000    1    3    3    0    0  0.21640731316E+03  0.12882921628E+02 -0.14882774982E+04  0.15849189274E+04  0.50000000000E+03 0. -1.
    -200001    1    1    2    0    0 -0.15675655355E+03 -0.87609159861E+02 -0.16322301910E+04  0.17850555673E+04  0.70000000000E+03 0. -1.
<mgrwt>
<rscale>  0 0.14455616E+04</rscale>
<asrwt>0</asrwt>
<pdfrwt beam="1">  1        4 0.50249872E+00 0.14455616E+04</pdfrwt>
<pdfrwt beam="2">  1       -4 0.21216911E-01 0.14455616E+04</pdfrwt>
<totfact> 0.47914282E-02</totfact>
</mgrwt>
</event>
<event>
 8    1  0.5361529E-011  0.1948340E+04  0.7818608E-02  0.8631162E-01
          4   -1    0    0  501    0  0.00000000000E+00  0.00000000000E+00  0.38917146254E+03  0.38917353476E+03  0.12700000000E+01 0. -1.
         -4   -1    0    0    0  501 -0.00000000000E+00 -0.00000000000E+00 -0.24385236421E+04  0.24385239728E+04  0.12700000000E+01 0.  1.
     200001    2    1    2    0    0 -0.43787039314E+03 -0.42418036447E+03 -0.59298486092E+03  0.11006580669E+04  0.69868281227E+03 0.  0.
    5000001    2    3    3    0    0 -0.21169410213E+03 -0.13208824003E+03 -0.12581724983E+03  0.32302119752E+03  0.16202165799E+03 0.  0.
        -11    1    4    4    0    0 -0.62610920072E+02 -0.11244355986E+03 -0.67348197634E+01  0.12887606164E+03  0.51100000000E-03 0. -1.
     200002    1    4    4    0    0 -0.14908318206E+03 -0.19644680168E+02 -0.11908243007E+03  0.19414513588E+03  0.30000000000E+02 0. -1.
     200000    1    3    3    0    0 -0.22617629101E+03 -0.29209212444E+03 -0.46716761108E+03  0.77763686938E+03  0.50000000000E+03 0. -1.
    -200001    1    1    2    0    0  0.43787039314E+03  0.42418036447E+03 -0.14563673186E+04  0.17270394406E+04  0.70000000000E+03 0.  1.
<mgrwt>
<rscale>  0 0.19483400E+04</rscale>
<asrwt>0</asrwt>
<pdfrwt beam="1">  1        4 0.55596096E-01 0.19483400E+04</pdfrwt>
<pdfrwt beam="2">  1       -4 0.34836068E+00 0.19483400E+04</pdfrwt>
<totfact> 0.88474538E-02</totfact>
</mgrwt>
</event>
<event>
 8    1  0.5361529E-011  0.1646060E+04  0.7818608E-02  0.8792741E-01
         -4   -1    0    0    0  501 -0.00000000000E+00  0.00000000000E+00  0.94341178842E+03  0.94341264324E+03  0.12700000000E+01 0. -1.
          4   -1    0    0  501    0  0.00000000000E+00 -0.00000000000E+00 -0.71800727216E+03  0.71800839533E+03  0.12700000000E+01 0.  1.
     200001    2    1    2    0    0  0.88137702662E+02  0.37852881033E+03 -0.79031665198E+02  0.80483846610E+03  0.70033323321E+03 0.  0.
    5000001    2    3    3    0    0  0.63401242989E+02  0.17147209082E+03  0.60749500716E+02  0.24535374614E+03  0.15193934106E+03 0.  0.
        -11    1    4    4    0    0  0.71410931469E+02  0.14817224498E+03  0.98072815880E+02  0.19150146874E+03  0.51100000000E-03 0. -1.
     200002    1    4    4    0    0 -0.80096884801E+01  0.23299845844E+02 -0.37323315164E+02  0.53852277396E+02  0.30000000000E+02 0. -1.
     200000    1    3    3    0    0  0.24736459673E+02  0.20705671951E+03 -0.13978116591E+03  0.55948471997E+03  0.50000000000E+03 0. -1.
    -200001    1    1    2    0    0 -0.88137702662E+02 -0.37852881033E+03  0.30443618146E+03  0.85658257247E+03  0.70000000000E+03 0. -1.
<mgrwt>
<rscale>  0 0.16460597E+04</rscale>
<asrwt>0</asrwt>
<pdfrwt beam="1">  1        4 0.10257261E+00 0.16460597E+04</pdfrwt>
<pdfrwt beam="2">  1       -4 0.13477325E+00 0.16460597E+04</pdfrwt>
<totfact> 0.58974594E-01</totfact>
</mgrwt>
</event>
<event>
 8    1  0.5361529E-011  0.1645987E+04  0.7818608E-02  0.8792784E-01
         -4   -1    0    0    0  501 -0.00000000000E+00  0.00000000000E+00  0.12113768111E+04  0.12113774768E+04  0.12700000000E+01 0. -1.
          4   -1    0    0  501    0  0.00000000000E+00 -0.00000000000E+00 -0.55912930808E+03  0.55913075041E+03  0.12700000000E+01 0.  1.
     200001    2    1    2    0    0 -0.21577858543E+03 -0.36461409175E+03  0.23173070817E+03  0.85054181015E+03  0.70015599395E+03 0.  0.
    5000001    2    3    3    0    0  0.25946818946E+01 -0.28678357240E+02  0.39364786088E+02  0.18155425452E+03  0.17488047462E+03 0.  0.
        -11    1    4    4    0    0 -0.25828379323E+02  0.61731634716E+02 -0.14530709148E+02  0.68476575643E+02  0.51100000000E-03 0. -1.
     200002    1    4    4    0    0  0.28423061217E+02 -0.90409991956E+02  0.53895495236E+02  0.11307767888E+03  0.30000000000E+02 0. -1.
     200000    1    3    3    0    0 -0.21837326732E+03 -0.33593573451E+03  0.19236592208E+03  0.66898755562E+03  0.50000000000E+03 0. -1.
    -200001    1    1    2    0    0  0.21577858543E+03  0.36461409175E+03  0.42051679487E+03  0.91996641710E+03  0.70000000000E+03 0.  1.
<mgrwt>
<rscale>  0 0.16459868E+04</rscale>
<asrwt>0</asrwt>
<pdfrwt beam="1">  1        4 0.79875766E-01 0.16459868E+04</pdfrwt>
<pdfrwt beam="2">  1       -4 0.17305398E+00 0.16459868E+04</pdfrwt>
<totfact> 0.53889901E-01</totfact>
</mgrwt>
</event>
<event>
 8    1  0.5361529E-011  0.1744487E+04  0.7818608E-02  0.8736391E-01
          4   -1    0    0  501    0  0.00000000000E+00  0.00000000000E+00  0.76695637236E+03  0.76695742386E+03  0.12700000000E+01 0.  1.
         -4   -1    0    0    0  501 -0.00000000000E+00 -0.00000000000E+00 -0.99198248587E+03  0.99198329884E+03  0.12700000000E+01 0. -1.
     200001    2    1    2    0    0 -0.11314108405E+03  0.29741483142E+03  0.30277633197E+03  0.82629292835E+03  0.69987856760E+03 0.  0.
    5000001    2    3    3    0    0  0.10929152076E+02  0.10507213482E+03  0.83675858890E+01  0.20254165885E+03  0.17260795809E+03 0.  0.
        -11    1    4    4    0    0  0.50471578985E+02 -0.26911724829E+02  0.21085910202E+02  0.60960945103E+02  0.51100000000E-03 0. -1.
     200002    1    4    4    0    0 -0.39542426909E+02  0.13198385964E+03 -0.12718324313E+02  0.14158071375E+03  0.30000000000E+02 0. -1.
     200000    1    3    3    0    0 -0.12407023613E+03  0.19234269660E+03  0.29440874608E+03  0.62375126950E+03  0.50000000000E+03 0.  1.
    -200001    1    1    2    0    0  0.11314108405E+03 -0.29741483142E+03 -0.52780244547E+03  0.93264779434E+03  0.70000000000E+03 0. -1.
<mgrwt>
<rscale>  0 0.17444872E+04</rscale>
<asrwt>0</asrwt>
<pdfrwt beam="1">  1        4 0.10956533E+00 0.17444872E+04</pdfrwt>
<pdfrwt beam="2">  1       -4 0.14171192E+00 0.17444872E+04</pdfrwt>
<totfact> 0.43807227E-01</totfact>
</mgrwt>
</event>
<event>
 8    1  0.5361529E-011  0.1977888E+04  0.7818608E-02  0.8617029E-01
         -4   -1    0    0    0  501 -0.00000000000E+00  0.00000000000E+00  0.20972038340E+04  0.20972042185E+04  0.12700000000E+01 0. -1.
          4   -1    0    0  501    0  0.00000000000E+00 -0.00000000000E+00 -0.46633884366E+03  0.46634057298E+03  0.12700000000E+01 0.  1.
     200001    2    1    2    0    0 -0.63545482637E+03  0.29006657474E+03  0.80580671132E+03  0.12756540283E+04  0.70001949245E+03 0.  0.
    5000001    2    3    3    0    0 -0.13836556394E+03  0.93436462464E+02  0.24636584365E+03  0.35438576104E+03  0.19239993999E+03 0.  0.
        -11    1    4    4    0    0 -0.11417164875E+02 -0.18051338863E+02  0.16157983145E+03  0.16298541168E+03  0.51100000000E-03 0. -1.
     200002    1    4    4    0    0 -0.12694839907E+03  0.11148780133E+03  0.84786012204E+02  0.19140034936E+03  0.30000000000E+02 0. -1.
     200000    1    3    3    0    0 -0.49708926242E+03  0.19663011228E+03  0.55944086767E+03  0.92126826728E+03  0.50000000000E+03 0. -1.
    -200001    1    1    2    0    0  0.63545482637E+03 -0.29006657474E+03  0.82505827900E+03  0.12878907632E+04  0.70000000000E+03 0.  1.
<mgrwt>
<rscale>  0 0.19778881E+04</rscale>
<asrwt>0</asrwt>
<pdfrwt beam="1">  1        4 0.66619986E-01 0.19778881E+04</pdfrwt>
<pdfrwt beam="2">  1       -4 0.29960070E+00 0.19778881E+04</pdfrwt>
<totfact> 0.12186326E-01</totfact>
</mgrwt>
</event>
<event>
 8    1  0.5361529E-011  0.1515672E+04  0.7818608E-02  0.8874097E-01
         -4   -1    0    0    0  501 -0.00000000000E+00  0.00000000000E+00  0.12457568023E+04  0.12457574497E+04  0.12700000000E+01 0. -1.
          4   -1    0    0  501    0  0.00000000000E+00 -0.00000000000E+00 -0.46101580480E+03  0.46101755409E+03  0.12700000000E+01 0.  1.
     200001    2    1    2    0    0  0.20981436225E+03 -0.17931087250E+03  0.49398242531E+03  0.90010592485E+03  0.69999827416E+03 0.  0.
    5000001    2    3    3    0    0  0.53298381923E+02 -0.20366005920E+02  0.24038879566E+03  0.29672341623E+03  0.16432443807E+03 0.  0.
        -11    1    4    4    0    0  0.61994030722E+02 -0.83040762045E+02  0.15180956955E+03  0.18380743569E+03  0.51100000000E-03 0. -1.
     200002    1    4    4    0    0 -0.86956487989E+01  0.62674756124E+02  0.88579226113E+02  0.11291598054E+03  0.30000000000E+02 0. -1.
     200000    1    3    3    0    0  0.15651598032E+03 -0.15894486658E+03  0.25359362965E+03  0.60338250862E+03  0.50000000000E+03 0. -1.
    -200001    1    1    2    0    0 -0.20981436225E+03  0.17931087250E+03  0.29075857223E+03  0.80666907895E+03  0.70000000000E+03 0.  1.
<mgrwt>
<rscale>  0 0.15156723E+04</rscale>
<asrwt>0</asrwt>
<pdfrwt beam="1">  1        4 0.65859573E-01 0.15156723E+04</pdfrwt>
<pdfrwt beam="2">  1       -4 0.17796543E+00 0.15156723E+04</pdfrwt>
<totfact> 0.77201287E-01</totfact>
</mgrwt>
</event>
<event>
 8    1  0.5361529E-011  0.1538297E+04  0.7818608E-02  0.8859378E-01
          4   -1    0    0  501    0  0.00000000000E+00  0.00000000000E+00  0.98951197042E+03  0.98951278541E+03  0.12700000000E+01 0.  1.
         -4   -1    0    0    0  501 -0.00000000000E+00 -0.00000000000E+00 -0.59785806734E+03  0.59785941624E+03  0.12700000000E+01 0. -1.
     200001    2    1    2    0    0  0.13534942465E+03  0.27231024892E+03  0.87255389654E+02  0.76570877093E+03  0.69729769857E+03 0.  0.
    5000001    2    3    3    0    0  0.53825060740E+02  0.16219644006E+03  0.72237126392E+02  0.24705973637E+03  0.16314254066E+03 0.  0.
        -11    1    4    4    0    0  0.59568099867E+02  0.28479879402E+02  0.86877278402E+02  0.10911976702E+03  0.51100000000E-03 0. -1.
     200002    1    4    4    0    0 -0.57430391270E+01  0.13371656066E+03 -0.14640152010E+02  0.13793996935E+03  0.30000000000E+02 0. -1.
     200000    1    3    3    0    0  0.81524363907E+02  0.11011380886E+03  0.15018263262E+02  0.51864903455E+03  0.50000000000E+03 0. -1.
    -200001    1    1    2    0    0 -0.13534942465E+03 -0.27231024892E+03  0.30439851342E+03  0.82166343073E+03  0.70000000000E+03 0.  1.
<mgrwt>
<rscale>  0 0.15382970E+04</rscale>
<asrwt>0</asrwt>
<pdfrwt beam="1">  1        4 0.14135901E+00 0.15382970E+04</pdfrwt>
<pdfrwt beam="2">  1       -4 0.85408450E-01 0.15382970E+04</pdfrwt>
<totfact> 0.80708170E-01</totfact>
</mgrwt>
</event>
<event>
 8    1  0.5361529E-011  0.3102760E+04  0.7818608E-02  0.8214981E-01
          4   -1    0    0  501    0  0.00000000000E+00  0.00000000000E+00  0.33073493148E+04  0.33073495586E+04  0.12700000000E+01 0.  1.
         -4   -1    0    0    0  501 -0.00000000000E+00 -0.00000000000E+00 -0.72770567748E+03  0.72770678568E+03  0.12700000000E+01 0. -1.
     200001    2    1    2    0    0 -0.54177948971E+03  0.63438243068E+03  0.27269510544E+04  0.29361179662E+04  0.69897108254E+03 0.  0.
    5000001    2    3    3    0    0 -0.86140721778E+02  0.19646659269E+03  0.49011300536E+03  0.55855168408E+03  0.16046769074E+03 0.  0.
        -11    1    4    4    0    0 -0.61521643573E+01  0.28318582381E+02  0.25730970709E+03  0.25893643351E+03  0.51100000000E-03 0. -1.
     200002    1    4    4    0    0 -0.79988557421E+02  0.16814801031E+03  0.23280329826E+03  0.29961525056E+03  0.30000000000E+02 0. -1.
     200000    1    3    3    0    0 -0.45563876793E+03  0.43791583798E+03  0.22368380491E+04  0.23775662821E+04  0.50000000000E+03 0.  1.
    -200001    1    1    2    0    0  0.54177948971E+03 -0.63438243068E+03 -0.14730741711E+03  0.10989383781E+04  0.70000000000E+03 0. -1.
<mgrwt>
<rscale>  0 0.31027598E+04</rscale>
<asrwt>0</asrwt>
<pdfrwt beam="1">  1        4 0.47247856E+00 0.31027598E+04</pdfrwt>
<pdfrwt beam="2">  1       -4 0.10395805E+00 0.31027598E+04</pdfrwt>
<totfact> 0.25466062E-03</totfact>
</mgrwt>
</event>
<event>
 8    1  0.5361529E-011  0.1524997E+04  0.7818608E-02  0.8867998E-01
          4   -1    0    0  501    0  0.00000000000E+00  0.00000000000E+00  0.53679471239E+03  0.53679621473E+03  0.12700000000E+01 0.  1.
         -4   -1    0    0    0  501 -0.00000000000E+00 -0.00000000000E+00 -0.10830993648E+04  0.10831001094E+04  0.12700000000E+01 0. -1.
     200001    2    1    2    0    0  0.11138352329E+03  0.25618772647E+03 -0.39396733226E+03  0.85097168568E+03  0.70064549559E+03 0.  0.
    5000001    2    3    3    0    0  0.19716695002E+02 -0.70740820681E+01 -0.93069511408E+02  0.20424988627E+03  0.18060257857E+03 0.  0.
        -11    1    4    4    0    0 -0.76421124852E+01 -0.66390073181E+02 -0.11154533039E+03  0.13003232072E+03  0.51100000000E-03 0. -1.
     200002    1    4    4    0    0  0.27358807488E+02  0.59315991113E+02  0.18475818978E+02  0.74217565547E+02  0.30000000000E+02 0. -1.
     200000    1    3    3    0    0  0.91666828289E+02  0.26326180854E+03 -0.30089782085E+03  0.64672179942E+03  0.50000000000E+03 0.  1.
    -200001    1    1    2    0    0 -0.11138352329E+03 -0.25618772647E+03 -0.15233732013E+03  0.76892463842E+03  0.70000000000E+03 0.  1.
<mgrwt>
<rscale>  0 0.15249968E+04</rscale>
<asrwt>0</asrwt>
<pdfrwt beam="1">  1        4 0.76685120E-01 0.15249968E+04</pdfrwt>
<pdfrwt beam="2">  1       -4 0.15472864E+00 0.15249968E+04</pdfrwt>
<totfact> 0.81203984E-01</totfact>
</mgrwt>
</event>
<event>
 8    1  0.5361529E-011  0.2524028E+04  0.7818608E-02  0.8394475E-01
          4   -1    0    0  501    0  0.00000000000E+00  0.00000000000E+00  0.82455654370E+03  0.82455752174E+03  0.12700000000E+01 0.  1.
         -4   -1    0    0    0  501 -0.00000000000E+00 -0.00000000000E+00 -0.19315558122E+04  0.19315562297E+04  0.12700000000E+01 0. -1.
     200001    2    1    2    0    0 -0.30889397401E+03 -0.58135365214E+03  0.33937018769E+03  0.10196310536E+04  0.70077657296E+03 0.  0.
    5000001    2    3    3    0    0 -0.99623896350E+02 -0.14301904496E+03  0.11576586474E+03  0.28755859377E+03  0.19725324196E+03 0.  0.
        -11    1    4    4    0    0 -0.14905976546E+03 -0.65044081605E+02  0.94789808725E+02  0.18824094684E+03  0.51100000000E-03 0. -1.
     200002    1    4    4    0    0  0.49435869107E+02 -0.77974963355E+02  0.20976056016E+02  0.99317646924E+02  0.30000000000E+02 0. -1.
     200000    1    3    3    0    0 -0.20927007766E+03 -0.43833460718E+03  0.22360432295E+03  0.73207245987E+03  0.50000000000E+03 0.  1.
    -200001    1    1    2    0    0  0.30889397401E+03  0.58135365214E+03 -0.14463694562E+04  0.17364826978E+04  0.70000000000E+03 0. -1.
<mgrwt>
<rscale>  0 0.25240277E+04</rscale>
<asrwt>0</asrwt>
<pdfrwt beam="1">  1        4 0.11779389E+00 0.25240277E+04</pdfrwt>
<pdfrwt beam="2">  1       -4 0.27593664E+00 0.25240277E+04</pdfrwt>
<totfact> 0.43340010E-02</totfact>
</mgrwt>
</event>
<event>
 8    1  0.5361529E-011  0.1676900E+04  0.7818608E-02  0.8774650E-01
         -4   -1    0    0    0  501 -0.00000000000E+00  0.00000000000E+00  0.80918272058E+03  0.80918371720E+03  0.12700000000E+01 0. -1.
          4   -1    0    0  501    0  0.00000000000E+00 -0.00000000000E+00 -0.86877357225E+03  0.86877450051E+03  0.12700000000E+01 0.  1.
     200001    2    1    2    0    0  0.21702864921E+03 -0.32834188132E+03  0.21182375520E+03  0.83026976408E+03  0.69969189810E+03 0.  0.
    5000001    2    3    3    0    0  0.47240935949E+02 -0.17003121397E+03  0.11389352248E+02  0.24370000279E+03  0.16768319612E+03 0.  0.
        -11    1    4    4    0    0 -0.40271371450E+02 -0.37850997314E+02 -0.46564804194E+02  0.72268681640E+02  0.51100000000E-03 0. -1.
     200002    1    4    4    0    0  0.87512307398E+02 -0.13218021666E+03  0.57954156442E+02  0.17143132115E+03  0.30000000000E+02 0. -1.
     200000    1    3    3    0    0  0.16978771326E+03 -0.15831066735E+03  0.20043440295E+03  0.58656976129E+03  0.50000000000E+03 0. -1.
    -200001    1    1    2    0    0 -0.21702864921E+03  0.32834188132E+03 -0.27141460687E+03  0.84768845364E+03  0.70000000000E+03 0.  1.
<mgrwt>
<rscale>  0 0.16768997E+04</rscale>
<asrwt>0</asrwt>
<pdfrwt beam="1">  1        4 0.12411065E+00 0.16768997E+04</pdfrwt>
<pdfrwt beam="2">  1       -4 0.11559767E+00 0.16768997E+04</pdfrwt>
<totfact> 0.54260179E-01</totfact>
</mgrwt>
</event>
<event>
 8    1  0.5361529E-011  0.1919590E+04  0.7818608E-02  0.8645166E-01
         -4   -1    0    0    0  501 -0.00000000000E+00  0.00000000000E+00  0.24936076464E+04  0.24936079698E+04  0.12700000000E+01 0. -1.
          4   -1    0    0  501    0  0.00000000000E+00 -0.00000000000E+00 -0.36942575888E+03  0.36942794186E+03  0.12700000000E+01 0.  1.
     200001    2    1    2    0    0  0.35794028574E+03 -0.38842103356E+03  0.16439702818E+04  0.18632382653E+04  0.70001885571E+03 0.  0.
    5000001    2    3    3    0    0  0.10314524686E+03 -0.61902153358E+02  0.44134114326E+03  0.49654446791E+03  0.19314136100E+03 0.  0.
        -11    1    4    4    0    0  0.49345407614E+01  0.17914063793E+02  0.31391260246E+03  0.31446205710E+03  0.51100000000E-03 0. -1.
     200002    1    4    4    0    0  0.98210706101E+02 -0.79816217151E+02  0.12742854081E+03  0.18208241081E+03  0.30000000000E+02 0. -1.
     200000    1    3    3    0    0  0.25479503888E+03 -0.32651888020E+03  0.12026291385E+04  0.13666937974E+04  0.50000000000E+03 0. -1.
    -200001    1    1    2    0    0 -0.35794028574E+03  0.38842103356E+03  0.48021160576E+03  0.99979764642E+03  0.70000000000E+03 0.  1.
<mgrwt>
<rscale>  0 0.19195900E+04</rscale>
<asrwt>0</asrwt>
<pdfrwt beam="1">  1        4 0.52775286E-01 0.19195900E+04</pdfrwt>
<pdfrwt beam="2">  1       -4 0.35622985E+00 0.19195900E+04</pdfrwt>
<totfact> 0.87973065E-02</totfact>
</mgrwt>
</event>
<event>
 8    1  0.5361529E-011  0.1937441E+04  0.7818608E-02  0.8636441E-01
          4   -1    0    0  501    0  0.00000000000E+00  0.00000000000E+00  0.10707699403E+04  0.10707706935E+04  0.12700000000E+01 0.  1.
         -4   -1    0    0    0  501 -0.00000000000E+00 -0.00000000000E+00 -0.87639534545E+03  0.87639626564E+03  0.12700000000E+01 0. -1.
     200001    2    1    2    0    0  0.30803859431E+03  0.11044610810E+03 -0.48879918100E+03  0.91575408039E+03  0.70185096567E+03 0.  0.
    5000001    2    3    3    0    0  0.44924893959E+02 -0.56906917534E+02 -0.18987706380E+03  0.25500428913E+03  0.15400404135E+03 0.  0.
        -11    1    4    4    0    0 -0.30787353358E+02  0.67682741052E+01  0.73126248730E+01  0.32359622123E+02  0.51100000000E-03 0. -1.
     200002    1    4    4    0    0  0.75712247318E+02 -0.63675191639E+02 -0.19718968868E+03  0.22264466700E+03  0.30000000000E+02 0. -1.
     200000    1    3    3    0    0  0.26311370035E+03  0.16735302563E+03 -0.29892211720E+03  0.66074979126E+03  0.50000000000E+03 0. -1.
    -200001    1    1    2    0    0 -0.30803859431E+03 -0.11044610810E+03  0.68317377587E+03  0.10314128787E+04  0.70000000000E+03 0.  1.
<mgrwt>
<rscale>  0 0.19374410E+04</rscale>
<asrwt>0</asrwt>
<pdfrwt beam="1">  1        4 0.15296725E+00 0.19374410E+04</pdfrwt>
<pdfrwt beam="2">  1       -4 0.12519945E+00 0.19374410E+04</pdfrwt>
<totfact> 0.25333257E-01</totfact>
</mgrwt>
</event>
<event>
 8    1  0.5361529E-011  0.1678447E+04  0.7818608E-02  0.8773753E-01
         -4   -1    0    0    0  501 -0.00000000000E+00  0.00000000000E+00  0.95127578116E+03  0.95127662892E+03  0.12700000000E+01 0. -1.
          4   -1    0    0  501    0  0.00000000000E+00 -0.00000000000E+00 -0.74036830928E+03  0.74036939854E+03  0.12700000000E+01 0.  1.
     200001    2    1    2    0    0 -0.20405890651E+03  0.10914275807E+03  0.51546288660E+03  0.89395800598E+03  0.69275302239E+03 0.  0.
    5000001    2    3    3    0    0  0.93109159536E+02  0.28469768000E+01  0.10257005299E+03  0.17278663617E+03  0.10323364278E+03 0.  0.
        -11    1    4    4    0    0 -0.61733169693E+01  0.29929235084E+02  0.33103441648E+02  0.45052267472E+02  0.51100000000E-03 0. -1.
     200002    1    4    4    0    0  0.99282476505E+02 -0.27082258284E+02  0.69466611345E+02  0.12773436870E+03  0.30000000000E+02 0. -1.
     200000    1    3    3    0    0 -0.29716806605E+03  0.10629578127E+03  0.41289283360E+03  0.72117136981E+03  0.50000000000E+03 0. -1.
    -200001    1    1    2    0    0  0.20405890651E+03 -0.10914275807E+03 -0.30455541472E+03  0.79768802147E+03  0.70000000000E+03 0.  1.
<mgrwt>
<rscale>  0 0.16784470E+04</rscale>
<asrwt>0</asrwt>
<pdfrwt beam="1">  1        4 0.10576704E+00 0.16784470E+04</pdfrwt>
<pdfrwt beam="2">  1       -4 0.13589668E+00 0.16784470E+04</pdfrwt>
<totfact> 0.53486215E-01</totfact>
</mgrwt>
</event>
<event>
 8    1  0.5361529E-011  0.1438124E+04  0.7818608E-02  0.8926676E-01
         -4   -1    0    0    0  501 -0.00000000000E+00  0.00000000000E+00  0.11399777195E+04  0.11399784269E+04  0.12700000000E+01 0. -1.
          4   -1    0    0  501    0  0.00000000000E+00 -0.00000000000E+00 -0.45355988851E+03  0.45356166655E+03  0.12700000000E+01 0.  1.
     200001    2    1    2    0    0  0.81132323330E+02 -0.14059377219E+03  0.32626478589E+03  0.78976196579E+03  0.70066125156E+03 0.  0.
    5000001    2    3    3    0    0  0.34299449364E+01  0.53488352861E+02  0.17002059446E+03  0.22574265918E+03  0.13849179477E+03 0.  0.
        -11    1    4    4    0    0  0.26037609669E+01 -0.22117172781E+02  0.13559853720E+03  0.13741510904E+03  0.51100000000E-03 0. -1.
     200002    1    4    4    0    0  0.82618396954E+00  0.75605525641E+02  0.34422057265E+02  0.88327550140E+02  0.30000000000E+02 0. -1.
     200000    1    3    3    0    0  0.77702378394E+02 -0.19408212505E+03  0.15624419143E+03  0.56401930661E+03  0.50000000000E+03 0.  1.
    -200001    1    1    2    0    0 -0.81132323330E+02  0.14059377219E+03  0.36015304512E+03  0.80377812771E+03  0.70000000000E+03 0. -1.
<mgrwt>
<rscale>  0 0.14381240E+04</rscale>
<asrwt>0</asrwt>
<pdfrwt beam="1">  1        4 0.64794447E-01 0.14381240E+04</pdfrwt>
<pdfrwt beam="2">  1       -4 0.16285414E+00 0.14381240E+04</pdfrwt>
<totfact> 0.10316390E+00</totfact>
</mgrwt>
</event>
<event>
 8    1  0.5361529E-011  0.2411907E+04  0.7818608E-02  0.8435059E-01
         -4   -1    0    0    0  501 -0.00000000000E+00  0.00000000000E+00  0.53374243701E+03  0.53374394794E+03  0.12700000000E+01 0. -1.
          4   -1    0    0  501    0  0.00000000000E+00 -0.00000000000E+00 -0.27247627081E+04  0.27247630041E+04  0.12700000000E+01 0.  1.
     200001    2    1    2    0    0  0.77554844647E+03 -0.74793026047E+02 -0.19030431023E+04  0.21722287927E+04  0.69995391932E+03 0.  0.
    5000001    2    3    3    0    0  0.21988287357E+03 -0.71675176417E+02 -0.44049618462E+03  0.52972538747E+03  0.18189636734E+03 0.  0.
        -11    1    4    4    0    0  0.18708861338E+00  0.39076518765E+02 -0.10915602329E+03  0.11593984104E+03  0.51100000000E-03 0. -1.
     200002    1    4    4    0    0  0.21969578495E+03 -0.11075169518E+03 -0.33134016134E+03  0.41378554642E+03  0.30000000000E+02 0. -1.
     200000    1    3    3    0    0  0.55566557290E+03 -0.31178496292E+01 -0.14625469177E+04  0.16425034053E+04  0.50000000000E+03 0.  1.
    -200001    1    1    2    0    0 -0.77554844647E+03  0.74793026047E+02 -0.28797716877E+03  0.10862781593E+04  0.70000000000E+03 0. -1.
<mgrwt>
<rscale>  0 0.24119075E+04</rscale>
<asrwt>0</asrwt>
<pdfrwt beam="1">  1        4 0.38925194E+00 0.24119075E+04</pdfrwt>
<pdfrwt beam="2">  1       -4 0.76249050E-01 0.24119075E+04</pdfrwt>
<totfact> 0.22662035E-02</totfact>
</mgrwt>
</event>
<event>
 8    1  0.5361529E-011  0.1592325E+04  0.7818608E-02  0.8825277E-01
         -4   -1    0    0    0  501 -0.00000000000E+00  0.00000000000E+00  0.41206153599E+03  0.41206349310E+03  0.12700000000E+01 0. -1.
          4   -1    0    0  501    0  0.00000000000E+00 -0.00000000000E+00 -0.15382948606E+04  0.15382953849E+04  0.12700000000E+01 0.  1.
     200001    2    1    2    0    0 -0.23555297543E+02  0.96608935927E+01 -0.98415850340E+02  0.70655143896E+03  0.69920030849E+03 0.  0.
    5000001    2    3    3    0    0 -0.90753478985E+02  0.83007805367E+01 -0.97344762467E+02  0.20205308145E+03  0.15180364962E+03 0.  0.
        -11    1    4    4    0    0 -0.11465520070E+03  0.36532746381E+02 -0.96777572550E+02  0.15442265104E+03  0.51100000000E-03 0. -1.
     200002    1    4    4    0    0  0.23901721718E+02 -0.28231965844E+02 -0.56718991717E+00  0.47630430409E+02  0.30000000000E+02 0. -1.
     200000    1    3    3    0    0  0.67198181441E+02  0.13601130560E+01 -0.10710878734E+01  0.50449835751E+03  0.50000000000E+03 0. -1.
    -200001    1    1    2    0    0  0.23555297543E+02 -0.96608935927E+01 -0.10278174743E+04  0.12438074390E+04  0.70000000000E+03 0.  1.
<mgrwt>
<rscale>  0 0.15923248E+04</rscale>
<asrwt>0</asrwt>
<pdfrwt beam="1">  1        4 0.21975658E+00 0.15923248E+04</pdfrwt>
<pdfrwt beam="2">  1       -4 0.58866111E-01 0.15923248E+04</pdfrwt>
<totfact> 0.51660895E-01</totfact>
</mgrwt>
</event>
<event>
 8    1  0.5361529E-011  0.1426833E+04  0.7818608E-02  0.8934621E-01
          4   -1    0    0  501    0  0.00000000000E+00  0.00000000000E+00  0.24111775293E+03  0.24112109754E+03  0.12700000000E+01 0.  1.
         -4   -1    0    0    0  501 -0.00000000000E+00 -0.00000000000E+00 -0.21108302797E+04  0.21108306618E+04  0.12700000000E+01 0. -1.
     200001    2    1    2    0    0  0.13374281081E+03 -0.35191487167E+02 -0.93130326407E+03  0.11730804667E+04  0.69976169620E+03 0.  0.
    5000001    2    3    3    0    0  0.13745109537E+03 -0.46774759478E+02 -0.37419749332E+03  0.42440512760E+03  0.13789585413E+03 0.  0.
        -11    1    4    4    0    0 -0.11583544676E+02 -0.46742082903E+02 -0.85648886413E+02  0.98258498693E+02  0.51100000000E-03 0. -1.
     200002    1    4    4    0    0  0.14903464004E+03 -0.32676575360E-01 -0.28854860691E+03  0.32614662891E+03  0.30000000000E+02 0. -1.
     200000    1    3    3    0    0 -0.37082845563E+01  0.11583272311E+02 -0.55710577075E+03  0.74867533910E+03  0.50000000000E+03 0.  1.
    -200001    1    1    2    0    0 -0.13374281081E+03  0.35191487167E+02 -0.93840926273E+03  0.11788712926E+04  0.70000000000E+03 0. -1.
<mgrwt>
<rscale>  0 0.14268329E+04</rscale>
<asrwt>0</asrwt>
<pdfrwt beam="1">  1        4 0.34445661E-01 0.14268329E+04</pdfrwt>
<pdfrwt beam="2">  1       -4 0.30154744E+00 0.14268329E+04</pdfrwt>
<totfact> 0.48822168E-01</totfact>
</mgrwt>
</event>
<event>
 8    1  0.5361529E-011  0.1433232E+04  0.7818608E-02  0.8930109E-01
          4   -1    0    0  501    0  0.00000000000E+00  0.00000000000E+00  0.36661412441E+03  0.36661632413E+03  0.12700000000E+01 0.  1.
         -4   -1    0    0    0  501 -0.00000000000E+00 -0.00000000000E+00 -0.14007534644E+04  0.14007540401E+04  0.12700000000E+01 0. -1.
     200001    2    1    2    0    0 -0.79287193464E+01 -0.14762633251E+03 -0.56798005203E+03  0.91346118851E+03  0.69996685976E+03 0.  0.
    5000001    2    3    3    0    0 -0.18872239748E+02 -0.12412931895E+03 -0.94233906823E+02  0.22418092593E+03  0.16004002342E+03 0.  0.
        -11    1    4    4    0    0 -0.55629198839E+02  0.13910979069E+02 -0.29839628403E+02  0.64641523231E+02  0.51100000000E-03 0. -1.
     200002    1    4    4    0    0  0.36756959091E+02 -0.13804029802E+03 -0.64394278420E+02  0.15953940270E+03  0.30000000000E+02 0. -1.
     200000    1    3    3    0    0  0.10943520401E+02 -0.23497013560E+02 -0.47374614520E+03  0.68928026258E+03  0.50000000000E+03 0. -1.
    -200001    1    1    2    0    0  0.79287193464E+01  0.14762633251E+03 -0.46615928792E+03  0.85390917571E+03  0.70000000000E+03 0.  1.
<mgrwt>
<rscale>  0 0.14332320E+04</rscale>
<asrwt>0</asrwt>
<pdfrwt beam="1">  1        4 0.52373645E-01 0.14332320E+04</pdfrwt>
<pdfrwt beam="2">  1       -4 0.20010783E+00 0.14332320E+04</pdfrwt>
<totfact> 0.89786088E-01</totfact>
</mgrwt>
</event>
<event>
 8    1  0.5361529E-011  0.1615282E+04  0.7818608E-02  0.8811214E-01
          4   -1    0    0  501    0  0.00000000000E+00  0.00000000000E+00  0.49580996673E+03  0.49581159326E+03  0.12700000000E+01 0.  1.
         -4   -1    0    0    0  501 -0.00000000000E+00 -0.00000000000E+00 -0.13155883078E+04  0.13155889208E+04  0.12700000000E+01 0. -1.
     200001    2    1    2    0    0 -0.14215529339E+03 -0.26563741133E+03 -0.11004750202E+03  0.77001238965E+03  0.70002661790E+03 0.  0.
    5000001    2    3    3    0    0 -0.29379284044E+02 -0.16556281690E+03 -0.52583291440E+02  0.24462159392E+03  0.16970719786E+03 0.  0.
        -11    1    4    4    0    0 -0.68392855628E+02 -0.12899068541E+03 -0.91213927239E+02  0.17215156155E+03  0.51100000000E-03 0. -1.
     200002    1    4    4    0    0  0.39013571584E+02 -0.36572131492E+02  0.38630635799E+02  0.72470032371E+02  0.30000000000E+02 0. -1.
     200000    1    3    3    0    0 -0.11277600934E+03 -0.10007459443E+03 -0.57464210575E+02  0.52539079572E+03  0.50000000000E+03 0.  1.
    -200001    1    1    2    0    0  0.14215529339E+03  0.26563741133E+03 -0.70973083904E+03  0.10413881244E+04  0.70000000000E+03 0. -1.
<mgrwt>
<rscale>  0 0.16152818E+04</rscale>
<asrwt>0</asrwt>
<pdfrwt beam="1">  1        4 0.70830155E-01 0.16152818E+04</pdfrwt>
<pdfrwt beam="2">  1       -4 0.18794135E+00 0.16152818E+04</pdfrwt>
<totfact> 0.55740606E-01</totfact>
</mgrwt>
</event>
<event>
 8    1  0.5361529E-011  0.1408819E+04  0.7818608E-02  0.8947460E-01
          4   -1    0    0  501    0  0.00000000000E+00  0.00000000000E+00  0.12805970471E+04  0.12805976768E+04  0.12700000000E+01 0.  1.
         -4   -1    0    0    0  501 -0.00000000000E+00 -0.00000000000E+00 -0.38746795033E+03  0.38747003166E+03  0.12700000000E+01 0. -1.
     200001    2    1    2    0    0  0.27274948642E+02 -0.21771963569E+00  0.35957416418E+03  0.78748560766E+03  0.70006859129E+03 0.  0.
    5000001    2    3    3    0    0 -0.42823568714E+02  0.97432525643E+02  0.39745089257E+02  0.18189497885E+03  0.14205335660E+03 0.  0.
        -11    1    4    4    0    0  0.29090203809E+02  0.90058983104E+02  0.11960001542E+01  0.94648247802E+02  0.51100000000E-03 0. -1.
     200002    1    4    4    0    0 -0.71913772523E+02  0.73735425389E+01  0.38549089102E+02  0.87246731049E+02  0.30000000000E+02 0. -1.
     200000    1    3    3    0    0  0.70098517356E+02 -0.97650245279E+02  0.31982907492E+03  0.60559062881E+03  0.50000000000E+03 0. -1.
    -200001    1    1    2    0    0 -0.27274948642E+02  0.21771963569E+00  0.53355493259E+03  0.88058210084E+03  0.70000000000E+03 0.  1.
<mgrwt>
<rscale>  0 0.14088188E+04</rscale>
<asrwt>0</asrwt>
<pdfrwt beam="1">  1        4 0.18294263E+00 0.14088188E+04</pdfrwt>
<pdfrwt beam="2">  1       -4 0.55352758E-01 0.14088188E+04</pdfrwt>
<totfact> 0.10442234E+00</totfact>
</mgrwt>
</event>
<event>
 8    1  0.5361529E-011  0.2029809E+04  0.7818608E-02  0.8592809E-01
         -4   -1    0    0    0  501 -0.00000000000E+00  0.00000000000E+00  0.20603293405E+04  0.20603297319E+04  0.12700000000E+01 0. -1.
          4   -1    0    0  501    0  0.00000000000E+00 -0.00000000000E+00 -0.49993395868E+03  0.49993557179E+03  0.12700000000E+01 0.  1.
     200001    2    1    2    0    0  0.36757326837E+03  0.60664481514E+02 -0.18647319317E+02  0.79330006949E+03  0.70013355211E+03 0.  0.
    5000001    2    3    3    0    0  0.30263022102E+02  0.66579364477E+01  0.38077132850E+02  0.18509568557E+03  0.17846670879E+03 0.  0.
        -11    1    4    4    0    0  0.88000962087E+02  0.31427113235E+02 -0.18652759691E+02  0.95287765315E+02  0.51100000000E-03 0. -1.
     200002    1    4    4    0    0 -0.57737939984E+02 -0.24769176787E+02  0.56729892541E+02  0.89807920252E+02  0.30000000000E+02 0. -1.
     200000    1    3    3    0    0  0.33731024627E+03  0.54006545067E+02 -0.56724452167E+02  0.60820438392E+03  0.50000000000E+03 0.  1.
    -200001    1    1    2    0    0 -0.36757326837E+03 -0.60664481514E+02  0.15790427012E+04  0.17669652342E+04  0.70000000000E+03 0. -1.
<mgrwt>
<rscale>  0 0.20298090E+04</rscale>
<asrwt>0</asrwt>
<pdfrwt beam="1">  1        4 0.71419280E-01 0.20298090E+04</pdfrwt>
<pdfrwt beam="2">  1       -4 0.29433291E+00 0.20298090E+04</pdfrwt>
<totfact> 0.11221153E-01</totfact>
</mgrwt>
</event>
<event>
 8    1  0.5361529E-011  0.2079418E+04  0.7818608E-02  0.8570364E-01
          4   -1    0    0  501    0  0.00000000000E+00  0.00000000000E+00  0.14548617869E+04  0.14548623412E+04  0.12700000000E+01 0.  1.
         -4   -1    0    0    0  501 -0.00000000000E+00 -0.00000000000E+00 -0.74302136762E+03  0.74302245299E+03  0.12700000000E+01 0. -1.
     200001    2    1    2    0    0  0.19972729324E+03 -0.28681676451E+03 -0.36848369910E+03  0.86399759926E+03  0.69896835905E+03 0.  0.
    5000001    2    3    3    0    0 -0.90248720993E+01 -0.50889533036E+02 -0.45862586951E+02  0.19070456715E+03  0.17774606089E+03 0.  0.
        -11    1    4    4    0    0 -0.67563034704E+02 -0.78042779401E+02 -0.58168721318E+02  0.11848645161E+03  0.51100000000E-03 0. -1.
     200002    1    4    4    0    0  0.58538162604E+02  0.27153246365E+02  0.12306134367E+02  0.72218115541E+02  0.30000000000E+02 0. -1.
     200000    1    3    3    0    0  0.20875216534E+03 -0.23592723147E+03 -0.32262111215E+03  0.67329303211E+03  0.50000000000E+03 0. -1.
    -200001    1    1    2    0    0 -0.19972729324E+03  0.28681676451E+03  0.10803241184E+04  0.13338871949E+04  0.70000000000E+03 0.  1.
<mgrwt>
<rscale>  0 0.20794184E+04</rscale>
<asrwt>0</asrwt>
<pdfrwt beam="1">  1        4 0.20783751E+00 0.20794184E+04</pdfrwt>
<pdfrwt beam="2">  1       -4 0.10614603E+00 0.20794184E+04</pdfrwt>
<totfact> 0.15557933E-01</totfact>
</mgrwt>
</event>
<event>
 8    1  0.5361529E-011  0.1631762E+04  0.7818608E-02  0.8801269E-01
         -4   -1    0    0    0  501 -0.00000000000E+00  0.00000000000E+00  0.79808265413E+03  0.79808366461E+03  0.12700000000E+01 0. -1.
          4   -1    0    0  501    0  0.00000000000E+00 -0.00000000000E+00 -0.83407442204E+03  0.83407538892E+03  0.12700000000E+01 0.  1.
     200001    2    1    2    0    0 -0.11780723837E+03  0.64647685053E+02  0.37736296652E+03  0.80819303173E+03  0.70193682012E+03 0.  0.
    5000001    2    3    3    0    0 -0.40650095403E+02 -0.22435493060E+02  0.79134526473E+02  0.21449537545E+03  0.19388195172E+03 0.  0.
        -11    1    4    4    0    0 -0.96706377926E+02  0.23320672474E+02  0.91539811754E+02  0.13518696103E+03  0.51100000000E-03 0. -1.
     200002    1    4    4    0    0  0.56056282523E+02 -0.45756165534E+02 -0.12405285281E+02  0.79308414419E+02  0.30000000000E+02 0. -1.
     200000    1    3    3    0    0 -0.77157142966E+02  0.87083178113E+02  0.29822844005E+03  0.59369765628E+03  0.50000000000E+03 0. -1.
    -200001    1    1    2    0    0  0.11780723837E+03 -0.64647685053E+02 -0.41335473443E+03  0.82396602180E+03  0.70000000000E+03 0.  1.
<mgrwt>
<rscale>  0 0.16317622E+04</rscale>
<asrwt>0</asrwt>
<pdfrwt beam="1">  1        4 0.11915363E+00 0.16317622E+04</pdfrwt>
<pdfrwt beam="2">  1       -4 0.11401195E+00 0.16317622E+04</pdfrwt>
<totfact> 0.62375916E-01</totfact>
</mgrwt>
</event>
<event>
 8    1  0.5361529E-011  0.1666584E+04  0.7818608E-02  0.8780656E-01
         -4   -1    0    0    0  501 -0.00000000000E+00  0.00000000000E+00  0.37198679452E+03  0.37198896247E+03  0.12700000000E+01 0. -1.
          4   -1    0    0  501    0  0.00000000000E+00 -0.00000000000E+00 -0.18666586326E+04  0.18666590646E+04  0.12700000000E+01 0.  1.
     200001    2    1    2    0    0  0.39875820410E+03  0.15992829732E+03 -0.55894686580E+03  0.99359124551E+03  0.70015483912E+03 0.  0.
    5000001    2    3    3    0    0  0.14923223804E+03  0.61826421587E+02 -0.28159454637E+03  0.36207600828E+03  0.16034581363E+03 0.  0.
        -11    1    4    4    0    0  0.15289397915E+03 -0.12299046863E+01 -0.22541520105E+03  0.27237858651E+03  0.51100000000E-03 0. -1.
     200002    1    4    4    0    0 -0.36617411086E+01  0.63056326273E+02 -0.56179345317E+02  0.89697421765E+02  0.30000000000E+02 0. -1.
     200000    1    3    3    0    0  0.24952596606E+03  0.98101875734E+02 -0.27735231943E+03  0.63151523723E+03  0.50000000000E+03 0. -1.
    -200001    1    1    2    0    0 -0.39875820410E+03 -0.15992829732E+03 -0.93572497222E+03  0.12450567815E+04  0.70000000000E+03 0.  1.
<mgrwt>
<rscale>  0 0.16665837E+04</rscale>
<asrwt>0</asrwt>
<pdfrwt beam="1">  1        4 0.26666570E+00 0.16665837E+04</pdfrwt>
<pdfrwt beam="2">  1       -4 0.53141158E-01 0.16665837E+04</pdfrwt>
<totfact> 0.32522599E-01</totfact>
</mgrwt>
</event>
<event>
 8    1  0.5361529E-011  0.1450709E+04  0.7818608E-02  0.8917909E-01
         -4   -1    0    0    0  501 -0.00000000000E+00  0.00000000000E+00  0.81574827188E+03  0.81574926048E+03  0.12700000000E+01 0. -1.
          4   -1    0    0  501    0  0.00000000000E+00 -0.00000000000E+00 -0.64497510019E+03  0.64497635055E+03  0.12700000000E+01 0.  1.
     200001    2    1    2    0    0  0.44198118165E+01 -0.99222150959E+02  0.25000656271E+03  0.74928868464E+03  0.69933231125E+03 0.  0.
    5000001    2    3    3    0    0 -0.73236447948E+02 -0.10619199662E+03  0.62603695190E+02  0.20966019375E+03  0.15296357978E+03 0.  0.
        -11    1    4    4    0    0 -0.43220482084E+02 -0.13132023080E+03  0.11638501223E+02  0.13873884748E+03  0.51100000000E-03 0. -1.
     200002    1    4    4    0    0 -0.30015965864E+02  0.25128234187E+02  0.50965193967E+02  0.70921346266E+02  0.30000000000E+02 0. -1.
     200000    1    3    3    0    0  0.77656259764E+02  0.69698456586E+01  0.18740286752E+03  0.53962849089E+03  0.50000000000E+03 0. -1.
    -200001    1    1    2    0    0 -0.44198118165E+01  0.99222150959E+02 -0.79233391023E+02  0.71143692639E+03  0.70000000000E+03 0.  1.
<mgrwt>
<rscale>  0 0.14507087E+04</rscale>
<asrwt>0</asrwt>
<pdfrwt beam="1">  1        4 0.92139460E-01 0.14507087E+04</pdfrwt>
<pdfrwt beam="2">  1       -4 0.11653563E+00 0.14507087E+04</pdfrwt>
<totfact> 0.11121095E+00</totfact>
</mgrwt>
</event>
<event>
 8    1  0.5361529E-011  0.1961771E+04  0.7818608E-02  0.8624706E-01
         -4   -1    0    0    0  501 -0.00000000000E+00  0.00000000000E+00  0.15361031859E+04  0.15361037109E+04  0.12700000000E+01 0. -1.
          4   -1    0    0  501    0  0.00000000000E+00 -0.00000000000E+00 -0.62634722061E+03  0.62634850816E+03  0.12700000000E+01 0.  1.
     200001    2    1    2    0    0  0.34794225370E+03 -0.29213006956E+03 -0.11362829279E+03  0.84195264347E+03  0.69969212907E+03 0.  0.
    5000001    2    3    3    0    0 -0.32775733176E+02  0.67477033185E+00 -0.12693963537E+03  0.14851335151E+03  0.69769911487E+02 0.  0.
        -11    1    4    4    0    0 -0.11291398910E+02 -0.10799015769E+02 -0.10046296257E+03  0.10167065103E+03  0.51100000000E-03 0. -1.
     200002    1    4    4    0    0 -0.21484334265E+02  0.11473786101E+02 -0.26476672798E+02  0.46842700486E+02  0.30000000000E+02 0. -1.
     200000    1    3    3    0    0  0.38071798687E+03 -0.29280483989E+03  0.13311342578E+02  0.69343929196E+03  0.50000000000E+03 0. -1.
    -200001    1    1    2    0    0 -0.34794225370E+03  0.29213006956E+03  0.10233842581E+04  0.13204995756E+04  0.70000000000E+03 0. -1.
<mgrwt>
<rscale>  0 0.19617705E+04</rscale>
<asrwt>0</asrwt>
<pdfrwt beam="1">  1        4 0.89478305E-01 0.19617705E+04</pdfrwt>
<pdfrwt beam="2">  1       -4 0.21944344E+00 0.19617705E+04</pdfrwt>
<totfact> 0.19820025E-01</totfact>
</mgrwt>
</event>
<event>
 8    1  0.5361529E-011  0.1767502E+04  0.7818608E-02  0.8723775E-01
          4   -1    0    0  501    0  0.00000000000E+00  0.00000000000E+00  0.12725306611E+04  0.12725312948E+04  0.12700000000E+01 0.  1.
         -4   -1    0    0    0  501 -0.00000000000E+00 -0.00000000000E+00 -0.61374883371E+03  0.61375014769E+03  0.12700000000E+01 0. -1.
     200001    2    1    2    0    0 -0.41082117021E+03  0.33961295828E+03  0.41810953474E+03  0.97412238413E+03  0.69999131487E+03 0.  0.
    5000001    2    3    3    0    0 -0.15976456148E+03  0.76855768953E+02  0.12003062612E+03  0.28788496377E+03  0.19245486961E+03 0.  0.
        -11    1    4    4    0    0 -0.42522045024E+02  0.12453484234E+03  0.60715534069E+02  0.14492559245E+03  0.51100000000E-03 0. -1.
     200002    1    4    4    0    0 -0.11724251645E+03 -0.47679073390E+02  0.59315092053E+02  0.14295937132E+03  0.30000000000E+02 0. -1.
     200000    1    3    3    0    0 -0.25105660874E+03  0.26275718933E+03  0.29807890862E+03  0.68623742036E+03  0.50000000000E+03 0. -1.
    -200001    1    1    2    0    0  0.41082117021E+03 -0.33961295828E+03  0.24067229262E+03  0.91215905837E+03  0.70000000000E+03 0.  1.
<mgrwt>
<rscale>  0 0.17675022E+04</rscale>
<asrwt>0</asrwt>
<pdfrwt beam="1">  1        4 0.18179023E+00 0.17675022E+04</pdfrwt>
<pdfrwt beam="2">  1       -4 0.87678545E-01 0.17675022E+04</pdfrwt>
<totfact> 0.37460290E-01</totfact>
</mgrwt>
</event>
<event>
 8    1  0.5361529E-011  0.1536097E+04  0.7818608E-02  0.8860797E-01
          4   -1    0    0  501    0  0.00000000000E+00  0.00000000000E+00  0.16965110175E+04  0.16965114928E+04  0.12700000000E+01 0.  1.
         -4   -1    0    0    0  501 -0.00000000000E+00 -0.00000000000E+00 -0.34771127157E+03  0.34771359087E+03  0.12700000000E+01 0. -1.
     200001    2    1    2    0    0 -0.40199935517E+02  0.22472601581E+03  0.38107289922E+03  0.82824273728E+03  0.69903623679E+03 0.  0.
    5000001    2    3    3    0    0  0.80336712546E+02 -0.42713605651E+02  0.46984942256E+01  0.13707652906E+03  0.10241806227E+03 0.  0.
        -11    1    4    4    0    0  0.66692625614E+01  0.16397499555E+02  0.29966917759E+02  0.34804787243E+02  0.51100000000E-03 0. -1.
     200002    1    4    4    0    0  0.73667449985E+02 -0.59111105206E+02 -0.25268423534E+02  0.10227174181E+03  0.30000000000E+02 0. -1.
     200000    1    3    3    0    0 -0.12053664806E+03  0.26743962146E+03  0.37637440500E+03  0.69116620823E+03  0.50000000000E+03 0. -1.
    -200001    1    1    2    0    0  0.40199935517E+02 -0.22472601581E+03  0.96772684668E+03  0.12159823464E+04  0.70000000000E+03 0.  1.
<mgrwt>
<rscale>  0 0.15360975E+04</rscale>
<asrwt>0</asrwt>
<pdfrwt beam="1">  1        4 0.24235892E+00 0.15360975E+04</pdfrwt>
<pdfrwt beam="2">  1       -4 0.49673238E-01 0.15360975E+04</pdfrwt>
<totfact> 0.53528125E-01</totfact>
</mgrwt>
</event>
<event>
 8    1  0.5361529E-011  0.1518748E+04  0.7818608E-02  0.8872081E-01
          4   -1    0    0  501    0  0.00000000000E+00  0.00000000000E+00  0.15423074598E+04  0.15423079827E+04  0.12700000000E+01 0.  1.
         -4   -1    0    0    0  501 -0.00000000000E+00 -0.00000000000E+00 -0.37388533592E+03  0.37388749286E+03  0.12700000000E+01 0. -1.
     200001    2    1    2    0    0 -0.12607767716E+03  0.22376860196E+03  0.40261188924E+03  0.84734876839E+03  0.69995402280E+03 0.  0.
    5000001    2    3    3    0    0  0.53003636019E+02  0.29771328861E+02  0.75538730153E+02  0.19413983543E+03  0.16819173135E+03 0.  0.
        -11    1    4    4    0    0 -0.54106182244E+01 -0.64056147991E+02  0.25381613558E+02  0.69113610758E+02  0.51100000000E-03 0. -1.
     200002    1    4    4    0    0  0.58414254243E+02  0.93827476852E+02  0.50157116595E+02  0.12502622467E+03  0.30000000000E+02 0. -1.
     200000    1    3    3    0    0 -0.17908131318E+03  0.19399727310E+03  0.32707315909E+03  0.65320893296E+03  0.50000000000E+03 0. -1.
    -200001    1    1    2    0    0  0.12607767716E+03 -0.22376860196E+03  0.76581023461E+03  0.10688467071E+04  0.70000000000E+03 0.  1.
<mgrwt>
<rscale>  0 0.15187478E+04</rscale>
<asrwt>0</asrwt>
<pdfrwt beam="1">  1        4 0.22032983E+00 0.15187478E+04</pdfrwt>
<pdfrwt beam="2">  1       -4 0.53412382E-01 0.15187478E+04</pdfrwt>
<totfact> 0.63337600E-01</totfact>
</mgrwt>
</event>
<event>
 8    1  0.5361529E-011  0.1464766E+04  0.7818608E-02  0.8908227E-01
          4   -1    0    0  501    0  0.00000000000E+00  0.00000000000E+00  0.13918236364E+04  0.13918242158E+04  0.12700000000E+01 0.  1.
         -4   -1    0    0    0  501 -0.00000000000E+00 -0.00000000000E+00 -0.38538122804E+03  0.38538332064E+03  0.12700000000E+01 0. -1.
     200001    2    1    2    0    0 -0.46931242163E+02 -0.87544839072E+02  0.73730619672E+03  0.10207017924E+04  0.69881691520E+03 0.  0.
    5000001    2    3    3    0    0 -0.62050257924E+02  0.55435924069E+02  0.22165042960E+03  0.28819039084E+03  0.16432106452E+03 0.  0.
        -11    1    4    4    0    0  0.17557372287E+02 -0.47475011373E+02  0.58029632163E+02  0.77003741700E+02  0.51100000000E-03 0. -1.
     200002    1    4    4    0    0 -0.79607630211E+02  0.10291093544E+03  0.16362079743E+03  0.21118664914E+03  0.30000000000E+02 0. -1.
     200000    1    3    3    0    0  0.15119015761E+02 -0.14298076314E+03  0.51565576713E+03  0.73251140158E+03  0.50000000000E+03 0.  1.
    -200001    1    1    2    0    0  0.46931242163E+02  0.87544839072E+02  0.26913621162E+03  0.75650574402E+03  0.70000000000E+03 0. -1.
<mgrwt>
<rscale>  0 0.14647663E+04</rscale>
<asrwt>0</asrwt>
<pdfrwt beam="1">  1        4 0.19883214E+00 0.14647663E+04</pdfrwt>
<pdfrwt beam="2">  1       -4 0.55054652E-01 0.14647663E+04</pdfrwt>
<totfact> 0.82214353E-01</totfact>
</mgrwt>
</event>
<event>
 8    1  0.5361529E-011  0.1452904E+04  0.7818608E-02  0.8916390E-01
         -4   -1    0    0    0  501 -0.00000000000E+00  0.00000000000E+00  0.31907139029E+04  0.31907141557E+04  0.12700000000E+01 0. -1.
          4   -1    0    0  501    0  0.00000000000E+00 -0.00000000000E+00 -0.16539359302E+03  0.16539846889E+03  0.12700000000E+01 0.  1.
     200001    2    1    2    0    0 -0.16913617807E+03 -0.18381820031E+02  0.17252042888E+04  0.18697591651E+04  0.70051735129E+03 0.  0.
    5000001    2    3    3    0    0 -0.82984047657E+02  0.11467864928E+03  0.48914925793E+03  0.52701595908E+03  0.13579867385E+03 0.  0.
        -11    1    4    4    0    0 -0.76333654420E+02  0.89429067985E+01  0.28362977241E+03  0.29385821441E+03  0.51100000000E-03 0. -1.
     200002    1    4    4    0    0 -0.66503932371E+01  0.10573574248E+03  0.20551948552E+03  0.23315774467E+03  0.30000000000E+02 0. -1.
     200000    1    3    3    0    0 -0.86152130410E+02 -0.13306046931E+03  0.12360550309E+04  0.13427432061E+04  0.50000000000E+03 0. -1.
    -200001    1    1    2    0    0  0.16913617807E+03  0.18381820031E+02  0.13001160211E+04  0.14863534594E+04  0.70000000000E+03 0.  1.
<mgrwt>
<rscale>  0 0.14529036E+04</rscale>
<asrwt>0</asrwt>
<pdfrwt beam="1">  1        4 0.23628023E-01 0.14529036E+04</pdfrwt>
<pdfrwt beam="2">  1       -4 0.45581662E+00 0.14529036E+04</pdfrwt>
<totfact> 0.90515855E-02</totfact>
</mgrwt>
</event>
<event>
 8    1  0.5361529E-011  0.1880723E+04  0.7818608E-02  0.8664512E-01
          4   -1    0    0  501    0  0.00000000000E+00  0.00000000000E+00  0.18073399950E+04  0.18073404412E+04  0.12700000000E+01 0.  1.
         -4   -1    0    0    0  501 -0.00000000000E+00 -0.00000000000E+00 -0.48927007804E+03  0.48927172631E+03  0.12700000000E+01 0. -1.
     200001    2    1    2    0    0 -0.36829716219E+03  0.22592224005E+03  0.12153650640E+04  0.14676176289E+04  0.70007542993E+03 0.  0.
    5000001    2    3    3    0    0 -0.48082387046E+02  0.13565562542E+03  0.44792714216E+03  0.49311953868E+03  0.14769492235E+03 0.  0.
        -11    1    4    4    0    0 -0.16843519304E+02 -0.15707535671E+02  0.57321742090E+01  0.23733702637E+02  0.51100000000E-03 0. -1.
     200002    1    4    4    0    0 -0.31238867742E+02  0.15136316109E+03  0.44219496796E+03  0.46938583604E+03  0.30000000000E+02 0. -1.
     200000    1    3    3    0    0 -0.32021477515E+03  0.90266614628E+02  0.76743792183E+03  0.97449809020E+03  0.50000000000E+03 0. -1.
    -200001    1    1    2    0    0  0.36829716219E+03 -0.22592224005E+03  0.10270485294E+03  0.82899453861E+03  0.70000000000E+03 0. -1.
<mgrwt>
<rscale>  0 0.18807230E+04</rscale>
<asrwt>0</asrwt>
<pdfrwt beam="1">  1        4 0.25819158E+00 0.18807230E+04</pdfrwt>
<pdfrwt beam="2">  1       -4 0.69895874E-01 0.18807230E+04</pdfrwt>
<totfact> 0.19955796E-01</totfact>
</mgrwt>
</event>
<event>
 8    1  0.5361529E-011  0.2061218E+04  0.7818608E-02  0.8578522E-01
          4   -1    0    0  501    0  0.00000000000E+00  0.00000000000E+00  0.45294645611E+03  0.45294823656E+03  0.12700000000E+01 0.  1.
         -4   -1    0    0    0  501 -0.00000000000E+00 -0.00000000000E+00 -0.23449835171E+04  0.23449838611E+04  0.12700000000E+01 0. -1.
     200001    2    1    2    0    0  0.50950959191E+03  0.55327832543E+03 -0.84853639211E+03  0.13334831993E+04  0.70174532739E+03 0.  0.
    5000001    2    3    3    0    0  0.10251895298E+03  0.11528710287E+03 -0.18375876827E+03  0.30907752755E+03  0.19483424060E+03 0.  0.
        -11    1    4    4    0    0  0.14985252052E+03  0.65142818343E+02 -0.16359931011E+03  0.23122305023E+03  0.51100000000E-03 0. -1.
     200002    1    4    4    0    0 -0.47333567532E+02  0.50144284523E+02 -0.20159458160E+02  0.77854477321E+02  0.30000000000E+02 0. -1.
     200000    1    3    3    0    0  0.40699063893E+03  0.43799122256E+03 -0.66477762384E+03  0.10244056718E+04  0.50000000000E+03 0. -1.
    -200001    1    1    2    0    0 -0.50950959191E+03 -0.55327832543E+03 -0.10435006689E+04  0.14644488983E+04  0.70000000000E+03 0. -1.
<mgrwt>
<rscale>  0 0.20612180E+04</rscale>
<asrwt>0</asrwt>
<pdfrwt beam="1">  1        4 0.64706789E-01 0.20612180E+04</pdfrwt>
<pdfrwt beam="2">  1       -4 0.33499779E+00 0.20612180E+04</pdfrwt>
<totfact> 0.77066629E-02</totfact>
</mgrwt>
</event>
<event>
 8    1  0.5361529E-011  0.1440171E+04  0.7818608E-02  0.8925243E-01
          4   -1    0    0  501    0  0.00000000000E+00  0.00000000000E+00  0.38692299030E+03  0.38692507456E+03  0.12700000000E+01 0.  1.
         -4   -1    0    0    0  501 -0.00000000000E+00 -0.00000000000E+00 -0.13401144091E+04  0.13401150109E+04  0.12700000000E+01 0. -1.
     200001    2    1    2    0    0  0.93731791219E+02 -0.12301395166E+02 -0.30888380231E+03  0.77097038208E+03  0.70003510891E+03 0.  0.
    5000001    2    3    3    0    0 -0.99675463422E+01 -0.28263110395E+02 -0.12750784102E+03  0.22883979975E+03  0.18764660679E+03 0.  0.
        -11    1    4    4    0    0  0.52201965671E+02  0.56742719212E+02 -0.31788817357E+02  0.83398503061E+02  0.51100000000E-03 0. -1.
     200002    1    4    4    0    0 -0.62169512014E+02 -0.85005829607E+02 -0.95719023665E+02  0.14544129669E+03  0.30000000000E+02 0. -1.
     200000    1    3    3    0    0  0.10369933756E+03  0.15961715229E+02 -0.18137596128E+03  0.54213058233E+03  0.50000000000E+03 0.  1.
    -200001    1    1    2    0    0 -0.93731791219E+02  0.12301395166E+02 -0.64430761650E+03  0.95606970336E+03  0.70000000000E+03 0. -1.
<mgrwt>
<rscale>  0 0.14401714E+04</rscale>
<asrwt>0</asrwt>
<pdfrwt beam="1">  1        4 0.55274906E-01 0.14401714E+04</pdfrwt>
<pdfrwt beam="2">  1       -4 0.19144510E+00 0.14401714E+04</pdfrwt>
<totfact> 0.91484732E-01</totfact>
</mgrwt>
</event>
<event>
 8    1  0.5361529E-011  0.1883902E+04  0.7818608E-02  0.8662911E-01
          4   -1    0    0  501    0  0.00000000000E+00  0.00000000000E+00  0.21612902116E+04  0.21612905847E+04  0.12700000000E+01 0.  1.
         -4   -1    0    0    0  501 -0.00000000000E+00 -0.00000000000E+00 -0.41052715454E+03  0.41052911896E+03  0.12700000000E+01 0. -1.
     200001    2    1    2    0    0 -0.58072792762E+03  0.93174037287E+02  0.11836035041E+04  0.14959032173E+04  0.70063032585E+03 0.  0.
    5000001    2    3    3    0    0 -0.23742568040E+03  0.77130892273E+02  0.33505558689E+03  0.45276018625E+03  0.17438294553E+03 0.  0.
        -11    1    4    4    0    0 -0.23337028221E+03  0.48865574295E+02  0.19907778901E+03  0.31061471158E+03  0.51100000000E-03 0. -1.
     200002    1    4    4    0    0 -0.40553981889E+01  0.28265317978E+02  0.13597779788E+03  0.14214547467E+03  0.30000000000E+02 0. -1.
     200000    1    3    3    0    0 -0.34330224722E+03  0.16043145014E+02  0.84854791718E+03  0.10431430310E+04  0.50000000000E+03 0. -1.
    -200001    1    1    2    0    0  0.58072792762E+03 -0.93174037287E+02  0.56715955294E+03  0.10759164864E+04  0.70000000000E+03 0.  1.
<mgrwt>
<rscale>  0 0.18839016E+04</rscale>
<asrwt>0</asrwt>
<pdfrwt beam="1">  1        4 0.30875592E+00 0.18839016E+04</pdfrwt>
<pdfrwt beam="2">  1       -4 0.58646902E-01 0.18839016E+04</pdfrwt>
<totfact> 0.14197809E-01</totfact>
</mgrwt>
</event>
<event>
 8    1  0.5361529E-011  0.1436599E+04  0.7818608E-02  0.8927744E-01
          4   -1    0    0  501    0  0.00000000000E+00  0.00000000000E+00  0.13893127382E+04  0.13893133186E+04  0.12700000000E+01 0.  1.
         -4   -1    0    0    0  501 -0.00000000000E+00 -0.00000000000E+00 -0.37137179826E+03  0.37137396980E+03  0.12700000000E+01 0. -1.
     200001    2    1    2    0    0 -0.48993476910E+02  0.12171514688E+03  0.62142996287E+03  0.94555791669E+03  0.70049242487E+03 0.  0.
    5000001    2    3    3    0    0 -0.16918412488E+02 -0.25757098590E+02  0.10770787489E+03  0.21296849783E+03  0.18112132383E+03 0.  0.
        -11    1    4    4    0    0  0.78231667944E+02 -0.29757770254E+02  0.44477385704E+02  0.94783735942E+02  0.51100000000E-03 0. -1.
     200002    1    4    4    0    0 -0.95150080432E+02  0.40006716641E+01  0.63230489184E+02  0.11818476189E+03  0.30000000000E+02 0. -1.
     200000    1    3    3    0    0 -0.32075064422E+02  0.14747224547E+03  0.51372208798E+03  0.73258941886E+03  0.50000000000E+03 0.  1.
    -200001    1    1    2    0    0  0.48993476910E+02 -0.12171514688E+03  0.39651097704E+03  0.81512937174E+03  0.70000000000E+03 0.  1.
<mgrwt>
<rscale>  0 0.14365988E+04</rscale>
<asrwt>0</asrwt>
<pdfrwt beam="1">  1        4 0.19847345E+00 0.14365988E+04</pdfrwt>
<pdfrwt beam="2">  1       -4 0.53053310E-01 0.14365988E+04</pdfrwt>
<totfact> 0.89564949E-01</totfact>
</mgrwt>
</event>
<event>
 8    1  0.5361529E-011  0.1883686E+04  0.7818608E-02  0.8663020E-01
         -4   -1    0    0    0  501 -0.00000000000E+00  0.00000000000E+00  0.72672468331E+03  0.72672579301E+03  0.12700000000E+01 0. -1.
          4   -1    0    0  501    0  0.00000000000E+00 -0.00000000000E+00 -0.12206363438E+04  0.12206370045E+04  0.12700000000E+01 0.  1.
     200001    2    1    2    0    0  0.43176870352E+03 -0.35830241609E+03  0.49287602558E+02  0.89861579555E+03  0.70019729043E+03 0.  0.
    5000001    2    3    3    0    0  0.89372174762E+02 -0.58435753276E+02 -0.41898392216E+02  0.21636196887E+03  0.18345272802E+03 0.  0.
        -11    1    4    4    0    0  0.46524064175E+02 -0.11250768474E+03 -0.64541294918E+02  0.13779712052E+03  0.51100000000E-03 0. -1.
     200002    1    4    4    0    0  0.42848110587E+02  0.54071931466E+02  0.22642902701E+02  0.78564848349E+02  0.30000000000E+02 0. -1.
     200000    1    3    3    0    0  0.34239652876E+03 -0.29986666282E+03  0.91185994775E+02  0.68225382668E+03  0.50000000000E+03 0. -1.
    -200001    1    1    2    0    0 -0.43176870352E+03  0.35830241609E+03 -0.54319926305E+03  0.10487470019E+04  0.70000000000E+03 0.  1.
<mgrwt>
<rscale>  0 0.18836861E+04</rscale>
<asrwt>0</asrwt>
<pdfrwt beam="1">  1        4 0.17437675E+00 0.18836861E+04</pdfrwt>
<pdfrwt beam="2">  1       -4 0.10381794E+00 0.18836861E+04</pdfrwt>
<totfact> 0.28085867E-01</totfact>
</mgrwt>
</event>
<event>
 8    1  0.5361529E-011  0.1405095E+04  0.7818608E-02  0.8950139E-01
          4   -1    0    0  501    0  0.00000000000E+00  0.00000000000E+00  0.31282144463E+03  0.31282402261E+03  0.12700000000E+01 0.  1.
         -4   -1    0    0    0  501 -0.00000000000E+00 -0.00000000000E+00 -0.15778008208E+04  0.15778013319E+04  0.12700000000E+01 0. -1.
     200001    2    1    2    0    0  0.16640384038E+02  0.48388383066E+02 -0.65581370006E+03  0.96127011623E+03  0.70094956251E+03 0.  0.
    5000001    2    3    3    0    0  0.52895904858E+02 -0.11713093315E+02 -0.12897107607E+03  0.23155112874E+03  0.18451887018E+03 0.  0.
        -11    1    4    4    0    0  0.10460668580E+03  0.33913780474E+02 -0.44978042564E+02  0.11880962727E+03  0.51100000000E-03 0. -1.
     200002    1    4    4    0    0 -0.51710780937E+02 -0.45626873789E+02 -0.83993033507E+02  0.11274150147E+03  0.30000000000E+02 0. -1.
     200000    1    3    3    0    0 -0.36255520821E+02  0.60101476382E+02 -0.52684262399E+03  0.72971898749E+03  0.50000000000E+03 0. -1.
    -200001    1    1    2    0    0 -0.16640384038E+02 -0.48388383066E+02 -0.60916567612E+03  0.92935523830E+03  0.70000000000E+03 0. -1.
<mgrwt>
<rscale>  0 0.14050948E+04</rscale>
<asrwt>0</asrwt>
<pdfrwt beam="1">  1        4 0.44688999E-01 0.14050948E+04</pdfrwt>
<pdfrwt beam="2">  1       -4 0.22540033E+00 0.14050948E+04</pdfrwt>
<totfact> 0.85895709E-01</totfact>
</mgrwt>
</event>
<event>
 8    1  0.5361529E-011  0.1612396E+04  0.7818608E-02  0.8812968E-01
         -4   -1    0    0    0  501 -0.00000000000E+00  0.00000000000E+00  0.77109219777E+03  0.77109324362E+03  0.12700000000E+01 0. -1.
          4   -1    0    0  501    0  0.00000000000E+00 -0.00000000000E+00 -0.84290048439E+03  0.84290144115E+03  0.12700000000E+01 0.  1.
     200001    2    1    2    0    0  0.48602746270E+02  0.20683410611E+02 -0.43301538505E+03  0.82452613038E+03  0.69967920190E+03 0.  0.
    5000001    2    3    3    0    0  0.50077430868E+01  0.50685194812E+02 -0.17640653331E+03  0.26003633052E+03  0.18413462936E+03 0.  0.
        -11    1    4    4    0    0 -0.22519520708E+02 -0.28207880761E+02 -0.16688913985E+03  0.17074776236E+03  0.51100000000E-03 0. -1.
     200002    1    4    4    0    0  0.27527263795E+02  0.78893075573E+02 -0.95173934633E+01  0.89288568158E+02  0.30000000000E+02 0. -1.
     200000    1    3    3    0    0  0.43595003184E+02 -0.30001784201E+02 -0.25660885173E+03  0.56448979986E+03  0.50000000000E+03 0.  1.
    -200001    1    1    2    0    0 -0.48602746270E+02 -0.20683410611E+02  0.36120709842E+03  0.78946855439E+03  0.70000000000E+03 0. -1.
<mgrwt>
<rscale>  0 0.16123965E+04</rscale>
<asrwt>0</asrwt>
<pdfrwt beam="1">  1        4 0.12041450E+00 0.16123965E+04</pdfrwt>
<pdfrwt beam="2">  1       -4 0.11015617E+00 0.16123965E+04</pdfrwt>
<totfact> 0.66176765E-01</totfact>
</mgrwt>
</event>
<event>
 8    1  0.5361529E-011  0.1938299E+04  0.7818608E-02  0.8636024E-01
          4   -1    0    0  501    0  0.00000000000E+00  0.00000000000E+00  0.27126164328E+04  0.27126167301E+04  0.12700000000E+01 0.  1.
         -4   -1    0    0    0  501 -0.00000000000E+00 -0.00000000000E+00 -0.34625109861E+03  0.34625342770E+03  0.12700000000E+01 0. -1.
     200001    2    1    2    0    0  0.40760301146E+03  0.35644581332E+03  0.55724353405E+03  0.10448901379E+04  0.69862809224E+03 0.  0.
    5000001    2    3    3    0    0  0.57887852463E+02  0.18470135476E+03  0.11092993468E+03  0.26965296099E+03  0.15146509516E+03 0.  0.
        -11    1    4    4    0    0  0.17519299664E+02  0.13993245129E+03  0.13413058454E+01  0.14103125854E+03  0.51100000000E-03 0. -1.
     200002    1    4    4    0    0  0.40368552799E+02  0.44768903474E+02  0.10958862883E+03  0.12862170245E+03  0.30000000000E+02 0. -1.
     200000    1    3    3    0    0  0.34971515900E+03  0.17174445856E+03  0.44631359937E+03  0.77523717691E+03  0.50000000000E+03 0. -1.
    -200001    1    1    2    0    0 -0.40760301146E+03 -0.35644581332E+03  0.18091218002E+04  0.20139800199E+04  0.70000000000E+03 0.  1.
<mgrwt>
<rscale>  0 0.19382987E+04</rscale>
<asrwt>0</asrwt>
<pdfrwt beam="1">  1        4 0.38751683E+00 0.19382987E+04</pdfrwt>
<pdfrwt beam="2">  1       -4 0.49464629E-01 0.19382987E+04</pdfrwt>
<totfact> 0.62070251E-02</totfact>
</mgrwt>
</event>
<event>
 8    1  0.5361529E-011  0.1773165E+04  0.7818608E-02  0.8720701E-01
          4   -1    0    0  501    0  0.00000000000E+00  0.00000000000E+00  0.18009953155E+04  0.18009957633E+04  0.12700000000E+01 0.  1.
         -4   -1    0    0    0  501 -0.00000000000E+00 -0.00000000000E+00 -0.43643994244E+03  0.43644179022E+03  0.12700000000E+01 0. -1.
     200001    2    1    2    0    0  0.26293931324E+03 -0.36480504956E+03  0.10695330883E+04  0.13546816671E+04  0.69931508305E+03 0.  0.
    5000001    2    3    3    0    0  0.59771113615E+02 -0.20574965013E+03  0.51740502582E+03  0.56637884780E+03  0.84684909759E+02 0.  0.
        -11    1    4    4    0    0 -0.59664354224E+01 -0.42971388832E+02  0.50025059045E+02  0.66216653061E+02  0.51100000000E-03 0. -1.
     200002    1    4    4    0    0  0.65737549037E+02 -0.16277826129E+03  0.46737996677E+03  0.50016219474E+03  0.30000000000E+02 0. -1.
     200000    1    3    3    0    0  0.20316819963E+03 -0.15905539943E+03  0.55212806251E+03  0.78830281925E+03  0.50000000000E+03 0.  1.
    -200001    1    1    2    0    0 -0.26293931324E+03  0.36480504956E+03  0.29502228477E+03  0.88275588649E+03  0.70000000000E+03 0. -1.
<mgrwt>
<rscale>  0 0.17731654E+04</rscale>
<asrwt>0</asrwt>
<pdfrwt beam="1">  1        4 0.25728521E+00 0.17731654E+04</pdfrwt>
<pdfrwt beam="2">  1       -4 0.62348728E-01 0.17731654E+04</pdfrwt>
<totfact> 0.26190455E-01</totfact>
</mgrwt>
</event>
<event>
 8    1  0.5361529E-011  0.1646523E+04  0.7818608E-02  0.8792466E-01
         -4   -1    0    0    0  501 -0.00000000000E+00  0.00000000000E+00  0.51291537119E+03  0.51291694348E+03  0.12700000000E+01 0. -1.
          4   -1    0    0  501    0  0.00000000000E+00 -0.00000000000E+00 -0.13213825577E+04  0.13213831680E+04  0.12700000000E+01 0.  1.
     200001    2    1    2    0    0  0.31830593719E+03  0.25460192087E+03 -0.24120468120E+03  0.84539791323E+03  0.70026932368E+03 0.  0.
    5000001    2    3    3    0    0  0.23294546820E+03  0.47426220891E+02 -0.14770075731E+03  0.28956415741E+03  0.74290308647E+02 0.  0.
        -11    1    4    4    0    0  0.55612082025E+02 -0.12996988194E+02 -0.18551837412E+02  0.60048280916E+02  0.51100000000E-03 0. -1.
     200002    1    4    4    0    0  0.17733338618E+03  0.60423209085E+02 -0.12914891990E+03  0.22951587649E+03  0.30000000000E+02 0. -1.
     200000    1    3    3    0    0  0.85360468990E+02  0.20717569998E+03 -0.93503923883E+02  0.55583375582E+03  0.50000000000E+03 0. -1.
    -200001    1    1    2    0    0 -0.31830593719E+03 -0.25460192087E+03 -0.56726250527E+03  0.98890219822E+03  0.70000000000E+03 0. -1.
<mgrwt>
<rscale>  0 0.16465229E+04</rscale>
<asrwt>0</asrwt>
<pdfrwt beam="1">  1        4 0.18876909E+00 0.16465229E+04</pdfrwt>
<pdfrwt beam="2">  1       -4 0.73273781E-01 0.16465229E+04</pdfrwt>
<totfact> 0.50907969E-01</totfact>
</mgrwt>
</event>
<event>
 8    1  0.5361529E-011  0.1834674E+04  0.7818608E-02  0.8688074E-01
         -4   -1    0    0    0  501 -0.00000000000E+00  0.00000000000E+00  0.11155477243E+04  0.11155484472E+04  0.12700000000E+01 0. -1.
          4   -1    0    0  501    0  0.00000000000E+00 -0.00000000000E+00 -0.75434298373E+03  0.75434405280E+03  0.12700000000E+01 0.  1.
     200001    2    1    2    0    0 -0.21234365295E+03 -0.11575369176E+03 -0.37045900564E+03  0.82882546010E+03  0.70087304439E+03 0.  0.
    5000001    2    3    3    0    0 -0.66335706360E+01 -0.13897598651E+03 -0.10425582780E+03  0.22573339016E+03  0.14397206922E+03 0.  0.
        -11    1    4    4    0    0  0.49213841346E+02 -0.30368894733E+01 -0.35341604444E+02  0.60665096082E+02  0.51100000000E-03 0. -1.
     200002    1    4    4    0    0 -0.55847411982E+02 -0.13593909703E+03 -0.68914223359E+02  0.16506829407E+03  0.30000000000E+02 0. -1.
     200000    1    3    3    0    0 -0.20571008232E+03  0.23222294750E+02 -0.26620317783E+03  0.60309206994E+03  0.50000000000E+03 0.  1.
    -200001    1    1    2    0    0  0.21234365295E+03  0.11575369176E+03  0.73166374621E+03  0.10410670399E+04  0.70000000000E+03 0. -1.
<mgrwt>
<rscale>  0 0.18346741E+04</rscale>
<asrwt>0</asrwt>
<pdfrwt beam="1">  1        4 0.10776341E+00 0.18346741E+04</pdfrwt>
<pdfrwt beam="2">  1       -4 0.15936409E+00 0.18346741E+04</pdfrwt>
<totfact> 0.33098144E-01</totfact>
</mgrwt>
</event>
<event>
 8    1  0.5361529E-011  0.3115703E+04  0.7818608E-02  0.8211442E-01
         -4   -1    0    0    0  501 -0.00000000000E+00  0.00000000000E+00  0.10248917390E+04  0.10248925259E+04  0.12700000000E+01 0. -1.
          4   -1    0    0  501    0  0.00000000000E+00 -0.00000000000E+00 -0.23679563784E+04  0.23679567190E+04  0.12700000000E+01 0.  1.
     200001    2    1    2    0    0 -0.10213921722E+04  0.17249175277E+03 -0.16837534341E+04  0.20970621370E+04  0.69974895868E+03 0.  0.
    5000001    2    3    3    0    0 -0.41032903233E+03  0.18760916672E+03 -0.52523409536E+03  0.69499446550E+03  0.59827568257E+02 0.  0.
        -11    1    4    4    0    0 -0.12244340230E+03  0.76757884372E+02 -0.14968407225E+03  0.20806124355E+03  0.51100000000E-03 0. -1.
     200002    1    4    4    0    0 -0.28788563003E+03  0.11085128235E+03 -0.37555002312E+03  0.48693322195E+03  0.30000000000E+02 0. -1.
     200000    1    3    3    0    0 -0.61106313989E+03 -0.15117413953E+02 -0.11585193388E+04  0.14020676715E+04  0.50000000000E+03 0.  1.
    -200001    1    1    2    0    0  0.10213921722E+04 -0.17249175277E+03  0.34068879473E+03  0.12957871079E+04  0.70000000000E+03 0. -1.
<mgrwt>
<rscale>  0 0.31157027E+04</rscale>
<asrwt>0</asrwt>
<pdfrwt beam="1">  1        4 0.33827956E+00 0.31157027E+04</pdfrwt>
<pdfrwt beam="2">  1       -4 0.14641319E+00 0.31157027E+04</pdfrwt>
<totfact> 0.95452008E-03</totfact>
</mgrwt>
</event>
<event>
 8    1  0.5361529E-011  0.1416535E+04  0.7818608E-02  0.8941936E-01
         -4   -1    0    0    0  501 -0.00000000000E+00  0.00000000000E+00  0.69202178133E+03  0.69202294669E+03  0.12700000000E+01 0. -1.
          4   -1    0    0  501    0  0.00000000000E+00 -0.00000000000E+00 -0.72489254428E+03  0.72489365679E+03  0.12700000000E+01 0.  1.
     200001    2    1    2    0    0 -0.67816713156E+02  0.36650740413E+01 -0.80567019387E+02  0.71201414765E+03  0.70417367353E+03 0.  0.
    5000001    2    3    3    0    0 -0.35596131754E+02  0.28740300034E+01 -0.30435971193E+02  0.20847476130E+03  0.20312565843E+03 0.  0.
        -11    1    4    4    0    0 -0.31638541505E+02  0.88366447084E+02 -0.61955527977E+02  0.11246383297E+03  0.51100000000E-03 0. -1.
     200002    1    4    4    0    0 -0.39575902488E+01 -0.85492417081E+02  0.31519556783E+02  0.96010928329E+02  0.30000000000E+02 0. -1.
     200000    1    3    3    0    0 -0.32220581402E+02  0.79104403787E+00 -0.50131048193E+02  0.50353938635E+03  0.50000000000E+03 0. -1.
    -200001    1    1    2    0    0  0.67816713156E+02 -0.36650740413E+01  0.47696256437E+02  0.70490245583E+03  0.70000000000E+03 0. -1.
<mgrwt>
<rscale>  0 0.14165353E+04</rscale>
<asrwt>0</asrwt>
<pdfrwt beam="1">  1        4 0.10355624E+00 0.14165353E+04</pdfrwt>
<pdfrwt beam="2">  1       -4 0.98860418E-01 0.14165353E+04</pdfrwt>
<totfact> 0.12587704E+00</totfact>
</mgrwt>
</event>
<event>
 8    1  0.5361529E-011  0.1611517E+04  0.7818608E-02  0.8813504E-01
          4   -1    0    0  501    0  0.00000000000E+00  0.00000000000E+00  0.94737277948E+03  0.94737363073E+03  0.12700000000E+01 0.  1.
         -4   -1    0    0    0  501 -0.00000000000E+00 -0.00000000000E+00 -0.68531085017E+03  0.68531202693E+03  0.12700000000E+01 0. -1.
     200001    2    1    2    0    0 -0.39282223727E+03 -0.20557167164E+02  0.63621147538E+02  0.80557583963E+03  0.70012347180E+03 0.  0.
    5000001    2    3    3    0    0 -0.12452034489E+03  0.61326268118E+01 -0.10276687682E+03  0.21364406551E+03  0.13978494323E+03 0.  0.
        -11    1    4    4    0    0  0.23161567625E+02  0.10411722875E+02  0.79363388600E+01  0.26605406647E+02  0.51100000000E-03 0. -1.
     200002    1    4    4    0    0 -0.14768191252E+03 -0.42790960634E+01 -0.11070321568E+03  0.18703865887E+03  0.30000000000E+02 0. -1.
     200000    1    3    3    0    0 -0.26830189238E+03 -0.26689793975E+02  0.16638802436E+03  0.59193177412E+03  0.50000000000E+03 0.  1.
    -200001    1    1    2    0    0  0.39282223727E+03  0.20557167164E+02  0.19844078178E+03  0.82710981804E+03  0.70000000000E+03 0. -1.
<mgrwt>
<rscale>  0 0.16115167E+04</rscale>
<asrwt>0</asrwt>
<pdfrwt beam="1">  1        4 0.13533911E+00 0.16115167E+04</pdfrwt>
<pdfrwt beam="2">  1       -4 0.97901695E-01 0.16115167E+04</pdfrwt>
<totfact> 0.65375368E-01</totfact>
</mgrwt>
</event>
<event>
 8    1  0.5361529E-011  0.1443728E+04  0.7818608E-02  0.8922760E-01
         -4   -1    0    0    0  501 -0.00000000000E+00  0.00000000000E+00  0.10162042072E+04  0.10162050008E+04  0.12700000000E+01 0. -1.
          4   -1    0    0  501    0  0.00000000000E+00 -0.00000000000E+00 -0.51277659548E+03  0.51277816819E+03  0.12700000000E+01 0.  1.
     200001    2    1    2    0    0  0.14692275175E+03  0.10184784331E+03  0.21938356973E+03  0.75268406688E+03  0.69745600270E+03 0.  0.
    5000001    2    3    3    0    0  0.85297847963E+02 -0.15075287663E+02  0.12777446988E+03  0.22745947254E+03  0.16705840096E+03 0.  0.
        -11    1    4    4    0    0  0.63735094622E+02 -0.82951589708E+02  0.44005187277E+02  0.11348825943E+03  0.51100000000E-03 0. -1.
     200002    1    4    4    0    0  0.21562753341E+02  0.67876302045E+02  0.83769282599E+02  0.11397121311E+03  0.30000000000E+02 0. -1.
     200000    1    3    3    0    0  0.61624903791E+02  0.11692313097E+03  0.91609099853E+02  0.52522459434E+03  0.50000000000E+03 0.  1.
    -200001    1    1    2    0    0 -0.14692275175E+03 -0.10184784331E+03  0.28404404204E+03  0.77629910214E+03  0.70000000000E+03 0.  1.
<mgrwt>
<rscale>  0 0.14437279E+04</rscale>
<asrwt>0</asrwt>
<pdfrwt beam="1">  1        4 0.73253968E-01 0.14437279E+04</pdfrwt>
<pdfrwt beam="2">  1       -4 0.14517220E+00 0.14437279E+04</pdfrwt>
<totfact> 0.10722252E+00</totfact>
</mgrwt>
</event>
<event>
 8    1  0.5361529E-011  0.1517627E+04  0.7818608E-02  0.8872815E-01
          4   -1    0    0  501    0  0.00000000000E+00  0.00000000000E+00  0.34880016942E+03  0.34880248148E+03  0.12700000000E+01 0.  1.
         -4   -1    0    0    0  501 -0.00000000000E+00 -0.00000000000E+00 -0.16507870141E+04  0.16507875026E+04  0.12700000000E+01 0. -1.
     200001    2    1    2    0    0  0.14601413681E+03 -0.29494083161E+02 -0.98309038348E+03  0.12160818590E+04  0.70014166900E+03 0.  0.
    5000001    2    3    3    0    0  0.78020582836E+02  0.49754589573E+02 -0.41425376169E+03  0.45156987233E+03  0.15409879944E+03 0.  0.
        -11    1    4    4    0    0  0.30626170313E+02 -0.48546493813E+02 -0.78451854102E+02  0.97208115824E+02  0.51100000000E-03 0. -1.
     200002    1    4    4    0    0  0.47394412523E+02  0.98301083386E+02 -0.33580190759E+03  0.35436175650E+03  0.30000000000E+02 0. -1.
     200000    1    3    3    0    0  0.67993553977E+02 -0.79248672734E+02 -0.56883662179E+03  0.76451198670E+03  0.50000000000E+03 0. -1.
    -200001    1    1    2    0    0 -0.14601413681E+03  0.29494083161E+02 -0.31889646118E+03  0.78350812506E+03  0.70000000000E+03 0.  1.
<mgrwt>
<rscale>  0 0.15176266E+04</rscale>
<asrwt>0</asrwt>
<pdfrwt beam="1">  1        4 0.49828797E-01 0.15176266E+04</pdfrwt>
<pdfrwt beam="2">  1       -4 0.23582691E+00 0.15176266E+04</pdfrwt>
<totfact> 0.58496708E-01</totfact>
</mgrwt>
</event>
<event>
 8    1  0.5361529E-011  0.1898739E+04  0.7818608E-02  0.8655484E-01
          4   -1    0    0  501    0  0.00000000000E+00  0.00000000000E+00  0.20698924796E+04  0.20698928692E+04  0.12700000000E+01 0.  1.
         -4   -1    0    0    0  501 -0.00000000000E+00 -0.00000000000E+00 -0.43543324319E+03  0.43543509525E+03  0.12700000000E+01 0. -1.
     200001    2    1    2    0    0 -0.30174238949E+03  0.31721402569E+03  0.19596828507E+03  0.84673536083E+03  0.69777073227E+03 0.  0.
    5000001    2    3    3    0    0 -0.14117122875E+03  0.34592886430E+02  0.65104741469E+02  0.23617572160E+03  0.17439713441E+03 0.  0.
        -11    1    4    4    0    0 -0.28367081221E+02 -0.66296245146E+02  0.29006122785E+02  0.77725404964E+02  0.51100000000E-03 0. -1.
     200002    1    4    4    0    0 -0.11280414753E+03  0.10088913158E+03  0.36098618685E+02  0.15845031663E+03  0.30000000000E+02 0. -1.
     200000    1    3    3    0    0 -0.16057116074E+03  0.28262113926E+03  0.13086354360E+03  0.61055963923E+03  0.50000000000E+03 0. -1.
    -200001    1    1    2    0    0  0.30174238949E+03 -0.31721402569E+03  0.14384909513E+04  0.16585926036E+04  0.70000000000E+03 0.  1.
<mgrwt>
<rscale>  0 0.18987394E+04</rscale>
<asrwt>0</asrwt>
<pdfrwt beam="1">  1        4 0.29569909E+00 0.18987394E+04</pdfrwt>
<pdfrwt beam="2">  1       -4 0.62204909E-01 0.18987394E+04</pdfrwt>
<totfact> 0.15066682E-01</totfact>
</mgrwt>
</event>
<event>
 8    1  0.5361529E-011  0.1514219E+04  0.7818608E-02  0.8875052E-01
         -4   -1    0    0    0  501 -0.00000000000E+00  0.00000000000E+00  0.21141082930E+04  0.21141086745E+04  0.12700000000E+01 0. -1.
          4   -1    0    0  501    0  0.00000000000E+00 -0.00000000000E+00 -0.27113586681E+03  0.27113884114E+03  0.12700000000E+01 0.  1.
     200001    2    1    2    0    0 -0.20342041010E+03 -0.19195026341E+03  0.10345725061E+04  0.12799262059E+04  0.69974713669E+03 0.  0.
    5000001    2    3    3    0    0 -0.43418455776E+02 -0.12606404766E+03  0.34627789095E+03  0.41177236236E+03  0.17852393181E+03 0.  0.
        -11    1    4    4    0    0 -0.74004625906E+02 -0.10824460968E+03  0.34067005912E+03  0.36503379209E+03  0.51100000000E-03 0. -1.
     200002    1    4    4    0    0  0.30586170130E+02 -0.17819437983E+02  0.56078318208E+01  0.46738570271E+02  0.30000000000E+02 0. -1.
     200000    1    3    3    0    0 -0.16000195432E+03 -0.65886215750E+02  0.68829461512E+03  0.86815384352E+03  0.50000000000E+03 0.  1.
    -200001    1    1    2    0    0  0.20342041010E+03  0.19195026341E+03  0.80839992012E+03  0.11053213097E+04  0.70000000000E+03 0. -1.
<mgrwt>
<rscale>  0 0.15142187E+04</rscale>
<asrwt>0</asrwt>
<pdfrwt beam="1">  1        4 0.38733936E-01 0.15142187E+04</pdfrwt>
<pdfrwt beam="2">  1       -4 0.30201571E+00 0.15142187E+04</pdfrwt>
<totfact> 0.38128898E-01</totfact>
</mgrwt>
</event>
<event>
 8    1  0.5361529E-011  0.2048710E+04  0.7818608E-02  0.8584180E-01
          4   -1    0    0  501    0  0.00000000000E+00  0.00000000000E+00  0.55676362438E+03  0.55676507284E+03  0.12700000000E+01 0.  1.
         -4   -1    0    0    0  501 -0.00000000000E+00 -0.00000000000E+00 -0.18846430376E+04  0.18846434655E+04  0.12700000000E+01 0. -1.
     200001    2    1    2    0    0  0.31741740312E+03 -0.17044596254E+03 -0.14449386250E+04  0.16454760708E+04  0.69995588115E+03 0.  0.
    5000001    2    3    3    0    0 -0.81501815833E+01  0.61728044145E+02 -0.34465555461E+03  0.37247887653E+03  0.12679229175E+03 0.  0.
        -11    1    4    4    0    0  0.36875851495E+01 -0.36973658506E+02 -0.10110699114E+03  0.10771849129E+03  0.51100000000E-03 0. -1.
     200002    1    4    4    0    0 -0.11837766733E+02  0.98701702650E+02 -0.24354856347E+03  0.26476038525E+03  0.30000000000E+02 0. -1.
     200000    1    3    3    0    0  0.32556758470E+03 -0.23217400668E+03 -0.11002830704E+04  0.12729971942E+04  0.50000000000E+03 0. -1.
    -200001    1    1    2    0    0 -0.31741740312E+03  0.17044596254E+03  0.11705921173E+03  0.79593246761E+03  0.70000000000E+03 0.  1.
<mgrwt>
<rscale>  0 0.20487098E+04</rscale>
<asrwt>0</asrwt>
<pdfrwt beam="1">  1        4 0.79537796E-01 0.20487098E+04</pdfrwt>
<pdfrwt beam="2">  1       -4 0.26923485E+00 0.20487098E+04</pdfrwt>
<totfact> 0.12587014E-01</totfact>
</mgrwt>
</event>
<event>
 8    1  0.5361529E-011  0.1435977E+04  0.7818608E-02  0.8928181E-01
          4   -1    0    0  501    0  0.00000000000E+00  0.00000000000E+00  0.34540236873E+03  0.34540470353E+03  0.12700000000E+01 0.  1.
         -4   -1    0    0    0  501 -0.00000000000E+00 -0.00000000000E+00 -0.14924753651E+04  0.14924759054E+04  0.12700000000E+01 0. -1.
     200001    2    1    2    0    0 -0.89059021197E+02 -0.13176014824E+03 -0.58195483484E+03  0.92428836818E+03  0.70024660787E+03 0.  0.
    5000001    2    3    3    0    0  0.93654196371E+00 -0.39527440681E+02 -0.15233667981E+03  0.25259064385E+03  0.19756587172E+03 0.  0.
        -11    1    4    4    0    0  0.88968744121E+02  0.86183790002E+01 -0.36829701303E+02  0.96675440446E+02  0.51100000000E-03 0. -1.
     200002    1    4    4    0    0 -0.88032202158E+02 -0.48145819682E+02 -0.11550697850E+03  0.15591520340E+03  0.30000000000E+02 0. -1.
     200000    1    3    3    0    0 -0.89995563161E+02 -0.92232707555E+02 -0.42961815503E+03  0.67169772433E+03  0.50000000000E+03 0.  1.
    -200001    1    1    2    0    0  0.89059021197E+02  0.13176014824E+03 -0.56511816149E+03  0.91359224075E+03  0.70000000000E+03 0.  1.
<mgrwt>
<rscale>  0 0.14359766E+04</rscale>
<asrwt>0</asrwt>
<pdfrwt beam="1">  1        4 0.49343402E-01 0.14359766E+04</pdfrwt>
<pdfrwt beam="2">  1       -4 0.21321097E+00 0.14359766E+04</pdfrwt>
<totfact> 0.83544310E-01</totfact>
</mgrwt>
</event>
<event>
 8    1  0.5361529E-011  0.2072680E+04  0.7818608E-02  0.8573374E-01
         -4   -1    0    0    0  501 -0.00000000000E+00  0.00000000000E+00  0.54305053315E+03  0.54305201818E+03  0.12700000000E+01 0. -1.
          4   -1    0    0  501    0  0.00000000000E+00 -0.00000000000E+00 -0.19777136174E+04  0.19777140252E+04  0.12700000000E+01 0.  1.
     200001    2    1    2    0    0 -0.96323278484E+02 -0.16090451226E+03 -0.16180843104E+04  0.17732288990E+04  0.70069640839E+03 0.  0.
    5000001    2    3    3    0    0 -0.60759602169E+02 -0.35787925810E+02 -0.31529924248E+03  0.37174116505E+03  0.18386238494E+03 0.  0.
        -11    1    4    4    0    0 -0.53532984376E+02 -0.10335807675E+03 -0.23564156920E+03  0.26282241453E+03  0.51100000000E-03 0. -1.
     200002    1    4    4    0    0 -0.72266177938E+01  0.67570150940E+02 -0.79657673281E+02  0.10891875052E+03  0.30000000000E+02 0. -1.
     200000    1    3    3    0    0 -0.35563676314E+02 -0.12511658645E+03 -0.13027850679E+04  0.14014877339E+04  0.50000000000E+03 0.  1.
    -200001    1    1    2    0    0  0.96323278484E+02  0.16090451226E+03  0.18342122609E+03  0.74753714438E+03  0.70000000000E+03 0. -1.
<mgrwt>
<rscale>  0 0.20726802E+04</rscale>
<asrwt>0</asrwt>
<pdfrwt beam="1">  1        4 0.28253065E+00 0.20726802E+04</pdfrwt>
<pdfrwt beam="2">  1       -4 0.77578784E-01 0.20726802E+04</pdfrwt>
<totfact> 0.10996440E-01</totfact>
</mgrwt>
</event>
<event>
 8    1  0.5361529E-011  0.1506781E+04  0.7818608E-02  0.8879956E-01
         -4   -1    0    0    0  501 -0.00000000000E+00  0.00000000000E+00  0.15030001276E+04  0.15030006642E+04  0.12700000000E+01 0. -1.
          4   -1    0    0  501    0  0.00000000000E+00 -0.00000000000E+00 -0.37764092896E+03  0.37764306445E+03  0.12700000000E+01 0.  1.
     200001    2    1    2    0    0 -0.22323433039E+03  0.46563526198E+02  0.76213098914E+03  0.10597073971E+04  0.70009598956E+03 0.  0.
    5000001    2    3    3    0    0 -0.12731367699E+03 -0.75575194286E+02  0.30807835223E+03  0.36668327350E+03  0.13275529975E+03 0.  0.
        -11    1    4    4    0    0 -0.11800103130E+02  0.34036770582E+02  0.69436372030E+02  0.78225021230E+02  0.51100000000E-03 0. -1.
     200002    1    4    4    0    0 -0.11551357386E+03 -0.10961196487E+03  0.23864198020E+03  0.28845825227E+03  0.30000000000E+02 0. -1.
     200000    1    3    3    0    0 -0.95920653396E+02  0.12213872048E+03  0.45405263691E+03  0.69302412359E+03  0.50000000000E+03 0. -1.
    -200001    1    1    2    0    0  0.22323433039E+03 -0.46563526198E+02  0.36322820950E+03  0.82093633152E+03  0.70000000000E+03 0.  1.
<mgrwt>
<rscale>  0 0.15067805E+04</rscale>
<asrwt>0</asrwt>
<pdfrwt beam="1">  1        4 0.53948894E-01 0.15067805E+04</pdfrwt>
<pdfrwt beam="2">  1       -4 0.21471450E+00 0.15067805E+04</pdfrwt>
<totfact> 0.67423947E-01</totfact>
</mgrwt>
</event>
<event>
 8    1  0.5361529E-011  0.1913924E+04  0.7818608E-02  0.8647956E-01
          4   -1    0    0  501    0  0.00000000000E+00  0.00000000000E+00  0.12171693117E+04  0.12171699743E+04  0.12700000000E+01 0.  1.
         -4   -1    0    0    0  501 -0.00000000000E+00 -0.00000000000E+00 -0.75238073825E+03  0.75238181011E+03  0.12700000000E+01 0. -1.
     200001    2    1    2    0    0 -0.43526224980E+03 -0.32862384833E+01 -0.26876004144E+03  0.86612186098E+03  0.69890707017E+03 0.  0.
    5000001    2    3    3    0    0 -0.22300915177E+03 -0.16417302733E+02 -0.19831367728E+03  0.31822908617E+03  0.10926493986E+03 0.  0.
        -11    1    4    4    0    0 -0.21746614034E+03 -0.18505434116E+02 -0.17598926317E+03  0.28036796186E+03  0.51100000000E-03 0. -1.
     200002    1    4    4    0    0 -0.55430114343E+01  0.20881313823E+01 -0.22324414105E+02  0.37861124304E+02  0.30000000000E+02 0.  1.
     200000    1    3    3    0    0 -0.21225309802E+03  0.13131064250E+02 -0.70446364158E+02  0.54789277481E+03  0.50000000000E+03 0. -1.
    -200001    1    1    2    0    0  0.43526224980E+03  0.32862384833E+01  0.73354861492E+03  0.11034299234E+04  0.70000000000E+03 0.  1.
<mgrwt>
<rscale>  0 0.19139242E+04</rscale>
<asrwt>0</asrwt>
<pdfrwt beam="1">  1        4 0.17388145E+00 0.19139242E+04</pdfrwt>
<pdfrwt beam="2">  1       -4 0.10748309E+00 0.19139242E+04</pdfrwt>
<totfact> 0.25972668E-01</totfact>
</mgrwt>
</event>
<event>
 8    1  0.5361529E-011  0.3200442E+04  0.7818608E-02  0.8188700E-01
          4   -1    0    0  501    0  0.00000000000E+00  0.00000000000E+00  0.13754550942E+04  0.13754556805E+04  0.12700000000E+01 0.  1.
         -4   -1    0    0    0  501 -0.00000000000E+00 -0.00000000000E+00 -0.18617150509E+04  0.18617154841E+04  0.12700000000E+01 0. -1.
     200001    2    1    2    0    0 -0.51700678326E+02 -0.52825130499E+03  0.11098058351E+04  0.14153181483E+04  0.69981002270E+03 0.  0.
    5000001    2    3    3    0    0  0.10642236472E+02 -0.13174616684E+03  0.29984775635E+03  0.38229585765E+03  0.19690387532E+03 0.  0.
        -11    1    4    4    0    0 -0.58803193691E+02  0.21850061507E+02  0.11012731660E+03  0.12674094302E+03  0.51100000000E-03 0. -1.
     200002    1    4    4    0    0  0.69445430163E+02 -0.15359622834E+03  0.18972043975E+03  0.25555491463E+03  0.30000000000E+02 0. -1.
     200000    1    3    3    0    0 -0.62342914798E+02 -0.39650513815E+03  0.80995807876E+03  0.10330222906E+04  0.50000000000E+03 0.  1.
    -200001    1    1    2    0    0  0.51700678326E+02  0.52825130499E+03 -0.15960657918E+04  0.18218530164E+04  0.70000000000E+03 0. -1.
<mgrwt>
<rscale>  0 0.32004419E+04</rscale>
<asrwt>0</asrwt>
<pdfrwt beam="1">  1        4 0.19649366E+00 0.32004419E+04</pdfrwt>
<pdfrwt beam="2">  1       -4 0.26595936E+00 0.32004419E+04</pdfrwt>
<totfact> 0.11787979E-02</totfact>
</mgrwt>
</event>
<event>
 8    1  0.5361529E-011  0.1650051E+04  0.7818608E-02  0.8790376E-01
         -4   -1    0    0    0  501 -0.00000000000E+00  0.00000000000E+00  0.60471446780E+03  0.60471580140E+03  0.12700000000E+01 0. -1.
          4   -1    0    0  501    0  0.00000000000E+00 -0.00000000000E+00 -0.11255985236E+04  0.11255992401E+04  0.12700000000E+01 0.  1.
     200001    2    1    2    0    0 -0.11429830866E+03  0.38468163748E+03 -0.80762701231E+02  0.81121174351E+03  0.70035549068E+03 0.  0.
    5000001    2    3    3    0    0 -0.50978831135E+02  0.17925523888E+02 -0.37955373289E+00  0.18273672134E+03  0.17456345447E+03 0.  0.
        -11    1    4    4    0    0 -0.30189244458E+02 -0.66804463325E+02  0.38286177610E+02  0.82704644351E+02  0.51100000000E-03 0. -1.
     200002    1    4    4    0    0 -0.20789586677E+02  0.84729987212E+02 -0.38665731343E+02  0.10003207699E+03  0.30000000000E+02 0. -1.
     200000    1    3    3    0    0 -0.63319477526E+02  0.36675611359E+03 -0.80383147498E+02  0.62847502217E+03  0.50000000000E+03 0.  1.
    -200001    1    1    2    0    0  0.11429830866E+03 -0.38468163748E+03 -0.44012135460E+03  0.91910329797E+03  0.70000000000E+03 0. -1.
<mgrwt>
<rscale>  0 0.16500515E+04</rscale>
<asrwt>0</asrwt>
<pdfrwt beam="1">  1        4 0.16079993E+00 0.16500515E+04</pdfrwt>
<pdfrwt beam="2">  1       -4 0.86387928E-01 0.16500515E+04</pdfrwt>
<totfact> 0.55242728E-01</totfact>
</mgrwt>
</event>
<event>
 8    1  0.5361529E-011  0.1669394E+04  0.7818608E-02  0.8779015E-01
          4   -1    0    0  501    0  0.00000000000E+00  0.00000000000E+00  0.10692158364E+04  0.10692165907E+04  0.12700000000E+01 0.  1.
         -4   -1    0    0    0  501 -0.00000000000E+00 -0.00000000000E+00 -0.65161518866E+03  0.65161642628E+03  0.12700000000E+01 0. -1.
     200001    2    1    2    0    0 -0.25011547167E+03  0.27026075818E+03 -0.63917282782E+02  0.79484265845E+03  0.70149184320E+03 0.  0.
    5000001    2    3    3    0    0 -0.11775282908E+03  0.14766055217E+03  0.25273740948E+02  0.25585683454E+03  0.17074715334E+03 0.  0.
        -11    1    4    4    0    0 -0.10476784463E+03  0.43058061182E+02 -0.49054850729E+02  0.12343693240E+03  0.51100000000E-03 0. -1.
     200002    1    4    4    0    0 -0.12984984458E+02  0.10460249099E+03  0.74328591677E+02  0.13241990214E+03  0.30000000000E+02 0. -1.
     200000    1    3    3    0    0 -0.13236264259E+03  0.12260020601E+03 -0.89191023730E+02  0.53898582392E+03  0.50000000000E+03 0. -1.
    -200001    1    1    2    0    0  0.25011547167E+03 -0.27026075818E+03  0.48151793054E+03  0.92599035849E+03  0.70000000000E+03 0.  1.
<mgrwt>
<rscale>  0 0.16693939E+04</rscale>
<asrwt>0</asrwt>
<pdfrwt beam="1">  1        4 0.15274526E+00 0.16693939E+04</pdfrwt>
<pdfrwt beam="2">  1       -4 0.93088027E-01 0.16693939E+04</pdfrwt>
<totfact> 0.53317766E-01</totfact>
</mgrwt>
</event>
<event>
 8    1  0.5361529E-011  0.1547281E+04  0.7818608E-02  0.8853606E-01
          4   -1    0    0  501    0  0.00000000000E+00  0.00000000000E+00  0.17007267939E+04  0.17007272681E+04  0.12700000000E+01 0. -1.
         -4   -1    0    0    0  501 -0.00000000000E+00 -0.00000000000E+00 -0.35191839858E+03  0.35192069016E+03  0.12700000000E+01 0.  1.
     200001    2    1    2    0    0 -0.93563103715E+02 -0.11630505186E+03  0.10645892114E+04  0.12825431187E+04  0.69948963018E+03 0.  0.
    5000001    2    3    3    0    0 -0.10015982005E+03  0.16498878220E+02  0.41235530990E+03  0.45002317129E+03  0.14892867607E+03 0.  0.
        -11    1    4    4    0    0 -0.12750050335E+02  0.68423985888E+02  0.11598594478E+03  0.13526693984E+03  0.51100000000E-03 0. -1.
     200002    1    4    4    0    0 -0.87409769716E+02 -0.51925107668E+02  0.29636936513E+03  0.31475623145E+03  0.30000000000E+02 0. -1.
     200000    1    3    3    0    0  0.65967163365E+01 -0.13280393008E+03  0.65223390149E+03  0.83251994736E+03  0.50000000000E+03 0. -1.
    -200001    1    1    2    0    0  0.93563103715E+02  0.11630505186E+03  0.28421918395E+03  0.77010483961E+03  0.70000000000E+03 0.  1.
<mgrwt>
<rscale>  0 0.15472813E+04</rscale>
<asrwt>0</asrwt>
<pdfrwt beam="1">  1        4 0.24296117E+00 0.15472813E+04</pdfrwt>
<pdfrwt beam="2">  1       -4 0.50274254E-01 0.15472813E+04</pdfrwt>
<totfact> 0.51709166E-01</totfact>
</mgrwt>
</event>
<event>
 8    1  0.5361529E-011  0.1577241E+04  0.7818608E-02  0.8834653E-01
         -4   -1    0    0    0  501 -0.00000000000E+00  0.00000000000E+00  0.48621226308E+03  0.48621392172E+03  0.12700000000E+01 0. -1.
          4   -1    0    0  501    0  0.00000000000E+00 -0.00000000000E+00 -0.12791119892E+04  0.12791126197E+04  0.12700000000E+01 0.  1.
     200001    2    1    2    0    0 -0.32461037358E+03 -0.15993122003E+03 -0.43439496159E+03  0.89960397848E+03  0.69974169925E+03 0.  0.
    5000001    2    3    3    0    0 -0.84254914031E+02 -0.78384073887E+02 -0.21012208358E+03  0.29568427538E+03  0.17330593505E+03 0.  0.
        -11    1    4    4    0    0 -0.43261900085E+02 -0.84036739451E+02 -0.22365875981E+03  0.24281063901E+03  0.51100000000E-03 0. -1.
     200002    1    4    4    0    0 -0.40993013945E+02  0.56526655639E+01  0.13536676227E+02  0.52873636376E+02  0.30000000000E+02 0. -1.
     200000    1    3    3    0    0 -0.24035545954E+03 -0.81547146148E+02 -0.22427287801E+03  0.60391970310E+03  0.50000000000E+03 0. -1.
    -200001    1    1    2    0    0  0.32461037358E+03  0.15993122003E+03 -0.35850476455E+03  0.86572256294E+03  0.70000000000E+03 0.  1.
<mgrwt>
<rscale>  0 0.15772406E+04</rscale>
<asrwt>0</asrwt>
<pdfrwt beam="1">  1        4 0.18273045E+00 0.15772406E+04</pdfrwt>
<pdfrwt beam="2">  1       -4 0.69459059E-01 0.15772406E+04</pdfrwt>
<totfact> 0.63361267E-01</totfact>
</mgrwt>
</event>
<event>
 8    1  0.5361529E-011  0.1619884E+04  0.7818608E-02  0.8808425E-01
          4   -1    0    0  501    0  0.00000000000E+00  0.00000000000E+00  0.43168088629E+03  0.43168275445E+03  0.12700000000E+01 0.  1.
         -4   -1    0    0    0  501 -0.00000000000E+00 -0.00000000000E+00 -0.15196492073E+04  0.15196497380E+04  0.12700000000E+01 0. -1.
     200001    2    1    2    0    0  0.10672050843E+03  0.11328477763E+03 -0.90870364536E+02  0.72315211375E+03  0.70033481187E+03 0.  0.
    5000001    2    3    3    0    0 -0.54973049359E+02  0.13528095735E+02  0.42228234391E+02  0.17196118562E+03  0.15678769101E+03 0.  0.
        -11    1    4    4    0    0 -0.95472555962E+02 -0.17824438556E+02  0.54472216342E+02  0.11135502640E+03  0.51100000000E-03 0. -1.
     200002    1    4    4    0    0  0.40499506602E+02  0.31352534291E+02 -0.12243981950E+02  0.60606159221E+02  0.30000000000E+02 0. -1.
     200000    1    3    3    0    0  0.16169355779E+03  0.99756681897E+02 -0.13309859893E+03  0.55119092813E+03  0.50000000000E+03 0.  1.
    -200001    1    1    2    0    0 -0.10672050843E+03 -0.11328477763E+03 -0.99709795647E+03  0.12281803787E+04  0.70000000000E+03 0. -1.
<mgrwt>
<rscale>  0 0.16198838E+04</rscale>
<asrwt>0</asrwt>
<pdfrwt beam="1">  1        4 0.61668870E-01 0.16198838E+04</pdfrwt>
<pdfrwt beam="2">  1       -4 0.21709291E+00 0.16198838E+04</pdfrwt>
<totfact> 0.48505961E-01</totfact>
</mgrwt>
</event>
<event>
 8    1  0.5361529E-011  0.1791990E+04  0.7818608E-02  0.8710571E-01
          4   -1    0    0  501    0  0.00000000000E+00  0.00000000000E+00  0.22597420338E+04  0.22597423906E+04  0.12700000000E+01 0.  1.
         -4   -1    0    0    0  501 -0.00000000000E+00 -0.00000000000E+00 -0.35526326441E+03  0.35526553441E+03  0.12700000000E+01 0. -1.
     200001    2    1    2    0    0 -0.25256977354E+03  0.41970508150E+03  0.55925412160E+03  0.10214040851E+04  0.70039794867E+03 0.  0.
    5000001    2    3    3    0    0  0.50958813768E+02 -0.40923281819E+02  0.57358298127E+02  0.12351349594E+03  0.87715982690E+02 0.  0.
        -11    1    4    4    0    0 -0.82668963547E+01 -0.65218731802E+01  0.46833316581E+02  0.48002457722E+02  0.51100000000E-03 0. -1.
     200002    1    4    4    0    0  0.59225710122E+02 -0.34401408639E+02  0.10524981546E+02  0.75511038215E+02  0.30000000000E+02 0. -1.
     200000    1    3    3    0    0 -0.30352858731E+03  0.46062836332E+03  0.50189582347E+03  0.89789058912E+03  0.50000000000E+03 0. -1.
    -200001    1    1    2    0    0  0.25256977354E+03 -0.41970508150E+03  0.13452246477E+04  0.15936038400E+04  0.70000000000E+03 0.  1.
<mgrwt>
<rscale>  0 0.17919897E+04</rscale>
<asrwt>0</asrwt>
<pdfrwt beam="1">  1        4 0.32282047E+00 0.17919897E+04</pdfrwt>
<pdfrwt beam="2">  1       -4 0.50752084E-01 0.17919897E+04</pdfrwt>
<totfact> 0.15852969E-01</totfact>
</mgrwt>
</event>
<event>
 8    1  0.5361529E-011  0.1610427E+04  0.7818608E-02  0.8814168E-01
          4   -1    0    0  501    0  0.00000000000E+00  0.00000000000E+00  0.14910101959E+04  0.14910107368E+04  0.12700000000E+01 0.  1.
         -4   -1    0    0    0  501 -0.00000000000E+00 -0.00000000000E+00 -0.43485045105E+03  0.43485230559E+03  0.12700000000E+01 0. -1.
     200001    2    1    2    0    0 -0.32746159725E+03  0.30421266895E+02  0.25970680074E+03  0.81568564963E+03  0.69981347909E+03 0.  0.
    5000001    2    3    3    0    0 -0.15602661589E+03  0.79122850628E+00 -0.64626400955E+02  0.19483146568E+03  0.97148326852E+02 0.  0.
        -11    1    4    4    0    0 -0.42488581551E+02  0.23718177773E+02 -0.56987712543E+02  0.74936178847E+02  0.51100000000E-03 0. -1.
     200002    1    4    4    0    0 -0.11353803434E+03 -0.22926949266E+02 -0.76386884122E+01  0.11989528683E+03  0.30000000000E+02 0. -1.
     200000    1    3    3    0    0 -0.17143498135E+03  0.29630038389E+02  0.32433320169E+03  0.62085418395E+03  0.50000000000E+03 0.  1.
    -200001    1    1    2    0    0  0.32746159725E+03 -0.30421266895E+02  0.79645294411E+03  0.11101773927E+04  0.70000000000E+03 0.  1.
<mgrwt>
<rscale>  0 0.16104270E+04</rscale>
<asrwt>0</asrwt>
<pdfrwt beam="1">  1        4 0.21300163E+00 0.16104270E+04</pdfrwt>
<pdfrwt beam="2">  1       -4 0.62121663E-01 0.16104270E+04</pdfrwt>
<totfact> 0.50762157E-01</totfact>
</mgrwt>
</event>
<event>
 8    1  0.5361529E-011  0.1676479E+04  0.7818608E-02  0.8774894E-01
         -4   -1    0    0    0  501 -0.00000000000E+00  0.00000000000E+00  0.62419631679E+03  0.62419760877E+03  0.12700000000E+01 0. -1.
          4   -1    0    0  501    0  0.00000000000E+00 -0.00000000000E+00 -0.11256769678E+04  0.11256776842E+04  0.12700000000E+01 0.  1.
     200001    2    1    2    0    0  0.38044811062E+03 -0.29874400064E+01  0.20685220736E+02  0.79729622157E+03  0.70035969109E+03 0.  0.
    5000001    2    3    3    0    0  0.20791365658E+03 -0.31992748961E+02  0.33983285771E+02  0.26740351138E+03  0.16154921730E+03 0.  0.
        -11    1    4    4    0    0 -0.37897816670E+01  0.33730068470E+02  0.27389513200E+02  0.43614967587E+02  0.51100000000E-03 0. -1.
     200002    1    4    4    0    0  0.21170343825E+03 -0.65722817430E+02  0.65937725708E+01  0.22378854380E+03  0.30000000000E+02 0. -1.
     200000    1    3    3    0    0  0.17253445404E+03  0.29005308955E+02 -0.13298065035E+02  0.52989271019E+03  0.50000000000E+03 0.  1.
    -200001    1    1    2    0    0 -0.38044811062E+03  0.29874400064E+01 -0.52216587177E+03  0.95257907142E+03  0.70000000000E+03 0.  1.
<mgrwt>
<rscale>  0 0.16764787E+04</rscale>
<asrwt>0</asrwt>
<pdfrwt beam="1">  1        4 0.16081114E+00 0.16764787E+04</pdfrwt>
<pdfrwt beam="2">  1       -4 0.89171046E-01 0.16764787E+04</pdfrwt>
<totfact> 0.51226259E-01</totfact>
</mgrwt>
</event>
<event>
 8    1  0.5361529E-011  0.1501373E+04  0.7818608E-02  0.8883540E-01
         -4   -1    0    0    0  501 -0.00000000000E+00  0.00000000000E+00  0.78033462038E+03  0.78033565384E+03  0.12700000000E+01 0. -1.
          4   -1    0    0  501    0  0.00000000000E+00 -0.00000000000E+00 -0.72216315411E+03  0.72216427082E+03  0.12700000000E+01 0.  1.
     200001    2    1    2    0    0 -0.62321969599E+02  0.21677929070E+03 -0.12154207167E+03  0.74541720495E+03  0.69999788962E+03 0.  0.
    5000001    2    3    3    0    0 -0.36265854604E+02  0.12810693895E+03 -0.12786283426E+02  0.22544650523E+03  0.18148288530E+03 0.  0.
        -11    1    4    4    0    0 -0.59726266446E+02  0.17535333290E+02 -0.71324515419E+02  0.94667319162E+02  0.51100000000E-03 0. -1.
     200002    1    4    4    0    0  0.23460411842E+02  0.11057160566E+03  0.58538231993E+02  0.13077918606E+03  0.30000000000E+02 0. -1.
     200000    1    3    3    0    0 -0.26056114995E+02  0.88672351748E+02 -0.10875578824E+03  0.51997069972E+03  0.50000000000E+03 0.  1.
    -200001    1    1    2    0    0  0.62321969599E+02 -0.21677929070E+03  0.17971353794E+03  0.75708271971E+03  0.70000000000E+03 0.  1.
<mgrwt>
<rscale>  0 0.15013734E+04</rscale>
<asrwt>0</asrwt>
<pdfrwt beam="1">  1        4 0.10316632E+00 0.15013734E+04</pdfrwt>
<pdfrwt beam="2">  1       -4 0.11147653E+00 0.15013734E+04</pdfrwt>
<totfact> 0.94528573E-01</totfact>
</mgrwt>
</event>
<event>
 8    1  0.5361529E-011  0.1507451E+04  0.7818608E-02  0.8879513E-01
          4   -1    0    0  501    0  0.00000000000E+00  0.00000000000E+00  0.53034899808E+03  0.53035051868E+03  0.12700000000E+01 0.  1.
         -4   -1    0    0    0  501 -0.00000000000E+00 -0.00000000000E+00 -0.10711817484E+04  0.10711825013E+04  0.12700000000E+01 0. -1.
     200001    2    1    2    0    0  0.25927831290E+03 -0.82073815966E+02 -0.19115617506E+03  0.77313995980E+03  0.69802819382E+03 0.  0.
    5000001    2    3    3    0    0  0.13664360032E+03 -0.48301756423E+02  0.21561836425E+02  0.21508191878E+03  0.15745089969E+03 0.  0.
        -11    1    4    4    0    0  0.11979647190E+03 -0.21704554932E+02  0.77429721392E+02  0.14428320810E+03  0.51100000000E-03 0. -1.
     200002    1    4    4    0    0  0.16847128419E+02 -0.26597201491E+02 -0.55867884967E+02  0.70798710679E+02  0.30000000000E+02 0.  1.
     200000    1    3    3    0    0  0.12263471258E+03 -0.33772059543E+02 -0.21271801148E+03  0.55805804102E+03  0.50000000000E+03 0.  1.
    -200001    1    1    2    0    0 -0.25927831290E+03  0.82073815966E+02 -0.34967657528E+03  0.82839306015E+03  0.70000000000E+03 0. -1.
<mgrwt>
<rscale>  0 0.15074508E+04</rscale>
<asrwt>0</asrwt>
<pdfrwt beam="1">  1        4 0.75764305E-01 0.15074508E+04</pdfrwt>
<pdfrwt beam="2">  1       -4 0.15302613E+00 0.15074508E+04</pdfrwt>
<totfact> 0.86060760E-01</totfact>
</mgrwt>
</event>
<event>
 8    1  0.5361529E-011  0.1522703E+04  0.7818608E-02  0.8869495E-01
         -4   -1    0    0    0  501 -0.00000000000E+00  0.00000000000E+00  0.30457335124E+03  0.30457599903E+03  0.12700000000E+01 0. -1.
          4   -1    0    0  501    0  0.00000000000E+00 -0.00000000000E+00 -0.19031618771E+04  0.19031623008E+04  0.12700000000E+01 0.  1.
     200001    2    1    2    0    0 -0.51879156640E+02 -0.11501830740E+03 -0.40603131969E+03  0.81917308789E+03  0.70018744450E+03 0.  0.
    5000001    2    3    3    0    0  0.13042591131E+02 -0.68573820477E+02 -0.36857984073E+02  0.19254650417E+03  0.17562222878E+03 0.  0.
        -11    1    4    4    0    0 -0.77981813349E+02 -0.16910325765E+02 -0.10125440719E+02  0.80434115154E+02  0.51100000000E-03 0. -1.
     200002    1    4    4    0    0  0.91024404480E+02 -0.51663494712E+02 -0.26732543355E+02  0.11211238902E+03  0.30000000000E+02 0. -1.
     200000    1    3    3    0    0 -0.64921747771E+02 -0.46444486927E+02 -0.36917333562E+03  0.62662658372E+03  0.50000000000E+03 0. -1.
    -200001    1    1    2    0    0  0.51879156640E+02  0.11501830740E+03 -0.11925572062E+04  0.13885652120E+04  0.70000000000E+03 0.  1.
<mgrwt>
<rscale>  0 0.15227026E+04</rscale>
<asrwt>0</asrwt>
<pdfrwt beam="1">  1        4 0.27188048E+00 0.15227026E+04</pdfrwt>
<pdfrwt beam="2">  1       -4 0.43510699E-01 0.15227026E+04</pdfrwt>
<totfact> 0.46245869E-01</totfact>
</mgrwt>
</event>
<event>
 8    1  0.5361529E-011  0.3020793E+04  0.7818608E-02  0.8237818E-01
          4   -1    0    0  501    0  0.00000000000E+00  0.00000000000E+00  0.17989492105E+04  0.17989496588E+04  0.12700000000E+01 0.  1.
         -4   -1    0    0    0  501 -0.00000000000E+00 -0.00000000000E+00 -0.12681267112E+04  0.12681273472E+04  0.12700000000E+01 0. -1.
     200001    2    1    2    0    0  0.12269534703E+04 -0.42344733300E+03  0.59800463525E+03  0.15908534790E+04  0.69891543528E+03 0.  0.
    5000001    2    3    3    0    0  0.41341971706E+03 -0.13574551901E+03  0.13885042506E+03  0.49293176493E+03  0.18536336194E+03 0.  0.
        -11    1    4    4    0    0  0.36855583838E+03 -0.15958397059E+03  0.79831547068E+02  0.40947957895E+03  0.51100000000E-03 0. -1.
     200002    1    4    4    0    0  0.44863878689E+02  0.23838451586E+02  0.59018877995E+02  0.83452185980E+02  0.30000000000E+02 0. -1.
     200000    1    3    3    0    0  0.81353375327E+03 -0.28770181399E+03  0.45915421019E+03  0.10979217141E+04  0.50000000000E+03 0.  1.
    -200001    1    1    2    0    0 -0.12269534703E+04  0.42344733300E+03 -0.67182135951E+02  0.14762235270E+04  0.70000000000E+03 0.  1.
<mgrwt>
<rscale>  0 0.30207927E+04</rscale>
<asrwt>0</asrwt>
<pdfrwt beam="1">  1        4 0.25699282E+00 0.30207927E+04</pdfrwt>
<pdfrwt beam="2">  1       -4 0.18116104E+00 0.30207927E+04</pdfrwt>
<totfact> 0.17307357E-02</totfact>
</mgrwt>
</event>
<event>
 8    1  0.5361529E-011  0.1569170E+04  0.7818608E-02  0.8839715E-01
          4   -1    0    0  501    0  0.00000000000E+00  0.00000000000E+00  0.72725434675E+03  0.72725545565E+03  0.12700000000E+01 0.  1.
         -4   -1    0    0    0  501 -0.00000000000E+00 -0.00000000000E+00 -0.84643258994E+03  0.84643354271E+03  0.12700000000E+01 0. -1.
     200001    2    1    2    0    0  0.31105000045E+03 -0.10484852022E+03 -0.19276767485E+03  0.79705477336E+03  0.70027967292E+03 0.  0.
    5000001    2    3    3    0    0  0.13261500971E+03 -0.49263555140E+02 -0.52572925361E+02  0.24516411205E+03  0.19320427192E+03 0.  0.
        -11    1    4    4    0    0 -0.23375549590E+02 -0.61142743346E+02  0.22299152150E+02  0.69152755327E+02  0.51100000000E-03 0. -1.
     200002    1    4    4    0    0  0.15599055930E+03  0.11879188206E+02 -0.74872077511E+02  0.17601135672E+03  0.30000000000E+02 0. -1.
     200000    1    3    3    0    0  0.17843499074E+03 -0.55584965078E+02 -0.14019474949E+03  0.55189066131E+03  0.50000000000E+03 0. -1.
    -200001    1    1    2    0    0 -0.31105000045E+03  0.10484852022E+03  0.73589431656E+02  0.77663422499E+03  0.70000000000E+03 0.  1.
<mgrwt>
<rscale>  0 0.15691697E+04</rscale>
<asrwt>0</asrwt>
<pdfrwt beam="1">  1        4 0.10389363E+00 0.15691697E+04</pdfrwt>
<pdfrwt beam="2">  1       -4 0.12091909E+00 0.15691697E+04</pdfrwt>
<totfact> 0.75703413E-01</totfact>
</mgrwt>
</event>
<event>
 8    1  0.5361529E-011  0.1473301E+04  0.7818608E-02  0.8902404E-01
          4   -1    0    0  501    0  0.00000000000E+00  0.00000000000E+00  0.77129194361E+03  0.77129298919E+03  0.12700000000E+01 0.  1.
         -4   -1    0    0    0  501 -0.00000000000E+00 -0.00000000000E+00 -0.70356236905E+03  0.70356351529E+03  0.12700000000E+01 0. -1.
     200001    2    1    2    0    0 -0.18703401493E+03  0.90579681858E+02  0.13111121097E+03  0.74191473781E+03  0.70004351795E+03 0.  0.
    5000001    2    3    3    0    0 -0.13990970877E+03  0.71591463178E+02  0.94097315993E+02  0.23797894715E+03  0.15191974922E+03 0.  0.
        -11    1    4    4    0    0  0.28316926500E+02 -0.89019536388E+01  0.11910171010E+02  0.31983515735E+02  0.51100000000E-03 0. -1.
     200002    1    4    4    0    0 -0.16822663527E+03  0.80493416817E+02  0.82187144983E+02  0.20599543142E+03  0.30000000000E+02 0. -1.
     200000    1    3    3    0    0 -0.47124306163E+02  0.18988218680E+02  0.37013894972E+02  0.50393579065E+03  0.50000000000E+03 0.  1.
    -200001    1    1    2    0    0  0.18703401493E+03 -0.90579681858E+02 -0.63381636405E+02  0.73294176668E+03  0.70000000000E+03 0.  1.
<mgrwt>
<rscale>  0 0.14733005E+04</rscale>
<asrwt>0</asrwt>
<pdfrwt beam="1">  1        4 0.11018472E+00 0.14733005E+04</pdfrwt>
<pdfrwt beam="2">  1       -4 0.10050907E+00 0.14733005E+04</pdfrwt>
<totfact> 0.10373725E+00</totfact>
</mgrwt>
</event>
<event>
 8    1  0.5361529E-011  0.1690286E+04  0.7818608E-02  0.8766924E-01
          4   -1    0    0  501    0  0.00000000000E+00  0.00000000000E+00  0.94982117969E+03  0.94982202874E+03  0.12700000000E+01 0. -1.
         -4   -1    0    0    0  501 -0.00000000000E+00 -0.00000000000E+00 -0.75199922022E+03  0.75200029262E+03  0.12700000000E+01 0.  1.
     200001    2    1    2    0    0 -0.14814030588E+03  0.13598823025E+03 -0.33289366206E+03  0.80065784141E+03  0.69985458474E+03 0.  0.
    5000001    2    3    3    0    0 -0.63133526048E+02  0.51300926868E+02 -0.18024899310E+03  0.26428251859E+03  0.17532234002E+03 0.  0.
        -11    1    4    4    0    0  0.41663740174E+02  0.68615171402E+02 -0.54825629289E+02  0.97209868938E+02  0.51100000000E-03 0. -1.
     200002    1    4    4    0    0 -0.10479726622E+03 -0.17314244534E+02 -0.12542336382E+03  0.16707264965E+03  0.30000000000E+02 0. -1.
     200000    1    3    3    0    0 -0.85006779833E+02  0.84687303386E+02 -0.15264466895E+03  0.53637532282E+03  0.50000000000E+03 0.  1.
    -200001    1    1    2    0    0  0.14814030588E+03 -0.13598823025E+03  0.53071562153E+03  0.90116447995E+03  0.70000000000E+03 0. -1.
<mgrwt>
<rscale>  0 0.16902857E+04</rscale>
<asrwt>0</asrwt>
<pdfrwt beam="1">  1        4 0.13568888E+00 0.16902857E+04</pdfrwt>
<pdfrwt beam="2">  1       -4 0.10742860E+00 0.16902857E+04</pdfrwt>
<totfact> 0.51662229E-01</totfact>
</mgrwt>
</event>
<event>
 8    1  0.5361529E-011  0.1555396E+04  0.7818608E-02  0.8848428E-01
         -4   -1    0    0    0  501 -0.00000000000E+00  0.00000000000E+00  0.49973405369E+03  0.49973566745E+03  0.12700000000E+01 0. -1.
          4   -1    0    0  501    0  0.00000000000E+00 -0.00000000000E+00 -0.12102684626E+04  0.12102691289E+04  0.12700000000E+01 0.  1.
     200001    2    1    2    0    0 -0.31123424376E+03  0.11567367414E+03 -0.42776011480E+03  0.88525728665E+03  0.70032463499E+03 0.  0.
    5000001    2    3    3    0    0 -0.85891239268E+02  0.93764247376E+02 -0.36866257953E+02  0.21141939815E+03  0.16483325474E+03 0.  0.
        -11    1    4    4    0    0 -0.47403295753E+02  0.11082530655E+03 -0.79515039404E+02  0.14440208624E+03  0.51100000000E-03 0. -1.
     200002    1    4    4    0    0 -0.38487943515E+02 -0.17061059170E+02  0.42648781452E+02  0.67017311908E+02  0.30000000000E+02 0. -1.
     200000    1    3    3    0    0 -0.22534300450E+03  0.21909426763E+02 -0.39089385685E+03  0.67383788850E+03  0.50000000000E+03 0.  1.
    -200001    1    1    2    0    0  0.31123424376E+03 -0.11567367414E+03 -0.28277429408E+03  0.82474750971E+03  0.70000000000E+03 0.  1.
<mgrwt>
<rscale>  0 0.15553962E+04</rscale>
<asrwt>0</asrwt>
<pdfrwt beam="1">  1        4 0.17289566E+00 0.15553962E+04</pdfrwt>
<pdfrwt beam="2">  1       -4 0.71390742E-01 0.15553962E+04</pdfrwt>
<totfact> 0.69978117E-01</totfact>
</mgrwt>
</event>
<event>
 8    1  0.5361529E-011  0.1526003E+04  0.7818608E-02  0.8867343E-01
          4   -1    0    0  501    0  0.00000000000E+00  0.00000000000E+00  0.13822633028E+04  0.13822638862E+04  0.12700000000E+01 0.  1.
         -4   -1    0    0    0  501 -0.00000000000E+00 -0.00000000000E+00 -0.42117059324E+03  0.42117250802E+03  0.12700000000E+01 0. -1.
     200001    2    1    2    0    0 -0.33659929622E+02 -0.13489447309E+03  0.16502205711E+03  0.73429749148E+03  0.70187678187E+03 0.  0.
    5000001    2    3    3    0    0  0.45933040685E+02 -0.67580158542E+02  0.11462771109E+03  0.22106669741E+03  0.17045248752E+03 0.  0.
        -11    1    4    4    0    0  0.86571499626E+02 -0.80061649840E+02  0.29918227144E+02  0.12165357635E+03  0.51100000000E-03 0. -1.
     200002    1    4    4    0    0 -0.40638458941E+02  0.12481491298E+02  0.84709483942E+02  0.99413121065E+02  0.30000000000E+02 0. -1.
     200000    1    3    3    0    0 -0.79592970307E+02 -0.67314314546E+02  0.50394346024E+02  0.51323079406E+03  0.50000000000E+03 0. -1.
    -200001    1    1    2    0    0  0.33659929622E+02  0.13489447309E+03  0.79607065245E+03  0.10691389028E+04  0.70000000000E+03 0.  1.
<mgrwt>
<rscale>  0 0.15260025E+04</rscale>
<asrwt>0</asrwt>
<pdfrwt beam="1">  1        4 0.19746637E+00 0.15260025E+04</pdfrwt>
<pdfrwt beam="2">  1       -4 0.60167406E-01 0.15260025E+04</pdfrwt>
<totfact> 0.69148008E-01</totfact>
</mgrwt>
</event>
<event>
 8    1  0.5361529E-011  0.1650318E+04  0.7818608E-02  0.8790218E-01
         -4   -1    0    0    0  501 -0.00000000000E+00  0.00000000000E+00  0.10339737935E+04  0.10339745735E+04  0.12700000000E+01 0. -1.
          4   -1    0    0  501    0  0.00000000000E+00 -0.00000000000E+00 -0.65851332036E+03  0.65851454502E+03  0.12700000000E+01 0.  1.
     200001    2    1    2    0    0 -0.41815495252E+03 -0.72642471022E+02  0.79303971295E+02  0.82194953496E+03  0.69941505935E+03 0.  0.
    5000001    2    3    3    0    0 -0.13812402920E+03  0.19231382296E+02  0.50152719043E+02  0.24082311288E+03  0.18982197702E+03 0.  0.
        -11    1    4    4    0    0 -0.13924164428E+03  0.70526288367E+02  0.78797466143E+02  0.17484631401E+03  0.51100000000E-03 0. -1.
     200002    1    4    4    0    0  0.11176150757E+01 -0.51294906071E+02 -0.28644747100E+02  0.65976798867E+02  0.30000000000E+02 0. -1.
     200000    1    3    3    0    0 -0.28003092332E+03 -0.91873853318E+02  0.29151252253E+02  0.58112642209E+03  0.50000000000E+03 0.  1.
    -200001    1    1    2    0    0  0.41815495252E+03  0.72642471022E+02  0.29615650188E+03  0.87053958355E+03  0.70000000000E+03 0. -1.
<mgrwt>
<rscale>  0 0.16503178E+04</rscale>
<asrwt>0</asrwt>
<pdfrwt beam="1">  1        4 0.94073476E-01 0.16503178E+04</pdfrwt>
<pdfrwt beam="2">  1       -4 0.14771068E+00 0.16503178E+04</pdfrwt>
<totfact> 0.56961276E-01</totfact>
</mgrwt>
</event>
<event>
 8    1  0.5361529E-011  0.1946566E+04  0.7818608E-02  0.8632018E-01
         -4   -1    0    0    0  501 -0.00000000000E+00  0.00000000000E+00  0.49426561509E+03  0.49426724670E+03  0.12700000000E+01 0. -1.
          4   -1    0    0  501    0  0.00000000000E+00 -0.00000000000E+00 -0.19165352698E+04  0.19165356905E+04  0.12700000000E+01 0.  1.
     200001    2    1    2    0    0  0.26813611381E+03 -0.53289161403E+03 -0.11055441904E+04  0.14380822849E+04  0.69998732371E+03 0.  0.
    5000001    2    3    3    0    0  0.43146187085E+02 -0.70137607915E+02 -0.34651903286E+03  0.39362983165E+03  0.16759512739E+03 0.  0.
        -11    1    4    4    0    0  0.39217133877E+02 -0.37647444047E+02 -0.34494812529E+03  0.34920555948E+03  0.51100000000E-03 0. -1.
     200002    1    4    4    0    0  0.39290532083E+01 -0.32490163867E+02 -0.15709075742E+01  0.44424272170E+02  0.30000000000E+02 0. -1.
     200000    1    3    3    0    0  0.22498992672E+03 -0.46275400611E+03 -0.75902515751E+03  0.10444524532E+04  0.50000000000E+03 0.  1.
    -200001    1    1    2    0    0 -0.26813611381E+03  0.53289161403E+03 -0.31672546429E+03  0.97272065237E+03  0.70000000000E+03 0. -1.
<mgrwt>
<rscale>  0 0.19465662E+04</rscale>
<asrwt>0</asrwt>
<pdfrwt beam="1">  1        4 0.27379089E+00 0.19465662E+04</pdfrwt>
<pdfrwt beam="2">  1       -4 0.70609521E-01 0.19465662E+04</pdfrwt>
<totfact> 0.15538750E-01</totfact>
</mgrwt>
</event>
<event>
 8    1  0.5361529E-011  0.1866891E+04  0.7818608E-02  0.8671515E-01
         -4   -1    0    0    0  501 -0.00000000000E+00  0.00000000000E+00  0.29478385116E+04  0.29478387852E+04  0.12700000000E+01 0. -1.
          4   -1    0    0  501    0  0.00000000000E+00 -0.00000000000E+00 -0.29557786513E+03  0.29558059350E+03  0.12700000000E+01 0.  1.
     200001    2    1    2    0    0 -0.27105326800E+03 -0.13961082700E+03  0.39183538069E+03  0.85752679113E+03  0.69918250467E+03 0.  0.
    5000001    2    3    3    0    0 -0.81846662451E+02  0.63962715524E+01  0.14063743907E+03  0.24907168327E+03  0.18846226597E+03 0.  0.
        -11    1    4    4    0    0 -0.61039902383E+02  0.45687256217E+02 -0.20739888988E+02  0.79014796456E+02  0.51100000000E-03 0. -1.
     200002    1    4    4    0    0 -0.20806760068E+02 -0.39290984665E+02  0.16137732806E+03  0.17005688681E+03  0.30000000000E+02 0. -1.
     200000    1    3    3    0    0 -0.18920660555E+03 -0.14600709855E+03  0.25119794161E+03  0.60845510786E+03  0.50000000000E+03 0.  1.
    -200001    1    1    2    0    0  0.27105326800E+03  0.13961082700E+03  0.22604252658E+04  0.23858925876E+04  0.70000000000E+03 0. -1.
<mgrwt>
<rscale>  0 0.18668912E+04</rscale>
<asrwt>0</asrwt>
<pdfrwt beam="1">  1        4 0.42225623E-01 0.18668912E+04</pdfrwt>
<pdfrwt beam="2">  1       -4 0.42112001E+00 0.18668912E+04</pdfrwt>
<totfact> 0.50319849E-02</totfact>
</mgrwt>
</event>
<event>
 8    1  0.5361529E-011  0.2644646E+04  0.7818608E-02  0.8353192E-01
         -4   -1    0    0    0  501 -0.00000000000E+00  0.00000000000E+00  0.72938862432E+03  0.72938972997E+03  0.12700000000E+01 0. -1.
          4   -1    0    0  501    0  0.00000000000E+00 -0.00000000000E+00 -0.23972614493E+04  0.23972617857E+04  0.12700000000E+01 0.  1.
     200001    2    1    2    0    0 -0.72643799932E+03  0.25001056909E+03  0.13236390015E+03  0.10479332284E+04  0.70030450344E+03 0.  0.
    5000001    2    3    3    0    0 -0.21782205623E+03  0.86043849752E+02  0.11547470645E+02  0.30619751246E+03  0.19691008176E+03 0.  0.
        -11    1    4    4    0    0 -0.46129895861E+01 -0.12348368266E+02  0.62647391662E+02  0.64019196763E+02  0.51100000000E-03 0. -1.
     200002    1    4    4    0    0 -0.21320906664E+03  0.98392218019E+02 -0.51099921018E+02  0.24217831570E+03  0.30000000000E+02 0. -1.
     200000    1    3    3    0    0 -0.50861594310E+03  0.16396671934E+03  0.12081642950E+03  0.74173571591E+03  0.50000000000E+03 0. -1.
    -200001    1    1    2    0    0  0.72643799932E+03 -0.25001056909E+03 -0.18002367252E+04  0.20787182873E+04  0.70000000000E+03 0.  1.
<mgrwt>
<rscale>  0 0.26446455E+04</rscale>
<asrwt>0</asrwt>
<pdfrwt beam="1">  1        4 0.34246602E+00 0.26446455E+04</pdfrwt>
<pdfrwt beam="2">  1       -4 0.10419848E+00 0.26446455E+04</pdfrwt>
<totfact> 0.22017616E-02</totfact>
</mgrwt>
</event>
<event>
 8    1  0.5361529E-011  0.1532794E+04  0.7818608E-02  0.8862934E-01
         -4   -1    0    0    0  501 -0.00000000000E+00  0.00000000000E+00  0.11342766293E+04  0.11342773403E+04  0.12700000000E+01 0. -1.
          4   -1    0    0  501    0  0.00000000000E+00 -0.00000000000E+00 -0.51782969505E+03  0.51783125241E+03  0.12700000000E+01 0.  1.
     200001    2    1    2    0    0  0.70455223304E+02  0.29003895865E+03  0.40754646460E+03  0.86297872872E+03  0.69967966198E+03 0.  0.
    5000001    2    3    3    0    0  0.23665894208E+02  0.85924579584E+02  0.13956726448E+03  0.25827651047E+03  0.19820349800E+03 0.  0.
        -11    1    4    4    0    0  0.78881003902E+02 -0.30117841624E+00  0.12880678912E+03  0.15104135993E+03  0.51100000000E-03 0. -1.
     200002    1    4    4    0    0 -0.55215109695E+02  0.86225758000E+02  0.10760475356E+02  0.10723515054E+03  0.30000000000E+02 0. -1.
     200000    1    3    3    0    0  0.46789329096E+02  0.20411437907E+03  0.26797920013E+03  0.60470221825E+03  0.50000000000E+03 0. -1.
    -200001    1    1    2    0    0 -0.70455223304E+02 -0.29003895865E+03  0.20890046967E+03  0.78912986400E+03  0.70000000000E+03 0.  1.
<mgrwt>
<rscale>  0 0.15327935E+04</rscale>
<asrwt>0</asrwt>
<pdfrwt beam="1">  1        4 0.73975834E-01 0.15327935E+04</pdfrwt>
<pdfrwt beam="2">  1       -4 0.16203968E+00 0.15327935E+04</pdfrwt>
<totfact> 0.77568018E-01</totfact>
</mgrwt>
</event>
<event>
 8    1  0.5361529E-011  0.1881291E+04  0.7818608E-02  0.8664225E-01
          4   -1    0    0  501    0  0.00000000000E+00  0.00000000000E+00  0.11769765744E+04  0.11769772596E+04  0.12700000000E+01 0. -1.
         -4   -1    0    0    0  501 -0.00000000000E+00 -0.00000000000E+00 -0.75176738416E+03  0.75176845690E+03  0.12700000000E+01 0.  1.
     200001    2    1    2    0    0  0.12247173703E+03  0.22492746894E+03  0.80077867231E+03  0.10940936163E+04  0.70014474680E+03 0.  0.
    5000001    2    3    3    0    0  0.85039919797E+02 -0.84445436176E+01  0.16493971041E+03  0.25138677361E+03  0.16937267666E+03 0.  0.
        -11    1    4    4    0    0  0.91708863918E+02  0.56192610569E+02  0.13788555679E+03  0.17487295953E+03  0.51100000000E-03 0. -1.
     200002    1    4    4    0    0 -0.66689441210E+01 -0.64637154186E+02  0.27054153623E+02  0.76513814081E+02  0.30000000000E+02 0. -1.
     200000    1    3    3    0    0  0.37431817233E+02  0.23337201256E+03  0.63583896190E+03  0.84270684266E+03  0.50000000000E+03 0. -1.
    -200001    1    1    2    0    0 -0.12247173703E+03 -0.22492746894E+03 -0.37556948202E+03  0.83465210027E+03  0.70000000000E+03 0.  1.
<mgrwt>
<rscale>  0 0.18812914E+04</rscale>
<asrwt>0</asrwt>
<pdfrwt beam="1">  1        4 0.16813964E+00 0.18812914E+04</pdfrwt>
<pdfrwt beam="2">  1       -4 0.10739547E+00 0.18812914E+04</pdfrwt>
<totfact> 0.28673948E-01</totfact>
</mgrwt>
</event>
<event>
 8    1  0.5361529E-011  0.2424017E+04  0.7818608E-02  0.8430566E-01
         -4   -1    0    0    0  501 -0.00000000000E+00  0.00000000000E+00  0.69970599032E+03  0.69970714288E+03  0.12700000000E+01 0. -1.
          4   -1    0    0  501    0  0.00000000000E+00 -0.00000000000E+00 -0.20993992051E+04  0.20993995892E+04  0.12700000000E+01 0.  1.
     200001    2    1    2    0    0  0.34062463230E+03  0.42495482458E+03 -0.16534249902E+04  0.18766146958E+04  0.70089712166E+03 0.  0.
    5000001    2    3    3    0    0  0.17150835659E+03  0.20493855902E+03 -0.64941194823E+03  0.72117120506E+03  0.16412525444E+03 0.  0.
        -11    1    4    4    0    0  0.12367584787E+03  0.59717204645E+02 -0.43471797799E+03  0.45589645783E+03  0.51100000000E-03 0. -1.
     200002    1    4    4    0    0  0.47832508722E+02  0.14522135437E+03 -0.21469397024E+03  0.26527474722E+03  0.30000000000E+02 0. -1.
     200000    1    3    3    0    0  0.16911627571E+03  0.22001626556E+03 -0.10040130420E+04  0.11554434908E+04  0.50000000000E+03 0.  1.
    -200001    1    1    2    0    0 -0.34062463230E+03 -0.42495482458E+03  0.25373177549E+03  0.92249203626E+03  0.70000000000E+03 0. -1.
<mgrwt>
<rscale>  0 0.24240168E+04</rscale>
<asrwt>0</asrwt>
<pdfrwt beam="1">  1        4 0.29991428E+00 0.24240168E+04</pdfrwt>
<pdfrwt beam="2">  1       -4 0.99958110E-01 0.24240168E+04</pdfrwt>
<totfact> 0.46225146E-02</totfact>
</mgrwt>
</event>
<event>
 8    1  0.5361529E-011  0.1920271E+04  0.7818608E-02  0.8644832E-01
         -4   -1    0    0    0  501 -0.00000000000E+00  0.00000000000E+00  0.18271672616E+04  0.18271677030E+04  0.12700000000E+01 0. -1.
          4   -1    0    0  501    0  0.00000000000E+00 -0.00000000000E+00 -0.50452838648E+03  0.50452998491E+03  0.12700000000E+01 0.  1.
     200001    2    1    2    0    0  0.11180537264E+03  0.21600483098E+03 -0.78728241533E+02  0.74645690996E+03  0.70131394828E+03 0.  0.
    5000001    2    3    3    0    0  0.64881962301E+02  0.73085802933E+02 -0.37496468425E+02  0.22269387754E+03  0.19655883172E+03 0.  0.
        -11    1    4    4    0    0  0.63070430742E+02  0.13080942555E+03 -0.55024695804E+02  0.15529553179E+03  0.51100000000E-03 0. -1.
     200002    1    4    4    0    0  0.18115315582E+01 -0.57723622613E+02  0.17528227379E+02  0.67398345745E+02  0.30000000000E+02 0. -1.
     200000    1    3    3    0    0  0.46923410340E+02  0.14291902804E+03 -0.41231773108E+02  0.52376303242E+03  0.50000000000E+03 0.  1.
    -200001    1    1    2    0    0 -0.11180537264E+03 -0.21600483098E+03  0.14013671167E+04  0.15852407779E+04  0.70000000000E+03 0. -1.
<mgrwt>
<rscale>  0 0.19202709E+04</rscale>
<asrwt>0</asrwt>
<pdfrwt beam="1">  1        4 0.72075629E-01 0.19202709E+04</pdfrwt>
<pdfrwt beam="2">  1       -4 0.26102404E+00 0.19202709E+04</pdfrwt>
<totfact> 0.17845165E-01</totfact>
</mgrwt>
</event>
<event>
 8    1  0.5361529E-011  0.1956093E+04  0.7818608E-02  0.8627428E-01
          4   -1    0    0  501    0  0.00000000000E+00  0.00000000000E+00  0.16942719610E+04  0.16942724370E+04  0.12700000000E+01 0.  1.
         -4   -1    0    0    0  501 -0.00000000000E+00 -0.00000000000E+00 -0.56459219070E+03  0.56459361908E+03  0.12700000000E+01 0. -1.
     200001    2    1    2    0    0  0.56856227669E+03  0.35862889556E+01  0.10014706213E+04  0.13479799437E+04  0.70059303397E+03 0.  0.
    5000001    2    3    3    0    0  0.11921843738E+03 -0.17428827982E+02  0.27430264719E+03  0.35746251139E+03  0.19498898671E+03 0.  0.
        -11    1    4    4    0    0  0.13662672738E+03  0.55131515149E+02  0.19616692226E+03  0.24533203620E+03  0.51100000000E-03 0. -1.
     200002    1    4    4    0    0 -0.17408289999E+02 -0.72560343131E+02  0.78135724930E+02  0.11213047519E+03  0.30000000000E+02 0. -1.
     200000    1    3    3    0    0  0.44934383930E+03  0.21015116938E+02  0.72716797413E+03  0.99051743228E+03  0.50000000000E+03 0.  1.
    -200001    1    1    2    0    0 -0.56856227669E+03 -0.35862889556E+01  0.12820914903E+03  0.91088611244E+03  0.70000000000E+03 0. -1.
<mgrwt>
<rscale>  0 0.19560929E+04</rscale>
<asrwt>0</asrwt>
<pdfrwt beam="1">  1        4 0.24203899E+00 0.19560929E+04</pdfrwt>
<pdfrwt beam="2">  1       -4 0.80656163E-01 0.19560929E+04</pdfrwt>
<totfact> 0.18126278E-01</totfact>
</mgrwt>
</event>
<event>
 8    1  0.5361529E-011  0.1493425E+04  0.7818608E-02  0.8888837E-01
         -4   -1    0    0    0  501 -0.00000000000E+00  0.00000000000E+00  0.14675581957E+04  0.14675587452E+04  0.12700000000E+01 0. -1.
          4   -1    0    0  501    0  0.00000000000E+00 -0.00000000000E+00 -0.37993499882E+03  0.37993712142E+03  0.12700000000E+01 0.  1.
     200001    2    1    2    0    0  0.16658779017E+03  0.85908141648E+02  0.76717277049E+03  0.10551448230E+04  0.69974626617E+03 0.  0.
    5000001    2    3    3    0    0 -0.93334934254E+01  0.33584034770E+02  0.19829826279E+03  0.27584750122E+03  0.18855938431E+03 0.  0.
        -11    1    4    4    0    0 -0.24739394668E+01 -0.16781137349E+02  0.21408013363E+03  0.21475108978E+03  0.51100000000E-03 0. -1.
     200002    1    4    4    0    0 -0.68595539585E+01  0.50365172119E+02 -0.15781870837E+02  0.61096411434E+02  0.30000000000E+02 0. -1.
     200000    1    3    3    0    0  0.17592128360E+03  0.52324106878E+02  0.56887450770E+03  0.77929732175E+03  0.50000000000E+03 0. -1.
    -200001    1    1    2    0    0 -0.16658779017E+03 -0.85908141648E+02  0.32045042639E+03  0.79235104367E+03  0.70000000000E+03 0.  1.
<mgrwt>
<rscale>  0 0.14934245E+04</rscale>
<asrwt>0</asrwt>
<pdfrwt beam="1">  1        4 0.54276620E-01 0.14934245E+04</pdfrwt>
<pdfrwt beam="2">  1       -4 0.20965136E+00 0.14934245E+04</pdfrwt>
<totfact> 0.71838649E-01</totfact>
</mgrwt>
</event>
<event>
 8    1  0.5361529E-011  0.1543818E+04  0.7818608E-02  0.8855826E-01
         -4   -1    0    0    0  501 -0.00000000000E+00  0.00000000000E+00  0.12075119502E+04  0.12075126180E+04  0.12700000000E+01 0. -1.
          4   -1    0    0  501    0  0.00000000000E+00 -0.00000000000E+00 -0.49344550736E+03  0.49344714168E+03  0.12700000000E+01 0.  1.
     200001    2    1    2    0    0 -0.14067845748E+03 -0.26936443580E+03  0.22828209567E+03  0.79634157527E+03  0.69978536825E+03 0.  0.
    5000001    2    3    3    0    0  0.57276440879E+02 -0.16951407721E+02  0.14071151167E+03  0.19586918980E+03  0.12246252118E+03 0.  0.
        -11    1    4    4    0    0  0.69068010433E+02 -0.53571281050E+02  0.87526681858E+02  0.12369798808E+03  0.51100000000E-03 0. -1.
     200002    1    4    4    0    0 -0.11791569554E+02  0.36619873329E+02  0.53184829807E+02  0.72171201714E+02  0.30000000000E+02 0. -1.
     200000    1    3    3    0    0 -0.19795489836E+03 -0.25241302808E+03  0.87570584007E+02  0.60047238547E+03  0.50000000000E+03 0.  1.
    -200001    1    1    2    0    0  0.14067845748E+03  0.26936443580E+03  0.48578434712E+03  0.90461818442E+03  0.70000000000E+03 0.  1.
<mgrwt>
<rscale>  0 0.15438177E+04</rscale>
<asrwt>0</asrwt>
<pdfrwt beam="1">  1        4 0.70492381E-01 0.15438177E+04</pdfrwt>
<pdfrwt beam="2">  1       -4 0.17250187E+00 0.15438177E+04</pdfrwt>
<totfact> 0.72495377E-01</totfact>
</mgrwt>
</event>
<event>
 8    1  0.5361529E-011  0.1561333E+04  0.7818608E-02  0.8844661E-01
         -4   -1    0    0    0  501 -0.00000000000E+00  0.00000000000E+00  0.15470453736E+04  0.15470458949E+04  0.12700000000E+01 0. -1.
          4   -1    0    0  501    0  0.00000000000E+00 -0.00000000000E+00 -0.39393672537E+03  0.39393877252E+03  0.12700000000E+01 0.  1.
     200001    2    1    2    0    0  0.85019995044E+02 -0.30198468037E+03  0.75315880545E+03  0.10758933292E+04  0.70133809454E+03 0.  0.
    5000001    2    3    3    0    0  0.14230495532E+03 -0.15362157534E+03  0.29402159464E+03  0.37868449682E+03  0.11446816717E+03 0.  0.
        -11    1    4    4    0    0  0.66669501657E+02 -0.94370746863E+02  0.23533585561E+03  0.26217098476E+03  0.51100000000E-03 0. -1.
     200002    1    4    4    0    0  0.75635453661E+02 -0.59250828474E+02  0.58685739031E+02  0.11651351205E+03  0.30000000000E+02 0. -1.
     200000    1    3    3    0    0 -0.57284960274E+02 -0.14836310503E+03  0.45913721081E+03  0.69720883239E+03  0.50000000000E+03 0. -1.
    -200001    1    1    2    0    0 -0.85019995044E+02  0.30198468037E+03  0.39994984282E+03  0.86509133824E+03  0.70000000000E+03 0. -1.
<mgrwt>
<rscale>  0 0.15613334E+04</rscale>
<asrwt>0</asrwt>
<pdfrwt beam="1">  1        4 0.56276858E-01 0.15613334E+04</pdfrwt>
<pdfrwt beam="2">  1       -4 0.22100667E+00 0.15613334E+04</pdfrwt>
<totfact> 0.55966769E-01</totfact>
</mgrwt>
</event>
<event>
 8    1  0.5361529E-011  0.1518129E+04  0.7818608E-02  0.8872486E-01
         -4   -1    0    0    0  501 -0.00000000000E+00  0.00000000000E+00  0.93580294762E+03  0.93580380940E+03  0.12700000000E+01 0. -1.
          4   -1    0    0  501    0  0.00000000000E+00 -0.00000000000E+00 -0.61570360804E+03  0.61570491784E+03  0.12700000000E+01 0.  1.
     200001    2    1    2    0    0  0.33590607430E+02  0.26104560127E+03  0.29316888871E+03  0.80317832960E+03  0.69991020637E+03 0.  0.
    5000001    2    3    3    0    0  0.37535097083E+02  0.16660406173E+03  0.13494446154E+03  0.27029022432E+03  0.16025292748E+03 0.  0.
        -11    1    4    4    0    0  0.68314396792E+02  0.35732227268E+02 -0.51367392915E+00  0.77096775132E+02  0.51100000000E-03 0. -1.
     200002    1    4    4    0    0 -0.30779299709E+02  0.13087183446E+03  0.13545813547E+03  0.19319344919E+03  0.30000000000E+02 0. -1.
     200000    1    3    3    0    0 -0.39444896530E+01  0.94441539545E+02  0.15822442716E+03  0.53288810527E+03  0.50000000000E+03 0. -1.
    -200001    1    1    2    0    0 -0.33590607430E+02 -0.26104560127E+03  0.26930450875E+02  0.74833039764E+03  0.70000000000E+03 0.  1.
<mgrwt>
<rscale>  0 0.15181290E+04</rscale>
<asrwt>0</asrwt>
<pdfrwt beam="1">  1        4 0.87957813E-01 0.15181290E+04</pdfrwt>
<pdfrwt beam="2">  1       -4 0.13368629E+00 0.15181290E+04</pdfrwt>
<totfact> 0.87271907E-01</totfact>
</mgrwt>
</event>
<event>
 8    1  0.5361529E-011  0.1899452E+04  0.7818608E-02  0.8655129E-01
         -4   -1    0    0    0  501 -0.00000000000E+00  0.00000000000E+00  0.10321259555E+04  0.10321267369E+04  0.12700000000E+01 0. -1.
          4   -1    0    0  501    0  0.00000000000E+00 -0.00000000000E+00 -0.87390317322E+03  0.87390409604E+03  0.12700000000E+01 0.  1.
     200001    2    1    2    0    0 -0.62592215524E+03 -0.14303420093E+03  0.81363912465E+02  0.95306461477E+03  0.69962471842E+03 0.  0.
    5000001    2    3    3    0    0 -0.25456981361E+03 -0.71085298405E+02  0.13083629907E+03  0.32415546136E+03  0.13453518619E+03 0.  0.
        -11    1    4    4    0    0 -0.20100989708E+03 -0.22785053671E+00  0.10562890125E+03  0.22707376647E+03  0.51100000000E-03 0. -1.
     200002    1    4    4    0    0 -0.53559916533E+02 -0.70857447869E+02  0.25207397822E+02  0.97081694889E+02  0.30000000000E+02 0. -1.
     200000    1    3    3    0    0 -0.37135234163E+03 -0.71948902524E+02 -0.49472386610E+02  0.62890915341E+03  0.50000000000E+03 0.  1.
    -200001    1    1    2    0    0  0.62592215524E+03  0.14303420093E+03  0.76858869846E+02  0.95296621815E+03  0.70000000000E+03 0.  1.
<mgrwt>
<rscale>  0 0.18994523E+04</rscale>
<asrwt>0</asrwt>
<pdfrwt beam="1">  1        4 0.12484343E+00 0.18994523E+04</pdfrwt>
<pdfrwt beam="2">  1       -4 0.14744669E+00 0.18994523E+04</pdfrwt>
<totfact> 0.28229533E-01</totfact>
</mgrwt>
</event>
<event>
 8    1  0.5361529E-011  0.1937819E+04  0.7818608E-02  0.8636257E-01
         -4   -1    0    0    0  501 -0.00000000000E+00  0.00000000000E+00  0.98273676287E+03  0.98273758348E+03  0.12700000000E+01 0. -1.
          4   -1    0    0  501    0  0.00000000000E+00 -0.00000000000E+00 -0.95527487978E+03  0.95527572399E+03  0.12700000000E+01 0.  1.
     200001    2    1    2    0    0  0.18216932038E+03  0.44168484038E+03  0.48129526114E+03  0.97664142596E+03  0.70278886375E+03 0.  0.
    5000001    2    3    3    0    0  0.99225436540E+02  0.72215700558E+02  0.12343305823E+03  0.25452475297E+03  0.18570496856E+03 0.  0.
        -11    1    4    4    0    0  0.81165654863E+02  0.59168910284E+02 -0.23298347113E+02  0.10310982714E+03  0.51100000000E-03 0. -1.
     200002    1    4    4    0    0  0.18059781676E+02  0.13046790274E+02  0.14673140535E+03  0.15141492584E+03  0.30000000000E+02 0. -1.
     200000    1    3    3    0    0  0.82943883844E+02  0.36946913982E+03  0.35786220290E+03  0.72211667299E+03  0.50000000000E+03 0. -1.
    -200001    1    1    2    0    0 -0.18216932038E+03 -0.44168484038E+03 -0.45383337805E+03  0.96137188150E+03  0.70000000000E+03 0.  1.
<mgrwt>
<rscale>  0 0.19378187E+04</rscale>
<asrwt>0</asrwt>
<pdfrwt beam="1">  1        4 0.13646796E+00 0.19378187E+04</pdfrwt>
<pdfrwt beam="2">  1       -4 0.14039108E+00 0.19378187E+04</pdfrwt>
<totfact> 0.25524514E-01</totfact>
</mgrwt>
</event>
<event>
 8    1  0.5361529E-011  0.1829990E+04  0.7818608E-02  0.8690512E-01
         -4   -1    0    0    0  501 -0.00000000000E+00  0.00000000000E+00  0.47021055356E+03  0.47021226864E+03  0.12700000000E+01 0. -1.
          4   -1    0    0  501    0  0.00000000000E+00 -0.00000000000E+00 -0.17805076038E+04  0.17805080567E+04  0.12700000000E+01 0.  1.
     200001    2    1    2    0    0 -0.14136115970E+03  0.45711679233E+03 -0.22965351945E+03  0.87713771777E+03  0.69834883663E+03 0.  0.
    5000001    2    3    3    0    0  0.36713921056E+02  0.16746069853E+03 -0.13650510916E+03  0.26534689289E+03  0.14961394049E+03 0.  0.
        -11    1    4    4    0    0 -0.34096445142E+02  0.11849713698E+03 -0.12121098490E+03  0.17290529750E+03  0.51100000000E-03 0. -1.
     200002    1    4    4    0    0  0.70810366198E+02  0.48963561551E+02 -0.15294124261E+02  0.92441595388E+02  0.30000000000E+02 0. -1.
     200000    1    3    3    0    0 -0.17807508075E+03  0.28965609380E+03 -0.93148410291E+02  0.61179082488E+03  0.50000000000E+03 0. -1.
    -200001    1    1    2    0    0  0.14136115970E+03 -0.45711679233E+03 -0.10806435308E+04  0.13735826076E+04  0.70000000000E+03 0.  1.
<mgrwt>
<rscale>  0 0.18299901E+04</rscale>
<asrwt>0</asrwt>
<pdfrwt beam="1">  1        4 0.25435838E+00 0.18299901E+04</pdfrwt>
<pdfrwt beam="2">  1       -4 0.67173092E-01 0.18299901E+04</pdfrwt>
<totfact> 0.23103047E-01</totfact>
</mgrwt>
</event>
<event>
 8    1  0.5361529E-011  0.1828021E+04  0.7818608E-02  0.8691538E-01
          4   -1    0    0  501    0  0.00000000000E+00  0.00000000000E+00  0.84959199193E+03  0.84959294115E+03  0.12700000000E+01 0.  1.
         -4   -1    0    0    0  501 -0.00000000000E+00 -0.00000000000E+00 -0.98331174439E+03  0.98331256453E+03  0.12700000000E+01 0. -1.
     200001    2    1    2    0    0 -0.40941516193E+01 -0.27126934151E+03  0.45578697548E+03  0.87837839762E+03  0.70014500260E+03 0.  0.
    5000001    2    3    3    0    0  0.10327352725E+03 -0.54262535530E+02  0.15799508021E+03  0.24806118764E+03  0.15153238351E+03 0.  0.
        -11    1    4    4    0    0  0.61948557352E+02  0.31494423688E+02  0.12485635241E+03  0.14289377600E+03  0.51100000000E-03 0. -1.
     200002    1    4    4    0    0  0.41324969897E+02 -0.85756959218E+02  0.33138727795E+02  0.10516741164E+03  0.30000000000E+02 0. -1.
     200000    1    3    3    0    0 -0.10736767887E+03 -0.21700680598E+03  0.29779189527E+03  0.63031720998E+03  0.50000000000E+03 0. -1.
    -200001    1    1    2    0    0  0.40941516193E+01  0.27126934151E+03 -0.58950672794E+03  0.95452710805E+03  0.70000000000E+03 0. -1.
<mgrwt>
<rscale>  0 0.18280212E+04</rscale>
<asrwt>0</asrwt>
<pdfrwt beam="1">  1        4 0.12137041E+00 0.18280212E+04</pdfrwt>
<pdfrwt beam="2">  1       -4 0.14047323E+00 0.18280212E+04</pdfrwt>
<totfact> 0.34623307E-01</totfact>
</mgrwt>
</event>
<event>
 8    1  0.5361529E-011  0.1554052E+04  0.7818608E-02  0.8849284E-01
         -4   -1    0    0    0  501 -0.00000000000E+00  0.00000000000E+00  0.11751081143E+04  0.11751088006E+04  0.12700000000E+01 0. -1.
          4   -1    0    0  501    0  0.00000000000E+00 -0.00000000000E+00 -0.51379748587E+03  0.51379905545E+03  0.12700000000E+01 0.  1.
     200001    2    1    2    0    0  0.20222719082E+03  0.25244523774E+02  0.48477233619E+02  0.73649098698E+03  0.70607068274E+03 0.  0.
    5000001    2    3    3    0    0  0.16053988590E+02 -0.47185365372E+02 -0.11013975649E+03  0.17518367398E+03  0.12678471680E+03 0.  0.
        -11    1    4    4    0    0 -0.38284860750E+02 -0.59685217298E+02 -0.73041988261E+02  0.10179974350E+03  0.51100000000E-03 0. -1.
     200002    1    4    4    0    0  0.54338849340E+02  0.12499851926E+02 -0.37097768227E+02  0.73383930484E+02  0.30000000000E+02 0. -1.
     200000    1    3    3    0    0  0.18617320223E+03  0.72429889146E+02  0.15861699011E+03  0.56130731300E+03  0.50000000000E+03 0.  1.
    -200001    1    1    2    0    0 -0.20222719082E+03 -0.25244523774E+02  0.61283339486E+03  0.95241686910E+03  0.70000000000E+03 0. -1.
<mgrwt>
<rscale>  0 0.15540521E+04</rscale>
<asrwt>0</asrwt>
<pdfrwt beam="1">  1        4 0.73399803E-01 0.15540521E+04</pdfrwt>
<pdfrwt beam="2">  1       -4 0.16787275E+00 0.15540521E+04</pdfrwt>
<totfact> 0.71461684E-01</totfact>
</mgrwt>
</event>
<event>
 8    1  0.5361529E-011  0.1760653E+04  0.7818608E-02  0.8727508E-01
          4   -1    0    0  501    0  0.00000000000E+00  0.00000000000E+00  0.18020576403E+04  0.18020580878E+04  0.12700000000E+01 0.  1.
         -4   -1    0    0    0  501 -0.00000000000E+00 -0.00000000000E+00 -0.43004843419E+03  0.43005030944E+03  0.12700000000E+01 0. -1.
     200001    2    1    2    0    0  0.45321424566E+03  0.51680219078E+02  0.33460677610E+03  0.90008820246E+03  0.70008790883E+03 0.  0.
    5000001    2    3    3    0    0  0.13965923960E+03  0.96756837318E+01  0.17553712132E+03  0.28740208553E+03  0.17941113606E+03 0.  0.
        -11    1    4    4    0    0 -0.18724543566E+02 -0.46200272965E+02  0.12446784969E+02  0.51380893435E+02  0.51100000000E-03 0. -1.
     200002    1    4    4    0    0  0.15838378316E+03  0.55875956697E+02  0.16309033635E+03  0.23602119209E+03  0.30000000000E+02 0. -1.
     200000    1    3    3    0    0  0.31355500606E+03  0.42004535347E+02  0.15906965478E+03  0.61268611694E+03  0.50000000000E+03 0. -1.
    -200001    1    1    2    0    0 -0.45321424566E+03 -0.51680219078E+02  0.10374024300E+04  0.13320201948E+04  0.70000000000E+03 0.  1.
<mgrwt>
<rscale>  0 0.17606529E+04</rscale>
<asrwt>0</asrwt>
<pdfrwt beam="1">  1        4 0.25743697E+00 0.17606529E+04</pdfrwt>
<pdfrwt beam="2">  1       -4 0.61435657E-01 0.17606529E+04</pdfrwt>
<totfact> 0.27008956E-01</totfact>
</mgrwt>
</event>
<event>
 8    1  0.5361529E-011  0.1687014E+04  0.7818608E-02  0.8768806E-01
         -4   -1    0    0    0  501 -0.00000000000E+00  0.00000000000E+00  0.57355621448E+03  0.57355762053E+03  0.12700000000E+01 0. -1.
          4   -1    0    0  501    0  0.00000000000E+00 -0.00000000000E+00 -0.12405098506E+04  0.12405105007E+04  0.12700000000E+01 0.  1.
     200001    2    1    2    0    0  0.35315707521E+03  0.31097171880E+03 -0.32521563218E+03  0.90400867644E+03  0.70003082075E+03 0.  0.
    5000001    2    3    3    0    0  0.11223877643E+03  0.91465686229E+01  0.78756871085E+01  0.18980291130E+03  0.15258412775E+03 0.  0.
        -11    1    4    4    0    0  0.81107637279E+02  0.70447288047E+02 -0.20928568103E+02  0.10944987063E+03  0.51100000000E-03 0. -1.
     200002    1    4    4    0    0  0.31131139146E+02 -0.61300719424E+02  0.28804255212E+02  0.80353040669E+02  0.30000000000E+02 0. -1.
     200000    1    3    3    0    0  0.24091829879E+03  0.30182515017E+03 -0.33309131929E+03  0.71420576514E+03  0.50000000000E+03 0. -1.
    -200001    1    1    2    0    0 -0.35315707521E+03 -0.31097171880E+03 -0.34173800391E+03  0.91005944475E+03  0.70000000000E+03 0.  1.
<mgrwt>
<rscale>  0 0.16870139E+04</rscale>
<asrwt>0</asrwt>
<pdfrwt beam="1">  1        4 0.17721584E+00 0.16870139E+04</pdfrwt>
<pdfrwt beam="2">  1       -4 0.81936749E-01 0.16870139E+04</pdfrwt>
<totfact> 0.47384106E-01</totfact>
</mgrwt>
</event>
<event>
 8    1  0.5361529E-011  0.1501806E+04  0.7818608E-02  0.8883253E-01
          4   -1    0    0  501    0  0.00000000000E+00  0.00000000000E+00  0.10532006352E+04  0.10532014009E+04  0.12700000000E+01 0.  1.
         -4   -1    0    0    0  501 -0.00000000000E+00 -0.00000000000E+00 -0.53537148668E+03  0.53537299302E+03  0.12700000000E+01 0. -1.
     200001    2    1    2    0    0  0.19073076405E+03  0.19503670088E+03  0.25009428981E+03  0.79101593611E+03  0.69910050660E+03 0.  0.
    5000001    2    3    3    0    0  0.56765310511E+02  0.88584830103E+02  0.98558215022E+02  0.24125059935E+03  0.19343876896E+03 0.  0.
        -11    1    4    4    0    0  0.39043874635E+02  0.14686749574E+03  0.61983464806E+02  0.16412323224E+03  0.51100000000E-03 0. -1.
     200002    1    4    4    0    0  0.17721435875E+02 -0.58282665642E+02  0.36574750216E+02  0.77127367109E+02  0.30000000000E+02 0. -1.
     200000    1    3    3    0    0  0.13396545354E+03  0.10645187078E+03  0.15153607479E+03  0.54976533675E+03  0.50000000000E+03 0.  1.
    -200001    1    1    2    0    0 -0.19073076405E+03 -0.19503670088E+03  0.26773485867E+03  0.79755845779E+03  0.70000000000E+03 0.  1.
<mgrwt>
<rscale>  0 0.15018061E+04</rscale>
<asrwt>0</asrwt>
<pdfrwt beam="1">  1        4 0.15045740E+00 0.15018061E+04</pdfrwt>
<pdfrwt beam="2">  1       -4 0.76481803E-01 0.15018061E+04</pdfrwt>
<totfact> 0.88193572E-01</totfact>
</mgrwt>
</event>
<event>
 8    1  0.5361529E-011  0.2048680E+04  0.7818608E-02  0.8584194E-01
         -4   -1    0    0    0  501 -0.00000000000E+00  0.00000000000E+00  0.13868712716E+04  0.13868718531E+04  0.12700000000E+01 0.  1.
          4   -1    0    0  501    0  0.00000000000E+00 -0.00000000000E+00 -0.75657371956E+03  0.75657478548E+03  0.12700000000E+01 0. -1.
     200001    2    1    2    0    0  0.14747554008E+03  0.55405752748E+03 -0.18698555793E+03  0.92415157153E+03  0.70025977295E+03 0.  0.
    5000001    2    3    3    0    0  0.31102225015E+02  0.14113273219E+03 -0.89031683442E+02  0.25808506093E+03  0.19441054889E+03 0.  0.
        -11    1    4    4    0    0  0.76136553296E+02  0.17362312717E+01 -0.76636429960E+02  0.10804134229E+03  0.51100000000E-03 0. -1.
     200002    1    4    4    0    0 -0.45034328282E+02  0.13939650092E+03 -0.12395253482E+02  0.15004371863E+03  0.30000000000E+02 0. -1.
     200000    1    3    3    0    0  0.11637331507E+03  0.41292479528E+03 -0.97953874489E+02  0.66606651060E+03  0.50000000000E+03 0. -1.
    -200001    1    1    2    0    0 -0.14747554008E+03 -0.55405752748E+03  0.81728310997E+03  0.12192950670E+04  0.70000000000E+03 0.  1.
<mgrwt>
<rscale>  0 0.20486797E+04</rscale>
<asrwt>0</asrwt>
<pdfrwt beam="1">  1        4 0.10808208E+00 0.20486797E+04</pdfrwt>
<pdfrwt beam="2">  1       -4 0.19812458E+00 0.20486797E+04</pdfrwt>
<totfact> 0.17293754E-01</totfact>
</mgrwt>
</event>
<event>
 8    1  0.5361529E-011  0.1708493E+04  0.7818608E-02  0.8756535E-01
         -4   -1    0    0    0  501 -0.00000000000E+00  0.00000000000E+00  0.86835454955E+03  0.86835547826E+03  0.12700000000E+01 0. -1.
          4   -1    0    0  501    0  0.00000000000E+00 -0.00000000000E+00 -0.84036628741E+03  0.84036724705E+03  0.12700000000E+01 0.  1.
     200001    2    1    2    0    0  0.43424143486E+03  0.12754303746E+03 -0.17288946337E+03  0.85129359660E+03  0.69998369332E+03 0.  0.
    5000001    2    3    3    0    0  0.12410579775E+03  0.65177775907E+02 -0.27848854740E+02  0.24210535196E+03  0.19542019146E+03 0.  0.
        -11    1    4    4    0    0  0.63889124949E+01 -0.60500107622E+02  0.13883616017E+02  0.62400609125E+02  0.51100000000E-03 0. -1.
     200002    1    4    4    0    0  0.11771688526E+03  0.12567788353E+03 -0.41732470758E+02  0.17970474284E+03  0.30000000000E+02 0. -1.
     200000    1    3    3    0    0  0.31013563711E+03  0.62365261555E+02 -0.14504060863E+03  0.60918824464E+03  0.50000000000E+03 0. -1.
    -200001    1    1    2    0    0 -0.43424143486E+03 -0.12754303746E+03  0.20087772551E+03  0.85742912871E+03  0.70000000000E+03 0.  1.
<mgrwt>
<rscale>  0 0.17084935E+04</rscale>
<asrwt>0</asrwt>
<pdfrwt beam="1">  1        4 0.12005246E+00 0.17084935E+04</pdfrwt>
<pdfrwt beam="2">  1       -4 0.12405078E+00 0.17084935E+04</pdfrwt>
<totfact> 0.49358109E-01</totfact>
</mgrwt>
</event>
<event>
 8    1  0.5361529E-011  0.1475950E+04  0.7818608E-02  0.8900606E-01
         -4   -1    0    0    0  501 -0.00000000000E+00  0.00000000000E+00  0.19043994719E+03  0.19044418181E+03  0.12700000000E+01 0. -1.
          4   -1    0    0  501    0  0.00000000000E+00 -0.00000000000E+00 -0.28596933648E+04  0.28596936468E+04  0.12700000000E+01 0.  1.
     200001    2    1    2    0    0  0.18069496825E+03  0.12373581411E+03 -0.11613385652E+04  0.13733049731E+04  0.69949843664E+03 0.  0.
    5000001    2    3    3    0    0  0.56179383603E+02  0.47282520058E+02 -0.11023332752E+03  0.20020162825E+03  0.15012509988E+03 0.  0.
        -11    1    4    4    0    0  0.43475401253E+02  0.10585556341E+01 -0.13247747129E+03  0.13943282058E+03  0.51100000000E-03 0. -1.
     200002    1    4    4    0    0  0.12703982350E+02  0.46223964424E+02  0.22244143771E+02  0.60768807679E+02  0.30000000000E+02 0. -1.
     200000    1    3    3    0    0  0.12451558465E+03  0.76453294053E+02 -0.10511052377E+04  0.11731033448E+04  0.50000000000E+03 0.  1.
    -200001    1    1    2    0    0 -0.18069496825E+03 -0.12373581411E+03 -0.15079148524E+04  0.16768328555E+04  0.70000000000E+03 0.  1.
<mgrwt>
<rscale>  0 0.14759495E+04</rscale>
<asrwt>0</asrwt>
<pdfrwt beam="1">  1        4 0.40852792E+00 0.14759495E+04</pdfrwt>
<pdfrwt beam="2">  1       -4 0.27206031E-01 0.14759495E+04</pdfrwt>
<totfact> 0.15272998E-01</totfact>
</mgrwt>
</event>
<event>
 8    1  0.5361529E-011  0.2393653E+04  0.7818608E-02  0.8441884E-01
          4   -1    0    0  501    0  0.00000000000E+00  0.00000000000E+00  0.50776018080E+03  0.50776176905E+03  0.12700000000E+01 0. -1.
         -4   -1    0    0    0  501 -0.00000000000E+00 -0.00000000000E+00 -0.28209972050E+04  0.28209974909E+04  0.12700000000E+01 0.  1.
     200001    2    1    2    0    0 -0.19307644889E+03  0.11024576543E+03  0.15695042961E+03  0.75169529082E+03  0.70069945695E+03 0.  0.
    5000001    2    3    3    0    0 -0.12369600534E+02  0.74360510059E+02  0.20244464508E+00  0.19625614259E+03  0.18120137981E+03 0.  0.
        -11    1    4    4    0    0  0.76728638196E+02  0.57106927461E+02  0.22164254442E+02  0.98182173834E+02  0.51100000000E-03 0. -1.
     200002    1    4    4    0    0 -0.89098238730E+02  0.17253582598E+02 -0.21961809797E+02  0.98073968752E+02  0.30000000000E+02 0. -1.
     200000    1    3    3    0    0 -0.18070684836E+03  0.35885255371E+02  0.15674798497E+03  0.55543914823E+03  0.50000000000E+03 0. -1.
    -200001    1    1    2    0    0  0.19307644889E+03 -0.11024576543E+03 -0.24701874538E+04  0.25770639691E+04  0.70000000000E+03 0.  1.
<mgrwt>
<rscale>  0 0.23936526E+04</rscale>
<asrwt>0</asrwt>
<pdfrwt beam="1">  1        4 0.72537304E-01 0.23936526E+04</pdfrwt>
<pdfrwt beam="2">  1       -4 0.40299973E+00 0.23936526E+04</pdfrwt>
<totfact> 0.20376470E-02</totfact>
</mgrwt>
</event>
<event>
 8    1  0.5361529E-011  0.2225520E+04  0.7818608E-02  0.8507881E-01
         -4   -1    0    0    0  501 -0.00000000000E+00  0.00000000000E+00  0.14117771467E+04  0.14117777180E+04  0.12700000000E+01 0. -1.
          4   -1    0    0  501    0  0.00000000000E+00 -0.00000000000E+00 -0.87707415108E+03  0.87707507056E+03  0.12700000000E+01 0.  1.
     200001    2    1    2    0    0 -0.51049147736E+03  0.68862811242E+03  0.38445810963E+03  0.11719894346E+04  0.70067179975E+03 0.  0.
    5000001    2    3    3    0    0 -0.13704079178E+03  0.55627586311E+02  0.62412382811E+02  0.22654322731E+03  0.15984968359E+03 0.  0.
        -11    1    4    4    0    0 -0.10315991917E+03  0.10737947745E+03  0.46259715646E+02  0.15592396350E+03  0.51100000000E-03 0. -1.
     200002    1    4    4    0    0 -0.33880872606E+02 -0.51751891143E+02  0.16152667165E+02  0.70619263816E+02  0.30000000000E+02 0. -1.
     200000    1    3    3    0    0 -0.37345068558E+03  0.63300052611E+03  0.32204572682E+03  0.94544620724E+03  0.50000000000E+03 0.  1.
    -200001    1    1    2    0    0  0.51049147736E+03 -0.68862811242E+03  0.15024488602E+03  0.11168633540E+04  0.70000000000E+03 0. -1.
<mgrwt>
<rscale>  0 0.22255201E+04</rscale>
<asrwt>0</asrwt>
<pdfrwt beam="1">  1        4 0.12529641E+00 0.22255201E+04</pdfrwt>
<pdfrwt beam="2">  1       -4 0.20168256E+00 0.22255201E+04</pdfrwt>
<totfact> 0.11205084E-01</totfact>
</mgrwt>
</event>
<event>
 8    1  0.5361529E-011  0.1468972E+04  0.7818608E-02  0.8905352E-01
         -4   -1    0    0    0  501 -0.00000000000E+00  0.00000000000E+00  0.39482822073E+03  0.39483026326E+03  0.12700000000E+01 0. -1.
          4   -1    0    0  501    0  0.00000000000E+00 -0.00000000000E+00 -0.13663350323E+04  0.13663356225E+04  0.12700000000E+01 0.  1.
     200001    2    1    2    0    0  0.19820854979E+03  0.90817483579E+02 -0.53845561128E+03  0.90965676275E+03  0.70000466868E+03 0.  0.
    5000001    2    3    3    0    0  0.57121041153E+01  0.19252386225E+02 -0.25245219853E+03  0.29812230186E+03  0.15729434769E+03 0.  0.
        -11    1    4    4    0    0  0.66977177662E+02 -0.20278008510E+01 -0.50517433293E+02  0.83917014786E+02  0.51100000000E-03 0. -1.
     200002    1    4    4    0    0 -0.61265073547E+02  0.21280187076E+02 -0.20193476524E+03  0.21420528707E+03  0.30000000000E+02 0. -1.
     200000    1    3    3    0    0  0.19249644567E+03  0.71565097353E+02 -0.28600341275E+03  0.61153446089E+03  0.50000000000E+03 0.  1.
    -200001    1    1    2    0    0 -0.19820854979E+03 -0.90817483579E+02 -0.43305120027E+03  0.85150912302E+03  0.70000000000E+03 0.  1.
<mgrwt>
<rscale>  0 0.14689724E+04</rscale>
<asrwt>0</asrwt>
<pdfrwt beam="1">  1        4 0.19519090E+00 0.14689724E+04</pdfrwt>
<pdfrwt beam="2">  1       -4 0.56404220E-01 0.14689724E+04</pdfrwt>
<totfact> 0.82547822E-01</totfact>
</mgrwt>
</event>
<event>
 8    1  0.5361529E-011  0.2445641E+04  0.7818608E-02  0.8422611E-01
         -4   -1    0    0    0  501 -0.00000000000E+00  0.00000000000E+00  0.85376727704E+03  0.85376822161E+03  0.12700000000E+01 0. -1.
          4   -1    0    0  501    0  0.00000000000E+00 -0.00000000000E+00 -0.17514007861E+04  0.17514012465E+04  0.12700000000E+01 0.  1.
     200001    2    1    2    0    0 -0.87397411628E+03  0.45976682565E+03 -0.26410436011E+03  0.12389427401E+04  0.70000836445E+03 0.  0.
    5000001    2    3    3    0    0 -0.36469881845E+03  0.16499748332E+03 -0.90588000738E+02  0.44751477677E+03  0.17842054778E+03 0.  0.
        -11    1    4    4    0    0 -0.26369162247E+03  0.18724911990E+03 -0.32196169012E+02  0.32501091976E+03  0.51100000000E-03 0. -1.
     200002    1    4    4    0    0 -0.10100719599E+03 -0.22251636577E+02 -0.58391831726E+02  0.12250385702E+03  0.30000000000E+02 0. -1.
     200000    1    3    3    0    0 -0.50927529782E+03  0.29476934233E+03 -0.17351635937E+03  0.79142796332E+03  0.50000000000E+03 0. -1.
    -200001    1    1    2    0    0  0.87397411628E+03 -0.45976682565E+03 -0.63352914890E+03  0.13662267280E+04  0.70000000000E+03 0.  1.
<mgrwt>
<rscale>  0 0.24456414E+04</rscale>
<asrwt>0</asrwt>
<pdfrwt beam="1">  1        4 0.25020021E+00 0.24456414E+04</pdfrwt>
<pdfrwt beam="2">  1       -4 0.12196686E+00 0.24456414E+04</pdfrwt>
<totfact> 0.57780844E-02</totfact>
</mgrwt>
</event>
<event>
 8    1  0.5361529E-011  0.1831096E+04  0.7818608E-02  0.8689935E-01
          4   -1    0    0  501    0  0.00000000000E+00  0.00000000000E+00  0.71523550645E+03  0.71523663398E+03  0.12700000000E+01 0.  1.
         -4   -1    0    0    0  501 -0.00000000000E+00 -0.00000000000E+00 -0.11719592709E+04  0.11719599591E+04  0.12700000000E+01 0. -1.
     200001    2    1    2    0    0 -0.16403862988E+03  0.11202565220E+03 -0.80126984477E+03  0.10821062750E+04  0.69961575691E+03 0.  0.
    5000001    2    3    3    0    0  0.36822041131E+02 -0.41695708956E+02 -0.19377462276E+03  0.25565257946E+03  0.15721082056E+03 0.  0.
        -11    1    4    4    0    0  0.93632793543E+02 -0.10718262428E+02 -0.94982662680E+02  0.13380466130E+03  0.51100000000E-03 0. -1.
     200002    1    4    4    0    0 -0.56810752412E+02 -0.30977446527E+02 -0.98791960079E+02  0.12184791816E+03  0.30000000000E+02 0. -1.
     200000    1    3    3    0    0 -0.20086067101E+03  0.15372136115E+03 -0.60749522201E+03  0.82645369550E+03  0.50000000000E+03 0. -1.
    -200001    1    1    2    0    0  0.16403862988E+03 -0.11202565220E+03  0.34454608028E+03  0.80509031809E+03  0.70000000000E+03 0.  1.
<mgrwt>
<rscale>  0 0.18310965E+04</rscale>
<asrwt>0</asrwt>
<pdfrwt beam="1">  1        4 0.10217663E+00 0.18310965E+04</pdfrwt>
<pdfrwt beam="2">  1       -4 0.16742288E+00 0.18310965E+04</pdfrwt>
<totfact> 0.32855625E-01</totfact>
</mgrwt>
</event>
<event>
 8    1  0.5361529E-011  0.1436615E+04  0.7818608E-02  0.8927733E-01
         -4   -1    0    0    0  501 -0.00000000000E+00  0.00000000000E+00  0.89051168018E+03  0.89051258578E+03  0.12700000000E+01 0. -1.
          4   -1    0    0  501    0  0.00000000000E+00 -0.00000000000E+00 -0.57940152836E+03  0.57940292022E+03  0.12700000000E+01 0.  1.
     200001    2    1    2    0    0  0.83098840575E+02 -0.10831334287E+03  0.24174198134E+03  0.75336185092E+03  0.70034112783E+03 0.  0.
    5000001    2    3    3    0    0 -0.31098828031E+02 -0.95025044141E+02  0.18638272703E+02  0.19390412132E+03  0.16508945132E+03 0.  0.
        -11    1    4    4    0    0 -0.74760812665E+02 -0.14071116799E+01 -0.23496906332E+02  0.78378974739E+02  0.51100000000E-03 0. -1.
     200002    1    4    4    0    0  0.43661984635E+02 -0.93617932461E+02  0.42135179035E+02  0.11552514658E+03  0.30000000000E+02 0. -1.
     200000    1    3    3    0    0  0.11419766861E+03 -0.13288298729E+02  0.22310370864E+03  0.55945772960E+03  0.50000000000E+03 0.  1.
    -200001    1    1    2    0    0 -0.83098840575E+02  0.10831334287E+03  0.69368170484E+02  0.71655365509E+03  0.70000000000E+03 0.  1.
<mgrwt>
<rscale>  0 0.14366148E+04</rscale>
<asrwt>0</asrwt>
<pdfrwt beam="1">  1        4 0.82771811E-01 0.14366148E+04</pdfrwt>
<pdfrwt beam="2">  1       -4 0.12721612E+00 0.14366148E+04</pdfrwt>
<totfact> 0.11449506E+00</totfact>
</mgrwt>
</event>
<event>
 8    1  0.5361529E-011  0.1477983E+04  0.7818608E-02  0.8899227E-01
         -4   -1    0    0    0  501 -0.00000000000E+00  0.00000000000E+00  0.22069273470E+03  0.22069638884E+03  0.12700000000E+01 0.  1.
          4   -1    0    0  501    0  0.00000000000E+00 -0.00000000000E+00 -0.24744961083E+04  0.24744964343E+04  0.12700000000E+01 0. -1.
     200001    2    1    2    0    0 -0.14825151646E+02 -0.14790644702E+02 -0.15658122609E+04  0.17134747783E+04  0.69554958924E+03 0.  0.
    5000001    2    3    3    0    0  0.94682510839E+02 -0.22595981318E+00 -0.62369883896E+03  0.64119600949E+03  0.11474864681E+03 0.  0.
        -11    1    4    4    0    0  0.25460829381E+01 -0.64451469426E+01  0.26102569819E+01  0.74051265494E+01  0.51100000000E-03 0. -1.
     200002    1    4    4    0    0  0.92136427901E+02  0.62191871294E+01 -0.62630909594E+03  0.63379088294E+03  0.30000000000E+02 0. -1.
     200000    1    3    3    0    0 -0.10950766248E+03 -0.14564684889E+02 -0.94211342196E+03  0.10722787688E+04  0.50000000000E+03 0. -1.
    -200001    1    1    2    0    0  0.14825151646E+02  0.14790644702E+02 -0.68799111273E+03  0.98171804480E+03  0.70000000000E+03 0.  1.
<mgrwt>
<rscale>  0 0.14779833E+04</rscale>
<asrwt>0</asrwt>
<pdfrwt beam="1">  1        4 0.35349971E+00 0.14779833E+04</pdfrwt>
<pdfrwt beam="2">  1       -4 0.31527819E-01 0.14779833E+04</pdfrwt>
<totfact> 0.27063065E-01</totfact>
</mgrwt>
</event>
<event>
 8    1  0.5361529E-011  0.1638777E+04  0.7818608E-02  0.8797074E-01
         -4   -1    0    0    0  501 -0.00000000000E+00  0.00000000000E+00  0.40111039714E+03  0.40111240768E+03  0.12700000000E+01 0. -1.
          4   -1    0    0  501    0  0.00000000000E+00 -0.00000000000E+00 -0.16738408595E+04  0.16738413413E+04  0.12700000000E+01 0.  1.
     200001    2    1    2    0    0  0.21124516252E+03 -0.33388148943E+03 -0.43558898253E+03  0.91439042674E+03  0.70019334696E+03 0.  0.
    5000001    2    3    3    0    0  0.18632739541E+02 -0.12786471509E+03 -0.13589781237E+03  0.26681243586E+03  0.18980014798E+03 0.  0.
        -11    1    4    4    0    0  0.79939638148E+02 -0.76470211189E+02 -0.53041979672E+01  0.11075275826E+03  0.51100000000E-03 0. -1.
     200002    1    4    4    0    0 -0.61306898608E+02 -0.51394503904E+02 -0.13059361441E+03  0.15605967760E+03  0.30000000000E+02 0. -1.
     200000    1    3    3    0    0  0.19261242298E+03 -0.20601677434E+03 -0.29969117016E+03  0.64757799088E+03  0.50000000000E+03 0.  1.
    -200001    1    1    2    0    0 -0.21124516252E+03  0.33388148943E+03 -0.83714147982E+03  0.11605633222E+04  0.70000000000E+03 0. -1.
<mgrwt>
<rscale>  0 0.16387771E+04</rscale>
<asrwt>0</asrwt>
<pdfrwt beam="1">  1        4 0.23912030E+00 0.16387771E+04</pdfrwt>
<pdfrwt beam="2">  1       -4 0.57301664E-01 0.16387771E+04</pdfrwt>
<totfact> 0.41163679E-01</totfact>
</mgrwt>
</event>
<event>
 8    1  0.5361529E-011  0.1561270E+04  0.7818608E-02  0.8844701E-01
          4   -1    0    0  501    0  0.00000000000E+00  0.00000000000E+00  0.16572483545E+04  0.16572488412E+04  0.12700000000E+01 0. -1.
         -4   -1    0    0    0  501 -0.00000000000E+00 -0.00000000000E+00 -0.36771077517E+03  0.36771296833E+03  0.12700000000E+01 0.  1.
     200001    2    1    2    0    0  0.52654221865E+02 -0.33502266584E+03  0.73331830490E+03  0.10687230658E+04  0.69957172704E+03 0.  0.
    5000001    2    3    3    0    0 -0.47826664361E+02 -0.42490639031E+02  0.12627186752E+03  0.22363326441E+03  0.17313118782E+03 0.  0.
        -11    1    4    4    0    0 -0.66816280231E+02 -0.72043863634E+02  0.14385098126E+03  0.17420630987E+03  0.51100000000E-03 0. -1.
     200002    1    4    4    0    0  0.18989615870E+02  0.29553224602E+02 -0.17579113736E+02  0.49426954539E+02  0.30000000000E+02 0. -1.
     200000    1    3    3    0    0  0.10048088623E+03 -0.29253202681E+03  0.60704643738E+03  0.84508980135E+03  0.50000000000E+03 0.  1.
    -200001    1    1    2    0    0 -0.52654221865E+02  0.33502266584E+03  0.55621927446E+03  0.95623874372E+03  0.70000000000E+03 0. -1.
<mgrwt>
<rscale>  0 0.15612697E+04</rscale>
<asrwt>0</asrwt>
<pdfrwt beam="1">  1        4 0.23674995E+00 0.15612697E+04</pdfrwt>
<pdfrwt beam="2">  1       -4 0.52530303E-01 0.15612697E+04</pdfrwt>
<totfact> 0.51512212E-01</totfact>
</mgrwt>
</event>
<event>
 8    1  0.5361529E-011  0.2884442E+04  0.7818608E-02  0.8277521E-01
         -4   -1    0    0    0  501 -0.00000000000E+00  0.00000000000E+00  0.31997636280E+04  0.31997638800E+04  0.12700000000E+01 0. -1.
          4   -1    0    0  501    0  0.00000000000E+00 -0.00000000000E+00 -0.65004762434E+03  0.65004886494E+03  0.12700000000E+01 0.  1.
     200001    2    1    2    0    0 -0.11533356406E+04 -0.36146225414E+03  0.79480104092E+03  0.16069207308E+04  0.69974815416E+03 0.  0.
    5000001    2    3    3    0    0 -0.31929387715E+03 -0.12491634693E+03  0.20240885958E+03  0.44394690221E+03  0.19638439812E+03 0.  0.
        -11    1    4    4    0    0 -0.10710656941E+02 -0.23690516036E+02  0.98162446115E+02  0.10154715432E+03  0.51100000000E-03 0. -1.
     200002    1    4    4    0    0 -0.30858322021E+03 -0.10122583089E+03  0.10424641347E+03  0.34239974789E+03  0.30000000000E+02 0. -1.
     200000    1    3    3    0    0 -0.83404176343E+03 -0.23654590722E+03  0.59239218133E+03  0.11629738285E+04  0.50000000000E+03 0. -1.
    -200001    1    1    2    0    0  0.11533356406E+04  0.36146225414E+03  0.17549149627E+04  0.22428920142E+04  0.70000000000E+03 0.  1.
<mgrwt>
<rscale>  0 0.28844421E+04</rscale>
<asrwt>0</asrwt>
<pdfrwt beam="1">  1        4 0.92864054E-01 0.28844421E+04</pdfrwt>
<pdfrwt beam="2">  1       -4 0.45710919E+00 0.28844421E+04</pdfrwt>
<totfact> 0.44594764E-03</totfact>
</mgrwt>
</event>
<event>
 8    1  0.5361529E-011  0.1994435E+04  0.7818608E-02  0.8609227E-01
         -4   -1    0    0    0  501 -0.00000000000E+00  0.00000000000E+00  0.10881566730E+04  0.10881574141E+04  0.12700000000E+01 0.  1.
          4   -1    0    0  501    0  0.00000000000E+00 -0.00000000000E+00 -0.91387679572E+03  0.91387767817E+03  0.12700000000E+01 0. -1.
     200001    2    1    2    0    0 -0.65032961585E+03 -0.28549758497E+03  0.70895086146E+02  0.99947542057E+03  0.69963384910E+03 0.  0.
    5000001    2    3    3    0    0 -0.32693544372E+02 -0.15821944984E+03  0.61385695203E+02  0.19463725734E+03  0.89516457804E+02 0.  0.
        -11    1    4    4    0    0  0.17917518826E+02 -0.97684387665E+02  0.23205964622E+02  0.10198918506E+03  0.51100000000E-03 0. -1.
     200002    1    4    4    0    0 -0.50611063198E+02 -0.60535062179E+02  0.38179730581E+02  0.92648072286E+02  0.30000000000E+02 0. -1.
     200000    1    3    3    0    0 -0.61763607148E+03 -0.12727813513E+03  0.95093909425E+01  0.80483816323E+03  0.50000000000E+03 0. -1.
    -200001    1    1    2    0    0  0.65032961585E+03  0.28549758497E+03  0.10338479113E+03  0.10025596717E+04  0.70000000000E+03 0. -1.
<mgrwt>
<rscale>  0 0.19944350E+04</rscale>
<asrwt>0</asrwt>
<pdfrwt beam="1">  1        4 0.13055394E+00 0.19944350E+04</pdfrwt>
<pdfrwt beam="2">  1       -4 0.15545107E+00 0.19944350E+04</pdfrwt>
<totfact> 0.21714944E-01</totfact>
</mgrwt>
</event>
<event>
 8    1  0.5361529E-011  0.1675155E+04  0.7818608E-02  0.8775663E-01
          4   -1    0    0  501    0  0.00000000000E+00  0.00000000000E+00  0.72618758864E+03  0.72618869916E+03  0.12700000000E+01 0.  1.
         -4   -1    0    0    0  501 -0.00000000000E+00 -0.00000000000E+00 -0.96605075933E+03  0.96605159412E+03  0.12700000000E+01 0. -1.
     200001    2    1    2    0    0  0.36882404404E+03 -0.24058817230E+03 -0.23348412910E+03  0.86522485431E+03  0.70723784250E+03 0.  0.
    5000001    2    3    3    0    0 -0.81346917733E+02 -0.44157459001E+02 -0.40525628782E+02  0.13826412442E+03  0.94379231316E+02 0.  0.
        -11    1    4    4    0    0 -0.91412426409E+00  0.10525688047E+02  0.17987678788E+02  0.20861023956E+02  0.51100000000E-03 0. -1.
     200002    1    4    4    0    0 -0.80432793469E+02 -0.54683147048E+02 -0.58513307570E+02  0.11740310047E+03  0.30000000000E+02 0. -1.
     200000    1    3    3    0    0  0.45017096178E+03 -0.19643071330E+03 -0.19295850032E+03  0.72696072989E+03  0.50000000000E+03 0. -1.
    -200001    1    1    2    0    0 -0.36882404404E+03  0.24058817230E+03 -0.63790415866E+01  0.82701543897E+03  0.70000000000E+03 0.  1.
<mgrwt>
<rscale>  0 0.16751546E+04</rscale>
<asrwt>0</asrwt>
<pdfrwt beam="1">  1        4 0.10374122E+00 0.16751546E+04</pdfrwt>
<pdfrwt beam="2">  1       -4 0.13800739E+00 0.16751546E+04</pdfrwt>
<totfact> 0.53864134E-01</totfact>
</mgrwt>
</event>
<event>
 8    1  0.5361529E-011  0.1668416E+04  0.7818608E-02  0.8779586E-01
          4   -1    0    0  501    0  0.00000000000E+00  0.00000000000E+00  0.79198425115E+03  0.79198526941E+03  0.12700000000E+01 0.  1.
         -4   -1    0    0    0  501 -0.00000000000E+00 -0.00000000000E+00 -0.87868042749E+03  0.87868134529E+03  0.12700000000E+01 0. -1.
     200001    2    1    2    0    0  0.15990316710E+03 -0.42429025226E+03 -0.59382631506E+02  0.83619835842E+03  0.70007867893E+03 0.  0.
    5000001    2    3    3    0    0  0.68534290716E+02 -0.14984641409E+03  0.52092696948E+01  0.25495847198E+03  0.19448853212E+03 0.  0.
        -11    1    4    4    0    0  0.39932506989E+02 -0.13865640242E+03 -0.76011290022E+02  0.16308868525E+03  0.51100000000E-03 0. -1.
     200002    1    4    4    0    0  0.28601783727E+02 -0.11190011668E+02  0.81220559717E+02  0.91869786732E+02  0.30000000000E+02 0. -1.
     200000    1    3    3    0    0  0.91368876381E+02 -0.27444383817E+03 -0.64591901201E+02  0.58123988643E+03  0.50000000000E+03 0.  1.
    -200001    1    1    2    0    0 -0.15990316710E+03  0.42429025226E+03 -0.27313544833E+02  0.83446825628E+03  0.70000000000E+03 0.  1.
<mgrwt>
<rscale>  0 0.16684156E+04</rscale>
<asrwt>0</asrwt>
<pdfrwt beam="1">  1        4 0.11314075E+00 0.16684156E+04</pdfrwt>
<pdfrwt beam="2">  1       -4 0.12552591E+00 0.16684156E+04</pdfrwt>
<totfact> 0.55616458E-01</totfact>
</mgrwt>
</event>
<event>
 8    1  0.5361529E-011  0.1724124E+04  0.7818608E-02  0.8747724E-01
         -4   -1    0    0    0  501 -0.00000000000E+00  0.00000000000E+00  0.16656998266E+04  0.16657003108E+04  0.12700000000E+01 0. -1.
          4   -1    0    0  501    0  0.00000000000E+00 -0.00000000000E+00 -0.44614774468E+03  0.44614955227E+03  0.12700000000E+01 0.  1.
     200001    2    1    2    0    0 -0.44870557845E+02 -0.92335142439E+02  0.84199188548E+01  0.70921653178E+03  0.70169655011E+03 0.  0.
    5000001    2    3    3    0    0 -0.56507883270E+02  0.29110211377E+01  0.27034786476E+01  0.20006042929E+03  0.19187300919E+03 0.  0.
        -11    1    4    4    0    0 -0.83433194950E+02 -0.27177326505E+02  0.72639613564E+02  0.11391320623E+03  0.51100000000E-03 0. -1.
     200002    1    4    4    0    0  0.26925311680E+02  0.30088347643E+02 -0.69936134916E+02  0.86147223054E+02  0.30000000000E+02 0. -1.
     200000    1    3    3    0    0  0.11637325425E+02 -0.95246163577E+02  0.57164402072E+01  0.50915610249E+03  0.50000000000E+03 0.  1.
    -200001    1    1    2    0    0  0.44870557845E+02  0.92335142439E+02  0.12111321631E+04  0.14026333312E+04  0.70000000000E+03 0. -1.
<mgrwt>
<rscale>  0 0.17241237E+04</rscale>
<asrwt>0</asrwt>
<pdfrwt beam="1">  1        4 0.63735555E-01 0.17241237E+04</pdfrwt>
<pdfrwt beam="2">  1       -4 0.23795728E+00 0.17241237E+04</pdfrwt>
<totfact> 0.33060300E-01</totfact>
</mgrwt>
</event>
<event>
 8    1  0.5361529E-011  0.1462799E+04  0.7818608E-02  0.8909575E-01
         -4   -1    0    0    0  501 -0.00000000000E+00  0.00000000000E+00  0.28250222477E+03  0.28250507942E+03  0.12700000000E+01 0. -1.
          4   -1    0    0  501    0  0.00000000000E+00 -0.00000000000E+00 -0.18935827339E+04  0.18935831598E+04  0.12700000000E+01 0.  1.
     200001    2    1    2    0    0 -0.13952105682E+03  0.14649113246E+03 -0.69442488932E+03  0.10051128755E+04  0.69792563237E+03 0.  0.
    5000001    2    3    3    0    0 -0.10168182051E+03  0.55848681071E+02 -0.59883873291E+02  0.19130075782E+03  0.13982715709E+03 0.  0.
        -11    1    4    4    0    0  0.10282708583E+02  0.30826629138E+02 -0.64931578981E+02  0.72609400968E+02  0.51100000000E-03 0. -1.
     200002    1    4    4    0    0 -0.11196452909E+03  0.25022051933E+02  0.50477056900E+01  0.11869135685E+03  0.30000000000E+02 0. -1.
     200000    1    3    3    0    0 -0.37839236316E+02  0.90642451392E+02 -0.63454101602E+03  0.81381211764E+03  0.50000000000E+03 0.  1.
    -200001    1    1    2    0    0  0.13952105682E+03 -0.14649113246E+03 -0.91665561984E+03  0.11709753638E+04  0.70000000000E+03 0. -1.
<mgrwt>
<rscale>  0 0.14627986E+04</rscale>
<asrwt>0</asrwt>
<pdfrwt beam="1">  1        4 0.27051205E+00 0.14627986E+04</pdfrwt>
<pdfrwt beam="2">  1       -4 0.40357696E-01 0.14627986E+04</pdfrwt>
<totfact> 0.55188246E-01</totfact>
</mgrwt>
</event>
<event>
 8    1  0.5361529E-011  0.1693805E+04  0.7818608E-02  0.8764905E-01
         -4   -1    0    0    0  501 -0.00000000000E+00  0.00000000000E+00  0.49485362717E+03  0.49485525685E+03  0.12700000000E+01 0. -1.
          4   -1    0    0  501    0  0.00000000000E+00 -0.00000000000E+00 -0.14494024877E+04  0.14494030441E+04  0.12700000000E+01 0.  1.
     200001    2    1    2    0    0  0.20085286426E+03 -0.31970157102E+03 -0.14168580308E+03  0.80702599496E+03  0.69904586556E+03 0.  0.
    5000001    2    3    3    0    0  0.14013176828E+03 -0.73537502930E+02  0.38464131381E+02  0.21818153434E+03  0.14518614158E+03 0.  0.
        -11    1    4    4    0    0 -0.32371719996E+00 -0.10704145681E+02  0.59100122245E+02  0.60062533889E+02  0.51100000000E-03 0. -1.
     200002    1    4    4    0    0  0.14045548548E+03 -0.62833357250E+02 -0.20635990864E+02  0.15811900045E+03  0.30000000000E+02 0. -1.
     200000    1    3    3    0    0  0.60721095980E+02 -0.24616406809E+03 -0.18014993446E+03  0.58884446062E+03  0.50000000000E+03 0. -1.
    -200001    1    1    2    0    0 -0.20085286426E+03  0.31970157102E+03 -0.81286305741E+03  0.11372323060E+04  0.70000000000E+03 0.  1.
<mgrwt>
<rscale>  0 0.16938054E+04</rscale>
<asrwt>0</asrwt>
<pdfrwt beam="1">  1        4 0.20705765E+00 0.16938054E+04</pdfrwt>
<pdfrwt beam="2">  1       -4 0.70693532E-01 0.16938054E+04</pdfrwt>
<totfact> 0.41530081E-01</totfact>
</mgrwt>
</event>
<event>
 8    1  0.5361529E-011  0.1460901E+04  0.7818608E-02  0.8910878E-01
          4   -1    0    0  501    0  0.00000000000E+00  0.00000000000E+00  0.47940780383E+03  0.47940948601E+03  0.12700000000E+01 0.  1.
         -4   -1    0    0    0  501 -0.00000000000E+00 -0.00000000000E+00 -0.11129479379E+04  0.11129486626E+04  0.12700000000E+01 0. -1.
     200001    2    1    2    0    0  0.12756651141E+03 -0.80720579265E+02 -0.15645106876E+03  0.73189141298E+03  0.69885554783E+03 0.  0.
    5000001    2    3    3    0    0  0.67288009684E+02 -0.38382384214E+01 -0.11113463397E+02  0.20211088141E+03  0.19021800912E+03 0.  0.
        -11    1    4    4    0    0  0.65002053069E+02 -0.85561803673E+02  0.20638888242E+02  0.10941687648E+03  0.51100000000E-03 0. -1.
     200002    1    4    4    0    0  0.22859566147E+01  0.81723565251E+02 -0.31752351639E+02  0.92694004928E+02  0.30000000000E+02 0. -1.
     200000    1    3    3    0    0  0.60278501723E+02 -0.76882340844E+02 -0.14533760536E+03  0.52978053157E+03  0.50000000000E+03 0. -1.
    -200001    1    1    2    0    0 -0.12756651141E+03  0.80720579265E+02 -0.47708906536E+03  0.86046673558E+03  0.70000000000E+03 0. -1.
<mgrwt>
<rscale>  0 0.14609009E+04</rscale>
<asrwt>0</asrwt>
<pdfrwt beam="1">  1        4 0.68487001E-01 0.14609009E+04</pdfrwt>
<pdfrwt beam="2">  1       -4 0.15899273E+00 0.14609009E+04</pdfrwt>
<totfact> 0.97433807E-01</totfact>
</mgrwt>
</event>
<event>
 8    1  0.5361529E-011  0.1471739E+04  0.7818608E-02  0.8903467E-01
          4   -1    0    0  501    0  0.00000000000E+00  0.00000000000E+00  0.36312888273E+03  0.36313110356E+03  0.12700000000E+01 0.  1.
         -4   -1    0    0    0  501 -0.00000000000E+00 -0.00000000000E+00 -0.14912102070E+04  0.14912107478E+04  0.12700000000E+01 0. -1.
     200001    2    1    2    0    0  0.12861402195E+03 -0.62875638693E+02 -0.78754471077E+03  0.10628495281E+04  0.69923353423E+03 0.  0.
    5000001    2    3    3    0    0  0.26188789850E+02 -0.46707295281E+02 -0.32129048902E+03  0.37136898407E+03  0.17838138875E+03 0.  0.
        -11    1    4    4    0    0  0.72972240038E+02  0.27602144810E+02 -0.75179007822E+02  0.10834532492E+03  0.51100000000E-03 0. -1.
     200002    1    4    4    0    0 -0.46783450188E+02 -0.74309440091E+02 -0.24611148120E+03  0.26302365916E+03  0.30000000000E+02 0. -1.
     200000    1    3    3    0    0  0.10242523210E+03 -0.16168343413E+02 -0.46625422175E+03  0.69148054405E+03  0.50000000000E+03 0. -1.
    -200001    1    1    2    0    0 -0.12861402195E+03  0.62875638693E+02 -0.34053661345E+03  0.79149232320E+03  0.70000000000E+03 0.  1.
<mgrwt>
<rscale>  0 0.14717392E+04</rscale>
<asrwt>0</asrwt>
<pdfrwt beam="1">  1        4 0.51875753E-01 0.14717392E+04</pdfrwt>
<pdfrwt beam="2">  1       -4 0.21303022E+00 0.14717392E+04</pdfrwt>
<totfact> 0.75260704E-01</totfact>
</mgrwt>
</event>
<event>
 8    1  0.5361529E-011  0.1610523E+04  0.7818608E-02  0.8814109E-01
          4   -1    0    0  501    0  0.00000000000E+00  0.00000000000E+00  0.10468178828E+04  0.10468186531E+04  0.12700000000E+01 0.  1.
         -4   -1    0    0    0  501 -0.00000000000E+00 -0.00000000000E+00 -0.61944331316E+03  0.61944461506E+03  0.12700000000E+01 0. -1.
     200001    2    1    2    0    0  0.30138369155E+03 -0.14648266396E+03  0.41939464579E+03  0.89014924335E+03  0.71005950887E+03 0.  0.
    5000001    2    3    3    0    0  0.30558048275E+02 -0.30702749936E+02  0.11021466577E+03  0.23262070587E+03  0.20022154500E+03 0.  0.
        -11    1    4    4    0    0 -0.66223929670E+02 -0.59179463201E+02  0.88048396720E+02  0.12506133651E+03  0.51100000000E-03 0. -1.
     200002    1    4    4    0    0  0.96781977945E+02  0.28476713265E+02  0.22166269051E+02  0.10755936936E+03  0.30000000000E+02 0. -1.
     200000    1    3    3    0    0  0.27082564328E+03 -0.11577991402E+03  0.30917998002E+03  0.65752853748E+03  0.50000000000E+03 0.  1.
    -200001    1    1    2    0    0 -0.30138369155E+03  0.14648266396E+03  0.79799237965E+01  0.77611402484E+03  0.70000000000E+03 0. -1.
<mgrwt>
<rscale>  0 0.16105230E+04</rscale>
<asrwt>0</asrwt>
<pdfrwt beam="1">  1        4 0.14954556E+00 0.16105230E+04</pdfrwt>
<pdfrwt beam="2">  1       -4 0.88492051E-01 0.16105230E+04</pdfrwt>
<totfact> 0.63758379E-01</totfact>
</mgrwt>
</event>
<event>
 8    1  0.5361529E-011  0.1926626E+04  0.7818608E-02  0.8641715E-01
          4   -1    0    0  501    0  0.00000000000E+00  0.00000000000E+00  0.16644256455E+04  0.16644261300E+04  0.12700000000E+01 0.  1.
         -4   -1    0    0    0  501 -0.00000000000E+00 -0.00000000000E+00 -0.55753149810E+03  0.55753294456E+03  0.12700000000E+01 0. -1.
     200001    2    1    2    0    0 -0.18142287691E+03  0.52606077917E+03  0.96638848089E+03  0.13167541000E+04  0.70020030005E+03 0.  0.
    5000001    2    3    3    0    0 -0.77311590609E+02  0.11955570508E+03  0.27636610558E+03  0.36690336770E+03  0.19485689174E+03 0.  0.
        -11    1    4    4    0    0  0.62762078492E+02  0.34878501383E+02  0.57659222880E+02  0.92087862060E+02  0.51100000000E-03 0. -1.
     200002    1    4    4    0    0 -0.14007366910E+03  0.84677203697E+02  0.21870688270E+03  0.27481550564E+03  0.30000000000E+02 0. -1.
     200000    1    3    3    0    0 -0.10411128631E+03  0.40650507409E+03  0.69002237531E+03  0.94985073229E+03  0.50000000000E+03 0.  1.
    -200001    1    1    2    0    0  0.18142287691E+03 -0.52606077917E+03  0.14050566648E+03  0.90520497456E+03  0.70000000000E+03 0.  1.
<mgrwt>
<rscale>  0 0.19266259E+04</rscale>
<asrwt>0</asrwt>
<pdfrwt beam="1">  1        4 0.23777523E+00 0.19266259E+04</pdfrwt>
<pdfrwt beam="2">  1       -4 0.79647496E-01 0.19266259E+04</pdfrwt>
<totfact> 0.19880979E-01</totfact>
</mgrwt>
</event>
<event>
 8    1  0.5361529E-011  0.1564919E+04  0.7818608E-02  0.8842394E-01
          4   -1    0    0  501    0  0.00000000000E+00  0.00000000000E+00  0.75555231273E+03  0.75555338010E+03  0.12700000000E+01 0.  1.
         -4   -1    0    0    0  501 -0.00000000000E+00 -0.00000000000E+00 -0.81032257302E+03  0.81032356824E+03  0.12700000000E+01 0. -1.
     200001    2    1    2    0    0  0.22674152468E+03  0.25133589437E+03  0.61391420746E+02  0.77969949574E+03  0.69970061191E+03 0.  0.
    5000001    2    3    3    0    0 -0.53640085775E+02  0.37431984946E+02 -0.22937489923E+02  0.16205874650E+03  0.14648718911E+03 0.  0.
        -11    1    4    4    0    0 -0.66156577662E+02  0.81231171108E+02 -0.59526269829E+01  0.10493154767E+03  0.51100000000E-03 0. -1.
     200002    1    4    4    0    0  0.12516491887E+02 -0.43799186162E+02 -0.16984862940E+02  0.57127198835E+02  0.30000000000E+02 0. -1.
     200000    1    3    3    0    0  0.28038161046E+03  0.21390390943E+03  0.84328910669E+02  0.61764074924E+03  0.50000000000E+03 0.  1.
    -200001    1    1    2    0    0 -0.22674152468E+03 -0.25133589437E+03 -0.11616168103E+03  0.78617745259E+03  0.70000000000E+03 0. -1.
<mgrwt>
<rscale>  0 0.15649188E+04</rscale>
<asrwt>0</asrwt>
<pdfrwt beam="1">  1        4 0.10793619E+00 0.15649188E+04</pdfrwt>
<pdfrwt beam="2">  1       -4 0.11576051E+00 0.15649188E+04</pdfrwt>
<totfact> 0.76928341E-01</totfact>
</mgrwt>
</event>
<event>
 8    1  0.5361529E-011  0.1796196E+04  0.7818608E-02  0.8708325E-01
          4   -1    0    0  501    0  0.00000000000E+00  0.00000000000E+00  0.61918769774E+03  0.61918900017E+03  0.12700000000E+01 0.  1.
         -4   -1    0    0    0  501 -0.00000000000E+00 -0.00000000000E+00 -0.13026396604E+04  0.13026402795E+04  0.12700000000E+01 0. -1.
     200001    2    1    2    0    0 -0.38229936997E+03 -0.29523711105E+03 -0.33311231811E+02  0.85131504344E+03  0.70022132573E+03 0.  0.
    5000001    2    3    3    0    0 -0.16757294268E+03 -0.85726126773E+02 -0.81846285944E+02  0.26620142833E+03  0.16951320301E+03 0.  0.
        -11    1    4    4    0    0 -0.45797760586E+01 -0.24724899636E+02 -0.85949965798E+02  0.89552731012E+02  0.51100000000E-03 0. -1.
     200002    1    4    4    0    0 -0.16299316662E+03 -0.61001227136E+02  0.41036798536E+01  0.17664869732E+03  0.30000000000E+02 0. -1.
     200000    1    3    3    0    0 -0.21472642729E+03 -0.20951098427E+03  0.48535054133E+02  0.58511361511E+03  0.50000000000E+03 0.  1.
    -200001    1    1    2    0    0  0.38229936997E+03  0.29523711105E+03 -0.65014073081E+03  0.10705142362E+04  0.70000000000E+03 0. -1.
<mgrwt>
<rscale>  0 0.17961963E+04</rscale>
<asrwt>0</asrwt>
<pdfrwt beam="1">  1        4 0.88455523E-01 0.17961963E+04</pdfrwt>
<pdfrwt beam="2">  1       -4 0.18609152E+00 0.17961963E+04</pdfrwt>
<totfact> 0.34211854E-01</totfact>
</mgrwt>
</event>
<event>
 8    1  0.5361529E-011  0.1777434E+04  0.7818608E-02  0.8718393E-01
         -4   -1    0    0    0  501 -0.00000000000E+00  0.00000000000E+00  0.85000654845E+03  0.85000749720E+03  0.12700000000E+01 0. -1.
          4   -1    0    0  501    0  0.00000000000E+00 -0.00000000000E+00 -0.92918882423E+03  0.92918969214E+03  0.12700000000E+01 0.  1.
     200001    2    1    2    0    0  0.14494909643E+03 -0.35484249434E+03  0.35277193879E+03  0.87172383996E+03  0.69894990952E+03 0.  0.
    5000001    2    3    3    0    0  0.66965174342E+02 -0.38410577075E+02  0.87899694769E+02  0.21875526796E+03  0.18484535135E+03 0.  0.
        -11    1    4    4    0    0  0.12618864853E+03 -0.22470448396E+02  0.77253641155E+02  0.14965500707E+03  0.51100000000E-03 0. -1.
     200002    1    4    4    0    0 -0.59223474192E+02 -0.15940128679E+02  0.10646053614E+02  0.69100260891E+02  0.30000000000E+02 0. -1.
     200000    1    3    3    0    0  0.77983922084E+02 -0.31643191726E+03  0.26487224402E+03  0.65296857200E+03  0.50000000000E+03 0. -1.
    -200001    1    1    2    0    0 -0.14494909643E+03  0.35484249434E+03 -0.43195421457E+03  0.90747334938E+03  0.70000000000E+03 0.  1.
<mgrwt>
<rscale>  0 0.17774343E+04</rscale>
<asrwt>0</asrwt>
<pdfrwt beam="1">  1        4 0.13274139E+00 0.17774343E+04</pdfrwt>
<pdfrwt beam="2">  1       -4 0.12142964E+00 0.17774343E+04</pdfrwt>
<totfact> 0.40186088E-01</totfact>
</mgrwt>
</event>
<event>
 8    1  0.5361529E-011  0.1834170E+04  0.7818608E-02  0.8688336E-01
          4   -1    0    0  501    0  0.00000000000E+00  0.00000000000E+00  0.19662452695E+04  0.19662456797E+04  0.12700000000E+01 0.  1.
         -4   -1    0    0    0  501 -0.00000000000E+00 -0.00000000000E+00 -0.42774019673E+03  0.42774208210E+03  0.12700000000E+01 0. -1.
     200001    2    1    2    0    0  0.50704434402E+03  0.29327878985E+03  0.88598781639E+03  0.12719872336E+04  0.69990763407E+03 0.  0.
    5000001    2    3    3    0    0  0.19035207126E+03  0.23494099267E+03  0.39360891205E+03  0.49988990835E+03  0.59420230127E+02 0.  0.
        -11    1    4    4    0    0  0.11045084163E+01  0.20385280742E+02  0.29061062067E+02  0.35515136752E+02  0.51100000000E-03 0. -1.
     200002    1    4    4    0    0  0.18924756285E+03  0.21455571193E+03  0.36454784998E+03  0.46437477159E+03  0.30000000000E+02 0. -1.
     200000    1    3    3    0    0  0.31669227275E+03  0.58337797175E+02  0.49237890434E+03  0.77209732524E+03  0.50000000000E+03 0.  1.
    -200001    1    1    2    0    0 -0.50704434402E+03 -0.29327878985E+03  0.65251725642E+03  0.11220005282E+04  0.70000000000E+03 0.  1.
<mgrwt>
<rscale>  0 0.18341700E+04</rscale>
<asrwt>0</asrwt>
<pdfrwt beam="1">  1        4 0.28089235E+00 0.18341700E+04</pdfrwt>
<pdfrwt beam="2">  1       -4 0.61105905E-01 0.18341700E+04</pdfrwt>
<totfact> 0.19451039E-01</totfact>
</mgrwt>
</event>
<event>
 8    1  0.5361529E-011  0.1543493E+04  0.7818608E-02  0.8856035E-01
          4   -1    0    0  501    0  0.00000000000E+00  0.00000000000E+00  0.78282628102E+03  0.78282731120E+03  0.12700000000E+01 0.  1.
         -4   -1    0    0    0  501 -0.00000000000E+00 -0.00000000000E+00 -0.76082151866E+03  0.76082257863E+03  0.12700000000E+01 0. -1.
     200001    2    1    2    0    0 -0.20399246538E+01  0.28347771646E+03 -0.14796292628E+03  0.76953569140E+03  0.69994883796E+03 0.  0.
    5000001    2    3    3    0    0 -0.35625076885E+02  0.56063855261E+02 -0.12398268078E+03  0.21869989110E+03  0.16746831123E+03 0.  0.
        -11    1    4    4    0    0  0.20638342219E+02  0.92633840014E+02 -0.30303951415E+02  0.99625794636E+02  0.51100000000E-03 0. -1.
     200002    1    4    4    0    0 -0.56263419104E+02 -0.36569984752E+02 -0.93678729362E+02  0.11907409646E+03  0.30000000000E+02 0. -1.
     200000    1    3    3    0    0  0.33585152231E+02  0.22741386120E+03 -0.23980245507E+02  0.55083580030E+03  0.50000000000E+03 0. -1.
    -200001    1    1    2    0    0  0.20399246538E+01 -0.28347771646E+03  0.16996768865E+03  0.77411419843E+03  0.70000000000E+03 0.  1.
<mgrwt>
<rscale>  0 0.15434930E+04</rscale>
<asrwt>0</asrwt>
<pdfrwt beam="1">  1        4 0.11183248E+00 0.15434930E+04</pdfrwt>
<pdfrwt beam="2">  1       -4 0.10868894E+00 0.15434930E+04</pdfrwt>
<totfact> 0.82439371E-01</totfact>
</mgrwt>
</event>
<event>
 8    1  0.5361529E-011  0.1704151E+04  0.7818608E-02  0.8759000E-01
         -4   -1    0    0    0  501 -0.00000000000E+00  0.00000000000E+00  0.33582337264E+03  0.33582577404E+03  0.12700000000E+01 0. -1.
          4   -1    0    0  501    0  0.00000000000E+00 -0.00000000000E+00 -0.21619378487E+04  0.21619382217E+04  0.12700000000E+01 0.  1.
     200001    2    1    2    0    0  0.43155278201E+03 -0.13938601121E+03 -0.11653585860E+04  0.14336847647E+04  0.70123113639E+03 0.  0.
    5000001    2    3    3    0    0  0.13760333447E+03 -0.78462144323E+02 -0.24266967458E+03  0.34213869484E+03  0.18187723826E+03 0.  0.
        -11    1    4    4    0    0  0.47321901338E+02  0.50264777983E+02 -0.12734622665E+03  0.14485500231E+03  0.51100000000E-03 0. -1.
     200002    1    4    4    0    0  0.90281433133E+02 -0.12872692231E+03 -0.11532344793E+03  0.19728369253E+03  0.30000000000E+02 0. -1.
     200000    1    3    3    0    0  0.29394944754E+03 -0.60923866886E+02 -0.92268891145E+03  0.10915460698E+04  0.50000000000E+03 0.  1.
    -200001    1    1    2    0    0 -0.43155278201E+03  0.13938601121E+03 -0.66075589000E+03  0.10640792311E+04  0.70000000000E+03 0. -1.
<mgrwt>
<rscale>  0 0.17041511E+04</rscale>
<asrwt>0</asrwt>
<pdfrwt beam="1">  1        4 0.30884845E+00 0.17041511E+04</pdfrwt>
<pdfrwt beam="2">  1       -4 0.47974967E-01 0.17041511E+04</pdfrwt>
<totfact> 0.21988898E-01</totfact>
</mgrwt>
</event>
<event>
 8    1  0.5361529E-011  0.1756146E+04  0.7818608E-02  0.8729975E-01
          4   -1    0    0  501    0  0.00000000000E+00  0.00000000000E+00  0.48130876352E+03  0.48131043905E+03  0.12700000000E+01 0.  1.
         -4   -1    0    0    0  501 -0.00000000000E+00 -0.00000000000E+00 -0.16019030167E+04  0.16019035201E+04  0.12700000000E+01 0. -1.
     200001    2    1    2    0    0  0.20639958418E+03  0.23161780143E+03 -0.49160784930E+02  0.76631712526E+03  0.69898323256E+03 0.  0.
    5000001    2    3    3    0    0  0.29605792090E+02  0.63260397784E+01  0.27967967414E+02  0.18497276326E+03  0.18032247293E+03 0.  0.
        -11    1    4    4    0    0  0.15167104338E+02  0.82335599048E+02 -0.23961016167E+02  0.87082272712E+02  0.51100000000E-03 0. -1.
     200002    1    4    4    0    0  0.14438687751E+02 -0.76009559269E+02  0.51928983581E+02  0.97890490550E+02  0.30000000000E+02 0. -1.
     200000    1    3    3    0    0  0.17679379209E+03  0.22529176165E+03 -0.77128752343E+02  0.58134436200E+03  0.50000000000E+03 0.  1.
    -200001    1    1    2    0    0 -0.20639958418E+03 -0.23161780143E+03 -0.10714334682E+04  0.13168968339E+04  0.70000000000E+03 0.  1.
<mgrwt>
<rscale>  0 0.17561460E+04</rscale>
<asrwt>0</asrwt>
<pdfrwt beam="1">  1        4 0.68758551E-01 0.17561460E+04</pdfrwt>
<pdfrwt beam="2">  1       -4 0.22884344E+00 0.17561460E+04</pdfrwt>
<totfact> 0.31868645E-01</totfact>
</mgrwt>
</event>
<event>
 8    1  0.5361529E-011  0.1650075E+04  0.7818608E-02  0.8790362E-01
         -4   -1    0    0    0  501 -0.00000000000E+00  0.00000000000E+00  0.46905711845E+03  0.46905883775E+03  0.12700000000E+01 0. -1.
          4   -1    0    0  501    0  0.00000000000E+00 -0.00000000000E+00 -0.14511762924E+04  0.14511768482E+04  0.12700000000E+01 0.  1.
     200001    2    1    2    0    0  0.34637098535E+02  0.10032657017E+03 -0.98384272700E+03  0.12122327764E+04  0.70021185605E+03 0.  0.
    5000001    2    3    3    0    0  0.13697907772E+02  0.11819153754E+03 -0.32911994735E+03  0.38796369108E+03  0.16744854024E+03 0.  0.
        -11    1    4    4    0    0 -0.10992825913E+02  0.11005322034E+03 -0.82018403562E+02  0.13769376185E+03  0.51100000000E-03 0. -1.
     200002    1    4    4    0    0  0.24690733685E+02  0.81383172012E+01 -0.24710154378E+03  0.25026992923E+03  0.30000000000E+02 0. -1.
     200000    1    3    3    0    0  0.20939190763E+02 -0.17864967365E+02 -0.65472277965E+03  0.82426908529E+03  0.50000000000E+03 0.  1.
    -200001    1    1    2    0    0 -0.34637098535E+02 -0.10032657017E+03  0.17235530171E+01  0.70800290954E+03  0.70000000000E+03 0. -1.
<mgrwt>
<rscale>  0 0.16500749E+04</rscale>
<asrwt>0</asrwt>
<pdfrwt beam="1">  1        4 0.20731106E+00 0.16500749E+04</pdfrwt>
<pdfrwt beam="2">  1       -4 0.67008323E-01 0.16500749E+04</pdfrwt>
<totfact> 0.46712688E-01</totfact>
</mgrwt>
</event>
<event>
 8    1  0.5361529E-011  0.1494014E+04  0.7818608E-02  0.8888443E-01
          4   -1    0    0  501    0  0.00000000000E+00  0.00000000000E+00  0.62196757915E+03  0.62196887576E+03  0.12700000000E+01 0.  1.
         -4   -1    0    0    0  501 -0.00000000000E+00 -0.00000000000E+00 -0.89718180620E+03  0.89718270507E+03  0.12700000000E+01 0. -1.
     200001    2    1    2    0    0 -0.64312356647E+00  0.19629345638E+03  0.29412992565E+02  0.73090715329E+03  0.70344055041E+03 0.  0.
    5000001    2    3    3    0    0  0.10586740786E+03  0.87394303052E+02 -0.21705175687E+02  0.20572472210E+03  0.15167687489E+03 0.  0.
        -11    1    4    4    0    0  0.27187344372E+02 -0.27004892233E+02 -0.47837035719E+02  0.61292722938E+02  0.51100000000E-03 0. -1.
     200002    1    4    4    0    0  0.78680063493E+02  0.11439919529E+03  0.26131860032E+02  0.14443199916E+03  0.30000000000E+02 0. -1.
     200000    1    3    3    0    0 -0.10651053143E+03  0.10889915333E+03  0.51118168253E+02  0.52518243119E+03  0.50000000000E+03 0.  1.
    -200001    1    1    2    0    0  0.64312356647E+00 -0.19629345638E+03 -0.30462721961E+03  0.78824442754E+03  0.70000000000E+03 0.  1.
<mgrwt>
<rscale>  0 0.14940143E+04</rscale>
<asrwt>0</asrwt>
<pdfrwt beam="1">  1        4 0.88852669E-01 0.14940143E+04</pdfrwt>
<pdfrwt beam="2">  1       -4 0.12816899E+00 0.14940143E+04</pdfrwt>
<totfact> 0.95073009E-01</totfact>
</mgrwt>
</event>
<event>
 8    1  0.5361529E-011  0.2146995E+04  0.7818608E-02  0.8540820E-01
         -4   -1    0    0    0  501 -0.00000000000E+00  0.00000000000E+00  0.80151631670E+03  0.80151732286E+03  0.12700000000E+01 0. -1.
          4   -1    0    0  501    0  0.00000000000E+00 -0.00000000000E+00 -0.14377682219E+04  0.14377687828E+04  0.12700000000E+01 0.  1.
     200001    2    1    2    0    0  0.73927640033E+03  0.21718592103E+03 -0.59148773765E+03  0.11973153042E+04  0.70000490961E+03 0.  0.
    5000001    2    3    3    0    0  0.95566829806E+02  0.67405076434E+02 -0.10966876390E+03  0.23869867797E+03  0.17684274880E+03 0.  0.
        -11    1    4    4    0    0  0.43166963824E+01  0.88784145840E+02  0.32113055125E+01  0.88947011774E+02  0.51100000000E-03 0. -1.
     200002    1    4    4    0    0  0.91250133424E+02 -0.21379069406E+02 -0.11288006941E+03  0.14975166619E+03  0.30000000000E+02 0. -1.
     200000    1    3    3    0    0  0.64370957052E+03  0.14978084459E+03 -0.48181897375E+03  0.95861662621E+03  0.50000000000E+03 0. -1.
    -200001    1    1    2    0    0 -0.73927640033E+03 -0.21718592103E+03 -0.44764167515E+02  0.10419708014E+04  0.70000000000E+03 0. -1.
<mgrwt>
<rscale>  0 0.21469946E+04</rscale>
<asrwt>0</asrwt>
<pdfrwt beam="1">  1        4 0.20539557E+00 0.21469946E+04</pdfrwt>
<pdfrwt beam="2">  1       -4 0.11450244E+00 0.21469946E+04</pdfrwt>
<totfact> 0.13344053E-01</totfact>
</mgrwt>
</event>
<event>
 8    1  0.5361529E-011  0.1548906E+04  0.7818608E-02  0.8852567E-01
          4   -1    0    0  501    0  0.00000000000E+00  0.00000000000E+00  0.12403870470E+04  0.12403876971E+04  0.12700000000E+01 0.  1.
         -4   -1    0    0    0  501 -0.00000000000E+00 -0.00000000000E+00 -0.48353914794E+03  0.48354081574E+03  0.12700000000E+01 0. -1.
     200001    2    1    2    0    0  0.13926212455E+03 -0.24791999142E+03  0.18795288099E+03  0.77814851571E+03  0.69952166910E+03 0.  0.
    5000001    2    3    3    0    0 -0.54418306258E+02  0.39350970367E+01 -0.18887958391E+02  0.15067243832E+03  0.13917108770E+03 0.  0.
        -11    1    4    4    0    0  0.32934665295E+02 -0.29555080107E+02  0.15034252146E+02  0.46735678834E+02  0.51100000000E-03 0. -1.
     200002    1    4    4    0    0 -0.87352971553E+02  0.33490177143E+02 -0.33922210537E+02  0.10393675948E+03  0.30000000000E+02 0. -1.
     200000    1    3    3    0    0  0.19368043081E+03 -0.25185508846E+03  0.20684083938E+03  0.62747607739E+03  0.50000000000E+03 0. -1.
    -200001    1    1    2    0    0 -0.13926212455E+03  0.24791999142E+03  0.56889501804E+03  0.94577999716E+03  0.70000000000E+03 0.  1.
<mgrwt>
<rscale>  0 0.15489063E+04</rscale>
<asrwt>0</asrwt>
<pdfrwt beam="1">  1        4 0.17719832E+00 0.15489063E+04</pdfrwt>
<pdfrwt beam="2">  1       -4 0.69077185E-01 0.15489063E+04</pdfrwt>
<totfact> 0.70220519E-01</totfact>
</mgrwt>
</event>
<event>
 8    1  0.5361529E-011  0.2682128E+04  0.7818608E-02  0.8340827E-01
         -4   -1    0    0    0  501 -0.00000000000E+00  0.00000000000E+00  0.12113337115E+04  0.12113343773E+04  0.12700000000E+01 0. -1.
          4   -1    0    0  501    0  0.00000000000E+00 -0.00000000000E+00 -0.14846864477E+04  0.14846869909E+04  0.12700000000E+01 0.  1.
     200001    2    1    2    0    0  0.41418050395E+03 -0.95269631055E+03  0.34017810772E+03  0.13011751952E+04  0.70580450093E+03 0.  0.
    5000001    2    3    3    0    0  0.10617441905E+03 -0.23196717345E+03  0.18636759093E+03  0.35885045683E+03  0.17017342506E+03 0.  0.
        -11    1    4    4    0    0  0.50513018453E+02 -0.18705371113E+03  0.47028142749E+02  0.19937979359E+03  0.51100000000E-03 0. -1.
     200002    1    4    4    0    0  0.55661400600E+02 -0.44913462323E+02  0.13933944818E+03  0.15947066324E+03  0.30000000000E+02 0. -1.
     200000    1    3    3    0    0  0.30800608490E+03 -0.72072913709E+03  0.15381051680E+03  0.94232473833E+03  0.50000000000E+03 0.  1.
    -200001    1    1    2    0    0 -0.41418050395E+03  0.95269631055E+03 -0.61353084386E+03  0.13948461730E+04  0.70000000000E+03 0. -1.
<mgrwt>
<rscale>  0 0.26821278E+04</rscale>
<asrwt>0</asrwt>
<pdfrwt beam="1">  1        4 0.21209815E+00 0.26821278E+04</pdfrwt>
<pdfrwt beam="2">  1       -4 0.17304776E+00 0.26821278E+04</pdfrwt>
<totfact> 0.39037970E-02</totfact>
</mgrwt>
</event>
<event>
 8    1  0.5361529E-011  0.2693055E+04  0.7818608E-02  0.8337262E-01
          4   -1    0    0  501    0  0.00000000000E+00  0.00000000000E+00  0.11931874583E+04  0.11931881342E+04  0.12700000000E+01 0.  1.
         -4   -1    0    0    0  501 -0.00000000000E+00 -0.00000000000E+00 -0.15195723048E+04  0.15195728355E+04  0.12700000000E+01 0. -1.
     200001    2    1    2    0    0  0.63032977179E+03 -0.90299900519E+03 -0.48869325788E+03  0.13978211061E+04  0.70877353210E+03 0.  0.
    5000001    2    3    3    0    0  0.30027375843E+03 -0.17874663806E+03 -0.13607952846E+03  0.39392125781E+03  0.12058867553E+03 0.  0.
        -11    1    4    4    0    0  0.13601092661E+03 -0.13193649454E+03 -0.10841418885E+03  0.21831135356E+03  0.51100000000E-03 0. -1.
     200002    1    4    4    0    0  0.16426283182E+03 -0.46810143522E+02 -0.27665339617E+02  0.17560990425E+03  0.30000000000E+02 0. -1.
     200000    1    3    3    0    0  0.33005601336E+03 -0.72425236713E+03 -0.35261372942E+03  0.10038998483E+04  0.50000000000E+03 0.  1.
    -200001    1    1    2    0    0 -0.63032977179E+03  0.90299900519E+03  0.16230841138E+03  0.13149398636E+04  0.70000000000E+03 0.  1.
<mgrwt>
<rscale>  0 0.26930550E+04</rscale>
<asrwt>0</asrwt>
<pdfrwt beam="1">  1        4 0.17045544E+00 0.26930550E+04</pdfrwt>
<pdfrwt beam="2">  1       -4 0.21708184E+00 0.26930550E+04</pdfrwt>
<totfact> 0.37789606E-02</totfact>
</mgrwt>
</event>
<event>
 8    1  0.5361529E-011  0.2141351E+04  0.7818608E-02  0.8543244E-01
         -4   -1    0    0    0  501 -0.00000000000E+00  0.00000000000E+00  0.10051906562E+04  0.10051914584E+04  0.12700000000E+01 0. -1.
          4   -1    0    0  501    0  0.00000000000E+00 -0.00000000000E+00 -0.11404247385E+04  0.11404254456E+04  0.12700000000E+01 0.  1.
     200001    2    1    2    0    0 -0.79732844165E+03  0.44783724362E+02 -0.20552627337E+03  0.10813428708E+04  0.69951635382E+03 0.  0.
    5000001    2    3    3    0    0 -0.29633234210E+03 -0.51386986031E+02 -0.11843973680E+03  0.36173883926E+03  0.16239931424E+03 0.  0.
        -11    1    4    4    0    0 -0.16840844600E+03 -0.63793112778E+02 -0.13988053104E+03  0.22802966668E+03  0.51100000000E-03 0. -1.
     200002    1    4    4    0    0 -0.12792389611E+03  0.12406126747E+02  0.21440794234E+02  0.13370917258E+03  0.30000000000E+02 0. -1.
     200000    1    3    3    0    0 -0.50099609955E+03  0.96170710393E+02 -0.87086536561E+02  0.71960403150E+03  0.50000000000E+03 0.  1.
    -200001    1    1    2    0    0  0.79732844165E+03 -0.44783724362E+02  0.70292191056E+02  0.10642740333E+04  0.70000000000E+03 0. -1.
<mgrwt>
<rscale>  0 0.21413509E+04</rscale>
<asrwt>0</asrwt>
<pdfrwt beam="1">  1        4 0.16291793E+00 0.21413509E+04</pdfrwt>
<pdfrwt beam="2">  1       -4 0.14359877E+00 0.21413509E+04</pdfrwt>
<totfact> 0.14749546E-01</totfact>
</mgrwt>
</event>
<event>
 8    1  0.5361529E-011  0.1756189E+04  0.7818608E-02  0.8729951E-01
         -4   -1    0    0    0  501 -0.00000000000E+00  0.00000000000E+00  0.11480239581E+04  0.11480246606E+04  0.12700000000E+01 0. -1.
          4   -1    0    0  501    0  0.00000000000E+00 -0.00000000000E+00 -0.67163104279E+03  0.67163224353E+03  0.12700000000E+01 0.  1.
     200001    2    1    2    0    0 -0.10871642252E+03 -0.10323340079E+02  0.77599085051E+03  0.10504464292E+04  0.69953560936E+03 0.  0.
    5000001    2    3    3    0    0 -0.82744516556E+02  0.55572101464E+00  0.21175779585E+03  0.29602490659E+03  0.18958485534E+03 0.  0.
        -11    1    4    4    0    0 -0.91902731150E+02 -0.67211488983E+02  0.64355471626E+02  0.13078655501E+03  0.51100000000E-03 0. -1.
     200002    1    4    4    0    0  0.91582145936E+01  0.67767209997E+02  0.14740232422E+03  0.16523835158E+03  0.30000000000E+02 0. -1.
     200000    1    3    3    0    0 -0.25971905969E+02 -0.10879061094E+02  0.56423305466E+03  0.75442152266E+03  0.50000000000E+03 0. -1.
    -200001    1    1    2    0    0  0.10871642252E+03  0.10323340079E+02 -0.29959793519E+03  0.76921047487E+03  0.70000000000E+03 0.  1.
<mgrwt>
<rscale>  0 0.17561894E+04</rscale>
<asrwt>0</asrwt>
<pdfrwt beam="1">  1        4 0.95947427E-01 0.17561894E+04</pdfrwt>
<pdfrwt beam="2">  1       -4 0.16400356E+00 0.17561894E+04</pdfrwt>
<totfact> 0.40641169E-01</totfact>
</mgrwt>
</event>
<event>
 8    1  0.5361529E-011  0.1698843E+04  0.7818608E-02  0.8762025E-01
         -4   -1    0    0    0  501 -0.00000000000E+00  0.00000000000E+00  0.70713803291E+03  0.70713917335E+03  0.12700000000E+01 0. -1.
          4   -1    0    0  501    0  0.00000000000E+00 -0.00000000000E+00 -0.10203312582E+04  0.10203320485E+04  0.12700000000E+01 0.  1.
     200001    2    1    2    0    0  0.33675942810E+03 -0.41069972571E+02  0.19045821847E+03  0.80077902281E+03  0.69991360562E+03 0.  0.
    5000001    2    3    3    0    0  0.12034428623E+03 -0.46193439881E+02  0.66625987421E+02  0.24203383492E+03  0.19371312276E+03 0.  0.
        -11    1    4    4    0    0  0.12399570503E+03 -0.33054917742E+01 -0.33944454595E+02  0.12860049432E+03  0.51100000000E-03 0. -1.
     200002    1    4    4    0    0 -0.36514188007E+01 -0.42887948107E+02  0.10057044202E+03  0.11343334060E+03  0.30000000000E+02 0. -1.
     200000    1    3    3    0    0  0.21641514187E+03  0.51234673107E+01  0.12383223105E+03  0.55874518789E+03  0.50000000000E+03 0. -1.
    -200001    1    1    2    0    0 -0.33675942810E+03  0.41069972571E+02 -0.50365144372E+03  0.92669219907E+03  0.70000000000E+03 0.  1.
<mgrwt>
<rscale>  0 0.16988428E+04</rscale>
<asrwt>0</asrwt>
<pdfrwt beam="1">  1        4 0.14576175E+00 0.16988428E+04</pdfrwt>
<pdfrwt beam="2">  1       -4 0.10101986E+00 0.16988428E+04</pdfrwt>
<totfact> 0.49661741E-01</totfact>
</mgrwt>
</event>
<event>
 8    1  0.5361529E-011  0.1427329E+04  0.7818608E-02  0.8934271E-01
         -4   -1    0    0    0  501 -0.00000000000E+00  0.00000000000E+00  0.69259866176E+03  0.69259982614E+03  0.12700000000E+01 0. -1.
          4   -1    0    0  501    0  0.00000000000E+00 -0.00000000000E+00 -0.73536872339E+03  0.73536982005E+03  0.12700000000E+01 0.  1.
     200001    2    1    2    0    0 -0.14376969359E+02 -0.64841103945E+02 -0.13971761991E+03  0.71817397485E+03  0.70131432242E+03 0.  0.
    5000001    2    3    3    0    0 -0.60610047821E+02 -0.43755132501E+02  0.74067344782E+02  0.17201820324E+03  0.13607424872E+03 0.  0.
        -11    1    4    4    0    0 -0.80345589583E+02 -0.34379121074E+02 -0.19621816335E+01  0.87413888418E+02  0.51100000000E-03 0. -1.
     200002    1    4    4    0    0  0.19735541762E+02 -0.93760114269E+01  0.76029526416E+02  0.84604314819E+02  0.30000000000E+02 0. -1.
     200000    1    3    3    0    0  0.46233078462E+02 -0.21085971444E+02 -0.21378496469E+03  0.54615577161E+03  0.50000000000E+03 0.  1.
    -200001    1    1    2    0    0  0.14376969359E+02  0.64841103945E+02  0.96947558275E+02  0.70979567135E+03  0.70000000000E+03 0. -1.
<mgrwt>
<rscale>  0 0.14273290E+04</rscale>
<asrwt>0</asrwt>
<pdfrwt beam="1">  1        4 0.10505284E+00 0.14273290E+04</pdfrwt>
<pdfrwt beam="2">  1       -4 0.98942828E-01 0.14273290E+04</pdfrwt>
<totfact> 0.12126912E+00</totfact>
</mgrwt>
</event>
<event>
 8    1  0.5361529E-011  0.1442118E+04  0.7818608E-02  0.8923883E-01
         -4   -1    0    0    0  501 -0.00000000000E+00  0.00000000000E+00  0.84953087415E+03  0.84953182344E+03  0.12700000000E+01 0. -1.
          4   -1    0    0  501    0  0.00000000000E+00 -0.00000000000E+00 -0.61201348370E+03  0.61201480140E+03  0.12700000000E+01 0.  1.
     200001    2    1    2    0    0  0.12948100318E+03  0.11618180012E+03  0.11361080163E+03  0.72968845305E+03  0.69948143893E+03 0.  0.
    5000001    2    3    3    0    0 -0.10831213374E+01 -0.48886056956E+02  0.52443935896E+02  0.18376192548E+03  0.16919532832E+03 0.  0.
        -11    1    4    4    0    0  0.50622490453E+02  0.30935123295E+02  0.59197945844E+02  0.83809397954E+02  0.51100000000E-03 0. -1.
     200002    1    4    4    0    0 -0.51705611791E+02 -0.79821180252E+02 -0.67540099486E+01  0.99952527521E+02  0.30000000000E+02 0. -1.
     200000    1    3    3    0    0  0.13056412451E+03  0.16506785707E+03  0.61166865738E+02  0.54592652758E+03  0.50000000000E+03 0. -1.
    -200001    1    1    2    0    0 -0.12948100318E+03 -0.11618180012E+03  0.12390658881E+03  0.73185817179E+03  0.70000000000E+03 0.  1.
<mgrwt>
<rscale>  0 0.14421179E+04</rscale>
<asrwt>0</asrwt>
<pdfrwt beam="1">  1        4 0.87430660E-01 0.14421179E+04</pdfrwt>
<pdfrwt beam="2">  1       -4 0.12136172E+00 0.14421179E+04</pdfrwt>
<totfact> 0.11364149E+00</totfact>
</mgrwt>
</event>
<event>
 8    1  0.5361529E-011  0.1519205E+04  0.7818608E-02  0.8871781E-01
          4   -1    0    0  501    0  0.00000000000E+00  0.00000000000E+00  0.51451492191E+03  0.51451648931E+03  0.12700000000E+01 0.  1.
         -4   -1    0    0    0  501 -0.00000000000E+00 -0.00000000000E+00 -0.11214329628E+04  0.11214336819E+04  0.12700000000E+01 0. -1.
     200001    2    1    2    0    0  0.25132844657E+03  0.26320998143E+02 -0.44407345733E+03  0.87412529543E+03  0.70924961305E+03 0.  0.
    5000001    2    3    3    0    0  0.44717351543E+01  0.46267366532E+02 -0.65879009747E+02  0.20005769217E+03  0.18309115394E+03 0.  0.
        -11    1    4    4    0    0  0.82458754221E+02  0.62749200499E+02 -0.39586598039E+02  0.11092342879E+03  0.51100000000E-03 0. -1.
     200002    1    4    4    0    0 -0.77987019067E+02 -0.16481833967E+02 -0.26292411708E+02  0.89134263375E+02  0.30000000000E+02 0. -1.
     200000    1    3    3    0    0  0.24685671142E+03 -0.19946368388E+02 -0.37819444759E+03  0.67406760326E+03  0.50000000000E+03 0. -1.
    -200001    1    1    2    0    0 -0.25132844657E+03 -0.26320998143E+02 -0.16284458356E+03  0.76182487580E+03  0.70000000000E+03 0.  1.
<mgrwt>
<rscale>  0 0.15192049E+04</rscale>
<asrwt>0</asrwt>
<pdfrwt beam="1">  1        4 0.73502296E-01 0.15192049E+04</pdfrwt>
<pdfrwt beam="2">  1       -4 0.16020487E+00 0.15192049E+04</pdfrwt>
<totfact> 0.81265090E-01</totfact>
</mgrwt>
</event>
<event>
 8    1  0.5361529E-011  0.1894707E+04  0.7818608E-02  0.8657496E-01
          4   -1    0    0  501    0  0.00000000000E+00  0.00000000000E+00  0.47943983413E+03  0.47944151619E+03  0.12700000000E+01 0.  1.
         -4   -1    0    0    0  501 -0.00000000000E+00 -0.00000000000E+00 -0.18719262763E+04  0.18719267071E+04  0.12700000000E+01 0. -1.
     200001    2    1    2    0    0  0.37427945962E+03 -0.51095413378E+03 -0.79569889468E+03  0.12345358198E+04  0.69984478181E+03 0.  0.
    5000001    2    3    3    0    0  0.87542726949E+02 -0.11040354009E+03 -0.66756397129E+02  0.22259911391E+03  0.15887503973E+03 0.  0.
        -11    1    4    4    0    0 -0.25556976164E+02  0.23348222016E+02 -0.12182236306E+02  0.36697484705E+02  0.51100000000E-03 0. -1.
     200002    1    4    4    0    0  0.11309970311E+03 -0.13375176211E+03 -0.54574160823E+02  0.18590162920E+03  0.30000000000E+02 0. -1.
     200000    1    3    3    0    0  0.28673673267E+03 -0.40055059369E+03 -0.72894249755E+03  0.10119367059E+04  0.50000000000E+03 0.  1.
    -200001    1    1    2    0    0 -0.37427945962E+03  0.51095413378E+03 -0.59678754751E+03  0.11168324035E+04  0.70000000000E+03 0. -1.
<mgrwt>
<rscale>  0 0.18947068E+04</rscale>
<asrwt>0</asrwt>
<pdfrwt beam="1">  1        4 0.68491557E-01 0.18947068E+04</pdfrwt>
<pdfrwt beam="2">  1       -4 0.26741819E+00 0.18947068E+04</pdfrwt>
<totfact> 0.18279047E-01</totfact>
</mgrwt>
</event>
<event>
 8    1  0.5361529E-011  0.2132183E+04  0.7818608E-02  0.8547197E-01
         -4   -1    0    0    0  501 -0.00000000000E+00  0.00000000000E+00  0.25370318114E+04  0.25370321293E+04  0.12700000000E+01 0. -1.
          4   -1    0    0  501    0  0.00000000000E+00 -0.00000000000E+00 -0.44798348476E+03  0.44798528493E+03  0.12700000000E+01 0.  1.
     200001    2    1    2    0    0 -0.51862331091E+03 -0.39181993079E+03  0.37986693826E+03  0.10270097495E+04  0.69853928876E+03 0.  0.
    5000001    2    3    3    0    0 -0.95655765690E+02 -0.10830905008E+03  0.14002967626E+03  0.27414729455E+03  0.18619224751E+03 0.  0.
        -11    1    4    4    0    0 -0.11068974950E+03 -0.68220229684E+01  0.12350172536E+03  0.16598625488E+03  0.51100000000E-03 0. -1.
     200002    1    4    4    0    0  0.15033983808E+02 -0.10148702711E+03  0.16527950901E+02  0.10816103967E+03  0.30000000000E+02 0. -1.
     200000    1    3    3    0    0 -0.42296754522E+03 -0.28351088071E+03  0.23983726200E+03  0.75286245493E+03  0.50000000000E+03 0.  1.
    -200001    1    1    2    0    0  0.51862331091E+03  0.39181993079E+03  0.17091813884E+04  0.19580076648E+04  0.70000000000E+03 0. -1.
<mgrwt>
<rscale>  0 0.21321834E+04</rscale>
<asrwt>0</asrwt>
<pdfrwt beam="1">  1        4 0.63997792E-01 0.21321834E+04</pdfrwt>
<pdfrwt beam="2">  1       -4 0.36243327E+00 0.21321834E+04</pdfrwt>
<totfact> 0.51969192E-02</totfact>
</mgrwt>
</event>
<event>
 8    1  0.5361529E-011  0.1947672E+04  0.7818608E-02  0.8631484E-01
          4   -1    0    0  501    0  0.00000000000E+00  0.00000000000E+00  0.11804646266E+04  0.11804653097E+04  0.12700000000E+01 0.  1.
         -4   -1    0    0    0  501 -0.00000000000E+00 -0.00000000000E+00 -0.80337395875E+03  0.80337496257E+03  0.12700000000E+01 0. -1.
     200001    2    1    2    0    0 -0.53524503323E+03  0.15362174843E+03 -0.20244224601E+03  0.91803293258E+03  0.70122372688E+03 0.  0.
    5000001    2    3    3    0    0 -0.96908044569E+02 -0.77435808824E+01 -0.90392508639E+02  0.22468364919E+03  0.18127549323E+03 0.  0.
        -11    1    4    4    0    0  0.49564570742E+02 -0.22090997632E+02 -0.35111772026E+02  0.64633546895E+02  0.51100000000E-03 0. -1.
     200002    1    4    4    0    0 -0.14647261531E+03  0.14347416749E+02 -0.55280736613E+02  0.16005010229E+03  0.30000000000E+02 0. -1.
     200000    1    3    3    0    0 -0.43833698866E+03  0.16136532931E+03 -0.11204973737E+03  0.69334928339E+03  0.50000000000E+03 0.  1.
    -200001    1    1    2    0    0  0.53524503323E+03 -0.15362174843E+03  0.57953291383E+03  0.10658073397E+04  0.70000000000E+03 0.  1.
<mgrwt>
<rscale>  0 0.19476716E+04</rscale>
<asrwt>0</asrwt>
<pdfrwt beam="1">  1        4 0.16863792E+00 0.19476716E+04</pdfrwt>
<pdfrwt beam="2">  1       -4 0.11476783E+00 0.19476716E+04</pdfrwt>
<totfact> 0.24059107E-01</totfact>
</mgrwt>
</event>
<event>
 8    1  0.5361529E-011  0.1746374E+04  0.7818608E-02  0.8735349E-01
         -4   -1    0    0    0  501 -0.00000000000E+00  0.00000000000E+00  0.10563051529E+04  0.10563059163E+04  0.12700000000E+01 0. -1.
          4   -1    0    0  501    0  0.00000000000E+00 -0.00000000000E+00 -0.72181178490E+03  0.72181290215E+03  0.12700000000E+01 0.  1.
     200001    2    1    2    0    0 -0.21194331167E+03 -0.44805330842E+03 -0.13278265035E+02  0.85258284227E+03  0.69357728918E+03 0.  0.
    5000001    2    3    3    0    0  0.33501789955E+02 -0.13645215148E+03 -0.13850674307E+02  0.21435176612E+03  0.16128632579E+03 0.  0.
        -11    1    4    4    0    0  0.89219777329E+02 -0.93745655757E+02  0.19798826294E+02  0.13092138925E+03  0.51100000000E-03 0. -1.
     200002    1    4    4    0    0 -0.55717987374E+02 -0.42706495724E+02 -0.33649500601E+02  0.83430376870E+02  0.30000000000E+02 0. -1.
     200000    1    3    3    0    0 -0.24544510163E+03 -0.31160115694E+03  0.57240927157E+00  0.63823107616E+03  0.50000000000E+03 0. -1.
    -200001    1    1    2    0    0  0.21194331167E+03  0.44805330842E+03  0.34777163302E+03  0.92553597622E+03  0.70000000000E+03 0. -1.
<mgrwt>
<rscale>  0 0.17463736E+04</rscale>
<asrwt>0</asrwt>
<pdfrwt beam="1">  1        4 0.10311611E+00 0.17463736E+04</pdfrwt>
<pdfrwt beam="2">  1       -4 0.15090087E+00 0.17463736E+04</pdfrwt>
<totfact> 0.42959644E-01</totfact>
</mgrwt>
</event>
<event>
 8    1  0.5361529E-011  0.1404306E+04  0.7818608E-02  0.8950708E-01
         -4   -1    0    0    0  501 -0.00000000000E+00  0.00000000000E+00  0.89042272760E+03  0.89042363329E+03  0.12700000000E+01 0. -1.
          4   -1    0    0  501    0  0.00000000000E+00 -0.00000000000E+00 -0.55368878707E+03  0.55369024357E+03  0.12700000000E+01 0.  1.
     200001    2    1    2    0    0 -0.37173817461E+02 -0.36116284654E+02  0.16266605499E+03  0.72093623098E+03  0.70043024276E+03 0.  0.
    5000001    2    3    3    0    0 -0.46809315351E+02 -0.12621104234E+03  0.35321591977E+02  0.19707888357E+03  0.13954258230E+03 0.  0.
        -11    1    4    4    0    0 -0.50630375408E+02 -0.29205679139E+02  0.68631457644E+02  0.90148120261E+02  0.51100000000E-03 0. -1.
     200002    1    4    4    0    0  0.38210600572E+01 -0.97005363204E+02 -0.33309865667E+02  0.10693076331E+03  0.30000000000E+02 0. -1.
     200000    1    3    3    0    0  0.96354978895E+01  0.90094757689E+02  0.12734446301E+03  0.52385734742E+03  0.50000000000E+03 0. -1.
    -200001    1    1    2    0    0  0.37173817461E+02  0.36116284654E+02  0.17406788554E+03  0.72317764588E+03  0.70000000000E+03 0. -1.
<mgrwt>
<rscale>  0 0.14043059E+04</rscale>
<asrwt>0</asrwt>
<pdfrwt beam="1">  1        4 0.79098567E-01 0.14043059E+04</pdfrwt>
<pdfrwt beam="2">  1       -4 0.12720342E+00 0.14043059E+04</pdfrwt>
<totfact> 0.12724743E+00</totfact>
</mgrwt>
</event>
