<event>
 4    1  0.6739609E-006  0.8587930E+03  0.7818608E-02  0.9478611E-01
         -2   -1    0    0    0  501 -0.00000000000E+00  0.00000000000E+00  0.47274094544E+03  0.47274094544E+03  0.25500000000E-02 0. -1.
          2   -1    0    0  501    0  0.00000000000E+00 -0.00000000000E+00 -0.39002617788E+03  0.39002617788E+03  0.25500000000E-02 0.  1.
   -5000001    1    1    2    0    0 -0.26722156091E+03 -0.11368392311E+02  0.26677204497E+03  0.45299440056E+03  0.25000000000E+03 0.  0.
    5000001    1    1    2    0    0  0.26722156091E+03  0.11368392311E+02 -0.18405727741E+03  0.40977272277E+03  0.25000000000E+03 0.  0.
<mgrwt>
<rscale>  0 0.85879298E+03</rscale>
<asrwt>0</asrwt>
<pdfrwt beam="1">  1        2 0.60004028E-01 0.85879298E+03</pdfrwt>
<pdfrwt beam="2">  1       -2 0.72729376E-01 0.85879298E+03</pdfrwt>
<totfact> 0.14064323E+02</totfact>
</mgrwt>
</event>
<event>
 4    1  0.6739609E-006  0.6714878E+03  0.7818608E-02  0.9767274E-01
          2   -1    0    0  501    0  0.00000000000E+00  0.00000000000E+00  0.12489029357E+04  0.12489029357E+04  0.25500000000E-02 0.  1.
         -2   -1    0    0    0  501 -0.00000000000E+00 -0.00000000000E+00 -0.90258393353E+02  0.90258393389E+02  0.25500000000E-02 0. -1.
   -5000001    1    1    2    0    0  0.17621679332E+03 -0.11012197616E+03  0.74671169075E+03  0.81440626040E+03  0.25000000000E+03 0.  0.
    5000001    1    1    2    0    0 -0.17621679332E+03  0.11012197616E+03  0.41193285156E+03  0.52475506865E+03  0.25000000000E+03 0.  0.
<mgrwt>
<rscale>  0 0.67148782E+03</rscale>
<asrwt>0</asrwt>
<pdfrwt beam="1">  1        2 0.19213889E+00 0.67148782E+03</pdfrwt>
<pdfrwt beam="2">  1       -2 0.13885908E-01 0.67148782E+03</pdfrwt>
<totfact> 0.71474695E+02</totfact>
</mgrwt>
</event>
<event>
 4    1  0.6739609E-006  0.6577496E+03  0.7818608E-02  0.9792345E-01
          2   -1    0    0  501    0  0.00000000000E+00  0.00000000000E+00  0.12858517449E+04  0.12858517449E+04  0.25500000000E-02 0.  1.
         -2   -1    0    0    0  501 -0.00000000000E+00 -0.00000000000E+00 -0.84114390032E+02  0.84114390071E+02  0.25500000000E-02 0. -1.
   -5000001    1    1    2    0    0  0.13620603368E+03  0.12587715452E+03  0.37984070815E+03  0.49109683894E+03  0.25000000000E+03 0.  0.
    5000001    1    1    2    0    0 -0.13620603368E+03 -0.12587715452E+03  0.82189664673E+03  0.87886929605E+03  0.25000000000E+03 0.  0.
<mgrwt>
<rscale>  0 0.65774960E+03</rscale>
<asrwt>0</asrwt>
<pdfrwt beam="1">  1        2 0.19782334E+00 0.65774960E+03</pdfrwt>
<pdfrwt beam="2">  1       -2 0.12940676E-01 0.65774960E+03</pdfrwt>
<totfact> 0.76579842E+02</totfact>
</mgrwt>
</event>
<event>
 4    1  0.6739609E-006  0.7530484E+03  0.7818608E-02  0.9630580E-01
         -2   -1    0    0    0  501 -0.00000000000E+00  0.00000000000E+00  0.14894324111E+04  0.14894324111E+04  0.25500000000E-02 0. -1.
          2   -1    0    0  501    0  0.00000000000E+00 -0.00000000000E+00 -0.95184224363E+02  0.95184224397E+02  0.25500000000E-02 0.  1.
   -5000001    1    1    2    0    0 -0.14902652494E+03  0.13463243418E+03  0.28190705998E+03  0.42697352135E+03  0.25000000000E+03 0.  0.
    5000001    1    1    2    0    0  0.14902652494E+03 -0.13463243418E+03  0.11123411268E+04  0.11576431142E+04  0.25000000000E+03 0.  0.
<mgrwt>
<rscale>  0 0.75304839E+03</rscale>
<asrwt>0</asrwt>
<pdfrwt beam="1">  1        2 0.14643728E-01 0.75304839E+03</pdfrwt>
<pdfrwt beam="2">  1       -2 0.22914344E+00 0.75304839E+03</pdfrwt>
<totfact> 0.36554561E+01</totfact>
</mgrwt>
</event>
<event>
 4    1  0.6739609E-006  0.7124928E+03  0.7818608E-02  0.9696103E-01
          2   -1    0    0  501    0  0.00000000000E+00  0.00000000000E+00  0.57463131401E+03  0.57463131402E+03  0.25500000000E-02 0.  1.
         -2   -1    0    0    0  501 -0.00000000000E+00 -0.00000000000E+00 -0.22085727963E+03  0.22085727965E+03  0.25500000000E-02 0. -1.
   -5000001    1    1    2    0    0  0.21945449329E+03 -0.11055863469E+03  0.10602730233E+03  0.36623117722E+03  0.25000000000E+03 0.  0.
    5000001    1    1    2    0    0 -0.21945449329E+03  0.11055863469E+03  0.24774673205E+03  0.42925741645E+03  0.25000000000E+03 0.  0.
<mgrwt>
<rscale>  0 0.71249283E+03</rscale>
<asrwt>0</asrwt>
<pdfrwt beam="1">  1        2 0.88404817E-01 0.71249283E+03</pdfrwt>
<pdfrwt beam="2">  1       -2 0.33978043E-01 0.71249283E+03</pdfrwt>
<totfact> 0.42642936E+02</totfact>
</mgrwt>
</event>
<event>
 4    1  0.6739609E-006  0.5583991E+03  0.7818608E-02  0.9995684E-01
         -2   -1    0    0    0  501 -0.00000000000E+00  0.00000000000E+00  0.21674967710E+03  0.21674967712E+03  0.25500000000E-02 0. -1.
          2   -1    0    0  501    0  0.00000000000E+00 -0.00000000000E+00 -0.35964243153E+03  0.35964243154E+03  0.25500000000E-02 0.  1.
   -5000001    1    1    2    0    0 -0.10616251545E+03 -0.64420439410E+02 -0.65615624977E+02  0.28675055874E+03  0.25000000000E+03 0.  0.
    5000001    1    1    2    0    0  0.10616251545E+03  0.64420439410E+02 -0.77277129452E+02  0.28964154991E+03  0.25000000000E+03 0.  0.
<mgrwt>
<rscale>  0 0.55839907E+03</rscale>
<asrwt>0</asrwt>
<pdfrwt beam="1">  1        2 0.55329605E-01 0.55839907E+03</pdfrwt>
<pdfrwt beam="2">  1       -2 0.33346104E-01 0.55839907E+03</pdfrwt>
<totfact> 0.75679418E+02</totfact>
</mgrwt>
</event>
<event>
 4    1  0.6739609E-006  0.8263179E+03  0.7818608E-02  0.9522685E-01
         -2   -1    0    0    0  501 -0.00000000000E+00  0.00000000000E+00  0.39339813995E+03  0.39339813996E+03  0.25500000000E-02 0. -1.
          2   -1    0    0  501    0  0.00000000000E+00 -0.00000000000E+00 -0.43391235051E+03  0.43391235052E+03  0.25500000000E-02 0.  1.
   -5000001    1    1    2    0    0 -0.14618217194E+03  0.23122211358E+03  0.16262982997E+03  0.40469909167E+03  0.25000000000E+03 0.  0.
    5000001    1    1    2    0    0  0.14618217194E+03 -0.23122211358E+03 -0.20314404053E+03  0.42261139881E+03  0.25000000000E+03 0.  0.
<mgrwt>
<rscale>  0 0.82631788E+03</rscale>
<asrwt>0</asrwt>
<pdfrwt beam="1">  1        2 0.66755746E-01 0.82631788E+03</pdfrwt>
<pdfrwt beam="2">  1       -2 0.60522791E-01 0.82631788E+03</pdfrwt>
<totfact> 0.18561206E+02</totfact>
</mgrwt>
</event>
<event>
 4    1  0.6739609E-006  0.6094457E+03  0.7818608E-02  0.9886001E-01
         -2   -1    0    0    0  501 -0.00000000000E+00  0.00000000000E+00  0.16211840091E+03  0.16211840093E+03  0.25500000000E-02 0. -1.
          2   -1    0    0  501    0  0.00000000000E+00 -0.00000000000E+00 -0.57276661861E+03  0.57276661862E+03  0.25500000000E-02 0.  1.
   -5000001    1    1    2    0    0  0.20675311563E+01  0.11912974944E+03 -0.35861024383E+03  0.45309764827E+03  0.25000000000E+03 0.  0.
    5000001    1    1    2    0    0 -0.20675311563E+01 -0.11912974944E+03 -0.52037973879E+02  0.28178737128E+03  0.25000000000E+03 0.  0.
<mgrwt>
<rscale>  0 0.60944568E+03</rscale>
<asrwt>0</asrwt>
<pdfrwt beam="1">  1        2 0.88117940E-01 0.60944568E+03</pdfrwt>
<pdfrwt beam="2">  1       -2 0.24941293E-01 0.60944568E+03</pdfrwt>
<totfact> 0.75885066E+02</totfact>
</mgrwt>
</event>
<event>
 4    1  0.6739609E-006  0.5621980E+03  0.7818608E-02  0.9987094E-01
          2   -1    0    0  501    0  0.00000000000E+00  0.00000000000E+00  0.72213622342E+03  0.72213622343E+03  0.25500000000E-02 0.  1.
         -2   -1    0    0    0  501 -0.00000000000E+00 -0.00000000000E+00 -0.10942068717E+03  0.10942068720E+03  0.25500000000E-02 0. -1.
   -5000001    1    1    2    0    0  0.12510072696E+03 -0.54126629320E+00  0.34988900382E+03  0.44785354733E+03  0.25000000000E+03 0.  0.
    5000001    1    1    2    0    0 -0.12510072696E+03  0.54126629320E+00  0.26282653244E+03  0.38370336330E+03  0.25000000000E+03 0.  0.
<mgrwt>
<rscale>  0 0.56219798E+03</rscale>
<asrwt>0</asrwt>
<pdfrwt beam="1">  1        2 0.11109788E+00 0.56219798E+03</pdfrwt>
<pdfrwt beam="2">  1       -2 0.16833952E-01 0.56219798E+03</pdfrwt>
<totfact> 0.11377002E+03</totfact>
</mgrwt>
</event>
<event>
 4    1  0.6739609E-006  0.1050096E+04  0.7818608E-02  0.9255245E-01
         -2   -1    0    0    0  501 -0.00000000000E+00  0.00000000000E+00  0.88087057804E+02  0.88087057841E+02  0.25500000000E-02 0. -1.
          2   -1    0    0  501    0  0.00000000000E+00 -0.00000000000E+00 -0.31295770892E+04  0.31295770892E+04  0.25500000000E-02 0.  1.
   -5000001    1    1    2    0    0 -0.31900077884E+03  0.19780287916E+03 -0.69690245067E+03  0.83009668211E+03  0.25000000000E+03 0.  0.
    5000001    1    1    2    0    0  0.31900077884E+03 -0.19780287916E+03 -0.23445875808E+04  0.23875674650E+04  0.25000000000E+03 0.  0.
<mgrwt>
<rscale>  0 0.10500957E+04</rscale>
<asrwt>0</asrwt>
<pdfrwt beam="1">  1        2 0.48147331E+00 0.10500957E+04</pdfrwt>
<pdfrwt beam="2">  1       -2 0.13551857E-01 0.10500957E+04</pdfrwt>
<totfact> 0.61254311E+01</totfact>
</mgrwt>
</event>
<event>
 4    1  0.6739609E-006  0.6084828E+03  0.7818608E-02  0.9887962E-01
          2   -1    0    0  501    0  0.00000000000E+00  0.00000000000E+00  0.24997717735E+04  0.24997717735E+04  0.25500000000E-02 0.  1.
         -2   -1    0    0    0  501 -0.00000000000E+00 -0.00000000000E+00 -0.37028507157E+02  0.37028507245E+02  0.25500000000E-02 0. -1.
   -5000001    1    1    2    0    0  0.11471293868E+03 -0.58303131837E+02  0.17158532610E+04  0.17387382571E+04  0.25000000000E+03 0.  0.
    5000001    1    1    2    0    0 -0.11471293868E+03  0.58303131837E+02  0.74689000542E+03  0.79806202370E+03  0.25000000000E+03 0.  0.
<mgrwt>
<rscale>  0 0.60848276E+03</rscale>
<asrwt>0</asrwt>
<pdfrwt beam="1">  1        2 0.38458041E+00 0.60848276E+03</pdfrwt>
<pdfrwt beam="2">  1       -2 0.56966913E-02 0.60848276E+03</pdfrwt>
<totfact> 0.61608633E+02</totfact>
</mgrwt>
</event>
<event>
 4    1  0.6739609E-006  0.8510282E+03  0.7818608E-02  0.9488958E-01
          2   -1    0    0  501    0  0.00000000000E+00  0.00000000000E+00  0.45476442295E+03  0.45476442296E+03  0.25500000000E-02 0.  1.
         -2   -1    0    0    0  501 -0.00000000000E+00 -0.00000000000E+00 -0.39814519546E+03  0.39814519547E+03  0.25500000000E-02 0. -1.
   -5000001    1    1    2    0    0 -0.15291123639E+03  0.23187225618E+03  0.23226793918E+03  0.43999430106E+03  0.25000000000E+03 0.  0.
    5000001    1    1    2    0    0  0.15291123639E+03 -0.23187225618E+03 -0.17564871169E+03  0.41291531737E+03  0.25000000000E+03 0.  0.
<mgrwt>
<rscale>  0 0.85102825E+03</rscale>
<asrwt>0</asrwt>
<pdfrwt beam="1">  1        2 0.69963757E-01 0.85102825E+03</pdfrwt>
<pdfrwt beam="2">  1       -2 0.61253107E-01 0.85102825E+03</pdfrwt>
<totfact> 0.17133841E+02</totfact>
</mgrwt>
</event>
<event>
 4    1  0.6739609E-006  0.8901448E+03  0.7818608E-02  0.9437985E-01
         -2   -1    0    0    0  501 -0.00000000000E+00  0.00000000000E+00  0.34688383628E+03  0.34688383629E+03  0.25500000000E-02 0. -1.
          2   -1    0    0  501    0  0.00000000000E+00 -0.00000000000E+00 -0.57105414800E+03  0.57105414801E+03  0.25500000000E-02 0.  1.
   -5000001    1    1    2    0    0  0.35601134061E+03  0.25156025022E+02 -0.18632473668E+02  0.43614684375E+03  0.25000000000E+03 0.  0.
    5000001    1    1    2    0    0 -0.35601134061E+03 -0.25156025022E+02 -0.20553783805E+03  0.48179114055E+03  0.25000000000E+03 0.  0.
<mgrwt>
<rscale>  0 0.89014483E+03</rscale>
<asrwt>0</asrwt>
<pdfrwt beam="1">  1        2 0.87854484E-01 0.89014483E+03</pdfrwt>
<pdfrwt beam="2">  1       -2 0.53366744E-01 0.89014483E+03</pdfrwt>
<totfact> 0.17491918E+02</totfact>
</mgrwt>
</event>
<event>
 4    1  0.6739609E-006  0.1011926E+04  0.7818608E-02  0.9295561E-01
         -2   -1    0    0    0  501 -0.00000000000E+00  0.00000000000E+00  0.28934709207E+03  0.28934709208E+03  0.25500000000E-02 0. -1.
          2   -1    0    0  501    0  0.00000000000E+00 -0.00000000000E+00 -0.88474530269E+03  0.88474530270E+03  0.25500000000E-02 0.  1.
   -5000001    1    1    2    0    0 -0.43979592719E+03  0.74562825447E+01 -0.30319372539E+03  0.58983259391E+03  0.25000000000E+03 0.  0.
    5000001    1    1    2    0    0  0.43979592719E+03 -0.74562825447E+01 -0.29220448524E+03  0.58425980087E+03  0.25000000000E+03 0.  0.
<mgrwt>
<rscale>  0 0.10119258E+04</rscale>
<asrwt>0</asrwt>
<pdfrwt beam="1">  1        2 0.13611466E+00 0.10119258E+04</pdfrwt>
<pdfrwt beam="2">  1       -2 0.44514938E-01 0.10119258E+04</pdfrwt>
<totfact> 0.14333913E+02</totfact>
</mgrwt>
</event>
<event>
 4    1  0.6739609E-006  0.5489278E+03  0.7818608E-02  0.1001742E+00
         -2   -1    0    0    0  501 -0.00000000000E+00  0.00000000000E+00  0.20554063714E+02  0.20554063872E+02  0.25500000000E-02 0. -1.
          2   -1    0    0  501    0  0.00000000000E+00 -0.00000000000E+00 -0.36649899303E+04  0.36649899303E+04  0.25500000000E-02 0.  1.
   -5000001    1    1    2    0    0 -0.75053622539E+02  0.67896794365E+02 -0.14806953069E+04  0.15050586742E+04  0.25000000000E+03 0.  0.
    5000001    1    1    2    0    0  0.75053622539E+02 -0.67896794365E+02 -0.21637405597E+04  0.21804853200E+04  0.25000000000E+03 0.  0.
<mgrwt>
<rscale>  0 0.54892782E+03</rscale>
<asrwt>0</asrwt>
<pdfrwt beam="1">  1        2 0.56384408E+00 0.54892782E+03</pdfrwt>
<pdfrwt beam="2">  1       -2 0.31621666E-02 0.54892782E+03</pdfrwt>
<totfact> 0.28881070E+02</totfact>
</mgrwt>
</event>
<event>
 4    1  0.6739609E-006  0.5835729E+03  0.7818608E-02  0.9940086E-01
         -2   -1    0    0    0  501 -0.00000000000E+00  0.00000000000E+00  0.12961538535E+03  0.12961538538E+03  0.25500000000E-02 0. -1.
          2   -1    0    0  501    0  0.00000000000E+00 -0.00000000000E+00 -0.65686121805E+03  0.65686121806E+03  0.25500000000E-02 0.  1.
   -5000001    1    1    2    0    0 -0.10100277190E+03 -0.10706126898E+03 -0.22152733022E+03  0.36501785338E+03  0.25000000000E+03 0.  0.
    5000001    1    1    2    0    0  0.10100277190E+03  0.10706126898E+03 -0.30571850248E+03  0.42145875006E+03  0.25000000000E+03 0.  0.
<mgrwt>
<rscale>  0 0.58357286E+03</rscale>
<asrwt>0</asrwt>
<pdfrwt beam="1">  1        2 0.10105557E+00 0.58357286E+03</pdfrwt>
<pdfrwt beam="2">  1       -2 0.19940829E-01 0.58357286E+03</pdfrwt>
<totfact> 0.95598556E+02</totfact>
</mgrwt>
</event>
<event>
 4    1  0.6739609E-006  0.1083943E+04  0.7818608E-02  0.9220985E-01
          2   -1    0    0  501    0  0.00000000000E+00  0.00000000000E+00  0.33547215064E+04  0.33547215064E+04  0.25500000000E-02 0.  1.
         -2   -1    0    0    0  501 -0.00000000000E+00 -0.00000000000E+00 -0.87558156087E+02  0.87558156124E+02  0.25500000000E-02 0. -1.
   -5000001    1    1    2    0    0  0.27044230615E+02 -0.84830076913E+02  0.31342665895E+04  0.31454816144E+04  0.25000000000E+03 0.  0.
    5000001    1    1    2    0    0 -0.27044230615E+02  0.84830076913E+02  0.13289676085E+03  0.29679804818E+03  0.25000000000E+03 0.  0.
<mgrwt>
<rscale>  0 0.10839432E+04</rscale>
<asrwt>0</asrwt>
<pdfrwt beam="1">  1        2 0.51611093E+00 0.10839432E+04</pdfrwt>
<pdfrwt beam="2">  1       -2 0.13470487E-01 0.10839432E+04</pdfrwt>
<totfact> 0.44054852E+01</totfact>
</mgrwt>
</event>
<event>
 4    1  0.6739609E-006  0.6682989E+03  0.7818608E-02  0.9773036E-01
          2   -1    0    0  501    0  0.00000000000E+00  0.00000000000E+00  0.34146876382E+03  0.34146876383E+03  0.25500000000E-02 0.  1.
         -2   -1    0    0    0  501 -0.00000000000E+00 -0.00000000000E+00 -0.32698702487E+03  0.32698702488E+03  0.25500000000E-02 0. -1.
   -5000001    1    1    2    0    0  0.21838576885E+03 -0.15591998146E+02 -0.27701565976E+02  0.33347088508E+03  0.25000000000E+03 0.  0.
    5000001    1    1    2    0    0 -0.21838576885E+03  0.15591998146E+02  0.42183304933E+02  0.33498490363E+03  0.25000000000E+03 0.  0.
<mgrwt>
<rscale>  0 0.66829890E+03</rscale>
<asrwt>0</asrwt>
<pdfrwt beam="1">  1        2 0.52533656E-01 0.66829890E+03</pdfrwt>
<pdfrwt beam="2">  1       -2 0.50305696E-01 0.66829890E+03</pdfrwt>
<totfact> 0.35839105E+02</totfact>
</mgrwt>
</event>
<event>
 4    1  0.6739609E-006  0.5453938E+03  0.7818608E-02  0.1002566E+00
          2   -1    0    0  501    0  0.00000000000E+00  0.00000000000E+00  0.50125456895E+03  0.50125456896E+03  0.25500000000E-02 0.  1.
         -2   -1    0    0    0  501 -0.00000000000E+00 -0.00000000000E+00 -0.14835497625E+03  0.14835497627E+03  0.25500000000E-02 0. -1.
   -5000001    1    1    2    0    0  0.88412309631E+02 -0.62847862570E+02  0.16471781496E+03  0.31843138804E+03  0.25000000000E+03 0.  0.
    5000001    1    1    2    0    0 -0.88412309631E+02  0.62847862570E+02  0.18818177775E+03  0.33117815719E+03  0.25000000000E+03 0.  0.
<mgrwt>
<rscale>  0 0.54539384E+03</rscale>
<asrwt>0</asrwt>
<pdfrwt beam="1">  1        2 0.77116088E-01 0.54539384E+03</pdfrwt>
<pdfrwt beam="2">  1       -2 0.22823842E-01 0.54539384E+03</pdfrwt>
<totfact> 0.10394834E+03</totfact>
</mgrwt>
</event>
<event>
 4    1  0.6739609E-006  0.5908725E+03  0.7818608E-02  0.9924526E-01
          2   -1    0    0  501    0  0.00000000000E+00  0.00000000000E+00  0.70286263601E+03  0.70286263601E+03  0.25500000000E-02 0.  1.
         -2   -1    0    0    0  501 -0.00000000000E+00 -0.00000000000E+00 -0.12418155119E+03  0.12418155122E+03  0.25500000000E-02 0. -1.
   -5000001    1    1    2    0    0 -0.59106500201E+02  0.10889417384E+03  0.15341062873E+03  0.31841221784E+03  0.25000000000E+03 0.  0.
    5000001    1    1    2    0    0  0.59106500201E+02 -0.10889417384E+03  0.42527045609E+03  0.50863196939E+03  0.25000000000E+03 0.  0.
<mgrwt>
<rscale>  0 0.59087248E+03</rscale>
<asrwt>0</asrwt>
<pdfrwt beam="1">  1        2 0.10813271E+00 0.59087248E+03</pdfrwt>
<pdfrwt beam="2">  1       -2 0.19104854E-01 0.59087248E+03</pdfrwt>
<totfact> 0.94675003E+02</totfact>
</mgrwt>
</event>
<event>
 4    1  0.6739609E-006  0.6348728E+03  0.7818608E-02  0.9835586E-01
          2   -1    0    0  501    0  0.00000000000E+00  0.00000000000E+00  0.11457870953E+04  0.11457870953E+04  0.25500000000E-02 0.  1.
         -2   -1    0    0    0  501 -0.00000000000E+00 -0.00000000000E+00 -0.87944668616E+02  0.87944668653E+02  0.25500000000E-02 0. -1.
   -5000001    1    1    2    0    0 -0.17549154032E+03  0.68498591590E+02  0.42652471424E+03  0.52906773633E+03  0.25000000000E+03 0.  0.
    5000001    1    1    2    0    0  0.17549154032E+03 -0.68498591590E+02  0.63131771245E+03  0.70466402762E+03  0.25000000000E+03 0.  0.
<mgrwt>
<rscale>  0 0.63487279E+03</rscale>
<asrwt>0</asrwt>
<pdfrwt beam="1">  1        2 0.17627492E+00 0.63487279E+03</pdfrwt>
<pdfrwt beam="2">  1       -2 0.13529950E-01 0.63487279E+03</pdfrwt>
<totfact> 0.85988411E+02</totfact>
</mgrwt>
</event>
<event>
 4    1  0.6739609E-006  0.1139963E+04  0.7818608E-02  0.9167093E-01
          2   -1    0    0  501    0  0.00000000000E+00  0.00000000000E+00  0.57354918561E+03  0.57354918562E+03  0.25500000000E-02 0.  1.
         -2   -1    0    0    0  501 -0.00000000000E+00 -0.00000000000E+00 -0.56643627564E+03  0.56643627564E+03  0.25500000000E-02 0. -1.
   -5000001    1    1    2    0    0 -0.36778942247E+03  0.98558271591E+02  0.34619451906E+03  0.57213061202E+03  0.25000000000E+03 0.  0.
    5000001    1    1    2    0    0  0.36778942247E+03 -0.98558271591E+02 -0.33908160909E+03  0.56785484924E+03  0.25000000000E+03 0.  0.
<mgrwt>
<rscale>  0 0.11399633E+04</rscale>
<asrwt>0</asrwt>
<pdfrwt beam="1">  1        2 0.88238336E-01 0.11399633E+04</pdfrwt>
<pdfrwt beam="2">  1       -2 0.87144043E-01 0.11399633E+04</pdfrwt>
<totfact> 0.59066441E+01</totfact>
</mgrwt>
</event>
<event>
 4    1  0.6739609E-006  0.9494924E+03  0.7818608E-02  0.9365744E-01
          2   -1    0    0  501    0  0.00000000000E+00  0.00000000000E+00  0.25859516262E+03  0.25859516263E+03  0.25500000000E-02 0.  1.
         -2   -1    0    0    0  501 -0.00000000000E+00 -0.00000000000E+00 -0.87157072298E+03  0.87157072299E+03  0.25500000000E-02 0. -1.
   -5000001    1    1    2    0    0  0.17132106019E+03 -0.36209350812E+03 -0.24791710422E+03  0.53331557717E+03  0.25000000000E+03 0.  0.
    5000001    1    1    2    0    0 -0.17132106019E+03  0.36209350812E+03 -0.36505845614E+03  0.59685030844E+03  0.25000000000E+03 0.  0.
<mgrwt>
<rscale>  0 0.94949244E+03</rscale>
<asrwt>0</asrwt>
<pdfrwt beam="1">  1        2 0.39783872E-01 0.94949244E+03</pdfrwt>
<pdfrwt beam="2">  1       -2 0.13408780E+00 0.94949244E+03</pdfrwt>
<totfact> 0.52029378E+01</totfact>
</mgrwt>
</event>
<event>
 4    1  0.6739609E-006  0.1080696E+04  0.7818608E-02  0.9224214E-01
         -2   -1    0    0    0  501 -0.00000000000E+00  0.00000000000E+00  0.41268972991E+03  0.41268972992E+03  0.25500000000E-02 0. -1.
          2   -1    0    0  501    0  0.00000000000E+00 -0.00000000000E+00 -0.70749509462E+03  0.70749509462E+03  0.25500000000E-02 0.  1.
   -5000001    1    1    2    0    0 -0.39803443560E+03 -0.17082095571E+03 -0.35948789368E+03  0.61590807474E+03  0.25000000000E+03 0.  0.
    5000001    1    1    2    0    0  0.39803443560E+03  0.17082095571E+03  0.64682528974E+02  0.50427674980E+03  0.25000000000E+03 0.  0.
<mgrwt>
<rscale>  0 0.10806960E+04</rscale>
<asrwt>0</asrwt>
<pdfrwt beam="1">  1        2 0.10884540E+00 0.10806960E+04</pdfrwt>
<pdfrwt beam="2">  1       -2 0.63490727E-01 0.10806960E+04</pdfrwt>
<totfact> 0.92303685E+01</totfact>
</mgrwt>
</event>
<event>
 4    1  0.6739609E-006  0.6948133E+03  0.7818608E-02  0.9726143E-01
         -2   -1    0    0    0  501 -0.00000000000E+00  0.00000000000E+00  0.18369947734E+03  0.18369947736E+03  0.25500000000E-02 0. -1.
          2   -1    0    0  501    0  0.00000000000E+00 -0.00000000000E+00 -0.65700454392E+03  0.65700454392E+03  0.25500000000E-02 0.  1.
   -5000001    1    1    2    0    0  0.54720582475E+01  0.15347014924E+03 -0.46174735261E+03  0.54707736909E+03  0.25000000000E+03 0.  0.
    5000001    1    1    2    0    0 -0.54720582475E+01 -0.15347014924E+03 -0.11557713969E+02  0.29362665220E+03  0.25000000000E+03 0.  0.
<mgrwt>
<rscale>  0 0.69481333E+03</rscale>
<asrwt>0</asrwt>
<pdfrwt beam="1">  1        2 0.10107762E+00 0.69481333E+03</pdfrwt>
<pdfrwt beam="2">  1       -2 0.28261459E-01 0.69481333E+03</pdfrwt>
<totfact> 0.51125172E+02</totfact>
</mgrwt>
</event>
<event>
 4    1  0.6739609E-006  0.7160442E+03  0.7818608E-02  0.9690181E-01
          2   -1    0    0  501    0  0.00000000000E+00  0.00000000000E+00  0.13692681397E+04  0.13692681397E+04  0.25500000000E-02 0.  1.
         -2   -1    0    0    0  501 -0.00000000000E+00 -0.00000000000E+00 -0.93611919059E+02  0.93611919093E+02  0.25500000000E-02 0. -1.
   -5000001    1    1    2    0    0  0.37987177534E+02  0.20743411433E+03  0.34030717150E+03  0.47199672501E+03  0.25000000000E+03 0.  0.
    5000001    1    1    2    0    0 -0.37987177534E+02 -0.20743411433E+03  0.93534904912E+03  0.99088333376E+03  0.25000000000E+03 0.  0.
<mgrwt>
<rscale>  0 0.71604418E+03</rscale>
<asrwt>0</asrwt>
<pdfrwt beam="1">  1        2 0.21065664E+00 0.71604418E+03</pdfrwt>
<pdfrwt beam="2">  1       -2 0.14401833E-01 0.71604418E+03</pdfrwt>
<totfact> 0.57219817E+02</totfact>
</mgrwt>
</event>
<event>
 4    1  0.6739609E-006  0.9161629E+03  0.7818608E-02  0.9405600E-01
          2   -1    0    0  501    0  0.00000000000E+00  0.00000000000E+00  0.16707674131E+04  0.16707674131E+04  0.25500000000E-02 0.  1.
         -2   -1    0    0    0  501 -0.00000000000E+00 -0.00000000000E+00 -0.12559415029E+03  0.12559415031E+03  0.25500000000E-02 0. -1.
   -5000001    1    1    2    0    0  0.17129258462E+03 -0.34046140280E+03  0.68308776788E+03  0.82119669688E+03  0.25000000000E+03 0.  0.
    5000001    1    1    2    0    0 -0.17129258462E+03  0.34046140280E+03  0.86208549491E+03  0.97516486651E+03  0.25000000000E+03 0.  0.
<mgrwt>
<rscale>  0 0.91616290E+03</rscale>
<asrwt>0</asrwt>
<pdfrwt beam="1">  1        2 0.25704112E+00 0.91616290E+03</pdfrwt>
<pdfrwt beam="2">  1       -2 0.19322178E-01 0.91616290E+03</pdfrwt>
<totfact> 0.23200750E+02</totfact>
</mgrwt>
</event>
<event>
 4    1  0.6739609E-006  0.6526216E+03  0.7818608E-02  0.9801872E-01
          2   -1    0    0  501    0  0.00000000000E+00  0.00000000000E+00  0.61867872544E+03  0.61867872544E+03  0.25500000000E-02 0.  1.
         -2   -1    0    0    0  501 -0.00000000000E+00 -0.00000000000E+00 -0.17210668916E+03  0.17210668918E+03  0.25500000000E-02 0. -1.
   -5000001    1    1    2    0    0 -0.75581897410E+02 -0.17736389173E+03  0.12330616246E+03  0.33893212153E+03  0.25000000000E+03 0.  0.
    5000001    1    1    2    0    0  0.75581897410E+02  0.17736389173E+03  0.32326587381E+03  0.45185329309E+03  0.25000000000E+03 0.  0.
<mgrwt>
<rscale>  0 0.65262163E+03</rscale>
<asrwt>0</asrwt>
<pdfrwt beam="1">  1        2 0.95181342E-01 0.65262163E+03</pdfrwt>
<pdfrwt beam="2">  1       -2 0.26477952E-01 0.65262163E+03</pdfrwt>
<totfact> 0.62048279E+02</totfact>
</mgrwt>
</event>
<event>
 4    1  0.6739609E-006  0.6477734E+03  0.7818608E-02  0.9810966E-01
          2   -1    0    0  501    0  0.00000000000E+00  0.00000000000E+00  0.45083535938E+03  0.45083535939E+03  0.25500000000E-02 0.  1.
         -2   -1    0    0    0  501 -0.00000000000E+00 -0.00000000000E+00 -0.23268494612E+03  0.23268494614E+03  0.25500000000E-02 0. -1.
   -5000001    1    1    2    0    0 -0.12977822552E+03  0.15655653181E+03  0.74879001233E+02  0.33084618828E+03  0.25000000000E+03 0.  0.
    5000001    1    1    2    0    0  0.12977822552E+03 -0.15655653181E+03  0.14327141202E+03  0.35267411725E+03  0.25000000000E+03 0.  0.
<mgrwt>
<rscale>  0 0.64777342E+03</rscale>
<asrwt>0</asrwt>
<pdfrwt beam="1">  1        2 0.69359285E-01 0.64777342E+03</pdfrwt>
<pdfrwt beam="2">  1       -2 0.35797685E-01 0.64777342E+03</pdfrwt>
<totfact> 0.51288597E+02</totfact>
</mgrwt>
</event>
<event>
 4    1  0.6739609E-006  0.7368136E+03  0.7818608E-02  0.9656268E-01
          2   -1    0    0  501    0  0.00000000000E+00  0.00000000000E+00  0.16292525252E+04  0.16292525252E+04  0.25500000000E-02 0. -1.
         -2   -1    0    0    0  501 -0.00000000000E+00 -0.00000000000E+00 -0.83304204374E+02  0.83304204413E+02  0.25500000000E-02 0.  1.
   -5000001    1    1    2    0    0 -0.11352176434E+03 -0.13644634095E+03  0.29823707047E+03  0.42772671782E+03  0.25000000000E+03 0.  0.
    5000001    1    1    2    0    0  0.11352176434E+03  0.13644634095E+03  0.12477112503E+04  0.12848300118E+04  0.25000000000E+03 0.  0.
<mgrwt>
<rscale>  0 0.73681364E+03</rscale>
<asrwt>0</asrwt>
<pdfrwt beam="1">  1        2 0.25065425E+00 0.73681364E+03</pdfrwt>
<pdfrwt beam="2">  1       -2 0.12816031E-01 0.73681364E+03</pdfrwt>
<totfact> 0.49775005E+02</totfact>
</mgrwt>
</event>
<event>
 4    1  0.6739609E-006  0.8672705E+03  0.7818608E-02  0.9467446E-01
          2   -1    0    0  501    0  0.00000000000E+00  0.00000000000E+00  0.39970624076E+03  0.39970624077E+03  0.25500000000E-02 0.  1.
         -2   -1    0    0    0  501 -0.00000000000E+00 -0.00000000000E+00 -0.47044428291E+03  0.47044428291E+03  0.25500000000E-02 0. -1.
   -5000001    1    1    2    0    0  0.33911217736E+03 -0.40398075154E+02  0.59339589246E+02  0.42737601730E+03  0.25000000000E+03 0.  0.
    5000001    1    1    2    0    0 -0.33911217736E+03  0.40398075154E+02 -0.13007763139E+03  0.44277450638E+03  0.25000000000E+03 0.  0.
<mgrwt>
<rscale>  0 0.86727047E+03</rscale>
<asrwt>0</asrwt>
<pdfrwt beam="1">  1        2 0.61493268E-01 0.86727047E+03</pdfrwt>
<pdfrwt beam="2">  1       -2 0.72376043E-01 0.86727047E+03</pdfrwt>
<totfact> 0.13823558E+02</totfact>
</mgrwt>
</event>
<event>
 4    1  0.6739609E-006  0.7502693E+03  0.7818608E-02  0.9634928E-01
          2   -1    0    0  501    0  0.00000000000E+00  0.00000000000E+00  0.83250068587E+03  0.83250068587E+03  0.25500000000E-02 0.  1.
         -2   -1    0    0    0  501 -0.00000000000E+00 -0.00000000000E+00 -0.16904009285E+03  0.16904009287E+03  0.25500000000E-02 0. -1.
   -5000001    1    1    2    0    0  0.16918664373E+03 -0.22150301458E+03  0.36270153484E+03  0.52128697400E+03  0.25000000000E+03 0.  0.
    5000001    1    1    2    0    0 -0.16918664373E+03  0.22150301458E+03  0.30075905818E+03  0.48025380474E+03  0.25000000000E+03 0.  0.
<mgrwt>
<rscale>  0 0.75026927E+03</rscale>
<asrwt>0</asrwt>
<pdfrwt beam="1">  1        2 0.12807703E+00 0.75026927E+03</pdfrwt>
<pdfrwt beam="2">  1       -2 0.26006169E-01 0.75026927E+03</pdfrwt>
<totfact> 0.43798424E+02</totfact>
</mgrwt>
</event>
<event>
 4    1  0.6739609E-006  0.7302899E+03  0.7818608E-02  0.9666790E-01
          2   -1    0    0  501    0  0.00000000000E+00  0.00000000000E+00  0.84442715629E+03  0.84442715630E+03  0.25500000000E-02 0.  1.
         -2   -1    0    0    0  501 -0.00000000000E+00 -0.00000000000E+00 -0.15789500931E+03  0.15789500933E+03  0.25500000000E-02 0. -1.
   -5000001    1    1    2    0    0 -0.25107140688E+03  0.24422010590E+02  0.22682550444E+03  0.42140609324E+03  0.25000000000E+03 0.  0.
    5000001    1    1    2    0    0  0.25107140688E+03 -0.24422010590E+02  0.45970664255E+03  0.58091607239E+03  0.25000000000E+03 0.  0.
<mgrwt>
<rscale>  0 0.73028990E+03</rscale>
<asrwt>0</asrwt>
<pdfrwt beam="1">  1        2 0.12991187E+00 0.73028990E+03</pdfrwt>
<pdfrwt beam="2">  1       -2 0.24291540E-01 0.73028990E+03</pdfrwt>
<totfact> 0.48630014E+02</totfact>
</mgrwt>
</event>
<event>
 4    1  0.6739609E-006  0.6666724E+03  0.7818608E-02  0.9775988E-01
          2   -1    0    0  501    0  0.00000000000E+00  0.00000000000E+00  0.34903747325E+03  0.34903747326E+03  0.25500000000E-02 0. -1.
         -2   -1    0    0    0  501 -0.00000000000E+00 -0.00000000000E+00 -0.31834126172E+03  0.31834126173E+03  0.25500000000E-02 0.  1.
   -5000001    1    1    2    0    0 -0.20362791906E+03 -0.67103228605E+02  0.66840495951E+02  0.33605776975E+03  0.25000000000E+03 0.  0.
    5000001    1    1    2    0    0  0.20362791906E+03  0.67103228605E+02 -0.36144284415E+02  0.33132096524E+03  0.25000000000E+03 0.  0.
<mgrwt>
<rscale>  0 0.66667242E+03</rscale>
<asrwt>0</asrwt>
<pdfrwt beam="1">  1        2 0.53698073E-01 0.66667242E+03</pdfrwt>
<pdfrwt beam="2">  1       -2 0.48975579E-01 0.66667242E+03</pdfrwt>
<totfact> 0.36930530E+02</totfact>
</mgrwt>
</event>
<event>
 4    1  0.6739609E-006  0.7028321E+03  0.7818608E-02  0.9712401E-01
          2   -1    0    0  501    0  0.00000000000E+00  0.00000000000E+00  0.40890992135E+03  0.40890992136E+03  0.25500000000E-02 0.  1.
         -2   -1    0    0    0  501 -0.00000000000E+00 -0.00000000000E+00 -0.30200598451E+03  0.30200598452E+03  0.25500000000E-02 0. -1.
   -5000001    1    1    2    0    0 -0.84003540560E+02 -0.22525488388E+03  0.11064329905E+03  0.36405809586E+03  0.25000000000E+03 0.  0.
    5000001    1    1    2    0    0  0.84003540560E+02  0.22525488388E+03 -0.37393622116E+01  0.34685781001E+03  0.25000000000E+03 0.  0.
<mgrwt>
<rscale>  0 0.70283211E+03</rscale>
<asrwt>0</asrwt>
<pdfrwt beam="1">  1        2 0.62909218E-01 0.70283211E+03</pdfrwt>
<pdfrwt beam="2">  1       -2 0.46462459E-01 0.70283211E+03</pdfrwt>
<totfact> 0.34363623E+02</totfact>
</mgrwt>
</event>
<event>
 4    1  0.6739609E-006  0.1051911E+04  0.7818608E-02  0.9253374E-01
          2   -1    0    0  501    0  0.00000000000E+00  0.00000000000E+00  0.46125236424E+03  0.46125236425E+03  0.25500000000E-02 0.  1.
         -2   -1    0    0    0  501 -0.00000000000E+00 -0.00000000000E+00 -0.59973448343E+03  0.59973448344E+03  0.25500000000E-02 0. -1.
   -5000001    1    1    2    0    0  0.43694564214E+03  0.13670329358E+03 -0.13704957786E+03  0.53934392687E+03  0.25000000000E+03 0.  0.
    5000001    1    1    2    0    0 -0.43694564214E+03 -0.13670329358E+03 -0.14325413373E+01  0.52164292082E+03  0.25000000000E+03 0.  0.
<mgrwt>
<rscale>  0 0.10519105E+04</rscale>
<asrwt>0</asrwt>
<pdfrwt beam="1">  1        2 0.70961902E-01 0.10519105E+04</pdfrwt>
<pdfrwt beam="2">  1       -2 0.92266844E-01 0.10519105E+04</pdfrwt>
<totfact> 0.67179840E+01</totfact>
</mgrwt>
</event>
<event>
 4    1  0.6739609E-006  0.7378063E+03  0.7818608E-02  0.9654677E-01
         -2   -1    0    0    0  501 -0.00000000000E+00  0.00000000000E+00  0.71389401433E+02  0.71389401479E+02  0.25500000000E-02 0. -1.
          2   -1    0    0  501    0  0.00000000000E+00 -0.00000000000E+00 -0.19062986118E+04  0.19062986118E+04  0.25500000000E-02 0.  1.
   -5000001    1    1    2    0    0 -0.78106034052E+02  0.20740419139E+03 -0.13367830409E+04  0.13778991072E+04  0.25000000000E+03 0.  0.
    5000001    1    1    2    0    0  0.78106034052E+02 -0.20740419139E+03 -0.49812616946E+03  0.59978890608E+03  0.25000000000E+03 0.  0.
<mgrwt>
<rscale>  0 0.73780625E+03</rscale>
<asrwt>0</asrwt>
<pdfrwt beam="1">  1        2 0.29327667E+00 0.73780625E+03</pdfrwt>
<pdfrwt beam="2">  1       -2 0.10982986E-01 0.73780625E+03</pdfrwt>
<totfact> 0.45336474E+02</totfact>
</mgrwt>
</event>
<event>
 4    1  0.6739609E-006  0.5249152E+03  0.7818608E-02  0.1007473E+00
          2   -1    0    0  501    0  0.00000000000E+00  0.00000000000E+00  0.20142564109E+04  0.20142564109E+04  0.25500000000E-02 0.  1.
         -2   -1    0    0    0  501 -0.00000000000E+00 -0.00000000000E+00 -0.34198225813E+02  0.34198225908E+02  0.25500000000E-02 0. -1.
   -5000001    1    1    2    0    0  0.67232644148E+01 -0.73095779813E+02  0.86688223553E+03  0.90519224786E+03  0.25000000000E+03 0.  0.
    5000001    1    1    2    0    0 -0.67232644148E+01  0.73095779813E+02  0.11131759496E+04  0.11432623890E+04  0.25000000000E+03 0.  0.
<mgrwt>
<rscale>  0 0.52491521E+03</rscale>
<asrwt>0</asrwt>
<pdfrwt beam="1">  1        2 0.30988566E+00 0.52491521E+03</pdfrwt>
<pdfrwt beam="2">  1       -2 0.52612645E-02 0.52491521E+03</pdfrwt>
<totfact> 0.12970879E+03</totfact>
</mgrwt>
</event>
<event>
 4    1  0.6739609E-006  0.1568093E+04  0.7818608E-02  0.8840393E-01
          2   -1    0    0  501    0  0.00000000000E+00  0.00000000000E+00  0.19702748147E+04  0.19702748147E+04  0.25500000000E-02 0.  1.
         -2   -1    0    0    0  501 -0.00000000000E+00 -0.00000000000E+00 -0.31200176519E+03  0.31200176520E+03  0.25500000000E-02 0. -1.
   -5000001    1    1    2    0    0  0.44722846325E+03 -0.41740233705E+03  0.14431750616E+04  0.15872908579E+04  0.25000000000E+03 0.  0.
    5000001    1    1    2    0    0 -0.44722846325E+03  0.41740233705E+03  0.21509798792E+03  0.69498572196E+03  0.25000000000E+03 0.  0.
<mgrwt>
<rscale>  0 0.15680934E+04</rscale>
<asrwt>0</asrwt>
<pdfrwt beam="1">  1        2 0.30311920E+00 0.15680934E+04</pdfrwt>
<pdfrwt beam="2">  1       -2 0.48000272E-01 0.15680934E+04</pdfrwt>
<totfact> 0.27439693E+01</totfact>
</mgrwt>
</event>
<event>
 4    1  0.6739609E-006  0.1043615E+04  0.7818608E-02  0.9261961E-01
          2   -1    0    0  501    0  0.00000000000E+00  0.00000000000E+00  0.72813868023E+03  0.72813868024E+03  0.25500000000E-02 0.  1.
         -2   -1    0    0    0  501 -0.00000000000E+00 -0.00000000000E+00 -0.37394391748E+03  0.37394391749E+03  0.25500000000E-02 0. -1.
   -5000001    1    1    2    0    0  0.36442050641E+03 -0.27387258637E+03  0.22402255571E+03  0.56612242892E+03  0.25000000000E+03 0.  0.
    5000001    1    1    2    0    0 -0.36442050641E+03  0.27387258637E+03  0.13017220705E+03  0.53596016881E+03  0.25000000000E+03 0.  0.
<mgrwt>
<rscale>  0 0.10436149E+04</rscale>
<asrwt>0</asrwt>
<pdfrwt beam="1">  1        2 0.11202134E+00 0.10436149E+04</pdfrwt>
<pdfrwt beam="2">  1       -2 0.57529833E-01 0.10436149E+04</pdfrwt>
<totfact> 0.10986907E+02</totfact>
</mgrwt>
</event>
<event>
 4    1  0.6739609E-006  0.7574857E+03  0.7818608E-02  0.9623679E-01
          2   -1    0    0  501    0  0.00000000000E+00  0.00000000000E+00  0.32553325792E+03  0.32553325793E+03  0.25500000000E-02 0.  1.
         -2   -1    0    0    0  501 -0.00000000000E+00 -0.00000000000E+00 -0.44064968557E+03  0.44064968558E+03  0.25500000000E-02 0. -1.
   -5000001    1    1    2    0    0 -0.22089214210E+03  0.17406061771E+03 -0.13985876024E+02  0.37654487357E+03  0.25000000000E+03 0.  0.
    5000001    1    1    2    0    0  0.22089214210E+03 -0.17406061771E+03 -0.10113055163E+03  0.38963806995E+03  0.25000000000E+03 0.  0.
<mgrwt>
<rscale>  0 0.75748565E+03</rscale>
<asrwt>0</asrwt>
<pdfrwt beam="1">  1        2 0.50082040E-01 0.75748565E+03</pdfrwt>
<pdfrwt beam="2">  1       -2 0.67792259E-01 0.75748565E+03</pdfrwt>
<totfact> 0.20154381E+02</totfact>
</mgrwt>
</event>
<event>
 4    1  0.6739609E-006  0.8638309E+03  0.7818608E-02  0.9471959E-01
          2   -1    0    0  501    0  0.00000000000E+00  0.00000000000E+00  0.69881661116E+03  0.69881661116E+03  0.25500000000E-02 0.  1.
         -2   -1    0    0    0  501 -0.00000000000E+00 -0.00000000000E+00 -0.26695267246E+03  0.26695267247E+03  0.25500000000E-02 0. -1.
   -5000001    1    1    2    0    0 -0.12970488919E+03 -0.30840577643E+03  0.92882676477E+02  0.42786057636E+03  0.25000000000E+03 0.  0.
    5000001    1    1    2    0    0  0.12970488919E+03  0.30840577643E+03  0.33898126222E+03  0.53790870727E+03  0.25000000000E+03 0.  0.
<mgrwt>
<rscale>  0 0.86383091E+03</rscale>
<asrwt>0</asrwt>
<pdfrwt beam="1">  1        2 0.10751025E+00 0.86383091E+03</pdfrwt>
<pdfrwt beam="2">  1       -2 0.41069643E-01 0.86383091E+03</pdfrwt>
<totfact> 0.23146990E+02</totfact>
</mgrwt>
</event>
<event>
 4    1  0.6739609E-006  0.6589880E+03  0.7818608E-02  0.9790058E-01
         -2   -1    0    0    0  501 -0.00000000000E+00  0.00000000000E+00  0.34178820673E+02  0.34178820768E+02  0.25500000000E-02 0. -1.
          2   -1    0    0  501    0  0.00000000000E+00 -0.00000000000E+00 -0.31764203830E+04  0.31764203830E+04  0.25500000000E-02 0.  1.
   -5000001    1    1    2    0    0  0.15139579237E+03  0.95101944214E+02 -0.99257573298E+03  0.10390724958E+04  0.25000000000E+03 0.  0.
    5000001    1    1    2    0    0 -0.15139579237E+03 -0.95101944214E+02 -0.21496658293E+04  0.21715267080E+04  0.25000000000E+03 0.  0.
<mgrwt>
<rscale>  0 0.65898802E+03</rscale>
<asrwt>0</asrwt>
<pdfrwt beam="1">  1        2 0.48867983E+00 0.65898802E+03</pdfrwt>
<pdfrwt beam="2">  1       -2 0.52582826E-02 0.65898802E+03</pdfrwt>
<totfact> 0.27538797E+02</totfact>
</mgrwt>
</event>
<event>
 4    1  0.6739609E-006  0.1062690E+04  0.7818608E-02  0.9242340E-01
          2   -1    0    0  501    0  0.00000000000E+00  0.00000000000E+00  0.42375211047E+03  0.42375211048E+03  0.25500000000E-02 0.  1.
         -2   -1    0    0    0  501 -0.00000000000E+00 -0.00000000000E+00 -0.66625601773E+03  0.66625601773E+03  0.25500000000E-02 0. -1.
   -5000001    1    1    2    0    0  0.32448717010E+03 -0.45314626297E+02  0.22275312317E+03  0.46847016213E+03  0.25000000000E+03 0.  0.
    5000001    1    1    2    0    0 -0.32448717010E+03  0.45314626297E+02 -0.46525703043E+03  0.62153796608E+03  0.25000000000E+03 0.  0.
<mgrwt>
<rscale>  0 0.10626898E+04</rscale>
<asrwt>0</asrwt>
<pdfrwt beam="1">  1        2 0.65192633E-01 0.10626898E+04</pdfrwt>
<pdfrwt beam="2">  1       -2 0.10250093E+00 0.10626898E+04</pdfrwt>
<totfact> 0.57728238E+01</totfact>
</mgrwt>
</event>
<event>
 4    1  0.6739609E-006  0.6115770E+03  0.7818608E-02  0.9881674E-01
         -2   -1    0    0    0  501 -0.00000000000E+00  0.00000000000E+00  0.19815460071E+03  0.19815460073E+03  0.25500000000E-02 0. -1.
          2   -1    0    0  501    0  0.00000000000E+00 -0.00000000000E+00 -0.47188709649E+03  0.47188709650E+03  0.25500000000E-02 0.  1.
   -5000001    1    1    2    0    0  0.35861913696E+01 -0.16409364104E+03 -0.66996590860E+02  0.30647695996E+03  0.25000000000E+03 0.  0.
    5000001    1    1    2    0    0 -0.35861913696E+01  0.16409364104E+03 -0.20673590492E+03  0.36356473726E+03  0.25000000000E+03 0.  0.
<mgrwt>
<rscale>  0 0.61157698E+03</rscale>
<asrwt>0</asrwt>
<pdfrwt beam="1">  1        2 0.72598014E-01 0.61157698E+03</pdfrwt>
<pdfrwt beam="2">  1       -2 0.30485323E-01 0.61157698E+03</pdfrwt>
<totfact> 0.65902847E+02</totfact>
</mgrwt>
</event>
<event>
 4    1  0.6739609E-006  0.6888794E+03  0.7818608E-02  0.9736441E-01
          2   -1    0    0  501    0  0.00000000000E+00  0.00000000000E+00  0.11596091140E+03  0.11596091143E+03  0.25500000000E-02 0.  1.
         -2   -1    0    0    0  501 -0.00000000000E+00 -0.00000000000E+00 -0.10230922202E+04  0.10230922202E+04  0.25500000000E-02 0. -1.
   -5000001    1    1    2    0    0  0.11986605867E+03 -0.19767922460E+03 -0.36774731419E+03  0.50118163869E+03  0.25000000000E+03 0.  0.
    5000001    1    1    2    0    0 -0.11986605867E+03  0.19767922460E+03 -0.53938399458E+03  0.63787149291E+03  0.25000000000E+03 0.  0.
<mgrwt>
<rscale>  0 0.68887940E+03</rscale>
<asrwt>0</asrwt>
<pdfrwt beam="1">  1        2 0.17840141E-01 0.68887940E+03</pdfrwt>
<pdfrwt beam="2">  1       -2 0.15739880E+00 0.68887940E+03</pdfrwt>
<totfact> 0.86926385E+01</totfact>
</mgrwt>
</event>
<event>
 4    1  0.6739609E-006  0.6518070E+03  0.7818608E-02  0.9803394E-01
          2   -1    0    0  501    0  0.00000000000E+00  0.00000000000E+00  0.44273689613E+03  0.44273689614E+03  0.25500000000E-02 0.  1.
         -2   -1    0    0    0  501 -0.00000000000E+00 -0.00000000000E+00 -0.23990114748E+03  0.23990114750E+03  0.25500000000E-02 0. -1.
   -5000001    1    1    2    0    0  0.10016570848E+03  0.16040435000E+03  0.19480026735E+03  0.36906621197E+03  0.25000000000E+03 0.  0.
    5000001    1    1    2    0    0 -0.10016570848E+03 -0.16040435000E+03  0.80354812955E+01  0.31357183167E+03  0.25000000000E+03 0.  0.
<mgrwt>
<rscale>  0 0.65180699E+03</rscale>
<asrwt>0</asrwt>
<pdfrwt beam="1">  1        2 0.68113369E-01 0.65180699E+03</pdfrwt>
<pdfrwt beam="2">  1       -2 0.36907869E-01 0.65180699E+03</pdfrwt>
<totfact> 0.49381375E+02</totfact>
</mgrwt>
</event>
<event>
 4    1  0.6739609E-006  0.8759858E+03  0.7818608E-02  0.9456108E-01
          2   -1    0    0  501    0  0.00000000000E+00  0.00000000000E+00  0.94903126125E+03  0.94903126125E+03  0.25500000000E-02 0.  1.
         -2   -1    0    0    0  501 -0.00000000000E+00 -0.00000000000E+00 -0.20214063272E+03  0.20214063274E+03  0.25500000000E-02 0. -1.
   -5000001    1    1    2    0    0 -0.19416402507E+03 -0.28677404476E+03  0.24604269636E+03  0.49292598817E+03  0.25000000000E+03 0.  0.
    5000001    1    1    2    0    0  0.19416402507E+03  0.28677404476E+03  0.50084793216E+03  0.65824590582E+03  0.25000000000E+03 0.  0.
<mgrwt>
<rscale>  0 0.87598580E+03</rscale>
<asrwt>0</asrwt>
<pdfrwt beam="1">  1        2 0.14600481E+00 0.87598580E+03</pdfrwt>
<pdfrwt beam="2">  1       -2 0.31098559E-01 0.87598580E+03</pdfrwt>
<totfact> 0.26119504E+02</totfact>
</mgrwt>
</event>
<event>
 4    1  0.6739609E-006  0.9770111E+03  0.7818608E-02  0.9334124E-01
          2   -1    0    0  501    0  0.00000000000E+00  0.00000000000E+00  0.27046557176E+04  0.27046557176E+04  0.25500000000E-02 0.  1.
         -2   -1    0    0    0  501 -0.00000000000E+00 -0.00000000000E+00 -0.88232180446E+02  0.88232180483E+02  0.25500000000E-02 0. -1.
   -5000001    1    1    2    0    0  0.35741105525E+03 -0.14420974763E+03  0.83331720270E+03  0.95155487180E+03  0.25000000000E+03 0.  0.
    5000001    1    1    2    0    0 -0.35741105525E+03  0.14420974763E+03  0.17831063344E+04  0.18413330263E+04  0.25000000000E+03 0.  0.
<mgrwt>
<rscale>  0 0.97701110E+03</rscale>
<asrwt>0</asrwt>
<pdfrwt beam="1">  1        2 0.41610091E+00 0.97701110E+03</pdfrwt>
<pdfrwt beam="2">  1       -2 0.13574181E-01 0.97701110E+03</pdfrwt>
<totfact> 0.11159207E+02</totfact>
</mgrwt>
</event>
<event>
 4    1  0.6739609E-006  0.9669339E+03  0.7818608E-02  0.9345574E-01
          2   -1    0    0  501    0  0.00000000000E+00  0.00000000000E+00  0.25844880846E+04  0.25844880846E+04  0.25500000000E-02 0.  1.
         -2   -1    0    0    0  501 -0.00000000000E+00 -0.00000000000E+00 -0.90439691003E+02  0.90439691039E+02  0.25500000000E-02 0. -1.
   -5000001    1    1    2    0    0  0.24879602294E+03 -0.32817195915E+03  0.11348566483E+04  0.12328811411E+04  0.25000000000E+03 0.  0.
    5000001    1    1    2    0    0 -0.24879602294E+03  0.32817195915E+03  0.13591917453E+04  0.14420466346E+04  0.25000000000E+03 0.  0.
<mgrwt>
<rscale>  0 0.96693392E+03</rscale>
<asrwt>0</asrwt>
<pdfrwt beam="1">  1        2 0.39761355E+00 0.96693392E+03</pdfrwt>
<pdfrwt beam="2">  1       -2 0.13913799E-01 0.96693392E+03</pdfrwt>
<totfact> 0.12586227E+02</totfact>
</mgrwt>
</event>
<event>
 4    1  0.6739609E-006  0.6351604E+03  0.7818608E-02  0.9835030E-01
         -2   -1    0    0    0  501 -0.00000000000E+00  0.00000000000E+00  0.19648898282E+03  0.19648898283E+03  0.25500000000E-02 0. -1.
          2   -1    0    0  501    0  0.00000000000E+00 -0.00000000000E+00 -0.51329683300E+03  0.51329683301E+03  0.25500000000E-02 0.  1.
   -5000001    1    1    2    0    0  0.12174972177E+03 -0.12579170457E+03 -0.60276881427E+02  0.31109459996E+03  0.25000000000E+03 0.  0.
    5000001    1    1    2    0    0 -0.12174972177E+03  0.12579170457E+03 -0.25653096876E+03  0.39869121588E+03  0.25000000000E+03 0.  0.
<mgrwt>
<rscale>  0 0.63516037E+03</rscale>
<asrwt>0</asrwt>
<pdfrwt beam="1">  1        2 0.78968743E-01 0.63516037E+03</pdfrwt>
<pdfrwt beam="2">  1       -2 0.30229074E-01 0.63516037E+03</pdfrwt>
<totfact> 0.60733726E+02</totfact>
</mgrwt>
</event>
<event>
 4    1  0.6739609E-006  0.1020104E+04  0.7818608E-02  0.9286766E-01
         -2   -1    0    0    0  501 -0.00000000000E+00  0.00000000000E+00  0.54278907017E+03  0.54278907017E+03  0.25500000000E-02 0. -1.
          2   -1    0    0  501    0  0.00000000000E+00 -0.00000000000E+00 -0.47928911583E+03  0.47928911584E+03  0.25500000000E-02 0.  1.
   -5000001    1    1    2    0    0  0.31233808015E+03  0.16515694374E+03 -0.23862600871E+03  0.49424109948E+03  0.25000000000E+03 0.  0.
    5000001    1    1    2    0    0 -0.31233808015E+03 -0.16515694374E+03  0.30212596305E+03  0.52783708654E+03  0.25000000000E+03 0.  0.
<mgrwt>
<rscale>  0 0.10201037E+04</rscale>
<asrwt>0</asrwt>
<pdfrwt beam="1">  1        2 0.73736787E-01 0.10201037E+04</pdfrwt>
<pdfrwt beam="2">  1       -2 0.83506011E-01 0.10201037E+04</pdfrwt>
<totfact> 0.80978447E+01</totfact>
</mgrwt>
</event>
<event>
 4    1  0.6739609E-006  0.1251042E+04  0.7818608E-02  0.9069316E-01
          2   -1    0    0  501    0  0.00000000000E+00  0.00000000000E+00  0.18265779248E+04  0.18265779248E+04  0.25500000000E-02 0.  1.
         -2   -1    0    0    0  501 -0.00000000000E+00 -0.00000000000E+00 -0.21421303329E+03  0.21421303331E+03  0.25500000000E-02 0. -1.
   -5000001    1    1    2    0    0 -0.33361711158E+03  0.41119248276E+03  0.44731304511E+03  0.73686402772E+03  0.25000000000E+03 0.  0.
    5000001    1    1    2    0    0  0.33361711158E+03 -0.41119248276E+03  0.11650518464E+04  0.13039269304E+04  0.25000000000E+03 0.  0.
<mgrwt>
<rscale>  0 0.12510424E+04</rscale>
<asrwt>0</asrwt>
<pdfrwt beam="1">  1        2 0.28101199E+00 0.12510424E+04</pdfrwt>
<pdfrwt beam="2">  1       -2 0.32955851E-01 0.12510424E+04</pdfrwt>
<totfact> 0.70491226E+01</totfact>
</mgrwt>
</event>
<event>
 4    1  0.6739609E-006  0.7082669E+03  0.7818608E-02  0.9703198E-01
          2   -1    0    0  501    0  0.00000000000E+00  0.00000000000E+00  0.26099503468E+03  0.26099503469E+03  0.25500000000E-02 0.  1.
         -2   -1    0    0    0  501 -0.00000000000E+00 -0.00000000000E+00 -0.48050918495E+03  0.48050918496E+03  0.25500000000E-02 0. -1.
   -5000001    1    1    2    0    0 -0.22982472412E+03  0.51652388798E+02 -0.19995788523E+03  0.39745506533E+03  0.25000000000E+03 0.  0.
    5000001    1    1    2    0    0  0.22982472412E+03 -0.51652388798E+02 -0.19556265038E+02  0.34404915432E+03  0.25000000000E+03 0.  0.
<mgrwt>
<rscale>  0 0.70826693E+03</rscale>
<asrwt>0</asrwt>
<pdfrwt beam="1">  1        2 0.40153082E-01 0.70826693E+03</pdfrwt>
<pdfrwt beam="2">  1       -2 0.73924490E-01 0.70826693E+03</pdfrwt>
<totfact> 0.21352443E+02</totfact>
</mgrwt>
</event>
<event>
 4    1  0.6739609E-006  0.9455736E+03  0.7818608E-02  0.9370339E-01
         -2   -1    0    0    0  501 -0.00000000000E+00  0.00000000000E+00  0.15622607187E+03  0.15622607189E+03  0.25500000000E-02 0. -1.
          2   -1    0    0  501    0  0.00000000000E+00 -0.00000000000E+00 -0.14307942538E+04  0.14307942538E+04  0.25500000000E-02 0.  1.
   -5000001    1    1    2    0    0 -0.14661825942E+03 -0.37353725986E+03 -0.63626671300E+03  0.79269308599E+03  0.25000000000E+03 0.  0.
    5000001    1    1    2    0    0  0.14661825942E+03  0.37353725986E+03 -0.63830146892E+03  0.79432723969E+03  0.25000000000E+03 0.  0.
<mgrwt>
<rscale>  0 0.94557362E+03</rscale>
<asrwt>0</asrwt>
<pdfrwt beam="1">  1        2 0.22012218E+00 0.94557362E+03</pdfrwt>
<pdfrwt beam="2">  1       -2 0.24034781E-01 0.94557362E+03</pdfrwt>
<totfact> 0.21406781E+02</totfact>
</mgrwt>
</event>
<event>
 4    1  0.6739609E-006  0.1025641E+04  0.7818608E-02  0.9280861E-01
          2   -1    0    0  501    0  0.00000000000E+00  0.00000000000E+00  0.34476770965E+03  0.34476770965E+03  0.25500000000E-02 0.  1.
         -2   -1    0    0    0  501 -0.00000000000E+00 -0.00000000000E+00 -0.76278804767E+03  0.76278804767E+03  0.25500000000E-02 0. -1.
   -5000001    1    1    2    0    0 -0.11443357189E+03  0.37638003920E+03 -0.43992940240E+03  0.64093280099E+03  0.25000000000E+03 0.  0.
    5000001    1    1    2    0    0  0.11443357189E+03 -0.37638003920E+03  0.21909064381E+02  0.46662295634E+03  0.25000000000E+03 0.  0.
<mgrwt>
<rscale>  0 0.10256407E+04</rscale>
<asrwt>0</asrwt>
<pdfrwt beam="1">  1        2 0.53041186E-01 0.10256407E+04</pdfrwt>
<pdfrwt beam="2">  1       -2 0.11735201E+00 0.10256407E+04</pdfrwt>
<totfact> 0.52562819E+01</totfact>
</mgrwt>
</event>
<event>
 4    1  0.6739609E-006  0.8322039E+03  0.7818608E-02  0.9514538E-01
          2   -1    0    0  501    0  0.00000000000E+00  0.00000000000E+00  0.82359563604E+03  0.82359563604E+03  0.25500000000E-02 0.  1.
         -2   -1    0    0    0  501 -0.00000000000E+00 -0.00000000000E+00 -0.21022555063E+03  0.21022555065E+03  0.25500000000E-02 0. -1.
   -5000001    1    1    2    0    0 -0.86364359749E+01 -0.17277844802E+03 -0.46245902645E+02  0.30751530635E+03  0.25000000000E+03 0.  0.
    5000001    1    1    2    0    0  0.86364359749E+01  0.17277844802E+03  0.65961598805E+03  0.72630588034E+03  0.25000000000E+03 0.  0.
<mgrwt>
<rscale>  0 0.83220393E+03</rscale>
<asrwt>0</asrwt>
<pdfrwt beam="1">  1        2 0.12670702E+00 0.83220393E+03</pdfrwt>
<pdfrwt beam="2">  1       -2 0.32342393E-01 0.83220393E+03</pdfrwt>
<totfact> 0.29605603E+02</totfact>
</mgrwt>
</event>
<event>
 4    1  0.6739609E-006  0.8686400E+03  0.7818608E-02  0.9465655E-01
         -2   -1    0    0    0  501 -0.00000000000E+00  0.00000000000E+00  0.34873086938E+03  0.34873086938E+03  0.25500000000E-02 0. -1.
          2   -1    0    0  501    0  0.00000000000E+00 -0.00000000000E+00 -0.54091535153E+03  0.54091535154E+03  0.25500000000E-02 0.  1.
   -5000001    1    1    2    0    0  0.26657215088E+02  0.24668462419E+03 -0.35634346744E+03  0.50104348885E+03  0.25000000000E+03 0.  0.
    5000001    1    1    2    0    0 -0.26657215088E+02 -0.24668462419E+03  0.16415898529E+03  0.38860273208E+03  0.25000000000E+03 0.  0.
<mgrwt>
<rscale>  0 0.86864004E+03</rscale>
<asrwt>0</asrwt>
<pdfrwt beam="1">  1        2 0.83217746E-01 0.86864004E+03</pdfrwt>
<pdfrwt beam="2">  1       -2 0.53650903E-01 0.86864004E+03</pdfrwt>
<totfact> 0.18470662E+02</totfact>
</mgrwt>
</event>
<event>
 4    1  0.6739609E-006  0.8093147E+03  0.7818608E-02  0.9546631E-01
          2   -1    0    0  501    0  0.00000000000E+00  0.00000000000E+00  0.15657765280E+04  0.15657765280E+04  0.25500000000E-02 0.  1.
         -2   -1    0    0    0  501 -0.00000000000E+00 -0.00000000000E+00 -0.10457914989E+03  0.10457914992E+03  0.25500000000E-02 0. -1.
   -5000001    1    1    2    0    0 -0.13935017278E+03  0.24897368624E+03  0.43987822133E+03  0.58086075499E+03  0.25000000000E+03 0.  0.
    5000001    1    1    2    0    0  0.13935017278E+03 -0.24897368624E+03  0.10213191568E+04  0.10894949229E+04  0.25000000000E+03 0.  0.
<mgrwt>
<rscale>  0 0.80931472E+03</rscale>
<asrwt>0</asrwt>
<pdfrwt beam="1">  1        2 0.24088868E+00 0.80931472E+03</pdfrwt>
<pdfrwt beam="2">  1       -2 0.16089101E-01 0.80931472E+03</pdfrwt>
<totfact> 0.36620933E+02</totfact>
</mgrwt>
</event>
<event>
 4    1  0.6739609E-006  0.8441658E+03  0.7818608E-02  0.9498201E-01
         -2   -1    0    0    0  501 -0.00000000000E+00  0.00000000000E+00  0.23273545394E+03  0.23273545395E+03  0.25500000000E-02 0. -1.
          2   -1    0    0  501    0  0.00000000000E+00 -0.00000000000E+00 -0.76547844992E+03  0.76547844993E+03  0.25500000000E-02 0.  1.
   -5000001    1    1    2    0    0 -0.68487768142E+02 -0.31788677485E+03 -0.14864795322E+03  0.43627834006E+03  0.25000000000E+03 0.  0.
    5000001    1    1    2    0    0  0.68487768142E+02  0.31788677485E+03 -0.38409504277E+03  0.56193556382E+03  0.25000000000E+03 0.  0.
<mgrwt>
<rscale>  0 0.84416580E+03</rscale>
<asrwt>0</asrwt>
<pdfrwt beam="1">  1        2 0.11776591E+00 0.84416580E+03</pdfrwt>
<pdfrwt beam="2">  1       -2 0.35805455E-01 0.84416580E+03</pdfrwt>
<totfact> 0.26880690E+02</totfact>
</mgrwt>
</event>
<event>
 4    1  0.6739609E-006  0.1028925E+04  0.7818608E-02  0.9277377E-01
          2   -1    0    0  501    0  0.00000000000E+00  0.00000000000E+00  0.78613598588E+03  0.78613598588E+03  0.25500000000E-02 0.  1.
         -2   -1    0    0    0  501 -0.00000000000E+00 -0.00000000000E+00 -0.33667434469E+03  0.33667434470E+03  0.25500000000E-02 0. -1.
   -5000001    1    1    2    0    0 -0.73563483606E+01  0.27238778357E+03 -0.16556705590E+03  0.40516869388E+03  0.25000000000E+03 0.  0.
    5000001    1    1    2    0    0  0.73563483606E+01 -0.27238778357E+03  0.61502869709E+03  0.71764163671E+03  0.25000000000E+03 0.  0.
<mgrwt>
<rscale>  0 0.10289253E+04</rscale>
<asrwt>0</asrwt>
<pdfrwt beam="1">  1        2 0.12094400E+00 0.10289253E+04</pdfrwt>
<pdfrwt beam="2">  1       -2 0.51796053E-01 0.10289253E+04</pdfrwt>
<totfact> 0.12372623E+02</totfact>
</mgrwt>
</event>
<event>
 4    1  0.6739609E-006  0.7343389E+03  0.7818608E-02  0.9660246E-01
         -2   -1    0    0    0  501 -0.00000000000E+00  0.00000000000E+00  0.41298804549E+03  0.41298804549E+03  0.25500000000E-02 0. -1.
          2   -1    0    0  501    0  0.00000000000E+00 -0.00000000000E+00 -0.32643420237E+03  0.32643420238E+03  0.25500000000E-02 0.  1.
   -5000001    1    1    2    0    0 -0.45992999520E+02 -0.72182342252E+02  0.29996859977E+03  0.39975843629E+03  0.25000000000E+03 0.  0.
    5000001    1    1    2    0    0  0.45992999520E+02  0.72182342252E+02 -0.21341475665E+03  0.33966381158E+03  0.25000000000E+03 0.  0.
<mgrwt>
<rscale>  0 0.73433895E+03</rscale>
<asrwt>0</asrwt>
<pdfrwt beam="1">  1        2 0.50220647E-01 0.73433895E+03</pdfrwt>
<pdfrwt beam="2">  1       -2 0.63536622E-01 0.73433895E+03</pdfrwt>
<totfact> 0.23117964E+02</totfact>
</mgrwt>
</event>
<event>
 4    1  0.6739609E-006  0.8469149E+03  0.7818608E-02  0.9494487E-01
          2   -1    0    0  501    0  0.00000000000E+00  0.00000000000E+00  0.91963885837E+03  0.91963885837E+03  0.25500000000E-02 0.  1.
         -2   -1    0    0    0  501 -0.00000000000E+00 -0.00000000000E+00 -0.19498546477E+03  0.19498546479E+03  0.25500000000E-02 0. -1.
   -5000001    1    1    2    0    0  0.60423119992E+02 -0.33627140070E+03  0.35006492302E+03  0.54934038508E+03  0.25000000000E+03 0.  0.
    5000001    1    1    2    0    0 -0.60423119992E+02  0.33627140070E+03  0.37458847058E+03  0.56528393808E+03  0.25000000000E+03 0.  0.
<mgrwt>
<rscale>  0 0.84691490E+03</rscale>
<asrwt>0</asrwt>
<pdfrwt beam="1">  1        2 0.14148290E+00 0.84691490E+03</pdfrwt>
<pdfrwt beam="2">  1       -2 0.29997764E-01 0.84691490E+03</pdfrwt>
<totfact> 0.29255257E+02</totfact>
</mgrwt>
</event>
<event>
 4    1  0.6739609E-006  0.9138287E+03  0.7818608E-02  0.9408458E-01
          2   -1    0    0  501    0  0.00000000000E+00  0.00000000000E+00  0.52726886138E+03  0.52726886139E+03  0.25500000000E-02 0.  1.
         -2   -1    0    0    0  501 -0.00000000000E+00 -0.00000000000E+00 -0.39594739765E+03  0.39594739766E+03  0.25500000000E-02 0. -1.
   -5000001    1    1    2    0    0 -0.15817399861E+02 -0.17731131806E+03  0.40763655129E+03  0.51025194914E+03  0.25000000000E+03 0.  0.
    5000001    1    1    2    0    0  0.15817399861E+02  0.17731131806E+03 -0.27631508756E+03  0.41296430991E+03  0.25000000000E+03 0.  0.
<mgrwt>
<rscale>  0 0.91382872E+03</rscale>
<asrwt>0</asrwt>
<pdfrwt beam="1">  1        2 0.81118287E-01 0.91382872E+03</pdfrwt>
<pdfrwt beam="2">  1       -2 0.60914984E-01 0.91382872E+03</pdfrwt>
<totfact> 0.14561733E+02</totfact>
</mgrwt>
</event>
<event>
 4    1  0.6739609E-006  0.1151875E+04  0.7818608E-02  0.9156056E-01
          2   -1    0    0  501    0  0.00000000000E+00  0.00000000000E+00  0.41427966846E+03  0.41427966846E+03  0.25500000000E-02 0.  1.
         -2   -1    0    0    0  501 -0.00000000000E+00 -0.00000000000E+00 -0.80067612941E+03  0.80067612942E+03  0.25500000000E-02 0. -1.
   -5000001    1    1    2    0    0 -0.48225887908E+03 -0.10861973340E+03 -0.35940962990E+03  0.66033866690E+03  0.25000000000E+03 0.  0.
    5000001    1    1    2    0    0  0.48225887908E+03  0.10861973340E+03 -0.26986831057E+02  0.55461713099E+03  0.25000000000E+03 0.  0.
<mgrwt>
<rscale>  0 0.11518747E+04</rscale>
<asrwt>0</asrwt>
<pdfrwt beam="1">  1        2 0.63735334E-01 0.11518747E+04</pdfrwt>
<pdfrwt beam="2">  1       -2 0.12318094E+00 0.11518747E+04</pdfrwt>
<totfact> 0.37608631E+01</totfact>
</mgrwt>
</event>
<event>
 4    1  0.6739609E-006  0.9322471E+03  0.7818608E-02  0.9386145E-01
         -2   -1    0    0    0  501 -0.00000000000E+00  0.00000000000E+00  0.25832671534E+03  0.25832671535E+03  0.25500000000E-02 0. -1.
          2   -1    0    0  501    0  0.00000000000E+00 -0.00000000000E+00 -0.84107117063E+03  0.84107117063E+03  0.25500000000E-02 0.  1.
   -5000001    1    1    2    0    0 -0.27227452920E+03 -0.25187553838E+03 -0.44601984300E+03  0.63167112206E+03  0.25000000000E+03 0.  0.
    5000001    1    1    2    0    0  0.27227452920E+03  0.25187553838E+03 -0.13672461228E+03  0.46772676393E+03  0.25000000000E+03 0.  0.
<mgrwt>
<rscale>  0 0.93224708E+03</rscale>
<asrwt>0</asrwt>
<pdfrwt beam="1">  1        2 0.12939556E+00 0.93224708E+03</pdfrwt>
<pdfrwt beam="2">  1       -2 0.39742572E-01 0.93224708E+03</pdfrwt>
<totfact> 0.19301631E+02</totfact>
</mgrwt>
</event>
<event>
 4    1  0.6739609E-006  0.1041321E+04  0.7818608E-02  0.9264351E-01
          2   -1    0    0  501    0  0.00000000000E+00  0.00000000000E+00  0.10657744471E+04  0.10657744471E+04  0.25500000000E-02 0.  1.
         -2   -1    0    0    0  501 -0.00000000000E+00 -0.00000000000E+00 -0.25435702283E+03  0.25435702284E+03  0.25500000000E-02 0. -1.
   -5000001    1    1    2    0    0 -0.36808457228E+03 -0.19152132023E+03  0.64764772365E+03  0.80877329482E+03  0.25000000000E+03 0.  0.
    5000001    1    1    2    0    0  0.36808457228E+03  0.19152132023E+03  0.16376970065E+03  0.51135817516E+03  0.25000000000E+03 0.  0.
<mgrwt>
<rscale>  0 0.10413207E+04</rscale>
<asrwt>0</asrwt>
<pdfrwt beam="1">  1        2 0.16396530E+00 0.10413207E+04</pdfrwt>
<pdfrwt beam="2">  1       -2 0.39131849E-01 0.10413207E+04</pdfrwt>
<totfact> 0.14059119E+02</totfact>
</mgrwt>
</event>
<event>
 4    1  0.6739609E-006  0.6762573E+03  0.7818608E-02  0.9758720E-01
          2   -1    0    0  501    0  0.00000000000E+00  0.00000000000E+00  0.19581836331E+04  0.19581836331E+04  0.25500000000E-02 0.  1.
         -2   -1    0    0    0  501 -0.00000000000E+00 -0.00000000000E+00 -0.58386235799E+02  0.58386235854E+02  0.25500000000E-02 0. -1.
   -5000001    1    1    2    0    0  0.13146034120E+03 -0.26691917379E+02  0.40137514852E+03  0.49152445475E+03  0.25000000000E+03 0.  0.
    5000001    1    1    2    0    0 -0.13146034120E+03  0.26691917379E+02  0.14984222487E+04  0.15250454142E+04  0.25000000000E+03 0.  0.
<mgrwt>
<rscale>  0 0.67625726E+03</rscale>
<asrwt>0</asrwt>
<pdfrwt beam="1">  1        2 0.30125906E+00 0.67625726E+03</pdfrwt>
<pdfrwt beam="2">  1       -2 0.89824967E-02 0.67625726E+03</pdfrwt>
<totfact> 0.59164712E+02</totfact>
</mgrwt>
</event>
<event>
 4    1  0.6739609E-006  0.1637325E+04  0.7818608E-02  0.8797940E-01
         -2   -1    0    0    0  501 -0.00000000000E+00  0.00000000000E+00  0.64409370395E+03  0.64409370396E+03  0.25500000000E-02 0. -1.
          2   -1    0    0  501    0  0.00000000000E+00 -0.00000000000E+00 -0.10405448562E+04  0.10405448562E+04  0.25500000000E-02 0.  1.
   -5000001    1    1    2    0    0  0.52537971420E+02  0.59252130888E+03 -0.71663708908E+03  0.96431864928E+03  0.25000000000E+03 0.  0.
    5000001    1    1    2    0    0 -0.52537971420E+02 -0.59252130888E+03  0.32018593681E+03  0.72031991090E+03  0.25000000000E+03 0.  0.
<mgrwt>
<rscale>  0 0.16373251E+04</rscale>
<asrwt>0</asrwt>
<pdfrwt beam="1">  1        2 0.16008382E+00 0.16373251E+04</pdfrwt>
<pdfrwt beam="2">  1       -2 0.99091339E-01 0.16373251E+04</pdfrwt>
<totfact> 0.19157254E+01</totfact>
</mgrwt>
</event>
<event>
 4    1  0.6739609E-006  0.7617250E+03  0.7818608E-02  0.9617133E-01
         -2   -1    0    0    0  501 -0.00000000000E+00  0.00000000000E+00  0.31769778949E+03  0.31769778950E+03  0.25500000000E-02 0. -1.
          2   -1    0    0  501    0  0.00000000000E+00 -0.00000000000E+00 -0.45658561991E+03  0.45658561991E+03  0.25500000000E-02 0.  1.
   -5000001    1    1    2    0    0 -0.21005133605E+03  0.11322742841E+03  0.93239162885E+02  0.35796027128E+03  0.25000000000E+03 0.  0.
    5000001    1    1    2    0    0  0.21005133605E+03 -0.11322742841E+03 -0.23212699330E+03  0.41632313813E+03  0.25000000000E+03 0.  0.
<mgrwt>
<rscale>  0 0.76172500E+03</rscale>
<asrwt>0</asrwt>
<pdfrwt beam="1">  1        2 0.70243942E-01 0.76172500E+03</pdfrwt>
<pdfrwt beam="2">  1       -2 0.48876583E-01 0.76172500E+03</pdfrwt>
<totfact> 0.27328795E+02</totfact>
</mgrwt>
</event>
<event>
 4    1  0.6739609E-006  0.1046728E+04  0.7818608E-02  0.9258728E-01
         -2   -1    0    0    0  501 -0.00000000000E+00  0.00000000000E+00  0.38575494711E+03  0.38575494712E+03  0.25500000000E-02 0. -1.
          2   -1    0    0  501    0  0.00000000000E+00 -0.00000000000E+00 -0.71006237934E+03  0.71006237935E+03  0.25500000000E-02 0.  1.
   -5000001    1    1    2    0    0 -0.45793693836E+03 -0.23298747675E+02 -0.19782519408E+03  0.55846564673E+03  0.25000000000E+03 0.  0.
    5000001    1    1    2    0    0  0.45793693836E+03  0.23298747675E+02 -0.12648223815E+03  0.53735167974E+03  0.25000000000E+03 0.  0.
<mgrwt>
<rscale>  0 0.10467284E+04</rscale>
<asrwt>0</asrwt>
<pdfrwt beam="1">  1        2 0.10924037E+00 0.10467284E+04</pdfrwt>
<pdfrwt beam="2">  1       -2 0.59346915E-01 0.10467284E+04</pdfrwt>
<totfact> 0.10625995E+02</totfact>
</mgrwt>
</event>
<event>
 4    1  0.6739609E-006  0.8191384E+03  0.7818608E-02  0.9532721E-01
         -2   -1    0    0    0  501 -0.00000000000E+00  0.00000000000E+00  0.85090189220E+02  0.85090189258E+02  0.25500000000E-02 0. -1.
          2   -1    0    0  501    0  0.00000000000E+00 -0.00000000000E+00 -0.19714016491E+04  0.19714016492E+04  0.25500000000E-02 0.  1.
   -5000001    1    1    2    0    0  0.25118699958E+03  0.34909913965E+02 -0.14510908272E+04  0.14941479845E+04  0.25000000000E+03 0.  0.
    5000001    1    1    2    0    0 -0.25118699958E+03 -0.34909913965E+02 -0.43522063270E+03  0.56234385387E+03  0.25000000000E+03 0.  0.
<mgrwt>
<rscale>  0 0.81913842E+03</rscale>
<asrwt>0</asrwt>
<pdfrwt beam="1">  1        2 0.30329253E+00 0.81913842E+03</pdfrwt>
<pdfrwt beam="2">  1       -2 0.13090800E-01 0.81913842E+03</pdfrwt>
<totfact> 0.31061941E+02</totfact>
</mgrwt>
</event>
<event>
 4    1  0.6739609E-006  0.6951399E+03  0.7818608E-02  0.9725580E-01
         -2   -1    0    0    0  501 -0.00000000000E+00  0.00000000000E+00  0.32548190500E+02  0.32548190600E+02  0.25500000000E-02 0. -1.
          2   -1    0    0  501    0  0.00000000000E+00 -0.00000000000E+00 -0.37115694606E+04  0.37115694606E+04  0.25500000000E-02 0.  1.
   -5000001    1    1    2    0    0  0.19854054589E+03  0.10544435537E+03 -0.23142247523E+04  0.23385194172E+04  0.25000000000E+03 0.  0.
    5000001    1    1    2    0    0 -0.19854054589E+03 -0.10544435537E+03 -0.13647965178E+04  0.14055982340E+04  0.25000000000E+03 0.  0.
<mgrwt>
<rscale>  0 0.69513990E+03</rscale>
<asrwt>0</asrwt>
<pdfrwt beam="1">  1        2 0.57101035E+00 0.69513990E+03</pdfrwt>
<pdfrwt beam="2">  1       -2 0.50074169E-02 0.69513990E+03</pdfrwt>
<totfact> 0.12910566E+02</totfact>
</mgrwt>
</event>
<event>
 4    1  0.6739609E-006  0.6200108E+03  0.7818608E-02  0.9864738E-01
         -2   -1    0    0    0  501 -0.00000000000E+00  0.00000000000E+00  0.28649754389E+03  0.28649754390E+03  0.25500000000E-02 0. -1.
          2   -1    0    0  501    0  0.00000000000E+00 -0.00000000000E+00 -0.33544217610E+03  0.33544217611E+03  0.25500000000E-02 0.  1.
   -5000001    1    1    2    0    0  0.12974816382E+03 -0.93013752514E+02  0.65903565864E+02  0.30385757217E+03  0.25000000000E+03 0.  0.
    5000001    1    1    2    0    0 -0.12974816382E+03  0.93013752514E+02 -0.11484819807E+03  0.31808214784E+03  0.25000000000E+03 0.  0.
<mgrwt>
<rscale>  0 0.62001084E+03</rscale>
<asrwt>0</asrwt>
<pdfrwt beam="1">  1        2 0.51606489E-01 0.62001084E+03</pdfrwt>
<pdfrwt beam="2">  1       -2 0.44076545E-01 0.62001084E+03</pdfrwt>
<totfact> 0.47708730E+02</totfact>
</mgrwt>
</event>
<event>
 4    1  0.6739609E-006  0.1148228E+04  0.7818608E-02  0.9159420E-01
         -2   -1    0    0    0  501 -0.00000000000E+00  0.00000000000E+00  0.52857763113E+03  0.52857763114E+03  0.25500000000E-02 0. -1.
          2   -1    0    0  501    0  0.00000000000E+00 -0.00000000000E+00 -0.62357276479E+03  0.62357276480E+03  0.25500000000E-02 0.  1.
   -5000001    1    1    2    0    0 -0.28623408258E+03  0.42445013497E+03 -0.11858271984E+03  0.58193618941E+03  0.25000000000E+03 0.  0.
    5000001    1    1    2    0    0  0.28623408258E+03 -0.42445013497E+03  0.23587586181E+02  0.57021420653E+03  0.25000000000E+03 0.  0.
<mgrwt>
<rscale>  0 0.11482275E+04</rscale>
<asrwt>0</asrwt>
<pdfrwt beam="1">  1        2 0.95934271E-01 0.11482275E+04</pdfrwt>
<pdfrwt beam="2">  1       -2 0.81319636E-01 0.11482275E+04</pdfrwt>
<totfact> 0.62446235E+01</totfact>
</mgrwt>
</event>
<event>
 4    1  0.6739609E-006  0.5597148E+03  0.7818608E-02  0.9992700E-01
         -2   -1    0    0    0  501 -0.00000000000E+00  0.00000000000E+00  0.52043013248E+02  0.52043013311E+02  0.25500000000E-02 0. -1.
          2   -1    0    0  501    0  0.00000000000E+00 -0.00000000000E+00 -0.15049119508E+04  0.15049119508E+04  0.25500000000E-02 0.  1.
   -5000001    1    1    2    0    0 -0.92420442439E+02 -0.80086553647E+02 -0.64463383205E+03  0.70214540636E+03  0.25000000000E+03 0.  0.
    5000001    1    1    2    0    0  0.92420442439E+02  0.80086553647E+02 -0.80823510554E+03  0.85480955778E+03  0.25000000000E+03 0.  0.
<mgrwt>
<rscale>  0 0.55971476E+03</rscale>
<asrwt>0</asrwt>
<pdfrwt beam="1">  1        2 0.23152488E+00 0.55971476E+03</pdfrwt>
<pdfrwt beam="2">  1       -2 0.80066186E-02 0.55971476E+03</pdfrwt>
<totfact> 0.12637107E+03</totfact>
</mgrwt>
</event>
<event>
 4    1  0.6739609E-006  0.6396882E+03  0.7818608E-02  0.9826323E-01
         -2   -1    0    0    0  501 -0.00000000000E+00  0.00000000000E+00  0.66251024946E+02  0.66251024995E+02  0.25500000000E-02 0. -1.
          2   -1    0    0  501    0  0.00000000000E+00 -0.00000000000E+00 -0.15441307498E+04  0.15441307498E+04  0.25500000000E-02 0.  1.
   -5000001    1    1    2    0    0 -0.11293520638E+03 -0.10765158387E+03 -0.42595494744E+03  0.51795833964E+03  0.25000000000E+03 0.  0.
    5000001    1    1    2    0    0  0.11293520638E+03  0.10765158387E+03 -0.10519247774E+04  0.10924234352E+04  0.25000000000E+03 0.  0.
<mgrwt>
<rscale>  0 0.63968819E+03</rscale>
<asrwt>0</asrwt>
<pdfrwt beam="1">  1        2 0.23755855E+00 0.63968819E+03</pdfrwt>
<pdfrwt beam="2">  1       -2 0.10192467E-01 0.63968819E+03</pdfrwt>
<totfact> 0.81239576E+02</totfact>
</mgrwt>
</event>
<event>
 4    1  0.6739609E-006  0.8477801E+03  0.7818608E-02  0.9493321E-01
         -2   -1    0    0    0  501 -0.00000000000E+00  0.00000000000E+00  0.74445302862E+02  0.74445302905E+02  0.25500000000E-02 0. -1.
          2   -1    0    0  501    0  0.00000000000E+00 -0.00000000000E+00 -0.24136213727E+04  0.24136213727E+04  0.25500000000E-02 0.  1.
   -5000001    1    1    2    0    0  0.29615885307E+03  0.77669750124E+02 -0.72026499157E+03  0.82159863341E+03  0.25000000000E+03 0.  0.
    5000001    1    1    2    0    0 -0.29615885307E+03 -0.77669750124E+02 -0.16189110783E+04  0.16664680422E+04  0.25000000000E+03 0.  0.
<mgrwt>
<rscale>  0 0.84778010E+03</rscale>
<asrwt>0</asrwt>
<pdfrwt beam="1">  1        2 0.37132631E+00 0.84778010E+03</pdfrwt>
<pdfrwt beam="2">  1       -2 0.11453125E-01 0.84778010E+03</pdfrwt>
<totfact> 0.22018543E+02</totfact>
</mgrwt>
</event>
<event>
 4    1  0.6739609E-006  0.5638649E+03  0.7818608E-02  0.9983347E-01
          2   -1    0    0  501    0  0.00000000000E+00  0.00000000000E+00  0.95944277438E+03  0.95944277439E+03  0.25500000000E-02 0.  1.
         -2   -1    0    0    0  501 -0.00000000000E+00 -0.00000000000E+00 -0.82845910245E+02  0.82845910284E+02  0.25500000000E-02 0. -1.
   -5000001    1    1    2    0    0  0.86751802174E+02  0.94287428924E+02  0.39417002920E+03  0.48403099731E+03  0.25000000000E+03 0.  0.
    5000001    1    1    2    0    0 -0.86751802174E+02 -0.94287428924E+02  0.48242683494E+03  0.55825768736E+03  0.25000000000E+03 0.  0.
<mgrwt>
<rscale>  0 0.56386491E+03</rscale>
<asrwt>0</asrwt>
<pdfrwt beam="1">  1        2 0.14760657E+00 0.56386491E+03</pdfrwt>
<pdfrwt beam="2">  1       -2 0.12745525E-01 0.56386491E+03</pdfrwt>
<totfact> 0.12412712E+03</totfact>
</mgrwt>
</event>
<event>
 4    1  0.6739609E-006  0.6686684E+03  0.7818608E-02  0.9772366E-01
          2   -1    0    0  501    0  0.00000000000E+00  0.00000000000E+00  0.10469551044E+04  0.10469551044E+04  0.25500000000E-02 0.  1.
         -2   -1    0    0    0  501 -0.00000000000E+00 -0.00000000000E+00 -0.10676612795E+03  0.10676612798E+03  0.25500000000E-02 0. -1.
   -5000001    1    1    2    0    0  0.16149661030E+02 -0.19967400670E+03  0.30506076165E+03  0.44237155062E+03  0.25000000000E+03 0.  0.
    5000001    1    1    2    0    0 -0.16149661030E+02  0.19967400670E+03  0.63512821482E+03  0.71134968178E+03  0.25000000000E+03 0.  0.
<mgrwt>
<rscale>  0 0.66866836E+03</rscale>
<asrwt>0</asrwt>
<pdfrwt beam="1">  1        2 0.16107001E+00 0.66866836E+03</pdfrwt>
<pdfrwt beam="2">  1       -2 0.16425559E-01 0.66866836E+03</pdfrwt>
<totfact> 0.71146820E+02</totfact>
</mgrwt>
</event>
<event>
 4    1  0.6739609E-006  0.9602310E+03  0.7818608E-02  0.9353271E-01
          2   -1    0    0  501    0  0.00000000000E+00  0.00000000000E+00  0.16989649456E+04  0.16989649456E+04  0.25500000000E-02 0.  1.
         -2   -1    0    0    0  501 -0.00000000000E+00 -0.00000000000E+00 -0.13567725580E+03  0.13567725583E+03  0.25500000000E-02 0. -1.
   -5000001    1    1    2    0    0 -0.20745509236E+03 -0.29884985353E+03  0.42083364300E+03  0.60987687723E+03  0.25000000000E+03 0.  0.
    5000001    1    1    2    0    0  0.20745509236E+03  0.29884985353E+03  0.11424540468E+04  0.12247653242E+04  0.25000000000E+03 0.  0.
<mgrwt>
<rscale>  0 0.96023102E+03</rscale>
<asrwt>0</asrwt>
<pdfrwt beam="1">  1        2 0.26137919E+00 0.96023102E+03</pdfrwt>
<pdfrwt beam="2">  1       -2 0.20873427E-01 0.96023102E+03</pdfrwt>
<totfact> 0.19488290E+02</totfact>
</mgrwt>
</event>
<event>
 4    1  0.6739609E-006  0.7317719E+03  0.7818608E-02  0.9664389E-01
          2   -1    0    0  501    0  0.00000000000E+00  0.00000000000E+00  0.13031303519E+04  0.13031303519E+04  0.25500000000E-02 0.  1.
         -2   -1    0    0    0  501 -0.00000000000E+00 -0.00000000000E+00 -0.10273149220E+03  0.10273149223E+03  0.25500000000E-02 0. -1.
   -5000001    1    1    2    0    0  0.23927721043E+03  0.84652257094E+02  0.76039521461E+03  0.83971451724E+03  0.25000000000E+03 0.  0.
    5000001    1    1    2    0    0 -0.23927721043E+03 -0.84652257094E+02  0.44000364513E+03  0.56614732693E+03  0.25000000000E+03 0.  0.
<mgrwt>
<rscale>  0 0.73177189E+03</rscale>
<asrwt>0</asrwt>
<pdfrwt beam="1">  1        2 0.20048160E+00 0.73177189E+03</pdfrwt>
<pdfrwt beam="2">  1       -2 0.15804844E-01 0.73177189E+03</pdfrwt>
<totfact> 0.53298649E+02</totfact>
</mgrwt>
</event>
<event>
 4    1  0.6739609E-006  0.8185365E+03  0.7818608E-02  0.9533567E-01
          2   -1    0    0  501    0  0.00000000000E+00  0.00000000000E+00  0.14156707636E+04  0.14156707636E+04  0.25500000000E-02 0.  1.
         -2   -1    0    0    0  501 -0.00000000000E+00 -0.00000000000E+00 -0.11831882521E+03  0.11831882524E+03  0.25500000000E-02 0. -1.
   -5000001    1    1    2    0    0 -0.31203194578E+03  0.59094194097E+02  0.76932321991E+03  0.86903065289E+03  0.25000000000E+03 0.  0.
    5000001    1    1    2    0    0  0.31203194578E+03 -0.59094194097E+02  0.52802871845E+03  0.66495893593E+03  0.25000000000E+03 0.  0.
<mgrwt>
<rscale>  0 0.81853650E+03</rscale>
<asrwt>0</asrwt>
<pdfrwt beam="1">  1        2 0.21779551E+00 0.81853650E+03</pdfrwt>
<pdfrwt beam="2">  1       -2 0.18202895E-01 0.81853650E+03</pdfrwt>
<totfact> 0.35918537E+02</totfact>
</mgrwt>
</event>
<event>
 4    1  0.6739609E-006  0.9946387E+03  0.7818608E-02  0.9314445E-01
          2   -1    0    0  501    0  0.00000000000E+00  0.00000000000E+00  0.72333761999E+03  0.72333762000E+03  0.25500000000E-02 0.  1.
         -2   -1    0    0    0  501 -0.00000000000E+00 -0.00000000000E+00 -0.34192409301E+03  0.34192409302E+03  0.25500000000E-02 0. -1.
   -5000001    1    1    2    0    0  0.25035777349E+02  0.42483065926E+03  0.25601761946E+03  0.55601519824E+03  0.25000000000E+03 0.  0.
    5000001    1    1    2    0    0 -0.25035777349E+02 -0.42483065926E+03  0.12539590752E+03  0.50924651478E+03  0.25000000000E+03 0.  0.
<mgrwt>
<rscale>  0 0.99463875E+03</rscale>
<asrwt>0</asrwt>
<pdfrwt beam="1">  1        2 0.11128271E+00 0.99463875E+03</pdfrwt>
<pdfrwt beam="2">  1       -2 0.52603707E-01 0.99463875E+03</pdfrwt>
<totfact> 0.13383038E+02</totfact>
</mgrwt>
</event>
<event>
 4    1  0.6739609E-006  0.7001248E+03  0.7818608E-02  0.9717019E-01
         -2   -1    0    0    0  501 -0.00000000000E+00  0.00000000000E+00  0.52429094822E+02  0.52429094884E+02  0.25500000000E-02 0. -1.
          2   -1    0    0  501    0  0.00000000000E+00 -0.00000000000E+00 -0.23373223358E+04  0.23373223358E+04  0.25500000000E-02 0.  1.
   -5000001    1    1    2    0    0  0.12840288697E+03  0.16375118699E+03 -0.15840985826E+04  0.16171487477E+04  0.25000000000E+03 0.  0.
    5000001    1    1    2    0    0 -0.12840288697E+03 -0.16375118699E+03 -0.70079465835E+03  0.77260268301E+03  0.25000000000E+03 0.  0.
<mgrwt>
<rscale>  0 0.70012483E+03</rscale>
<asrwt>0</asrwt>
<pdfrwt beam="1">  1        2 0.35958797E+00 0.70012483E+03</pdfrwt>
<pdfrwt beam="2">  1       -2 0.80660164E-02 0.70012483E+03</pdfrwt>
<totfact> 0.43486258E+02</totfact>
</mgrwt>
</event>
<event>
 4    1  0.6739609E-006  0.1209265E+04  0.7818608E-02  0.9104785E-01
         -2   -1    0    0    0  501 -0.00000000000E+00  0.00000000000E+00  0.43259683817E+03  0.43259683818E+03  0.25500000000E-02 0. -1.
          2   -1    0    0  501    0  0.00000000000E+00 -0.00000000000E+00 -0.84508357800E+03  0.84508357800E+03  0.25500000000E-02 0.  1.
   -5000001    1    1    2    0    0 -0.36949629468E+03 -0.38038276321E+03 -0.36246636001E+03  0.68927528642E+03  0.25000000000E+03 0.  0.
    5000001    1    1    2    0    0  0.36949629468E+03  0.38038276321E+03 -0.50020379814E+02  0.58840512976E+03  0.25000000000E+03 0.  0.
<mgrwt>
<rscale>  0 0.12092650E+04</rscale>
<asrwt>0</asrwt>
<pdfrwt beam="1">  1        2 0.13001286E+00 0.12092650E+04</pdfrwt>
<pdfrwt beam="2">  1       -2 0.66553360E-01 0.12092650E+04</pdfrwt>
<totfact> 0.65476635E+01</totfact>
</mgrwt>
</event>
<event>
 4    1  0.6739609E-006  0.6289131E+03  0.7818608E-02  0.9847172E-01
         -2   -1    0    0    0  501 -0.00000000000E+00  0.00000000000E+00  0.13842812069E+03  0.13842812071E+03  0.25500000000E-02 0. -1.
          2   -1    0    0  501    0  0.00000000000E+00 -0.00000000000E+00 -0.71432683312E+03  0.71432683312E+03  0.25500000000E-02 0.  1.
   -5000001    1    1    2    0    0  0.17994062667E+03  0.62421058411E+02 -0.27386453906E+03  0.41686545001E+03  0.25000000000E+03 0.  0.
    5000001    1    1    2    0    0 -0.17994062667E+03 -0.62421058411E+02 -0.30203417337E+03  0.43588950382E+03  0.25000000000E+03 0.  0.
<mgrwt>
<rscale>  0 0.62891310E+03</rscale>
<asrwt>0</asrwt>
<pdfrwt beam="1">  1        2 0.10989643E+00 0.62891310E+03</pdfrwt>
<pdfrwt beam="2">  1       -2 0.21296634E-01 0.62891310E+03</pdfrwt>
<totfact> 0.76685213E+02</totfact>
</mgrwt>
</event>
<event>
 4    1  0.6739609E-006  0.6986807E+03  0.7818608E-02  0.9719491E-01
         -2   -1    0    0    0  501 -0.00000000000E+00  0.00000000000E+00  0.11374749071E+03  0.11374749074E+03  0.25500000000E-02 0. -1.
          2   -1    0    0  501    0  0.00000000000E+00 -0.00000000000E+00 -0.10728913221E+04  0.10728913221E+04  0.25500000000E-02 0.  1.
   -5000001    1    1    2    0    0 -0.62658047635E+01  0.23556608426E+03 -0.37204761406E+03  0.50640899231E+03  0.25000000000E+03 0.  0.
    5000001    1    1    2    0    0  0.62658047635E+01 -0.23556608426E+03 -0.58709621737E+03  0.68022982059E+03  0.25000000000E+03 0.  0.
<mgrwt>
<rscale>  0 0.69868074E+03</rscale>
<asrwt>0</asrwt>
<pdfrwt beam="1">  1        2 0.16506020E+00 0.69868074E+03</pdfrwt>
<pdfrwt beam="2">  1       -2 0.17499615E-01 0.69868074E+03</pdfrwt>
<totfact> 0.61448176E+02</totfact>
</mgrwt>
</event>
<event>
 4    1  0.6739609E-006  0.2233105E+04  0.7818608E-02  0.8504774E-01
          2   -1    0    0  501    0  0.00000000000E+00  0.00000000000E+00  0.89666955815E+03  0.89666955815E+03  0.25500000000E-02 0.  1.
         -2   -1    0    0    0  501 -0.00000000000E+00 -0.00000000000E+00 -0.13903554528E+04  0.13903554528E+04  0.25500000000E-02 0. -1.
   -5000001    1    1    2    0    0 -0.90307643842E+03  0.39153996010E+03  0.22840794755E+03  0.10409230445E+04  0.25000000000E+03 0.  0.
    5000001    1    1    2    0    0  0.90307643842E+03 -0.39153996010E+03 -0.72209384221E+03  0.12461019665E+04  0.25000000000E+03 0.  0.
<mgrwt>
<rscale>  0 0.22331049E+04</rscale>
<asrwt>0</asrwt>
<pdfrwt beam="1">  1        2 0.13794916E+00 0.22331049E+04</pdfrwt>
<pdfrwt beam="2">  1       -2 0.21390084E+00 0.22331049E+04</pdfrwt>
<totfact> 0.29031324E+00</totfact>
</mgrwt>
</event>
<event>
 4    1  0.6739609E-006  0.9875713E+03  0.7818608E-02  0.9322282E-01
          2   -1    0    0  501    0  0.00000000000E+00  0.00000000000E+00  0.25645043552E+04  0.25645043552E+04  0.25500000000E-02 0.  1.
         -2   -1    0    0    0  501 -0.00000000000E+00 -0.00000000000E+00 -0.95076575048E+02  0.95076575082E+02  0.25500000000E-02 0. -1.
   -5000001    1    1    2    0    0  0.42326818291E+03  0.11428137592E+02  0.13562816625E+04  0.14426664566E+04  0.25000000000E+03 0.  0.
    5000001    1    1    2    0    0 -0.42326818291E+03 -0.11428137592E+02  0.11131461177E+04  0.12169144737E+04  0.25000000000E+03 0.  0.
<mgrwt>
<rscale>  0 0.98757135E+03</rscale>
<asrwt>0</asrwt>
<pdfrwt beam="1">  1        2 0.39453918E+00 0.98757135E+03</pdfrwt>
<pdfrwt beam="2">  1       -2 0.14627164E-01 0.98757135E+03</pdfrwt>
<totfact> 0.11855686E+02</totfact>
</mgrwt>
</event>
<event>
 4    1  0.6739609E-006  0.9359723E+03  0.7818608E-02  0.9381699E-01
         -2   -1    0    0    0  501 -0.00000000000E+00  0.00000000000E+00  0.10278825337E+04  0.10278825337E+04  0.25500000000E-02 0. -1.
          2   -1    0    0  501    0  0.00000000000E+00 -0.00000000000E+00 -0.21307008897E+03  0.21307008898E+03  0.25500000000E-02 0.  1.
   -5000001    1    1    2    0    0 -0.35781090619E+03  0.12174647297E+03  0.25244595941E+03  0.51872903398E+03  0.25000000000E+03 0.  0.
    5000001    1    1    2    0    0  0.35781090619E+03 -0.12174647297E+03  0.56236648530E+03  0.72222358869E+03  0.25000000000E+03 0.  0.
<mgrwt>
<rscale>  0 0.93597227E+03</rscale>
<asrwt>0</asrwt>
<pdfrwt beam="1">  1        2 0.32780014E-01 0.93597227E+03</pdfrwt>
<pdfrwt beam="2">  1       -2 0.15813577E+00 0.93597227E+03</pdfrwt>
<totfact> 0.41931667E+01</totfact>
</mgrwt>
</event>
<event>
 4    1  0.6739609E-006  0.9324212E+03  0.7818608E-02  0.9385937E-01
         -2   -1    0    0    0  501 -0.00000000000E+00  0.00000000000E+00  0.69269986674E+02  0.69269986721E+02  0.25500000000E-02 0. -1.
          2   -1    0    0  501    0  0.00000000000E+00 -0.00000000000E+00 -0.31377563220E+04  0.31377563220E+04  0.25500000000E-02 0.  1.
   -5000001    1    1    2    0    0 -0.95768086546E+02 -0.20115869097E+03 -0.26499015893E+04  0.26709763717E+04  0.25000000000E+03 0.  0.
    5000001    1    1    2    0    0  0.95768086546E+02  0.20115869097E+03 -0.41858474605E+03  0.53604993702E+03  0.25000000000E+03 0.  0.
<mgrwt>
<rscale>  0 0.93242123E+03</rscale>
<asrwt>0</asrwt>
<pdfrwt beam="1">  1        2 0.48273163E+00 0.93242123E+03</pdfrwt>
<pdfrwt beam="2">  1       -2 0.10656923E-01 0.93242123E+03</pdfrwt>
<totfact> 0.91370635E+01</totfact>
</mgrwt>
</event>
<event>
 4    1  0.6739609E-006  0.5689020E+03  0.7818608E-02  0.9972111E-01
          2   -1    0    0  501    0  0.00000000000E+00  0.00000000000E+00  0.24001730243E+04  0.24001730243E+04  0.25500000000E-02 0.  1.
         -2   -1    0    0    0  501 -0.00000000000E+00 -0.00000000000E+00 -0.33711057159E+02  0.33711057256E+02  0.25500000000E-02 0. -1.
   -5000001    1    1    2    0    0 -0.59769864567E+02 -0.28472399945E+02  0.16899646408E+04  0.17096384417E+04  0.25000000000E+03 0.  0.
    5000001    1    1    2    0    0  0.59769864567E+02  0.28472399945E+02  0.67649732633E+03  0.72424563982E+03  0.25000000000E+03 0.  0.
<mgrwt>
<rscale>  0 0.56890200E+03</rscale>
<asrwt>0</asrwt>
<pdfrwt beam="1">  1        2 0.36925750E+00 0.56890200E+03</pdfrwt>
<pdfrwt beam="2">  1       -2 0.51863150E-02 0.56890200E+03</pdfrwt>
<totfact> 0.81350208E+02</totfact>
</mgrwt>
</event>
<event>
 4    1  0.6739609E-006  0.1352916E+04  0.7818608E-02  0.8988623E-01
         -2   -1    0    0    0  501 -0.00000000000E+00  0.00000000000E+00  0.86273178056E+03  0.86273178057E+03  0.25500000000E-02 0. -1.
          2   -1    0    0  501    0  0.00000000000E+00 -0.00000000000E+00 -0.53040321611E+03  0.53040321612E+03  0.25500000000E-02 0.  1.
   -5000001    1    1    2    0    0  0.42964148655E+03 -0.38197590774E+03 -0.95553247245E+02  0.63413549350E+03  0.25000000000E+03 0.  0.
    5000001    1    1    2    0    0 -0.42964148655E+03  0.38197590774E+03  0.42788181169E+03  0.75899950319E+03  0.25000000000E+03 0.  0.
<mgrwt>
<rscale>  0 0.13529164E+04</rscale>
<asrwt>0</asrwt>
<pdfrwt beam="1">  1        2 0.81600495E-01 0.13529164E+04</pdfrwt>
<pdfrwt beam="2">  1       -2 0.13272797E+00 0.13529164E+04</pdfrwt>
<totfact> 0.23107227E+01</totfact>
</mgrwt>
</event>
<event>
 4    1  0.6739609E-006  0.7433845E+03  0.7818608E-02  0.9645786E-01
          2   -1    0    0  501    0  0.00000000000E+00  0.00000000000E+00  0.24286890292E+04  0.24286890292E+04  0.25500000000E-02 0.  1.
         -2   -1    0    0    0  501 -0.00000000000E+00 -0.00000000000E+00 -0.56884657029E+02  0.56884657086E+02  0.25500000000E-02 0. -1.
   -5000001    1    1    2    0    0  0.23984205512E+03  0.13257689535E+03  0.12646221257E+04  0.13179036252E+04  0.25000000000E+03 0.  0.
    5000001    1    1    2    0    0 -0.23984205512E+03 -0.13257689535E+03  0.11071822464E+04  0.11676700610E+04  0.25000000000E+03 0.  0.
<mgrwt>
<rscale>  0 0.74338454E+03</rscale>
<asrwt>0</asrwt>
<pdfrwt beam="1">  1        2 0.37364446E+00 0.74338454E+03</pdfrwt>
<pdfrwt beam="2">  1       -2 0.87514858E-02 0.74338454E+03</pdfrwt>
<totfact> 0.33788687E+02</totfact>
</mgrwt>
</event>
<event>
 4    1  0.6739609E-006  0.1605903E+04  0.7818608E-02  0.8816930E-01
         -2   -1    0    0    0  501 -0.00000000000E+00  0.00000000000E+00  0.83453353102E+03  0.83453353102E+03  0.25500000000E-02 0. -1.
          2   -1    0    0  501    0  0.00000000000E+00 -0.00000000000E+00 -0.77256487615E+03  0.77256487615E+03  0.25500000000E-02 0.  1.
   -5000001    1    1    2    0    0 -0.39626207441E+02  0.70135026010E+03 -0.26717846450E+03  0.79205224294E+03  0.25000000000E+03 0.  0.
    5000001    1    1    2    0    0  0.39626207441E+02 -0.70135026010E+03  0.32914711936E+03  0.81504616424E+03  0.25000000000E+03 0.  0.
<mgrwt>
<rscale>  0 0.16059032E+04</rscale>
<asrwt>0</asrwt>
<pdfrwt beam="1">  1        2 0.11885613E+00 0.16059032E+04</pdfrwt>
<pdfrwt beam="2">  1       -2 0.12838977E+00 0.16059032E+04</pdfrwt>
<totfact> 0.15495446E+01</totfact>
</mgrwt>
</event>
<event>
 4    1  0.6739609E-006  0.1506937E+04  0.7818608E-02  0.8879853E-01
         -2   -1    0    0    0  501 -0.00000000000E+00  0.00000000000E+00  0.46662673259E+03  0.46662673259E+03  0.25500000000E-02 0. -1.
          2   -1    0    0  501    0  0.00000000000E+00 -0.00000000000E+00 -0.12166355904E+04  0.12166355904E+04  0.25500000000E-02 0.  1.
   -5000001    1    1    2    0    0 -0.58667447793E+03  0.46412149865E+02  0.70223798271E+02  0.64325143805E+03  0.25000000000E+03 0.  0.
    5000001    1    1    2    0    0  0.58667447793E+03 -0.46412149865E+02 -0.82023265613E+03  0.10400108850E+04  0.25000000000E+03 0.  0.
<mgrwt>
<rscale>  0 0.15069369E+04</rscale>
<asrwt>0</asrwt>
<pdfrwt beam="1">  1        2 0.18717471E+00 0.15069369E+04</pdfrwt>
<pdfrwt beam="2">  1       -2 0.71788728E-01 0.15069369E+04</pdfrwt>
<totfact> 0.31446671E+01</totfact>
</mgrwt>
</event>
<event>
 4    1  0.6739609E-006  0.2076432E+04  0.7818608E-02  0.8571697E-01
          2   -1    0    0  501    0  0.00000000000E+00  0.00000000000E+00  0.35408759119E+04  0.35408759119E+04  0.25500000000E-02 0.  1.
         -2   -1    0    0    0  501 -0.00000000000E+00 -0.00000000000E+00 -0.30441408843E+03  0.30441408844E+03  0.25500000000E-02 0. -1.
   -5000001    1    1    2    0    0 -0.85300399354E+03 -0.22068938336E+03  0.71275573977E+03  0.11605345154E+04  0.25000000000E+03 0.  0.
    5000001    1    1    2    0    0  0.85300399354E+03  0.22068938336E+03  0.25237060837E+04  0.26847554849E+04  0.25000000000E+03 0.  0.
<mgrwt>
<rscale>  0 0.20764320E+04</rscale>
<asrwt>0</asrwt>
<pdfrwt beam="1">  1        2 0.54475015E+00 0.20764320E+04</pdfrwt>
<pdfrwt beam="2">  1       -2 0.46832936E-01 0.20764320E+04</pdfrwt>
<totfact> 0.30516464E+00</totfact>
</mgrwt>
</event>
<event>
 4    1  0.6739609E-006  0.7129208E+03  0.7818608E-02  0.9695388E-01
         -2   -1    0    0    0  501 -0.00000000000E+00  0.00000000000E+00  0.10120989975E+04  0.10120989975E+04  0.25500000000E-02 0. -1.
          2   -1    0    0  501    0  0.00000000000E+00 -0.00000000000E+00 -0.12554504623E+03  0.12554504625E+03  0.25500000000E-02 0.  1.
   -5000001    1    1    2    0    0  0.17258808861E+03 -0.71041640991E+02  0.71842466658E+03  0.78324170256E+03  0.25000000000E+03 0.  0.
    5000001    1    1    2    0    0 -0.17258808861E+03  0.71041640991E+02  0.16812928472E+03  0.35440234122E+03  0.25000000000E+03 0.  0.
<mgrwt>
<rscale>  0 0.71292080E+03</rscale>
<asrwt>0</asrwt>
<pdfrwt beam="1">  1        2 0.19314623E-01 0.71292080E+03</pdfrwt>
<pdfrwt beam="2">  1       -2 0.15570754E+00 0.71292080E+03</pdfrwt>
<totfact> 0.81345689E+01</totfact>
</mgrwt>
</event>
<event>
 4    1  0.6739609E-006  0.7383300E+03  0.7818608E-02  0.9653839E-01
          2   -1    0    0  501    0  0.00000000000E+00  0.00000000000E+00  0.86675056143E+03  0.86675056143E+03  0.25500000000E-02 0.  1.
         -2   -1    0    0    0  501 -0.00000000000E+00 -0.00000000000E+00 -0.15723417306E+03  0.15723417309E+03  0.25500000000E-02 0. -1.
   -5000001    1    1    2    0    0 -0.15229215160E+03 -0.22110958772E+03  0.41194896865E+03  0.55161970776E+03  0.25000000000E+03 0.  0.
    5000001    1    1    2    0    0  0.15229215160E+03  0.22110958772E+03  0.29756741972E+03  0.47236502675E+03  0.25000000000E+03 0.  0.
<mgrwt>
<rscale>  0 0.73833003E+03</rscale>
<asrwt>0</asrwt>
<pdfrwt beam="1">  1        2 0.13334624E+00 0.73833003E+03</pdfrwt>
<pdfrwt beam="2">  1       -2 0.24189873E-01 0.73833003E+03</pdfrwt>
<totfact> 0.47273195E+02</totfact>
</mgrwt>
</event>
<event>
 4    1  0.6739609E-006  0.6851517E+03  0.7818608E-02  0.9742967E-01
          2   -1    0    0  501    0  0.00000000000E+00  0.00000000000E+00  0.24995534384E+04  0.24995534384E+04  0.25500000000E-02 0.  1.
         -2   -1    0    0    0  501 -0.00000000000E+00 -0.00000000000E+00 -0.46951669909E+02  0.46951669978E+02  0.25500000000E-02 0. -1.
   -5000001    1    1    2    0    0  0.21295926144E+03  0.97434118198E+02  0.12397805949E+04  0.12862351954E+04  0.25000000000E+03 0.  0.
    5000001    1    1    2    0    0 -0.21295926144E+03 -0.97434118198E+02  0.12128211736E+04  0.12602699130E+04  0.25000000000E+03 0.  0.
<mgrwt>
<rscale>  0 0.68515169E+03</rscale>
<asrwt>0</asrwt>
<pdfrwt beam="1">  1        2 0.38454672E+00 0.68515169E+03</pdfrwt>
<pdfrwt beam="2">  1       -2 0.72233331E-02 0.68515169E+03</pdfrwt>
<totfact> 0.42108702E+02</totfact>
</mgrwt>
</event>
<event>
 4    1  0.6739609E-006  0.6893704E+03  0.7818608E-02  0.9735585E-01
          2   -1    0    0  501    0  0.00000000000E+00  0.00000000000E+00  0.28178496164E+03  0.28178496166E+03  0.25500000000E-02 0.  1.
         -2   -1    0    0    0  501 -0.00000000000E+00 -0.00000000000E+00 -0.42162613363E+03  0.42162613363E+03  0.25500000000E-02 0. -1.
   -5000001    1    1    2    0    0  0.23535334244E+03  0.13020651436E+02 -0.42029432286E+02  0.34616066550E+03  0.25000000000E+03 0.  0.
    5000001    1    1    2    0    0 -0.23535334244E+03 -0.13020651436E+02 -0.97811739695E+02  0.35725042979E+03  0.25000000000E+03 0.  0.
<mgrwt>
<rscale>  0 0.68937045E+03</rscale>
<asrwt>0</asrwt>
<pdfrwt beam="1">  1        2 0.43351532E-01 0.68937045E+03</pdfrwt>
<pdfrwt beam="2">  1       -2 0.64865559E-01 0.68937045E+03</pdfrwt>
<totfact> 0.26075126E+02</totfact>
</mgrwt>
</event>
<event>
 4    1  0.6739609E-006  0.6475713E+03  0.7818608E-02  0.9811347E-01
          2   -1    0    0  501    0  0.00000000000E+00  0.00000000000E+00  0.61527956460E+03  0.61527956460E+03  0.25500000000E-02 0.  1.
         -2   -1    0    0    0  501 -0.00000000000E+00 -0.00000000000E+00 -0.17038944415E+03  0.17038944417E+03  0.25500000000E-02 0. -1.
   -5000001    1    1    2    0    0  0.13754636126E+03 -0.14934211215E+03  0.18193115669E+03  0.36989324640E+03  0.25000000000E+03 0.  0.
    5000001    1    1    2    0    0 -0.13754636126E+03  0.14934211215E+03  0.26295896376E+03  0.41577576238E+03  0.25000000000E+03 0.  0.
<mgrwt>
<rscale>  0 0.64757129E+03</rscale>
<asrwt>0</asrwt>
<pdfrwt beam="1">  1        2 0.94658394E-01 0.64757129E+03</pdfrwt>
<pdfrwt beam="2">  1       -2 0.26213761E-01 0.64757129E+03</pdfrwt>
<totfact> 0.63617533E+02</totfact>
</mgrwt>
</event>
<event>
 4    1  0.6739609E-006  0.2271065E+04  0.7818608E-02  0.8489418E-01
          2   -1    0    0  501    0  0.00000000000E+00  0.00000000000E+00  0.32783071051E+04  0.32783071051E+04  0.25500000000E-02 0.  1.
         -2   -1    0    0    0  501 -0.00000000000E+00 -0.00000000000E+00 -0.39332301121E+03  0.39332301121E+03  0.25500000000E-02 0. -1.
   -5000001    1    1    2    0    0  0.92209089258E+03  0.37114951482E+03  0.65224148063E+03  0.12148755186E+04  0.25000000000E+03 0.  0.
    5000001    1    1    2    0    0 -0.92209089258E+03 -0.37114951482E+03  0.22327426133E+04  0.24567545978E+04  0.25000000000E+03 0.  0.
<mgrwt>
<rscale>  0 0.22710646E+04</rscale>
<asrwt>0</asrwt>
<pdfrwt beam="1">  1        2 0.50435491E+00 0.22710646E+04</pdfrwt>
<pdfrwt beam="2">  1       -2 0.60511236E-01 0.22710646E+04</pdfrwt>
<totfact> 0.26670113E+00</totfact>
</mgrwt>
</event>
<event>
 4    1  0.6739609E-006  0.1078671E+04  0.7818608E-02  0.9226233E-01
         -2   -1    0    0    0  501 -0.00000000000E+00  0.00000000000E+00  0.15686390379E+03  0.15686390381E+03  0.25500000000E-02 0.  1.
          2   -1    0    0  501    0  0.00000000000E+00 -0.00000000000E+00 -0.18543653639E+04  0.18543653639E+04  0.25500000000E-02 0. -1.
   -5000001    1    1    2    0    0 -0.32954120569E+03 -0.55493572452E+02 -0.14857209109E+04  0.15432250542E+04  0.25000000000E+03 0.  0.
    5000001    1    1    2    0    0  0.32954120569E+03  0.55493572452E+02 -0.21178054921E+03  0.46800421350E+03  0.25000000000E+03 0.  0.
<mgrwt>
<rscale>  0 0.10786714E+04</rscale>
<asrwt>0</asrwt>
<pdfrwt beam="1">  1        2 0.28528696E+00 0.10786714E+04</pdfrwt>
<pdfrwt beam="2">  1       -2 0.24132910E-01 0.10786714E+04</pdfrwt>
<totfact> 0.12251007E+02</totfact>
</mgrwt>
</event>
<event>
 4    1  0.6739609E-006  0.1189059E+04  0.7818608E-02  0.9122488E-01
         -2   -1    0    0    0  501 -0.00000000000E+00  0.00000000000E+00  0.30714185010E+03  0.30714185011E+03  0.25500000000E-02 0. -1.
          2   -1    0    0  501    0  0.00000000000E+00 -0.00000000000E+00 -0.11508201824E+04  0.11508201825E+04  0.25500000000E-02 0.  1.
   -5000001    1    1    2    0    0 -0.41996588234E+02  0.53236593810E+03 -0.32855648115E+03  0.67500116057E+03  0.25000000000E+03 0.  0.
    5000001    1    1    2    0    0  0.41996588234E+02 -0.53236593810E+03 -0.51512185121E+03  0.78296087199E+03  0.25000000000E+03 0.  0.
<mgrwt>
<rscale>  0 0.11890585E+04</rscale>
<asrwt>0</asrwt>
<pdfrwt beam="1">  1        2 0.17704926E+00 0.11890585E+04</pdfrwt>
<pdfrwt beam="2">  1       -2 0.47252593E-01 0.11890585E+04</pdfrwt>
<totfact> 0.84968355E+01</totfact>
</mgrwt>
</event>
<event>
 4    1  0.6739609E-006  0.7913072E+03  0.7818608E-02  0.9572685E-01
          2   -1    0    0  501    0  0.00000000000E+00  0.00000000000E+00  0.12838362497E+04  0.12838362497E+04  0.25500000000E-02 0.  1.
         -2   -1    0    0    0  501 -0.00000000000E+00 -0.00000000000E+00 -0.12193283167E+03  0.12193283169E+03  0.25500000000E-02 0. -1.
   -5000001    1    1    2    0    0  0.29992933017E+03 -0.42418292128E+02  0.49603365318E+03  0.63269763687E+03  0.25000000000E+03 0.  0.
    5000001    1    1    2    0    0 -0.29992933017E+03  0.42418292128E+02  0.66586976483E+03  0.77307144451E+03  0.25000000000E+03 0.  0.
<mgrwt>
<rscale>  0 0.79130725E+03</rscale>
<asrwt>0</asrwt>
<pdfrwt beam="1">  1        2 0.19751328E+00 0.79130725E+03</pdfrwt>
<pdfrwt beam="2">  1       -2 0.18758896E-01 0.79130725E+03</pdfrwt>
<totfact> 0.40617974E+02</totfact>
</mgrwt>
</event>
<event>
 4    1  0.6739609E-006  0.7305281E+03  0.7818608E-02  0.9666404E-01
         -2   -1    0    0    0  501 -0.00000000000E+00  0.00000000000E+00  0.48513041087E+03  0.48513041088E+03  0.25500000000E-02 0. -1.
          2   -1    0    0  501    0  0.00000000000E+00 -0.00000000000E+00 -0.27501434273E+03  0.27501434274E+03  0.25500000000E-02 0.  1.
   -5000001    1    1    2    0    0  0.14338265842E+03 -0.21237796249E+03  0.18048713713E+03  0.40092217744E+03  0.25000000000E+03 0.  0.
    5000001    1    1    2    0    0 -0.14338265842E+03  0.21237796249E+03  0.29628931009E+02  0.35922257619E+03  0.25000000000E+03 0.  0.
<mgrwt>
<rscale>  0 0.73052809E+03</rscale>
<asrwt>0</asrwt>
<pdfrwt beam="1">  1        2 0.42309899E-01 0.73052809E+03</pdfrwt>
<pdfrwt beam="2">  1       -2 0.74635447E-01 0.73052809E+03</pdfrwt>
<totfact> 0.19711129E+02</totfact>
</mgrwt>
</event>
<event>
 4    1  0.6739609E-006  0.9396489E+03  0.7818608E-02  0.9377332E-01
         -2   -1    0    0    0  501 -0.00000000000E+00  0.00000000000E+00  0.33186312771E+03  0.33186312772E+03  0.25500000000E-02 0. -1.
          2   -1    0    0  501    0  0.00000000000E+00 -0.00000000000E+00 -0.66513864699E+03  0.66513864699E+03  0.25500000000E-02 0.  1.
   -5000001    1    1    2    0    0  0.10303251600E+03  0.23097101563E+03  0.15913965477E+03  0.38960074324E+03  0.25000000000E+03 0.  0.
    5000001    1    1    2    0    0 -0.10303251600E+03 -0.23097101563E+03 -0.49241517404E+03  0.60740103148E+03  0.25000000000E+03 0.  0.
<mgrwt>
<rscale>  0 0.93964885E+03</rscale>
<asrwt>0</asrwt>
<pdfrwt beam="1">  1        2 0.10232902E+00 0.93964885E+03</pdfrwt>
<pdfrwt beam="2">  1       -2 0.51055866E-01 0.93964885E+03</pdfrwt>
<totfact> 0.15866910E+02</totfact>
</mgrwt>
</event>
<event>
 4    1  0.6739609E-006  0.6217924E+03  0.7818608E-02  0.9861197E-01
         -2   -1    0    0    0  501 -0.00000000000E+00  0.00000000000E+00  0.13070165444E+03  0.13070165447E+03  0.25500000000E-02 0. -1.
          2   -1    0    0  501    0  0.00000000000E+00 -0.00000000000E+00 -0.73951976674E+03  0.73951976675E+03  0.25500000000E-02 0.  1.
   -5000001    1    1    2    0    0 -0.64036122894E+02 -0.11351754001E+03 -0.12102379505E+03  0.30681202045E+03  0.25000000000E+03 0.  0.
    5000001    1    1    2    0    0  0.64036122894E+02  0.11351754001E+03 -0.48779431725E+03  0.56340940076E+03  0.25000000000E+03 0.  0.
<mgrwt>
<rscale>  0 0.62179243E+03</rscale>
<asrwt>0</asrwt>
<pdfrwt beam="1">  1        2 0.11377227E+00 0.62179243E+03</pdfrwt>
<pdfrwt beam="2">  1       -2 0.20107947E-01 0.62179243E+03</pdfrwt>
<totfact> 0.81163137E+02</totfact>
</mgrwt>
</event>
<event>
 4    1  0.6739609E-006  0.5766093E+03  0.7818608E-02  0.9955159E-01
          2   -1    0    0  501    0  0.00000000000E+00  0.00000000000E+00  0.10852203162E+04  0.10852203162E+04  0.25500000000E-02 0. -1.
         -2   -1    0    0    0  501 -0.00000000000E+00 -0.00000000000E+00 -0.76592349610E+02  0.76592349653E+02  0.25500000000E-02 0.  1.
   -5000001    1    1    2    0    0 -0.14005626572E+03 -0.17060208682E+02  0.45052072841E+03  0.53420570478E+03  0.25000000000E+03 0.  0.
    5000001    1    1    2    0    0  0.14005626572E+03  0.17060208682E+02  0.55810723820E+03  0.62760696110E+03  0.25000000000E+03 0.  0.
<mgrwt>
<rscale>  0 0.57660931E+03</rscale>
<asrwt>0</asrwt>
<pdfrwt beam="1">  1        2 0.16695697E+00 0.57660931E+03</pdfrwt>
<pdfrwt beam="2">  1       -2 0.11783439E-01 0.57660931E+03</pdfrwt>
<totfact> 0.11781333E+03</totfact>
</mgrwt>
</event>
<event>
 4    1  0.6739609E-006  0.7061099E+03  0.7818608E-02  0.9706840E-01
         -2   -1    0    0    0  501 -0.00000000000E+00  0.00000000000E+00  0.72109434416E+02  0.72109434461E+02  0.25500000000E-02 0. -1.
          2   -1    0    0  501    0  0.00000000000E+00 -0.00000000000E+00 -0.17285919473E+04  0.17285919473E+04  0.25500000000E-02 0.  1.
   -5000001    1    1    2    0    0  0.24658653934E+03 -0.30864144743E+02 -0.87862059835E+03  0.94669513185E+03  0.25000000000E+03 0.  0.
    5000001    1    1    2    0    0 -0.24658653934E+03  0.30864144743E+02 -0.77786191454E+03  0.85400624992E+03  0.25000000000E+03 0.  0.
<mgrwt>
<rscale>  0 0.70610987E+03</rscale>
<asrwt>0</asrwt>
<pdfrwt beam="1">  1        2 0.26593719E+00 0.70610987E+03</pdfrwt>
<pdfrwt beam="2">  1       -2 0.11093760E-01 0.70610987E+03</pdfrwt>
<totfact> 0.55845221E+02</totfact>
</mgrwt>
</event>
<event>
 4    1  0.6739609E-006  0.6494871E+03  0.7818608E-02  0.9807742E-01
         -2   -1    0    0    0  501 -0.00000000000E+00  0.00000000000E+00  0.12117772454E+03  0.12117772456E+03  0.25500000000E-02 0. -1.
          2   -1    0    0  501    0  0.00000000000E+00 -0.00000000000E+00 -0.87027845549E+03  0.87027845550E+03  0.25500000000E-02 0.  1.
   -5000001    1    1    2    0    0 -0.11030781469E+03  0.14682780727E+03 -0.52122475882E+03  0.60654881764E+03  0.25000000000E+03 0.  0.
    5000001    1    1    2    0    0  0.11030781469E+03 -0.14682780727E+03 -0.22787597213E+03  0.38490736242E+03  0.25000000000E+03 0.  0.
<mgrwt>
<rscale>  0 0.64948707E+03</rscale>
<asrwt>0</asrwt>
<pdfrwt beam="1">  1        2 0.13388899E+00 0.64948707E+03</pdfrwt>
<pdfrwt beam="2">  1       -2 0.18642727E-01 0.64948707E+03</pdfrwt>
<totfact> 0.74608699E+02</totfact>
</mgrwt>
</event>
<event>
 4    1  0.6739609E-006  0.1405775E+04  0.7818608E-02  0.8949649E-01
         -2   -1    0    0    0  501 -0.00000000000E+00  0.00000000000E+00  0.28567307464E+03  0.28567307465E+03  0.25500000000E-02 0. -1.
          2   -1    0    0  501    0  0.00000000000E+00 -0.00000000000E+00 -0.17294272252E+04  0.17294272252E+04  0.25500000000E-02 0.  1.
   -5000001    1    1    2    0    0  0.39040347832E+03  0.50598732474E+03 -0.93980186083E+03  0.11636862061E+04  0.25000000000E+03 0.  0.
    5000001    1    1    2    0    0 -0.39040347832E+03 -0.50598732474E+03 -0.50395228975E+03  0.85141409375E+03  0.25000000000E+03 0.  0.
<mgrwt>
<rscale>  0 0.14057749E+04</rscale>
<asrwt>0</asrwt>
<pdfrwt beam="1">  1        2 0.26606572E+00 0.14057749E+04</pdfrwt>
<pdfrwt beam="2">  1       -2 0.43949705E-01 0.14057749E+04</pdfrwt>
<totfact> 0.45105491E+01</totfact>
</mgrwt>
</event>
<event>
 4    1  0.6739609E-006  0.7001316E+03  0.7818608E-02  0.9717007E-01
         -2   -1    0    0    0  501 -0.00000000000E+00  0.00000000000E+00  0.10421671630E+03  0.10421671633E+03  0.25500000000E-02 0. -1.
          2   -1    0    0  501    0  0.00000000000E+00 -0.00000000000E+00 -0.11758771043E+04  0.11758771043E+04  0.25500000000E-02 0.  1.
   -5000001    1    1    2    0    0  0.22139139867E+03 -0.11440073944E+02 -0.34493464967E+03  0.48023425454E+03  0.25000000000E+03 0.  0.
    5000001    1    1    2    0    0 -0.22139139867E+03  0.11440073944E+02 -0.72672573829E+03  0.79985956604E+03  0.25000000000E+03 0.  0.
<mgrwt>
<rscale>  0 0.70013156E+03</rscale>
<asrwt>0</asrwt>
<pdfrwt beam="1">  1        2 0.18090416E+00 0.70013156E+03</pdfrwt>
<pdfrwt beam="2">  1       -2 0.16033342E-01 0.70013156E+03</pdfrwt>
<totfact> 0.61822005E+02</totfact>
</mgrwt>
</event>
<event>
 4    1  0.6739609E-006  0.8888431E+03  0.7818608E-02  0.9439637E-01
         -2   -1    0    0    0  501 -0.00000000000E+00  0.00000000000E+00  0.87731495439E+02  0.87731495476E+02  0.25500000000E-02 0. -1.
          2   -1    0    0  501    0  0.00000000000E+00 -0.00000000000E+00 -0.22513066799E+04  0.22513066799E+04  0.25500000000E-02 0.  1.
   -5000001    1    1    2    0    0 -0.35433374439E+03 -0.73520305529E+02 -0.91425734298E+03  0.10145561231E+04  0.25000000000E+03 0.  0.
    5000001    1    1    2    0    0  0.35433374439E+03  0.73520305529E+02 -0.12493178414E+04  0.13244820522E+04  0.25000000000E+03 0.  0.
<mgrwt>
<rscale>  0 0.88884307E+03</rscale>
<asrwt>0</asrwt>
<pdfrwt beam="1">  1        2 0.34635483E+00 0.88884307E+03</pdfrwt>
<pdfrwt beam="2">  1       -2 0.13497155E-01 0.88884307E+03</pdfrwt>
<totfact> 0.20581954E+02</totfact>
</mgrwt>
</event>
<event>
 4    1  0.6739609E-006  0.5813729E+03  0.7818608E-02  0.9944823E-01
         -2   -1    0    0    0  501 -0.00000000000E+00  0.00000000000E+00  0.79182587615E+02  0.79182587656E+02  0.25500000000E-02 0. -1.
          2   -1    0    0  501    0  0.00000000000E+00 -0.00000000000E+00 -0.10671363516E+04  0.10671363516E+04  0.25500000000E-02 0.  1.
   -5000001    1    1    2    0    0 -0.41395944398E+02  0.14071929939E+03 -0.53731366946E+03  0.61050923402E+03  0.25000000000E+03 0.  0.
    5000001    1    1    2    0    0  0.41395944398E+02 -0.14071929939E+03 -0.45064009453E+03  0.53580970524E+03  0.25000000000E+03 0.  0.
<mgrwt>
<rscale>  0 0.58137292E+03</rscale>
<asrwt>0</asrwt>
<pdfrwt beam="1">  1        2 0.16417481E+00 0.58137292E+03</pdfrwt>
<pdfrwt beam="2">  1       -2 0.12181937E-01 0.58137292E+03</pdfrwt>
<totfact> 0.11440176E+03</totfact>
</mgrwt>
</event>
<event>
 4    1  0.6739609E-006  0.6693741E+03  0.7818608E-02  0.9771089E-01
         -2   -1    0    0    0  501 -0.00000000000E+00  0.00000000000E+00  0.71106252496E+02  0.71106252542E+02  0.25500000000E-02 0.  1.
          2   -1    0    0  501    0  0.00000000000E+00 -0.00000000000E+00 -0.15753244413E+04  0.15753244413E+04  0.25500000000E-02 0. -1.
   -5000001    1    1    2    0    0 -0.37158484230E+02 -0.21394472794E+03 -0.63256070400E+03  0.71399309787E+03  0.25000000000E+03 0.  0.
    5000001    1    1    2    0    0  0.37158484230E+02  0.21394472794E+03 -0.87165748476E+03  0.93243759593E+03  0.25000000000E+03 0.  0.
<mgrwt>
<rscale>  0 0.66937409E+03</rscale>
<asrwt>0</asrwt>
<pdfrwt beam="1">  1        2 0.24235758E+00 0.66937409E+03</pdfrwt>
<pdfrwt beam="2">  1       -2 0.10939425E-01 0.66937409E+03</pdfrwt>
<totfact> 0.69469810E+02</totfact>
</mgrwt>
</event>
<event>
 4    1  0.6739609E-006  0.9560819E+03  0.7818608E-02  0.9358070E-01
          2   -1    0    0  501    0  0.00000000000E+00  0.00000000000E+00  0.15462154723E+04  0.15462154723E+04  0.25500000000E-02 0.  1.
         -2   -1    0    0    0  501 -0.00000000000E+00 -0.00000000000E+00 -0.14779516341E+03  0.14779516344E+03  0.25500000000E-02 0. -1.
   -5000001    1    1    2    0    0 -0.33226031979E+03 -0.21948472222E+03  0.54625011569E+03  0.72073549398E+03  0.25000000000E+03 0.  0.
    5000001    1    1    2    0    0  0.33226031979E+03  0.21948472222E+03  0.85217019325E+03  0.97327514180E+03  0.25000000000E+03 0.  0.
<mgrwt>
<rscale>  0 0.95608194E+03</rscale>
<asrwt>0</asrwt>
<pdfrwt beam="1">  1        2 0.23787929E+00 0.95608194E+03</pdfrwt>
<pdfrwt beam="2">  1       -2 0.22737719E-01 0.95608194E+03</pdfrwt>
<totfact> 0.20351663E+02</totfact>
</mgrwt>
</event>
<event>
 4    1  0.6739609E-006  0.7933624E+03  0.7818608E-02  0.9569675E-01
          2   -1    0    0  501    0  0.00000000000E+00  0.00000000000E+00  0.33584781595E+03  0.33584781595E+03  0.25500000000E-02 0.  1.
         -2   -1    0    0    0  501 -0.00000000000E+00 -0.00000000000E+00 -0.46853353308E+03  0.46853353309E+03  0.25500000000E-02 0. -1.
   -5000001    1    1    2    0    0 -0.30564700551E+03  0.27212843717E+02 -0.39607451687E+02  0.39778056899E+03  0.25000000000E+03 0.  0.
    5000001    1    1    2    0    0  0.30564700551E+03 -0.27212843717E+02 -0.93078265448E+02  0.40660078005E+03  0.25000000000E+03 0.  0.
<mgrwt>
<rscale>  0 0.79336237E+03</rscale>
<asrwt>0</asrwt>
<pdfrwt beam="1">  1        2 0.51668895E-01 0.79336237E+03</pdfrwt>
<pdfrwt beam="2">  1       -2 0.72082082E-01 0.79336237E+03</pdfrwt>
<totfact> 0.17004368E+02</totfact>
</mgrwt>
</event>
<event>
 4    1  0.6739609E-006  0.7230897E+03  0.7818608E-02  0.9678541E-01
         -2   -1    0    0    0  501 -0.00000000000E+00  0.00000000000E+00  0.46446344599E+03  0.46446344600E+03  0.25500000000E-02 0. -1.
          2   -1    0    0  501    0  0.00000000000E+00 -0.00000000000E+00 -0.28143156961E+03  0.28143156962E+03  0.25500000000E-02 0.  1.
   -5000001    1    1    2    0    0  0.23482397454E+03 -0.38679811819E+02  0.20250226476E+03  0.40018195124E+03  0.25000000000E+03 0.  0.
    5000001    1    1    2    0    0 -0.23482397454E+03  0.38679811819E+02 -0.19470388374E+02  0.34571306438E+03  0.25000000000E+03 0.  0.
<mgrwt>
<rscale>  0 0.72308969E+03</rscale>
<asrwt>0</asrwt>
<pdfrwt beam="1">  1        2 0.43297165E-01 0.72308969E+03</pdfrwt>
<pdfrwt beam="2">  1       -2 0.71455915E-01 0.72308969E+03</pdfrwt>
<totfact> 0.21150484E+02</totfact>
</mgrwt>
</event>
<event>
 4    1  0.6739609E-006  0.6846701E+03  0.7818608E-02  0.9743813E-01
         -2   -1    0    0    0  501 -0.00000000000E+00  0.00000000000E+00  0.53679236036E+03  0.53679236036E+03  0.25500000000E-02 0. -1.
          2   -1    0    0  501    0  0.00000000000E+00 -0.00000000000E+00 -0.21832147071E+03  0.21832147072E+03  0.25500000000E-02 0.  1.
   -5000001    1    1    2    0    0  0.14710998385E+03  0.40054964643E+02 -0.36344559139E+02  0.29507062633E+03  0.25000000000E+03 0.  0.
    5000001    1    1    2    0    0 -0.14710998385E+03 -0.40054964643E+02  0.35481544879E+03  0.46004320476E+03  0.25000000000E+03 0.  0.
<mgrwt>
<rscale>  0 0.68467013E+03</rscale>
<asrwt>0</asrwt>
<pdfrwt beam="1">  1        2 0.33587919E-01 0.68467013E+03</pdfrwt>
<pdfrwt beam="2">  1       -2 0.82583439E-01 0.68467013E+03</pdfrwt>
<totfact> 0.20362234E+02</totfact>
</mgrwt>
</event>
<event>
 4    1  0.6739609E-006  0.6560366E+03  0.7818608E-02  0.9795517E-01
          2   -1    0    0  501    0  0.00000000000E+00  0.00000000000E+00  0.72336176264E+03  0.72336176264E+03  0.25500000000E-02 0.  1.
         -2   -1    0    0    0  501 -0.00000000000E+00 -0.00000000000E+00 -0.14874441004E+03  0.14874441006E+03  0.25500000000E-02 0. -1.
   -5000001    1    1    2    0    0 -0.30254318328E+02 -0.20226502404E+03  0.21129607735E+03  0.38596955325E+03  0.25000000000E+03 0.  0.
    5000001    1    1    2    0    0  0.30254318328E+02  0.20226502404E+03  0.36332127524E+03  0.48613661945E+03  0.25000000000E+03 0.  0.
<mgrwt>
<rscale>  0 0.65603664E+03</rscale>
<asrwt>0</asrwt>
<pdfrwt beam="1">  1        2 0.11128642E+00 0.65603664E+03</pdfrwt>
<pdfrwt beam="2">  1       -2 0.22883755E-01 0.65603664E+03</pdfrwt>
<totfact> 0.66420885E+02</totfact>
</mgrwt>
</event>
<event>
 4    1  0.6739609E-006  0.6197197E+03  0.7818608E-02  0.9865318E-01
          2   -1    0    0  501    0  0.00000000000E+00  0.00000000000E+00  0.98240657617E+03  0.98240657618E+03  0.25500000000E-02 0.  1.
         -2   -1    0    0    0  501 -0.00000000000E+00 -0.00000000000E+00 -0.97732569022E+02  0.97732569055E+02  0.25500000000E-02 0. -1.
   -5000001    1    1    2    0    0 -0.11669291699E+03 -0.75758914240E+02  0.64971462385E+03  0.70991953234E+03  0.25000000000E+03 0.  0.
    5000001    1    1    2    0    0  0.11669291699E+03  0.75758914240E+02  0.23495938330E+03  0.37021961289E+03  0.25000000000E+03 0.  0.
<mgrwt>
<rscale>  0 0.61971967E+03</rscale>
<asrwt>0</asrwt>
<pdfrwt beam="1">  1        2 0.15113947E+00 0.61971967E+03</pdfrwt>
<pdfrwt beam="2">  1       -2 0.15035780E-01 0.61971967E+03</pdfrwt>
<totfact> 0.90918012E+02</totfact>
</mgrwt>
</event>
<event>
 4    1  0.6739609E-006  0.8280093E+03  0.7818608E-02  0.9520337E-01
          2   -1    0    0  501    0  0.00000000000E+00  0.00000000000E+00  0.75410046834E+03  0.75410046835E+03  0.25500000000E-02 0.  1.
         -2   -1    0    0    0  501 -0.00000000000E+00 -0.00000000000E+00 -0.22729048852E+03  0.22729048853E+03  0.25500000000E-02 0. -1.
   -5000001    1    1    2    0    0 -0.18738112834E+03  0.22669569527E+03  0.86025232910E+02  0.39547814884E+03  0.25000000000E+03 0.  0.
    5000001    1    1    2    0    0  0.18738112834E+03 -0.22669569527E+03  0.44078474691E+03  0.58591280804E+03  0.25000000000E+03 0.  0.
<mgrwt>
<rscale>  0 0.82800933E+03</rscale>
<asrwt>0</asrwt>
<pdfrwt beam="1">  1        2 0.11601546E+00 0.82800933E+03</pdfrwt>
<pdfrwt beam="2">  1       -2 0.34967767E-01 0.82800933E+03</pdfrwt>
<totfact> 0.28697504E+02</totfact>
</mgrwt>
</event>
<event>
 4    1  0.6739609E-006  0.6137894E+03  0.7818608E-02  0.9877203E-01
         -2   -1    0    0    0  501 -0.00000000000E+00  0.00000000000E+00  0.27707935703E+03  0.27707935704E+03  0.25500000000E-02 0. -1.
          2   -1    0    0  501    0  0.00000000000E+00 -0.00000000000E+00 -0.33991831775E+03  0.33991831775E+03  0.25500000000E-02 0.  1.
   -5000001    1    1    2    0    0 -0.94424465736E+02 -0.95942520715E+02  0.85651290321E+02  0.29657560679E+03  0.25000000000E+03 0.  0.
    5000001    1    1    2    0    0  0.94424465736E+02  0.95942520715E+02 -0.14849025104E+03  0.32042206800E+03  0.25000000000E+03 0.  0.
<mgrwt>
<rscale>  0 0.61378937E+03</rscale>
<asrwt>0</asrwt>
<pdfrwt beam="1">  1        2 0.52295126E-01 0.61378937E+03</pdfrwt>
<pdfrwt beam="2">  1       -2 0.42627593E-01 0.61378937E+03</pdfrwt>
<totfact> 0.50223413E+02</totfact>
</mgrwt>
</event>
<event>
 4    1  0.6739609E-006  0.1475003E+04  0.7818608E-02  0.8901248E-01
         -2   -1    0    0    0  501 -0.00000000000E+00  0.00000000000E+00  0.35031811108E+03  0.35031811109E+03  0.25500000000E-02 0. -1.
          2   -1    0    0  501    0  0.00000000000E+00 -0.00000000000E+00 -0.15526134761E+04  0.15526134761E+04  0.25500000000E-02 0.  1.
   -5000001    1    1    2    0    0  0.43227760877E+03  0.53808744453E+03 -0.50986229259E+03  0.89379057189E+03  0.25000000000E+03 0.  0.
    5000001    1    1    2    0    0 -0.43227760877E+03 -0.53808744453E+03 -0.69243307246E+03  0.10091410153E+04  0.25000000000E+03 0.  0.
<mgrwt>
<rscale>  0 0.14750032E+04</rscale>
<asrwt>0</asrwt>
<pdfrwt beam="1">  1        2 0.23886361E+00 0.14750032E+04</pdfrwt>
<pdfrwt beam="2">  1       -2 0.53895095E-01 0.14750032E+04</pdfrwt>
<totfact> 0.37209889E+01</totfact>
</mgrwt>
</event>
<event>
 4    1  0.6739609E-006  0.7656377E+03  0.7818608E-02  0.9611132E-01
         -2   -1    0    0    0  501 -0.00000000000E+00  0.00000000000E+00  0.14645598330E+03  0.14645598332E+03  0.25500000000E-02 0. -1.
          2   -1    0    0  501    0  0.00000000000E+00 -0.00000000000E+00 -0.10006438003E+04  0.10006438003E+04  0.25500000000E-02 0.  1.
   -5000001    1    1    2    0    0 -0.28446344943E+03  0.42908039025E+02 -0.37328858545E+03  0.53348375974E+03  0.25000000000E+03 0.  0.
    5000001    1    1    2    0    0  0.28446344943E+03 -0.42908039025E+02 -0.48089923159E+03  0.61361602392E+03  0.25000000000E+03 0.  0.
<mgrwt>
<rscale>  0 0.76563770E+03</rscale>
<asrwt>0</asrwt>
<pdfrwt beam="1">  1        2 0.15394520E+00 0.76563770E+03</pdfrwt>
<pdfrwt beam="2">  1       -2 0.22531690E-01 0.76563770E+03</pdfrwt>
<totfact> 0.43729226E+02</totfact>
</mgrwt>
</event>
<event>
 4    1  0.6739609E-006  0.7543415E+03  0.7818608E-02  0.9628564E-01
         -2   -1    0    0    0  501 -0.00000000000E+00  0.00000000000E+00  0.13230021775E+03  0.13230021777E+03  0.25500000000E-02 0. -1.
          2   -1    0    0  501    0  0.00000000000E+00 -0.00000000000E+00 -0.10752647668E+04  0.10752647668E+04  0.25500000000E-02 0.  1.
   -5000001    1    1    2    0    0 -0.25434129720E+03 -0.11550823335E+03 -0.40497373100E+03  0.55184723450E+03  0.25000000000E+03 0.  0.
    5000001    1    1    2    0    0  0.25434129720E+03  0.11550823335E+03 -0.53799081801E+03  0.65571775003E+03  0.25000000000E+03 0.  0.
<mgrwt>
<rscale>  0 0.75434147E+03</rscale>
<asrwt>0</asrwt>
<pdfrwt beam="1">  1        2 0.16542534E+00 0.75434147E+03</pdfrwt>
<pdfrwt beam="2">  1       -2 0.20353880E-01 0.75434147E+03</pdfrwt>
<totfact> 0.47001939E+02</totfact>
</mgrwt>
</event>
<event>
 4    1  0.6739609E-006  0.7822271E+03  0.7818608E-02  0.9586105E-01
         -2   -1    0    0    0  501 -0.00000000000E+00  0.00000000000E+00  0.10389248481E+03  0.10389248484E+03  0.25500000000E-02 0. -1.
          2   -1    0    0  501    0  0.00000000000E+00 -0.00000000000E+00 -0.14723856851E+04  0.14723856851E+04  0.25500000000E-02 0.  1.
   -5000001    1    1    2    0    0  0.74770987608E+02  0.17598632494E+03 -0.11521177799E+04  0.11943354914E+04  0.25000000000E+03 0.  0.
    5000001    1    1    2    0    0 -0.74770987608E+02 -0.17598632494E+03 -0.21637542034E+03  0.38194267853E+03  0.25000000000E+03 0.  0.
<mgrwt>
<rscale>  0 0.78222710E+03</rscale>
<asrwt>0</asrwt>
<pdfrwt beam="1">  1        2 0.22652086E+00 0.78222710E+03</pdfrwt>
<pdfrwt beam="2">  1       -2 0.15983460E-01 0.78222710E+03</pdfrwt>
<totfact> 0.41810882E+02</totfact>
</mgrwt>
</event>
<event>
 4    1  0.6739609E-006  0.6479051E+03  0.7818608E-02  0.9810718E-01
          2   -1    0    0  501    0  0.00000000000E+00  0.00000000000E+00  0.12856258544E+03  0.12856258546E+03  0.25500000000E-02 0.  1.
         -2   -1    0    0    0  501 -0.00000000000E+00 -0.00000000000E+00 -0.81629693532E+03  0.81629693533E+03  0.25500000000E-02 0. -1.
   -5000001    1    1    2    0    0  0.65794608186E+02 -0.19117041193E+03 -0.28607997612E+03  0.43036822560E+03  0.25000000000E+03 0.  0.
    5000001    1    1    2    0    0 -0.65794608186E+02  0.19117041193E+03 -0.40165437376E+03  0.51449129519E+03  0.25000000000E+03 0.  0.
<mgrwt>
<rscale>  0 0.64790507E+03</rscale>
<asrwt>0</asrwt>
<pdfrwt beam="1">  1        2 0.19778860E-01 0.64790507E+03</pdfrwt>
<pdfrwt beam="2">  1       -2 0.12558414E+00 0.64790507E+03</pdfrwt>
<totfact> 0.13819453E+02</totfact>
</mgrwt>
</event>
<event>
 4    1  0.6739609E-006  0.7033411E+03  0.7818608E-02  0.9711535E-01
          2   -1    0    0  501    0  0.00000000000E+00  0.00000000000E+00  0.27532598804E+03  0.27532598805E+03  0.25500000000E-02 0.  1.
         -2   -1    0    0    0  501 -0.00000000000E+00 -0.00000000000E+00 -0.44918457616E+03  0.44918457617E+03  0.25500000000E-02 0. -1.
   -5000001    1    1    2    0    0 -0.24161845285E+03 -0.48681030755E+02 -0.65746610314E+02  0.35717213817E+03  0.25000000000E+03 0.  0.
    5000001    1    1    2    0    0  0.24161845285E+03  0.48681030755E+02 -0.10811197781E+03  0.36733842606E+03  0.25000000000E+03 0.  0.
<mgrwt>
<rscale>  0 0.70334113E+03</rscale>
<asrwt>0</asrwt>
<pdfrwt beam="1">  1        2 0.42357844E-01 0.70334113E+03</pdfrwt>
<pdfrwt beam="2">  1       -2 0.69105319E-01 0.70334113E+03</pdfrwt>
<totfact> 0.23327122E+02</totfact>
</mgrwt>
</event>
<event>
 4    1  0.6739609E-006  0.6060073E+03  0.7818608E-02  0.9893021E-01
         -2   -1    0    0    0  501 -0.00000000000E+00  0.00000000000E+00  0.74082941880E+02  0.74082941924E+02  0.25500000000E-02 0. -1.
          2   -1    0    0  501    0  0.00000000000E+00 -0.00000000000E+00 -0.12393029264E+04  0.12393029264E+04  0.25500000000E-02 0.  1.
   -5000001    1    1    2    0    0  0.11007982357E+03 -0.10247655816E+03 -0.75990592071E+03  0.81398772771E+03  0.25000000000E+03 0.  0.
    5000001    1    1    2    0    0 -0.11007982357E+03  0.10247655816E+03 -0.40531406381E+03  0.49939814062E+03  0.25000000000E+03 0.  0.
<mgrwt>
<rscale>  0 0.60600728E+03</rscale>
<asrwt>0</asrwt>
<pdfrwt beam="1">  1        2 0.19066197E+00 0.60600728E+03</pdfrwt>
<pdfrwt beam="2">  1       -2 0.11397377E-01 0.60600728E+03</pdfrwt>
<totfact> 0.10068688E+03</totfact>
</mgrwt>
</event>
<event>
 4    1  0.6739609E-006  0.7017599E+03  0.7818608E-02  0.9714227E-01
         -2   -1    0    0    0  501 -0.00000000000E+00  0.00000000000E+00  0.19898310862E+03  0.19898310863E+03  0.25500000000E-02 0. -1.
          2   -1    0    0  501    0  0.00000000000E+00 -0.00000000000E+00 -0.61872956862E+03  0.61872956862E+03  0.25500000000E-02 0.  1.
   -5000001    1    1    2    0    0  0.20073786418E+03  0.12532007579E+03 -0.13070673838E+03  0.36821877053E+03  0.25000000000E+03 0.  0.
    5000001    1    1    2    0    0 -0.20073786418E+03 -0.12532007579E+03 -0.28903972161E+03  0.44949390672E+03  0.25000000000E+03 0.  0.
<mgrwt>
<rscale>  0 0.70175988E+03</rscale>
<asrwt>0</asrwt>
<pdfrwt beam="1">  1        2 0.95189164E-01 0.70175988E+03</pdfrwt>
<pdfrwt beam="2">  1       -2 0.30612786E-01 0.70175988E+03</pdfrwt>
<totfact> 0.47459942E+02</totfact>
</mgrwt>
</event>
<event>
 4    1  0.6739609E-006  0.8457867E+03  0.7818608E-02  0.9496009E-01
         -2   -1    0    0    0  501 -0.00000000000E+00  0.00000000000E+00  0.32917326205E+03  0.32917326206E+03  0.25500000000E-02 0. -1.
          2   -1    0    0  501    0  0.00000000000E+00 -0.00000000000E+00 -0.54329681892E+03  0.54329681893E+03  0.25500000000E-02 0.  1.
   -5000001    1    1    2    0    0  0.31111705065E+03 -0.13209584028E+03 -0.15428435517E+03  0.44782451080E+03  0.25000000000E+03 0.  0.
    5000001    1    1    2    0    0 -0.31111705065E+03  0.13209584028E+03 -0.59839201705E+02  0.42464557019E+03  0.25000000000E+03 0.  0.
<mgrwt>
<rscale>  0 0.84578670E+03</rscale>
<asrwt>0</asrwt>
<pdfrwt beam="1">  1        2 0.83584125E-01 0.84578670E+03</pdfrwt>
<pdfrwt beam="2">  1       -2 0.50642041E-01 0.84578670E+03</pdfrwt>
<totfact> 0.20708301E+02</totfact>
</mgrwt>
</event>
<event>
 4    1  0.6739609E-006  0.7146141E+03  0.7818608E-02  0.9692561E-01
          2   -1    0    0  501    0  0.00000000000E+00  0.00000000000E+00  0.32035987443E+03  0.32035987444E+03  0.25500000000E-02 0.  1.
         -2   -1    0    0    0  501 -0.00000000000E+00 -0.00000000000E+00 -0.39851538364E+03  0.39851538365E+03  0.25500000000E-02 0. -1.
   -5000001    1    1    2    0    0  0.15870030150E+03 -0.12875598233E+03  0.11481959980E+03  0.34270603902E+03  0.25000000000E+03 0.  0.
    5000001    1    1    2    0    0 -0.15870030150E+03  0.12875598233E+03 -0.19297510901E+03  0.37616921907E+03  0.25000000000E+03 0.  0.
<mgrwt>
<rscale>  0 0.71461413E+03</rscale>
<asrwt>0</asrwt>
<pdfrwt beam="1">  1        2 0.49286134E-01 0.71461413E+03</pdfrwt>
<pdfrwt beam="2">  1       -2 0.61310059E-01 0.71461413E+03</pdfrwt>
<totfact> 0.25483166E+02</totfact>
</mgrwt>
</event>
<event>
 4    1  0.6739609E-006  0.7631065E+03  0.7818608E-02  0.9615010E-01
         -2   -1    0    0    0  501 -0.00000000000E+00  0.00000000000E+00  0.53073507829E+02  0.53073507890E+02  0.25500000000E-02 0. -1.
          2   -1    0    0  501    0  0.00000000000E+00 -0.00000000000E+00 -0.27430421494E+04  0.27430421494E+04  0.25500000000E-02 0.  1.
   -5000001    1    1    2    0    0  0.23836769067E+03 -0.14838953502E+03 -0.11062741415E+04  0.11684096398E+04  0.25000000000E+03 0.  0.
    5000001    1    1    2    0    0 -0.23836769067E+03  0.14838953502E+03 -0.15836945000E+04  0.16277060175E+04  0.25000000000E+03 0.  0.
<mgrwt>
<rscale>  0 0.76310646E+03</rscale>
<asrwt>0</asrwt>
<pdfrwt beam="1">  1        2 0.42200637E+00 0.76310646E+03</pdfrwt>
<pdfrwt beam="2">  1       -2 0.81651572E-02 0.76310646E+03</pdfrwt>
<totfact> 0.24895255E+02</totfact>
</mgrwt>
</event>
<event>
 4    1  0.6739609E-006  0.7425487E+03  0.7818608E-02  0.9647113E-01
         -2   -1    0    0    0  501 -0.00000000000E+00  0.00000000000E+00  0.15929319465E+03  0.15929319467E+03  0.25500000000E-02 0. -1.
          2   -1    0    0  501    0  0.00000000000E+00 -0.00000000000E+00 -0.86535184431E+03  0.86535184431E+03  0.25500000000E-02 0.  1.
   -5000001    1    1    2    0    0 -0.10163936712E+03  0.24152694056E+03 -0.24025795470E+03  0.43461443690E+03  0.25000000000E+03 0.  0.
    5000001    1    1    2    0    0  0.10163936712E+03 -0.24152694056E+03 -0.46580069496E+03  0.59003060208E+03  0.25000000000E+03 0.  0.
<mgrwt>
<rscale>  0 0.74254875E+03</rscale>
<asrwt>0</asrwt>
<pdfrwt beam="1">  1        2 0.13313105E+00 0.74254875E+03</pdfrwt>
<pdfrwt beam="2">  1       -2 0.24506646E-01 0.74254875E+03</pdfrwt>
<totfact> 0.46275860E+02</totfact>
</mgrwt>
</event>
<event>
 4    1  0.6739609E-006  0.6224779E+03  0.7818608E-02  0.9859839E-01
         -2   -1    0    0    0  501 -0.00000000000E+00  0.00000000000E+00  0.77402195653E+02  0.77402195695E+02  0.25500000000E-02 0. -1.
          2   -1    0    0  501    0  0.00000000000E+00 -0.00000000000E+00 -0.12515106711E+04  0.12515106711E+04  0.25500000000E-02 0.  1.
   -5000001    1    1    2    0    0  0.16668279599E+02 -0.14063588805E+03 -0.33164074634E+03  0.43879593114E+03  0.25000000000E+03 0.  0.
    5000001    1    1    2    0    0 -0.16668279599E+02  0.14063588805E+03 -0.84246772910E+03  0.89011693565E+03  0.25000000000E+03 0.  0.
<mgrwt>
<rscale>  0 0.62247787E+03</rscale>
<asrwt>0</asrwt>
<pdfrwt beam="1">  1        2 0.19254009E+00 0.62247787E+03</pdfrwt>
<pdfrwt beam="2">  1       -2 0.11908031E-01 0.62247787E+03</pdfrwt>
<totfact> 0.92115850E+02</totfact>
</mgrwt>
</event>
<event>
 4    1  0.6739609E-006  0.1216817E+04  0.7818608E-02  0.9098263E-01
         -2   -1    0    0    0  501 -0.00000000000E+00  0.00000000000E+00  0.15522172202E+03  0.15522172204E+03  0.25500000000E-02 0. -1.
          2   -1    0    0  501    0  0.00000000000E+00 -0.00000000000E+00 -0.23847234995E+04  0.23847234995E+04  0.25500000000E-02 0.  1.
   -5000001    1    1    2    0    0 -0.48061928667E+03  0.14950052430E+03 -0.16012267682E+04  0.16969892364E+04  0.25000000000E+03 0.  0.
    5000001    1    1    2    0    0  0.48061928667E+03 -0.14950052430E+03 -0.62827500931E+03  0.84295598509E+03  0.25000000000E+03 0.  0.
<mgrwt>
<rscale>  0 0.12168170E+04</rscale>
<asrwt>0</asrwt>
<pdfrwt beam="1">  1        2 0.36688051E+00 0.12168170E+04</pdfrwt>
<pdfrwt beam="2">  1       -2 0.23880267E-01 0.12168170E+04</pdfrwt>
<totfact> 0.62612523E+01</totfact>
</mgrwt>
</event>
<event>
 4    1  0.6739609E-006  0.5592422E+03  0.7818608E-02  0.9993771E-01
          2   -1    0    0  501    0  0.00000000000E+00  0.00000000000E+00  0.10627762181E+04  0.10627762181E+04  0.25500000000E-02 0.  1.
         -2   -1    0    0    0  501 -0.00000000000E+00 -0.00000000000E+00 -0.73569530330E+02  0.73569530374E+02  0.25500000000E-02 0. -1.
   -5000001    1    1    2    0    0  0.10561593061E+03 -0.32310457246E+02  0.61462982017E+03  0.67265779286E+03  0.25000000000E+03 0.  0.
    5000001    1    1    2    0    0 -0.10561593061E+03  0.32310457246E+02  0.37457686760E+03  0.46368795562E+03  0.25000000000E+03 0.  0.
<mgrwt>
<rscale>  0 0.55924216E+03</rscale>
<asrwt>0</asrwt>
<pdfrwt beam="1">  1        2 0.16350404E+00 0.55924216E+03</pdfrwt>
<pdfrwt beam="2">  1       -2 0.11318389E-01 0.55924216E+03</pdfrwt>
<totfact> 0.12995410E+03</totfact>
</mgrwt>
</event>
<event>
 4    1  0.6739609E-006  0.6973160E+03  0.7818608E-02  0.9721833E-01
         -2   -1    0    0    0  501 -0.00000000000E+00  0.00000000000E+00  0.93002729669E+03  0.93002729669E+03  0.25500000000E-02 0. -1.
          2   -1    0    0  501    0  0.00000000000E+00 -0.00000000000E+00 -0.13070842878E+03  0.13070842880E+03  0.25500000000E-02 0.  1.
   -5000001    1    1    2    0    0  0.69660201610E+02 -0.19542447194E+03  0.20712999851E+03  0.38528704132E+03  0.25000000000E+03 0.  0.
    5000001    1    1    2    0    0 -0.69660201610E+02  0.19542447194E+03  0.59218886940E+03  0.67544868418E+03  0.25000000000E+03 0.  0.
<mgrwt>
<rscale>  0 0.69731602E+03</rscale>
<asrwt>0</asrwt>
<pdfrwt beam="1">  1        2 0.20108989E-01 0.69731602E+03</pdfrwt>
<pdfrwt beam="2">  1       -2 0.14308112E+00 0.69731602E+03</pdfrwt>
<totfact> 0.97014333E+01</totfact>
</mgrwt>
</event>
<event>
 4    1  0.6739609E-006  0.6590823E+03  0.7818608E-02  0.9789885E-01
          2   -1    0    0  501    0  0.00000000000E+00  0.00000000000E+00  0.15998250778E+04  0.15998250778E+04  0.25500000000E-02 0.  1.
         -2   -1    0    0    0  501 -0.00000000000E+00 -0.00000000000E+00 -0.67880780599E+02  0.67880780647E+02  0.25500000000E-02 0. -1.
   -5000001    1    1    2    0    0 -0.13135733953E+03  0.16882002665E+03  0.71914892359E+03  0.79084140404E+03  0.25000000000E+03 0.  0.
    5000001    1    1    2    0    0  0.13135733953E+03 -0.16882002665E+03  0.81279537365E+03  0.87686445445E+03  0.25000000000E+03 0.  0.
<mgrwt>
<rscale>  0 0.65908232E+03</rscale>
<asrwt>0</asrwt>
<pdfrwt beam="1">  1        2 0.24612692E+00 0.65908232E+03</pdfrwt>
<pdfrwt beam="2">  1       -2 0.10443198E-01 0.65908232E+03</pdfrwt>
<totfact> 0.72697103E+02</totfact>
</mgrwt>
</event>
<event>
 4    1  0.6739609E-006  0.1013719E+04  0.7818608E-02  0.9293624E-01
          2   -1    0    0  501    0  0.00000000000E+00  0.00000000000E+00  0.88316079309E+03  0.88316079310E+03  0.25500000000E-02 0.  1.
         -2   -1    0    0    0  501 -0.00000000000E+00 -0.00000000000E+00 -0.29089460222E+03  0.29089460223E+03  0.25500000000E-02 0. -1.
   -5000001    1    1    2    0    0  0.29937935206E+03  0.24331844582E+03  0.48884705677E+02  0.46230031037E+03  0.25000000000E+03 0.  0.
    5000001    1    1    2    0    0 -0.29937935206E+03 -0.24331844582E+03  0.54338148520E+03  0.71175508496E+03  0.25000000000E+03 0.  0.
<mgrwt>
<rscale>  0 0.10137193E+04</rscale>
<asrwt>0</asrwt>
<pdfrwt beam="1">  1        2 0.13587089E+00 0.10137193E+04</pdfrwt>
<pdfrwt beam="2">  1       -2 0.44753016E-01 0.10137193E+04</pdfrwt>
<totfact> 0.14216192E+02</totfact>
</mgrwt>
</event>
<event>
 4    1  0.6739609E-006  0.1474469E+04  0.7818608E-02  0.8901610E-01
          2   -1    0    0  501    0  0.00000000000E+00  0.00000000000E+00  0.53060054572E+03  0.53060054572E+03  0.25500000000E-02 0.  1.
         -2   -1    0    0    0  501 -0.00000000000E+00 -0.00000000000E+00 -0.10243387620E+04  0.10243387620E+04  0.25500000000E-02 0. -1.
   -5000001    1    1    2    0    0 -0.38960562374E+03 -0.50115559090E+03  0.47781024084E+02  0.68390971232E+03  0.25000000000E+03 0.  0.
    5000001    1    1    2    0    0  0.38960562374E+03  0.50115559090E+03 -0.54151924032E+03  0.87102959536E+03  0.25000000000E+03 0.  0.
<mgrwt>
<rscale>  0 0.14744690E+04</rscale>
<asrwt>0</asrwt>
<pdfrwt beam="1">  1        2 0.81630853E-01 0.14744690E+04</pdfrwt>
<pdfrwt beam="2">  1       -2 0.15759058E+00 0.14744690E+04</pdfrwt>
<totfact> 0.14582315E+01</totfact>
</mgrwt>
</event>
<event>
 4    1  0.6739609E-006  0.6273389E+03  0.7818608E-02  0.9850256E-01
          2   -1    0    0  501    0  0.00000000000E+00  0.00000000000E+00  0.37612768889E+03  0.37612768889E+03  0.25500000000E-02 0.  1.
         -2   -1    0    0    0  501 -0.00000000000E+00 -0.00000000000E+00 -0.26158276414E+03  0.26158276415E+03  0.25500000000E-02 0. -1.
   -5000001    1    1    2    0    0 -0.14306858518E+03 -0.12397816570E+03  0.64411018662E+02  0.32013744699E+03  0.25000000000E+03 0.  0.
    5000001    1    1    2    0    0  0.14306858518E+03  0.12397816570E+03  0.50133906084E+02  0.31757300606E+03  0.25000000000E+03 0.  0.
<mgrwt>
<rscale>  0 0.62733889E+03</rscale>
<asrwt>0</asrwt>
<pdfrwt beam="1">  1        2 0.57865799E-01 0.62733889E+03</pdfrwt>
<pdfrwt beam="2">  1       -2 0.40243502E-01 0.62733889E+03</pdfrwt>
<totfact> 0.50209578E+02</totfact>
</mgrwt>
</event>
<event>
 4    1  0.6739609E-006  0.1173415E+04  0.7818608E-02  0.9136450E-01
          2   -1    0    0  501    0  0.00000000000E+00  0.00000000000E+00  0.13356188015E+04  0.13356188015E+04  0.25500000000E-02 0.  1.
         -2   -1    0    0    0  501 -0.00000000000E+00 -0.00000000000E+00 -0.25772761551E+03  0.25772761552E+03  0.25500000000E-02 0. -1.
   -5000001    1    1    2    0    0 -0.24599661158E+03  0.45929963150E+03  0.67645551116E+03  0.88969800662E+03  0.25000000000E+03 0.  0.
    5000001    1    1    2    0    0  0.24599661158E+03 -0.45929963150E+03  0.40143567478E+03  0.70364841036E+03  0.25000000000E+03 0.  0.
<mgrwt>
<rscale>  0 0.11734153E+04</rscale>
<asrwt>0</asrwt>
<pdfrwt beam="1">  1        2 0.20547981E+00 0.11734153E+04</pdfrwt>
<pdfrwt beam="2">  1       -2 0.39650403E-01 0.11734153E+04</pdfrwt>
<totfact> 0.93671251E+01</totfact>
</mgrwt>
</event>
<event>
 4    1  0.6739609E-006  0.6287801E+03  0.7818608E-02  0.9847432E-01
          2   -1    0    0  501    0  0.00000000000E+00  0.00000000000E+00  0.17792745628E+04  0.17792745628E+04  0.25500000000E-02 0.  1.
         -2   -1    0    0    0  501 -0.00000000000E+00 -0.00000000000E+00 -0.55551352774E+02  0.55551352832E+02  0.25500000000E-02 0. -1.
   -5000001    1    1    2    0    0  0.99977629960E+02 -0.14622297525E+03  0.65625810752E+03  0.72425919992E+03  0.25000000000E+03 0.  0.
    5000001    1    1    2    0    0 -0.99977629960E+02  0.14622297525E+03  0.10674651025E+04  0.11105667157E+04  0.25000000000E+03 0.  0.
<mgrwt>
<rscale>  0 0.62878012E+03</rscale>
<asrwt>0</asrwt>
<pdfrwt beam="1">  1        2 0.27373453E+00 0.62878012E+03</pdfrwt>
<pdfrwt beam="2">  1       -2 0.85463625E-02 0.62878012E+03</pdfrwt>
<totfact> 0.80389949E+02</totfact>
</mgrwt>
</event>
<event>
 4    1  0.6739609E-006  0.5637494E+03  0.7818608E-02  0.9983606E-01
         -2   -1    0    0    0  501 -0.00000000000E+00  0.00000000000E+00  0.54717481958E+02  0.54717482017E+02  0.25500000000E-02 0. -1.
          2   -1    0    0  501    0  0.00000000000E+00 -0.00000000000E+00 -0.14520652001E+04  0.14520652001E+04  0.25500000000E-02 0.  1.
   -5000001    1    1    2    0    0  0.10164540438E+03 -0.61314035850E+02 -0.55568214340E+03  0.62078486106E+03  0.25000000000E+03 0.  0.
    5000001    1    1    2    0    0 -0.10164540438E+03  0.61314035850E+02 -0.84166557474E+03  0.88599782106E+03  0.25000000000E+03 0.  0.
<mgrwt>
<rscale>  0 0.56374942E+03</rscale>
<asrwt>0</asrwt>
<pdfrwt beam="1">  1        2 0.22339462E+00 0.56374942E+03</pdfrwt>
<pdfrwt beam="2">  1       -2 0.84180753E-02 0.56374942E+03</pdfrwt>
<totfact> 0.12476029E+03</totfact>
</mgrwt>
</event>
<event>
 4    1  0.6739609E-006  0.7658574E+03  0.7818608E-02  0.9610796E-01
         -2   -1    0    0    0  501 -0.00000000000E+00  0.00000000000E+00  0.34861613614E+03  0.34861613615E+03  0.25500000000E-02 0. -1.
          2   -1    0    0  501    0  0.00000000000E+00 -0.00000000000E+00 -0.42061845951E+03  0.42061845951E+03  0.25500000000E-02 0.  1.
   -5000001    1    1    2    0    0 -0.25320123404E+03 -0.90817353608E+02 -0.14499570160E+03  0.39481946522E+03  0.25000000000E+03 0.  0.
    5000001    1    1    2    0    0  0.25320123404E+03  0.90817353608E+02  0.72993378229E+02  0.37441513044E+03  0.25000000000E+03 0.  0.
<mgrwt>
<rscale>  0 0.76585738E+03</rscale>
<asrwt>0</asrwt>
<pdfrwt beam="1">  1        2 0.64710532E-01 0.76585738E+03</pdfrwt>
<pdfrwt beam="2">  1       -2 0.53633252E-01 0.76585738E+03</pdfrwt>
<totfact> 0.24810231E+02</totfact>
</mgrwt>
</event>
<event>
 4    1  0.6739609E-006  0.7010714E+03  0.7818608E-02  0.9715402E-01
          2   -1    0    0  501    0  0.00000000000E+00  0.00000000000E+00  0.22234609715E+04  0.22234609715E+04  0.25500000000E-02 0.  1.
         -2   -1    0    0    0  501 -0.00000000000E+00 -0.00000000000E+00 -0.55263074986E+02  0.55263075045E+02  0.25500000000E-02 0. -1.
   -5000001    1    1    2    0    0 -0.21495030919E+03 -0.48424995987E+02  0.14375756456E+04  0.14756938546E+04  0.25000000000E+03 0.  0.
    5000001    1    1    2    0    0  0.21495030919E+03  0.48424995987E+02  0.73062225087E+03  0.80303019192E+03  0.25000000000E+03 0.  0.
<mgrwt>
<rscale>  0 0.70107144E+03</rscale>
<asrwt>0</asrwt>
<pdfrwt beam="1">  1        2 0.34207088E+00 0.70107144E+03</pdfrwt>
<pdfrwt beam="2">  1       -2 0.85020125E-02 0.70107144E+03</pdfrwt>
<totfact> 0.46204438E+02</totfact>
</mgrwt>
</event>
<event>
 4    1  0.6739609E-006  0.1317399E+04  0.7818608E-02  0.9015880E-01
         -2   -1    0    0    0  501 -0.00000000000E+00  0.00000000000E+00  0.27124150744E+03  0.27124150745E+03  0.25500000000E-02 0.  1.
          2   -1    0    0  501    0  0.00000000000E+00 -0.00000000000E+00 -0.15996259047E+04  0.15996259047E+04  0.25500000000E-02 0. -1.
   -5000001    1    1    2    0    0  0.63411625632E+02  0.49518419494E+03 -0.11605376573E+04  0.12878571641E+04  0.25000000000E+03 0.  0.
    5000001    1    1    2    0    0 -0.63411625632E+02 -0.49518419494E+03 -0.16784673997E+03  0.58301024803E+03  0.25000000000E+03 0.  0.
<mgrwt>
<rscale>  0 0.13173989E+04</rscale>
<asrwt>0</asrwt>
<pdfrwt beam="1">  1        2 0.24609629E+00 0.13173989E+04</pdfrwt>
<pdfrwt beam="2">  1       -2 0.41729464E-01 0.13173989E+04</pdfrwt>
<totfact> 0.59420845E+01</totfact>
</mgrwt>
</event>
<event>
 4    1  0.6739609E-006  0.6275311E+03  0.7818608E-02  0.9849879E-01
          2   -1    0    0  501    0  0.00000000000E+00  0.00000000000E+00  0.17779195898E+04  0.17779195898E+04  0.25500000000E-02 0.  1.
         -2   -1    0    0    0  501 -0.00000000000E+00 -0.00000000000E+00 -0.55373036447E+02  0.55373036506E+02  0.25500000000E-02 0. -1.
   -5000001    1    1    2    0    0  0.35416732858E+02  0.17478545076E+03  0.10493491277E+04  0.10933608236E+04  0.25000000000E+03 0.  0.
    5000001    1    1    2    0    0 -0.35416732858E+02 -0.17478545076E+03  0.67319742567E+03  0.73993180273E+03  0.25000000000E+03 0.  0.
<mgrwt>
<rscale>  0 0.62753106E+03</rscale>
<asrwt>0</asrwt>
<pdfrwt beam="1">  1        2 0.27352606E+00 0.62753106E+03</pdfrwt>
<pdfrwt beam="2">  1       -2 0.85189295E-02 0.62753106E+03</pdfrwt>
<totfact> 0.80948197E+02</totfact>
</mgrwt>
</event>
<event>
 4    1  0.6739609E-006  0.1429136E+04  0.7818608E-02  0.8932995E-01
          2   -1    0    0  501    0  0.00000000000E+00  0.00000000000E+00  0.12448832410E+04  0.12448832410E+04  0.25500000000E-02 0.  1.
         -2   -1    0    0    0  501 -0.00000000000E+00 -0.00000000000E+00 -0.41016465444E+03  0.41016465445E+03  0.25500000000E-02 0. -1.
   -5000001    1    1    2    0    0  0.46320705120E+03  0.30873692299E+03 -0.13201927677E+02  0.61037164973E+03  0.25000000000E+03 0.  0.
    5000001    1    1    2    0    0 -0.46320705120E+03 -0.30873692299E+03  0.84792051426E+03  0.10446762457E+04  0.25000000000E+03 0.  0.
<mgrwt>
<rscale>  0 0.14291355E+04</rscale>
<asrwt>0</asrwt>
<pdfrwt beam="1">  1        2 0.19152049E+00 0.14291355E+04</pdfrwt>
<pdfrwt beam="2">  1       -2 0.63102256E-01 0.14291355E+04</pdfrwt>
<totfact> 0.40246445E+01</totfact>
</mgrwt>
</event>
<event>
 4    1  0.6739609E-006  0.6659420E+03  0.7818608E-02  0.9777317E-01
         -2   -1    0    0    0  501 -0.00000000000E+00  0.00000000000E+00  0.56500262746E+02  0.56500262803E+02  0.25500000000E-02 0. -1.
          2   -1    0    0  501    0  0.00000000000E+00 -0.00000000000E+00 -0.19622863500E+04  0.19622863500E+04  0.25500000000E-02 0.  1.
   -5000001    1    1    2    0    0  0.13488964151E+03 -0.44326991681E+02 -0.44373520420E+03  0.52873531093E+03  0.25000000000E+03 0.  0.
    5000001    1    1    2    0    0 -0.13488964151E+03  0.44326991681E+02 -0.14620508830E+04  0.14900513019E+04  0.25000000000E+03 0.  0.
<mgrwt>
<rscale>  0 0.66594202E+03</rscale>
<asrwt>0</asrwt>
<pdfrwt beam="1">  1        2 0.30189016E+00 0.66594202E+03</pdfrwt>
<pdfrwt beam="2">  1       -2 0.86923496E-02 0.66594202E+03</pdfrwt>
<totfact> 0.62100250E+02</totfact>
</mgrwt>
</event>
<event>
 4    1  0.6739609E-006  0.8208061E+03  0.7818608E-02  0.9530380E-01
          2   -1    0    0  501    0  0.00000000000E+00  0.00000000000E+00  0.38870723425E+04  0.38870723425E+04  0.25500000000E-02 0.  1.
         -2   -1    0    0    0  501 -0.00000000000E+00 -0.00000000000E+00 -0.43330985578E+02  0.43330985653E+02  0.25500000000E-02 0. -1.
   -5000001    1    1    2    0    0 -0.50287889571E+02 -0.28526514901E+03  0.26325282519E+04  0.26601898568E+04  0.25000000000E+03 0.  0.
    5000001    1    1    2    0    0  0.50287889571E+02  0.28526514901E+03  0.12112131050E+04  0.12702134714E+04  0.25000000000E+03 0.  0.
<mgrwt>
<rscale>  0 0.82080613E+03</rscale>
<asrwt>0</asrwt>
<pdfrwt beam="1">  1        2 0.59801144E+00 0.82080613E+03</pdfrwt>
<pdfrwt beam="2">  1       -2 0.66663020E-02 0.82080613E+03</pdfrwt>
<totfact> 0.59968363E+01</totfact>
</mgrwt>
</event>
<event>
 4    1  0.6739609E-006  0.6462904E+03  0.7818608E-02  0.9813765E-01
         -2   -1    0    0    0  501 -0.00000000000E+00  0.00000000000E+00  0.10435204208E+03  0.10435204211E+03  0.25500000000E-02 0. -1.
          2   -1    0    0  501    0  0.00000000000E+00 -0.00000000000E+00 -0.10006782047E+04  0.10006782047E+04  0.25500000000E-02 0.  1.
   -5000001    1    1    2    0    0  0.18512831779E+03 -0.80213294509E+02 -0.50778961929E+03  0.60088015787E+03  0.25000000000E+03 0.  0.
    5000001    1    1    2    0    0 -0.18512831779E+03  0.80213294509E+02 -0.38853654331E+03  0.50415008891E+03  0.25000000000E+03 0.  0.
<mgrwt>
<rscale>  0 0.64629038E+03</rscale>
<asrwt>0</asrwt>
<pdfrwt beam="1">  1        2 0.15395049E+00 0.64629038E+03</pdfrwt>
<pdfrwt beam="2">  1       -2 0.16054161E-01 0.64629038E+03</pdfrwt>
<totfact> 0.79154461E+02</totfact>
</mgrwt>
</event>
<event>
 4    1  0.6739609E-006  0.5995401E+03  0.7818608E-02  0.9906361E-01
          2   -1    0    0  501    0  0.00000000000E+00  0.00000000000E+00  0.94010465262E+03  0.94010465262E+03  0.25500000000E-02 0.  1.
         -2   -1    0    0    0  501 -0.00000000000E+00 -0.00000000000E+00 -0.95587329666E+02  0.95587329700E+02  0.25500000000E-02 0. -1.
   -5000001    1    1    2    0    0 -0.82785657686E+02  0.13987254560E+03  0.47534309321E+03  0.56113175850E+03  0.25000000000E+03 0.  0.
    5000001    1    1    2    0    0  0.82785657686E+02 -0.13987254560E+03  0.36917422974E+03  0.47456022383E+03  0.25000000000E+03 0.  0.
<mgrwt>
<rscale>  0 0.59954014E+03</rscale>
<asrwt>0</asrwt>
<pdfrwt beam="1">  1        2 0.14463149E+00 0.59954014E+03</pdfrwt>
<pdfrwt beam="2">  1       -2 0.14705743E-01 0.59954014E+03</pdfrwt>
<totfact> 0.10056321E+03</totfact>
</mgrwt>
</event>
<event>
 4    1  0.6739609E-006  0.5834055E+03  0.7818608E-02  0.9940445E-01
          2   -1    0    0  501    0  0.00000000000E+00  0.00000000000E+00  0.80639082932E+03  0.80639082932E+03  0.25500000000E-02 0.  1.
         -2   -1    0    0    0  501 -0.00000000000E+00 -0.00000000000E+00 -0.10552016542E+03  0.10552016545E+03  0.25500000000E-02 0. -1.
   -5000001    1    1    2    0    0  0.23230970238E+02 -0.13212236544E+03  0.45638531395E+03  0.53738585041E+03  0.25000000000E+03 0.  0.
    5000001    1    1    2    0    0 -0.23230970238E+02  0.13212236544E+03  0.24448534994E+03  0.37452514437E+03  0.25000000000E+03 0.  0.
<mgrwt>
<rscale>  0 0.58340550E+03</rscale>
<asrwt>0</asrwt>
<pdfrwt beam="1">  1        2 0.12406013E+00 0.58340550E+03</pdfrwt>
<pdfrwt beam="2">  1       -2 0.16233872E-01 0.58340550E+03</pdfrwt>
<totfact> 0.10492668E+03</totfact>
</mgrwt>
</event>
<event>
 4    1  0.6739609E-006  0.6725760E+03  0.7818608E-02  0.9765315E-01
         -2   -1    0    0    0  501 -0.00000000000E+00  0.00000000000E+00  0.13215717982E+04  0.13215717982E+04  0.25500000000E-02 0. -1.
          2   -1    0    0  501    0  0.00000000000E+00 -0.00000000000E+00 -0.85572052772E+02  0.85572052810E+02  0.25500000000E-02 0.  1.
   -5000001    1    1    2    0    0  0.14748762675E+03  0.50376333013E+02  0.95728804256E+03  0.10015941151E+04  0.25000000000E+03 0.  0.
    5000001    1    1    2    0    0 -0.14748762675E+03 -0.50376333013E+02  0.27871170283E+03  0.40554973587E+03  0.25000000000E+03 0.  0.
<mgrwt>
<rscale>  0 0.67257598E+03</rscale>
<asrwt>0</asrwt>
<pdfrwt beam="1">  1        2 0.13164931E-01 0.67257598E+03</pdfrwt>
<pdfrwt beam="2">  1       -2 0.20331874E+00 0.67257598E+03</pdfrwt>
<totfact> 0.60884051E+01</totfact>
</mgrwt>
</event>
<event>
 4    1  0.6739609E-006  0.6199270E+03  0.7818608E-02  0.9864905E-01
         -2   -1    0    0    0  501 -0.00000000000E+00  0.00000000000E+00  0.19283369916E+03  0.19283369918E+03  0.25500000000E-02 0. -1.
          2   -1    0    0  501    0  0.00000000000E+00 -0.00000000000E+00 -0.49823959087E+03  0.49823959088E+03  0.25500000000E-02 0.  1.
   -5000001    1    1    2    0    0  0.12260638505E+03 -0.65636083705E+02 -0.19690525719E+02  0.28675449071E+03  0.25000000000E+03 0.  0.
    5000001    1    1    2    0    0 -0.12260638505E+03  0.65636083705E+02 -0.28571536599E+03  0.40431879934E+03  0.25000000000E+03 0.  0.
<mgrwt>
<rscale>  0 0.61992704E+03</rscale>
<asrwt>0</asrwt>
<pdfrwt beam="1">  1        2 0.76652244E-01 0.61992704E+03</pdfrwt>
<pdfrwt beam="2">  1       -2 0.29666723E-01 0.61992704E+03</pdfrwt>
<totfact> 0.65104621E+02</totfact>
</mgrwt>
</event>
<event>
 4    1  0.6739609E-006  0.7130176E+03  0.7818608E-02  0.9695226E-01
         -2   -1    0    0    0  501 -0.00000000000E+00  0.00000000000E+00  0.17522988918E+03  0.17522988920E+03  0.25500000000E-02 0.  1.
          2   -1    0    0  501    0  0.00000000000E+00 -0.00000000000E+00 -0.72532439789E+03  0.72532439790E+03  0.25500000000E-02 0. -1.
   -5000001    1    1    2    0    0 -0.21545910255E+03  0.26924943863E+02 -0.44189449706E+03  0.55219409994E+03  0.25000000000E+03 0.  0.
    5000001    1    1    2    0    0  0.21545910255E+03 -0.26924943863E+02 -0.10820001165E+03  0.34836018716E+03  0.25000000000E+03 0.  0.
<mgrwt>
<rscale>  0 0.71301757E+03</rscale>
<asrwt>0</asrwt>
<pdfrwt beam="1">  1        2 0.11158837E+00 0.71301757E+03</pdfrwt>
<pdfrwt beam="2">  1       -2 0.26958445E-01 0.71301757E+03</pdfrwt>
<totfact> 0.49204541E+02</totfact>
</mgrwt>
</event>
<event>
 4    1  0.6739609E-006  0.7658729E+03  0.7818608E-02  0.9610772E-01
         -2   -1    0    0    0  501 -0.00000000000E+00  0.00000000000E+00  0.13826519963E+04  0.13826519963E+04  0.25500000000E-02 0. -1.
          2   -1    0    0  501    0  0.00000000000E+00 -0.00000000000E+00 -0.10605730139E+03  0.10605730142E+03  0.25500000000E-02 0.  1.
   -5000001    1    1    2    0    0 -0.22488598205E+03  0.86539337777E+02  0.32440061155E+03  0.47518261613E+03  0.25000000000E+03 0.  0.
    5000001    1    1    2    0    0  0.22488598205E+03 -0.86539337777E+02  0.95219408338E+03  0.10135266816E+04  0.25000000000E+03 0.  0.
<mgrwt>
<rscale>  0 0.76587294E+03</rscale>
<asrwt>0</asrwt>
<pdfrwt beam="1">  1        2 0.16316508E-01 0.76587294E+03</pdfrwt>
<pdfrwt beam="2">  1       -2 0.21271569E+00 0.76587294E+03</pdfrwt>
<totfact> 0.40567876E+01</totfact>
</mgrwt>
</event>
<event>
 4    1  0.6739609E-006  0.7150776E+03  0.7818608E-02  0.9691789E-01
          2   -1    0    0  501    0  0.00000000000E+00  0.00000000000E+00  0.37759715192E+03  0.37759715193E+03  0.25500000000E-02 0.  1.
         -2   -1    0    0    0  501 -0.00000000000E+00 -0.00000000000E+00 -0.33854601157E+03  0.33854601158E+03  0.25500000000E-02 0. -1.
   -5000001    1    1    2    0    0  0.21073388330E+03  0.67669430778E+01  0.16423810885E+03  0.36596272691E+03  0.25000000000E+03 0.  0.
    5000001    1    1    2    0    0 -0.21073388330E+03 -0.67669430778E+01 -0.12518696850E+03  0.35018043659E+03  0.25000000000E+03 0.  0.
<mgrwt>
<rscale>  0 0.71507765E+03</rscale>
<asrwt>0</asrwt>
<pdfrwt beam="1">  1        2 0.58091869E-01 0.71507765E+03</pdfrwt>
<pdfrwt beam="2">  1       -2 0.52084002E-01 0.71507765E+03</pdfrwt>
<totfact> 0.29803032E+02</totfact>
</mgrwt>
</event>
<event>
 4    1  0.6739609E-006  0.6699883E+03  0.7818608E-02  0.9769979E-01
          2   -1    0    0  501    0  0.00000000000E+00  0.00000000000E+00  0.23402981361E+03  0.23402981363E+03  0.25500000000E-02 0.  1.
         -2   -1    0    0    0  501 -0.00000000000E+00 -0.00000000000E+00 -0.47951616422E+03  0.47951616423E+03  0.25500000000E-02 0. -1.
   -5000001    1    1    2    0    0 -0.89629561837E+02 -0.20349226495E+03 -0.10496932117E+03  0.35065812216E+03  0.25000000000E+03 0.  0.
    5000001    1    1    2    0    0  0.89629561837E+02  0.20349226495E+03 -0.14051702944E+03  0.36288785569E+03  0.25000000000E+03 0.  0.
<mgrwt>
<rscale>  0 0.66998829E+03</rscale>
<asrwt>0</asrwt>
<pdfrwt beam="1">  1        2 0.36004587E-01 0.66998829E+03</pdfrwt>
<pdfrwt beam="2">  1       -2 0.73771717E-01 0.66998829E+03</pdfrwt>
<totfact> 0.24247238E+02</totfact>
</mgrwt>
</event>
<event>
 4    1  0.6739609E-006  0.9892277E+03  0.7818608E-02  0.9320439E-01
          2   -1    0    0  501    0  0.00000000000E+00  0.00000000000E+00  0.16907492944E+04  0.16907492944E+04  0.25500000000E-02 0.  1.
         -2   -1    0    0    0  501 -0.00000000000E+00 -0.00000000000E+00 -0.14469492127E+03  0.14469492129E+03  0.25500000000E-02 0. -1.
   -5000001    1    1    2    0    0 -0.33281096529E+03 -0.23710802846E+03  0.10014750491E+04  0.11101511743E+04  0.25000000000E+03 0.  0.
    5000001    1    1    2    0    0  0.33281096529E+03  0.23710802846E+03  0.54457932406E+03  0.72529304145E+03  0.25000000000E+03 0.  0.
<mgrwt>
<rscale>  0 0.98922765E+03</rscale>
<asrwt>0</asrwt>
<pdfrwt beam="1">  1        2 0.26011527E+00 0.98922765E+03</pdfrwt>
<pdfrwt beam="2">  1       -2 0.22260757E-01 0.98922765E+03</pdfrwt>
<totfact> 0.17534695E+02</totfact>
</mgrwt>
</event>
<event>
 4    1  0.6739609E-006  0.6825114E+03  0.7818608E-02  0.9747616E-01
          2   -1    0    0  501    0  0.00000000000E+00  0.00000000000E+00  0.15794650091E+04  0.15794650091E+04  0.25500000000E-02 0.  1.
         -2   -1    0    0    0  501 -0.00000000000E+00 -0.00000000000E+00 -0.73730947483E+02  0.73730947527E+02  0.25500000000E-02 0. -1.
   -5000001    1    1    2    0    0  0.88767496429E+02  0.79466518950E+02  0.26987241728E+03  0.38668555399E+03  0.25000000000E+03 0.  0.
    5000001    1    1    2    0    0 -0.88767496429E+02 -0.79466518950E+02  0.12358616444E+04  0.12665104027E+04  0.25000000000E+03 0.  0.
<mgrwt>
<rscale>  0 0.68251140E+03</rscale>
<asrwt>0</asrwt>
<pdfrwt beam="1">  1        2 0.24299460E+00 0.68251140E+03</pdfrwt>
<pdfrwt beam="2">  1       -2 0.11343224E-01 0.68251140E+03</pdfrwt>
<totfact> 0.65070932E+02</totfact>
</mgrwt>
</event>
<event>
 4    1  0.6739609E-006  0.5628380E+03  0.7818608E-02  0.9985654E-01
         -2   -1    0    0    0  501 -0.00000000000E+00  0.00000000000E+00  0.23633234477E+02  0.23633234614E+02  0.25500000000E-02 0. -1.
          2   -1    0    0  501    0  0.00000000000E+00 -0.00000000000E+00 -0.33510710343E+04  0.33510710343E+04  0.25500000000E-02 0.  1.
   -5000001    1    1    2    0    0 -0.11645970268E+03 -0.17554640672E+02 -0.19824388157E+04  0.20016080250E+04  0.25000000000E+03 0.  0.
    5000001    1    1    2    0    0  0.11645970268E+03  0.17554640672E+02 -0.13449989841E+04  0.13730962439E+04  0.25000000000E+03 0.  0.
<mgrwt>
<rscale>  0 0.56283798E+03</rscale>
<asrwt>0</asrwt>
<pdfrwt beam="1">  1        2 0.51554901E+00 0.56283798E+03</pdfrwt>
<pdfrwt beam="2">  1       -2 0.36358849E-02 0.56283798E+03</pdfrwt>
<totfact> 0.38052538E+02</totfact>
</mgrwt>
</event>
<event>
 4    1  0.6739609E-006  0.1009399E+04  0.7818608E-02  0.9298296E-01
          2   -1    0    0  501    0  0.00000000000E+00  0.00000000000E+00  0.21580299950E+04  0.21580299950E+04  0.25500000000E-02 0.  1.
         -2   -1    0    0    0  501 -0.00000000000E+00 -0.00000000000E+00 -0.11803421200E+03  0.11803421203E+03  0.25500000000E-02 0. -1.
   -5000001    1    1    2    0    0  0.57790298255E+02 -0.43329664678E+03  0.10959863055E+04  0.12061391647E+04  0.25000000000E+03 0.  0.
    5000001    1    1    2    0    0 -0.57790298255E+02  0.43329664678E+03  0.94400947746E+03  0.10699250423E+04  0.25000000000E+03 0.  0.
<mgrwt>
<rscale>  0 0.10093986E+04</rscale>
<asrwt>0</asrwt>
<pdfrwt beam="1">  1        2 0.33200462E+00 0.10093986E+04</pdfrwt>
<pdfrwt beam="2">  1       -2 0.18159109E-01 0.10093986E+04</pdfrwt>
<totfact> 0.13846263E+02</totfact>
</mgrwt>
</event>
<event>
 4    1  0.6739609E-006  0.6760480E+03  0.7818608E-02  0.9759093E-01
         -2   -1    0    0    0  501 -0.00000000000E+00  0.00000000000E+00  0.15359375454E+03  0.15359375456E+03  0.25500000000E-02 0. -1.
          2   -1    0    0  501    0  0.00000000000E+00 -0.00000000000E+00 -0.74391183079E+03  0.74391183079E+03  0.25500000000E-02 0.  1.
   -5000001    1    1    2    0    0  0.91383782368E+02  0.19164757633E+03 -0.40366699858E+03  0.52012194237E+03  0.25000000000E+03 0.  0.
    5000001    1    1    2    0    0 -0.91383782368E+02 -0.19164757633E+03 -0.18665107768E+03  0.37738364298E+03  0.25000000000E+03 0.  0.
<mgrwt>
<rscale>  0 0.67604796E+03</rscale>
<asrwt>0</asrwt>
<pdfrwt beam="1">  1        2 0.11444797E+00 0.67604796E+03</pdfrwt>
<pdfrwt beam="2">  1       -2 0.23629809E-01 0.67604796E+03</pdfrwt>
<totfact> 0.60491403E+02</totfact>
</mgrwt>
</event>
<event>
 4    1  0.6739609E-006  0.7856033E+03  0.7818608E-02  0.9581093E-01
          2   -1    0    0  501    0  0.00000000000E+00  0.00000000000E+00  0.10059175279E+04  0.10059175279E+04  0.25500000000E-02 0.  1.
         -2   -1    0    0    0  501 -0.00000000000E+00 -0.00000000000E+00 -0.15338545765E+03  0.15338545767E+03  0.25500000000E-02 0. -1.
   -5000001    1    1    2    0    0  0.85222741458E+02 -0.25489303627E+03  0.63264967596E+03  0.73142257833E+03  0.25000000000E+03 0.  0.
    5000001    1    1    2    0    0 -0.85222741458E+02  0.25489303627E+03  0.21988239433E+03  0.42788040728E+03  0.25000000000E+03 0.  0.
<mgrwt>
<rscale>  0 0.78560326E+03</rscale>
<asrwt>0</asrwt>
<pdfrwt beam="1">  1        2 0.15475654E+00 0.78560326E+03</pdfrwt>
<pdfrwt beam="2">  1       -2 0.23597763E-01 0.78560326E+03</pdfrwt>
<totfact> 0.39921870E+02</totfact>
</mgrwt>
</event>
<event>
 4    1  0.6739609E-006  0.6811520E+03  0.7818608E-02  0.9750019E-01
         -2   -1    0    0    0  501 -0.00000000000E+00  0.00000000000E+00  0.83806986267E+02  0.83806986305E+02  0.25500000000E-02 0. -1.
          2   -1    0    0  501    0  0.00000000000E+00 -0.00000000000E+00 -0.13840375220E+04  0.13840375220E+04  0.25500000000E-02 0.  1.
   -5000001    1    1    2    0    0 -0.19957023819E+03  0.10497043042E+03 -0.76094189636E+03  0.83209352892E+03  0.25000000000E+03 0.  0.
    5000001    1    1    2    0    0  0.19957023819E+03 -0.10497043042E+03 -0.53928863937E+03  0.63575097939E+03  0.25000000000E+03 0.  0.
<mgrwt>
<rscale>  0 0.68115201E+03</rscale>
<asrwt>0</asrwt>
<pdfrwt beam="1">  1        2 0.21292883E+00 0.68115201E+03</pdfrwt>
<pdfrwt beam="2">  1       -2 0.12893384E-01 0.68115201E+03</pdfrwt>
<totfact> 0.67656754E+02</totfact>
</mgrwt>
</event>
<event>
 4    1  0.6739609E-006  0.6160986E+03  0.7818608E-02  0.9872558E-01
          2   -1    0    0  501    0  0.00000000000E+00  0.00000000000E+00  0.18846940715E+04  0.18846940715E+04  0.25500000000E-02 0.  1.
         -2   -1    0    0    0  501 -0.00000000000E+00 -0.00000000000E+00 -0.50350020427E+02  0.50350020492E+02  0.25500000000E-02 0. -1.
   -5000001    1    1    2    0    0  0.15626283617E+03  0.70450311393E+02  0.74476901634E+03  0.80409092026E+03  0.25000000000E+03 0.  0.
    5000001    1    1    2    0    0 -0.15626283617E+03 -0.70450311393E+02  0.10895750347E+04  0.11309531717E+04  0.25000000000E+03 0.  0.
<mgrwt>
<rscale>  0 0.61609864E+03</rscale>
<asrwt>0</asrwt>
<pdfrwt beam="1">  1        2 0.28995292E+00 0.61609864E+03</pdfrwt>
<pdfrwt beam="2">  1       -2 0.77461574E-02 0.61609864E+03</pdfrwt>
<totfact> 0.82535055E+02</totfact>
</mgrwt>
</event>
<event>
 4    1  0.6739609E-006  0.6866266E+03  0.7818608E-02  0.9740380E-01
          2   -1    0    0  501    0  0.00000000000E+00  0.00000000000E+00  0.27945208210E+04  0.27945208210E+04  0.25500000000E-02 0.  1.
         -2   -1    0    0    0  501 -0.00000000000E+00 -0.00000000000E+00 -0.42176824545E+02  0.42176824622E+02  0.25500000000E-02 0. -1.
   -5000001    1    1    2    0    0 -0.83482556831E+02 -0.21296778544E+03  0.11484073410E+04  0.11973571046E+04  0.25000000000E+03 0.  0.
    5000001    1    1    2    0    0  0.83482556831E+02  0.21296778544E+03  0.16039366554E+04  0.16393405410E+04  0.25000000000E+03 0.  0.
<mgrwt>
<rscale>  0 0.68662658E+03</rscale>
<asrwt>0</asrwt>
<pdfrwt beam="1">  1        2 0.42992614E+00 0.68662658E+03</pdfrwt>
<pdfrwt beam="2">  1       -2 0.64887444E-02 0.68662658E+03</pdfrwt>
<totfact> 0.33726320E+02</totfact>
</mgrwt>
</event>
<event>
 4    1  0.6739609E-006  0.7214712E+03  0.7818608E-02  0.9681202E-01
         -2   -1    0    0    0  501 -0.00000000000E+00  0.00000000000E+00  0.91026318103E+02  0.91026318138E+02  0.25500000000E-02 0. -1.
          2   -1    0    0  501    0  0.00000000000E+00 -0.00000000000E+00 -0.14295886448E+04  0.14295886448E+04  0.25500000000E-02 0.  1.
   -5000001    1    1    2    0    0  0.24164686143E+03 -0.68678588781E+02 -0.81098474018E+03  0.88504587621E+03  0.25000000000E+03 0.  0.
    5000001    1    1    2    0    0 -0.24164686143E+03  0.68678588781E+02 -0.52757758647E+03  0.63556908668E+03  0.25000000000E+03 0.  0.
<mgrwt>
<rscale>  0 0.72147125E+03</rscale>
<asrwt>0</asrwt>
<pdfrwt beam="1">  1        2 0.21993670E+00 0.72147125E+03</pdfrwt>
<pdfrwt beam="2">  1       -2 0.14004050E-01 0.72147125E+03</pdfrwt>
<totfact> 0.55439273E+02</totfact>
</mgrwt>
</event>
<event>
 4    1  0.6739609E-006  0.6222826E+03  0.7818608E-02  0.9860225E-01
          2   -1    0    0  501    0  0.00000000000E+00  0.00000000000E+00  0.12487363051E+03  0.12487363054E+03  0.25500000000E-02 0.  1.
         -2   -1    0    0    0  501 -0.00000000000E+00 -0.00000000000E+00 -0.77525508095E+03  0.77525508096E+03  0.25500000000E-02 0. -1.
   -5000001    1    1    2    0    0 -0.10502519411E+03  0.23152452360E+01 -0.54586189361E+03  0.60950870269E+03  0.25000000000E+03 0.  0.
    5000001    1    1    2    0    0  0.10502519411E+03 -0.23152452360E+01 -0.10451955683E+03  0.29062000881E+03  0.25000000000E+03 0.  0.
<mgrwt>
<rscale>  0 0.62228263E+03</rscale>
<asrwt>0</asrwt>
<pdfrwt beam="1">  1        2 0.19211328E-01 0.62228263E+03</pdfrwt>
<pdfrwt beam="2">  1       -2 0.11927001E+00 0.62228263E+03</pdfrwt>
<totfact> 0.16273556E+02</totfact>
</mgrwt>
</event>
<event>
 4    1  0.6739609E-006  0.8258014E+03  0.7818608E-02  0.9523404E-01
          2   -1    0    0  501    0  0.00000000000E+00  0.00000000000E+00  0.55282786017E+03  0.55282786018E+03  0.25500000000E-02 0.  1.
         -2   -1    0    0    0  501 -0.00000000000E+00 -0.00000000000E+00 -0.30839076104E+03  0.30839076105E+03  0.25500000000E-02 0. -1.
   -5000001    1    1    2    0    0 -0.90691401274E+01 -0.29025232728E+03  0.28262799084E+03  0.47613784138E+03  0.25000000000E+03 0.  0.
    5000001    1    1    2    0    0  0.90691401274E+01  0.29025232728E+03 -0.38190891705E+02  0.38508077984E+03  0.25000000000E+03 0.  0.
<mgrwt>
<rscale>  0 0.82580144E+03</rscale>
<asrwt>0</asrwt>
<pdfrwt beam="1">  1        2 0.85050439E-01 0.82580144E+03</pdfrwt>
<pdfrwt beam="2">  1       -2 0.47444733E-01 0.82580144E+03</pdfrwt>
<totfact> 0.23175096E+02</totfact>
</mgrwt>
</event>
<event>
 4    1  0.6739609E-006  0.6159642E+03  0.7818608E-02  0.9872828E-01
          2   -1    0    0  501    0  0.00000000000E+00  0.00000000000E+00  0.12084363769E+04  0.12084363769E+04  0.25500000000E-02 0.  1.
         -2   -1    0    0    0  501 -0.00000000000E+00 -0.00000000000E+00 -0.78492330819E+02  0.78492330861E+02  0.25500000000E-02 0. -1.
   -5000001    1    1    2    0    0 -0.73422646190E+02 -0.16376681047E+03  0.54002841321E+03  0.62156346439E+03  0.25000000000E+03 0.  0.
    5000001    1    1    2    0    0  0.73422646190E+02  0.16376681047E+03  0.58991563282E+03  0.66536524333E+03  0.25000000000E+03 0.  0.
<mgrwt>
<rscale>  0 0.61596425E+03</rscale>
<asrwt>0</asrwt>
<pdfrwt beam="1">  1        2 0.18591328E+00 0.61596425E+03</pdfrwt>
<pdfrwt beam="2">  1       -2 0.12075744E-01 0.61596425E+03</pdfrwt>
<totfact> 0.95398336E+02</totfact>
</mgrwt>
</event>
<event>
 4    1  0.6739609E-006  0.8196667E+03  0.7818608E-02  0.9531979E-01
          2   -1    0    0  501    0  0.00000000000E+00  0.00000000000E+00  0.75056131168E+02  0.75056131212E+02  0.25500000000E-02 0.  1.
         -2   -1    0    0    0  501 -0.00000000000E+00 -0.00000000000E+00 -0.22378368545E+04  0.22378368545E+04  0.25500000000E-02 0. -1.
   -5000001    1    1    2    0    0 -0.14254486076E+03  0.28647007696E+03 -0.12379715581E+04  0.13028651968E+04  0.25000000000E+03 0.  0.
    5000001    1    1    2    0    0  0.14254486076E+03 -0.28647007696E+03 -0.92480916529E+03  0.10100277890E+04  0.25000000000E+03 0.  0.
<mgrwt>
<rscale>  0 0.81966670E+03</rscale>
<asrwt>0</asrwt>
<pdfrwt beam="1">  1        2 0.11547099E-01 0.81966670E+03</pdfrwt>
<pdfrwt beam="2">  1       -2 0.34428254E+00 0.81966670E+03</pdfrwt>
<totfact> 0.97796562E+00</totfact>
</mgrwt>
</event>
<event>
 4    1  0.6739609E-006  0.9187569E+03  0.7818608E-02  0.9402433E-01
          2   -1    0    0  501    0  0.00000000000E+00  0.00000000000E+00  0.17786002411E+04  0.17786002411E+04  0.25500000000E-02 0.  1.
         -2   -1    0    0    0  501 -0.00000000000E+00 -0.00000000000E+00 -0.11864866281E+03  0.11864866284E+03  0.25500000000E-02 0. -1.
   -5000001    1    1    2    0    0 -0.37921637071E+03 -0.80521230407E+01  0.68902949641E+03  0.82530693649E+03  0.25000000000E+03 0.  0.
    5000001    1    1    2    0    0  0.37921637071E+03  0.80521230407E+01  0.97092208190E+03  0.10719419675E+04  0.25000000000E+03 0.  0.
<mgrwt>
<rscale>  0 0.91875686E+03</rscale>
<asrwt>0</asrwt>
<pdfrwt beam="1">  1        2 0.27363081E+00 0.91875686E+03</pdfrwt>
<pdfrwt beam="2">  1       -2 0.18253640E-01 0.91875686E+03</pdfrwt>
<totfact> 0.22341477E+02</totfact>
</mgrwt>
</event>
<event>
 4    1  0.6739609E-006  0.8233209E+03  0.7818608E-02  0.9526861E-01
          2   -1    0    0  501    0  0.00000000000E+00  0.00000000000E+00  0.22486171246E+04  0.22486171246E+04  0.25500000000E-02 0.  1.
         -2   -1    0    0    0  501 -0.00000000000E+00 -0.00000000000E+00 -0.75363800294E+02  0.75363800337E+02  0.25500000000E-02 0. -1.
   -5000001    1    1    2    0    0  0.73325810837E+02 -0.28635152557E+03  0.69154602818E+03  0.79253377204E+03  0.25000000000E+03 0.  0.
    5000001    1    1    2    0    0 -0.73325810837E+02  0.28635152557E+03  0.14817072961E+04  0.15314471529E+04  0.25000000000E+03 0.  0.
<mgrwt>
<rscale>  0 0.82332091E+03</rscale>
<asrwt>0</asrwt>
<pdfrwt beam="1">  1        2 0.34594105E+00 0.82332091E+03</pdfrwt>
<pdfrwt beam="2">  1       -2 0.11594433E-01 0.82332091E+03</pdfrwt>
<totfact> 0.26737915E+02</totfact>
</mgrwt>
</event>
<event>
 4    1  0.6739609E-006  0.8207694E+03  0.7818608E-02  0.9530431E-01
         -2   -1    0    0    0  501 -0.00000000000E+00  0.00000000000E+00  0.19260141195E+03  0.19260141197E+03  0.25500000000E-02 0. -1.
          2   -1    0    0  501    0  0.00000000000E+00 -0.00000000000E+00 -0.87442555046E+03  0.87442555047E+03  0.25500000000E-02 0.  1.
   -5000001    1    1    2    0    0  0.38869475123E+01 -0.29046230053E+03 -0.53167669085E+03  0.65541098556E+03  0.25000000000E+03 0.  0.
    5000001    1    1    2    0    0 -0.38869475123E+01  0.29046230053E+03 -0.15014744766E+03  0.41161597688E+03  0.25000000000E+03 0.  0.
<mgrwt>
<rscale>  0 0.82076938E+03</rscale>
<asrwt>0</asrwt>
<pdfrwt beam="1">  1        2 0.13452701E+00 0.82076938E+03</pdfrwt>
<pdfrwt beam="2">  1       -2 0.29630987E-01 0.82076938E+03</pdfrwt>
<totfact> 0.32150891E+02</totfact>
</mgrwt>
</event>
<event>
 4    1  0.6739609E-006  0.1348936E+04  0.7818608E-02  0.8991634E-01
          2   -1    0    0  501    0  0.00000000000E+00  0.00000000000E+00  0.20077880586E+04  0.20077880586E+04  0.25500000000E-02 0.  1.
         -2   -1    0    0    0  501 -0.00000000000E+00 -0.00000000000E+00 -0.22657118072E+03  0.22657118074E+03  0.25500000000E-02 0. -1.
   -5000001    1    1    2    0    0 -0.56319597542E+03 -0.13039544306E+03  0.49096165160E+03  0.79858375994E+03  0.25000000000E+03 0.  0.
    5000001    1    1    2    0    0  0.56319597542E+03  0.13039544306E+03  0.12902552263E+04  0.14357754794E+04  0.25000000000E+03 0.  0.
<mgrwt>
<rscale>  0 0.13489357E+04</rscale>
<asrwt>0</asrwt>
<pdfrwt beam="1">  1        2 0.30889047E+00 0.13489357E+04</pdfrwt>
<pdfrwt beam="2">  1       -2 0.34857105E-01 0.13489357E+04</pdfrwt>
<totfact> 0.49930192E+01</totfact>
</mgrwt>
</event>
<event>
 4    1  0.6739609E-006  0.7388642E+03  0.7818608E-02  0.9652984E-01
         -2   -1    0    0    0  501 -0.00000000000E+00  0.00000000000E+00  0.10148355548E+03  0.10148355552E+03  0.25500000000E-02 0. -1.
          2   -1    0    0  501    0  0.00000000000E+00 -0.00000000000E+00 -0.13448491569E+04  0.13448491569E+04  0.25500000000E-02 0.  1.
   -5000001    1    1    2    0    0 -0.21774400085E+03 -0.71859661765E+02 -0.33529852805E+03  0.47697103036E+03  0.25000000000E+03 0.  0.
    5000001    1    1    2    0    0  0.21774400085E+03  0.71859661765E+02 -0.90806707340E+03  0.96936168208E+03  0.25000000000E+03 0.  0.
<mgrwt>
<rscale>  0 0.73886419E+03</rscale>
<asrwt>0</asrwt>
<pdfrwt beam="1">  1        2 0.20689986E+00 0.73886419E+03</pdfrwt>
<pdfrwt beam="2">  1       -2 0.15612856E-01 0.73886419E+03</pdfrwt>
<totfact> 0.51483560E+02</totfact>
</mgrwt>
</event>
<event>
 4    1  0.6739609E-006  0.7999629E+03  0.7818608E-02  0.9560071E-01
         -2   -1    0    0    0  501 -0.00000000000E+00  0.00000000000E+00  0.98562293129E+02  0.98562293162E+02  0.25500000000E-02 0. -1.
          2   -1    0    0  501    0  0.00000000000E+00 -0.00000000000E+00 -0.16231884229E+04  0.16231884229E+04  0.25500000000E-02 0.  1.
   -5000001    1    1    2    0    0  0.25474931792E+03  0.17844713292E+03 -0.70358363497E+03  0.80886990649E+03  0.25000000000E+03 0.  0.
    5000001    1    1    2    0    0 -0.25474931792E+03 -0.17844713292E+03 -0.82104249482E+03  0.91288080960E+03  0.25000000000E+03 0.  0.
<mgrwt>
<rscale>  0 0.79996293E+03</rscale>
<asrwt>0</asrwt>
<pdfrwt beam="1">  1        2 0.24972128E+00 0.79996293E+03</pdfrwt>
<pdfrwt beam="2">  1       -2 0.15163431E-01 0.79996293E+03</pdfrwt>
<totfact> 0.37671858E+02</totfact>
</mgrwt>
</event>
<event>
 4    1  0.6739609E-006  0.1017649E+04  0.7818608E-02  0.9289397E-01
         -2   -1    0    0    0  501 -0.00000000000E+00  0.00000000000E+00  0.57705035948E+03  0.57705035949E+03  0.25500000000E-02 0. -1.
          2   -1    0    0  501    0  0.00000000000E+00 -0.00000000000E+00 -0.44866511604E+03  0.44866511605E+03  0.25500000000E-02 0.  1.
   -5000001    1    1    2    0    0 -0.43060920152E+03 -0.62934027144E+02  0.14862649614E+03  0.52342603256E+03  0.25000000000E+03 0.  0.
    5000001    1    1    2    0    0  0.43060920152E+03  0.62934027144E+02 -0.20241252697E+02  0.50228944297E+03  0.25000000000E+03 0.  0.
<mgrwt>
<rscale>  0 0.10176490E+04</rscale>
<asrwt>0</asrwt>
<pdfrwt beam="1">  1        2 0.69025403E-01 0.10176490E+04</pdfrwt>
<pdfrwt beam="2">  1       -2 0.88776978E-01 0.10176490E+04</pdfrwt>
<totfact> 0.75963844E+01</totfact>
</mgrwt>
</event>
<event>
 4    1  0.6739609E-006  0.6638177E+03  0.7818608E-02  0.9781191E-01
         -2   -1    0    0    0  501 -0.00000000000E+00  0.00000000000E+00  0.62240801434E+02  0.62240801486E+02  0.25500000000E-02 0. -1.
          2   -1    0    0  501    0  0.00000000000E+00 -0.00000000000E+00 -0.17699560317E+04  0.17699560317E+04  0.25500000000E-02 0.  1.
   -5000001    1    1    2    0    0  0.41978792005E+02 -0.92519127812E+02 -0.13872158855E+04  0.14132197001E+04  0.25000000000E+03 0.  0.
    5000001    1    1    2    0    0 -0.41978792005E+02  0.92519127812E+02 -0.32049934477E+03  0.41897713301E+03  0.25000000000E+03 0.  0.
<mgrwt>
<rscale>  0 0.66381769E+03</rscale>
<asrwt>0</asrwt>
<pdfrwt beam="1">  1        2 0.27230089E+00 0.66381769E+03</pdfrwt>
<pdfrwt beam="2">  1       -2 0.95755093E-02 0.66381769E+03</pdfrwt>
<totfact> 0.67573414E+02</totfact>
</mgrwt>
</event>
<event>
 4    1  0.6739609E-006  0.7455077E+03  0.7818608E-02  0.9642425E-01
          2   -1    0    0  501    0  0.00000000000E+00  0.00000000000E+00  0.44699078051E+03  0.44699078051E+03  0.25500000000E-02 0.  1.
         -2   -1    0    0    0  501 -0.00000000000E+00 -0.00000000000E+00 -0.31084627191E+03  0.31084627192E+03  0.25500000000E-02 0. -1.
   -5000001    1    1    2    0    0 -0.25251193452E+03  0.52898343531E+02  0.16913939853E+03  0.39707511627E+03  0.25000000000E+03 0.  0.
    5000001    1    1    2    0    0  0.25251193452E+03 -0.52898343531E+02 -0.32994889932E+02  0.36076193616E+03  0.25000000000E+03 0.  0.
<mgrwt>
<rscale>  0 0.74550766E+03</rscale>
<asrwt>0</asrwt>
<pdfrwt beam="1">  1        2 0.68767812E-01 0.74550766E+03</pdfrwt>
<pdfrwt beam="2">  1       -2 0.47822503E-01 0.74550766E+03</pdfrwt>
<totfact> 0.29277196E+02</totfact>
</mgrwt>
</event>
<event>
 4    1  0.6739609E-006  0.6333254E+03  0.7818608E-02  0.9838581E-01
          2   -1    0    0  501    0  0.00000000000E+00  0.00000000000E+00  0.14921020300E+04  0.14921020300E+04  0.25500000000E-02 0.  1.
         -2   -1    0    0    0  501 -0.00000000000E+00 -0.00000000000E+00 -0.67204035316E+02  0.67204035364E+02  0.25500000000E-02 0. -1.
   -5000001    1    1    2    0    0  0.15256703297E+03 -0.10470715757E+03  0.85883463866E+03  0.91342061776E+03  0.25000000000E+03 0.  0.
    5000001    1    1    2    0    0 -0.15256703297E+03  0.10470715757E+03  0.56606335606E+03  0.64588544764E+03  0.25000000000E+03 0.  0.
<mgrwt>
<rscale>  0 0.63332544E+03</rscale>
<asrwt>0</asrwt>
<pdfrwt beam="1">  1        2 0.22955413E+00 0.63332544E+03</pdfrwt>
<pdfrwt beam="2">  1       -2 0.10339084E-01 0.63332544E+03</pdfrwt>
<totfact> 0.84832410E+02</totfact>
</mgrwt>
</event>
<event>
 4    1  0.6739609E-006  0.7935786E+03  0.7818608E-02  0.9569359E-01
         -2   -1    0    0    0  501 -0.00000000000E+00  0.00000000000E+00  0.14250348952E+04  0.14250348952E+04  0.25500000000E-02 0. -1.
          2   -1    0    0  501    0  0.00000000000E+00 -0.00000000000E+00 -0.11048273427E+03  0.11048273430E+03  0.25500000000E-02 0.  1.
   -5000001    1    1    2    0    0  0.16499193067E+02  0.26787509023E+03  0.36438863524E+03  0.51701872774E+03  0.25000000000E+03 0.  0.
    5000001    1    1    2    0    0 -0.16499193067E+02 -0.26787509023E+03  0.95016352568E+03  0.10184989018E+04  0.25000000000E+03 0.  0.
<mgrwt>
<rscale>  0 0.79357861E+03</rscale>
<asrwt>0</asrwt>
<pdfrwt beam="1">  1        2 0.16997345E-01 0.79357861E+03</pdfrwt>
<pdfrwt beam="2">  1       -2 0.21923612E+00 0.79357861E+03</pdfrwt>
<totfact> 0.35065869E+01</totfact>
</mgrwt>
</event>
<event>
 4    1  0.6739609E-006  0.8377286E+03  0.7818608E-02  0.9506957E-01
         -2   -1    0    0    0  501 -0.00000000000E+00  0.00000000000E+00  0.11455827491E+03  0.11455827494E+03  0.25500000000E-02 0. -1.
          2   -1    0    0  501    0  0.00000000000E+00 -0.00000000000E+00 -0.15315114182E+04  0.15315114182E+04  0.25500000000E-02 0.  1.
   -5000001    1    1    2    0    0 -0.14082826319E+03 -0.29657538258E+03 -0.84959215190E+03  0.94450853984E+03  0.25000000000E+03 0.  0.
    5000001    1    1    2    0    0  0.14082826319E+03  0.29657538258E+03 -0.56736099142E+03  0.70156115332E+03  0.25000000000E+03 0.  0.
<mgrwt>
<rscale>  0 0.83772861E+03</rscale>
<asrwt>0</asrwt>
<pdfrwt beam="1">  1        2 0.23561713E+00 0.83772861E+03</pdfrwt>
<pdfrwt beam="2">  1       -2 0.17624351E-01 0.83772861E+03</pdfrwt>
<totfact> 0.32667350E+02</totfact>
</mgrwt>
</event>
<event>
 4    1  0.6739609E-006  0.8501520E+03  0.7818608E-02  0.9490133E-01
          2   -1    0    0  501    0  0.00000000000E+00  0.00000000000E+00  0.70285593016E+03  0.70285593016E+03  0.25500000000E-02 0.  1.
         -2   -1    0    0    0  501 -0.00000000000E+00 -0.00000000000E+00 -0.25707913192E+03  0.25707913193E+03  0.25500000000E-02 0. -1.
   -5000001    1    1    2    0    0 -0.13313743039E+03 -0.31287870776E+03  0.16563641768E+03  0.45338072743E+03  0.25000000000E+03 0.  0.
    5000001    1    1    2    0    0  0.13313743039E+03  0.31287870776E+03  0.28014038056E+03  0.50655433466E+03  0.25000000000E+03 0.  0.
<mgrwt>
<rscale>  0 0.85015197E+03</rscale>
<asrwt>0</asrwt>
<pdfrwt beam="1">  1        2 0.10813168E+00 0.85015197E+03</pdfrwt>
<pdfrwt beam="2">  1       -2 0.39550636E-01 0.85015197E+03</pdfrwt>
<totfact> 0.24750532E+02</totfact>
</mgrwt>
</event>
<event>
 4    1  0.6739609E-006  0.5587453E+03  0.7818608E-02  0.9994898E-01
         -2   -1    0    0    0  501 -0.00000000000E+00  0.00000000000E+00  0.51872876097E+02  0.51872876160E+02  0.25500000000E-02 0. -1.
          2   -1    0    0  501    0  0.00000000000E+00 -0.00000000000E+00 -0.15046221992E+04  0.15046221992E+04  0.25500000000E-02 0.  1.
   -5000001    1    1    2    0    0  0.87273128740E+02  0.71718663336E+02 -0.87348782027E+03  0.91555509819E+03  0.25000000000E+03 0.  0.
    5000001    1    1    2    0    0 -0.87273128740E+02 -0.71718663336E+02 -0.57926150287E+03  0.64093997721E+03  0.25000000000E+03 0.  0.
<mgrwt>
<rscale>  0 0.55874531E+03</rscale>
<asrwt>0</asrwt>
<pdfrwt beam="1">  1        2 0.23148030E+00 0.55874531E+03</pdfrwt>
<pdfrwt beam="2">  1       -2 0.79804436E-02 0.55874531E+03</pdfrwt>
<totfact> 0.12708339E+03</totfact>
</mgrwt>
</event>
<event>
 4    1  0.6739609E-006  0.1015751E+04  0.7818608E-02  0.9291436E-01
          2   -1    0    0  501    0  0.00000000000E+00  0.00000000000E+00  0.48043410849E+03  0.48043410850E+03  0.25500000000E-02 0.  1.
         -2   -1    0    0    0  501 -0.00000000000E+00 -0.00000000000E+00 -0.53688441168E+03  0.53688441169E+03  0.25500000000E-02 0. -1.
   -5000001    1    1    2    0    0 -0.11404734757E+03 -0.41394566422E+03  0.77197777493E+02  0.50280941445E+03  0.25000000000E+03 0.  0.
    5000001    1    1    2    0    0  0.11404734757E+03  0.41394566422E+03 -0.13364808069E+03  0.51450910573E+03  0.25000000000E+03 0.  0.
<mgrwt>
<rscale>  0 0.10157511E+04</rscale>
<asrwt>0</asrwt>
<pdfrwt beam="1">  1        2 0.73912939E-01 0.10157511E+04</pdfrwt>
<pdfrwt beam="2">  1       -2 0.82597602E-01 0.10157511E+04</pdfrwt>
<totfact> 0.82804881E+01</totfact>
</mgrwt>
</event>
<event>
 4    1  0.6739609E-006  0.5879782E+03  0.7818608E-02  0.9930666E-01
          2   -1    0    0  501    0  0.00000000000E+00  0.00000000000E+00  0.18093882824E+04  0.18093882824E+04  0.25500000000E-02 0.  1.
         -2   -1    0    0    0  501 -0.00000000000E+00 -0.00000000000E+00 -0.47767295678E+02  0.47767295747E+02  0.25500000000E-02 0. -1.
   -5000001    1    1    2    0    0  0.14321641935E+03  0.58125021125E+02  0.86080308678E+03  0.90959959052E+03  0.25000000000E+03 0.  0.
    5000001    1    1    2    0    0 -0.14321641935E+03 -0.58125021125E+02  0.90081789998E+03  0.94755598767E+03  0.25000000000E+03 0.  0.
<mgrwt>
<rscale>  0 0.58797818E+03</rscale>
<asrwt>0</asrwt>
<pdfrwt beam="1">  1        2 0.27836745E+00 0.58797818E+03</pdfrwt>
<pdfrwt beam="2">  1       -2 0.73488141E-02 0.58797818E+03</pdfrwt>
<totfact> 0.98727110E+02</totfact>
</mgrwt>
</event>
<event>
 4    1  0.6739609E-006  0.8242257E+03  0.7818608E-02  0.9525599E-01
         -2   -1    0    0    0  501 -0.00000000000E+00  0.00000000000E+00  0.32843093172E+02  0.32843093271E+02  0.25500000000E-02 0. -1.
          2   -1    0    0  501    0  0.00000000000E+00 -0.00000000000E+00 -0.51711628548E+04  0.51711628548E+04  0.25500000000E-02 0.  1.
   -5000001    1    1    2    0    0 -0.66532087596E+02  0.29758597151E+03 -0.33255813083E+04  0.33488766725E+04  0.25000000000E+03 0.  0.
    5000001    1    1    2    0    0  0.66532087596E+02 -0.29758597151E+03 -0.18127384533E+04  0.18551292756E+04  0.25000000000E+03 0.  0.
<mgrwt>
<rscale>  0 0.82422566E+03</rscale>
<asrwt>0</asrwt>
<pdfrwt beam="1">  1        2 0.79556287E+00 0.82422566E+03</pdfrwt>
<pdfrwt beam="2">  1       -2 0.50527877E-02 0.82422566E+03</pdfrwt>
<totfact> 0.48165955E+00</totfact>
</mgrwt>
</event>
<event>
 4    1  0.6739609E-006  0.6597256E+03  0.7818608E-02  0.9788699E-01
         -2   -1    0    0    0  501 -0.00000000000E+00  0.00000000000E+00  0.23386447698E+03  0.23386447699E+03  0.25500000000E-02 0. -1.
          2   -1    0    0  501    0  0.00000000000E+00 -0.00000000000E+00 -0.46526722025E+03  0.46526722025E+03  0.25500000000E-02 0.  1.
   -5000001    1    1    2    0    0 -0.92320992994E+02  0.18964131437E+03 -0.16094184859E+03  0.36453980920E+03  0.25000000000E+03 0.  0.
    5000001    1    1    2    0    0  0.92320992994E+02 -0.18964131437E+03 -0.70460894675E+02  0.33459188804E+03  0.25000000000E+03 0.  0.
<mgrwt>
<rscale>  0 0.65972563E+03</rscale>
<asrwt>0</asrwt>
<pdfrwt beam="1">  1        2 0.71579572E-01 0.65972563E+03</pdfrwt>
<pdfrwt beam="2">  1       -2 0.35979150E-01 0.65972563E+03</pdfrwt>
<totfact> 0.48990300E+02</totfact>
</mgrwt>
</event>
<event>
 4    1  0.6739609E-006  0.5897410E+03  0.7818608E-02  0.9926922E-01
         -2   -1    0    0    0  501 -0.00000000000E+00  0.00000000000E+00  0.25254389475E+02  0.25254389604E+02  0.25500000000E-02 0. -1.
          2   -1    0    0  501    0  0.00000000000E+00 -0.00000000000E+00 -0.34429109322E+04  0.34429109322E+04  0.25500000000E-02 0.  1.
   -5000001    1    1    2    0    0  0.94784041008E+02 -0.11809996786E+03 -0.19378785501E+04  0.19597971558E+04  0.25000000000E+03 0.  0.
    5000001    1    1    2    0    0 -0.94784041008E+02  0.11809996786E+03 -0.14797779926E+04  0.15083681660E+04  0.25000000000E+03 0.  0.
<mgrwt>
<rscale>  0 0.58974101E+03</rscale>
<asrwt>0</asrwt>
<pdfrwt beam="1">  1        2 0.52967823E+00 0.58974101E+03</pdfrwt>
<pdfrwt beam="2">  1       -2 0.38852934E-02 0.58974101E+03</pdfrwt>
<totfact> 0.29783632E+02</totfact>
</mgrwt>
</event>
<event>
 4    1  0.6739609E-006  0.8365848E+03  0.7818608E-02  0.9508521E-01
         -2   -1    0    0    0  501 -0.00000000000E+00  0.00000000000E+00  0.15122196561E+03  0.15122196563E+03  0.25500000000E-02 0. -1.
          2   -1    0    0  501    0  0.00000000000E+00 -0.00000000000E+00 -0.11570313031E+04  0.11570313031E+04  0.25500000000E-02 0.  1.
   -5000001    1    1    2    0    0  0.29195833936E+03  0.13281238083E+03 -0.34976580316E+03  0.53639063889E+03  0.25000000000E+03 0.  0.
    5000001    1    1    2    0    0 -0.29195833936E+03 -0.13281238083E+03 -0.65604353434E+03  0.77186262986E+03  0.25000000000E+03 0.  0.
<mgrwt>
<rscale>  0 0.83658484E+03</rscale>
<asrwt>0</asrwt>
<pdfrwt beam="1">  1        2 0.17800481E+00 0.83658484E+03</pdfrwt>
<pdfrwt beam="2">  1       -2 0.23264919E-01 0.83658484E+03</pdfrwt>
<totfact> 0.32944844E+02</totfact>
</mgrwt>
</event>
<event>
 4    1  0.6739609E-006  0.6347336E+03  0.7818608E-02  0.9835855E-01
         -2   -1    0    0    0  501 -0.00000000000E+00  0.00000000000E+00  0.19515847492E+03  0.19515847493E+03  0.25500000000E-02 0. -1.
          2   -1    0    0  501    0  0.00000000000E+00 -0.00000000000E+00 -0.51610200312E+03  0.51610200313E+03  0.25500000000E-02 0.  1.
   -5000001    1    1    2    0    0  0.18520603543E+02 -0.17451092447E+03 -0.25702656184E+03  0.39919885897E+03  0.25000000000E+03 0.  0.
    5000001    1    1    2    0    0 -0.18520603543E+02  0.17451092447E+03 -0.63916966367E+02  0.31206161909E+03  0.25000000000E+03 0.  0.
<mgrwt>
<rscale>  0 0.63473358E+03</rscale>
<asrwt>0</asrwt>
<pdfrwt beam="1">  1        2 0.79400308E-01 0.63473358E+03</pdfrwt>
<pdfrwt beam="2">  1       -2 0.30024381E-01 0.63473358E+03</pdfrwt>
<totfact> 0.61115223E+02</totfact>
</mgrwt>
</event>
<event>
 4    1  0.6739609E-006  0.7176476E+03  0.7818608E-02  0.9687519E-01
          2   -1    0    0  501    0  0.00000000000E+00  0.00000000000E+00  0.92177075102E+03  0.92177075103E+03  0.25500000000E-02 0.  1.
         -2   -1    0    0    0  501 -0.00000000000E+00 -0.00000000000E+00 -0.13968172109E+03  0.13968172111E+03  0.25500000000E-02 0. -1.
   -5000001    1    1    2    0    0  0.22682832277E+03  0.11391639397E+03  0.45425632274E+03  0.57730134208E+03  0.25000000000E+03 0.  0.
    5000001    1    1    2    0    0 -0.22682832277E+03 -0.11391639397E+03  0.32783270720E+03  0.48415113006E+03  0.25000000000E+03 0.  0.
<mgrwt>
<rscale>  0 0.71764762E+03</rscale>
<asrwt>0</asrwt>
<pdfrwt beam="1">  1        2 0.14181089E+00 0.71764762E+03</pdfrwt>
<pdfrwt beam="2">  1       -2 0.21489495E-01 0.71764762E+03</pdfrwt>
<totfact> 0.53621254E+02</totfact>
</mgrwt>
</event>
<event>
 4    1  0.6739609E-006  0.7602858E+03  0.7818608E-02  0.9619350E-01
          2   -1    0    0  501    0  0.00000000000E+00  0.00000000000E+00  0.16038913729E+04  0.16038913729E+04  0.25500000000E-02 0.  1.
         -2   -1    0    0    0  501 -0.00000000000E+00 -0.00000000000E+00 -0.90098765193E+02  0.90098765229E+02  0.25500000000E-02 0. -1.
   -5000001    1    1    2    0    0 -0.17207632184E+03  0.16096712316E+03  0.11195217013E+04  0.11710463334E+04  0.25000000000E+03 0.  0.
    5000001    1    1    2    0    0  0.17207632184E+03 -0.16096712316E+03  0.39427090641E+03  0.52294380474E+03  0.25000000000E+03 0.  0.
<mgrwt>
<rscale>  0 0.76028582E+03</rscale>
<asrwt>0</asrwt>
<pdfrwt beam="1">  1        2 0.24675252E+00 0.76028582E+03</pdfrwt>
<pdfrwt beam="2">  1       -2 0.13861349E-01 0.76028582E+03</pdfrwt>
<totfact> 0.45025358E+02</totfact>
</mgrwt>
</event>
<event>
 4    1  0.6739609E-006  0.1008615E+04  0.7818608E-02  0.9299146E-01
          2   -1    0    0  501    0  0.00000000000E+00  0.00000000000E+00  0.32594459446E+03  0.32594459447E+03  0.25500000000E-02 0.  1.
         -2   -1    0    0    0  501 -0.00000000000E+00 -0.00000000000E+00 -0.78027449764E+03  0.78027449764E+03  0.25500000000E-02 0. -1.
   -5000001    1    1    2    0    0  0.98228876500E+02  0.28423927537E+03 -0.57638825491E+03  0.69653736313E+03  0.25000000000E+03 0.  0.
    5000001    1    1    2    0    0 -0.98228876500E+02 -0.28423927537E+03  0.12205835173E+03  0.40968172899E+03  0.25000000000E+03 0.  0.
<mgrwt>
<rscale>  0 0.10086154E+04</rscale>
<asrwt>0</asrwt>
<pdfrwt beam="1">  1        2 0.50145322E-01 0.10086154E+04</pdfrwt>
<pdfrwt beam="2">  1       -2 0.12004223E+00 0.10086154E+04</pdfrwt>
<totfact> 0.52962968E+01</totfact>
</mgrwt>
</event>
<event>
 4    1  0.6739609E-006  0.5773768E+03  0.7818608E-02  0.9953486E-01
         -2   -1    0    0    0  501 -0.00000000000E+00  0.00000000000E+00  0.41363515342E+02  0.41363515421E+02  0.25500000000E-02 0. -1.
          2   -1    0    0  501    0  0.00000000000E+00 -0.00000000000E+00 -0.20148433470E+04  0.20148433470E+04  0.25500000000E-02 0.  1.
   -5000001    1    1    2    0    0  0.35090411417E+02 -0.13981887077E+03 -0.95907389278E+03  0.10015504907E+04  0.25000000000E+03 0.  0.
    5000001    1    1    2    0    0 -0.35090411417E+02  0.13981887077E+03 -0.10144059389E+04  0.10546563717E+04  0.25000000000E+03 0.  0.
<mgrwt>
<rscale>  0 0.57737684E+03</rscale>
<asrwt>0</asrwt>
<pdfrwt beam="1">  1        2 0.30997582E+00 0.57737684E+03</pdfrwt>
<pdfrwt beam="2">  1       -2 0.63636193E-02 0.57737684E+03</pdfrwt>
<totfact> 0.96002883E+02</totfact>
</mgrwt>
</event>
<event>
 4    1  0.6739609E-006  0.6862550E+03  0.7818608E-02  0.9741031E-01
          2   -1    0    0  501    0  0.00000000000E+00  0.00000000000E+00  0.21058797953E+04  0.21058797953E+04  0.25500000000E-02 0.  1.
         -2   -1    0    0    0  501 -0.00000000000E+00 -0.00000000000E+00 -0.55908455676E+02  0.55908455734E+02  0.25500000000E-02 0. -1.
   -5000001    1    1    2    0    0 -0.50885992886E+02  0.20999687331E+03  0.73373264231E+03  0.80470594720E+03  0.25000000000E+03 0.  0.
    5000001    1    1    2    0    0  0.50885992886E+02 -0.20999687331E+03  0.13162386973E+04  0.13570823038E+04  0.25000000000E+03 0.  0.
<mgrwt>
<rscale>  0 0.68625502E+03</rscale>
<asrwt>0</asrwt>
<pdfrwt beam="1">  1        2 0.32398147E+00 0.68625502E+03</pdfrwt>
<pdfrwt beam="2">  1       -2 0.86013017E-02 0.68625502E+03</pdfrwt>
<totfact> 0.52673800E+02</totfact>
</mgrwt>
</event>
<event>
 4    1  0.6739609E-006  0.7862543E+03  0.7818608E-02  0.9580129E-01
         -2   -1    0    0    0  501 -0.00000000000E+00  0.00000000000E+00  0.28961782518E+03  0.28961782519E+03  0.25500000000E-02 0. -1.
          2   -1    0    0  501    0  0.00000000000E+00 -0.00000000000E+00 -0.53363072613E+03  0.53363072613E+03  0.25500000000E-02 0.  1.
   -5000001    1    1    2    0    0  0.12044092274E+03 -0.23575165858E+03 -0.27718251242E+03  0.45761884313E+03  0.25000000000E+03 0.  0.
    5000001    1    1    2    0    0 -0.12044092274E+03  0.23575165858E+03  0.33169611479E+02  0.36562970820E+03  0.25000000000E+03 0.  0.
<mgrwt>
<rscale>  0 0.78625434E+03</rscale>
<asrwt>0</asrwt>
<pdfrwt beam="1">  1        2 0.82097035E-01 0.78625434E+03</pdfrwt>
<pdfrwt beam="2">  1       -2 0.44556589E-01 0.78625434E+03</pdfrwt>
<totfact> 0.27443651E+02</totfact>
</mgrwt>
</event>
<event>
 4    1  0.6739609E-006  0.1516247E+04  0.7818608E-02  0.8873720E-01
         -2   -1    0    0    0  501 -0.00000000000E+00  0.00000000000E+00  0.33212914170E+03  0.33212914171E+03  0.25500000000E-02 0. -1.
          2   -1    0    0  501    0  0.00000000000E+00 -0.00000000000E+00 -0.17305051190E+04  0.17305051190E+04  0.25500000000E-02 0.  1.
   -5000001    1    1    2    0    0 -0.56050537746E+02  0.64987309525E+03 -0.29846127146E+03  0.75964191122E+03  0.25000000000E+03 0.  0.
    5000001    1    1    2    0    0  0.56050537746E+02 -0.64987309525E+03 -0.10999147059E+04  0.13029923495E+04  0.25000000000E+03 0.  0.
<mgrwt>
<rscale>  0 0.15162469E+04</rscale>
<asrwt>0</asrwt>
<pdfrwt beam="1">  1        2 0.26623155E+00 0.15162469E+04</pdfrwt>
<pdfrwt beam="2">  1       -2 0.51096792E-01 0.15162469E+04</pdfrwt>
<totfact> 0.32940768E+01</totfact>
</mgrwt>
</event>
<event>
 4    1  0.6739609E-006  0.5269240E+03  0.7818608E-02  0.1006981E+00
         -2   -1    0    0    0  501 -0.00000000000E+00  0.00000000000E+00  0.99970003601E+03  0.99970003602E+03  0.25500000000E-02 0. -1.
          2   -1    0    0  501    0  0.00000000000E+00 -0.00000000000E+00 -0.69433049293E+02  0.69433049340E+02  0.25500000000E-02 0.  1.
   -5000001    1    1    2    0    0 -0.80934977832E+02  0.17107112942E+02  0.48199966054E+03  0.54924202016E+03  0.25000000000E+03 0.  0.
    5000001    1    1    2    0    0  0.80934977832E+02 -0.17107112942E+02  0.44826732618E+03  0.51989106519E+03  0.25000000000E+03 0.  0.
<mgrwt>
<rscale>  0 0.52692399E+03</rscale>
<asrwt>0</asrwt>
<pdfrwt beam="1">  1        2 0.10682008E-01 0.52692399E+03</pdfrwt>
<pdfrwt beam="2">  1       -2 0.15380000E+00 0.52692399E+03</pdfrwt>
<totfact> 0.17447462E+02</totfact>
</mgrwt>
</event>
<event>
 4    1  0.6739609E-006  0.7602776E+03  0.7818608E-02  0.9619363E-01
         -2   -1    0    0    0  501 -0.00000000000E+00  0.00000000000E+00  0.43158260591E+02  0.43158260666E+02  0.25500000000E-02 0. -1.
          2   -1    0    0  501    0  0.00000000000E+00 -0.00000000000E+00 -0.33482699572E+04  0.33482699572E+04  0.25500000000E-02 0.  1.
   -5000001    1    1    2    0    0 -0.42340062968E+02  0.13600475510E+03 -0.54438256301E+03  0.61574536072E+03  0.25000000000E+03 0.  0.
    5000001    1    1    2    0    0  0.42340062968E+02 -0.13600475510E+03 -0.27607291336E+04  0.27756828572E+04  0.25000000000E+03 0.  0.
<mgrwt>
<rscale>  0 0.76027760E+03</rscale>
<asrwt>0</asrwt>
<pdfrwt beam="1">  1        2 0.51511825E+00 0.76027760E+03</pdfrwt>
<pdfrwt beam="2">  1       -2 0.66397350E-02 0.76027760E+03</pdfrwt>
<totfact> 0.14613219E+02</totfact>
</mgrwt>
</event>
<event>
 4    1  0.6739609E-006  0.1199947E+04  0.7818608E-02  0.9112903E-01
         -2   -1    0    0    0  501 -0.00000000000E+00  0.00000000000E+00  0.16543504927E+03  0.16543504929E+03  0.25500000000E-02 0. -1.
          2   -1    0    0  501    0  0.00000000000E+00 -0.00000000000E+00 -0.21758899623E+04  0.21758899623E+04  0.25500000000E-02 0.  1.
   -5000001    1    1    2    0    0 -0.27987665081E+03 -0.46644583720E+03 -0.10824365125E+04  0.12369605742E+04  0.25000000000E+03 0.  0.
    5000001    1    1    2    0    0  0.27987665081E+03  0.46644583720E+03 -0.92801840056E+03  0.11043644374E+04  0.25000000000E+03 0.  0.
<mgrwt>
<rscale>  0 0.11999474E+04</rscale>
<asrwt>0</asrwt>
<pdfrwt beam="1">  1        2 0.33475228E+00 0.11999474E+04</pdfrwt>
<pdfrwt beam="2">  1       -2 0.25451548E-01 0.11999474E+04</pdfrwt>
<totfact> 0.73204747E+01</totfact>
</mgrwt>
</event>
<event>
 4    1  0.6739609E-006  0.6076560E+03  0.7818608E-02  0.9889648E-01
         -2   -1    0    0    0  501 -0.00000000000E+00  0.00000000000E+00  0.23795376539E+02  0.23795376675E+02  0.25500000000E-02 0. -1.
          2   -1    0    0  501    0  0.00000000000E+00 -0.00000000000E+00 -0.38793855368E+04  0.38793855368E+04  0.25500000000E-02 0.  1.
   -5000001    1    1    2    0    0 -0.14253950305E+03  0.54398835536E+02 -0.24470416521E+04  0.24645059526E+04  0.25000000000E+03 0.  0.
    5000001    1    1    2    0    0  0.14253950305E+03 -0.54398835536E+02 -0.14085485082E+04  0.14386749609E+04  0.25000000000E+03 0.  0.
<mgrwt>
<rscale>  0 0.60765595E+03</rscale>
<asrwt>0</asrwt>
<pdfrwt beam="1">  1        2 0.59682804E+00 0.60765595E+03</pdfrwt>
<pdfrwt beam="2">  1       -2 0.36608302E-02 0.60765595E+03</pdfrwt>
<totfact> 0.15959504E+02</totfact>
</mgrwt>
</event>
<event>
 4    1  0.6739609E-006  0.6316802E+03  0.7818608E-02  0.9841776E-01
         -2   -1    0    0    0  501 -0.00000000000E+00  0.00000000000E+00  0.23883959292E+03  0.23883959293E+03  0.25500000000E-02 0. -1.
          2   -1    0    0  501    0  0.00000000000E+00 -0.00000000000E+00 -0.41766511069E+03  0.41766511070E+03  0.25500000000E-02 0.  1.
   -5000001    1    1    2    0    0  0.67262472834E+02 -0.25751366321E+02 -0.27552449484E+03  0.37894738471E+03  0.25000000000E+03 0.  0.
    5000001    1    1    2    0    0 -0.67262472834E+02  0.25751366321E+02  0.96698977067E+02  0.27755731892E+03  0.25000000000E+03 0.  0.
<mgrwt>
<rscale>  0 0.63168019E+03</rscale>
<asrwt>0</asrwt>
<pdfrwt beam="1">  1        2 0.64256171E-01 0.63168019E+03</pdfrwt>
<pdfrwt beam="2">  1       -2 0.36744553E-01 0.63168019E+03</pdfrwt>
<totfact> 0.53217366E+02</totfact>
</mgrwt>
</event>
<event>
 4    1  0.6739609E-006  0.5361073E+03  0.7818608E-02  0.1004762E+00
          2   -1    0    0  501    0  0.00000000000E+00  0.00000000000E+00  0.61554399895E+02  0.61554399948E+02  0.25500000000E-02 0. -1.
         -2   -1    0    0    0  501 -0.00000000000E+00 -0.00000000000E+00 -0.11673050578E+04  0.11673050578E+04  0.25500000000E-02 0.  1.
   -5000001    1    1    2    0    0  0.28081517900E+02  0.76163104051E+02 -0.43238000721E+03  0.50600579117E+03  0.25000000000E+03 0.  0.
    5000001    1    1    2    0    0 -0.28081517900E+02 -0.76163104051E+02 -0.67337065068E+03  0.72285366656E+03  0.25000000000E+03 0.  0.
<mgrwt>
<rscale>  0 0.53610731E+03</rscale>
<asrwt>0</asrwt>
<pdfrwt beam="1">  1        2 0.94699086E-02 0.53610731E+03</pdfrwt>
<pdfrwt beam="2">  1       -2 0.17958538E+00 0.53610731E+03</pdfrwt>
<totfact> 0.13307783E+02</totfact>
</mgrwt>
</event>
<event>
 4    1  0.6739609E-006  0.8167875E+03  0.7818608E-02  0.9536031E-01
         -2   -1    0    0    0  501 -0.00000000000E+00  0.00000000000E+00  0.33080840988E+03  0.33080840989E+03  0.25500000000E-02 0. -1.
          2   -1    0    0  501    0  0.00000000000E+00 -0.00000000000E+00 -0.50417536456E+03  0.50417536456E+03  0.25500000000E-02 0.  1.
   -5000001    1    1    2    0    0 -0.44901217708E+02 -0.30339921784E+03 -0.19002078312E+03  0.43894772212E+03  0.25000000000E+03 0.  0.
    5000001    1    1    2    0    0  0.44901217708E+02  0.30339921784E+03  0.16653828438E+02  0.39603605233E+03  0.25000000000E+03 0.  0.
<mgrwt>
<rscale>  0 0.81678749E+03</rscale>
<asrwt>0</asrwt>
<pdfrwt beam="1">  1        2 0.77565441E-01 0.81678749E+03</pdfrwt>
<pdfrwt beam="2">  1       -2 0.50893601E-01 0.81678749E+03</pdfrwt>
<totfact> 0.22404033E+02</totfact>
</mgrwt>
</event>
<event>
 4    1  0.6739609E-006  0.9217096E+03  0.7818608E-02  0.9398843E-01
          2   -1    0    0  501    0  0.00000000000E+00  0.00000000000E+00  0.59302525938E+03  0.59302525938E+03  0.25500000000E-02 0.  1.
         -2   -1    0    0    0  501 -0.00000000000E+00 -0.00000000000E+00 -0.35814185804E+03  0.35814185805E+03  0.25500000000E-02 0. -1.
   -5000001    1    1    2    0    0 -0.79372520766E+02 -0.37156097303E+03  0.19417963844E+03  0.49453340202E+03  0.25000000000E+03 0.  0.
    5000001    1    1    2    0    0  0.79372520766E+02  0.37156097303E+03  0.40703762900E+02  0.45663371541E+03  0.25000000000E+03 0.  0.
<mgrwt>
<rscale>  0 0.92170965E+03</rscale>
<asrwt>0</asrwt>
<pdfrwt beam="1">  1        2 0.91234655E-01 0.92170965E+03</pdfrwt>
<pdfrwt beam="2">  1       -2 0.55098748E-01 0.92170965E+03</pdfrwt>
<totfact> 0.15622544E+02</totfact>
</mgrwt>
</event>
<event>
 4    1  0.6739609E-006  0.9188174E+03  0.7818608E-02  0.9402360E-01
         -2   -1    0    0    0  501 -0.00000000000E+00  0.00000000000E+00  0.53692509027E+03  0.53692509027E+03  0.25500000000E-02 0. -1.
          2   -1    0    0  501    0  0.00000000000E+00 -0.00000000000E+00 -0.39308344719E+03  0.39308344720E+03  0.25500000000E-02 0.  1.
   -5000001    1    1    2    0    0 -0.94177388116E+02 -0.36161002641E+03 -0.23702990262E+02  0.45021441934E+03  0.25000000000E+03 0.  0.
    5000001    1    1    2    0    0  0.94177388116E+02  0.36161002641E+03  0.16754463334E+03  0.47979411813E+03  0.25000000000E+03 0.  0.
<mgrwt>
<rscale>  0 0.91881743E+03</rscale>
<asrwt>0</asrwt>
<pdfrwt beam="1">  1        2 0.60474377E-01 0.91881743E+03</pdfrwt>
<pdfrwt beam="2">  1       -2 0.82603860E-01 0.91881743E+03</pdfrwt>
<totfact> 0.10459909E+02</totfact>
</mgrwt>
</event>
<event>
 4    1  0.6739609E-006  0.7133577E+03  0.7818608E-02  0.9694658E-01
         -2   -1    0    0    0  501 -0.00000000000E+00  0.00000000000E+00  0.48435344973E+03  0.48435344974E+03  0.25500000000E-02 0. -1.
          2   -1    0    0  501    0  0.00000000000E+00 -0.00000000000E+00 -0.26265898595E+03  0.26265898596E+03  0.25500000000E-02 0.  1.
   -5000001    1    1    2    0    0 -0.66318460465E+02 -0.22363816097E+03  0.45309645525E+01  0.34195422922E+03  0.25000000000E+03 0.  0.
    5000001    1    1    2    0    0  0.66318460465E+02  0.22363816097E+03  0.21716349923E+03  0.40505820648E+03  0.25000000000E+03 0.  0.
<mgrwt>
<rscale>  0 0.71335765E+03</rscale>
<asrwt>0</asrwt>
<pdfrwt beam="1">  1        2 0.40409075E-01 0.71335765E+03</pdfrwt>
<pdfrwt beam="2">  1       -2 0.74515915E-01 0.71335765E+03</pdfrwt>
<totfact> 0.20829014E+02</totfact>
</mgrwt>
</event>
<event>
 4    1  0.6739609E-006  0.1509271E+04  0.7818608E-02  0.8878311E-01
         -2   -1    0    0    0  501 -0.00000000000E+00  0.00000000000E+00  0.33154929172E+03  0.33154929173E+03  0.25500000000E-02 0. -1.
          2   -1    0    0  501    0  0.00000000000E+00 -0.00000000000E+00 -0.17176175911E+04  0.17176175911E+04  0.25500000000E-02 0.  1.
   -5000001    1    1    2    0    0 -0.38390699377E+03 -0.29620942709E+02  0.12013996949E+03  0.47454777672E+03  0.25000000000E+03 0.  0.
    5000001    1    1    2    0    0  0.38390699377E+03  0.29620942709E+02 -0.15062082689E+04  0.15746191061E+04  0.25000000000E+03 0.  0.
<mgrwt>
<rscale>  0 0.15092712E+04</rscale>
<asrwt>0</asrwt>
<pdfrwt beam="1">  1        2 0.26424886E+00 0.15092712E+04</pdfrwt>
<pdfrwt beam="2">  1       -2 0.51007584E-01 0.15092712E+04</pdfrwt>
<totfact> 0.33626557E+01</totfact>
</mgrwt>
</event>
<event>
 4    1  0.6739609E-006  0.6650990E+03  0.7818608E-02  0.9778852E-01
          2   -1    0    0  501    0  0.00000000000E+00  0.00000000000E+00  0.11083036023E+04  0.11083036023E+04  0.25500000000E-02 0.  1.
         -2   -1    0    0    0  501 -0.00000000000E+00 -0.00000000000E+00 -0.99782388554E+02  0.99782388587E+02  0.25500000000E-02 0. -1.
   -5000001    1    1    2    0    0  0.19490595586E+03  0.65126606861E+02  0.64329977086E+03  0.72011415882E+03  0.25000000000E+03 0.  0.
    5000001    1    1    2    0    0 -0.19490595586E+03 -0.65126606861E+02  0.36522144291E+03  0.48797183209E+03  0.25000000000E+03 0.  0.
<mgrwt>
<rscale>  0 0.66509903E+03</rscale>
<asrwt>0</asrwt>
<pdfrwt beam="1">  1        2 0.17050824E+00 0.66509903E+03</pdfrwt>
<pdfrwt beam="2">  1       -2 0.15351137E-01 0.66509903E+03</pdfrwt>
<totfact> 0.73181485E+02</totfact>
</mgrwt>
</event>
<event>
 4    1  0.6739609E-006  0.7138303E+03  0.7818608E-02  0.9693868E-01
          2   -1    0    0  501    0  0.00000000000E+00  0.00000000000E+00  0.12686936969E+04  0.12686936969E+04  0.25500000000E-02 0.  1.
         -2   -1    0    0    0  501 -0.00000000000E+00 -0.00000000000E+00 -0.10040913537E+03  0.10040913540E+03  0.25500000000E-02 0. -1.
   -5000001    1    1    2    0    0  0.21649178072E+03  0.22920906349E+01  0.84156808771E+03  0.90421833151E+03  0.25000000000E+03 0.  0.
    5000001    1    1    2    0    0 -0.21649178072E+03 -0.22920906349E+01  0.32671647381E+03  0.46488450077E+03  0.25000000000E+03 0.  0.
<mgrwt>
<rscale>  0 0.71383034E+03</rscale>
<asrwt>0</asrwt>
<pdfrwt beam="1">  1        2 0.19518365E+00 0.71383034E+03</pdfrwt>
<pdfrwt beam="2">  1       -2 0.15447559E-01 0.71383034E+03</pdfrwt>
<totfact> 0.58055794E+02</totfact>
</mgrwt>
</event>
<event>
 4    1  0.6739609E-006  0.5186172E+03  0.7818608E-02  0.1009031E+00
          2   -1    0    0  501    0  0.00000000000E+00  0.00000000000E+00  0.23188393255E+03  0.23188393257E+03  0.25500000000E-02 0.  1.
         -2   -1    0    0    0  501 -0.00000000000E+00 -0.00000000000E+00 -0.28997670759E+03  0.28997670760E+03  0.25500000000E-02 0. -1.
   -5000001    1    1    2    0    0  0.61207872874E+02  0.93585624552E+01 -0.59350392761E+02  0.26430371831E+03  0.25000000000E+03 0.  0.
    5000001    1    1    2    0    0 -0.61207872874E+02 -0.93585624552E+01  0.12576177264E+01  0.25755692185E+03  0.25000000000E+03 0.  0.
<mgrwt>
<rscale>  0 0.51861716E+03</rscale>
<asrwt>0</asrwt>
<pdfrwt beam="1">  1        2 0.35674451E-01 0.51861716E+03</pdfrwt>
<pdfrwt beam="2">  1       -2 0.44611801E-01 0.51861716E+03</pdfrwt>
<totfact> 0.70147812E+02</totfact>
</mgrwt>
</event>
<event>
 4    1  0.6739609E-006  0.6305323E+03  0.7818608E-02  0.9844011E-01
         -2   -1    0    0    0  501 -0.00000000000E+00  0.00000000000E+00  0.42975801026E+02  0.42975801102E+02  0.25500000000E-02 0. -1.
          2   -1    0    0  501    0  0.00000000000E+00 -0.00000000000E+00 -0.23127604900E+04  0.23127604900E+04  0.25500000000E-02 0.  1.
   -5000001    1    1    2    0    0  0.12031922942E+03  0.38243224992E+02 -0.16757056530E+04  0.16989492920E+04  0.25000000000E+03 0.  0.
    5000001    1    1    2    0    0 -0.12031922942E+03 -0.38243224992E+02 -0.59407903592E+03  0.65678699907E+03  0.25000000000E+03 0.  0.
<mgrwt>
<rscale>  0 0.63053227E+03</rscale>
<asrwt>0</asrwt>
<pdfrwt beam="1">  1        2 0.35580921E+00 0.63053227E+03</pdfrwt>
<pdfrwt beam="2">  1       -2 0.66116635E-02 0.63053227E+03</pdfrwt>
<totfact> 0.61893327E+02</totfact>
</mgrwt>
</event>
<event>
 4    1  0.6739609E-006  0.6103164E+03  0.7818608E-02  0.9884231E-01
         -2   -1    0    0    0  501 -0.00000000000E+00  0.00000000000E+00  0.93526498747E+02  0.93526498781E+02  0.25500000000E-02 0. -1.
          2   -1    0    0  501    0  0.00000000000E+00 -0.00000000000E+00 -0.99566985783E+03  0.99566985783E+03  0.25500000000E-02 0.  1.
   -5000001    1    1    2    0    0 -0.13628439207E+03  0.72620659915E+02 -0.30418445705E+03  0.42293661426E+03  0.25000000000E+03 0.  0.
    5000001    1    1    2    0    0  0.13628439207E+03 -0.72620659915E+02 -0.59795890203E+03  0.66625974236E+03  0.25000000000E+03 0.  0.
<mgrwt>
<rscale>  0 0.61031636E+03</rscale>
<asrwt>0</asrwt>
<pdfrwt beam="1">  1        2 0.15317997E+00 0.61031636E+03</pdfrwt>
<pdfrwt beam="2">  1       -2 0.14388693E-01 0.61031636E+03</pdfrwt>
<totfact> 0.96040173E+02</totfact>
</mgrwt>
</event>
<event>
 4    1  0.6739609E-006  0.7235301E+03  0.7818608E-02  0.9677818E-01
          2   -1    0    0  501    0  0.00000000000E+00  0.00000000000E+00  0.10089414883E+04  0.10089414883E+04  0.25500000000E-02 0.  1.
         -2   -1    0    0    0  501 -0.00000000000E+00 -0.00000000000E+00 -0.12971412806E+03  0.12971412809E+03  0.25500000000E-02 0. -1.
   -5000001    1    1    2    0    0 -0.25500000438E+03  0.51197834805E+02  0.39715902108E+03  0.53654590535E+03  0.25000000000E+03 0.  0.
    5000001    1    1    2    0    0  0.25500000438E+03 -0.51197834805E+02  0.48206833919E+03  0.60210971108E+03  0.25000000000E+03 0.  0.
<mgrwt>
<rscale>  0 0.72353014E+03</rscale>
<asrwt>0</asrwt>
<pdfrwt beam="1">  1        2 0.15522177E+00 0.72353014E+03</pdfrwt>
<pdfrwt beam="2">  1       -2 0.19956020E-01 0.72353014E+03</pdfrwt>
<totfact> 0.53604586E+02</totfact>
</mgrwt>
</event>
<event>
 4    1  0.6739609E-006  0.8900398E+03  0.7818608E-02  0.9438118E-01
         -2   -1    0    0    0  501 -0.00000000000E+00  0.00000000000E+00  0.47138527458E+03  0.47138527459E+03  0.25500000000E-02 0. -1.
          2   -1    0    0  501    0  0.00000000000E+00 -0.00000000000E+00 -0.42012921636E+03  0.42012921637E+03  0.25500000000E-02 0.  1.
   -5000001    1    1    2    0    0  0.34330644125E+03  0.12715346550E+03  0.64620789738E+02  0.44799906569E+03  0.25000000000E+03 0.  0.
    5000001    1    1    2    0    0 -0.34330644125E+03 -0.12715346550E+03 -0.13364731522E+02  0.44351542526E+03  0.25000000000E+03 0.  0.
<mgrwt>
<rscale>  0 0.89003983E+03</rscale>
<asrwt>0</asrwt>
<pdfrwt beam="1">  1        2 0.64635265E-01 0.89003983E+03</pdfrwt>
<pdfrwt beam="2">  1       -2 0.72520811E-01 0.89003983E+03</pdfrwt>
<totfact> 0.12995222E+02</totfact>
</mgrwt>
</event>
<event>
 4    1  0.6739609E-006  0.1280080E+04  0.7818608E-02  0.9045512E-01
         -2   -1    0    0    0  501 -0.00000000000E+00  0.00000000000E+00  0.50492618695E+03  0.50492618695E+03  0.25500000000E-02 0. -1.
          2   -1    0    0  501    0  0.00000000000E+00 -0.00000000000E+00 -0.81130968476E+03  0.81130968477E+03  0.25500000000E-02 0.  1.
   -5000001    1    1    2    0    0  0.39578455612E+03  0.42960398210E+03 -0.23248340692E+03  0.67657485232E+03  0.25000000000E+03 0.  0.
    5000001    1    1    2    0    0 -0.39578455612E+03 -0.42960398210E+03 -0.73900090899E+02  0.63966101940E+03  0.25000000000E+03 0.  0.
<mgrwt>
<rscale>  0 0.12800805E+04</rscale>
<asrwt>0</asrwt>
<pdfrwt beam="1">  1        2 0.12481687E+00 0.12800805E+04</pdfrwt>
<pdfrwt beam="2">  1       -2 0.77680952E-01 0.12800805E+04</pdfrwt>
<totfact> 0.49015682E+01</totfact>
</mgrwt>
</event>
<event>
 4    1  0.6739609E-006  0.8095856E+03  0.7818608E-02  0.9546245E-01
          2   -1    0    0  501    0  0.00000000000E+00  0.00000000000E+00  0.78109428799E+03  0.78109428799E+03  0.25500000000E-02 0.  1.
         -2   -1    0    0    0  501 -0.00000000000E+00 -0.00000000000E+00 -0.20977904802E+03  0.20977904803E+03  0.25500000000E-02 0. -1.
   -5000001    1    1    2    0    0  0.29250112742E+03 -0.53326682344E+02  0.14634180844E+03  0.41511031003E+03  0.25000000000E+03 0.  0.
    5000001    1    1    2    0    0 -0.29250112742E+03  0.53326682344E+02  0.42497343153E+03  0.57576302600E+03  0.25000000000E+03 0.  0.
<mgrwt>
<rscale>  0 0.80958561E+03</rscale>
<asrwt>0</asrwt>
<pdfrwt beam="1">  1        2 0.12016835E+00 0.80958561E+03</pdfrwt>
<pdfrwt beam="2">  1       -2 0.32273699E-01 0.80958561E+03</pdfrwt>
<totfact> 0.31924180E+02</totfact>
</mgrwt>
</event>
<event>
 4    1  0.6739609E-006  0.5866030E+03  0.7818608E-02  0.9933597E-01
         -2   -1    0    0    0  501 -0.00000000000E+00  0.00000000000E+00  0.32145020912E+03  0.32145020913E+03  0.25500000000E-02 0. -1.
          2   -1    0    0  501    0  0.00000000000E+00 -0.00000000000E+00 -0.26761770341E+03  0.26761770342E+03  0.25500000000E-02 0.  1.
   -5000001    1    1    2    0    0 -0.12256833216E+03  0.18625168479E+02 -0.63773108398E+02  0.28624622671E+03  0.25000000000E+03 0.  0.
    5000001    1    1    2    0    0  0.12256833216E+03 -0.18625168479E+02  0.11760561411E+03  0.30282168584E+03  0.25000000000E+03 0.  0.
<mgrwt>
<rscale>  0 0.58660299E+03</rscale>
<asrwt>0</asrwt>
<pdfrwt beam="1">  1        2 0.41171954E-01 0.58660299E+03</pdfrwt>
<pdfrwt beam="2">  1       -2 0.49453879E-01 0.58660299E+03</pdfrwt>
<totfact> 0.48676790E+02</totfact>
</mgrwt>
</event>
<event>
 4    1  0.6739609E-006  0.7190602E+03  0.7818608E-02  0.9685181E-01
          2   -1    0    0  501    0  0.00000000000E+00  0.00000000000E+00  0.63102707586E+03  0.63102707587E+03  0.25500000000E-02 0.  1.
         -2   -1    0    0    0  501 -0.00000000000E+00 -0.00000000000E+00 -0.20484366432E+03  0.20484366434E+03  0.25500000000E-02 0. -1.
   -5000001    1    1    2    0    0 -0.23564531504E+03  0.12681512271E+02  0.33541073481E+03  0.48030188036E+03  0.25000000000E+03 0.  0.
    5000001    1    1    2    0    0  0.23564531504E+03 -0.12681512271E+02  0.90772676729E+02  0.35556885985E+03  0.25000000000E+03 0.  0.
<mgrwt>
<rscale>  0 0.71906022E+03</rscale>
<asrwt>0</asrwt>
<pdfrwt beam="1">  1        2 0.97081088E-01 0.71906022E+03</pdfrwt>
<pdfrwt beam="2">  1       -2 0.31514410E-01 0.71906022E+03</pdfrwt>
<totfact> 0.43871841E+02</totfact>
</mgrwt>
</event>
<event>
 4    1  0.6739609E-006  0.6811496E+03  0.7818608E-02  0.9750023E-01
         -2   -1    0    0    0  501 -0.00000000000E+00  0.00000000000E+00  0.17268110262E+03  0.17268110264E+03  0.25500000000E-02 0. -1.
          2   -1    0    0  501    0  0.00000000000E+00 -0.00000000000E+00 -0.67170757547E+03  0.67170757548E+03  0.25500000000E-02 0.  1.
   -5000001    1    1    2    0    0 -0.23757394204E+02 -0.22112243376E+03 -0.32822539844E+03  0.46871255229E+03  0.25000000000E+03 0.  0.
    5000001    1    1    2    0    0  0.23757394204E+02  0.22112243376E+03 -0.17080107441E+03  0.37567612582E+03  0.25000000000E+03 0.  0.
<mgrwt>
<rscale>  0 0.68114963E+03</rscale>
<asrwt>0</asrwt>
<pdfrwt beam="1">  1        2 0.10333963E+00 0.68114963E+03</pdfrwt>
<pdfrwt beam="2">  1       -2 0.26566324E-01 0.68114963E+03</pdfrwt>
<totfact> 0.55714815E+02</totfact>
</mgrwt>
</event>
<event>
 4    1  0.6739609E-006  0.7060174E+03  0.7818608E-02  0.9706997E-01
          2   -1    0    0  501    0  0.00000000000E+00  0.00000000000E+00  0.81056466215E+03  0.81056466215E+03  0.25500000000E-02 0.  1.
         -2   -1    0    0    0  501 -0.00000000000E+00 -0.00000000000E+00 -0.15373868407E+03  0.15373868409E+03  0.25500000000E-02 0. -1.
   -5000001    1    1    2    0    0 -0.10403490045E+03 -0.19538427414E+03  0.17198539590E+03  0.37560251796E+03  0.25000000000E+03 0.  0.
    5000001    1    1    2    0    0  0.10403490045E+03  0.19538427414E+03  0.48484058218E+03  0.58870082829E+03  0.25000000000E+03 0.  0.
<mgrwt>
<rscale>  0 0.70601741E+03</rscale>
<asrwt>0</asrwt>
<pdfrwt beam="1">  1        2 0.12470226E+00 0.70601741E+03</pdfrwt>
<pdfrwt beam="2">  1       -2 0.23652105E-01 0.70601741E+03</pdfrwt>
<totfact> 0.53935291E+02</totfact>
</mgrwt>
</event>
<event>
 4    1  0.6739609E-006  0.9992427E+03  0.7818608E-02  0.9309376E-01
          2   -1    0    0  501    0  0.00000000000E+00  0.00000000000E+00  0.14147928291E+04  0.14147928291E+04  0.25500000000E-02 0.  1.
         -2   -1    0    0    0  501 -0.00000000000E+00 -0.00000000000E+00 -0.17643678190E+03  0.17643678192E+03  0.25500000000E-02 0. -1.
   -5000001    1    1    2    0    0  0.32209153073E+03 -0.15361182244E+03  0.10085340468E+04  0.10986266289E+04  0.25000000000E+03 0.  0.
    5000001    1    1    2    0    0 -0.32209153073E+03  0.15361182244E+03  0.22982200046E+03  0.49260298219E+03  0.25000000000E+03 0.  0.
<mgrwt>
<rscale>  0 0.99924270E+03</rscale>
<asrwt>0</asrwt>
<pdfrwt beam="1">  1        2 0.21766044E+00 0.99924270E+03</pdfrwt>
<pdfrwt beam="2">  1       -2 0.27144120E-01 0.99924270E+03</pdfrwt>
<totfact> 0.17469263E+02</totfact>
</mgrwt>
</event>
<event>
 4    1  0.6739609E-006  0.5988034E+03  0.7818608E-02  0.9907892E-01
         -2   -1    0    0    0  501 -0.00000000000E+00  0.00000000000E+00  0.34280466416E+02  0.34280466511E+02  0.25500000000E-02 0. -1.
          2   -1    0    0  501    0  0.00000000000E+00 -0.00000000000E+00 -0.26149404024E+04  0.26149404024E+04  0.25500000000E-02 0.  1.
   -5000001    1    1    2    0    0  0.15227153256E+03  0.61845569217E+02 -0.12399091845E+04  0.12754945237E+04  0.25000000000E+03 0.  0.
    5000001    1    1    2    0    0 -0.15227153256E+03 -0.61845569217E+02 -0.13407507515E+04  0.13737263452E+04  0.25000000000E+03 0.  0.
<mgrwt>
<rscale>  0 0.59880340E+03</rscale>
<asrwt>0</asrwt>
<pdfrwt beam="1">  1        2 0.40229837E+00 0.59880340E+03</pdfrwt>
<pdfrwt beam="2">  1       -2 0.52739200E-02 0.59880340E+03</pdfrwt>
<totfact> 0.59827732E+02</totfact>
</mgrwt>
</event>
<event>
 4    1  0.6739609E-006  0.7173481E+03  0.7818608E-02  0.9688016E-01
          2   -1    0    0  501    0  0.00000000000E+00  0.00000000000E+00  0.92300255061E+03  0.92300255061E+03  0.25500000000E-02 0.  1.
         -2   -1    0    0    0  501 -0.00000000000E+00 -0.00000000000E+00 -0.13937890734E+03  0.13937890736E+03  0.25500000000E-02 0. -1.
   -5000001    1    1    2    0    0 -0.23096275651E+03  0.24945796382E+02  0.55526447237E+03  0.65175510886E+03  0.25000000000E+03 0.  0.
    5000001    1    1    2    0    0  0.23096275651E+03 -0.24945796382E+02  0.22835917090E+03  0.41062634911E+03  0.25000000000E+03 0.  0.
<mgrwt>
<rscale>  0 0.71734814E+03</rscale>
<asrwt>0</asrwt>
<pdfrwt beam="1">  1        2 0.14200040E+00 0.71734814E+03</pdfrwt>
<pdfrwt beam="2">  1       -2 0.21442908E-01 0.71734814E+03</pdfrwt>
<totfact> 0.53726479E+02</totfact>
</mgrwt>
</event>
<event>
 4    1  0.6739609E-006  0.6230714E+03  0.7818608E-02  0.9858663E-01
          2   -1    0    0  501    0  0.00000000000E+00  0.00000000000E+00  0.80045837602E+03  0.80045837602E+03  0.25500000000E-02 0.  1.
         -2   -1    0    0    0  501 -0.00000000000E+00 -0.00000000000E+00 -0.12124865782E+03  0.12124865785E+03  0.25500000000E-02 0. -1.
   -5000001    1    1    2    0    0  0.15533334559E+03 -0.95285562013E+02  0.28531818224E+03  0.42084944066E+03  0.25000000000E+03 0.  0.
    5000001    1    1    2    0    0 -0.15533334559E+03  0.95285562013E+02  0.39389153596E+03  0.50085759321E+03  0.25000000000E+03 0.  0.
<mgrwt>
<rscale>  0 0.62307144E+03</rscale>
<asrwt>0</asrwt>
<pdfrwt beam="1">  1        2 0.12314745E+00 0.62307144E+03</pdfrwt>
<pdfrwt beam="2">  1       -2 0.18653639E-01 0.62307144E+03</pdfrwt>
<totfact> 0.83439685E+02</totfact>
</mgrwt>
</event>
<event>
 4    1  0.6739609E-006  0.6754178E+03  0.7818608E-02  0.9760220E-01
          2   -1    0    0  501    0  0.00000000000E+00  0.00000000000E+00  0.13258915957E+04  0.13258915957E+04  0.25500000000E-02 0.  1.
         -2   -1    0    0    0  501 -0.00000000000E+00 -0.00000000000E+00 -0.86015561114E+02  0.86015561152E+02  0.25500000000E-02 0. -1.
   -5000001    1    1    2    0    0 -0.14501237154E+03  0.17114311384E+03  0.69321481786E+03  0.77030210762E+03  0.25000000000E+03 0.  0.
    5000001    1    1    2    0    0  0.14501237154E+03 -0.17114311384E+03  0.54666121669E+03  0.64160504919E+03  0.25000000000E+03 0.  0.
<mgrwt>
<rscale>  0 0.67541783E+03</rscale>
<asrwt>0</asrwt>
<pdfrwt beam="1">  1        2 0.20398332E+00 0.67541783E+03</pdfrwt>
<pdfrwt beam="2">  1       -2 0.13233164E-01 0.67541783E+03</pdfrwt>
<totfact> 0.69927715E+02</totfact>
</mgrwt>
</event>
<event>
 4    1  0.6739609E-006  0.1031806E+04  0.7818608E-02  0.9274332E-01
          2   -1    0    0  501    0  0.00000000000E+00  0.00000000000E+00  0.51721466067E+03  0.51721466068E+03  0.25500000000E-02 0.  1.
         -2   -1    0    0    0  501 -0.00000000000E+00 -0.00000000000E+00 -0.51459456643E+03  0.51459456643E+03  0.25500000000E-02 0. -1.
   -5000001    1    1    2    0    0 -0.43701828121E+03 -0.34135085156E+02  0.10857488807E+03  0.51617699336E+03  0.25000000000E+03 0.  0.
    5000001    1    1    2    0    0  0.43701828121E+03  0.34135085156E+02 -0.10595479382E+03  0.51563223376E+03  0.25000000000E+03 0.  0.
<mgrwt>
<rscale>  0 0.10318059E+04</rscale>
<asrwt>0</asrwt>
<pdfrwt beam="1">  1        2 0.79571486E-01 0.10318059E+04</pdfrwt>
<pdfrwt beam="2">  1       -2 0.79168395E-01 0.10318059E+04</pdfrwt>
<totfact> 0.83549110E+01</totfact>
</mgrwt>
</event>
<event>
 4    1  0.6739609E-006  0.8932101E+03  0.7818608E-02  0.9434109E-01
          2   -1    0    0  501    0  0.00000000000E+00  0.00000000000E+00  0.66491598630E+03  0.66491598631E+03  0.25500000000E-02 0.  1.
         -2   -1    0    0    0  501 -0.00000000000E+00 -0.00000000000E+00 -0.29997182639E+03  0.29997182641E+03  0.25500000000E-02 0. -1.
   -5000001    1    1    2    0    0  0.27213393415E+03 -0.12253631798E+03  0.41885635150E+03  0.57185021687E+03  0.25000000000E+03 0.  0.
    5000001    1    1    2    0    0 -0.27213393415E+03  0.12253631798E+03 -0.53912191596E+02  0.39303759584E+03  0.25000000000E+03 0.  0.
<mgrwt>
<rscale>  0 0.89321008E+03</rscale>
<asrwt>0</asrwt>
<pdfrwt beam="1">  1        2 0.10229477E+00 0.89321008E+03</pdfrwt>
<pdfrwt beam="2">  1       -2 0.46149512E-01 0.89321008E+03</pdfrwt>
<totfact> 0.19523624E+02</totfact>
</mgrwt>
</event>
<event>
 4    1  0.6739609E-006  0.9141864E+03  0.7818608E-02  0.9408020E-01
         -2   -1    0    0    0  501 -0.00000000000E+00  0.00000000000E+00  0.49975512514E+03  0.49975512514E+03  0.25500000000E-02 0. -1.
          2   -1    0    0  501    0  0.00000000000E+00 -0.00000000000E+00 -0.41807309874E+03  0.41807309874E+03  0.25500000000E-02 0.  1.
   -5000001    1    1    2    0    0 -0.10147853054E+03  0.11401894129E+03 -0.31146424710E+03  0.42756074230E+03  0.25000000000E+03 0.  0.
    5000001    1    1    2    0    0  0.10147853054E+03 -0.11401894129E+03  0.39314627350E+03  0.49026748159E+03  0.25000000000E+03 0.  0.
<mgrwt>
<rscale>  0 0.91418636E+03</rscale>
<asrwt>0</asrwt>
<pdfrwt beam="1">  1        2 0.64318938E-01 0.91418636E+03</pdfrwt>
<pdfrwt beam="2">  1       -2 0.76885404E-01 0.91418636E+03</pdfrwt>
<totfact> 0.11466949E+02</totfact>
</mgrwt>
</event>
<event>
 4    1  0.6739609E-006  0.7514182E+03  0.7818608E-02  0.9633128E-01
          2   -1    0    0  501    0  0.00000000000E+00  0.00000000000E+00  0.89840313121E+03  0.89840313121E+03  0.25500000000E-02 0.  1.
         -2   -1    0    0    0  501 -0.00000000000E+00 -0.00000000000E+00 -0.15712024574E+03  0.15712024576E+03  0.25500000000E-02 0. -1.
   -5000001    1    1    2    0    0  0.12725571114E+03 -0.13439035222E+03  0.66664031360E+03  0.73563855969E+03  0.25000000000E+03 0.  0.
    5000001    1    1    2    0    0 -0.12725571114E+03  0.13439035222E+03  0.74642571867E+02  0.31988481727E+03  0.25000000000E+03 0.  0.
<mgrwt>
<rscale>  0 0.75141818E+03</rscale>
<asrwt>0</asrwt>
<pdfrwt beam="1">  1        2 0.13821587E+00 0.75141818E+03</pdfrwt>
<pdfrwt beam="2">  1       -2 0.24172346E-01 0.75141818E+03</pdfrwt>
<totfact> 0.45024272E+02</totfact>
</mgrwt>
</event>
<event>
 4    1  0.6739609E-006  0.1016774E+04  0.7818608E-02  0.9290337E-01
          2   -1    0    0  501    0  0.00000000000E+00  0.00000000000E+00  0.21136461571E+04  0.21136461571E+04  0.25500000000E-02 0.  1.
         -2   -1    0    0    0  501 -0.00000000000E+00 -0.00000000000E+00 -0.12228026816E+03  0.12228026819E+03  0.25500000000E-02 0. -1.
   -5000001    1    1    2    0    0  0.22765846067E+03  0.37844523883E+03  0.92941752298E+03  0.10589457519E+04  0.25000000000E+03 0.  0.
    5000001    1    1    2    0    0 -0.22765846067E+03 -0.37844523883E+03  0.10619483660E+04  0.11769806734E+04  0.25000000000E+03 0.  0.
<mgrwt>
<rscale>  0 0.10167738E+04</rscale>
<asrwt>0</asrwt>
<pdfrwt beam="1">  1        2 0.32517628E+00 0.10167738E+04</pdfrwt>
<pdfrwt beam="2">  1       -2 0.18812352E-01 0.10167738E+04</pdfrwt>
<totfact> 0.13771119E+02</totfact>
</mgrwt>
</event>
<event>
 4    1  0.6739609E-006  0.8132775E+03  0.7818608E-02  0.9540995E-01
          2   -1    0    0  501    0  0.00000000000E+00  0.00000000000E+00  0.16366697807E+04  0.16366697807E+04  0.25500000000E-02 0.  1.
         -2   -1    0    0    0  501 -0.00000000000E+00 -0.00000000000E+00 -0.10103143114E+03  0.10103143117E+03  0.25500000000E-02 0. -1.
   -5000001    1    1    2    0    0 -0.28173220467E+03  0.13357639136E+03  0.92827403689E+03  0.10106475029E+04  0.25000000000E+03 0.  0.
    5000001    1    1    2    0    0  0.28173220467E+03 -0.13357639136E+03  0.60736431266E+03  0.72705370900E+03  0.25000000000E+03 0.  0.
<mgrwt>
<rscale>  0 0.81327754E+03</rscale>
<asrwt>0</asrwt>
<pdfrwt beam="1">  1        2 0.25179536E+00 0.81327754E+03</pdfrwt>
<pdfrwt beam="2">  1       -2 0.15543296E-01 0.81327754E+03</pdfrwt>
<totfact> 0.35480369E+02</totfact>
</mgrwt>
</event>
<event>
 4    1  0.6739609E-006  0.6186352E+03  0.7818608E-02  0.9867481E-01
         -2   -1    0    0    0  501 -0.00000000000E+00  0.00000000000E+00  0.15530451369E+03  0.15530451371E+03  0.25500000000E-02 0. -1.
          2   -1    0    0  501    0  0.00000000000E+00 -0.00000000000E+00 -0.61606312464E+03  0.61606312464E+03  0.25500000000E-02 0.  1.
   -5000001    1    1    2    0    0 -0.16301068572E+03 -0.63716899128E+02 -0.29328291070E+03  0.42325783230E+03  0.25000000000E+03 0.  0.
    5000001    1    1    2    0    0  0.16301068572E+03  0.63716899128E+02 -0.16747570025E+03  0.34810980605E+03  0.25000000000E+03 0.  0.
<mgrwt>
<rscale>  0 0.61863522E+03</rscale>
<asrwt>0</asrwt>
<pdfrwt beam="1">  1        2 0.94778941E-01 0.61863522E+03</pdfrwt>
<pdfrwt beam="2">  1       -2 0.23893002E-01 0.61863522E+03</pdfrwt>
<totfact> 0.75095288E+02</totfact>
</mgrwt>
</event>
<event>
 4    1  0.6739609E-006  0.1555046E+04  0.7818608E-02  0.8848651E-01
         -2   -1    0    0    0  501 -0.00000000000E+00  0.00000000000E+00  0.12245221630E+03  0.12245221632E+03  0.25500000000E-02 0. -1.
          2   -1    0    0  501    0  0.00000000000E+00 -0.00000000000E+00 -0.49369594921E+04  0.49369594921E+04  0.25500000000E-02 0.  1.
   -5000001    1    1    2    0    0  0.42937532404E+03 -0.38083256942E+03 -0.90693147839E+03  0.11020078590E+04  0.25000000000E+03 0.  0.
    5000001    1    1    2    0    0 -0.42937532404E+03  0.38083256942E+03 -0.39075757974E+04  0.39574038494E+04  0.25000000000E+03 0.  0.
<mgrwt>
<rscale>  0 0.15550455E+04</rscale>
<asrwt>0</asrwt>
<pdfrwt beam="1">  1        2 0.75953208E+00 0.15550455E+04</pdfrwt>
<pdfrwt beam="2">  1       -2 0.18838806E-01 0.15550455E+04</pdfrwt>
<totfact> 0.98284022E-01</totfact>
</mgrwt>
</event>
<event>
 4    1  0.6739609E-006  0.6196695E+03  0.7818608E-02  0.9865418E-01
         -2   -1    0    0    0  501 -0.00000000000E+00  0.00000000000E+00  0.45396346051E+02  0.45396346122E+02  0.25500000000E-02 0. -1.
          2   -1    0    0  501    0  0.00000000000E+00 -0.00000000000E+00 -0.21146540690E+04  0.21146540690E+04  0.25500000000E-02 0.  1.
   -5000001    1    1    2    0    0  0.47274469164E+02 -0.15696419618E+03 -0.75090586144E+03  0.80822784353E+03  0.25000000000E+03 0.  0.
    5000001    1    1    2    0    0 -0.47274469164E+02  0.15696419618E+03 -0.13183518615E+04  0.13518225715E+04  0.25000000000E+03 0.  0.
<mgrwt>
<rscale>  0 0.61966949E+03</rscale>
<asrwt>0</asrwt>
<pdfrwt beam="1">  1        2 0.32533132E+00 0.61966949E+03</pdfrwt>
<pdfrwt beam="2">  1       -2 0.69840549E-02 0.61966949E+03</pdfrwt>
<totfact> 0.72966693E+02</totfact>
</mgrwt>
</event>
<event>
 4    1  0.6739609E-006  0.5885278E+03  0.7818608E-02  0.9929497E-01
         -2   -1    0    0    0  501 -0.00000000000E+00  0.00000000000E+00  0.92677195672E+02  0.92677195707E+02  0.25500000000E-02 0. -1.
          2   -1    0    0  501    0  0.00000000000E+00 -0.00000000000E+00 -0.93433162573E+03  0.93433162573E+03  0.25500000000E-02 0.  1.
   -5000001    1    1    2    0    0 -0.10664984184E+03 -0.77315070939E+02 -0.56408514283E+03  0.63090717013E+03  0.25000000000E+03 0.  0.
    5000001    1    1    2    0    0  0.10664984184E+03  0.77315070939E+02 -0.27756928723E+03  0.39610165131E+03  0.25000000000E+03 0.  0.
<mgrwt>
<rscale>  0 0.58852777E+03</rscale>
<asrwt>0</asrwt>
<pdfrwt beam="1">  1        2 0.14374332E+00 0.58852777E+03</pdfrwt>
<pdfrwt beam="2">  1       -2 0.14258031E-01 0.58852777E+03</pdfrwt>
<totfact> 0.10687070E+03</totfact>
</mgrwt>
</event>
<event>
 4    1  0.6739609E-006  0.9286627E+03  0.7818608E-02  0.9390444E-01
         -2   -1    0    0    0  501 -0.00000000000E+00  0.00000000000E+00  0.68739308151E+02  0.68739308198E+02  0.25500000000E-02 0. -1.
          2   -1    0    0  501    0  0.00000000000E+00 -0.00000000000E+00 -0.31365401502E+04  0.31365401502E+04  0.25500000000E-02 0.  1.
   -5000001    1    1    2    0    0 -0.21454684587E+03 -0.24445367797E+03 -0.22846762929E+04  0.23212138447E+04  0.25000000000E+03 0.  0.
    5000001    1    1    2    0    0  0.21454684587E+03  0.24445367797E+03 -0.78312454917E+03  0.88406561366E+03  0.25000000000E+03 0.  0.
<mgrwt>
<rscale>  0 0.92866269E+03</rscale>
<asrwt>0</asrwt>
<pdfrwt beam="1">  1        2 0.48254453E+00 0.92866269E+03</pdfrwt>
<pdfrwt beam="2">  1       -2 0.10575281E-01 0.92866269E+03</pdfrwt>
<totfact> 0.92733079E+01</totfact>
</mgrwt>
</event>
<event>
 4    1  0.6739609E-006  0.1054768E+04  0.7818608E-02  0.9250435E-01
          2   -1    0    0  501    0  0.00000000000E+00  0.00000000000E+00  0.12408671415E+04  0.12408671415E+04  0.25500000000E-02 0.  1.
         -2   -1    0    0    0  501 -0.00000000000E+00 -0.00000000000E+00 -0.22414497853E+03  0.22414497854E+03  0.25500000000E-02 0. -1.
   -5000001    1    1    2    0    0  0.42485796481E+03 -0.23865630608E+02  0.76657086900E+03  0.91170431379E+03  0.25000000000E+03 0.  0.
    5000001    1    1    2    0    0 -0.42485796481E+03  0.23865630608E+02  0.25015129398E+03  0.55330780625E+03  0.25000000000E+03 0.  0.
<mgrwt>
<rscale>  0 0.10547685E+04</rscale>
<asrwt>0</asrwt>
<pdfrwt beam="1">  1        2 0.19090264E+00 0.10547685E+04</pdfrwt>
<pdfrwt beam="2">  1       -2 0.34483842E-01 0.10547685E+04</pdfrwt>
<totfact> 0.14035132E+02</totfact>
</mgrwt>
</event>
<event>
 4    1  0.6739609E-006  0.1210877E+04  0.7818608E-02  0.9103389E-01
         -2   -1    0    0    0  501 -0.00000000000E+00  0.00000000000E+00  0.82128796184E+03  0.82128796184E+03  0.25500000000E-02 0. -1.
          2   -1    0    0  501    0  0.00000000000E+00 -0.00000000000E+00 -0.44631839367E+03  0.44631839368E+03  0.25500000000E-02 0.  1.
   -5000001    1    1    2    0    0  0.40993773377E+02 -0.47597632680E+03 -0.10077351869E+03  0.54853373205E+03  0.25000000000E+03 0.  0.
    5000001    1    1    2    0    0 -0.40993773377E+02  0.47597632680E+03  0.47574308686E+03  0.71907262347E+03  0.25000000000E+03 0.  0.
<mgrwt>
<rscale>  0 0.12108772E+04</rscale>
<asrwt>0</asrwt>
<pdfrwt beam="1">  1        2 0.68664368E-01 0.12108772E+04</pdfrwt>
<pdfrwt beam="2">  1       -2 0.12635199E+00 0.12108772E+04</pdfrwt>
<totfact> 0.32289951E+01</totfact>
</mgrwt>
</event>
<event>
 4    1  0.6739609E-006  0.6305386E+03  0.7818608E-02  0.9843998E-01
         -2   -1    0    0    0  501 -0.00000000000E+00  0.00000000000E+00  0.17387851174E+03  0.17387851176E+03  0.25500000000E-02 0. -1.
          2   -1    0    0  501    0  0.00000000000E+00 -0.00000000000E+00 -0.57163312277E+03  0.57163312278E+03  0.25500000000E-02 0.  1.
   -5000001    1    1    2    0    0  0.96137455138E+02  0.16625210233E+03 -0.20306500478E+03  0.37499009050E+03  0.25000000000E+03 0.  0.
    5000001    1    1    2    0    0 -0.96137455138E+02 -0.16625210233E+03 -0.19468960625E+03  0.37052154403E+03  0.25000000000E+03 0.  0.
<mgrwt>
<rscale>  0 0.63053855E+03</rscale>
<asrwt>0</asrwt>
<pdfrwt beam="1">  1        2 0.87943556E-01 0.63053855E+03</pdfrwt>
<pdfrwt beam="2">  1       -2 0.26750541E-01 0.63053855E+03</pdfrwt>
<totfact> 0.66995707E+02</totfact>
</mgrwt>
</event>
<event>
 4    1  0.6739609E-006  0.6576320E+03  0.7818608E-02  0.9792563E-01
         -2   -1    0    0    0  501 -0.00000000000E+00  0.00000000000E+00  0.70150077848E+02  0.70150077895E+02  0.25500000000E-02 0. -1.
          2   -1    0    0  501    0  0.00000000000E+00 -0.00000000000E+00 -0.15412662941E+04  0.15412662941E+04  0.25500000000E-02 0.  1.
   -5000001    1    1    2    0    0 -0.61373827143E+02 -0.84044369379E+02 -0.27852201608E+03  0.38846456225E+03  0.25000000000E+03 0.  0.
    5000001    1    1    2    0    0  0.61373827143E+02  0.84044369379E+02 -0.11925942001E+04  0.12229518097E+04  0.25000000000E+03 0.  0.
<mgrwt>
<rscale>  0 0.65763197E+03</rscale>
<asrwt>0</asrwt>
<pdfrwt beam="1">  1        2 0.23711787E+00 0.65763197E+03</pdfrwt>
<pdfrwt beam="2">  1       -2 0.10792321E-01 0.65763197E+03</pdfrwt>
<totfact> 0.74207982E+02</totfact>
</mgrwt>
</event>
<event>
 4    1  0.6739609E-006  0.1035817E+04  0.7818608E-02  0.9270111E-01
          2   -1    0    0  501    0  0.00000000000E+00  0.00000000000E+00  0.23253446895E+03  0.23253446897E+03  0.25500000000E-02 0.  1.
         -2   -1    0    0    0  501 -0.00000000000E+00 -0.00000000000E+00 -0.11535023791E+04  0.11535023791E+04  0.25500000000E-02 0. -1.
   -5000001    1    1    2    0    0  0.17937923388E+03 -0.41603636578E+03 -0.48936655901E+03  0.71220979793E+03  0.25000000000E+03 0.  0.
    5000001    1    1    2    0    0 -0.17937923388E+03  0.41603636578E+03 -0.43160135115E+03  0.67382705015E+03  0.25000000000E+03 0.  0.
<mgrwt>
<rscale>  0 0.10358167E+04</rscale>
<asrwt>0</asrwt>
<pdfrwt beam="1">  1        2 0.35774534E-01 0.10358167E+04</pdfrwt>
<pdfrwt beam="2">  1       -2 0.17746190E+00 0.10358167E+04</pdfrwt>
<totfact> 0.27453604E+01</totfact>
</mgrwt>
</event>
<event>
 4    1  0.6739609E-006  0.7954867E+03  0.7818608E-02  0.9566573E-01
         -2   -1    0    0    0  501 -0.00000000000E+00  0.00000000000E+00  0.16346338532E+03  0.16346338534E+03  0.25500000000E-02 0. -1.
          2   -1    0    0  501    0  0.00000000000E+00 -0.00000000000E+00 -0.96779952868E+03  0.96779952869E+03  0.25500000000E-02 0.  1.
   -5000001    1    1    2    0    0 -0.21181630529E+03 -0.19982328041E+03 -0.55066909172E+03  0.67121676019E+03  0.25000000000E+03 0.  0.
    5000001    1    1    2    0    0  0.21181630529E+03  0.19982328041E+03 -0.25366705164E+03  0.46004615384E+03  0.25000000000E+03 0.  0.
<mgrwt>
<rscale>  0 0.79548674E+03</rscale>
<asrwt>0</asrwt>
<pdfrwt beam="1">  1        2 0.14889223E+00 0.79548674E+03</pdfrwt>
<pdfrwt beam="2">  1       -2 0.25148214E-01 0.79548674E+03</pdfrwt>
<totfact> 0.37655677E+02</totfact>
</mgrwt>
</event>
<event>
 4    1  0.6739609E-006  0.1276448E+04  0.7818608E-02  0.9048453E-01
         -2   -1    0    0    0  501 -0.00000000000E+00  0.00000000000E+00  0.17097699838E+03  0.17097699840E+03  0.25500000000E-02 0. -1.
          2   -1    0    0  501    0  0.00000000000E+00 -0.00000000000E+00 -0.23823672078E+04  0.23823672078E+04  0.25500000000E-02 0.  1.
   -5000001    1    1    2    0    0  0.34286579085E+03 -0.76520910180E+02 -0.16442939699E+03  0.46146443723E+03  0.25000000000E+03 0.  0.
    5000001    1    1    2    0    0 -0.34286579085E+03  0.76520910180E+02 -0.20469608124E+04  0.20918797690E+04  0.25000000000E+03 0.  0.
<mgrwt>
<rscale>  0 0.12764482E+04</rscale>
<asrwt>0</asrwt>
<pdfrwt beam="1">  1        2 0.36651801E+00 0.12764482E+04</pdfrwt>
<pdfrwt beam="2">  1       -2 0.26304155E-01 0.12764482E+04</pdfrwt>
<totfact> 0.52438976E+01</totfact>
</mgrwt>
</event>
<event>
 4    1  0.6739609E-006  0.5739507E+03  0.7818608E-02  0.9960974E-01
          2   -1    0    0  501    0  0.00000000000E+00  0.00000000000E+00  0.39859023465E+03  0.39859023466E+03  0.25500000000E-02 0.  1.
         -2   -1    0    0    0  501 -0.00000000000E+00 -0.00000000000E+00 -0.20661532420E+03  0.20661532422E+03  0.25500000000E-02 0. -1.
   -5000001    1    1    2    0    0  0.72562753626E+02  0.96031656646E+02  0.17323968813E+03  0.32710766092E+03  0.25000000000E+03 0.  0.
    5000001    1    1    2    0    0 -0.72562753626E+02 -0.96031656646E+02  0.18735222326E+02  0.27809789796E+03  0.25000000000E+03 0.  0.
<mgrwt>
<rscale>  0 0.57395070E+03</rscale>
<asrwt>0</asrwt>
<pdfrwt beam="1">  1        2 0.61321574E-01 0.57395070E+03</pdfrwt>
<pdfrwt beam="2">  1       -2 0.31786973E-01 0.57395070E+03</pdfrwt>
<totfact> 0.73815175E+02</totfact>
</mgrwt>
</event>
<event>
 4    1  0.6739609E-006  0.7106486E+03  0.7818608E-02  0.9699193E-01
          2   -1    0    0  501    0  0.00000000000E+00  0.00000000000E+00  0.53286999416E+03  0.53286999417E+03  0.25500000000E-02 0.  1.
         -2   -1    0    0    0  501 -0.00000000000E+00 -0.00000000000E+00 -0.23693465384E+03  0.23693465385E+03  0.25500000000E-02 0. -1.
   -5000001    1    1    2    0    0  0.70350313259E+02 -0.23636051125E+03  0.20670207982E+03  0.40748154272E+03  0.25000000000E+03 0.  0.
    5000001    1    1    2    0    0 -0.70350313259E+02  0.23636051125E+03  0.89233260510E+02  0.36232310530E+03  0.25000000000E+03 0.  0.
<mgrwt>
<rscale>  0 0.71064863E+03</rscale>
<asrwt>0</asrwt>
<pdfrwt beam="1">  1        2 0.81979998E-01 0.71064863E+03</pdfrwt>
<pdfrwt beam="2">  1       -2 0.36451486E-01 0.71064863E+03</pdfrwt>
<totfact> 0.40785684E+02</totfact>
</mgrwt>
</event>
<event>
 4    1  0.6739609E-006  0.6959555E+03  0.7818608E-02  0.9724174E-01
          2   -1    0    0  501    0  0.00000000000E+00  0.00000000000E+00  0.60507403418E+03  0.60507403419E+03  0.25500000000E-02 0.  1.
         -2   -1    0    0    0  501 -0.00000000000E+00 -0.00000000000E+00 -0.20012183405E+03  0.20012183406E+03  0.25500000000E-02 0. -1.
   -5000001    1    1    2    0    0  0.23664455929E+02  0.24010611494E+03  0.22495733979E+03  0.41390428559E+03  0.25000000000E+03 0.  0.
    5000001    1    1    2    0    0 -0.23664455929E+02 -0.24010611494E+03  0.17999486035E+03  0.39129158266E+03  0.25000000000E+03 0.  0.
<mgrwt>
<rscale>  0 0.69595553E+03</rscale>
<asrwt>0</asrwt>
<pdfrwt beam="1">  1        2 0.93088314E-01 0.69595553E+03</pdfrwt>
<pdfrwt beam="2">  1       -2 0.30787974E-01 0.69595553E+03</pdfrwt>
<totfact> 0.48252795E+02</totfact>
</mgrwt>
</event>
<event>
 4    1  0.6739609E-006  0.7432637E+03  0.7818608E-02  0.9645978E-01
          2   -1    0    0  501    0  0.00000000000E+00  0.00000000000E+00  0.40301580686E+04  0.40301580686E+04  0.25500000000E-02 0.  1.
         -2   -1    0    0    0  501 -0.00000000000E+00 -0.00000000000E+00 -0.34269187350E+02  0.34269187444E+02  0.25500000000E-02 0. -1.
   -5000001    1    1    2    0    0 -0.22745496624E+03 -0.27862438331E+02  0.28290288885E+04  0.28492835115E+04  0.25000000000E+03 0.  0.
    5000001    1    1    2    0    0  0.22745496624E+03  0.27862438331E+02  0.11668599927E+04  0.12151437445E+04  0.25000000000E+03 0.  0.
<mgrwt>
<rscale>  0 0.74326373E+03</rscale>
<asrwt>0</asrwt>
<pdfrwt beam="1">  1        2 0.62002397E+00 0.74326373E+03</pdfrwt>
<pdfrwt beam="2">  1       -2 0.52721856E-02 0.74326373E+03</pdfrwt>
<totfact> 0.67893009E+01</totfact>
</mgrwt>
</event>
<event>
 4    1  0.6739609E-006  0.6233803E+03  0.7818608E-02  0.9858052E-01
         -2   -1    0    0    0  501 -0.00000000000E+00  0.00000000000E+00  0.59275826806E+02  0.59275826861E+02  0.25500000000E-02 0. -1.
          2   -1    0    0  501    0  0.00000000000E+00 -0.00000000000E+00 -0.16389608106E+04  0.16389608106E+04  0.25500000000E-02 0.  1.
   -5000001    1    1    2    0    0 -0.64411931082E+02 -0.77201551902E+02 -0.36306829761E+03  0.45213666652E+03  0.25000000000E+03 0.  0.
    5000001    1    1    2    0    0  0.64411931082E+02  0.77201551902E+02 -0.12166166862E+04  0.12460999709E+04  0.25000000000E+03 0.  0.
<mgrwt>
<rscale>  0 0.62338032E+03</rscale>
<asrwt>0</asrwt>
<pdfrwt beam="1">  1        2 0.25214778E+00 0.62338032E+03</pdfrwt>
<pdfrwt beam="2">  1       -2 0.91193592E-02 0.62338032E+03</pdfrwt>
<totfact> 0.86366974E+02</totfact>
</mgrwt>
</event>
<event>
 4    1  0.6739609E-006  0.1571281E+04  0.7818608E-02  0.8838388E-01
         -2   -1    0    0    0  501 -0.00000000000E+00  0.00000000000E+00  0.14981232862E+04  0.14981232862E+04  0.25500000000E-02 0. -1.
          2   -1    0    0  501    0  0.00000000000E+00 -0.00000000000E+00 -0.41200281579E+03  0.41200281580E+03  0.25500000000E-02 0.  1.
   -5000001    1    1    2    0    0  0.57733873627E+02 -0.57814265410E+03 -0.23422886678E+02  0.63295399539E+03  0.25000000000E+03 0.  0.
    5000001    1    1    2    0    0 -0.57733873627E+02  0.57814265410E+03  0.11095433571E+04  0.12771721066E+04  0.25000000000E+03 0.  0.
<mgrwt>
<rscale>  0 0.15712810E+04</rscale>
<asrwt>0</asrwt>
<pdfrwt beam="1">  1        2 0.63385049E-01 0.15712810E+04</pdfrwt>
<pdfrwt beam="2">  1       -2 0.23048050E+00 0.15712810E+04</pdfrwt>
<totfact> 0.62728454E+00</totfact>
</mgrwt>
</event>
<event>
 4    1  0.6739609E-006  0.7651362E+03  0.7818608E-02  0.9611899E-01
          2   -1    0    0  501    0  0.00000000000E+00  0.00000000000E+00  0.62492194467E+03  0.62492194467E+03  0.25500000000E-02 0.  1.
         -2   -1    0    0    0  501 -0.00000000000E+00 -0.00000000000E+00 -0.23420263956E+03  0.23420263957E+03  0.25500000000E-02 0. -1.
   -5000001    1    1    2    0    0  0.11330238967E+03 -0.17178493088E+03 -0.33409948298E+02  0.32552068848E+03  0.25000000000E+03 0.  0.
    5000001    1    1    2    0    0 -0.11330238967E+03  0.17178493088E+03  0.42412925341E+03  0.53360389577E+03  0.25000000000E+03 0.  0.
<mgrwt>
<rscale>  0 0.76513625E+03</rscale>
<asrwt>0</asrwt>
<pdfrwt beam="1">  1        2 0.96141837E-01 0.76513625E+03</pdfrwt>
<pdfrwt beam="2">  1       -2 0.36031176E-01 0.76513625E+03</pdfrwt>
<totfact> 0.34407181E+02</totfact>
</mgrwt>
</event>
<event>
 4    1  0.6739609E-006  0.5830142E+03  0.7818608E-02  0.9941286E-01
          2   -1    0    0  501    0  0.00000000000E+00  0.00000000000E+00  0.16954061066E+04  0.16954061066E+04  0.25500000000E-02 0.  1.
         -2   -1    0    0    0  501 -0.00000000000E+00 -0.00000000000E+00 -0.50121560686E+02  0.50121560751E+02  0.25500000000E-02 0. -1.
   -5000001    1    1    2    0    0 -0.55935824522E+02  0.41031186504E+02  0.12205592026E+04  0.12478289714E+04  0.25000000000E+03 0.  0.
    5000001    1    1    2    0    0  0.55935824522E+02 -0.41031186504E+02  0.42472534330E+03  0.49769869597E+03  0.25000000000E+03 0.  0.
<mgrwt>
<rscale>  0 0.58301424E+03</rscale>
<asrwt>0</asrwt>
<pdfrwt beam="1">  1        2 0.26083168E+00 0.58301424E+03</pdfrwt>
<pdfrwt beam="2">  1       -2 0.77110103E-02 0.58301424E+03</pdfrwt>
<totfact> 0.10546789E+03</totfact>
</mgrwt>
</event>
<event>
 4    1  0.6739609E-006  0.6079240E+03  0.7818608E-02  0.9889101E-01
          2   -1    0    0  501    0  0.00000000000E+00  0.00000000000E+00  0.58351876272E+02  0.58351876328E+02  0.25500000000E-02 0.  1.
         -2   -1    0    0    0  501 -0.00000000000E+00 -0.00000000000E+00 -0.15833750602E+04  0.15833750602E+04  0.25500000000E-02 0. -1.
   -5000001    1    1    2    0    0  0.11567747962E+02  0.16870193304E+03 -0.85983437156E+03  0.91126796362E+03  0.25000000000E+03 0.  0.
    5000001    1    1    2    0    0 -0.11567747962E+02 -0.16870193304E+03 -0.66518881236E+03  0.73045897290E+03  0.25000000000E+03 0.  0.
<mgrwt>
<rscale>  0 0.60792403E+03</rscale>
<asrwt>0</asrwt>
<pdfrwt beam="1">  1        2 0.89772129E-02 0.60792403E+03</pdfrwt>
<pdfrwt beam="2">  1       -2 0.24359613E+00 0.60792403E+03</pdfrwt>
<totfact> 0.55691620E+01</totfact>
</mgrwt>
</event>
<event>
 4    1  0.6739609E-006  0.7255498E+03  0.7818608E-02  0.9674509E-01
          2   -1    0    0  501    0  0.00000000000E+00  0.00000000000E+00  0.29865638938E+04  0.29865638938E+04  0.25500000000E-02 0.  1.
         -2   -1    0    0    0  501 -0.00000000000E+00 -0.00000000000E+00 -0.44065903676E+02  0.44065903750E+02  0.25500000000E-02 0. -1.
   -5000001    1    1    2    0    0  0.10591407998E+03  0.24059333497E+03  0.14643958820E+04  0.15086610768E+04  0.25000000000E+03 0.  0.
    5000001    1    1    2    0    0 -0.10591407998E+03 -0.24059333497E+03  0.14781021080E+04  0.15219687207E+04  0.25000000000E+03 0.  0.
<mgrwt>
<rscale>  0 0.72554982E+03</rscale>
<asrwt>0</asrwt>
<pdfrwt beam="1">  1        2 0.45947130E+00 0.72554982E+03</pdfrwt>
<pdfrwt beam="2">  1       -2 0.67793708E-02 0.72554982E+03</pdfrwt>
<totfact> 0.24044476E+02</totfact>
</mgrwt>
</event>
<event>
 4    1  0.6739609E-006  0.7347278E+03  0.7818608E-02  0.9659619E-01
         -2   -1    0    0    0  501 -0.00000000000E+00  0.00000000000E+00  0.67844782001E+02  0.67844782049E+02  0.25500000000E-02 0. -1.
          2   -1    0    0  501    0  0.00000000000E+00 -0.00000000000E+00 -0.19891913235E+04  0.19891913235E+04  0.25500000000E-02 0.  1.
   -5000001    1    1    2    0    0  0.26058315281E+03  0.67413406222E+02 -0.95270271216E+03  0.10210732611E+04  0.25000000000E+03 0.  0.
    5000001    1    1    2    0    0 -0.26058315281E+03 -0.67413406222E+02 -0.96864382931E+03  0.10359628444E+04  0.25000000000E+03 0.  0.
<mgrwt>
<rscale>  0 0.73472785E+03</rscale>
<asrwt>0</asrwt>
<pdfrwt beam="1">  1        2 0.30602939E+00 0.73472785E+03</pdfrwt>
<pdfrwt beam="2">  1       -2 0.10437660E-01 0.73472785E+03</pdfrwt>
<totfact> 0.44420361E+02</totfact>
</mgrwt>
</event>
<event>
 4    1  0.6739609E-006  0.6746353E+03  0.7818608E-02  0.9761620E-01
         -2   -1    0    0    0  501 -0.00000000000E+00  0.00000000000E+00  0.42691458708E+02  0.42691458784E+02  0.25500000000E-02 0. -1.
          2   -1    0    0  501    0  0.00000000000E+00 -0.00000000000E+00 -0.26652450802E+04  0.26652450802E+04  0.25500000000E-02 0.  1.
   -5000001    1    1    2    0    0  0.32830703311E+02 -0.17777685492E+03 -0.76383940504E+03  0.82379190450E+03  0.25000000000E+03 0.  0.
    5000001    1    1    2    0    0 -0.32830703311E+02  0.17777685492E+03 -0.18587142165E+04  0.18841446345E+04  0.25000000000E+03 0.  0.
<mgrwt>
<rscale>  0 0.67463531E+03</rscale>
<asrwt>0</asrwt>
<pdfrwt beam="1">  1        2 0.41003758E+00 0.67463531E+03</pdfrwt>
<pdfrwt beam="2">  1       -2 0.65679188E-02 0.67463531E+03</pdfrwt>
<totfact> 0.39406172E+02</totfact>
</mgrwt>
</event>
<event>
 4    1  0.6739609E-006  0.7708601E+03  0.7818608E-02  0.9603181E-01
         -2   -1    0    0    0  501 -0.00000000000E+00  0.00000000000E+00  0.32543075142E+03  0.32543075143E+03  0.25500000000E-02 0. -1.
          2   -1    0    0  501    0  0.00000000000E+00 -0.00000000000E+00 -0.45649135933E+03  0.45649135934E+03  0.25500000000E-02 0.  1.
   -5000001    1    1    2    0    0 -0.74111187605E+02  0.25227617641E+03  0.66415522785E+02  0.36884516938E+03  0.25000000000E+03 0.  0.
    5000001    1    1    2    0    0  0.74111187605E+02 -0.25227617641E+03 -0.19747613069E+03  0.41307694138E+03  0.25000000000E+03 0.  0.
<mgrwt>
<rscale>  0 0.77086011E+03</rscale>
<asrwt>0</asrwt>
<pdfrwt beam="1">  1        2 0.70229439E-01 0.77086011E+03</pdfrwt>
<pdfrwt beam="2">  1       -2 0.50066270E-01 0.77086011E+03</pdfrwt>
<totfact> 0.26024045E+02</totfact>
</mgrwt>
</event>
<event>
 4    1  0.6739609E-006  0.7360016E+03  0.7818608E-02  0.9657571E-01
          2   -1    0    0  501    0  0.00000000000E+00  0.00000000000E+00  0.27960396323E+03  0.27960396325E+03  0.25500000000E-02 0.  1.
         -2   -1    0    0    0  501 -0.00000000000E+00 -0.00000000000E+00 -0.48434427125E+03  0.48434427125E+03  0.25500000000E-02 0. -1.
   -5000001    1    1    2    0    0  0.21042835757E+03 -0.12539132217E+03 -0.22035919320E+03  0.41359551663E+03  0.25000000000E+03 0.  0.
    5000001    1    1    2    0    0 -0.21042835757E+03  0.12539132217E+03  0.15618885183E+02  0.35035271787E+03  0.25000000000E+03 0.  0.
<mgrwt>
<rscale>  0 0.73600157E+03</rscale>
<asrwt>0</asrwt>
<pdfrwt beam="1">  1        2 0.43015994E-01 0.73600157E+03</pdfrwt>
<pdfrwt beam="2">  1       -2 0.74514503E-01 0.73600157E+03</pdfrwt>
<totfact> 0.19418070E+02</totfact>
</mgrwt>
</event>
<event>
 4    1  0.6739609E-006  0.8207513E+03  0.7818608E-02  0.9530457E-01
          2   -1    0    0  501    0  0.00000000000E+00  0.00000000000E+00  0.15434184743E+04  0.15434184743E+04  0.25500000000E-02 0.  1.
         -2   -1    0    0    0  501 -0.00000000000E+00 -0.00000000000E+00 -0.10911375868E+03  0.10911375871E+03  0.25500000000E-02 0. -1.
   -5000001    1    1    2    0    0 -0.10458286835E+03  0.30816968490E+03  0.72004213420E+03  0.82877427932E+03  0.25000000000E+03 0.  0.
    5000001    1    1    2    0    0  0.10458286835E+03 -0.30816968490E+03  0.71426258140E+03  0.82375795367E+03  0.25000000000E+03 0.  0.
<mgrwt>
<rscale>  0 0.82075134E+03</rscale>
<asrwt>0</asrwt>
<pdfrwt beam="1">  1        2 0.23744897E+00 0.82075134E+03</pdfrwt>
<pdfrwt beam="2">  1       -2 0.16786734E-01 0.82075134E+03</pdfrwt>
<totfact> 0.35019059E+02</totfact>
</mgrwt>
</event>
<event>
 4    1  0.6739609E-006  0.7185227E+03  0.7818608E-02  0.9686070E-01
          2   -1    0    0  501    0  0.00000000000E+00  0.00000000000E+00  0.18732186802E+04  0.18732186802E+04  0.25500000000E-02 0.  1.
         -2   -1    0    0    0  501 -0.00000000000E+00 -0.00000000000E+00 -0.68902103682E+02  0.68902103729E+02  0.25500000000E-02 0. -1.
   -5000001    1    1    2    0    0  0.14771848217E+03  0.21120447156E+03  0.87010495599E+03  0.94128142084E+03  0.25000000000E+03 0.  0.
    5000001    1    1    2    0    0 -0.14771848217E+03 -0.21120447156E+03  0.93421162054E+03  0.10008393631E+04  0.25000000000E+03 0.  0.
<mgrwt>
<rscale>  0 0.71852267E+03</rscale>
<asrwt>0</asrwt>
<pdfrwt beam="1">  1        2 0.28818746E+00 0.71852267E+03</pdfrwt>
<pdfrwt beam="2">  1       -2 0.10600325E-01 0.71852267E+03</pdfrwt>
<totfact> 0.50147065E+02</totfact>
</mgrwt>
</event>
<event>
 4    1  0.6739609E-006  0.6582810E+03  0.7818608E-02  0.9791363E-01
          2   -1    0    0  501    0  0.00000000000E+00  0.00000000000E+00  0.13370956188E+04  0.13370956189E+04  0.25500000000E-02 0.  1.
         -2   -1    0    0    0  501 -0.00000000000E+00 -0.00000000000E+00 -0.81021475676E+02  0.81021475716E+02  0.25500000000E-02 0. -1.
   -5000001    1    1    2    0    0 -0.14961237916E+03 -0.21935125930E+02  0.30154954057E+03  0.41987752877E+03  0.25000000000E+03 0.  0.
    5000001    1    1    2    0    0  0.14961237916E+03  0.21935125930E+02  0.95452460261E+03  0.99823956580E+03  0.25000000000E+03 0.  0.
<mgrwt>
<rscale>  0 0.65828097E+03</rscale>
<asrwt>0</asrwt>
<pdfrwt beam="1">  1        2 0.20570702E+00 0.65828097E+03</pdfrwt>
<pdfrwt beam="2">  1       -2 0.12464843E-01 0.65828097E+03</pdfrwt>
<totfact> 0.76164394E+02</totfact>
</mgrwt>
</event>
<event>
 4    1  0.6739609E-006  0.6393472E+03  0.7818608E-02  0.9826976E-01
         -2   -1    0    0    0  501 -0.00000000000E+00  0.00000000000E+00  0.25082977290E+03  0.25082977292E+03  0.25500000000E-02 0. -1.
          2   -1    0    0  501    0  0.00000000000E+00 -0.00000000000E+00 -0.40741256278E+03  0.40741256279E+03  0.25500000000E-02 0.  1.
   -5000001    1    1    2    0    0  0.89285781495E+02  0.17808818761E+03 -0.80310807147E+02  0.32960154594E+03  0.25000000000E+03 0.  0.
    5000001    1    1    2    0    0 -0.89285781495E+02 -0.17808818761E+03 -0.76271982728E+02  0.32864078976E+03  0.25000000000E+03 0.  0.
<mgrwt>
<rscale>  0 0.63934717E+03</rscale>
<asrwt>0</asrwt>
<pdfrwt beam="1">  1        2 0.62678855E-01 0.63934717E+03</pdfrwt>
<pdfrwt beam="2">  1       -2 0.38589196E-01 0.63934717E+03</pdfrwt>
<totfact> 0.49797458E+02</totfact>
</mgrwt>
</event>
<event>
 4    1  0.6739609E-006  0.7530615E+03  0.7818608E-02  0.9630560E-01
         -2   -1    0    0    0  501 -0.00000000000E+00  0.00000000000E+00  0.98401263600E+02  0.98401263633E+02  0.25500000000E-02 0.  1.
          2   -1    0    0  501    0  0.00000000000E+00 -0.00000000000E+00 -0.14407884983E+04  0.14407884983E+04  0.25500000000E-02 0. -1.
   -5000001    1    1    2    0    0 -0.25429269445E+03 -0.48802923284E+02 -0.89721814693E+03  0.96671966100E+03  0.25000000000E+03 0.  0.
    5000001    1    1    2    0    0  0.25429269445E+03  0.48802923284E+02 -0.44516908779E+03  0.57247010096E+03  0.25000000000E+03 0.  0.
<mgrwt>
<rscale>  0 0.75306151E+03</rscale>
<asrwt>0</asrwt>
<pdfrwt beam="1">  1        2 0.22165975E+00 0.75306151E+03</pdfrwt>
<pdfrwt beam="2">  1       -2 0.15138657E-01 0.75306151E+03</pdfrwt>
<totfact> 0.47836996E+02</totfact>
</mgrwt>
</event>
<event>
 4    1  0.6739609E-006  0.6635883E+03  0.7818608E-02  0.9781611E-01
          2   -1    0    0  501    0  0.00000000000E+00  0.00000000000E+00  0.69081477782E+03  0.69081477782E+03  0.25500000000E-02 0.  1.
         -2   -1    0    0    0  501 -0.00000000000E+00 -0.00000000000E+00 -0.15935873220E+03  0.15935873222E+03  0.25500000000E-02 0. -1.
   -5000001    1    1    2    0    0 -0.66090462180E+02  0.20456835032E+03  0.21828629395E+03  0.39543022807E+03  0.25000000000E+03 0.  0.
    5000001    1    1    2    0    0  0.66090462180E+02 -0.20456835032E+03  0.31316975167E+03  0.45474328198E+03  0.25000000000E+03 0.  0.
<mgrwt>
<rscale>  0 0.66358833E+03</rscale>
<asrwt>0</asrwt>
<pdfrwt beam="1">  1        2 0.10627920E+00 0.66358833E+03</pdfrwt>
<pdfrwt beam="2">  1       -2 0.24516728E-01 0.66358833E+03</pdfrwt>
<totfact> 0.62224842E+02</totfact>
</mgrwt>
</event>
<event>
 4    1  0.6739609E-006  0.7165923E+03  0.7818608E-02  0.9689271E-01
         -2   -1    0    0    0  501 -0.00000000000E+00  0.00000000000E+00  0.18913252086E+03  0.18913252088E+03  0.25500000000E-02 0. -1.
          2   -1    0    0  501    0  0.00000000000E+00 -0.00000000000E+00 -0.67876279968E+03  0.67876279969E+03  0.25500000000E-02 0.  1.
   -5000001    1    1    2    0    0 -0.14074405146E+03  0.21692863691E+02 -0.50343489819E+03  0.57985012294E+03  0.25000000000E+03 0.  0.
    5000001    1    1    2    0    0  0.14074405146E+03 -0.21692863691E+02  0.13804619366E+02  0.28804519762E+03  0.25000000000E+03 0.  0.
<mgrwt>
<rscale>  0 0.71659227E+03</rscale>
<asrwt>0</asrwt>
<pdfrwt beam="1">  1        2 0.10442505E+00 0.71659227E+03</pdfrwt>
<pdfrwt beam="2">  1       -2 0.29097311E-01 0.71659227E+03</pdfrwt>
<totfact> 0.46503175E+02</totfact>
</mgrwt>
</event>
<event>
 4    1  0.6739609E-006  0.9690673E+03  0.7818608E-02  0.9343137E-01
          2   -1    0    0  501    0  0.00000000000E+00  0.00000000000E+00  0.65229377398E+03  0.65229377398E+03  0.25500000000E-02 0.  1.
         -2   -1    0    0    0  501 -0.00000000000E+00 -0.00000000000E+00 -0.35991891900E+03  0.35991891901E+03  0.25500000000E-02 0. -1.
   -5000001    1    1    2    0    0  0.10140408087E+03 -0.36109552724E+03 -0.39491267523E+02  0.45247356566E+03  0.25000000000E+03 0.  0.
    5000001    1    1    2    0    0 -0.10140408087E+03  0.36109552724E+03  0.33186612250E+03  0.55973912734E+03  0.25000000000E+03 0.  0.
<mgrwt>
<rscale>  0 0.96906732E+03</rscale>
<asrwt>0</asrwt>
<pdfrwt beam="1">  1        2 0.10035289E+00 0.96906732E+03</pdfrwt>
<pdfrwt beam="2">  1       -2 0.55372141E-01 0.96906732E+03</pdfrwt>
<totfact> 0.13728838E+02</totfact>
</mgrwt>
</event>
<event>
 4    1  0.6739609E-006  0.7095377E+03  0.7818608E-02  0.9701059E-01
         -2   -1    0    0    0  501 -0.00000000000E+00  0.00000000000E+00  0.13160013419E+03  0.13160013422E+03  0.25500000000E-02 0. -1.
          2   -1    0    0  501    0  0.00000000000E+00 -0.00000000000E+00 -0.95638924471E+03  0.95638924471E+03  0.25500000000E-02 0.  1.
   -5000001    1    1    2    0    0 -0.63477480502E+02  0.23779242399E+03 -0.33145420517E+03  0.48263497341E+03  0.25000000000E+03 0.  0.
    5000001    1    1    2    0    0  0.63477480502E+02 -0.23779242399E+03 -0.49333490535E+03  0.60535440552E+03  0.25000000000E+03 0.  0.
<mgrwt>
<rscale>  0 0.70953775E+03</rscale>
<asrwt>0</asrwt>
<pdfrwt beam="1">  1        2 0.14713680E+00 0.70953775E+03</pdfrwt>
<pdfrwt beam="2">  1       -2 0.20246175E-01 0.70953775E+03</pdfrwt>
<totfact> 0.56523563E+02</totfact>
</mgrwt>
</event>
<event>
 4    1  0.6739609E-006  0.7130014E+03  0.7818608E-02  0.9695253E-01
          2   -1    0    0  501    0  0.00000000000E+00  0.00000000000E+00  0.12645083310E+04  0.12645083310E+04  0.25500000000E-02 0.  1.
         -2   -1    0    0    0  501 -0.00000000000E+00 -0.00000000000E+00 -0.10050765475E+03  0.10050765479E+03  0.25500000000E-02 0. -1.
   -5000001    1    1    2    0    0  0.13878565108E+03 -0.20839058903E+03  0.49844822252E+03  0.61125994885E+03  0.25000000000E+03 0.  0.
    5000001    1    1    2    0    0 -0.13878565108E+03  0.20839058903E+03  0.66555245369E+03  0.75375603690E+03  0.25000000000E+03 0.  0.
<mgrwt>
<rscale>  0 0.71300145E+03</rscale>
<asrwt>0</asrwt>
<pdfrwt beam="1">  1        2 0.19453974E+00 0.71300145E+03</pdfrwt>
<pdfrwt beam="2">  1       -2 0.15462716E-01 0.71300145E+03</pdfrwt>
<totfact> 0.58286594E+02</totfact>
</mgrwt>
</event>
<event>
 4    1  0.6739609E-006  0.9507779E+03  0.7818608E-02  0.9364242E-01
          2   -1    0    0  501    0  0.00000000000E+00  0.00000000000E+00  0.11717672561E+04  0.11717672561E+04  0.25500000000E-02 0.  1.
         -2   -1    0    0    0  501 -0.00000000000E+00 -0.00000000000E+00 -0.19286649532E+03  0.19286649534E+03  0.25500000000E-02 0. -1.
   -5000001    1    1    2    0    0 -0.58041824424E+02 -0.37059431617E+03  0.27279589315E+03  0.52690283722E+03  0.25000000000E+03 0.  0.
    5000001    1    1    2    0    0  0.58041824424E+02  0.37059431617E+03  0.70610486765E+03  0.83773091425E+03  0.25000000000E+03 0.  0.
<mgrwt>
<rscale>  0 0.95077788E+03</rscale>
<asrwt>0</asrwt>
<pdfrwt beam="1">  1        2 0.18027189E+00 0.95077788E+03</pdfrwt>
<pdfrwt beam="2">  1       -2 0.29671768E-01 0.95077788E+03</pdfrwt>
<totfact> 0.20597277E+02</totfact>
</mgrwt>
</event>
<event>
 4    1  0.6739609E-006  0.5960897E+03  0.7818608E-02  0.9913552E-01
          2   -1    0    0  501    0  0.00000000000E+00  0.00000000000E+00  0.81978014648E+03  0.81978014649E+03  0.25500000000E-02 0.  1.
         -2   -1    0    0    0  501 -0.00000000000E+00 -0.00000000000E+00 -0.10835921179E+03  0.10835921182E+03  0.25500000000E-02 0. -1.
   -5000001    1    1    2    0    0  0.57943147996E+02  0.12647879539E+03  0.48576287545E+03  0.56375514654E+03  0.25000000000E+03 0.  0.
    5000001    1    1    2    0    0 -0.57943147996E+02 -0.12647879539E+03  0.22565805924E+03  0.36438421176E+03  0.25000000000E+03 0.  0.
<mgrwt>
<rscale>  0 0.59608969E+03</rscale>
<asrwt>0</asrwt>
<pdfrwt beam="1">  1        2 0.12612002E+00 0.59608969E+03</pdfrwt>
<pdfrwt beam="2">  1       -2 0.16670648E-01 0.59608969E+03</pdfrwt>
<totfact> 0.98107746E+02</totfact>
</mgrwt>
</event>
<event>
 4    1  0.6739609E-006  0.5958903E+03  0.7818608E-02  0.9913969E-01
          2   -1    0    0  501    0  0.00000000000E+00  0.00000000000E+00  0.45612352142E+03  0.45612352142E+03  0.25500000000E-02 0.  1.
         -2   -1    0    0    0  501 -0.00000000000E+00 -0.00000000000E+00 -0.19462118738E+03  0.19462118740E+03  0.25500000000E-02 0. -1.
   -5000001    1    1    2    0    0 -0.46000312565E+02 -0.15412374470E+03  0.15262346703E+03  0.33416175743E+03  0.25000000000E+03 0.  0.
    5000001    1    1    2    0    0  0.46000312565E+02  0.15412374470E+03  0.10887886700E+03  0.31658295140E+03  0.25000000000E+03 0.  0.
<mgrwt>
<rscale>  0 0.59589026E+03</rscale>
<asrwt>0</asrwt>
<pdfrwt beam="1">  1        2 0.70172848E-01 0.59589026E+03</pdfrwt>
<pdfrwt beam="2">  1       -2 0.29941722E-01 0.59589026E+03</pdfrwt>
<totfact> 0.70843434E+02</totfact>
</mgrwt>
</event>
<event>
 4    1  0.6739609E-006  0.5928353E+03  0.7818608E-02  0.9920383E-01
         -2   -1    0    0    0  501 -0.00000000000E+00  0.00000000000E+00  0.99160900281E+02  0.99160900314E+02  0.25500000000E-02 0. -1.
          2   -1    0    0  501    0  0.00000000000E+00 -0.00000000000E+00 -0.88606928019E+03  0.88606928020E+03  0.25500000000E-02 0.  1.
   -5000001    1    1    2    0    0 -0.98303455198E+02 -0.82507867044E+02 -0.23673905494E+03  0.36744591107E+03  0.25000000000E+03 0.  0.
    5000001    1    1    2    0    0  0.98303455198E+02  0.82507867044E+02 -0.55016932497E+03  0.61778426944E+03  0.25000000000E+03 0.  0.
<mgrwt>
<rscale>  0 0.59283531E+03</rscale>
<asrwt>0</asrwt>
<pdfrwt beam="1">  1        2 0.13631835E+00 0.59283531E+03</pdfrwt>
<pdfrwt beam="2">  1       -2 0.15255524E-01 0.59283531E+03</pdfrwt>
<totfact> 0.10267490E+03</totfact>
</mgrwt>
</event>
<event>
 4    1  0.6739609E-006  0.8063586E+03  0.7818608E-02  0.9550859E-01
         -2   -1    0    0    0  501 -0.00000000000E+00  0.00000000000E+00  0.97498924691E+02  0.97498924725E+02  0.25500000000E-02 0. -1.
          2   -1    0    0  501    0  0.00000000000E+00 -0.00000000000E+00 -0.16672341776E+04  0.16672341776E+04  0.25500000000E-02 0.  1.
   -5000001    1    1    2    0    0  0.22766081652E+01 -0.22684603880E+03 -0.12672826623E+04  0.13114761357E+04  0.25000000000E+03 0.  0.
    5000001    1    1    2    0    0 -0.22766081652E+01  0.22684603880E+03 -0.30245259063E+03  0.45325696668E+03  0.25000000000E+03 0.  0.
<mgrwt>
<rscale>  0 0.80635858E+03</rscale>
<asrwt>0</asrwt>
<pdfrwt beam="1">  1        2 0.25649754E+00 0.80635858E+03</pdfrwt>
<pdfrwt beam="2">  1       -2 0.14999836E-01 0.80635858E+03</pdfrwt>
<totfact> 0.36273154E+02</totfact>
</mgrwt>
</event>
<event>
 4    1  0.6739609E-006  0.6573540E+03  0.7818608E-02  0.9793077E-01
          2   -1    0    0  501    0  0.00000000000E+00  0.00000000000E+00  0.88097697314E+03  0.88097697314E+03  0.25500000000E-02 0.  1.
         -2   -1    0    0    0  501 -0.00000000000E+00 -0.00000000000E+00 -0.12262358944E+03  0.12262358946E+03  0.25500000000E-02 0. -1.
   -5000001    1    1    2    0    0  0.50783896694E+02 -0.99097477059E+02  0.65706314520E+03  0.71178036704E+03  0.25000000000E+03 0.  0.
    5000001    1    1    2    0    0 -0.50783896694E+02  0.99097477059E+02  0.10129023850E+03  0.29182019556E+03  0.25000000000E+03 0.  0.
<mgrwt>
<rscale>  0 0.65735396E+03</rscale>
<asrwt>0</asrwt>
<pdfrwt beam="1">  1        2 0.13553492E+00 0.65735396E+03</pdfrwt>
<pdfrwt beam="2">  1       -2 0.18865167E-01 0.65735396E+03</pdfrwt>
<totfact> 0.71861609E+02</totfact>
</mgrwt>
</event>
<event>
 4    1  0.6739609E-006  0.1211374E+04  0.7818608E-02  0.9102959E-01
          2   -1    0    0  501    0  0.00000000000E+00  0.00000000000E+00  0.25156588838E+03  0.25156588839E+03  0.25500000000E-02 0.  1.
         -2   -1    0    0    0  501 -0.00000000000E+00 -0.00000000000E+00 -0.14582919227E+04  0.14582919227E+04  0.25500000000E-02 0. -1.
   -5000001    1    1    2    0    0 -0.16867016433E+03 -0.44712352271E+03 -0.99245544600E+03  0.11295294955E+04  0.25000000000E+03 0.  0.
    5000001    1    1    2    0    0  0.16867016433E+03  0.44712352271E+03 -0.21427058836E+03  0.58032831564E+03  0.25000000000E+03 0.  0.
<mgrwt>
<rscale>  0 0.12113736E+04</rscale>
<asrwt>0</asrwt>
<pdfrwt beam="1">  1        2 0.38702445E-01 0.12113736E+04</pdfrwt>
<pdfrwt beam="2">  1       -2 0.22435260E+00 0.12113736E+04</pdfrwt>
<totfact> 0.12233822E+01</totfact>
</mgrwt>
</event>
<event>
 4    1  0.6739609E-006  0.7028405E+03  0.7818608E-02  0.9712387E-01
          2   -1    0    0  501    0  0.00000000000E+00  0.00000000000E+00  0.69515087510E+03  0.69515087511E+03  0.25500000000E-02 0. -1.
         -2   -1    0    0    0  501 -0.00000000000E+00 -0.00000000000E+00 -0.17765377488E+03  0.17765377490E+03  0.25500000000E-02 0.  1.
   -5000001    1    1    2    0    0 -0.54835661225E+02  0.24078535665E+03  0.25451187711E+03  0.43389034710E+03  0.25000000000E+03 0.  0.
    5000001    1    1    2    0    0  0.54835661225E+02 -0.24078535665E+03  0.26298522312E+03  0.43891430291E+03  0.25000000000E+03 0.  0.
<mgrwt>
<rscale>  0 0.70284046E+03</rscale>
<asrwt>0</asrwt>
<pdfrwt beam="1">  1        2 0.10694629E+00 0.70284046E+03</pdfrwt>
<pdfrwt beam="2">  1       -2 0.27331350E-01 0.70284046E+03</pdfrwt>
<totfact> 0.50654425E+02</totfact>
</mgrwt>
</event>
<event>
 4    1  0.6739609E-006  0.5406676E+03  0.7818608E-02  0.1003677E+00
          2   -1    0    0  501    0  0.00000000000E+00  0.00000000000E+00  0.74450114582E+03  0.74450114582E+03  0.25500000000E-02 0.  1.
         -2   -1    0    0    0  501 -0.00000000000E+00 -0.00000000000E+00 -0.98160159615E+02  0.98160159649E+02  0.25500000000E-02 0. -1.
   -5000001    1    1    2    0    0  0.83215593665E+02 -0.11075484964E+02  0.23053331065E+03  0.35027576096E+03  0.25000000000E+03 0.  0.
    5000001    1    1    2    0    0 -0.83215593665E+02  0.11075484964E+02  0.41580767555E+03  0.49238554451E+03  0.25000000000E+03 0.  0.
<mgrwt>
<rscale>  0 0.54066756E+03</rscale>
<asrwt>0</asrwt>
<pdfrwt beam="1">  1        2 0.11453864E+00 0.54066756E+03</pdfrwt>
<pdfrwt beam="2">  1       -2 0.15101562E-01 0.54066756E+03</pdfrwt>
<totfact> 0.13157332E+03</totfact>
</mgrwt>
</event>
<event>
 4    1  0.6739609E-006  0.7096536E+03  0.7818608E-02  0.9700864E-01
          2   -1    0    0  501    0  0.00000000000E+00  0.00000000000E+00  0.14544988290E+04  0.14544988290E+04  0.25500000000E-02 0.  1.
         -2   -1    0    0    0  501 -0.00000000000E+00 -0.00000000000E+00 -0.86560434698E+02  0.86560434736E+02  0.25500000000E-02 0. -1.
   -5000001    1    1    2    0    0  0.10385812329E+03  0.13782847980E+03  0.10821353855E+04  0.11239662771E+04  0.25000000000E+03 0.  0.
    5000001    1    1    2    0    0 -0.10385812329E+03 -0.13782847980E+03  0.28580300880E+03  0.41709298658E+03  0.25000000000E+03 0.  0.
<mgrwt>
<rscale>  0 0.70965358E+03</rscale>
<asrwt>0</asrwt>
<pdfrwt beam="1">  1        2 0.22376905E+00 0.70965358E+03</pdfrwt>
<pdfrwt beam="2">  1       -2 0.13316990E-01 0.70965358E+03</pdfrwt>
<totfact> 0.58437860E+02</totfact>
</mgrwt>
</event>
<event>
 4    1  0.6739609E-006  0.7106649E+03  0.7818608E-02  0.9699166E-01
          2   -1    0    0  501    0  0.00000000000E+00  0.00000000000E+00  0.23076837812E+03  0.23076837813E+03  0.25500000000E-02 0.  1.
         -2   -1    0    0    0  501 -0.00000000000E+00 -0.00000000000E+00 -0.54713367422E+03  0.54713367423E+03  0.25500000000E-02 0. -1.
   -5000001    1    1    2    0    0  0.27475152784E+02  0.22990128650E+03 -0.47894538984E+02  0.34409791109E+03  0.25000000000E+03 0.  0.
    5000001    1    1    2    0    0 -0.27475152784E+02 -0.22990128650E+03 -0.26847075712E+03  0.43380414127E+03  0.25000000000E+03 0.  0.
<mgrwt>
<rscale>  0 0.71066490E+03</rscale>
<asrwt>0</asrwt>
<pdfrwt beam="1">  1        2 0.35502827E-01 0.71066490E+03</pdfrwt>
<pdfrwt beam="2">  1       -2 0.84174411E-01 0.71066490E+03</pdfrwt>
<totfact> 0.18312992E+02</totfact>
</mgrwt>
</event>
<event>
 4    1  0.6739609E-006  0.1357878E+04  0.7818608E-02  0.8984886E-01
          2   -1    0    0  501    0  0.00000000000E+00  0.00000000000E+00  0.10183729478E+04  0.10183729479E+04  0.25500000000E-02 0.  1.
         -2   -1    0    0    0  501 -0.00000000000E+00 -0.00000000000E+00 -0.45264187579E+03  0.45264187579E+03  0.25500000000E-02 0. -1.
   -5000001    1    1    2    0    0  0.62597647801E+03  0.67964363541E+02  0.33122253158E+03  0.75410481444E+03  0.25000000000E+03 0.  0.
    5000001    1    1    2    0    0 -0.62597647801E+03 -0.67964363541E+02  0.23450854049E+03  0.71691000921E+03  0.25000000000E+03 0.  0.
<mgrwt>
<rscale>  0 0.13578781E+04</rscale>
<asrwt>0</asrwt>
<pdfrwt beam="1">  1        2 0.15667276E+00 0.13578781E+04</pdfrwt>
<pdfrwt beam="2">  1       -2 0.69637213E-01 0.13578781E+04</pdfrwt>
<totfact> 0.45005605E+01</totfact>
</mgrwt>
</event>
<event>
 4    1  0.6739609E-006  0.6673658E+03  0.7818608E-02  0.9774728E-01
          2   -1    0    0  501    0  0.00000000000E+00  0.00000000000E+00  0.12952645627E+04  0.12952645627E+04  0.25500000000E-02 0.  1.
         -2   -1    0    0    0  501 -0.00000000000E+00 -0.00000000000E+00 -0.85962586336E+02  0.85962586374E+02  0.25500000000E-02 0. -1.
   -5000001    1    1    2    0    0  0.17384721619E+03 -0.52128327533E+02  0.34364207668E+03  0.46209316590E+03  0.25000000000E+03 0.  0.
    5000001    1    1    2    0    0 -0.17384721619E+03  0.52128327533E+02  0.86565989969E+03  0.91913398318E+03  0.25000000000E+03 0.  0.
<mgrwt>
<rscale>  0 0.66736584E+03</rscale>
<asrwt>0</asrwt>
<pdfrwt beam="1">  1        2 0.19927148E+00 0.66736584E+03</pdfrwt>
<pdfrwt beam="2">  1       -2 0.13225013E-01 0.66736584E+03</pdfrwt>
<totfact> 0.72912933E+02</totfact>
</mgrwt>
</event>
<event>
 4    1  0.6739609E-006  0.8030005E+03  0.7818608E-02  0.9555684E-01
         -2   -1    0    0    0  501 -0.00000000000E+00  0.00000000000E+00  0.52224915411E+02  0.52224915473E+02  0.25500000000E-02 0. -1.
          2   -1    0    0  501    0  0.00000000000E+00 -0.00000000000E+00 -0.30866959976E+04  0.30866959976E+04  0.25500000000E-02 0.  1.
   -5000001    1    1    2    0    0  0.89997554698E+02 -0.23843623024E+03 -0.79909711311E+03  0.87521859665E+03  0.25000000000E+03 0.  0.
    5000001    1    1    2    0    0 -0.89997554698E+02  0.23843623024E+03 -0.22353739691E+04  0.22637023164E+04  0.25000000000E+03 0.  0.
<mgrwt>
<rscale>  0 0.80300047E+03</rscale>
<asrwt>0</asrwt>
<pdfrwt beam="1">  1        2 0.47487616E+00 0.80300047E+03</pdfrwt>
<pdfrwt beam="2">  1       -2 0.80346048E-02 0.80300047E+03</pdfrwt>
<totfact> 0.15777935E+02</totfact>
</mgrwt>
</event>
<event>
 4    1  0.6739609E-006  0.2186718E+04  0.7818608E-02  0.8523977E-01
          2   -1    0    0  501    0  0.00000000000E+00  0.00000000000E+00  0.13330017732E+04  0.13330017732E+04  0.25500000000E-02 0.  1.
         -2   -1    0    0    0  501 -0.00000000000E+00 -0.00000000000E+00 -0.89679836688E+03  0.89679836688E+03  0.25500000000E-02 0. -1.
   -5000001    1    1    2    0    0 -0.68079777819E+03 -0.78187654309E+03 -0.27723143547E+02  0.10668107218E+04  0.25000000000E+03 0.  0.
    5000001    1    1    2    0    0  0.68079777819E+03  0.78187654309E+03  0.46392654989E+03  0.11629894183E+04  0.25000000000E+03 0.  0.
<mgrwt>
<rscale>  0 0.21867179E+04</rscale>
<asrwt>0</asrwt>
<pdfrwt beam="1">  1        2 0.20507719E+00 0.21867179E+04</pdfrwt>
<pdfrwt beam="2">  1       -2 0.13796898E+00 0.21867179E+04</pdfrwt>
<totfact> 0.53998154E+00</totfact>
</mgrwt>
</event>
<event>
 4    1  0.6739609E-006  0.8236044E+03  0.7818608E-02  0.9526465E-01
         -2   -1    0    0    0  501 -0.00000000000E+00  0.00000000000E+00  0.86493121410E+02  0.86493121448E+02  0.25500000000E-02 0. -1.
          2   -1    0    0  501    0  0.00000000000E+00 -0.00000000000E+00 -0.19606305681E+04  0.19606305681E+04  0.25500000000E-02 0.  1.
   -5000001    1    1    2    0    0 -0.10150912347E+03 -0.29582840131E+03 -0.11762845035E+04  0.12425633901E+04  0.25000000000E+03 0.  0.
    5000001    1    1    2    0    0  0.10150912347E+03  0.29582840131E+03 -0.69785294314E+03  0.80456029943E+03  0.25000000000E+03 0.  0.
<mgrwt>
<rscale>  0 0.82360441E+03</rscale>
<asrwt>0</asrwt>
<pdfrwt beam="1">  1        2 0.30163544E+00 0.82360441E+03</pdfrwt>
<pdfrwt beam="2">  1       -2 0.13306636E-01 0.82360441E+03</pdfrwt>
<totfact> 0.30626886E+02</totfact>
</mgrwt>
</event>
<event>
 4    1  0.6739609E-006  0.9882649E+03  0.7818608E-02  0.9321510E-01
          2   -1    0    0  501    0  0.00000000000E+00  0.00000000000E+00  0.55288659901E+03  0.55288659902E+03  0.25500000000E-02 0.  1.
         -2   -1    0    0    0  501 -0.00000000000E+00 -0.00000000000E+00 -0.44162198664E+03  0.44162198664E+03  0.25500000000E-02 0. -1.
   -5000001    1    1    2    0    0  0.42094146728E+03  0.40828864491E+02  0.23054062760E+01  0.49128813333E+03  0.25000000000E+03 0.  0.
    5000001    1    1    2    0    0 -0.42094146728E+03 -0.40828864491E+02  0.10895920610E+03  0.50322045233E+03  0.25000000000E+03 0.  0.
<mgrwt>
<rscale>  0 0.98826490E+03</rscale>
<asrwt>0</asrwt>
<pdfrwt beam="1">  1        2 0.85059477E-01 0.98826490E+03</pdfrwt>
<pdfrwt beam="2">  1       -2 0.67941844E-01 0.98826490E+03</pdfrwt>
<totfact> 0.10851257E+02</totfact>
</mgrwt>
</event>
<event>
 4    1  0.6739609E-006  0.1055576E+04  0.7818608E-02  0.9249606E-01
          2   -1    0    0  501    0  0.00000000000E+00  0.00000000000E+00  0.14883226568E+04  0.14883226568E+04  0.25500000000E-02 0.  1.
         -2   -1    0    0    0  501 -0.00000000000E+00 -0.00000000000E+00 -0.18716378691E+03  0.18716378693E+03  0.25500000000E-02 0. -1.
   -5000001    1    1    2    0    0 -0.15192614911E+03 -0.38932215023E+03  0.97356816399E+03  0.10885716611E+04  0.25000000000E+03 0.  0.
    5000001    1    1    2    0    0  0.15192614911E+03  0.38932215023E+03  0.32759070585E+03  0.58691478257E+03  0.25000000000E+03 0.  0.
<mgrwt>
<rscale>  0 0.10555759E+04</rscale>
<asrwt>0</asrwt>
<pdfrwt beam="1">  1        2 0.22897272E+00 0.10555759E+04</pdfrwt>
<pdfrwt beam="2">  1       -2 0.28794429E-01 0.10555759E+04</pdfrwt>
<totfact> 0.14187326E+02</totfact>
</mgrwt>
</event>
<event>
 4    1  0.6739609E-006  0.9138738E+03  0.7818608E-02  0.9408403E-01
          2   -1    0    0  501    0  0.00000000000E+00  0.00000000000E+00  0.42462039952E+03  0.42462039953E+03  0.25500000000E-02 0.  1.
         -2   -1    0    0    0  501 -0.00000000000E+00 -0.00000000000E+00 -0.49171292561E+03  0.49171292561E+03  0.25500000000E-02 0. -1.
   -5000001    1    1    2    0    0  0.34828391808E+03 -0.14741465392E+03 -0.90783788508E+02  0.46235750674E+03  0.25000000000E+03 0.  0.
    5000001    1    1    2    0    0 -0.34828391808E+03  0.14741465392E+03  0.23691262423E+02  0.45397581841E+03  0.25000000000E+03 0.  0.
<mgrwt>
<rscale>  0 0.91387382E+03</rscale>
<asrwt>0</asrwt>
<pdfrwt beam="1">  1        2 0.65326215E-01 0.91387382E+03</pdfrwt>
<pdfrwt beam="2">  1       -2 0.75648143E-01 0.91387382E+03</pdfrwt>
<totfact> 0.11681186E+02</totfact>
</mgrwt>
</event>
<event>
 4    1  0.6739609E-006  0.1472901E+04  0.7818608E-02  0.8902676E-01
          2   -1    0    0  501    0  0.00000000000E+00  0.00000000000E+00  0.12896166671E+04  0.12896166671E+04  0.25500000000E-02 0.  1.
         -2   -1    0    0    0  501 -0.00000000000E+00 -0.00000000000E+00 -0.42055877509E+03  0.42055877509E+03  0.25500000000E-02 0. -1.
   -5000001    1    1    2    0    0 -0.32682028441E+03  0.70762280731E+02  0.11389218773E+04  0.12130382687E+04  0.25000000000E+03 0.  0.
    5000001    1    1    2    0    0  0.32682028441E+03 -0.70762280731E+02 -0.26986398533E+03  0.49713717348E+03  0.25000000000E+03 0.  0.
<mgrwt>
<rscale>  0 0.14729014E+04</rscale>
<asrwt>0</asrwt>
<pdfrwt beam="1">  1        2 0.19840256E+00 0.14729014E+04</pdfrwt>
<pdfrwt beam="2">  1       -2 0.64701351E-01 0.14729014E+04</pdfrwt>
<totfact> 0.35785002E+01</totfact>
</mgrwt>
</event>
<event>
 4    1  0.6739609E-006  0.5862931E+03  0.7818608E-02  0.9934259E-01
         -2   -1    0    0    0  501 -0.00000000000E+00  0.00000000000E+00  0.91191463517E+02  0.91191463553E+02  0.25500000000E-02 0. -1.
          2   -1    0    0  501    0  0.00000000000E+00 -0.00000000000E+00 -0.94235678061E+03  0.94235678062E+03  0.25500000000E-02 0.  1.
   -5000001    1    1    2    0    0 -0.10096597391E+03  0.10396804436E+03 -0.33865754818E+03  0.44518806933E+03  0.25000000000E+03 0.  0.
    5000001    1    1    2    0    0  0.10096597391E+03 -0.10396804436E+03 -0.51250776892E+03  0.58836017484E+03  0.25000000000E+03 0.  0.
<mgrwt>
<rscale>  0 0.58629308E+03</rscale>
<asrwt>0</asrwt>
<pdfrwt beam="1">  1        2 0.14497796E+00 0.58629308E+03</pdfrwt>
<pdfrwt beam="2">  1       -2 0.14029457E-01 0.58629308E+03</pdfrwt>
<totfact> 0.10848984E+03</totfact>
</mgrwt>
</event>
<event>
 4    1  0.6739609E-006  0.7002548E+03  0.7818608E-02  0.9716797E-01
          2   -1    0    0  501    0  0.00000000000E+00  0.00000000000E+00  0.54689248453E+03  0.54689248453E+03  0.25500000000E-02 0.  1.
         -2   -1    0    0    0  501 -0.00000000000E+00 -0.00000000000E+00 -0.22415591708E+03  0.22415591709E+03  0.25500000000E-02 0. -1.
   -5000001    1    1    2    0    0  0.17759004621E+03 -0.26005450131E+02 -0.22467689012E+02  0.30857625476E+03  0.25000000000E+03 0.  0.
    5000001    1    1    2    0    0 -0.17759004621E+03  0.26005450131E+02  0.34520425646E+03  0.46247214687E+03  0.25000000000E+03 0.  0.
<mgrwt>
<rscale>  0 0.70025477E+03</rscale>
<asrwt>0</asrwt>
<pdfrwt beam="1">  1        2 0.84137305E-01 0.70025477E+03</pdfrwt>
<pdfrwt beam="2">  1       -2 0.34485526E-01 0.70025477E+03</pdfrwt>
<totfact> 0.43981735E+02</totfact>
</mgrwt>
</event>
<event>
 4    1  0.6739609E-006  0.7157571E+03  0.7818608E-02  0.9690659E-01
          2   -1    0    0  501    0  0.00000000000E+00  0.00000000000E+00  0.58644189813E+03  0.58644189813E+03  0.25500000000E-02 0.  1.
         -2   -1    0    0    0  501 -0.00000000000E+00 -0.00000000000E+00 -0.21839681555E+03  0.21839681556E+03  0.25500000000E-02 0. -1.
   -5000001    1    1    2    0    0 -0.23704901171E+03  0.96438912144E+01  0.29241354741E+03  0.45198553218E+03  0.25000000000E+03 0.  0.
    5000001    1    1    2    0    0  0.23704901171E+03 -0.96438912144E+01  0.75631535168E+02  0.35285318151E+03  0.25000000000E+03 0.  0.
<mgrwt>
<rscale>  0 0.71575706E+03</rscale>
<asrwt>0</asrwt>
<pdfrwt beam="1">  1        2 0.90221831E-01 0.71575706E+03</pdfrwt>
<pdfrwt beam="2">  1       -2 0.33599510E-01 0.71575706E+03</pdfrwt>
<totfact> 0.42505268E+02</totfact>
</mgrwt>
</event>
<event>
 4    1  0.6739609E-006  0.7901610E+03  0.7818608E-02  0.9574369E-01
         -2   -1    0    0    0  501 -0.00000000000E+00  0.00000000000E+00  0.41757095685E+03  0.41757095686E+03  0.25500000000E-02 0. -1.
          2   -1    0    0  501    0  0.00000000000E+00 -0.00000000000E+00 -0.37380138847E+03  0.37380138848E+03  0.25500000000E-02 0.  1.
   -5000001    1    1    2    0    0  0.19183520596E+02  0.13149049184E+03 -0.25409317416E+03  0.38042226284E+03  0.25000000000E+03 0.  0.
    5000001    1    1    2    0    0 -0.19183520596E+02 -0.13149049184E+03  0.29786274255E+03  0.41095008250E+03  0.25000000000E+03 0.  0.
<mgrwt>
<rscale>  0 0.79016101E+03</rscale>
<asrwt>0</asrwt>
<pdfrwt beam="1">  1        2 0.57507906E-01 0.79016101E+03</pdfrwt>
<pdfrwt beam="2">  1       -2 0.64241686E-01 0.79016101E+03</pdfrwt>
<totfact> 0.19369958E+02</totfact>
</mgrwt>
</event>
<event>
 4    1  0.6739609E-006  0.5843445E+03  0.7818608E-02  0.9938429E-01
         -2   -1    0    0    0  501 -0.00000000000E+00  0.00000000000E+00  0.17224172951E+03  0.17224172953E+03  0.25500000000E-02 0. -1.
          2   -1    0    0  501    0  0.00000000000E+00 -0.00000000000E+00 -0.49560941334E+03  0.49560941334E+03  0.25500000000E-02 0.  1.
   -5000001    1    1    2    0    0 -0.14509997696E+03  0.38797538000E+02 -0.18165595798E+03  0.34359589540E+03  0.25000000000E+03 0.  0.
    5000001    1    1    2    0    0  0.14509997696E+03 -0.38797538000E+02 -0.14171172584E+03  0.32425524747E+03  0.25000000000E+03 0.  0.
<mgrwt>
<rscale>  0 0.58434450E+03</rscale>
<asrwt>0</asrwt>
<pdfrwt beam="1">  1        2 0.76247601E-01 0.58434450E+03</pdfrwt>
<pdfrwt beam="2">  1       -2 0.26498728E-01 0.58434450E+03</pdfrwt>
<totfact> 0.80578121E+02</totfact>
</mgrwt>
</event>
<event>
 4    1  0.6739609E-006  0.1561544E+04  0.7818608E-02  0.8844528E-01
         -2   -1    0    0    0  501 -0.00000000000E+00  0.00000000000E+00  0.28189126269E+03  0.28189126271E+03  0.25500000000E-02 0. -1.
          2   -1    0    0  501    0  0.00000000000E+00 -0.00000000000E+00 -0.21625520943E+04  0.21625520943E+04  0.25500000000E-02 0.  1.
   -5000001    1    1    2    0    0 -0.21084178316E+03 -0.64291999966E+03 -0.47252879339E+03  0.86231307775E+03  0.25000000000E+03 0.  0.
    5000001    1    1    2    0    0  0.21084178316E+03  0.64291999966E+03 -0.14081320382E+04  0.15821302793E+04  0.25000000000E+03 0.  0.
<mgrwt>
<rscale>  0 0.15615435E+04</rscale>
<asrwt>0</asrwt>
<pdfrwt beam="1">  1        2 0.33270031E+00 0.15615435E+04</pdfrwt>
<pdfrwt beam="2">  1       -2 0.43367888E-01 0.15615435E+04</pdfrwt>
<totfact> 0.26300828E+01</totfact>
</mgrwt>
</event>
<event>
 4    1  0.6739609E-006  0.1409751E+04  0.7818608E-02  0.8946791E-01
         -2   -1    0    0    0  501 -0.00000000000E+00  0.00000000000E+00  0.52157513835E+03  0.52157513836E+03  0.25500000000E-02 0. -1.
          2   -1    0    0  501    0  0.00000000000E+00 -0.00000000000E+00 -0.95259366176E+03  0.95259366177E+03  0.25500000000E-02 0.  1.
   -5000001    1    1    2    0    0  0.21653030856E+03  0.48112808028E+03  0.19748002885E+03  0.61633429723E+03  0.25000000000E+03 0.  0.
    5000001    1    1    2    0    0 -0.21653030856E+03 -0.48112808028E+03 -0.62849855226E+03  0.85783450289E+03  0.25000000000E+03 0.  0.
<mgrwt>
<rscale>  0 0.14097506E+04</rscale>
<asrwt>0</asrwt>
<pdfrwt beam="1">  1        2 0.14655287E+00 0.14097506E+04</pdfrwt>
<pdfrwt beam="2">  1       -2 0.80242329E-01 0.14097506E+04</pdfrwt>
<totfact> 0.36122184E+01</totfact>
</mgrwt>
</event>
<event>
 4    1  0.6739609E-006  0.5493803E+03  0.7818608E-02  0.1001637E+00
          2   -1    0    0  501    0  0.00000000000E+00  0.00000000000E+00  0.25546001867E+03  0.25546001868E+03  0.25500000000E-02 0.  1.
         -2   -1    0    0    0  501 -0.00000000000E+00 -0.00000000000E+00 -0.29536789116E+03  0.29536789118E+03  0.25500000000E-02 0. -1.
   -5000001    1    1    2    0    0 -0.10493364581E+03  0.26541405812E+02  0.15340675415E+02  0.27285683530E+03  0.25000000000E+03 0.  0.
    5000001    1    1    2    0    0  0.10493364581E+03 -0.26541405812E+02 -0.55248547913E+02  0.27797107456E+03  0.25000000000E+03 0.  0.
<mgrwt>
<rscale>  0 0.54938033E+03</rscale>
<asrwt>0</asrwt>
<pdfrwt beam="1">  1        2 0.39301541E-01 0.54938033E+03</pdfrwt>
<pdfrwt beam="2">  1       -2 0.45441214E-01 0.54938033E+03</pdfrwt>
<totfact> 0.60742997E+02</totfact>
</mgrwt>
</event>
<event>
 4    1  0.6739609E-006  0.7274553E+03  0.7818608E-02  0.9671399E-01
         -2   -1    0    0    0  501 -0.00000000000E+00  0.00000000000E+00  0.34694127076E+03  0.34694127077E+03  0.25500000000E-02 0. -1.
          2   -1    0    0  501    0  0.00000000000E+00 -0.00000000000E+00 -0.38132619904E+03  0.38132619905E+03  0.25500000000E-02 0.  1.
   -5000001    1    1    2    0    0  0.19791973028E+03  0.16880907148E+03 -0.63385868671E+02  0.36631474253E+03  0.25000000000E+03 0.  0.
    5000001    1    1    2    0    0 -0.19791973028E+03 -0.16880907148E+03  0.29000940386E+02  0.36195272729E+03  0.25000000000E+03 0.  0.
<mgrwt>
<rscale>  0 0.72745528E+03</rscale>
<asrwt>0</asrwt>
<pdfrwt beam="1">  1        2 0.58665569E-01 0.72745528E+03</pdfrwt>
<pdfrwt beam="2">  1       -2 0.53375580E-01 0.72745528E+03</pdfrwt>
<totfact> 0.28018915E+02</totfact>
</mgrwt>
</event>
<event>
 4    1  0.6739609E-006  0.7331029E+03  0.7818608E-02  0.9662239E-01
         -2   -1    0    0    0  501 -0.00000000000E+00  0.00000000000E+00  0.93718844290E+02  0.93718844325E+02  0.25500000000E-02 0. -1.
          2   -1    0    0  501    0  0.00000000000E+00 -0.00000000000E+00 -0.14336493324E+04  0.14336493324E+04  0.25500000000E-02 0.  1.
   -5000001    1    1    2    0    0 -0.17048479671E+03 -0.19813379065E+03 -0.54604244924E+03  0.65496902314E+03  0.25000000000E+03 0.  0.
    5000001    1    1    2    0    0  0.17048479671E+03  0.19813379065E+03 -0.79388803883E+03  0.87239915354E+03  0.25000000000E+03 0.  0.
<mgrwt>
<rscale>  0 0.73310288E+03</rscale>
<asrwt>0</asrwt>
<pdfrwt beam="1">  1        2 0.22056142E+00 0.73310288E+03</pdfrwt>
<pdfrwt beam="2">  1       -2 0.14418285E-01 0.73310288E+03</pdfrwt>
<totfact> 0.52479401E+02</totfact>
</mgrwt>
</event>
<event>
 4    1  0.6739609E-006  0.1065965E+04  0.7818608E-02  0.9239014E-01
         -2   -1    0    0    0  501 -0.00000000000E+00  0.00000000000E+00  0.77814750090E+02  0.77814750132E+02  0.25500000000E-02 0. -1.
          2   -1    0    0  501    0  0.00000000000E+00 -0.00000000000E+00 -0.36505992575E+04  0.36505992575E+04  0.25500000000E-02 0.  1.
   -5000001    1    1    2    0    0  0.38370716701E+03 -0.27231148395E+03 -0.17387241817E+04  0.18185286674E+04  0.25000000000E+03 0.  0.
    5000001    1    1    2    0    0 -0.38370716701E+03  0.27231148395E+03 -0.18340603257E+04  0.19098853402E+04  0.25000000000E+03 0.  0.
<mgrwt>
<rscale>  0 0.10659652E+04</rscale>
<asrwt>0</asrwt>
<pdfrwt beam="1">  1        2 0.56163052E+00 0.10659652E+04</pdfrwt>
<pdfrwt beam="2">  1       -2 0.11971503E-01 0.10659652E+04</pdfrwt>
<totfact> 0.33612113E+01</totfact>
</mgrwt>
</event>
<event>
 4    1  0.6739609E-006  0.6116311E+03  0.7818608E-02  0.9881565E-01
          2   -1    0    0  501    0  0.00000000000E+00  0.00000000000E+00  0.93019389051E+02  0.93019389086E+02  0.25500000000E-02 0.  1.
         -2   -1    0    0    0  501 -0.00000000000E+00 -0.00000000000E+00 -0.10054155116E+04  0.10054155116E+04  0.25500000000E-02 0. -1.
   -5000001    1    1    2    0    0 -0.76036457821E+02  0.42209073298E+02 -0.73127151938E+03  0.77770250343E+03  0.25000000000E+03 0.  0.
    5000001    1    1    2    0    0  0.76036457821E+02 -0.42209073298E+02 -0.18112460320E+03  0.32073239729E+03  0.25000000000E+03 0.  0.
<mgrwt>
<rscale>  0 0.61163105E+03</rscale>
<asrwt>0</asrwt>
<pdfrwt beam="1">  1        2 0.14310676E-01 0.61163105E+03</pdfrwt>
<pdfrwt beam="2">  1       -2 0.15467930E+00 0.61163105E+03</pdfrwt>
<totfact> 0.11923058E+02</totfact>
</mgrwt>
</event>
<event>
 4    1  0.6739609E-006  0.5243879E+03  0.7818608E-02  0.1007602E+00
         -2   -1    0    0    0  501 -0.00000000000E+00  0.00000000000E+00  0.27874333754E+03  0.27874333755E+03  0.25500000000E-02 0. -1.
          2   -1    0    0  501    0  0.00000000000E+00 -0.00000000000E+00 -0.24662711941E+03  0.24662711942E+03  0.25500000000E-02 0.  1.
   -5000001    1    1    2    0    0 -0.21606822117E+02  0.65170113137E+02  0.55267970441E+02  0.26508215135E+03  0.25000000000E+03 0.  0.
    5000001    1    1    2    0    0  0.21606822117E+02 -0.65170113137E+02 -0.23151752307E+02  0.26028830562E+03  0.25000000000E+03 0.  0.
<mgrwt>
<rscale>  0 0.52438790E+03</rscale>
<asrwt>0</asrwt>
<pdfrwt beam="1">  1        2 0.37942634E-01 0.52438790E+03</pdfrwt>
<pdfrwt beam="2">  1       -2 0.42883590E-01 0.52438790E+03</pdfrwt>
<totfact> 0.70821882E+02</totfact>
</mgrwt>
</event>
<event>
 4    1  0.6739609E-006  0.7007124E+03  0.7818608E-02  0.9716015E-01
         -2   -1    0    0    0  501 -0.00000000000E+00  0.00000000000E+00  0.15078176255E+04  0.15078176255E+04  0.25500000000E-02 0. -1.
          2   -1    0    0  501    0  0.00000000000E+00 -0.00000000000E+00 -0.81408702377E+02  0.81408702417E+02  0.25500000000E-02 0.  1.
   -5000001    1    1    2    0    0 -0.20246728314E+03  0.13658405814E+03  0.76881805268E+03  0.84452910181E+03  0.25000000000E+03 0.  0.
    5000001    1    1    2    0    0  0.20246728314E+03 -0.13658405814E+03  0.65759087044E+03  0.74469722611E+03  0.25000000000E+03 0.  0.
<mgrwt>
<rscale>  0 0.70071243E+03</rscale>
<asrwt>0</asrwt>
<pdfrwt beam="1">  1        2 0.12524417E-01 0.70071243E+03</pdfrwt>
<pdfrwt beam="2">  1       -2 0.23197191E+00 0.70071243E+03</pdfrwt>
<totfact> 0.42736943E+01</totfact>
</mgrwt>
</event>
<event>
 4    1  0.6739609E-006  0.1172371E+04  0.7818608E-02  0.9137390E-01
         -2   -1    0    0    0  501 -0.00000000000E+00  0.00000000000E+00  0.96424649472E+03  0.96424649472E+03  0.25500000000E-02 0. -1.
          2   -1    0    0  501    0  0.00000000000E+00 -0.00000000000E+00 -0.35635441629E+03  0.35635441630E+03  0.25500000000E-02 0.  1.
   -5000001    1    1    2    0    0  0.37874620360E+03  0.27268675878E+03  0.58736667660E+03  0.79076315540E+03  0.25000000000E+03 0.  0.
    5000001    1    1    2    0    0 -0.37874620360E+03 -0.27268675878E+03  0.20525401832E+02  0.52983775562E+03  0.25000000000E+03 0.  0.
<mgrwt>
<rscale>  0 0.11723711E+04</rscale>
<asrwt>0</asrwt>
<pdfrwt beam="1">  1        2 0.54823756E-01 0.11723711E+04</pdfrwt>
<pdfrwt beam="2">  1       -2 0.14834562E+00 0.11723711E+04</pdfrwt>
<totfact> 0.27592575E+01</totfact>
</mgrwt>
</event>
<event>
 4    1  0.6739609E-006  0.8442938E+03  0.7818608E-02  0.9498028E-01
          2   -1    0    0  501    0  0.00000000000E+00  0.00000000000E+00  0.13782824576E+04  0.13782824576E+04  0.25500000000E-02 0.  1.
         -2   -1    0    0    0  501 -0.00000000000E+00 -0.00000000000E+00 -0.12929716081E+03  0.12929716083E+03  0.25500000000E-02 0. -1.
   -5000001    1    1    2    0    0 -0.15778382857E+03  0.22293619619E+03  0.98654343893E+03  0.10537382222E+04  0.25000000000E+03 0.  0.
    5000001    1    1    2    0    0  0.15778382857E+03 -0.22293619619E+03  0.26244185785E+03  0.45384139617E+03  0.25000000000E+03 0.  0.
<mgrwt>
<rscale>  0 0.84429381E+03</rscale>
<asrwt>0</asrwt>
<pdfrwt beam="1">  1        2 0.21204344E+00 0.84429381E+03</pdfrwt>
<pdfrwt beam="2">  1       -2 0.19891872E-01 0.84429381E+03</pdfrwt>
<totfact> 0.32269639E+02</totfact>
</mgrwt>
</event>
<event>
 4    1  0.6739609E-006  0.6015371E+03  0.7818608E-02  0.9902222E-01
         -2   -1    0    0    0  501 -0.00000000000E+00  0.00000000000E+00  0.34964359444E+03  0.34964359445E+03  0.25500000000E-02 0. -1.
          2   -1    0    0  501    0  0.00000000000E+00 -0.00000000000E+00 -0.25872547980E+03  0.25872547981E+03  0.25500000000E-02 0.  1.
   -5000001    1    1    2    0    0 -0.13723468236E+03 -0.45405866068E+02 -0.39559106437E+02  0.29147894198E+03  0.25000000000E+03 0.  0.
    5000001    1    1    2    0    0  0.13723468236E+03  0.45405866068E+02  0.13047722107E+03  0.31689013228E+03  0.25000000000E+03 0.  0.
<mgrwt>
<rscale>  0 0.60153705E+03</rscale>
<asrwt>0</asrwt>
<pdfrwt beam="1">  1        2 0.39803920E-01 0.60153705E+03</pdfrwt>
<pdfrwt beam="2">  1       -2 0.53791322E-01 0.60153705E+03</pdfrwt>
<totfact> 0.42555513E+02</totfact>
</mgrwt>
</event>
<event>
 4    1  0.6739609E-006  0.9976537E+03  0.7818608E-02  0.9311122E-01
          2   -1    0    0  501    0  0.00000000000E+00  0.00000000000E+00  0.43414448698E+03  0.43414448699E+03  0.25500000000E-02 0.  1.
         -2   -1    0    0    0  501 -0.00000000000E+00 -0.00000000000E+00 -0.57314606657E+03  0.57314606658E+03  0.25500000000E-02 0. -1.
   -5000001    1    1    2    0    0 -0.26215029016E+03  0.31595667194E+03 -0.20411840737E+03  0.52222190437E+03  0.25000000000E+03 0.  0.
    5000001    1    1    2    0    0  0.26215029016E+03 -0.31595667194E+03  0.65116827775E+02  0.48506864920E+03  0.25000000000E+03 0.  0.
<mgrwt>
<rscale>  0 0.99765366E+03</rscale>
<asrwt>0</asrwt>
<pdfrwt beam="1">  1        2 0.66791459E-01 0.99765366E+03</pdfrwt>
<pdfrwt beam="2">  1       -2 0.88176319E-01 0.99765366E+03</pdfrwt>
<totfact> 0.80201571E+01</totfact>
</mgrwt>
</event>
<event>
 4    1  0.6739609E-006  0.7426884E+03  0.7818608E-02  0.9646891E-01
         -2   -1    0    0    0  501 -0.00000000000E+00  0.00000000000E+00  0.98584285545E+03  0.98584285545E+03  0.25500000000E-02 0. -1.
          2   -1    0    0  501    0  0.00000000000E+00 -0.00000000000E+00 -0.13987675387E+03  0.13987675390E+03  0.25500000000E-02 0.  1.
   -5000001    1    1    2    0    0  0.20303371948E+03  0.18371807315E+03  0.45410096375E+03  0.58624457944E+03  0.25000000000E+03 0.  0.
    5000001    1    1    2    0    0 -0.20303371948E+03 -0.18371807315E+03  0.39186513783E+03  0.53947502991E+03  0.25000000000E+03 0.  0.
<mgrwt>
<rscale>  0 0.74268836E+03</rscale>
<asrwt>0</asrwt>
<pdfrwt beam="1">  1        2 0.21519500E-01 0.74268836E+03</pdfrwt>
<pdfrwt beam="2">  1       -2 0.15166814E+00 0.74268836E+03</pdfrwt>
<totfact> 0.76728171E+01</totfact>
</mgrwt>
</event>
<event>
 4    1  0.6739609E-006  0.6052913E+03  0.7818608E-02  0.9894489E-01
         -2   -1    0    0    0  501 -0.00000000000E+00  0.00000000000E+00  0.87566900452E+02  0.87566900489E+02  0.25500000000E-02 0. -1.
          2   -1    0    0  501    0  0.00000000000E+00 -0.00000000000E+00 -0.10459933372E+04  0.10459933372E+04  0.25500000000E-02 0.  1.
   -5000001    1    1    2    0    0 -0.28839487738E+02  0.10439419907E+03 -0.23243224578E+03  0.35812653313E+03  0.25000000000E+03 0.  0.
    5000001    1    1    2    0    0  0.28839487738E+02 -0.10439419907E+03 -0.72599419096E+03  0.77543370456E+03  0.25000000000E+03 0.  0.
<mgrwt>
<rscale>  0 0.60529132E+03</rscale>
<asrwt>0</asrwt>
<pdfrwt beam="1">  1        2 0.16092204E+00 0.60529132E+03</pdfrwt>
<pdfrwt beam="2">  1       -2 0.13471832E-01 0.60529132E+03</pdfrwt>
<totfact> 0.99713497E+02</totfact>
</mgrwt>
</event>
<event>
 4    1  0.6739609E-006  0.1416379E+04  0.7818608E-02  0.8942047E-01
          2   -1    0    0  501    0  0.00000000000E+00  0.00000000000E+00  0.21138244012E+04  0.21138244012E+04  0.25500000000E-02 0.  1.
         -2   -1    0    0    0  501 -0.00000000000E+00 -0.00000000000E+00 -0.23726298760E+03  0.23726298761E+03  0.25500000000E-02 0. -1.
   -5000001    1    1    2    0    0  0.38848010586E+03 -0.26627582778E+03  0.17119082370E+04  0.17930280034E+04  0.25000000000E+03 0.  0.
    5000001    1    1    2    0    0 -0.38848010586E+03  0.26627582778E+03  0.16465317665E+03  0.55805938545E+03  0.25000000000E+03 0.  0.
<mgrwt>
<rscale>  0 0.14163789E+04</rscale>
<asrwt>0</asrwt>
<pdfrwt beam="1">  1        2 0.32520376E+00 0.14163789E+04</pdfrwt>
<pdfrwt beam="2">  1       -2 0.36501998E-01 0.14163789E+04</pdfrwt>
<totfact> 0.39693048E+01</totfact>
</mgrwt>
</event>
<event>
 4    1  0.6739609E-006  0.6068860E+03  0.7818608E-02  0.9891222E-01
         -2   -1    0    0    0  501 -0.00000000000E+00  0.00000000000E+00  0.39573678127E+03  0.39573678128E+03  0.25500000000E-02 0. -1.
          2   -1    0    0  501    0  0.00000000000E+00 -0.00000000000E+00 -0.23267397494E+03  0.23267397496E+03  0.25500000000E-02 0.  1.
   -5000001    1    1    2    0    0  0.12138136849E+03  0.10787026896E+03  0.22881342803E+02  0.29898660069E+03  0.25000000000E+03 0.  0.
    5000001    1    1    2    0    0 -0.12138136849E+03 -0.10787026896E+03  0.14018146352E+03  0.32942415555E+03  0.25000000000E+03 0.  0.
<mgrwt>
<rscale>  0 0.60688599E+03</rscale>
<asrwt>0</asrwt>
<pdfrwt beam="1">  1        2 0.35795996E-01 0.60688599E+03</pdfrwt>
<pdfrwt beam="2">  1       -2 0.60882582E-01 0.60688599E+03</pdfrwt>
<totfact> 0.36983579E+02</totfact>
</mgrwt>
</event>
<event>
 4    1  0.6739609E-006  0.7310426E+03  0.7818608E-02  0.9665570E-01
         -2   -1    0    0    0  501 -0.00000000000E+00  0.00000000000E+00  0.70834375659E+02  0.70834375705E+02  0.25500000000E-02 0. -1.
          2   -1    0    0  501    0  0.00000000000E+00 -0.00000000000E+00 -0.18861720922E+04  0.18861720922E+04  0.25500000000E-02 0.  1.
   -5000001    1    1    2    0    0  0.13446762040E+02  0.26590073791E+03 -0.94753782615E+03  0.10154860658E+04  0.25000000000E+03 0.  0.
    5000001    1    1    2    0    0 -0.13446762040E+02 -0.26590073791E+03 -0.86779989036E+03  0.94152040208E+03  0.25000000000E+03 0.  0.
<mgrwt>
<rscale>  0 0.73104260E+03</rscale>
<asrwt>0</asrwt>
<pdfrwt beam="1">  1        2 0.29018028E+00 0.73104260E+03</pdfrwt>
<pdfrwt beam="2">  1       -2 0.10897598E-01 0.73104260E+03</pdfrwt>
<totfact> 0.47115685E+02</totfact>
</mgrwt>
</event>
<event>
 4    1  0.6739609E-006  0.7241597E+03  0.7818608E-02  0.9676785E-01
          2   -1    0    0  501    0  0.00000000000E+00  0.00000000000E+00  0.78082958821E+03  0.78082958821E+03  0.25500000000E-02 0.  1.
         -2   -1    0    0    0  501 -0.00000000000E+00 -0.00000000000E+00 -0.16790068291E+03  0.16790068293E+03  0.25500000000E-02 0. -1.
   -5000001    1    1    2    0    0  0.24500920737E+03 -0.92229442700E+02  0.31711102164E+03  0.48124337070E+03  0.25000000000E+03 0.  0.
    5000001    1    1    2    0    0 -0.24500920737E+03  0.92229442700E+02  0.29581788366E+03  0.46748690045E+03  0.25000000000E+03 0.  0.
<mgrwt>
<rscale>  0 0.72415971E+03</rscale>
<asrwt>0</asrwt>
<pdfrwt beam="1">  1        2 0.12012763E+00 0.72415971E+03</pdfrwt>
<pdfrwt beam="2">  1       -2 0.25830875E-01 0.72415971E+03</pdfrwt>
<totfact> 0.48324322E+02</totfact>
</mgrwt>
</event>
<event>
 4    1  0.6739609E-006  0.2663105E+04  0.7818608E-02  0.8347076E-01
          2   -1    0    0  501    0  0.00000000000E+00  0.00000000000E+00  0.75104951358E+03  0.75104951358E+03  0.25500000000E-02 0.  1.
         -2   -1    0    0    0  501 -0.00000000000E+00 -0.00000000000E+00 -0.23607396893E+04  0.23607396893E+04  0.25500000000E-02 0. -1.
   -5000001    1    1    2    0    0 -0.86219472819E+03  0.95348536848E+03 -0.52339309295E+03  0.14103029557E+04  0.25000000000E+03 0.  0.
    5000001    1    1    2    0    0  0.86219472819E+03 -0.95348536848E+03 -0.10862970828E+04  0.17014862472E+04  0.25000000000E+03 0.  0.
<mgrwt>
<rscale>  0 0.26631053E+04</rscale>
<asrwt>0</asrwt>
<pdfrwt beam="1">  1        2 0.11554608E+00 0.26631053E+04</pdfrwt>
<pdfrwt beam="2">  1       -2 0.36319072E+00 0.26631053E+04</pdfrwt>
<totfact> 0.42275722E-01</totfact>
</mgrwt>
</event>
<event>
 4    1  0.6739609E-006  0.6811951E+03  0.7818608E-02  0.9749943E-01
          2   -1    0    0  501    0  0.00000000000E+00  0.00000000000E+00  0.29218402189E+04  0.29218402189E+04  0.25500000000E-02 0.  1.
         -2   -1    0    0    0  501 -0.00000000000E+00 -0.00000000000E+00 -0.39703299088E+02  0.39703299170E+02  0.25500000000E-02 0. -1.
   -5000001    1    1    2    0    0 -0.15455386988E+03  0.98406103855E+02  0.82721317235E+03  0.88337551046E+03  0.25000000000E+03 0.  0.
    5000001    1    1    2    0    0  0.15455386988E+03 -0.98406103855E+02  0.20549237474E+04  0.20781680076E+04  0.25000000000E+03 0.  0.
<mgrwt>
<rscale>  0 0.68119512E+03</rscale>
<asrwt>0</asrwt>
<pdfrwt beam="1">  1        2 0.44951395E+00 0.68119512E+03</pdfrwt>
<pdfrwt beam="2">  1       -2 0.61081989E-02 0.68119512E+03</pdfrwt>
<totfact> 0.31173012E+02</totfact>
</mgrwt>
</event>
<event>
 4    1  0.6739609E-006  0.9541469E+03  0.7818608E-02  0.9360317E-01
         -2   -1    0    0    0  501 -0.00000000000E+00  0.00000000000E+00  0.69562478046E+02  0.69562478093E+02  0.25500000000E-02 0. -1.
          2   -1    0    0  501    0  0.00000000000E+00 -0.00000000000E+00 -0.32718658277E+04  0.32718658277E+04  0.25500000000E-02 0.  1.
   -5000001    1    1    2    0    0 -0.25691163798E+03 -0.21990606162E+03 -0.23899728270E+04  0.24266916531E+04  0.25000000000E+03 0.  0.
    5000001    1    1    2    0    0  0.25691163798E+03  0.21990606162E+03 -0.81233052271E+03  0.91473665270E+03  0.25000000000E+03 0.  0.
<mgrwt>
<rscale>  0 0.95414694E+03</rscale>
<asrwt>0</asrwt>
<pdfrwt beam="1">  1        2 0.50336385E+00 0.95414694E+03</pdfrwt>
<pdfrwt beam="2">  1       -2 0.10701922E-01 0.95414694E+03</pdfrwt>
<totfact> 0.74264048E+01</totfact>
</mgrwt>
</event>
<event>
 4    1  0.6739609E-006  0.9048965E+03  0.7818608E-02  0.9419481E-01
         -2   -1    0    0    0  501 -0.00000000000E+00  0.00000000000E+00  0.49665723598E+03  0.49665723598E+03  0.25500000000E-02 0. -1.
          2   -1    0    0  501    0  0.00000000000E+00 -0.00000000000E+00 -0.41217443919E+03  0.41217443920E+03  0.25500000000E-02 0.  1.
   -5000001    1    1    2    0    0  0.11376698702E+03 -0.35670434786E+03 -0.29933213314E+01  0.45021092733E+03  0.25000000000E+03 0.  0.
    5000001    1    1    2    0    0 -0.11376698702E+03  0.35670434786E+03  0.87476118121E+02  0.45862074785E+03  0.25000000000E+03 0.  0.
<mgrwt>
<rscale>  0 0.90489650E+03</rscale>
<asrwt>0</asrwt>
<pdfrwt beam="1">  1        2 0.63411452E-01 0.90489650E+03</pdfrwt>
<pdfrwt beam="2">  1       -2 0.76408806E-01 0.90489650E+03</pdfrwt>
<totfact> 0.11820947E+02</totfact>
</mgrwt>
</event>
<event>
 4    1  0.6739609E-006  0.6826716E+03  0.7818608E-02  0.9747334E-01
         -2   -1    0    0    0  501 -0.00000000000E+00  0.00000000000E+00  0.70746439843E+02  0.70746439889E+02  0.25500000000E-02 0. -1.
          2   -1    0    0  501    0  0.00000000000E+00 -0.00000000000E+00 -0.16468693774E+04  0.16468693774E+04  0.25500000000E-02 0.  1.
   -5000001    1    1    2    0    0  0.22563737390E+03 -0.44033154792E+02 -0.87371717186E+03  0.93740750990E+03  0.25000000000E+03 0.  0.
    5000001    1    1    2    0    0 -0.22563737390E+03  0.44033154792E+02 -0.70240576566E+03  0.78020830735E+03  0.25000000000E+03 0.  0.
<mgrwt>
<rscale>  0 0.68267165E+03</rscale>
<asrwt>0</asrwt>
<pdfrwt beam="1">  1        2 0.25336449E+00 0.68267165E+03</pdfrwt>
<pdfrwt beam="2">  1       -2 0.10884069E-01 0.68267165E+03</pdfrwt>
<totfact> 0.63947816E+02</totfact>
</mgrwt>
</event>
<event>
 4    1  0.6739609E-006  0.8964464E+03  0.7818608E-02  0.9430035E-01
          2   -1    0    0  501    0  0.00000000000E+00  0.00000000000E+00  0.38084389495E+03  0.38084389496E+03  0.25500000000E-02 0.  1.
         -2   -1    0    0    0  501 -0.00000000000E+00 -0.00000000000E+00 -0.52752328736E+03  0.52752328737E+03  0.25500000000E-02 0. -1.
   -5000001    1    1    2    0    0  0.15073614484E+03 -0.18074686273E+03  0.21861181378E+03  0.40704046343E+03  0.25000000000E+03 0.  0.
    5000001    1    1    2    0    0 -0.15073614484E+03  0.18074686273E+03 -0.36529120619E+03  0.50132671889E+03  0.25000000000E+03 0.  0.
<mgrwt>
<rscale>  0 0.89644637E+03</rscale>
<asrwt>0</asrwt>
<pdfrwt beam="1">  1        2 0.58591369E-01 0.89644637E+03</pdfrwt>
<pdfrwt beam="2">  1       -2 0.81157429E-01 0.89644637E+03</pdfrwt>
<totfact> 0.11292954E+02</totfact>
</mgrwt>
</event>
<event>
 4    1  0.6739609E-006  0.6451918E+03  0.7818608E-02  0.9815844E-01
          2   -1    0    0  501    0  0.00000000000E+00  0.00000000000E+00  0.20934801243E+04  0.20934801243E+04  0.25500000000E-02 0.  1.
         -2   -1    0    0    0  501 -0.00000000000E+00 -0.00000000000E+00 -0.49710580024E+02  0.49710580089E+02  0.25500000000E-02 0. -1.
   -5000001    1    1    2    0    0 -0.20050112099E+03  0.47326372809E+01  0.11437094800E+04  0.11877686947E+04  0.25000000000E+03 0.  0.
    5000001    1    1    2    0    0  0.20050112099E+03 -0.47326372809E+01  0.90006006431E+03  0.95542200977E+03  0.25000000000E+03 0.  0.
<mgrwt>
<rscale>  0 0.64519179E+03</rscale>
<asrwt>0</asrwt>
<pdfrwt beam="1">  1        2 0.32207384E+00 0.64519179E+03</pdfrwt>
<pdfrwt beam="2">  1       -2 0.76477822E-02 0.64519179E+03</pdfrwt>
<totfact> 0.64758539E+02</totfact>
</mgrwt>
</event>
<event>
 4    1  0.6739609E-006  0.5693859E+03  0.7818608E-02  0.9971039E-01
         -2   -1    0    0    0  501 -0.00000000000E+00  0.00000000000E+00  0.21385547630E+03  0.21385547632E+03  0.25500000000E-02 0. -1.
          2   -1    0    0  501    0  0.00000000000E+00 -0.00000000000E+00 -0.37899456701E+03  0.37899456702E+03  0.25500000000E-02 0.  1.
   -5000001    1    1    2    0    0  0.11178803121E+03 -0.75691051744E+02 -0.63817235003E+02  0.29120154313E+03  0.25000000000E+03 0.  0.
    5000001    1    1    2    0    0 -0.11178803121E+03  0.75691051744E+02 -0.10132185570E+03  0.30164850021E+03  0.25000000000E+03 0.  0.
<mgrwt>
<rscale>  0 0.56938586E+03</rscale>
<asrwt>0</asrwt>
<pdfrwt beam="1">  1        2 0.58306857E-01 0.56938586E+03</pdfrwt>
<pdfrwt beam="2">  1       -2 0.32900842E-01 0.56938586E+03</pdfrwt>
<totfact> 0.73215175E+02</totfact>
</mgrwt>
</event>
<event>
 4    1  0.6739609E-006  0.7252851E+03  0.7818608E-02  0.9674942E-01
          2   -1    0    0  501    0  0.00000000000E+00  0.00000000000E+00  0.84080894495E+03  0.84080894495E+03  0.25500000000E-02 0.  1.
         -2   -1    0    0    0  501 -0.00000000000E+00 -0.00000000000E+00 -0.15640843619E+03  0.15640843621E+03  0.25500000000E-02 0. -1.
   -5000001    1    1    2    0    0  0.24762905102E+02  0.26119539148E+03  0.36030441412E+03  0.51103376095E+03  0.25000000000E+03 0.  0.
    5000001    1    1    2    0    0 -0.24762905102E+02 -0.26119539148E+03  0.32409609464E+03  0.48618362021E+03  0.25000000000E+03 0.  0.
<mgrwt>
<rscale>  0 0.72528508E+03</rscale>
<asrwt>0</asrwt>
<pdfrwt beam="1">  1        2 0.12935522E+00 0.72528508E+03</pdfrwt>
<pdfrwt beam="2">  1       -2 0.24062836E-01 0.72528508E+03</pdfrwt>
<totfact> 0.49759625E+02</totfact>
</mgrwt>
</event>
<event>
 4    1  0.6739609E-006  0.8874733E+03  0.7818608E-02  0.9441377E-01
          2   -1    0    0  501    0  0.00000000000E+00  0.00000000000E+00  0.10816000849E+04  0.10816000849E+04  0.25500000000E-02 0. -1.
         -2   -1    0    0    0  501 -0.00000000000E+00 -0.00000000000E+00 -0.18204715491E+03  0.18204715493E+03  0.25500000000E-02 0.  1.
   -5000001    1    1    2    0    0 -0.15639225604E+03  0.20741530963E+03  0.81429701955E+02  0.36960850204E+03  0.25000000000E+03 0.  0.
    5000001    1    1    2    0    0  0.15639225604E+03 -0.20741530963E+03  0.81812322804E+03  0.89403873779E+03  0.25000000000E+03 0.  0.
<mgrwt>
<rscale>  0 0.88747331E+03</rscale>
<asrwt>0</asrwt>
<pdfrwt beam="1">  1        2 0.16640001E+00 0.88747331E+03</pdfrwt>
<pdfrwt beam="2">  1       -2 0.28007255E-01 0.88747331E+03</pdfrwt>
<totfact> 0.26097781E+02</totfact>
</mgrwt>
</event>
<event>
 4    1  0.6739609E-006  0.5777676E+03  0.7818608E-02  0.9952636E-01
          2   -1    0    0  501    0  0.00000000000E+00  0.00000000000E+00  0.11256514060E+04  0.11256514060E+04  0.25500000000E-02 0.  1.
         -2   -1    0    0    0  501 -0.00000000000E+00 -0.00000000000E+00 -0.74138283369E+02  0.74138283413E+02  0.25500000000E-02 0. -1.
   -5000001    1    1    2    0    0 -0.59646411131E+02  0.12553035294E+03  0.60980864808E+03  0.67355931524E+03  0.25000000000E+03 0.  0.
    5000001    1    1    2    0    0  0.59646411131E+02 -0.12553035294E+03  0.44170447455E+03  0.52623037418E+03  0.25000000000E+03 0.  0.
<mgrwt>
<rscale>  0 0.57776765E+03</rscale>
<asrwt>0</asrwt>
<pdfrwt beam="1">  1        2 0.17317714E+00 0.57776765E+03</pdfrwt>
<pdfrwt beam="2">  1       -2 0.11405890E-01 0.57776765E+03</pdfrwt>
<totfact> 0.11746923E+03</totfact>
</mgrwt>
</event>
<event>
 4    1  0.6739609E-006  0.6226361E+03  0.7818608E-02  0.9859525E-01
         -2   -1    0    0    0  501 -0.00000000000E+00  0.00000000000E+00  0.59305500368E+02  0.59305500423E+02  0.25500000000E-02 0. -1.
          2   -1    0    0  501    0  0.00000000000E+00 -0.00000000000E+00 -0.16342314802E+04  0.16342314802E+04  0.25500000000E-02 0.  1.
   -5000001    1    1    2    0    0 -0.75832345225E+02 -0.16294554877E+03 -0.66231234954E+03  0.73038308085E+03  0.25000000000E+03 0.  0.
    5000001    1    1    2    0    0  0.75832345225E+02  0.16294554877E+03 -0.91261363033E+03  0.96315389981E+03  0.25000000000E+03 0.  0.
<mgrwt>
<rscale>  0 0.62263606E+03</rscale>
<asrwt>0</asrwt>
<pdfrwt beam="1">  1        2 0.25142019E+00 0.62263606E+03</pdfrwt>
<pdfrwt beam="2">  1       -2 0.91239244E-02 0.62263606E+03</pdfrwt>
<totfact> 0.86815396E+02</totfact>
</mgrwt>
</event>
<event>
 4    1  0.6739609E-006  0.5650709E+03  0.7818608E-02  0.9980646E-01
         -2   -1    0    0    0  501 -0.00000000000E+00  0.00000000000E+00  0.30712446919E+02  0.30712447025E+02  0.25500000000E-02 0. -1.
          2   -1    0    0  501    0  0.00000000000E+00 -0.00000000000E+00 -0.25991505549E+04  0.25991505549E+04  0.25500000000E-02 0.  1.
   -5000001    1    1    2    0    0  0.73274654924E+01 -0.11267054751E+03 -0.96932478642E+03  0.10073921211E+04  0.25000000000E+03 0.  0.
    5000001    1    1    2    0    0 -0.73274654924E+01  0.11267054751E+03 -0.15991133215E+04  0.16224708808E+04  0.25000000000E+03 0.  0.
<mgrwt>
<rscale>  0 0.56507088E+03</rscale>
<asrwt>0</asrwt>
<pdfrwt beam="1">  1        2 0.39986914E+00 0.56507088E+03</pdfrwt>
<pdfrwt beam="2">  1       -2 0.47249939E-02 0.56507088E+03</pdfrwt>
<totfact> 0.72663711E+02</totfact>
</mgrwt>
</event>
<event>
 4    1  0.6739609E-006  0.7237095E+03  0.7818608E-02  0.9677523E-01
         -2   -1    0    0    0  501 -0.00000000000E+00  0.00000000000E+00  0.46718550392E+02  0.46718550462E+02  0.25500000000E-02 0. -1.
          2   -1    0    0  501    0  0.00000000000E+00 -0.00000000000E+00 -0.28027167442E+04  0.28027167442E+04  0.25500000000E-02 0.  1.
   -5000001    1    1    2    0    0  0.13746291077E+03 -0.17496471447E+03 -0.19197151020E+04  0.19486700018E+04  0.25000000000E+03 0.  0.
    5000001    1    1    2    0    0 -0.13746291077E+03  0.17496471447E+03 -0.83628309179E+03  0.90076529282E+03  0.25000000000E+03 0.  0.
<mgrwt>
<rscale>  0 0.72370951E+03</rscale>
<asrwt>0</asrwt>
<pdfrwt beam="1">  1        2 0.43118706E+00 0.72370951E+03</pdfrwt>
<pdfrwt beam="2">  1       -2 0.71874715E-02 0.72370951E+03</pdfrwt>
<totfact> 0.28257276E+02</totfact>
</mgrwt>
</event>
<event>
 4    1  0.6739609E-006  0.5408282E+03  0.7818608E-02  0.1003639E+00
          2   -1    0    0  501    0  0.00000000000E+00  0.00000000000E+00  0.89503254718E+02  0.89503254754E+02  0.25500000000E-02 0.  1.
         -2   -1    0    0    0  501 -0.00000000000E+00 -0.00000000000E+00 -0.81699585915E+03  0.81699585915E+03  0.25500000000E-02 0. -1.
   -5000001    1    1    2    0    0 -0.94843727166E+02  0.15842539770E+02 -0.30153789270E+03  0.40332545095E+03  0.25000000000E+03 0.  0.
    5000001    1    1    2    0    0  0.94843727166E+02 -0.15842539770E+02 -0.42595471173E+03  0.50317366296E+03  0.25000000000E+03 0.  0.
<mgrwt>
<rscale>  0 0.54082821E+03</rscale>
<asrwt>0</asrwt>
<pdfrwt beam="1">  1        2 0.13769732E-01 0.54082821E+03</pdfrwt>
<pdfrwt beam="2">  1       -2 0.12569167E+00 0.54082821E+03</pdfrwt>
<totfact> 0.21362158E+02</totfact>
</mgrwt>
</event>
<event>
 4    1  0.6739609E-006  0.2310044E+04  0.7818608E-02  0.8473971E-01
         -2   -1    0    0    0  501 -0.00000000000E+00  0.00000000000E+00  0.19787382225E+04  0.19787382225E+04  0.25500000000E-02 0. -1.
          2   -1    0    0  501    0  0.00000000000E+00 -0.00000000000E+00 -0.67420531347E+03  0.67420531347E+03  0.25500000000E-02 0.  1.
   -5000001    1    1    2    0    0  0.19929022889E+03 -0.80987331589E+03 -0.21931020162E+03  0.89789105556E+03  0.25000000000E+03 0.  0.
    5000001    1    1    2    0    0 -0.19929022889E+03  0.80987331589E+03  0.15238431107E+04  0.17550524805E+04  0.25000000000E+03 0.  0.
<mgrwt>
<rscale>  0 0.23100440E+04</rscale>
<asrwt>0</asrwt>
<pdfrwt beam="1">  1        2 0.10372389E+00 0.23100440E+04</pdfrwt>
<pdfrwt beam="2">  1       -2 0.30442126E+00 0.23100440E+04</pdfrwt>
<totfact> 0.11625802E+00</totfact>
</mgrwt>
</event>
<event>
 4    1  0.6739609E-006  0.1354156E+04  0.7818608E-02  0.8987688E-01
         -2   -1    0    0    0  501 -0.00000000000E+00  0.00000000000E+00  0.43427808637E+03  0.43427808637E+03  0.25500000000E-02 0. -1.
          2   -1    0    0  501    0  0.00000000000E+00 -0.00000000000E+00 -0.10556245982E+04  0.10556245982E+04  0.25500000000E-02 0.  1.
   -5000001    1    1    2    0    0 -0.19689419225E+03  0.55100829048E+03 -0.56529648059E+03  0.85113898400E+03  0.25000000000E+03 0.  0.
    5000001    1    1    2    0    0  0.19689419225E+03 -0.55100829048E+03 -0.56050031192E+02  0.63876370053E+03  0.25000000000E+03 0.  0.
<mgrwt>
<rscale>  0 0.13541560E+04</rscale>
<asrwt>0</asrwt>
<pdfrwt beam="1">  1        2 0.16240378E+00 0.13541560E+04</pdfrwt>
<pdfrwt beam="2">  1       -2 0.66812014E-01 0.13541560E+04</pdfrwt>
<totfact> 0.46652925E+01</totfact>
</mgrwt>
</event>
<event>
 4    1  0.6739609E-006  0.1027847E+04  0.7818608E-02  0.9278519E-01
         -2   -1    0    0    0  501 -0.00000000000E+00  0.00000000000E+00  0.14410468300E+03  0.14410468303E+03  0.25500000000E-02 0. -1.
          2   -1    0    0  501    0  0.00000000000E+00 -0.00000000000E+00 -0.18328176549E+04  0.18328176549E+04  0.25500000000E-02 0.  1.
   -5000001    1    1    2    0    0  0.15805498638E+03 -0.34680176007E+03 -0.13009868602E+04  0.13785208196E+04  0.25000000000E+03 0.  0.
    5000001    1    1    2    0    0 -0.15805498638E+03  0.34680176007E+03 -0.38772611170E+03  0.59840151838E+03  0.25000000000E+03 0.  0.
<mgrwt>
<rscale>  0 0.10278475E+04</rscale>
<asrwt>0</asrwt>
<pdfrwt beam="1">  1        2 0.28197193E+00 0.10278475E+04</pdfrwt>
<pdfrwt beam="2">  1       -2 0.22169953E-01 0.10278475E+04</pdfrwt>
<totfact> 0.14710579E+02</totfact>
</mgrwt>
</event>
<event>
 4    1  0.6739609E-006  0.6383308E+03  0.7818608E-02  0.9828925E-01
          2   -1    0    0  501    0  0.00000000000E+00  0.00000000000E+00  0.15415540138E+04  0.15415540138E+04  0.25500000000E-02 0.  1.
         -2   -1    0    0    0  501 -0.00000000000E+00 -0.00000000000E+00 -0.66080427347E+02  0.66080427396E+02  0.25500000000E-02 0. -1.
   -5000001    1    1    2    0    0 -0.11110849785E+03  0.10866462815E+03  0.42709824814E+03  0.51871573455E+03  0.25000000000E+03 0.  0.
    5000001    1    1    2    0    0  0.11110849785E+03 -0.10866462815E+03  0.10483753383E+04  0.10889187067E+04  0.25000000000E+03 0.  0.
<mgrwt>
<rscale>  0 0.63833079E+03</rscale>
<asrwt>0</asrwt>
<pdfrwt beam="1">  1        2 0.23716215E+00 0.63833079E+03</pdfrwt>
<pdfrwt beam="2">  1       -2 0.10166220E-01 0.63833079E+03</pdfrwt>
<totfact> 0.81853711E+02</totfact>
</mgrwt>
</event>
<event>
 4    1  0.6739609E-006  0.2304216E+04  0.7818608E-02  0.8476261E-01
         -2   -1    0    0    0  501 -0.00000000000E+00  0.00000000000E+00  0.68525875910E+03  0.68525875910E+03  0.25500000000E-02 0. -1.
          2   -1    0    0  501    0  0.00000000000E+00 -0.00000000000E+00 -0.19370100988E+04  0.19370100988E+04  0.25500000000E-02 0.  1.
   -5000001    1    1    2    0    0 -0.10028785463E+04  0.31250262662E+03 -0.16863387065E+03  0.10928680857E+04  0.25000000000E+03 0.  0.
    5000001    1    1    2    0    0  0.10028785463E+04 -0.31250262662E+03 -0.10831174691E+04  0.15294007722E+04  0.25000000000E+03 0.  0.
<mgrwt>
<rscale>  0 0.23042163E+04</rscale>
<asrwt>0</asrwt>
<pdfrwt beam="1">  1        2 0.29800155E+00 0.23042163E+04</pdfrwt>
<pdfrwt beam="2">  1       -2 0.10542443E+00 0.23042163E+04</pdfrwt>
<totfact> 0.47782602E+00</totfact>
</mgrwt>
</event>
<event>
 4    1  0.6739609E-006  0.9258108E+03  0.7818608E-02  0.9393880E-01
         -2   -1    0    0    0  501 -0.00000000000E+00  0.00000000000E+00  0.99559778714E+02  0.99559778746E+02  0.25500000000E-02 0. -1.
          2   -1    0    0  501    0  0.00000000000E+00 -0.00000000000E+00 -0.21522890971E+04  0.21522890971E+04  0.25500000000E-02 0.  1.
   -5000001    1    1    2    0    0  0.32206714346E+03  0.15011672901E+03 -0.14149174883E+04  0.14801195141E+04  0.25000000000E+03 0.  0.
    5000001    1    1    2    0    0 -0.32206714346E+03 -0.15011672901E+03 -0.63781183004E+03  0.77172936174E+03  0.25000000000E+03 0.  0.
<mgrwt>
<rscale>  0 0.92581084E+03</rscale>
<asrwt>0</asrwt>
<pdfrwt beam="1">  1        2 0.33112136E+00 0.92581084E+03</pdfrwt>
<pdfrwt beam="2">  1       -2 0.15316891E-01 0.92581084E+03</pdfrwt>
<totfact> 0.18807908E+02</totfact>
</mgrwt>
</event>
<event>
 4    1  0.6739609E-006  0.1212270E+04  0.7818608E-02  0.9102184E-01
         -2   -1    0    0    0  501 -0.00000000000E+00  0.00000000000E+00  0.38778848225E+03  0.38778848226E+03  0.25500000000E-02 0. -1.
          2   -1    0    0  501    0  0.00000000000E+00 -0.00000000000E+00 -0.94742351053E+03  0.94742351053E+03  0.25500000000E-02 0.  1.
   -5000001    1    1    2    0    0  0.12833920028E+03 -0.36768984243E+03  0.15133117336E+03  0.48689618460E+03  0.25000000000E+03 0.  0.
    5000001    1    1    2    0    0 -0.12833920028E+03  0.36768984243E+03 -0.71096620164E+03  0.84831580819E+03  0.25000000000E+03 0.  0.
<mgrwt>
<rscale>  0 0.12122705E+04</rscale>
<asrwt>0</asrwt>
<pdfrwt beam="1">  1        2 0.14575746E+00 0.12122705E+04</pdfrwt>
<pdfrwt beam="2">  1       -2 0.59659767E-01 0.12122705E+04</pdfrwt>
<totfact> 0.70455087E+01</totfact>
</mgrwt>
</event>
<event>
 4    1  0.6739609E-006  0.1524536E+04  0.7818608E-02  0.8868299E-01
          2   -1    0    0  501    0  0.00000000000E+00  0.00000000000E+00  0.72890741013E+03  0.72890741014E+03  0.25500000000E-02 0.  1.
         -2   -1    0    0    0  501 -0.00000000000E+00 -0.00000000000E+00 -0.79715539847E+03  0.79715539848E+03  0.25500000000E-02 0. -1.
   -5000001    1    1    2    0    0  0.41323021207E+03  0.25374815217E+03 -0.56701525576E+03  0.78686316038E+03  0.25000000000E+03 0.  0.
    5000001    1    1    2    0    0 -0.41323021207E+03 -0.25374815217E+03  0.49876726742E+03  0.73919964823E+03  0.25000000000E+03 0.  0.
<mgrwt>
<rscale>  0 0.15245360E+04</rscale>
<asrwt>0</asrwt>
<pdfrwt beam="1">  1        2 0.11213960E+00 0.15245360E+04</pdfrwt>
<pdfrwt beam="2">  1       -2 0.12263929E+00 0.15245360E+04</pdfrwt>
<totfact> 0.18870202E+01</totfact>
</mgrwt>
</event>
<event>
 4    1  0.6739609E-006  0.9739660E+03  0.7818608E-02  0.9337569E-01
         -2   -1    0    0    0  501 -0.00000000000E+00  0.00000000000E+00  0.57578725162E+02  0.57578725219E+02  0.25500000000E-02 0. -1.
          2   -1    0    0  501    0  0.00000000000E+00 -0.00000000000E+00 -0.41187509575E+04  0.41187509575E+04  0.25500000000E-02 0.  1.
   -5000001    1    1    2    0    0  0.13727830561E+03 -0.34213980938E+03 -0.11865276361E+04  0.12673802955E+04  0.25000000000E+03 0.  0.
    5000001    1    1    2    0    0 -0.13727830561E+03  0.34213980938E+03 -0.28746445963E+04  0.29089493872E+04  0.25000000000E+03 0.  0.
<mgrwt>
<rscale>  0 0.97396597E+03</rscale>
<asrwt>0</asrwt>
<pdfrwt beam="1">  1        2 0.63365376E+00 0.97396597E+03</pdfrwt>
<pdfrwt beam="2">  1       -2 0.88582687E-02 0.97396597E+03</pdfrwt>
<totfact> 0.24375266E+01</totfact>
</mgrwt>
</event>
<event>
 4    1  0.6739609E-006  0.1094389E+04  0.7818608E-02  0.9210678E-01
          2   -1    0    0  501    0  0.00000000000E+00  0.00000000000E+00  0.11736273151E+04  0.11736273151E+04  0.25500000000E-02 0.  1.
         -2   -1    0    0    0  501 -0.00000000000E+00 -0.00000000000E+00 -0.25512507553E+03  0.25512507555E+03  0.25500000000E-02 0. -1.
   -5000001    1    1    2    0    0 -0.13025186328E+03 -0.46725051259E+03  0.51201062723E+03  0.74829370691E+03  0.25000000000E+03 0.  0.
    5000001    1    1    2    0    0  0.13025186328E+03  0.46725051259E+03  0.40649161237E+03  0.68045868378E+03  0.25000000000E+03 0.  0.
<mgrwt>
<rscale>  0 0.10943889E+04</rscale>
<asrwt>0</asrwt>
<pdfrwt beam="1">  1        2 0.18055805E+00 0.10943889E+04</pdfrwt>
<pdfrwt beam="2">  1       -2 0.39250011E-01 0.10943889E+04</pdfrwt>
<totfact> 0.11964735E+02</totfact>
</mgrwt>
</event>
<event>
 4    1  0.6739609E-006  0.9304608E+03  0.7818608E-02  0.9388285E-01
         -2   -1    0    0    0  501 -0.00000000000E+00  0.00000000000E+00  0.60816955959E+03  0.60816955960E+03  0.25500000000E-02 0. -1.
          2   -1    0    0  501    0  0.00000000000E+00 -0.00000000000E+00 -0.35588647933E+03  0.35588647933E+03  0.25500000000E-02 0.  1.
   -5000001    1    1    2    0    0  0.37805366864E+00 -0.34308300928E+03 -0.71081532533E+02  0.43041686590E+03  0.25000000000E+03 0.  0.
    5000001    1    1    2    0    0 -0.37805366864E+00  0.34308300928E+03  0.32336461280E+03  0.53363917303E+03  0.25000000000E+03 0.  0.
<mgrwt>
<rscale>  0 0.93046080E+03</rscale>
<asrwt>0</asrwt>
<pdfrwt beam="1">  1        2 0.54751766E-01 0.93046080E+03</pdfrwt>
<pdfrwt beam="2">  1       -2 0.93564548E-01 0.93046080E+03</pdfrwt>
<totfact> 0.87785641E+01</totfact>
</mgrwt>
</event>
<event>
 4    1  0.6739609E-006  0.5875283E+03  0.7818608E-02  0.9931624E-01
         -2   -1    0    0    0  501 -0.00000000000E+00  0.00000000000E+00  0.53497881977E+02  0.53497882038E+02  0.25500000000E-02 0. -1.
          2   -1    0    0  501    0  0.00000000000E+00 -0.00000000000E+00 -0.16130987559E+04  0.16130987559E+04  0.25500000000E-02 0.  1.
   -5000001    1    1    2    0    0  0.12966420868E+03  0.44915685370E+02 -0.97971985648E+03  0.10203828806E+04  0.25000000000E+03 0.  0.
    5000001    1    1    2    0    0 -0.12966420868E+03 -0.44915685370E+02 -0.57988101743E+03  0.64621375734E+03  0.25000000000E+03 0.  0.
<mgrwt>
<rscale>  0 0.58752827E+03</rscale>
<asrwt>0</asrwt>
<pdfrwt beam="1">  1        2 0.24816900E+00 0.58752827E+03</pdfrwt>
<pdfrwt beam="2">  1       -2 0.82304446E-02 0.58752827E+03</pdfrwt>
<totfact> 0.10536633E+03</totfact>
</mgrwt>
</event>
<event>
 4    1  0.6739609E-006  0.5530854E+03  0.7818608E-02  0.1000782E+00
         -2   -1    0    0    0  501 -0.00000000000E+00  0.00000000000E+00  0.11818742297E+03  0.11818742300E+03  0.25500000000E-02 0. -1.
          2   -1    0    0  501    0  0.00000000000E+00 -0.00000000000E+00 -0.64707282953E+03  0.64707282953E+03  0.25500000000E-02 0.  1.
   -5000001    1    1    2    0    0  0.51473084782E+02  0.60302261264E+02 -0.14310914412E+03  0.29877427651E+03  0.25000000000E+03 0.  0.
    5000001    1    1    2    0    0 -0.51473084782E+02 -0.60302261264E+02 -0.38577626244E+03  0.46648597603E+03  0.25000000000E+03 0.  0.
<mgrwt>
<rscale>  0 0.55308542E+03</rscale>
<asrwt>0</asrwt>
<pdfrwt beam="1">  1        2 0.99549664E-01 0.55308542E+03</pdfrwt>
<pdfrwt beam="2">  1       -2 0.18182681E-01 0.55308542E+03</pdfrwt>
<totfact> 0.11427382E+03</totfact>
</mgrwt>
</event>
<event>
 4    1  0.6739609E-006  0.1078135E+04  0.7818608E-02  0.9226769E-01
          2   -1    0    0  501    0  0.00000000000E+00  0.00000000000E+00  0.66339029115E+03  0.66339029115E+03  0.25500000000E-02 0.  1.
         -2   -1    0    0    0  501 -0.00000000000E+00 -0.00000000000E+00 -0.43804306140E+03  0.43804306141E+03  0.25500000000E-02 0. -1.
   -5000001    1    1    2    0    0 -0.15437627145E+03 -0.45165779403E+03  0.12935804566E+03  0.55413021942E+03  0.25000000000E+03 0.  0.
    5000001    1    1    2    0    0  0.15437627145E+03  0.45165779403E+03  0.95989184088E+02  0.54730313315E+03  0.25000000000E+03 0.  0.
<mgrwt>
<rscale>  0 0.10781345E+04</rscale>
<asrwt>0</asrwt>
<pdfrwt beam="1">  1        2 0.10206004E+00 0.10781345E+04</pdfrwt>
<pdfrwt beam="2">  1       -2 0.67391241E-01 0.10781345E+04</pdfrwt>
<totfact> 0.88050734E+01</totfact>
</mgrwt>
</event>
<event>
 4    1  0.6739609E-006  0.8321825E+03  0.7818608E-02  0.9514568E-01
          2   -1    0    0  501    0  0.00000000000E+00  0.00000000000E+00  0.53565829575E+03  0.53565829576E+03  0.25500000000E-02 0. -1.
         -2   -1    0    0    0  501 -0.00000000000E+00 -0.00000000000E+00 -0.32321340128E+03  0.32321340129E+03  0.25500000000E-02 0.  1.
   -5000001    1    1    2    0    0 -0.84338830966E+02 -0.27326523107E+03 -0.69062685272E+02  0.38607846278E+03  0.25000000000E+03 0.  0.
    5000001    1    1    2    0    0  0.84338830966E+02  0.27326523107E+03  0.28150757974E+03  0.47279323427E+03  0.25000000000E+03 0.  0.
<mgrwt>
<rscale>  0 0.83218253E+03</rscale>
<asrwt>0</asrwt>
<pdfrwt beam="1">  1        2 0.82408968E-01 0.83218253E+03</pdfrwt>
<pdfrwt beam="2">  1       -2 0.49725139E-01 0.83218253E+03</pdfrwt>
<totfact> 0.21868526E+02</totfact>
</mgrwt>
</event>
<event>
 4    1  0.6739609E-006  0.1046263E+04  0.7818608E-02  0.9259211E-01
          2   -1    0    0  501    0  0.00000000000E+00  0.00000000000E+00  0.53380353764E+03  0.53380353765E+03  0.25500000000E-02 0.  1.
         -2   -1    0    0    0  501 -0.00000000000E+00 -0.00000000000E+00 -0.51267283798E+03  0.51267283798E+03  0.25500000000E-02 0. -1.
   -5000001    1    1    2    0    0  0.45186677137E+03  0.70401879568E+02 -0.34461280986E+02  0.52232899939E+03  0.25000000000E+03 0.  0.
    5000001    1    1    2    0    0 -0.45186677137E+03 -0.70401879568E+02  0.55591980649E+02  0.52414737625E+03  0.25000000000E+03 0.  0.
<mgrwt>
<rscale>  0 0.10462630E+04</rscale>
<asrwt>0</asrwt>
<pdfrwt beam="1">  1        2 0.82123622E-01 0.10462630E+04</pdfrwt>
<pdfrwt beam="2">  1       -2 0.78872744E-01 0.10462630E+04</pdfrwt>
<totfact> 0.81117617E+01</totfact>
</mgrwt>
</event>
<event>
 4    1  0.6739609E-006  0.6778182E+03  0.7818608E-02  0.9755936E-01
         -2   -1    0    0    0  501 -0.00000000000E+00  0.00000000000E+00  0.60880747511E+03  0.60880747511E+03  0.25500000000E-02 0. -1.
          2   -1    0    0  501    0  0.00000000000E+00 -0.00000000000E+00 -0.18866289090E+03  0.18866289092E+03  0.25500000000E-02 0.  1.
   -5000001    1    1    2    0    0  0.11737547295E+03 -0.19061106450E+03  0.15426728619E+03  0.36933450306E+03  0.25000000000E+03 0.  0.
    5000001    1    1    2    0    0 -0.11737547295E+03  0.19061106450E+03  0.26587729802E+03  0.42813586297E+03  0.25000000000E+03 0.  0.
<mgrwt>
<rscale>  0 0.67781820E+03</rscale>
<asrwt>0</asrwt>
<pdfrwt beam="1">  1        2 0.29025061E-01 0.67781820E+03</pdfrwt>
<pdfrwt beam="2">  1       -2 0.93662686E-01 0.67781820E+03</pdfrwt>
<totfact> 0.17989853E+02</totfact>
</mgrwt>
</event>
<event>
 4    1  0.6739609E-006  0.6174716E+03  0.7818608E-02  0.9869807E-01
         -2   -1    0    0    0  501 -0.00000000000E+00  0.00000000000E+00  0.91183839382E+02  0.91183839418E+02  0.25500000000E-02 0. -1.
          2   -1    0    0  501    0  0.00000000000E+00 -0.00000000000E+00 -0.10453364269E+04  0.10453364270E+04  0.25500000000E-02 0.  1.
   -5000001    1    1    2    0    0  0.17596881949E+02  0.17759700953E+03 -0.53432588828E+03  0.61632337530E+03  0.25000000000E+03 0.  0.
    5000001    1    1    2    0    0 -0.17596881949E+02 -0.17759700953E+03 -0.41982669928E+03  0.52019689107E+03  0.25000000000E+03 0.  0.
<mgrwt>
<rscale>  0 0.61747158E+03</rscale>
<asrwt>0</asrwt>
<pdfrwt beam="1">  1        2 0.16082098E+00 0.61747158E+03</pdfrwt>
<pdfrwt beam="2">  1       -2 0.14028284E-01 0.61747158E+03</pdfrwt>
<totfact> 0.93248666E+02</totfact>
</mgrwt>
</event>
<event>
 4    1  0.6739609E-006  0.9198312E+03  0.7818608E-02  0.9401125E-01
          2   -1    0    0  501    0  0.00000000000E+00  0.00000000000E+00  0.51411879117E+03  0.51411879118E+03  0.25500000000E-02 0.  1.
         -2   -1    0    0    0  501 -0.00000000000E+00 -0.00000000000E+00 -0.41142700448E+03  0.41142700449E+03  0.25500000000E-02 0. -1.
   -5000001    1    1    2    0    0  0.23078684900E+03  0.13565764574E+03 -0.22851292396E+03  0.43172181197E+03  0.25000000000E+03 0.  0.
    5000001    1    1    2    0    0 -0.23078684900E+03 -0.13565764574E+03  0.33120471064E+03  0.49382398369E+03  0.25000000000E+03 0.  0.
<mgrwt>
<rscale>  0 0.91983119E+03</rscale>
<asrwt>0</asrwt>
<pdfrwt beam="1">  1        2 0.79095199E-01 0.91983119E+03</pdfrwt>
<pdfrwt beam="2">  1       -2 0.63296462E-01 0.91983119E+03</pdfrwt>
<totfact> 0.13819325E+02</totfact>
</mgrwt>
</event>
<event>
 4    1  0.6739609E-006  0.8716731E+03  0.7818608E-02  0.9461701E-01
          2   -1    0    0  501    0  0.00000000000E+00  0.00000000000E+00  0.12500799333E+04  0.12500799333E+04  0.25500000000E-02 0.  1.
         -2   -1    0    0    0  501 -0.00000000000E+00 -0.00000000000E+00 -0.15195309874E+03  0.15195309877E+03  0.25500000000E-02 0. -1.
   -5000001    1    1    2    0    0  0.29757757319E+03 -0.17735950731E+03  0.68784394922E+03  0.80971482967E+03  0.25000000000E+03 0.  0.
    5000001    1    1    2    0    0 -0.29757757319E+03  0.17735950731E+03  0.41028288534E+03  0.59231820241E+03  0.25000000000E+03 0.  0.
<mgrwt>
<rscale>  0 0.87167315E+03</rscale>
<asrwt>0</asrwt>
<pdfrwt beam="1">  1        2 0.19231999E+00 0.87167315E+03</pdfrwt>
<pdfrwt beam="2">  1       -2 0.23377400E-01 0.87167315E+03</pdfrwt>
<totfact> 0.28707641E+02</totfact>
</mgrwt>
</event>
<event>
 4    1  0.6739609E-006  0.1014465E+04  0.7818608E-02  0.9292820E-01
         -2   -1    0    0    0  501 -0.00000000000E+00  0.00000000000E+00  0.14996668295E+03  0.14996668297E+03  0.25500000000E-02 0. -1.
          2   -1    0    0  501    0  0.00000000000E+00 -0.00000000000E+00 -0.17156143947E+04  0.17156143947E+04  0.25500000000E-02 0.  1.
   -5000001    1    1    2    0    0  0.90454277203E+02 -0.39887687818E+03 -0.47786215776E+03  0.67685816980E+03  0.25000000000E+03 0.  0.
    5000001    1    1    2    0    0 -0.90454277203E+02  0.39887687818E+03 -0.10877855540E+04  0.11887229078E+04  0.25000000000E+03 0.  0.
<mgrwt>
<rscale>  0 0.10144654E+04</rscale>
<asrwt>0</asrwt>
<pdfrwt beam="1">  1        2 0.26394066E+00 0.10144654E+04</pdfrwt>
<pdfrwt beam="2">  1       -2 0.23071799E-01 0.10144654E+04</pdfrwt>
<totfact> 0.15910006E+02</totfact>
</mgrwt>
</event>
<event>
 4    1  0.6739609E-006  0.8819533E+03  0.7818608E-02  0.9448426E-01
         -2   -1    0    0    0  501 -0.00000000000E+00  0.00000000000E+00  0.22425706692E+03  0.22425706693E+03  0.25500000000E-02 0. -1.
          2   -1    0    0  501    0  0.00000000000E+00 -0.00000000000E+00 -0.86713171353E+03  0.86713171353E+03  0.25500000000E-02 0.  1.
   -5000001    1    1    2    0    0 -0.12287165201E+03  0.41023938514E+02 -0.74141135574E+03  0.79307704847E+03  0.25000000000E+03 0.  0.
    5000001    1    1    2    0    0  0.12287165201E+03 -0.41023938514E+02  0.98536709128E+02  0.29831173199E+03  0.25000000000E+03 0.  0.
<mgrwt>
<rscale>  0 0.88195332E+03</rscale>
<asrwt>0</asrwt>
<pdfrwt beam="1">  1        2 0.13340488E+00 0.88195332E+03</pdfrwt>
<pdfrwt beam="2">  1       -2 0.34501088E-01 0.88195332E+03</pdfrwt>
<totfact> 0.24371329E+02</totfact>
</mgrwt>
</event>
<event>
 4    1  0.6739609E-006  0.8353626E+03  0.7818608E-02  0.9510196E-01
         -2   -1    0    0    0  501 -0.00000000000E+00  0.00000000000E+00  0.43907496596E+03  0.43907496596E+03  0.25500000000E-02 0. -1.
          2   -1    0    0  501    0  0.00000000000E+00 -0.00000000000E+00 -0.39733001209E+03  0.39733001210E+03  0.25500000000E-02 0.  1.
   -5000001    1    1    2    0    0  0.26048706244E+03  0.27348411733E+02  0.22935385862E+03  0.42860779016E+03  0.25000000000E+03 0.  0.
    5000001    1    1    2    0    0 -0.26048706244E+03 -0.27348411733E+02 -0.18760890475E+03  0.40779718791E+03  0.25000000000E+03 0.  0.
<mgrwt>
<rscale>  0 0.83536258E+03</rscale>
<asrwt>0</asrwt>
<pdfrwt beam="1">  1        2 0.61127694E-01 0.83536258E+03</pdfrwt>
<pdfrwt beam="2">  1       -2 0.67549994E-01 0.83536258E+03</pdfrwt>
<totfact> 0.16202348E+02</totfact>
</mgrwt>
</event>
<event>
 4    1  0.6739609E-006  0.6705760E+03  0.7818608E-02  0.9768918E-01
          2   -1    0    0  501    0  0.00000000000E+00  0.00000000000E+00  0.61399769702E+03  0.61399769703E+03  0.25500000000E-02 0.  1.
         -2   -1    0    0    0  501 -0.00000000000E+00 -0.00000000000E+00 -0.18309197278E+03  0.18309197280E+03  0.25500000000E-02 0. -1.
   -5000001    1    1    2    0    0  0.16734452357E+03 -0.12622723744E+03  0.30737699222E+03  0.44823890994E+03  0.25000000000E+03 0.  0.
    5000001    1    1    2    0    0 -0.16734452357E+03  0.12622723744E+03  0.12352873202E+03  0.34885075989E+03  0.25000000000E+03 0.  0.
<mgrwt>
<rscale>  0 0.67057602E+03</rscale>
<asrwt>0</asrwt>
<pdfrwt beam="1">  1        2 0.94461183E-01 0.67057602E+03</pdfrwt>
<pdfrwt beam="2">  1       -2 0.28167996E-01 0.67057602E+03</pdfrwt>
<totfact> 0.55911370E+02</totfact>
</mgrwt>
</event>
<event>
 4    1  0.6739609E-006  0.1207811E+04  0.7818608E-02  0.9106047E-01
          2   -1    0    0  501    0  0.00000000000E+00  0.00000000000E+00  0.63765496224E+03  0.63765496224E+03  0.25500000000E-02 0.  1.
         -2   -1    0    0    0  501 -0.00000000000E+00 -0.00000000000E+00 -0.57194235084E+03  0.57194235085E+03  0.25500000000E-02 0. -1.
   -5000001    1    1    2    0    0  0.35483763034E+03 -0.41663017615E+03 -0.19292102967E+02  0.60196564090E+03  0.25000000000E+03 0.  0.
    5000001    1    1    2    0    0 -0.35483763034E+03  0.41663017615E+03  0.85004714362E+02  0.60763167219E+03  0.25000000000E+03 0.  0.
<mgrwt>
<rscale>  0 0.12078110E+04</rscale>
<asrwt>0</asrwt>
<pdfrwt beam="1">  1        2 0.98100763E-01 0.12078110E+04</pdfrwt>
<pdfrwt beam="2">  1       -2 0.87991131E-01 0.12078110E+04</pdfrwt>
<totfact> 0.50571398E+01</totfact>
</mgrwt>
</event>
<event>
 4    1  0.6739609E-006  0.2081400E+04  0.7818608E-02  0.8569481E-01
         -2   -1    0    0    0  501 -0.00000000000E+00  0.00000000000E+00  0.33078471622E+03  0.33078471623E+03  0.25500000000E-02 0. -1.
          2   -1    0    0  501    0  0.00000000000E+00 -0.00000000000E+00 -0.32742039281E+04  0.32742039281E+04  0.25500000000E-02 0.  1.
   -5000001    1    1    2    0    0 -0.39185192859E+01 -0.10052527427E+04 -0.12984385584E+04  0.16610211081E+04  0.25000000000E+03 0.  0.
    5000001    1    1    2    0    0  0.39185192859E+01  0.10052527427E+04 -0.16449806535E+04  0.19439675362E+04  0.25000000000E+03 0.  0.
<mgrwt>
<rscale>  0 0.20814001E+04</rscale>
<asrwt>0</asrwt>
<pdfrwt beam="1">  1        2 0.50372366E+00 0.20814001E+04</pdfrwt>
<pdfrwt beam="2">  1       -2 0.50889958E-01 0.20814001E+04</pdfrwt>
<totfact> 0.39165319E+00</totfact>
</mgrwt>
</event>
<event>
 4    1  0.6739609E-006  0.6997714E+03  0.7818608E-02  0.9717623E-01
         -2   -1    0    0    0  501 -0.00000000000E+00  0.00000000000E+00  0.64051025512E+02  0.64051025563E+02  0.25500000000E-02 0. -1.
          2   -1    0    0  501    0  0.00000000000E+00 -0.00000000000E+00 -0.19112886507E+04  0.19112886507E+04  0.25500000000E-02 0.  1.
   -5000001    1    1    2    0    0  0.10268621691E+03  0.87899784644E+02 -0.14997067295E+04  0.15263980824E+04  0.25000000000E+03 0.  0.
    5000001    1    1    2    0    0 -0.10268621691E+03 -0.87899784644E+02 -0.34753089564E+03  0.44894159387E+03  0.25000000000E+03 0.  0.
<mgrwt>
<rscale>  0 0.69977139E+03</rscale>
<asrwt>0</asrwt>
<pdfrwt beam="1">  1        2 0.29404436E+00 0.69977139E+03</pdfrwt>
<pdfrwt beam="2">  1       -2 0.98540054E-02 0.69977139E+03</pdfrwt>
<totfact> 0.53922471E+02</totfact>
</mgrwt>
</event>
<event>
 4    1  0.6739609E-006  0.8494075E+03  0.7818608E-02  0.9491133E-01
          2   -1    0    0  501    0  0.00000000000E+00  0.00000000000E+00  0.86432756310E+03  0.86432756310E+03  0.25500000000E-02 0.  1.
         -2   -1    0    0    0  501 -0.00000000000E+00 -0.00000000000E+00 -0.20868624988E+03  0.20868624990E+03  0.25500000000E-02 0. -1.
   -5000001    1    1    2    0    0 -0.31491448821E+03  0.79070024518E+02  0.46877393697E+03  0.62263328504E+03  0.25000000000E+03 0.  0.
    5000001    1    1    2    0    0  0.31491448821E+03 -0.79070024518E+02  0.18686737624E+03  0.45038052796E+03  0.25000000000E+03 0.  0.
<mgrwt>
<rscale>  0 0.84940751E+03</rscale>
<asrwt>0</asrwt>
<pdfrwt beam="1">  1        2 0.13297347E+00 0.84940751E+03</pdfrwt>
<pdfrwt beam="2">  1       -2 0.32105578E-01 0.84940751E+03</pdfrwt>
<totfact> 0.28090649E+02</totfact>
</mgrwt>
</event>
<event>
 4    1  0.6739609E-006  0.1244353E+04  0.7818608E-02  0.9074897E-01
         -2   -1    0    0    0  501 -0.00000000000E+00  0.00000000000E+00  0.39600472439E+03  0.39600472440E+03  0.25500000000E-02 0. -1.
          2   -1    0    0  501    0  0.00000000000E+00 -0.00000000000E+00 -0.97752233417E+03  0.97752233418E+03  0.25500000000E-02 0.  1.
   -5000001    1    1    2    0    0 -0.14076170230E+03  0.55141837824E+03 -0.26098915491E+03  0.67415979091E+03  0.25000000000E+03 0.  0.
    5000001    1    1    2    0    0  0.14076170230E+03 -0.55141837824E+03 -0.32052845487E+03  0.69936726766E+03  0.25000000000E+03 0.  0.
<mgrwt>
<rscale>  0 0.12443528E+04</rscale>
<asrwt>0</asrwt>
<pdfrwt beam="1">  1        2 0.15038805E+00 0.12443528E+04</pdfrwt>
<pdfrwt beam="2">  1       -2 0.60923804E-01 0.12443528E+04</pdfrwt>
<totfact> 0.64264438E+01</totfact>
</mgrwt>
</event>
<event>
 4    1  0.6739609E-006  0.1626162E+04  0.7818608E-02  0.8804635E-01
          2   -1    0    0  501    0  0.00000000000E+00  0.00000000000E+00  0.48573562951E+03  0.48573562952E+03  0.25500000000E-02 0.  1.
         -2   -1    0    0    0  501 -0.00000000000E+00 -0.00000000000E+00 -0.13610305468E+04  0.13610305468E+04  0.25500000000E-02 0. -1.
   -5000001    1    1    2    0    0  0.39916034223E+02 -0.77245917203E+03 -0.41750535986E+03  0.91383652135E+03  0.25000000000E+03 0.  0.
    5000001    1    1    2    0    0 -0.39916034223E+02  0.77245917203E+03 -0.45778955744E+03  0.93292965499E+03  0.25000000000E+03 0.  0.
<mgrwt>
<rscale>  0 0.16261624E+04</rscale>
<asrwt>0</asrwt>
<pdfrwt beam="1">  1        2 0.74728559E-01 0.16261624E+04</pdfrwt>
<pdfrwt beam="2">  1       -2 0.20938931E+00 0.16261624E+04</pdfrwt>
<totfact> 0.70364876E+00</totfact>
</mgrwt>
</event>
<event>
 4    1  0.6739609E-006  0.5941956E+03  0.7818608E-02  0.9917522E-01
         -2   -1    0    0    0  501 -0.00000000000E+00  0.00000000000E+00  0.29431315599E+03  0.29431315600E+03  0.25500000000E-02 0. -1.
          2   -1    0    0  501    0  0.00000000000E+00 -0.00000000000E+00 -0.29990878764E+03  0.29990878765E+03  0.25500000000E-02 0.  1.
   -5000001    1    1    2    0    0 -0.14400701592E+03 -0.24945138321E+02  0.63589020618E+02  0.29648582446E+03  0.25000000000E+03 0.  0.
    5000001    1    1    2    0    0  0.14400701592E+03  0.24945138321E+02 -0.69184652272E+02  0.29773611919E+03  0.25000000000E+03 0.  0.
<mgrwt>
<rscale>  0 0.59419560E+03</rscale>
<asrwt>0</asrwt>
<pdfrwt beam="1">  1        2 0.46139814E-01 0.59419560E+03</pdfrwt>
<pdfrwt beam="2">  1       -2 0.45278947E-01 0.59419560E+03</pdfrwt>
<totfact> 0.51218648E+02</totfact>
</mgrwt>
</event>
<event>
 4    1  0.6739609E-006  0.6570736E+03  0.7818608E-02  0.9793596E-01
          2   -1    0    0  501    0  0.00000000000E+00  0.00000000000E+00  0.21838050017E+03  0.21838050018E+03  0.25500000000E-02 0.  1.
         -2   -1    0    0    0  501 -0.00000000000E+00 -0.00000000000E+00 -0.49425850898E+03  0.49425850898E+03  0.25500000000E-02 0. -1.
   -5000001    1    1    2    0    0  0.89974275596E+02 -0.15857832087E+03 -0.25770349879E+03  0.40268293658E+03  0.25000000000E+03 0.  0.
    5000001    1    1    2    0    0 -0.89974275596E+02  0.15857832087E+03 -0.18174510017E+02  0.30995607259E+03  0.25000000000E+03 0.  0.
<mgrwt>
<rscale>  0 0.65707357E+03</rscale>
<asrwt>0</asrwt>
<pdfrwt beam="1">  1        2 0.33597000E-01 0.65707357E+03</pdfrwt>
<pdfrwt beam="2">  1       -2 0.76039770E-01 0.65707357E+03</pdfrwt>
<totfact> 0.24509038E+02</totfact>
</mgrwt>
</event>
<event>
 4    1  0.6739609E-006  0.9701388E+03  0.7818608E-02  0.9341916E-01
          2   -1    0    0  501    0  0.00000000000E+00  0.00000000000E+00  0.39248900086E+04  0.39248900086E+04  0.25500000000E-02 0.  1.
         -2   -1    0    0    0  501 -0.00000000000E+00 -0.00000000000E+00 -0.59948770163E+02  0.59948770217E+02  0.25500000000E-02 0. -1.
   -5000001    1    1    2    0    0 -0.35311665720E+03  0.21750352449E+03  0.18167899826E+04  0.18802194015E+04  0.25000000000E+03 0.  0.
    5000001    1    1    2    0    0  0.35311665720E+03 -0.21750352449E+03  0.20481512559E+04  0.21046193774E+04  0.25000000000E+03 0.  0.
<mgrwt>
<rscale>  0 0.97013881E+03</rscale>
<asrwt>0</asrwt>
<pdfrwt beam="1">  1        2 0.60382924E+00 0.97013881E+03</pdfrwt>
<pdfrwt beam="2">  1       -2 0.92228876E-02 0.97013881E+03</pdfrwt>
<totfact> 0.32641359E+01</totfact>
</mgrwt>
</event>
<event>
 4    1  0.6739609E-006  0.8094882E+03  0.7818608E-02  0.9546384E-01
         -2   -1    0    0    0  501 -0.00000000000E+00  0.00000000000E+00  0.62394745354E+03  0.62394745354E+03  0.25500000000E-02 0. -1.
          2   -1    0    0  501    0  0.00000000000E+00 -0.00000000000E+00 -0.26255061546E+03  0.26255061547E+03  0.25500000000E-02 0.  1.
   -5000001    1    1    2    0    0 -0.31244309516E+03  0.60280112622E+02  0.18941889452E+03  0.44680409275E+03  0.25000000000E+03 0.  0.
    5000001    1    1    2    0    0  0.31244309516E+03 -0.60280112622E+02  0.17197794355E+03  0.43969397626E+03  0.25000000000E+03 0.  0.
<mgrwt>
<rscale>  0 0.80948820E+03</rscale>
<asrwt>0</asrwt>
<pdfrwt beam="1">  1        2 0.40392403E-01 0.80948820E+03</pdfrwt>
<pdfrwt beam="2">  1       -2 0.95991914E-01 0.80948820E+03</pdfrwt>
<totfact> 0.11669444E+02</totfact>
</mgrwt>
</event>
<event>
 4    1  0.6739609E-006  0.5565234E+03  0.7818608E-02  0.9999952E-01
          2   -1    0    0  501    0  0.00000000000E+00  0.00000000000E+00  0.33452609354E+03  0.33452609355E+03  0.25500000000E-02 0.  1.
         -2   -1    0    0    0  501 -0.00000000000E+00 -0.00000000000E+00 -0.23146052059E+03  0.23146052060E+03  0.25500000000E-02 0. -1.
   -5000001    1    1    2    0    0 -0.93147328102E+01  0.12111236772E+03  0.64971636653E+02  0.28544050769E+03  0.25000000000E+03 0.  0.
    5000001    1    1    2    0    0  0.93147328102E+01 -0.12111236772E+03  0.38093936298E+02  0.28054610645E+03  0.25000000000E+03 0.  0.
<mgrwt>
<rscale>  0 0.55652344E+03</rscale>
<asrwt>0</asrwt>
<pdfrwt beam="1">  1        2 0.51465553E-01 0.55652344E+03</pdfrwt>
<pdfrwt beam="2">  1       -2 0.35609311E-01 0.55652344E+03</pdfrwt>
<totfact> 0.72431067E+02</totfact>
</mgrwt>
</event>
<event>
 4    1  0.6739609E-006  0.1238502E+04  0.7818608E-02  0.9079808E-01
          2   -1    0    0  501    0  0.00000000000E+00  0.00000000000E+00  0.13509198664E+04  0.13509198664E+04  0.25500000000E-02 0.  1.
         -2   -1    0    0    0  501 -0.00000000000E+00 -0.00000000000E+00 -0.28385966165E+03  0.28385966167E+03  0.25500000000E-02 0. -1.
   -5000001    1    1    2    0    0 -0.23681788236E+03  0.50511466425E+03  0.40320650631E+03  0.73232439545E+03  0.25000000000E+03 0.  0.
    5000001    1    1    2    0    0  0.23681788236E+03 -0.50511466425E+03  0.66385369844E+03  0.90245513261E+03  0.25000000000E+03 0.  0.
<mgrwt>
<rscale>  0 0.12385018E+04</rscale>
<asrwt>0</asrwt>
<pdfrwt beam="1">  1        2 0.20783383E+00 0.12385018E+04</pdfrwt>
<pdfrwt beam="2">  1       -2 0.43670717E-01 0.12385018E+04</pdfrwt>
<totfact> 0.75540846E+01</totfact>
</mgrwt>
</event>
<event>
 4    1  0.6739609E-006  0.5578353E+03  0.7818608E-02  0.9996965E-01
         -2   -1    0    0    0  501 -0.00000000000E+00  0.00000000000E+00  0.39858811455E+02  0.39858811537E+02  0.25500000000E-02 0. -1.
          2   -1    0    0  501    0  0.00000000000E+00 -0.00000000000E+00 -0.19517656025E+04  0.19517656025E+04  0.25500000000E-02 0.  1.
   -5000001    1    1    2    0    0  0.48652155146E+02 -0.79026493692E+02 -0.12478183301E+04  0.12759948291E+04  0.25000000000E+03 0.  0.
    5000001    1    1    2    0    0 -0.48652155146E+02  0.79026493692E+02 -0.66408846094E+03  0.71562958495E+03  0.25000000000E+03 0.  0.
<mgrwt>
<rscale>  0 0.55783531E+03</rscale>
<asrwt>0</asrwt>
<pdfrwt beam="1">  1        2 0.30027156E+00 0.55783531E+03</pdfrwt>
<pdfrwt beam="2">  1       -2 0.61321264E-02 0.55783531E+03</pdfrwt>
<totfact> 0.11019536E+03</totfact>
</mgrwt>
</event>
<event>
 4    1  0.6739609E-006  0.6086703E+03  0.7818608E-02  0.9887579E-01
          2   -1    0    0  501    0  0.00000000000E+00  0.00000000000E+00  0.57412754058E+03  0.57412754058E+03  0.25500000000E-02 0.  1.
         -2   -1    0    0    0  501 -0.00000000000E+00 -0.00000000000E+00 -0.16132282412E+03  0.16132282414E+03  0.25500000000E-02 0. -1.
   -5000001    1    1    2    0    0  0.13960973518E+03 -0.10018120826E+03  0.17698542549E+03  0.35121360094E+03  0.25000000000E+03 0.  0.
    5000001    1    1    2    0    0 -0.13960973518E+03  0.10018120826E+03  0.23581929097E+03  0.38423676378E+03  0.25000000000E+03 0.  0.
<mgrwt>
<rscale>  0 0.60867028E+03</rscale>
<asrwt>0</asrwt>
<pdfrwt beam="1">  1        2 0.88327315E-01 0.60867028E+03</pdfrwt>
<pdfrwt beam="2">  1       -2 0.24818896E-01 0.60867028E+03</pdfrwt>
<totfact> 0.76344457E+02</totfact>
</mgrwt>
</event>
<event>
 4    1  0.6739609E-006  0.7356685E+03  0.7818608E-02  0.9658106E-01
         -2   -1    0    0    0  501 -0.00000000000E+00  0.00000000000E+00  0.63091831629E+03  0.63091831630E+03  0.25500000000E-02 0. -1.
          2   -1    0    0  501    0  0.00000000000E+00 -0.00000000000E+00 -0.21445251793E+03  0.21445251794E+03  0.25500000000E-02 0.  1.
   -5000001    1    1    2    0    0 -0.22568887615E+03 -0.80008035855E+02  0.35113671716E+03  0.49308594460E+03  0.25000000000E+03 0.  0.
    5000001    1    1    2    0    0  0.22568887615E+03  0.80008035855E+02  0.65329081204E+02  0.35228488964E+03  0.25000000000E+03 0.  0.
<mgrwt>
<rscale>  0 0.73566846E+03</rscale>
<asrwt>0</asrwt>
<pdfrwt beam="1">  1        2 0.32992696E-01 0.73566846E+03</pdfrwt>
<pdfrwt beam="2">  1       -2 0.97064354E-01 0.73566846E+03</pdfrwt>
<totfact> 0.14297405E+02</totfact>
</mgrwt>
</event>
<event>
 4    1  0.6739609E-006  0.1032308E+04  0.7818608E-02  0.9273803E-01
         -2   -1    0    0    0  501 -0.00000000000E+00  0.00000000000E+00  0.25943705474E+03  0.25943705475E+03  0.25500000000E-02 0.  1.
          2   -1    0    0  501    0  0.00000000000E+00 -0.00000000000E+00 -0.10268965592E+04  0.10268965592E+04  0.25500000000E-02 0. -1.
   -5000001    1    1    2    0    0 -0.38609370789E+03  0.23146611266E+03 -0.42813806797E+03  0.66966194294E+03  0.25000000000E+03 0.  0.
    5000001    1    1    2    0    0  0.38609370789E+03 -0.23146611266E+03 -0.33932143651E+03  0.61667167104E+03  0.25000000000E+03 0.  0.
<mgrwt>
<rscale>  0 0.10323081E+04</rscale>
<asrwt>0</asrwt>
<pdfrwt beam="1">  1        2 0.15798408E+00 0.10323081E+04</pdfrwt>
<pdfrwt beam="2">  1       -2 0.39913394E-01 0.10323081E+04</pdfrwt>
<totfact> 0.14319316E+02</totfact>
</mgrwt>
</event>
<event>
 4    1  0.6739609E-006  0.6584950E+03  0.7818608E-02  0.9790968E-01
         -2   -1    0    0    0  501 -0.00000000000E+00  0.00000000000E+00  0.71242248597E+02  0.71242248643E+02  0.25500000000E-02 0. -1.
          2   -1    0    0  501    0  0.00000000000E+00 -0.00000000000E+00 -0.15216238289E+04  0.15216238289E+04  0.25500000000E-02 0.  1.
   -5000001    1    1    2    0    0  0.32371889273E+02  0.17069575328E+03 -0.10284669074E+04  0.10725806072E+04  0.25000000000E+03 0.  0.
    5000001    1    1    2    0    0 -0.32371889273E+02 -0.17069575328E+03 -0.42191467291E+03  0.52028547031E+03  0.25000000000E+03 0.  0.
<mgrwt>
<rscale>  0 0.65849496E+03</rscale>
<asrwt>0</asrwt>
<pdfrwt beam="1">  1        2 0.23409595E+00 0.65849496E+03</pdfrwt>
<pdfrwt beam="2">  1       -2 0.10960347E-01 0.65849496E+03</pdfrwt>
<totfact> 0.74183008E+02</totfact>
</mgrwt>
</event>
<event>
 4    1  0.6739609E-006  0.6394606E+03  0.7818608E-02  0.9826759E-01
         -2   -1    0    0    0  501 -0.00000000000E+00  0.00000000000E+00  0.64593229373E+02  0.64593229423E+02  0.25500000000E-02 0. -1.
          2   -1    0    0  501    0  0.00000000000E+00 -0.00000000000E+00 -0.15826343495E+04  0.15826343495E+04  0.25500000000E-02 0.  1.
   -5000001    1    1    2    0    0  0.13123478150E+03  0.14760759466E+03 -0.69004945189E+03  0.76005185082E+03  0.25000000000E+03 0.  0.
    5000001    1    1    2    0    0 -0.13123478150E+03 -0.14760759466E+03 -0.82799166821E+03  0.88717572809E+03  0.25000000000E+03 0.  0.
<mgrwt>
<rscale>  0 0.63946060E+03</rscale>
<asrwt>0</asrwt>
<pdfrwt beam="1">  1        2 0.24348218E+00 0.63946060E+03</pdfrwt>
<pdfrwt beam="2">  1       -2 0.99374211E-02 0.63946060E+03</pdfrwt>
<totfact> 0.80626373E+02</totfact>
</mgrwt>
</event>
<event>
 4    1  0.6739609E-006  0.6406634E+03  0.7818608E-02  0.9824458E-01
         -2   -1    0    0    0  501 -0.00000000000E+00  0.00000000000E+00  0.48674165694E+02  0.48674165761E+02  0.25500000000E-02 0. -1.
          2   -1    0    0  501    0  0.00000000000E+00 -0.00000000000E+00 -0.21081493713E+04  0.21081493713E+04  0.25500000000E-02 0.  1.
   -5000001    1    1    2    0    0 -0.14392987513E+03  0.12046511220E+03 -0.12650291206E+04  0.13030833926E+04  0.25000000000E+03 0.  0.
    5000001    1    1    2    0    0  0.14392987513E+03 -0.12046511220E+03 -0.79444608500E+03  0.85374014442E+03  0.25000000000E+03 0.  0.
<mgrwt>
<rscale>  0 0.64066344E+03</rscale>
<asrwt>0</asrwt>
<pdfrwt beam="1">  1        2 0.32433060E+00 0.64066344E+03</pdfrwt>
<pdfrwt beam="2">  1       -2 0.74883348E-02 0.64066344E+03</pdfrwt>
<totfact> 0.65765689E+02</totfact>
</mgrwt>
</event>
<event>
 4    1  0.6739609E-006  0.1166049E+04  0.7818608E-02  0.9143104E-01
          2   -1    0    0  501    0  0.00000000000E+00  0.00000000000E+00  0.40231617980E+04  0.40231617980E+04  0.25500000000E-02 0.  1.
         -2   -1    0    0    0  501 -0.00000000000E+00 -0.00000000000E+00 -0.84490088906E+02  0.84490088945E+02  0.25500000000E-02 0. -1.
   -5000001    1    1    2    0    0  0.39908584744E+03 -0.22205382814E+03  0.10450696774E+04  0.11675821370E+04  0.25000000000E+03 0.  0.
    5000001    1    1    2    0    0 -0.39908584744E+03  0.22205382814E+03  0.28936020318E+04  0.29400697499E+04  0.25000000000E+03 0.  0.
<mgrwt>
<rscale>  0 0.11660485E+04</rscale>
<asrwt>0</asrwt>
<pdfrwt beam="1">  1        2 0.61894794E+00 0.11660485E+04</pdfrwt>
<pdfrwt beam="2">  1       -2 0.12998476E-01 0.11660485E+04</pdfrwt>
<totfact> 0.15116503E+01</totfact>
</mgrwt>
</event>
<event>
 4    1  0.6739609E-006  0.9068318E+03  0.7818608E-02  0.9417081E-01
          2   -1    0    0  501    0  0.00000000000E+00  0.00000000000E+00  0.15196473113E+04  0.15196473113E+04  0.25500000000E-02 0.  1.
         -2   -1    0    0    0  501 -0.00000000000E+00 -0.00000000000E+00 -0.13528533124E+03  0.13528533126E+03  0.25500000000E-02 0. -1.
   -5000001    1    1    2    0    0  0.10396258762E+03 -0.28880039629E+03  0.28873623357E+03  0.48998214365E+03  0.25000000000E+03 0.  0.
    5000001    1    1    2    0    0 -0.10396258762E+03  0.28880039629E+03  0.10956257465E+04  0.11649504989E+04  0.25000000000E+03 0.  0.
<mgrwt>
<rscale>  0 0.90683183E+03</rscale>
<asrwt>0</asrwt>
<pdfrwt beam="1">  1        2 0.23379191E+00 0.90683183E+03</pdfrwt>
<pdfrwt beam="2">  1       -2 0.20813127E-01 0.90683183E+03</pdfrwt>
<totfact> 0.24713609E+02</totfact>
</mgrwt>
</event>
<event>
 4    1  0.6739609E-006  0.7435024E+03  0.7818608E-02  0.9645600E-01
         -2   -1    0    0    0  501 -0.00000000000E+00  0.00000000000E+00  0.27192297894E+03  0.27192297895E+03  0.25500000000E-02 0. -1.
          2   -1    0    0  501    0  0.00000000000E+00 -0.00000000000E+00 -0.50822823689E+03  0.50822823689E+03  0.25500000000E-02 0.  1.
   -5000001    1    1    2    0    0 -0.15272255345E+03  0.16342974184E+03 -0.28625394629E+03  0.44099294849E+03  0.25000000000E+03 0.  0.
    5000001    1    1    2    0    0  0.15272255345E+03 -0.16342974184E+03  0.49948688333E+02  0.33915826736E+03  0.25000000000E+03 0.  0.
<mgrwt>
<rscale>  0 0.74350235E+03</rscale>
<asrwt>0</asrwt>
<pdfrwt beam="1">  1        2 0.78188959E-01 0.74350235E+03</pdfrwt>
<pdfrwt beam="2">  1       -2 0.41834304E-01 0.74350235E+03</pdfrwt>
<totfact> 0.32962801E+02</totfact>
</mgrwt>
</event>
<event>
 4    1  0.6739609E-006  0.5654999E+03  0.7818608E-02  0.9979686E-01
         -2   -1    0    0    0  501 -0.00000000000E+00  0.00000000000E+00  0.24285264216E+03  0.24285264217E+03  0.25500000000E-02 0. -1.
          2   -1    0    0  501    0  0.00000000000E+00 -0.00000000000E+00 -0.32920182736E+03  0.32920182737E+03  0.25500000000E-02 0.  1.
   -5000001    1    1    2    0    0  0.64156693530E+02  0.11418179308E+03 -0.25830297779E+02  0.28340918736E+03  0.25000000000E+03 0.  0.
    5000001    1    1    2    0    0 -0.64156693530E+02 -0.11418179308E+03 -0.60518887425E+02  0.28864528219E+03  0.25000000000E+03 0.  0.
<mgrwt>
<rscale>  0 0.56549990E+03</rscale>
<asrwt>0</asrwt>
<pdfrwt beam="1">  1        2 0.50646435E-01 0.56549990E+03</pdfrwt>
<pdfrwt beam="2">  1       -2 0.37361945E-01 0.56549990E+03</pdfrwt>
<totfact> 0.67262894E+02</totfact>
</mgrwt>
</event>
<event>
 4    1  0.6739609E-006  0.9153303E+03  0.7818608E-02  0.9406618E-01
         -2   -1    0    0    0  501 -0.00000000000E+00  0.00000000000E+00  0.19136212368E+04  0.19136212368E+04  0.25500000000E-02 0. -1.
          2   -1    0    0  501    0  0.00000000000E+00 -0.00000000000E+00 -0.10945604252E+03  0.10945604255E+03  0.25500000000E-02 0.  1.
   -5000001    1    1    2    0    0  0.27085594487E+03 -0.13125669533E+03  0.14268221249E+04  0.14794974278E+04  0.25000000000E+03 0.  0.
    5000001    1    1    2    0    0 -0.27085594487E+03  0.13125669533E+03  0.37734306937E+03  0.54357985149E+03  0.25000000000E+03 0.  0.
<mgrwt>
<rscale>  0 0.91533034E+03</rscale>
<asrwt>0</asrwt>
<pdfrwt beam="1">  1        2 0.16839391E-01 0.91533034E+03</pdfrwt>
<pdfrwt beam="2">  1       -2 0.29440327E+00 0.91533034E+03</pdfrwt>
<totfact> 0.12259661E+01</totfact>
</mgrwt>
</event>
<event>
 4    1  0.6739609E-006  0.1245956E+04  0.7818608E-02  0.9073556E-01
         -2   -1    0    0    0  501 -0.00000000000E+00  0.00000000000E+00  0.10064289023E+03  0.10064289026E+03  0.25500000000E-02 0. -1.
          2   -1    0    0  501    0  0.00000000000E+00 -0.00000000000E+00 -0.38562256451E+04  0.38562256451E+04  0.25500000000E-02 0.  1.
   -5000001    1    1    2    0    0 -0.41214936420E+03 -0.38981188347E+03 -0.16825063566E+04  0.17930833899E+04  0.25000000000E+03 0.  0.
    5000001    1    1    2    0    0  0.41214936420E+03  0.38981188347E+03 -0.20730763983E+04  0.21637851455E+04  0.25000000000E+03 0.  0.
<mgrwt>
<rscale>  0 0.12459562E+04</rscale>
<asrwt>0</asrwt>
<pdfrwt beam="1">  1        2 0.59326537E+00 0.12459562E+04</pdfrwt>
<pdfrwt beam="2">  1       -2 0.15483525E-01 0.12459562E+04</pdfrwt>
<totfact> 0.15039021E+01</totfact>
</mgrwt>
</event>
<event>
 4    1  0.6739609E-006  0.6496940E+03  0.7818608E-02  0.9807353E-01
          2   -1    0    0  501    0  0.00000000000E+00  0.00000000000E+00  0.49326626313E+03  0.49326626314E+03  0.25500000000E-02 0.  1.
         -2   -1    0    0    0  501 -0.00000000000E+00 -0.00000000000E+00 -0.21393229286E+03  0.21393229287E+03  0.25500000000E-02 0. -1.
   -5000001    1    1    2    0    0  0.18212409891E+03  0.68569560372E+02  0.21781724453E+03  0.38446758514E+03  0.25000000000E+03 0.  0.
    5000001    1    1    2    0    0 -0.18212409891E+03 -0.68569560372E+02  0.61516725745E+02  0.32273097087E+03  0.25000000000E+03 0.  0.
<mgrwt>
<rscale>  0 0.64969403E+03</rscale>
<asrwt>0</asrwt>
<pdfrwt beam="1">  1        2 0.75887117E-01 0.64969403E+03</pdfrwt>
<pdfrwt beam="2">  1       -2 0.32912661E-01 0.64969403E+03</pdfrwt>
<totfact> 0.54244942E+02</totfact>
</mgrwt>
</event>
<event>
 4    1  0.6739609E-006  0.7505314E+03  0.7818608E-02  0.9634517E-01
          2   -1    0    0  501    0  0.00000000000E+00  0.00000000000E+00  0.19231541333E+03  0.19231541335E+03  0.25500000000E-02 0.  1.
         -2   -1    0    0    0  501 -0.00000000000E+00 -0.00000000000E+00 -0.73225719158E+03  0.73225719159E+03  0.25500000000E-02 0. -1.
   -5000001    1    1    2    0    0  0.15929840881E+03 -0.17369897081E+03 -0.84053208243E+02  0.35371211080E+03  0.25000000000E+03 0.  0.
    5000001    1    1    2    0    0 -0.15929840881E+03  0.17369897081E+03 -0.45588857001E+03  0.57086049414E+03  0.25000000000E+03 0.  0.
<mgrwt>
<rscale>  0 0.75053140E+03</rscale>
<asrwt>0</asrwt>
<pdfrwt beam="1">  1        2 0.29586987E-01 0.75053140E+03</pdfrwt>
<pdfrwt beam="2">  1       -2 0.11265495E+00 0.75053140E+03</pdfrwt>
<totfact> 0.11311210E+02</totfact>
</mgrwt>
</event>
<event>
 4    1  0.6739609E-006  0.6060808E+03  0.7818608E-02  0.9892870E-01
          2   -1    0    0  501    0  0.00000000000E+00  0.00000000000E+00  0.14097552985E+04  0.14097552985E+04  0.25500000000E-02 0.  1.
         -2   -1    0    0    0  501 -0.00000000000E+00 -0.00000000000E+00 -0.65141446204E+02  0.65141446254E+02  0.25500000000E-02 0. -1.
   -5000001    1    1    2    0    0 -0.13290997373E+03  0.97075505901E+02  0.78760401348E+03  0.84256085657E+03  0.25000000000E+03 0.  0.
    5000001    1    1    2    0    0  0.13290997373E+03 -0.97075505901E+02  0.55700983883E+03  0.63233588821E+03  0.25000000000E+03 0.  0.
<mgrwt>
<rscale>  0 0.60608085E+03</rscale>
<asrwt>0</asrwt>
<pdfrwt beam="1">  1        2 0.21688542E+00 0.60608085E+03</pdfrwt>
<pdfrwt beam="2">  1       -2 0.10021761E-01 0.60608085E+03</pdfrwt>
<totfact> 0.99305356E+02</totfact>
</mgrwt>
</event>
<event>
 4    1  0.6739609E-006  0.1017621E+04  0.7818608E-02  0.9289427E-01
         -2   -1    0    0    0  501 -0.00000000000E+00  0.00000000000E+00  0.40317759110E+03  0.40317759111E+03  0.25500000000E-02 0. -1.
          2   -1    0    0  501    0  0.00000000000E+00 -0.00000000000E+00 -0.64211937278E+03  0.64211937279E+03  0.25500000000E-02 0.  1.
   -5000001    1    1    2    0    0 -0.24644429706E+03  0.32823388204E+03 -0.29109535341E+03  0.56187968254E+03  0.25000000000E+03 0.  0.
    5000001    1    1    2    0    0  0.24644429706E+03 -0.32823388204E+03  0.52153571730E+02  0.48341728136E+03  0.25000000000E+03 0.  0.
<mgrwt>
<rscale>  0 0.10176210E+04</rscale>
<asrwt>0</asrwt>
<pdfrwt beam="1">  1        2 0.98787596E-01 0.10176210E+04</pdfrwt>
<pdfrwt beam="2">  1       -2 0.62027322E-01 0.10176210E+04</pdfrwt>
<totfact> 0.10995107E+02</totfact>
</mgrwt>
</event>
<event>
 4    1  0.6739609E-006  0.5757955E+03  0.7818608E-02  0.9956935E-01
         -2   -1    0    0    0  501 -0.00000000000E+00  0.00000000000E+00  0.21910330740E+03  0.21910330742E+03  0.25500000000E-02 0. -1.
          2   -1    0    0  501    0  0.00000000000E+00 -0.00000000000E+00 -0.37829239749E+03  0.37829239750E+03  0.25500000000E-02 0.  1.
   -5000001    1    1    2    0    0  0.16770433880E+02 -0.12784560201E+03 -0.14320834894E+03  0.31564913530E+03  0.25000000000E+03 0.  0.
    5000001    1    1    2    0    0 -0.16770433880E+02  0.12784560201E+03 -0.15980741149E+02  0.28174656962E+03  0.25000000000E+03 0.  0.
<mgrwt>
<rscale>  0 0.57579550E+03</rscale>
<asrwt>0</asrwt>
<pdfrwt beam="1">  1        2 0.58198830E-01 0.57579550E+03</pdfrwt>
<pdfrwt beam="2">  1       -2 0.33708201E-01 0.57579550E+03</pdfrwt>
<totfact> 0.70094310E+02</totfact>
</mgrwt>
</event>
<event>
 4    1  0.6739609E-006  0.6026246E+03  0.7818608E-02  0.9899976E-01
         -2   -1    0    0    0  501 -0.00000000000E+00  0.00000000000E+00  0.22020546472E+03  0.22020546473E+03  0.25500000000E-02 0. -1.
          2   -1    0    0  501    0  0.00000000000E+00 -0.00000000000E+00 -0.41229270878E+03  0.41229270879E+03  0.25500000000E-02 0.  1.
   -5000001    1    1    2    0    0 -0.51477816466E+02 -0.15290757129E+03 -0.14592224269E+03  0.33139703055E+03  0.25000000000E+03 0.  0.
    5000001    1    1    2    0    0  0.51477816466E+02  0.15290757129E+03 -0.46165001377E+02  0.30110114297E+03  0.25000000000E+03 0.  0.
<mgrwt>
<rscale>  0 0.60262462E+03</rscale>
<asrwt>0</asrwt>
<pdfrwt beam="1">  1        2 0.63429648E-01 0.60262462E+03</pdfrwt>
<pdfrwt beam="2">  1       -2 0.33877764E-01 0.60262462E+03</pdfrwt>
<totfact> 0.63045706E+02</totfact>
</mgrwt>
</event>
<event>
 4    1  0.6739609E-006  0.6190804E+03  0.7818608E-02  0.9866592E-01
         -2   -1    0    0    0  501 -0.00000000000E+00  0.00000000000E+00  0.25922507330E+03  0.25922507331E+03  0.25500000000E-02 0. -1.
          2   -1    0    0  501    0  0.00000000000E+00 -0.00000000000E+00 -0.36962137942E+03  0.36962137943E+03  0.25500000000E-02 0.  1.
   -5000001    1    1    2    0    0 -0.13537651992E+03  0.12167511250E+03 -0.68957839879E+02  0.31683878996E+03  0.25000000000E+03 0.  0.
    5000001    1    1    2    0    0  0.13537651992E+03 -0.12167511250E+03 -0.41438466244E+02  0.31200766277E+03  0.25000000000E+03 0.  0.
<mgrwt>
<rscale>  0 0.61908038E+03</rscale>
<asrwt>0</asrwt>
<pdfrwt beam="1">  1        2 0.56864827E-01 0.61908038E+03</pdfrwt>
<pdfrwt beam="2">  1       -2 0.39880781E-01 0.61908038E+03</pdfrwt>
<totfact> 0.52113445E+02</totfact>
</mgrwt>
</event>
<event>
 4    1  0.6739609E-006  0.1072659E+04  0.7818608E-02  0.9232258E-01
          2   -1    0    0  501    0  0.00000000000E+00  0.00000000000E+00  0.10668424179E+04  0.10668424179E+04  0.25500000000E-02 0.  1.
         -2   -1    0    0    0  501 -0.00000000000E+00 -0.00000000000E+00 -0.26962680755E+03  0.26962680756E+03  0.25500000000E-02 0. -1.
   -5000001    1    1    2    0    0 -0.97984950462E+02 -0.40136882245E+02  0.97489709114E+03  0.10119962244E+04  0.25000000000E+03 0.  0.
    5000001    1    1    2    0    0  0.97984950462E+02  0.40136882245E+02 -0.17768148077E+03  0.32447300110E+03  0.25000000000E+03 0.  0.
<mgrwt>
<rscale>  0 0.10726590E+04</rscale>
<asrwt>0</asrwt>
<pdfrwt beam="1">  1        2 0.16412960E+00 0.10726590E+04</pdfrwt>
<pdfrwt beam="2">  1       -2 0.41481047E-01 0.10726590E+04</pdfrwt>
<totfact> 0.12499895E+02</totfact>
</mgrwt>
</event>
<event>
 4    1  0.6739609E-006  0.6192251E+03  0.7818608E-02  0.9866304E-01
          2   -1    0    0  501    0  0.00000000000E+00  0.00000000000E+00  0.91326279194E+03  0.91326279194E+03  0.25500000000E-02 0.  1.
         -2   -1    0    0    0  501 -0.00000000000E+00 -0.00000000000E+00 -0.10496424626E+03  0.10496424629E+03  0.25500000000E-02 0. -1.
   -5000001    1    1    2    0    0  0.16332286453E+03  0.81644772528E+02  0.41145022598E+03  0.51490923027E+03  0.25000000000E+03 0.  0.
    5000001    1    1    2    0    0 -0.16332286453E+03 -0.81644772528E+02  0.39684831970E+03  0.50331780796E+03  0.25000000000E+03 0.  0.
<mgrwt>
<rscale>  0 0.61922513E+03</rscale>
<asrwt>0</asrwt>
<pdfrwt beam="1">  1        2 0.14050196E+00 0.61922513E+03</pdfrwt>
<pdfrwt beam="2">  1       -2 0.16148346E-01 0.61922513E+03</pdfrwt>
<totfact> 0.89368611E+02</totfact>
</mgrwt>
</event>
<event>
 4    1  0.6739609E-006  0.2187656E+04  0.7818608E-02  0.8523583E-01
          2   -1    0    0  501    0  0.00000000000E+00  0.00000000000E+00  0.24603445030E+04  0.24603445030E+04  0.25500000000E-02 0.  1.
         -2   -1    0    0    0  501 -0.00000000000E+00 -0.00000000000E+00 -0.48629775897E+03  0.48629775898E+03  0.25500000000E-02 0. -1.
   -5000001    1    1    2    0    0  0.92166676101E+03  0.53164044718E+03  0.92910753127E+03  0.14345215189E+04  0.25000000000E+03 0.  0.
    5000001    1    1    2    0    0 -0.92166676101E+03 -0.53164044718E+03  0.10449392128E+04  0.15121207431E+04  0.25000000000E+03 0.  0.
<mgrwt>
<rscale>  0 0.21876563E+04</rscale>
<asrwt>0</asrwt>
<pdfrwt beam="1">  1        2 0.37851453E+00 0.21876563E+04</pdfrwt>
<pdfrwt beam="2">  1       -2 0.74815041E-01 0.21876563E+04</pdfrwt>
<totfact> 0.53918570E+00</totfact>
</mgrwt>
</event>
<event>
 4    1  0.6739609E-006  0.2028625E+04  0.7818608E-02  0.8593353E-01
          2   -1    0    0  501    0  0.00000000000E+00  0.00000000000E+00  0.44404375362E+03  0.44404375362E+03  0.25500000000E-02 0.  1.
         -2   -1    0    0    0  501 -0.00000000000E+00 -0.00000000000E+00 -0.23169570584E+04  0.23169570584E+04  0.25500000000E-02 0. -1.
   -5000001    1    1    2    0    0  0.76243113872E+03  0.37740835929E+03 -0.16068086372E+04  0.18352308595E+04  0.25000000000E+03 0.  0.
    5000001    1    1    2    0    0 -0.76243113872E+03 -0.37740835929E+03 -0.26610466757E+03  0.92576995256E+03  0.25000000000E+03 0.  0.
<mgrwt>
<rscale>  0 0.20286255E+04</rscale>
<asrwt>0</asrwt>
<pdfrwt beam="1">  1        2 0.68314425E-01 0.20286255E+04</pdfrwt>
<pdfrwt beam="2">  1       -2 0.35645492E+00 0.20286255E+04</pdfrwt>
<totfact> 0.92922561E-01</totfact>
</mgrwt>
</event>
<event>
 4    1  0.6739609E-006  0.5070133E+03  0.7818608E-02  0.1011964E+00
         -2   -1    0    0    0  501 -0.00000000000E+00  0.00000000000E+00  0.28941771121E+02  0.28941771233E+02  0.25500000000E-02 0. -1.
          2   -1    0    0  501    0  0.00000000000E+00 -0.00000000000E+00 -0.22205143893E+04  0.22205143893E+04  0.25500000000E-02 0.  1.
   -5000001    1    1    2    0    0  0.22655057165E+02 -0.24108860297E+02 -0.98084881945E+03  0.10127481895E+04  0.25000000000E+03 0.  0.
    5000001    1    1    2    0    0 -0.22655057165E+02  0.24108860297E+02 -0.12107237987E+04  0.12367079710E+04  0.25000000000E+03 0.  0.
<mgrwt>
<rscale>  0 0.50701329E+03</rscale>
<asrwt>0</asrwt>
<pdfrwt beam="1">  1        2 0.34161747E+00 0.50701329E+03</pdfrwt>
<pdfrwt beam="2">  1       -2 0.44525819E-02 0.50701329E+03</pdfrwt>
<totfact> 0.12990754E+03</totfact>
</mgrwt>
</event>
<event>
 4    1  0.6739609E-006  0.9319805E+03  0.7818608E-02  0.9386464E-01
         -2   -1    0    0    0  501 -0.00000000000E+00  0.00000000000E+00  0.55775951333E+02  0.55775951391E+02  0.25500000000E-02 0. -1.
          2   -1    0    0  501    0  0.00000000000E+00 -0.00000000000E+00 -0.38931993926E+04  0.38931993926E+04  0.25500000000E-02 0.  1.
   -5000001    1    1    2    0    0 -0.24677206655E+03 -0.14225611635E+02 -0.62274142674E+03  0.71512635627E+03  0.25000000000E+03 0.  0.
    5000001    1    1    2    0    0  0.24677206655E+03  0.14225611635E+02 -0.32146820145E+04  0.32338489877E+04  0.25000000000E+03 0.  0.
<mgrwt>
<rscale>  0 0.93198047E+03</rscale>
<asrwt>0</asrwt>
<pdfrwt beam="1">  1        2 0.59895354E+00 0.93198047E+03</pdfrwt>
<pdfrwt beam="2">  1       -2 0.85809186E-02 0.93198047E+03</pdfrwt>
<totfact> 0.39007523E+01</totfact>
</mgrwt>
</event>
<event>
 4    1  0.6739609E-006  0.6234875E+03  0.7818608E-02  0.9857841E-01
          2   -1    0    0  501    0  0.00000000000E+00  0.00000000000E+00  0.66124725877E+03  0.66124725877E+03  0.25500000000E-02 0.  1.
         -2   -1    0    0    0  501 -0.00000000000E+00 -0.00000000000E+00 -0.14697099189E+03  0.14697099191E+03  0.25500000000E-02 0. -1.
   -5000001    1    1    2    0    0  0.89085168112E-01  0.52367027633E+02  0.25462185290E+02  0.25669171471E+03  0.25000000000E+03 0.  0.
    5000001    1    1    2    0    0 -0.89085168112E-01 -0.52367027633E+02  0.48881408159E+03  0.55152653597E+03  0.25000000000E+03 0.  0.
<mgrwt>
<rscale>  0 0.62348750E+03</rscale>
<asrwt>0</asrwt>
<pdfrwt beam="1">  1        2 0.10173035E+00 0.62348750E+03</pdfrwt>
<pdfrwt beam="2">  1       -2 0.22610922E-01 0.62348750E+03</pdfrwt>
<totfact> 0.75977377E+02</totfact>
</mgrwt>
</event>
<event>
 4    1  0.6739609E-006  0.9225762E+03  0.7818608E-02  0.9397792E-01
         -2   -1    0    0    0  501 -0.00000000000E+00  0.00000000000E+00  0.15637112987E+03  0.15637112989E+03  0.25500000000E-02 0. -1.
          2   -1    0    0  501    0  0.00000000000E+00 -0.00000000000E+00 -0.13607800141E+04  0.13607800141E+04  0.25500000000E-02 0.  1.
   -5000001    1    1    2    0    0  0.17248100785E+03  0.33176905200E+03 -0.43396674022E+03  0.62501802658E+03  0.25000000000E+03 0.  0.
    5000001    1    1    2    0    0 -0.17248100785E+03 -0.33176905200E+03 -0.77044214401E+03  0.89213311742E+03  0.25000000000E+03 0.  0.
<mgrwt>
<rscale>  0 0.92257619E+03</rscale>
<asrwt>0</asrwt>
<pdfrwt beam="1">  1        2 0.20935076E+00 0.92257619E+03</pdfrwt>
<pdfrwt beam="2">  1       -2 0.24057098E-01 0.92257619E+03</pdfrwt>
<totfact> 0.23458042E+02</totfact>
</mgrwt>
</event>
<event>
 4    1  0.6739609E-006  0.7868816E+03  0.7818608E-02  0.9579202E-01
         -2   -1    0    0    0  501 -0.00000000000E+00  0.00000000000E+00  0.28172956351E+03  0.28172956352E+03  0.25500000000E-02 0. -1.
          2   -1    0    0  501    0  0.00000000000E+00 -0.00000000000E+00 -0.54944776817E+03  0.54944776817E+03  0.25500000000E-02 0.  1.
   -5000001    1    1    2    0    0 -0.44921257244E+02  0.28916950815E+03 -0.47664349068E+02  0.38782575207E+03  0.25000000000E+03 0.  0.
    5000001    1    1    2    0    0  0.44921257244E+02 -0.28916950815E+03 -0.22005385559E+03  0.44335157962E+03  0.25000000000E+03 0.  0.
<mgrwt>
<rscale>  0 0.78688164E+03</rscale>
<asrwt>0</asrwt>
<pdfrwt beam="1">  1        2 0.84530426E-01 0.78688164E+03</pdfrwt>
<pdfrwt beam="2">  1       -2 0.43343010E-01 0.78688164E+03</pdfrwt>
<totfact> 0.28007540E+02</totfact>
</mgrwt>
</event>
<event>
 4    1  0.6739609E-006  0.6820389E+03  0.7818608E-02  0.9748451E-01
          2   -1    0    0  501    0  0.00000000000E+00  0.00000000000E+00  0.90760598231E+03  0.90760598231E+03  0.25500000000E-02 0.  1.
         -2   -1    0    0    0  501 -0.00000000000E+00 -0.00000000000E+00 -0.12813296938E+03  0.12813296940E+03  0.25500000000E-02 0. -1.
   -5000001    1    1    2    0    0 -0.72068316906E+02  0.21947926071E+03  0.42119964895E+03  0.54154790412E+03  0.25000000000E+03 0.  0.
    5000001    1    1    2    0    0  0.72068316906E+02 -0.21947926071E+03  0.35827336398E+03  0.49419104759E+03  0.25000000000E+03 0.  0.
<mgrwt>
<rscale>  0 0.68203885E+03</rscale>
<asrwt>0</asrwt>
<pdfrwt beam="1">  1        2 0.13963169E+00 0.68203885E+03</pdfrwt>
<pdfrwt beam="2">  1       -2 0.19712764E-01 0.68203885E+03</pdfrwt>
<totfact> 0.63835378E+02</totfact>
</mgrwt>
</event>
<event>
 4    1  0.6739609E-006  0.6014823E+03  0.7818608E-02  0.9902336E-01
         -2   -1    0    0    0  501 -0.00000000000E+00  0.00000000000E+00  0.11945240789E+03  0.11945240792E+03  0.25500000000E-02 0. -1.
          2   -1    0    0  501    0  0.00000000000E+00 -0.00000000000E+00 -0.75716542287E+03  0.75716542288E+03  0.25500000000E-02 0.  1.
   -5000001    1    1    2    0    0 -0.16649484225E+03  0.12020625904E+02 -0.30580417308E+03  0.42881373604E+03  0.25000000000E+03 0.  0.
    5000001    1    1    2    0    0  0.16649484225E+03 -0.12020625904E+02 -0.33190884191E+03  0.44780409476E+03  0.25000000000E+03 0.  0.
<mgrwt>
<rscale>  0 0.60148228E+03</rscale>
<asrwt>0</asrwt>
<pdfrwt beam="1">  1        2 0.11648698E+00 0.60148228E+03</pdfrwt>
<pdfrwt beam="2">  1       -2 0.18377294E-01 0.60148228E+03</pdfrwt>
<totfact> 0.92092493E+02</totfact>
</mgrwt>
</event>
<event>
 4    1  0.6739609E-006  0.5974794E+03  0.7818608E-02  0.9910649E-01
          2   -1    0    0  501    0  0.00000000000E+00  0.00000000000E+00  0.39497843885E+03  0.39497843885E+03  0.25500000000E-02 0.  1.
         -2   -1    0    0    0  501 -0.00000000000E+00 -0.00000000000E+00 -0.22595005171E+03  0.22595005172E+03  0.25500000000E-02 0. -1.
   -5000001    1    1    2    0    0 -0.18100119563E+02  0.66962673259E+02  0.23842725026E+03  0.35236226757E+03  0.25000000000E+03 0.  0.
    5000001    1    1    2    0    0  0.18100119563E+02 -0.66962673259E+02 -0.69398863124E+02  0.26856622301E+03  0.25000000000E+03 0.  0.
<mgrwt>
<rscale>  0 0.59747937E+03</rscale>
<asrwt>0</asrwt>
<pdfrwt beam="1">  1        2 0.60765914E-01 0.59747937E+03</pdfrwt>
<pdfrwt beam="2">  1       -2 0.34761546E-01 0.59747937E+03</pdfrwt>
<totfact> 0.63011463E+02</totfact>
</mgrwt>
</event>
<event>
 4    1  0.6739609E-006  0.8302053E+03  0.7818608E-02  0.9517297E-01
         -2   -1    0    0    0  501 -0.00000000000E+00  0.00000000000E+00  0.72615447515E+02  0.72615447559E+02  0.25500000000E-02 0. -1.
          2   -1    0    0  501    0  0.00000000000E+00 -0.00000000000E+00 -0.23729141904E+04  0.23729141904E+04  0.25500000000E-02 0.  1.
   -5000001    1    1    2    0    0 -0.13027994608E+03  0.24760626251E+03 -0.62710435827E+03  0.73078150069E+03  0.25000000000E+03 0.  0.
    5000001    1    1    2    0    0  0.13027994608E+03 -0.24760626251E+03 -0.16731943846E+04  0.17147481373E+04  0.25000000000E+03 0.  0.
<mgrwt>
<rscale>  0 0.83020534E+03</rscale>
<asrwt>0</asrwt>
<pdfrwt beam="1">  1        2 0.36506366E+00 0.83020534E+03</pdfrwt>
<pdfrwt beam="2">  1       -2 0.11171609E-01 0.83020534E+03</pdfrwt>
<totfact> 0.24218973E+02</totfact>
</mgrwt>
</event>
<event>
 4    1  0.6739609E-006  0.6335199E+03  0.7818608E-02  0.9838204E-01
          2   -1    0    0  501    0  0.00000000000E+00  0.00000000000E+00  0.20952382353E+04  0.20952382353E+04  0.25500000000E-02 0.  1.
         -2   -1    0    0    0  501 -0.00000000000E+00 -0.00000000000E+00 -0.47888045658E+02  0.47888045726E+02  0.25500000000E-02 0. -1.
   -5000001    1    1    2    0    0  0.18015001553E+03  0.59788129798E+02  0.11675260113E+04  0.12089853745E+04  0.25000000000E+03 0.  0.
    5000001    1    1    2    0    0 -0.18015001553E+03 -0.59788129798E+02  0.87982417835E+03  0.93414090659E+03  0.25000000000E+03 0.  0.
<mgrwt>
<rscale>  0 0.63351990E+03</rscale>
<asrwt>0</asrwt>
<pdfrwt beam="1">  1        2 0.32234431E+00 0.63351990E+03</pdfrwt>
<pdfrwt beam="2">  1       -2 0.73673924E-02 0.63351990E+03</pdfrwt>
<totfact> 0.68627248E+02</totfact>
</mgrwt>
</event>
<event>
 4    1  0.6739609E-006  0.1002767E+04  0.7818608E-02  0.9305516E-01
          2   -1    0    0  501    0  0.00000000000E+00  0.00000000000E+00  0.64412703855E+03  0.64412703855E+03  0.25500000000E-02 0.  1.
         -2   -1    0    0    0  501 -0.00000000000E+00 -0.00000000000E+00 -0.39027275837E+03  0.39027275838E+03  0.25500000000E-02 0. -1.
   -5000001    1    1    2    0    0 -0.14272739476E+03 -0.39569048070E+03  0.14194841968E+02  0.48953402259E+03  0.25000000000E+03 0.  0.
    5000001    1    1    2    0    0  0.14272739476E+03  0.39569048070E+03  0.23965943821E+03  0.54486577435E+03  0.25000000000E+03 0.  0.
<mgrwt>
<rscale>  0 0.10027666E+04</rscale>
<asrwt>0</asrwt>
<pdfrwt beam="1">  1        2 0.99096467E-01 0.10027666E+04</pdfrwt>
<pdfrwt beam="2">  1       -2 0.60041963E-01 0.10027666E+04</pdfrwt>
<totfact> 0.11745268E+02</totfact>
</mgrwt>
</event>
<event>
 4    1  0.6739609E-006  0.1202819E+04  0.7818608E-02  0.9110393E-01
         -2   -1    0    0    0  501 -0.00000000000E+00  0.00000000000E+00  0.31161219135E+03  0.31161219136E+03  0.25500000000E-02 0. -1.
          2   -1    0    0  501    0  0.00000000000E+00 -0.00000000000E+00 -0.11607163563E+04  0.11607163563E+04  0.25500000000E-02 0.  1.
   -5000001    1    1    2    0    0 -0.41328672499E+03  0.29920006495E+03 -0.18323187065E+03  0.59699289304E+03  0.25000000000E+03 0.  0.
    5000001    1    1    2    0    0  0.41328672499E+03 -0.29920006495E+03 -0.66587229428E+03  0.87533565460E+03  0.25000000000E+03 0.  0.
<mgrwt>
<rscale>  0 0.12028190E+04</rscale>
<asrwt>0</asrwt>
<pdfrwt beam="1">  1        2 0.17857174E+00 0.12028190E+04</pdfrwt>
<pdfrwt beam="2">  1       -2 0.47940338E-01 0.12028190E+04</pdfrwt>
<totfact> 0.81317092E+01</totfact>
</mgrwt>
</event>
<event>
 4    1  0.6739609E-006  0.1090988E+04  0.7818608E-02  0.9214021E-01
          2   -1    0    0  501    0  0.00000000000E+00  0.00000000000E+00  0.19868750593E+04  0.19868750593E+04  0.25500000000E-02 0.  1.
         -2   -1    0    0    0  501 -0.00000000000E+00 -0.00000000000E+00 -0.14976460508E+03  0.14976460511E+03  0.25500000000E-02 0. -1.
   -5000001    1    1    2    0    0 -0.27021973177E+03  0.28737056893E+03  0.14706249480E+04  0.15429965278E+04  0.25000000000E+03 0.  0.
    5000001    1    1    2    0    0  0.27021973177E+03 -0.28737056893E+03  0.36648550628E+03  0.59364313660E+03  0.25000000000E+03 0.  0.
<mgrwt>
<rscale>  0 0.10909877E+04</rscale>
<asrwt>0</asrwt>
<pdfrwt beam="1">  1        2 0.30567308E+00 0.10909877E+04</pdfrwt>
<pdfrwt beam="2">  1       -2 0.23040709E-01 0.10909877E+04</pdfrwt>
<totfact> 0.11244097E+02</totfact>
</mgrwt>
</event>
<event>
 4    1  0.6739609E-006  0.8056160E+03  0.7818608E-02  0.9551924E-01
          2   -1    0    0  501    0  0.00000000000E+00  0.00000000000E+00  0.68981768948E+03  0.68981768949E+03  0.25500000000E-02 0.  1.
         -2   -1    0    0    0  501 -0.00000000000E+00 -0.00000000000E+00 -0.23521328699E+03  0.23521328700E+03  0.25500000000E-02 0. -1.
   -5000001    1    1    2    0    0 -0.36169377277E+02  0.27250816547E+03  0.40587055230E+03  0.55027250460E+03  0.25000000000E+03 0.  0.
    5000001    1    1    2    0    0  0.36169377277E+02 -0.27250816547E+03  0.48733850197E+02  0.37475847189E+03  0.25000000000E+03 0.  0.
<mgrwt>
<rscale>  0 0.80561600E+03</rscale>
<asrwt>0</asrwt>
<pdfrwt beam="1">  1        2 0.10612580E+00 0.80561600E+03</pdfrwt>
<pdfrwt beam="2">  1       -2 0.36186660E-01 0.80561600E+03</pdfrwt>
<totfact> 0.30147078E+02</totfact>
</mgrwt>
</event>
<event>
 4    1  0.6739609E-006  0.7405038E+03  0.7818608E-02  0.9650367E-01
         -2   -1    0    0    0  501 -0.00000000000E+00  0.00000000000E+00  0.16325036594E+03  0.16325036596E+03  0.25500000000E-02 0. -1.
          2   -1    0    0  501    0  0.00000000000E+00 -0.00000000000E+00 -0.83973144334E+03  0.83973144334E+03  0.25500000000E-02 0.  1.
   -5000001    1    1    2    0    0 -0.49665234008E+02  0.22313930939E+03 -0.54063437495E+03  0.63799946257E+03  0.25000000000E+03 0.  0.
    5000001    1    1    2    0    0  0.49665234008E+02 -0.22313930939E+03 -0.13584670244E+03  0.36498234673E+03  0.25000000000E+03 0.  0.
<mgrwt>
<rscale>  0 0.74050379E+03</rscale>
<asrwt>0</asrwt>
<pdfrwt beam="1">  1        2 0.12918945E+00 0.74050379E+03</pdfrwt>
<pdfrwt beam="2">  1       -2 0.25115441E-01 0.74050379E+03</pdfrwt>
<totfact> 0.46125273E+02</totfact>
</mgrwt>
</event>
<event>
 4    1  0.6739609E-006  0.6410105E+03  0.7818608E-02  0.9823795E-01
          2   -1    0    0  501    0  0.00000000000E+00  0.00000000000E+00  0.43684635547E+03  0.43684635548E+03  0.25500000000E-02 0.  1.
         -2   -1    0    0    0  501 -0.00000000000E+00 -0.00000000000E+00 -0.23514817692E+03  0.23514817694E+03  0.25500000000E-02 0. -1.
   -5000001    1    1    2    0    0 -0.13445903448E+03 -0.31925906111E+02 -0.51521188291E+02  0.29026354969E+03  0.25000000000E+03 0.  0.
    5000001    1    1    2    0    0  0.13445903448E+03  0.31925906111E+02  0.25321936684E+03  0.38173098273E+03  0.25000000000E+03 0.  0.
<mgrwt>
<rscale>  0 0.64101053E+03</rscale>
<asrwt>0</asrwt>
<pdfrwt beam="1">  1        2 0.67207132E-01 0.64101053E+03</pdfrwt>
<pdfrwt beam="2">  1       -2 0.36176643E-01 0.64101053E+03</pdfrwt>
<totfact> 0.52106349E+02</totfact>
</mgrwt>
</event>
<event>
 4    1  0.6739609E-006  0.1419576E+04  0.7818608E-02  0.8939769E-01
          2   -1    0    0  501    0  0.00000000000E+00  0.00000000000E+00  0.87711466612E+03  0.87711466612E+03  0.25500000000E-02 0.  1.
         -2   -1    0    0    0  501 -0.00000000000E+00 -0.00000000000E+00 -0.57438247104E+03  0.57438247104E+03  0.25500000000E-02 0. -1.
   -5000001    1    1    2    0    0  0.21780582035E+03 -0.60052112425E+03  0.33776812706E+03  0.76462559708E+03  0.25000000000E+03 0.  0.
    5000001    1    1    2    0    0 -0.21780582035E+03  0.60052112425E+03 -0.35035931975E+02  0.68687154009E+03  0.25000000000E+03 0.  0.
<mgrwt>
<rscale>  0 0.14195764E+04</rscale>
<asrwt>0</asrwt>
<pdfrwt beam="1">  1        2 0.13494072E+00 0.14195764E+04</pdfrwt>
<pdfrwt beam="2">  1       -2 0.88366534E-01 0.14195764E+04</pdfrwt>
<totfact> 0.32576311E+01</totfact>
</mgrwt>
</event>
<event>
 4    1  0.6739609E-006  0.6856748E+03  0.7818608E-02  0.9742049E-01
         -2   -1    0    0    0  501 -0.00000000000E+00  0.00000000000E+00  0.15645162805E+03  0.15645162807E+03  0.25500000000E-02 0. -1.
          2   -1    0    0  501    0  0.00000000000E+00 -0.00000000000E+00 -0.75127041249E+03  0.75127041249E+03  0.25500000000E-02 0.  1.
   -5000001    1    1    2    0    0 -0.13056518583E+03  0.15900697565E+03 -0.44663937745E+03  0.55164954413E+03  0.25000000000E+03 0.  0.
    5000001    1    1    2    0    0  0.13056518583E+03 -0.15900697565E+03 -0.14817940699E+03  0.35607249643E+03  0.25000000000E+03 0.  0.
<mgrwt>
<rscale>  0 0.68567479E+03</rscale>
<asrwt>0</asrwt>
<pdfrwt beam="1">  1        2 0.11558006E+00 0.68567479E+03</pdfrwt>
<pdfrwt beam="2">  1       -2 0.24069482E-01 0.68567479E+03</pdfrwt>
<totfact> 0.57775763E+02</totfact>
</mgrwt>
</event>
<event>
 4    1  0.6739609E-006  0.8281217E+03  0.7818608E-02  0.9520181E-01
         -2   -1    0    0    0  501 -0.00000000000E+00  0.00000000000E+00  0.27648600190E+03  0.27648600191E+03  0.25500000000E-02 0. -1.
          2   -1    0    0  501    0  0.00000000000E+00 -0.00000000000E+00 -0.62009068722E+03  0.62009068722E+03  0.25500000000E-02 0.  1.
   -5000001    1    1    2    0    0  0.15987330132E+02 -0.32092585443E+03 -0.25352292979E+03  0.47960700025E+03  0.25000000000E+03 0.  0.
    5000001    1    1    2    0    0 -0.15987330132E+02  0.32092585443E+03 -0.90081755530E+02  0.41696968888E+03  0.25000000000E+03 0.  0.
<mgrwt>
<rscale>  0 0.82812172E+03</rscale>
<asrwt>0</asrwt>
<pdfrwt beam="1">  1        2 0.95398567E-01 0.82812172E+03</pdfrwt>
<pdfrwt beam="2">  1       -2 0.42536308E-01 0.82812172E+03</pdfrwt>
<totfact> 0.25097428E+02</totfact>
</mgrwt>
</event>
<event>
 4    1  0.6739609E-006  0.1769267E+04  0.7818608E-02  0.8722816E-01
         -2   -1    0    0    0  501 -0.00000000000E+00  0.00000000000E+00  0.38191079638E+03  0.38191079639E+03  0.25500000000E-02 0. -1.
          2   -1    0    0  501    0  0.00000000000E+00 -0.00000000000E+00 -0.20491082461E+04  0.20491082461E+04  0.25500000000E-02 0.  1.
   -5000001    1    1    2    0    0  0.44317977059E+03  0.28235536213E+03 -0.17490998800E+04  0.18433619421E+04  0.25000000000E+03 0.  0.
    5000001    1    1    2    0    0 -0.44317977059E+03 -0.28235536213E+03  0.81902430208E+02  0.58765710040E+03  0.25000000000E+03 0.  0.
<mgrwt>
<rscale>  0 0.17692672E+04</rscale>
<asrwt>0</asrwt>
<pdfrwt beam="1">  1        2 0.31524742E+00 0.17692672E+04</pdfrwt>
<pdfrwt beam="2">  1       -2 0.58755508E-01 0.17692672E+04</pdfrwt>
<totfact> 0.16073761E+01</totfact>
</mgrwt>
</event>
<event>
 4    1  0.6739609E-006  0.8111221E+03  0.7818608E-02  0.9544056E-01
         -2   -1    0    0    0  501 -0.00000000000E+00  0.00000000000E+00  0.34666226866E+03  0.34666226867E+03  0.25500000000E-02 0. -1.
          2   -1    0    0  501    0  0.00000000000E+00 -0.00000000000E+00 -0.47446686253E+03  0.47446686253E+03  0.25500000000E-02 0.  1.
   -5000001    1    1    2    0    0 -0.34209999825E+01 -0.31896763660E+03 -0.79178279948E+02  0.41294219505E+03  0.25000000000E+03 0.  0.
    5000001    1    1    2    0    0  0.34209999825E+01  0.31896763660E+03 -0.48626313917E+02  0.40818693615E+03  0.25000000000E+03 0.  0.
<mgrwt>
<rscale>  0 0.81112208E+03</rscale>
<asrwt>0</asrwt>
<pdfrwt beam="1">  1        2 0.72994901E-01 0.81112208E+03</pdfrwt>
<pdfrwt beam="2">  1       -2 0.53332657E-01 0.81112208E+03</pdfrwt>
<totfact> 0.21838488E+02</totfact>
</mgrwt>
</event>
<event>
 4    1  0.6739609E-006  0.1024394E+04  0.7818608E-02  0.9282187E-01
         -2   -1    0    0    0  501 -0.00000000000E+00  0.00000000000E+00  0.10067883619E+03  0.10067883622E+03  0.25500000000E-02 0. -1.
          2   -1    0    0  501    0  0.00000000000E+00 -0.00000000000E+00 -0.26057679180E+04  0.26057679180E+04  0.25500000000E-02 0.  1.
   -5000001    1    1    2    0    0  0.34172807252E+03  0.28769053106E+03 -0.12066494331E+04  0.13107428320E+04  0.25000000000E+03 0.  0.
    5000001    1    1    2    0    0 -0.34172807252E+03 -0.28769053106E+03 -0.12984396487E+04  0.13957039223E+04  0.25000000000E+03 0.  0.
<mgrwt>
<rscale>  0 0.10243938E+04</rscale>
<asrwt>0</asrwt>
<pdfrwt beam="1">  1        2 0.40088732E+00 0.10243938E+04</pdfrwt>
<pdfrwt beam="2">  1       -2 0.15489054E-01 0.10243938E+04</pdfrwt>
<totfact> 0.10148246E+02</totfact>
</mgrwt>
</event>
<event>
 4    1  0.6739609E-006  0.5411747E+03  0.7818608E-02  0.1003558E+00
          2   -1    0    0  501    0  0.00000000000E+00  0.00000000000E+00  0.33870241560E+04  0.33870241560E+04  0.25500000000E-02 0.  1.
         -2   -1    0    0    0  501 -0.00000000000E+00 -0.00000000000E+00 -0.21617060838E+02  0.21617060988E+02  0.25500000000E-02 0. -1.
   -5000001    1    1    2    0    0 -0.97836295641E+02 -0.26346487943E+02  0.18165289964E+04  0.18364486579E+04  0.25000000000E+03 0.  0.
    5000001    1    1    2    0    0  0.97836295641E+02  0.26346487943E+02  0.15488780987E+04  0.15721925591E+04  0.25000000000E+03 0.  0.
<mgrwt>
<rscale>  0 0.54117468E+03</rscale>
<asrwt>0</asrwt>
<pdfrwt beam="1">  1        2 0.52108061E+00 0.54117468E+03</pdfrwt>
<pdfrwt beam="2">  1       -2 0.33257019E-02 0.54117468E+03</pdfrwt>
<totfact> 0.41416338E+02</totfact>
</mgrwt>
</event>
<event>
 4    1  0.6739609E-006  0.5909471E+03  0.7818608E-02  0.9924368E-01
         -2   -1    0    0    0  501 -0.00000000000E+00  0.00000000000E+00  0.56525548302E+02  0.56525548360E+02  0.25500000000E-02 0. -1.
          2   -1    0    0  501    0  0.00000000000E+00 -0.00000000000E+00 -0.15445161245E+04  0.15445161245E+04  0.25500000000E-02 0.  1.
   -5000001    1    1    2    0    0 -0.62302043961E+02 -0.12780550819E+03 -0.56046619166E+03  0.62995090650E+03  0.25000000000E+03 0.  0.
    5000001    1    1    2    0    0  0.62302043961E+02  0.12780550819E+03 -0.92752438458E+03  0.97109076640E+03  0.25000000000E+03 0.  0.
<mgrwt>
<rscale>  0 0.59094711E+03</rscale>
<asrwt>0</asrwt>
<pdfrwt beam="1">  1        2 0.23761783E+00 0.59094711E+03</pdfrwt>
<pdfrwt beam="2">  1       -2 0.86962394E-02 0.59094711E+03</pdfrwt>
<totfact> 0.10517895E+03</totfact>
</mgrwt>
</event>
<event>
 4    1  0.6739609E-006  0.8129165E+03  0.7818608E-02  0.9541507E-01
          2   -1    0    0  501    0  0.00000000000E+00  0.00000000000E+00  0.48937405370E+03  0.48937405371E+03  0.25500000000E-02 0.  1.
         -2   -1    0    0    0  501 -0.00000000000E+00 -0.00000000000E+00 -0.33759109500E+03  0.33759109501E+03  0.25500000000E-02 0. -1.
   -5000001    1    1    2    0    0 -0.28291694948E+03  0.39534428086E+02  0.22367192281E+03  0.44060651420E+03  0.25000000000E+03 0.  0.
    5000001    1    1    2    0    0  0.28291694948E+03 -0.39534428086E+02 -0.71888964105E+02  0.38635863452E+03  0.25000000000E+03 0.  0.
<mgrwt>
<rscale>  0 0.81291653E+03</rscale>
<asrwt>0</asrwt>
<pdfrwt beam="1">  1        2 0.75288316E-01 0.81291653E+03</pdfrwt>
<pdfrwt beam="2">  1       -2 0.51937091E-01 0.81291653E+03</pdfrwt>
<totfact> 0.22251897E+02</totfact>
</mgrwt>
</event>
<event>
 4    1  0.6739609E-006  0.6835136E+03  0.7818608E-02  0.9745849E-01
         -2   -1    0    0    0  501 -0.00000000000E+00  0.00000000000E+00  0.50274406932E+02  0.50274406997E+02  0.25500000000E-02 0. -1.
          2   -1    0    0  501    0  0.00000000000E+00 -0.00000000000E+00 -0.23232041700E+04  0.23232041700E+04  0.25500000000E-02 0.  1.
   -5000001    1    1    2    0    0 -0.20509822308E+03  0.53007244256E+02 -0.14735386675E+04  0.15095334556E+04  0.25000000000E+03 0.  0.
    5000001    1    1    2    0    0  0.20509822308E+03 -0.53007244256E+02 -0.79939109555E+03  0.86394512134E+03  0.25000000000E+03 0.  0.
<mgrwt>
<rscale>  0 0.68351360E+03</rscale>
<asrwt>0</asrwt>
<pdfrwt beam="1">  1        2 0.35741594E+00 0.68351360E+03</pdfrwt>
<pdfrwt beam="2">  1       -2 0.77345260E-02 0.68351360E+03</pdfrwt>
<totfact> 0.47415750E+02</totfact>
</mgrwt>
</event>
<event>
 4    1  0.6739609E-006  0.7089047E+03  0.7818608E-02  0.9702124E-01
         -2   -1    0    0    0  501 -0.00000000000E+00  0.00000000000E+00  0.95969362947E+03  0.95969362948E+03  0.25500000000E-02 0. -1.
          2   -1    0    0  501    0  0.00000000000E+00 -0.00000000000E+00 -0.13091308993E+03  0.13091308996E+03  0.25500000000E-02 0.  1.
   -5000001    1    1    2    0    0 -0.13979882101E+03  0.12303794080E+03  0.15487964238E+03  0.34809445393E+03  0.25000000000E+03 0.  0.
    5000001    1    1    2    0    0  0.13979882101E+03 -0.12303794080E+03  0.67390089716E+03  0.74251226550E+03  0.25000000000E+03 0.  0.
<mgrwt>
<rscale>  0 0.70890467E+03</rscale>
<asrwt>0</asrwt>
<pdfrwt beam="1">  1        2 0.20140475E-01 0.70890467E+03</pdfrwt>
<pdfrwt beam="2">  1       -2 0.14764517E+00 0.70890467E+03</pdfrwt>
<totfact> 0.89155547E+01</totfact>
</mgrwt>
</event>
<event>
 4    1  0.6739609E-006  0.6685235E+03  0.7818608E-02  0.9772629E-01
         -2   -1    0    0    0  501 -0.00000000000E+00  0.00000000000E+00  0.79542506747E+02  0.79542506788E+02  0.25500000000E-02 0. -1.
          2   -1    0    0  501    0  0.00000000000E+00 -0.00000000000E+00 -0.14046691292E+04  0.14046691292E+04  0.25500000000E-02 0.  1.
   -5000001    1    1    2    0    0  0.21099604756E+03 -0.50284132386E+01 -0.81454581949E+03  0.87779810268E+03  0.25000000000E+03 0.  0.
    5000001    1    1    2    0    0 -0.21099604756E+03  0.50284132386E+01 -0.51058080299E+03  0.60641353333E+03  0.25000000000E+03 0.  0.
<mgrwt>
<rscale>  0 0.66852346E+03</rscale>
<asrwt>0</asrwt>
<pdfrwt beam="1">  1        2 0.21610293E+00 0.66852346E+03</pdfrwt>
<pdfrwt beam="2">  1       -2 0.12237310E-01 0.66852346E+03</pdfrwt>
<totfact> 0.71869751E+02</totfact>
</mgrwt>
</event>
<event>
 4    1  0.6739609E-006  0.1255550E+04  0.7818608E-02  0.9065576E-01
          2   -1    0    0  501    0  0.00000000000E+00  0.00000000000E+00  0.58736518050E+03  0.58736518050E+03  0.25500000000E-02 0.  1.
         -2   -1    0    0    0  501 -0.00000000000E+00 -0.00000000000E+00 -0.67096532226E+03  0.67096532227E+03  0.25500000000E-02 0. -1.
   -5000001    1    1    2    0    0 -0.36341737482E+03 -0.44661929350E+03 -0.33992700592E+02  0.62864655041E+03  0.25000000000E+03 0.  0.
    5000001    1    1    2    0    0  0.36341737482E+03  0.44661929350E+03 -0.49607441174E+02  0.62968395237E+03  0.25000000000E+03 0.  0.
<mgrwt>
<rscale>  0 0.12555503E+04</rscale>
<asrwt>0</asrwt>
<pdfrwt beam="1">  1        2 0.90363874E-01 0.12555503E+04</pdfrwt>
<pdfrwt beam="2">  1       -2 0.10322543E+00 0.12555503E+04</pdfrwt>
<totfact> 0.38318210E+01</totfact>
</mgrwt>
</event>
<event>
 4    1  0.6739609E-006  0.8057288E+03  0.7818608E-02  0.9551762E-01
         -2   -1    0    0    0  501 -0.00000000000E+00  0.00000000000E+00  0.16299610112E+03  0.16299610114E+03  0.25500000000E-02 0. -1.
          2   -1    0    0  501    0  0.00000000000E+00 -0.00000000000E+00 -0.99572761837E+03  0.99572761837E+03  0.25500000000E-02 0.  1.
   -5000001    1    1    2    0    0  0.21494343929E+03 -0.13718609912E+03 -0.14817140199E+03  0.38662057919E+03  0.25000000000E+03 0.  0.
    5000001    1    1    2    0    0 -0.21494343929E+03  0.13718609912E+03 -0.68456011526E+03  0.77210314032E+03  0.25000000000E+03 0.  0.
<mgrwt>
<rscale>  0 0.80572879E+03</rscale>
<asrwt>0</asrwt>
<pdfrwt beam="1">  1        2 0.15318886E+00 0.80572879E+03</pdfrwt>
<pdfrwt beam="2">  1       -2 0.25076324E-01 0.80572879E+03</pdfrwt>
<totfact> 0.36296834E+02</totfact>
</mgrwt>
</event>
<event>
 4    1  0.6739609E-006  0.9902362E+03  0.7818608E-02  0.9319319E-01
         -2   -1    0    0    0  501 -0.00000000000E+00  0.00000000000E+00  0.14501912845E+04  0.14501912845E+04  0.25500000000E-02 0. -1.
          2   -1    0    0  501    0  0.00000000000E+00 -0.00000000000E+00 -0.16904110097E+03  0.16904110099E+03  0.25500000000E-02 0.  1.
   -5000001    1    1    2    0    0 -0.18098851070E+03  0.34901277790E+03  0.91456312244E+03  0.10263978103E+04  0.25000000000E+03 0.  0.
    5000001    1    1    2    0    0  0.18098851070E+03 -0.34901277790E+03  0.36658706111E+03  0.59283457517E+03  0.25000000000E+03 0.  0.
<mgrwt>
<rscale>  0 0.99023620E+03</rscale>
<asrwt>0</asrwt>
<pdfrwt beam="1">  1        2 0.26006324E-01 0.99023620E+03</pdfrwt>
<pdfrwt beam="2">  1       -2 0.22310635E+00 0.99023620E+03</pdfrwt>
<totfact> 0.19849348E+01</totfact>
</mgrwt>
</event>
<event>
 4    1  0.6739609E-006  0.7184733E+03  0.7818608E-02  0.9686152E-01
          2   -1    0    0  501    0  0.00000000000E+00  0.00000000000E+00  0.12604489801E+04  0.12604489801E+04  0.25500000000E-02 0.  1.
         -2   -1    0    0    0  501 -0.00000000000E+00 -0.00000000000E+00 -0.10238492959E+03  0.10238492962E+03  0.25500000000E-02 0. -1.
   -5000001    1    1    2    0    0 -0.22072936108E+03  0.13710031408E+02  0.32708987723E+03  0.46732986593E+03  0.25000000000E+03 0.  0.
    5000001    1    1    2    0    0  0.22072936108E+03 -0.13710031408E+02  0.83097417325E+03  0.89550404377E+03  0.25000000000E+03 0.  0.
<mgrwt>
<rscale>  0 0.71847333E+03</rscale>
<asrwt>0</asrwt>
<pdfrwt beam="1">  1        2 0.19391524E+00 0.71847333E+03</pdfrwt>
<pdfrwt beam="2">  1       -2 0.15751527E-01 0.71847333E+03</pdfrwt>
<totfact> 0.56777352E+02</totfact>
</mgrwt>
</event>
<event>
 4    1  0.6739609E-006  0.6185953E+03  0.7818608E-02  0.9867560E-01
          2   -1    0    0  501    0  0.00000000000E+00  0.00000000000E+00  0.17033661271E+04  0.17033661271E+04  0.25500000000E-02 0.  1.
         -2   -1    0    0    0  501 -0.00000000000E+00 -0.00000000000E+00 -0.56162344915E+02  0.56162344973E+02  0.25500000000E-02 0. -1.
   -5000001    1    1    2    0    0  0.72983375808E+02  0.15603465599E+03  0.99167760803E+03  0.10371103438E+04  0.25000000000E+03 0.  0.
    5000001    1    1    2    0    0 -0.72983375808E+02 -0.15603465599E+03  0.65552617417E+03  0.72241812825E+03  0.25000000000E+03 0.  0.
<mgrwt>
<rscale>  0 0.61859530E+03</rscale>
<asrwt>0</asrwt>
<pdfrwt beam="1">  1        2 0.26205627E+00 0.61859530E+03</pdfrwt>
<pdfrwt beam="2">  1       -2 0.86403626E-02 0.61859530E+03</pdfrwt>
<totfact> 0.86905892E+02</totfact>
</mgrwt>
</event>
<event>
 4    1  0.6739609E-006  0.1137016E+04  0.7818608E-02  0.9169846E-01
         -2   -1    0    0    0  501 -0.00000000000E+00  0.00000000000E+00  0.21445713778E+03  0.21445713779E+03  0.25500000000E-02 0. -1.
          2   -1    0    0  501    0  0.00000000000E+00 -0.00000000000E+00 -0.15070666642E+04  0.15070666642E+04  0.25500000000E-02 0.  1.
   -5000001    1    1    2    0    0 -0.46268851200E+03  0.16283367069E+03 -0.43161735132E+03  0.69956343630E+03  0.25000000000E+03 0.  0.
    5000001    1    1    2    0    0  0.46268851200E+03 -0.16283367069E+03 -0.86099217510E+03  0.10219603657E+04  0.25000000000E+03 0.  0.
<mgrwt>
<rscale>  0 0.11370157E+04</rscale>
<asrwt>0</asrwt>
<pdfrwt beam="1">  1        2 0.23185640E+00 0.11370157E+04</pdfrwt>
<pdfrwt beam="2">  1       -2 0.32993407E-01 0.11370157E+04</pdfrwt>
<totfact> 0.10675358E+02</totfact>
</mgrwt>
</event>
<event>
 4    1  0.6739609E-006  0.1163453E+04  0.7818608E-02  0.9145461E-01
         -2   -1    0    0    0  501 -0.00000000000E+00  0.00000000000E+00  0.23538016406E+03  0.23538016407E+03  0.25500000000E-02 0. -1.
          2   -1    0    0  501    0  0.00000000000E+00 -0.00000000000E+00 -0.14376996466E+04  0.14376996466E+04  0.25500000000E-02 0.  1.
   -5000001    1    1    2    0    0  0.52410711796E+03  0.16698154721E+02 -0.55709689827E+03  0.80487517885E+03  0.25000000000E+03 0.  0.
    5000001    1    1    2    0    0 -0.52410711796E+03 -0.16698154721E+02 -0.64522258428E+03  0.86820463183E+03  0.25000000000E+03 0.  0.
<mgrwt>
<rscale>  0 0.11634534E+04</rscale>
<asrwt>0</asrwt>
<pdfrwt beam="1">  1        2 0.22118456E+00 0.11634534E+04</pdfrwt>
<pdfrwt beam="2">  1       -2 0.36212334E-01 0.11634534E+04</pdfrwt>
<totfact> 0.97660118E+01</totfact>
</mgrwt>
</event>
<event>
 4    1  0.6739609E-006  0.6921208E+03  0.7818608E-02  0.9730802E-01
          2   -1    0    0  501    0  0.00000000000E+00  0.00000000000E+00  0.12486526638E+04  0.12486526638E+04  0.25500000000E-02 0.  1.
         -2   -1    0    0    0  501 -0.00000000000E+00 -0.00000000000E+00 -0.95909614764E+02  0.95909614798E+02  0.25500000000E-02 0. -1.
   -5000001    1    1    2    0    0 -0.78504704613E+02  0.17526864274E+03  0.85367506072E+03  0.91002373324E+03  0.25000000000E+03 0.  0.
    5000001    1    1    2    0    0  0.78504704613E+02 -0.17526864274E+03  0.29906798835E+03  0.43453854539E+03  0.25000000000E+03 0.  0.
<mgrwt>
<rscale>  0 0.69212079E+03</rscale>
<asrwt>0</asrwt>
<pdfrwt beam="1">  1        2 0.19210040E+00 0.69212079E+03</pdfrwt>
<pdfrwt beam="2">  1       -2 0.14755326E-01 0.69212079E+03</pdfrwt>
<totfact> 0.64503786E+02</totfact>
</mgrwt>
</event>
<event>
 4    1  0.6739609E-006  0.1473032E+04  0.7818608E-02  0.8902587E-01
         -2   -1    0    0    0  501 -0.00000000000E+00  0.00000000000E+00  0.23641490524E+03  0.23641490525E+03  0.25500000000E-02 0.  1.
          2   -1    0    0  501    0  0.00000000000E+00 -0.00000000000E+00 -0.22945074329E+04  0.22945074329E+04  0.25500000000E-02 0. -1.
   -5000001    1    1    2    0    0  0.46990025469E+03  0.48557146303E+03 -0.12917067466E+04  0.14790511195E+04  0.25000000000E+03 0.  0.
    5000001    1    1    2    0    0 -0.46990025469E+03 -0.48557146303E+03 -0.76638578106E+03  0.10518712186E+04  0.25000000000E+03 0.  0.
<mgrwt>
<rscale>  0 0.14730319E+04</rscale>
<asrwt>0</asrwt>
<pdfrwt beam="1">  1        2 0.35300113E+00 0.14730319E+04</pdfrwt>
<pdfrwt beam="2">  1       -2 0.36371525E-01 0.14730319E+04</pdfrwt>
<totfact> 0.31507945E+01</totfact>
</mgrwt>
</event>
<event>
 4    1  0.6739609E-006  0.6031232E+03  0.7818608E-02  0.9898948E-01
         -2   -1    0    0    0  501 -0.00000000000E+00  0.00000000000E+00  0.83529867852E+02  0.83529867891E+02  0.25500000000E-02 0. -1.
          2   -1    0    0  501    0  0.00000000000E+00 -0.00000000000E+00 -0.10887051184E+04  0.10887051184E+04  0.25500000000E-02 0.  1.
   -5000001    1    1    2    0    0 -0.12701892810E+03  0.52762494592E+02 -0.69224338319E+03  0.74874467645E+03  0.25000000000E+03 0.  0.
    5000001    1    1    2    0    0  0.12701892810E+03 -0.52762494592E+02 -0.31293186737E+03  0.42349030986E+03  0.25000000000E+03 0.  0.
<mgrwt>
<rscale>  0 0.60312319E+03</rscale>
<asrwt>0</asrwt>
<pdfrwt beam="1">  1        2 0.16749308E+00 0.60312319E+03</pdfrwt>
<pdfrwt beam="2">  1       -2 0.12850750E-01 0.60312319E+03</pdfrwt>
<totfact> 0.10152933E+03</totfact>
</mgrwt>
</event>
<event>
 4    1  0.6739609E-006  0.9834044E+03  0.7818608E-02  0.9326936E-01
          2   -1    0    0  501    0  0.00000000000E+00  0.00000000000E+00  0.33848252235E+03  0.33848252236E+03  0.25500000000E-02 0.  1.
         -2   -1    0    0    0  501 -0.00000000000E+00 -0.00000000000E+00 -0.71427932049E+03  0.71427932050E+03  0.25500000000E-02 0. -1.
   -5000001    1    1    2    0    0  0.27310601612E+03  0.27230931418E+03 -0.84128291089E+00  0.45960849251E+03  0.25000000000E+03 0.  0.
    5000001    1    1    2    0    0 -0.27310601612E+03 -0.27230931418E+03 -0.37495551523E+03  0.59315335035E+03  0.25000000000E+03 0.  0.
<mgrwt>
<rscale>  0 0.98340443E+03</rscale>
<asrwt>0</asrwt>
<pdfrwt beam="1">  1        2 0.52074234E-01 0.98340443E+03</pdfrwt>
<pdfrwt beam="2">  1       -2 0.10988913E+00 0.98340443E+03</pdfrwt>
<totfact> 0.63135905E+01</totfact>
</mgrwt>
</event>
<event>
 4    1  0.6739609E-006  0.1944901E+04  0.7818608E-02  0.8632824E-01
          2   -1    0    0  501    0  0.00000000000E+00  0.00000000000E+00  0.82663005048E+03  0.82663005048E+03  0.25500000000E-02 0.  1.
         -2   -1    0    0    0  501 -0.00000000000E+00 -0.00000000000E+00 -0.11439940075E+04  0.11439940075E+04  0.25500000000E-02 0. -1.
   -5000001    1    1    2    0    0 -0.74164523355E+03 -0.15558061997E+03  0.40447193829E+03  0.89461753315E+03  0.25000000000E+03 0.  0.
    5000001    1    1    2    0    0  0.74164523355E+03  0.15558061997E+03 -0.72183589535E+03  0.10760065249E+04  0.25000000000E+03 0.  0.
<mgrwt>
<rscale>  0 0.19449008E+04</rscale>
<asrwt>0</asrwt>
<pdfrwt beam="1">  1        2 0.12717385E+00 0.19449008E+04</pdfrwt>
<pdfrwt beam="2">  1       -2 0.17599908E+00 0.19449008E+04</pdfrwt>
<totfact> 0.59446909E+00</totfact>
</mgrwt>
</event>
<event>
 4    1  0.6739609E-006  0.1128753E+04  0.7818608E-02  0.9177612E-01
         -2   -1    0    0    0  501 -0.00000000000E+00  0.00000000000E+00  0.14947047732E+04  0.14947047732E+04  0.25500000000E-02 0. -1.
          2   -1    0    0  501    0  0.00000000000E+00 -0.00000000000E+00 -0.21309950944E+03  0.21309950946E+03  0.25500000000E-02 0.  1.
   -5000001    1    1    2    0    0 -0.14604568360E+03 -0.43283692661E+03  0.31159469434E+03  0.60685121758E+03  0.25000000000E+03 0.  0.
    5000001    1    1    2    0    0  0.14604568360E+03  0.43283692661E+03  0.97001056945E+03  0.11009530651E+04  0.25000000000E+03 0.  0.
<mgrwt>
<rscale>  0 0.11287530E+04</rscale>
<asrwt>0</asrwt>
<pdfrwt beam="1">  1        2 0.32784542E-01 0.11287530E+04</pdfrwt>
<pdfrwt beam="2">  1       -2 0.22995457E+00 0.11287530E+04</pdfrwt>
<totfact> 0.13683646E+01</totfact>
</mgrwt>
</event>
<event>
 4    1  0.6739609E-006  0.8439891E+03  0.7818608E-02  0.9498440E-01
         -2   -1    0    0    0  501 -0.00000000000E+00  0.00000000000E+00  0.70445992924E+02  0.70445992971E+02  0.25500000000E-02 0. -1.
          2   -1    0    0  501    0  0.00000000000E+00 -0.00000000000E+00 -0.25278857181E+04  0.25278857181E+04  0.25500000000E-02 0.  1.
   -5000001    1    1    2    0    0 -0.11397434841E+03  0.26106098969E+03 -0.18000232179E+04  0.18394908473E+04  0.25000000000E+03 0.  0.
    5000001    1    1    2    0    0  0.11397434841E+03 -0.26106098969E+03 -0.65741650723E+03  0.75884086369E+03  0.25000000000E+03 0.  0.
<mgrwt>
<rscale>  0 0.84398915E+03</rscale>
<asrwt>0</asrwt>
<pdfrwt beam="1">  1        2 0.38890543E+00 0.84398915E+03</pdfrwt>
<pdfrwt beam="2">  1       -2 0.10837847E-01 0.84398915E+03</pdfrwt>
<totfact> 0.20778591E+02</totfact>
</mgrwt>
</event>
<event>
 4    1  0.6739609E-006  0.8770568E+03  0.7818608E-02  0.9454725E-01
          2   -1    0    0  501    0  0.00000000000E+00  0.00000000000E+00  0.63456704591E+03  0.63456704591E+03  0.25500000000E-02 0.  1.
         -2   -1    0    0    0  501 -0.00000000000E+00 -0.00000000000E+00 -0.30305251022E+03  0.30305251023E+03  0.25500000000E-02 0. -1.
   -5000001    1    1    2    0    0 -0.30135518384E+02 -0.34760198765E+03  0.26180461293E+03  0.50276927774E+03  0.25000000000E+03 0.  0.
    5000001    1    1    2    0    0  0.30135518384E+02  0.34760198765E+03  0.69709922757E+02  0.43485027839E+03  0.25000000000E+03 0.  0.
<mgrwt>
<rscale>  0 0.87705675E+03</rscale>
<asrwt>0</asrwt>
<pdfrwt beam="1">  1        2 0.97625698E-01 0.87705675E+03</pdfrwt>
<pdfrwt beam="2">  1       -2 0.46623464E-01 0.87705675E+03</pdfrwt>
<totfact> 0.20280701E+02</totfact>
</mgrwt>
</event>
<event>
 4    1  0.6739609E-006  0.6437749E+03  0.7818608E-02  0.9818531E-01
         -2   -1    0    0    0  501 -0.00000000000E+00  0.00000000000E+00  0.54727928630E+02  0.54727928689E+02  0.25500000000E-02 0. -1.
          2   -1    0    0  501    0  0.00000000000E+00 -0.00000000000E+00 -0.18932111007E+04  0.18932111007E+04  0.25500000000E-02 0.  1.
   -5000001    1    1    2    0    0  0.16556074412E+03  0.88803601262E+02 -0.68850350523E+03  0.75619674444E+03  0.25000000000E+03 0.  0.
    5000001    1    1    2    0    0 -0.16556074412E+03 -0.88803601262E+02 -0.11499796668E+04  0.11917422850E+04  0.25000000000E+03 0.  0.
<mgrwt>
<rscale>  0 0.64377487E+03</rscale>
<asrwt>0</asrwt>
<pdfrwt beam="1">  1        2 0.29126320E+00 0.64377487E+03</pdfrwt>
<pdfrwt beam="2">  1       -2 0.84196828E-02 0.64377487E+03</pdfrwt>
<totfact> 0.71355885E+02</totfact>
</mgrwt>
</event>
<event>
 4    1  0.6739609E-006  0.1165777E+04  0.7818608E-02  0.9143351E-01
         -2   -1    0    0    0  501 -0.00000000000E+00  0.00000000000E+00  0.33271343350E+03  0.33271343351E+03  0.25500000000E-02 0. -1.
          2   -1    0    0  501    0  0.00000000000E+00 -0.00000000000E+00 -0.10211761685E+04  0.10211761685E+04  0.25500000000E-02 0.  1.
   -5000001    1    1    2    0    0 -0.29946844845E+03  0.30329236495E+03 -0.70329978514E+03  0.85953370965E+03  0.25000000000E+03 0.  0.
    5000001    1    1    2    0    0  0.29946844845E+03 -0.30329236495E+03  0.14837050143E+02  0.49435589236E+03  0.25000000000E+03 0.  0.
<mgrwt>
<rscale>  0 0.11657770E+04</rscale>
<asrwt>0</asrwt>
<pdfrwt beam="1">  1        2 0.15710402E+00 0.11657770E+04</pdfrwt>
<pdfrwt beam="2">  1       -2 0.51186683E-01 0.11657770E+04</pdfrwt>
<totfact> 0.87064120E+01</totfact>
</mgrwt>
</event>
<event>
 4    1  0.6739609E-006  0.6441416E+03  0.7818608E-02  0.9817835E-01
          2   -1    0    0  501    0  0.00000000000E+00  0.00000000000E+00  0.20312949325E+04  0.20312949325E+04  0.25500000000E-02 0.  1.
         -2   -1    0    0    0  501 -0.00000000000E+00 -0.00000000000E+00 -0.51065754152E+02  0.51065754215E+02  0.25500000000E-02 0. -1.
   -5000001    1    1    2    0    0  0.55068764127E+01 -0.19291626905E+03  0.78610166871E+03  0.84717344511E+03  0.25000000000E+03 0.  0.
    5000001    1    1    2    0    0 -0.55068764127E+01  0.19291626905E+03  0.11941275096E+04  0.12351872416E+04  0.25000000000E+03 0.  0.
<mgrwt>
<rscale>  0 0.64414162E+03</rscale>
<asrwt>0</asrwt>
<pdfrwt beam="1">  1        2 0.31250695E+00 0.64414162E+03</pdfrwt>
<pdfrwt beam="2">  1       -2 0.78562690E-02 0.64414162E+03</pdfrwt>
<totfact> 0.67076042E+02</totfact>
</mgrwt>
</event>
<event>
 4    1  0.6739609E-006  0.5759421E+03  0.7818608E-02  0.9956615E-01
          2   -1    0    0  501    0  0.00000000000E+00  0.00000000000E+00  0.82675627747E+02  0.82675627786E+02  0.25500000000E-02 0.  1.
         -2   -1    0    0    0  501 -0.00000000000E+00 -0.00000000000E+00 -0.10030444431E+04  0.10030444431E+04  0.25500000000E-02 0. -1.
   -5000001    1    1    2    0    0 -0.72038116842E+02  0.11890183600E+03 -0.39765658592E+03  0.48985497569E+03  0.25000000000E+03 0.  0.
    5000001    1    1    2    0    0  0.72038116842E+02 -0.11890183600E+03 -0.52271222946E+03  0.59586509522E+03  0.25000000000E+03 0.  0.
<mgrwt>
<rscale>  0 0.57594211E+03</rscale>
<asrwt>0</asrwt>
<pdfrwt beam="1">  1        2 0.12719328E-01 0.57594211E+03</pdfrwt>
<pdfrwt beam="2">  1       -2 0.15431452E+00 0.57594211E+03</pdfrwt>
<totfact> 0.13886678E+02</totfact>
</mgrwt>
</event>
<event>
 4    1  0.6739609E-006  0.1365506E+04  0.7818608E-02  0.8979172E-01
         -2   -1    0    0    0  501 -0.00000000000E+00  0.00000000000E+00  0.38553408481E+03  0.38553408482E+03  0.25500000000E-02 0.  1.
          2   -1    0    0  501    0  0.00000000000E+00 -0.00000000000E+00 -0.12091070773E+04  0.12091070773E+04  0.25500000000E-02 0. -1.
   -5000001    1    1    2    0    0  0.14473769169E+03 -0.61679080425E+03 -0.46745152488E+03  0.82606950295E+03  0.25000000000E+03 0.  0.
    5000001    1    1    2    0    0 -0.14473769169E+03  0.61679080425E+03 -0.35612146762E+03  0.76857165918E+03  0.25000000000E+03 0.  0.
<mgrwt>
<rscale>  0 0.13655065E+04</rscale>
<asrwt>0</asrwt>
<pdfrwt beam="1">  1        2 0.18601647E+00 0.13655065E+04</pdfrwt>
<pdfrwt beam="2">  1       -2 0.59312937E-01 0.13655065E+04</pdfrwt>
<totfact> 0.48431612E+01</totfact>
</mgrwt>
</event>
<event>
 4    1  0.6739609E-006  0.8885179E+03  0.7818608E-02  0.9440050E-01
         -2   -1    0    0    0  501 -0.00000000000E+00  0.00000000000E+00  0.10148493558E+03  0.10148493561E+03  0.25500000000E-02 0. -1.
          2   -1    0    0  501    0  0.00000000000E+00 -0.00000000000E+00 -0.19447813555E+04  0.19447813555E+04  0.25500000000E-02 0.  1.
   -5000001    1    1    2    0    0  0.81922581144E+02  0.30791127400E+03 -0.13421943047E+04  0.14019651256E+04  0.25000000000E+03 0.  0.
    5000001    1    1    2    0    0 -0.81922581144E+02 -0.30791127400E+03 -0.50110211524E+03  0.64430116550E+03  0.25000000000E+03 0.  0.
<mgrwt>
<rscale>  0 0.88851789E+03</rscale>
<asrwt>0</asrwt>
<pdfrwt beam="1">  1        2 0.29919711E+00 0.88851789E+03</pdfrwt>
<pdfrwt beam="2">  1       -2 0.15613068E-01 0.88851789E+03</pdfrwt>
<totfact> 0.23743648E+02</totfact>
</mgrwt>
</event>
<event>
 4    1  0.6739609E-006  0.6975806E+03  0.7818608E-02  0.9721379E-01
         -2   -1    0    0    0  501 -0.00000000000E+00  0.00000000000E+00  0.10874478734E+03  0.10874478737E+03  0.25500000000E-02 0.  1.
          2   -1    0    0  501    0  0.00000000000E+00 -0.00000000000E+00 -0.11187173219E+04  0.11187173219E+04  0.25500000000E-02 0. -1.
   -5000001    1    1    2    0    0 -0.21486186754E+03 -0.10539787494E+03 -0.42868491319E+03  0.55094926169E+03  0.25000000000E+03 0.  0.
    5000001    1    1    2    0    0  0.21486186754E+03  0.10539787494E+03 -0.58128762134E+03  0.67651284754E+03  0.25000000000E+03 0.  0.
<mgrwt>
<rscale>  0 0.69758061E+03</rscale>
<asrwt>0</asrwt>
<pdfrwt beam="1">  1        2 0.17211035E+00 0.69758061E+03</pdfrwt>
<pdfrwt beam="2">  1       -2 0.16729968E-01 0.69758061E+03</pdfrwt>
<totfact> 0.62229437E+02</totfact>
</mgrwt>
</event>
<event>
 4    1  0.6739609E-006  0.6796026E+03  0.7818608E-02  0.9752765E-01
          2   -1    0    0  501    0  0.00000000000E+00  0.00000000000E+00  0.76945562188E+03  0.76945562188E+03  0.25500000000E-02 0.  1.
         -2   -1    0    0    0  501 -0.00000000000E+00 -0.00000000000E+00 -0.15006053533E+03  0.15006053535E+03  0.25500000000E-02 0. -1.
   -5000001    1    1    2    0    0 -0.13052346193E+03 -0.71926429597E+02  0.54697865525E+03  0.61959295888E+03  0.25000000000E+03 0.  0.
    5000001    1    1    2    0    0  0.13052346193E+03  0.71926429597E+02  0.72416431296E+02  0.29992319835E+03  0.25000000000E+03 0.  0.
<mgrwt>
<rscale>  0 0.67960260E+03</rscale>
<asrwt>0</asrwt>
<pdfrwt beam="1">  1        2 0.11837779E+00 0.67960260E+03</pdfrwt>
<pdfrwt beam="2">  1       -2 0.23086236E-01 0.67960260E+03</pdfrwt>
<totfact> 0.60356527E+02</totfact>
</mgrwt>
</event>
<event>
 4    1  0.6739609E-006  0.1120396E+04  0.7818608E-02  0.9185537E-01
         -2   -1    0    0    0  501 -0.00000000000E+00  0.00000000000E+00  0.31546552909E+03  0.31546552910E+03  0.25500000000E-02 0. -1.
          2   -1    0    0  501    0  0.00000000000E+00 -0.00000000000E+00 -0.99478986016E+03  0.99478986017E+03  0.25500000000E-02 0.  1.
   -5000001    1    1    2    0    0 -0.93528464696E+02  0.49248536718E+03 -0.33299533824E+03  0.65167116392E+03  0.25000000000E+03 0.  0.
    5000001    1    1    2    0    0  0.93528464696E+02 -0.49248536718E+03 -0.34632899283E+03  0.65858422535E+03  0.25000000000E+03 0.  0.
<mgrwt>
<rscale>  0 0.11203962E+04</rscale>
<asrwt>0</asrwt>
<pdfrwt beam="1">  1        2 0.15304459E+00 0.11203962E+04</pdfrwt>
<pdfrwt beam="2">  1       -2 0.48533159E-01 0.11203962E+04</pdfrwt>
<totfact> 0.10118927E+02</totfact>
</mgrwt>
</event>
<event>
 4    1  0.6739609E-006  0.9652398E+03  0.7818608E-02  0.9347513E-01
         -2   -1    0    0    0  501 -0.00000000000E+00  0.00000000000E+00  0.10832916652E+03  0.10832916655E+03  0.25500000000E-02 0. -1.
          2   -1    0    0  501    0  0.00000000000E+00 -0.00000000000E+00 -0.21501318034E+04  0.21501318034E+04  0.25500000000E-02 0.  1.
   -5000001    1    1    2    0    0  0.17146799605E+03  0.36230888288E+03 -0.78982994261E+03  0.92032621310E+03  0.25000000000E+03 0.  0.
    5000001    1    1    2    0    0 -0.17146799605E+03 -0.36230888288E+03 -0.12519726943E+04  0.13381347568E+04  0.25000000000E+03 0.  0.
<mgrwt>
<rscale>  0 0.96523984E+03</rscale>
<asrwt>0</asrwt>
<pdfrwt beam="1">  1        2 0.33078948E+00 0.96523984E+03</pdfrwt>
<pdfrwt beam="2">  1       -2 0.16666027E-01 0.96523984E+03</pdfrwt>
<totfact> 0.16275838E+02</totfact>
</mgrwt>
</event>
<event>
 4    1  0.6739609E-006  0.5730833E+03  0.7818608E-02  0.9962879E-01
         -2   -1    0    0    0  501 -0.00000000000E+00  0.00000000000E+00  0.23215113045E+03  0.23215113046E+03  0.25500000000E-02 0. -1.
          2   -1    0    0  501    0  0.00000000000E+00 -0.00000000000E+00 -0.35367531344E+03  0.35367531345E+03  0.25500000000E-02 0.  1.
   -5000001    1    1    2    0    0 -0.13805759076E+03 -0.23362258594E+02 -0.60091502104E+02  0.29277411449E+03  0.25000000000E+03 0.  0.
    5000001    1    1    2    0    0  0.13805759076E+03  0.23362258594E+02 -0.61432680884E+02  0.29305232941E+03  0.25000000000E+03 0.  0.
<mgrwt>
<rscale>  0 0.57308332E+03</rscale>
<asrwt>0</asrwt>
<pdfrwt beam="1">  1        2 0.54411586E-01 0.57308332E+03</pdfrwt>
<pdfrwt beam="2">  1       -2 0.35715559E-01 0.57308332E+03</pdfrwt>
<totfact> 0.67705771E+02</totfact>
</mgrwt>
</event>
<event>
 4    1  0.6739609E-006  0.6514293E+03  0.7818608E-02  0.9804101E-01
         -2   -1    0    0    0  501 -0.00000000000E+00  0.00000000000E+00  0.63280280641E+02  0.63280280692E+02  0.25500000000E-02 0. -1.
          2   -1    0    0  501    0  0.00000000000E+00 -0.00000000000E+00 -0.16765101104E+04  0.16765101104E+04  0.25500000000E-02 0.  1.
   -5000001    1    1    2    0    0  0.17375939932E+03  0.11097155053E+03 -0.71872335511E+03  0.78839728251E+03  0.25000000000E+03 0.  0.
    5000001    1    1    2    0    0 -0.17375939932E+03 -0.11097155053E+03 -0.89450647461E+03  0.95139310855E+03  0.25000000000E+03 0.  0.
<mgrwt>
<rscale>  0 0.65142929E+03</rscale>
<asrwt>0</asrwt>
<pdfrwt beam="1">  1        2 0.25792460E+00 0.65142929E+03</pdfrwt>
<pdfrwt beam="2">  1       -2 0.97354291E-02 0.65142929E+03</pdfrwt>
<totfact> 0.74012773E+02</totfact>
</mgrwt>
</event>
<event>
 4    1  0.6739609E-006  0.7825281E+03  0.7818608E-02  0.9585657E-01
          2   -1    0    0  501    0  0.00000000000E+00  0.00000000000E+00  0.13208208600E+04  0.13208208600E+04  0.25500000000E-02 0.  1.
         -2   -1    0    0    0  501 -0.00000000000E+00 -0.00000000000E+00 -0.11590335796E+03  0.11590335799E+03  0.25500000000E-02 0. -1.
   -5000001    1    1    2    0    0  0.26082164449E+03 -0.14349555050E+03  0.68392165320E+03  0.78668146728E+03  0.25000000000E+03 0.  0.
    5000001    1    1    2    0    0 -0.26082164449E+03  0.14349555050E+03  0.52099584880E+03  0.65004275068E+03  0.25000000000E+03 0.  0.
<mgrwt>
<rscale>  0 0.78252814E+03</rscale>
<asrwt>0</asrwt>
<pdfrwt beam="1">  1        2 0.20320320E+00 0.78252814E+03</pdfrwt>
<pdfrwt beam="2">  1       -2 0.17831286E-01 0.78252814E+03</pdfrwt>
<totfact> 0.42236921E+02</totfact>
</mgrwt>
</event>
<event>
 4    1  0.6739609E-006  0.7144271E+03  0.7818608E-02  0.9692873E-01
         -2   -1    0    0    0  501 -0.00000000000E+00  0.00000000000E+00  0.19331466082E+03  0.19331466084E+03  0.25500000000E-02 0. -1.
          2   -1    0    0  501    0  0.00000000000E+00 -0.00000000000E+00 -0.66007156858E+03  0.66007156859E+03  0.25500000000E-02 0.  1.
   -5000001    1    1    2    0    0  0.21802963179E+03 -0.13091446142E+03 -0.25803259667E+03  0.44017762039E+03  0.25000000000E+03 0.  0.
    5000001    1    1    2    0    0 -0.21802963179E+03  0.13091446142E+03 -0.20872431109E+03  0.41320860904E+03  0.25000000000E+03 0.  0.
<mgrwt>
<rscale>  0 0.71442708E+03</rscale>
<asrwt>0</asrwt>
<pdfrwt beam="1">  1        2 0.10154947E+00 0.71442708E+03</pdfrwt>
<pdfrwt beam="2">  1       -2 0.29740717E-01 0.71442708E+03</pdfrwt>
<totfact> 0.46240742E+02</totfact>
</mgrwt>
</event>
<event>
 4    1  0.6739609E-006  0.1171139E+04  0.7818608E-02  0.9138500E-01
          2   -1    0    0  501    0  0.00000000000E+00  0.00000000000E+00  0.14507210077E+03  0.14507210079E+03  0.25500000000E-02 0. -1.
         -2   -1    0    0    0  501 -0.00000000000E+00 -0.00000000000E+00 -0.23635961108E+04  0.23635961108E+04  0.25500000000E-02 0.  1.
   -5000001    1    1    2    0    0 -0.18132409987E+02  0.49443980375E+03 -0.15133844535E+04  0.16117170992E+04  0.25000000000E+03 0.  0.
    5000001    1    1    2    0    0  0.18132409987E+02 -0.49443980375E+03 -0.70513955662E+03  0.89695111245E+03  0.25000000000E+03 0.  0.
<mgrwt>
<rscale>  0 0.11711394E+04</rscale>
<asrwt>0</asrwt>
<pdfrwt beam="1">  1        2 0.22318786E-01 0.11711394E+04</pdfrwt>
<pdfrwt beam="2">  1       -2 0.36363014E+00 0.11711394E+04</pdfrwt>
<totfact> 0.32086490E+00</totfact>
</mgrwt>
</event>
<event>
 4    1  0.6739609E-006  0.6448769E+03  0.7818608E-02  0.9816440E-01
         -2   -1    0    0    0  501 -0.00000000000E+00  0.00000000000E+00  0.59153961178E+02  0.59153961233E+02  0.25500000000E-02 0. -1.
          2   -1    0    0  501    0  0.00000000000E+00 -0.00000000000E+00 -0.17575587043E+04  0.17575587043E+04  0.25500000000E-02 0.  1.
   -5000001    1    1    2    0    0  0.15929929254E+03  0.12498837960E+03 -0.78824517128E+03  0.85136878595E+03  0.25000000000E+03 0.  0.
    5000001    1    1    2    0    0 -0.15929929254E+03 -0.12498837960E+03 -0.91015957183E+03  0.96534387957E+03  0.25000000000E+03 0.  0.
<mgrwt>
<rscale>  0 0.64487692E+03</rscale>
<asrwt>0</asrwt>
<pdfrwt beam="1">  1        2 0.27039361E+00 0.64487692E+03</pdfrwt>
<pdfrwt beam="2">  1       -2 0.91006108E-02 0.64487692E+03</pdfrwt>
<totfact> 0.74593773E+02</totfact>
</mgrwt>
</event>
<event>
 4    1  0.6739609E-006  0.7424141E+03  0.7818608E-02  0.9647327E-01
          2   -1    0    0  501    0  0.00000000000E+00  0.00000000000E+00  0.26833608183E+04  0.26833608183E+04  0.25500000000E-02 0.  1.
         -2   -1    0    0    0  501 -0.00000000000E+00 -0.00000000000E+00 -0.51351532507E+02  0.51351532570E+02  0.25500000000E-02 0. -1.
   -5000001    1    1    2    0    0  0.26864735643E+03 -0.33207414247E+02  0.11504273226E+04  0.12079971685E+04  0.25000000000E+03 0.  0.
    5000001    1    1    2    0    0 -0.26864735643E+03  0.33207414247E+02  0.14815819632E+04  0.15267151824E+04  0.25000000000E+03 0.  0.
<mgrwt>
<rscale>  0 0.74241414E+03</rscale>
<asrwt>0</asrwt>
<pdfrwt beam="1">  1        2 0.41282475E+00 0.74241414E+03</pdfrwt>
<pdfrwt beam="2">  1       -2 0.79002356E-02 0.74241414E+03</pdfrwt>
<totfact> 0.28493768E+02</totfact>
</mgrwt>
</event>
<event>
 4    1  0.6739609E-006  0.6976537E+03  0.7818608E-02  0.9721253E-01
          2   -1    0    0  501    0  0.00000000000E+00  0.00000000000E+00  0.24128011292E+04  0.24128011292E+04  0.25500000000E-02 0.  1.
         -2   -1    0    0    0  501 -0.00000000000E+00 -0.00000000000E+00 -0.50431076100E+02  0.50431076164E+02  0.25500000000E-02 0. -1.
   -5000001    1    1    2    0    0  0.80436042175E+02 -0.22917334463E+03  0.12298245352E+04  0.12782639657E+04  0.25000000000E+03 0.  0.
    5000001    1    1    2    0    0 -0.80436042175E+02  0.22917334463E+03  0.11325455180E+04  0.11849682397E+04  0.25000000000E+03 0.  0.
<mgrwt>
<rscale>  0 0.69765366E+03</rscale>
<asrwt>0</asrwt>
<pdfrwt beam="1">  1        2 0.37120019E+00 0.69765366E+03</pdfrwt>
<pdfrwt beam="2">  1       -2 0.77586268E-02 0.69765366E+03</pdfrwt>
<totfact> 0.42003005E+02</totfact>
</mgrwt>
</event>
<event>
 4    1  0.6739609E-006  0.8816389E+03  0.7818608E-02  0.9448829E-01
         -2   -1    0    0    0  501 -0.00000000000E+00  0.00000000000E+00  0.64918007532E+03  0.64918007532E+03  0.25500000000E-02 0. -1.
          2   -1    0    0  501    0  0.00000000000E+00 -0.00000000000E+00 -0.29933415822E+03  0.29933415823E+03  0.25500000000E-02 0.  1.
   -5000001    1    1    2    0    0  0.24965986722E+03 -0.25438697932E+03  0.10054897496E+03  0.44682533602E+03  0.25000000000E+03 0.  0.
    5000001    1    1    2    0    0 -0.24965986722E+03  0.25438697932E+03  0.24929694214E+03  0.50168889753E+03  0.25000000000E+03 0.  0.
<mgrwt>
<rscale>  0 0.88163886E+03</rscale>
<asrwt>0</asrwt>
<pdfrwt beam="1">  1        2 0.46051409E-01 0.88163886E+03</pdfrwt>
<pdfrwt beam="2">  1       -2 0.99873857E-01 0.88163886E+03</pdfrwt>
<totfact> 0.91565356E+01</totfact>
</mgrwt>
</event>
<event>
 4    1  0.6739609E-006  0.6560615E+03  0.7818608E-02  0.9795471E-01
         -2   -1    0    0    0  501 -0.00000000000E+00  0.00000000000E+00  0.20063657395E+04  0.20063657395E+04  0.25500000000E-02 0. -1.
          2   -1    0    0  501    0  0.00000000000E+00 -0.00000000000E+00 -0.53631387843E+02  0.53631387904E+02  0.25500000000E-02 0.  1.
   -5000001    1    1    2    0    0  0.20184031162E+03  0.47209014709E+02  0.83124950200E+03  0.89243707735E+03  0.25000000000E+03 0.  0.
    5000001    1    1    2    0    0 -0.20184031162E+03 -0.47209014709E+02  0.11214848497E+04  0.11675600501E+04  0.25000000000E+03 0.  0.
<mgrwt>
<rscale>  0 0.65606152E+03</rscale>
<asrwt>0</asrwt>
<pdfrwt beam="1">  1        2 0.82509831E-02 0.65606152E+03</pdfrwt>
<pdfrwt beam="2">  1       -2 0.30867164E+00 0.65606152E+03</pdfrwt>
<totfact> 0.25207263E+01</totfact>
</mgrwt>
</event>
<event>
 4    1  0.6739609E-006  0.7814472E+03  0.7818608E-02  0.9587267E-01
         -2   -1    0    0    0  501 -0.00000000000E+00  0.00000000000E+00  0.55586131607E+02  0.55586131666E+02  0.25500000000E-02 0. -1.
          2   -1    0    0  501    0  0.00000000000E+00 -0.00000000000E+00 -0.27464573713E+04  0.27464573713E+04  0.25500000000E-02 0.  1.
   -5000001    1    1    2    0    0 -0.16207099249E+03 -0.23341264867E+03 -0.99748366557E+03  0.10668749384E+04  0.25000000000E+03 0.  0.
    5000001    1    1    2    0    0  0.16207099249E+03  0.23341264867E+03 -0.16933875741E+04  0.17351685645E+04  0.25000000000E+03 0.  0.
<mgrwt>
<rscale>  0 0.78144722E+03</rscale>
<asrwt>0</asrwt>
<pdfrwt beam="1">  1        2 0.42253180E+00 0.78144722E+03</pdfrwt>
<pdfrwt beam="2">  1       -2 0.85517147E-02 0.78144722E+03</pdfrwt>
<totfact> 0.22963964E+02</totfact>
</mgrwt>
</event>
<event>
 4    1  0.6739609E-006  0.1310715E+04  0.7818608E-02  0.9021111E-01
         -2   -1    0    0    0  501 -0.00000000000E+00  0.00000000000E+00  0.40347620023E+03  0.40347620023E+03  0.25500000000E-02 0. -1.
          2   -1    0    0  501    0  0.00000000000E+00 -0.00000000000E+00 -0.10644835322E+04  0.10644835322E+04  0.25500000000E-02 0.  1.
   -5000001    1    1    2    0    0 -0.30310840250E+03  0.31212604825E+03  0.14160831675E+03  0.52139264382E+03  0.25000000000E+03 0.  0.
    5000001    1    1    2    0    0  0.30310840250E+03 -0.31212604825E+03 -0.80261564871E+03  0.94656708860E+03  0.25000000000E+03 0.  0.
<mgrwt>
<rscale>  0 0.13107155E+04</rscale>
<asrwt>0</asrwt>
<pdfrwt beam="1">  1        2 0.16376670E+00 0.13107155E+04</pdfrwt>
<pdfrwt beam="2">  1       -2 0.62073262E-01 0.13107155E+04</pdfrwt>
<totfact> 0.54106551E+01</totfact>
</mgrwt>
</event>
<event>
 4    1  0.6739609E-006  0.7035758E+03  0.7818608E-02  0.9711137E-01
          2   -1    0    0  501    0  0.00000000000E+00  0.00000000000E+00  0.69340154032E+03  0.69340154032E+03  0.25500000000E-02 0.  1.
         -2   -1    0    0    0  501 -0.00000000000E+00 -0.00000000000E+00 -0.17847485384E+03  0.17847485386E+03  0.25500000000E-02 0. -1.
   -5000001    1    1    2    0    0  0.41920429498E+02 -0.20577768045E+03  0.41976149453E+03  0.53179083151E+03  0.25000000000E+03 0.  0.
    5000001    1    1    2    0    0 -0.41920429498E+02  0.20577768045E+03  0.95165191943E+02  0.34008556267E+03  0.25000000000E+03 0.  0.
<mgrwt>
<rscale>  0 0.70357583E+03</rscale>
<asrwt>0</asrwt>
<pdfrwt beam="1">  1        2 0.10667716E+00 0.70357583E+03</pdfrwt>
<pdfrwt beam="2">  1       -2 0.27457670E-01 0.70357583E+03</pdfrwt>
<totfact> 0.50387466E+02</totfact>
</mgrwt>
</event>
<event>
 4    1  0.6739609E-006  0.1018391E+04  0.7818608E-02  0.9288601E-01
         -2   -1    0    0    0  501 -0.00000000000E+00  0.00000000000E+00  0.16696788622E+03  0.16696788624E+03  0.25500000000E-02 0. -1.
          2   -1    0    0  501    0  0.00000000000E+00 -0.00000000000E+00 -0.15528737110E+04  0.15528737110E+04  0.25500000000E-02 0.  1.
   -5000001    1    1    2    0    0 -0.33264619792E+03 -0.38063226821E+02 -0.20152645290E+03  0.46391293735E+03  0.25000000000E+03 0.  0.
    5000001    1    1    2    0    0  0.33264619792E+03  0.38063226821E+02 -0.11843793719E+04  0.12559286599E+04  0.25000000000E+03 0.  0.
<mgrwt>
<rscale>  0 0.10183910E+04</rscale>
<asrwt>0</asrwt>
<pdfrwt beam="1">  1        2 0.23890364E+00 0.10183910E+04</pdfrwt>
<pdfrwt beam="2">  1       -2 0.25687368E-01 0.10183910E+04</pdfrwt>
<totfact> 0.16132610E+02</totfact>
</mgrwt>
</event>
<event>
 4    1  0.6739609E-006  0.1123481E+04  0.7818608E-02  0.9182603E-01
         -2   -1    0    0    0  501 -0.00000000000E+00  0.00000000000E+00  0.14789504955E+03  0.14789504957E+03  0.25500000000E-02 0. -1.
          2   -1    0    0  501    0  0.00000000000E+00 -0.00000000000E+00 -0.21336230119E+04  0.21336230119E+04  0.25500000000E-02 0.  1.
   -5000001    1    1    2    0    0 -0.29198407359E+03  0.39362834624E+03 -0.12231049404E+04  0.13411501294E+04  0.25000000000E+03 0.  0.
    5000001    1    1    2    0    0  0.29198407359E+03 -0.39362834624E+03 -0.76262302197E+03  0.94036793215E+03  0.25000000000E+03 0.  0.
<mgrwt>
<rscale>  0 0.11234808E+04</rscale>
<asrwt>0</asrwt>
<pdfrwt beam="1">  1        2 0.32824967E+00 0.11234808E+04</pdfrwt>
<pdfrwt beam="2">  1       -2 0.22753086E-01 0.11234808E+04</pdfrwt>
<totfact> 0.95156502E+01</totfact>
</mgrwt>
</event>
<event>
 4    1  0.6739609E-006  0.7313310E+03  0.7818608E-02  0.9665103E-01
         -2   -1    0    0    0  501 -0.00000000000E+00  0.00000000000E+00  0.27018350363E+03  0.27018350364E+03  0.25500000000E-02 0. -1.
          2   -1    0    0  501    0  0.00000000000E+00 -0.00000000000E+00 -0.49489054398E+03  0.49489054399E+03  0.25500000000E-02 0.  1.
   -5000001    1    1    2    0    0  0.49885473753E+02 -0.66888224917E+02  0.15281474025E+03  0.30465544466E+03  0.25000000000E+03 0.  0.
    5000001    1    1    2    0    0 -0.49885473753E+02  0.66888224917E+02 -0.37752178060E+03  0.46041860296E+03  0.25000000000E+03 0.  0.
<mgrwt>
<rscale>  0 0.73133101E+03</rscale>
<asrwt>0</asrwt>
<pdfrwt beam="1">  1        2 0.76137007E-01 0.73133101E+03</pdfrwt>
<pdfrwt beam="2">  1       -2 0.41566693E-01 0.73133101E+03</pdfrwt>
<totfact> 0.34440976E+02</totfact>
</mgrwt>
</event>
<event>
 4    1  0.6739609E-006  0.6428960E+03  0.7818608E-02  0.9820201E-01
         -2   -1    0    0    0  501 -0.00000000000E+00  0.00000000000E+00  0.37965156202E+03  0.37965156202E+03  0.25500000000E-02 0. -1.
          2   -1    0    0  501    0  0.00000000000E+00 -0.00000000000E+00 -0.27216752324E+03  0.27216752325E+03  0.25500000000E-02 0.  1.
   -5000001    1    1    2    0    0 -0.15994142934E+03  0.12304823606E+03  0.64214766968E+02  0.32763648380E+03  0.25000000000E+03 0.  0.
    5000001    1    1    2    0    0  0.15994142934E+03 -0.12304823606E+03  0.43269271813E+02  0.32418260148E+03  0.25000000000E+03 0.  0.
<mgrwt>
<rscale>  0 0.64289603E+03</rscale>
<asrwt>0</asrwt>
<pdfrwt beam="1">  1        2 0.41871927E-01 0.64289603E+03</pdfrwt>
<pdfrwt beam="2">  1       -2 0.58407933E-01 0.64289603E+03</pdfrwt>
<totfact> 0.33881509E+02</totfact>
</mgrwt>
</event>
<event>
 4    1  0.6739609E-006  0.7450639E+03  0.7818608E-02  0.9643126E-01
          2   -1    0    0  501    0  0.00000000000E+00  0.00000000000E+00  0.16551033114E+04  0.16551033114E+04  0.25500000000E-02 0.  1.
         -2   -1    0    0    0  501 -0.00000000000E+00 -0.00000000000E+00 -0.83849776863E+02  0.83849776902E+02  0.25500000000E-02 0. -1.
   -5000001    1    1    2    0    0  0.16793521270E+03  0.89128664401E+02  0.31805316624E+03  0.44699437473E+03  0.25000000000E+03 0.  0.
    5000001    1    1    2    0    0 -0.16793521270E+03 -0.89128664401E+02  0.12532003683E+04  0.12919587135E+04  0.25000000000E+03 0.  0.
<mgrwt>
<rscale>  0 0.74506387E+03</rscale>
<asrwt>0</asrwt>
<pdfrwt beam="1">  1        2 0.25463126E+00 0.74506387E+03</pdfrwt>
<pdfrwt beam="2">  1       -2 0.12899967E-01 0.74506387E+03</pdfrwt>
<totfact> 0.47630619E+02</totfact>
</mgrwt>
</event>
<event>
 4    1  0.6739609E-006  0.9454904E+03  0.7818608E-02  0.9370437E-01
         -2   -1    0    0    0  501 -0.00000000000E+00  0.00000000000E+00  0.13826603313E+03  0.13826603315E+03  0.25500000000E-02 0. -1.
          2   -1    0    0  501    0  0.00000000000E+00 -0.00000000000E+00 -0.16163622913E+04  0.16163622913E+04  0.25500000000E-02 0.  1.
   -5000001    1    1    2    0    0  0.36459852065E+03 -0.16229444276E+03 -0.81593313990E+03  0.94208197955E+03  0.25000000000E+03 0.  0.
    5000001    1    1    2    0    0 -0.36459852065E+03  0.16229444276E+03 -0.66216311829E+03  0.81254634492E+03  0.25000000000E+03 0.  0.
<mgrwt>
<rscale>  0 0.94549035E+03</rscale>
<asrwt>0</asrwt>
<pdfrwt beam="1">  1        2 0.24867111E+00 0.94549035E+03</pdfrwt>
<pdfrwt beam="2">  1       -2 0.21271699E-01 0.94549035E+03</pdfrwt>
<totfact> 0.20957714E+02</totfact>
</mgrwt>
</event>
<event>
 4    1  0.6739609E-006  0.5938786E+03  0.7818608E-02  0.9918188E-01
          2   -1    0    0  501    0  0.00000000000E+00  0.00000000000E+00  0.15225561094E+04  0.15225561094E+04  0.25500000000E-02 0.  1.
         -2   -1    0    0    0  501 -0.00000000000E+00 -0.00000000000E+00 -0.57911137944E+02  0.57911138000E+02  0.25500000000E-02 0. -1.
   -5000001    1    1    2    0    0  0.28488129620E+02  0.15107860086E+03  0.85242301216E+03  0.90153275527E+03  0.25000000000E+03 0.  0.
    5000001    1    1    2    0    0 -0.28488129620E+02 -0.15107860086E+03  0.61222195933E+03  0.67893449217E+03  0.25000000000E+03 0.  0.
<mgrwt>
<rscale>  0 0.59387863E+03</rscale>
<asrwt>0</asrwt>
<pdfrwt beam="1">  1        2 0.23423939E+00 0.59387863E+03</pdfrwt>
<pdfrwt beam="2">  1       -2 0.89094064E-02 0.59387863E+03</pdfrwt>
<totfact> 0.10400931E+03</totfact>
</mgrwt>
</event>
<event>
 4    1  0.6739609E-006  0.6231580E+03  0.7818608E-02  0.9858492E-01
          2   -1    0    0  501    0  0.00000000000E+00  0.00000000000E+00  0.80633219174E+03  0.80633219174E+03  0.25500000000E-02 0.  1.
         -2   -1    0    0    0  501 -0.00000000000E+00 -0.00000000000E+00 -0.12039884181E+03  0.12039884183E+03  0.25500000000E-02 0. -1.
   -5000001    1    1    2    0    0  0.10843326956E+03  0.21620889837E+02  0.56532571713E+03  0.62794777114E+03  0.25000000000E+03 0.  0.
    5000001    1    1    2    0    0 -0.10843326956E+03 -0.21620889837E+02  0.12060763280E+03  0.29878326244E+03  0.25000000000E+03 0.  0.
<mgrwt>
<rscale>  0 0.62315796E+03</rscale>
<asrwt>0</asrwt>
<pdfrwt beam="1">  1        2 0.12405111E+00 0.62315796E+03</pdfrwt>
<pdfrwt beam="2">  1       -2 0.18522898E-01 0.62315796E+03</pdfrwt>
<totfact> 0.83648802E+02</totfact>
</mgrwt>
</event>
<event>
 4    1  0.6739609E-006  0.1479820E+04  0.7818608E-02  0.8897985E-01
         -2   -1    0    0    0  501 -0.00000000000E+00  0.00000000000E+00  0.66707501804E+03  0.66707501805E+03  0.25500000000E-02 0. -1.
          2   -1    0    0  501    0  0.00000000000E+00 -0.00000000000E+00 -0.82069714332E+03  0.82069714333E+03  0.25500000000E-02 0.  1.
   -5000001    1    1    2    0    0  0.67117544434E+03  0.18396405442E+03 -0.51232023645E+02  0.74124487901E+03  0.25000000000E+03 0.  0.
    5000001    1    1    2    0    0 -0.67117544434E+03 -0.18396405442E+03 -0.10239010164E+03  0.74652728237E+03  0.25000000000E+03 0.  0.
<mgrwt>
<rscale>  0 0.14798197E+04</rscale>
<asrwt>0</asrwt>
<pdfrwt beam="1">  1        2 0.12626110E+00 0.14798197E+04</pdfrwt>
<pdfrwt beam="2">  1       -2 0.10262693E+00 0.14798197E+04</pdfrwt>
<totfact> 0.25015392E+01</totfact>
</mgrwt>
</event>
<event>
 4    1  0.6739609E-006  0.6202883E+03  0.7818608E-02  0.9864186E-01
         -2   -1    0    0    0  501 -0.00000000000E+00  0.00000000000E+00  0.29618569762E+02  0.29618569871E+02  0.25500000000E-02 0. -1.
          2   -1    0    0  501    0  0.00000000000E+00 -0.00000000000E+00 -0.32476040148E+04  0.32476040148E+04  0.25500000000E-02 0.  1.
   -5000001    1    1    2    0    0  0.83726950534E+02 -0.15932563069E+03 -0.17990865398E+04  0.18252690860E+04  0.25000000000E+03 0.  0.
    5000001    1    1    2    0    0 -0.83726950534E+02  0.15932563069E+03 -0.14188989053E+04  0.14519534986E+04  0.25000000000E+03 0.  0.
<mgrwt>
<rscale>  0 0.62028828E+03</rscale>
<asrwt>0</asrwt>
<pdfrwt beam="1">  1        2 0.49963111E+00 0.62028828E+03</pdfrwt>
<pdfrwt beam="2">  1       -2 0.45567056E-02 0.62028828E+03</pdfrwt>
<totfact> 0.31139333E+02</totfact>
</mgrwt>
</event>
<event>
 4    1  0.6739609E-006  0.6239101E+03  0.7818608E-02  0.9857005E-01
         -2   -1    0    0    0  501 -0.00000000000E+00  0.00000000000E+00  0.16690356739E+03  0.16690356741E+03  0.25500000000E-02 0.  1.
          2   -1    0    0  501    0  0.00000000000E+00 -0.00000000000E+00 -0.58306690354E+03  0.58306690354E+03  0.25500000000E-02 0. -1.
   -5000001    1    1    2    0    0  0.18556499277E+02  0.17985801825E+03 -0.15269999795E+03  0.34425359805E+03  0.25000000000E+03 0.  0.
    5000001    1    1    2    0    0 -0.18556499277E+02 -0.17985801825E+03 -0.26346333819E+03  0.40571687291E+03  0.25000000000E+03 0.  0.
<mgrwt>
<rscale>  0 0.62391008E+03</rscale>
<asrwt>0</asrwt>
<pdfrwt beam="1">  1        2 0.89702600E-01 0.62391008E+03</pdfrwt>
<pdfrwt beam="2">  1       -2 0.25677472E-01 0.62391008E+03</pdfrwt>
<totfact> 0.70481933E+02</totfact>
</mgrwt>
</event>
<event>
 4    1  0.6739609E-006  0.8655538E+03  0.7818608E-02  0.9469696E-01
          2   -1    0    0  501    0  0.00000000000E+00  0.00000000000E+00  0.46357624995E+03  0.46357624996E+03  0.25500000000E-02 0.  1.
         -2   -1    0    0    0  501 -0.00000000000E+00 -0.00000000000E+00 -0.40402379413E+03  0.40402379413E+03  0.25500000000E-02 0. -1.
   -5000001    1    1    2    0    0 -0.32179204734E+03 -0.72004969273E+02  0.15680782963E+03  0.44251952811E+03  0.25000000000E+03 0.  0.
    5000001    1    1    2    0    0  0.32179204734E+03  0.72004969273E+02 -0.97255373804E+02  0.42508051598E+03  0.25000000000E+03 0.  0.
<mgrwt>
<rscale>  0 0.86555378E+03</rscale>
<asrwt>0</asrwt>
<pdfrwt beam="1">  1        2 0.71319423E-01 0.86555378E+03</pdfrwt>
<pdfrwt beam="2">  1       -2 0.62157507E-01 0.86555378E+03</pdfrwt>
<totfact> 0.16236474E+02</totfact>
</mgrwt>
</event>
<event>
 4    1  0.6739609E-006  0.8194195E+03  0.7818608E-02  0.9532326E-01
          2   -1    0    0  501    0  0.00000000000E+00  0.00000000000E+00  0.84694417699E+03  0.84694417699E+03  0.25500000000E-02 0.  1.
         -2   -1    0    0    0  501 -0.00000000000E+00 -0.00000000000E+00 -0.19819731298E+03  0.19819731300E+03  0.25500000000E-02 0. -1.
   -5000001    1    1    2    0    0 -0.27492340905E+03  0.16792652634E+03  0.27367689862E+03  0.49110207079E+03  0.25000000000E+03 0.  0.
    5000001    1    1    2    0    0  0.27492340905E+03 -0.16792652634E+03  0.37506996539E+03  0.55403941920E+03  0.25000000000E+03 0.  0.
<mgrwt>
<rscale>  0 0.81941945E+03</rscale>
<asrwt>0</asrwt>
<pdfrwt beam="1">  1        2 0.13029910E+00 0.81941945E+03</pdfrwt>
<pdfrwt beam="2">  1       -2 0.30491894E-01 0.81941945E+03</pdfrwt>
<totfact> 0.31848835E+02</totfact>
</mgrwt>
</event>
<event>
 4    1  0.6739609E-006  0.1069462E+04  0.7818608E-02  0.9235478E-01
         -2   -1    0    0    0  501 -0.00000000000E+00  0.00000000000E+00  0.31666150140E+03  0.31666150141E+03  0.25500000000E-02 0.  1.
          2   -1    0    0  501    0  0.00000000000E+00 -0.00000000000E+00 -0.90297503754E+03  0.90297503754E+03  0.25500000000E-02 0. -1.
   -5000001    1    1    2    0    0 -0.22843134009E+03  0.34000424118E+03 -0.56219365545E+03  0.73915185678E+03  0.25000000000E+03 0.  0.
    5000001    1    1    2    0    0  0.22843134009E+03 -0.34000424118E+03 -0.24119880686E+02  0.48048468217E+03  0.25000000000E+03 0.  0.
<mgrwt>
<rscale>  0 0.10694624E+04</rscale>
<asrwt>0</asrwt>
<pdfrwt beam="1">  1        2 0.13891924E+00 0.10694624E+04</pdfrwt>
<pdfrwt beam="2">  1       -2 0.48717155E-01 0.10694624E+04</pdfrwt>
<totfact> 0.11580732E+02</totfact>
</mgrwt>
</event>
<event>
 4    1  0.6739609E-006  0.1044309E+04  0.7818608E-02  0.9261239E-01
          2   -1    0    0  501    0  0.00000000000E+00  0.00000000000E+00  0.82484035482E+03  0.82484035483E+03  0.25500000000E-02 0.  1.
         -2   -1    0    0    0  501 -0.00000000000E+00 -0.00000000000E+00 -0.33054342184E+03  0.33054342185E+03  0.25500000000E-02 0. -1.
   -5000001    1    1    2    0    0  0.43273407276E+03 -0.92934197294E+02  0.11507832179E+03  0.52118956523E+03  0.25000000000E+03 0.  0.
    5000001    1    1    2    0    0 -0.43273407276E+03  0.92934197294E+02  0.37921861120E+03  0.63419421145E+03  0.25000000000E+03 0.  0.
<mgrwt>
<rscale>  0 0.10443094E+04</rscale>
<asrwt>0</asrwt>
<pdfrwt beam="1">  1        2 0.12689851E+00 0.10443094E+04</pdfrwt>
<pdfrwt beam="2">  1       -2 0.50852835E-01 0.10443094E+04</pdfrwt>
<totfact> 0.12037715E+02</totfact>
</mgrwt>
</event>
<event>
 4    1  0.6739609E-006  0.5873361E+03  0.7818608E-02  0.9932034E-01
          2   -1    0    0  501    0  0.00000000000E+00  0.00000000000E+00  0.36043810775E+03  0.36043810776E+03  0.25500000000E-02 0.  1.
         -2   -1    0    0    0  501 -0.00000000000E+00 -0.00000000000E+00 -0.23926693927E+03  0.23926693928E+03  0.25500000000E-02 0. -1.
   -5000001    1    1    2    0    0  0.12433947567E+02  0.15297142186E+03  0.46657799249E+02  0.29703839682E+03  0.25000000000E+03 0.  0.
    5000001    1    1    2    0    0 -0.12433947567E+02 -0.15297142186E+03  0.74513369236E+02  0.30266665022E+03  0.25000000000E+03 0.  0.
<mgrwt>
<rscale>  0 0.58733610E+03</rscale>
<asrwt>0</asrwt>
<pdfrwt beam="1">  1        2 0.55452017E-01 0.58733610E+03</pdfrwt>
<pdfrwt beam="2">  1       -2 0.36810298E-01 0.58733610E+03</pdfrwt>
<totfact> 0.62576244E+02</totfact>
</mgrwt>
</event>
<event>
 4    1  0.6739609E-006  0.8748077E+03  0.7818608E-02  0.9457633E-01
          2   -1    0    0  501    0  0.00000000000E+00  0.00000000000E+00  0.21351065577E+04  0.21351065577E+04  0.25500000000E-02 0.  1.
         -2   -1    0    0    0  501 -0.00000000000E+00 -0.00000000000E+00 -0.89607759063E+02  0.89607759099E+02  0.25500000000E-02 0. -1.
   -5000001    1    1    2    0    0  0.32813862147E+03  0.10465595768E+03  0.12795169589E+04  0.13484403852E+04  0.25000000000E+03 0.  0.
    5000001    1    1    2    0    0 -0.32813862147E+03 -0.10465595768E+03  0.76598183981E+03  0.87627393165E+03  0.25000000000E+03 0.  0.
<mgrwt>
<rscale>  0 0.87480767E+03</rscale>
<asrwt>0</asrwt>
<pdfrwt beam="1">  1        2 0.32847793E+00 0.87480767E+03</pdfrwt>
<pdfrwt beam="2">  1       -2 0.13785809E-01 0.87480767E+03</pdfrwt>
<totfact> 0.23060885E+02</totfact>
</mgrwt>
</event>
<event>
 4    1  0.6739609E-006  0.6163401E+03  0.7818608E-02  0.9872074E-01
         -2   -1    0    0    0  501 -0.00000000000E+00  0.00000000000E+00  0.83640155382E+03  0.83640155383E+03  0.25500000000E-02 0. -1.
          2   -1    0    0  501    0  0.00000000000E+00 -0.00000000000E+00 -0.11354448002E+03  0.11354448004E+03  0.25500000000E-02 0.  1.
   -5000001    1    1    2    0    0  0.40773542369E+02 -0.12119210340E+03  0.55710765565E+03  0.62387414409E+03  0.25000000000E+03 0.  0.
    5000001    1    1    2    0    0 -0.40773542369E+02  0.12119210340E+03  0.16574941816E+03  0.32607188978E+03  0.25000000000E+03 0.  0.
<mgrwt>
<rscale>  0 0.61634010E+03</rscale>
<asrwt>0</asrwt>
<pdfrwt beam="1">  1        2 0.17468382E-01 0.61634010E+03</pdfrwt>
<pdfrwt beam="2">  1       -2 0.12867716E+00 0.61634010E+03</pdfrwt>
<totfact> 0.15078628E+02</totfact>
</mgrwt>
</event>
<event>
 4    1  0.6739609E-006  0.1957546E+04  0.7818608E-02  0.8626731E-01
         -2   -1    0    0    0  501 -0.00000000000E+00  0.00000000000E+00  0.47621559438E+03  0.47621559439E+03  0.25500000000E-02 0. -1.
          2   -1    0    0  501    0  0.00000000000E+00 -0.00000000000E+00 -0.20116858643E+04  0.20116858643E+04  0.25500000000E-02 0.  1.
   -5000001    1    1    2    0    0  0.68771251567E+03  0.51491639032E+03 -0.26349689791E+03  0.93274755880E+03  0.25000000000E+03 0.  0.
    5000001    1    1    2    0    0 -0.68771251567E+03 -0.51491639032E+03 -0.12719733720E+04  0.15551538999E+04  0.25000000000E+03 0.  0.
<mgrwt>
<rscale>  0 0.19575456E+04</rscale>
<asrwt>0</asrwt>
<pdfrwt beam="1">  1        2 0.30949013E+00 0.19575456E+04</pdfrwt>
<pdfrwt beam="2">  1       -2 0.73263939E-01 0.19575456E+04</pdfrwt>
<totfact> 0.10318575E+01</totfact>
</mgrwt>
</event>
<event>
 4    1  0.6739609E-006  0.9657351E+03  0.7818608E-02  0.9346945E-01
         -2   -1    0    0    0  501 -0.00000000000E+00  0.00000000000E+00  0.19515491346E+03  0.19515491348E+03  0.25500000000E-02 0. -1.
          2   -1    0    0  501    0  0.00000000000E+00 -0.00000000000E+00 -0.11947487744E+04  0.11947487744E+04  0.25500000000E-02 0.  1.
   -5000001    1    1    2    0    0 -0.27326963582E+03  0.26602034245E+03 -0.72834722957E+03  0.85932112931E+03  0.25000000000E+03 0.  0.
    5000001    1    1    2    0    0  0.27326963582E+03 -0.26602034245E+03 -0.27124663141E+03  0.53058255861E+03  0.25000000000E+03 0.  0.
<mgrwt>
<rscale>  0 0.96573515E+03</rscale>
<asrwt>0</asrwt>
<pdfrwt beam="1">  1        2 0.18380750E+00 0.96573515E+03</pdfrwt>
<pdfrwt beam="2">  1       -2 0.30023834E-01 0.96573515E+03</pdfrwt>
<totfact> 0.19505337E+02</totfact>
</mgrwt>
</event>
<event>
 4    1  0.6739609E-006  0.5947483E+03  0.7818608E-02  0.9916362E-01
          2   -1    0    0  501    0  0.00000000000E+00  0.00000000000E+00  0.54901185482E+03  0.54901185483E+03  0.25500000000E-02 0.  1.
         -2   -1    0    0    0  501 -0.00000000000E+00 -0.00000000000E+00 -0.16107372262E+03  0.16107372264E+03  0.25500000000E-02 0. -1.
   -5000001    1    1    2    0    0 -0.32931772972E+02  0.15507712975E+03  0.22769542932E+03  0.37346837400E+03  0.25000000000E+03 0.  0.
    5000001    1    1    2    0    0  0.32931772972E+02 -0.15507712975E+03  0.16024270288E+03  0.33661720347E+03  0.25000000000E+03 0.  0.
<mgrwt>
<rscale>  0 0.59474829E+03</rscale>
<asrwt>0</asrwt>
<pdfrwt beam="1">  1        2 0.84463362E-01 0.59474829E+03</pdfrwt>
<pdfrwt beam="2">  1       -2 0.24780573E-01 0.59474829E+03</pdfrwt>
<totfact> 0.80725466E+02</totfact>
</mgrwt>
</event>
<event>
 4    1  0.6739609E-006  0.7478205E+03  0.7818608E-02  0.9638776E-01
         -2   -1    0    0    0  501 -0.00000000000E+00  0.00000000000E+00  0.14085293431E+03  0.14085293434E+03  0.25500000000E-02 0. -1.
          2   -1    0    0  501    0  0.00000000000E+00 -0.00000000000E+00 -0.99258758094E+03  0.99258758094E+03  0.25500000000E-02 0.  1.
   -5000001    1    1    2    0    0  0.22077576369E+03 -0.29954153284E+02 -0.17374954563E+03  0.37726395765E+03  0.25000000000E+03 0.  0.
    5000001    1    1    2    0    0 -0.22077576369E+03  0.29954153284E+02 -0.67798510100E+03  0.75617655763E+03  0.25000000000E+03 0.  0.
<mgrwt>
<rscale>  0 0.74782050E+03</rscale>
<asrwt>0</asrwt>
<pdfrwt beam="1">  1        2 0.15270578E+00 0.74782050E+03</pdfrwt>
<pdfrwt beam="2">  1       -2 0.21669683E-01 0.74782050E+03</pdfrwt>
<totfact> 0.47455542E+02</totfact>
</mgrwt>
</event>
<event>
 4    1  0.6739609E-006  0.8017289E+03  0.7818608E-02  0.9557518E-01
         -2   -1    0    0    0  501 -0.00000000000E+00  0.00000000000E+00  0.14618399277E+03  0.14618399279E+03  0.25500000000E-02 0. -1.
          2   -1    0    0  501    0  0.00000000000E+00 -0.00000000000E+00 -0.10992469877E+04  0.10992469877E+04  0.25500000000E-02 0.  1.
   -5000001    1    1    2    0    0 -0.47456171822E+02  0.20312826322E+03 -0.11328374860E+03  0.34474104377E+03  0.25000000000E+03 0.  0.
    5000001    1    1    2    0    0  0.47456171822E+02 -0.20312826322E+03 -0.83977924634E+03  0.90068993674E+03  0.25000000000E+03 0.  0.
<mgrwt>
<rscale>  0 0.80172892E+03</rscale>
<asrwt>0</asrwt>
<pdfrwt beam="1">  1        2 0.16911492E+00 0.80172892E+03</pdfrwt>
<pdfrwt beam="2">  1       -2 0.22489846E-01 0.80172892E+03</pdfrwt>
<totfact> 0.38007120E+02</totfact>
</mgrwt>
</event>
<event>
 4    1  0.6739609E-006  0.5914184E+03  0.7818608E-02  0.9923372E-01
         -2   -1    0    0    0  501 -0.00000000000E+00  0.00000000000E+00  0.74278500040E+02  0.74278500084E+02  0.25500000000E-02 0. -1.
          2   -1    0    0  501    0  0.00000000000E+00 -0.00000000000E+00 -0.11772441087E+04  0.11772441087E+04  0.25500000000E-02 0.  1.
   -5000001    1    1    2    0    0 -0.45711916818E+02  0.15094947201E+03 -0.56901026947E+03  0.64120824169E+03  0.25000000000E+03 0.  0.
    5000001    1    1    2    0    0  0.45711916818E+02 -0.15094947201E+03 -0.53395533914E+03  0.61031436705E+03  0.25000000000E+03 0.  0.
<mgrwt>
<rscale>  0 0.59141839E+03</rscale>
<asrwt>0</asrwt>
<pdfrwt beam="1">  1        2 0.18111446E+00 0.59141839E+03</pdfrwt>
<pdfrwt beam="2">  1       -2 0.11427462E-01 0.59141839E+03</pdfrwt>
<totfact> 0.10906112E+03</totfact>
</mgrwt>
</event>
<event>
 4    1  0.6739609E-006  0.7234712E+03  0.7818608E-02  0.9677914E-01
          2   -1    0    0  501    0  0.00000000000E+00  0.00000000000E+00  0.12587100333E+04  0.12587100333E+04  0.25500000000E-02 0.  1.
         -2   -1    0    0    0  501 -0.00000000000E+00 -0.00000000000E+00 -0.10395772266E+03  0.10395772270E+03  0.25500000000E-02 0. -1.
   -5000001    1    1    2    0    0  0.23577387959E+03  0.10236507919E+03  0.66740528440E+03  0.75762638905E+03  0.25000000000E+03 0.  0.
    5000001    1    1    2    0    0 -0.23577387959E+03 -0.10236507919E+03  0.48734702620E+03  0.60504136691E+03  0.25000000000E+03 0.  0.
<mgrwt>
<rscale>  0 0.72347116E+03</rscale>
<asrwt>0</asrwt>
<pdfrwt beam="1">  1        2 0.19364769E+00 0.72347116E+03</pdfrwt>
<pdfrwt beam="2">  1       -2 0.15993497E-01 0.72347116E+03</pdfrwt>
<totfact> 0.55440244E+02</totfact>
</mgrwt>
</event>
<event>
 4    1  0.6739609E-006  0.9268758E+03  0.7818608E-02  0.9392595E-01
         -2   -1    0    0    0  501 -0.00000000000E+00  0.00000000000E+00  0.22731228208E+03  0.22731228210E+03  0.25500000000E-02 0. -1.
          2   -1    0    0  501    0  0.00000000000E+00 -0.00000000000E+00 -0.94484427327E+03  0.94484427327E+03  0.25500000000E-02 0.  1.
   -5000001    1    1    2    0    0  0.49326974779E+02  0.38629824515E+03 -0.39013353521E+03  0.60527981954E+03  0.25000000000E+03 0.  0.
    5000001    1    1    2    0    0 -0.49326974779E+02 -0.38629824515E+03 -0.32739845597E+03  0.56687673583E+03  0.25000000000E+03 0.  0.
<mgrwt>
<rscale>  0 0.92687584E+03</rscale>
<asrwt>0</asrwt>
<pdfrwt beam="1">  1        2 0.14536066E+00 0.92687584E+03</pdfrwt>
<pdfrwt beam="2">  1       -2 0.34971121E-01 0.92687584E+03</pdfrwt>
<totfact> 0.21006270E+02</totfact>
</mgrwt>
</event>
<event>
 4    1  0.6739609E-006  0.5761141E+03  0.7818608E-02  0.9956239E-01
          2   -1    0    0  501    0  0.00000000000E+00  0.00000000000E+00  0.13749588609E+04  0.13749588609E+04  0.25500000000E-02 0.  1.
         -2   -1    0    0    0  501 -0.00000000000E+00 -0.00000000000E+00 -0.60348625134E+02  0.60348625187E+02  0.25500000000E-02 0. -1.
   -5000001    1    1    2    0    0 -0.87670906955E+02  0.10398529174E+03  0.76810056093E+03  0.81913222407E+03  0.25000000000E+03 0.  0.
    5000001    1    1    2    0    0  0.87670906955E+02 -0.10398529174E+03  0.54650967484E+03  0.61617526202E+03  0.25000000000E+03 0.  0.
<mgrwt>
<rscale>  0 0.57611414E+03</rscale>
<asrwt>0</asrwt>
<pdfrwt beam="1">  1        2 0.21153210E+00 0.57611414E+03</pdfrwt>
<pdfrwt beam="2">  1       -2 0.92844054E-02 0.57611414E+03</pdfrwt>
<totfact> 0.11767533E+03</totfact>
</mgrwt>
</event>
<event>
 4    1  0.6739609E-006  0.6701959E+03  0.7818608E-02  0.9769604E-01
         -2   -1    0    0    0  501 -0.00000000000E+00  0.00000000000E+00  0.36800031989E+02  0.36800032077E+02  0.25500000000E-02 0. -1.
          2   -1    0    0  501    0  0.00000000000E+00 -0.00000000000E+00 -0.30513733898E+04  0.30513733898E+04  0.25500000000E-02 0.  1.
   -5000001    1    1    2    0    0 -0.20196090982E+03  0.82785599778E+01 -0.19428189378E+04  0.19692389822E+04  0.25000000000E+03 0.  0.
    5000001    1    1    2    0    0  0.20196090982E+03 -0.82785599778E+01 -0.10717544200E+04  0.11189344397E+04  0.25000000000E+03 0.  0.
<mgrwt>
<rscale>  0 0.67019591E+03</rscale>
<asrwt>0</asrwt>
<pdfrwt beam="1">  1        2 0.46944186E+00 0.67019591E+03</pdfrwt>
<pdfrwt beam="2">  1       -2 0.56615458E-02 0.67019591E+03</pdfrwt>
<totfact> 0.29322703E+02</totfact>
</mgrwt>
</event>
<event>
 4    1  0.6739609E-006  0.6346371E+03  0.7818608E-02  0.9836041E-01
          2   -1    0    0  501    0  0.00000000000E+00  0.00000000000E+00  0.18851912991E+04  0.18851912991E+04  0.25500000000E-02 0.  1.
         -2   -1    0    0    0  501 -0.00000000000E+00 -0.00000000000E+00 -0.53411589416E+02  0.53411589477E+02  0.25500000000E-02 0. -1.
   -5000001    1    1    2    0    0 -0.98601383193E+02  0.16707796413E+03  0.84400557529E+03  0.90137821695E+03  0.25000000000E+03 0.  0.
    5000001    1    1    2    0    0  0.98601383193E+02 -0.16707796413E+03  0.98777413438E+03  0.10372246716E+04  0.25000000000E+03 0.  0.
<mgrwt>
<rscale>  0 0.63463710E+03</rscale>
<asrwt>0</asrwt>
<pdfrwt beam="1">  1        2 0.29002940E+00 0.63463710E+03</pdfrwt>
<pdfrwt beam="2">  1       -2 0.82171684E-02 0.63463710E+03</pdfrwt>
<totfact> 0.74982101E+02</totfact>
</mgrwt>
</event>
<event>
 4    1  0.6739609E-006  0.6803353E+03  0.7818608E-02  0.9751465E-01
         -2   -1    0    0    0  501 -0.00000000000E+00  0.00000000000E+00  0.60309755411E+02  0.60309755464E+02  0.25500000000E-02 0. -1.
          2   -1    0    0  501    0  0.00000000000E+00 -0.00000000000E+00 -0.19186619108E+04  0.19186619108E+04  0.25500000000E-02 0.  1.
   -5000001    1    1    2    0    0  0.20680793681E+03 -0.10004288602E+03 -0.86844312855E+03  0.93245459369E+03  0.25000000000E+03 0.  0.
    5000001    1    1    2    0    0 -0.20680793681E+03  0.10004288602E+03 -0.98990902687E+03  0.10465170726E+04  0.25000000000E+03 0.  0.
<mgrwt>
<rscale>  0 0.68033530E+03</rscale>
<asrwt>0</asrwt>
<pdfrwt beam="1">  1        2 0.29517871E+00 0.68033530E+03</pdfrwt>
<pdfrwt beam="2">  1       -2 0.92784254E-02 0.68033530E+03</pdfrwt>
<totfact> 0.58978334E+02</totfact>
</mgrwt>
</event>
<event>
 4    1  0.6739609E-006  0.6952068E+03  0.7818608E-02  0.9725465E-01
          2   -1    0    0  501    0  0.00000000000E+00  0.00000000000E+00  0.25455264648E+03  0.25455264650E+03  0.25500000000E-02 0.  1.
         -2   -1    0    0    0  501 -0.00000000000E+00 -0.00000000000E+00 -0.47466847387E+03  0.47466847388E+03  0.25500000000E-02 0. -1.
   -5000001    1    1    2    0    0 -0.73804047779E+02  0.21611456098E+03 -0.19248765774E+03  0.38949202728E+03  0.25000000000E+03 0.  0.
    5000001    1    1    2    0    0  0.73804047779E+02 -0.21611456098E+03 -0.27628169652E+02  0.33972909309E+03  0.25000000000E+03 0.  0.
<mgrwt>
<rscale>  0 0.69520678E+03</rscale>
<asrwt>0</asrwt>
<pdfrwt beam="1">  1        2 0.39161946E-01 0.69520678E+03</pdfrwt>
<pdfrwt beam="2">  1       -2 0.73025919E-01 0.69520678E+03</pdfrwt>
<totfact> 0.22562575E+02</totfact>
</mgrwt>
</event>
<event>
 4    1  0.6739609E-006  0.8076400E+03  0.7818608E-02  0.9549024E-01
          2   -1    0    0  501    0  0.00000000000E+00  0.00000000000E+00  0.16590127396E+04  0.16590127396E+04  0.25500000000E-02 0. -1.
         -2   -1    0    0    0  501 -0.00000000000E+00 -0.00000000000E+00 -0.98293764975E+02  0.98293765008E+02  0.25500000000E-02 0.  1.
   -5000001    1    1    2    0    0 -0.22531478812E+02 -0.30375385039E+03  0.97248303968E+03  0.10492841996E+04  0.25000000000E+03 0.  0.
    5000001    1    1    2    0    0  0.22531478812E+02  0.30375385039E+03  0.58823593494E+03  0.70802230496E+03  0.25000000000E+03 0.  0.
<mgrwt>
<rscale>  0 0.80764004E+03</rscale>
<asrwt>0</asrwt>
<pdfrwt beam="1">  1        2 0.25523272E+00 0.80764004E+03</pdfrwt>
<pdfrwt beam="2">  1       -2 0.15122118E-01 0.80764004E+03</pdfrwt>
<totfact> 0.36148992E+02</totfact>
</mgrwt>
</event>
<event>
 4    1  0.6739609E-006  0.6173956E+03  0.7818608E-02  0.9869959E-01
          2   -1    0    0  501    0  0.00000000000E+00  0.00000000000E+00  0.19207613437E+04  0.19207613437E+04  0.25500000000E-02 0.  1.
         -2   -1    0    0    0  501 -0.00000000000E+00 -0.00000000000E+00 -0.49612793537E+02  0.49612793603E+02  0.25500000000E-02 0. -1.
   -5000001    1    1    2    0    0 -0.16215185204E+03  0.22356845462E+02  0.11828077439E+04  0.12199701680E+04  0.25000000000E+03 0.  0.
    5000001    1    1    2    0    0  0.16215185204E+03 -0.22356845462E+02  0.68834080626E+03  0.75040396935E+03  0.25000000000E+03 0.  0.
<mgrwt>
<rscale>  0 0.61739561E+03</rscale>
<asrwt>0</asrwt>
<pdfrwt beam="1">  1        2 0.29550175E+00 0.61739561E+03</pdfrwt>
<pdfrwt beam="2">  1       -2 0.76327374E-02 0.61739561E+03</pdfrwt>
<totfact> 0.80773733E+02</totfact>
</mgrwt>
</event>
<event>
 4    1  0.6739609E-006  0.5882753E+03  0.7818608E-02  0.9930034E-01
          2   -1    0    0  501    0  0.00000000000E+00  0.00000000000E+00  0.17642052419E+04  0.17642052419E+04  0.25500000000E-02 0.  1.
         -2   -1    0    0    0  501 -0.00000000000E+00 -0.00000000000E+00 -0.49040185956E+02  0.49040186022E+02  0.25500000000E-02 0. -1.
   -5000001    1    1    2    0    0 -0.29865594589E+02 -0.13931127984E+03  0.10455114802E+04  0.10843863895E+04  0.25000000000E+03 0.  0.
    5000001    1    1    2    0    0  0.29865594589E+02  0.13931127984E+03  0.66965357572E+03  0.72885903843E+03  0.25000000000E+03 0.  0.
<mgrwt>
<rscale>  0 0.58827529E+03</rscale>
<asrwt>0</asrwt>
<pdfrwt beam="1">  1        2 0.27141618E+00 0.58827529E+03</pdfrwt>
<pdfrwt beam="2">  1       -2 0.75446444E-02 0.58827529E+03</pdfrwt>
<totfact> 0.10017438E+03</totfact>
</mgrwt>
</event>
<event>
 4    1  0.6739609E-006  0.7316975E+03  0.7818608E-02  0.9664510E-01
         -2   -1    0    0    0  501 -0.00000000000E+00  0.00000000000E+00  0.48737133798E+02  0.48737133865E+02  0.25500000000E-02 0. -1.
          2   -1    0    0  501    0  0.00000000000E+00 -0.00000000000E+00 -0.27462694024E+04  0.27462694024E+04  0.25500000000E-02 0.  1.
   -5000001    1    1    2    0    0 -0.21662932810E+03  0.21551967837E+02 -0.19399561822E+04  0.19680758984E+04  0.25000000000E+03 0.  0.
    5000001    1    1    2    0    0  0.21662932810E+03 -0.21551967837E+02 -0.75757608642E+03  0.82693063786E+03  0.25000000000E+03 0.  0.
<mgrwt>
<rscale>  0 0.73169748E+03</rscale>
<asrwt>0</asrwt>
<pdfrwt beam="1">  1        2 0.42250286E+00 0.73169748E+03</pdfrwt>
<pdfrwt beam="2">  1       -2 0.74980228E-02 0.73169748E+03</pdfrwt>
<totfact> 0.28494031E+02</totfact>
</mgrwt>
</event>
<event>
 4    1  0.6739609E-006  0.1496722E+04  0.7818608E-02  0.8886636E-01
         -2   -1    0    0    0  501 -0.00000000000E+00  0.00000000000E+00  0.34170622195E+03  0.34170622196E+03  0.25500000000E-02 0. -1.
          2   -1    0    0  501    0  0.00000000000E+00 -0.00000000000E+00 -0.16389637238E+04  0.16389637238E+04  0.25500000000E-02 0.  1.
   -5000001    1    1    2    0    0 -0.20692556730E+03 -0.57868026163E+03 -0.11067697943E+04  0.12903985482E+04  0.25000000000E+03 0.  0.
    5000001    1    1    2    0    0  0.20692556730E+03  0.57868026163E+03 -0.19048770759E+03  0.69027139761E+03  0.25000000000E+03 0.  0.
<mgrwt>
<rscale>  0 0.14967219E+04</rscale>
<asrwt>0</asrwt>
<pdfrwt beam="1">  1        2 0.25214826E+00 0.14967219E+04</pdfrwt>
<pdfrwt beam="2">  1       -2 0.52570189E-01 0.14967219E+04</pdfrwt>
<totfact> 0.34990346E+01</totfact>
</mgrwt>
</event>
<event>
 4    1  0.6739609E-006  0.5503548E+03  0.7818608E-02  0.1001412E+00
         -2   -1    0    0    0  501 -0.00000000000E+00  0.00000000000E+00  0.23578233267E+03  0.23578233268E+03  0.25500000000E-02 0. -1.
          2   -1    0    0  501    0  0.00000000000E+00 -0.00000000000E+00 -0.32115471085E+03  0.32115471086E+03  0.25500000000E-02 0.  1.
   -5000001    1    1    2    0    0 -0.90466280071E+02  0.27282234326E+02 -0.10899959999E+03  0.28863364485E+03  0.25000000000E+03 0.  0.
    5000001    1    1    2    0    0  0.90466280071E+02 -0.27282234326E+02  0.23627221815E+02  0.26830339869E+03  0.25000000000E+03 0.  0.
<mgrwt>
<rscale>  0 0.55035482E+03</rscale>
<asrwt>0</asrwt>
<pdfrwt beam="1">  1        2 0.49408417E-01 0.55035482E+03</pdfrwt>
<pdfrwt beam="2">  1       -2 0.36274205E-01 0.55035482E+03</pdfrwt>
<totfact> 0.73152298E+02</totfact>
</mgrwt>
</event>
<event>
 4    1  0.6739609E-006  0.5632963E+03  0.7818608E-02  0.9984624E-01
          2   -1    0    0  501    0  0.00000000000E+00  0.00000000000E+00  0.50943215069E+03  0.50943215070E+03  0.25500000000E-02 0.  1.
         -2   -1    0    0    0  501 -0.00000000000E+00 -0.00000000000E+00 -0.15571390763E+03  0.15571390765E+03  0.25500000000E-02 0. -1.
   -5000001    1    1    2    0    0 -0.12963131764E+03 -0.44710021439E+01  0.17825751831E+03  0.33331668306E+03  0.25000000000E+03 0.  0.
    5000001    1    1    2    0    0  0.12963131764E+03  0.44710021439E+01  0.17546072475E+03  0.33182937529E+03  0.25000000000E+03 0.  0.
<mgrwt>
<rscale>  0 0.56329627E+03</rscale>
<asrwt>0</asrwt>
<pdfrwt beam="1">  1        2 0.78374177E-01 0.56329627E+03</pdfrwt>
<pdfrwt beam="2">  1       -2 0.23955986E-01 0.56329627E+03</pdfrwt>
<totfact> 0.93603895E+02</totfact>
</mgrwt>
</event>
<event>
 4    1  0.6739609E-006  0.6119629E+03  0.7818608E-02  0.9880893E-01
         -2   -1    0    0    0  501 -0.00000000000E+00  0.00000000000E+00  0.11793816189E+03  0.11793816192E+03  0.25500000000E-02 0. -1.
          2   -1    0    0  501    0  0.00000000000E+00 -0.00000000000E+00 -0.79384520163E+03  0.79384520163E+03  0.25500000000E-02 0.  1.
   -5000001    1    1    2    0    0  0.12200884085E+03 -0.56391363214E+02 -0.50821375903E+03  0.58210597657E+03  0.25000000000E+03 0.  0.
    5000001    1    1    2    0    0 -0.12200884085E+03  0.56391363214E+02 -0.16769328071E+03  0.32967738698E+03  0.25000000000E+03 0.  0.
<mgrwt>
<rscale>  0 0.61196289E+03</rscale>
<asrwt>0</asrwt>
<pdfrwt beam="1">  1        2 0.12213003E+00 0.61196289E+03</pdfrwt>
<pdfrwt beam="2">  1       -2 0.18144333E-01 0.61196289E+03</pdfrwt>
<totfact> 0.88504283E+02</totfact>
</mgrwt>
</event>
<event>
 4    1  0.6739609E-006  0.5561405E+03  0.7818608E-02  0.1000083E+00
         -2   -1    0    0    0  501 -0.00000000000E+00  0.00000000000E+00  0.65396469109E+02  0.65396469159E+02  0.25500000000E-02 0. -1.
          2   -1    0    0  501    0  0.00000000000E+00 -0.00000000000E+00 -0.11823736151E+04  0.11823736151E+04  0.25500000000E-02 0.  1.
   -5000001    1    1    2    0    0  0.10009241724E+03  0.47566067448E+02 -0.44536816039E+03  0.52262206330E+03  0.25000000000E+03 0.  0.
    5000001    1    1    2    0    0 -0.10009241724E+03 -0.47566067448E+02 -0.67160898562E+03  0.72514802098E+03  0.25000000000E+03 0.  0.
<mgrwt>
<rscale>  0 0.55614048E+03</rscale>
<asrwt>0</asrwt>
<pdfrwt beam="1">  1        2 0.18190362E+00 0.55614048E+03</pdfrwt>
<pdfrwt beam="2">  1       -2 0.10060996E-01 0.55614048E+03</pdfrwt>
<totfact> 0.13342292E+03</totfact>
</mgrwt>
</event>
<event>
 4    1  0.6739609E-006  0.6358344E+03  0.7818608E-02  0.9833729E-01
          2   -1    0    0  501    0  0.00000000000E+00  0.00000000000E+00  0.28271398714E+03  0.28271398715E+03  0.25500000000E-02 0.  1.
         -2   -1    0    0    0  501 -0.00000000000E+00 -0.00000000000E+00 -0.35750383617E+03  0.35750383618E+03  0.25500000000E-02 0. -1.
   -5000001    1    1    2    0    0  0.15708333426E+02 -0.19404123859E+03 -0.11281968280E+02  0.31705841232E+03  0.25000000000E+03 0.  0.
    5000001    1    1    2    0    0 -0.15708333426E+02  0.19404123859E+03 -0.63507880751E+02  0.32315941102E+03  0.25000000000E+03 0.  0.
<mgrwt>
<rscale>  0 0.63583437E+03</rscale>
<asrwt>0</asrwt>
<pdfrwt beam="1">  1        2 0.43494459E-01 0.63583437E+03</pdfrwt>
<pdfrwt beam="2">  1       -2 0.55000590E-01 0.63583437E+03</pdfrwt>
<totfact> 0.36821737E+02</totfact>
</mgrwt>
</event>
<event>
 4    1  0.6739609E-006  0.6361630E+03  0.7818608E-02  0.9833095E-01
          2   -1    0    0  501    0  0.00000000000E+00  0.00000000000E+00  0.99151934105E+02  0.99151934137E+02  0.25500000000E-02 0.  1.
         -2   -1    0    0    0  501 -0.00000000000E+00 -0.00000000000E+00 -0.10204121995E+04  0.10204121995E+04  0.25500000000E-02 0. -1.
   -5000001    1    1    2    0    0 -0.86629896141E+02 -0.17218484173E+03 -0.39193917147E+03  0.50325805782E+03  0.25000000000E+03 0.  0.
    5000001    1    1    2    0    0  0.86629896141E+02  0.17218484173E+03 -0.52932109395E+03  0.61630607584E+03  0.25000000000E+03 0.  0.
<mgrwt>
<rscale>  0 0.63616301E+03</rscale>
<asrwt>0</asrwt>
<pdfrwt beam="1">  1        2 0.15254144E-01 0.63616301E+03</pdfrwt>
<pdfrwt beam="2">  1       -2 0.15698649E+00 0.63616301E+03</pdfrwt>
<totfact> 0.10592835E+02</totfact>
</mgrwt>
</event>
<event>
 4    1  0.6739609E-006  0.7212702E+03  0.7818608E-02  0.9681533E-01
          2   -1    0    0  501    0  0.00000000000E+00  0.00000000000E+00  0.40844580516E+03  0.40844580516E+03  0.25500000000E-02 0.  1.
         -2   -1    0    0    0  501 -0.00000000000E+00 -0.00000000000E+00 -0.31842087624E+03  0.31842087625E+03  0.25500000000E-02 0. -1.
   -5000001    1    1    2    0    0  0.19388827749E+03 -0.17117699979E+03  0.70969684956E+02  0.36664823140E+03  0.25000000000E+03 0.  0.
    5000001    1    1    2    0    0 -0.19388827749E+03  0.17117699979E+03  0.19055243961E+02  0.36021845001E+03  0.25000000000E+03 0.  0.
<mgrwt>
<rscale>  0 0.72127019E+03</rscale>
<asrwt>0</asrwt>
<pdfrwt beam="1">  1        2 0.62837816E-01 0.72127019E+03</pdfrwt>
<pdfrwt beam="2">  1       -2 0.48987828E-01 0.72127019E+03</pdfrwt>
<totfact> 0.30911466E+02</totfact>
</mgrwt>
</event>
<event>
 4    1  0.6739609E-006  0.5696064E+03  0.7818608E-02  0.9970550E-01
          2   -1    0    0  501    0  0.00000000000E+00  0.00000000000E+00  0.70405948591E+03  0.70405948592E+03  0.25500000000E-02 0.  1.
         -2   -1    0    0    0  501 -0.00000000000E+00 -0.00000000000E+00 -0.11520739563E+03  0.11520739566E+03  0.25500000000E-02 0. -1.
   -5000001    1    1    2    0    0 -0.11382993148E+03  0.74917818302E+02  0.28500247273E+03  0.40286020189E+03  0.25000000000E+03 0.  0.
    5000001    1    1    2    0    0  0.11382993148E+03 -0.74917818302E+02  0.30384961755E+03  0.41640667969E+03  0.25000000000E+03 0.  0.
<mgrwt>
<rscale>  0 0.56960639E+03</rscale>
<asrwt>0</asrwt>
<pdfrwt beam="1">  1        2 0.10831684E+00 0.56960639E+03</pdfrwt>
<pdfrwt beam="2">  1       -2 0.17724215E-01 0.56960639E+03</pdfrwt>
<totfact> 0.10754381E+03</totfact>
</mgrwt>
</event>
<event>
 4    1  0.6739609E-006  0.8167467E+03  0.7818608E-02  0.9536088E-01
         -2   -1    0    0    0  501 -0.00000000000E+00  0.00000000000E+00  0.82599612996E+02  0.82599613036E+02  0.25500000000E-02 0. -1.
          2   -1    0    0  501    0  0.00000000000E+00 -0.00000000000E+00 -0.20190019860E+04  0.20190019860E+04  0.25500000000E-02 0.  1.
   -5000001    1    1    2    0    0 -0.92317378824E+00 -0.32236569875E+03 -0.92018015468E+03  0.10065545256E+04  0.25000000000E+03 0.  0.
    5000001    1    1    2    0    0  0.92317378824E+00  0.32236569875E+03 -0.10162222183E+04  0.10950470734E+04  0.25000000000E+03 0.  0.
<mgrwt>
<rscale>  0 0.81674667E+03</rscale>
<asrwt>0</asrwt>
<pdfrwt beam="1">  1        2 0.31061565E+00 0.81674667E+03</pdfrwt>
<pdfrwt beam="2">  1       -2 0.12707634E-01 0.81674667E+03</pdfrwt>
<totfact> 0.30745036E+02</totfact>
</mgrwt>
</event>
<event>
 4    1  0.6739609E-006  0.5936218E+03  0.7818608E-02  0.9918728E-01
          2   -1    0    0  501    0  0.00000000000E+00  0.00000000000E+00  0.10237164213E+04  0.10237164213E+04  0.25500000000E-02 0.  1.
         -2   -1    0    0    0  501 -0.00000000000E+00 -0.00000000000E+00 -0.86055766323E+02  0.86055766360E+02  0.25500000000E-02 0. -1.
   -5000001    1    1    2    0    0  0.10112734548E+02  0.11315960524E+03  0.67942311447E+03  0.73281862158E+03  0.25000000000E+03 0.  0.
    5000001    1    1    2    0    0 -0.10112734548E+02 -0.11315960524E+03  0.25823754052E+03  0.37695356610E+03  0.25000000000E+03 0.  0.
<mgrwt>
<rscale>  0 0.59362177E+03</rscale>
<asrwt>0</asrwt>
<pdfrwt beam="1">  1        2 0.15749484E+00 0.59362177E+03</pdfrwt>
<pdfrwt beam="2">  1       -2 0.13239348E-01 0.59362177E+03</pdfrwt>
<totfact> 0.10601489E+03</totfact>
</mgrwt>
</event>
<event>
 4    1  0.6739609E-006  0.6711521E+03  0.7818608E-02  0.9767879E-01
         -2   -1    0    0    0  501 -0.00000000000E+00  0.00000000000E+00  0.65739732083E+02  0.65739732133E+02  0.25500000000E-02 0. -1.
          2   -1    0    0  501    0  0.00000000000E+00 -0.00000000000E+00 -0.17129868091E+04  0.17129868092E+04  0.25500000000E-02 0.  1.
   -5000001    1    1    2    0    0 -0.59087944651E+02 -0.17562649495E+03 -0.11564947560E+04  0.11976293966E+04  0.25000000000E+03 0.  0.
    5000001    1    1    2    0    0  0.59087944651E+02  0.17562649495E+03 -0.49075232104E+03  0.58109714466E+03  0.25000000000E+03 0.  0.
<mgrwt>
<rscale>  0 0.67115213E+03</rscale>
<asrwt>0</asrwt>
<pdfrwt beam="1">  1        2 0.26353640E+00 0.67115213E+03</pdfrwt>
<pdfrwt beam="2">  1       -2 0.10113806E-01 0.67115213E+03</pdfrwt>
<totfact> 0.66379406E+02</totfact>
</mgrwt>
</event>
<event>
 4    1  0.6739609E-006  0.6283342E+03  0.7818608E-02  0.9848305E-01
         -2   -1    0    0    0  501 -0.00000000000E+00  0.00000000000E+00  0.86992440013E+02  0.86992440050E+02  0.25500000000E-02 0. -1.
          2   -1    0    0  501    0  0.00000000000E+00 -0.00000000000E+00 -0.11345924395E+04  0.11345924395E+04  0.25500000000E-02 0.  1.
   -5000001    1    1    2    0    0 -0.42843351424E+02 -0.13805832127E+03 -0.28327842064E+03  0.40452727527E+03  0.25000000000E+03 0.  0.
    5000001    1    1    2    0    0  0.42843351424E+02  0.13805832127E+03 -0.76432157880E+03  0.81705760424E+03  0.25000000000E+03 0.  0.
<mgrwt>
<rscale>  0 0.62833419E+03</rscale>
<asrwt>0</asrwt>
<pdfrwt beam="1">  1        2 0.17455267E+00 0.62833419E+03</pdfrwt>
<pdfrwt beam="2">  1       -2 0.13383453E-01 0.62833419E+03</pdfrwt>
<totfact> 0.88948210E+02</totfact>
</mgrwt>
</event>
<event>
 4    1  0.6739609E-006  0.6016554E+03  0.7818608E-02  0.9901978E-01
         -2   -1    0    0    0  501 -0.00000000000E+00  0.00000000000E+00  0.44264893207E+02  0.44264893281E+02  0.25500000000E-02 0. -1.
          2   -1    0    0  501    0  0.00000000000E+00 -0.00000000000E+00 -0.20444488027E+04  0.20444488027E+04  0.25500000000E-02 0.  1.
   -5000001    1    1    2    0    0  0.25280955835E+02  0.16520343738E+03 -0.10282966430E+04  0.10713660852E+04  0.25000000000E+03 0.  0.
    5000001    1    1    2    0    0 -0.25280955835E+02 -0.16520343738E+03 -0.97188726648E+03  0.10173476108E+04  0.25000000000E+03 0.  0.
<mgrwt>
<rscale>  0 0.60165541E+03</rscale>
<asrwt>0</asrwt>
<pdfrwt beam="1">  1        2 0.31453051E+00 0.60165541E+03</pdfrwt>
<pdfrwt beam="2">  1       -2 0.68099852E-02 0.60165541E+03</pdfrwt>
<totfact> 0.83017226E+02</totfact>
</mgrwt>
</event>
<event>
 4    1  0.6739609E-006  0.8990255E+03  0.7818608E-02  0.9426800E-01
         -2   -1    0    0    0  501 -0.00000000000E+00  0.00000000000E+00  0.96443223254E+03  0.96443223255E+03  0.25500000000E-02 0. -1.
          2   -1    0    0  501    0  0.00000000000E+00 -0.00000000000E+00 -0.20951364934E+03  0.20951364935E+03  0.25500000000E-02 0.  1.
   -5000001    1    1    2    0    0  0.28581072503E+03 -0.20857733104E+03  0.53398873082E+03  0.68763088805E+03  0.25000000000E+03 0.  0.
    5000001    1    1    2    0    0 -0.28581072503E+03  0.20857733104E+03  0.22092985239E+03  0.48631499385E+03  0.25000000000E+03 0.  0.
<mgrwt>
<rscale>  0 0.89902551E+03</rscale>
<asrwt>0</asrwt>
<pdfrwt beam="1">  1        2 0.32232870E-01 0.89902551E+03</pdfrwt>
<pdfrwt beam="2">  1       -2 0.14837419E+00 0.89902551E+03</pdfrwt>
<totfact> 0.50766796E+01</totfact>
</mgrwt>
</event>
<event>
 4    1  0.6739609E-006  0.6886963E+03  0.7818608E-02  0.9736761E-01
          2   -1    0    0  501    0  0.00000000000E+00  0.00000000000E+00  0.48928075596E+03  0.48928075597E+03  0.25500000000E-02 0.  1.
         -2   -1    0    0    0  501 -0.00000000000E+00 -0.00000000000E+00 -0.24234687574E+03  0.24234687575E+03  0.25500000000E-02 0. -1.
   -5000001    1    1    2    0    0 -0.70022811696E+02 -0.21592757038E+03  0.19510779291E+03  0.38999353926E+03  0.25000000000E+03 0.  0.
    5000001    1    1    2    0    0  0.70022811696E+02  0.21592757038E+03  0.51826087319E+02  0.34163409246E+03  0.25000000000E+03 0.  0.
<mgrwt>
<rscale>  0 0.68869634E+03</rscale>
<asrwt>0</asrwt>
<pdfrwt beam="1">  1        2 0.75273962E-01 0.68869634E+03</pdfrwt>
<pdfrwt beam="2">  1       -2 0.37284135E-01 0.68869634E+03</pdfrwt>
<totfact> 0.43157489E+02</totfact>
</mgrwt>
</event>
<event>
 4    1  0.6739609E-006  0.6478423E+03  0.7818608E-02  0.9810836E-01
         -2   -1    0    0    0  501 -0.00000000000E+00  0.00000000000E+00  0.22809731470E+03  0.22809731471E+03  0.25500000000E-02 0.  1.
          2   -1    0    0  501    0  0.00000000000E+00 -0.00000000000E+00 -0.46000059772E+03  0.46000059772E+03  0.25500000000E-02 0. -1.
   -5000001    1    1    2    0    0 -0.17141088033E+03 -0.70519250483E+01 -0.23702364458E+03  0.38485273499E+03  0.25000000000E+03 0.  0.
    5000001    1    1    2    0    0  0.17141088033E+03  0.70519250483E+01  0.51203615555E+01  0.30324517745E+03  0.25000000000E+03 0.  0.
<mgrwt>
<rscale>  0 0.64784227E+03</rscale>
<asrwt>0</asrwt>
<pdfrwt beam="1">  1        2 0.70769323E-01 0.64784227E+03</pdfrwt>
<pdfrwt beam="2">  1       -2 0.35091895E-01 0.64784227E+03</pdfrwt>
<totfact> 0.52062811E+02</totfact>
</mgrwt>
</event>
<event>
 4    1  0.6739609E-006  0.6589504E+03  0.7818608E-02  0.9790128E-01
         -2   -1    0    0    0  501 -0.00000000000E+00  0.00000000000E+00  0.15998531517E+03  0.15998531519E+03  0.25500000000E-02 0. -1.
          2   -1    0    0  501    0  0.00000000000E+00 -0.00000000000E+00 -0.67852409517E+03  0.67852409518E+03  0.25500000000E-02 0.  1.
   -5000001    1    1    2    0    0  0.90269496057E+02 -0.18413801791E+03 -0.17880498955E+03  0.36949508230E+03  0.25000000000E+03 0.  0.
    5000001    1    1    2    0    0 -0.90269496057E+02  0.18413801791E+03 -0.33973379045E+03  0.46901432807E+03  0.25000000000E+03 0.  0.
<mgrwt>
<rscale>  0 0.65895035E+03</rscale>
<asrwt>0</asrwt>
<pdfrwt beam="1">  1        2 0.10438832E+00 0.65895035E+03</pdfrwt>
<pdfrwt beam="2">  1       -2 0.24613126E-01 0.65895035E+03</pdfrwt>
<totfact> 0.63196044E+02</totfact>
</mgrwt>
</event>
<event>
 4    1  0.6739609E-006  0.8467287E+03  0.7818608E-02  0.9494738E-01
         -2   -1    0    0    0  501 -0.00000000000E+00  0.00000000000E+00  0.33007593137E+03  0.33007593138E+03  0.25500000000E-02 0. -1.
          2   -1    0    0  501    0  0.00000000000E+00 -0.00000000000E+00 -0.54301862528E+03  0.54301862528E+03  0.25500000000E-02 0.  1.
   -5000001    1    1    2    0    0  0.21712879496E+03 -0.70889163896E+02 -0.36848440792E+03  0.50045074287E+03  0.25000000000E+03 0.  0.
    5000001    1    1    2    0    0 -0.21712879496E+03  0.70889163896E+02  0.15554171402E+03  0.37264381379E+03  0.25000000000E+03 0.  0.
<mgrwt>
<rscale>  0 0.84672871E+03</rscale>
<asrwt>0</asrwt>
<pdfrwt beam="1">  1        2 0.83541327E-01 0.84672871E+03</pdfrwt>
<pdfrwt beam="2">  1       -2 0.50780912E-01 0.84672871E+03</pdfrwt>
<totfact> 0.20604439E+02</totfact>
</mgrwt>
</event>
<event>
 4    1  0.6739609E-006  0.1154556E+04  0.7818608E-02  0.9153591E-01
          2   -1    0    0  501    0  0.00000000000E+00  0.00000000000E+00  0.13201410519E+03  0.13201410522E+03  0.25500000000E-02 0.  1.
         -2   -1    0    0    0  501 -0.00000000000E+00 -0.00000000000E+00 -0.25243507474E+04  0.25243507474E+04  0.25500000000E-02 0. -1.
   -5000001    1    1    2    0    0 -0.46074868499E+02 -0.48891446478E+03 -0.15919381503E+04  0.16846148883E+04  0.25000000000E+03 0.  0.
    5000001    1    1    2    0    0  0.46074868499E+02  0.48891446478E+03 -0.80039849193E+03  0.97174996438E+03  0.25000000000E+03 0.  0.
<mgrwt>
<rscale>  0 0.11545560E+04</rscale>
<asrwt>0</asrwt>
<pdfrwt beam="1">  1        2 0.20309864E-01 0.11545560E+04</pdfrwt>
<pdfrwt beam="2">  1       -2 0.38836162E+00 0.11545560E+04</pdfrwt>
<totfact> 0.24947500E+00</totfact>
</mgrwt>
</event>
<event>
 4    1  0.6739609E-006  0.7322491E+03  0.7818608E-02  0.9663618E-01
          2   -1    0    0  501    0  0.00000000000E+00  0.00000000000E+00  0.10651229519E+04  0.10651229519E+04  0.25500000000E-02 0.  1.
         -2   -1    0    0    0  501 -0.00000000000E+00 -0.00000000000E+00 -0.12585135854E+03  0.12585135856E+03  0.25500000000E-02 0. -1.
   -5000001    1    1    2    0    0  0.20940989420E+03 -0.50832395221E+02  0.21190086788E+03  0.39222240374E+03  0.25000000000E+03 0.  0.
    5000001    1    1    2    0    0 -0.20940989420E+03  0.50832395221E+02  0.72737072545E+03  0.79875190669E+03  0.25000000000E+03 0.  0.
<mgrwt>
<rscale>  0 0.73224906E+03</rscale>
<asrwt>0</asrwt>
<pdfrwt beam="1">  1        2 0.16386507E+00 0.73224906E+03</pdfrwt>
<pdfrwt beam="2">  1       -2 0.19361748E-01 0.73224906E+03</pdfrwt>
<totfact> 0.52088289E+02</totfact>
</mgrwt>
</event>
<event>
 4    1  0.6739609E-006  0.9232471E+03  0.7818608E-02  0.9396979E-01
         -2   -1    0    0    0  501 -0.00000000000E+00  0.00000000000E+00  0.57904904520E+03  0.57904904520E+03  0.25500000000E-02 0. -1.
          2   -1    0    0  501    0  0.00000000000E+00 -0.00000000000E+00 -0.36801076114E+03  0.36801076114E+03  0.25500000000E-02 0.  1.
   -5000001    1    1    2    0    0 -0.13675749754E+02 -0.38708920744E+03  0.81002935118E+02  0.46806682872E+03  0.25000000000E+03 0.  0.
    5000001    1    1    2    0    0  0.13675749754E+02  0.38708920744E+03  0.13003534894E+03  0.47899297763E+03  0.25000000000E+03 0.  0.
<mgrwt>
<rscale>  0 0.92324705E+03</rscale>
<asrwt>0</asrwt>
<pdfrwt beam="1">  1        2 0.56617040E-01 0.92324705E+03</pdfrwt>
<pdfrwt beam="2">  1       -2 0.89084468E-01 0.92324705E+03</pdfrwt>
<totfact> 0.94767974E+01</totfact>
</mgrwt>
</event>
<event>
 4    1  0.6739609E-006  0.6846610E+03  0.7818608E-02  0.9743829E-01
         -2   -1    0    0    0  501 -0.00000000000E+00  0.00000000000E+00  0.21306961268E+03  0.21306961269E+03  0.25500000000E-02 0. -1.
          2   -1    0    0  501    0  0.00000000000E+00 -0.00000000000E+00 -0.55000888670E+03  0.55000888671E+03  0.25500000000E-02 0.  1.
   -5000001    1    1    2    0    0  0.20091411138E+03 -0.98054821702E+02 -0.24495102368E+03  0.41530980269E+03  0.25000000000E+03 0.  0.
    5000001    1    1    2    0    0 -0.20091411138E+03  0.98054821702E+02 -0.91988250348E+02  0.34776869671E+03  0.25000000000E+03 0.  0.
<mgrwt>
<rscale>  0 0.68466103E+03</rscale>
<asrwt>0</asrwt>
<pdfrwt beam="1">  1        2 0.84616751E-01 0.68466103E+03</pdfrwt>
<pdfrwt beam="2">  1       -2 0.32779941E-01 0.68466103E+03</pdfrwt>
<totfact> 0.48100468E+02</totfact>
</mgrwt>
</event>
<event>
 4    1  0.6739609E-006  0.7089281E+03  0.7818608E-02  0.9702085E-01
          2   -1    0    0  501    0  0.00000000000E+00  0.00000000000E+00  0.75549145541E+03  0.75549145542E+03  0.25500000000E-02 0.  1.
         -2   -1    0    0    0  501 -0.00000000000E+00 -0.00000000000E+00 -0.16630863096E+03  0.16630863098E+03  0.25500000000E-02 0. -1.
   -5000001    1    1    2    0    0 -0.15939221451E+03 -0.18612053073E+03  0.22221839804E+03  0.41464170851E+03  0.25000000000E+03 0.  0.
    5000001    1    1    2    0    0  0.15939221451E+03  0.18612053073E+03  0.36696442642E+03  0.50715837789E+03  0.25000000000E+03 0.  0.
<mgrwt>
<rscale>  0 0.70892806E+03</rscale>
<asrwt>0</asrwt>
<pdfrwt beam="1">  1        2 0.11622945E+00 0.70892806E+03</pdfrwt>
<pdfrwt beam="2">  1       -2 0.25585943E-01 0.70892806E+03</pdfrwt>
<totfact> 0.51348898E+02</totfact>
</mgrwt>
</event>
<event>
 4    1  0.6739609E-006  0.9237577E+03  0.7818608E-02  0.9396361E-01
          2   -1    0    0  501    0  0.00000000000E+00  0.00000000000E+00  0.13235757776E+04  0.13235757776E+04  0.25500000000E-02 0.  1.
         -2   -1    0    0    0  501 -0.00000000000E+00 -0.00000000000E+00 -0.16117860223E+03  0.16117860225E+03  0.25500000000E-02 0. -1.
   -5000001    1    1    2    0    0 -0.10963721007E+03 -0.31476355178E+03  0.26080275435E+03  0.49154296662E+03  0.25000000000E+03 0.  0.
    5000001    1    1    2    0    0  0.10963721007E+03  0.31476355178E+03  0.90159442105E+03  0.99321141326E+03  0.25000000000E+03 0.  0.
<mgrwt>
<rscale>  0 0.92375775E+03</rscale>
<asrwt>0</asrwt>
<pdfrwt beam="1">  1        2 0.20362704E+00 0.92375775E+03</pdfrwt>
<pdfrwt beam="2">  1       -2 0.24796708E-01 0.92375775E+03</pdfrwt>
<totfact> 0.23331765E+02</totfact>
</mgrwt>
</event>
<event>
 4    1  0.6739609E-006  0.6455250E+03  0.7818608E-02  0.9815213E-01
         -2   -1    0    0    0  501 -0.00000000000E+00  0.00000000000E+00  0.97905369039E+02  0.97905369072E+02  0.25500000000E-02 0. -1.
          2   -1    0    0  501    0  0.00000000000E+00 -0.00000000000E+00 -0.10640440720E+04  0.10640440720E+04  0.25500000000E-02 0.  1.
   -5000001    1    1    2    0    0 -0.38775669590E+02  0.12661872925E+03 -0.76273605201E+03  0.81351222498E+03  0.25000000000E+03 0.  0.
    5000001    1    1    2    0    0  0.38775669590E+02 -0.12661872925E+03 -0.20340265095E+03  0.34843721610E+03  0.25000000000E+03 0.  0.
<mgrwt>
<rscale>  0 0.64552499E+03</rscale>
<asrwt>0</asrwt>
<pdfrwt beam="1">  1        2 0.16369908E+00 0.64552499E+03</pdfrwt>
<pdfrwt beam="2">  1       -2 0.15062365E-01 0.64552499E+03</pdfrwt>
<totfact> 0.80490199E+02</totfact>
</mgrwt>
</event>
<event>
 4    1  0.6739609E-006  0.5668379E+03  0.7818608E-02  0.9976700E-01
         -2   -1    0    0    0  501 -0.00000000000E+00  0.00000000000E+00  0.10952858940E+03  0.10952858943E+03  0.25500000000E-02 0. -1.
          2   -1    0    0  501    0  0.00000000000E+00 -0.00000000000E+00 -0.73338195519E+03  0.73338195519E+03  0.25500000000E-02 0.  1.
   -5000001    1    1    2    0    0  0.13321583338E+03  0.88674718833E+01 -0.31355615419E+03  0.42266127354E+03  0.25000000000E+03 0.  0.
    5000001    1    1    2    0    0 -0.13321583338E+03 -0.88674718833E+01 -0.31029721160E+03  0.42024927108E+03  0.25000000000E+03 0.  0.
<mgrwt>
<rscale>  0 0.56683786E+03</rscale>
<asrwt>0</asrwt>
<pdfrwt beam="1">  1        2 0.11282799E+00 0.56683786E+03</pdfrwt>
<pdfrwt beam="2">  1       -2 0.16850553E-01 0.56683786E+03</pdfrwt>
<totfact> 0.11137033E+03</totfact>
</mgrwt>
</event>
<event>
 4    1  0.6739609E-006  0.6987092E+03  0.7818608E-02  0.9719442E-01
         -2   -1    0    0    0  501 -0.00000000000E+00  0.00000000000E+00  0.76967271610E+02  0.76967271652E+02  0.25500000000E-02 0. -1.
          2   -1    0    0  501    0  0.00000000000E+00 -0.00000000000E+00 -0.15857211863E+04  0.15857211863E+04  0.25500000000E-02 0.  1.
   -5000001    1    1    2    0    0 -0.12736051433E+03  0.27511786830E+02 -0.26338822369E+03  0.38581207265E+03  0.25000000000E+03 0.  0.
    5000001    1    1    2    0    0  0.12736051433E+03 -0.27511786830E+02 -0.12453656910E+04  0.12768763853E+04  0.25000000000E+03 0.  0.
<mgrwt>
<rscale>  0 0.69870919E+03</rscale>
<asrwt>0</asrwt>
<pdfrwt beam="1">  1        2 0.24395708E+00 0.69870919E+03</pdfrwt>
<pdfrwt beam="2">  1       -2 0.11841120E-01 0.69870919E+03</pdfrwt>
<totfact> 0.60094477E+02</totfact>
</mgrwt>
</event>
<event>
 4    1  0.6739609E-006  0.1024370E+04  0.7818608E-02  0.9282213E-01
         -2   -1    0    0    0  501 -0.00000000000E+00  0.00000000000E+00  0.72385502208E+02  0.72385502253E+02  0.25500000000E-02 0. -1.
          2   -1    0    0  501    0  0.00000000000E+00 -0.00000000000E+00 -0.36241176619E+04  0.36241176619E+04  0.25500000000E-02 0.  1.
   -5000001    1    1    2    0    0 -0.35972431897E+03  0.21454600087E+03 -0.23395646088E+04  0.23898732458E+04  0.25000000000E+03 0.  0.
    5000001    1    1    2    0    0  0.35972431897E+03 -0.21454600087E+03 -0.12121675508E+04  0.13066299183E+04  0.25000000000E+03 0.  0.
<mgrwt>
<rscale>  0 0.10243702E+04</rscale>
<asrwt>0</asrwt>
<pdfrwt beam="1">  1        2 0.55755642E+00 0.10243702E+04</pdfrwt>
<pdfrwt beam="2">  1       -2 0.11136234E-01 0.10243702E+04</pdfrwt>
<totfact> 0.39770789E+01</totfact>
</mgrwt>
</event>
<event>
 4    1  0.6739609E-006  0.6475421E+03  0.7818608E-02  0.9811402E-01
          2   -1    0    0  501    0  0.00000000000E+00  0.00000000000E+00  0.96321127702E+03  0.96321127702E+03  0.25500000000E-02 0.  1.
         -2   -1    0    0    0  501 -0.00000000000E+00 -0.00000000000E+00 -0.10883147248E+03  0.10883147251E+03  0.25500000000E-02 0. -1.
   -5000001    1    1    2    0    0 -0.34326209349E+02  0.15961703712E+03  0.21993552272E+03  0.37084703227E+03  0.25000000000E+03 0.  0.
    5000001    1    1    2    0    0  0.34326209349E+02 -0.15961703712E+03  0.63444428181E+03  0.70119571726E+03  0.25000000000E+03 0.  0.
<mgrwt>
<rscale>  0 0.64754213E+03</rscale>
<asrwt>0</asrwt>
<pdfrwt beam="1">  1        2 0.14818635E+00 0.64754213E+03</pdfrwt>
<pdfrwt beam="2">  1       -2 0.16743304E-01 0.64754213E+03</pdfrwt>
<totfact> 0.77867830E+02</totfact>
</mgrwt>
</event>
<event>
 4    1  0.6739609E-006  0.7663249E+03  0.7818608E-02  0.9610082E-01
          2   -1    0    0  501    0  0.00000000000E+00  0.00000000000E+00  0.48954148769E+03  0.48954148770E+03  0.25500000000E-02 0.  1.
         -2   -1    0    0    0  501 -0.00000000000E+00 -0.00000000000E+00 -0.29989995850E+03  0.29989995851E+03  0.25500000000E-02 0. -1.
   -5000001    1    1    2    0    0 -0.25785156904E+03  0.13274694325E+03  0.80096631620E+02  0.39118365635E+03  0.25000000000E+03 0.  0.
    5000001    1    1    2    0    0  0.25785156904E+03 -0.13274694325E+03  0.10954489757E+03  0.39825778986E+03  0.25000000000E+03 0.  0.
<mgrwt>
<rscale>  0 0.76632492E+03</rscale>
<asrwt>0</asrwt>
<pdfrwt beam="1">  1        2 0.75314075E-01 0.76632492E+03</pdfrwt>
<pdfrwt beam="2">  1       -2 0.46138455E-01 0.76632492E+03</pdfrwt>
<totfact> 0.28325294E+02</totfact>
</mgrwt>
</event>
<event>
 4    1  0.6739609E-006  0.6481229E+03  0.7818608E-02  0.9810308E-01
         -2   -1    0    0    0  501 -0.00000000000E+00  0.00000000000E+00  0.37861785702E+02  0.37861785788E+02  0.25500000000E-02 0. -1.
          2   -1    0    0  501    0  0.00000000000E+00 -0.00000000000E+00 -0.27736627102E+04  0.27736627102E+04  0.25500000000E-02 0.  1.
   -5000001    1    1    2    0    0  0.15163073971E+03  0.13276097696E+03 -0.15569109084E+04  0.15896820232E+04  0.25000000000E+03 0.  0.
    5000001    1    1    2    0    0 -0.15163073971E+03 -0.13276097696E+03 -0.11788900161E+04  0.12218424728E+04  0.25000000000E+03 0.  0.
<mgrwt>
<rscale>  0 0.64812290E+03</rscale>
<asrwt>0</asrwt>
<pdfrwt beam="1">  1        2 0.42671718E+00 0.64812290E+03</pdfrwt>
<pdfrwt beam="2">  1       -2 0.58248923E-02 0.64812290E+03</pdfrwt>
<totfact> 0.41269474E+02</totfact>
</mgrwt>
</event>
<event>
 4    1  0.6739609E-006  0.6674159E+03  0.7818608E-02  0.9774637E-01
          2   -1    0    0  501    0  0.00000000000E+00  0.00000000000E+00  0.71659964458E+03  0.71659964458E+03  0.25500000000E-02 0.  1.
         -2   -1    0    0    0  501 -0.00000000000E+00 -0.00000000000E+00 -0.15540198751E+03  0.15540198753E+03  0.25500000000E-02 0. -1.
   -5000001    1    1    2    0    0 -0.51559841885E+02  0.18225001097E+03  0.42949513530E+03  0.53182662122E+03  0.25000000000E+03 0.  0.
    5000001    1    1    2    0    0  0.51559841885E+02 -0.18225001097E+03  0.13170252177E+03  0.34017501089E+03  0.25000000000E+03 0.  0.
<mgrwt>
<rscale>  0 0.66741594E+03</rscale>
<asrwt>0</asrwt>
<pdfrwt beam="1">  1        2 0.11024610E+00 0.66741594E+03</pdfrwt>
<pdfrwt beam="2">  1       -2 0.23907998E-01 0.66741594E+03</pdfrwt>
<totfact> 0.62149668E+02</totfact>
</mgrwt>
</event>
<event>
 4    1  0.6739609E-006  0.6419879E+03  0.7818608E-02  0.9821930E-01
          2   -1    0    0  501    0  0.00000000000E+00  0.00000000000E+00  0.31763432550E+03  0.31763432551E+03  0.25500000000E-02 0.  1.
         -2   -1    0    0    0  501 -0.00000000000E+00 -0.00000000000E+00 -0.32438915440E+03  0.32438915441E+03  0.25500000000E-02 0. -1.
   -5000001    1    1    2    0    0 -0.86084261049E+02 -0.15064540989E+03  0.98768293755E+02  0.31993704908E+03  0.25000000000E+03 0.  0.
    5000001    1    1    2    0    0  0.86084261049E+02  0.15064540989E+03 -0.10552312265E+03  0.32208643084E+03  0.25000000000E+03 0.  0.
<mgrwt>
<rscale>  0 0.64198794E+03</rscale>
<asrwt>0</asrwt>
<pdfrwt beam="1">  1        2 0.48866819E-01 0.64198794E+03</pdfrwt>
<pdfrwt beam="2">  1       -2 0.49906024E-01 0.64198794E+03</pdfrwt>
<totfact> 0.39495481E+02</totfact>
</mgrwt>
</event>
<event>
 4    1  0.6739609E-006  0.1101321E+04  0.7818608E-02  0.9203905E-01
         -2   -1    0    0    0  501 -0.00000000000E+00  0.00000000000E+00  0.61023723007E+03  0.61023723008E+03  0.25500000000E-02 0. -1.
          2   -1    0    0  501    0  0.00000000000E+00 -0.00000000000E+00 -0.49689998320E+03  0.49689998321E+03  0.25500000000E-02 0.  1.
   -5000001    1    1    2    0    0  0.37770725794E+03  0.72194488679E+02  0.36299427501E+03  0.58492705578E+03  0.25000000000E+03 0.  0.
    5000001    1    1    2    0    0 -0.37770725794E+03 -0.72194488679E+02 -0.24965702814E+03  0.52221015750E+03  0.25000000000E+03 0.  0.
<mgrwt>
<rscale>  0 0.11013208E+04</rscale>
<asrwt>0</asrwt>
<pdfrwt beam="1">  1        2 0.76446152E-01 0.11013208E+04</pdfrwt>
<pdfrwt beam="2">  1       -2 0.93882650E-01 0.11013208E+04</pdfrwt>
<totfact> 0.59025143E+01</totfact>
</mgrwt>
</event>
<event>
 4    1  0.6739609E-006  0.8199659E+03  0.7818608E-02  0.9531559E-01
         -2   -1    0    0    0  501 -0.00000000000E+00  0.00000000000E+00  0.34325169453E+03  0.34325169454E+03  0.25500000000E-02 0. -1.
          2   -1    0    0  501    0  0.00000000000E+00 -0.00000000000E+00 -0.48968732542E+03  0.48968732543E+03  0.25500000000E-02 0.  1.
   -5000001    1    1    2    0    0 -0.13140703142E+02 -0.25951559007E+03  0.12497151248E+03  0.38162664805E+03  0.25000000000E+03 0.  0.
    5000001    1    1    2    0    0  0.13140703142E+02  0.25951559007E+03 -0.27140714338E+03  0.45131237192E+03  0.25000000000E+03 0.  0.
<mgrwt>
<rscale>  0 0.81996586E+03</rscale>
<asrwt>0</asrwt>
<pdfrwt beam="1">  1        2 0.75336511E-01 0.81996586E+03</pdfrwt>
<pdfrwt beam="2">  1       -2 0.52807953E-01 0.81996586E+03</pdfrwt>
<totfact> 0.21482344E+02</totfact>
</mgrwt>
</event>
<event>
 4    1  0.6739609E-006  0.1095244E+04  0.7818608E-02  0.9209840E-01
          2   -1    0    0  501    0  0.00000000000E+00  0.00000000000E+00  0.10320673683E+04  0.10320673683E+04  0.25500000000E-02 0.  1.
         -2   -1    0    0    0  501 -0.00000000000E+00 -0.00000000000E+00 -0.29057189466E+03  0.29057189467E+03  0.25500000000E-02 0. -1.
   -5000001    1    1    2    0    0 -0.11767354296E+03  0.37708800469E+03  0.26316699506E+02  0.46822536739E+03  0.25000000000E+03 0.  0.
    5000001    1    1    2    0    0  0.11767354296E+03 -0.37708800469E+03  0.71517877414E+03  0.85441389559E+03  0.25000000000E+03 0.  0.
<mgrwt>
<rscale>  0 0.10952438E+04</rscale>
<asrwt>0</asrwt>
<pdfrwt beam="1">  1        2 0.15877959E+00 0.10952438E+04</pdfrwt>
<pdfrwt beam="2">  1       -2 0.44703368E-01 0.10952438E+04</pdfrwt>
<totfact> 0.11318673E+02</totfact>
</mgrwt>
</event>
<event>
 4    1  0.6739609E-006  0.1119720E+04  0.7818608E-02  0.9186182E-01
         -2   -1    0    0    0  501 -0.00000000000E+00  0.00000000000E+00  0.21906865703E+03  0.21906865705E+03  0.25500000000E-02 0. -1.
          2   -1    0    0  501    0  0.00000000000E+00 -0.00000000000E+00 -0.14307987855E+04  0.14307987855E+04  0.25500000000E-02 0.  1.
   -5000001    1    1    2    0    0  0.40538548789E+03 -0.13967495968E+03 -0.98753694864E+03  0.11052491633E+04  0.25000000000E+03 0.  0.
    5000001    1    1    2    0    0 -0.40538548789E+03  0.13967495968E+03 -0.22419317981E+03  0.54461827919E+03  0.25000000000E+03 0.  0.
<mgrwt>
<rscale>  0 0.11197199E+04</rscale>
<asrwt>0</asrwt>
<pdfrwt beam="1">  1        2 0.22012288E+00 0.11197199E+04</pdfrwt>
<pdfrwt beam="2">  1       -2 0.33702871E-01 0.11197199E+04</pdfrwt>
<totfact> 0.11336908E+02</totfact>
</mgrwt>
</event>
<event>
 4    1  0.6739609E-006  0.7320419E+03  0.7818608E-02  0.9663953E-01
         -2   -1    0    0    0  501 -0.00000000000E+00  0.00000000000E+00  0.21420824017E+03  0.21420824018E+03  0.25500000000E-02 0. -1.
          2   -1    0    0  501    0  0.00000000000E+00 -0.00000000000E+00 -0.62542567910E+03  0.62542567910E+03  0.25500000000E-02 0.  1.
   -5000001    1    1    2    0    0  0.11176014304E+03  0.22128933464E+03 -0.90842198894E+02  0.36360913671E+03  0.25000000000E+03 0.  0.
    5000001    1    1    2    0    0 -0.11176014304E+03 -0.22128933464E+03 -0.32037524003E+03  0.47602478258E+03  0.25000000000E+03 0.  0.
<mgrwt>
<rscale>  0 0.73204190E+03</rscale>
<asrwt>0</asrwt>
<pdfrwt beam="1">  1        2 0.96219335E-01 0.73204190E+03</pdfrwt>
<pdfrwt beam="2">  1       -2 0.32955114E-01 0.73204190E+03</pdfrwt>
<totfact> 0.40766112E+02</totfact>
</mgrwt>
</event>
<event>
 4    1  0.6739609E-006  0.7074333E+03  0.7818608E-02  0.9704604E-01
         -2   -1    0    0    0  501 -0.00000000000E+00  0.00000000000E+00  0.40090968479E+03  0.40090968480E+03  0.25500000000E-02 0. -1.
          2   -1    0    0  501    0  0.00000000000E+00 -0.00000000000E+00 -0.31207894705E+03  0.31207894706E+03  0.25500000000E-02 0.  1.
   -5000001    1    1    2    0    0 -0.18973516341E+03  0.16180529575E+03  0.23392846697E+02  0.35387513510E+03  0.25000000000E+03 0.  0.
    5000001    1    1    2    0    0  0.18973516341E+03 -0.16180529575E+03  0.65437891046E+02  0.35911349676E+03  0.25000000000E+03 0.  0.
<mgrwt>
<rscale>  0 0.70743331E+03</rscale>
<asrwt>0</asrwt>
<pdfrwt beam="1">  1        2 0.48012146E-01 0.70743331E+03</pdfrwt>
<pdfrwt beam="2">  1       -2 0.61678413E-01 0.70743331E+03</pdfrwt>
<totfact> 0.25909808E+02</totfact>
</mgrwt>
</event>
<event>
 4    1  0.6739609E-006  0.8856262E+03  0.7818608E-02  0.9443730E-01
         -2   -1    0    0    0  501 -0.00000000000E+00  0.00000000000E+00  0.18556204286E+03  0.18556204287E+03  0.25500000000E-02 0. -1.
          2   -1    0    0  501    0  0.00000000000E+00 -0.00000000000E+00 -0.10567000480E+04  0.10567000480E+04  0.25500000000E-02 0.  1.
   -5000001    1    1    2    0    0 -0.17357432563E+03  0.31967304776E+03 -0.48544882523E+03  0.65610933989E+03  0.25000000000E+03 0.  0.
    5000001    1    1    2    0    0  0.17357432563E+03 -0.31967304776E+03 -0.38568917992E+03  0.58615275098E+03  0.25000000000E+03 0.  0.
<mgrwt>
<rscale>  0 0.88562615E+03</rscale>
<asrwt>0</asrwt>
<pdfrwt beam="1">  1        2 0.16256923E+00 0.88562615E+03</pdfrwt>
<pdfrwt beam="2">  1       -2 0.28548007E-01 0.88562615E+03</pdfrwt>
<totfact> 0.26111625E+02</totfact>
</mgrwt>
</event>
<event>
 4    1  0.6739609E-006  0.7457911E+03  0.7818608E-02  0.9641977E-01
         -2   -1    0    0    0  501 -0.00000000000E+00  0.00000000000E+00  0.14415319260E+03  0.14415319262E+03  0.25500000000E-02 0. -1.
          2   -1    0    0  501    0  0.00000000000E+00 -0.00000000000E+00 -0.96460637192E+03  0.96460637193E+03  0.25500000000E-02 0.  1.
   -5000001    1    1    2    0    0 -0.13123896916E+03 -0.23981735899E+03 -0.34688847477E+03  0.50751122808E+03  0.25000000000E+03 0.  0.
    5000001    1    1    2    0    0  0.13123896916E+03  0.23981735899E+03 -0.47356470455E+03  0.60124833646E+03  0.25000000000E+03 0.  0.
<mgrwt>
<rscale>  0 0.74579109E+03</rscale>
<asrwt>0</asrwt>
<pdfrwt beam="1">  1        2 0.14840098E+00 0.74579109E+03</pdfrwt>
<pdfrwt beam="2">  1       -2 0.22177415E-01 0.74579109E+03</pdfrwt>
<totfact> 0.47483732E+02</totfact>
</mgrwt>
</event>
<event>
 4    1  0.6739609E-006  0.8042233E+03  0.7818608E-02  0.9553924E-01
          2   -1    0    0  501    0  0.00000000000E+00  0.00000000000E+00  0.40336705407E+03  0.40336705408E+03  0.25500000000E-02 0.  1.
         -2   -1    0    0    0  501 -0.00000000000E+00 -0.00000000000E+00 -0.40086012395E+03  0.40086012396E+03  0.25500000000E-02 0. -1.
   -5000001    1    1    2    0    0 -0.72324392839E+02  0.30287182107E+03  0.48493608816E+02  0.40226084559E+03  0.25000000000E+03 0.  0.
    5000001    1    1    2    0    0  0.72324392839E+02 -0.30287182107E+03 -0.45986678694E+02  0.40196633244E+03  0.25000000000E+03 0.  0.
<mgrwt>
<rscale>  0 0.80422327E+03</rscale>
<asrwt>0</asrwt>
<pdfrwt beam="1">  1        2 0.62056469E-01 0.80422327E+03</pdfrwt>
<pdfrwt beam="2">  1       -2 0.61670789E-01 0.80422327E+03</pdfrwt>
<totfact> 0.19390318E+02</totfact>
</mgrwt>
</event>
<event>
 4    1  0.6739609E-006  0.7155531E+03  0.7818608E-02  0.9690998E-01
          2   -1    0    0  501    0  0.00000000000E+00  0.00000000000E+00  0.13378069292E+04  0.13378069292E+04  0.25500000000E-02 0.  1.
         -2   -1    0    0    0  501 -0.00000000000E+00 -0.00000000000E+00 -0.95682008600E+02  0.95682008634E+02  0.25500000000E-02 0. -1.
   -5000001    1    1    2    0    0  0.23860428986E+03 -0.34197953792E+02  0.44869984587E+03  0.56739145118E+03  0.25000000000E+03 0.  0.
    5000001    1    1    2    0    0 -0.23860428986E+03  0.34197953792E+02  0.79342507470E+03  0.86609748663E+03  0.25000000000E+03 0.  0.
<mgrwt>
<rscale>  0 0.71555308E+03</rscale>
<asrwt>0</asrwt>
<pdfrwt beam="1">  1        2 0.20581647E+00 0.71555308E+03</pdfrwt>
<pdfrwt beam="2">  1       -2 0.14720308E-01 0.71555308E+03</pdfrwt>
<totfact> 0.57472693E+02</totfact>
</mgrwt>
</event>
<event>
 4    1  0.6739609E-006  0.5971305E+03  0.7818608E-02  0.9911377E-01
          2   -1    0    0  501    0  0.00000000000E+00  0.00000000000E+00  0.10316550301E+04  0.10316550301E+04  0.25500000000E-02 0. -1.
         -2   -1    0    0    0  501 -0.00000000000E+00 -0.00000000000E+00 -0.86406017387E+02  0.86406017425E+02  0.25500000000E-02 0.  1.
   -5000001    1    1    2    0    0 -0.91127236387E+02 -0.31104160501E+02  0.22585545477E+03  0.35040309425E+03  0.25000000000E+03 0.  0.
    5000001    1    1    2    0    0  0.91127236387E+02  0.31104160501E+02  0.71939355790E+03  0.76765795323E+03  0.25000000000E+03 0.  0.
<mgrwt>
<rscale>  0 0.59713048E+03</rscale>
<asrwt>0</asrwt>
<pdfrwt beam="1">  1        2 0.15871616E+00 0.59713048E+03</pdfrwt>
<pdfrwt beam="2">  1       -2 0.13293233E-01 0.59713048E+03</pdfrwt>
<totfact> 0.10409493E+03</totfact>
</mgrwt>
</event>
<event>
 4    1  0.6739609E-006  0.1049961E+04  0.7818608E-02  0.9255384E-01
         -2   -1    0    0    0  501 -0.00000000000E+00  0.00000000000E+00  0.74125120258E+03  0.74125120258E+03  0.25500000000E-02 0.  1.
          2   -1    0    0  501    0  0.00000000000E+00 -0.00000000000E+00 -0.37181003963E+03  0.37181003963E+03  0.25500000000E-02 0. -1.
   -5000001    1    1    2    0    0  0.30075580966E+03 -0.32922484034E+03  0.58121742503E+02  0.51451063108E+03  0.25000000000E+03 0.  0.
    5000001    1    1    2    0    0 -0.30075580966E+03  0.32922484034E+03  0.31131942045E+03  0.59855061113E+03  0.25000000000E+03 0.  0.
<mgrwt>
<rscale>  0 0.10499612E+04</rscale>
<asrwt>0</asrwt>
<pdfrwt beam="1">  1        2 0.57201545E-01 0.10499612E+04</pdfrwt>
<pdfrwt beam="2">  1       -2 0.11403865E+00 0.10499612E+04</pdfrwt>
<totfact> 0.51734111E+01</totfact>
</mgrwt>
</event>
<event>
 4    1  0.6739609E-006  0.6615153E+03  0.7818608E-02  0.9785408E-01
         -2   -1    0    0    0  501 -0.00000000000E+00  0.00000000000E+00  0.57722485899E+03  0.57722485899E+03  0.25500000000E-02 0. -1.
          2   -1    0    0  501    0  0.00000000000E+00 -0.00000000000E+00 -0.18952861669E+03  0.18952861671E+03  0.25500000000E-02 0.  1.
   -5000001    1    1    2    0    0 -0.14229754716E+03 -0.14854524228E+03  0.27234445183E+03  0.42306711214E+03  0.25000000000E+03 0.  0.
    5000001    1    1    2    0    0  0.14229754716E+03  0.14854524228E+03  0.11535179047E+03  0.34368636356E+03  0.25000000000E+03 0.  0.
<mgrwt>
<rscale>  0 0.66151532E+03</rscale>
<asrwt>0</asrwt>
<pdfrwt beam="1">  1        2 0.29158249E-01 0.66151532E+03</pdfrwt>
<pdfrwt beam="2">  1       -2 0.88803823E-01 0.66151532E+03</pdfrwt>
<totfact> 0.20250363E+02</totfact>
</mgrwt>
</event>
<event>
 4    1  0.6739609E-006  0.1227756E+04  0.7818608E-02  0.9088903E-01
          2   -1    0    0  501    0  0.00000000000E+00  0.00000000000E+00  0.21315782659E+04  0.21315782659E+04  0.25500000000E-02 0.  1.
         -2   -1    0    0    0  501 -0.00000000000E+00 -0.00000000000E+00 -0.17679208376E+03  0.17679208378E+03  0.25500000000E-02 0. -1.
   -5000001    1    1    2    0    0 -0.29596479892E+02  0.55282414297E+03  0.11440354089E+04  0.12953020889E+04  0.25000000000E+03 0.  0.
    5000001    1    1    2    0    0  0.29596479892E+02 -0.55282414297E+03  0.81075077319E+03  0.10130682607E+04  0.25000000000E+03 0.  0.
<mgrwt>
<rscale>  0 0.12277559E+04</rscale>
<asrwt>0</asrwt>
<pdfrwt beam="1">  1        2 0.32793510E+00 0.12277559E+04</pdfrwt>
<pdfrwt beam="2">  1       -2 0.27198783E-01 0.12277559E+04</pdfrwt>
<totfact> 0.68482199E+01</totfact>
</mgrwt>
</event>
<event>
 4    1  0.6739609E-006  0.1400729E+04  0.7818608E-02  0.8953291E-01
          2   -1    0    0  501    0  0.00000000000E+00  0.00000000000E+00  0.26961849004E+04  0.26961849004E+04  0.25500000000E-02 0.  1.
         -2   -1    0    0    0  501 -0.00000000000E+00 -0.00000000000E+00 -0.18192763961E+03  0.18192763963E+03  0.25500000000E-02 0. -1.
   -5000001    1    1    2    0    0 -0.65411339439E+03 -0.87556065140E+01  0.12399914964E+04  0.14240856380E+04  0.25000000000E+03 0.  0.
    5000001    1    1    2    0    0  0.65411339439E+03  0.87556065140E+01  0.12742657644E+04  0.14540269020E+04  0.25000000000E+03 0.  0.
<mgrwt>
<rscale>  0 0.14007292E+04</rscale>
<asrwt>0</asrwt>
<pdfrwt beam="1">  1        2 0.41479767E+00 0.14007292E+04</pdfrwt>
<pdfrwt beam="2">  1       -2 0.27988868E-01 0.14007292E+04</pdfrwt>
<totfact> 0.30475861E+01</totfact>
</mgrwt>
</event>
<event>
 4    1  0.6739609E-006  0.5719847E+03  0.7818608E-02  0.9965296E-01
          2   -1    0    0  501    0  0.00000000000E+00  0.00000000000E+00  0.77876073445E+02  0.77876073487E+02  0.25500000000E-02 0.  1.
         -2   -1    0    0    0  501 -0.00000000000E+00 -0.00000000000E+00 -0.10502793878E+04  0.10502793878E+04  0.25500000000E-02 0. -1.
   -5000001    1    1    2    0    0 -0.77366185825E+02 -0.11456407425E+03 -0.45965310920E+03  0.54119445176E+03  0.25000000000E+03 0.  0.
    5000001    1    1    2    0    0  0.77366185825E+02  0.11456407425E+03 -0.51275020512E+03  0.58696100949E+03  0.25000000000E+03 0.  0.
<mgrwt>
<rscale>  0 0.57198474E+03</rscale>
<asrwt>0</asrwt>
<pdfrwt beam="1">  1        2 0.11980935E-01 0.57198474E+03</pdfrwt>
<pdfrwt beam="2">  1       -2 0.16158143E+00 0.57198474E+03</pdfrwt>
<totfact> 0.13221436E+02</totfact>
</mgrwt>
</event>
<event>
 4    1  0.6739609E-006  0.9740511E+03  0.7818608E-02  0.9337472E-01
          2   -1    0    0  501    0  0.00000000000E+00  0.00000000000E+00  0.43913418229E+03  0.43913418230E+03  0.25500000000E-02 0.  1.
         -2   -1    0    0    0  501 -0.00000000000E+00 -0.00000000000E+00 -0.54013985741E+03  0.54013985741E+03  0.25500000000E-02 0. -1.
   -5000001    1    1    2    0    0 -0.30452662307E+03 -0.28252698830E+03 -0.96966572888E+02  0.49442944850E+03  0.25000000000E+03 0.  0.
    5000001    1    1    2    0    0  0.30452662307E+03  0.28252698830E+03 -0.40391022303E+01  0.48484459121E+03  0.25000000000E+03 0.  0.
<mgrwt>
<rscale>  0 0.97405108E+03</rscale>
<asrwt>0</asrwt>
<pdfrwt beam="1">  1        2 0.67559105E-01 0.97405108E+03</pdfrwt>
<pdfrwt beam="2">  1       -2 0.83098440E-01 0.97405108E+03</pdfrwt>
<totfact> 0.90761737E+01</totfact>
</mgrwt>
</event>
<event>
 4    1  0.6739609E-006  0.8575688E+03  0.7818608E-02  0.9480234E-01
          2   -1    0    0  501    0  0.00000000000E+00  0.00000000000E+00  0.68503526209E+03  0.68503526209E+03  0.25500000000E-02 0.  1.
         -2   -1    0    0    0  501 -0.00000000000E+00 -0.00000000000E+00 -0.26838917800E+03  0.26838917801E+03  0.25500000000E-02 0. -1.
   -5000001    1    1    2    0    0 -0.17218868885E+03  0.29256032556E+03  0.12137986292E+03  0.43871808691E+03  0.25000000000E+03 0.  0.
    5000001    1    1    2    0    0  0.17218868885E+03 -0.29256032556E+03  0.29526622116E+03  0.51470635320E+03  0.25000000000E+03 0.  0.
<mgrwt>
<rscale>  0 0.85756877E+03</rscale>
<asrwt>0</asrwt>
<pdfrwt beam="1">  1        2 0.10539004E+00 0.85756877E+03</pdfrwt>
<pdfrwt beam="2">  1       -2 0.41290643E-01 0.85756877E+03</pdfrwt>
<totfact> 0.23493597E+02</totfact>
</mgrwt>
</event>
<event>
 4    1  0.6739609E-006  0.7654474E+03  0.7818608E-02  0.9611423E-01
         -2   -1    0    0    0  501 -0.00000000000E+00  0.00000000000E+00  0.20996559677E+03  0.20996559679E+03  0.25500000000E-02 0. -1.
          2   -1    0    0  501    0  0.00000000000E+00 -0.00000000000E+00 -0.69762579741E+03  0.69762579741E+03  0.25500000000E-02 0.  1.
   -5000001    1    1    2    0    0 -0.18205503207E+02  0.14214584761E+03  0.54817104339E+02  0.29332882107E+03  0.25000000000E+03 0.  0.
    5000001    1    1    2    0    0  0.18205503207E+02 -0.14214584761E+03 -0.54247730497E+03  0.61426257313E+03  0.25000000000E+03 0.  0.
<mgrwt>
<rscale>  0 0.76544736E+03</rscale>
<asrwt>0</asrwt>
<pdfrwt beam="1">  1        2 0.10732704E+00 0.76544736E+03</pdfrwt>
<pdfrwt beam="2">  1       -2 0.32302400E-01 0.76544736E+03</pdfrwt>
<totfact> 0.36924720E+02</totfact>
</mgrwt>
</event>
<event>
 4    1  0.6739609E-006  0.5065097E+03  0.7818608E-02  0.1012094E+00
          2   -1    0    0  501    0  0.00000000000E+00  0.00000000000E+00  0.53116924656E+03  0.53116924657E+03  0.25500000000E-02 0.  1.
         -2   -1    0    0    0  501 -0.00000000000E+00 -0.00000000000E+00 -0.12074875396E+03  0.12074875399E+03  0.25500000000E-02 0. -1.
   -5000001    1    1    2    0    0  0.33503313670E+02 -0.13161375520E+02  0.18139647373E+03  0.31096683829E+03  0.25000000000E+03 0.  0.
    5000001    1    1    2    0    0 -0.33503313670E+02  0.13161375520E+02  0.22902401888E+03  0.34095116227E+03  0.25000000000E+03 0.  0.
<mgrwt>
<rscale>  0 0.50650972E+03</rscale>
<asrwt>0</asrwt>
<pdfrwt beam="1">  1        2 0.81718345E-01 0.50650972E+03</pdfrwt>
<pdfrwt beam="2">  1       -2 0.18576732E-01 0.50650972E+03</pdfrwt>
<totfact> 0.13926435E+03</totfact>
</mgrwt>
</event>
<event>
 4    1  0.6739609E-006  0.6551695E+03  0.7818608E-02  0.9797127E-01
         -2   -1    0    0    0  501 -0.00000000000E+00  0.00000000000E+00  0.97477284350E+03  0.97477284350E+03  0.25500000000E-02 0. -1.
          2   -1    0    0  501    0  0.00000000000E+00 -0.00000000000E+00 -0.11008901480E+03  0.11008901483E+03  0.25500000000E-02 0.  1.
   -5000001    1    1    2    0    0  0.15771168150E+03  0.83466671843E+02  0.24374861544E+03  0.39211356431E+03  0.25000000000E+03 0.  0.
    5000001    1    1    2    0    0 -0.15771168150E+03 -0.83466671843E+02  0.62093521326E+03  0.69274829401E+03  0.25000000000E+03 0.  0.
<mgrwt>
<rscale>  0 0.65516954E+03</rscale>
<asrwt>0</asrwt>
<pdfrwt beam="1">  1        2 0.16936772E-01 0.65516954E+03</pdfrwt>
<pdfrwt beam="2">  1       -2 0.14996505E+00 0.65516954E+03</pdfrwt>
<totfact> 0.10535625E+02</totfact>
</mgrwt>
</event>
<event>
 4    1  0.6739609E-006  0.1006085E+04  0.7818608E-02  0.9301896E-01
          2   -1    0    0  501    0  0.00000000000E+00  0.00000000000E+00  0.13986248841E+04  0.13986248841E+04  0.25500000000E-02 0.  1.
         -2   -1    0    0    0  501 -0.00000000000E+00 -0.00000000000E+00 -0.18092896621E+03  0.18092896623E+03  0.25500000000E-02 0. -1.
   -5000001    1    1    2    0    0 -0.35404554267E+03 -0.78515698777E+02  0.22737083456E+03  0.49569189790E+03  0.25000000000E+03 0.  0.
    5000001    1    1    2    0    0  0.35404554267E+03  0.78515698777E+02  0.99032508329E+03  0.10838619524E+04  0.25000000000E+03 0.  0.
<mgrwt>
<rscale>  0 0.10060850E+04</rscale>
<asrwt>0</asrwt>
<pdfrwt beam="1">  1        2 0.21517305E+00 0.10060850E+04</pdfrwt>
<pdfrwt beam="2">  1       -2 0.27835227E-01 0.10060850E+04</pdfrwt>
<totfact> 0.17030997E+02</totfact>
</mgrwt>
</event>
<event>
 4    1  0.6739609E-006  0.6573727E+03  0.7818608E-02  0.9793042E-01
         -2   -1    0    0    0  501 -0.00000000000E+00  0.00000000000E+00  0.20947193429E+03  0.20947193430E+03  0.25500000000E-02 0. -1.
          2   -1    0    0  501    0  0.00000000000E+00 -0.00000000000E+00 -0.51574793391E+03  0.51574793392E+03  0.25500000000E-02 0.  1.
   -5000001    1    1    2    0    0  0.10459152862E+03  0.15861121281E+03 -0.26031305200E+03  0.40787227134E+03  0.25000000000E+03 0.  0.
    5000001    1    1    2    0    0 -0.10459152862E+03 -0.15861121281E+03 -0.45962947621E+02  0.31734759687E+03  0.25000000000E+03 0.  0.
<mgrwt>
<rscale>  0 0.65737270E+03</rscale>
<asrwt>0</asrwt>
<pdfrwt beam="1">  1        2 0.79345835E-01 0.65737270E+03</pdfrwt>
<pdfrwt beam="2">  1       -2 0.32226452E-01 0.65737270E+03</pdfrwt>
<totfact> 0.53584326E+02</totfact>
</mgrwt>
</event>
<event>
 4    1  0.6739609E-006  0.6663415E+03  0.7818608E-02  0.9776590E-01
          2   -1    0    0  501    0  0.00000000000E+00  0.00000000000E+00  0.30354684761E+04  0.30354684761E+04  0.25500000000E-02 0.  1.
         -2   -1    0    0    0  501 -0.00000000000E+00 -0.00000000000E+00 -0.36568568329E+02  0.36568568418E+02  0.25500000000E-02 0. -1.
   -5000001    1    1    2    0    0  0.22355973686E+02 -0.21855790540E+03  0.14287168620E+04  0.14669693995E+04  0.25000000000E+03 0.  0.
    5000001    1    1    2    0    0 -0.22355973686E+02  0.21855790540E+03  0.15701830459E+04  0.16050676450E+04  0.25000000000E+03 0.  0.
<mgrwt>
<rscale>  0 0.66634146E+03</rscale>
<asrwt>0</asrwt>
<pdfrwt beam="1">  1        2 0.46699521E+00 0.66634146E+03</pdfrwt>
<pdfrwt beam="2">  1       -2 0.56259328E-02 0.66634146E+03</pdfrwt>
<totfact> 0.30301281E+02</totfact>
</mgrwt>
</event>
<event>
 4    1  0.6739609E-006  0.6977820E+03  0.7818608E-02  0.9721033E-01
          2   -1    0    0  501    0  0.00000000000E+00  0.00000000000E+00  0.12404111796E+04  0.12404111796E+04  0.25500000000E-02 0.  1.
         -2   -1    0    0    0  501 -0.00000000000E+00 -0.00000000000E+00 -0.98132726785E+02  0.98132726818E+02  0.25500000000E-02 0. -1.
   -5000001    1    1    2    0    0 -0.13039929527E+02  0.23710872678E+03  0.67326587621E+03  0.75642417211E+03  0.25000000000E+03 0.  0.
    5000001    1    1    2    0    0  0.13039929527E+02 -0.23710872678E+03  0.46901257665E+03  0.58211973436E+03  0.25000000000E+03 0.  0.
<mgrwt>
<rscale>  0 0.69778200E+03</rscale>
<asrwt>0</asrwt>
<pdfrwt beam="1">  1        2 0.19083251E+00 0.69778200E+03</pdfrwt>
<pdfrwt beam="2">  1       -2 0.15097341E-01 0.69778200E+03</pdfrwt>
<totfact> 0.62730489E+02</totfact>
</mgrwt>
</event>
<event>
 4    1  0.6739609E-006  0.1291981E+04  0.7818608E-02  0.9035949E-01
         -2   -1    0    0    0  501 -0.00000000000E+00  0.00000000000E+00  0.17814240373E+03  0.17814240374E+03  0.25500000000E-02 0. -1.
          2   -1    0    0  501    0  0.00000000000E+00 -0.00000000000E+00 -0.23425288321E+04  0.23425288321E+04  0.25500000000E-02 0.  1.
   -5000001    1    1    2    0    0 -0.53431631815E+03  0.20770944512E+02 -0.57015606272E+03  0.82067246563E+03  0.25000000000E+03 0.  0.
    5000001    1    1    2    0    0  0.53431631815E+03 -0.20770944512E+02 -0.15942303657E+04  0.16999987702E+04  0.25000000000E+03 0.  0.
<mgrwt>
<rscale>  0 0.12919810E+04</rscale>
<asrwt>0</asrwt>
<pdfrwt beam="1">  1        2 0.36038903E+00 0.12919810E+04</pdfrwt>
<pdfrwt beam="2">  1       -2 0.27406525E-01 0.12919810E+04</pdfrwt>
<totfact> 0.51167457E+01</totfact>
</mgrwt>
</event>
<event>
 4    1  0.6739609E-006  0.1036026E+04  0.7818608E-02  0.9269892E-01
          2   -1    0    0  501    0  0.00000000000E+00  0.00000000000E+00  0.24788995010E+04  0.24788995010E+04  0.25500000000E-02 0.  1.
         -2   -1    0    0    0  501 -0.00000000000E+00 -0.00000000000E+00 -0.10824857710E+03  0.10824857713E+03  0.25500000000E-02 0. -1.
   -5000001    1    1    2    0    0 -0.10455258674E+03 -0.41221517622E+03  0.79060628432E+03  0.93188566450E+03  0.25000000000E+03 0.  0.
    5000001    1    1    2    0    0  0.10455258674E+03  0.41221517622E+03  0.15800446396E+04  0.16552624137E+04  0.25000000000E+03 0.  0.
<mgrwt>
<rscale>  0 0.10360258E+04</rscale>
<asrwt>0</asrwt>
<pdfrwt beam="1">  1        2 0.38136911E+00 0.10360258E+04</pdfrwt>
<pdfrwt beam="2">  1       -2 0.16653629E-01 0.10360258E+04</pdfrwt>
<totfact> 0.10592713E+02</totfact>
</mgrwt>
</event>
<event>
 4    1  0.6739609E-006  0.7276313E+03  0.7818608E-02  0.9671112E-01
         -2   -1    0    0    0  501 -0.00000000000E+00  0.00000000000E+00  0.14922476232E+03  0.14922476234E+03  0.25500000000E-02 0. -1.
          2   -1    0    0  501    0  0.00000000000E+00 -0.00000000000E+00 -0.88699633170E+03  0.88699633171E+03  0.25500000000E-02 0.  1.
   -5000001    1    1    2    0    0  0.43403577965E+02  0.16304143308E+03 -0.65863169241E+03  0.72440464226E+03  0.25000000000E+03 0.  0.
    5000001    1    1    2    0    0 -0.43403577965E+02 -0.16304143308E+03 -0.79139876976E+02  0.31181645180E+03  0.25000000000E+03 0.  0.
<mgrwt>
<rscale>  0 0.72763127E+03</rscale>
<asrwt>0</asrwt>
<pdfrwt beam="1">  1        2 0.13646097E+00 0.72763127E+03</pdfrwt>
<pdfrwt beam="2">  1       -2 0.22957656E-01 0.72763127E+03</pdfrwt>
<totfact> 0.50302334E+02</totfact>
</mgrwt>
</event>
<event>
 4    1  0.6739609E-006  0.6759787E+03  0.7818608E-02  0.9759217E-01
          2   -1    0    0  501    0  0.00000000000E+00  0.00000000000E+00  0.22800170219E+04  0.22800170219E+04  0.25500000000E-02 0.  1.
         -2   -1    0    0    0  501 -0.00000000000E+00 -0.00000000000E+00 -0.50103487195E+02  0.50103487260E+02  0.25500000000E-02 0. -1.
   -5000001    1    1    2    0    0 -0.15614787604E+03  0.10689486742E+03  0.15499953610E+04  0.15813899870E+04  0.25000000000E+03 0.  0.
    5000001    1    1    2    0    0  0.15614787604E+03 -0.10689486742E+03  0.67991817368E+03  0.74873052213E+03  0.25000000000E+03 0.  0.
<mgrwt>
<rscale>  0 0.67597871E+03</rscale>
<asrwt>0</asrwt>
<pdfrwt beam="1">  1        2 0.35077191E+00 0.67597871E+03</pdfrwt>
<pdfrwt beam="2">  1       -2 0.77082275E-02 0.67597871E+03</pdfrwt>
<totfact> 0.50404991E+02</totfact>
</mgrwt>
</event>
<event>
 4    1  0.6739609E-006  0.6679203E+03  0.7818608E-02  0.9773722E-01
         -2   -1    0    0    0  501 -0.00000000000E+00  0.00000000000E+00  0.43070331317E+03  0.43070331318E+03  0.25500000000E-02 0. -1.
          2   -1    0    0  501    0  0.00000000000E+00 -0.00000000000E+00 -0.25894714714E+03  0.25894714715E+03  0.25500000000E-02 0.  1.
   -5000001    1    1    2    0    0 -0.22081247597E+03 -0.12274838408E+02  0.74540266586E+02  0.34200156804E+03  0.25000000000E+03 0.  0.
    5000001    1    1    2    0    0  0.22081247597E+03  0.12274838408E+02  0.97215899446E+02  0.34764889229E+03  0.25000000000E+03 0.  0.
<mgrwt>
<rscale>  0 0.66792034E+03</rscale>
<asrwt>0</asrwt>
<pdfrwt beam="1">  1        2 0.39838023E-01 0.66792034E+03</pdfrwt>
<pdfrwt beam="2">  1       -2 0.66262048E-01 0.66792034E+03</pdfrwt>
<totfact> 0.27373249E+02</totfact>
</mgrwt>
</event>
<event>
 4    1  0.6739609E-006  0.1179097E+04  0.7818608E-02  0.9131352E-01
         -2   -1    0    0    0  501 -0.00000000000E+00  0.00000000000E+00  0.31582437372E+03  0.31582437373E+03  0.25500000000E-02 0. -1.
          2   -1    0    0  501    0  0.00000000000E+00 -0.00000000000E+00 -0.11005092003E+04  0.11005092003E+04  0.25500000000E-02 0.  1.
   -5000001    1    1    2    0    0 -0.10340315171E+01 -0.49549985990E+03 -0.15346799741E+03  0.57582428450E+03  0.25000000000E+03 0.  0.
    5000001    1    1    2    0    0  0.10340315171E+01  0.49549985990E+03 -0.63121682920E+03  0.84050928957E+03  0.25000000000E+03 0.  0.
<mgrwt>
<rscale>  0 0.11790973E+04</rscale>
<asrwt>0</asrwt>
<pdfrwt beam="1">  1        2 0.16930911E+00 0.11790973E+04</pdfrwt>
<pdfrwt beam="2">  1       -2 0.48588366E-01 0.11790973E+04</pdfrwt>
<totfact> 0.86266945E+01</totfact>
</mgrwt>
</event>
<event>
 4    1  0.6739609E-006  0.1232690E+04  0.7818608E-02  0.9084714E-01
          2   -1    0    0  501    0  0.00000000000E+00  0.00000000000E+00  0.40315468015E+03  0.40315468016E+03  0.25500000000E-02 0.  1.
         -2   -1    0    0    0  501 -0.00000000000E+00 -0.00000000000E+00 -0.94227203943E+03  0.94227203944E+03  0.25500000000E-02 0. -1.
   -5000001    1    1    2    0    0 -0.56449318457E+02  0.42661193989E+03  0.12728277046E+03  0.51369755350E+03  0.25000000000E+03 0.  0.
    5000001    1    1    2    0    0  0.56449318457E+02 -0.42661193989E+03 -0.66640012975E+03  0.83172916610E+03  0.25000000000E+03 0.  0.
<mgrwt>
<rscale>  0 0.12326904E+04</rscale>
<asrwt>0</asrwt>
<pdfrwt beam="1">  1        2 0.62023797E-01 0.12326904E+04</pdfrwt>
<pdfrwt beam="2">  1       -2 0.14496493E+00 0.12326904E+04</pdfrwt>
<totfact> 0.25421114E+01</totfact>
</mgrwt>
</event>
<event>
 4    1  0.6739609E-006  0.9470150E+03  0.7818608E-02  0.9368646E-01
          2   -1    0    0  501    0  0.00000000000E+00  0.00000000000E+00  0.73725819284E+03  0.73725819285E+03  0.25500000000E-02 0.  1.
         -2   -1    0    0    0  501 -0.00000000000E+00 -0.00000000000E+00 -0.30411241135E+03  0.30411241136E+03  0.25500000000E-02 0. -1.
   -5000001    1    1    2    0    0 -0.23477109402E+03 -0.18510479257E+03  0.51230740925E+03  0.64369257600E+03  0.25000000000E+03 0.  0.
    5000001    1    1    2    0    0  0.23477109402E+03  0.18510479257E+03 -0.79161627760E+02  0.39767802822E+03  0.25000000000E+03 0.  0.
<mgrwt>
<rscale>  0 0.94701503E+03</rscale>
<asrwt>0</asrwt>
<pdfrwt beam="1">  1        2 0.11342434E+00 0.94701503E+03</pdfrwt>
<pdfrwt beam="2">  1       -2 0.46786525E-01 0.94701503E+03</pdfrwt>
<totfact> 0.16618622E+02</totfact>
</mgrwt>
</event>
<event>
 4    1  0.6739609E-006  0.6877807E+03  0.7818608E-02  0.9738360E-01
         -2   -1    0    0    0  501 -0.00000000000E+00  0.00000000000E+00  0.11183712481E+03  0.11183712484E+03  0.25500000000E-02 0. -1.
          2   -1    0    0  501    0  0.00000000000E+00 -0.00000000000E+00 -0.10574358587E+04  0.10574358587E+04  0.25500000000E-02 0.  1.
   -5000001    1    1    2    0    0 -0.12750274359E+03  0.19848864283E+03 -0.49029396539E+03  0.59878448832E+03  0.25000000000E+03 0.  0.
    5000001    1    1    2    0    0  0.12750274359E+03 -0.19848864283E+03 -0.45530476848E+03  0.57048849520E+03  0.25000000000E+03 0.  0.
<mgrwt>
<rscale>  0 0.68778074E+03</rscale>
<asrwt>0</asrwt>
<pdfrwt beam="1">  1        2 0.16268243E+00 0.68778074E+03</pdfrwt>
<pdfrwt beam="2">  1       -2 0.17205712E-01 0.68778074E+03</pdfrwt>
<totfact> 0.64696234E+02</totfact>
</mgrwt>
</event>
<event>
 4    1  0.6739609E-006  0.7487188E+03  0.7818608E-02  0.9637363E-01
         -2   -1    0    0    0  501 -0.00000000000E+00  0.00000000000E+00  0.37440478636E+02  0.37440478723E+02  0.25500000000E-02 0. -1.
          2   -1    0    0  501    0  0.00000000000E+00 -0.00000000000E+00 -0.37431399243E+04  0.37431399243E+04  0.25500000000E-02 0.  1.
   -5000001    1    1    2    0    0 -0.17750207819E+03  0.21133541792E+03 -0.16589038682E+04  0.17001857812E+04  0.25000000000E+03 0.  0.
    5000001    1    1    2    0    0  0.17750207819E+03 -0.21133541792E+03 -0.20467955775E+04  0.20803946219E+04  0.25000000000E+03 0.  0.
<mgrwt>
<rscale>  0 0.74871877E+03</rscale>
<asrwt>0</asrwt>
<pdfrwt beam="1">  1        2 0.57586738E+00 0.74871877E+03</pdfrwt>
<pdfrwt beam="2">  1       -2 0.57600766E-02 0.74871877E+03</pdfrwt>
<totfact> 0.97655229E+01</totfact>
</mgrwt>
</event>
<event>
 4    1  0.6739609E-006  0.1154721E+04  0.7818608E-02  0.9153439E-01
          2   -1    0    0  501    0  0.00000000000E+00  0.00000000000E+00  0.13637709957E+04  0.13637709957E+04  0.25500000000E-02 0.  1.
         -2   -1    0    0    0  501 -0.00000000000E+00 -0.00000000000E+00 -0.24442906345E+03  0.24442906347E+03  0.25500000000E-02 0. -1.
   -5000001    1    1    2    0    0  0.39199655930E+01 -0.37619231902E+03  0.58855524105E+02  0.45552167867E+03  0.25000000000E+03 0.  0.
    5000001    1    1    2    0    0 -0.39199655930E+01  0.37619231902E+03  0.10604864082E+04  0.11526783805E+04  0.25000000000E+03 0.  0.
<mgrwt>
<rscale>  0 0.11547212E+04</rscale>
<asrwt>0</asrwt>
<pdfrwt beam="1">  1        2 0.20981092E+00 0.11547212E+04</pdfrwt>
<pdfrwt beam="2">  1       -2 0.37604472E-01 0.11547212E+04</pdfrwt>
<totfact> 0.10014571E+02</totfact>
</mgrwt>
</event>
<event>
 4    1  0.6739609E-006  0.6480189E+03  0.7818608E-02  0.9810504E-01
         -2   -1    0    0    0  501 -0.00000000000E+00  0.00000000000E+00  0.31219353089E+02  0.31219353193E+02  0.25500000000E-02 0. -1.
          2   -1    0    0  501    0  0.00000000000E+00 -0.00000000000E+00 -0.33627260061E+04  0.33627260061E+04  0.25500000000E-02 0.  1.
   -5000001    1    1    2    0    0  0.18020685569E+03  0.64352544892E+02 -0.12646078693E+04  0.13032071302E+04  0.25000000000E+03 0.  0.
    5000001    1    1    2    0    0 -0.18020685569E+03 -0.64352544892E+02 -0.20668987837E+04  0.20907382292E+04  0.25000000000E+03 0.  0.
<mgrwt>
<rscale>  0 0.64801892E+03</rscale>
<asrwt>0</asrwt>
<pdfrwt beam="1">  1        2 0.51734218E+00 0.64801892E+03</pdfrwt>
<pdfrwt beam="2">  1       -2 0.48029801E-02 0.64801892E+03</pdfrwt>
<totfact> 0.24084267E+02</totfact>
</mgrwt>
</event>
<event>
 4    1  0.6739609E-006  0.1201745E+04  0.7818608E-02  0.9111330E-01
          2   -1    0    0  501    0  0.00000000000E+00  0.00000000000E+00  0.91966301006E+03  0.91966301007E+03  0.25500000000E-02 0.  1.
         -2   -1    0    0    0  501 -0.00000000000E+00 -0.00000000000E+00 -0.39258707540E+03  0.39258707540E+03  0.25500000000E-02 0. -1.
   -5000001    1    1    2    0    0  0.48029937868E+03 -0.10920344437E+03  0.52847207879E+01  0.55239552287E+03  0.25000000000E+03 0.  0.
    5000001    1    1    2    0    0 -0.48029937868E+03  0.10920344437E+03  0.52179121388E+03  0.75985456260E+03  0.25000000000E+03 0.  0.
<mgrwt>
<rscale>  0 0.12017451E+04</rscale>
<asrwt>0</asrwt>
<pdfrwt beam="1">  1        2 0.14148662E+00 0.12017451E+04</pdfrwt>
<pdfrwt beam="2">  1       -2 0.60398012E-01 0.12017451E+04</pdfrwt>
<totfact> 0.71677866E+01</totfact>
</mgrwt>
</event>
<event>
 4    1  0.6739609E-006  0.6991937E+03  0.7818608E-02  0.9718612E-01
         -2   -1    0    0    0  501 -0.00000000000E+00  0.00000000000E+00  0.37065924426E+02  0.37065924514E+02  0.25500000000E-02 0. -1.
          2   -1    0    0  501    0  0.00000000000E+00 -0.00000000000E+00 -0.32973127389E+04  0.32973127389E+04  0.25500000000E-02 0.  1.
   -5000001    1    1    2    0    0  0.20585505630E+03  0.12977048464E+03 -0.15233532590E+04  0.15627929596E+04  0.25000000000E+03 0.  0.
    5000001    1    1    2    0    0 -0.20585505630E+03 -0.12977048464E+03 -0.17368935555E+04  0.17715857038E+04  0.25000000000E+03 0.  0.
<mgrwt>
<rscale>  0 0.69919366E+03</rscale>
<asrwt>0</asrwt>
<pdfrwt beam="1">  1        2 0.50727865E+00 0.69919366E+03</pdfrwt>
<pdfrwt beam="2">  1       -2 0.57024525E-02 0.69919366E+03</pdfrwt>
<totfact> 0.20201910E+02</totfact>
</mgrwt>
</event>
<event>
 4    1  0.6739609E-006  0.5701091E+03  0.7818608E-02  0.9969437E-01
          2   -1    0    0  501    0  0.00000000000E+00  0.00000000000E+00  0.34862296034E+03  0.34862296035E+03  0.25500000000E-02 0. -1.
         -2   -1    0    0    0  501 -0.00000000000E+00 -0.00000000000E+00 -0.23307730047E+03  0.23307730048E+03  0.25500000000E-02 0.  1.
   -5000001    1    1    2    0    0  0.61769146305E+01 -0.73377333620E+02  0.17559222834E+03  0.31425311139E+03  0.25000000000E+03 0.  0.
    5000001    1    1    2    0    0 -0.61769146305E+01  0.73377333620E+02 -0.60046568465E+02  0.26744714945E+03  0.25000000000E+03 0.  0.
<mgrwt>
<rscale>  0 0.57010911E+03</rscale>
<asrwt>0</asrwt>
<pdfrwt beam="1">  1        2 0.53634302E-01 0.57010911E+03</pdfrwt>
<pdfrwt beam="2">  1       -2 0.35858046E-01 0.57010911E+03</pdfrwt>
<totfact> 0.68277649E+02</totfact>
</mgrwt>
</event>
<event>
 4    1  0.6739609E-006  0.7851782E+03  0.7818608E-02  0.9581722E-01
          2   -1    0    0  501    0  0.00000000000E+00  0.00000000000E+00  0.56452591959E+03  0.56452591959E+03  0.25500000000E-02 0.  1.
         -2   -1    0    0    0  501 -0.00000000000E+00 -0.00000000000E+00 -0.27301881988E+03  0.27301881989E+03  0.25500000000E-02 0. -1.
   -5000001    1    1    2    0    0 -0.21320888822E+02  0.16082392854E+03  0.41835025055E+03  0.51364953852E+03  0.25000000000E+03 0.  0.
    5000001    1    1    2    0    0  0.21320888822E+02 -0.16082392854E+03 -0.12684315084E+03  0.32389520096E+03  0.25000000000E+03 0.  0.
<mgrwt>
<rscale>  0 0.78517820E+03</rscale>
<asrwt>0</asrwt>
<pdfrwt beam="1">  1        2 0.86850140E-01 0.78517820E+03</pdfrwt>
<pdfrwt beam="2">  1       -2 0.42002896E-01 0.78517820E+03</pdfrwt>
<totfact> 0.28858621E+02</totfact>
</mgrwt>
</event>
<event>
 4    1  0.6739609E-006  0.6355303E+03  0.7818608E-02  0.9834316E-01
          2   -1    0    0  501    0  0.00000000000E+00  0.00000000000E+00  0.15049903858E+04  0.15049903858E+04  0.25500000000E-02 0.  1.
         -2   -1    0    0    0  501 -0.00000000000E+00 -0.00000000000E+00 -0.67093236537E+02  0.67093236586E+02  0.25500000000E-02 0. -1.
   -5000001    1    1    2    0    0  0.19543200854E+03  0.14314373921E+02  0.69736888412E+03  0.76630407268E+03  0.25000000000E+03 0.  0.
    5000001    1    1    2    0    0 -0.19543200854E+03 -0.14314373921E+02  0.74052826518E+03  0.80577954975E+03  0.25000000000E+03 0.  0.
<mgrwt>
<rscale>  0 0.63553025E+03</rscale>
<asrwt>0</asrwt>
<pdfrwt beam="1">  1        2 0.23153697E+00 0.63553025E+03</pdfrwt>
<pdfrwt beam="2">  1       -2 0.10322037E-01 0.63553025E+03</pdfrwt>
<totfact> 0.83665076E+02</totfact>
</mgrwt>
</event>
<event>
 4    1  0.6739609E-006  0.1047848E+04  0.7818608E-02  0.9257569E-01
         -2   -1    0    0    0  501 -0.00000000000E+00  0.00000000000E+00  0.26336768307E+03  0.26336768308E+03  0.25500000000E-02 0. -1.
          2   -1    0    0  501    0  0.00000000000E+00 -0.00000000000E+00 -0.10422545177E+04  0.10422545177E+04  0.25500000000E-02 0.  1.
   -5000001    1    1    2    0    0 -0.29874150052E+03 -0.32211194117E+03 -0.56116413907E+03  0.75525345266E+03  0.25000000000E+03 0.  0.
    5000001    1    1    2    0    0  0.29874150052E+03  0.32211194117E+03 -0.21772269559E+03  0.55036874816E+03  0.25000000000E+03 0.  0.
<mgrwt>
<rscale>  0 0.10478476E+04</rscale>
<asrwt>0</asrwt>
<pdfrwt beam="1">  1        2 0.16034685E+00 0.10478476E+04</pdfrwt>
<pdfrwt beam="2">  1       -2 0.40518106E-01 0.10478476E+04</pdfrwt>
<totfact> 0.13583882E+02</totfact>
</mgrwt>
</event>
<event>
 4    1  0.6739609E-006  0.8342094E+03  0.7818608E-02  0.9511779E-01
          2   -1    0    0  501    0  0.00000000000E+00  0.00000000000E+00  0.10779349114E+04  0.10779349114E+04  0.25500000000E-02 0.  1.
         -2   -1    0    0    0  501 -0.00000000000E+00 -0.00000000000E+00 -0.16139781787E+03  0.16139781789E+03  0.25500000000E-02 0. -1.
   -5000001    1    1    2    0    0 -0.22501837985E+03 -0.68272245895E+02  0.10613182777E+03  0.35924690074E+03  0.25000000000E+03 0.  0.
    5000001    1    1    2    0    0  0.22501837985E+03  0.68272245895E+02  0.81040526573E+03  0.88008582852E+03  0.25000000000E+03 0.  0.
<mgrwt>
<rscale>  0 0.83420943E+03</rscale>
<asrwt>0</asrwt>
<pdfrwt beam="1">  1        2 0.16583614E+00 0.83420943E+03</pdfrwt>
<pdfrwt beam="2">  1       -2 0.24830434E-01 0.83420943E+03</pdfrwt>
<totfact> 0.32755123E+02</totfact>
</mgrwt>
</event>
<event>
 4    1  0.6739609E-006  0.6394921E+03  0.7818608E-02  0.9826699E-01
          2   -1    0    0  501    0  0.00000000000E+00  0.00000000000E+00  0.13287455476E+04  0.13287455476E+04  0.25500000000E-02 0.  1.
         -2   -1    0    0    0  501 -0.00000000000E+00 -0.00000000000E+00 -0.76942888860E+02  0.76942888902E+02  0.25500000000E-02 0. -1.
   -5000001    1    1    2    0    0  0.17314156457E+03 -0.57177048160E+02  0.80298824261E+03  0.86054478907E+03  0.25000000000E+03 0.  0.
    5000001    1    1    2    0    0 -0.17314156457E+03  0.57177048160E+02  0.44881441614E+03  0.54514364745E+03  0.25000000000E+03 0.  0.
<mgrwt>
<rscale>  0 0.63949205E+03</rscale>
<asrwt>0</asrwt>
<pdfrwt beam="1">  1        2 0.20442239E+00 0.63949205E+03</pdfrwt>
<pdfrwt beam="2">  1       -2 0.11837367E-01 0.63949205E+03</pdfrwt>
<totfact> 0.83929192E+02</totfact>
</mgrwt>
</event>
<event>
 4    1  0.6739609E-006  0.6873735E+03  0.7818608E-02  0.9739072E-01
         -2   -1    0    0    0  501 -0.00000000000E+00  0.00000000000E+00  0.20091824377E+03  0.20091824379E+03  0.25500000000E-02 0. -1.
          2   -1    0    0  501    0  0.00000000000E+00 -0.00000000000E+00 -0.58790367391E+03  0.58790367392E+03  0.25500000000E-02 0.  1.
   -5000001    1    1    2    0    0 -0.92586114184E+02  0.20861792417E+03 -0.26164582173E+03  0.42784595692E+03  0.25000000000E+03 0.  0.
    5000001    1    1    2    0    0  0.92586114184E+02 -0.20861792417E+03 -0.12533960841E+03  0.36097596078E+03  0.25000000000E+03 0.  0.
<mgrwt>
<rscale>  0 0.68737348E+03</rscale>
<asrwt>0</asrwt>
<pdfrwt beam="1">  1        2 0.90446718E-01 0.68737348E+03</pdfrwt>
<pdfrwt beam="2">  1       -2 0.30910499E-01 0.68737348E+03</pdfrwt>
<totfact> 0.49596022E+02</totfact>
</mgrwt>
</event>
<event>
 4    1  0.6739609E-006  0.9945220E+03  0.7818608E-02  0.9314573E-01
         -2   -1    0    0    0  501 -0.00000000000E+00  0.00000000000E+00  0.37017339554E+03  0.37017339555E+03  0.25500000000E-02 0. -1.
          2   -1    0    0  501    0  0.00000000000E+00 -0.00000000000E+00 -0.66798019281E+03  0.66798019282E+03  0.25500000000E-02 0.  1.
   -5000001    1    1    2    0    0  0.39969991645E+03  0.17126945621E+02 -0.31301102474E+03  0.56615303327E+03  0.25000000000E+03 0.  0.
    5000001    1    1    2    0    0 -0.39969991645E+03 -0.17126945621E+02  0.15204227466E+02  0.47200055509E+03  0.25000000000E+03 0.  0.
<mgrwt>
<rscale>  0 0.99452199E+03</rscale>
<asrwt>0</asrwt>
<pdfrwt beam="1">  1        2 0.10276618E+00 0.99452199E+03</pdfrwt>
<pdfrwt beam="2">  1       -2 0.56949753E-01 0.99452199E+03</pdfrwt>
<totfact> 0.12552696E+02</totfact>
</mgrwt>
</event>
<event>
 4    1  0.6739609E-006  0.8674027E+03  0.7818608E-02  0.9467273E-01
         -2   -1    0    0    0  501 -0.00000000000E+00  0.00000000000E+00  0.53192563920E+03  0.53192563920E+03  0.25500000000E-02 0. -1.
          2   -1    0    0  501    0  0.00000000000E+00 -0.00000000000E+00 -0.35361497857E+03  0.35361497858E+03  0.25500000000E-02 0.  1.
   -5000001    1    1    2    0    0  0.35371188715E+03  0.10659322536E+02  0.10882351754E+03  0.44673065514E+03  0.25000000000E+03 0.  0.
    5000001    1    1    2    0    0 -0.35371188715E+03 -0.10659322536E+02  0.69487143084E+02  0.43880996265E+03  0.25000000000E+03 0.  0.
<mgrwt>
<rscale>  0 0.86740273E+03</rscale>
<asrwt>0</asrwt>
<pdfrwt beam="1">  1        2 0.54402305E-01 0.86740273E+03</pdfrwt>
<pdfrwt beam="2">  1       -2 0.81834713E-01 0.86740273E+03</pdfrwt>
<totfact> 0.12060394E+02</totfact>
</mgrwt>
</event>
<event>
 4    1  0.6739609E-006  0.6061828E+03  0.7818608E-02  0.9892661E-01
          2   -1    0    0  501    0  0.00000000000E+00  0.00000000000E+00  0.94540449551E+03  0.94540449552E+03  0.25500000000E-02 0.  1.
         -2   -1    0    0    0  501 -0.00000000000E+00 -0.00000000000E+00 -0.97169421816E+02  0.97169421850E+02  0.25500000000E-02 0. -1.
   -5000001    1    1    2    0    0 -0.67111229835E+02  0.15630069871E+03  0.45980629855E+03  0.55032323026E+03  0.25000000000E+03 0.  0.
    5000001    1    1    2    0    0  0.67111229835E+02 -0.15630069871E+03  0.38842877515E+03  0.49225068710E+03  0.25000000000E+03 0.  0.
<mgrwt>
<rscale>  0 0.60618284E+03</rscale>
<asrwt>0</asrwt>
<pdfrwt beam="1">  1        2 0.14544685E+00 0.60618284E+03</pdfrwt>
<pdfrwt beam="2">  1       -2 0.14949142E-01 0.60618284E+03</pdfrwt>
<totfact> 0.97031373E+02</totfact>
</mgrwt>
</event>
<event>
 4    1  0.6739609E-006  0.6946124E+03  0.7818608E-02  0.9726490E-01
         -2   -1    0    0    0  501 -0.00000000000E+00  0.00000000000E+00  0.84598608390E+02  0.84598608429E+02  0.25500000000E-02 0. -1.
          2   -1    0    0  501    0  0.00000000000E+00 -0.00000000000E+00 -0.14258106558E+04  0.14258106558E+04  0.25500000000E-02 0.  1.
   -5000001    1    1    2    0    0 -0.21552705226E+03  0.11761036134E+02 -0.43710302132E+03  0.54785881710E+03  0.25000000000E+03 0.  0.
    5000001    1    1    2    0    0  0.21552705226E+03 -0.11761036134E+02 -0.90410902613E+03  0.96255044717E+03  0.25000000000E+03 0.  0.
<mgrwt>
<rscale>  0 0.69461240E+03</rscale>
<asrwt>0</asrwt>
<pdfrwt beam="1">  1        2 0.21935547E+00 0.69461240E+03</pdfrwt>
<pdfrwt beam="2">  1       -2 0.13015172E-01 0.69461240E+03</pdfrwt>
<totfact> 0.63052990E+02</totfact>
</mgrwt>
</event>
<event>
 4    1  0.6739609E-006  0.7829015E+03  0.7818608E-02  0.9585102E-01
         -2   -1    0    0    0  501 -0.00000000000E+00  0.00000000000E+00  0.10364035861E+03  0.10364035864E+03  0.25500000000E-02 0. -1.
          2   -1    0    0  501    0  0.00000000000E+00 -0.00000000000E+00 -0.14785136380E+04  0.14785136380E+04  0.25500000000E-02 0.  1.
   -5000001    1    1    2    0    0  0.11274495211E+03  0.24894347518E+03 -0.94345500036E+03  0.10135539531E+04  0.25000000000E+03 0.  0.
    5000001    1    1    2    0    0 -0.11274495211E+03 -0.24894347518E+03 -0.43141827899E+03  0.56860004354E+03  0.25000000000E+03 0.  0.
<mgrwt>
<rscale>  0 0.78290148E+03</rscale>
<asrwt>0</asrwt>
<pdfrwt beam="1">  1        2 0.22746362E+00 0.78290148E+03</pdfrwt>
<pdfrwt beam="2">  1       -2 0.15944672E-01 0.78290148E+03</pdfrwt>
<totfact> 0.41652628E+02</totfact>
</mgrwt>
</event>
<event>
 4    1  0.6739609E-006  0.6020776E+03  0.7818608E-02  0.9901105E-01
         -2   -1    0    0    0  501 -0.00000000000E+00  0.00000000000E+00  0.16057240949E+03  0.16057240951E+03  0.25500000000E-02 0. -1.
          2   -1    0    0  501    0  0.00000000000E+00 -0.00000000000E+00 -0.56438312215E+03  0.56438312216E+03  0.25500000000E-02 0.  1.
   -5000001    1    1    2    0    0 -0.36364701221E+02  0.16370296452E+03 -0.20409458972E+03  0.36369720049E+03  0.25000000000E+03 0.  0.
    5000001    1    1    2    0    0  0.36364701221E+02 -0.16370296452E+03 -0.19971612294E+03  0.36125833118E+03  0.25000000000E+03 0.  0.
<mgrwt>
<rscale>  0 0.60207760E+03</rscale>
<asrwt>0</asrwt>
<pdfrwt beam="1">  1        2 0.86828172E-01 0.60207760E+03</pdfrwt>
<pdfrwt beam="2">  1       -2 0.24703448E-01 0.60207760E+03</pdfrwt>
<totfact> 0.78571529E+02</totfact>
</mgrwt>
</event>
<event>
 4    1  0.6739609E-006  0.5916840E+03  0.7818608E-02  0.9922811E-01
         -2   -1    0    0    0  501 -0.00000000000E+00  0.00000000000E+00  0.52470498103E+02  0.52470498164E+02  0.25500000000E-02 0. -1.
          2   -1    0    0  501    0  0.00000000000E+00 -0.00000000000E+00 -0.16680324200E+04  0.16680324200E+04  0.25500000000E-02 0.  1.
   -5000001    1    1    2    0    0 -0.88097625131E+02  0.11233663623E+03 -0.10058916391E+04  0.10462785006E+04  0.25000000000E+03 0.  0.
    5000001    1    1    2    0    0  0.88097625131E+02 -0.11233663623E+03 -0.60967028280E+03  0.67422441747E+03  0.25000000000E+03 0.  0.
<mgrwt>
<rscale>  0 0.59168401E+03</rscale>
<asrwt>0</asrwt>
<pdfrwt beam="1">  1        2 0.25662033E+00 0.59168401E+03</pdfrwt>
<pdfrwt beam="2">  1       -2 0.80723856E-02 0.59168401E+03</pdfrwt>
<totfact> 0.10141980E+03</totfact>
</mgrwt>
</event>
<event>
 4    1  0.6739609E-006  0.8317349E+03  0.7818608E-02  0.9515185E-01
         -2   -1    0    0    0  501 -0.00000000000E+00  0.00000000000E+00  0.10290572957E+03  0.10290572960E+03  0.25500000000E-02 0. -1.
          2   -1    0    0  501    0  0.00000000000E+00 -0.00000000000E+00 -0.16806229108E+04  0.16806229108E+04  0.25500000000E-02 0.  1.
   -5000001    1    1    2    0    0 -0.33130963218E+03  0.15092838638E+02 -0.83444101613E+03  0.93208673178E+03  0.25000000000E+03 0.  0.
    5000001    1    1    2    0    0  0.33130963218E+03 -0.15092838638E+02 -0.74327616515E+03  0.85144190867E+03  0.25000000000E+03 0.  0.
<mgrwt>
<rscale>  0 0.83173488E+03</rscale>
<asrwt>0</asrwt>
<pdfrwt beam="1">  1        2 0.25855735E+00 0.83173488E+03</pdfrwt>
<pdfrwt beam="2">  1       -2 0.15831652E-01 0.83173488E+03</pdfrwt>
<totfact> 0.32486762E+02</totfact>
</mgrwt>
</event>
<event>
 4    1  0.6739609E-006  0.8394313E+03  0.7818608E-02  0.9504633E-01
          2   -1    0    0  501    0  0.00000000000E+00  0.00000000000E+00  0.11167671492E+04  0.11167671492E+04  0.25500000000E-02 0.  1.
         -2   -1    0    0    0  501 -0.00000000000E+00 -0.00000000000E+00 -0.15774213065E+03  0.15774213067E+03  0.25500000000E-02 0. -1.
   -5000001    1    1    2    0    0  0.29749070226E+03 -0.68890414029E+02  0.69644695502E+03  0.80049045481E+03  0.25000000000E+03 0.  0.
    5000001    1    1    2    0    0 -0.29749070226E+03  0.68890414029E+02  0.26257806355E+03  0.47401882509E+03  0.25000000000E+03 0.  0.
<mgrwt>
<rscale>  0 0.83943131E+03</rscale>
<asrwt>0</asrwt>
<pdfrwt beam="1">  1        2 0.17181033E+00 0.83943131E+03</pdfrwt>
<pdfrwt beam="2">  1       -2 0.24268020E-01 0.83943131E+03</pdfrwt>
<totfact> 0.32302506E+02</totfact>
</mgrwt>
</event>
<event>
 4    1  0.6739609E-006  0.7711986E+03  0.7818608E-02  0.9602668E-01
         -2   -1    0    0    0  501 -0.00000000000E+00  0.00000000000E+00  0.11590546182E+03  0.11590546185E+03  0.25500000000E-02 0. -1.
          2   -1    0    0  501    0  0.00000000000E+00 -0.00000000000E+00 -0.12828284119E+04  0.12828284119E+04  0.25500000000E-02 0.  1.
   -5000001    1    1    2    0    0  0.16823505033E+03 -0.22596199923E+03 -0.43362450271E+03  0.57436231301E+03  0.25000000000E+03 0.  0.
    5000001    1    1    2    0    0 -0.16823505033E+03  0.22596199923E+03 -0.73329844739E+03  0.82437156076E+03  0.25000000000E+03 0.  0.
<mgrwt>
<rscale>  0 0.77119860E+03</rscale>
<asrwt>0</asrwt>
<pdfrwt beam="1">  1        2 0.19735821E+00 0.77119860E+03</pdfrwt>
<pdfrwt beam="2">  1       -2 0.17831610E-01 0.77119860E+03</pdfrwt>
<totfact> 0.44448161E+02</totfact>
</mgrwt>
</event>
<event>
 4    1  0.6739609E-006  0.9608836E+03  0.7818608E-02  0.9352519E-01
         -2   -1    0    0    0  501 -0.00000000000E+00  0.00000000000E+00  0.17470271613E+03  0.17470271615E+03  0.25500000000E-02 0. -1.
          2   -1    0    0  501    0  0.00000000000E+00 -0.00000000000E+00 -0.13212405201E+04  0.13212405201E+04  0.25500000000E-02 0.  1.
   -5000001    1    1    2    0    0 -0.31707266680E+03  0.25144541399E+03 -0.67845004249E+03  0.82858574234E+03  0.25000000000E+03 0.  0.
    5000001    1    1    2    0    0  0.31707266680E+03 -0.25144541399E+03 -0.46808776150E+03  0.66735749394E+03  0.25000000000E+03 0.  0.
<mgrwt>
<rscale>  0 0.96088357E+03</rscale>
<asrwt>0</asrwt>
<pdfrwt beam="1">  1        2 0.20326777E+00 0.96088357E+03</pdfrwt>
<pdfrwt beam="2">  1       -2 0.26877342E-01 0.96088357E+03</pdfrwt>
<totfact> 0.20172107E+02</totfact>
</mgrwt>
</event>
<event>
 4    1  0.6739609E-006  0.7280196E+03  0.7818608E-02  0.9670479E-01
          2   -1    0    0  501    0  0.00000000000E+00  0.00000000000E+00  0.34761042159E+03  0.34761042160E+03  0.25500000000E-02 0.  1.
         -2   -1    0    0    0  501 -0.00000000000E+00 -0.00000000000E+00 -0.38118290607E+03  0.38118290608E+03  0.25500000000E-02 0. -1.
   -5000001    1    1    2    0    0 -0.25124703880E+03 -0.71194465948E+02 -0.59368774805E+02  0.36635826442E+03  0.25000000000E+03 0.  0.
    5000001    1    1    2    0    0  0.25124703880E+03  0.71194465948E+02  0.25796290323E+02  0.36243506326E+03  0.25000000000E+03 0.  0.
<mgrwt>
<rscale>  0 0.72801964E+03</rscale>
<asrwt>0</asrwt>
<pdfrwt beam="1">  1        2 0.53478527E-01 0.72801964E+03</pdfrwt>
<pdfrwt beam="2">  1       -2 0.58643523E-01 0.72801964E+03</pdfrwt>
<totfact> 0.25547203E+02</totfact>
</mgrwt>
</event>
<event>
 4    1  0.6739609E-006  0.7588179E+03  0.7818608E-02  0.9621617E-01
          2   -1    0    0  501    0  0.00000000000E+00  0.00000000000E+00  0.36648963580E+04  0.36648963580E+04  0.25500000000E-02 0.  1.
         -2   -1    0    0    0  501 -0.00000000000E+00 -0.00000000000E+00 -0.39278369042E+02  0.39278369124E+02  0.25500000000E-02 0. -1.
   -5000001    1    1    2    0    0 -0.12685745648E+03 -0.17635246789E+03  0.27163249278E+04  0.27364418723E+04  0.25000000000E+03 0.  0.
    5000001    1    1    2    0    0  0.12685745648E+03  0.17635246789E+03  0.90929306111E+03  0.96773285475E+03  0.25000000000E+03 0.  0.
<mgrwt>
<rscale>  0 0.75881790E+03</rscale>
<asrwt>0</asrwt>
<pdfrwt beam="1">  1        2 0.56383013E+00 0.75881790E+03</pdfrwt>
<pdfrwt beam="2">  1       -2 0.60428269E-02 0.75881790E+03</pdfrwt>
<totfact> 0.10298047E+02</totfact>
</mgrwt>
</event>
<event>
 4    1  0.6739609E-006  0.7372174E+03  0.7818608E-02  0.9655620E-01
         -2   -1    0    0    0  501 -0.00000000000E+00  0.00000000000E+00  0.10565700205E+03  0.10565700208E+03  0.25500000000E-02 0. -1.
          2   -1    0    0  501    0  0.00000000000E+00 -0.00000000000E+00 -0.12859758896E+04  0.12859758896E+04  0.25500000000E-02 0.  1.
   -5000001    1    1    2    0    0 -0.13490819564E+03 -0.12593258009E+03 -0.96444054369E+03  0.10132644266E+04  0.25000000000E+03 0.  0.
    5000001    1    1    2    0    0  0.13490819564E+03  0.12593258009E+03 -0.21587834383E+03  0.37836846501E+03  0.25000000000E+03 0.  0.
<mgrwt>
<rscale>  0 0.73721736E+03</rscale>
<asrwt>0</asrwt>
<pdfrwt beam="1">  1        2 0.19784243E+00 0.73721736E+03</pdfrwt>
<pdfrwt beam="2">  1       -2 0.16254924E-01 0.73721736E+03</pdfrwt>
<totfact> 0.51967327E+02</totfact>
</mgrwt>
</event>
<event>
 4    1  0.6739609E-006  0.8429641E+03  0.7818608E-02  0.9499829E-01
          2   -1    0    0  501    0  0.00000000000E+00  0.00000000000E+00  0.15913426333E+04  0.15913426333E+04  0.25500000000E-02 0.  1.
         -2   -1    0    0    0  501 -0.00000000000E+00 -0.00000000000E+00 -0.11163348642E+03  0.11163348645E+03  0.25500000000E-02 0. -1.
   -5000001    1    1    2    0    0  0.31078495924E+03  0.12478828315E+03  0.85028007979E+03  0.94743634118E+03  0.25000000000E+03 0.  0.
    5000001    1    1    2    0    0 -0.31078495924E+03 -0.12478828315E+03  0.62942906710E+03  0.75553977858E+03  0.25000000000E+03 0.  0.
<mgrwt>
<rscale>  0 0.84296412E+03</rscale>
<asrwt>0</asrwt>
<pdfrwt beam="1">  1        2 0.24482195E+00 0.84296412E+03</pdfrwt>
<pdfrwt beam="2">  1       -2 0.17174382E-01 0.84296412E+03</pdfrwt>
<totfact> 0.31630743E+02</totfact>
</mgrwt>
</event>
<event>
 4    1  0.6739609E-006  0.6281039E+03  0.7818608E-02  0.9848756E-01
          2   -1    0    0  501    0  0.00000000000E+00  0.00000000000E+00  0.46507592287E+03  0.46507592287E+03  0.25500000000E-02 0.  1.
         -2   -1    0    0    0  501 -0.00000000000E+00 -0.00000000000E+00 -0.21206991949E+03  0.21206991950E+03  0.25500000000E-02 0. -1.
   -5000001    1    1    2    0    0  0.16903782904E+03 -0.80824214800E+02  0.92033577575E+02  0.32569390652E+03  0.25000000000E+03 0.  0.
    5000001    1    1    2    0    0 -0.16903782904E+03  0.80824214800E+02  0.16097242580E+03  0.35145193585E+03  0.25000000000E+03 0.  0.
<mgrwt>
<rscale>  0 0.62810386E+03</rscale>
<asrwt>0</asrwt>
<pdfrwt beam="1">  1        2 0.71550142E-01 0.62810386E+03</pdfrwt>
<pdfrwt beam="2">  1       -2 0.32626142E-01 0.62810386E+03</pdfrwt>
<totfact> 0.59021402E+02</totfact>
</mgrwt>
</event>
<event>
 4    1  0.6739609E-006  0.6020885E+03  0.7818608E-02  0.9901083E-01
          2   -1    0    0  501    0  0.00000000000E+00  0.00000000000E+00  0.74281102081E+03  0.74281102082E+03  0.25500000000E-02 0.  1.
         -2   -1    0    0    0  501 -0.00000000000E+00 -0.00000000000E+00 -0.12200631387E+03  0.12200631390E+03  0.25500000000E-02 0. -1.
   -5000001    1    1    2    0    0  0.90094786446E+02  0.90486812670E+02  0.15422343296E+03  0.32029642690E+03  0.25000000000E+03 0.  0.
    5000001    1    1    2    0    0 -0.90094786446E+02 -0.90486812670E+02  0.46658127398E+03  0.54452090781E+03  0.25000000000E+03 0.  0.
<mgrwt>
<rscale>  0 0.60208848E+03</rscale>
<asrwt>0</asrwt>
<pdfrwt beam="1">  1        2 0.11427862E+00 0.60208848E+03</pdfrwt>
<pdfrwt beam="2">  1       -2 0.18770202E-01 0.60208848E+03</pdfrwt>
<totfact> 0.90996799E+02</totfact>
</mgrwt>
</event>
<event>
 4    1  0.6739609E-006  0.5747607E+03  0.7818608E-02  0.9959199E-01
         -2   -1    0    0    0  501 -0.00000000000E+00  0.00000000000E+00  0.42486056653E+02  0.42486056729E+02  0.25500000000E-02 0. -1.
          2   -1    0    0  501    0  0.00000000000E+00 -0.00000000000E+00 -0.19438723717E+04  0.19438723717E+04  0.25500000000E-02 0.  1.
   -5000001    1    1    2    0    0  0.36240148629E+02 -0.11898012010E+03 -0.11855432068E+04  0.12179828868E+04  0.25000000000E+03 0.  0.
    5000001    1    1    2    0    0 -0.36240148629E+02  0.11898012010E+03 -0.71584310826E+03  0.76837554164E+03  0.25000000000E+03 0.  0.
<mgrwt>
<rscale>  0 0.57476072E+03</rscale>
<asrwt>0</asrwt>
<pdfrwt beam="1">  1        2 0.29905722E+00 0.57476072E+03</pdfrwt>
<pdfrwt beam="2">  1       -2 0.65363179E-02 0.57476072E+03</pdfrwt>
<totfact> 0.10056770E+03</totfact>
</mgrwt>
</event>
<event>
 4    1  0.6739609E-006  0.8358058E+03  0.7818608E-02  0.9509588E-01
          2   -1    0    0  501    0  0.00000000000E+00  0.00000000000E+00  0.10829160376E+04  0.10829160376E+04  0.25500000000E-02 0.  1.
         -2   -1    0    0    0  501 -0.00000000000E+00 -0.00000000000E+00 -0.16127088730E+03  0.16127088732E+03  0.25500000000E-02 0. -1.
   -5000001    1    1    2    0    0 -0.11199178555E+03  0.29142021449E+03  0.64115268978E+03  0.75567497845E+03  0.25000000000E+03 0.  0.
    5000001    1    1    2    0    0  0.11199178555E+03 -0.29142021449E+03  0.28049246053E+03  0.48851194648E+03  0.25000000000E+03 0.  0.
<mgrwt>
<rscale>  0 0.83580579E+03</rscale>
<asrwt>0</asrwt>
<pdfrwt beam="1">  1        2 0.16660246E+00 0.83580579E+03</pdfrwt>
<pdfrwt beam="2">  1       -2 0.24810907E-01 0.83580579E+03</pdfrwt>
<totfact> 0.32567329E+02</totfact>
</mgrwt>
</event>
<event>
 4    1  0.6739609E-006  0.9635402E+03  0.7818608E-02  0.9349463E-01
          2   -1    0    0  501    0  0.00000000000E+00  0.00000000000E+00  0.43160495073E+03  0.43160495074E+03  0.25500000000E-02 0.  1.
         -2   -1    0    0    0  501 -0.00000000000E+00 -0.00000000000E+00 -0.53776588889E+03  0.53776588889E+03  0.25500000000E-02 0. -1.
   -5000001    1    1    2    0    0 -0.36575108717E+03 -0.18923609482E+03 -0.57379809449E+02  0.48515626337E+03  0.25000000000E+03 0.  0.
    5000001    1    1    2    0    0  0.36575108717E+03  0.18923609482E+03 -0.48781128709E+02  0.48421457627E+03  0.25000000000E+03 0.  0.
<mgrwt>
<rscale>  0 0.96354018E+03</rscale>
<asrwt>0</asrwt>
<pdfrwt beam="1">  1        2 0.66400762E-01 0.96354018E+03</pdfrwt>
<pdfrwt beam="2">  1       -2 0.82733213E-01 0.96354018E+03</pdfrwt>
<totfact> 0.93549383E+01</totfact>
</mgrwt>
</event>
<event>
 4    1  0.6739609E-006  0.5928655E+03  0.7818608E-02  0.9920319E-01
          2   -1    0    0  501    0  0.00000000000E+00  0.00000000000E+00  0.74227362956E+03  0.74227362957E+03  0.25500000000E-02 0.  1.
         -2   -1    0    0    0  501 -0.00000000000E+00 -0.00000000000E+00 -0.11838272391E+03  0.11838272394E+03  0.25500000000E-02 0. -1.
   -5000001    1    1    2    0    0 -0.13738988741E+03  0.54630728995E+02  0.22591678102E+03  0.36796588111E+03  0.25000000000E+03 0.  0.
    5000001    1    1    2    0    0  0.13738988741E+03 -0.54630728995E+02  0.39797412463E+03  0.49269047240E+03  0.25000000000E+03 0.  0.
<mgrwt>
<rscale>  0 0.59286550E+03</rscale>
<asrwt>0</asrwt>
<pdfrwt beam="1">  1        2 0.11419594E+00 0.59286550E+03</pdfrwt>
<pdfrwt beam="2">  1       -2 0.18212727E-01 0.59286550E+03</pdfrwt>
<totfact> 0.95960735E+02</totfact>
</mgrwt>
</event>
<event>
 4    1  0.6739609E-006  0.5746526E+03  0.7818608E-02  0.9959436E-01
          2   -1    0    0  501    0  0.00000000000E+00  0.00000000000E+00  0.28778988884E+04  0.28778988884E+04  0.25500000000E-02 0.  1.
         -2   -1    0    0    0  501 -0.00000000000E+00 -0.00000000000E+00 -0.28686344235E+02  0.28686344348E+02  0.25500000000E-02 0. -1.
   -5000001    1    1    2    0    0  0.72791219939E+02 -0.10983421906E+03  0.11620640599E+04  0.11959326890E+04  0.25000000000E+03 0.  0.
    5000001    1    1    2    0    0 -0.72791219939E+02  0.10983421906E+03  0.16871484843E+04  0.17106525438E+04  0.25000000000E+03 0.  0.
<mgrwt>
<rscale>  0 0.57465258E+03</rscale>
<asrwt>0</asrwt>
<pdfrwt beam="1">  1        2 0.44275385E+00 0.57465258E+03</pdfrwt>
<pdfrwt beam="2">  1       -2 0.44132820E-02 0.57465258E+03</pdfrwt>
<totfact> 0.55551998E+02</totfact>
</mgrwt>
</event>
<event>
 4    1  0.6739609E-006  0.8507762E+03  0.7818608E-02  0.9489296E-01
         -2   -1    0    0    0  501 -0.00000000000E+00  0.00000000000E+00  0.29084127541E+03  0.29084127542E+03  0.25500000000E-02 0. -1.
          2   -1    0    0  501    0  0.00000000000E+00 -0.00000000000E+00 -0.62217790687E+03  0.62217790688E+03  0.25500000000E-02 0.  1.
   -5000001    1    1    2    0    0 -0.23839469383E+03 -0.14423358348E+03 -0.38248828637E+03  0.53519402637E+03  0.25000000000E+03 0.  0.
    5000001    1    1    2    0    0  0.23839469383E+03  0.14423358348E+03  0.51151654900E+02  0.37782515593E+03  0.25000000000E+03 0.  0.
<mgrwt>
<rscale>  0 0.85077615E+03</rscale>
<asrwt>0</asrwt>
<pdfrwt beam="1">  1        2 0.95719678E-01 0.85077615E+03</pdfrwt>
<pdfrwt beam="2">  1       -2 0.44744812E-01 0.85077615E+03</pdfrwt>
<totfact> 0.22585464E+02</totfact>
</mgrwt>
</event>
<event>
 4    1  0.6739609E-006  0.7708221E+03  0.7818608E-02  0.9603238E-01
         -2   -1    0    0    0  501 -0.00000000000E+00  0.00000000000E+00  0.39285380545E+03  0.39285380545E+03  0.25500000000E-02 0.  1.
          2   -1    0    0  501    0  0.00000000000E+00 -0.00000000000E+00 -0.37810926766E+03  0.37810926767E+03  0.25500000000E-02 0. -1.
   -5000001    1    1    2    0    0  0.26874391564E+03 -0.38212801527E+02 -0.10381530257E+03  0.38335509315E+03  0.25000000000E+03 0.  0.
    5000001    1    1    2    0    0 -0.26874391564E+03  0.38212801527E+02  0.11855984036E+03  0.38760797998E+03  0.25000000000E+03 0.  0.
<mgrwt>
<rscale>  0 0.77082207E+03</rscale>
<asrwt>0</asrwt>
<pdfrwt beam="1">  1        2 0.58170657E-01 0.77082207E+03</pdfrwt>
<pdfrwt beam="2">  1       -2 0.60439047E-01 0.77082207E+03</pdfrwt>
<totfact> 0.21790425E+02</totfact>
</mgrwt>
</event>
<event>
 4    1  0.6739609E-006  0.6073137E+03  0.7818608E-02  0.9890347E-01
         -2   -1    0    0    0  501 -0.00000000000E+00  0.00000000000E+00  0.49732795556E+02  0.49732795621E+02  0.25500000000E-02 0. -1.
          2   -1    0    0  501    0  0.00000000000E+00 -0.00000000000E+00 -0.18540581167E+04  0.18540581167E+04  0.25500000000E-02 0.  1.
   -5000001    1    1    2    0    0  0.27837018516E+02 -0.14294525717E+03 -0.11911616844E+04  0.12257954171E+04  0.25000000000E+03 0.  0.
    5000001    1    1    2    0    0 -0.27837018516E+02  0.14294525717E+03 -0.61316363675E+03  0.67799549525E+03  0.25000000000E+03 0.  0.
<mgrwt>
<rscale>  0 0.60731374E+03</rscale>
<asrwt>0</asrwt>
<pdfrwt beam="1">  1        2 0.28523966E+00 0.60731374E+03</pdfrwt>
<pdfrwt beam="2">  1       -2 0.76512007E-02 0.60731374E+03</pdfrwt>
<totfact> 0.87493305E+02</totfact>
</mgrwt>
</event>
<event>
 4    1  0.6739609E-006  0.8071527E+03  0.7818608E-02  0.9549721E-01
          2   -1    0    0  501    0  0.00000000000E+00  0.00000000000E+00  0.55468967562E+03  0.55468967562E+03  0.25500000000E-02 0.  1.
         -2   -1    0    0    0  501 -0.00000000000E+00 -0.00000000000E+00 -0.29363063142E+03  0.29363063144E+03  0.25500000000E-02 0. -1.
   -5000001    1    1    2    0    0  0.23496010774E+03  0.19695383180E+03  0.46601676221E+02  0.39833249970E+03  0.25000000000E+03 0.  0.
    5000001    1    1    2    0    0 -0.23496010774E+03 -0.19695383180E+03  0.21445736797E+03  0.44998780736E+03  0.25000000000E+03 0.  0.
<mgrwt>
<rscale>  0 0.80715272E+03</rscale>
<asrwt>0</asrwt>
<pdfrwt beam="1">  1        2 0.85336873E-01 0.80715272E+03</pdfrwt>
<pdfrwt beam="2">  1       -2 0.45173943E-01 0.80715272E+03</pdfrwt>
<totfact> 0.25487875E+02</totfact>
</mgrwt>
</event>
<event>
 4    1  0.6739609E-006  0.8530629E+03  0.7818608E-02  0.9486235E-01
          2   -1    0    0  501    0  0.00000000000E+00  0.00000000000E+00  0.11916162538E+04  0.11916162538E+04  0.25500000000E-02 0.  1.
         -2   -1    0    0    0  501 -0.00000000000E+00 -0.00000000000E+00 -0.15267420268E+03  0.15267420270E+03  0.25500000000E-02 0. -1.
   -5000001    1    1    2    0    0 -0.17857939035E+03  0.26825874892E+03  0.32280200412E+03  0.52014852580E+03  0.25000000000E+03 0.  0.
    5000001    1    1    2    0    0  0.17857939035E+03 -0.26825874892E+03  0.71614004699E+03  0.82414193070E+03  0.25000000000E+03 0.  0.
<mgrwt>
<rscale>  0 0.85306286E+03</rscale>
<asrwt>0</asrwt>
<pdfrwt beam="1">  1        2 0.18332558E+00 0.85306286E+03</pdfrwt>
<pdfrwt beam="2">  1       -2 0.23488338E-01 0.85306286E+03</pdfrwt>
<totfact> 0.30852424E+02</totfact>
</mgrwt>
</event>
<event>
 4    1  0.6739609E-006  0.7652024E+03  0.7818608E-02  0.9611797E-01
         -2   -1    0    0    0  501 -0.00000000000E+00  0.00000000000E+00  0.13298098837E+03  0.13298098840E+03  0.25500000000E-02 0. -1.
          2   -1    0    0  501    0  0.00000000000E+00 -0.00000000000E+00 -0.11007865355E+04  0.11007865355E+04  0.25500000000E-02 0.  1.
   -5000001    1    1    2    0    0  0.28576083099E+03  0.42659194588E+02 -0.51633537603E+03  0.64232490217E+03  0.25000000000E+03 0.  0.
    5000001    1    1    2    0    0 -0.28576083099E+03 -0.42659194588E+02 -0.45147017109E+03  0.59144262173E+03  0.25000000000E+03 0.  0.
<mgrwt>
<rscale>  0 0.76520241E+03</rscale>
<asrwt>0</asrwt>
<pdfrwt beam="1">  1        2 0.16935177E+00 0.76520241E+03</pdfrwt>
<pdfrwt beam="2">  1       -2 0.20458614E-01 0.76520241E+03</pdfrwt>
<totfact> 0.44905935E+02</totfact>
</mgrwt>
</event>
<event>
 4    1  0.6739609E-006  0.6344024E+03  0.7818608E-02  0.9836495E-01
          2   -1    0    0  501    0  0.00000000000E+00  0.00000000000E+00  0.10668910488E+03  0.10668910491E+03  0.25500000000E-02 0. -1.
         -2   -1    0    0    0  501 -0.00000000000E+00 -0.00000000000E+00 -0.94308231555E+03  0.94308231556E+03  0.25500000000E-02 0.  1.
   -5000001    1    1    2    0    0  0.10852858921E+03  0.68250345700E+02 -0.17455021028E+03  0.33076326923E+03  0.25000000000E+03 0.  0.
    5000001    1    1    2    0    0 -0.10852858921E+03 -0.68250345700E+02 -0.66184300040E+03  0.71900815123E+03  0.25000000000E+03 0.  0.
<mgrwt>
<rscale>  0 0.63440242E+03</rscale>
<asrwt>0</asrwt>
<pdfrwt beam="1">  1        2 0.16413709E-01 0.63440242E+03</pdfrwt>
<pdfrwt beam="2">  1       -2 0.14508958E+00 0.63440242E+03</pdfrwt>
<totfact> 0.11940441E+02</totfact>
</mgrwt>
</event>
<event>
 4    1  0.6739609E-006  0.6782435E+03  0.7818608E-02  0.9755180E-01
         -2   -1    0    0    0  501 -0.00000000000E+00  0.00000000000E+00  0.81691336820E+02  0.81691336860E+02  0.25500000000E-02 0. -1.
          2   -1    0    0  501    0  0.00000000000E+00 -0.00000000000E+00 -0.14077815895E+04  0.14077815896E+04  0.25500000000E-02 0.  1.
   -5000001    1    1    2    0    0  0.21984765810E+03 -0.54714408426E+02 -0.58770663840E+03  0.67766197480E+03  0.25000000000E+03 0.  0.
    5000001    1    1    2    0    0 -0.21984765810E+03  0.54714408426E+02 -0.73838361432E+03  0.81181095162E+03  0.25000000000E+03 0.  0.
<mgrwt>
<rscale>  0 0.67824350E+03</rscale>
<asrwt>0</asrwt>
<pdfrwt beam="1">  1        2 0.21658177E+00 0.67824350E+03</pdfrwt>
<pdfrwt beam="2">  1       -2 0.12567899E-01 0.67824350E+03</pdfrwt>
<totfact> 0.68457649E+02</totfact>
</mgrwt>
</event>
<event>
 4    1  0.6739609E-006  0.9298886E+03  0.7818608E-02  0.9388972E-01
         -2   -1    0    0    0  501 -0.00000000000E+00  0.00000000000E+00  0.59198553118E+03  0.59198553118E+03  0.25500000000E-02 0. -1.
          2   -1    0    0  501    0  0.00000000000E+00 -0.00000000000E+00 -0.36516633469E+03  0.36516633470E+03  0.25500000000E-02 0.  1.
   -5000001    1    1    2    0    0  0.12763087336E+03 -0.37048534363E+03  0.10194033734E+03  0.47585802721E+03  0.25000000000E+03 0.  0.
    5000001    1    1    2    0    0 -0.12763087336E+03  0.37048534363E+03  0.12487885915E+03  0.48129383867E+03  0.25000000000E+03 0.  0.
<mgrwt>
<rscale>  0 0.92988857E+03</rscale>
<asrwt>0</asrwt>
<pdfrwt beam="1">  1        2 0.56179437E-01 0.92988857E+03</pdfrwt>
<pdfrwt beam="2">  1       -2 0.91074696E-01 0.92988857E+03</pdfrwt>
<totfact> 0.90808761E+01</totfact>
</mgrwt>
</event>
<event>
 4    1  0.6739609E-006  0.9554959E+03  0.7818608E-02  0.9358750E-01
          2   -1    0    0  501    0  0.00000000000E+00  0.00000000000E+00  0.20252276961E+04  0.20252276961E+04  0.25500000000E-02 0.  1.
         -2   -1    0    0    0  501 -0.00000000000E+00 -0.00000000000E+00 -0.11269996208E+03  0.11269996211E+03  0.25500000000E-02 0. -1.
   -5000001    1    1    2    0    0 -0.56982460180E+02  0.36842882761E+03  0.59026723827E+03  0.74155391871E+03  0.25000000000E+03 0.  0.
    5000001    1    1    2    0    0  0.56982460180E+02 -0.36842882761E+03  0.13222604958E+04  0.13963737396E+04  0.25000000000E+03 0.  0.
<mgrwt>
<rscale>  0 0.95549586E+03</rscale>
<asrwt>0</asrwt>
<pdfrwt beam="1">  1        2 0.31157349E+00 0.95549586E+03</pdfrwt>
<pdfrwt beam="2">  1       -2 0.17338456E-01 0.95549586E+03</pdfrwt>
<totfact> 0.17832807E+02</totfact>
</mgrwt>
</event>
<event>
 4    1  0.6739609E-006  0.6847809E+03  0.7818608E-02  0.9743619E-01
          2   -1    0    0  501    0  0.00000000000E+00  0.00000000000E+00  0.90306708653E+03  0.90306708653E+03  0.25500000000E-02 0.  1.
         -2   -1    0    0    0  501 -0.00000000000E+00 -0.00000000000E+00 -0.12981452966E+03  0.12981452969E+03  0.25500000000E-02 0. -1.
   -5000001    1    1    2    0    0 -0.20861809325E+03  0.10486616873E+03  0.40862977885E+03  0.53291342480E+03  0.25000000000E+03 0.  0.
    5000001    1    1    2    0    0  0.20861809325E+03 -0.10486616873E+03  0.36462277802E+03  0.49996819142E+03  0.25000000000E+03 0.  0.
<mgrwt>
<rscale>  0 0.68478093E+03</rscale>
<asrwt>0</asrwt>
<pdfrwt beam="1">  1        2 0.13893340E+00 0.68478093E+03</pdfrwt>
<pdfrwt beam="2">  1       -2 0.19971466E-01 0.68478093E+03</pdfrwt>
<totfact> 0.62830779E+02</totfact>
</mgrwt>
</event>
<event>
 4    1  0.6739609E-006  0.7589590E+03  0.7818608E-02  0.9621399E-01
          2   -1    0    0  501    0  0.00000000000E+00  0.00000000000E+00  0.24618799328E+03  0.24618799329E+03  0.25500000000E-02 0.  1.
         -2   -1    0    0    0  501 -0.00000000000E+00 -0.00000000000E+00 -0.58493785758E+03  0.58493785759E+03  0.25500000000E-02 0. -1.
   -5000001    1    1    2    0    0  0.25921446840E+03  0.44150517836E+02 -0.29113787793E+03  0.46519100682E+03  0.25000000000E+03 0.  0.
    5000001    1    1    2    0    0 -0.25921446840E+03 -0.44150517836E+02 -0.47611986374E+02  0.36593484406E+03  0.25000000000E+03 0.  0.
<mgrwt>
<rscale>  0 0.75895896E+03</rscale>
<asrwt>0</asrwt>
<pdfrwt beam="1">  1        2 0.37875076E-01 0.75895896E+03</pdfrwt>
<pdfrwt beam="2">  1       -2 0.89990439E-01 0.75895896E+03</pdfrwt>
<totfact> 0.14596898E+02</totfact>
</mgrwt>
</event>
<event>
 4    1  0.6739609E-006  0.5953929E+03  0.7818608E-02  0.9915011E-01
         -2   -1    0    0    0  501 -0.00000000000E+00  0.00000000000E+00  0.43305607759E+02  0.43305607835E+02  0.25500000000E-02 0. -1.
          2   -1    0    0  501    0  0.00000000000E+00 -0.00000000000E+00 -0.20464599114E+04  0.20464599114E+04  0.25500000000E-02 0.  1.
   -5000001    1    1    2    0    0 -0.65044604084E+02 -0.12488589122E+03 -0.72307861330E+03  0.77792671079E+03  0.25000000000E+03 0.  0.
    5000001    1    1    2    0    0  0.65044604084E+02  0.12488589122E+03 -0.12800756903E+04  0.13118388085E+04  0.25000000000E+03 0.  0.
<mgrwt>
<rscale>  0 0.59539295E+03</rscale>
<asrwt>0</asrwt>
<pdfrwt beam="1">  1        2 0.31483991E+00 0.59539295E+03</pdfrwt>
<pdfrwt beam="2">  1       -2 0.66624028E-02 0.59539295E+03</pdfrwt>
<totfact> 0.85756705E+02</totfact>
</mgrwt>
</event>
<event>
 4    1  0.6739609E-006  0.9184796E+03  0.7818608E-02  0.9402771E-01
          2   -1    0    0  501    0  0.00000000000E+00  0.00000000000E+00  0.55644662193E+03  0.55644662193E+03  0.25500000000E-02 0.  1.
         -2   -1    0    0    0  501 -0.00000000000E+00 -0.00000000000E+00 -0.37901427434E+03  0.37901427435E+03  0.25500000000E-02 0. -1.
   -5000001    1    1    2    0    0 -0.27597944272E+03 -0.11354114017E+03 -0.15939599143E+03  0.42067009092E+03  0.25000000000E+03 0.  0.
    5000001    1    1    2    0    0  0.27597944272E+03  0.11354114017E+03  0.33682833902E+03  0.51479080536E+03  0.25000000000E+03 0.  0.
<mgrwt>
<rscale>  0 0.91847964E+03</rscale>
<asrwt>0</asrwt>
<pdfrwt beam="1">  1        2 0.85607172E-01 0.91847964E+03</pdfrwt>
<pdfrwt beam="2">  1       -2 0.58309889E-01 0.91847964E+03</pdfrwt>
<totfact> 0.14980678E+02</totfact>
</mgrwt>
</event>
<event>
 4    1  0.6739609E-006  0.7389326E+03  0.7818608E-02  0.9652875E-01
         -2   -1    0    0    0  501 -0.00000000000E+00  0.00000000000E+00  0.42591758233E+02  0.42591758309E+02  0.25500000000E-02 0. -1.
          2   -1    0    0  501    0  0.00000000000E+00 -0.00000000000E+00 -0.32049711600E+04  0.32049711600E+04  0.25500000000E-02 0.  1.
   -5000001    1    1    2    0    0  0.27324311857E+02  0.68912677378E+02 -0.27315371212E+04  0.27439552875E+04  0.25000000000E+03 0.  0.
    5000001    1    1    2    0    0 -0.27324311857E+02 -0.68912677378E+02 -0.43084228058E+03  0.50360763086E+03  0.25000000000E+03 0.  0.
<mgrwt>
<rscale>  0 0.73893263E+03</rscale>
<asrwt>0</asrwt>
<pdfrwt beam="1">  1        2 0.49307230E+00 0.73893263E+03</pdfrwt>
<pdfrwt beam="2">  1       -2 0.65525807E-02 0.73893263E+03</pdfrwt>
<totfact> 0.18521997E+02</totfact>
</mgrwt>
</event>
<event>
 4    1  0.6739609E-006  0.9991813E+03  0.7818608E-02  0.9309443E-01
         -2   -1    0    0    0  501 -0.00000000000E+00  0.00000000000E+00  0.34328242463E+03  0.34328242464E+03  0.25500000000E-02 0. -1.
          2   -1    0    0  501    0  0.00000000000E+00 -0.00000000000E+00 -0.72707130264E+03  0.72707130264E+03  0.25500000000E-02 0.  1.
   -5000001    1    1    2    0    0 -0.80333854481E+02 -0.37492958699E+03  0.22525925933E+02  0.45829372755E+03  0.25000000000E+03 0.  0.
    5000001    1    1    2    0    0  0.80333854481E+02  0.37492958699E+03 -0.40631480394E+03  0.61205999973E+03  0.25000000000E+03 0.  0.
<mgrwt>
<rscale>  0 0.99918126E+03</rscale>
<asrwt>0</asrwt>
<pdfrwt beam="1">  1        2 0.11185712E+00 0.99918126E+03</pdfrwt>
<pdfrwt beam="2">  1       -2 0.52812681E-01 0.99918126E+03</pdfrwt>
<totfact> 0.13183470E+02</totfact>
</mgrwt>
</event>
<event>
 4    1  0.6739609E-006  0.7307370E+03  0.7818608E-02  0.9666065E-01
          2   -1    0    0  501    0  0.00000000000E+00  0.00000000000E+00  0.76901426271E+03  0.76901426271E+03  0.25500000000E-02 0.  1.
         -2   -1    0    0    0  501 -0.00000000000E+00 -0.00000000000E+00 -0.17359125570E+03  0.17359125572E+03  0.25500000000E-02 0. -1.
   -5000001    1    1    2    0    0 -0.23643274916E+03  0.10005549287E+03  0.20574873391E+03  0.41321191662E+03  0.25000000000E+03 0.  0.
    5000001    1    1    2    0    0  0.23643274916E+03 -0.10005549287E+03  0.38967427310E+03  0.52939360182E+03  0.25000000000E+03 0.  0.
<mgrwt>
<rscale>  0 0.73073703E+03</rscale>
<asrwt>0</asrwt>
<pdfrwt beam="1">  1        2 0.11830989E+00 0.73073703E+03</pdfrwt>
<pdfrwt beam="2">  1       -2 0.26706347E-01 0.73073703E+03</pdfrwt>
<totfact> 0.46391042E+02</totfact>
</mgrwt>
</event>
<event>
 4    1  0.6739609E-006  0.6829027E+03  0.7818608E-02  0.9746926E-01
         -2   -1    0    0    0  501 -0.00000000000E+00  0.00000000000E+00  0.34458859901E+03  0.34458859902E+03  0.25500000000E-02 0. -1.
          2   -1    0    0  501    0  0.00000000000E+00 -0.00000000000E+00 -0.33834269087E+03  0.33834269088E+03  0.25500000000E-02 0.  1.
   -5000001    1    1    2    0    0 -0.34390599041E+02 -0.15037574120E+03  0.17718039024E+03  0.34305752802E+03  0.25000000000E+03 0.  0.
    5000001    1    1    2    0    0  0.34390599041E+02  0.15037574120E+03 -0.17093448211E+03  0.33987376188E+03  0.25000000000E+03 0.  0.
<mgrwt>
<rscale>  0 0.68290273E+03</rscale>
<asrwt>0</asrwt>
<pdfrwt beam="1">  1        2 0.52052722E-01 0.68290273E+03</pdfrwt>
<pdfrwt beam="2">  1       -2 0.53013631E-01 0.68290273E+03</pdfrwt>
<totfact> 0.32514233E+02</totfact>
</mgrwt>
</event>
<event>
 4    1  0.6739609E-006  0.5303171E+03  0.7818608E-02  0.1006155E+00
          2   -1    0    0  501    0  0.00000000000E+00  0.00000000000E+00  0.22068261446E+04  0.22068261446E+04  0.25500000000E-02 0.  1.
         -2   -1    0    0    0  501 -0.00000000000E+00 -0.00000000000E+00 -0.31859808982E+02  0.31859809084E+02  0.25500000000E-02 0. -1.
   -5000001    1    1    2    0    0 -0.16311374624E+02 -0.86850334632E+02  0.10869172782E+04  0.11187931941E+04  0.25000000000E+03 0.  0.
    5000001    1    1    2    0    0  0.16311374624E+02  0.86850334632E+02  0.10880490574E+04  0.11198927596E+04  0.25000000000E+03 0.  0.
<mgrwt>
<rscale>  0 0.53031711E+03</rscale>
<asrwt>0</asrwt>
<pdfrwt beam="1">  1        2 0.33951185E+00 0.53031711E+03</pdfrwt>
<pdfrwt beam="2">  1       -2 0.49015072E-02 0.53031711E+03</pdfrwt>
<totfact> 0.11377958E+03</totfact>
</mgrwt>
</event>
<event>
 4    1  0.6739609E-006  0.6878330E+03  0.7818608E-02  0.9738269E-01
          2   -1    0    0  501    0  0.00000000000E+00  0.00000000000E+00  0.83101536795E+03  0.83101536795E+03  0.25500000000E-02 0.  1.
         -2   -1    0    0    0  501 -0.00000000000E+00 -0.00000000000E+00 -0.14233015831E+03  0.14233015833E+03  0.25500000000E-02 0. -1.
   -5000001    1    1    2    0    0  0.22630224060E+03 -0.63831609433E+02  0.31297448024E+03  0.46447842118E+03  0.25000000000E+03 0.  0.
    5000001    1    1    2    0    0 -0.22630224060E+03  0.63831609433E+02  0.37571072940E+03  0.50886710510E+03  0.25000000000E+03 0.  0.
<mgrwt>
<rscale>  0 0.68783297E+03</rscale>
<asrwt>0</asrwt>
<pdfrwt beam="1">  1        2 0.12784852E+00 0.68783297E+03</pdfrwt>
<pdfrwt beam="2">  1       -2 0.21896947E-01 0.68783297E+03</pdfrwt>
<totfact> 0.59870952E+02</totfact>
</mgrwt>
</event>
<event>
 4    1  0.6739609E-006  0.5805713E+03  0.7818608E-02  0.9946555E-01
         -2   -1    0    0    0  501 -0.00000000000E+00  0.00000000000E+00  0.22515071650E+02  0.22515071795E+02  0.25500000000E-02 0. -1.
          2   -1    0    0  501    0  0.00000000000E+00 -0.00000000000E+00 -0.37426383748E+04  0.37426383748E+04  0.25500000000E-02 0.  1.
   -5000001    1    1    2    0    0  0.44075305656E+02 -0.10541143417E+03 -0.24653680436E+04  0.24806438264E+04  0.25000000000E+03 0.  0.
    5000001    1    1    2    0    0 -0.44075305656E+02  0.10541143417E+03 -0.12547552596E+04  0.12845096202E+04  0.25000000000E+03 0.  0.
<mgrwt>
<rscale>  0 0.58057134E+03</rscale>
<asrwt>0</asrwt>
<pdfrwt beam="1">  1        2 0.57579002E+00 0.58057134E+03</pdfrwt>
<pdfrwt beam="2">  1       -2 0.34638602E-02 0.58057134E+03</pdfrwt>
<totfact> 0.22011187E+02</totfact>
</mgrwt>
</event>
<event>
 4    1  0.6739609E-006  0.2817765E+04  0.7818608E-02  0.8297774E-01
         -2   -1    0    0    0  501 -0.00000000000E+00  0.00000000000E+00  0.10366124184E+04  0.10366124184E+04  0.25500000000E-02 0. -1.
          2   -1    0    0  501    0  0.00000000000E+00 -0.00000000000E+00 -0.19148427318E+04  0.19148427318E+04  0.25500000000E-02 0.  1.
   -5000001    1    1    2    0    0 -0.11512123589E+04 -0.75202126025E+03 -0.62538349348E+03  0.15311532859E+04  0.25000000000E+03 0.  0.
    5000001    1    1    2    0    0  0.11512123589E+04  0.75202126025E+03 -0.25284681995E+03  0.14203018642E+04  0.25000000000E+03 0.  0.
<mgrwt>
<rscale>  0 0.28177649E+04</rscale>
<asrwt>0</asrwt>
<pdfrwt beam="1">  1        2 0.29459119E+00 0.28177649E+04</pdfrwt>
<pdfrwt beam="2">  1       -2 0.15947883E+00 0.28177649E+04</pdfrwt>
<totfact> 0.16454528E+00</totfact>
</mgrwt>
</event>
<event>
 4    1  0.6739609E-006  0.5508434E+03  0.7818608E-02  0.1001299E+00
         -2   -1    0    0    0  501 -0.00000000000E+00  0.00000000000E+00  0.91359056787E+02  0.91359056823E+02  0.25500000000E-02 0. -1.
          2   -1    0    0  501    0  0.00000000000E+00 -0.00000000000E+00 -0.83031843356E+03  0.83031843356E+03  0.25500000000E-02 0.  1.
   -5000001    1    1    2    0    0  0.10989451938E+03 -0.25691479966E+02 -0.41115076503E+03  0.49424873203E+03  0.25000000000E+03 0.  0.
    5000001    1    1    2    0    0 -0.10989451938E+03  0.25691479966E+02 -0.32780861174E+03  0.42742875835E+03  0.25000000000E+03 0.  0.
<mgrwt>
<rscale>  0 0.55084339E+03</rscale>
<asrwt>0</asrwt>
<pdfrwt beam="1">  1        2 0.12774129E+00 0.55084339E+03</pdfrwt>
<pdfrwt beam="2">  1       -2 0.14055240E-01 0.55084339E+03</pdfrwt>
<totfact> 0.12873230E+03</totfact>
</mgrwt>
</event>
<event>
 4    1  0.6739609E-006  0.8425502E+03  0.7818608E-02  0.9500391E-01
         -2   -1    0    0    0  501 -0.00000000000E+00  0.00000000000E+00  0.15291010414E+04  0.15291010414E+04  0.25500000000E-02 0. -1.
          2   -1    0    0  501    0  0.00000000000E+00 -0.00000000000E+00 -0.11606343815E+03  0.11606343818E+03  0.25500000000E-02 0.  1.
   -5000001    1    1    2    0    0  0.29125076221E+03  0.85644013900E+02  0.41161255298E+03  0.56928621745E+03  0.25000000000E+03 0.  0.
    5000001    1    1    2    0    0 -0.29125076221E+03 -0.85644013900E+02  0.10014250503E+04  0.10758782622E+04  0.25000000000E+03 0.  0.
<mgrwt>
<rscale>  0 0.84255023E+03</rscale>
<asrwt>0</asrwt>
<pdfrwt beam="1">  1        2 0.17855915E-01 0.84255023E+03</pdfrwt>
<pdfrwt beam="2">  1       -2 0.23524630E+00 0.84255023E+03</pdfrwt>
<totfact> 0.26205553E+01</totfact>
</mgrwt>
</event>
<event>
 4    1  0.6739609E-006  0.8738299E+03  0.7818608E-02  0.9458900E-01
          2   -1    0    0  501    0  0.00000000000E+00  0.00000000000E+00  0.80289036974E+03  0.80289036975E+03  0.25500000000E-02 0.  1.
         -2   -1    0    0    0  501 -0.00000000000E+00 -0.00000000000E+00 -0.23775930938E+03  0.23775930939E+03  0.25500000000E-02 0. -1.
   -5000001    1    1    2    0    0 -0.26868313283E+03 -0.49520107482E+02  0.55867045095E+03  0.67026527560E+03  0.25000000000E+03 0.  0.
    5000001    1    1    2    0    0  0.26868313283E+03  0.49520107482E+02  0.64606094123E+01  0.37038440354E+03  0.25000000000E+03 0.  0.
<mgrwt>
<rscale>  0 0.87382987E+03</rscale>
<asrwt>0</asrwt>
<pdfrwt beam="1">  1        2 0.12352159E+00 0.87382987E+03</pdfrwt>
<pdfrwt beam="2">  1       -2 0.36578356E-01 0.87382987E+03</pdfrwt>
<totfact> 0.24196003E+02</totfact>
</mgrwt>
</event>
<event>
 4    1  0.6739609E-006  0.9631032E+03  0.7818608E-02  0.9349965E-01
          2   -1    0    0  501    0  0.00000000000E+00  0.00000000000E+00  0.10393535215E+04  0.10393535215E+04  0.25500000000E-02 0.  1.
         -2   -1    0    0    0  501 -0.00000000000E+00 -0.00000000000E+00 -0.22311170472E+03  0.22311170473E+03  0.25500000000E-02 0. -1.
   -5000001    1    1    2    0    0 -0.18445035814E+03 -0.18209793301E+03  0.82719810602E+03  0.90218529052E+03  0.25000000000E+03 0.  0.
    5000001    1    1    2    0    0  0.18445035814E+03  0.18209793301E+03 -0.10956289216E+02  0.36027993574E+03  0.25000000000E+03 0.  0.
<mgrwt>
<rscale>  0 0.96310318E+03</rscale>
<asrwt>0</asrwt>
<pdfrwt beam="1">  1        2 0.15990054E+00 0.96310318E+03</pdfrwt>
<pdfrwt beam="2">  1       -2 0.34324877E-01 0.96310318E+03</pdfrwt>
<totfact> 0.18881209E+02</totfact>
</mgrwt>
</event>
<event>
 4    1  0.6739609E-006  0.5833713E+03  0.7818608E-02  0.9940519E-01
          2   -1    0    0  501    0  0.00000000000E+00  0.00000000000E+00  0.11991383813E+03  0.11991383816E+03  0.25500000000E-02 0.  1.
         -2   -1    0    0    0  501 -0.00000000000E+00 -0.00000000000E+00 -0.70951369877E+03  0.70951369878E+03  0.25500000000E-02 0. -1.
   -5000001    1    1    2    0    0  0.58362745618E+02  0.66258423527E+02 -0.12192533370E+03  0.29182559134E+03  0.25000000000E+03 0.  0.
    5000001    1    1    2    0    0 -0.58362745618E+02 -0.66258423527E+02 -0.46767452693E+03  0.53760194560E+03  0.25000000000E+03 0.  0.
<mgrwt>
<rscale>  0 0.58337127E+03</rscale>
<asrwt>0</asrwt>
<pdfrwt beam="1">  1        2 0.18448283E-01 0.58337127E+03</pdfrwt>
<pdfrwt beam="2">  1       -2 0.10915595E+00 0.58337127E+03</pdfrwt>
<totfact> 0.21198153E+02</totfact>
</mgrwt>
</event>
<event>
 4    1  0.6739609E-006  0.7447006E+03  0.7818608E-02  0.9643701E-01
         -2   -1    0    0    0  501 -0.00000000000E+00  0.00000000000E+00  0.79644148117E+02  0.79644148158E+02  0.25500000000E-02 0. -1.
          2   -1    0    0  501    0  0.00000000000E+00 -0.00000000000E+00 -0.17408026876E+04  0.17408026876E+04  0.25500000000E-02 0.  1.
   -5000001    1    1    2    0    0  0.17987808885E+03  0.20835111193E+03 -0.87813377004E+03  0.95361692034E+03  0.25000000000E+03 0.  0.
    5000001    1    1    2    0    0 -0.17987808885E+03 -0.20835111193E+03 -0.78302476942E+03  0.86682991539E+03  0.25000000000E+03 0.  0.
<mgrwt>
<rscale>  0 0.74470060E+03</rscale>
<asrwt>0</asrwt>
<pdfrwt beam="1">  1        2 0.26781577E+00 0.74470060E+03</pdfrwt>
<pdfrwt beam="2">  1       -2 0.12252947E-01 0.74470060E+03</pdfrwt>
<totfact> 0.46570420E+02</totfact>
</mgrwt>
</event>
<event>
 4    1  0.6739609E-006  0.6479109E+03  0.7818608E-02  0.9810707E-01
          2   -1    0    0  501    0  0.00000000000E+00  0.00000000000E+00  0.13832333357E+03  0.13832333360E+03  0.25500000000E-02 0.  1.
         -2   -1    0    0    0  501 -0.00000000000E+00 -0.00000000000E+00 -0.75870871378E+03  0.75870871379E+03  0.25500000000E-02 0. -1.
   -5000001    1    1    2    0    0  0.27892144062E+02  0.20360184984E+03 -0.28987148889E+03  0.43446192587E+03  0.25000000000E+03 0.  0.
    5000001    1    1    2    0    0 -0.27892144062E+02 -0.20360184984E+03 -0.33051389132E+03  0.46257012151E+03  0.25000000000E+03 0.  0.
<mgrwt>
<rscale>  0 0.64791085E+03</rscale>
<asrwt>0</asrwt>
<pdfrwt beam="1">  1        2 0.21280513E-01 0.64791085E+03</pdfrwt>
<pdfrwt beam="2">  1       -2 0.11672442E+00 0.64791085E+03</pdfrwt>
<totfact> 0.15205602E+02</totfact>
</mgrwt>
</event>
<event>
 4    1  0.6739609E-006  0.6265817E+03  0.7818608E-02  0.9851742E-01
         -2   -1    0    0    0  501 -0.00000000000E+00  0.00000000000E+00  0.67816808493E+02  0.67816808541E+02  0.25500000000E-02 0. -1.
          2   -1    0    0  501    0  0.00000000000E+00 -0.00000000000E+00 -0.14472984279E+04  0.14472984279E+04  0.25500000000E-02 0.  1.
   -5000001    1    1    2    0    0 -0.72735064257E+02  0.17415211337E+03 -0.70337925167E+03  0.76997514236E+03  0.25000000000E+03 0.  0.
    5000001    1    1    2    0    0  0.72735064257E+02 -0.17415211337E+03 -0.67610236775E+03  0.74514009411E+03  0.25000000000E+03 0.  0.
<mgrwt>
<rscale>  0 0.62658171E+03</rscale>
<asrwt>0</asrwt>
<pdfrwt beam="1">  1        2 0.22266127E+00 0.62658171E+03</pdfrwt>
<pdfrwt beam="2">  1       -2 0.10433356E-01 0.62658171E+03</pdfrwt>
<totfact> 0.88549152E+02</totfact>
</mgrwt>
</event>
<event>
 4    1  0.6739609E-006  0.9973117E+03  0.7818608E-02  0.9311498E-01
          2   -1    0    0  501    0  0.00000000000E+00  0.00000000000E+00  0.21574166617E+04  0.21574166617E+04  0.25500000000E-02 0.  1.
         -2   -1    0    0    0  501 -0.00000000000E+00 -0.00000000000E+00 -0.11525713418E+03  0.11525713421E+03  0.25500000000E-02 0. -1.
   -5000001    1    1    2    0    0 -0.11713203656E+03 -0.37830237199E+03  0.63084526243E+03  0.78568336102E+03  0.25000000000E+03 0.  0.
    5000001    1    1    2    0    0  0.11713203656E+03  0.37830237199E+03  0.14113142651E+04  0.14869904349E+04  0.25000000000E+03 0.  0.
<mgrwt>
<rscale>  0 0.99731171E+03</rscale>
<asrwt>0</asrwt>
<pdfrwt beam="1">  1        2 0.33191026E+00 0.99731171E+03</pdfrwt>
<pdfrwt beam="2">  1       -2 0.17731867E-01 0.99731171E+03</pdfrwt>
<totfact> 0.14454551E+02</totfact>
</mgrwt>
</event>
<event>
 4    1  0.6739609E-006  0.7678921E+03  0.7818608E-02  0.9607691E-01
          2   -1    0    0  501    0  0.00000000000E+00  0.00000000000E+00  0.13325961241E+04  0.13325961241E+04  0.25500000000E-02 0.  1.
         -2   -1    0    0    0  501 -0.00000000000E+00 -0.00000000000E+00 -0.11062210197E+03  0.11062210200E+03  0.25500000000E-02 0. -1.
   -5000001    1    1    2    0    0 -0.18995555632E+03 -0.20451552982E+03  0.45368589893E+03  0.58842213606E+03  0.25000000000E+03 0.  0.
    5000001    1    1    2    0    0  0.18995555632E+03  0.20451552982E+03  0.76828812319E+03  0.85479609004E+03  0.25000000000E+03 0.  0.
<mgrwt>
<rscale>  0 0.76789214E+03</rscale>
<asrwt>0</asrwt>
<pdfrwt beam="1">  1        2 0.20501479E+00 0.76789214E+03</pdfrwt>
<pdfrwt beam="2">  1       -2 0.17018784E-01 0.76789214E+03</pdfrwt>
<totfact> 0.45093548E+02</totfact>
</mgrwt>
</event>
<event>
 4    1  0.6739609E-006  0.7293872E+03  0.7818608E-02  0.9668255E-01
          2   -1    0    0  501    0  0.00000000000E+00  0.00000000000E+00  0.15871004371E+03  0.15871004373E+03  0.25500000000E-02 0.  1.
         -2   -1    0    0    0  501 -0.00000000000E+00 -0.00000000000E+00 -0.83801507257E+03  0.83801507258E+03  0.25500000000E-02 0. -1.
   -5000001    1    1    2    0    0  0.67765557404E+01  0.22653396979E+03 -0.15060810780E+03  0.36952180357E+03  0.25000000000E+03 0.  0.
    5000001    1    1    2    0    0 -0.67765557404E+01 -0.22653396979E+03 -0.52869692106E+03  0.62720331274E+03  0.25000000000E+03 0.  0.
<mgrwt>
<rscale>  0 0.72938716E+03</rscale>
<asrwt>0</asrwt>
<pdfrwt beam="1">  1        2 0.24416930E-01 0.72938716E+03</pdfrwt>
<pdfrwt beam="2">  1       -2 0.12892539E+00 0.72938716E+03</pdfrwt>
<totfact> 0.10091876E+02</totfact>
</mgrwt>
</event>
<event>
 4    1  0.6739609E-006  0.5377766E+03  0.7818608E-02  0.1004363E+00
         -2   -1    0    0    0  501 -0.00000000000E+00  0.00000000000E+00  0.37185438804E+02  0.37185438892E+02  0.25500000000E-02 0. -1.
          2   -1    0    0  501    0  0.00000000000E+00 -0.00000000000E+00 -0.19443343697E+04  0.19443343697E+04  0.25500000000E-02 0.  1.
   -5000001    1    1    2    0    0 -0.80732291509E+02  0.47986387886E+02 -0.10689535378E+04  0.11018085415E+04  0.25000000000E+03 0.  0.
    5000001    1    1    2    0    0  0.80732291509E+02 -0.47986387886E+02 -0.83819539317E+03  0.87971126709E+03  0.25000000000E+03 0.  0.
<mgrwt>
<rscale>  0 0.53777663E+03</rscale>
<asrwt>0</asrwt>
<pdfrwt beam="1">  1        2 0.29912828E+00 0.53777663E+03</pdfrwt>
<pdfrwt beam="2">  1       -2 0.57208383E-02 0.53777663E+03</pdfrwt>
<totfact> 0.12410679E+03</totfact>
</mgrwt>
</event>
<event>
 4    1  0.6739609E-006  0.6872232E+03  0.7818608E-02  0.9739335E-01
          2   -1    0    0  501    0  0.00000000000E+00  0.00000000000E+00  0.47261410079E+03  0.47261410080E+03  0.25500000000E-02 0.  1.
         -2   -1    0    0    0  501 -0.00000000000E+00 -0.00000000000E+00 -0.24982102220E+03  0.24982102221E+03  0.25500000000E-02 0. -1.
   -5000001    1    1    2    0    0 -0.19236631423E+03 -0.21422183879E+02 -0.30053489150E+02  0.31759553055E+03  0.25000000000E+03 0.  0.
    5000001    1    1    2    0    0  0.19236631423E+03  0.21422183879E+02  0.25284656774E+03  0.40483959247E+03  0.25000000000E+03 0.  0.
<mgrwt>
<rscale>  0 0.68722322E+03</rscale>
<asrwt>0</asrwt>
<pdfrwt beam="1">  1        2 0.72709861E-01 0.68722322E+03</pdfrwt>
<pdfrwt beam="2">  1       -2 0.38434004E-01 0.68722322E+03</pdfrwt>
<totfact> 0.42360325E+02</totfact>
</mgrwt>
</event>
<event>
 4    1  0.6739609E-006  0.1151711E+04  0.7818608E-02  0.9156207E-01
         -2   -1    0    0    0  501 -0.00000000000E+00  0.00000000000E+00  0.22970259494E+03  0.22970259495E+03  0.25500000000E-02 0. -1.
          2   -1    0    0  501    0  0.00000000000E+00 -0.00000000000E+00 -0.14436463758E+04  0.14436463758E+04  0.25500000000E-02 0.  1.
   -5000001    1    1    2    0    0 -0.18126458019E+03 -0.30835609794E+03 -0.61072245201E+02  0.44064742176E+03  0.25000000000E+03 0.  0.
    5000001    1    1    2    0    0  0.18126458019E+03  0.30835609794E+03 -0.11528715356E+04  0.12327015490E+04  0.25000000000E+03 0.  0.
<mgrwt>
<rscale>  0 0.11517106E+04</rscale>
<asrwt>0</asrwt>
<pdfrwt beam="1">  1        2 0.22209944E+00 0.11517106E+04</pdfrwt>
<pdfrwt beam="2">  1       -2 0.35338862E-01 0.11517106E+04</pdfrwt>
<totfact> 0.10163074E+02</totfact>
</mgrwt>
</event>
<event>
 4    1  0.6739609E-006  0.5714399E+03  0.7818608E-02  0.9966497E-01
          2   -1    0    0  501    0  0.00000000000E+00  0.00000000000E+00  0.34150214469E+03  0.34150214470E+03  0.25500000000E-02 0.  1.
         -2   -1    0    0    0  501 -0.00000000000E+00 -0.00000000000E+00 -0.23904942438E+03  0.23904942440E+03  0.25500000000E-02 0. -1.
   -5000001    1    1    2    0    0  0.10693982431E+03  0.20634192530E+02 -0.35421280875E+02  0.27498465969E+03  0.25000000000E+03 0.  0.
    5000001    1    1    2    0    0 -0.10693982431E+03 -0.20634192530E+02  0.13787400118E+03  0.30556690941E+03  0.25000000000E+03 0.  0.
<mgrwt>
<rscale>  0 0.57143990E+03</rscale>
<asrwt>0</asrwt>
<pdfrwt beam="1">  1        2 0.52538791E-01 0.57143990E+03</pdfrwt>
<pdfrwt beam="2">  1       -2 0.36776835E-01 0.57143990E+03</pdfrwt>
<totfact> 0.66564779E+02</totfact>
</mgrwt>
</event>
<event>
 4    1  0.6739609E-006  0.5248203E+03  0.7818608E-02  0.1007496E+00
          2   -1    0    0  501    0  0.00000000000E+00  0.00000000000E+00  0.55367864375E+03  0.55367864375E+03  0.25500000000E-02 0.  1.
         -2   -1    0    0    0  501 -0.00000000000E+00 -0.00000000000E+00 -0.12436654083E+03  0.12436654085E+03  0.25500000000E-02 0. -1.
   -5000001    1    1    2    0    0  0.52421018636E+02 -0.13940382277E+02  0.29017531902E+03  0.38683848467E+03  0.25000000000E+03 0.  0.
    5000001    1    1    2    0    0 -0.52421018636E+02  0.13940382277E+02  0.13913678390E+03  0.29120669993E+03  0.25000000000E+03 0.  0.
<mgrwt>
<rscale>  0 0.52482034E+03</rscale>
<asrwt>0</asrwt>
<pdfrwt beam="1">  1        2 0.85181329E-01 0.52482034E+03</pdfrwt>
<pdfrwt beam="2">  1       -2 0.19133314E-01 0.52482034E+03</pdfrwt>
<totfact> 0.12610142E+03</totfact>
</mgrwt>
</event>
<event>
 4    1  0.6739609E-006  0.1101199E+04  0.7818608E-02  0.9204024E-01
         -2   -1    0    0    0  501 -0.00000000000E+00  0.00000000000E+00  0.10861733943E+03  0.10861733946E+03  0.25500000000E-02 0. -1.
          2   -1    0    0  501    0  0.00000000000E+00 -0.00000000000E+00 -0.27910836800E+04  0.27910836800E+04  0.25500000000E-02 0.  1.
   -5000001    1    1    2    0    0  0.43028351829E+03 -0.16759611856E+03 -0.17773291247E+04  0.18532757978E+04  0.25000000000E+03 0.  0.
    5000001    1    1    2    0    0 -0.43028351829E+03  0.16759611856E+03 -0.90513721584E+03  0.10464252217E+04  0.25000000000E+03 0.  0.
<mgrwt>
<rscale>  0 0.11011995E+04</rscale>
<asrwt>0</asrwt>
<pdfrwt beam="1">  1        2 0.42939744E+00 0.11011995E+04</pdfrwt>
<pdfrwt beam="2">  1       -2 0.16710362E-01 0.11011995E+04</pdfrwt>
<totfact> 0.68862584E+01</totfact>
</mgrwt>
</event>
<event>
 4    1  0.6739609E-006  0.6406210E+03  0.7818608E-02  0.9824539E-01
          2   -1    0    0  501    0  0.00000000000E+00  0.00000000000E+00  0.29793643703E+04  0.29793643703E+04  0.25500000000E-02 0.  1.
         -2   -1    0    0    0  501 -0.00000000000E+00 -0.00000000000E+00 -0.34436480838E+02  0.34436480932E+02  0.25500000000E-02 0. -1.
   -5000001    1    1    2    0    0 -0.78578940230E+02  0.15487912713E+03  0.10035070448E+04  0.10486603754E+04  0.25000000000E+03 0.  0.
    5000001    1    1    2    0    0  0.78578940230E+02 -0.15487912713E+03  0.19414208446E+04  0.19651404758E+04  0.25000000000E+03 0.  0.
<mgrwt>
<rscale>  0 0.64062102E+03</rscale>
<asrwt>0</asrwt>
<pdfrwt beam="1">  1        2 0.45836369E+00 0.64062102E+03</pdfrwt>
<pdfrwt beam="2">  1       -2 0.52979208E-02 0.64062102E+03</pdfrwt>
<totfact> 0.36115128E+02</totfact>
</mgrwt>
</event>
<event>
 4    1  0.6739609E-006  0.7601918E+03  0.7818608E-02  0.9619495E-01
          2   -1    0    0  501    0  0.00000000000E+00  0.00000000000E+00  0.17889593570E+04  0.17889593570E+04  0.25500000000E-02 0.  1.
         -2   -1    0    0    0  501 -0.00000000000E+00 -0.00000000000E+00 -0.80758056384E+02  0.80758056424E+02  0.25500000000E-02 0. -1.
   -5000001    1    1    2    0    0 -0.21285737586E+02 -0.13856705382E+03  0.14680929763E+04  0.14958111171E+04  0.25000000000E+03 0.  0.
    5000001    1    1    2    0    0  0.21285737586E+02  0.13856705382E+03  0.24010832437E+03  0.37390629637E+03  0.25000000000E+03 0.  0.
<mgrwt>
<rscale>  0 0.76019177E+03</rscale>
<asrwt>0</asrwt>
<pdfrwt beam="1">  1        2 0.27522453E+00 0.76019177E+03</pdfrwt>
<pdfrwt beam="2">  1       -2 0.12424316E-01 0.76019177E+03</pdfrwt>
<totfact> 0.42794358E+02</totfact>
</mgrwt>
</event>
<event>
 4    1  0.6739609E-006  0.9953384E+03  0.7818608E-02  0.9313672E-01
          2   -1    0    0  501    0  0.00000000000E+00  0.00000000000E+00  0.37197459162E+03  0.37197459163E+03  0.25500000000E-02 0.  1.
         -2   -1    0    0    0  501 -0.00000000000E+00 -0.00000000000E+00 -0.66583752911E+03  0.66583752911E+03  0.25500000000E-02 0. -1.
   -5000001    1    1    2    0    0 -0.26351647455E+03  0.33995049588E+03 -0.13344221135E+03  0.51508649349E+03  0.25000000000E+03 0.  0.
    5000001    1    1    2    0    0  0.26351647455E+03 -0.33995049588E+03 -0.16042072614E+03  0.52272562725E+03  0.25000000000E+03 0.  0.
<mgrwt>
<rscale>  0 0.99533842E+03</rscale>
<asrwt>0</asrwt>
<pdfrwt beam="1">  1        2 0.57226860E-01 0.99533842E+03</pdfrwt>
<pdfrwt beam="2">  1       -2 0.10243654E+00 0.99533842E+03</pdfrwt>
<totfact> 0.67230019E+01</totfact>
</mgrwt>
</event>
<event>
 4    1  0.6739609E-006  0.7041675E+03  0.7818608E-02  0.9710132E-01
          2   -1    0    0  501    0  0.00000000000E+00  0.00000000000E+00  0.25615662413E+03  0.25615662414E+03  0.25500000000E-02 0.  1.
         -2   -1    0    0    0  501 -0.00000000000E+00 -0.00000000000E+00 -0.48393426182E+03  0.48393426182E+03  0.25500000000E-02 0. -1.
   -5000001    1    1    2    0    0  0.39752720587E+02  0.17611189731E+03  0.64682649348E+02  0.31508653462E+03  0.25000000000E+03 0.  0.
    5000001    1    1    2    0    0 -0.39752720587E+02 -0.17611189731E+03 -0.29246028704E+03  0.42500435135E+03  0.25000000000E+03 0.  0.
<mgrwt>
<rscale>  0 0.70416750E+03</rscale>
<asrwt>0</asrwt>
<pdfrwt beam="1">  1        2 0.39408712E-01 0.70416750E+03</pdfrwt>
<pdfrwt beam="2">  1       -2 0.74451425E-01 0.70416750E+03</pdfrwt>
<totfact> 0.21464527E+02</totfact>
</mgrwt>
</event>
<event>
 4    1  0.6739609E-006  0.5452054E+03  0.7818608E-02  0.1002610E+00
         -2   -1    0    0    0  501 -0.00000000000E+00  0.00000000000E+00  0.10569378691E+03  0.10569378694E+03  0.25500000000E-02 0. -1.
          2   -1    0    0  501    0  0.00000000000E+00 -0.00000000000E+00 -0.70308988223E+03  0.70308988223E+03  0.25500000000E-02 0.  1.
   -5000001    1    1    2    0    0  0.10513794534E+03  0.16106662679E+02 -0.33182978304E+03  0.42886410091E+03  0.25000000000E+03 0.  0.
    5000001    1    1    2    0    0 -0.10513794534E+03 -0.16106662679E+02 -0.26556631228E+03  0.37991956827E+03  0.25000000000E+03 0.  0.
<mgrwt>
<rscale>  0 0.54520540E+03</rscale>
<asrwt>0</asrwt>
<pdfrwt beam="1">  1        2 0.10816767E+00 0.54520540E+03</pdfrwt>
<pdfrwt beam="2">  1       -2 0.16260583E-01 0.54520540E+03</pdfrwt>
<totfact> 0.12482085E+03</totfact>
</mgrwt>
</event>
<event>
 4    1  0.6739609E-006  0.9897259E+03  0.7818608E-02  0.9319886E-01
         -2   -1    0    0    0  501 -0.00000000000E+00  0.00000000000E+00  0.24467090220E+03  0.24467090221E+03  0.25500000000E-02 0. -1.
          2   -1    0    0  501    0  0.00000000000E+00 -0.00000000000E+00 -0.10008928218E+04  0.10008928218E+04  0.25500000000E-02 0.  1.
   -5000001    1    1    2    0    0  0.39775900382E+03 -0.13440763002E+03 -0.47649677861E+03  0.68251506661E+03  0.25000000000E+03 0.  0.
    5000001    1    1    2    0    0 -0.39775900382E+03  0.13440763002E+03 -0.27972514104E+03  0.56304865745E+03  0.25000000000E+03 0.  0.
<mgrwt>
<rscale>  0 0.98972592E+03</rscale>
<asrwt>0</asrwt>
<pdfrwt beam="1">  1        2 0.15398351E+00 0.98972592E+03</pdfrwt>
<pdfrwt beam="2">  1       -2 0.37641678E-01 0.98972592E+03</pdfrwt>
<totfact> 0.16712645E+02</totfact>
</mgrwt>
</event>
<event>
 4    1  0.6739609E-006  0.5809730E+03  0.7818608E-02  0.9945687E-01
          2   -1    0    0  501    0  0.00000000000E+00  0.00000000000E+00  0.15781543392E+04  0.15781543392E+04  0.25500000000E-02 0.  1.
         -2   -1    0    0    0  501 -0.00000000000E+00 -0.00000000000E+00 -0.53469053368E+02  0.53469053429E+02  0.25500000000E-02 0. -1.
   -5000001    1    1    2    0    0 -0.16738538593E+02  0.10945823325E+03  0.10378144133E+04  0.10732287920E+04  0.25000000000E+03 0.  0.
    5000001    1    1    2    0    0  0.16738538593E+02 -0.10945823325E+03  0.48687087248E+03  0.55839460059E+03  0.25000000000E+03 0.  0.
<mgrwt>
<rscale>  0 0.58097304E+03</rscale>
<asrwt>0</asrwt>
<pdfrwt beam="1">  1        2 0.24279298E+00 0.58097304E+03</pdfrwt>
<pdfrwt beam="2">  1       -2 0.82260079E-02 0.58097304E+03</pdfrwt>
<totfact> 0.11023311E+03</totfact>
</mgrwt>
</event>
<event>
 4    1  0.6739609E-006  0.6773596E+03  0.7818608E-02  0.9756753E-01
          2   -1    0    0  501    0  0.00000000000E+00  0.00000000000E+00  0.47481632623E+03  0.47481632624E+03  0.25500000000E-02 0.  1.
         -2   -1    0    0    0  501 -0.00000000000E+00 -0.00000000000E+00 -0.24157552012E+03  0.24157552013E+03  0.25500000000E-02 0. -1.
   -5000001    1    1    2    0    0  0.67600747661E+02  0.17675904871E+03 -0.18781836566E+02  0.31411204971E+03  0.25000000000E+03 0.  0.
    5000001    1    1    2    0    0 -0.67600747661E+02 -0.17675904871E+03  0.25202264268E+03  0.40227979667E+03  0.25000000000E+03 0.  0.
<mgrwt>
<rscale>  0 0.67735958E+03</rscale>
<asrwt>0</asrwt>
<pdfrwt beam="1">  1        2 0.73048665E-01 0.67735958E+03</pdfrwt>
<pdfrwt beam="2">  1       -2 0.37165465E-01 0.67735958E+03</pdfrwt>
<totfact> 0.44961309E+02</totfact>
</mgrwt>
</event>
<event>
 4    1  0.6739609E-006  0.1514190E+04  0.7818608E-02  0.8875071E-01
         -2   -1    0    0    0  501 -0.00000000000E+00  0.00000000000E+00  0.11761971341E+04  0.11761971341E+04  0.25500000000E-02 0. -1.
          2   -1    0    0  501    0  0.00000000000E+00 -0.00000000000E+00 -0.48732701329E+03  0.48732701329E+03  0.25500000000E-02 0.  1.
   -5000001    1    1    2    0    0  0.44894723078E+03 -0.53662419278E+03  0.50429700768E+03  0.89796136457E+03  0.25000000000E+03 0.  0.
    5000001    1    1    2    0    0 -0.44894723078E+03  0.53662419278E+03  0.18457311309E+03  0.76556278278E+03  0.25000000000E+03 0.  0.
<mgrwt>
<rscale>  0 0.15141897E+04</rscale>
<asrwt>0</asrwt>
<pdfrwt beam="1">  1        2 0.74973388E-01 0.15141897E+04</pdfrwt>
<pdfrwt beam="2">  1       -2 0.18095340E+00 0.15141897E+04</pdfrwt>
<totfact> 0.10924537E+01</totfact>
</mgrwt>
</event>
<event>
 4    1  0.6739609E-006  0.7657254E+03  0.7818608E-02  0.9610998E-01
          2   -1    0    0  501    0  0.00000000000E+00  0.00000000000E+00  0.88680883594E+03  0.88680883595E+03  0.25500000000E-02 0.  1.
         -2   -1    0    0    0  501 -0.00000000000E+00 -0.00000000000E+00 -0.16529364423E+03  0.16529364425E+03  0.25500000000E-02 0. -1.
   -5000001    1    1    2    0    0  0.26103935218E+03  0.52824233097E+02  0.20318540785E+03  0.41799073309E+03  0.25000000000E+03 0.  0.
    5000001    1    1    2    0    0 -0.26103935218E+03 -0.52824233097E+02  0.51832978385E+03  0.63411174711E+03  0.25000000000E+03 0.  0.
<mgrwt>
<rscale>  0 0.76572544E+03</rscale>
<asrwt>0</asrwt>
<pdfrwt beam="1">  1        2 0.13643213E+00 0.76572544E+03</pdfrwt>
<pdfrwt beam="2">  1       -2 0.25429791E-01 0.76572544E+03</pdfrwt>
<totfact> 0.41816694E+02</totfact>
</mgrwt>
</event>
<event>
 4    1  0.6739609E-006  0.7781002E+03  0.7818608E-02  0.9592269E-01
          2   -1    0    0  501    0  0.00000000000E+00  0.00000000000E+00  0.20434301367E+04  0.20434301367E+04  0.25500000000E-02 0.  1.
         -2   -1    0    0    0  501 -0.00000000000E+00 -0.00000000000E+00 -0.74071516903E+02  0.74071516947E+02  0.25500000000E-02 0. -1.
   -5000001    1    1    2    0    0 -0.19325856329E+03 -0.95811160360E+02  0.15445905006E+04  0.15794899384E+04  0.25000000000E+03 0.  0.
    5000001    1    1    2    0    0  0.19325856329E+03  0.95811160360E+02  0.42476811919E+03  0.53801171531E+03  0.25000000000E+03 0.  0.
<mgrwt>
<rscale>  0 0.77810017E+03</rscale>
<asrwt>0</asrwt>
<pdfrwt beam="1">  1        2 0.31437381E+00 0.77810017E+03</pdfrwt>
<pdfrwt beam="2">  1       -2 0.11395620E-01 0.77810017E+03</pdfrwt>
<totfact> 0.35812004E+02</totfact>
</mgrwt>
</event>
<event>
 4    1  0.6739609E-006  0.7466919E+03  0.7818608E-02  0.9640555E-01
          2   -1    0    0  501    0  0.00000000000E+00  0.00000000000E+00  0.25155647373E+03  0.25155647374E+03  0.25500000000E-02 0.  1.
         -2   -1    0    0    0  501 -0.00000000000E+00 -0.00000000000E+00 -0.55409907556E+03  0.55409907556E+03  0.25500000000E-02 0. -1.
   -5000001    1    1    2    0    0  0.23670228306E+03 -0.60530747239E+02 -0.97856451866E+01  0.34969658423E+03  0.25000000000E+03 0.  0.
    5000001    1    1    2    0    0 -0.23670228306E+03  0.60530747239E+02 -0.29275695665E+03  0.45595896507E+03  0.25000000000E+03 0.  0.
<mgrwt>
<rscale>  0 0.74669193E+03</rscale>
<asrwt>0</asrwt>
<pdfrwt beam="1">  1        2 0.38700996E-01 0.74669193E+03</pdfrwt>
<pdfrwt beam="2">  1       -2 0.85246011E-01 0.74669193E+03</pdfrwt>
<totfact> 0.16140415E+02</totfact>
</mgrwt>
</event>
<event>
 4    1  0.6739609E-006  0.5761137E+03  0.7818608E-02  0.9956240E-01
         -2   -1    0    0    0  501 -0.00000000000E+00  0.00000000000E+00  0.21327112805E+03  0.21327112806E+03  0.25500000000E-02 0. -1.
          2   -1    0    0  501    0  0.00000000000E+00 -0.00000000000E+00 -0.38906693264E+03  0.38906693265E+03  0.25500000000E-02 0.  1.
   -5000001    1    1    2    0    0  0.91942271051E+02  0.11153447999E+02 -0.20194563986E+03  0.33445451420E+03  0.25000000000E+03 0.  0.
    5000001    1    1    2    0    0 -0.91942271051E+02 -0.11153447999E+02  0.26149835269E+02  0.26788354651E+03  0.25000000000E+03 0.  0.
<mgrwt>
<rscale>  0 0.57611368E+03</rscale>
<asrwt>0</asrwt>
<pdfrwt beam="1">  1        2 0.59856451E-01 0.57611368E+03</pdfrwt>
<pdfrwt beam="2">  1       -2 0.32810943E-01 0.57611368E+03</pdfrwt>
<totfact> 0.71468170E+02</totfact>
</mgrwt>
</event>
<event>
 4    1  0.6739609E-006  0.6058544E+03  0.7818608E-02  0.9893334E-01
         -2   -1    0    0    0  501 -0.00000000000E+00  0.00000000000E+00  0.20746108421E+03  0.20746108422E+03  0.25500000000E-02 0. -1.
          2   -1    0    0  501    0  0.00000000000E+00 -0.00000000000E+00 -0.44232337118E+03  0.44232337119E+03  0.25500000000E-02 0.  1.
   -5000001    1    1    2    0    0  0.58550033844E+02 -0.16072835271E+03 -0.11551968761E+03  0.32420133876E+03  0.25000000000E+03 0.  0.
    5000001    1    1    2    0    0 -0.58550033844E+02  0.16072835271E+03 -0.11934259937E+03  0.32558311666E+03  0.25000000000E+03 0.  0.
<mgrwt>
<rscale>  0 0.60585439E+03</rscale>
<asrwt>0</asrwt>
<pdfrwt beam="1">  1        2 0.68049750E-01 0.60585439E+03</pdfrwt>
<pdfrwt beam="2">  1       -2 0.31917090E-01 0.60585439E+03</pdfrwt>
<totfact> 0.65134773E+02</totfact>
</mgrwt>
</event>
<event>
 4    1  0.6739609E-006  0.1666623E+04  0.7818608E-02  0.8780633E-01
          2   -1    0    0  501    0  0.00000000000E+00  0.00000000000E+00  0.89580635939E+03  0.89580635940E+03  0.25500000000E-02 0.  1.
         -2   -1    0    0    0  501 -0.00000000000E+00 -0.00000000000E+00 -0.77517625227E+03  0.77517625228E+03  0.25500000000E-02 0. -1.
   -5000001    1    1    2    0    0  0.32022943033E+03 -0.18584707841E+03  0.76559095290E+03  0.88640596329E+03  0.25000000000E+03 0.  0.
    5000001    1    1    2    0    0 -0.32022943033E+03  0.18584707841E+03 -0.64496084578E+03  0.78457664838E+03  0.25000000000E+03 0.  0.
<mgrwt>
<rscale>  0 0.16666227E+04</rscale>
<asrwt>0</asrwt>
<pdfrwt beam="1">  1        2 0.13781636E+00 0.16666227E+04</pdfrwt>
<pdfrwt beam="2">  1       -2 0.11925788E+00 0.16666227E+04</pdfrwt>
<totfact> 0.15184138E+01</totfact>
</mgrwt>
</event>
<event>
 4    1  0.6739609E-006  0.6743000E+03  0.7818608E-02  0.9762221E-01
         -2   -1    0    0    0  501 -0.00000000000E+00  0.00000000000E+00  0.14153157273E+03  0.14153157275E+03  0.25500000000E-02 0. -1.
          2   -1    0    0  501    0  0.00000000000E+00 -0.00000000000E+00 -0.80314321199E+03  0.80314321199E+03  0.25500000000E-02 0.  1.
   -5000001    1    1    2    0    0  0.17951228438E+03  0.96422924159E+02 -0.19319593083E+03  0.37596104617E+03  0.25000000000E+03 0.  0.
    5000001    1    1    2    0    0 -0.17951228438E+03 -0.96422924159E+02 -0.46841570843E+03  0.56871373858E+03  0.25000000000E+03 0.  0.
<mgrwt>
<rscale>  0 0.67430000E+03</rscale>
<asrwt>0</asrwt>
<pdfrwt beam="1">  1        2 0.12356049E+00 0.67430000E+03</pdfrwt>
<pdfrwt beam="2">  1       -2 0.21774089E-01 0.67430000E+03</pdfrwt>
<totfact> 0.63307419E+02</totfact>
</mgrwt>
</event>
<event>
 4    1  0.6739609E-006  0.7478519E+03  0.7818608E-02  0.9638726E-01
          2   -1    0    0  501    0  0.00000000000E+00  0.00000000000E+00  0.12965418640E+04  0.12965418640E+04  0.25500000000E-02 0.  1.
         -2   -1    0    0    0  501 -0.00000000000E+00 -0.00000000000E+00 -0.10784117490E+03  0.10784117493E+03  0.25500000000E-02 0. -1.
   -5000001    1    1    2    0    0 -0.88724744743E+02  0.25586931248E+03  0.71281246026E+03  0.80246045940E+03  0.25000000000E+03 0.  0.
    5000001    1    1    2    0    0  0.88724744743E+02 -0.25586931248E+03  0.47588822885E+03  0.60192257954E+03  0.25000000000E+03 0.  0.
<mgrwt>
<rscale>  0 0.74785185E+03</rscale>
<asrwt>0</asrwt>
<pdfrwt beam="1">  1        2 0.19946798E+00 0.74785185E+03</pdfrwt>
<pdfrwt beam="2">  1       -2 0.16590950E-01 0.74785185E+03</pdfrwt>
<totfact> 0.49456583E+02</totfact>
</mgrwt>
</event>
<event>
 4    1  0.6739609E-006  0.9717298E+03  0.7818608E-02  0.9340106E-01
          2   -1    0    0  501    0  0.00000000000E+00  0.00000000000E+00  0.34676129879E+04  0.34676129879E+04  0.25500000000E-02 0.  1.
         -2   -1    0    0    0  501 -0.00000000000E+00 -0.00000000000E+00 -0.68077001018E+02  0.68077001066E+02  0.25500000000E-02 0. -1.
   -5000001    1    1    2    0    0  0.50034655737E+02  0.40042473581E+03  0.13230195023E+04  0.14056045103E+04  0.25000000000E+03 0.  0.
    5000001    1    1    2    0    0 -0.50034655737E+02 -0.40042473581E+03  0.20765164846E+04  0.21300854787E+04  0.25000000000E+03 0.  0.
<mgrwt>
<rscale>  0 0.97172978E+03</rscale>
<asrwt>0</asrwt>
<pdfrwt beam="1">  1        2 0.53347881E+00 0.97172978E+03</pdfrwt>
<pdfrwt beam="2">  1       -2 0.10473387E-01 0.97172978E+03</pdfrwt>
<totfact> 0.56887469E+01</totfact>
</mgrwt>
</event>
<event>
 4    1  0.6739609E-006  0.8018151E+03  0.7818608E-02  0.9557394E-01
         -2   -1    0    0    0  501 -0.00000000000E+00  0.00000000000E+00  0.85444093469E+02  0.85444093507E+02  0.25500000000E-02 0. -1.
          2   -1    0    0  501    0  0.00000000000E+00 -0.00000000000E+00 -0.18810763361E+04  0.18810763361E+04  0.25500000000E-02 0.  1.
   -5000001    1    1    2    0    0  0.17915999990E+03  0.24339571627E+03 -0.11013524153E+04  0.11691094572E+04  0.25000000000E+03 0.  0.
    5000001    1    1    2    0    0 -0.17915999990E+03 -0.24339571627E+03 -0.69427982735E+03  0.79741097241E+03  0.25000000000E+03 0.  0.
<mgrwt>
<rscale>  0 0.80181510E+03</rscale>
<asrwt>0</asrwt>
<pdfrwt beam="1">  1        2 0.28939633E+00 0.80181510E+03</pdfrwt>
<pdfrwt beam="2">  1       -2 0.13145247E-01 0.80181510E+03</pdfrwt>
<totfact> 0.34602354E+02</totfact>
</mgrwt>
</event>
<event>
 4    1  0.6739609E-006  0.7421330E+03  0.7818608E-02  0.9647774E-01
          2   -1    0    0  501    0  0.00000000000E+00  0.00000000000E+00  0.91613252601E+03  0.91613252601E+03  0.25500000000E-02 0.  1.
         -2   -1    0    0    0  501 -0.00000000000E+00 -0.00000000000E+00 -0.15029521663E+03  0.15029521665E+03  0.25500000000E-02 0. -1.
   -5000001    1    1    2    0    0 -0.12468922896E+03 -0.17397978402E+03  0.62919971380E+03  0.71007650920E+03  0.25000000000E+03 0.  0.
    5000001    1    1    2    0    0  0.12468922896E+03  0.17397978402E+03  0.13663759558E+03  0.35635123347E+03  0.25000000000E+03 0.  0.
<mgrwt>
<rscale>  0 0.74213297E+03</rscale>
<asrwt>0</asrwt>
<pdfrwt beam="1">  1        2 0.14094346E+00 0.74213297E+03</pdfrwt>
<pdfrwt beam="2">  1       -2 0.23122341E-01 0.74213297E+03</pdfrwt>
<totfact> 0.47450799E+02</totfact>
</mgrwt>
</event>
<event>
 4    1  0.6739609E-006  0.6444418E+03  0.7818608E-02  0.9817265E-01
          2   -1    0    0  501    0  0.00000000000E+00  0.00000000000E+00  0.23245590430E+04  0.23245590430E+04  0.25500000000E-02 0.  1.
         -2   -1    0    0    0  501 -0.00000000000E+00 -0.00000000000E+00 -0.44664952267E+02  0.44664952340E+02  0.25500000000E-02 0. -1.
   -5000001    1    1    2    0    0  0.32405738421E+02  0.14523733399E+03  0.16491287379E+04  0.16745953568E+04  0.25000000000E+03 0.  0.
    5000001    1    1    2    0    0 -0.32405738421E+02 -0.14523733399E+03  0.63076535290E+03  0.69462863855E+03  0.25000000000E+03 0.  0.
<mgrwt>
<rscale>  0 0.64444183E+03</rscale>
<asrwt>0</asrwt>
<pdfrwt beam="1">  1        2 0.35762448E+00 0.64444183E+03</pdfrwt>
<pdfrwt beam="2">  1       -2 0.68715309E-02 0.64444183E+03</pdfrwt>
<totfact> 0.57303171E+02</totfact>
</mgrwt>
</event>
<event>
 4    1  0.6739609E-006  0.6744496E+03  0.7818608E-02  0.9761953E-01
          2   -1    0    0  501    0  0.00000000000E+00  0.00000000000E+00  0.98226633098E+03  0.98226633099E+03  0.25500000000E-02 0.  1.
         -2   -1    0    0    0  501 -0.00000000000E+00 -0.00000000000E+00 -0.11577365417E+03  0.11577365419E+03  0.25500000000E-02 0. -1.
   -5000001    1    1    2    0    0  0.13606170982E+03  0.86927149641E+02  0.69144270382E+03  0.75276963999E+03  0.25000000000E+03 0.  0.
    5000001    1    1    2    0    0 -0.13606170982E+03 -0.86927149641E+02  0.17504997300E+03  0.34527034519E+03  0.25000000000E+03 0.  0.
<mgrwt>
<rscale>  0 0.67444959E+03</rscale>
<asrwt>0</asrwt>
<pdfrwt beam="1">  1        2 0.15111790E+00 0.67444959E+03</pdfrwt>
<pdfrwt beam="2">  1       -2 0.17811331E-01 0.67444959E+03</pdfrwt>
<totfact> 0.68024298E+02</totfact>
</mgrwt>
</event>
<event>
 4    1  0.6739609E-006  0.6843421E+03  0.7818608E-02  0.9744390E-01
          2   -1    0    0  501    0  0.00000000000E+00  0.00000000000E+00  0.19641612004E+04  0.19641612004E+04  0.25500000000E-02 0.  1.
         -2   -1    0    0    0  501 -0.00000000000E+00 -0.00000000000E+00 -0.59608669119E+02  0.59608669173E+02  0.25500000000E-02 0. -1.
   -5000001    1    1    2    0    0 -0.19445449637E+03  0.44082951195E+01  0.56955468219E+03  0.65170892293E+03  0.25000000000E+03 0.  0.
    5000001    1    1    2    0    0  0.19445449637E+03 -0.44082951195E+01  0.13349978490E+04  0.13720609466E+04  0.25000000000E+03 0.  0.
<mgrwt>
<rscale>  0 0.68434212E+03</rscale>
<asrwt>0</asrwt>
<pdfrwt beam="1">  1        2 0.30217861E+00 0.68434212E+03</pdfrwt>
<pdfrwt beam="2">  1       -2 0.91705654E-02 0.68434212E+03</pdfrwt>
<totfact> 0.56760959E+02</totfact>
</mgrwt>
</event>
<event>
 4    1  0.6739609E-006  0.7871041E+03  0.7818608E-02  0.9578873E-01
          2   -1    0    0  501    0  0.00000000000E+00  0.00000000000E+00  0.83066559936E+03  0.83066559937E+03  0.25500000000E-02 0.  1.
         -2   -1    0    0    0  501 -0.00000000000E+00 -0.00000000000E+00 -0.18645674270E+03  0.18645674272E+03  0.25500000000E-02 0. -1.
   -5000001    1    1    2    0    0 -0.28309947238E+03 -0.29998628521E+02  0.18450749719E+03  0.42141220378E+03  0.25000000000E+03 0.  0.
    5000001    1    1    2    0    0  0.28309947238E+03  0.29998628521E+02  0.45970135947E+03  0.59571013830E+03  0.25000000000E+03 0.  0.
<mgrwt>
<rscale>  0 0.78710406E+03</rscale>
<asrwt>0</asrwt>
<pdfrwt beam="1">  1        2 0.12779471E+00 0.78710406E+03</pdfrwt>
<pdfrwt beam="2">  1       -2 0.28685652E-01 0.78710406E+03</pdfrwt>
<totfact> 0.36663391E+02</totfact>
</mgrwt>
</event>
<event>
 4    1  0.6739609E-006  0.8444282E+03  0.7818608E-02  0.9497846E-01
          2   -1    0    0  501    0  0.00000000000E+00  0.00000000000E+00  0.15700659405E+04  0.15700659405E+04  0.25500000000E-02 0. -1.
         -2   -1    0    0    0  501 -0.00000000000E+00 -0.00000000000E+00 -0.11353965075E+03  0.11353965078E+03  0.25500000000E-02 0.  1.
   -5000001    1    1    2    0    0  0.31803623058E+03  0.87788187831E+02  0.89401020972E+03  0.98519443003E+03  0.25000000000E+03 0.  0.
    5000001    1    1    2    0    0 -0.31803623058E+03 -0.87788187831E+02  0.56251608008E+03  0.69841116130E+03  0.25000000000E+03 0.  0.
<mgrwt>
<rscale>  0 0.84442818E+03</rscale>
<asrwt>0</asrwt>
<pdfrwt beam="1">  1        2 0.24154860E+00 0.84442818E+03</pdfrwt>
<pdfrwt beam="2">  1       -2 0.17467639E-01 0.84442818E+03</pdfrwt>
<totfact> 0.31564585E+02</totfact>
</mgrwt>
</event>
<event>
 4    1  0.6739609E-006  0.1538516E+04  0.7818608E-02  0.8859237E-01
          2   -1    0    0  501    0  0.00000000000E+00  0.00000000000E+00  0.27955281105E+04  0.27955281105E+04  0.25500000000E-02 0.  1.
         -2   -1    0    0    0  501 -0.00000000000E+00 -0.00000000000E+00 -0.21168012682E+03  0.21168012684E+03  0.25500000000E-02 0. -1.
   -5000001    1    1    2    0    0  0.16423137568E+03 -0.64055296713E+03  0.18847166222E+04  0.20129423227E+04  0.25000000000E+03 0.  0.
    5000001    1    1    2    0    0 -0.16423137568E+03  0.64055296713E+03  0.69913136150E+03  0.99426591468E+03  0.25000000000E+03 0.  0.
<mgrwt>
<rscale>  0 0.15385158E+04</rscale>
<asrwt>0</asrwt>
<pdfrwt beam="1">  1        2 0.43008128E+00 0.15385158E+04</pdfrwt>
<pdfrwt beam="2">  1       -2 0.32566171E-01 0.15385158E+04</pdfrwt>
<totfact> 0.19794012E+01</totfact>
</mgrwt>
</event>
<event>
 4    1  0.6739609E-006  0.8294683E+03  0.7818608E-02  0.9518316E-01
          2   -1    0    0  501    0  0.00000000000E+00  0.00000000000E+00  0.19299038089E+04  0.19299038089E+04  0.25500000000E-02 0.  1.
         -2   -1    0    0    0  501 -0.00000000000E+00 -0.00000000000E+00 -0.89125902153E+02  0.89125902189E+02  0.25500000000E-02 0. -1.
   -5000001    1    1    2    0    0 -0.22319137215E+03  0.22284600609E+03  0.67661539093E+03  0.78726305532E+03  0.25000000000E+03 0.  0.
    5000001    1    1    2    0    0  0.22319137215E+03 -0.22284600609E+03  0.11641625159E+04  0.12317666558E+04  0.25000000000E+03 0.  0.
<mgrwt>
<rscale>  0 0.82946831E+03</rscale>
<asrwt>0</asrwt>
<pdfrwt beam="1">  1        2 0.29690825E+00 0.82946831E+03</pdfrwt>
<pdfrwt beam="2">  1       -2 0.13711679E-01 0.82946831E+03</pdfrwt>
<totfact> 0.30261825E+02</totfact>
</mgrwt>
</event>
<event>
 4    1  0.6739609E-006  0.6824173E+03  0.7818608E-02  0.9747783E-01
         -2   -1    0    0    0  501 -0.00000000000E+00  0.00000000000E+00  0.12537666853E+03  0.12537666856E+03  0.25500000000E-02 0. -1.
          2   -1    0    0  501    0  0.00000000000E+00 -0.00000000000E+00 -0.92858861211E+03  0.92858861211E+03  0.25500000000E-02 0.  1.
   -5000001    1    1    2    0    0  0.13779109874E+03  0.18276461011E+03 -0.34111409997E+03  0.48088264556E+03  0.25000000000E+03 0.  0.
    5000001    1    1    2    0    0 -0.13779109874E+03 -0.18276461011E+03 -0.46209784361E+03  0.57308263511E+03  0.25000000000E+03 0.  0.
<mgrwt>
<rscale>  0 0.68241731E+03</rscale>
<asrwt>0</asrwt>
<pdfrwt beam="1">  1        2 0.14285978E+00 0.68241731E+03</pdfrwt>
<pdfrwt beam="2">  1       -2 0.19288719E-01 0.68241731E+03</pdfrwt>
<totfact> 0.64206527E+02</totfact>
</mgrwt>
</event>
<event>
 4    1  0.6739609E-006  0.6145742E+03  0.7818608E-02  0.9875622E-01
         -2   -1    0    0    0  501 -0.00000000000E+00  0.00000000000E+00  0.23181864457E+03  0.23181864458E+03  0.25500000000E-02 0. -1.
          2   -1    0    0  501    0  0.00000000000E+00 -0.00000000000E+00 -0.40732425695E+03  0.40732425696E+03  0.25500000000E-02 0.  1.
   -5000001    1    1    2    0    0 -0.80314795730E+02 -0.99866067949E+02  0.41730192527E+02  0.28401603284E+03  0.25000000000E+03 0.  0.
    5000001    1    1    2    0    0  0.80314795730E+02  0.99866067949E+02 -0.21723580491E+03  0.35512686870E+03  0.25000000000E+03 0.  0.
<mgrwt>
<rscale>  0 0.61457418E+03</rscale>
<asrwt>0</asrwt>
<pdfrwt beam="1">  1        2 0.62665270E-01 0.61457418E+03</pdfrwt>
<pdfrwt beam="2">  1       -2 0.35664407E-01 0.61457418E+03</pdfrwt>
<totfact> 0.57966092E+02</totfact>
</mgrwt>
</event>
<event>
 4    1  0.6739609E-006  0.9506770E+03  0.7818608E-02  0.9364360E-01
          2   -1    0    0  501    0  0.00000000000E+00  0.00000000000E+00  0.17447606067E+03  0.17447606069E+03  0.25500000000E-02 0.  1.
         -2   -1    0    0    0  501 -0.00000000000E+00 -0.00000000000E+00 -0.12950010548E+04  0.12950010548E+04  0.25500000000E-02 0. -1.
   -5000001    1    1    2    0    0  0.17313778441E+03 -0.32737928386E+03 -0.30962374346E+03  0.54361820280E+03  0.25000000000E+03 0.  0.
    5000001    1    1    2    0    0 -0.17313778441E+03  0.32737928386E+03 -0.81090125068E+03  0.92585891271E+03  0.25000000000E+03 0.  0.
<mgrwt>
<rscale>  0 0.95067699E+03</rscale>
<asrwt>0</asrwt>
<pdfrwt beam="1">  1        2 0.26842472E-01 0.95067699E+03</pdfrwt>
<pdfrwt beam="2">  1       -2 0.19923093E+00 0.95067699E+03</pdfrwt>
<totfact> 0.27270799E+01</totfact>
</mgrwt>
</event>
<event>
 4    1  0.6739609E-006  0.1263331E+04  0.7818608E-02  0.9059160E-01
          2   -1    0    0  501    0  0.00000000000E+00  0.00000000000E+00  0.26398166578E+04  0.26398166578E+04  0.25500000000E-02 0.  1.
         -2   -1    0    0    0  501 -0.00000000000E+00 -0.00000000000E+00 -0.15114735691E+03  0.15114735693E+03  0.25500000000E-02 0. -1.
   -5000001    1    1    2    0    0  0.12962373616E+03 -0.55480417882E+03  0.14852431525E+04  0.16102972434E+04  0.25000000000E+03 0.  0.
    5000001    1    1    2    0    0 -0.12962373616E+03  0.55480417882E+03  0.10034261483E+04  0.11806667714E+04  0.25000000000E+03 0.  0.
<mgrwt>
<rscale>  0 0.12633310E+04</rscale>
<asrwt>0</asrwt>
<pdfrwt beam="1">  1        2 0.40612562E+00 0.12633310E+04</pdfrwt>
<pdfrwt beam="2">  1       -2 0.23253440E-01 0.12633310E+04</pdfrwt>
<totfact> 0.46648084E+01</totfact>
</mgrwt>
</event>
<event>
 4    1  0.6739609E-006  0.6977865E+03  0.7818608E-02  0.9721025E-01
          2   -1    0    0  501    0  0.00000000000E+00  0.00000000000E+00  0.13626303351E+04  0.13626303351E+04  0.25500000000E-02 0.  1.
         -2   -1    0    0    0  501 -0.00000000000E+00 -0.00000000000E+00 -0.89332013372E+02  0.89332013408E+02  0.25500000000E-02 0. -1.
   -5000001    1    1    2    0    0 -0.65022395406E+02 -0.12571687742E+03  0.10485966157E+04  0.10872384778E+04  0.25000000000E+03 0.  0.
    5000001    1    1    2    0    0  0.65022395406E+02  0.12571687742E+03  0.22470170604E+03  0.36472387072E+03  0.25000000000E+03 0.  0.
<mgrwt>
<rscale>  0 0.69778653E+03</rscale>
<asrwt>0</asrwt>
<pdfrwt beam="1">  1        2 0.20963543E+00 0.69778653E+03</pdfrwt>
<pdfrwt beam="2">  1       -2 0.13743387E-01 0.69778653E+03</pdfrwt>
<totfact> 0.62491451E+02</totfact>
</mgrwt>
</event>
<event>
 4    1  0.6739609E-006  0.6840958E+03  0.7818608E-02  0.9744824E-01
         -2   -1    0    0    0  501 -0.00000000000E+00  0.00000000000E+00  0.84450161165E+03  0.84450161165E+03  0.25500000000E-02 0. -1.
          2   -1    0    0  501    0  0.00000000000E+00 -0.00000000000E+00 -0.13853942938E+03  0.13853942941E+03  0.25500000000E-02 0.  1.
   -5000001    1    1    2    0    0 -0.15614368550E+03 -0.15654594411E+03  0.24535722350E+03  0.41423139700E+03  0.25000000000E+03 0.  0.
    5000001    1    1    2    0    0  0.15614368550E+03  0.15654594411E+03  0.46060495876E+03  0.56880964406E+03  0.25000000000E+03 0.  0.
<mgrwt>
<rscale>  0 0.68409582E+03</rscale>
<asrwt>0</asrwt>
<pdfrwt beam="1">  1        2 0.21313759E-01 0.68409582E+03</pdfrwt>
<pdfrwt beam="2">  1       -2 0.12992332E+00 0.68409582E+03</pdfrwt>
<totfact> 0.11608879E+02</totfact>
</mgrwt>
</event>
<event>
 4    1  0.6739609E-006  0.1040150E+04  0.7818608E-02  0.9265573E-01
          2   -1    0    0  501    0  0.00000000000E+00  0.00000000000E+00  0.18650961187E+04  0.18650961187E+04  0.25500000000E-02 0.  1.
         -2   -1    0    0    0  501 -0.00000000000E+00 -0.00000000000E+00 -0.14502091285E+03  0.14502091288E+03  0.25500000000E-02 0. -1.
   -5000001    1    1    2    0    0  0.17061047777E+03  0.24488267891E+03  0.19365925414E+03  0.43483257499E+03  0.25000000000E+03 0.  0.
    5000001    1    1    2    0    0 -0.17061047777E+03 -0.24488267891E+03  0.15264159517E+04  0.15752844566E+04  0.25000000000E+03 0.  0.
<mgrwt>
<rscale>  0 0.10401499E+04</rscale>
<asrwt>0</asrwt>
<pdfrwt beam="1">  1        2 0.28693784E+00 0.10401499E+04</pdfrwt>
<pdfrwt beam="2">  1       -2 0.22310912E-01 0.10401499E+04</pdfrwt>
<totfact> 0.13950261E+02</totfact>
</mgrwt>
</event>
<event>
 4    1  0.6739609E-006  0.8393906E+03  0.7818608E-02  0.9504688E-01
         -2   -1    0    0    0  501 -0.00000000000E+00  0.00000000000E+00  0.14915306095E+03  0.14915306097E+03  0.25500000000E-02 0. -1.
          2   -1    0    0  501    0  0.00000000000E+00 -0.00000000000E+00 -0.11809622368E+04  0.11809622368E+04  0.25500000000E-02 0.  1.
   -5000001    1    1    2    0    0  0.21929400564E+03 -0.25089956007E+03 -0.43504729417E+03  0.60233429117E+03  0.25000000000E+03 0.  0.
    5000001    1    1    2    0    0 -0.21929400564E+03  0.25089956007E+03 -0.59676188170E+03  0.72778100662E+03  0.25000000000E+03 0.  0.
<mgrwt>
<rscale>  0 0.83939057E+03</rscale>
<asrwt>0</asrwt>
<pdfrwt beam="1">  1        2 0.18168649E+00 0.83939057E+03</pdfrwt>
<pdfrwt beam="2">  1       -2 0.22946626E-01 0.83939057E+03</pdfrwt>
<totfact> 0.32663997E+02</totfact>
</mgrwt>
</event>
<event>
 4    1  0.6739609E-006  0.6098485E+03  0.7818608E-02  0.9885182E-01
         -2   -1    0    0    0  501 -0.00000000000E+00  0.00000000000E+00  0.35170291662E+02  0.35170291755E+02  0.25500000000E-02 0. -1.
          2   -1    0    0  501    0  0.00000000000E+00 -0.00000000000E+00 -0.26436740048E+04  0.26436740048E+04  0.25500000000E-02 0.  1.
   -5000001    1    1    2    0    0  0.11023786800E+03  0.45662893877E+02 -0.74444796289E+03  0.79431747863E+03  0.25000000000E+03 0.  0.
    5000001    1    1    2    0    0 -0.11023786800E+03 -0.45662893877E+02 -0.18640557502E+04  0.18845268179E+04  0.25000000000E+03 0.  0.
<mgrwt>
<rscale>  0 0.60984846E+03</rscale>
<asrwt>0</asrwt>
<pdfrwt beam="1">  1        2 0.40671892E+00 0.60984846E+03</pdfrwt>
<pdfrwt beam="2">  1       -2 0.54108162E-02 0.60984846E+03</pdfrwt>
<totfact> 0.55293230E+02</totfact>
</mgrwt>
</event>
<event>
 4    1  0.6739609E-006  0.8044933E+03  0.7818608E-02  0.9553536E-01
         -2   -1    0    0    0  501 -0.00000000000E+00  0.00000000000E+00  0.66228735746E+02  0.66228735795E+02  0.25500000000E-02 0. -1.
          2   -1    0    0  501    0  0.00000000000E+00 -0.00000000000E+00 -0.24430838037E+04  0.24430838037E+04  0.25500000000E-02 0.  1.
   -5000001    1    1    2    0    0  0.22915792400E+03  0.20316663158E+03 -0.95684838487E+03  0.10353013407E+04  0.25000000000E+03 0.  0.
    5000001    1    1    2    0    0 -0.22915792400E+03 -0.20316663158E+03 -0.14200066831E+04  0.14740111988E+04  0.25000000000E+03 0.  0.
<mgrwt>
<rscale>  0 0.80449326E+03</rscale>
<asrwt>0</asrwt>
<pdfrwt beam="1">  1        2 0.37585898E+00 0.80449326E+03</pdfrwt>
<pdfrwt beam="2">  1       -2 0.10189038E-01 0.80449326E+03</pdfrwt>
<totfact> 0.25774890E+02</totfact>
</mgrwt>
</event>
<event>
 4    1  0.6739609E-006  0.6575223E+03  0.7818608E-02  0.9792766E-01
          2   -1    0    0  501    0  0.00000000000E+00  0.00000000000E+00  0.58797269335E+03  0.58797269336E+03  0.25500000000E-02 0.  1.
         -2   -1    0    0    0  501 -0.00000000000E+00 -0.00000000000E+00 -0.18382467473E+03  0.18382467475E+03  0.25500000000E-02 0. -1.
   -5000001    1    1    2    0    0 -0.69066054782E+02  0.14904172057E+03  0.36215995127E+03  0.46972692566E+03  0.25000000000E+03 0.  0.
    5000001    1    1    2    0    0  0.69066054782E+02 -0.14904172057E+03  0.41988067356E+02  0.30207044244E+03  0.25000000000E+03 0.  0.
<mgrwt>
<rscale>  0 0.65752229E+03</rscale>
<asrwt>0</asrwt>
<pdfrwt beam="1">  1        2 0.90457335E-01 0.65752229E+03</pdfrwt>
<pdfrwt beam="2">  1       -2 0.28280720E-01 0.65752229E+03</pdfrwt>
<totfact> 0.58491314E+02</totfact>
</mgrwt>
</event>
<event>
 4    1  0.6739609E-006  0.6962639E+03  0.7818608E-02  0.9723643E-01
          2   -1    0    0  501    0  0.00000000000E+00  0.00000000000E+00  0.33284880689E+04  0.33284880689E+04  0.25500000000E-02 0.  1.
         -2   -1    0    0    0  501 -0.00000000000E+00 -0.00000000000E+00 -0.36411685485E+02  0.36411685575E+02  0.25500000000E-02 0. -1.
   -5000001    1    1    2    0    0  0.22439752192E+03  0.91283773934E+02  0.16604441556E+04  0.16965440663E+04  0.25000000000E+03 0.  0.
    5000001    1    1    2    0    0 -0.22439752192E+03 -0.91283773934E+02  0.16316322279E+04  0.16683556882E+04  0.25000000000E+03 0.  0.
<mgrwt>
<rscale>  0 0.69626392E+03</rscale>
<asrwt>0</asrwt>
<pdfrwt beam="1">  1        2 0.51207518E+00 0.69626392E+03</pdfrwt>
<pdfrwt beam="2">  1       -2 0.56017968E-02 0.69626392E+03</pdfrwt>
<totfact> 0.19831832E+02</totfact>
</mgrwt>
</event>
<event>
 4    1  0.6739609E-006  0.6011781E+03  0.7818608E-02  0.9902965E-01
          2   -1    0    0  501    0  0.00000000000E+00  0.00000000000E+00  0.54045428949E+03  0.54045428949E+03  0.25500000000E-02 0.  1.
         -2   -1    0    0    0  501 -0.00000000000E+00 -0.00000000000E+00 -0.16718116195E+03  0.16718116197E+03  0.25500000000E-02 0. -1.
   -5000001    1    1    2    0    0  0.21760098704E+02 -0.15401862351E+03  0.25783332002E+03  0.39137355454E+03  0.25000000000E+03 0.  0.
    5000001    1    1    2    0    0 -0.21760098704E+02  0.15401862351E+03  0.11543980751E+03  0.31626189692E+03  0.25000000000E+03 0.  0.
<mgrwt>
<rscale>  0 0.60117810E+03</rscale>
<asrwt>0</asrwt>
<pdfrwt beam="1">  1        2 0.83146812E-01 0.60117810E+03</pdfrwt>
<pdfrwt beam="2">  1       -2 0.25720179E-01 0.60117810E+03</pdfrwt>
<totfact> 0.76891567E+02</totfact>
</mgrwt>
</event>
<event>
 4    1  0.6739609E-006  0.9762633E+03  0.7818608E-02  0.9334969E-01
          2   -1    0    0  501    0  0.00000000000E+00  0.00000000000E+00  0.63097500179E+03  0.63097500179E+03  0.25500000000E-02 0.  1.
         -2   -1    0    0    0  501 -0.00000000000E+00 -0.00000000000E+00 -0.37762590402E+03  0.37762590403E+03  0.25500000000E-02 0. -1.
   -5000001    1    1    2    0    0  0.34364581752E+03  0.85173324706E+02  0.35866909081E+03  0.56257484821E+03  0.25000000000E+03 0.  0.
    5000001    1    1    2    0    0 -0.34364581752E+03 -0.85173324706E+02 -0.10531999304E+03  0.44602605762E+03  0.25000000000E+03 0.  0.
<mgrwt>
<rscale>  0 0.97626330E+03</rscale>
<asrwt>0</asrwt>
<pdfrwt beam="1">  1        2 0.97073076E-01 0.97626330E+03</pdfrwt>
<pdfrwt beam="2">  1       -2 0.58096294E-01 0.97626330E+03</pdfrwt>
<totfact> 0.12932171E+02</totfact>
</mgrwt>
</event>
<event>
 4    1  0.6739609E-006  0.6394632E+03  0.7818608E-02  0.9826754E-01
         -2   -1    0    0    0  501 -0.00000000000E+00  0.00000000000E+00  0.38985762784E+02  0.38985762867E+02  0.25500000000E-02 0. -1.
          2   -1    0    0  501    0  0.00000000000E+00 -0.00000000000E+00 -0.26221952719E+04  0.26221952719E+04  0.25500000000E-02 0.  1.
   -5000001    1    1    2    0    0  0.72075913760E+01 -0.14471876449E+03 -0.72201733654E+03  0.77769177984E+03  0.25000000000E+03 0.  0.
    5000001    1    1    2    0    0 -0.72075913760E+01  0.14471876449E+03 -0.18611921726E+04  0.18834892549E+04  0.25000000000E+03 0.  0.
<mgrwt>
<rscale>  0 0.63946316E+03</rscale>
<asrwt>0</asrwt>
<pdfrwt beam="1">  1        2 0.40341452E+00 0.63946316E+03</pdfrwt>
<pdfrwt beam="2">  1       -2 0.59978117E-02 0.63946316E+03</pdfrwt>
<totfact> 0.48289163E+02</totfact>
</mgrwt>
</event>
<event>
 4    1  0.6739609E-006  0.5626882E+03  0.7818608E-02  0.9985990E-01
          2   -1    0    0  501    0  0.00000000000E+00  0.00000000000E+00  0.41959064439E+03  0.41959064440E+03  0.25500000000E-02 0.  1.
         -2   -1    0    0    0  501 -0.00000000000E+00 -0.00000000000E+00 -0.18864698778E+03  0.18864698780E+03  0.25500000000E-02 0. -1.
   -5000001    1    1    2    0    0  0.24458683615E+01 -0.12764688469E+03  0.13583279159E+03  0.31184973419E+03  0.25000000000E+03 0.  0.
    5000001    1    1    2    0    0 -0.24458683615E+01  0.12764688469E+03  0.95110865022E+02  0.29638789801E+03  0.25000000000E+03 0.  0.
<mgrwt>
<rscale>  0 0.56268823E+03</rscale>
<asrwt>0</asrwt>
<pdfrwt beam="1">  1        2 0.64552406E-01 0.56268823E+03</pdfrwt>
<pdfrwt beam="2">  1       -2 0.29022614E-01 0.56268823E+03</pdfrwt>
<totfact> 0.82479487E+02</totfact>
</mgrwt>
</event>
<event>
 4    1  0.6739609E-006  0.8625351E+03  0.7818608E-02  0.9473665E-01
          2   -1    0    0  501    0  0.00000000000E+00  0.00000000000E+00  0.49344039997E+03  0.49344039998E+03  0.25500000000E-02 0.  1.
         -2   -1    0    0    0  501 -0.00000000000E+00 -0.00000000000E+00 -0.37692842827E+03  0.37692842828E+03  0.25500000000E-02 0. -1.
   -5000001    1    1    2    0    0 -0.32866202429E+03 -0.11230572890E+03  0.11222454067E+03  0.44240891772E+03  0.25000000000E+03 0.  0.
    5000001    1    1    2    0    0  0.32866202429E+03  0.11230572890E+03  0.42874310345E+01  0.42795991053E+03  0.25000000000E+03 0.  0.
<mgrwt>
<rscale>  0 0.86253513E+03</rscale>
<asrwt>0</asrwt>
<pdfrwt beam="1">  1        2 0.75913907E-01 0.86253513E+03</pdfrwt>
<pdfrwt beam="2">  1       -2 0.57988989E-01 0.86253513E+03</pdfrwt>
<totfact> 0.17497237E+02</totfact>
</mgrwt>
</event>
<event>
 4    1  0.6739609E-006  0.9433684E+03  0.7818608E-02  0.9372936E-01
         -2   -1    0    0    0  501 -0.00000000000E+00  0.00000000000E+00  0.15975088741E+03  0.15975088743E+03  0.25500000000E-02 0. -1.
          2   -1    0    0  501    0  0.00000000000E+00 -0.00000000000E+00 -0.13927058489E+04  0.13927058489E+04  0.25500000000E-02 0.  1.
   -5000001    1    1    2    0    0  0.39216485135E+03  0.72983940754E+02 -0.56804748530E+03  0.73776545853E+03  0.25000000000E+03 0.  0.
    5000001    1    1    2    0    0 -0.39216485135E+03 -0.72983940754E+02 -0.66490747622E+03  0.81469127783E+03  0.25000000000E+03 0.  0.
<mgrwt>
<rscale>  0 0.94336842E+03</rscale>
<asrwt>0</asrwt>
<pdfrwt beam="1">  1        2 0.21426243E+00 0.94336842E+03</pdfrwt>
<pdfrwt beam="2">  1       -2 0.24577061E-01 0.94336842E+03</pdfrwt>
<totfact> 0.21616437E+02</totfact>
</mgrwt>
</event>
<event>
 4    1  0.6739609E-006  0.7291312E+03  0.7818608E-02  0.9668671E-01
          2   -1    0    0  501    0  0.00000000000E+00  0.00000000000E+00  0.18190947248E+04  0.18190947248E+04  0.25500000000E-02 0.  1.
         -2   -1    0    0    0  501 -0.00000000000E+00 -0.00000000000E+00 -0.73062750187E+02  0.73062750232E+02  0.25500000000E-02 0. -1.
   -5000001    1    1    2    0    0  0.24680332488E+03 -0.19204992408E+02  0.11209430774E+04  0.11748591812E+04  0.25000000000E+03 0.  0.
    5000001    1    1    2    0    0 -0.24680332488E+03  0.19204992408E+02  0.62508889724E+03  0.71729829385E+03  0.25000000000E+03 0.  0.
<mgrwt>
<rscale>  0 0.72913116E+03</rscale>
<asrwt>0</asrwt>
<pdfrwt beam="1">  1        2 0.27986075E+00 0.72913116E+03</pdfrwt>
<pdfrwt beam="2">  1       -2 0.11240422E-01 0.72913116E+03</pdfrwt>
<totfact> 0.48714869E+02</totfact>
</mgrwt>
</event>
<event>
 4    1  0.6739609E-006  0.9230117E+03  0.7818608E-02  0.9397264E-01
          2   -1    0    0  501    0  0.00000000000E+00  0.00000000000E+00  0.19103976593E+04  0.19103976593E+04  0.25500000000E-02 0.  1.
         -2   -1    0    0    0  501 -0.00000000000E+00 -0.00000000000E+00 -0.11148863960E+03  0.11148863963E+03  0.25500000000E-02 0. -1.
   -5000001    1    1    2    0    0 -0.22727193134E+03  0.24454590262E+03  0.46667947191E+03  0.62589532573E+03  0.25000000000E+03 0.  0.
    5000001    1    1    2    0    0  0.22727193134E+03 -0.24454590262E+03  0.13322295478E+04  0.13959909732E+04  0.25000000000E+03 0.  0.
<mgrwt>
<rscale>  0 0.92301167E+03</rscale>
<asrwt>0</asrwt>
<pdfrwt beam="1">  1        2 0.29390731E+00 0.92301167E+03</pdfrwt>
<pdfrwt beam="2">  1       -2 0.17152100E-01 0.92301167E+03</pdfrwt>
<totfact> 0.21057405E+02</totfact>
</mgrwt>
</event>
<event>
 4    1  0.6739609E-006  0.8572808E+03  0.7818608E-02  0.9480617E-01
          2   -1    0    0  501    0  0.00000000000E+00  0.00000000000E+00  0.42423406017E+04  0.42423406017E+04  0.25500000000E-02 0.  1.
         -2   -1    0    0    0  501 -0.00000000000E+00 -0.00000000000E+00 -0.43309252692E+02  0.43309252767E+02  0.25500000000E-02 0. -1.
   -5000001    1    1    2    0    0  0.30203326390E+03  0.53343177306E+02  0.12756003922E+04  0.13355620343E+04  0.25000000000E+03 0.  0.
    5000001    1    1    2    0    0 -0.30203326390E+03 -0.53343177306E+02  0.29234309568E+04  0.29500878201E+04  0.25000000000E+03 0.  0.
<mgrwt>
<rscale>  0 0.85728082E+03</rscale>
<asrwt>0</asrwt>
<pdfrwt beam="1">  1        2 0.65266808E+00 0.85728082E+03</pdfrwt>
<pdfrwt beam="2">  1       -2 0.66629589E-02 0.85728082E+03</pdfrwt>
<totfact> 0.30785256E+01</totfact>
</mgrwt>
</event>
<event>
 4    1  0.6739609E-006  0.7735176E+03  0.7818608E-02  0.9599161E-01
          2   -1    0    0  501    0  0.00000000000E+00  0.00000000000E+00  0.13817715193E+03  0.13817715195E+03  0.25500000000E-02 0. -1.
         -2   -1    0    0    0  501 -0.00000000000E+00 -0.00000000000E+00 -0.10825406847E+04  0.10825406847E+04  0.25500000000E-02 0.  1.
   -5000001    1    1    2    0    0 -0.12009535673E+02  0.22434255479E+03 -0.77413277982E+03  0.84395223303E+03  0.25000000000E+03 0.  0.
    5000001    1    1    2    0    0  0.12009535673E+02 -0.22434255479E+03 -0.17023075298E+03  0.37676560366E+03  0.25000000000E+03 0.  0.
<mgrwt>
<rscale>  0 0.77351765E+03</rscale>
<asrwt>0</asrwt>
<pdfrwt beam="1">  1        2 0.21258024E-01 0.77351765E+03</pdfrwt>
<pdfrwt beam="2">  1       -2 0.16654472E+00 0.77351765E+03</pdfrwt>
<totfact> 0.60353702E+01</totfact>
</mgrwt>
</event>
<event>
 4    1  0.6739609E-006  0.9506553E+03  0.7818608E-02  0.9364385E-01
          2   -1    0    0  501    0  0.00000000000E+00  0.00000000000E+00  0.16469753425E+04  0.16469753425E+04  0.25500000000E-02 0.  1.
         -2   -1    0    0    0  501 -0.00000000000E+00 -0.00000000000E+00 -0.13718261636E+03  0.13718261638E+03  0.25500000000E-02 0. -1.
   -5000001    1    1    2    0    0  0.13810617123E+03  0.26281580343E+03  0.12698658946E+04  0.13278572406E+04  0.25000000000E+03 0.  0.
    5000001    1    1    2    0    0 -0.13810617123E+03 -0.26281580343E+03  0.23992683161E+03  0.45630071838E+03  0.25000000000E+03 0.  0.
<mgrwt>
<rscale>  0 0.95065532E+03</rscale>
<asrwt>0</asrwt>
<pdfrwt beam="1">  1        2 0.25338082E+00 0.95065532E+03</pdfrwt>
<pdfrwt beam="2">  1       -2 0.21105018E-01 0.95065532E+03</pdfrwt>
<totfact> 0.20431160E+02</totfact>
</mgrwt>
</event>
<event>
 4    1  0.6739609E-006  0.1103978E+04  0.7818608E-02  0.9201323E-01
          2   -1    0    0  501    0  0.00000000000E+00  0.00000000000E+00  0.12230842557E+04  0.12230842557E+04  0.25500000000E-02 0.  1.
         -2   -1    0    0    0  501 -0.00000000000E+00 -0.00000000000E+00 -0.24911754014E+03  0.24911754015E+03  0.25500000000E-02 0. -1.
   -5000001    1    1    2    0    0  0.83056676997E+02 -0.48338713528E+03  0.54082625078E+03  0.77172182014E+03  0.25000000000E+03 0.  0.
    5000001    1    1    2    0    0 -0.83056676997E+02  0.48338713528E+03  0.43314046479E+03  0.70047997572E+03  0.25000000000E+03 0.  0.
<mgrwt>
<rscale>  0 0.11039778E+04</rscale>
<asrwt>0</asrwt>
<pdfrwt beam="1">  1        2 0.18816681E+00 0.11039778E+04</pdfrwt>
<pdfrwt beam="2">  1       -2 0.38325776E-01 0.11039778E+04</pdfrwt>
<totfact> 0.11700511E+02</totfact>
</mgrwt>
</event>
<event>
 4    1  0.6739609E-006  0.6377115E+03  0.7818608E-02  0.9830115E-01
          2   -1    0    0  501    0  0.00000000000E+00  0.00000000000E+00  0.19161158232E+04  0.19161158232E+04  0.25500000000E-02 0.  1.
         -2   -1    0    0    0  501 -0.00000000000E+00 -0.00000000000E+00 -0.53059937603E+02  0.53059937664E+02  0.25500000000E-02 0. -1.
   -5000001    1    1    2    0    0  0.13237766716E+03 -0.59403023973E+02  0.13471479355E+04  0.13778099020E+04  0.25000000000E+03 0.  0.
    5000001    1    1    2    0    0 -0.13237766716E+03  0.59403023973E+02  0.51590795012E+03  0.59136585885E+03  0.25000000000E+03 0.  0.
<mgrwt>
<rscale>  0 0.63771149E+03</rscale>
<asrwt>0</asrwt>
<pdfrwt beam="1">  1        2 0.29478703E+00 0.63771149E+03</pdfrwt>
<pdfrwt beam="2">  1       -2 0.81630680E-02 0.63771149E+03</pdfrwt>
<totfact> 0.72895324E+02</totfact>
</mgrwt>
</event>
<event>
 4    1  0.6739609E-006  0.6485927E+03  0.7818608E-02  0.9809423E-01
         -2   -1    0    0    0  501 -0.00000000000E+00  0.00000000000E+00  0.67182795296E+02  0.67182795345E+02  0.25500000000E-02 0. -1.
          2   -1    0    0  501    0  0.00000000000E+00 -0.00000000000E+00 -0.15654027442E+04  0.15654027442E+04  0.25500000000E-02 0.  1.
   -5000001    1    1    2    0    0 -0.13492702188E+03 -0.11698030846E+03 -0.10104354748E+04  0.10561105731E+04  0.25000000000E+03 0.  0.
    5000001    1    1    2    0    0  0.13492702188E+03  0.11698030846E+03 -0.48778447407E+03  0.57647496645E+03  0.25000000000E+03 0.  0.
<mgrwt>
<rscale>  0 0.64859273E+03</rscale>
<asrwt>0</asrwt>
<pdfrwt beam="1">  1        2 0.24083116E+00 0.64859273E+03</pdfrwt>
<pdfrwt beam="2">  1       -2 0.10335816E-01 0.64859273E+03</pdfrwt>
<totfact> 0.77265479E+02</totfact>
</mgrwt>
</event>
<event>
 4    1  0.6739609E-006  0.1081090E+04  0.7818608E-02  0.9223821E-01
          2   -1    0    0  501    0  0.00000000000E+00  0.00000000000E+00  0.18151686557E+04  0.18151686557E+04  0.25500000000E-02 0.  1.
         -2   -1    0    0    0  501 -0.00000000000E+00 -0.00000000000E+00 -0.16097062946E+03  0.16097062948E+03  0.25500000000E-02 0. -1.
   -5000001    1    1    2    0    0  0.25455527274E+03  0.39635800665E+03  0.98844060861E+03  0.11231263923E+04  0.25000000000E+03 0.  0.
    5000001    1    1    2    0    0 -0.25455527274E+03 -0.39635800665E+03  0.66575741767E+03  0.85301289292E+03  0.25000000000E+03 0.  0.
<mgrwt>
<rscale>  0 0.10810899E+04</rscale>
<asrwt>0</asrwt>
<pdfrwt beam="1">  1        2 0.27925671E+00 0.10810899E+04</pdfrwt>
<pdfrwt beam="2">  1       -2 0.24764713E-01 0.10810899E+04</pdfrwt>
<totfact> 0.12286191E+02</totfact>
</mgrwt>
</event>
<event>
 4    1  0.6739609E-006  0.8602376E+03  0.7818608E-02  0.9476698E-01
          2   -1    0    0  501    0  0.00000000000E+00  0.00000000000E+00  0.14745042602E+04  0.14745042602E+04  0.25500000000E-02 0.  1.
         -2   -1    0    0    0  501 -0.00000000000E+00 -0.00000000000E+00 -0.12546738083E+03  0.12546738086E+03  0.25500000000E-02 0. -1.
   -5000001    1    1    2    0    0 -0.15118327134E+03 -0.27300153648E+03  0.96927861789E+03  0.10485166949E+04  0.25000000000E+03 0.  0.
    5000001    1    1    2    0    0  0.15118327134E+03  0.27300153648E+03  0.37975826149E+03  0.55145494614E+03  0.25000000000E+03 0.  0.
<mgrwt>
<rscale>  0 0.86023761E+03</rscale>
<asrwt>0</asrwt>
<pdfrwt beam="1">  1        2 0.22684681E+00 0.86023761E+03</pdfrwt>
<pdfrwt beam="2">  1       -2 0.19302674E-01 0.86023761E+03</pdfrwt>
<totfact> 0.29981165E+02</totfact>
</mgrwt>
</event>
<event>
 4    1  0.6739609E-006  0.1872499E+04  0.7818608E-02  0.8668668E-01
         -2   -1    0    0    0  501 -0.00000000000E+00  0.00000000000E+00  0.21208963439E+03  0.21208963441E+03  0.25500000000E-02 0. -1.
          2   -1    0    0  501    0  0.00000000000E+00 -0.00000000000E+00 -0.41329859012E+04  0.41329859012E+04  0.25500000000E-02 0.  1.
   -5000001    1    1    2    0    0 -0.65789725413E+03 -0.24212990114E+03 -0.32784410360E+04  0.33618642615E+04  0.25000000000E+03 0.  0.
    5000001    1    1    2    0    0  0.65789725413E+03  0.24212990114E+03 -0.64245523081E+03  0.98321127415E+03  0.25000000000E+03 0.  0.
<mgrwt>
<rscale>  0 0.18724994E+04</rscale>
<asrwt>0</asrwt>
<pdfrwt beam="1">  1        2 0.63584393E+00 0.18724994E+04</pdfrwt>
<pdfrwt beam="2">  1       -2 0.32629178E-01 0.18724994E+04</pdfrwt>
<totfact> 0.22140541E+00</totfact>
</mgrwt>
</event>
<event>
 4    1  0.6739609E-006  0.7723087E+03  0.7818608E-02  0.9600987E-01
         -2   -1    0    0    0  501 -0.00000000000E+00  0.00000000000E+00  0.13742258249E+03  0.13742258251E+03  0.25500000000E-02 0. -1.
          2   -1    0    0  501    0  0.00000000000E+00 -0.00000000000E+00 -0.10850848926E+04  0.10850848926E+04  0.25500000000E-02 0.  1.
   -5000001    1    1    2    0    0  0.13864009633E+03 -0.25147466417E+03 -0.37180196290E+03  0.53216283471E+03  0.25000000000E+03 0.  0.
    5000001    1    1    2    0    0 -0.13864009633E+03  0.25147466417E+03 -0.57586034716E+03  0.69034464036E+03  0.25000000000E+03 0.  0.
<mgrwt>
<rscale>  0 0.77230866E+03</rscale>
<asrwt>0</asrwt>
<pdfrwt beam="1">  1        2 0.16693613E+00 0.77230866E+03</pdfrwt>
<pdfrwt beam="2">  1       -2 0.21141936E-01 0.77230866E+03</pdfrwt>
<totfact> 0.43320935E+02</totfact>
</mgrwt>
</event>
<event>
 4    1  0.6739609E-006  0.7717744E+03  0.7818608E-02  0.9601796E-01
         -2   -1    0    0    0  501 -0.00000000000E+00  0.00000000000E+00  0.29387803377E+03  0.29387803378E+03  0.25500000000E-02 0. -1.
          2   -1    0    0  501    0  0.00000000000E+00 -0.00000000000E+00 -0.50670314026E+03  0.50670314026E+03  0.25500000000E-02 0.  1.
   -5000001    1    1    2    0    0 -0.20422719329E+03  0.80520768297E+02  0.96374833150E+02  0.34638194103E+03  0.25000000000E+03 0.  0.
    5000001    1    1    2    0    0  0.20422719329E+03 -0.80520768297E+02 -0.30919993963E+03  0.45419923302E+03  0.25000000000E+03 0.  0.
<mgrwt>
<rscale>  0 0.77177438E+03</rscale>
<asrwt>0</asrwt>
<pdfrwt beam="1">  1        2 0.77954329E-01 0.77177438E+03</pdfrwt>
<pdfrwt beam="2">  1       -2 0.45212005E-01 0.77177438E+03</pdfrwt>
<totfact> 0.28336126E+02</totfact>
</mgrwt>
</event>
<event>
 4    1  0.6739609E-006  0.5734722E+03  0.7818608E-02  0.9962024E-01
          2   -1    0    0  501    0  0.00000000000E+00  0.00000000000E+00  0.31402272415E+03  0.31402272416E+03  0.25500000000E-02 0.  1.
         -2   -1    0    0    0  501 -0.00000000000E+00 -0.00000000000E+00 -0.26182051646E+03  0.26182051647E+03  0.25500000000E-02 0. -1.
   -5000001    1    1    2    0    0 -0.12778688118E+03  0.50264301217E+02 -0.33733636351E+01  0.28524965655E+03  0.25000000000E+03 0.  0.
    5000001    1    1    2    0    0  0.12778688118E+03 -0.50264301217E+02  0.55575571327E+02  0.29059358408E+03  0.25000000000E+03 0.  0.
<mgrwt>
<rscale>  0 0.57347220E+03</rscale>
<asrwt>0</asrwt>
<pdfrwt beam="1">  1        2 0.48311188E-01 0.57347220E+03</pdfrwt>
<pdfrwt beam="2">  1       -2 0.40280079E-01 0.57347220E+03</pdfrwt>
<totfact> 0.61285264E+02</totfact>
</mgrwt>
</event>
<event>
 4    1  0.6739609E-006  0.6210186E+03  0.7818608E-02  0.9862734E-01
         -2   -1    0    0    0  501 -0.00000000000E+00  0.00000000000E+00  0.72134230240E+02  0.72134230285E+02  0.25500000000E-02 0. -1.
          2   -1    0    0  501    0  0.00000000000E+00 -0.00000000000E+00 -0.13366197302E+04  0.13366197302E+04  0.25500000000E-02 0.  1.
   -5000001    1    1    2    0    0 -0.17834634832E+03  0.41991604343E+02 -0.67439703867E+03  0.74221430906E+03  0.25000000000E+03 0.  0.
    5000001    1    1    2    0    0  0.17834634832E+03 -0.41991604343E+02 -0.59008846132E+03  0.66653965147E+03  0.25000000000E+03 0.  0.
<mgrwt>
<rscale>  0 0.62101863E+03</rscale>
<asrwt>0</asrwt>
<pdfrwt beam="1">  1        2 0.20563379E+00 0.62101863E+03</pdfrwt>
<pdfrwt beam="2">  1       -2 0.11097575E-01 0.62101863E+03</pdfrwt>
<totfact> 0.92425433E+02</totfact>
</mgrwt>
</event>
<event>
 4    1  0.6739609E-006  0.8859847E+03  0.7818608E-02  0.9443273E-01
         -2   -1    0    0    0  501 -0.00000000000E+00  0.00000000000E+00  0.12203545280E+03  0.12203545283E+03  0.25500000000E-02 0. -1.
          2   -1    0    0  501    0  0.00000000000E+00 -0.00000000000E+00 -0.16080755133E+04  0.16080755133E+04  0.25500000000E-02 0.  1.
   -5000001    1    1    2    0    0 -0.28956909462E+03 -0.16345662716E+03 -0.10402874014E+04  0.11203866328E+04  0.25000000000E+03 0.  0.
    5000001    1    1    2    0    0  0.28956909462E+03  0.16345662716E+03 -0.44575265910E+03  0.60972433330E+03  0.25000000000E+03 0.  0.
<mgrwt>
<rscale>  0 0.88598470E+03</rscale>
<asrwt>0</asrwt>
<pdfrwt beam="1">  1        2 0.24739622E+00 0.88598470E+03</pdfrwt>
<pdfrwt beam="2">  1       -2 0.18774686E-01 0.88598470E+03</pdfrwt>
<totfact> 0.26469922E+02</totfact>
</mgrwt>
</event>
<event>
 4    1  0.6739609E-006  0.7536446E+03  0.7818608E-02  0.9629650E-01
          2   -1    0    0  501    0  0.00000000000E+00  0.00000000000E+00  0.37531619975E+04  0.37531619975E+04  0.25500000000E-02 0.  1.
         -2   -1    0    0    0  501 -0.00000000000E+00 -0.00000000000E+00 -0.37833440294E+02  0.37833440379E+02  0.25500000000E-02 0. -1.
   -5000001    1    1    2    0    0 -0.14883166884E+03  0.19085246105E+03  0.25852134900E+04  0.26085253145E+04  0.25000000000E+03 0.  0.
    5000001    1    1    2    0    0  0.14883166884E+03 -0.19085246105E+03  0.11301150672E+04  0.11824701233E+04  0.25000000000E+03 0.  0.
<mgrwt>
<rscale>  0 0.75364456E+03</rscale>
<asrwt>0</asrwt>
<pdfrwt beam="1">  1        2 0.57740963E+00 0.75364456E+03</pdfrwt>
<pdfrwt beam="2">  1       -2 0.58205284E-02 0.75364456E+03</pdfrwt>
<totfact> 0.94398353E+01</totfact>
</mgrwt>
</event>
<event>
 4    1  0.6739609E-006  0.8424794E+03  0.7818608E-02  0.9500487E-01
         -2   -1    0    0    0  501 -0.00000000000E+00  0.00000000000E+00  0.11542076124E+03  0.11542076126E+03  0.25500000000E-02 0. -1.
          2   -1    0    0  501    0  0.00000000000E+00 -0.00000000000E+00 -0.15373566958E+04  0.15373566958E+04  0.25500000000E-02 0.  1.
   -5000001    1    1    2    0    0 -0.27777345555E+03  0.15600297817E+03 -0.93846810231E+03  0.10221141819E+04  0.25000000000E+03 0.  0.
    5000001    1    1    2    0    0  0.27777345555E+03 -0.15600297817E+03 -0.48346783225E+03  0.63066327516E+03  0.25000000000E+03 0.  0.
<mgrwt>
<rscale>  0 0.84247939E+03</rscale>
<asrwt>0</asrwt>
<pdfrwt beam="1">  1        2 0.23651640E+00 0.84247939E+03</pdfrwt>
<pdfrwt beam="2">  1       -2 0.17757041E-01 0.84247939E+03</pdfrwt>
<totfact> 0.31997330E+02</totfact>
</mgrwt>
</event>
<event>
 4    1  0.6739609E-006  0.7828953E+03  0.7818608E-02  0.9585111E-01
         -2   -1    0    0    0  501 -0.00000000000E+00  0.00000000000E+00  0.17874586197E+03  0.17874586199E+03  0.25500000000E-02 0. -1.
          2   -1    0    0  501    0  0.00000000000E+00 -0.00000000000E+00 -0.85725758773E+03  0.85725758773E+03  0.25500000000E-02 0.  1.
   -5000001    1    1    2    0    0  0.27126029091E+03 -0.11996821524E+03 -0.26977670805E+03  0.47249760877E+03  0.25000000000E+03 0.  0.
    5000001    1    1    2    0    0 -0.27126029091E+03  0.11996821524E+03 -0.40873501770E+03  0.56350584095E+03  0.25000000000E+03 0.  0.
<mgrwt>
<rscale>  0 0.78289526E+03</rscale>
<asrwt>0</asrwt>
<pdfrwt beam="1">  1        2 0.13188578E+00 0.78289526E+03</pdfrwt>
<pdfrwt beam="2">  1       -2 0.27499364E-01 0.78289526E+03</pdfrwt>
<totfact> 0.37971156E+02</totfact>
</mgrwt>
</event>
<event>
 4    1  0.6739609E-006  0.1098331E+04  0.7818608E-02  0.9206821E-01
          2   -1    0    0  501    0  0.00000000000E+00  0.00000000000E+00  0.14013088226E+04  0.14013088226E+04  0.25500000000E-02 0.  1.
         -2   -1    0    0    0  501 -0.00000000000E+00 -0.00000000000E+00 -0.21521487389E+03  0.21521487390E+03  0.25500000000E-02 0. -1.
   -5000001    1    1    2    0    0  0.11038155764E+03 -0.47513855024E+03  0.64277927844E+03  0.84475199377E+03  0.25000000000E+03 0.  0.
    5000001    1    1    2    0    0 -0.11038155764E+03  0.47513855024E+03  0.54331467027E+03  0.77177170272E+03  0.25000000000E+03 0.  0.
<mgrwt>
<rscale>  0 0.10983306E+04</rscale>
<asrwt>0</asrwt>
<pdfrwt beam="1">  1        2 0.21558597E+00 0.10983306E+04</pdfrwt>
<pdfrwt beam="2">  1       -2 0.33109981E-01 0.10983306E+04</pdfrwt>
<totfact> 0.12204376E+02</totfact>
</mgrwt>
</event>
<event>
 4    1  0.6739609E-006  0.6839723E+03  0.7818608E-02  0.9745041E-01
         -2   -1    0    0    0  501 -0.00000000000E+00  0.00000000000E+00  0.92877782541E+02  0.92877782576E+02  0.25500000000E-02 0. -1.
          2   -1    0    0  501    0  0.00000000000E+00 -0.00000000000E+00 -0.12592305002E+04  0.12592305002E+04  0.25500000000E-02 0.  1.
   -5000001    1    1    2    0    0  0.14907799469E+03  0.16428048150E+03 -0.72630620688E+03  0.79952050084E+03  0.25000000000E+03 0.  0.
    5000001    1    1    2    0    0 -0.14907799469E+03 -0.16428048150E+03 -0.44004651078E+03  0.55258778194E+03  0.25000000000E+03 0.  0.
<mgrwt>
<rscale>  0 0.68397233E+03</rscale>
<asrwt>0</asrwt>
<pdfrwt beam="1">  1        2 0.19372776E+00 0.68397233E+03</pdfrwt>
<pdfrwt beam="2">  1       -2 0.14288891E-01 0.68397233E+03</pdfrwt>
<totfact> 0.67154302E+02</totfact>
</mgrwt>
</event>
<event>
 4    1  0.6739609E-006  0.5196168E+03  0.7818608E-02  0.1008782E+00
          2   -1    0    0  501    0  0.00000000000E+00  0.00000000000E+00  0.59129486949E+03  0.59129486949E+03  0.25500000000E-02 0.  1.
         -2   -1    0    0    0  501 -0.00000000000E+00 -0.00000000000E+00 -0.11415693603E+03  0.11415693605E+03  0.25500000000E-02 0. -1.
   -5000001    1    1    2    0    0  0.67756882714E+02 -0.19696122582E+02  0.23227704809E+03  0.34847031361E+03  0.25000000000E+03 0.  0.
    5000001    1    1    2    0    0 -0.67756882714E+02  0.19696122582E+02  0.24486088537E+03  0.35698149193E+03  0.25000000000E+03 0.  0.
<mgrwt>
<rscale>  0 0.51961682E+03</rscale>
<asrwt>0</asrwt>
<pdfrwt beam="1">  1        2 0.90968441E-01 0.51961682E+03</pdfrwt>
<pdfrwt beam="2">  1       -2 0.17562606E-01 0.51961682E+03</pdfrwt>
<totfact> 0.13520503E+03</totfact>
</mgrwt>
</event>
<event>
 4    1  0.6739609E-006  0.9422396E+03  0.7818608E-02  0.9374268E-01
         -2   -1    0    0    0  501 -0.00000000000E+00  0.00000000000E+00  0.31168377068E+03  0.31168377069E+03  0.25500000000E-02 0. -1.
          2   -1    0    0  501    0  0.00000000000E+00 -0.00000000000E+00 -0.71211242110E+03  0.71211242110E+03  0.25500000000E-02 0.  1.
   -5000001    1    1    2    0    0 -0.14422088041E+03 -0.33002379402E+03 -0.12839259989E+02  0.43861168881E+03  0.25000000000E+03 0.  0.
    5000001    1    1    2    0    0  0.14422088041E+03  0.33002379402E+03 -0.38758939043E+03  0.58518450299E+03  0.25000000000E+03 0.  0.
<mgrwt>
<rscale>  0 0.94223964E+03</rscale>
<asrwt>0</asrwt>
<pdfrwt beam="1">  1        2 0.10955576E+00 0.94223964E+03</pdfrwt>
<pdfrwt beam="2">  1       -2 0.47951350E-01 0.94223964E+03</pdfrwt>
<totfact> 0.16538284E+02</totfact>
</mgrwt>
</event>
<event>
 4    1  0.6739609E-006  0.7435828E+03  0.7818608E-02  0.9645472E-01
          2   -1    0    0  501    0  0.00000000000E+00  0.00000000000E+00  0.74601738151E+03  0.74601738151E+03  0.25500000000E-02 0.  1.
         -2   -1    0    0    0  501 -0.00000000000E+00 -0.00000000000E+00 -0.18528902193E+03  0.18528902195E+03  0.25500000000E-02 0. -1.
   -5000001    1    1    2    0    0  0.16553532195E+03 -0.21132704707E+03  0.35621567830E+03  0.51132247467E+03  0.25000000000E+03 0.  0.
    5000001    1    1    2    0    0 -0.16553532195E+03  0.21132704707E+03  0.20451268128E+03  0.41998392879E+03  0.25000000000E+03 0.  0.
<mgrwt>
<rscale>  0 0.74358276E+03</rscale>
<asrwt>0</asrwt>
<pdfrwt beam="1">  1        2 0.11477190E+00 0.74358276E+03</pdfrwt>
<pdfrwt beam="2">  1       -2 0.28506003E-01 0.74358276E+03</pdfrwt>
<totfact> 0.42803482E+02</totfact>
</mgrwt>
</event>
<event>
 4    1  0.6739609E-006  0.9430497E+03  0.7818608E-02  0.9373311E-01
         -2   -1    0    0    0  501 -0.00000000000E+00  0.00000000000E+00  0.40223500392E+03  0.40223500393E+03  0.25500000000E-02 0. -1.
          2   -1    0    0  501    0  0.00000000000E+00 -0.00000000000E+00 -0.55275071426E+03  0.55275071426E+03  0.25500000000E-02 0.  1.
   -5000001    1    1    2    0    0  0.33699615348E+03 -0.15517876802E+03  0.75586644187E+02  0.45371819259E+03  0.25000000000E+03 0.  0.
    5000001    1    1    2    0    0 -0.33699615348E+03  0.15517876802E+03 -0.22610235452E+03  0.50126752561E+03  0.25000000000E+03 0.  0.
<mgrwt>
<rscale>  0 0.94304970E+03</rscale>
<asrwt>0</asrwt>
<pdfrwt beam="1">  1        2 0.85038572E-01 0.94304970E+03</pdfrwt>
<pdfrwt beam="2">  1       -2 0.61882308E-01 0.94304970E+03</pdfrwt>
<totfact> 0.13299474E+02</totfact>
</mgrwt>
</event>
<event>
 4    1  0.6739609E-006  0.6235260E+03  0.7818608E-02  0.9857764E-01
          2   -1    0    0  501    0  0.00000000000E+00  0.00000000000E+00  0.27387944702E+03  0.27387944703E+03  0.25500000000E-02 0.  1.
         -2   -1    0    0    0  501 -0.00000000000E+00 -0.00000000000E+00 -0.35488665328E+03  0.35488665329E+03  0.25500000000E-02 0. -1.
   -5000001    1    1    2    0    0 -0.80240401706E+02  0.13378719296E+03  0.62129067621E+02  0.30116034950E+03  0.25000000000E+03 0.  0.
    5000001    1    1    2    0    0  0.80240401706E+02 -0.13378719296E+03 -0.14313627388E+03  0.32760575082E+03  0.25000000000E+03 0.  0.
<mgrwt>
<rscale>  0 0.62352597E+03</rscale>
<asrwt>0</asrwt>
<pdfrwt beam="1">  1        2 0.42135299E-01 0.62352597E+03</pdfrwt>
<pdfrwt beam="2">  1       -2 0.54597947E-01 0.62352597E+03</pdfrwt>
<totfact> 0.38732659E+02</totfact>
</mgrwt>
</event>
<event>
 4    1  0.6739609E-006  0.5301255E+03  0.7818608E-02  0.1006202E+00
         -2   -1    0    0    0  501 -0.00000000000E+00  0.00000000000E+00  0.50836413602E+02  0.50836413666E+02  0.25500000000E-02 0. -1.
          2   -1    0    0  501    0  0.00000000000E+00 -0.00000000000E+00 -0.13820459532E+04  0.13820459532E+04  0.25500000000E-02 0.  1.
   -5000001    1    1    2    0    0  0.56290625992E+02 -0.76782545406E+01 -0.48367111525E+03  0.54741696895E+03  0.25000000000E+03 0.  0.
    5000001    1    1    2    0    0 -0.56290625992E+02  0.76782545406E+01 -0.84753842439E+03  0.88546539796E+03  0.25000000000E+03 0.  0.
<mgrwt>
<rscale>  0 0.53012549E+03</rscale>
<asrwt>0</asrwt>
<pdfrwt beam="1">  1        2 0.21262243E+00 0.53012549E+03</pdfrwt>
<pdfrwt beam="2">  1       -2 0.78209878E-02 0.53012549E+03</pdfrwt>
<totfact> 0.15364682E+03</totfact>
</mgrwt>
</event>
<event>
 4    1  0.6739609E-006  0.6705050E+03  0.7818608E-02  0.9769046E-01
         -2   -1    0    0    0  501 -0.00000000000E+00  0.00000000000E+00  0.45355068985E+02  0.45355069057E+02  0.25500000000E-02 0. -1.
          2   -1    0    0  501    0  0.00000000000E+00 -0.00000000000E+00 -0.24780967082E+04  0.24780967082E+04  0.25500000000E-02 0.  1.
   -5000001    1    1    2    0    0 -0.10482048365E+03 -0.19663934123E+03 -0.11580810087E+04  0.12055314127E+04  0.25000000000E+03 0.  0.
    5000001    1    1    2    0    0  0.10482048365E+03  0.19663934123E+03 -0.12746606305E+04  0.13179203645E+04  0.25000000000E+03 0.  0.
<mgrwt>
<rscale>  0 0.67050503E+03</rscale>
<asrwt>0</asrwt>
<pdfrwt beam="1">  1        2 0.38124554E+00 0.67050503E+03</pdfrwt>
<pdfrwt beam="2">  1       -2 0.69777049E-02 0.67050503E+03</pdfrwt>
<totfact> 0.45802706E+02</totfact>
</mgrwt>
</event>
<event>
 4    1  0.6739609E-006  0.6790225E+03  0.7818608E-02  0.9753795E-01
          2   -1    0    0  501    0  0.00000000000E+00  0.00000000000E+00  0.99447873914E+03  0.99447873915E+03  0.25500000000E-02 0.  1.
         -2   -1    0    0    0  501 -0.00000000000E+00 -0.00000000000E+00 -0.11590786223E+03  0.11590786226E+03  0.25500000000E-02 0. -1.
   -5000001    1    1    2    0    0  0.13178225703E+03  0.18676344296E+03  0.47660254093E+03  0.58471970115E+03  0.25000000000E+03 0.  0.
    5000001    1    1    2    0    0 -0.13178225703E+03 -0.18676344296E+03  0.40196833598E+03  0.52566690026E+03  0.25000000000E+03 0.  0.
<mgrwt>
<rscale>  0 0.67902255E+03</rscale>
<asrwt>0</asrwt>
<pdfrwt beam="1">  1        2 0.15299672E+00 0.67902255E+03</pdfrwt>
<pdfrwt beam="2">  1       -2 0.17831979E-01 0.67902255E+03</pdfrwt>
<totfact> 0.66668383E+02</totfact>
</mgrwt>
</event>
<event>
 4    1  0.6739609E-006  0.1090608E+04  0.7818608E-02  0.9214395E-01
         -2   -1    0    0    0  501 -0.00000000000E+00  0.00000000000E+00  0.26446114821E+03  0.26446114823E+03  0.25500000000E-02 0. -1.
          2   -1    0    0  501    0  0.00000000000E+00 -0.00000000000E+00 -0.11243860345E+04  0.11243860345E+04  0.25500000000E-02 0.  1.
   -5000001    1    1    2    0    0 -0.34939081412E+03  0.24468220583E+02 -0.34311949571E+01  0.43033057980E+03  0.25000000000E+03 0.  0.
    5000001    1    1    2    0    0  0.34939081412E+03 -0.24468220583E+02 -0.85649369134E+03  0.95851660295E+03  0.25000000000E+03 0.  0.
<mgrwt>
<rscale>  0 0.10906079E+04</rscale>
<asrwt>0</asrwt>
<pdfrwt beam="1">  1        2 0.17298246E+00 0.10906079E+04</pdfrwt>
<pdfrwt beam="2">  1       -2 0.40686331E-01 0.10906079E+04</pdfrwt>
<totfact> 0.11949947E+02</totfact>
</mgrwt>
</event>
<event>
 4    1  0.6739609E-006  0.6812540E+03  0.7818608E-02  0.9749838E-01
          2   -1    0    0  501    0  0.00000000000E+00  0.00000000000E+00  0.89215628671E+03  0.89215628671E+03  0.25500000000E-02 0.  1.
         -2   -1    0    0    0  501 -0.00000000000E+00 -0.00000000000E+00 -0.13005205029E+03  0.13005205031E+03  0.25500000000E-02 0. -1.
   -5000001    1    1    2    0    0  0.87801114313E+02 -0.13575659823E+03  0.62937082490E+03  0.69623740554E+03  0.25000000000E+03 0.  0.
    5000001    1    1    2    0    0 -0.87801114313E+02  0.13575659823E+03  0.13273341153E+03  0.32597093149E+03  0.25000000000E+03 0.  0.
<mgrwt>
<rscale>  0 0.68125400E+03</rscale>
<asrwt>0</asrwt>
<pdfrwt beam="1">  1        2 0.13725481E+00 0.68125400E+03</pdfrwt>
<pdfrwt beam="2">  1       -2 0.20008008E-01 0.68125400E+03</pdfrwt>
<totfact> 0.63703636E+02</totfact>
</mgrwt>
</event>
<event>
 4    1  0.6739609E-006  0.8845641E+03  0.7818608E-02  0.9445085E-01
         -2   -1    0    0    0  501 -0.00000000000E+00  0.00000000000E+00  0.25097977167E+03  0.25097977168E+03  0.25500000000E-02 0. -1.
          2   -1    0    0  501    0  0.00000000000E+00 -0.00000000000E+00 -0.77939908572E+03  0.77939908572E+03  0.25500000000E-02 0.  1.
   -5000001    1    1    2    0    0  0.20498928446E+03  0.15164312681E+03 -0.56818064627E+03  0.67107785797E+03  0.25000000000E+03 0.  0.
    5000001    1    1    2    0    0 -0.20498928446E+03 -0.15164312681E+03  0.39761332228E+02  0.35930099944E+03  0.25000000000E+03 0.  0.
<mgrwt>
<rscale>  0 0.88456408E+03</rscale>
<asrwt>0</asrwt>
<pdfrwt beam="1">  1        2 0.11990755E+00 0.88456408E+03</pdfrwt>
<pdfrwt beam="2">  1       -2 0.38612273E-01 0.88456408E+03</pdfrwt>
<totfact> 0.22658103E+02</totfact>
</mgrwt>
</event>
<event>
 4    1  0.6739609E-006  0.7428029E+03  0.7818608E-02  0.9646710E-01
          2   -1    0    0  501    0  0.00000000000E+00  0.00000000000E+00  0.15225907322E+04  0.15225907322E+04  0.25500000000E-02 0.  1.
         -2   -1    0    0    0  501 -0.00000000000E+00 -0.00000000000E+00 -0.90594961342E+02  0.90594961378E+02  0.25500000000E-02 0. -1.
   -5000001    1    1    2    0    0 -0.10882772011E+03  0.20815266465E+03  0.10251816447E+04  0.10810496793E+04  0.25000000000E+03 0.  0.
    5000001    1    1    2    0    0  0.10882772011E+03 -0.20815266465E+03  0.40681412616E+03  0.53213601429E+03  0.25000000000E+03 0.  0.
<mgrwt>
<rscale>  0 0.74280293E+03</rscale>
<asrwt>0</asrwt>
<pdfrwt beam="1">  1        2 0.23424471E+00 0.74280293E+03</pdfrwt>
<pdfrwt beam="2">  1       -2 0.13937687E-01 0.74280293E+03</pdfrwt>
<totfact> 0.49528609E+02</totfact>
</mgrwt>
</event>
<event>
 4    1  0.6739609E-006  0.7003449E+03  0.7818608E-02  0.9716643E-01
         -2   -1    0    0    0  501 -0.00000000000E+00  0.00000000000E+00  0.17316692098E+03  0.17316692100E+03  0.25500000000E-02 0. -1.
          2   -1    0    0  501    0  0.00000000000E+00 -0.00000000000E+00 -0.70810710995E+03  0.70810710995E+03  0.25500000000E-02 0.  1.
   -5000001    1    1    2    0    0 -0.44498001060E+02  0.21470522346E+03 -0.12938265850E+03  0.35681686815E+03  0.25000000000E+03 0.  0.
    5000001    1    1    2    0    0  0.44498001060E+02 -0.21470522346E+03 -0.40555753047E+03  0.52445716279E+03  0.25000000000E+03 0.  0.
<mgrwt>
<rscale>  0 0.70034485E+03</rscale>
<asrwt>0</asrwt>
<pdfrwt beam="1">  1        2 0.10893955E+00 0.70034485E+03</pdfrwt>
<pdfrwt beam="2">  1       -2 0.26641065E-01 0.70034485E+03</pdfrwt>
<totfact> 0.51854814E+02</totfact>
</mgrwt>
</event>
<event>
 4    1  0.6739609E-006  0.1757975E+04  0.7818608E-02  0.8728972E-01
         -2   -1    0    0    0  501 -0.00000000000E+00  0.00000000000E+00  0.27291818688E+04  0.27291818688E+04  0.25500000000E-02 0. -1.
          2   -1    0    0  501    0  0.00000000000E+00 -0.00000000000E+00 -0.28309562978E+03  0.28309562979E+03  0.25500000000E-02 0.  1.
   -5000001    1    1    2    0    0  0.33819596411E+03 -0.23847602447E+03  0.24808820277E+04  0.25275527610E+04  0.25000000000E+03 0.  0.
    5000001    1    1    2    0    0 -0.33819596411E+03  0.23847602447E+03 -0.34795788597E+02  0.48472473765E+03  0.25000000000E+03 0.  0.
<mgrwt>
<rscale>  0 0.17579755E+04</rscale>
<asrwt>0</asrwt>
<pdfrwt beam="1">  1        2 0.43553172E-01 0.17579755E+04</pdfrwt>
<pdfrwt beam="2">  1       -2 0.41987415E+00 0.17579755E+04</pdfrwt>
<totfact> 0.61267396E-01</totfact>
</mgrwt>
</event>
<event>
 4    1  0.6739609E-006  0.8271543E+03  0.7818608E-02  0.9521523E-01
         -2   -1    0    0    0  501 -0.00000000000E+00  0.00000000000E+00  0.92556558446E+02  0.92556558481E+02  0.25500000000E-02 0. -1.
          2   -1    0    0  501    0  0.00000000000E+00 -0.00000000000E+00 -0.18480166310E+04  0.18480166310E+04  0.25500000000E-02 0.  1.
   -5000001    1    1    2    0    0 -0.46604396811E+02  0.22394501297E+03 -0.14340176932E+04  0.14735094445E+04  0.25000000000E+03 0.  0.
    5000001    1    1    2    0    0  0.46604396811E+02 -0.22394501297E+03 -0.32144237939E+03  0.46706374501E+03  0.25000000000E+03 0.  0.
<mgrwt>
<rscale>  0 0.82715430E+03</rscale>
<asrwt>0</asrwt>
<pdfrwt beam="1">  1        2 0.28431022E+00 0.82715430E+03</pdfrwt>
<pdfrwt beam="2">  1       -2 0.14239472E-01 0.82715430E+03</pdfrwt>
<totfact> 0.31487579E+02</totfact>
</mgrwt>
</event>
<event>
 4    1  0.6739609E-006  0.1559074E+04  0.7818608E-02  0.8846093E-01
         -2   -1    0    0    0  501 -0.00000000000E+00  0.00000000000E+00  0.51041142971E+03  0.51041142972E+03  0.25500000000E-02 0. -1.
          2   -1    0    0  501    0  0.00000000000E+00 -0.00000000000E+00 -0.11905647618E+04  0.11905647618E+04  0.25500000000E-02 0.  1.
   -5000001    1    1    2    0    0  0.62236969160E+03 -0.19413390792E+03  0.38092336252E+02  0.69927321792E+03  0.25000000000E+03 0.  0.
    5000001    1    1    2    0    0 -0.62236969160E+03  0.19413390792E+03 -0.71824566834E+03  0.10017029736E+04  0.25000000000E+03 0.  0.
<mgrwt>
<rscale>  0 0.15590739E+04</rscale>
<asrwt>0</asrwt>
<pdfrwt beam="1">  1        2 0.18316381E+00 0.15590739E+04</pdfrwt>
<pdfrwt beam="2">  1       -2 0.78524835E-01 0.15590739E+04</pdfrwt>
<totfact> 0.26607817E+01</totfact>
</mgrwt>
</event>
<event>
 4    1  0.6739609E-006  0.6322292E+03  0.7818608E-02  0.9840708E-01
         -2   -1    0    0    0  501 -0.00000000000E+00  0.00000000000E+00  0.51811977734E+02  0.51811977797E+02  0.25500000000E-02 0. -1.
          2   -1    0    0  501    0  0.00000000000E+00 -0.00000000000E+00 -0.19286746427E+04  0.19286746427E+04  0.25500000000E-02 0.  1.
   -5000001    1    1    2    0    0 -0.14543904186E+03 -0.12757715776E+03 -0.93830498926E+03  0.99012357762E+03  0.25000000000E+03 0.  0.
    5000001    1    1    2    0    0  0.14543904186E+03  0.12757715776E+03 -0.93855767571E+03  0.99036304288E+03  0.25000000000E+03 0.  0.
<mgrwt>
<rscale>  0 0.63222922E+03</rscale>
<asrwt>0</asrwt>
<pdfrwt beam="1">  1        2 0.29671912E+00 0.63222922E+03</pdfrwt>
<pdfrwt beam="2">  1       -2 0.79710750E-02 0.63222922E+03</pdfrwt>
<totfact> 0.74568974E+02</totfact>
</mgrwt>
</event>
<event>
 4    1  0.6739609E-006  0.6014487E+03  0.7818608E-02  0.9902405E-01
          2   -1    0    0  501    0  0.00000000000E+00  0.00000000000E+00  0.16693954802E+04  0.16693954802E+04  0.25500000000E-02 0.  1.
         -2   -1    0    0    0  501 -0.00000000000E+00 -0.00000000000E+00 -0.54172391527E+02  0.54172391587E+02  0.25500000000E-02 0. -1.
   -5000001    1    1    2    0    0 -0.64470241470E+02 -0.88149371577E+02  0.44503138650E+03  0.52199584167E+03  0.25000000000E+03 0.  0.
    5000001    1    1    2    0    0  0.64470241470E+02  0.88149371577E+02  0.11701917022E+04  0.12015720301E+04  0.25000000000E+03 0.  0.
<mgrwt>
<rscale>  0 0.60144874E+03</rscale>
<asrwt>0</asrwt>
<pdfrwt beam="1">  1        2 0.25683004E+00 0.60144874E+03</pdfrwt>
<pdfrwt beam="2">  1       -2 0.83342151E-02 0.60144874E+03</pdfrwt>
<totfact> 0.96165547E+02</totfact>
</mgrwt>
</event>
<event>
 4    1  0.6739609E-006  0.6183892E+03  0.7818608E-02  0.9867972E-01
          2   -1    0    0  501    0  0.00000000000E+00  0.00000000000E+00  0.22837734697E+04  0.22837734697E+04  0.25500000000E-02 0.  1.
         -2   -1    0    0    0  501 -0.00000000000E+00 -0.00000000000E+00 -0.41861115166E+02  0.41861115244E+02  0.25500000000E-02 0. -1.
   -5000001    1    1    2    0    0  0.71337692295E+02  0.70103363521E+02  0.16925196565E+04  0.17138046375E+04  0.25000000000E+03 0.  0.
    5000001    1    1    2    0    0 -0.71337692295E+02 -0.70103363521E+02  0.54939269800E+03  0.61182994740E+03  0.25000000000E+03 0.  0.
<mgrwt>
<rscale>  0 0.61838921E+03</rscale>
<asrwt>0</asrwt>
<pdfrwt beam="1">  1        2 0.35134987E+00 0.61838921E+03</pdfrwt>
<pdfrwt beam="2">  1       -2 0.64401697E-02 0.61838921E+03</pdfrwt>
<totfact> 0.66996965E+02</totfact>
</mgrwt>
</event>
<event>
 4    1  0.6739609E-006  0.5730164E+03  0.7818608E-02  0.9963026E-01
          2   -1    0    0  501    0  0.00000000000E+00  0.00000000000E+00  0.41917049005E+04  0.41917049005E+04  0.25500000000E-02 0.  1.
         -2   -1    0    0    0  501 -0.00000000000E+00 -0.00000000000E+00 -0.19583190354E+02  0.19583190520E+02  0.25500000000E-02 0. -1.
   -5000001    1    1    2    0    0  0.10284123709E+03 -0.84990818294E+02  0.23967556551E+04  0.24134492805E+04  0.25000000000E+03 0.  0.
    5000001    1    1    2    0    0 -0.10284123709E+03  0.84990818294E+02  0.17753660550E+04  0.17978388105E+04  0.25000000000E+03 0.  0.
<mgrwt>
<rscale>  0 0.57301642E+03</rscale>
<asrwt>0</asrwt>
<pdfrwt beam="1">  1        2 0.64487809E+00 0.57301642E+03</pdfrwt>
<pdfrwt beam="2">  1       -2 0.30127966E-02 0.57301642E+03</pdfrwt>
<totfact> 0.12211059E+02</totfact>
</mgrwt>
</event>
<event>
 4    1  0.6739609E-006  0.8874957E+03  0.7818608E-02  0.9441349E-01
         -2   -1    0    0    0  501 -0.00000000000E+00  0.00000000000E+00  0.24295403967E+03  0.24295403969E+03  0.25500000000E-02 0. -1.
          2   -1    0    0  501    0  0.00000000000E+00 -0.00000000000E+00 -0.81049144659E+03  0.81049144659E+03  0.25500000000E-02 0.  1.
   -5000001    1    1    2    0    0 -0.27621472986E+03 -0.21602305703E+03 -0.15674654164E+03  0.45829031899E+03  0.25000000000E+03 0.  0.
    5000001    1    1    2    0    0  0.27621472986E+03  0.21602305703E+03 -0.41079086528E+03  0.59515516729E+03  0.25000000000E+03 0.  0.
<mgrwt>
<rscale>  0 0.88749574E+03</rscale>
<asrwt>0</asrwt>
<pdfrwt beam="1">  1        2 0.12469099E+00 0.88749574E+03</pdfrwt>
<pdfrwt beam="2">  1       -2 0.37377545E-01 0.88749574E+03</pdfrwt>
<totfact> 0.22905003E+02</totfact>
</mgrwt>
</event>
<event>
 4    1  0.6739609E-006  0.7350360E+03  0.7818608E-02  0.9659123E-01
         -2   -1    0    0    0  501 -0.00000000000E+00  0.00000000000E+00  0.39776712914E+02  0.39776712996E+02  0.25500000000E-02 0. -1.
          2   -1    0    0  501    0  0.00000000000E+00 -0.00000000000E+00 -0.33956920139E+04  0.33956920139E+04  0.25500000000E-02 0.  1.
   -5000001    1    1    2    0    0  0.17469041000E+03  0.17926380628E+03 -0.12125084652E+04  0.12630633515E+04  0.25000000000E+03 0.  0.
    5000001    1    1    2    0    0 -0.17469041000E+03 -0.17926380628E+03 -0.21434068358E+04  0.21724053754E+04  0.25000000000E+03 0.  0.
<mgrwt>
<rscale>  0 0.73503596E+03</rscale>
<asrwt>0</asrwt>
<pdfrwt beam="1">  1        2 0.52241393E+00 0.73503596E+03</pdfrwt>
<pdfrwt beam="2">  1       -2 0.61194970E-02 0.73503596E+03</pdfrwt>
<totfact> 0.15512301E+02</totfact>
</mgrwt>
</event>
<event>
 4    1  0.6739609E-006  0.9684374E+03  0.7818608E-02  0.9343856E-01
         -2   -1    0    0    0  501 -0.00000000000E+00  0.00000000000E+00  0.26477174024E+03  0.26477174025E+03  0.25500000000E-02 0. -1.
          2   -1    0    0  501    0  0.00000000000E+00 -0.00000000000E+00 -0.88554676630E+03  0.88554676630E+03  0.25500000000E-02 0.  1.
   -5000001    1    1    2    0    0  0.37565579630E+03 -0.16105675811E+03 -0.39362911572E+03  0.62008099259E+03  0.25000000000E+03 0.  0.
    5000001    1    1    2    0    0 -0.37565579630E+03  0.16105675811E+03 -0.22714591034E+03  0.53023751396E+03  0.25000000000E+03 0.  0.
<mgrwt>
<rscale>  0 0.96843742E+03</rscale>
<asrwt>0</asrwt>
<pdfrwt beam="1">  1        2 0.13623796E+00 0.96843742E+03</pdfrwt>
<pdfrwt beam="2">  1       -2 0.40734114E-01 0.96843742E+03</pdfrwt>
<totfact> 0.17102650E+02</totfact>
</mgrwt>
</event>
<event>
 4    1  0.6739609E-006  0.6217241E+03  0.7818608E-02  0.9861333E-01
          2   -1    0    0  501    0  0.00000000000E+00  0.00000000000E+00  0.40147244317E+03  0.40147244318E+03  0.25500000000E-02 0.  1.
         -2   -1    0    0    0  501 -0.00000000000E+00 -0.00000000000E+00 -0.24070198076E+03  0.24070198077E+03  0.25500000000E-02 0. -1.
   -5000001    1    1    2    0    0 -0.31541888184E+02  0.15501308297E+03  0.17897790900E+03  0.34577021056E+03  0.25000000000E+03 0.  0.
    5000001    1    1    2    0    0  0.31541888184E+02 -0.15501308297E+03 -0.18207446591E+02  0.29640421339E+03  0.25000000000E+03 0.  0.
<mgrwt>
<rscale>  0 0.62172409E+03</rscale>
<asrwt>0</asrwt>
<pdfrwt beam="1">  1        2 0.61764991E-01 0.62172409E+03</pdfrwt>
<pdfrwt beam="2">  1       -2 0.37031074E-01 0.62172409E+03</pdfrwt>
<totfact> 0.54823174E+02</totfact>
</mgrwt>
</event>
<event>
 4    1  0.6739609E-006  0.8147626E+03  0.7818608E-02  0.9538891E-01
         -2   -1    0    0    0  501 -0.00000000000E+00  0.00000000000E+00  0.68443097899E+02  0.68443097946E+02  0.25500000000E-02 0. -1.
          2   -1    0    0  501    0  0.00000000000E+00 -0.00000000000E+00 -0.24247811970E+04  0.24247811970E+04  0.25500000000E-02 0.  1.
   -5000001    1    1    2    0    0  0.29691395279E+03  0.29259465847E+02 -0.15459565079E+04  0.15942068674E+04  0.25000000000E+03 0.  0.
    5000001    1    1    2    0    0 -0.29691395279E+03 -0.29259465847E+02 -0.81038159122E+03  0.89901742758E+03  0.25000000000E+03 0.  0.
<mgrwt>
<rscale>  0 0.81476263E+03</rscale>
<asrwt>0</asrwt>
<pdfrwt beam="1">  1        2 0.37304319E+00 0.81476263E+03</pdfrwt>
<pdfrwt beam="2">  1       -2 0.10529709E-01 0.81476263E+03</pdfrwt>
<totfact> 0.24990327E+02</totfact>
</mgrwt>
</event>
<event>
 4    1  0.6739609E-006  0.5983449E+03  0.7818608E-02  0.9908846E-01
         -2   -1    0    0    0  501 -0.00000000000E+00  0.00000000000E+00  0.20970701419E+03  0.20970701421E+03  0.25500000000E-02 0. -1.
          2   -1    0    0  501    0  0.00000000000E+00 -0.00000000000E+00 -0.42680578137E+03  0.42680578138E+03  0.25500000000E-02 0.  1.
   -5000001    1    1    2    0    0  0.13289587366E+03  0.92411872962E+01 -0.21090254990E+03  0.35316653059E+03  0.25000000000E+03 0.  0.
    5000001    1    1    2    0    0 -0.13289587366E+03 -0.92411872962E+01 -0.61962172853E+01  0.28334626500E+03  0.25000000000E+03 0.  0.
<mgrwt>
<rscale>  0 0.59834494E+03</rscale>
<asrwt>0</asrwt>
<pdfrwt beam="1">  1        2 0.65662428E-01 0.59834494E+03</pdfrwt>
<pdfrwt beam="2">  1       -2 0.32262618E-01 0.59834494E+03</pdfrwt>
<totfact> 0.66472608E+02</totfact>
</mgrwt>
</event>
<event>
 4    1  0.6739609E-006  0.6598536E+03  0.7818608E-02  0.9788463E-01
         -2   -1    0    0    0  501 -0.00000000000E+00  0.00000000000E+00  0.46222561492E+02  0.46222561562E+02  0.25500000000E-02 0. -1.
          2   -1    0    0  501    0  0.00000000000E+00 -0.00000000000E+00 -0.23549470102E+04  0.23549470102E+04  0.25500000000E-02 0.  1.
   -5000001    1    1    2    0    0 -0.33857623881E+02 -0.20356268034E+03 -0.93100167093E+03  0.98582362255E+03  0.25000000000E+03 0.  0.
    5000001    1    1    2    0    0  0.33857623881E+02  0.20356268034E+03 -0.13777227777E+04  0.14153459492E+04  0.25000000000E+03 0.  0.
<mgrwt>
<rscale>  0 0.65985357E+03</rscale>
<asrwt>0</asrwt>
<pdfrwt beam="1">  1        2 0.36229945E+00 0.65985357E+03</pdfrwt>
<pdfrwt beam="2">  1       -2 0.71111651E-02 0.65985357E+03</pdfrwt>
<totfact> 0.52141449E+02</totfact>
</mgrwt>
</event>
<event>
 4    1  0.6739609E-006  0.6013537E+03  0.7818608E-02  0.9902602E-01
          2   -1    0    0  501    0  0.00000000000E+00  0.00000000000E+00  0.42137765130E+04  0.42137765130E+04  0.25500000000E-02 0.  1.
         -2   -1    0    0    0  501 -0.00000000000E+00 -0.00000000000E+00 -0.21454996823E+02  0.21454996975E+02  0.25500000000E-02 0. -1.
   -5000001    1    1    2    0    0  0.46858390812E+02 -0.15735876404E+03  0.23131293664E+04  0.23323861076E+04  0.25000000000E+03 0.  0.
    5000001    1    1    2    0    0 -0.46858390812E+02  0.15735876404E+03  0.18791921498E+04  0.19028454024E+04  0.25000000000E+03 0.  0.
<mgrwt>
<rscale>  0 0.60135368E+03</rscale>
<asrwt>0</asrwt>
<pdfrwt beam="1">  1        2 0.64827283E+00 0.60135368E+03</pdfrwt>
<pdfrwt beam="2">  1       -2 0.33007712E-02 0.60135368E+03</pdfrwt>
<totfact> 0.10127720E+02</totfact>
</mgrwt>
</event>
<event>
 4    1  0.6739609E-006  0.1354332E+04  0.7818608E-02  0.8987555E-01
         -2   -1    0    0    0  501 -0.00000000000E+00  0.00000000000E+00  0.44557339770E+03  0.44557339771E+03  0.25500000000E-02 0. -1.
          2   -1    0    0  501    0  0.00000000000E+00 -0.00000000000E+00 -0.10291319226E+04  0.10291319226E+04  0.25500000000E-02 0.  1.
   -5000001    1    1    2    0    0 -0.61893838826E+03 -0.11097335130E+03 -0.26393298972E+03  0.72633355714E+03  0.25000000000E+03 0.  0.
    5000001    1    1    2    0    0  0.61893838826E+03  0.11097335130E+03 -0.31962553514E+03  0.74837176315E+03  0.25000000000E+03 0.  0.
<mgrwt>
<rscale>  0 0.13543320E+04</rscale>
<asrwt>0</asrwt>
<pdfrwt beam="1">  1        2 0.15832799E+00 0.13543320E+04</pdfrwt>
<pdfrwt beam="2">  1       -2 0.68549754E-01 0.13543320E+04</pdfrwt>
<totfact> 0.45858620E+01</totfact>
</mgrwt>
</event>
<event>
 4    1  0.6739609E-006  0.6373515E+03  0.7818608E-02  0.9830807E-01
         -2   -1    0    0    0  501 -0.00000000000E+00  0.00000000000E+00  0.81196023251E+02  0.81196023291E+02  0.25500000000E-02 0. -1.
          2   -1    0    0  501    0  0.00000000000E+00 -0.00000000000E+00 -0.12507293439E+04  0.12507293439E+04  0.25500000000E-02 0.  1.
   -5000001    1    1    2    0    0  0.35870200896E+01 -0.17963409723E+03 -0.41278167732E+03  0.51494658823E+03  0.25000000000E+03 0.  0.
    5000001    1    1    2    0    0 -0.35870200896E+01  0.17963409723E+03 -0.75675164337E+03  0.81697877901E+03  0.25000000000E+03 0.  0.
<mgrwt>
<rscale>  0 0.63735155E+03</rscale>
<asrwt>0</asrwt>
<pdfrwt beam="1">  1        2 0.19241988E+00 0.63735155E+03</pdfrwt>
<pdfrwt beam="2">  1       -2 0.12491697E-01 0.63735155E+03</pdfrwt>
<totfact> 0.85156787E+02</totfact>
</mgrwt>
</event>
<event>
 4    1  0.6739609E-006  0.5047258E+03  0.7818608E-02  0.1012553E+00
          2   -1    0    0  501    0  0.00000000000E+00  0.00000000000E+00  0.30401333738E+04  0.30401333738E+04  0.25500000000E-02 0.  1.
         -2   -1    0    0    0  501 -0.00000000000E+00 -0.00000000000E+00 -0.20948759042E+02  0.20948759197E+02  0.25500000000E-02 0. -1.
   -5000001    1    1    2    0    0  0.14218335064E+02 -0.16457619193E+02  0.16716504628E+04  0.16903811062E+04  0.25000000000E+03 0.  0.
    5000001    1    1    2    0    0 -0.14218335064E+02  0.16457619193E+02  0.13475341519E+04  0.13707010268E+04  0.25000000000E+03 0.  0.
<mgrwt>
<rscale>  0 0.50472575E+03</rscale>
<asrwt>0</asrwt>
<pdfrwt beam="1">  1        2 0.46771318E+00 0.50472575E+03</pdfrwt>
<pdfrwt beam="2">  1       -2 0.32228836E-02 0.50472575E+03</pdfrwt>
<totfact> 0.72323240E+02</totfact>
</mgrwt>
</event>
<event>
 4    1  0.6739609E-006  0.7326865E+03  0.7818608E-02  0.9662911E-01
         -2   -1    0    0    0  501 -0.00000000000E+00  0.00000000000E+00  0.90862557951E+02  0.90862557987E+02  0.25500000000E-02 0. -1.
          2   -1    0    0  501    0  0.00000000000E+00 -0.00000000000E+00 -0.14770373108E+04  0.14770373108E+04  0.25500000000E-02 0.  1.
   -5000001    1    1    2    0    0 -0.21883141763E+03  0.14955252362E+03 -0.77469268272E+03  0.85609689832E+03  0.25000000000E+03 0.  0.
    5000001    1    1    2    0    0  0.21883141763E+03 -0.14955252362E+03 -0.61148207009E+03  0.71180297042E+03  0.25000000000E+03 0.  0.
<mgrwt>
<rscale>  0 0.73268653E+03</rscale>
<asrwt>0</asrwt>
<pdfrwt beam="1">  1        2 0.22723649E+00 0.73268653E+03</pdfrwt>
<pdfrwt beam="2">  1       -2 0.13978856E-01 0.73268653E+03</pdfrwt>
<totfact> 0.52276232E+02</totfact>
</mgrwt>
</event>
<event>
 4    1  0.6739609E-006  0.1165784E+04  0.7818608E-02  0.9143345E-01
          2   -1    0    0  501    0  0.00000000000E+00  0.00000000000E+00  0.15689011025E+04  0.15689011025E+04  0.25500000000E-02 0.  1.
         -2   -1    0    0    0  501 -0.00000000000E+00 -0.00000000000E+00 -0.21656104864E+03  0.21656104866E+03  0.25500000000E-02 0. -1.
   -5000001    1    1    2    0    0  0.37150802712E+03 -0.31091946443E+03  0.99218204519E+03  0.11320840686E+04  0.25000000000E+03 0.  0.
    5000001    1    1    2    0    0 -0.37150802712E+03  0.31091946443E+03  0.36015800870E+03  0.65337808259E+03  0.25000000000E+03 0.  0.
<mgrwt>
<rscale>  0 0.11657836E+04</rscale>
<asrwt>0</asrwt>
<pdfrwt beam="1">  1        2 0.24136941E+00 0.11657836E+04</pdfrwt>
<pdfrwt beam="2">  1       -2 0.33317084E-01 0.11657836E+04</pdfrwt>
<totfact> 0.96564263E+01</totfact>
</mgrwt>
</event>
<event>
 4    1  0.6739609E-006  0.9886617E+03  0.7818608E-02  0.9321069E-01
         -2   -1    0    0    0  501 -0.00000000000E+00  0.00000000000E+00  0.10898971604E+03  0.10898971607E+03  0.25500000000E-02 0. -1.
          2   -1    0    0  501    0  0.00000000000E+00 -0.00000000000E+00 -0.22420737164E+04  0.22420737164E+04  0.25500000000E-02 0.  1.
   -5000001    1    1    2    0    0 -0.13620072580E+03 -0.25088631305E+03 -0.31316016841E+03  0.49199986876E+03  0.25000000000E+03 0.  0.
    5000001    1    1    2    0    0  0.13620072580E+03  0.25088631305E+03 -0.18199238319E+04  0.18590635637E+04  0.25000000000E+03 0.  0.
<mgrwt>
<rscale>  0 0.98866168E+03</rscale>
<asrwt>0</asrwt>
<pdfrwt beam="1">  1        2 0.34493438E+00 0.98866168E+03</pdfrwt>
<pdfrwt beam="2">  1       -2 0.16767650E-01 0.98866168E+03</pdfrwt>
<totfact> 0.14293251E+02</totfact>
</mgrwt>
</event>
<event>
 4    1  0.6739609E-006  0.6822058E+03  0.7818608E-02  0.9748156E-01
          2   -1    0    0  501    0  0.00000000000E+00  0.00000000000E+00  0.12968555819E+04  0.12968555819E+04  0.25500000000E-02 0.  1.
         -2   -1    0    0    0  501 -0.00000000000E+00 -0.00000000000E+00 -0.89717933551E+02  0.89717933587E+02  0.25500000000E-02 0. -1.
   -5000001    1    1    2    0    0  0.10736795705E+03 -0.90418074599E+02  0.97915486652E+03  0.10202683760E+04  0.25000000000E+03 0.  0.
    5000001    1    1    2    0    0 -0.10736795705E+03  0.90418074599E+02  0.22798278184E+03  0.36630513951E+03  0.25000000000E+03 0.  0.
<mgrwt>
<rscale>  0 0.68220584E+03</rscale>
<asrwt>0</asrwt>
<pdfrwt beam="1">  1        2 0.19951622E+00 0.68220584E+03</pdfrwt>
<pdfrwt beam="2">  1       -2 0.13802761E-01 0.68220584E+03</pdfrwt>
<totfact> 0.67699125E+02</totfact>
</mgrwt>
</event>
<event>
 4    1  0.6739609E-006  0.7776848E+03  0.7818608E-02  0.9592891E-01
          2   -1    0    0  501    0  0.00000000000E+00  0.00000000000E+00  0.23255624808E+04  0.23255624808E+04  0.25500000000E-02 0. -1.
         -2   -1    0    0    0  501 -0.00000000000E+00 -0.00000000000E+00 -0.65015850723E+02  0.65015850773E+02  0.25500000000E-02 0.  1.
   -5000001    1    1    2    0    0  0.20212082785E+03  0.21630233783E+03  0.10302444498E+04  0.11007012114E+04  0.25000000000E+03 0.  0.
    5000001    1    1    2    0    0 -0.20212082785E+03 -0.21630233783E+03  0.12303021803E+04  0.12898771202E+04  0.25000000000E+03 0.  0.
<mgrwt>
<rscale>  0 0.77768483E+03</rscale>
<asrwt>0</asrwt>
<pdfrwt beam="1">  1        2 0.35777884E+00 0.77768483E+03</pdfrwt>
<pdfrwt beam="2">  1       -2 0.10002439E-01 0.77768483E+03</pdfrwt>
<totfact> 0.30988539E+02</totfact>
</mgrwt>
</event>
<event>
 4    1  0.6739609E-006  0.7315142E+03  0.7818608E-02  0.9664807E-01
          2   -1    0    0  501    0  0.00000000000E+00  0.00000000000E+00  0.19703130331E+04  0.19703130331E+04  0.25500000000E-02 0.  1.
         -2   -1    0    0    0  501 -0.00000000000E+00 -0.00000000000E+00 -0.67896947103E+02  0.67896947151E+02  0.25500000000E-02 0. -1.
   -5000001    1    1    2    0    0 -0.24298829935E+03 -0.89432759228E+02  0.11325675994E+04  0.11883816303E+04  0.25000000000E+03 0.  0.
    5000001    1    1    2    0    0  0.24298829935E+03  0.89432759228E+02  0.76984848657E+03  0.84982834991E+03  0.25000000000E+03 0.  0.
<mgrwt>
<rscale>  0 0.73151416E+03</rscale>
<asrwt>0</asrwt>
<pdfrwt beam="1">  1        2 0.30312506E+00 0.73151416E+03</pdfrwt>
<pdfrwt beam="2">  1       -2 0.10445685E-01 0.73151416E+03</pdfrwt>
<totfact> 0.45438732E+02</totfact>
</mgrwt>
</event>
<event>
 4    1  0.6739609E-006  0.6269600E+03  0.7818608E-02  0.9850999E-01
          2   -1    0    0  501    0  0.00000000000E+00  0.00000000000E+00  0.47450401835E+03  0.47450401835E+03  0.25500000000E-02 0.  1.
         -2   -1    0    0    0  501 -0.00000000000E+00 -0.00000000000E+00 -0.20709985737E+03  0.20709985739E+03  0.25500000000E-02 0. -1.
   -5000001    1    1    2    0    0 -0.14485908246E+03 -0.10070097650E+03  0.59608738981E+02  0.31173392854E+03  0.25000000000E+03 0.  0.
    5000001    1    1    2    0    0  0.14485908246E+03  0.10070097650E+03  0.20779542199E+03  0.36986994720E+03  0.25000000000E+03 0.  0.
<mgrwt>
<rscale>  0 0.62696001E+03</rscale>
<asrwt>0</asrwt>
<pdfrwt beam="1">  1        2 0.73000618E-01 0.62696001E+03</pdfrwt>
<pdfrwt beam="2">  1       -2 0.31861517E-01 0.62696001E+03</pdfrwt>
<totfact> 0.60302924E+02</totfact>
</mgrwt>
</event>
<event>
 4    1  0.6739609E-006  0.1120379E+04  0.7818608E-02  0.9185553E-01
         -2   -1    0    0    0  501 -0.00000000000E+00  0.00000000000E+00  0.27401943760E+03  0.27401943761E+03  0.25500000000E-02 0. -1.
          2   -1    0    0  501    0  0.00000000000E+00 -0.00000000000E+00 -0.11452195970E+04  0.11452195970E+04  0.25500000000E-02 0.  1.
   -5000001    1    1    2    0    0  0.26142219435E+03 -0.41908419979E+03 -0.32707807900E+03  0.64300326591E+03  0.25000000000E+03 0.  0.
    5000001    1    1    2    0    0 -0.26142219435E+03  0.41908419979E+03 -0.54412208036E+03  0.77623576866E+03  0.25000000000E+03 0.  0.
<mgrwt>
<rscale>  0 0.11203793E+04</rscale>
<asrwt>0</asrwt>
<pdfrwt beam="1">  1        2 0.17618763E+00 0.11203793E+04</pdfrwt>
<pdfrwt beam="2">  1       -2 0.42156837E-01 0.11203793E+04</pdfrwt>
<totfact> 0.10802079E+02</totfact>
</mgrwt>
</event>
<event>
 4    1  0.6739609E-006  0.8053770E+03  0.7818608E-02  0.9552267E-01
          2   -1    0    0  501    0  0.00000000000E+00  0.00000000000E+00  0.13586852033E+04  0.13586852033E+04  0.25500000000E-02 0.  1.
         -2   -1    0    0    0  501 -0.00000000000E+00 -0.00000000000E+00 -0.11934921595E+03  0.11934921598E+03  0.25500000000E-02 0. -1.
   -5000001    1    1    2    0    0  0.12651036402E+03  0.23713693825E+03  0.31578048755E+03  0.48420668728E+03  0.25000000000E+03 0.  0.
    5000001    1    1    2    0    0 -0.12651036402E+03 -0.23713693825E+03  0.92355549984E+03  0.99382773204E+03  0.25000000000E+03 0.  0.
<mgrwt>
<rscale>  0 0.80537696E+03</rscale>
<asrwt>0</asrwt>
<pdfrwt beam="1">  1        2 0.20902848E+00 0.80537696E+03</pdfrwt>
<pdfrwt beam="2">  1       -2 0.18361419E-01 0.80537696E+03</pdfrwt>
<totfact> 0.38148679E+02</totfact>
</mgrwt>
</event>
<event>
 4    1  0.6739609E-006  0.6118199E+03  0.7818608E-02  0.9881183E-01
         -2   -1    0    0    0  501 -0.00000000000E+00  0.00000000000E+00  0.27642667448E+02  0.27642667566E+02  0.25500000000E-02 0. -1.
          2   -1    0    0  501    0  0.00000000000E+00 -0.00000000000E+00 -0.33853784480E+04  0.33853784480E+04  0.25500000000E-02 0.  1.
   -5000001    1    1    2    0    0 -0.15395183014E+03 -0.71107794635E+02 -0.14099758297E+04  0.14419741069E+04  0.25000000000E+03 0.  0.
    5000001    1    1    2    0    0  0.15395183014E+03  0.71107794635E+02 -0.19477599508E+04  0.19710470087E+04  0.25000000000E+03 0.  0.
<mgrwt>
<rscale>  0 0.61181988E+03</rscale>
<asrwt>0</asrwt>
<pdfrwt beam="1">  1        2 0.52082712E+00 0.61181988E+03</pdfrwt>
<pdfrwt beam="2">  1       -2 0.42527208E-02 0.61181988E+03</pdfrwt>
<totfact> 0.28220528E+02</totfact>
</mgrwt>
</event>
<event>
 4    1  0.6739609E-006  0.5586142E+03  0.7818608E-02  0.9995195E-01
          2   -1    0    0  501    0  0.00000000000E+00  0.00000000000E+00  0.12988733234E+04  0.12988733234E+04  0.25500000000E-02 0.  1.
         -2   -1    0    0    0  501 -0.00000000000E+00 -0.00000000000E+00 -0.60061631492E+02  0.60061631546E+02  0.25500000000E-02 0. -1.
   -5000001    1    1    2    0    0 -0.75299788850E+02  0.91261094090E+02  0.71405609140E+03  0.76575110001E+03  0.25000000000E+03 0.  0.
    5000001    1    1    2    0    0  0.75299788850E+02 -0.91261094090E+02  0.52475560047E+03  0.59318385490E+03  0.25000000000E+03 0.  0.
<mgrwt>
<rscale>  0 0.55861418E+03</rscale>
<asrwt>0</asrwt>
<pdfrwt beam="1">  1        2 0.19982665E+00 0.55861418E+03</pdfrwt>
<pdfrwt beam="2">  1       -2 0.92402515E-02 0.55861418E+03</pdfrwt>
<totfact> 0.13103555E+03</totfact>
</mgrwt>
</event>
