<event>
 4    1  0.5323640E-005  0.4044230E+03  0.7818608E-02  0.1042259E+00
         -2   -1    0    0    0  501 -0.00000000000E+00  0.00000000000E+00  0.37855231870E+02  0.37855231956E+02  0.25500000000E-02 0. -1.
          2   -1    0    0  501    0  0.00000000000E+00 -0.00000000000E+00 -0.10801542361E+04  0.10801542361E+04  0.25500000000E-02 0.  1.
    5000001    1    1    2    0    0  0.73630452449E+02 -0.22875687135E+02 -0.76404038867E+03  0.78544729683E+03  0.16500000000E+03 0.  0.
   -5000001    1    1    2    0    0 -0.73630452449E+02  0.22875687135E+02 -0.27825861551E+03  0.33256217118E+03  0.16500000000E+03 0.  0.
<mgrwt>
<rscale>  0 0.40442299E+03</rscale>
<asrwt>0</asrwt>
<pdfrwt beam="1">  1        2 0.15430773E+00 0.40442299E+03</pdfrwt>
<pdfrwt beam="2">  1       -2 0.54078910E-02 0.40442299E+03</pdfrwt>
<totfact> 0.45662090E+03</totfact>
</mgrwt>
</event>
<event>
 4    1  0.5323640E-005  0.8575051E+03  0.7818608E-02  0.9480319E-01
          2   -1    0    0  501    0  0.00000000000E+00  0.00000000000E+00  0.12926240523E+04  0.12926240523E+04  0.25500000000E-02 0.  1.
         -2   -1    0    0    0  501 -0.00000000000E+00 -0.00000000000E+00 -0.14221360844E+03  0.14221360847E+03  0.25500000000E-02 0. -1.
    5000001    1    1    2    0    0  0.23250717442E+03  0.21475628974E+03  0.97266899736E+03  0.10360935424E+04  0.16500000000E+03 0.  0.
   -5000001    1    1    2    0    0 -0.23250717442E+03 -0.21475628974E+03  0.17774144649E+03  0.39874411838E+03  0.16500000000E+03 0.  0.
<mgrwt>
<rscale>  0 0.85750506E+03</rscale>
<asrwt>0</asrwt>
<pdfrwt beam="1">  1        2 0.18466058E+00 0.85750506E+03</pdfrwt>
<pdfrwt beam="2">  1       -2 0.20316230E-01 0.85750506E+03</pdfrwt>
<totfact> 0.39432648E+02</totfact>
</mgrwt>
</event>
<event>
 4    1  0.5323640E-005  0.5359524E+03  0.7818608E-02  0.1004799E+00
          2   -1    0    0  501    0  0.00000000000E+00  0.00000000000E+00  0.21139126360E+04  0.21139126360E+04  0.25500000000E-02 0.  1.
         -2   -1    0    0    0  501 -0.00000000000E+00 -0.00000000000E+00 -0.33970775513E+02  0.33970775609E+02  0.25500000000E-02 0. -1.
    5000001    1    1    2    0    0 -0.78025841285E+02  0.19539392430E+03  0.96834419860E+03  0.10045806610E+04  0.16500000000E+03 0.  0.
   -5000001    1    1    2    0    0  0.78025841285E+02 -0.19539392430E+03  0.11115976619E+04  0.11433027506E+04  0.16500000000E+03 0.  0.
<mgrwt>
<rscale>  0 0.53595243E+03</rscale>
<asrwt>0</asrwt>
<pdfrwt beam="1">  1        2 0.30198755E+00 0.53595243E+03</pdfrwt>
<pdfrwt beam="2">  1       -2 0.48529674E-02 0.53595243E+03</pdfrwt>
<totfact> 0.15657305E+03</totfact>
</mgrwt>
</event>
<event>
 4    1  0.5323640E-005  0.5677279E+03  0.7818608E-02  0.9974719E-01
         -2   -1    0    0    0  501 -0.00000000000E+00  0.00000000000E+00  0.34779385077E+02  0.34779385170E+02  0.25500000000E-02 0. -1.
          2   -1    0    0  501    0  0.00000000000E+00 -0.00000000000E+00 -0.23168532452E+04  0.23168532452E+04  0.25500000000E-02 0.  1.
    5000001    1    1    2    0    0 -0.13963684546E+01  0.11177262755E+03 -0.30375573863E+03  0.36330100312E+03  0.16500000000E+03 0.  0.
   -5000001    1    1    2    0    0  0.13963684546E+01 -0.11177262755E+03 -0.19783181215E+04  0.19883316272E+04  0.16500000000E+03 0.  0.
<mgrwt>
<rscale>  0 0.56772786E+03</rscale>
<asrwt>0</asrwt>
<pdfrwt beam="1">  1        2 0.33097894E+00 0.56772786E+03</pdfrwt>
<pdfrwt beam="2">  1       -2 0.49684851E-02 0.56772786E+03</pdfrwt>
<totfact> 0.11914231E+03</totfact>
</mgrwt>
</event>
<event>
 4    1  0.5323640E-005  0.4610923E+03  0.7818608E-02  0.1024465E+00
         -2   -1    0    0    0  501 -0.00000000000E+00  0.00000000000E+00  0.26364531516E+02  0.26364531639E+02  0.25500000000E-02 0. -1.
          2   -1    0    0  501    0  0.00000000000E+00 -0.00000000000E+00 -0.20160238479E+04  0.20160238479E+04  0.25500000000E-02 0.  1.
    5000001    1    1    2    0    0  0.94962759962E+01 -0.13760029011E+03 -0.62682454971E+03  0.66268999934E+03  0.16500000000E+03 0.  0.
   -5000001    1    1    2    0    0 -0.94962759962E+01  0.13760029011E+03 -0.13628347667E+04  0.13796983802E+04  0.16500000000E+03 0.  0.
<mgrwt>
<rscale>  0 0.46109229E+03</rscale>
<asrwt>0</asrwt>
<pdfrwt beam="1">  1        2 0.28800331E+00 0.46109229E+03</pdfrwt>
<pdfrwt beam="2">  1       -2 0.37663629E-02 0.46109229E+03</pdfrwt>
<totfact> 0.25932836E+03</totfact>
</mgrwt>
</event>
<event>
 4    1  0.5323640E-005  0.4130929E+03  0.7818608E-02  0.1039338E+00
          2   -1    0    0  501    0  0.00000000000E+00  0.00000000000E+00  0.13592634093E+04  0.13592634093E+04  0.25500000000E-02 0.  1.
         -2   -1    0    0    0  501 -0.00000000000E+00 -0.00000000000E+00 -0.31385703013E+02  0.31385703117E+02  0.25500000000E-02 0. -1.
    5000001    1    1    2    0    0 -0.28589439089E+00 -0.11633958005E+03  0.51714319609E+03  0.55515499177E+03  0.16500000000E+03 0.  0.
   -5000001    1    1    2    0    0  0.28589439089E+00  0.11633958005E+03  0.81073451019E+03  0.83549412064E+03  0.16500000000E+03 0.  0.
<mgrwt>
<rscale>  0 0.41309291E+03</rscale>
<asrwt>0</asrwt>
<pdfrwt beam="1">  1        2 0.19418050E+00 0.41309291E+03</pdfrwt>
<pdfrwt beam="2">  1       -2 0.44836715E-02 0.41309291E+03</pdfrwt>
<totfact> 0.42767651E+03</totfact>
</mgrwt>
</event>
<event>
 4    1  0.5323640E-005  0.9640804E+03  0.7818608E-02  0.9348842E-01
         -2   -1    0    0    0  501 -0.00000000000E+00  0.00000000000E+00  0.18553084176E+03  0.18553084177E+03  0.25500000000E-02 0.  1.
          2   -1    0    0  501    0  0.00000000000E+00 -0.00000000000E+00 -0.12524212975E+04  0.12524212975E+04  0.25500000000E-02 0. -1.
    5000001    1    1    2    0    0  0.51393736242E+01 -0.42362455262E+03 -0.77233928119E+03  0.89622382250E+03  0.16500000000E+03 0.  0.
   -5000001    1    1    2    0    0 -0.51393736242E+01  0.42362455262E+03 -0.29455117450E+03  0.54172831673E+03  0.16500000000E+03 0.  0.
<mgrwt>
<rscale>  0 0.96408045E+03</rscale>
<asrwt>0</asrwt>
<pdfrwt beam="1">  1        2 0.17891732E+00 0.96408045E+03</pdfrwt>
<pdfrwt beam="2">  1       -2 0.26504407E-01 0.96408045E+03</pdfrwt>
<totfact> 0.25657959E+02</totfact>
</mgrwt>
</event>
<event>
 4    1  0.5323640E-005  0.6266982E+03  0.7818608E-02  0.9851513E-01
         -2   -1    0    0    0  501 -0.00000000000E+00  0.00000000000E+00  0.97067133054E+02  0.97067133088E+02  0.25500000000E-02 0. -1.
          2   -1    0    0  501    0  0.00000000000E+00 -0.00000000000E+00 -0.10115438495E+04  0.10115438495E+04  0.25500000000E-02 0.  1.
    5000001    1    1    2    0    0  0.19837493723E+03 -0.15881674356E+03 -0.31586129310E+03  0.43768565230E+03  0.16500000000E+03 0.  0.
   -5000001    1    1    2    0    0 -0.19837493723E+03  0.15881674356E+03 -0.59861542334E+03  0.67092533028E+03  0.16500000000E+03 0.  0.
<mgrwt>
<rscale>  0 0.62669821E+03</rscale>
<asrwt>0</asrwt>
<pdfrwt beam="1">  1        2 0.14450626E+00 0.62669821E+03</pdfrwt>
<pdfrwt beam="2">  1       -2 0.13866734E-01 0.62669821E+03</pdfrwt>
<totfact> 0.11104272E+03</totfact>
</mgrwt>
</event>
<event>
 4    1  0.5323640E-005  0.4964782E+03  0.7818608E-02  0.1014702E+00
          2   -1    0    0  501    0  0.00000000000E+00  0.00000000000E+00  0.13049001072E+04  0.13049001072E+04  0.25500000000E-02 0.  1.
         -2   -1    0    0    0  501 -0.00000000000E+00 -0.00000000000E+00 -0.47224036522E+02  0.47224036591E+02  0.25500000000E-02 0. -1.
    5000001    1    1    2    0    0  0.48590669658E+02  0.12442952912E+03  0.27843616873E+03  0.35013634623E+03  0.16500000000E+03 0.  0.
   -5000001    1    1    2    0    0 -0.48590669658E+02 -0.12442952912E+03  0.97923990198E+03  0.10019877976E+04  0.16500000000E+03 0.  0.
<mgrwt>
<rscale>  0 0.49647820E+03</rscale>
<asrwt>0</asrwt>
<pdfrwt beam="1">  1        2 0.18641428E+00 0.49647820E+03</pdfrwt>
<pdfrwt beam="2">  1       -2 0.67462916E-02 0.49647820E+03</pdfrwt>
<totfact> 0.24282442E+03</totfact>
</mgrwt>
</event>
<event>
 4    1  0.5323640E-005  0.1321267E+04  0.7818608E-02  0.9012868E-01
         -2   -1    0    0    0  501 -0.00000000000E+00  0.00000000000E+00  0.12394351497E+03  0.12394351500E+03  0.25500000000E-02 0. -1.
          2   -1    0    0  501    0  0.00000000000E+00 -0.00000000000E+00 -0.35212556830E+04  0.35212556830E+04  0.25500000000E-02 0.  1.
    5000001    1    1    2    0    0 -0.98339980802E+02 -0.56711634757E+03 -0.92854150564E+03  0.11048556608E+04  0.16500000000E+03 0.  0.
   -5000001    1    1    2    0    0  0.98339980802E+02  0.56711634757E+03 -0.24687706624E+04  0.25403435372E+04  0.16500000000E+03 0.  0.
<mgrwt>
<rscale>  0 0.13212673E+04</rscale>
<asrwt>0</asrwt>
<pdfrwt beam="1">  1        2 0.50303646E+00 0.13212673E+04</pdfrwt>
<pdfrwt beam="2">  1       -2 0.17706219E-01 0.13212673E+04</pdfrwt>
<totfact> 0.30695954E+01</totfact>
</mgrwt>
</event>
<event>
 4    1  0.5323640E-005  0.5795368E+03  0.7818608E-02  0.9948794E-01
         -2   -1    0    0    0  501 -0.00000000000E+00  0.00000000000E+00  0.25041238022E+03  0.25041238023E+03  0.25500000000E-02 0. -1.
          2   -1    0    0  501    0  0.00000000000E+00 -0.00000000000E+00 -0.33530980572E+03  0.33530980573E+03  0.25500000000E-02 0.  1.
    5000001    1    1    2    0    0  0.20856187857E+03 -0.10286380918E+03  0.96936499857E+01  0.28530332505E+03  0.16500000000E+03 0.  0.
   -5000001    1    1    2    0    0 -0.20856187857E+03  0.10286380918E+03 -0.94591075487E+02  0.30041886092E+03  0.16500000000E+03 0.  0.
<mgrwt>
<rscale>  0 0.57953680E+03</rscale>
<asrwt>0</asrwt>
<pdfrwt beam="1">  1        2 0.47901401E-01 0.57953680E+03</pdfrwt>
<pdfrwt beam="2">  1       -2 0.35773197E-01 0.57953680E+03</pdfrwt>
<totfact> 0.77727340E+02</totfact>
</mgrwt>
</event>
<event>
 4    1  0.5323640E-005  0.4722871E+03  0.7818608E-02  0.1021277E+00
         -2   -1    0    0    0  501 -0.00000000000E+00  0.00000000000E+00  0.13597865432E+02  0.13597865671E+02  0.25500000000E-02 0. -1.
          2   -1    0    0  501    0  0.00000000000E+00 -0.00000000000E+00 -0.41009221018E+04  0.41009221018E+04  0.25500000000E-02 0.  1.
    5000001    1    1    2    0    0 -0.89382106064E+02 -0.12948378865E+03 -0.25795380100E+04  0.25895938982E+04  0.16500000000E+03 0.  0.
   -5000001    1    1    2    0    0  0.89382106064E+02  0.12948378865E+03 -0.15077862263E+04  0.15249260692E+04  0.16500000000E+03 0.  0.
<mgrwt>
<rscale>  0 0.47228715E+03</rscale>
<asrwt>0</asrwt>
<pdfrwt beam="1">  1        2 0.58584522E+00 0.47228715E+03</pdfrwt>
<pdfrwt beam="2">  1       -2 0.19425548E-02 0.47228715E+03</pdfrwt>
<totfact> 0.48033880E+02</totfact>
</mgrwt>
</event>
<event>
 4    1  0.5323640E-005  0.7394158E+03  0.7818608E-02  0.9652103E-01
          2   -1    0    0  501    0  0.00000000000E+00  0.00000000000E+00  0.36277868677E+03  0.36277868678E+03  0.25500000000E-02 0.  1.
         -2   -1    0    0    0  501 -0.00000000000E+00 -0.00000000000E+00 -0.37676945826E+03  0.37676945827E+03  0.25500000000E-02 0. -1.
    5000001    1    1    2    0    0  0.14773171166E+03 -0.28315910490E+03  0.79363522731E+02  0.36814033473E+03  0.16500000000E+03 0.  0.
   -5000001    1    1    2    0    0 -0.14773171166E+03  0.28315910490E+03 -0.93354294217E+02  0.37140781032E+03  0.16500000000E+03 0.  0.
<mgrwt>
<rscale>  0 0.73941579E+03</rscale>
<asrwt>0</asrwt>
<pdfrwt beam="1">  1        2 0.51825527E-01 0.73941579E+03</pdfrwt>
<pdfrwt beam="2">  1       -2 0.53824208E-01 0.73941579E+03</pdfrwt>
<totfact> 0.31623715E+02</totfact>
</mgrwt>
</event>
<event>
 4    1  0.5323640E-005  0.4358803E+03  0.7818608E-02  0.1032018E+00
         -2   -1    0    0    0  501 -0.00000000000E+00  0.00000000000E+00  0.26332511077E+03  0.26332511078E+03  0.25500000000E-02 0. -1.
          2   -1    0    0  501    0  0.00000000000E+00 -0.00000000000E+00 -0.18037742239E+03  0.18037742241E+03  0.25500000000E-02 0.  1.
    5000001    1    1    2    0    0  0.42280735921E+02  0.13620429272E+02  0.17917798630E+03  0.24759428002E+03  0.16500000000E+03 0.  0.
   -5000001    1    1    2    0    0 -0.42280735921E+02 -0.13620429272E+02 -0.96230297919E+02  0.19610825317E+03  0.16500000000E+03 0.  0.
<mgrwt>
<rscale>  0 0.43588028E+03</rscale>
<asrwt>0</asrwt>
<pdfrwt beam="1">  1        2 0.25768203E-01 0.43588028E+03</pdfrwt>
<pdfrwt beam="2">  1       -2 0.37617873E-01 0.43588028E+03</pdfrwt>
<totfact> 0.14049757E+03</totfact>
</mgrwt>
</event>
<event>
 4    1  0.5323640E-005  0.9231102E+03  0.7818608E-02  0.9397145E-01
          2   -1    0    0  501    0  0.00000000000E+00  0.00000000000E+00  0.12531255682E+04  0.12531255682E+04  0.25500000000E-02 0.  1.
         -2   -1    0    0    0  501 -0.00000000000E+00 -0.00000000000E+00 -0.17000139059E+03  0.17000139061E+03  0.25500000000E-02 0. -1.
    5000001    1    1    2    0    0 -0.31833213177E+03 -0.28577092765E+03  0.62325173499E+03  0.77373645020E+03  0.16500000000E+03 0.  0.
   -5000001    1    1    2    0    0  0.31833213177E+03  0.28577092765E+03  0.45987244266E+03  0.64939050865E+03  0.16500000000E+03 0.  0.
<mgrwt>
<rscale>  0 0.92311015E+03</rscale>
<asrwt>0</asrwt>
<pdfrwt beam="1">  1        2 0.17901794E+00 0.92311015E+03</pdfrwt>
<pdfrwt beam="2">  1       -2 0.24285913E-01 0.92311015E+03</pdfrwt>
<totfact> 0.30099024E+02</totfact>
</mgrwt>
</event>
<event>
 4    1  0.5323640E-005  0.4602494E+03  0.7818608E-02  0.1024709E+00
         -2   -1    0    0    0  501 -0.00000000000E+00  0.00000000000E+00  0.19997407863E+02  0.19997408026E+02  0.25500000000E-02 0. -1.
          2   -1    0    0  501    0  0.00000000000E+00 -0.00000000000E+00 -0.26482118547E+04  0.26482118547E+04  0.25500000000E-02 0.  1.
    5000001    1    1    2    0    0 -0.52041596995E+02 -0.87801595651E+02 -0.59666966282E+03  0.62742101858E+03  0.16500000000E+03 0.  0.
   -5000001    1    1    2    0    0  0.52041596995E+02  0.87801595651E+02 -0.20315447840E+04  0.20407882442E+04  0.16500000000E+03 0.  0.
<mgrwt>
<rscale>  0 0.46024938E+03</rscale>
<asrwt>0</asrwt>
<pdfrwt beam="1">  1        2 0.37831575E+00 0.46024938E+03</pdfrwt>
<pdfrwt beam="2">  1       -2 0.28567743E-02 0.46024938E+03</pdfrwt>
<totfact> 0.18936001E+03</totfact>
</mgrwt>
</event>
<event>
 4    1  0.5323640E-005  0.4799942E+03  0.7818608E-02  0.1019137E+00
         -2   -1    0    0    0  501 -0.00000000000E+00  0.00000000000E+00  0.81743878820E+02  0.81743878859E+02  0.25500000000E-02 0. -1.
          2   -1    0    0  501    0  0.00000000000E+00 -0.00000000000E+00 -0.70462288467E+03  0.70462288468E+03  0.25500000000E-02 0.  1.
    5000001    1    1    2    0    0  0.57978441651E+02 -0.16346057526E+03 -0.33947036105E+03  0.41538654936E+03  0.16500000000E+03 0.  0.
   -5000001    1    1    2    0    0 -0.57978441651E+02  0.16346057526E+03 -0.28340864480E+03  0.37098021417E+03  0.16500000000E+03 0.  0.
<mgrwt>
<rscale>  0 0.47999420E+03</rscale>
<asrwt>0</asrwt>
<pdfrwt beam="1">  1        2 0.10066041E+00 0.47999420E+03</pdfrwt>
<pdfrwt beam="2">  1       -2 0.11677697E-01 0.47999420E+03</pdfrwt>
<totfact> 0.23668532E+03</totfact>
</mgrwt>
</event>
<event>
 4    1  0.5323640E-005  0.3958983E+03  0.7818608E-02  0.1045209E+00
          2   -1    0    0  501    0  0.00000000000E+00  0.00000000000E+00  0.33759540119E+04  0.33759540119E+04  0.25500000000E-02 0.  1.
         -2   -1    0    0    0  501 -0.00000000000E+00 -0.00000000000E+00 -0.11606753282E+02  0.11606753563E+02  0.25500000000E-02 0. -1.
    5000001    1    1    2    0    0  0.16128519440E+02 -0.95100072966E+02  0.21230453352E+04  0.21316309832E+04  0.16500000000E+03 0.  0.
   -5000001    1    1    2    0    0 -0.16128519440E+02  0.95100072966E+02  0.12413019234E+04  0.12559297823E+04  0.16500000000E+03 0.  0.
<mgrwt>
<rscale>  0 0.39589830E+03</rscale>
<asrwt>0</asrwt>
<pdfrwt beam="1">  1        2 0.48227962E+00 0.39589830E+03</pdfrwt>
<pdfrwt beam="2">  1       -2 0.16581060E-02 0.39589830E+03</pdfrwt>
<totfact> 0.17341362E+03</totfact>
</mgrwt>
</event>
<event>
 4    1  0.5323640E-005  0.3501635E+03  0.7818608E-02  0.1062548E+00
          2   -1    0    0  501    0  0.00000000000E+00  0.00000000000E+00  0.26343823133E+03  0.26343823134E+03  0.25500000000E-02 0.  1.
         -2   -1    0    0    0  501 -0.00000000000E+00 -0.00000000000E+00 -0.11635977052E+03  0.11635977055E+03  0.25500000000E-02 0. -1.
    5000001    1    1    2    0    0  0.22983872479E+02 -0.53023165319E+02  0.83765732382E+02  0.19385925920E+03  0.16500000000E+03 0.  0.
   -5000001    1    1    2    0    0 -0.22983872479E+02  0.53023165319E+02  0.63312728418E+02  0.18593874269E+03  0.16500000000E+03 0.  0.
<mgrwt>
<rscale>  0 0.35016346E+03</rscale>
<asrwt>0</asrwt>
<pdfrwt beam="1">  1        2 0.37634033E-01 0.35016346E+03</pdfrwt>
<pdfrwt beam="2">  1       -2 0.16622824E-01 0.35016346E+03</pdfrwt>
<totfact> 0.39509539E+03</totfact>
</mgrwt>
</event>
<event>
 4    1  0.5323640E-005  0.6760531E+03  0.7818608E-02  0.9759084E-01
          2   -1    0    0  501    0  0.00000000000E+00  0.00000000000E+00  0.30006241253E+04  0.30006241253E+04  0.25500000000E-02 0.  1.
         -2   -1    0    0    0  501 -0.00000000000E+00 -0.00000000000E+00 -0.38079393394E+02  0.38079393480E+02  0.25500000000E-02 0. -1.
    5000001    1    1    2    0    0  0.20732167371E+03 -0.20980917851E+03  0.15077796440E+04  0.15451946876E+04  0.16500000000E+03 0.  0.
   -5000001    1    1    2    0    0 -0.20732167371E+03  0.20980917851E+03  0.14547650880E+04  0.14935088312E+04  0.16500000000E+03 0.  0.
<mgrwt>
<rscale>  0 0.67605309E+03</rscale>
<asrwt>0</asrwt>
<pdfrwt beam="1">  1        2 0.42866089E+00 0.67605309E+03</pdfrwt>
<pdfrwt beam="2">  1       -2 0.54399095E-02 0.67605309E+03</pdfrwt>
<totfact> 0.45022165E+02</totfact>
</mgrwt>
</event>
<event>
 4    1  0.5323640E-005  0.3103165E+04  0.7818608E-02  0.8214870E-01
         -2   -1    0    0    0  501 -0.00000000000E+00  0.00000000000E+00  0.10097548534E+04  0.10097548534E+04  0.25500000000E-02 0. -1.
          2   -1    0    0  501    0  0.00000000000E+00 -0.00000000000E+00 -0.23841510722E+04  0.23841510722E+04  0.25500000000E-02 0.  1.
    5000001    1    1    2    0    0 -0.14979462626E+04 -0.27914623867E+03 -0.42285598052E+03  0.15899049684E+04  0.16500000000E+03 0.  0.
   -5000001    1    1    2    0    0  0.14979462626E+04  0.27914623867E+03 -0.95154023828E+03  0.18040009571E+04  0.16500000000E+03 0.  0.
<mgrwt>
<rscale>  0 0.31031649E+04</rscale>
<asrwt>0</asrwt>
<pdfrwt beam="1">  1        2 0.34059301E+00 0.31031649E+04</pdfrwt>
<pdfrwt beam="2">  1       -2 0.14425069E+00 0.31031649E+04</pdfrwt>
<totfact> 0.14417004E+00</totfact>
</mgrwt>
</event>
<event>
 4    1  0.5323640E-005  0.4392848E+03  0.7818608E-02  0.1030966E+00
         -2   -1    0    0    0  501 -0.00000000000E+00  0.00000000000E+00  0.21448011344E+04  0.21448011344E+04  0.25500000000E-02 0. -1.
          2   -1    0    0  501    0  0.00000000000E+00 -0.00000000000E+00 -0.22492889256E+02  0.22492889400E+02  0.25500000000E-02 0.  1.
    5000001    1    1    2    0    0 -0.13531956977E+03 -0.28597274086E+02  0.84674665356E+03  0.87368992518E+03  0.16500000000E+03 0.  0.
   -5000001    1    1    2    0    0  0.13531956977E+03  0.28597274086E+02  0.12755615916E+04  0.12936040987E+04  0.16500000000E+03 0.  0.
<mgrwt>
<rscale>  0 0.43928476E+03</rscale>
<asrwt>0</asrwt>
<pdfrwt beam="1">  1        2 0.32132719E-02 0.43928476E+03</pdfrwt>
<pdfrwt beam="2">  1       -2 0.30639997E+00 0.43928476E+03</pdfrwt>
<totfact> 0.94278294E+01</totfact>
</mgrwt>
</event>
<event>
 4    1  0.5323640E-005  0.4186495E+03  0.7818608E-02  0.1037507E+00
          2   -1    0    0  501    0  0.00000000000E+00  0.00000000000E+00  0.23119636976E+04  0.23119636976E+04  0.25500000000E-02 0.  1.
         -2   -1    0    0    0  501 -0.00000000000E+00 -0.00000000000E+00 -0.18952219515E+02  0.18952219686E+02  0.25500000000E-02 0. -1.
    5000001    1    1    2    0    0 -0.10323664828E+03  0.39508864035E+02  0.77831728430E+03  0.80325683995E+03  0.16500000000E+03 0.  0.
   -5000001    1    1    2    0    0  0.10323664828E+03 -0.39508864035E+02  0.15146941938E+04  0.15276590773E+04  0.16500000000E+03 0.  0.
<mgrwt>
<rscale>  0 0.41864947E+03</rscale>
<asrwt>0</asrwt>
<pdfrwt beam="1">  1        2 0.33028049E+00 0.41864947E+03</pdfrwt>
<pdfrwt beam="2">  1       -2 0.27074602E-02 0.41864947E+03</pdfrwt>
<totfact> 0.30473800E+03</totfact>
</mgrwt>
</event>
<event>
 4    1  0.5323640E-005  0.9956183E+03  0.7818608E-02  0.9313364E-01
         -2   -1    0    0    0  501 -0.00000000000E+00  0.00000000000E+00  0.14492558883E+03  0.14492558885E+03  0.25500000000E-02 0. -1.
          2   -1    0    0  501    0  0.00000000000E+00 -0.00000000000E+00 -0.17099391844E+04  0.17099391844E+04  0.25500000000E-02 0.  1.
    5000001    1    1    2    0    0  0.28522491365E+03 -0.37220976066E+03 -0.83164222904E+03  0.96888965028E+03  0.16500000000E+03 0.  0.
   -5000001    1    1    2    0    0 -0.28522491365E+03  0.37220976066E+03 -0.73337136655E+03  0.88597512300E+03  0.16500000000E+03 0.  0.
<mgrwt>
<rscale>  0 0.99561829E+03</rscale>
<asrwt>0</asrwt>
<pdfrwt beam="1">  1        2 0.24427701E+00 0.99561829E+03</pdfrwt>
<pdfrwt beam="2">  1       -2 0.20703657E-01 0.99561829E+03</pdfrwt>
<totfact> 0.22736530E+02</totfact>
</mgrwt>
</event>
<event>
 4    1  0.5323640E-005  0.5274690E+03  0.7818608E-02  0.1006848E+00
          2   -1    0    0  501    0  0.00000000000E+00  0.00000000000E+00  0.69663415908E+03  0.69663415908E+03  0.25500000000E-02 0.  1.
         -2   -1    0    0    0  501 -0.00000000000E+00 -0.00000000000E+00 -0.99845656893E+02  0.99845656925E+02  0.25500000000E-02 0. -1.
    5000001    1    1    2    0    0  0.16459461185E+03  0.96951184703E+02  0.18300021424E+03  0.31177715900E+03  0.16500000000E+03 0.  0.
   -5000001    1    1    2    0    0 -0.16459461185E+03 -0.96951184703E+02  0.41378828794E+03  0.48470265700E+03  0.16500000000E+03 0.  0.
<mgrwt>
<rscale>  0 0.52746903E+03</rscale>
<asrwt>0</asrwt>
<pdfrwt beam="1">  1        2 0.99519160E-01 0.52746903E+03</pdfrwt>
<pdfrwt beam="2">  1       -2 0.14263666E-01 0.52746903E+03</pdfrwt>
<totfact> 0.17251329E+03</totfact>
</mgrwt>
</event>
<event>
 4    1  0.5323640E-005  0.3684662E+03  0.7818608E-02  0.1055281E+00
          2   -1    0    0  501    0  0.00000000000E+00  0.00000000000E+00  0.29695102005E+03  0.29695102006E+03  0.25500000000E-02 0.  1.
         -2   -1    0    0    0  501 -0.00000000000E+00 -0.00000000000E+00 -0.11430114683E+03  0.11430114686E+03  0.25500000000E-02 0. -1.
    5000001    1    1    2    0    0  0.32124139200E+02  0.25014010305E+01  0.72179472817E+01  0.16827155461E+03  0.16500000000E+03 0.  0.
   -5000001    1    1    2    0    0 -0.32124139200E+02 -0.25014010305E+01  0.17543192594E+03  0.24298061232E+03  0.16500000000E+03 0.  0.
<mgrwt>
<rscale>  0 0.36846624E+03</rscale>
<asrwt>0</asrwt>
<pdfrwt beam="1">  1        2 0.42421575E-01 0.36846624E+03</pdfrwt>
<pdfrwt beam="2">  1       -2 0.16328735E-01 0.36846624E+03</pdfrwt>
<totfact> 0.35778885E+03</totfact>
</mgrwt>
</event>
<event>
 4    1  0.5323640E-005  0.7048086E+03  0.7818608E-02  0.9709044E-01
         -2   -1    0    0    0  501 -0.00000000000E+00  0.00000000000E+00  0.79136942794E+02  0.79136942835E+02  0.25500000000E-02 0. -1.
          2   -1    0    0  501    0  0.00000000000E+00 -0.00000000000E+00 -0.15692895124E+04  0.15692895124E+04  0.25500000000E-02 0.  1.
    5000001    1    1    2    0    0  0.50245739564E+02  0.30190145331E+03 -0.61082970801E+03  0.70285635378E+03  0.16500000000E+03 0.  0.
   -5000001    1    1    2    0    0 -0.50245739564E+02 -0.30190145331E+03 -0.87932286158E+03  0.94557010145E+03  0.16500000000E+03 0.  0.
<mgrwt>
<rscale>  0 0.70480855E+03</rscale>
<asrwt>0</asrwt>
<pdfrwt beam="1">  1        2 0.22418420E+00 0.70480855E+03</pdfrwt>
<pdfrwt beam="2">  1       -2 0.11305278E-01 0.70480855E+03</pdfrwt>
<totfact> 0.76397104E+02</totfact>
</mgrwt>
</event>
<event>
 4    1  0.5323640E-005  0.6381571E+03  0.7818608E-02  0.9829259E-01
          2   -1    0    0  501    0  0.00000000000E+00  0.00000000000E+00  0.14938291258E+03  0.14938291260E+03  0.25500000000E-02 0.  1.
         -2   -1    0    0    0  501 -0.00000000000E+00 -0.00000000000E+00 -0.68154470684E+03  0.68154470684E+03  0.25500000000E-02 0. -1.
    5000001    1    1    2    0    0 -0.43188155737E+02  0.25559712601E+03 -0.15414022229E+03  0.34377218583E+03  0.16500000000E+03 0.  0.
   -5000001    1    1    2    0    0  0.43188155737E+02 -0.25559712601E+03 -0.37802157197E+03  0.48715543361E+03  0.16500000000E+03 0.  0.
<mgrwt>
<rscale>  0 0.63815714E+03</rscale>
<asrwt>0</asrwt>
<pdfrwt beam="1">  1        2 0.21340416E-01 0.63815714E+03</pdfrwt>
<pdfrwt beam="2">  1       -2 0.97363528E-01 0.63815714E+03</pdfrwt>
<totfact> 0.23423623E+02</totfact>
</mgrwt>
</event>
<event>
 4    1  0.5323640E-005  0.6671935E+03  0.7818608E-02  0.9775041E-01
         -2   -1    0    0    0  501 -0.00000000000E+00  0.00000000000E+00  0.15655759705E+03  0.15655759707E+03  0.25500000000E-02 0. -1.
          2   -1    0    0  501    0  0.00000000000E+00 -0.00000000000E+00 -0.71083601496E+03  0.71083601497E+03  0.25500000000E-02 0.  1.
    5000001    1    1    2    0    0 -0.53955247918E+02 -0.25016847889E+03 -0.99994734897E+02  0.32049864839E+03  0.16500000000E+03 0.  0.
   -5000001    1    1    2    0    0  0.53955247918E+02  0.25016847889E+03 -0.45428368302E+03  0.54689496365E+03  0.16500000000E+03 0.  0.
<mgrwt>
<rscale>  0 0.66719346E+03</rscale>
<asrwt>0</asrwt>
<pdfrwt beam="1">  1        2 0.10154800E+00 0.66719346E+03</pdfrwt>
<pdfrwt beam="2">  1       -2 0.22365371E-01 0.66719346E+03</pdfrwt>
<totfact> 0.77568453E+02</totfact>
</mgrwt>
</event>
<event>
 4    1  0.5323640E-005  0.5047126E+03  0.7818608E-02  0.1012556E+00
         -2   -1    0    0    0  501 -0.00000000000E+00  0.00000000000E+00  0.78436245284E+02  0.78436245325E+02  0.25500000000E-02 0. -1.
          2   -1    0    0  501    0  0.00000000000E+00 -0.00000000000E+00 -0.81191664255E+03  0.81191664255E+03  0.25500000000E-02 0.  1.
    5000001    1    1    2    0    0  0.11920966416E+03 -0.14163107671E+03 -0.44926417039E+03  0.51316040447E+03  0.16500000000E+03 0.  0.
   -5000001    1    1    2    0    0 -0.11920966416E+03  0.14163107671E+03 -0.28421622688E+03  0.37719248341E+03  0.16500000000E+03 0.  0.
<mgrwt>
<rscale>  0 0.50471256E+03</rscale>
<asrwt>0</asrwt>
<pdfrwt beam="1">  1        2 0.11598809E+00 0.50471256E+03</pdfrwt>
<pdfrwt beam="2">  1       -2 0.11205178E-01 0.50471256E+03</pdfrwt>
<totfact> 0.21226495E+03</totfact>
</mgrwt>
</event>
<event>
 4    1  0.5323640E-005  0.5016018E+03  0.7818608E-02  0.1013362E+00
          2   -1    0    0  501    0  0.00000000000E+00  0.00000000000E+00  0.29659986814E+03  0.29659986815E+03  0.25500000000E-02 0.  1.
         -2   -1    0    0    0  501 -0.00000000000E+00 -0.00000000000E+00 -0.21207387282E+03  0.21207387283E+03  0.25500000000E-02 0. -1.
    5000001    1    1    2    0    0  0.60919338686E+02  0.14643525323E+03  0.14628419484E+03  0.27162200734E+03  0.16500000000E+03 0.  0.
   -5000001    1    1    2    0    0 -0.60919338686E+02 -0.14643525323E+03 -0.61758199512E+02  0.23705173364E+03  0.16500000000E+03 0.  0.
<mgrwt>
<rscale>  0 0.50160177E+03</rscale>
<asrwt>0</asrwt>
<pdfrwt beam="1">  1        2 0.42371409E-01 0.50160177E+03</pdfrwt>
<pdfrwt beam="2">  1       -2 0.30296268E-01 0.50160177E+03</pdfrwt>
<totfact> 0.12145264E+03</totfact>
</mgrwt>
</event>
<event>
 4    1  0.5323640E-005  0.3777966E+03  0.7818608E-02  0.1051751E+00
          2   -1    0    0  501    0  0.00000000000E+00  0.00000000000E+00  0.13650740093E+03  0.13650740095E+03  0.25500000000E-02 0.  1.
         -2   -1    0    0    0  501 -0.00000000000E+00 -0.00000000000E+00 -0.26139654108E+03  0.26139654109E+03  0.25500000000E-02 0. -1.
    5000001    1    1    2    0    0  0.72322407982E+02 -0.17962078720E+02 -0.11920531735E+03  0.21676732838E+03  0.16500000000E+03 0.  0.
   -5000001    1    1    2    0    0 -0.72322407982E+02  0.17962078720E+02 -0.56838228007E+01  0.18113661366E+03  0.16500000000E+03 0.  0.
<mgrwt>
<rscale>  0 0.37779657E+03</rscale>
<asrwt>0</asrwt>
<pdfrwt beam="1">  1        2 0.19501057E-01 0.37779657E+03</pdfrwt>
<pdfrwt beam="2">  1       -2 0.37342363E-01 0.37779657E+03</pdfrwt>
<totfact> 0.19565322E+03</totfact>
</mgrwt>
</event>
<event>
 4    1  0.5323640E-005  0.4906089E+03  0.7818608E-02  0.1016260E+00
          2   -1    0    0  501    0  0.00000000000E+00  0.00000000000E+00  0.83320347691E+03  0.83320347691E+03  0.25500000000E-02 0.  1.
         -2   -1    0    0    0  501 -0.00000000000E+00 -0.00000000000E+00 -0.72220381432E+02  0.72220381477E+02  0.25500000000E-02 0. -1.
    5000001    1    1    2    0    0  0.31105784584E+01 -0.45416063981E+02  0.56201284288E+02  0.18015515236E+03  0.16500000000E+03 0.  0.
   -5000001    1    1    2    0    0 -0.31105784584E+01  0.45416063981E+02  0.70478181119E+03  0.72526870603E+03  0.16500000000E+03 0.  0.
<mgrwt>
<rscale>  0 0.49060890E+03</rscale>
<asrwt>0</asrwt>
<pdfrwt beam="1">  1        2 0.11902907E+00 0.49060890E+03</pdfrwt>
<pdfrwt beam="2">  1       -2 0.10317197E-01 0.49060890E+03</pdfrwt>
<totfact> 0.23478520E+03</totfact>
</mgrwt>
</event>
<event>
 4    1  0.5323640E-005  0.7691394E+03  0.7818608E-02  0.9605793E-01
         -2   -1    0    0    0  501 -0.00000000000E+00  0.00000000000E+00  0.53556097172E+02  0.53556097232E+02  0.25500000000E-02 0. -1.
          2   -1    0    0  501    0  0.00000000000E+00 -0.00000000000E+00 -0.27614752474E+04  0.27614752474E+04  0.25500000000E-02 0.  1.
    5000001    1    1    2    0    0 -0.25263710362E+03 -0.20979251520E+03 -0.93938866238E+03  0.10087192199E+04  0.16500000000E+03 0.  0.
   -5000001    1    1    2    0    0  0.25263710362E+03  0.20979251520E+03 -0.17685304878E+04  0.18063121247E+04  0.16500000000E+03 0.  0.
<mgrwt>
<rscale>  0 0.76913935E+03</rscale>
<asrwt>0</asrwt>
<pdfrwt beam="1">  1        2 0.39449637E+00 0.76913935E+03</pdfrwt>
<pdfrwt beam="2">  1       -2 0.76508728E-02 0.76913935E+03</pdfrwt>
<totfact> 0.35042078E+02</totfact>
</mgrwt>
</event>
<event>
 4    1  0.5323640E-005  0.1386732E+04  0.7818608E-02  0.8963479E-01
          2   -1    0    0  501    0  0.00000000000E+00  0.00000000000E+00  0.20914643718E+04  0.20914643718E+04  0.25500000000E-02 0.  1.
         -2   -1    0    0    0  501 -0.00000000000E+00 -0.00000000000E+00 -0.22986588642E+03  0.22986588644E+03  0.25500000000E-02 0. -1.
    5000001    1    1    2    0    0 -0.51911958757E+03  0.20087536968E+03  0.15653489494E+04  0.16695443671E+04  0.16500000000E+03 0.  0.
   -5000001    1    1    2    0    0  0.51911958757E+03 -0.20087536968E+03  0.29624953602E+03  0.65178589118E+03  0.16500000000E+03 0.  0.
<mgrwt>
<rscale>  0 0.13867319E+04</rscale>
<asrwt>0</asrwt>
<pdfrwt beam="1">  1        2 0.29878063E+00 0.13867319E+04</pdfrwt>
<pdfrwt beam="2">  1       -2 0.32837983E-01 0.13867319E+04</pdfrwt>
<totfact> 0.60727968E+01</totfact>
</mgrwt>
</event>
<event>
 4    1  0.5323640E-005  0.8319111E+03  0.7818608E-02  0.9514942E-01
          2   -1    0    0  501    0  0.00000000000E+00  0.00000000000E+00  0.10295122612E+04  0.10295122612E+04  0.25500000000E-02 0.  1.
         -2   -1    0    0    0  501 -0.00000000000E+00 -0.00000000000E+00 -0.16805919690E+03  0.16805919692E+03  0.25500000000E-02 0. -1.
    5000001    1    1    2    0    0 -0.83425186752E+01  0.30828150809E+03  0.10663142094E+03  0.36565331364E+03  0.16500000000E+03 0.  0.
   -5000001    1    1    2    0    0  0.83425186752E+01 -0.30828150809E+03  0.75482164336E+03  0.83191814449E+03  0.16500000000E+03 0.  0.
<mgrwt>
<rscale>  0 0.83191106E+03</rscale>
<asrwt>0</asrwt>
<pdfrwt beam="1">  1        2 0.14707318E+00 0.83191106E+03</pdfrwt>
<pdfrwt beam="2">  1       -2 0.24008457E-01 0.83191106E+03</pdfrwt>
<totfact> 0.41611151E+02</totfact>
</mgrwt>
</event>
<event>
 4    1  0.5323640E-005  0.3926391E+03  0.7818608E-02  0.1046359E+00
          2   -1    0    0  501    0  0.00000000000E+00  0.00000000000E+00  0.14947966663E+04  0.14947966663E+04  0.25500000000E-02 0.  1.
         -2   -1    0    0    0  501 -0.00000000000E+00 -0.00000000000E+00 -0.25783679697E+02  0.25783679823E+02  0.25500000000E-02 0. -1.
    5000001    1    1    2    0    0  0.46386213666E+02 -0.92304100625E+02  0.63617981350E+03  0.66529804067E+03  0.16500000000E+03 0.  0.
   -5000001    1    1    2    0    0 -0.46386213666E+02  0.92304100625E+02  0.83283317312E+03  0.85528230547E+03  0.16500000000E+03 0.  0.
<mgrwt>
<rscale>  0 0.39263906E+03</rscale>
<asrwt>0</asrwt>
<pdfrwt beam="1">  1        2 0.21354241E+00 0.39263906E+03</pdfrwt>
<pdfrwt beam="2">  1       -2 0.36833823E-02 0.39263906E+03</pdfrwt>
<totfact> 0.49028817E+03</totfact>
</mgrwt>
</event>
<event>
 4    1  0.5323640E-005  0.1219587E+04  0.7818608E-02  0.9095882E-01
         -2   -1    0    0    0  501 -0.00000000000E+00  0.00000000000E+00  0.22987330366E+03  0.22987330367E+03  0.25500000000E-02 0. -1.
          2   -1    0    0  501    0  0.00000000000E+00 -0.00000000000E+00 -0.16176228209E+04  0.16176228209E+04  0.25500000000E-02 0.  1.
    5000001    1    1    2    0    0 -0.38009333044E+02  0.57387790362E+03 -0.87210514015E+03  0.10576260838E+04  0.16500000000E+03 0.  0.
   -5000001    1    1    2    0    0  0.38009333044E+02 -0.57387790362E+03 -0.51564437707E+03  0.78987004075E+03  0.16500000000E+03 0.  0.
<mgrwt>
<rscale>  0 0.12195873E+04</rscale>
<asrwt>0</asrwt>
<pdfrwt beam="1">  1        2 0.23108897E+00 0.12195873E+04</pdfrwt>
<pdfrwt beam="2">  1       -2 0.32839044E-01 0.12195873E+04</pdfrwt>
<totfact> 0.10790667E+02</totfact>
</mgrwt>
</event>
<event>
 4    1  0.5323640E-005  0.3905834E+03  0.7818608E-02  0.1047090E+00
          2   -1    0    0  501    0  0.00000000000E+00  0.00000000000E+00  0.12899842522E+04  0.12899842522E+04  0.25500000000E-02 0.  1.
         -2   -1    0    0    0  501 -0.00000000000E+00 -0.00000000000E+00 -0.29565364629E+02  0.29565364739E+02  0.25500000000E-02 0. -1.
    5000001    1    1    2    0    0 -0.30346126336E+02  0.30082748090E+02  0.30814264083E+03  0.35214023657E+03  0.16500000000E+03 0.  0.
   -5000001    1    1    2    0    0  0.30346126336E+02 -0.30082748090E+02  0.95227624672E+03  0.96740938034E+03  0.16500000000E+03 0.  0.
<mgrwt>
<rscale>  0 0.39058343E+03</rscale>
<asrwt>0</asrwt>
<pdfrwt beam="1">  1        2 0.18428349E+00 0.39058343E+03</pdfrwt>
<pdfrwt beam="2">  1       -2 0.42236229E-02 0.39058343E+03</pdfrwt>
<totfact> 0.50980711E+03</totfact>
</mgrwt>
</event>
<event>
 4    1  0.5323640E-005  0.6100897E+03  0.7818608E-02  0.9884691E-01
         -2   -1    0    0    0  501 -0.00000000000E+00  0.00000000000E+00  0.58486243617E+02  0.58486243672E+02  0.25500000000E-02 0. -1.
          2   -1    0    0  501    0  0.00000000000E+00 -0.00000000000E+00 -0.15910127195E+04  0.15910127195E+04  0.25500000000E-02 0.  1.
    5000001    1    1    2    0    0  0.14329474537E+02 -0.17314547999E+03 -0.12767017737E+04  0.12989908044E+04  0.16500000000E+03 0.  0.
   -5000001    1    1    2    0    0 -0.14329474537E+02  0.17314547999E+03 -0.25582470217E+03  0.35050815871E+03  0.16500000000E+03 0.  0.
<mgrwt>
<rscale>  0 0.61008969E+03</rscale>
<asrwt>0</asrwt>
<pdfrwt beam="1">  1        2 0.22728750E+00 0.61008969E+03</pdfrwt>
<pdfrwt beam="2">  1       -2 0.83551786E-02 0.61008969E+03</pdfrwt>
<totfact> 0.12203334E+03</totfact>
</mgrwt>
</event>
<event>
 4    1  0.5323640E-005  0.5020671E+03  0.7818608E-02  0.1013241E+00
          2   -1    0    0  501    0  0.00000000000E+00  0.00000000000E+00  0.45049955816E+03  0.45049955817E+03  0.25500000000E-02 0.  1.
         -2   -1    0    0    0  501 -0.00000000000E+00 -0.00000000000E+00 -0.13988436686E+03  0.13988436688E+03  0.25500000000E-02 0. -1.
    5000001    1    1    2    0    0 -0.12447152364E+03 -0.14222736633E+03  0.16522025237E+03  0.30040724978E+03  0.16500000000E+03 0.  0.
   -5000001    1    1    2    0    0  0.12447152364E+03  0.14222736633E+03  0.14539493894E+03  0.28997667527E+03  0.16500000000E+03 0.  0.
<mgrwt>
<rscale>  0 0.50206711E+03</rscale>
<asrwt>0</asrwt>
<pdfrwt beam="1">  1        2 0.64357080E-01 0.50206711E+03</pdfrwt>
<pdfrwt beam="2">  1       -2 0.19983481E-01 0.50206711E+03</pdfrwt>
<totfact> 0.16107145E+03</totfact>
</mgrwt>
</event>
<event>
 4    1  0.5323640E-005  0.4892212E+03  0.7818608E-02  0.1016631E+00
          2   -1    0    0  501    0  0.00000000000E+00  0.00000000000E+00  0.22768505409E+04  0.22768505409E+04  0.25500000000E-02 0.  1.
         -2   -1    0    0    0  501 -0.00000000000E+00 -0.00000000000E+00 -0.26279437213E+02  0.26279437336E+02  0.25500000000E-02 0. -1.
    5000001    1    1    2    0    0  0.35929965750E+02  0.57819937092E+02  0.19126940494E+04  0.19210043296E+04  0.16500000000E+03 0.  0.
   -5000001    1    1    2    0    0 -0.35929965750E+02 -0.57819937092E+02  0.33787705426E+03  0.38212564865E+03  0.16500000000E+03 0.  0.
<mgrwt>
<rscale>  0 0.48922122E+03</rscale>
<asrwt>0</asrwt>
<pdfrwt beam="1">  1        2 0.32526447E+00 0.48922122E+03</pdfrwt>
<pdfrwt beam="2">  1       -2 0.37542041E-02 0.48922122E+03</pdfrwt>
<totfact> 0.19286581E+03</totfact>
</mgrwt>
</event>
<event>
 4    1  0.5323640E-005  0.5414000E+03  0.7818608E-02  0.1003504E+00
         -2   -1    0    0    0  501 -0.00000000000E+00  0.00000000000E+00  0.10351941971E+03  0.10351941974E+03  0.25500000000E-02 0. -1.
          2   -1    0    0  501    0  0.00000000000E+00 -0.00000000000E+00 -0.70787187890E+03  0.70787187890E+03  0.25500000000E-02 0.  1.
    5000001    1    1    2    0    0 -0.61400532833E+02  0.20379670588E+03 -0.26112294367E+03  0.37511773414E+03  0.16500000000E+03 0.  0.
   -5000001    1    1    2    0    0  0.61400532833E+02 -0.20379670588E+03 -0.34322951552E+03  0.43627356450E+03  0.16500000000E+03 0.  0.
<mgrwt>
<rscale>  0 0.54139999E+03</rscale>
<asrwt>0</asrwt>
<pdfrwt beam="1">  1        2 0.10112455E+00 0.54139999E+03</pdfrwt>
<pdfrwt beam="2">  1       -2 0.14788489E-01 0.54139999E+03</pdfrwt>
<totfact> 0.15924466E+03</totfact>
</mgrwt>
</event>
<event>
 4    1  0.5323640E-005  0.3897229E+03  0.7818608E-02  0.1047398E+00
         -2   -1    0    0    0  501 -0.00000000000E+00  0.00000000000E+00  0.10161306984E+02  0.10161307304E+02  0.25500000000E-02 0. -1.
          2   -1    0    0  501    0  0.00000000000E+00 -0.00000000000E+00 -0.37368206638E+04  0.37368206638E+04  0.25500000000E-02 0.  1.
    5000001    1    1    2    0    0  0.77506060836E+02  0.56650746825E+02 -0.14873205114E+04  0.14995211903E+04  0.16500000000E+03 0.  0.
   -5000001    1    1    2    0    0 -0.77506060836E+02 -0.56650746825E+02 -0.22393388455E+04  0.22474607808E+04  0.16500000000E+03 0.  0.
<mgrwt>
<rscale>  0 0.38972289E+03</rscale>
<asrwt>0</asrwt>
<pdfrwt beam="1">  1        2 0.53383065E+00 0.38972289E+03</pdfrwt>
<pdfrwt beam="2">  1       -2 0.14516177E-02 0.38972289E+03</pdfrwt>
<totfact> 0.12899811E+03</totfact>
</mgrwt>
</event>
<event>
 4    1  0.5323640E-005  0.4073329E+03  0.7818608E-02  0.1041270E+00
          2   -1    0    0  501    0  0.00000000000E+00  0.00000000000E+00  0.46487592065E+03  0.46487592066E+03  0.25500000000E-02 0.  1.
         -2   -1    0    0    0  501 -0.00000000000E+00 -0.00000000000E+00 -0.89228155190E+02  0.89228155227E+02  0.25500000000E-02 0. -1.
    5000001    1    1    2    0    0  0.80218862495E+02 -0.69943167190E+02  0.26143113387E+03  0.32695313165E+03  0.16500000000E+03 0.  0.
   -5000001    1    1    2    0    0 -0.80218862495E+02  0.69943167190E+02  0.11421663159E+03  0.22715094424E+03  0.16500000000E+03 0.  0.
<mgrwt>
<rscale>  0 0.40733289E+03</rscale>
<asrwt>0</asrwt>
<pdfrwt beam="1">  1        2 0.66410848E-01 0.40733289E+03</pdfrwt>
<pdfrwt beam="2">  1       -2 0.12746879E-01 0.40733289E+03</pdfrwt>
<totfact> 0.33111463E+03</totfact>
</mgrwt>
</event>
<event>
 4    1  0.5323640E-005  0.3513299E+03  0.7818608E-02  0.1062071E+00
          2   -1    0    0  501    0  0.00000000000E+00  0.00000000000E+00  0.31005806784E+02  0.31005806889E+02  0.25500000000E-02 0.  1.
         -2   -1    0    0    0  501 -0.00000000000E+00 -0.00000000000E+00 -0.99523840649E+03  0.99523840649E+03  0.25500000000E-02 0. -1.
    5000001    1    1    2    0    0 -0.48492452799E+02 -0.34713165872E+02 -0.50768954568E+03  0.53715006903E+03  0.16500000000E+03 0.  0.
   -5000001    1    1    2    0    0  0.48492452799E+02  0.34713165872E+02 -0.45654305402E+03  0.48909414435E+03  0.16500000000E+03 0.  0.
<mgrwt>
<rscale>  0 0.35132987E+03</rscale>
<asrwt>0</asrwt>
<pdfrwt beam="1">  1        2 0.44294016E-02 0.35132987E+03</pdfrwt>
<pdfrwt beam="2">  1       -2 0.14217689E+00 0.35132987E+03</pdfrwt>
<totfact> 0.67650354E+02</totfact>
</mgrwt>
</event>
<event>
 4    1  0.5323640E-005  0.5344198E+03  0.7818608E-02  0.1005166E+00
          2   -1    0    0  501    0  0.00000000000E+00  0.00000000000E+00  0.87519697027E+03  0.87519697028E+03  0.25500000000E-02 0.  1.
         -2   -1    0    0    0  501 -0.00000000000E+00 -0.00000000000E+00 -0.81582923795E+02  0.81582923834E+02  0.25500000000E-02 0. -1.
    5000001    1    1    2    0    0  0.82360204585E+02 -0.18257659262E+03  0.51086446905E+03  0.57299644083E+03  0.16500000000E+03 0.  0.
   -5000001    1    1    2    0    0 -0.82360204585E+02  0.18257659262E+03  0.28274957743E+03  0.38378345328E+03  0.16500000000E+03 0.  0.
<mgrwt>
<rscale>  0 0.53441979E+03</rscale>
<asrwt>0</asrwt>
<pdfrwt beam="1">  1        2 0.12502815E+00 0.53441979E+03</pdfrwt>
<pdfrwt beam="2">  1       -2 0.11654703E-01 0.53441979E+03</pdfrwt>
<totfact> 0.18058660E+03</totfact>
</mgrwt>
</event>
<event>
 4    1  0.5323640E-005  0.3745547E+03  0.7818608E-02  0.1052965E+00
          2   -1    0    0  501    0  0.00000000000E+00  0.00000000000E+00  0.19760010370E+04  0.19760010370E+04  0.25500000000E-02 0.  1.
         -2   -1    0    0    0  501 -0.00000000000E+00 -0.00000000000E+00 -0.17749385114E+02  0.17749385297E+02  0.25500000000E-02 0. -1.
    5000001    1    1    2    0    0  0.76793229748E+02  0.35122258492E+02  0.11216617513E+04  0.11368732812E+04  0.16500000000E+03 0.  0.
   -5000001    1    1    2    0    0 -0.76793229748E+02 -0.35122258492E+02  0.83658990060E+03  0.85687714111E+03  0.16500000000E+03 0.  0.
<mgrwt>
<rscale>  0 0.37455469E+03</rscale>
<asrwt>0</asrwt>
<pdfrwt beam="1">  1        2 0.28228604E+00 0.37455469E+03</pdfrwt>
<pdfrwt beam="2">  1       -2 0.25356248E-02 0.37455469E+03</pdfrwt>
<totfact> 0.49392405E+03</totfact>
</mgrwt>
</event>
<event>
 4    1  0.5323640E-005  0.5862353E+03  0.7818608E-02  0.9934382E-01
         -2   -1    0    0    0  501 -0.00000000000E+00  0.00000000000E+00  0.84277293107E+02  0.84277293145E+02  0.25500000000E-02 0. -1.
          2   -1    0    0  501    0  0.00000000000E+00 -0.00000000000E+00 -0.10194673952E+04  0.10194673952E+04  0.25500000000E-02 0.  1.
    5000001    1    1    2    0    0  0.32062282580E+02  0.97289752133E+02 -0.54244340128E+02  0.20164507004E+03  0.16500000000E+03 0.  0.
   -5000001    1    1    2    0    0 -0.32062282580E+02 -0.97289752133E+02 -0.88094576196E+03  0.90209961831E+03  0.16500000000E+03 0.  0.
<mgrwt>
<rscale>  0 0.58623529E+03</rscale>
<asrwt>0</asrwt>
<pdfrwt beam="1">  1        2 0.14563819E+00 0.58623529E+03</pdfrwt>
<pdfrwt beam="2">  1       -2 0.12039614E-01 0.58623529E+03</pdfrwt>
<totfact> 0.13894705E+03</totfact>
</mgrwt>
</event>
<event>
 4    1  0.5323640E-005  0.4172330E+03  0.7818608E-02  0.1037971E+00
         -2   -1    0    0    0  501 -0.00000000000E+00  0.00000000000E+00  0.29584085995E+02  0.29584086105E+02  0.25500000000E-02 0. -1.
          2   -1    0    0  501    0  0.00000000000E+00 -0.00000000000E+00 -0.14710898499E+04  0.14710898499E+04  0.25500000000E-02 0.  1.
    5000001    1    1    2    0    0 -0.87863431499E+02  0.95005163813E+01 -0.10520739901E+04  0.10685948358E+04  0.16500000000E+03 0.  0.
   -5000001    1    1    2    0    0  0.87863431499E+02 -0.95005163813E+01 -0.38943177380E+03  0.43207910023E+03  0.16500000000E+03 0.  0.
<mgrwt>
<rscale>  0 0.41723302E+03</rscale>
<asrwt>0</asrwt>
<pdfrwt beam="1">  1        2 0.21015565E+00 0.41723302E+03</pdfrwt>
<pdfrwt beam="2">  1       -2 0.42262989E-02 0.41723302E+03</pdfrwt>
<totfact> 0.40923571E+03</totfact>
</mgrwt>
</event>
<event>
 4    1  0.5323640E-005  0.4463909E+03  0.7818608E-02  0.1028804E+00
         -2   -1    0    0    0  501 -0.00000000000E+00  0.00000000000E+00  0.43776487819E+02  0.43776487893E+02  0.25500000000E-02 0. -1.
          2   -1    0    0  501    0  0.00000000000E+00 -0.00000000000E+00 -0.11379671216E+04  0.11379671216E+04  0.25500000000E-02 0.  1.
    5000001    1    1    2    0    0 -0.34978587032E+02  0.14538513584E+03 -0.50687118936E+03  0.55362780085E+03  0.16500000000E+03 0.  0.
   -5000001    1    1    2    0    0  0.34978587032E+02 -0.14538513584E+03 -0.58731944446E+03  0.62811580868E+03  0.16500000000E+03 0.  0.
<mgrwt>
<rscale>  0 0.44639088E+03</rscale>
<asrwt>0</asrwt>
<pdfrwt beam="1">  1        2 0.16256671E+00 0.44639088E+03</pdfrwt>
<pdfrwt beam="2">  1       -2 0.62537847E-02 0.44639088E+03</pdfrwt>
<totfact> 0.33803377E+03</totfact>
</mgrwt>
</event>
<event>
 4    1  0.5323640E-005  0.8152629E+03  0.7818608E-02  0.9538184E-01
          2   -1    0    0  501    0  0.00000000000E+00  0.00000000000E+00  0.61082528752E+03  0.61082528752E+03  0.25500000000E-02 0.  1.
         -2   -1    0    0    0  501 -0.00000000000E+00 -0.00000000000E+00 -0.27203094740E+03  0.27203094742E+03  0.25500000000E-02 0. -1.
    5000001    1    1    2    0    0  0.10896852624E+02 -0.31039106952E+03  0.39258441635E+03  0.52707578335E+03  0.16500000000E+03 0.  0.
   -5000001    1    1    2    0    0 -0.10896852624E+02  0.31039106952E+03 -0.53790076233E+02  0.35578045159E+03  0.16500000000E+03 0.  0.
<mgrwt>
<rscale>  0 0.81526286E+03</rscale>
<asrwt>0</asrwt>
<pdfrwt beam="1">  1        2 0.87260754E-01 0.81526286E+03</pdfrwt>
<pdfrwt beam="2">  1       -2 0.38861565E-01 0.81526286E+03</pdfrwt>
<totfact> 0.33376705E+02</totfact>
</mgrwt>
</event>
<event>
 4    1  0.5323640E-005  0.4046843E+03  0.7818608E-02  0.1042170E+00
          2   -1    0    0  501    0  0.00000000000E+00  0.00000000000E+00  0.90053707590E+03  0.90053707591E+03  0.25500000000E-02 0.  1.
         -2   -1    0    0    0  501 -0.00000000000E+00 -0.00000000000E+00 -0.45464368588E+02  0.45464368660E+02  0.25500000000E-02 0. -1.
    5000001    1    1    2    0    0 -0.92401991510E+02 -0.71730788852E+02  0.44114999772E+03  0.48530583614E+03  0.16500000000E+03 0.  0.
   -5000001    1    1    2    0    0  0.92401991510E+02  0.71730788852E+02  0.41392270960E+03  0.46069560843E+03  0.16500000000E+03 0.  0.
<mgrwt>
<rscale>  0 0.40468432E+03</rscale>
<asrwt>0</asrwt>
<pdfrwt beam="1">  1        2 0.12864814E+00 0.40468432E+03</pdfrwt>
<pdfrwt beam="2">  1       -2 0.64949104E-02 0.40468432E+03</pdfrwt>
<totfact> 0.44139138E+03</totfact>
</mgrwt>
</event>
<event>
 4    1  0.5323640E-005  0.5817290E+03  0.7818608E-02  0.9944055E-01
         -2   -1    0    0    0  501 -0.00000000000E+00  0.00000000000E+00  0.31803619881E+02  0.31803619983E+02  0.25500000000E-02 0. -1.
          2   -1    0    0  501    0  0.00000000000E+00 -0.00000000000E+00 -0.26601420152E+04  0.26601420152E+04  0.25500000000E-02 0.  1.
    5000001    1    1    2    0    0 -0.23369558575E+03 -0.50586035070E+02 -0.12479828274E+04  0.12813503468E+04  0.16500000000E+03 0.  0.
   -5000001    1    1    2    0    0  0.23369558575E+03  0.50586035070E+02 -0.13803555679E+04  0.14105952884E+04  0.16500000000E+03 0.  0.
<mgrwt>
<rscale>  0 0.58172896E+03</rscale>
<asrwt>0</asrwt>
<pdfrwt beam="1">  1        2 0.38002015E+00 0.58172896E+03</pdfrwt>
<pdfrwt beam="2">  1       -2 0.45433760E-02 0.58172896E+03</pdfrwt>
<totfact> 0.91162716E+02</totfact>
</mgrwt>
</event>
<event>
 4    1  0.5323640E-005  0.4103833E+03  0.7818608E-02  0.1040242E+00
         -2   -1    0    0    0  501 -0.00000000000E+00  0.00000000000E+00  0.34637522784E+02  0.34637522878E+02  0.25500000000E-02 0. -1.
          2   -1    0    0  501    0  0.00000000000E+00 -0.00000000000E+00 -0.12155489473E+04  0.12155489473E+04  0.25500000000E-02 0.  1.
    5000001    1    1    2    0    0  0.11410510888E+03 -0.32201718700E+02 -0.50313124337E+03  0.54260756963E+03  0.16500000000E+03 0.  0.
   -5000001    1    1    2    0    0 -0.11410510888E+03  0.32201718700E+02 -0.67778018119E+03  0.70757890060E+03  0.16500000000E+03 0.  0.
<mgrwt>
<rscale>  0 0.41038326E+03</rscale>
<asrwt>0</asrwt>
<pdfrwt beam="1">  1        2 0.17364982E+00 0.41038326E+03</pdfrwt>
<pdfrwt beam="2">  1       -2 0.49482183E-02 0.41038326E+03</pdfrwt>
<totfact> 0.43934507E+03</totfact>
</mgrwt>
</event>
<event>
 4    1  0.5323640E-005  0.4126115E+03  0.7818608E-02  0.1039498E+00
          2   -1    0    0  501    0  0.00000000000E+00  0.00000000000E+00  0.12639490640E+04  0.12639490640E+04  0.25500000000E-02 0.  1.
         -2   -1    0    0    0  501 -0.00000000000E+00 -0.00000000000E+00 -0.33673879639E+02  0.33673879736E+02  0.25500000000E-02 0. -1.
    5000001    1    1    2    0    0 -0.10771828877E+03 -0.51725009092E+02  0.51282611374E+03  0.55181004815E+03  0.16500000000E+03 0.  0.
   -5000001    1    1    2    0    0  0.10771828877E+03  0.51725009092E+02  0.71744907063E+03  0.74581289561E+03  0.16500000000E+03 0.  0.
<mgrwt>
<rscale>  0 0.41261153E+03</rscale>
<asrwt>0</asrwt>
<pdfrwt beam="1">  1        2 0.18056419E+00 0.41261153E+03</pdfrwt>
<pdfrwt beam="2">  1       -2 0.48105531E-02 0.41261153E+03</pdfrwt>
<totfact> 0.43175966E+03</totfact>
</mgrwt>
</event>
<event>
 4    1  0.5323640E-005  0.4013814E+03  0.7818608E-02  0.1043302E+00
         -2   -1    0    0    0  501 -0.00000000000E+00  0.00000000000E+00  0.56869107936E+03  0.56869107936E+03  0.25500000000E-02 0. -1.
          2   -1    0    0  501    0  0.00000000000E+00 -0.00000000000E+00 -0.70823596987E+02  0.70823597033E+02  0.25500000000E-02 0.  1.
    5000001    1    1    2    0    0  0.85723714257E+02  0.74811905113E+02  0.26536632892E+03  0.33255024411E+03  0.16500000000E+03 0.  0.
   -5000001    1    1    2    0    0 -0.85723714257E+02 -0.74811905113E+02  0.23250115345E+03  0.30696443228E+03  0.16500000000E+03 0.  0.
<mgrwt>
<rscale>  0 0.40138135E+03</rscale>
<asrwt>0</asrwt>
<pdfrwt beam="1">  1        2 0.10117656E-01 0.40138135E+03</pdfrwt>
<pdfrwt beam="2">  1       -2 0.81241585E-01 0.40138135E+03</pdfrwt>
<totfact> 0.87579897E+02</totfact>
</mgrwt>
</event>
<event>
 4    1  0.5323640E-005  0.5712212E+03  0.7818608E-02  0.9966980E-01
         -2   -1    0    0    0  501 -0.00000000000E+00  0.00000000000E+00  0.37434127153E+03  0.37434127154E+03  0.25500000000E-02 0. -1.
          2   -1    0    0  501    0  0.00000000000E+00 -0.00000000000E+00 -0.21791189897E+03  0.21791189898E+03  0.25500000000E-02 0.  1.
    5000001    1    1    2    0    0 -0.85092020042E+02  0.19536802753E+03 -0.19813270583E+02  0.27023486775E+03  0.16500000000E+03 0.  0.
   -5000001    1    1    2    0    0  0.85092020042E+02 -0.19536802753E+03  0.17624264315E+03  0.32201830277E+03  0.16500000000E+03 0.  0.
<mgrwt>
<rscale>  0 0.57122121E+03</rscale>
<asrwt>0</asrwt>
<pdfrwt beam="1">  1        2 0.31130271E-01 0.57122121E+03</pdfrwt>
<pdfrwt beam="2">  1       -2 0.53477325E-01 0.57122121E+03</pdfrwt>
<totfact> 0.56662307E+02</totfact>
</mgrwt>
</event>
<event>
 4    1  0.5323640E-005  0.6265358E+03  0.7818608E-02  0.9851832E-01
         -2   -1    0    0    0  501 -0.00000000000E+00  0.00000000000E+00  0.89455425727E+02  0.89455425763E+02  0.25500000000E-02 0. -1.
          2   -1    0    0  501    0  0.00000000000E+00 -0.00000000000E+00 -0.10970464997E+04  0.10970464997E+04  0.25500000000E-02 0.  1.
    5000001    1    1    2    0    0  0.11281653962E+03 -0.23326133498E+03 -0.62012388004E+03  0.69203832886E+03  0.16500000000E+03 0.  0.
   -5000001    1    1    2    0    0 -0.11281653962E+03  0.23326133498E+03 -0.38746719397E+03  0.49446359665E+03  0.16500000000E+03 0.  0.
<mgrwt>
<rscale>  0 0.62653575E+03</rscale>
<asrwt>0</asrwt>
<pdfrwt beam="1">  1        2 0.15672092E+00 0.62653575E+03</pdfrwt>
<pdfrwt beam="2">  1       -2 0.12779347E-01 0.62653575E+03</pdfrwt>
<totfact> 0.11315688E+03</totfact>
</mgrwt>
</event>
<event>
 4    1  0.5323640E-005  0.7926933E+03  0.7818608E-02  0.9570654E-01
          2   -1    0    0  501    0  0.00000000000E+00  0.00000000000E+00  0.45593855414E+04  0.45593855414E+04  0.25500000000E-02 0.  1.
         -2   -1    0    0    0  501 -0.00000000000E+00 -0.00000000000E+00 -0.34454353625E+02  0.34454353719E+02  0.25500000000E-02 0. -1.
    5000001    1    1    2    0    0 -0.33071581872E+03  0.11321037556E+03  0.17547247591E+04  0.17967953479E+04  0.16500000000E+03 0.  0.
   -5000001    1    1    2    0    0  0.33071581872E+03 -0.11321037556E+03  0.27702064286E+04  0.27970445472E+04  0.16500000000E+03 0.  0.
<mgrwt>
<rscale>  0 0.79269334E+03</rscale>
<asrwt>0</asrwt>
<pdfrwt beam="1">  1        2 0.65134061E+00 0.79269334E+03</pdfrwt>
<pdfrwt beam="2">  1       -2 0.49220519E-02 0.79269334E+03</pdfrwt>
<totfact> 0.50925702E+01</totfact>
</mgrwt>
</event>
<event>
 4    1  0.5323640E-005  0.6716524E+03  0.7818608E-02  0.9766977E-01
          2   -1    0    0  501    0  0.00000000000E+00  0.00000000000E+00  0.21545635541E+04  0.21545635541E+04  0.25500000000E-02 0.  1.
         -2   -1    0    0    0  501 -0.00000000000E+00 -0.00000000000E+00 -0.52344349539E+02  0.52344349601E+02  0.25500000000E-02 0. -1.
    5000001    1    1    2    0    0 -0.24327431671E+03 -0.16231736764E+03  0.10675079081E+04  0.11190743742E+04  0.16500000000E+03 0.  0.
   -5000001    1    1    2    0    0  0.24327431671E+03  0.16231736764E+03  0.10347112964E+04  0.10878335295E+04  0.16500000000E+03 0.  0.
<mgrwt>
<rscale>  0 0.67165237E+03</rscale>
<asrwt>0</asrwt>
<pdfrwt beam="1">  1        2 0.30779475E+00 0.67165237E+03</pdfrwt>
<pdfrwt beam="2">  1       -2 0.74777654E-02 0.67165237E+03</pdfrwt>
<totfact> 0.75262241E+02</totfact>
</mgrwt>
</event>
<event>
 4    1  0.5323640E-005  0.5928187E+03  0.7818608E-02  0.9920418E-01
          2   -1    0    0  501    0  0.00000000000E+00  0.00000000000E+00  0.67482900817E+03  0.67482900818E+03  0.25500000000E-02 0.  1.
         -2   -1    0    0    0  501 -0.00000000000E+00 -0.00000000000E+00 -0.13019371880E+03  0.13019371882E+03  0.25500000000E-02 0. -1.
    5000001    1    1    2    0    0 -0.17400965488E+03  0.12092205569E+03  0.10199274088E+03  0.28727864999E+03  0.16500000000E+03 0.  0.
   -5000001    1    1    2    0    0  0.17400965488E+03 -0.12092205569E+03  0.44264254850E+03  0.51774407702E+03  0.16500000000E+03 0.  0.
<mgrwt>
<rscale>  0 0.59281868E+03</rscale>
<asrwt>0</asrwt>
<pdfrwt beam="1">  1        2 0.96404143E-01 0.59281868E+03</pdfrwt>
<pdfrwt beam="2">  1       -2 0.18599103E-01 0.59281868E+03</pdfrwt>
<totfact> 0.11425102E+03</totfact>
</mgrwt>
</event>
<event>
 4    1  0.5323640E-005  0.4825230E+03  0.7818608E-02  0.1018444E+00
          2   -1    0    0  501    0  0.00000000000E+00  0.00000000000E+00  0.74223438607E+03  0.74223438608E+03  0.25500000000E-02 0.  1.
         -2   -1    0    0    0  501 -0.00000000000E+00 -0.00000000000E+00 -0.78421477226E+02  0.78421477268E+02  0.25500000000E-02 0. -1.
    5000001    1    1    2    0    0  0.12376000731E+03 -0.86550423982E+02  0.17813478207E+03  0.28594495254E+03  0.16500000000E+03 0.  0.
   -5000001    1    1    2    0    0 -0.12376000731E+03  0.86550423982E+02  0.48567812677E+03  0.53471091080E+03  0.16500000000E+03 0.  0.
<mgrwt>
<rscale>  0 0.48252302E+03</rscale>
<asrwt>0</asrwt>
<pdfrwt beam="1">  1        2 0.10603348E+00 0.48252302E+03</pdfrwt>
<pdfrwt beam="2">  1       -2 0.11203068E-01 0.48252302E+03</pdfrwt>
<totfact> 0.23762090E+03</totfact>
</mgrwt>
</event>
<event>
 4    1  0.5323640E-005  0.4624734E+03  0.7818608E-02  0.1024066E+00
         -2   -1    0    0    0  501 -0.00000000000E+00  0.00000000000E+00  0.30024264086E+02  0.30024264195E+02  0.25500000000E-02 0. -1.
          2   -1    0    0  501    0  0.00000000000E+00 -0.00000000000E+00 -0.17809062988E+04  0.17809062988E+04  0.25500000000E-02 0.  1.
    5000001    1    1    2    0    0  0.49684186949E+02  0.13251316824E+03 -0.11841935351E+04  0.12039798947E+04  0.16500000000E+03 0.  0.
   -5000001    1    1    2    0    0 -0.49684186949E+02 -0.13251316824E+03 -0.56668849962E+03  0.60695066833E+03  0.16500000000E+03 0.  0.
<mgrwt>
<rscale>  0 0.46247336E+03</rscale>
<asrwt>0</asrwt>
<pdfrwt beam="1">  1        2 0.25441512E+00 0.46247336E+03</pdfrwt>
<pdfrwt beam="2">  1       -2 0.42891817E-02 0.46247336E+03</pdfrwt>
<totfact> 0.27851193E+03</totfact>
</mgrwt>
</event>
<event>
 4    1  0.5323640E-005  0.6262352E+03  0.7818608E-02  0.9852423E-01
          2   -1    0    0  501    0  0.00000000000E+00  0.00000000000E+00  0.39733865681E+03  0.39733865682E+03  0.25500000000E-02 0.  1.
         -2   -1    0    0    0  501 -0.00000000000E+00 -0.00000000000E+00 -0.24674831275E+03  0.24674831276E+03  0.25500000000E-02 0. -1.
    5000001    1    1    2    0    0  0.14781744452E+03  0.17750528222E+03 -0.60605991446E+02  0.29026919974E+03  0.16500000000E+03 0.  0.
   -5000001    1    1    2    0    0 -0.14781744452E+03 -0.17750528222E+03  0.21119633551E+03  0.35381776984E+03  0.16500000000E+03 0.  0.
<mgrwt>
<rscale>  0 0.62623524E+03</rscale>
<asrwt>0</asrwt>
<pdfrwt beam="1">  1        2 0.56762665E-01 0.62623524E+03</pdfrwt>
<pdfrwt beam="2">  1       -2 0.35249759E-01 0.62623524E+03</pdfrwt>
<totfact> 0.66192669E+02</totfact>
</mgrwt>
</event>
<event>
 4    1  0.5323640E-005  0.7276638E+03  0.7818608E-02  0.9671059E-01
          2   -1    0    0  501    0  0.00000000000E+00  0.00000000000E+00  0.37145296125E+03  0.37145296126E+03  0.25500000000E-02 0.  1.
         -2   -1    0    0    0  501 -0.00000000000E+00 -0.00000000000E+00 -0.35636723559E+03  0.35636723559E+03  0.25500000000E-02 0. -1.
    5000001    1    1    2    0    0 -0.11086115962E+03  0.25166856082E+03 -0.16431199502E+03  0.36034801640E+03  0.16500000000E+03 0.  0.
   -5000001    1    1    2    0    0  0.11086115962E+03 -0.25166856082E+03  0.17939772069E+03  0.36747218045E+03  0.16500000000E+03 0.  0.
<mgrwt>
<rscale>  0 0.72766384E+03</rscale>
<asrwt>0</asrwt>
<pdfrwt beam="1">  1        2 0.53064709E-01 0.72766384E+03</pdfrwt>
<pdfrwt beam="2">  1       -2 0.50909605E-01 0.72766384E+03</pdfrwt>
<totfact> 0.34541706E+02</totfact>
</mgrwt>
</event>
<event>
 4    1  0.5323640E-005  0.5059289E+03  0.7818608E-02  0.1012243E+00
         -2   -1    0    0    0  501 -0.00000000000E+00  0.00000000000E+00  0.20882976484E+03  0.20882976486E+03  0.25500000000E-02 0. -1.
          2   -1    0    0  501    0  0.00000000000E+00 -0.00000000000E+00 -0.30642669479E+03  0.30642669480E+03  0.25500000000E-02 0.  1.
    5000001    1    1    2    0    0 -0.39939969648E+02  0.17432571519E+03 -0.11922066748E+03  0.27096720042E+03  0.16500000000E+03 0.  0.
   -5000001    1    1    2    0    0  0.39939969648E+02 -0.17432571519E+03  0.21623737531E+02  0.24428925923E+03  0.16500000000E+03 0.  0.
<mgrwt>
<rscale>  0 0.50592891E+03</rscale>
<asrwt>0</asrwt>
<pdfrwt beam="1">  1        2 0.43775242E-01 0.50592891E+03</pdfrwt>
<pdfrwt beam="2">  1       -2 0.29832824E-01 0.50592891E+03</pdfrwt>
<totfact> 0.12055833E+03</totfact>
</mgrwt>
</event>
<event>
 4    1  0.5323640E-005  0.7666803E+03  0.7818608E-02  0.9609539E-01
         -2   -1    0    0    0  501 -0.00000000000E+00  0.00000000000E+00  0.67942275935E+03  0.67942275936E+03  0.25500000000E-02 0. -1.
          2   -1    0    0  501    0  0.00000000000E+00 -0.00000000000E+00 -0.21628608557E+03  0.21628608558E+03  0.25500000000E-02 0.  1.
    5000001    1    1    2    0    0 -0.11575595774E+03  0.29506684157E+03  0.69428488146E+02  0.36401812828E+03  0.16500000000E+03 0.  0.
   -5000001    1    1    2    0    0  0.11575595774E+03 -0.29506684157E+03  0.39370818564E+03  0.53169071666E+03  0.16500000000E+03 0.  0.
<mgrwt>
<rscale>  0 0.76668035E+03</rscale>
<asrwt>0</asrwt>
<pdfrwt beam="1">  1        2 0.30898012E-01 0.76668035E+03</pdfrwt>
<pdfrwt beam="2">  1       -2 0.97060393E-01 0.76668035E+03</pdfrwt>
<totfact> 0.15380874E+02</totfact>
</mgrwt>
</event>
<event>
 4    1  0.5323640E-005  0.4339151E+03  0.7818608E-02  0.1032630E+00
         -2   -1    0    0    0  501 -0.00000000000E+00  0.00000000000E+00  0.15454583179E+02  0.15454583390E+02  0.25500000000E-02 0. -1.
          2   -1    0    0  501    0  0.00000000000E+00 -0.00000000000E+00 -0.30457359789E+04  0.30457359789E+04  0.25500000000E-02 0.  1.
    5000001    1    1    2    0    0  0.40857109994E+01 -0.11628080309E+03 -0.95484175192E+03  0.97595373323E+03  0.16500000000E+03 0.  0.
   -5000001    1    1    2    0    0 -0.40857109994E+01  0.11628080309E+03 -0.20754396438E+04  0.20852368291E+04  0.16500000000E+03 0.  0.
<mgrwt>
<rscale>  0 0.43391511E+03</rscale>
<asrwt>0</asrwt>
<pdfrwt beam="1">  1        2 0.43510476E+00 0.43391511E+03</pdfrwt>
<pdfrwt beam="2">  1       -2 0.22077996E-02 0.43391511E+03</pdfrwt>
<totfact> 0.17229349E+03</totfact>
</mgrwt>
</event>
<event>
 4    1  0.5323640E-005  0.5200178E+03  0.7818608E-02  0.1008682E+00
          2   -1    0    0  501    0  0.00000000000E+00  0.00000000000E+00  0.90547302268E+03  0.90547302268E+03  0.25500000000E-02 0.  1.
         -2   -1    0    0    0  501 -0.00000000000E+00 -0.00000000000E+00 -0.74662235678E+02  0.74662235722E+02  0.25500000000E-02 0. -1.
    5000001    1    1    2    0    0  0.73975393458E+02 -0.18444564115E+03  0.35926818168E+03  0.44248297113E+03  0.16500000000E+03 0.  0.
   -5000001    1    1    2    0    0 -0.73975393458E+02  0.18444564115E+03  0.47154260532E+03  0.53765228727E+03  0.16500000000E+03 0.  0.
<mgrwt>
<rscale>  0 0.52001785E+03</rscale>
<asrwt>0</asrwt>
<pdfrwt beam="1">  1        2 0.12935329E+00 0.52001785E+03</pdfrwt>
<pdfrwt beam="2">  1       -2 0.10666034E-01 0.52001785E+03</pdfrwt>
<totfact> 0.19949311E+03</totfact>
</mgrwt>
</event>
<event>
 4    1  0.5323640E-005  0.5564860E+03  0.7818608E-02  0.1000004E+00
         -2   -1    0    0    0  501 -0.00000000000E+00  0.00000000000E+00  0.51780286281E+02  0.51780286344E+02  0.25500000000E-02 0. -1.
          2   -1    0    0  501    0  0.00000000000E+00 -0.00000000000E+00 -0.14951473301E+04  0.14951473302E+04  0.25500000000E-02 0.  1.
    5000001    1    1    2    0    0  0.17181857594E+03 -0.15378933335E+02 -0.11190708018E+04  0.11442476105E+04  0.16500000000E+03 0.  0.
   -5000001    1    1    2    0    0 -0.17181857594E+03  0.15378933335E+02 -0.32429624204E+03  0.40268000600E+03  0.16500000000E+03 0.  0.
<mgrwt>
<rscale>  0 0.55648596E+03</rscale>
<asrwt>0</asrwt>
<pdfrwt beam="1">  1        2 0.21359245E+00 0.55648596E+03</pdfrwt>
<pdfrwt beam="2">  1       -2 0.73971847E-02 0.55648596E+03</pdfrwt>
<totfact> 0.16636048E+03</totfact>
</mgrwt>
</event>
<event>
 4    1  0.5323640E-005  0.4704113E+03  0.7818608E-02  0.1021804E+00
          2   -1    0    0  501    0  0.00000000000E+00  0.00000000000E+00  0.97483018235E+03  0.97483018235E+03  0.25500000000E-02 0.  1.
         -2   -1    0    0    0  501 -0.00000000000E+00 -0.00000000000E+00 -0.56750086016E+02  0.56750086073E+02  0.25500000000E-02 0. -1.
    5000001    1    1    2    0    0 -0.10152933362E+03 -0.13143429090E+03  0.40934612819E+03  0.47156381442E+03  0.16500000000E+03 0.  0.
   -5000001    1    1    2    0    0  0.10152933362E+03  0.13143429090E+03  0.50873396815E+03  0.56001645400E+03  0.16500000000E+03 0.  0.
<mgrwt>
<rscale>  0 0.47041130E+03</rscale>
<asrwt>0</asrwt>
<pdfrwt beam="1">  1        2 0.13926145E+00 0.47041130E+03</pdfrwt>
<pdfrwt beam="2">  1       -2 0.81071552E-02 0.47041130E+03</pdfrwt>
<totfact> 0.28034660E+03</totfact>
</mgrwt>
</event>
<event>
 4    1  0.5323640E-005  0.4410969E+03  0.7818608E-02  0.1030411E+00
         -2   -1    0    0    0  501 -0.00000000000E+00  0.00000000000E+00  0.18902348968E+04  0.18902348968E+04  0.25500000000E-02 0. -1.
          2   -1    0    0  501    0  0.00000000000E+00 -0.00000000000E+00 -0.25733102648E+02  0.25733102774E+02  0.25500000000E-02 0.  1.
    5000001    1    1    2    0    0 -0.10838940928E+03 -0.95150642486E+02  0.82455829356E+03  0.85318420537E+03  0.16500000000E+03 0.  0.
   -5000001    1    1    2    0    0  0.10838940928E+03  0.95150642486E+02  0.10399435006E+04  0.10627837942E+04  0.16500000000E+03 0.  0.
<mgrwt>
<rscale>  0 0.44109685E+03</rscale>
<asrwt>0</asrwt>
<pdfrwt beam="1">  1        2 0.36761568E-02 0.44109685E+03</pdfrwt>
<pdfrwt beam="2">  1       -2 0.27003361E+00 0.44109685E+03</pdfrwt>
<totfact> 0.12864063E+02</totfact>
</mgrwt>
</event>
<event>
 4    1  0.5323640E-005  0.5206809E+03  0.7818608E-02  0.1008518E+00
          2   -1    0    0  501    0  0.00000000000E+00  0.00000000000E+00  0.11089991707E+04  0.11089991707E+04  0.25500000000E-02 0.  1.
         -2   -1    0    0    0  501 -0.00000000000E+00 -0.00000000000E+00 -0.61115604969E+02  0.61115605022E+02  0.25500000000E-02 0. -1.
    5000001    1    1    2    0    0 -0.19045072748E+03 -0.38520333424E+02  0.40509371372E+03  0.47862429167E+03  0.16500000000E+03 0.  0.
   -5000001    1    1    2    0    0  0.19045072748E+03  0.38520333424E+02  0.64278985205E+03  0.69149048409E+03  0.16500000000E+03 0.  0.
<mgrwt>
<rscale>  0 0.52068092E+03</rscale>
<asrwt>0</asrwt>
<pdfrwt beam="1">  1        2 0.15842845E+00 0.52068092E+03</pdfrwt>
<pdfrwt beam="2">  1       -2 0.87308008E-02 0.52068092E+03</pdfrwt>
<totfact> 0.20740312E+03</totfact>
</mgrwt>
</event>
<event>
 4    1  0.5323640E-005  0.5790557E+03  0.7818608E-02  0.9949837E-01
         -2   -1    0    0    0  501 -0.00000000000E+00  0.00000000000E+00  0.65331717090E+02  0.65331717139E+02  0.25500000000E-02 0. -1.
          2   -1    0    0  501    0  0.00000000000E+00 -0.00000000000E+00 -0.12830885803E+04  0.12830885803E+04  0.25500000000E-02 0.  1.
    5000001    1    1    2    0    0  0.25075253985E+02 -0.22038282308E+03 -0.80925125218E+03  0.85516661899E+03  0.16500000000E+03 0.  0.
   -5000001    1    1    2    0    0 -0.25075253985E+02  0.22038282308E+03 -0.40850561103E+03  0.49325367846E+03  0.16500000000E+03 0.  0.
<mgrwt>
<rscale>  0 0.57905571E+03</rscale>
<asrwt>0</asrwt>
<pdfrwt beam="1">  1        2 0.18329835E+00 0.57905571E+03</pdfrwt>
<pdfrwt beam="2">  1       -2 0.93331032E-02 0.57905571E+03</pdfrwt>
<totfact> 0.14872181E+03</totfact>
</mgrwt>
</event>
<event>
 4    1  0.5323640E-005  0.4745589E+03  0.7818608E-02  0.1020641E+00
          2   -1    0    0  501    0  0.00000000000E+00  0.00000000000E+00  0.33623626653E+04  0.33623626653E+04  0.25500000000E-02 0.  1.
         -2   -1    0    0    0  501 -0.00000000000E+00 -0.00000000000E+00 -0.16744633156E+02  0.16744633350E+02  0.25500000000E-02 0. -1.
    5000001    1    1    2    0    0  0.65494658236E+02 -0.14859583891E+03  0.20432306436E+04  0.20563041449E+04  0.16500000000E+03 0.  0.
   -5000001    1    1    2    0    0 -0.65494658236E+02  0.14859583891E+03  0.13023873886E+04  0.13228031537E+04  0.16500000000E+03 0.  0.
<mgrwt>
<rscale>  0 0.47455887E+03</rscale>
<asrwt>0</asrwt>
<pdfrwt beam="1">  1        2 0.48033831E+00 0.47455887E+03</pdfrwt>
<pdfrwt beam="2">  1       -2 0.23920865E-02 0.47455887E+03</pdfrwt>
<totfact> 0.10134740E+03</totfact>
</mgrwt>
</event>
<event>
 4    1  0.5323640E-005  0.8190977E+03  0.7818608E-02  0.9532778E-01
          2   -1    0    0  501    0  0.00000000000E+00  0.00000000000E+00  0.89800150842E+03  0.89800150842E+03  0.25500000000E-02 0.  1.
         -2   -1    0    0    0  501 -0.00000000000E+00 -0.00000000000E+00 -0.18678169387E+03  0.18678169388E+03  0.25500000000E-02 0. -1.
    5000001    1    1    2    0    0 -0.31489210015E+03  0.15479163665E+03  0.18097580607E+03  0.42789569745E+03  0.16500000000E+03 0.  0.
   -5000001    1    1    2    0    0  0.31489210015E+03 -0.15479163665E+03  0.53024400848E+03  0.65688750486E+03  0.16500000000E+03 0.  0.
<mgrwt>
<rscale>  0 0.81909766E+03</rscale>
<asrwt>0</asrwt>
<pdfrwt beam="1">  1        2 0.12828593E+00 0.81909766E+03</pdfrwt>
<pdfrwt beam="2">  1       -2 0.26683098E-01 0.81909766E+03</pdfrwt>
<totfact> 0.41603798E+02</totfact>
</mgrwt>
</event>
<event>
 4    1  0.5323640E-005  0.5317944E+03  0.7818608E-02  0.1005798E+00
          2   -1    0    0  501    0  0.00000000000E+00  0.00000000000E+00  0.31381442817E+03  0.31381442818E+03  0.25500000000E-02 0.  1.
         -2   -1    0    0    0  501 -0.00000000000E+00 -0.00000000000E+00 -0.22529660300E+03  0.22529660302E+03  0.25500000000E-02 0. -1.
    5000001    1    1    2    0    0  0.95901618180E+02  0.18492639477E+03  0.35110744966E+02  0.26805345785E+03  0.16500000000E+03 0.  0.
   -5000001    1    1    2    0    0 -0.95901618180E+02 -0.18492639477E+03  0.53407080195E+02  0.27105757335E+03  0.16500000000E+03 0.  0.
<mgrwt>
<rscale>  0 0.53179441E+03</rscale>
<asrwt>0</asrwt>
<pdfrwt beam="1">  1        2 0.44830633E-01 0.53179441E+03</pdfrwt>
<pdfrwt beam="2">  1       -2 0.32185229E-01 0.53179441E+03</pdfrwt>
<totfact> 0.10204611E+03</totfact>
</mgrwt>
</event>
<event>
 4    1  0.5323640E-005  0.8029759E+03  0.7818608E-02  0.9555720E-01
         -2   -1    0    0    0  501 -0.00000000000E+00  0.00000000000E+00  0.77741088770E+02  0.77741088812E+02  0.25500000000E-02 0. -1.
          2   -1    0    0  501    0  0.00000000000E+00 -0.00000000000E+00 -0.20734538259E+04  0.20734538259E+04  0.25500000000E-02 0.  1.
    5000001    1    1    2    0    0 -0.24364243784E+03  0.23335356342E+03 -0.61754726035E+03  0.72277599701E+03  0.16500000000E+03 0.  0.
   -5000001    1    1    2    0    0  0.24364243784E+03 -0.23335356342E+03 -0.13781654768E+04  0.14284189177E+04  0.16500000000E+03 0.  0.
<mgrwt>
<rscale>  0 0.80297586E+03</rscale>
<asrwt>0</asrwt>
<pdfrwt beam="1">  1        2 0.29620766E+00 0.80297586E+03</pdfrwt>
<pdfrwt beam="2">  1       -2 0.11105871E-01 0.80297586E+03</pdfrwt>
<totfact> 0.43275293E+02</totfact>
</mgrwt>
</event>
<event>
 4    1  0.5323640E-005  0.5957263E+03  0.7818608E-02  0.9914313E-01
         -2   -1    0    0    0  501 -0.00000000000E+00  0.00000000000E+00  0.23720917464E+03  0.23720917465E+03  0.25500000000E-02 0. -1.
          2   -1    0    0  501    0  0.00000000000E+00 -0.00000000000E+00 -0.37402622275E+03  0.37402622276E+03  0.25500000000E-02 0.  1.
    5000001    1    1    2    0    0 -0.18874885906E+03 -0.29836005454E+02  0.93760460156E+02  0.26931829293E+03  0.16500000000E+03 0.  0.
   -5000001    1    1    2    0    0  0.18874885906E+03  0.29836005454E+02 -0.23057750827E+03  0.34191710448E+03  0.16500000000E+03 0.  0.
<mgrwt>
<rscale>  0 0.59572628E+03</rscale>
<asrwt>0</asrwt>
<pdfrwt beam="1">  1        2 0.53432318E-01 0.59572628E+03</pdfrwt>
<pdfrwt beam="2">  1       -2 0.33887025E-01 0.59572628E+03</pdfrwt>
<totfact> 0.76309003E+02</totfact>
</mgrwt>
</event>
<event>
 4    1  0.5323640E-005  0.3898103E+03  0.7818608E-02  0.1047366E+00
          2   -1    0    0  501    0  0.00000000000E+00  0.00000000000E+00  0.40186506441E+03  0.40186506442E+03  0.25500000000E-02 0.  1.
         -2   -1    0    0    0  501 -0.00000000000E+00 -0.00000000000E+00 -0.94529282867E+02  0.94529282901E+02  0.25500000000E-02 0. -1.
    5000001    1    1    2    0    0  0.73647340031E+02 -0.52390300813E+02  0.88806367988E+02  0.20803904756E+03  0.16500000000E+03 0.  0.
   -5000001    1    1    2    0    0 -0.73647340031E+02  0.52390300813E+02  0.21852941355E+03  0.28835529976E+03  0.16500000000E+03 0.  0.
<mgrwt>
<rscale>  0 0.38981029E+03</rscale>
<asrwt>0</asrwt>
<pdfrwt beam="1">  1        2 0.57409294E-01 0.38981029E+03</pdfrwt>
<pdfrwt beam="2">  1       -2 0.13504183E-01 0.38981029E+03</pdfrwt>
<totfact> 0.35332500E+03</totfact>
</mgrwt>
</event>
<event>
 4    1  0.5323640E-005  0.8689935E+03  0.7818608E-02  0.9465193E-01
          2   -1    0    0  501    0  0.00000000000E+00  0.00000000000E+00  0.12687734224E+04  0.12687734224E+04  0.25500000000E-02 0.  1.
         -2   -1    0    0    0  501 -0.00000000000E+00 -0.00000000000E+00 -0.14879522351E+03  0.14879522354E+03  0.25500000000E-02 0. -1.
    5000001    1    1    2    0    0 -0.21042471522E+03 -0.73449088931E+02  0.11056482636E+04  0.11398931582E+04  0.16500000000E+03 0.  0.
   -5000001    1    1    2    0    0  0.21042471522E+03  0.73449088931E+02  0.14329935332E+02  0.27767548773E+03  0.16500000000E+03 0.  0.
<mgrwt>
<rscale>  0 0.86899350E+03</rscale>
<asrwt>0</asrwt>
<pdfrwt beam="1">  1        2 0.18125335E+00 0.86899350E+03</pdfrwt>
<pdfrwt beam="2">  1       -2 0.21256461E-01 0.86899350E+03</pdfrwt>
<totfact> 0.37514876E+02</totfact>
</mgrwt>
</event>
<event>
 4    1  0.5323640E-005  0.3881194E+03  0.7818608E-02  0.1047973E+00
          2   -1    0    0  501    0  0.00000000000E+00  0.00000000000E+00  0.11585600945E+03  0.11585600948E+03  0.25500000000E-02 0.  1.
         -2   -1    0    0    0  501 -0.00000000000E+00 -0.00000000000E+00 -0.32505145886E+03  0.32505145887E+03  0.25500000000E-02 0. -1.
    5000001    1    1    2    0    0  0.29122777432E+02 -0.45316471988E+02 -0.20319164451E+03  0.26723316261E+03  0.16500000000E+03 0.  0.
   -5000001    1    1    2    0    0 -0.29122777432E+02  0.45316471988E+02 -0.60038048910E+01  0.17367430573E+03  0.16500000000E+03 0.  0.
<mgrwt>
<rscale>  0 0.38811939E+03</rscale>
<asrwt>0</asrwt>
<pdfrwt beam="1">  1        2 0.16550859E-01 0.38811939E+03</pdfrwt>
<pdfrwt beam="2">  1       -2 0.46435922E-01 0.38811939E+03</pdfrwt>
<totfact> 0.15546496E+03</totfact>
</mgrwt>
</event>
<event>
 4    1  0.5323640E-005  0.5640280E+03  0.7818608E-02  0.9982982E-01
          2   -1    0    0  501    0  0.00000000000E+00  0.00000000000E+00  0.14496150036E+04  0.14496150036E+04  0.25500000000E-02 0.  1.
         -2   -1    0    0    0  501 -0.00000000000E+00 -0.00000000000E+00 -0.54864145574E+02  0.54864145633E+02  0.25500000000E-02 0. -1.
    5000001    1    1    2    0    0  0.19953076984E+03 -0.28852377068E+02  0.40932388855E+03  0.48519690180E+03  0.16500000000E+03 0.  0.
   -5000001    1    1    2    0    0 -0.19953076984E+03  0.28852377068E+02  0.98542696944E+03  0.10192822474E+04  0.16500000000E+03 0.  0.
<mgrwt>
<rscale>  0 0.56402797E+03</rscale>
<asrwt>0</asrwt>
<pdfrwt beam="1">  1        2 0.20708785E+00 0.56402797E+03</pdfrwt>
<pdfrwt beam="2">  1       -2 0.78377354E-02 0.56402797E+03</pdfrwt>
<totfact> 0.16028207E+03</totfact>
</mgrwt>
</event>
<event>
 4    1  0.5323640E-005  0.4147343E+03  0.7818608E-02  0.1038794E+00
         -2   -1    0    0    0  501 -0.00000000000E+00  0.00000000000E+00  0.58006891416E+02  0.58006891472E+02  0.25500000000E-02 0. -1.
          2   -1    0    0  501    0  0.00000000000E+00 -0.00000000000E+00 -0.74131062573E+03  0.74131062573E+03  0.25500000000E-02 0.  1.
    5000001    1    1    2    0    0  0.10330398172E+03 -0.36566153369E+02 -0.45994681256E+03  0.50078425155E+03  0.16500000000E+03 0.  0.
   -5000001    1    1    2    0    0 -0.10330398172E+03  0.36566153369E+02 -0.22335692175E+03  0.29853326566E+03  0.16500000000E+03 0.  0.
<mgrwt>
<rscale>  0 0.41473425E+03</rscale>
<asrwt>0</asrwt>
<pdfrwt beam="1">  1        2 0.10590151E+00 0.41473425E+03</pdfrwt>
<pdfrwt beam="2">  1       -2 0.82866992E-02 0.41473425E+03</pdfrwt>
<totfact> 0.38561487E+03</totfact>
</mgrwt>
</event>
<event>
 4    1  0.5323640E-005  0.5021336E+03  0.7818608E-02  0.1013224E+00
         -2   -1    0    0    0  501 -0.00000000000E+00  0.00000000000E+00  0.32243274055E+03  0.32243274056E+03  0.25500000000E-02 0. -1.
          2   -1    0    0  501    0  0.00000000000E+00 -0.00000000000E+00 -0.19549670846E+03  0.19549670847E+03  0.25500000000E-02 0.  1.
    5000001    1    1    2    0    0  0.14471291596E+03  0.84277164564E+02  0.15435967542E+03  0.28124078280E+03  0.16500000000E+03 0.  0.
   -5000001    1    1    2    0    0 -0.14471291596E+03 -0.84277164564E+02 -0.27423643325E+02  0.23668866624E+03  0.16500000000E+03 0.  0.
<mgrwt>
<rscale>  0 0.50213361E+03</rscale>
<asrwt>0</asrwt>
<pdfrwt beam="1">  1        2 0.27928101E-01 0.50213361E+03</pdfrwt>
<pdfrwt beam="2">  1       -2 0.46061820E-01 0.50213361E+03</pdfrwt>
<totfact> 0.86559662E+02</totfact>
</mgrwt>
</event>
<event>
 4    1  0.5323640E-005  0.8829439E+03  0.7818608E-02  0.9447157E-01
          2   -1    0    0  501    0  0.00000000000E+00  0.00000000000E+00  0.25332360878E+04  0.25332360878E+04  0.25500000000E-02 0.  1.
         -2   -1    0    0    0  501 -0.00000000000E+00 -0.00000000000E+00 -0.76936178645E+02  0.76936178687E+02  0.25500000000E-02 0. -1.
    5000001    1    1    2    0    0 -0.33444859471E+03  0.59756240039E+02  0.55243758766E+03  0.66920770990E+03  0.16500000000E+03 0.  0.
   -5000001    1    1    2    0    0  0.33444859471E+03 -0.59756240039E+02  0.19038623215E+04  0.19409645566E+04  0.16500000000E+03 0.  0.
<mgrwt>
<rscale>  0 0.88294395E+03</rscale>
<asrwt>0</asrwt>
<pdfrwt beam="1">  1        2 0.36189084E+00 0.88294395E+03</pdfrwt>
<pdfrwt beam="2">  1       -2 0.10990883E-01 0.88294395E+03</pdfrwt>
<totfact> 0.25440065E+02</totfact>
</mgrwt>
</event>
<event>
 4    1  0.5323640E-005  0.3488913E+03  0.7818608E-02  0.1063071E+00
         -2   -1    0    0    0  501 -0.00000000000E+00  0.00000000000E+00  0.34568349733E+03  0.34568349733E+03  0.25500000000E-02 0. -1.
          2   -1    0    0  501    0  0.00000000000E+00 -0.00000000000E+00 -0.88032241640E+02  0.88032241677E+02  0.25500000000E-02 0.  1.
    5000001    1    1    2    0    0 -0.55857387243E+01 -0.27713319940E+02  0.67835596640E+02  0.18062640103E+03  0.16500000000E+03 0.  0.
   -5000001    1    1    2    0    0  0.55857387243E+01  0.27713319940E+02  0.18981565904E+03  0.25308933798E+03  0.16500000000E+03 0.  0.
<mgrwt>
<rscale>  0 0.34889135E+03</rscale>
<asrwt>0</asrwt>
<pdfrwt beam="1">  1        2 0.12576035E-01 0.34889135E+03</pdfrwt>
<pdfrwt beam="2">  1       -2 0.49383357E-01 0.34889135E+03</pdfrwt>
<totfact> 0.19100406E+03</totfact>
</mgrwt>
</event>
<event>
 4    1  0.5323640E-005  0.4948715E+03  0.7818608E-02  0.1015126E+00
          2   -1    0    0  501    0  0.00000000000E+00  0.00000000000E+00  0.99669468064E+03  0.99669468065E+03  0.25500000000E-02 0.  1.
         -2   -1    0    0    0  501 -0.00000000000E+00 -0.00000000000E+00 -0.61427484227E+02  0.61427484280E+02  0.25500000000E-02 0. -1.
    5000001    1    1    2    0    0  0.16568728407E+03  0.22663062806E+02  0.30154873026E+03  0.38225976408E+03  0.16500000000E+03 0.  0.
   -5000001    1    1    2    0    0 -0.16568728407E+03 -0.22663062806E+02  0.63371846616E+03  0.67586240084E+03  0.16500000000E+03 0.  0.
<mgrwt>
<rscale>  0 0.49487149E+03</rscale>
<asrwt>0</asrwt>
<pdfrwt beam="1">  1        2 0.14238495E+00 0.49487149E+03</pdfrwt>
<pdfrwt beam="2">  1       -2 0.87753549E-02 0.49487149E+03</pdfrwt>
<totfact> 0.23970425E+03</totfact>
</mgrwt>
</event>
<event>
 4    1  0.5323640E-005  0.4456296E+03  0.7818608E-02  0.1029033E+00
         -2   -1    0    0    0  501 -0.00000000000E+00  0.00000000000E+00  0.14778784517E+03  0.14778784519E+03  0.25500000000E-02 0. -1.
          2   -1    0    0  501    0  0.00000000000E+00 -0.00000000000E+00 -0.33593046184E+03  0.33593046185E+03  0.25500000000E-02 0.  1.
    5000001    1    1    2    0    0  0.11703031429E+03  0.77536456121E+02 -0.15061430168E+03  0.26385159534E+03  0.16500000000E+03 0.  0.
   -5000001    1    1    2    0    0 -0.11703031429E+03 -0.77536456121E+02 -0.37528314984E+02  0.21986671170E+03  0.16500000000E+03 0.  0.
<mgrwt>
<rscale>  0 0.44562962E+03</rscale>
<asrwt>0</asrwt>
<pdfrwt beam="1">  1        2 0.47990066E-01 0.44562962E+03</pdfrwt>
<pdfrwt beam="2">  1       -2 0.21112549E-01 0.44562962E+03</pdfrwt>
<totfact> 0.20216287E+03</totfact>
</mgrwt>
</event>
<event>
 4    1  0.5323640E-005  0.4723803E+03  0.7818608E-02  0.1021251E+00
          2   -1    0    0  501    0  0.00000000000E+00  0.00000000000E+00  0.31008879906E+04  0.31008879906E+04  0.25500000000E-02 0.  1.
         -2   -1    0    0    0  501 -0.00000000000E+00 -0.00000000000E+00 -0.17990263682E+02  0.17990263862E+02  0.25500000000E-02 0. -1.
    5000001    1    1    2    0    0  0.68965418364E+02  0.12746132495E+03  0.21154530786E+04  0.21268214184E+04  0.16500000000E+03 0.  0.
   -5000001    1    1    2    0    0 -0.68965418364E+02 -0.12746132495E+03  0.96744464833E+03  0.99205683601E+03  0.16500000000E+03 0.  0.
<mgrwt>
<rscale>  0 0.47238033E+03</rscale>
<asrwt>0</asrwt>
<pdfrwt beam="1">  1        2 0.44298344E+00 0.47238033E+03</pdfrwt>
<pdfrwt beam="2">  1       -2 0.25700409E-02 0.47238033E+03</pdfrwt>
<totfact> 0.12755843E+03</totfact>
</mgrwt>
</event>
<event>
 4    1  0.5323640E-005  0.4844148E+03  0.7818608E-02  0.1017929E+00
          2   -1    0    0  501    0  0.00000000000E+00  0.00000000000E+00  0.10430800809E+03  0.10430800812E+03  0.25500000000E-02 0.  1.
         -2   -1    0    0    0  501 -0.00000000000E+00 -0.00000000000E+00 -0.56241538475E+03  0.56241538475E+03  0.25500000000E-02 0. -1.
    5000001    1    1    2    0    0  0.69959103789E+02 -0.16249680576E+03 -0.21277198357E+03  0.32217449476E+03  0.16500000000E+03 0.  0.
   -5000001    1    1    2    0    0 -0.69959103789E+02  0.16249680576E+03 -0.24533539309E+03  0.34454889811E+03  0.16500000000E+03 0.  0.
<mgrwt>
<rscale>  0 0.48441482E+03</rscale>
<asrwt>0</asrwt>
<pdfrwt beam="1">  1        2 0.14901144E-01 0.48441482E+03</pdfrwt>
<pdfrwt beam="2">  1       -2 0.80345053E-01 0.48441482E+03</pdfrwt>
<totfact> 0.55772988E+02</totfact>
</mgrwt>
</event>
<event>
 4    1  0.5323640E-005  0.1026717E+04  0.7818608E-02  0.9279718E-01
         -2   -1    0    0    0  501 -0.00000000000E+00  0.00000000000E+00  0.64276609019E+03  0.64276609019E+03  0.25500000000E-02 0. -1.
          2   -1    0    0  501    0  0.00000000000E+00 -0.00000000000E+00 -0.41000423704E+03  0.41000423704E+03  0.25500000000E-02 0.  1.
    5000001    1    1    2    0    0 -0.27324066265E+03  0.81801779375E+02  0.52001939920E+03  0.61562745746E+03  0.16500000000E+03 0.  0.
   -5000001    1    1    2    0    0  0.27324066265E+03 -0.81801779375E+02 -0.28725754604E+03  0.43714286978E+03  0.16500000000E+03 0.  0.
<mgrwt>
<rscale>  0 0.10267167E+04</rscale>
<asrwt>0</asrwt>
<pdfrwt beam="1">  1        2 0.58572034E-01 0.10267167E+04</pdfrwt>
<pdfrwt beam="2">  1       -2 0.91823726E-01 0.10267167E+04</pdfrwt>
<totfact> 0.84678124E+01</totfact>
</mgrwt>
</event>
<event>
 4    1  0.5323640E-005  0.4372172E+03  0.7818608E-02  0.1031604E+00
          2   -1    0    0  501    0  0.00000000000E+00  0.00000000000E+00  0.13227654258E+04  0.13227654258E+04  0.25500000000E-02 0.  1.
         -2   -1    0    0    0  501 -0.00000000000E+00 -0.00000000000E+00 -0.36128648576E+02  0.36128648666E+02  0.25500000000E-02 0. -1.
    5000001    1    1    2    0    0 -0.51154104111E+02 -0.41088024753E+02  0.24699893813E+03  0.30420132081E+03  0.16500000000E+03 0.  0.
   -5000001    1    1    2    0    0  0.51154104111E+02  0.41088024753E+02  0.10396378391E+04  0.10546927536E+04  0.16500000000E+03 0.  0.
<mgrwt>
<rscale>  0 0.43721723E+03</rscale>
<asrwt>0</asrwt>
<pdfrwt beam="1">  1        2 0.18896652E+00 0.43721723E+03</pdfrwt>
<pdfrwt beam="2">  1       -2 0.51612347E-02 0.43721723E+03</pdfrwt>
<totfact> 0.36034420E+03</totfact>
</mgrwt>
</event>
<event>
 4    1  0.5323640E-005  0.3998482E+03  0.7818608E-02  0.1043832E+00
         -2   -1    0    0    0  501 -0.00000000000E+00  0.00000000000E+00  0.10324362900E+03  0.10324362903E+03  0.25500000000E-02 0. -1.
          2   -1    0    0  501    0  0.00000000000E+00 -0.00000000000E+00 -0.38713909816E+03  0.38713909817E+03  0.25500000000E-02 0.  1.
    5000001    1    1    2    0    0  0.95556010068E+02  0.58979962036E+02 -0.12769491135E+03  0.23694002905E+03  0.16500000000E+03 0.  0.
   -5000001    1    1    2    0    0 -0.95556010068E+02 -0.58979962036E+02 -0.15620055781E+03  0.25344269814E+03  0.16500000000E+03 0.  0.
<mgrwt>
<rscale>  0 0.39984820E+03</rscale>
<asrwt>0</asrwt>
<pdfrwt beam="1">  1        2 0.55305585E-01 0.39984820E+03</pdfrwt>
<pdfrwt beam="2">  1       -2 0.14749090E-01 0.39984820E+03</pdfrwt>
<totfact> 0.31821422E+03</totfact>
</mgrwt>
</event>
<event>
 4    1  0.5323640E-005  0.4561825E+03  0.7818608E-02  0.1025894E+00
         -2   -1    0    0    0  501 -0.00000000000E+00  0.00000000000E+00  0.36162702930E+03  0.36162702931E+03  0.25500000000E-02 0. -1.
          2   -1    0    0  501    0  0.00000000000E+00 -0.00000000000E+00 -0.14386540575E+03  0.14386540577E+03  0.25500000000E-02 0.  1.
    5000001    1    1    2    0    0  0.13532638466E+03  0.77979928039E+02  0.13122254480E+03  0.26237083646E+03  0.16500000000E+03 0.  0.
   -5000001    1    1    2    0    0 -0.13532638466E+03 -0.77979928039E+02  0.86539078756E+02  0.24312159862E+03  0.16500000000E+03 0.  0.
<mgrwt>
<rscale>  0 0.45618250E+03</rscale>
<asrwt>0</asrwt>
<pdfrwt beam="1">  1        2 0.20552201E-01 0.45618250E+03</pdfrwt>
<pdfrwt beam="2">  1       -2 0.51661004E-01 0.45618250E+03</pdfrwt>
<totfact> 0.97555642E+02</totfact>
</mgrwt>
</event>
<event>
 4    1  0.5323640E-005  0.7637370E+03  0.7818608E-02  0.9614042E-01
         -2   -1    0    0    0  501 -0.00000000000E+00  0.00000000000E+00  0.84164987337E+02  0.84164987376E+02  0.25500000000E-02 0. -1.
          2   -1    0    0  501    0  0.00000000000E+00 -0.00000000000E+00 -0.17325916758E+04  0.17325916758E+04  0.25500000000E-02 0.  1.
    5000001    1    1    2    0    0 -0.28331530409E+03  0.19460395449E+03 -0.87524873628E+03  0.95468508472E+03  0.16500000000E+03 0.  0.
   -5000001    1    1    2    0    0  0.28331530409E+03 -0.19460395449E+03 -0.77317795216E+03  0.86207157843E+03  0.16500000000E+03 0.  0.
<mgrwt>
<rscale>  0 0.76373701E+03</rscale>
<asrwt>0</asrwt>
<pdfrwt beam="1">  1        2 0.24751308E+00 0.76373701E+03</pdfrwt>
<pdfrwt beam="2">  1       -2 0.12023571E-01 0.76373701E+03</pdfrwt>
<totfact> 0.56700854E+02</totfact>
</mgrwt>
</event>
<event>
 4    1  0.5323640E-005  0.3561405E+03  0.7818608E-02  0.1060123E+00
          2   -1    0    0  501    0  0.00000000000E+00  0.00000000000E+00  0.15358950411E+04  0.15358950411E+04  0.25500000000E-02 0.  1.
         -2   -1    0    0    0  501 -0.00000000000E+00 -0.00000000000E+00 -0.20645301579E+02  0.20645301736E+02  0.25500000000E-02 0. -1.
    5000001    1    1    2    0    0 -0.24929875276E+02 -0.44904075213E+02  0.56983527419E+03  0.59546210153E+03  0.16500000000E+03 0.  0.
   -5000001    1    1    2    0    0  0.24929875276E+02  0.44904075213E+02  0.94541446534E+03  0.96107824132E+03  0.16500000000E+03 0.  0.
<mgrwt>
<rscale>  0 0.35614051E+03</rscale>
<asrwt>0</asrwt>
<pdfrwt beam="1">  1        2 0.21941366E+00 0.35614051E+03</pdfrwt>
<pdfrwt beam="2">  1       -2 0.29493277E-02 0.35614051E+03</pdfrwt>
<totfact> 0.65250217E+03</totfact>
</mgrwt>
</event>
<event>
 4    1  0.5323640E-005  0.6615833E+03  0.7818608E-02  0.9785283E-01
          2   -1    0    0  501    0  0.00000000000E+00  0.00000000000E+00  0.29319929434E+04  0.29319929434E+04  0.25500000000E-02 0.  1.
         -2   -1    0    0    0  501 -0.00000000000E+00 -0.00000000000E+00 -0.37320392576E+02  0.37320392663E+02  0.25500000000E-02 0. -1.
    5000001    1    1    2    0    0  0.79381519138E+02  0.16955692247E+03  0.24218752306E+04  0.24346982581E+04  0.16500000000E+03 0.  0.
   -5000001    1    1    2    0    0 -0.79381519138E+02 -0.16955692247E+03  0.47279732018E+03  0.53461507789E+03  0.16500000000E+03 0.  0.
<mgrwt>
<rscale>  0 0.66158334E+03</rscale>
<asrwt>0</asrwt>
<pdfrwt beam="1">  1        2 0.41885617E+00 0.66158334E+03</pdfrwt>
<pdfrwt beam="2">  1       -2 0.53314842E-02 0.66158334E+03</pdfrwt>
<totfact> 0.50693012E+02</totfact>
</mgrwt>
</event>
<event>
 4    1  0.5323640E-005  0.4852931E+03  0.7818608E-02  0.1017691E+00
         -2   -1    0    0    0  501 -0.00000000000E+00  0.00000000000E+00  0.10840555496E+03  0.10840555499E+03  0.25500000000E-02 0. -1.
          2   -1    0    0  501    0  0.00000000000E+00 -0.00000000000E+00 -0.54312111860E+03  0.54312111860E+03  0.25500000000E-02 0.  1.
    5000001    1    1    2    0    0  0.86044299224E+02 -0.10525787097E+03 -0.63289647168E+02  0.22296506513E+03  0.16500000000E+03 0.  0.
   -5000001    1    1    2    0    0 -0.86044299224E+02  0.10525787097E+03 -0.37142591647E+03  0.42856160847E+03  0.16500000000E+03 0.  0.
<mgrwt>
<rscale>  0 0.48529309E+03</rscale>
<asrwt>0</asrwt>
<pdfrwt beam="1">  1        2 0.77588730E-01 0.48529309E+03</pdfrwt>
<pdfrwt beam="2">  1       -2 0.15486508E-01 0.48529309E+03</pdfrwt>
<totfact> 0.20147046E+03</totfact>
</mgrwt>
</event>
<event>
 4    1  0.5323640E-005  0.6086183E+03  0.7818608E-02  0.9887685E-01
          2   -1    0    0  501    0  0.00000000000E+00  0.00000000000E+00  0.39029762225E+03  0.39029762226E+03  0.25500000000E-02 0.  1.
         -2   -1    0    0    0  501 -0.00000000000E+00 -0.00000000000E+00 -0.23726527513E+03  0.23726527514E+03  0.25500000000E-02 0. -1.
    5000001    1    1    2    0    0 -0.19903845048E+03  0.98741924163E+00  0.24201703663E+03  0.35413913337E+03  0.16500000000E+03 0.  0.
   -5000001    1    1    2    0    0  0.19903845048E+03 -0.98741924163E+00 -0.88984689513E+02  0.27342376403E+03  0.16500000000E+03 0.  0.
<mgrwt>
<rscale>  0 0.60861835E+03</rscale>
<asrwt>0</asrwt>
<pdfrwt beam="1">  1        2 0.55756802E-01 0.60861835E+03</pdfrwt>
<pdfrwt beam="2">  1       -2 0.33895040E-01 0.60861835E+03</pdfrwt>
<totfact> 0.72740929E+02</totfact>
</mgrwt>
</event>
<event>
 4    1  0.5323640E-005  0.4259199E+03  0.7818608E-02  0.1035157E+00
          2   -1    0    0  501    0  0.00000000000E+00  0.00000000000E+00  0.13981315587E+04  0.13981315587E+04  0.25500000000E-02 0.  1.
         -2   -1    0    0    0  501 -0.00000000000E+00 -0.00000000000E+00 -0.32437529750E+02  0.32437529850E+02  0.25500000000E-02 0. -1.
    5000001    1    1    2    0    0  0.93981312919E+02  0.96370652866E+02  0.67386947246E+03  0.70671412596E+03  0.16500000000E+03 0.  0.
   -5000001    1    1    2    0    0 -0.93981312919E+02 -0.96370652866E+02  0.69182455647E+03  0.72385496257E+03  0.16500000000E+03 0.  0.
<mgrwt>
<rscale>  0 0.42591987E+03</rscale>
<asrwt>0</asrwt>
<pdfrwt beam="1">  1        2 0.19973311E+00 0.42591987E+03</pdfrwt>
<pdfrwt beam="2">  1       -2 0.46339321E-02 0.42591987E+03</pdfrwt>
<totfact> 0.38795704E+03</totfact>
</mgrwt>
</event>
<event>
 4    1  0.5323640E-005  0.4225209E+03  0.7818608E-02  0.1036249E+00
          2   -1    0    0  501    0  0.00000000000E+00  0.00000000000E+00  0.38630824946E+03  0.38630824947E+03  0.25500000000E-02 0.  1.
         -2   -1    0    0    0  501 -0.00000000000E+00 -0.00000000000E+00 -0.11553204780E+03  0.11553204782E+03  0.25500000000E-02 0. -1.
    5000001    1    1    2    0    0  0.14917908783E+02  0.11426745584E+03  0.59092003525E+02  0.20975333215E+03  0.16500000000E+03 0.  0.
   -5000001    1    1    2    0    0 -0.14917908783E+02 -0.11426745584E+03  0.21168419814E+03  0.29208696515E+03  0.16500000000E+03 0.  0.
<mgrwt>
<rscale>  0 0.42252093E+03</rscale>
<asrwt>0</asrwt>
<pdfrwt beam="1">  1        2 0.55186894E-01 0.42252093E+03</pdfrwt>
<pdfrwt beam="2">  1       -2 0.16504578E-01 0.42252093E+03</pdfrwt>
<totfact> 0.26440336E+03</totfact>
</mgrwt>
</event>
<event>
 4    1  0.5323640E-005  0.6701461E+03  0.7818608E-02  0.9769694E-01
          2   -1    0    0  501    0  0.00000000000E+00  0.00000000000E+00  0.59458256331E+02  0.59458256386E+02  0.25500000000E-02 0.  1.
         -2   -1    0    0    0  501 -0.00000000000E+00 -0.00000000000E+00 -0.18882816851E+04  0.18882816851E+04  0.25500000000E-02 0. -1.
    5000001    1    1    2    0    0  0.62116046021E+02  0.18287987141E+03 -0.15494905775E+04  0.15701749903E+04  0.16500000000E+03 0.  0.
   -5000001    1    1    2    0    0 -0.62116046021E+02 -0.18287987141E+03 -0.27933285130E+03  0.37756495117E+03  0.16500000000E+03 0.  0.
<mgrwt>
<rscale>  0 0.67014606E+03</rscale>
<asrwt>0</asrwt>
<pdfrwt beam="1">  1        2 0.84940378E-02 0.67014606E+03</pdfrwt>
<pdfrwt beam="2">  1       -2 0.26975449E+00 0.67014606E+03</pdfrwt>
<totfact> 0.41469543E+01</totfact>
</mgrwt>
</event>
<event>
 4    1  0.5323640E-005  0.7259849E+03  0.7818608E-02  0.9673798E-01
          2   -1    0    0  501    0  0.00000000000E+00  0.00000000000E+00  0.51976992648E+03  0.51976992648E+03  0.25500000000E-02 0.  1.
         -2   -1    0    0    0  501 -0.00000000000E+00 -0.00000000000E+00 -0.25350351887E+03  0.25350351888E+03  0.25500000000E-02 0. -1.
    5000001    1    1    2    0    0  0.29870113544E+03  0.49875728214E+01  0.14206459306E+01  0.34128325835E+03  0.16500000000E+03 0.  0.
   -5000001    1    1    2    0    0 -0.29870113544E+03 -0.49875728214E+01  0.26484576168E+03  0.43199018701E+03  0.16500000000E+03 0.  0.
<mgrwt>
<rscale>  0 0.72598486E+03</rscale>
<asrwt>0</asrwt>
<pdfrwt beam="1">  1        2 0.74252846E-01 0.72598486E+03</pdfrwt>
<pdfrwt beam="2">  1       -2 0.36214789E-01 0.72598486E+03</pdfrwt>
<totfact> 0.46319941E+02</totfact>
</mgrwt>
</event>
<event>
 4    1  0.5323640E-005  0.4169650E+03  0.7818608E-02  0.1038059E+00
          2   -1    0    0  501    0  0.00000000000E+00  0.00000000000E+00  0.21116800553E+04  0.21116800553E+04  0.25500000000E-02 0.  1.
         -2   -1    0    0    0  501 -0.00000000000E+00 -0.00000000000E+00 -0.20583112631E+02  0.20583112789E+02  0.25500000000E-02 0. -1.
    5000001    1    1    2    0    0  0.12029105797E+03  0.35597199489E+02  0.93087573619E+03  0.95367276120E+03  0.16500000000E+03 0.  0.
   -5000001    1    1    2    0    0 -0.12029105797E+03 -0.35597199489E+02  0.11602212065E+04  0.11785904069E+04  0.16500000000E+03 0.  0.
<mgrwt>
<rscale>  0 0.41696498E+03</rscale>
<asrwt>0</asrwt>
<pdfrwt beam="1">  1        2 0.30166844E+00 0.41696498E+03</pdfrwt>
<pdfrwt beam="2">  1       -2 0.29404460E-02 0.41696498E+03</pdfrwt>
<totfact> 0.33863749E+03</totfact>
</mgrwt>
</event>
<event>
 4    1  0.5323640E-005  0.3865811E+03  0.7818608E-02  0.1048528E+00
         -2   -1    0    0    0  501 -0.00000000000E+00  0.00000000000E+00  0.41197765793E+03  0.41197765793E+03  0.25500000000E-02 0. -1.
          2   -1    0    0  501    0  0.00000000000E+00 -0.00000000000E+00 -0.90687541223E+02  0.90687541258E+02  0.25500000000E-02 0.  1.
    5000001    1    1    2    0    0 -0.39226189700E+02  0.88385479545E+02  0.12420104724E+03  0.22803856492E+03  0.16500000000E+03 0.  0.
   -5000001    1    1    2    0    0  0.39226189700E+02 -0.88385479545E+02  0.19708906946E+03  0.27462663428E+03  0.16500000000E+03 0.  0.
<mgrwt>
<rscale>  0 0.38658112E+03</rscale>
<asrwt>0</asrwt>
<pdfrwt beam="1">  1        2 0.12955363E-01 0.38658112E+03</pdfrwt>
<pdfrwt beam="2">  1       -2 0.58853950E-01 0.38658112E+03</pdfrwt>
<totfact> 0.12902374E+03</totfact>
</mgrwt>
</event>
<event>
 4    1  0.5323640E-005  0.5125673E+03  0.7818608E-02  0.1010550E+00
         -2   -1    0    0    0  501 -0.00000000000E+00  0.00000000000E+00  0.12245926500E+03  0.12245926503E+03  0.25500000000E-02 0. -1.
          2   -1    0    0  501    0  0.00000000000E+00 -0.00000000000E+00 -0.53635233816E+03  0.53635233816E+03  0.25500000000E-02 0.  1.
    5000001    1    1    2    0    0  0.14162508947E+03  0.53587509887E+01 -0.38115293104E+03  0.43884956309E+03  0.16500000000E+03 0.  0.
   -5000001    1    1    2    0    0 -0.14162508947E+03 -0.53587509887E+01 -0.32740142110E+02  0.21996204010E+03  0.16500000000E+03 0.  0.
<mgrwt>
<rscale>  0 0.51256732E+03</rscale>
<asrwt>0</asrwt>
<pdfrwt beam="1">  1        2 0.76621761E-01 0.51256732E+03</pdfrwt>
<pdfrwt beam="2">  1       -2 0.17494181E-01 0.51256732E+03</pdfrwt>
<totfact> 0.16629243E+03</totfact>
</mgrwt>
</event>
<event>
 4    1  0.5323640E-005  0.3791718E+03  0.7818608E-02  0.1051240E+00
         -2   -1    0    0    0  501 -0.00000000000E+00  0.00000000000E+00  0.80052787953E+02  0.80052787994E+02  0.25500000000E-02 0. -1.
          2   -1    0    0  501    0  0.00000000000E+00 -0.00000000000E+00 -0.44898901626E+03  0.44898901627E+03  0.25500000000E-02 0.  1.
    5000001    1    1    2    0    0 -0.78965245617E+02  0.49752028584E+02 -0.18817229186E+03  0.26710407295E+03  0.16500000000E+03 0.  0.
   -5000001    1    1    2    0    0  0.78965245617E+02 -0.49752028584E+02 -0.18076393645E+03  0.26193773131E+03  0.16500000000E+03 0.  0.
<mgrwt>
<rscale>  0 0.37917185E+03</rscale>
<asrwt>0</asrwt>
<pdfrwt beam="1">  1        2 0.64141287E-01 0.37917185E+03</pdfrwt>
<pdfrwt beam="2">  1       -2 0.11436113E-01 0.37917185E+03</pdfrwt>
<totfact> 0.41016072E+03</totfact>
</mgrwt>
</event>
<event>
 4    1  0.5323640E-005  0.4486999E+03  0.7818608E-02  0.1028110E+00
         -2   -1    0    0    0  501 -0.00000000000E+00  0.00000000000E+00  0.33993357574E+02  0.33993357669E+02  0.25500000000E-02 0. -1.
          2   -1    0    0  501    0  0.00000000000E+00 -0.00000000000E+00 -0.14806689491E+04  0.14806689491E+04  0.25500000000E-02 0.  1.
    5000001    1    1    2    0    0  0.15133837478E+03 -0.65542301772E+01 -0.76625627180E+03  0.79832320252E+03  0.16500000000E+03 0.  0.
   -5000001    1    1    2    0    0 -0.15133837478E+03  0.65542301772E+01 -0.68041931969E+03  0.71633910421E+03  0.16500000000E+03 0.  0.
<mgrwt>
<rscale>  0 0.44869994E+03</rscale>
<asrwt>0</asrwt>
<pdfrwt beam="1">  1        2 0.21152409E+00 0.44869994E+03</pdfrwt>
<pdfrwt beam="2">  1       -2 0.48561949E-02 0.44869994E+03</pdfrwt>
<totfact> 0.32700711E+03</totfact>
</mgrwt>
</event>
<event>
 4    1  0.5323640E-005  0.1338726E+04  0.7818608E-02  0.8999407E-01
          2   -1    0    0  501    0  0.00000000000E+00  0.00000000000E+00  0.15708902055E+04  0.15708902055E+04  0.25500000000E-02 0.  1.
         -2   -1    0    0    0  501 -0.00000000000E+00 -0.00000000000E+00 -0.28521838325E+03  0.28521838326E+03  0.25500000000E-02 0. -1.
    5000001    1    1    2    0    0 -0.39748518535E+03  0.49041727604E+03  0.43570678516E+03  0.78458204150E+03  0.16500000000E+03 0.  0.
   -5000001    1    1    2    0    0  0.39748518535E+03 -0.49041727604E+03  0.84996503705E+03  0.10715265472E+04  0.16500000000E+03 0.  0.
<mgrwt>
<rscale>  0 0.13387259E+04</rscale>
<asrwt>0</asrwt>
<pdfrwt beam="1">  1        2 0.22441289E+00 0.13387259E+04</pdfrwt>
<pdfrwt beam="2">  1       -2 0.40745483E-01 0.13387259E+04</pdfrwt>
<totfact> 0.74758415E+01</totfact>
</mgrwt>
</event>
<event>
 4    1  0.5323640E-005  0.4859112E+03  0.7818608E-02  0.1017523E+00
         -2   -1    0    0    0  501 -0.00000000000E+00  0.00000000000E+00  0.28196812027E+02  0.28196812142E+02  0.25500000000E-02 0. -1.
          2   -1    0    0  501    0  0.00000000000E+00 -0.00000000000E+00 -0.20934073303E+04  0.20934073303E+04  0.25500000000E-02 0.  1.
    5000001    1    1    2    0    0 -0.50262549983E+02  0.16801225751E+03 -0.11739507681E+04  0.11983905242E+04  0.16500000000E+03 0.  0.
   -5000001    1    1    2    0    0  0.50262549983E+02 -0.16801225751E+03 -0.89125975016E+03  0.92321361822E+03  0.16500000000E+03 0.  0.
<mgrwt>
<rscale>  0 0.48591116E+03</rscale>
<asrwt>0</asrwt>
<pdfrwt beam="1">  1        2 0.29905809E+00 0.48591116E+03</pdfrwt>
<pdfrwt beam="2">  1       -2 0.40281173E-02 0.48591116E+03</pdfrwt>
<totfact> 0.21397294E+03</totfact>
</mgrwt>
</event>
<event>
 4    1  0.5323640E-005  0.5325452E+03  0.7818608E-02  0.1005617E+00
          2   -1    0    0  501    0  0.00000000000E+00  0.00000000000E+00  0.72629218116E+03  0.72629218117E+03  0.25500000000E-02 0.  1.
         -2   -1    0    0    0  501 -0.00000000000E+00 -0.00000000000E+00 -0.97620621812E+02  0.97620621845E+02  0.25500000000E-02 0. -1.
    5000001    1    1    2    0    0 -0.22690561973E+02  0.17767415045E+03  0.14775491153E+03  0.28484992403E+03  0.16500000000E+03 0.  0.
   -5000001    1    1    2    0    0  0.22690561973E+02 -0.17767415045E+03  0.48091664782E+03  0.53906287898E+03  0.16500000000E+03 0.  0.
<mgrwt>
<rscale>  0 0.53254519E+03</rscale>
<asrwt>0</asrwt>
<pdfrwt beam="1">  1        2 0.10375603E+00 0.53254519E+03</pdfrwt>
<pdfrwt beam="2">  1       -2 0.13945803E-01 0.53254519E+03</pdfrwt>
<totfact> 0.17020711E+03</totfact>
</mgrwt>
</event>
<event>
 4    1  0.5323640E-005  0.3742524E+03  0.7818608E-02  0.1053079E+00
         -2   -1    0    0    0  501 -0.00000000000E+00  0.00000000000E+00  0.58175745708E+02  0.58175745764E+02  0.25500000000E-02 0. -1.
          2   -1    0    0  501    0  0.00000000000E+00 -0.00000000000E+00 -0.60190410099E+03  0.60190410100E+03  0.25500000000E-02 0.  1.
    5000001    1    1    2    0    0  0.87446129010E+02  0.21882918274E+01 -0.25102485299E+03  0.31287392176E+03  0.16500000000E+03 0.  0.
   -5000001    1    1    2    0    0 -0.87446129010E+02 -0.21882918274E+01 -0.29270350230E+03  0.34720592500E+03  0.16500000000E+03 0.  0.
<mgrwt>
<rscale>  0 0.37425243E+03</rscale>
<asrwt>0</asrwt>
<pdfrwt beam="1">  1        2 0.85986296E-01 0.37425243E+03</pdfrwt>
<pdfrwt beam="2">  1       -2 0.83108212E-02 0.37425243E+03</pdfrwt>
<totfact> 0.49094413E+03</totfact>
</mgrwt>
</event>
<event>
 4    1  0.5323640E-005  0.4274799E+03  0.7818608E-02  0.1034659E+00
          2   -1    0    0  501    0  0.00000000000E+00  0.00000000000E+00  0.42450865526E+03  0.42450865526E+03  0.25500000000E-02 0.  1.
         -2   -1    0    0    0  501 -0.00000000000E+00 -0.00000000000E+00 -0.10761799572E+03  0.10761799575E+03  0.25500000000E-02 0. -1.
    5000001    1    1    2    0    0 -0.12521797846E+03  0.52207118881E+02  0.16764718815E+03  0.27154319194E+03  0.16500000000E+03 0.  0.
   -5000001    1    1    2    0    0  0.12521797846E+03 -0.52207118881E+02  0.14924347138E+03  0.26058345907E+03  0.16500000000E+03 0.  0.
<mgrwt>
<rscale>  0 0.42747992E+03</rscale>
<asrwt>0</asrwt>
<pdfrwt beam="1">  1        2 0.60644094E-01 0.42747992E+03</pdfrwt>
<pdfrwt beam="2">  1       -2 0.15373999E-01 0.42747992E+03</pdfrwt>
<totfact> 0.26858596E+03</totfact>
</mgrwt>
</event>
<event>
 4    1  0.5323640E-005  0.4710672E+03  0.7818608E-02  0.1021619E+00
         -2   -1    0    0    0  501 -0.00000000000E+00  0.00000000000E+00  0.25579406444E+02  0.25579406571E+02  0.25500000000E-02 0. -1.
          2   -1    0    0  501    0  0.00000000000E+00 -0.00000000000E+00 -0.21687792317E+04  0.21687792317E+04  0.25500000000E-02 0.  1.
    5000001    1    1    2    0    0 -0.11446973404E+03 -0.23413667542E+00 -0.49827843683E+03  0.53722413892E+03  0.16500000000E+03 0.  0.
   -5000001    1    1    2    0    0  0.11446973404E+03  0.23413667542E+00 -0.16449213885E+04  0.16571344994E+04  0.16500000000E+03 0.  0.
<mgrwt>
<rscale>  0 0.47106724E+03</rscale>
<asrwt>0</asrwt>
<pdfrwt beam="1">  1        2 0.30982549E+00 0.47106724E+03</pdfrwt>
<pdfrwt beam="2">  1       -2 0.36542023E-02 0.47106724E+03</pdfrwt>
<totfact> 0.22781960E+03</totfact>
</mgrwt>
</event>
<event>
 4    1  0.5323640E-005  0.4298884E+03  0.7818608E-02  0.1033895E+00
          2   -1    0    0  501    0  0.00000000000E+00  0.00000000000E+00  0.71918057527E+02  0.71918057572E+02  0.25500000000E-02 0.  1.
         -2   -1    0    0    0  501 -0.00000000000E+00 -0.00000000000E+00 -0.64241170688E+03  0.64241170688E+03  0.25500000000E-02 0. -1.
    5000001    1    1    2    0    0 -0.72465566888E+02  0.10247716563E+03 -0.37958445118E+03  0.43250685941E+03  0.16500000000E+03 0.  0.
   -5000001    1    1    2    0    0  0.72465566888E+02 -0.10247716563E+03 -0.19090919817E+03  0.28182290504E+03  0.16500000000E+03 0.  0.
<mgrwt>
<rscale>  0 0.42988837E+03</rscale>
<asrwt>0</asrwt>
<pdfrwt beam="1">  1        2 0.10274009E-01 0.42988837E+03</pdfrwt>
<pdfrwt beam="2">  1       -2 0.91773098E-01 0.42988837E+03</pdfrwt>
<totfact> 0.65242193E+02</totfact>
</mgrwt>
</event>
<event>
 4    1  0.5323640E-005  0.6110653E+03  0.7818608E-02  0.9882711E-01
         -2   -1    0    0    0  501 -0.00000000000E+00  0.00000000000E+00  0.63732847555E+02  0.63732847606E+02  0.25500000000E-02 0. -1.
          2   -1    0    0  501    0  0.00000000000E+00 -0.00000000000E+00 -0.14647110547E+04  0.14647110547E+04  0.25500000000E-02 0.  1.
    5000001    1    1    2    0    0 -0.14491624329E+03  0.13493921590E+03 -0.29012790055E+03  0.38808312027E+03  0.16500000000E+03 0.  0.
   -5000001    1    1    2    0    0  0.14491624329E+03 -0.13493921590E+03 -0.11108503066E+04  0.11403607820E+04  0.16500000000E+03 0.  0.
<mgrwt>
<rscale>  0 0.61106532E+03</rscale>
<asrwt>0</asrwt>
<pdfrwt beam="1">  1        2 0.20924441E+00 0.61106532E+03</pdfrwt>
<pdfrwt beam="2">  1       -2 0.91046935E-02 0.61106532E+03</pdfrwt>
<totfact> 0.12365657E+03</totfact>
</mgrwt>
</event>
<event>
 4    1  0.5323640E-005  0.4503816E+03  0.7818608E-02  0.1027608E+00
         -2   -1    0    0    0  501 -0.00000000000E+00  0.00000000000E+00  0.30769456456E+02  0.30769456562E+02  0.25500000000E-02 0. -1.
          2   -1    0    0  501    0  0.00000000000E+00 -0.00000000000E+00 -0.16480921098E+04  0.16480921098E+04  0.25500000000E-02 0.  1.
    5000001    1    1    2    0    0  0.15014461185E+03  0.10204176939E+01 -0.92303695940E+03  0.94961396059E+03  0.16500000000E+03 0.  0.
   -5000001    1    1    2    0    0 -0.15014461185E+03 -0.10204176939E+01 -0.69428569399E+03  0.72924760582E+03  0.16500000000E+03 0.  0.
<mgrwt>
<rscale>  0 0.45038161E+03</rscale>
<asrwt>0</asrwt>
<pdfrwt beam="1">  1        2 0.23544167E+00 0.45038161E+03</pdfrwt>
<pdfrwt beam="2">  1       -2 0.43956377E-02 0.45038161E+03</pdfrwt>
<totfact> 0.31292562E+03</totfact>
</mgrwt>
</event>
<event>
 4    1  0.5323640E-005  0.4353101E+03  0.7818608E-02  0.1032196E+00
         -2   -1    0    0    0  501 -0.00000000000E+00  0.00000000000E+00  0.52044968912E+02  0.52044968975E+02  0.25500000000E-02 0. -1.
          2   -1    0    0  501    0  0.00000000000E+00 -0.00000000000E+00 -0.91024582786E+03  0.91024582786E+03  0.25500000000E-02 0.  1.
    5000001    1    1    2    0    0  0.12257750803E+03  0.46203030456E+02 -0.30824882212E+03  0.37336617661E+03  0.16500000000E+03 0.  0.
   -5000001    1    1    2    0    0 -0.12257750803E+03 -0.46203030456E+02 -0.54995203683E+03  0.58892462023E+03  0.16500000000E+03 0.  0.
<mgrwt>
<rscale>  0 0.43531008E+03</rscale>
<asrwt>0</asrwt>
<pdfrwt beam="1">  1        2 0.13003511E+00 0.43531008E+03</pdfrwt>
<pdfrwt beam="2">  1       -2 0.74349961E-02 0.43531008E+03</pdfrwt>
<totfact> 0.35243452E+03</totfact>
</mgrwt>
</event>
<event>
 4    1  0.5323640E-005  0.4900156E+03  0.7818608E-02  0.1016418E+00
          2   -1    0    0  501    0  0.00000000000E+00  0.00000000000E+00  0.37012558018E+03  0.37012558019E+03  0.25500000000E-02 0.  1.
         -2   -1    0    0    0  501 -0.00000000000E+00 -0.00000000000E+00 -0.16218501129E+03  0.16218501131E+03  0.25500000000E-02 0. -1.
    5000001    1    1    2    0    0  0.14546551000E+03  0.90673472428E+02  0.40423928586E+02  0.24133169540E+03  0.16500000000E+03 0.  0.
   -5000001    1    1    2    0    0 -0.14546551000E+03 -0.90673472428E+02  0.16751664030E+03  0.29097889611E+03  0.16500000000E+03 0.  0.
<mgrwt>
<rscale>  0 0.49001560E+03</rscale>
<asrwt>0</asrwt>
<pdfrwt beam="1">  1        2 0.52875081E-01 0.49001560E+03</pdfrwt>
<pdfrwt beam="2">  1       -2 0.23169288E-01 0.49001560E+03</pdfrwt>
<totfact> 0.15451095E+03</totfact>
</mgrwt>
</event>
<event>
 4    1  0.5323640E-005  0.3872132E+03  0.7818608E-02  0.1048299E+00
          2   -1    0    0  501    0  0.00000000000E+00  0.00000000000E+00  0.25921648560E+03  0.25921648562E+03  0.25500000000E-02 0.  1.
         -2   -1    0    0    0  501 -0.00000000000E+00 -0.00000000000E+00 -0.14460309822E+03  0.14460309825E+03  0.25500000000E-02 0. -1.
    5000001    1    1    2    0    0  0.19143500099E+02  0.53267548680E+00 -0.46416010287E+02  0.17247087682E+03  0.16500000000E+03 0.  0.
   -5000001    1    1    2    0    0 -0.19143500099E+02 -0.53267548680E+00  0.16102939767E+03  0.23134870705E+03  0.16500000000E+03 0.  0.
<mgrwt>
<rscale>  0 0.38721316E+03</rscale>
<asrwt>0</asrwt>
<pdfrwt beam="1">  1        2 0.37030926E-01 0.38721316E+03</pdfrwt>
<pdfrwt beam="2">  1       -2 0.20657586E-01 0.38721316E+03</pdfrwt>
<totfact> 0.27816600E+03</totfact>
</mgrwt>
</event>
<event>
 4    1  0.5323640E-005  0.4616506E+03  0.7818608E-02  0.1024304E+00
          2   -1    0    0  501    0  0.00000000000E+00  0.00000000000E+00  0.24455996886E+03  0.24455996888E+03  0.25500000000E-02 0.  1.
         -2   -1    0    0    0  501 -0.00000000000E+00 -0.00000000000E+00 -0.21786195036E+03  0.21786195038E+03  0.25500000000E-02 0. -1.
    5000001    1    1    2    0    0 -0.14158634708E+03  0.53292349677E+02 -0.43034860666E+02  0.22795562605E+03  0.16500000000E+03 0.  0.
   -5000001    1    1    2    0    0  0.14158634708E+03 -0.53292349677E+02  0.69732879163E+02  0.23446629321E+03  0.16500000000E+03 0.  0.
<mgrwt>
<rscale>  0 0.46165057E+03</rscale>
<asrwt>0</asrwt>
<pdfrwt beam="1">  1        2 0.34937138E-01 0.46165057E+03</pdfrwt>
<pdfrwt beam="2">  1       -2 0.31123136E-01 0.46165057E+03</pdfrwt>
<totfact> 0.14284919E+03</totfact>
</mgrwt>
</event>
<event>
 4    1  0.5323640E-005  0.3792184E+03  0.7818608E-02  0.1051223E+00
          2   -1    0    0  501    0  0.00000000000E+00  0.00000000000E+00  0.64142103566E+03  0.64142103566E+03  0.25500000000E-02 0.  1.
         -2   -1    0    0    0  501 -0.00000000000E+00 -0.00000000000E+00 -0.56050006288E+02  0.56050006346E+02  0.25500000000E-02 0. -1.
    5000001    1    1    2    0    0 -0.40618410928E+02  0.82286870736E+02  0.32484153093E+03  0.37572330860E+03  0.16500000000E+03 0.  0.
   -5000001    1    1    2    0    0  0.40618410928E+02 -0.82286870736E+02  0.26052949844E+03  0.32174773341E+03  0.16500000000E+03 0.  0.
<mgrwt>
<rscale>  0 0.37921842E+03</rscale>
<asrwt>0</asrwt>
<pdfrwt beam="1">  1        2 0.91631564E-01 0.37921842E+03</pdfrwt>
<pdfrwt beam="2">  1       -2 0.80071448E-02 0.37921842E+03</pdfrwt>
<totfact> 0.48357721E+03</totfact>
</mgrwt>
</event>
<event>
 4    1  0.5323640E-005  0.5421814E+03  0.7818608E-02  0.1003320E+00
         -2   -1    0    0    0  501 -0.00000000000E+00  0.00000000000E+00  0.63745163254E+02  0.63745163305E+02  0.25500000000E-02 0. -1.
          2   -1    0    0  501    0  0.00000000000E+00 -0.00000000000E+00 -0.11528743615E+04  0.11528743615E+04  0.25500000000E-02 0.  1.
    5000001    1    1    2    0    0  0.20151237202E+03  0.35918155582E+02 -0.69286498000E+03  0.74106965292E+03  0.16500000000E+03 0.  0.
   -5000001    1    1    2    0    0 -0.20151237202E+03 -0.35918155582E+02 -0.39626421821E+03  0.47554987184E+03  0.16500000000E+03 0.  0.
<mgrwt>
<rscale>  0 0.54218139E+03</rscale>
<asrwt>0</asrwt>
<pdfrwt beam="1">  1        2 0.16469632E+00 0.54218139E+03</pdfrwt>
<pdfrwt beam="2">  1       -2 0.91064526E-02 0.54218139E+03</pdfrwt>
<totfact> 0.18293012E+03</totfact>
</mgrwt>
</event>
<event>
 4    1  0.5323640E-005  0.5703548E+03  0.7818608E-02  0.9968894E-01
         -2   -1    0    0    0  501 -0.00000000000E+00  0.00000000000E+00  0.40558341538E+02  0.40558341618E+02  0.25500000000E-02 0. -1.
          2   -1    0    0  501    0  0.00000000000E+00 -0.00000000000E+00 -0.20051642250E+04  0.20051642250E+04  0.25500000000E-02 0.  1.
    5000001    1    1    2    0    0 -0.20448342364E+03  0.46651260743E+02 -0.62163652527E+03  0.67649595729E+03  0.16500000000E+03 0.  0.
   -5000001    1    1    2    0    0  0.20448342364E+03 -0.46651260743E+02 -0.13429693582E+04  0.13692266093E+04  0.16500000000E+03 0.  0.
<mgrwt>
<rscale>  0 0.57035475E+03</rscale>
<asrwt>0</asrwt>
<pdfrwt beam="1">  1        2 0.28645197E+00 0.57035475E+03</pdfrwt>
<pdfrwt beam="2">  1       -2 0.57940501E-02 0.57035475E+03</pdfrwt>
<totfact> 0.13454211E+03</totfact>
</mgrwt>
</event>
<event>
 4    1  0.5323640E-005  0.3971532E+03  0.7818608E-02  0.1044770E+00
         -2   -1    0    0    0  501 -0.00000000000E+00  0.00000000000E+00  0.83581106424E+02  0.83581106463E+02  0.25500000000E-02 0. -1.
          2   -1    0    0  501    0  0.00000000000E+00 -0.00000000000E+00 -0.47178915109E+03  0.47178915110E+03  0.25500000000E-02 0.  1.
    5000001    1    1    2    0    0  0.38583994982E+02 -0.95035036318E+02 -0.13666358826E+03  0.23753382739E+03  0.16500000000E+03 0.  0.
   -5000001    1    1    2    0    0 -0.38583994982E+02  0.95035036318E+02 -0.25154445641E+03  0.31783643017E+03  0.16500000000E+03 0.  0.
<mgrwt>
<rscale>  0 0.39715317E+03</rscale>
<asrwt>0</asrwt>
<pdfrwt beam="1">  1        2 0.67398449E-01 0.39715317E+03</pdfrwt>
<pdfrwt beam="2">  1       -2 0.11940158E-01 0.39715317E+03</pdfrwt>
<totfact> 0.36229549E+03</totfact>
</mgrwt>
</event>
<event>
 4    1  0.5323640E-005  0.4909879E+03  0.7818608E-02  0.1016158E+00
         -2   -1    0    0    0  501 -0.00000000000E+00  0.00000000000E+00  0.10740556008E+03  0.10740556011E+03  0.25500000000E-02 0.  1.
          2   -1    0    0  501    0  0.00000000000E+00 -0.00000000000E+00 -0.56111887642E+03  0.56111887643E+03  0.25500000000E-02 0. -1.
    5000001    1    1    2    0    0 -0.18156114360E+03  0.20855162069E+01 -0.23852898724E+03  0.34218397975E+03  0.16500000000E+03 0.  0.
   -5000001    1    1    2    0    0  0.18156114360E+03 -0.20855162069E+01 -0.21518432910E+03  0.32634045679E+03  0.16500000000E+03 0.  0.
<mgrwt>
<rscale>  0 0.49098793E+03</rscale>
<asrwt>0</asrwt>
<pdfrwt beam="1">  1        2 0.80159838E-01 0.49098793E+03</pdfrwt>
<pdfrwt beam="2">  1       -2 0.15343652E-01 0.49098793E+03</pdfrwt>
<totfact> 0.19712320E+03</totfact>
</mgrwt>
</event>
<event>
 4    1  0.5323640E-005  0.3579524E+03  0.7818608E-02  0.1059398E+00
         -2   -1    0    0    0  501 -0.00000000000E+00  0.00000000000E+00  0.13903720990E+03  0.13903720992E+03  0.25500000000E-02 0.  1.
          2   -1    0    0  501    0  0.00000000000E+00 -0.00000000000E+00 -0.23038786093E+03  0.23038786095E+03  0.25500000000E-02 0. -1.
    5000001    1    1    2    0    0 -0.49422599453E+02 -0.31104166716E+02 -0.84255569811E+02  0.19425257673E+03  0.16500000000E+03 0.  0.
   -5000001    1    1    2    0    0  0.49422599453E+02  0.31104166716E+02 -0.70950812261E+01  0.17517249413E+03  0.16500000000E+03 0.  0.
<mgrwt>
<rscale>  0 0.35795243E+03</rscale>
<asrwt>0</asrwt>
<pdfrwt beam="1">  1        2 0.32912551E-01 0.35795243E+03</pdfrwt>
<pdfrwt beam="2">  1       -2 0.19862459E-01 0.35795243E+03</pdfrwt>
<totfact> 0.33823187E+03</totfact>
</mgrwt>
</event>
<event>
 4    1  0.5323640E-005  0.4881684E+03  0.7818608E-02  0.1016914E+00
          2   -1    0    0  501    0  0.00000000000E+00  0.00000000000E+00  0.43927242062E+03  0.43927242063E+03  0.25500000000E-02 0.  1.
         -2   -1    0    0    0  501 -0.00000000000E+00 -0.00000000000E+00 -0.13562677596E+03  0.13562677598E+03  0.25500000000E-02 0. -1.
    5000001    1    1    2    0    0  0.93527317249E+02  0.13121816647E+03  0.57708721500E+02  0.23774116770E+03  0.16500000000E+03 0.  0.
   -5000001    1    1    2    0    0 -0.93527317249E+02 -0.13121816647E+03  0.24593692317E+03  0.33715802891E+03  0.16500000000E+03 0.  0.
<mgrwt>
<rscale>  0 0.48816842E+03</rscale>
<asrwt>0</asrwt>
<pdfrwt beam="1">  1        2 0.62753204E-01 0.48816842E+03</pdfrwt>
<pdfrwt beam="2">  1       -2 0.19375253E-01 0.48816842E+03</pdfrwt>
<totfact> 0.17474897E+03</totfact>
</mgrwt>
</event>
<event>
 4    1  0.5323640E-005  0.7597401E+03  0.7818608E-02  0.9620192E-01
         -2   -1    0    0    0  501 -0.00000000000E+00  0.00000000000E+00  0.16201646861E+03  0.16201646863E+03  0.25500000000E-02 0. -1.
          2   -1    0    0  501    0  0.00000000000E+00 -0.00000000000E+00 -0.89065790147E+03  0.89065790148E+03  0.25500000000E-02 0.  1.
    5000001    1    1    2    0    0  0.25605120817E+03  0.22143683422E+03 -0.43331822589E+03  0.57409596553E+03  0.16500000000E+03 0.  0.
   -5000001    1    1    2    0    0 -0.25605120817E+03 -0.22143683422E+03 -0.29532320697E+03  0.47857840458E+03  0.16500000000E+03 0.  0.
<mgrwt>
<rscale>  0 0.75974008E+03</rscale>
<asrwt>0</asrwt>
<pdfrwt beam="1">  1        2 0.12723684E+00 0.75974008E+03</pdfrwt>
<pdfrwt beam="2">  1       -2 0.23145210E-01 0.75974008E+03</pdfrwt>
<totfact> 0.54482532E+02</totfact>
</mgrwt>
</event>
<event>
 4    1  0.5323640E-005  0.9173300E+03  0.7818608E-02  0.9404174E-01
         -2   -1    0    0    0  501 -0.00000000000E+00  0.00000000000E+00  0.10567693992E+04  0.10567693992E+04  0.25500000000E-02 0. -1.
          2   -1    0    0  501    0  0.00000000000E+00 -0.00000000000E+00 -0.19907238383E+03  0.19907238384E+03  0.25500000000E-02 0.  1.
    5000001    1    1    2    0    0  0.22367895972E+03  0.33456465985E+03  0.22959721640E+03  0.49183906963E+03  0.16500000000E+03 0.  0.
   -5000001    1    1    2    0    0 -0.22367895972E+03 -0.33456465985E+03  0.62809979902E+03  0.76400271346E+03  0.16500000000E+03 0.  0.
<mgrwt>
<rscale>  0 0.91733005E+03</rscale>
<asrwt>0</asrwt>
<pdfrwt beam="1">  1        2 0.28438912E-01 0.91733005E+03</pdfrwt>
<pdfrwt beam="2">  1       -2 0.15096706E+00 0.91733005E+03</pdfrwt>
<totfact> 0.55856882E+01</totfact>
</mgrwt>
</event>
<event>
 4    1  0.5323640E-005  0.4015421E+03  0.7818608E-02  0.1043247E+00
         -2   -1    0    0    0  501 -0.00000000000E+00  0.00000000000E+00  0.21966710798E+02  0.21966710946E+02  0.25500000000E-02 0. -1.
          2   -1    0    0  501    0  0.00000000000E+00 -0.00000000000E+00 -0.18350041942E+04  0.18350041942E+04  0.25500000000E-02 0.  1.
    5000001    1    1    2    0    0  0.75977296334E+02  0.60062488820E+02 -0.62506509789E+03  0.65369062156E+03  0.16500000000E+03 0.  0.
   -5000001    1    1    2    0    0 -0.75977296334E+02 -0.60062488820E+02 -0.11879723856E+04  0.12032802836E+04  0.16500000000E+03 0.  0.
<mgrwt>
<rscale>  0 0.40154206E+03</rscale>
<asrwt>0</asrwt>
<pdfrwt beam="1">  1        2 0.26214336E+00 0.40154206E+03</pdfrwt>
<pdfrwt beam="2">  1       -2 0.31381027E-02 0.40154206E+03</pdfrwt>
<totfact> 0.42113198E+03</totfact>
</mgrwt>
</event>
<event>
 4    1  0.5323640E-005  0.5845435E+03  0.7818608E-02  0.9938003E-01
          2   -1    0    0  501    0  0.00000000000E+00  0.00000000000E+00  0.11113111044E+04  0.11113111044E+04  0.25500000000E-02 0.  1.
         -2   -1    0    0    0  501 -0.00000000000E+00 -0.00000000000E+00 -0.76866670993E+02  0.76866671035E+02  0.25500000000E-02 0. -1.
    5000001    1    1    2    0    0  0.19500506181E+03  0.47816184184E+02  0.78905512890E+03  0.83075047881E+03  0.16500000000E+03 0.  0.
   -5000001    1    1    2    0    0 -0.19500506181E+03 -0.47816184184E+02  0.24538930447E+03  0.35742729659E+03  0.16500000000E+03 0.  0.
<mgrwt>
<rscale>  0 0.58454353E+03</rscale>
<asrwt>0</asrwt>
<pdfrwt beam="1">  1        2 0.15875873E+00 0.58454353E+03</pdfrwt>
<pdfrwt beam="2">  1       -2 0.10980953E-01 0.58454353E+03</pdfrwt>
<totfact> 0.14261688E+03</totfact>
</mgrwt>
</event>
<event>
 4    1  0.5323640E-005  0.5303586E+03  0.7818608E-02  0.1006145E+00
         -2   -1    0    0    0  501 -0.00000000000E+00  0.00000000000E+00  0.31507153519E+02  0.31507153622E+02  0.25500000000E-02 0. -1.
          2   -1    0    0  501    0  0.00000000000E+00 -0.00000000000E+00 -0.22318760319E+04  0.22318760319E+04  0.25500000000E-02 0.  1.
    5000001    1    1    2    0    0  0.14306918087E+03 -0.12158358210E+03 -0.72222165520E+03  0.76425157978E+03  0.16500000000E+03 0.  0.
   -5000001    1    1    2    0    0 -0.14306918087E+03  0.12158358210E+03 -0.14781472232E+04  0.14991316057E+04  0.16500000000E+03 0.  0.
<mgrwt>
<rscale>  0 0.53035860E+03</rscale>
<asrwt>0</asrwt>
<pdfrwt beam="1">  1        2 0.31883933E+00 0.53035860E+03</pdfrwt>
<pdfrwt beam="2">  1       -2 0.45010233E-02 0.53035860E+03</pdfrwt>
<totfact> 0.15351202E+03</totfact>
</mgrwt>
</event>
<event>
 4    1  0.5323640E-005  0.3862984E+03  0.7818608E-02  0.1048630E+00
         -2   -1    0    0    0  501 -0.00000000000E+00  0.00000000000E+00  0.10852739957E+03  0.10852739960E+03  0.25500000000E-02 0. -1.
          2   -1    0    0  501    0  0.00000000000E+00 -0.00000000000E+00 -0.34375287957E+03  0.34375287958E+03  0.25500000000E-02 0.  1.
    5000001    1    1    2    0    0 -0.70232656721E+02 -0.54070848805E+02 -0.62381938121E+02  0.19741527034E+03  0.16500000000E+03 0.  0.
   -5000001    1    1    2    0    0  0.70232656721E+02  0.54070848805E+02 -0.17284354188E+03  0.25486500884E+03  0.16500000000E+03 0.  0.
<mgrwt>
<rscale>  0 0.38629836E+03</rscale>
<asrwt>0</asrwt>
<pdfrwt beam="1">  1        2 0.49107554E-01 0.38629836E+03</pdfrwt>
<pdfrwt beam="2">  1       -2 0.15503914E-01 0.38629836E+03</pdfrwt>
<totfact> 0.33315650E+03</totfact>
</mgrwt>
</event>
<event>
 4    1  0.5323640E-005  0.5555952E+03  0.7818608E-02  0.1000207E+00
          2   -1    0    0  501    0  0.00000000000E+00  0.00000000000E+00  0.23601050346E+04  0.23601050346E+04  0.25500000000E-02 0.  1.
         -2   -1    0    0    0  501 -0.00000000000E+00 -0.00000000000E+00 -0.32698339797E+02  0.32698339896E+02  0.25500000000E-02 0. -1.
    5000001    1    1    2    0    0 -0.20357371754E+03  0.91638890413E+02  0.11192433300E+04  0.11531567875E+04  0.16500000000E+03 0.  0.
   -5000001    1    1    2    0    0  0.20357371754E+03 -0.91638890413E+02  0.12081633647E+04  0.12396465870E+04  0.16500000000E+03 0.  0.
<mgrwt>
<rscale>  0 0.55559524E+03</rscale>
<asrwt>0</asrwt>
<pdfrwt beam="1">  1        2 0.33715791E+00 0.55559524E+03</pdfrwt>
<pdfrwt beam="2">  1       -2 0.46711908E-02 0.55559524E+03</pdfrwt>
<totfact> 0.12472677E+03</totfact>
</mgrwt>
</event>
<event>
 4    1  0.5323640E-005  0.5330694E+03  0.7818608E-02  0.1005490E+00
         -2   -1    0    0    0  501 -0.00000000000E+00  0.00000000000E+00  0.39695535262E+02  0.39695535343E+02  0.25500000000E-02 0. -1.
          2   -1    0    0  501    0  0.00000000000E+00 -0.00000000000E+00 -0.17896410415E+04  0.17896410415E+04  0.25500000000E-02 0.  1.
    5000001    1    1    2    0    0  0.62697969078E+02  0.19371856184E+03 -0.10416081393E+04  0.10740718935E+04  0.16500000000E+03 0.  0.
   -5000001    1    1    2    0    0 -0.62697969078E+02 -0.19371856184E+03 -0.70833736697E+03  0.75526468339E+03  0.16500000000E+03 0.  0.
<mgrwt>
<rscale>  0 0.53306945E+03</rscale>
<asrwt>0</asrwt>
<pdfrwt beam="1">  1        2 0.25566296E+00 0.53306945E+03</pdfrwt>
<pdfrwt beam="2">  1       -2 0.56707919E-02 0.53306945E+03</pdfrwt>
<totfact> 0.17876507E+03</totfact>
</mgrwt>
</event>
<event>
 4    1  0.5323640E-005  0.3888415E+03  0.7818608E-02  0.1047713E+00
         -2   -1    0    0    0  501 -0.00000000000E+00  0.00000000000E+00  0.17370293868E+02  0.17370294055E+02  0.25500000000E-02 0. -1.
          2   -1    0    0  501    0  0.00000000000E+00 -0.00000000000E+00 -0.21760955286E+04  0.21760955286E+04  0.25500000000E-02 0.  1.
    5000001    1    1    2    0    0  0.10540253341E+01 -0.10282368504E+03 -0.10750009354E+04  0.10924403107E+04  0.16500000000E+03 0.  0.
   -5000001    1    1    2    0    0 -0.10540253341E+01  0.10282368504E+03 -0.10837242993E+04  0.11010255120E+04  0.16500000000E+03 0.  0.
<mgrwt>
<rscale>  0 0.38884145E+03</rscale>
<asrwt>0</asrwt>
<pdfrwt beam="1">  1        2 0.31087062E+00 0.38884145E+03</pdfrwt>
<pdfrwt beam="2">  1       -2 0.24814719E-02 0.38884145E+03</pdfrwt>
<totfact> 0.40615680E+03</totfact>
</mgrwt>
</event>
<event>
 4    1  0.5323640E-005  0.6952611E+03  0.7818608E-02  0.9725371E-01
         -2   -1    0    0    0  501 -0.00000000000E+00  0.00000000000E+00  0.76456296011E+02  0.76456296053E+02  0.25500000000E-02 0. -1.
          2   -1    0    0  501    0  0.00000000000E+00 -0.00000000000E+00 -0.15806024893E+04  0.15806024893E+04  0.25500000000E-02 0.  1.
    5000001    1    1    2    0    0 -0.30028794141E+03 -0.47611977772E+02 -0.67012344167E+03  0.75414201266E+03  0.16500000000E+03 0.  0.
   -5000001    1    1    2    0    0  0.30028794141E+03  0.47611977772E+02 -0.83402275159E+03  0.90291677266E+03  0.16500000000E+03 0.  0.
<mgrwt>
<rscale>  0 0.69526114E+03</rscale>
<asrwt>0</asrwt>
<pdfrwt beam="1">  1        2 0.22580033E+00 0.69526114E+03</pdfrwt>
<pdfrwt beam="2">  1       -2 0.10922329E-01 0.69526114E+03</pdfrwt>
<totfact> 0.79791426E+02</totfact>
</mgrwt>
</event>
<event>
 4    1  0.5323640E-005  0.3671506E+03  0.7818608E-02  0.1055788E+00
          2   -1    0    0  501    0  0.00000000000E+00  0.00000000000E+00  0.60218069728E+03  0.60218069729E+03  0.25500000000E-02 0.  1.
         -2   -1    0    0    0  501 -0.00000000000E+00 -0.00000000000E+00 -0.55963072811E+02  0.55963072869E+02  0.25500000000E-02 0. -1.
    5000001    1    1    2    0    0 -0.77449737838E+02  0.17511399609E+02  0.29646535846E+03  0.34845633840E+03  0.16500000000E+03 0.  0.
   -5000001    1    1    2    0    0  0.77449737838E+02 -0.17511399609E+02  0.24975226601E+03  0.30968743175E+03  0.16500000000E+03 0.  0.
<mgrwt>
<rscale>  0 0.36715055E+03</rscale>
<asrwt>0</asrwt>
<pdfrwt beam="1">  1        2 0.86025816E-01 0.36715055E+03</pdfrwt>
<pdfrwt beam="2">  1       -2 0.79947245E-02 0.36715055E+03</pdfrwt>
<totfact> 0.52140293E+03</totfact>
</mgrwt>
</event>
<event>
 4    1  0.5323640E-005  0.5033942E+03  0.7818608E-02  0.1012897E+00
         -2   -1    0    0    0  501 -0.00000000000E+00  0.00000000000E+00  0.31590449106E+02  0.31590449209E+02  0.25500000000E-02 0. -1.
          2   -1    0    0  501    0  0.00000000000E+00 -0.00000000000E+00 -0.20053985127E+04  0.20053985127E+04  0.25500000000E-02 0.  1.
    5000001    1    1    2    0    0  0.61805600832E+02 -0.15666407753E+03 -0.13434304463E+04  0.13639625837E+04  0.16500000000E+03 0.  0.
   -5000001    1    1    2    0    0 -0.61805600832E+02  0.15666407753E+03 -0.63037761728E+03  0.67302637827E+03  0.16500000000E+03 0.  0.
<mgrwt>
<rscale>  0 0.50339424E+03</rscale>
<asrwt>0</asrwt>
<pdfrwt beam="1">  1        2 0.28648542E+00 0.50339424E+03</pdfrwt>
<pdfrwt beam="2">  1       -2 0.45129226E-02 0.50339424E+03</pdfrwt>
<totfact> 0.19872260E+03</totfact>
</mgrwt>
</event>
<event>
 4    1  0.5323640E-005  0.4786783E+03  0.7818608E-02  0.1019499E+00
          2   -1    0    0  501    0  0.00000000000E+00  0.00000000000E+00  0.22472526902E+04  0.22472526902E+04  0.25500000000E-02 0.  1.
         -2   -1    0    0    0  501 -0.00000000000E+00 -0.00000000000E+00 -0.25490332706E+02  0.25490332834E+02  0.25500000000E-02 0. -1.
    5000001    1    1    2    0    0  0.13979804880E+03 -0.96764047271E+02  0.12719932074E+04  0.12938695819E+04  0.16500000000E+03 0.  0.
   -5000001    1    1    2    0    0 -0.13979804880E+03  0.96764047271E+02  0.94976915018E+03  0.97887344122E+03  0.16500000000E+03 0.  0.
<mgrwt>
<rscale>  0 0.47867826E+03</rscale>
<asrwt>0</asrwt>
<pdfrwt beam="1">  1        2 0.32103588E+00 0.47867826E+03</pdfrwt>
<pdfrwt beam="2">  1       -2 0.36414786E-02 0.47867826E+03</pdfrwt>
<totfact> 0.20917531E+03</totfact>
</mgrwt>
</event>
<event>
 4    1  0.5323640E-005  0.4498382E+03  0.7818608E-02  0.1027770E+00
         -2   -1    0    0    0  501 -0.00000000000E+00  0.00000000000E+00  0.56175770932E+03  0.56175770933E+03  0.25500000000E-02 0. -1.
          2   -1    0    0  501    0  0.00000000000E+00 -0.00000000000E+00 -0.90054141498E+02  0.90054141534E+02  0.25500000000E-02 0.  1.
    5000001    1    1    2    0    0 -0.91592753797E+02 -0.12086029337E+03  0.20808684999E+03  0.30581298239E+03  0.16500000000E+03 0.  0.
   -5000001    1    1    2    0    0  0.91592753797E+02  0.12086029337E+03  0.26361671784E+03  0.34599886847E+03  0.16500000000E+03 0.  0.
<mgrwt>
<rscale>  0 0.44983823E+03</rscale>
<asrwt>0</asrwt>
<pdfrwt beam="1">  1        2 0.12864878E-01 0.44983823E+03</pdfrwt>
<pdfrwt beam="2">  1       -2 0.80251100E-01 0.44983823E+03</pdfrwt>
<totfact> 0.66853374E+02</totfact>
</mgrwt>
</event>
<event>
 4    1  0.5323640E-005  0.3457999E+03  0.7818608E-02  0.1064352E+00
         -2   -1    0    0    0  501 -0.00000000000E+00  0.00000000000E+00  0.72570113926E+02  0.72570113971E+02  0.25500000000E-02 0. -1.
          2   -1    0    0  501    0  0.00000000000E+00 -0.00000000000E+00 -0.41193807032E+03  0.41193807033E+03  0.25500000000E-02 0.  1.
    5000001    1    1    2    0    0 -0.46575356058E+02  0.99788224779E+01 -0.19772576708E+03  0.26189562741E+03  0.16500000000E+03 0.  0.
   -5000001    1    1    2    0    0  0.46575356058E+02 -0.99788224779E+01 -0.14164218931E+03  0.22261255688E+03  0.16500000000E+03 0.  0.
<mgrwt>
<rscale>  0 0.34579990E+03</rscale>
<asrwt>0</asrwt>
<pdfrwt beam="1">  1        2 0.58848295E-01 0.34579990E+03</pdfrwt>
<pdfrwt beam="2">  1       -2 0.10367159E-01 0.34579990E+03</pdfrwt>
<totfact> 0.52699514E+03</totfact>
</mgrwt>
</event>
<event>
 4    1  0.5323640E-005  0.5338291E+03  0.7818608E-02  0.1005308E+00
         -2   -1    0    0    0  501 -0.00000000000E+00  0.00000000000E+00  0.12169678194E+03  0.12169678196E+03  0.25500000000E-02 0. -1.
          2   -1    0    0  501    0  0.00000000000E+00 -0.00000000000E+00 -0.58541717335E+03  0.58541717335E+03  0.25500000000E-02 0.  1.
    5000001    1    1    2    0    0 -0.19435172132E+03  0.44153569533E+02 -0.31868268903E+03  0.41049456216E+03  0.16500000000E+03 0.  0.
   -5000001    1    1    2    0    0  0.19435172132E+03 -0.44153569533E+02 -0.14503770239E+03  0.29661939315E+03  0.16500000000E+03 0.  0.
<mgrwt>
<rscale>  0 0.53382913E+03</rscale>
<asrwt>0</asrwt>
<pdfrwt beam="1">  1        2 0.83631023E-01 0.53382913E+03</pdfrwt>
<pdfrwt beam="2">  1       -2 0.17385255E-01 0.53382913E+03</pdfrwt>
<totfact> 0.15191441E+03</totfact>
</mgrwt>
</event>
<event>
 4    1  0.5323640E-005  0.6972198E+03  0.7818608E-02  0.9721999E-01
         -2   -1    0    0    0  501 -0.00000000000E+00  0.00000000000E+00  0.13516916636E+03  0.13516916638E+03  0.25500000000E-02 0. -1.
          2   -1    0    0  501    0  0.00000000000E+00 -0.00000000000E+00 -0.89908712588E+03  0.89908712588E+03  0.25500000000E-02 0.  1.
    5000001    1    1    2    0    0 -0.28307133155E+03 -0.77817672645E+02 -0.51562061013E+03  0.61585272795E+03  0.16500000000E+03 0.  0.
   -5000001    1    1    2    0    0  0.28307133155E+03  0.77817672645E+02 -0.24829734938E+03  0.41840356432E+03  0.16500000000E+03 0.  0.
<mgrwt>
<rscale>  0 0.69721979E+03</rscale>
<asrwt>0</asrwt>
<pdfrwt beam="1">  1        2 0.12844101E+00 0.69721979E+03</pdfrwt>
<pdfrwt beam="2">  1       -2 0.19309881E-01 0.69721979E+03</pdfrwt>
<totfact> 0.74164186E+02</totfact>
</mgrwt>
</event>
<event>
 4    1  0.5323640E-005  0.6472164E+03  0.7818608E-02  0.9812017E-01
         -2   -1    0    0    0  501 -0.00000000000E+00  0.00000000000E+00  0.31347103166E+02  0.31347103269E+02  0.25500000000E-02 0. -1.
          2   -1    0    0  501    0  0.00000000000E+00 -0.00000000000E+00 -0.33407313926E+04  0.33407313926E+04  0.25500000000E-02 0.  1.
    5000001    1    1    2    0    0 -0.25091921372E+02 -0.17385800321E+03 -0.27798988618E+04  0.27903259472E+04  0.16500000000E+03 0.  0.
   -5000001    1    1    2    0    0  0.25091921372E+02  0.17385800321E+03 -0.52948542758E+03  0.58175254861E+03  0.16500000000E+03 0.  0.
<mgrwt>
<rscale>  0 0.64721635E+03</rscale>
<asrwt>0</asrwt>
<pdfrwt beam="1">  1        2 0.47724712E+00 0.64721635E+03</pdfrwt>
<pdfrwt beam="2">  1       -2 0.44781597E-02 0.64721635E+03</pdfrwt>
<totfact> 0.39381299E+02</totfact>
</mgrwt>
</event>
<event>
 4    1  0.5323640E-005  0.4836615E+03  0.7818608E-02  0.1018134E+00
          2   -1    0    0  501    0  0.00000000000E+00  0.00000000000E+00  0.93916442927E+03  0.93916442928E+03  0.25500000000E-02 0.  1.
         -2   -1    0    0    0  501 -0.00000000000E+00 -0.00000000000E+00 -0.62270373918E+02  0.62270373970E+02  0.25500000000E-02 0. -1.
    5000001    1    1    2    0    0  0.68189845417E+02  0.11416794677E+03  0.67966972915E+03  0.71194109013E+03  0.16500000000E+03 0.  0.
   -5000001    1    1    2    0    0 -0.68189845417E+02 -0.11416794677E+03  0.19722432620E+03  0.28949371312E+03  0.16500000000E+03 0.  0.
<mgrwt>
<rscale>  0 0.48366154E+03</rscale>
<asrwt>0</asrwt>
<pdfrwt beam="1">  1        2 0.13416634E+00 0.48366154E+03</pdfrwt>
<pdfrwt beam="2">  1       -2 0.88957682E-02 0.48366154E+03</pdfrwt>
<totfact> 0.25445309E+03</totfact>
</mgrwt>
</event>
<event>
 4    1  0.5323640E-005  0.1438931E+04  0.7818608E-02  0.8926110E-01
         -2   -1    0    0    0  501 -0.00000000000E+00  0.00000000000E+00  0.64907608630E+03  0.64907608630E+03  0.25500000000E-02 0. -1.
          2   -1    0    0  501    0  0.00000000000E+00 -0.00000000000E+00 -0.79748861508E+03  0.79748861509E+03  0.25500000000E-02 0.  1.
    5000001    1    1    2    0    0  0.58717190953E+02  0.62505115083E+03 -0.38612492858E+03  0.75528412544E+03  0.16500000000E+03 0.  0.
   -5000001    1    1    2    0    0 -0.58717190953E+02 -0.62505115083E+03  0.23771239980E+03  0.69128057595E+03  0.16500000000E+03 0.  0.
<mgrwt>
<rscale>  0 0.14389313E+04</rscale>
<asrwt>0</asrwt>
<pdfrwt beam="1">  1        2 0.11392694E+00 0.14389313E+04</pdfrwt>
<pdfrwt beam="2">  1       -2 0.92725155E-01 0.14389313E+04</pdfrwt>
<totfact> 0.36605013E+01</totfact>
</mgrwt>
</event>
<event>
 4    1  0.5323640E-005  0.5944894E+03  0.7818608E-02  0.9916905E-01
          2   -1    0    0  501    0  0.00000000000E+00  0.00000000000E+00  0.16933455077E+04  0.16933455078E+04  0.25500000000E-02 0.  1.
         -2   -1    0    0    0  501 -0.00000000000E+00 -0.00000000000E+00 -0.52177433337E+02  0.52177433400E+02  0.25500000000E-02 0. -1.
    5000001    1    1    2    0    0  0.34486494245E+02 -0.23998765954E+03  0.67836820128E+03  0.73904790882E+03  0.16500000000E+03 0.  0.
   -5000001    1    1    2    0    0 -0.34486494245E+02  0.23998765954E+03  0.96279987313E+03  0.10064750323E+04  0.16500000000E+03 0.  0.
<mgrwt>
<rscale>  0 0.59448944E+03</rscale>
<asrwt>0</asrwt>
<pdfrwt beam="1">  1        2 0.24190655E+00 0.59448944E+03</pdfrwt>
<pdfrwt beam="2">  1       -2 0.74539174E-02 0.59448944E+03</pdfrwt>
<totfact> 0.12982227E+03</totfact>
</mgrwt>
</event>
<event>
 4    1  0.5323640E-005  0.1015310E+04  0.7818608E-02  0.9291911E-01
          2   -1    0    0  501    0  0.00000000000E+00  0.00000000000E+00  0.71882733187E+03  0.71882733187E+03  0.25500000000E-02 0.  1.
         -2   -1    0    0    0  501 -0.00000000000E+00 -0.00000000000E+00 -0.35851953775E+03  0.35851953776E+03  0.25500000000E-02 0. -1.
    5000001    1    1    2    0    0 -0.39486160781E+03  0.21047257319E+03 -0.44723941005E+01  0.47692703393E+03  0.16500000000E+03 0.  0.
   -5000001    1    1    2    0    0  0.39486160781E+03 -0.21047257319E+03  0.36478018822E+03  0.60041983570E+03  0.16500000000E+03 0.  0.
<mgrwt>
<rscale>  0 0.10153101E+04</rscale>
<asrwt>0</asrwt>
<pdfrwt beam="1">  1        2 0.10268962E+00 0.10153101E+04</pdfrwt>
<pdfrwt beam="2">  1       -2 0.51217077E-01 0.10153101E+04</pdfrwt>
<totfact> 0.15647621E+02</totfact>
</mgrwt>
</event>
<event>
 4    1  0.5323640E-005  0.7801488E+03  0.7818608E-02  0.9589204E-01
         -2   -1    0    0    0  501 -0.00000000000E+00  0.00000000000E+00  0.74446133014E+02  0.74446133058E+02  0.25500000000E-02 0. -1.
          2   -1    0    0  501    0  0.00000000000E+00 -0.00000000000E+00 -0.20438674079E+04  0.20438674079E+04  0.25500000000E-02 0.  1.
    5000001    1    1    2    0    0  0.19589017824E+03 -0.19156283321E+03 -0.15910353331E+04  0.16228640461E+04  0.16500000000E+03 0.  0.
   -5000001    1    1    2    0    0 -0.19589017824E+03  0.19156283321E+03 -0.37838594179E+03  0.49544949485E+03  0.16500000000E+03 0.  0.
<mgrwt>
<rscale>  0 0.78014877E+03</rscale>
<asrwt>0</asrwt>
<pdfrwt beam="1">  1        2 0.29198102E+00 0.78014877E+03</pdfrwt>
<pdfrwt beam="2">  1       -2 0.10635163E-01 0.78014877E+03</pdfrwt>
<totfact> 0.48166577E+02</totfact>
</mgrwt>
</event>
<event>
 4    1  0.5323640E-005  0.4507697E+03  0.7818608E-02  0.1027493E+00
         -2   -1    0    0    0  501 -0.00000000000E+00  0.00000000000E+00  0.14116119708E+02  0.14116119938E+02  0.25500000000E-02 0. -1.
          2   -1    0    0  501    0  0.00000000000E+00 -0.00000000000E+00 -0.35986036408E+04  0.35986036408E+04  0.25500000000E-02 0.  1.
    5000001    1    1    2    0    0 -0.12236084727E+03 -0.38737967971E+01 -0.10496034675E+04  0.10695230816E+04  0.16500000000E+03 0.  0.
   -5000001    1    1    2    0    0  0.12236084727E+03  0.38737967971E+01 -0.25348840537E+04  0.25431966791E+04  0.16500000000E+03 0.  0.
<mgrwt>
<rscale>  0 0.45076965E+03</rscale>
<asrwt>0</asrwt>
<pdfrwt beam="1">  1        2 0.51408565E+00 0.45076965E+03</pdfrwt>
<pdfrwt beam="2">  1       -2 0.20165908E-02 0.45076965E+03</pdfrwt>
<totfact> 0.95363916E+02</totfact>
</mgrwt>
</event>
<event>
 4    1  0.5323640E-005  0.4842637E+03  0.7818608E-02  0.1017970E+00
          2   -1    0    0  501    0  0.00000000000E+00  0.00000000000E+00  0.69037617165E+03  0.69037617166E+03  0.25500000000E-02 0.  1.
         -2   -1    0    0    0  501 -0.00000000000E+00 -0.00000000000E+00 -0.84921586239E+02  0.84921586277E+02  0.25500000000E-02 0. -1.
    5000001    1    1    2    0    0 -0.12554036992E+03 -0.12093252434E+03  0.35380289275E+03  0.42753543343E+03  0.16500000000E+03 0.  0.
   -5000001    1    1    2    0    0  0.12554036992E+03  0.12093252434E+03  0.25165169267E+03  0.34776232450E+03  0.16500000000E+03 0.  0.
<mgrwt>
<rscale>  0 0.48426373E+03</rscale>
<asrwt>0</asrwt>
<pdfrwt beam="1">  1        2 0.98625165E-01 0.48426373E+03</pdfrwt>
<pdfrwt beam="2">  1       -2 0.12131656E-01 0.48426373E+03</pdfrwt>
<totfact> 0.22795211E+03</totfact>
</mgrwt>
</event>
<event>
 4    1  0.5323640E-005  0.5036659E+03  0.7818608E-02  0.1012826E+00
         -2   -1    0    0    0  501 -0.00000000000E+00  0.00000000000E+00  0.13580055681E+03  0.13580055684E+03  0.25500000000E-02 0. -1.
          2   -1    0    0  501    0  0.00000000000E+00 -0.00000000000E+00 -0.46700719389E+03  0.46700719389E+03  0.25500000000E-02 0.  1.
    5000001    1    1    2    0    0 -0.28723583684E+02  0.88668642405E+02  0.32897879081E+02  0.19233939496E+03  0.16500000000E+03 0.  0.
   -5000001    1    1    2    0    0  0.28723583684E+02 -0.88668642405E+02 -0.36410451615E+03  0.41046835577E+03  0.16500000000E+03 0.  0.
<mgrwt>
<rscale>  0 0.50366591E+03</rscale>
<asrwt>0</asrwt>
<pdfrwt beam="1">  1        2 0.66715312E-01 0.50366591E+03</pdfrwt>
<pdfrwt beam="2">  1       -2 0.19400080E-01 0.50366591E+03</pdfrwt>
<totfact> 0.16286226E+03</totfact>
</mgrwt>
</event>
<event>
 4    1  0.5323640E-005  0.8360896E+03  0.7818608E-02  0.9509200E-01
          2   -1    0    0  501    0  0.00000000000E+00  0.00000000000E+00  0.37559601559E+03  0.37559601560E+03  0.25500000000E-02 0.  1.
         -2   -1    0    0    0  501 -0.00000000000E+00 -0.00000000000E+00 -0.46529099544E+03  0.46529099544E+03  0.25500000000E-02 0. -1.
    5000001    1    1    2    0    0  0.17897563476E+02 -0.31511337343E+03  0.17531422773E+03  0.39695949332E+03  0.16500000000E+03 0.  0.
   -5000001    1    1    2    0    0 -0.17897563476E+02  0.31511337343E+03 -0.26500920757E+03  0.44392751772E+03  0.16500000000E+03 0.  0.
<mgrwt>
<rscale>  0 0.83608957E+03</rscale>
<asrwt>0</asrwt>
<pdfrwt beam="1">  1        2 0.53656574E-01 0.83608957E+03</pdfrwt>
<pdfrwt beam="2">  1       -2 0.66470142E-01 0.83608957E+03</pdfrwt>
<totfact> 0.19425541E+02</totfact>
</mgrwt>
</event>
<event>
 4    1  0.5323640E-005  0.4590066E+03  0.7818608E-02  0.1025070E+00
         -2   -1    0    0    0  501 -0.00000000000E+00  0.00000000000E+00  0.14128948117E+03  0.14128948119E+03  0.25500000000E-02 0. -1.
          2   -1    0    0  501    0  0.00000000000E+00 -0.00000000000E+00 -0.37279327348E+03  0.37279327349E+03  0.25500000000E-02 0.  1.
    5000001    1    1    2    0    0 -0.13198472540E+03 -0.20234847612E+02 -0.18002049167E+02  0.21302227717E+03  0.16500000000E+03 0.  0.
   -5000001    1    1    2    0    0  0.13198472540E+03  0.20234847612E+02 -0.21350174314E+03  0.30106047751E+03  0.16500000000E+03 0.  0.
<mgrwt>
<rscale>  0 0.45900662E+03</rscale>
<asrwt>0</asrwt>
<pdfrwt beam="1">  1        2 0.53256181E-01 0.45900662E+03</pdfrwt>
<pdfrwt beam="2">  1       -2 0.20184212E-01 0.45900662E+03</pdfrwt>
<totfact> 0.19507381E+03</totfact>
</mgrwt>
</event>
<event>
 4    1  0.5323640E-005  0.1912000E+04  0.7818608E-02  0.8648906E-01
         -2   -1    0    0    0  501 -0.00000000000E+00  0.00000000000E+00  0.41124187235E+03  0.41124187236E+03  0.25500000000E-02 0. -1.
          2   -1    0    0  501    0  0.00000000000E+00 -0.00000000000E+00 -0.22223817174E+04  0.22223817174E+04  0.25500000000E-02 0.  1.
    5000001    1    1    2    0    0 -0.86959190590E+03 -0.41727602019E+01 -0.14031666334E+04  0.16590084677E+04  0.16500000000E+03 0.  0.
   -5000001    1    1    2    0    0  0.86959190590E+03  0.41727602019E+01 -0.40797321161E+03  0.97461512205E+03  0.16500000000E+03 0.  0.
<mgrwt>
<rscale>  0 0.19120004E+04</rscale>
<asrwt>0</asrwt>
<pdfrwt beam="1">  1        2 0.31748309E+00 0.19120004E+04</pdfrwt>
<pdfrwt beam="2">  1       -2 0.58748840E-01 0.19120004E+04</pdfrwt>
<totfact> 0.15652661E+01</totfact>
</mgrwt>
</event>
<event>
 4    1  0.5323640E-005  0.3697536E+03  0.7818608E-02  0.1054787E+00
          2   -1    0    0  501    0  0.00000000000E+00  0.00000000000E+00  0.96964676952E+02  0.96964676986E+02  0.25500000000E-02 0.  1.
         -2   -1    0    0    0  501 -0.00000000000E+00 -0.00000000000E+00 -0.35249356974E+03  0.35249356975E+03  0.25500000000E-02 0. -1.
    5000001    1    1    2    0    0  0.56423289586E+02  0.43317332227E+02 -0.74856838725E+02  0.19464975002E+03  0.16500000000E+03 0.  0.
   -5000001    1    1    2    0    0 -0.56423289586E+02 -0.43317332227E+02 -0.18067205406E+03  0.25480849672E+03  0.16500000000E+03 0.  0.
<mgrwt>
<rscale>  0 0.36975357E+03</rscale>
<asrwt>0</asrwt>
<pdfrwt beam="1">  1        2 0.13852097E-01 0.36975357E+03</pdfrwt>
<pdfrwt beam="2">  1       -2 0.50356224E-01 0.36975357E+03</pdfrwt>
<totfact> 0.16350755E+03</totfact>
</mgrwt>
</event>
<event>
 4    1  0.5323640E-005  0.4218533E+03  0.7818608E-02  0.1036465E+00
          2   -1    0    0  501    0  0.00000000000E+00  0.00000000000E+00  0.55133311308E+03  0.55133311308E+03  0.25500000000E-02 0.  1.
         -2   -1    0    0    0  501 -0.00000000000E+00 -0.00000000000E+00 -0.80695392775E+02  0.80695392815E+02  0.25500000000E-02 0. -1.
    5000001    1    1    2    0    0 -0.95124097918E+02 -0.63443558080E+02  0.33231465423E+03  0.38824181702E+03  0.16500000000E+03 0.  0.
   -5000001    1    1    2    0    0  0.95124097918E+02  0.63443558080E+02  0.13832306607E+03  0.24378668888E+03  0.16500000000E+03 0.  0.
<mgrwt>
<rscale>  0 0.42185325E+03</rscale>
<asrwt>0</asrwt>
<pdfrwt beam="1">  1        2 0.78761876E-01 0.42185325E+03</pdfrwt>
<pdfrwt beam="2">  1       -2 0.11527913E-01 0.42185325E+03</pdfrwt>
<totfact> 0.32216615E+03</totfact>
</mgrwt>
</event>
<event>
 4    1  0.5323640E-005  0.7360143E+03  0.7818608E-02  0.9657551E-01
         -2   -1    0    0    0  501 -0.00000000000E+00  0.00000000000E+00  0.11307363684E+03  0.11307363687E+03  0.25500000000E-02 0. -1.
          2   -1    0    0  501    0  0.00000000000E+00 -0.00000000000E+00 -0.11977085616E+04  0.11977085616E+04  0.25500000000E-02 0.  1.
    5000001    1    1    2    0    0 -0.21260412983E+03  0.24642016088E+03 -0.45726385025E+03  0.58501165839E+03  0.16500000000E+03 0.  0.
   -5000001    1    1    2    0    0  0.21260412983E+03 -0.24642016088E+03 -0.62737107447E+03  0.72577054004E+03  0.16500000000E+03 0.  0.
<mgrwt>
<rscale>  0 0.73601430E+03</rscale>
<asrwt>0</asrwt>
<pdfrwt beam="1">  1        2 0.17110122E+00 0.73601430E+03</pdfrwt>
<pdfrwt beam="2">  1       -2 0.16153377E-01 0.73601430E+03</pdfrwt>
<totfact> 0.66580396E+02</totfact>
</mgrwt>
</event>
<event>
 4    1  0.5323640E-005  0.4157312E+03  0.7818608E-02  0.1038465E+00
         -2   -1    0    0    0  501 -0.00000000000E+00  0.00000000000E+00  0.25205518335E+02  0.25205518464E+02  0.25500000000E-02 0. -1.
          2   -1    0    0  501    0  0.00000000000E+00 -0.00000000000E+00 -0.17142324232E+04  0.17142324232E+04  0.25500000000E-02 0.  1.
    5000001    1    1    2    0    0 -0.26721174809E+00  0.39587462283E+02 -0.34215139829E+03  0.38191598281E+03  0.16500000000E+03 0.  0.
   -5000001    1    1    2    0    0  0.26721174809E+00 -0.39587462283E+02 -0.13468755065E+04  0.13575219588E+04  0.16500000000E+03 0.  0.
<mgrwt>
<rscale>  0 0.41573124E+03</rscale>
<asrwt>0</asrwt>
<pdfrwt beam="1">  1        2 0.24489027E+00 0.41573124E+03</pdfrwt>
<pdfrwt beam="2">  1       -2 0.36007894E-02 0.41573124E+03</pdfrwt>
<totfact> 0.39291879E+03</totfact>
</mgrwt>
</event>
<event>
 4    1  0.5323640E-005  0.4423475E+03  0.7818608E-02  0.1030029E+00
          2   -1    0    0  501    0  0.00000000000E+00  0.00000000000E+00  0.40424349925E+03  0.40424349926E+03  0.25500000000E-02 0.  1.
         -2   -1    0    0    0  501 -0.00000000000E+00 -0.00000000000E+00 -0.12101078776E+03  0.12101078779E+03  0.25500000000E-02 0. -1.
    5000001    1    1    2    0    0 -0.53479651195E+02 -0.12866474099E+03  0.84940794126E+02  0.23206599745E+03  0.16500000000E+03 0.  0.
   -5000001    1    1    2    0    0  0.53479651195E+02  0.12866474099E+03  0.19829191736E+03  0.29318828960E+03  0.16500000000E+03 0.  0.
<mgrwt>
<rscale>  0 0.44234748E+03</rscale>
<asrwt>0</asrwt>
<pdfrwt beam="1">  1        2 0.57749072E-01 0.44234748E+03</pdfrwt>
<pdfrwt beam="2">  1       -2 0.17287255E-01 0.44234748E+03</pdfrwt>
<totfact> 0.23268625E+03</totfact>
</mgrwt>
</event>
<event>
 4    1  0.5323640E-005  0.4309312E+03  0.7818608E-02  0.1033566E+00
         -2   -1    0    0    0  501 -0.00000000000E+00  0.00000000000E+00  0.23097077479E+03  0.23097077480E+03  0.25500000000E-02 0. -1.
          2   -1    0    0  501    0  0.00000000000E+00 -0.00000000000E+00 -0.20100130645E+03  0.20100130646E+03  0.25500000000E-02 0.  1.
    5000001    1    1    2    0    0 -0.13440823321E+03  0.33005877540E+02  0.82255708910E+01  0.21551710169E+03  0.16500000000E+03 0.  0.
   -5000001    1    1    2    0    0  0.13440823321E+03 -0.33005877540E+02  0.21743897450E+02  0.21645497957E+03  0.16500000000E+03 0.  0.
<mgrwt>
<rscale>  0 0.43093121E+03</rscale>
<asrwt>0</asrwt>
<pdfrwt beam="1">  1        2 0.28714472E-01 0.43093121E+03</pdfrwt>
<pdfrwt beam="2">  1       -2 0.32995825E-01 0.43093121E+03</pdfrwt>
<totfact> 0.15926907E+03</totfact>
</mgrwt>
</event>
<event>
 4    1  0.5323640E-005  0.5308956E+03  0.7818608E-02  0.1006015E+00
          2   -1    0    0  501    0  0.00000000000E+00  0.00000000000E+00  0.49485705914E+03  0.49485705915E+03  0.25500000000E-02 0.  1.
         -2   -1    0    0    0  501 -0.00000000000E+00 -0.00000000000E+00 -0.14238969209E+03  0.14238969211E+03  0.25500000000E-02 0. -1.
    5000001    1    1    2    0    0  0.16075946569E+03  0.10315906147E+03  0.27486603853E+03  0.37317788910E+03  0.16500000000E+03 0.  0.
   -5000001    1    1    2    0    0 -0.16075946569E+03 -0.10315906147E+03  0.77601328517E+02  0.26406886216E+03  0.16500000000E+03 0.  0.
<mgrwt>
<rscale>  0 0.53089564E+03</rscale>
<asrwt>0</asrwt>
<pdfrwt beam="1">  1        2 0.70693865E-01 0.53089564E+03</pdfrwt>
<pdfrwt beam="2">  1       -2 0.20341385E-01 0.53089564E+03</pdfrwt>
<totfact> 0.14054689E+03</totfact>
</mgrwt>
</event>
<event>
 4    1  0.5323640E-005  0.7046223E+03  0.7818608E-02  0.9709360E-01
          2   -1    0    0  501    0  0.00000000000E+00  0.00000000000E+00  0.22701240016E+04  0.22701240016E+04  0.25500000000E-02 0.  1.
         -2   -1    0    0    0  501 -0.00000000000E+00 -0.00000000000E+00 -0.54676816359E+02  0.54676816418E+02  0.25500000000E-02 0. -1.
    5000001    1    1    2    0    0  0.20693314424E+03 -0.32968316650E+02  0.18672204380E+04  0.18861721555E+04  0.16500000000E+03 0.  0.
   -5000001    1    1    2    0    0 -0.20693314424E+03  0.32968316650E+02  0.34822674720E+03  0.43862866248E+03  0.16500000000E+03 0.  0.
<mgrwt>
<rscale>  0 0.70462232E+03</rscale>
<asrwt>0</asrwt>
<pdfrwt beam="1">  1        2 0.32430339E+00 0.70462232E+03</pdfrwt>
<pdfrwt beam="2">  1       -2 0.78109747E-02 0.70462232E+03</pdfrwt>
<totfact> 0.61223550E+02</totfact>
</mgrwt>
</event>
<event>
 4    1  0.5323640E-005  0.8457115E+03  0.7818608E-02  0.9496111E-01
         -2   -1    0    0    0  501 -0.00000000000E+00  0.00000000000E+00  0.20960728457E+04  0.20960728457E+04  0.25500000000E-02 0. -1.
          2   -1    0    0  501    0  0.00000000000E+00 -0.00000000000E+00 -0.85305711411E+02  0.85305711449E+02  0.25500000000E-02 0.  1.
    5000001    1    1    2    0    0 -0.26946853808E+03  0.19539146137E+03  0.48444047569E+03  0.61049053283E+03  0.16500000000E+03 0.  0.
   -5000001    1    1    2    0    0  0.26946853808E+03 -0.19539146137E+03  0.15263266586E+04  0.15708880243E+04  0.16500000000E+03 0.  0.
<mgrwt>
<rscale>  0 0.84571150E+03</rscale>
<asrwt>0</asrwt>
<pdfrwt beam="1">  1        2 0.12186531E-01 0.84571150E+03</pdfrwt>
<pdfrwt beam="2">  1       -2 0.29943896E+00 0.84571150E+03</pdfrwt>
<totfact> 0.17119822E+01</totfact>
</mgrwt>
</event>
<event>
 4    1  0.5323640E-005  0.8842539E+03  0.7818608E-02  0.9445482E-01
          2   -1    0    0  501    0  0.00000000000E+00  0.00000000000E+00  0.10619565026E+04  0.10619565026E+04  0.25500000000E-02 0.  1.
         -2   -1    0    0    0  501 -0.00000000000E+00 -0.00000000000E+00 -0.18407177594E+03  0.18407177596E+03  0.25500000000E-02 0. -1.
    5000001    1    1    2    0    0 -0.12403784342E+03 -0.11369053391E+03 -0.88193216513E+02  0.25162266897E+03  0.16500000000E+03 0.  0.
   -5000001    1    1    2    0    0  0.12403784342E+03  0.11369053391E+03  0.96607794315E+03  0.99440560957E+03  0.16500000000E+03 0.  0.
<mgrwt>
<rscale>  0 0.88425385E+03</rscale>
<asrwt>0</asrwt>
<pdfrwt beam="1">  1        2 0.15170807E+00 0.88425385E+03</pdfrwt>
<pdfrwt beam="2">  1       -2 0.26295968E-01 0.88425385E+03</pdfrwt>
<totfact> 0.33666701E+02</totfact>
</mgrwt>
</event>
<event>
 4    1  0.5323640E-005  0.5712486E+03  0.7818608E-02  0.9966919E-01
         -2   -1    0    0    0  501 -0.00000000000E+00  0.00000000000E+00  0.14564650958E+03  0.14564650961E+03  0.25500000000E-02 0. -1.
          2   -1    0    0  501    0  0.00000000000E+00 -0.00000000000E+00 -0.56013185318E+03  0.56013185318E+03  0.25500000000E-02 0.  1.
    5000001    1    1    2    0    0  0.69485257183E+02 -0.18316386373E+03 -0.51065119964E+02  0.26117015224E+03  0.16500000000E+03 0.  0.
   -5000001    1    1    2    0    0 -0.69485257183E+02  0.18316386373E+03 -0.36342022363E+03  0.44460821055E+03  0.16500000000E+03 0.  0.
<mgrwt>
<rscale>  0 0.57124863E+03</rscale>
<asrwt>0</asrwt>
<pdfrwt beam="1">  1        2 0.80018835E-01 0.57124863E+03</pdfrwt>
<pdfrwt beam="2">  1       -2 0.20806645E-01 0.57124863E+03</pdfrwt>
<totfact> 0.11722778E+03</totfact>
</mgrwt>
</event>
<event>
 4    1  0.5323640E-005  0.3947320E+03  0.7818608E-02  0.1045619E+00
         -2   -1    0    0    0  501 -0.00000000000E+00  0.00000000000E+00  0.21771920752E+03  0.21771920754E+03  0.25500000000E-02 0. -1.
          2   -1    0    0  501    0  0.00000000000E+00 -0.00000000000E+00 -0.17891549390E+03  0.17891549392E+03  0.25500000000E-02 0.  1.
    5000001    1    1    2    0    0 -0.80443972455E+02  0.53138123298E+02 -0.30165902008E+02  0.19346801931E+03  0.16500000000E+03 0.  0.
   -5000001    1    1    2    0    0  0.80443972455E+02 -0.53138123298E+02  0.68969615633E+02  0.20316668214E+03  0.16500000000E+03 0.  0.
<mgrwt>
<rscale>  0 0.39473201E+03</rscale>
<asrwt>0</asrwt>
<pdfrwt beam="1">  1        2 0.25559356E-01 0.39473201E+03</pdfrwt>
<pdfrwt beam="2">  1       -2 0.31102744E-01 0.39473201E+03</pdfrwt>
<totfact> 0.20228210E+03</totfact>
</mgrwt>
</event>
<event>
 4    1  0.5323640E-005  0.5277059E+03  0.7818608E-02  0.1006790E+00
         -2   -1    0    0    0  501 -0.00000000000E+00  0.00000000000E+00  0.45947782325E+02  0.45947782396E+02  0.25500000000E-02 0. -1.
          2   -1    0    0  501    0  0.00000000000E+00 -0.00000000000E+00 -0.15151628270E+04  0.15151628270E+04  0.25500000000E-02 0.  1.
    5000001    1    1    2    0    0 -0.19787912430E+03  0.51743415434E+02 -0.66461125955E+03  0.71467940728E+03  0.16500000000E+03 0.  0.
   -5000001    1    1    2    0    0  0.19787912430E+03 -0.51743415434E+02 -0.80460378508E+03  0.84643120207E+03  0.16500000000E+03 0.  0.
<mgrwt>
<rscale>  0 0.52770587E+03</rscale>
<asrwt>0</asrwt>
<pdfrwt beam="1">  1        2 0.21645180E+00 0.52770587E+03</pdfrwt>
<pdfrwt beam="2">  1       -2 0.65639698E-02 0.52770587E+03</pdfrwt>
<totfact> 0.19625726E+03</totfact>
</mgrwt>
</event>
<event>
 4    1  0.5323640E-005  0.4558135E+03  0.7818608E-02  0.1026002E+00
         -2   -1    0    0    0  501 -0.00000000000E+00  0.00000000000E+00  0.27434778604E+02  0.27434778722E+02  0.25500000000E-02 0. -1.
          2   -1    0    0  501    0  0.00000000000E+00 -0.00000000000E+00 -0.18932715637E+04  0.18932715637E+04  0.25500000000E-02 0.  1.
    5000001    1    1    2    0    0  0.63122032954E+01 -0.13220589982E+03 -0.12904274290E+04  0.13076491094E+04  0.16500000000E+03 0.  0.
   -5000001    1    1    2    0    0 -0.63122032954E+01  0.13220589982E+03 -0.57540935616E+03  0.61305723307E+03  0.16500000000E+03 0.  0.
<mgrwt>
<rscale>  0 0.45581350E+03</rscale>
<asrwt>0</asrwt>
<pdfrwt beam="1">  1        2 0.27046728E+00 0.45581350E+03</pdfrwt>
<pdfrwt beam="2">  1       -2 0.39192553E-02 0.45581350E+03</pdfrwt>
<totfact> 0.28097376E+03</totfact>
</mgrwt>
</event>
<event>
 4    1  0.5323640E-005  0.7280105E+03  0.7818608E-02  0.9670494E-01
         -2   -1    0    0    0  501 -0.00000000000E+00  0.00000000000E+00  0.55376966781E+02  0.55376966840E+02  0.25500000000E-02 0. -1.
          2   -1    0    0  501    0  0.00000000000E+00 -0.00000000000E+00 -0.23926881357E+04  0.23926881357E+04  0.25500000000E-02 0.  1.
    5000001    1    1    2    0    0  0.31105987011E+03 -0.84645273947E+02 -0.12922881638E+04  0.13420718176E+04  0.16500000000E+03 0.  0.
   -5000001    1    1    2    0    0 -0.31105987011E+03  0.84645273947E+02 -0.10450230051E+04  0.11059932850E+04  0.16500000000E+03 0.  0.
<mgrwt>
<rscale>  0 0.72801047E+03</rscale>
<asrwt>0</asrwt>
<pdfrwt beam="1">  1        2 0.34181253E+00 0.72801047E+03</pdfrwt>
<pdfrwt beam="2">  1       -2 0.79109968E-02 0.72801047E+03</pdfrwt>
<totfact> 0.51862318E+02</totfact>
</mgrwt>
</event>
<event>
 4    1  0.5323640E-005  0.6106633E+03  0.7818608E-02  0.9883527E-01
         -2   -1    0    0    0  501 -0.00000000000E+00  0.00000000000E+00  0.60570685048E+02  0.60570685102E+02  0.25500000000E-02 0. -1.
          2   -1    0    0  501    0  0.00000000000E+00 -0.00000000000E+00 -0.15391508646E+04  0.15391508646E+04  0.25500000000E-02 0.  1.
    5000001    1    1    2    0    0 -0.20493607497E+03  0.14147466760E+03 -0.57384653276E+03  0.64694568517E+03  0.16500000000E+03 0.  0.
   -5000001    1    1    2    0    0  0.20493607497E+03 -0.14147466760E+03 -0.90473364678E+03  0.95277586452E+03  0.16500000000E+03 0.  0.
<mgrwt>
<rscale>  0 0.61066332E+03</rscale>
<asrwt>0</asrwt>
<pdfrwt beam="1">  1        2 0.21987867E+00 0.61066332E+03</pdfrwt>
<pdfrwt beam="2">  1       -2 0.86529559E-02 0.61066332E+03</pdfrwt>
<totfact> 0.12271796E+03</totfact>
</mgrwt>
</event>
<event>
 4    1  0.5323640E-005  0.4659829E+03  0.7818608E-02  0.1023060E+00
          2   -1    0    0  501    0  0.00000000000E+00  0.00000000000E+00  0.32805226551E+03  0.32805226552E+03  0.25500000000E-02 0.  1.
         -2   -1    0    0    0  501 -0.00000000000E+00 -0.00000000000E+00 -0.16547673072E+03  0.16547673074E+03  0.25500000000E-02 0. -1.
    5000001    1    1    2    0    0  0.24514702041E+02  0.15680141999E+03  0.35459079378E+02  0.23166787054E+03  0.16500000000E+03 0.  0.
   -5000001    1    1    2    0    0 -0.24514702041E+02 -0.15680141999E+03  0.12711645541E+03  0.26186112572E+03  0.16500000000E+03 0.  0.
<mgrwt>
<rscale>  0 0.46598290E+03</rscale>
<asrwt>0</asrwt>
<pdfrwt beam="1">  1        2 0.46864609E-01 0.46598290E+03</pdfrwt>
<pdfrwt beam="2">  1       -2 0.23639533E-01 0.46598290E+03</pdfrwt>
<totfact> 0.17017457E+03</totfact>
</mgrwt>
</event>
<event>
 4    1  0.5323640E-005  0.5382713E+03  0.7818608E-02  0.1004246E+00
          2   -1    0    0  501    0  0.00000000000E+00  0.00000000000E+00  0.14862329241E+04  0.14862329241E+04  0.25500000000E-02 0.  1.
         -2   -1    0    0    0  501 -0.00000000000E+00 -0.00000000000E+00 -0.48736637323E+02  0.48736637390E+02  0.25500000000E-02 0. -1.
    5000001    1    1    2    0    0  0.20558521119E+03 -0.53752167985E+02  0.69771135035E+03  0.74778386117E+03  0.16500000000E+03 0.  0.
   -5000001    1    1    2    0    0 -0.20558521119E+03  0.53752167985E+02  0.73978493644E+03  0.78718570034E+03  0.16500000000E+03 0.  0.
<mgrwt>
<rscale>  0 0.53827129E+03</rscale>
<asrwt>0</asrwt>
<pdfrwt beam="1">  1        2 0.21231895E+00 0.53827129E+03</pdfrwt>
<pdfrwt beam="2">  1       -2 0.69623779E-02 0.53827129E+03</pdfrwt>
<totfact> 0.18512604E+03</totfact>
</mgrwt>
</event>
<event>
 4    1  0.5323640E-005  0.9757261E+03  0.7818608E-02  0.9335576E-01
         -2   -1    0    0    0  501 -0.00000000000E+00  0.00000000000E+00  0.13215187612E+03  0.13215187614E+03  0.25500000000E-02 0. -1.
          2   -1    0    0  501    0  0.00000000000E+00 -0.00000000000E+00 -0.18010365035E+04  0.18010365035E+04  0.25500000000E-02 0.  1.
    5000001    1    1    2    0    0 -0.52466040720E+02 -0.35243039427E+03 -0.26080909544E+03  0.47138758203E+03  0.16500000000E+03 0.  0.
   -5000001    1    1    2    0    0  0.52466040720E+02  0.35243039427E+03 -0.14080755319E+04  0.14618007976E+04  0.16500000000E+03 0.  0.
<mgrwt>
<rscale>  0 0.97572609E+03</rscale>
<asrwt>0</asrwt>
<pdfrwt beam="1">  1        2 0.25729091E+00 0.97572609E+03</pdfrwt>
<pdfrwt beam="2">  1       -2 0.18878841E-01 0.97572609E+03</pdfrwt>
<totfact> 0.24024045E+02</totfact>
</mgrwt>
</event>
<event>
 4    1  0.5323640E-005  0.6922041E+03  0.7818608E-02  0.9730658E-01
          2   -1    0    0  501    0  0.00000000000E+00  0.00000000000E+00  0.54797313933E+03  0.54797313934E+03  0.25500000000E-02 0.  1.
         -2   -1    0    0    0  501 -0.00000000000E+00 -0.00000000000E+00 -0.21859948516E+03  0.21859948518E+03  0.25500000000E-02 0. -1.
    5000001    1    1    2    0    0  0.32710450483E+02  0.14371264699E+03  0.45943649113E+03  0.50993155213E+03  0.16500000000E+03 0.  0.
   -5000001    1    1    2    0    0 -0.32710450483E+02 -0.14371264699E+03 -0.13006283696E+03  0.25664107238E+03  0.16500000000E+03 0.  0.
<mgrwt>
<rscale>  0 0.69220415E+03</rscale>
<asrwt>0</asrwt>
<pdfrwt beam="1">  1        2 0.78281877E-01 0.69220415E+03</pdfrwt>
<pdfrwt beam="2">  1       -2 0.31228498E-01 0.69220415E+03</pdfrwt>
<totfact> 0.57688978E+02</totfact>
</mgrwt>
</event>
<event>
 4    1  0.5323640E-005  0.4261245E+03  0.7818608E-02  0.1035091E+00
          2   -1    0    0  501    0  0.00000000000E+00  0.00000000000E+00  0.90073870653E+03  0.90073870653E+03  0.25500000000E-02 0.  1.
         -2   -1    0    0    0  501 -0.00000000000E+00 -0.00000000000E+00 -0.50398095906E+02  0.50398095970E+02  0.25500000000E-02 0. -1.
    5000001    1    1    2    0    0 -0.41870506119E+01 -0.49988752055E+02  0.14590261682E+03  0.22589595021E+03  0.16500000000E+03 0.  0.
   -5000001    1    1    2    0    0  0.41870506119E+01  0.49988752055E+02  0.70443799381E+03  0.72524085230E+03  0.16500000000E+03 0.  0.
<mgrwt>
<rscale>  0 0.42612447E+03</rscale>
<asrwt>0</asrwt>
<pdfrwt beam="1">  1        2 0.12867697E+00 0.42612447E+03</pdfrwt>
<pdfrwt beam="2">  1       -2 0.71997275E-02 0.42612447E+03</pdfrwt>
<totfact> 0.37582272E+03</totfact>
</mgrwt>
</event>
<event>
 4    1  0.5323640E-005  0.4885909E+03  0.7818608E-02  0.1016801E+00
          2   -1    0    0  501    0  0.00000000000E+00  0.00000000000E+00  0.16452208508E+04  0.16452208508E+04  0.25500000000E-02 0.  1.
         -2   -1    0    0    0  501 -0.00000000000E+00 -0.00000000000E+00 -0.36274922406E+02  0.36274922496E+02  0.25500000000E-02 0. -1.
    5000001    1    1    2    0    0 -0.11562035782E+03 -0.13181565392E+03  0.94686317086E+03  0.97699452307E+03  0.16500000000E+03 0.  0.
   -5000001    1    1    2    0    0  0.11562035782E+03  0.13181565392E+03  0.66208275757E+03  0.70450125027E+03  0.16500000000E+03 0.  0.
<mgrwt>
<rscale>  0 0.48859087E+03</rscale>
<asrwt>0</asrwt>
<pdfrwt beam="1">  1        2 0.23503158E+00 0.48859087E+03</pdfrwt>
<pdfrwt beam="2">  1       -2 0.51821312E-02 0.48859087E+03</pdfrwt>
<totfact> 0.24352830E+03</totfact>
</mgrwt>
</event>
<event>
 4    1  0.5323640E-005  0.6504909E+03  0.7818608E-02  0.9805858E-01
          2   -1    0    0  501    0  0.00000000000E+00  0.00000000000E+00  0.89879114993E+03  0.89879114994E+03  0.25500000000E-02 0.  1.
         -2   -1    0    0    0  501 -0.00000000000E+00 -0.00000000000E+00 -0.11769654483E+03  0.11769654486E+03  0.25500000000E-02 0. -1.
    5000001    1    1    2    0    0  0.27475122118E+03 -0.11037315800E+02  0.30568021924E+03  0.44302985488E+03  0.16500000000E+03 0.  0.
   -5000001    1    1    2    0    0 -0.27475122118E+03  0.11037315800E+02  0.47541438586E+03  0.57345783992E+03  0.16500000000E+03 0.  0.
<mgrwt>
<rscale>  0 0.65049093E+03</rscale>
<asrwt>0</asrwt>
<pdfrwt beam="1">  1        2 0.12839873E+00 0.65049093E+03</pdfrwt>
<pdfrwt beam="2">  1       -2 0.16813792E-01 0.65049093E+03</pdfrwt>
<totfact> 0.94296443E+02</totfact>
</mgrwt>
</event>
<event>
 4    1  0.5323640E-005  0.3915223E+03  0.7818608E-02  0.1046755E+00
          2   -1    0    0  501    0  0.00000000000E+00  0.00000000000E+00  0.15008506181E+03  0.15008506184E+03  0.25500000000E-02 0. -1.
         -2   -1    0    0    0  501 -0.00000000000E+00 -0.00000000000E+00 -0.25533804268E+03  0.25533804269E+03  0.25500000000E-02 0.  1.
    5000001    1    1    2    0    0  0.52226656672E+02 -0.67605445177E+02  0.11200466869E+02  0.18614126448E+03  0.16500000000E+03 0.  0.
   -5000001    1    1    2    0    0 -0.52226656672E+02  0.67605445177E+02 -0.11645344773E+03  0.21928184005E+03  0.16500000000E+03 0.  0.
<mgrwt>
<rscale>  0 0.39152229E+03</rscale>
<asrwt>0</asrwt>
<pdfrwt beam="1">  1        2 0.21440723E-01 0.39152229E+03</pdfrwt>
<pdfrwt beam="2">  1       -2 0.36476863E-01 0.39152229E+03</pdfrwt>
<totfact> 0.18344756E+03</totfact>
</mgrwt>
</event>
<event>
 4    1  0.5323640E-005  0.5568913E+03  0.7818608E-02  0.9999113E-01
          2   -1    0    0  501    0  0.00000000000E+00  0.00000000000E+00  0.14174575728E+03  0.14174575730E+03  0.25500000000E-02 0.  1.
         -2   -1    0    0    0  501 -0.00000000000E+00 -0.00000000000E+00 -0.54697916917E+03  0.54697916917E+03  0.25500000000E-02 0. -1.
    5000001    1    1    2    0    0 -0.18577079284E+03 -0.63585155379E+02 -0.68540439013E+02  0.26547438904E+03  0.16500000000E+03 0.  0.
   -5000001    1    1    2    0    0  0.18577079284E+03  0.63585155379E+02 -0.33669297287E+03  0.42325053743E+03  0.16500000000E+03 0.  0.
<mgrwt>
<rscale>  0 0.55689129E+03</rscale>
<asrwt>0</asrwt>
<pdfrwt beam="1">  1        2 0.20249394E-01 0.55689129E+03</pdfrwt>
<pdfrwt beam="2">  1       -2 0.78139880E-01 0.55689129E+03</pdfrwt>
<totfact> 0.41205189E+02</totfact>
</mgrwt>
</event>
<event>
 4    1  0.5323640E-005  0.4249402E+03  0.7818608E-02  0.1035470E+00
         -2   -1    0    0    0  501 -0.00000000000E+00  0.00000000000E+00  0.24261245344E+03  0.24261245345E+03  0.25500000000E-02 0. -1.
          2   -1    0    0  501    0  0.00000000000E+00 -0.00000000000E+00 -0.18607265463E+03  0.18607265465E+03  0.25500000000E-02 0.  1.
    5000001    1    1    2    0    0  0.10905820258E+03 -0.74751016912E+02  0.49361981624E+02  0.21712441435E+03  0.16500000000E+03 0.  0.
   -5000001    1    1    2    0    0 -0.10905820258E+03  0.74751016912E+02  0.71778171791E+01  0.21156069375E+03  0.16500000000E+03 0.  0.
<mgrwt>
<rscale>  0 0.42494020E+03</rscale>
<asrwt>0</asrwt>
<pdfrwt beam="1">  1        2 0.26581808E-01 0.42494020E+03</pdfrwt>
<pdfrwt beam="2">  1       -2 0.34658922E-01 0.42494020E+03</pdfrwt>
<totfact> 0.15837830E+03</totfact>
</mgrwt>
</event>
<event>
 4    1  0.5323640E-005  0.4210558E+03  0.7818608E-02  0.1036723E+00
         -2   -1    0    0    0  501 -0.00000000000E+00  0.00000000000E+00  0.16867215680E+03  0.16867215682E+03  0.25500000000E-02 0. -1.
          2   -1    0    0  501    0  0.00000000000E+00 -0.00000000000E+00 -0.26277007953E+03  0.26277007954E+03  0.25500000000E-02 0.  1.
    5000001    1    1    2    0    0 -0.35729802920E+02 -0.95225085556E+02  0.37152037552E+02  0.19735680791E+03  0.16500000000E+03 0.  0.
   -5000001    1    1    2    0    0  0.35729802920E+02  0.95225085556E+02 -0.13124996028E+03  0.23408542844E+03  0.16500000000E+03 0.  0.
<mgrwt>
<rscale>  0 0.42105580E+03</rscale>
<asrwt>0</asrwt>
<pdfrwt beam="1">  1        2 0.37538583E-01 0.42105580E+03</pdfrwt>
<pdfrwt beam="2">  1       -2 0.24096023E-01 0.42105580E+03</pdfrwt>
<totfact> 0.20953156E+03</totfact>
</mgrwt>
</event>
<event>
 4    1  0.5323640E-005  0.5976079E+03  0.7818608E-02  0.9910381E-01
         -2   -1    0    0    0  501 -0.00000000000E+00  0.00000000000E+00  0.21721439513E+03  0.21721439515E+03  0.25500000000E-02 0. -1.
          2   -1    0    0  501    0  0.00000000000E+00 -0.00000000000E+00 -0.41103995645E+03  0.41103995646E+03  0.25500000000E-02 0.  1.
    5000001    1    1    2    0    0  0.14790090966E+03  0.14205494633E+03 -0.24560324996E+03  0.36000033785E+03  0.16500000000E+03 0.  0.
   -5000001    1    1    2    0    0 -0.14790090966E+03 -0.14205494633E+03  0.51777688643E+02  0.26825401376E+03  0.16500000000E+03 0.  0.
<mgrwt>
<rscale>  0 0.59760788E+03</rscale>
<asrwt>0</asrwt>
<pdfrwt beam="1">  1        2 0.58719994E-01 0.59760788E+03</pdfrwt>
<pdfrwt beam="2">  1       -2 0.31030628E-01 0.59760788E+03</pdfrwt>
<totfact> 0.81019491E+02</totfact>
</mgrwt>
</event>
<event>
 4    1  0.5323640E-005  0.3577206E+03  0.7818608E-02  0.1059490E+00
          2   -1    0    0  501    0  0.00000000000E+00  0.00000000000E+00  0.17893162865E+04  0.17893162865E+04  0.25500000000E-02 0.  1.
         -2   -1    0    0    0  501 -0.00000000000E+00 -0.00000000000E+00 -0.17878902729E+02  0.17878902911E+02  0.25500000000E-02 0. -1.
    5000001    1    1    2    0    0  0.52011370218E+02 -0.16001196077E+02  0.67109653914E+03  0.69322203207E+03  0.16500000000E+03 0.  0.
   -5000001    1    1    2    0    0 -0.52011370218E+02  0.16001196077E+02  0.11003408446E+04  0.11139731573E+04  0.16500000000E+03 0.  0.
<mgrwt>
<rscale>  0 0.35772063E+03</rscale>
<asrwt>0</asrwt>
<pdfrwt beam="1">  1        2 0.25561644E+00 0.35772063E+03</pdfrwt>
<pdfrwt beam="2">  1       -2 0.25541307E-02 0.35772063E+03</pdfrwt>
<totfact> 0.60417050E+03</totfact>
</mgrwt>
</event>
<event>
 4    1  0.5323640E-005  0.7993074E+03  0.7818608E-02  0.9561020E-01
          2   -1    0    0  501    0  0.00000000000E+00  0.00000000000E+00  0.11470979233E+04  0.11470979234E+04  0.25500000000E-02 0.  1.
         -2   -1    0    0    0  501 -0.00000000000E+00 -0.00000000000E+00 -0.13924103128E+03  0.13924103130E+03  0.25500000000E-02 0. -1.
    5000001    1    1    2    0    0  0.57737316563E+02  0.26018479223E+03  0.10493347096E+03  0.33055371297E+03  0.16500000000E+03 0.  0.
   -5000001    1    1    2    0    0 -0.57737316563E+02 -0.26018479223E+03  0.90292342111E+03  0.95578524168E+03  0.16500000000E+03 0.  0.
<mgrwt>
<rscale>  0 0.79930744E+03</rscale>
<asrwt>0</asrwt>
<pdfrwt beam="1">  1        2 0.16387112E+00 0.79930744E+03</pdfrwt>
<pdfrwt beam="2">  1       -2 0.19891577E-01 0.79930744E+03</pdfrwt>
<totfact> 0.49552594E+02</totfact>
</mgrwt>
</event>
<event>
 4    1  0.5323640E-005  0.4596973E+03  0.7818608E-02  0.1024869E+00
          2   -1    0    0  501    0  0.00000000000E+00  0.00000000000E+00  0.10091405957E+04  0.10091405957E+04  0.25500000000E-02 0.  1.
         -2   -1    0    0    0  501 -0.00000000000E+00 -0.00000000000E+00 -0.52351881177E+02  0.52351881239E+02  0.25500000000E-02 0. -1.
    5000001    1    1    2    0    0 -0.55686265235E+02  0.75769378343E+02  0.17942502686E+03  0.26126672022E+03  0.16500000000E+03 0.  0.
   -5000001    1    1    2    0    0  0.55686265235E+02 -0.75769378343E+02  0.77736368771E+03  0.80022575677E+03  0.16500000000E+03 0.  0.
<mgrwt>
<rscale>  0 0.45969733E+03</rscale>
<asrwt>0</asrwt>
<pdfrwt beam="1">  1        2 0.14416293E+00 0.45969733E+03</pdfrwt>
<pdfrwt beam="2">  1       -2 0.74788406E-02 0.45969733E+03</pdfrwt>
<totfact> 0.30357630E+03</totfact>
</mgrwt>
</event>
<event>
 4    1  0.5323640E-005  0.5016563E+03  0.7818608E-02  0.1013347E+00
         -2   -1    0    0    0  501 -0.00000000000E+00  0.00000000000E+00  0.15773556746E+03  0.15773556748E+03  0.25500000000E-02 0. -1.
          2   -1    0    0  501    0  0.00000000000E+00 -0.00000000000E+00 -0.39886229811E+03  0.39886229811E+03  0.25500000000E-02 0.  1.
    5000001    1    1    2    0    0  0.14574684466E+03  0.69810110082E+02 -0.22912739405E+03  0.32533053484E+03  0.16500000000E+03 0.  0.
   -5000001    1    1    2    0    0 -0.14574684466E+03 -0.69810110082E+02 -0.11999336596E+02  0.23126733076E+03  0.16500000000E+03 0.  0.
<mgrwt>
<rscale>  0 0.50165634E+03</rscale>
<asrwt>0</asrwt>
<pdfrwt beam="1">  1        2 0.56980328E-01 0.50165634E+03</pdfrwt>
<pdfrwt beam="2">  1       -2 0.22533653E-01 0.50165634E+03</pdfrwt>
<totfact> 0.14945045E+03</totfact>
</mgrwt>
</event>
<event>
 4    1  0.5323640E-005  0.4378620E+03  0.7818608E-02  0.1031405E+00
          2   -1    0    0  501    0  0.00000000000E+00  0.00000000000E+00  0.24341929987E+03  0.24341929988E+03  0.25500000000E-02 0.  1.
         -2   -1    0    0    0  501 -0.00000000000E+00 -0.00000000000E+00 -0.19690625137E+03  0.19690625138E+03  0.25500000000E-02 0. -1.
    5000001    1    1    2    0    0 -0.10856472408E+03  0.94422917650E+02  0.25215602530E+02  0.22036971957E+03  0.16500000000E+03 0.  0.
   -5000001    1    1    2    0    0  0.10856472408E+03 -0.94422917650E+02  0.21297445969E+02  0.21995583169E+03  0.16500000000E+03 0.  0.
<mgrwt>
<rscale>  0 0.43786200E+03</rscale>
<asrwt>0</asrwt>
<pdfrwt beam="1">  1        2 0.34774186E-01 0.43786200E+03</pdfrwt>
<pdfrwt beam="2">  1       -2 0.28129464E-01 0.43786200E+03</pdfrwt>
<totfact> 0.17274658E+03</totfact>
</mgrwt>
</event>
<event>
 4    1  0.5323640E-005  0.5819058E+03  0.7818608E-02  0.9943674E-01
         -2   -1    0    0    0  501 -0.00000000000E+00  0.00000000000E+00  0.62979440945E+03  0.62979440946E+03  0.25500000000E-02 0. -1.
          2   -1    0    0  501    0  0.00000000000E+00 -0.00000000000E+00 -0.13441462625E+03  0.13441462627E+03  0.25500000000E-02 0.  1.
    5000001    1    1    2    0    0  0.17436188657E+03 -0.92931114498E+02  0.69593894511E+02  0.26665815136E+03  0.16500000000E+03 0.  0.
   -5000001    1    1    2    0    0 -0.17436188657E+03  0.92931114498E+02  0.42578588869E+03  0.49755088437E+03  0.16500000000E+03 0.  0.
<mgrwt>
<rscale>  0 0.58190577E+03</rscale>
<asrwt>0</asrwt>
<pdfrwt beam="1">  1        2 0.19202089E-01 0.58190577E+03</pdfrwt>
<pdfrwt beam="2">  1       -2 0.89970632E-01 0.58190577E+03</pdfrwt>
<totfact> 0.31874766E+02</totfact>
</mgrwt>
</event>
<event>
 4    1  0.5323640E-005  0.6598825E+03  0.7818608E-02  0.9788410E-01
         -2   -1    0    0    0  501 -0.00000000000E+00  0.00000000000E+00  0.49038382814E+02  0.49038382881E+02  0.25500000000E-02 0. -1.
          2   -1    0    0  501    0  0.00000000000E+00 -0.00000000000E+00 -0.22199189407E+04  0.22199189407E+04  0.25500000000E-02 0.  1.
    5000001    1    1    2    0    0 -0.10373895605E+03 -0.13712348232E+03 -0.30081874148E+03  0.38377276562E+03  0.16500000000E+03 0.  0.
   -5000001    1    1    2    0    0  0.10373895605E+03  0.13712348232E+03 -0.18700618164E+04  0.18851845579E+04  0.16500000000E+03 0.  0.
<mgrwt>
<rscale>  0 0.65988252E+03</rscale>
<asrwt>0</asrwt>
<pdfrwt beam="1">  1        2 0.31713121E+00 0.65988252E+03</pdfrwt>
<pdfrwt beam="2">  1       -2 0.70054847E-02 0.65988252E+03</pdfrwt>
<totfact> 0.77419977E+02</totfact>
</mgrwt>
</event>
<event>
 4    1  0.5323640E-005  0.4215316E+03  0.7818608E-02  0.1036569E+00
          2   -1    0    0  501    0  0.00000000000E+00  0.00000000000E+00  0.16583366485E+04  0.16583366485E+04  0.25500000000E-02 0.  1.
         -2   -1    0    0    0  501 -0.00000000000E+00 -0.00000000000E+00 -0.26787210033E+02  0.26787210155E+02  0.25500000000E-02 0. -1.
    5000001    1    1    2    0    0 -0.35391305280E+02 -0.10300149811E+03  0.52377423698E+03  0.55984489318E+03  0.16500000000E+03 0.  0.
   -5000001    1    1    2    0    0  0.35391305280E+02  0.10300149811E+03  0.11077752015E+04  0.11252789655E+04  0.16500000000E+03 0.  0.
<mgrwt>
<rscale>  0 0.42153155E+03</rscale>
<asrwt>0</asrwt>
<pdfrwt beam="1">  1        2 0.23690524E+00 0.42153155E+03</pdfrwt>
<pdfrwt beam="2">  1       -2 0.38267442E-02 0.42153155E+03</pdfrwt>
<totfact> 0.38215783E+03</totfact>
</mgrwt>
</event>
<event>
 4    1  0.5323640E-005  0.4370539E+03  0.7818608E-02  0.1031655E+00
         -2   -1    0    0    0  501 -0.00000000000E+00  0.00000000000E+00  0.65817650245E+02  0.65817650294E+02  0.25500000000E-02 0. -1.
          2   -1    0    0  501    0  0.00000000000E+00 -0.00000000000E+00 -0.72555033854E+03  0.72555033854E+03  0.25500000000E-02 0.  1.
    5000001    1    1    2    0    0 -0.14226973305E+02 -0.14092860626E+03 -0.29078989359E+03  0.36310747864E+03  0.16500000000E+03 0.  0.
   -5000001    1    1    2    0    0  0.14226973305E+02  0.14092860626E+03 -0.36894279471E+03  0.42826051020E+03  0.16500000000E+03 0.  0.
<mgrwt>
<rscale>  0 0.43705386E+03</rscale>
<asrwt>0</asrwt>
<pdfrwt beam="1">  1        2 0.10365004E+00 0.43705386E+03</pdfrwt>
<pdfrwt beam="2">  1       -2 0.94025219E-02 0.43705386E+03</pdfrwt>
<totfact> 0.32397822E+03</totfact>
</mgrwt>
</event>
<event>
 4    1  0.5323640E-005  0.4334086E+03  0.7818608E-02  0.1032789E+00
         -2   -1    0    0    0  501 -0.00000000000E+00  0.00000000000E+00  0.44513600990E+02  0.44513601063E+02  0.25500000000E-02 0. -1.
          2   -1    0    0  501    0  0.00000000000E+00 -0.00000000000E+00 -0.10549752109E+04  0.10549752109E+04  0.25500000000E-02 0.  1.
    5000001    1    1    2    0    0  0.33933245034E+02 -0.11838030706E+03 -0.33372862512E+03  0.39212900612E+03  0.16500000000E+03 0.  0.
   -5000001    1    1    2    0    0 -0.33933245034E+02  0.11838030706E+03 -0.67673298478E+03  0.70735980583E+03  0.16500000000E+03 0.  0.
<mgrwt>
<rscale>  0 0.43340856E+03</rscale>
<asrwt>0</asrwt>
<pdfrwt beam="1">  1        2 0.15071073E+00 0.43340856E+03</pdfrwt>
<pdfrwt beam="2">  1       -2 0.63590865E-02 0.43340856E+03</pdfrwt>
<totfact> 0.36760258E+03</totfact>
</mgrwt>
</event>
<event>
 4    1  0.5323640E-005  0.5970941E+03  0.7818608E-02  0.9911453E-01
         -2   -1    0    0    0  501 -0.00000000000E+00  0.00000000000E+00  0.27299923926E+02  0.27299924045E+02  0.25500000000E-02 0. -1.
          2   -1    0    0  501    0  0.00000000000E+00 -0.00000000000E+00 -0.32648570068E+04  0.32648570068E+04  0.25500000000E-02 0.  1.
    5000001    1    1    2    0    0 -0.20468113363E+03 -0.71584797626E+01 -0.23977385254E+04  0.24121195341E+04  0.16500000000E+03 0.  0.
   -5000001    1    1    2    0    0  0.20468113363E+03  0.71584797626E+01 -0.83981855741E+03  0.88003739675E+03  0.16500000000E+03 0.  0.
<mgrwt>
<rscale>  0 0.59709412E+03</rscale>
<asrwt>0</asrwt>
<pdfrwt beam="1">  1        2 0.46640790E+00 0.59709412E+03</pdfrwt>
<pdfrwt beam="2">  1       -2 0.38999912E-02 0.59709412E+03</pdfrwt>
<totfact> 0.54140130E+02</totfact>
</mgrwt>
</event>
<event>
 4    1  0.5323640E-005  0.9564728E+03  0.7818608E-02  0.9357617E-01
          2   -1    0    0  501    0  0.00000000000E+00  0.00000000000E+00  0.17683224215E+04  0.17683224215E+04  0.25500000000E-02 0.  1.
         -2   -1    0    0    0  501 -0.00000000000E+00 -0.00000000000E+00 -0.12933730141E+03  0.12933730144E+03  0.25500000000E-02 0. -1.
    5000001    1    1    2    0    0  0.19780397963E+02 -0.41757448783E+03  0.49514750383E+03  0.66869706712E+03  0.16500000000E+03 0.  0.
   -5000001    1    1    2    0    0 -0.19780397963E+02  0.41757448783E+03  0.11438376162E+04  0.12289626558E+04  0.16500000000E+03 0.  0.
<mgrwt>
<rscale>  0 0.95647279E+03</rscale>
<asrwt>0</asrwt>
<pdfrwt beam="1">  1        2 0.25261749E+00 0.95647279E+03</pdfrwt>
<pdfrwt beam="2">  1       -2 0.18476757E-01 0.95647279E+03</pdfrwt>
<totfact> 0.25955631E+02</totfact>
</mgrwt>
</event>
<event>
 4    1  0.5323640E-005  0.5165862E+03  0.7818608E-02  0.1009538E+00
         -2   -1    0    0    0  501 -0.00000000000E+00  0.00000000000E+00  0.25438839124E+02  0.25438839252E+02  0.25500000000E-02 0. -1.
          2   -1    0    0  501    0  0.00000000000E+00 -0.00000000000E+00 -0.26225770775E+04  0.26225770775E+04  0.25500000000E-02 0.  1.
    5000001    1    1    2    0    0  0.13587149500E+03  0.10759547986E+03 -0.80020084880E+03  0.83521509137E+03  0.16500000000E+03 0.  0.
   -5000001    1    1    2    0    0 -0.13587149500E+03 -0.10759547986E+03 -0.17969373896E+04  0.18128008254E+04  0.16500000000E+03 0.  0.
<mgrwt>
<rscale>  0 0.51658617E+03</rscale>
<asrwt>0</asrwt>
<pdfrwt beam="1">  1        2 0.37465370E+00 0.51658617E+03</pdfrwt>
<pdfrwt beam="2">  1       -2 0.36341215E-02 0.51658617E+03</pdfrwt>
<totfact> 0.13497589E+03</totfact>
</mgrwt>
</event>
<event>
 4    1  0.5323640E-005  0.4728293E+03  0.7818608E-02  0.1021125E+00
         -2   -1    0    0    0  501 -0.00000000000E+00  0.00000000000E+00  0.33928619515E+02  0.33928619611E+02  0.25500000000E-02 0. -1.
          2   -1    0    0  501    0  0.00000000000E+00 -0.00000000000E+00 -0.16473377056E+04  0.16473377056E+04  0.25500000000E-02 0.  1.
    5000001    1    1    2    0    0 -0.62824748180E+02 -0.10342010008E+03 -0.12277913061E+04  0.12447245307E+04  0.16500000000E+03 0.  0.
   -5000001    1    1    2    0    0  0.62824748180E+02  0.10342010008E+03 -0.38561778000E+03  0.43654179449E+03  0.16500000000E+03 0.  0.
<mgrwt>
<rscale>  0 0.47282933E+03</rscale>
<asrwt>0</asrwt>
<pdfrwt beam="1">  1        2 0.23533391E+00 0.47282933E+03</pdfrwt>
<pdfrwt beam="2">  1       -2 0.48469467E-02 0.47282933E+03</pdfrwt>
<totfact> 0.26943324E+03</totfact>
</mgrwt>
</event>
<event>
 4    1  0.5323640E-005  0.9816249E+03  0.7818608E-02  0.9328931E-01
          2   -1    0    0  501    0  0.00000000000E+00  0.00000000000E+00  0.40876936555E+04  0.40876936555E+04  0.25500000000E-02 0.  1.
         -2   -1    0    0    0  501 -0.00000000000E+00 -0.00000000000E+00 -0.58932224648E+02  0.58932224703E+02  0.25500000000E-02 0. -1.
    5000001    1    1    2    0    0 -0.63208232500E+02  0.36246747105E+03  0.31963694134E+04  0.32217045760E+04  0.16500000000E+03 0.  0.
   -5000001    1    1    2    0    0  0.63208232500E+02 -0.36246747105E+03  0.83239201751E+03  0.92492130424E+03  0.16500000000E+03 0.  0.
<mgrwt>
<rscale>  0 0.98162494E+03</rscale>
<asrwt>0</asrwt>
<pdfrwt beam="1">  1        2 0.58395643E+00 0.98162494E+03</pdfrwt>
<pdfrwt beam="2">  1       -2 0.84188864E-02 0.98162494E+03</pdfrwt>
<totfact> 0.47358553E+01</totfact>
</mgrwt>
</event>
<event>
 4    1  0.5323640E-005  0.5396411E+03  0.7818608E-02  0.1003920E+00
          2   -1    0    0  501    0  0.00000000000E+00  0.00000000000E+00  0.19876542344E+04  0.19876542344E+04  0.25500000000E-02 0.  1.
         -2   -1    0    0    0  501 -0.00000000000E+00 -0.00000000000E+00 -0.36627658629E+02  0.36627658718E+02  0.25500000000E-02 0. -1.
    5000001    1    1    2    0    0 -0.15429455265E+02 -0.15200397502E+03  0.15348625162E+04  0.15512482780E+04  0.16500000000E+03 0.  0.
   -5000001    1    1    2    0    0  0.15429455265E+02  0.15200397502E+03  0.41616405960E+03  0.47303361510E+03  0.16500000000E+03 0.  0.
<mgrwt>
<rscale>  0 0.53964107E+03</rscale>
<asrwt>0</asrwt>
<pdfrwt beam="1">  1        2 0.28395050E+00 0.53964107E+03</pdfrwt>
<pdfrwt beam="2">  1       -2 0.52325246E-02 0.53964107E+03</pdfrwt>
<totfact> 0.16112972E+03</totfact>
</mgrwt>
</event>
<event>
 4    1  0.5323640E-005  0.7944216E+03  0.7818608E-02  0.9568127E-01
          2   -1    0    0  501    0  0.00000000000E+00  0.00000000000E+00  0.20446860769E+04  0.20446860769E+04  0.25500000000E-02 0. -1.
         -2   -1    0    0    0  501 -0.00000000000E+00 -0.00000000000E+00 -0.77164138191E+02  0.77164138233E+02  0.25500000000E-02 0.  1.
    5000001    1    1    2    0    0 -0.10157068361E+03 -0.27245216238E+03  0.41087981066E+03  0.52971124526E+03  0.16500000000E+03 0.  0.
   -5000001    1    1    2    0    0  0.10157068361E+03  0.27245216238E+03  0.15566421280E+04  0.15921389698E+04  0.16500000000E+03 0.  0.
<mgrwt>
<rscale>  0 0.79442165E+03</rscale>
<asrwt>0</asrwt>
<pdfrwt beam="1">  1        2 0.29209801E+00 0.79442165E+03</pdfrwt>
<pdfrwt beam="2">  1       -2 0.11023448E-01 0.79442165E+03</pdfrwt>
<totfact> 0.45329982E+02</totfact>
</mgrwt>
</event>
<event>
 4    1  0.5323640E-005  0.4340887E+03  0.7818608E-02  0.1032576E+00
         -2   -1    0    0    0  501 -0.00000000000E+00  0.00000000000E+00  0.34202559992E+02  0.34202560087E+02  0.25500000000E-02 0. -1.
          2   -1    0    0  501    0  0.00000000000E+00 -0.00000000000E+00 -0.13773308179E+04  0.13773308179E+04  0.25500000000E-02 0.  1.
    5000001    1    1    2    0    0  0.10396333042E+03 -0.57807837605E+02 -0.42535268965E+03  0.47148704198E+03  0.16500000000E+03 0.  0.
   -5000001    1    1    2    0    0 -0.10396333042E+03  0.57807837605E+02 -0.91777556823E+03  0.94004633599E+03  0.16500000000E+03 0.  0.
<mgrwt>
<rscale>  0 0.43408865E+03</rscale>
<asrwt>0</asrwt>
<pdfrwt beam="1">  1        2 0.19676151E+00 0.43408865E+03</pdfrwt>
<pdfrwt beam="2">  1       -2 0.48860809E-02 0.43408865E+03</pdfrwt>
<totfact> 0.36677634E+03</totfact>
</mgrwt>
</event>
<event>
 4    1  0.5323640E-005  0.5887826E+03  0.7818608E-02  0.9928956E-01
          2   -1    0    0  501    0  0.00000000000E+00  0.00000000000E+00  0.32362131391E+04  0.32362131391E+04  0.25500000000E-02 0.  1.
         -2   -1    0    0    0  501 -0.00000000000E+00 -0.00000000000E+00 -0.26780141993E+02  0.26780142114E+02  0.25500000000E-02 0. -1.
    5000001    1    1    2    0    0 -0.40552170274E+02  0.75130769550E+01  0.27303369738E+03  0.32167269816E+03  0.16500000000E+03 0.  0.
   -5000001    1    1    2    0    0  0.40552170274E+02 -0.75130769550E+01  0.29363992997E+04  0.29413205830E+04  0.16500000000E+03 0.  0.
<mgrwt>
<rscale>  0 0.58878263E+03</rscale>
<asrwt>0</asrwt>
<pdfrwt beam="1">  1        2 0.46231597E+00 0.58878263E+03</pdfrwt>
<pdfrwt beam="2">  1       -2 0.38257362E-02 0.58878263E+03</pdfrwt>
<totfact> 0.57934538E+02</totfact>
</mgrwt>
</event>
<event>
 4    1  0.5323640E-005  0.5804429E+03  0.7818608E-02  0.9946833E-01
         -2   -1    0    0    0  501 -0.00000000000E+00  0.00000000000E+00  0.51770644608E+02  0.51770644671E+02  0.25500000000E-02 0. -1.
          2   -1    0    0  501    0  0.00000000000E+00 -0.00000000000E+00 -0.16269543710E+04  0.16269543710E+04  0.25500000000E-02 0.  1.
    5000001    1    1    2    0    0  0.97884341395E+02  0.19971252579E+03 -0.53650702723E+03  0.60376421517E+03  0.16500000000E+03 0.  0.
   -5000001    1    1    2    0    0 -0.97884341395E+02 -0.19971252579E+03 -0.10386766992E+04  0.10749608005E+04  0.16500000000E+03 0.  0.
<mgrwt>
<rscale>  0 0.58044285E+03</rscale>
<asrwt>0</asrwt>
<pdfrwt beam="1">  1        2 0.23242202E+00 0.58044285E+03</pdfrwt>
<pdfrwt beam="2">  1       -2 0.73958074E-02 0.58044285E+03</pdfrwt>
<totfact> 0.14218549E+03</totfact>
</mgrwt>
</event>
<event>
 4    1  0.5323640E-005  0.4478101E+03  0.7818608E-02  0.1028377E+00
         -2   -1    0    0    0  501 -0.00000000000E+00  0.00000000000E+00  0.13796483555E+03  0.13796483558E+03  0.25500000000E-02 0. -1.
          2   -1    0    0  501    0  0.00000000000E+00 -0.00000000000E+00 -0.36337860525E+03  0.36337860526E+03  0.25500000000E-02 0.  1.
    5000001    1    1    2    0    0  0.20703384432E+02  0.12769912205E+03 -0.20066615888E+03  0.29021992216E+03  0.16500000000E+03 0.  0.
   -5000001    1    1    2    0    0 -0.20703384432E+02 -0.12769912205E+03 -0.24747610825E+02  0.21112351868E+03  0.16500000000E+03 0.  0.
<mgrwt>
<rscale>  0 0.44781009E+03</rscale>
<asrwt>0</asrwt>
<pdfrwt beam="1">  1        2 0.51911229E-01 0.44781009E+03</pdfrwt>
<pdfrwt beam="2">  1       -2 0.19709262E-01 0.44781009E+03</pdfrwt>
<totfact> 0.20901912E+03</totfact>
</mgrwt>
</event>
<event>
 4    1  0.5323640E-005  0.6686689E+03  0.7818608E-02  0.9772365E-01
         -2   -1    0    0    0  501 -0.00000000000E+00  0.00000000000E+00  0.18918410625E+03  0.18918410627E+03  0.25500000000E-02 0. -1.
          2   -1    0    0  501    0  0.00000000000E+00 -0.00000000000E+00 -0.59085047726E+03  0.59085047726E+03  0.25500000000E-02 0.  1.
    5000001    1    1    2    0    0  0.26289383548E+03  0.11691834321E+03 -0.15173477775E+03  0.36473484957E+03  0.16500000000E+03 0.  0.
   -5000001    1    1    2    0    0 -0.26289383548E+03 -0.11691834321E+03 -0.24993159326E+03  0.41529973396E+03  0.16500000000E+03 0.  0.
<mgrwt>
<rscale>  0 0.66866889E+03</rscale>
<asrwt>0</asrwt>
<pdfrwt beam="1">  1        2 0.84407210E-01 0.66866889E+03</pdfrwt>
<pdfrwt beam="2">  1       -2 0.27026301E-01 0.66866889E+03</pdfrwt>
<totfact> 0.68979745E+02</totfact>
</mgrwt>
</event>
<event>
 4    1  0.5323640E-005  0.5872808E+03  0.7818608E-02  0.9932151E-01
         -2   -1    0    0    0  501 -0.00000000000E+00  0.00000000000E+00  0.13521755328E+03  0.13521755330E+03  0.25500000000E-02 0. -1.
          2   -1    0    0  501    0  0.00000000000E+00 -0.00000000000E+00 -0.63767382043E+03  0.63767382044E+03  0.25500000000E-02 0.  1.
    5000001    1    1    2    0    0 -0.70983834387E+02 -0.21712744303E+01 -0.55692684797E+03  0.58518025699E+03  0.16500000000E+03 0.  0.
   -5000001    1    1    2    0    0  0.70983834387E+02  0.21712744303E+01  0.54470580816E+02  0.18771111675E+03  0.16500000000E+03 0.  0.
<mgrwt>
<rscale>  0 0.58728083E+03</rscale>
<asrwt>0</asrwt>
<pdfrwt beam="1">  1        2 0.91096259E-01 0.58728083E+03</pdfrwt>
<pdfrwt beam="2">  1       -2 0.19316794E-01 0.58728083E+03</pdfrwt>
<totfact> 0.11455260E+03</totfact>
</mgrwt>
</event>
<event>
 4    1  0.5323640E-005  0.1043348E+04  0.7818608E-02  0.9262238E-01
          2   -1    0    0  501    0  0.00000000000E+00  0.00000000000E+00  0.13357594461E+03  0.13357594463E+03  0.25500000000E-02 0.  1.
         -2   -1    0    0    0  501 -0.00000000000E+00 -0.00000000000E+00 -0.20373726745E+04  0.20373726745E+04  0.25500000000E-02 0. -1.
    5000001    1    1    2    0    0 -0.43975329434E+03  0.18997357960E+03 -0.12104986649E+04  0.13122518579E+04  0.16500000000E+03 0.  0.
   -5000001    1    1    2    0    0  0.43975329434E+03 -0.18997357960E+03 -0.69329806493E+03  0.85869676118E+03  0.16500000000E+03 0.  0.
<mgrwt>
<rscale>  0 0.10433484E+04</rscale>
<asrwt>0</asrwt>
<pdfrwt beam="1">  1        2 0.19082279E-01 0.10433484E+04</pdfrwt>
<pdfrwt beam="2">  1       -2 0.29105322E+00 0.10433484E+04</pdfrwt>
<totfact> 0.10943236E+01</totfact>
</mgrwt>
</event>
<event>
 4    1  0.5323640E-005  0.3759236E+03  0.7818608E-02  0.1052451E+00
          2   -1    0    0  501    0  0.00000000000E+00  0.00000000000E+00  0.14498807435E+04  0.14498807435E+04  0.25500000000E-02 0.  1.
         -2   -1    0    0    0  501 -0.00000000000E+00 -0.00000000000E+00 -0.24367269284E+02  0.24367269417E+02  0.25500000000E-02 0. -1.
    5000001    1    1    2    0    0  0.78221364791E+01 -0.83906928455E+02  0.83696140947E+03  0.85722281783E+03  0.16500000000E+03 0.  0.
   -5000001    1    1    2    0    0 -0.78221364791E+01  0.83906928455E+02  0.58855206477E+03  0.61702519511E+03  0.16500000000E+03 0.  0.
<mgrwt>
<rscale>  0 0.37592358E+03</rscale>
<asrwt>0</asrwt>
<pdfrwt beam="1">  1        2 0.20712587E+00 0.37592358E+03</pdfrwt>
<pdfrwt beam="2">  1       -2 0.34810377E-02 0.37592358E+03</pdfrwt>
<totfact> 0.56304704E+03</totfact>
</mgrwt>
</event>
<event>
 4    1  0.5323640E-005  0.9264576E+03  0.7818608E-02  0.9393099E-01
         -2   -1    0    0    0  501 -0.00000000000E+00  0.00000000000E+00  0.95088744566E+02  0.95088744600E+02  0.25500000000E-02 0. -1.
          2   -1    0    0  501    0  0.00000000000E+00 -0.00000000000E+00 -0.22566383952E+04  0.22566383952E+04  0.25500000000E-02 0.  1.
    5000001    1    1    2    0    0  0.29284791796E+03  0.23857037533E+03 -0.16173355417E+04  0.16690341462E+04  0.16500000000E+03 0.  0.
   -5000001    1    1    2    0    0 -0.29284791796E+03 -0.23857037533E+03 -0.54421410898E+03  0.68269299356E+03  0.16500000000E+03 0.  0.
<mgrwt>
<rscale>  0 0.92645758E+03</rscale>
<asrwt>0</asrwt>
<pdfrwt beam="1">  1        2 0.32237688E+00 0.92645758E+03</pdfrwt>
<pdfrwt beam="2">  1       -2 0.13584108E-01 0.92645758E+03</pdfrwt>
<totfact> 0.24767695E+02</totfact>
</mgrwt>
</event>
<event>
 4    1  0.5323640E-005  0.3865028E+03  0.7818608E-02  0.1048556E+00
         -2   -1    0    0    0  501 -0.00000000000E+00  0.00000000000E+00  0.82973319834E+02  0.82973319873E+02  0.25500000000E-02 0. -1.
          2   -1    0    0  501    0  0.00000000000E+00 -0.00000000000E+00 -0.45009767253E+03  0.45009767254E+03  0.25500000000E-02 0.  1.
    5000001    1    1    2    0    0 -0.56316703801E+01  0.99925454336E+02 -0.19764680746E+03  0.27623553832E+03  0.16500000000E+03 0.  0.
   -5000001    1    1    2    0    0  0.56316703801E+01 -0.99925454336E+02 -0.16947754524E+03  0.25683545409E+03  0.16500000000E+03 0.  0.
<mgrwt>
<rscale>  0 0.38650277E+03</rscale>
<asrwt>0</asrwt>
<pdfrwt beam="1">  1        2 0.64299666E-01 0.38650277E+03</pdfrwt>
<pdfrwt beam="2">  1       -2 0.11853332E-01 0.38650277E+03</pdfrwt>
<totfact> 0.38607287E+03</totfact>
</mgrwt>
</event>
<event>
 4    1  0.5323640E-005  0.4254112E+03  0.7818608E-02  0.1035319E+00
         -2   -1    0    0    0  501 -0.00000000000E+00  0.00000000000E+00  0.39489435443E+03  0.39489435444E+03  0.25500000000E-02 0. -1.
          2   -1    0    0  501    0  0.00000000000E+00 -0.00000000000E+00 -0.11457157083E+03  0.11457157086E+03  0.25500000000E-02 0.  1.
    5000001    1    1    2    0    0  0.37235865735E+02  0.12734005080E+03  0.11571574868E+03  0.24128226775E+03  0.16500000000E+03 0.  0.
   -5000001    1    1    2    0    0 -0.37235865735E+02 -0.12734005080E+03  0.16460703492E+03  0.26818365756E+03  0.16500000000E+03 0.  0.
<mgrwt>
<rscale>  0 0.42541117E+03</rscale>
<asrwt>0</asrwt>
<pdfrwt beam="1">  1        2 0.16367367E-01 0.42541117E+03</pdfrwt>
<pdfrwt beam="2">  1       -2 0.56413479E-01 0.42541117E+03</pdfrwt>
<totfact> 0.10639928E+03</totfact>
</mgrwt>
</event>
<event>
 4    1  0.5323640E-005  0.3614719E+03  0.7818608E-02  0.1058003E+00
          2   -1    0    0  501    0  0.00000000000E+00  0.00000000000E+00  0.12648760259E+04  0.12648760259E+04  0.25500000000E-02 0.  1.
         -2   -1    0    0    0  501 -0.00000000000E+00 -0.00000000000E+00 -0.25825041755E+02  0.25825041881E+02  0.25500000000E-02 0. -1.
    5000001    1    1    2    0    0 -0.70461255878E+02  0.19795314864E+02  0.58683215973E+03  0.61396549314E+03  0.16500000000E+03 0.  0.
   -5000001    1    1    2    0    0  0.70461255878E+02 -0.19795314864E+02  0.65221882443E+03  0.67673557466E+03  0.16500000000E+03 0.  0.
<mgrwt>
<rscale>  0 0.36147186E+03</rscale>
<asrwt>0</asrwt>
<pdfrwt beam="1">  1        2 0.18069665E+00 0.36147186E+03</pdfrwt>
<pdfrwt beam="2">  1       -2 0.36892901E-02 0.36147186E+03</pdfrwt>
<totfact> 0.64505649E+03</totfact>
</mgrwt>
</event>
<event>
 4    1  0.5323640E-005  0.4942037E+03  0.7818608E-02  0.1015303E+00
          2   -1    0    0  501    0  0.00000000000E+00  0.00000000000E+00  0.89955961976E+03  0.89955961976E+03  0.25500000000E-02 0.  1.
         -2   -1    0    0    0  501 -0.00000000000E+00 -0.00000000000E+00 -0.67876912381E+02  0.67876912429E+02  0.25500000000E-02 0. -1.
    5000001    1    1    2    0    0 -0.66292633343E+02 -0.99643979038E+02  0.68927555010E+03  0.71878329123E+03  0.16500000000E+03 0.  0.
   -5000001    1    1    2    0    0  0.66292633343E+02  0.99643979038E+02  0.14240715728E+03  0.24865324096E+03  0.16500000000E+03 0.  0.
<mgrwt>
<rscale>  0 0.49420372E+03</rscale>
<asrwt>0</asrwt>
<pdfrwt beam="1">  1        2 0.12850852E+00 0.49420372E+03</pdfrwt>
<pdfrwt beam="2">  1       -2 0.96967019E-02 0.49420372E+03</pdfrwt>
<totfact> 0.23476881E+03</totfact>
</mgrwt>
</event>
<event>
 4    1  0.5323640E-005  0.5110165E+03  0.7818608E-02  0.1010943E+00
         -2   -1    0    0    0  501 -0.00000000000E+00  0.00000000000E+00  0.58119960790E+02  0.58119960846E+02  0.25500000000E-02 0. -1.
          2   -1    0    0  501    0  0.00000000000E+00 -0.00000000000E+00 -0.11232709989E+04  0.11232709989E+04  0.25500000000E-02 0.  1.
    5000001    1    1    2    0    0 -0.14290875365E+03  0.11792666812E+03 -0.39138526396E+03  0.46339727640E+03  0.16500000000E+03 0.  0.
   -5000001    1    1    2    0    0  0.14290875365E+03 -0.11792666812E+03 -0.67376577416E+03  0.71799368336E+03  0.16500000000E+03 0.  0.
<mgrwt>
<rscale>  0 0.51101650E+03</rscale>
<asrwt>0</asrwt>
<pdfrwt beam="1">  1        2 0.16046727E+00 0.51101650E+03</pdfrwt>
<pdfrwt beam="2">  1       -2 0.83028522E-02 0.51101650E+03</pdfrwt>
<totfact> 0.22053334E+03</totfact>
</mgrwt>
</event>
<event>
 4    1  0.5323640E-005  0.6684793E+03  0.7818608E-02  0.9772709E-01
         -2   -1    0    0    0  501 -0.00000000000E+00  0.00000000000E+00  0.95018945185E+02  0.95018945219E+02  0.25500000000E-02 0. -1.
          2   -1    0    0  501    0  0.00000000000E+00 -0.00000000000E+00 -0.11757248086E+04  0.11757248086E+04  0.25500000000E-02 0.  1.
    5000001    1    1    2    0    0  0.13982244600E+03  0.16538231099E+03 -0.90890881924E+03  0.94881076453E+03  0.16500000000E+03 0.  0.
   -5000001    1    1    2    0    0 -0.13982244600E+03 -0.16538231099E+03 -0.17179704413E+03  0.32193298925E+03  0.16500000000E+03 0.  0.
<mgrwt>
<rscale>  0 0.66847926E+03</rscale>
<asrwt>0</asrwt>
<pdfrwt beam="1">  1        2 0.16796068E+00 0.66847926E+03</pdfrwt>
<pdfrwt beam="2">  1       -2 0.13574136E-01 0.66847926E+03</pdfrwt>
<totfact> 0.92105212E+02</totfact>
</mgrwt>
</event>
<event>
 4    1  0.5323640E-005  0.5302406E+03  0.7818608E-02  0.1006174E+00
          2   -1    0    0  501    0  0.00000000000E+00  0.00000000000E+00  0.19490100478E+04  0.19490100478E+04  0.25500000000E-02 0.  1.
         -2   -1    0    0    0  501 -0.00000000000E+00 -0.00000000000E+00 -0.36063831028E+02  0.36063831118E+02  0.25500000000E-02 0. -1.
    5000001    1    1    2    0    0 -0.94873861212E+02  0.14648768356E+03  0.13767729764E+04  0.13975652111E+04  0.16500000000E+03 0.  0.
   -5000001    1    1    2    0    0  0.94873861212E+02 -0.14648768356E+03  0.53617324044E+03  0.58750866780E+03  0.16500000000E+03 0.  0.
<mgrwt>
<rscale>  0 0.53024058E+03</rscale>
<asrwt>0</asrwt>
<pdfrwt beam="1">  1        2 0.27843011E+00 0.53024058E+03</pdfrwt>
<pdfrwt beam="2">  1       -2 0.51519739E-02 0.53024058E+03</pdfrwt>
<totfact> 0.17263844E+03</totfact>
</mgrwt>
</event>
<event>
 4    1  0.5323640E-005  0.5049766E+03  0.7818608E-02  0.1012488E+00
         -2   -1    0    0    0  501 -0.00000000000E+00  0.00000000000E+00  0.75781581727E+02  0.75781581770E+02  0.25500000000E-02 0. -1.
          2   -1    0    0  501    0  0.00000000000E+00 -0.00000000000E+00 -0.84123787248E+03  0.84123787249E+03  0.25500000000E-02 0.  1.
    5000001    1    1    2    0    0 -0.18396446809E+03  0.41540588019E+02 -0.43889961286E+03  0.50539728545E+03  0.16500000000E+03 0.  0.
   -5000001    1    1    2    0    0  0.18396446809E+03 -0.41540588019E+02 -0.32655667789E+03  0.41162216880E+03  0.16500000000E+03 0.  0.
<mgrwt>
<rscale>  0 0.50497658E+03</rscale>
<asrwt>0</asrwt>
<pdfrwt beam="1">  1        2 0.12017683E+00 0.50497658E+03</pdfrwt>
<pdfrwt beam="2">  1       -2 0.10825941E-01 0.50497658E+03</pdfrwt>
<totfact> 0.21449515E+03</totfact>
</mgrwt>
</event>
<event>
 4    1  0.5323640E-005  0.5633896E+03  0.7818608E-02  0.9984414E-01
         -2   -1    0    0    0  501 -0.00000000000E+00  0.00000000000E+00  0.82190721137E+02  0.82190721176E+02  0.25500000000E-02 0. -1.
          2   -1    0    0  501    0  0.00000000000E+00 -0.00000000000E+00 -0.96546126161E+03  0.96546126161E+03  0.25500000000E-02 0.  1.
    5000001    1    1    2    0    0 -0.57873246453E+02 -0.70987423224E+02 -0.83053694984E+03  0.85170719849E+03  0.16500000000E+03 0.  0.
   -5000001    1    1    2    0    0  0.57873246453E+02  0.70987423224E+02 -0.52733590626E+02  0.19594478429E+03  0.16500000000E+03 0.  0.
<mgrwt>
<rscale>  0 0.56338959E+03</rscale>
<asrwt>0</asrwt>
<pdfrwt beam="1">  1        2 0.13792303E+00 0.56338959E+03</pdfrwt>
<pdfrwt beam="2">  1       -2 0.11741532E-01 0.56338959E+03</pdfrwt>
<totfact> 0.15627757E+03</totfact>
</mgrwt>
</event>
<event>
 4    1  0.5323640E-005  0.5008727E+03  0.7818608E-02  0.1013551E+00
         -2   -1    0    0    0  501 -0.00000000000E+00  0.00000000000E+00  0.24972801521E+03  0.24972801522E+03  0.25500000000E-02 0. -1.
          2   -1    0    0  501    0  0.00000000000E+00 -0.00000000000E+00 -0.25114669131E+03  0.25114669133E+03  0.25500000000E-02 0.  1.
    5000001    1    1    2    0    0 -0.16910087304E+03  0.75149322283E+02  0.34658004067E+02  0.25033717892E+03  0.16500000000E+03 0.  0.
   -5000001    1    1    2    0    0  0.16910087304E+03 -0.75149322283E+02 -0.36076680170E+02  0.25053752764E+03  0.16500000000E+03 0.  0.
<mgrwt>
<rscale>  0 0.50087270E+03</rscale>
<asrwt>0</asrwt>
<pdfrwt beam="1">  1        2 0.35878099E-01 0.50087270E+03</pdfrwt>
<pdfrwt beam="2">  1       -2 0.35675431E-01 0.50087270E+03</pdfrwt>
<totfact> 0.10748184E+03</totfact>
</mgrwt>
</event>
<event>
 4    1  0.5323640E-005  0.7246074E+03  0.7818608E-02  0.9676052E-01
         -2   -1    0    0    0  501 -0.00000000000E+00  0.00000000000E+00  0.26445027089E+03  0.26445027090E+03  0.25500000000E-02 0. -1.
          2   -1    0    0  501    0  0.00000000000E+00 -0.00000000000E+00 -0.49636540787E+03  0.49636540788E+03  0.25500000000E-02 0.  1.
    5000001    1    1    2    0    0  0.63025691365E+02 -0.19510133356E+03  0.14548737141E+03  0.30071305819E+03  0.16500000000E+03 0.  0.
   -5000001    1    1    2    0    0 -0.63025691365E+02  0.19510133356E+03 -0.37740250840E+03  0.46010262059E+03  0.16500000000E+03 0.  0.
<mgrwt>
<rscale>  0 0.72460739E+03</rscale>
<asrwt>0</asrwt>
<pdfrwt beam="1">  1        2 0.70909344E-01 0.72460739E+03</pdfrwt>
<pdfrwt beam="2">  1       -2 0.37778610E-01 0.72460739E+03</pdfrwt>
<totfact> 0.45028734E+02</totfact>
</mgrwt>
</event>
<event>
 4    1  0.5323640E-005  0.5937231E+03  0.7818608E-02  0.9918515E-01
          2   -1    0    0  501    0  0.00000000000E+00  0.00000000000E+00  0.19159695799E+04  0.19159695799E+04  0.25500000000E-02 0.  1.
         -2   -1    0    0    0  501 -0.00000000000E+00 -0.00000000000E+00 -0.45995920999E+02  0.45995921070E+02  0.25500000000E-02 0. -1.
    5000001    1    1    2    0    0  0.22968087909E+03 -0.37521621041E+02  0.66368237922E+03  0.72239911320E+03  0.16500000000E+03 0.  0.
   -5000001    1    1    2    0    0 -0.22968087909E+03  0.37521621041E+02  0.12062912797E+04  0.12395663878E+04  0.16500000000E+03 0.  0.
<mgrwt>
<rscale>  0 0.59372312E+03</rscale>
<asrwt>0</asrwt>
<pdfrwt beam="1">  1        2 0.27370989E+00 0.59372312E+03</pdfrwt>
<pdfrwt beam="2">  1       -2 0.65708471E-02 0.59372312E+03</pdfrwt>
<totfact> 0.12230688E+03</totfact>
</mgrwt>
</event>
<event>
 4    1  0.5323640E-005  0.4102733E+03  0.7818608E-02  0.1040279E+00
          2   -1    0    0  501    0  0.00000000000E+00  0.00000000000E+00  0.15530766278E+04  0.15530766278E+04  0.25500000000E-02 0.  1.
         -2   -1    0    0    0  501 -0.00000000000E+00 -0.00000000000E+00 -0.27095285686E+02  0.27095285806E+02  0.25500000000E-02 0. -1.
    5000001    1    1    2    0    0  0.89977873646E+02 -0.87715155516E+01  0.44812889510E+03  0.48602208165E+03  0.16500000000E+03 0.  0.
   -5000001    1    1    2    0    0 -0.89977873646E+02  0.87715155516E+01  0.10778524470E+04  0.10941498319E+04  0.16500000000E+03 0.  0.
<mgrwt>
<rscale>  0 0.41027335E+03</rscale>
<asrwt>0</asrwt>
<pdfrwt beam="1">  1        2 0.22186811E+00 0.41027335E+03</pdfrwt>
<pdfrwt beam="2">  1       -2 0.38707548E-02 0.41027335E+03</pdfrwt>
<totfact> 0.42464015E+03</totfact>
</mgrwt>
</event>
<event>
 4    1  0.5323640E-005  0.5100777E+03  0.7818608E-02  0.1011181E+00
          2   -1    0    0  501    0  0.00000000000E+00  0.00000000000E+00  0.49630786310E+03  0.49630786311E+03  0.25500000000E-02 0.  1.
         -2   -1    0    0    0  501 -0.00000000000E+00 -0.00000000000E+00 -0.13105738883E+03  0.13105738886E+03  0.25500000000E-02 0. -1.
    5000001    1    1    2    0    0 -0.64529428558E+02  0.17977829476E+03  0.13767717360E+03  0.28751397627E+03  0.16500000000E+03 0.  0.
   -5000001    1    1    2    0    0  0.64529428558E+02 -0.17977829476E+03  0.22757330067E+03  0.33985127570E+03  0.16500000000E+03 0.  0.
<mgrwt>
<rscale>  0 0.51007769E+03</rscale>
<asrwt>0</asrwt>
<pdfrwt beam="1">  1        2 0.70901123E-01 0.51007769E+03</pdfrwt>
<pdfrwt beam="2">  1       -2 0.18722484E-01 0.51007769E+03</pdfrwt>
<totfact> 0.16170101E+03</totfact>
</mgrwt>
</event>
<event>
 4    1  0.5323640E-005  0.7003731E+03  0.7818608E-02  0.9716594E-01
         -2   -1    0    0    0  501 -0.00000000000E+00  0.00000000000E+00  0.34067915573E+02  0.34067915668E+02  0.25500000000E-02 0. -1.
          2   -1    0    0  501    0  0.00000000000E+00 -0.00000000000E+00 -0.35995925332E+04  0.35995925332E+04  0.25500000000E-02 0.  1.
    5000001    1    1    2    0    0  0.73394210080E+02 -0.24130796752E+03 -0.85773223961E+03  0.90914566497E+03  0.16500000000E+03 0.  0.
   -5000001    1    1    2    0    0 -0.73394210080E+02  0.24130796752E+03 -0.27077923780E+04  0.27245147839E+04  0.16500000000E+03 0.  0.
<mgrwt>
<rscale>  0 0.70037309E+03</rscale>
<asrwt>0</asrwt>
<pdfrwt beam="1">  1        2 0.51422726E+00 0.70037309E+03</pdfrwt>
<pdfrwt beam="2">  1       -2 0.48668474E-02 0.70037309E+03</pdfrwt>
<totfact> 0.24166329E+02</totfact>
</mgrwt>
</event>
<event>
 4    1  0.5323640E-005  0.5325498E+03  0.7818608E-02  0.1005616E+00
          2   -1    0    0  501    0  0.00000000000E+00  0.00000000000E+00  0.10008694186E+03  0.10008694189E+03  0.25500000000E-02 0.  1.
         -2   -1    0    0    0  501 -0.00000000000E+00 -0.00000000000E+00 -0.70840744852E+03  0.70840744852E+03  0.25500000000E-02 0. -1.
    5000001    1    1    2    0    0 -0.14862883281E+03 -0.14672323265E+03 -0.31583113888E+03  0.41302850414E+03  0.16500000000E+03 0.  0.
   -5000001    1    1    2    0    0  0.14862883281E+03  0.14672323265E+03 -0.29248936777E+03  0.39546588627E+03  0.16500000000E+03 0.  0.
<mgrwt>
<rscale>  0 0.53254985E+03</rscale>
<asrwt>0</asrwt>
<pdfrwt beam="1">  1        2 0.14298135E-01 0.53254985E+03</pdfrwt>
<pdfrwt beam="2">  1       -2 0.10120106E+00 0.53254985E+03</pdfrwt>
<totfact> 0.34522278E+02</totfact>
</mgrwt>
</event>
<event>
 4    1  0.5323640E-005  0.5721733E+03  0.7818608E-02  0.9964881E-01
          2   -1    0    0  501    0  0.00000000000E+00  0.00000000000E+00  0.14550942516E+04  0.14550942516E+04  0.25500000000E-02 0.  1.
         -2   -1    0    0    0  501 -0.00000000000E+00 -0.00000000000E+00 -0.56247608995E+02  0.56247609053E+02  0.25500000000E-02 0. -1.
    5000001    1    1    2    0    0 -0.22156809295E+03  0.27492385338E+02  0.51694975219E+03  0.58677959862E+03  0.16500000000E+03 0.  0.
   -5000001    1    1    2    0    0  0.22156809295E+03 -0.27492385338E+02  0.88189689046E+03  0.92456226208E+03  0.16500000000E+03 0.  0.
<mgrwt>
<rscale>  0 0.57217330E+03</rscale>
<asrwt>0</asrwt>
<pdfrwt beam="1">  1        2 0.20787065E+00 0.57217330E+03</pdfrwt>
<pdfrwt beam="2">  1       -2 0.80353712E-02 0.57217330E+03</pdfrwt>
<totfact> 0.15300147E+03</totfact>
</mgrwt>
</event>
<event>
 4    1  0.5323640E-005  0.6268485E+03  0.7818608E-02  0.9851218E-01
          2   -1    0    0  501    0  0.00000000000E+00  0.00000000000E+00  0.98697306121E+03  0.98697306121E+03  0.25500000000E-02 0. -1.
         -2   -1    0    0    0  501 -0.00000000000E+00 -0.00000000000E+00 -0.99531355561E+02  0.99531355594E+02  0.25500000000E-02 0.  1.
    5000001    1    1    2    0    0  0.15123997950E+03 -0.44918231897E+02  0.71494693430E+02  0.23922305521E+03  0.16500000000E+03 0.  0.
   -5000001    1    1    2    0    0 -0.15123997950E+03  0.44918231897E+02  0.81594701221E+03  0.84728136159E+03  0.16500000000E+03 0.  0.
<mgrwt>
<rscale>  0 0.62684852E+03</rscale>
<asrwt>0</asrwt>
<pdfrwt beam="1">  1        2 0.14099614E+00 0.62684852E+03</pdfrwt>
<pdfrwt beam="2">  1       -2 0.14218766E-01 0.62684852E+03</pdfrwt>
<totfact> 0.11022280E+03</totfact>
</mgrwt>
</event>
<event>
 4    1  0.5323640E-005  0.1613700E+04  0.7818608E-02  0.8812175E-01
         -2   -1    0    0    0  501 -0.00000000000E+00  0.00000000000E+00  0.25458474756E+03  0.25458474758E+03  0.25500000000E-02 0. -1.
          2   -1    0    0  501    0  0.00000000000E+00 -0.00000000000E+00 -0.25571327277E+04  0.25571327277E+04  0.25500000000E-02 0.  1.
    5000001    1    1    2    0    0 -0.26501448089E+03  0.43766254512E+03 -0.21996175476E+04  0.22643594093E+04  0.16500000000E+03 0.  0.
   -5000001    1    1    2    0    0  0.26501448089E+03 -0.43766254512E+03 -0.10293043249E+03  0.54735806600E+03  0.16500000000E+03 0.  0.
<mgrwt>
<rscale>  0 0.16137001E+04</rscale>
<asrwt>0</asrwt>
<pdfrwt beam="1">  1        2 0.36530466E+00 0.16137001E+04</pdfrwt>
<pdfrwt beam="2">  1       -2 0.36369251E-01 0.16137001E+04</pdfrwt>
<totfact> 0.28116166E+01</totfact>
</mgrwt>
</event>
<event>
 4    1  0.5323640E-005  0.4462006E+03  0.7818608E-02  0.1028861E+00
         -2   -1    0    0    0  501 -0.00000000000E+00  0.00000000000E+00  0.20159209606E+02  0.20159209768E+02  0.25500000000E-02 0. -1.
          2   -1    0    0  501    0  0.00000000000E+00 -0.00000000000E+00 -0.24690321456E+04  0.24690321456E+04  0.25500000000E-02 0.  1.
    5000001    1    1    2    0    0 -0.74208806148E+02  0.12988756643E+03 -0.11514841953E+04  0.11728250419E+04  0.16500000000E+03 0.  0.
   -5000001    1    1    2    0    0  0.74208806148E+02 -0.12988756643E+03 -0.12973887407E+04  0.13163663135E+04  0.16500000000E+03 0.  0.
<mgrwt>
<rscale>  0 0.44620057E+03</rscale>
<asrwt>0</asrwt>
<pdfrwt beam="1">  1        2 0.35271868E+00 0.44620057E+03</pdfrwt>
<pdfrwt beam="2">  1       -2 0.28798887E-02 0.44620057E+03</pdfrwt>
<totfact> 0.23119082E+03</totfact>
</mgrwt>
</event>
<event>
 4    1  0.5323640E-005  0.7503434E+03  0.7818608E-02  0.9634812E-01
         -2   -1    0    0    0  501 -0.00000000000E+00  0.00000000000E+00  0.80080425813E+03  0.80080425813E+03  0.25500000000E-02 0. -1.
          2   -1    0    0  501    0  0.00000000000E+00 -0.00000000000E+00 -0.17576557703E+03  0.17576557705E+03  0.25500000000E-02 0.  1.
    5000001    1    1    2    0    0 -0.33391586658E+03 -0.28970790130E+02  0.26762787874E+03  0.45955281972E+03  0.16500000000E+03 0.  0.
   -5000001    1    1    2    0    0  0.33391586658E+03  0.28970790130E+02  0.35741080235E+03  0.51701701546E+03  0.16500000000E+03 0.  0.
<mgrwt>
<rscale>  0 0.75034345E+03</rscale>
<asrwt>0</asrwt>
<pdfrwt beam="1">  1        2 0.25109368E-01 0.75034345E+03</pdfrwt>
<pdfrwt beam="2">  1       -2 0.11440061E+00 0.75034345E+03</pdfrwt>
<totfact> 0.13141328E+02</totfact>
</mgrwt>
</event>
<event>
 4    1  0.5323640E-005  0.6482660E+03  0.7818608E-02  0.9810038E-01
          2   -1    0    0  501    0  0.00000000000E+00  0.00000000000E+00  0.29789844278E+03  0.29789844279E+03  0.25500000000E-02 0.  1.
         -2   -1    0    0    0  501 -0.00000000000E+00 -0.00000000000E+00 -0.35267794947E+03  0.35267794948E+03  0.25500000000E-02 0. -1.
    5000001    1    1    2    0    0 -0.76299214455E+02  0.13022816847E+03  0.20808720139E+03  0.30546068384E+03  0.16500000000E+03 0.  0.
   -5000001    1    1    2    0    0  0.76299214455E+02 -0.13022816847E+03 -0.26286670807E+03  0.34511570843E+03  0.16500000000E+03 0.  0.
<mgrwt>
<rscale>  0 0.64826603E+03</rscale>
<asrwt>0</asrwt>
<pdfrwt beam="1">  1        2 0.42556921E-01 0.64826603E+03</pdfrwt>
<pdfrwt beam="2">  1       -2 0.50382564E-01 0.64826603E+03</pdfrwt>
<totfact> 0.45149329E+02</totfact>
</mgrwt>
</event>
<event>
 4    1  0.5323640E-005  0.8061830E+03  0.7818608E-02  0.9551110E-01
         -2   -1    0    0    0  501 -0.00000000000E+00  0.00000000000E+00  0.33237539589E+03  0.33237539590E+03  0.25500000000E-02 0. -1.
          2   -1    0    0  501    0  0.00000000000E+00 -0.00000000000E+00 -0.48885312687E+03  0.48885312688E+03  0.25500000000E-02 0.  1.
    5000001    1    1    2    0    0 -0.35313099344E+03 -0.95611178860E+02 -0.39923665418E+02  0.40331364359E+03  0.16500000000E+03 0.  0.
   -5000001    1    1    2    0    0  0.35313099344E+03  0.95611178860E+02 -0.11655406556E+03  0.41791487919E+03  0.16500000000E+03 0.  0.
<mgrwt>
<rscale>  0 0.80618299E+03</rscale>
<asrwt>0</asrwt>
<pdfrwt beam="1">  1        2 0.69836161E-01 0.80618299E+03</pdfrwt>
<pdfrwt beam="2">  1       -2 0.47482200E-01 0.80618299E+03</pdfrwt>
<totfact> 0.29130636E+02</totfact>
</mgrwt>
</event>
<event>
 4    1  0.5323640E-005  0.3806293E+03  0.7818608E-02  0.1050701E+00
          2   -1    0    0  501    0  0.00000000000E+00  0.00000000000E+00  0.79125044156E+03  0.79125044156E+03  0.25500000000E-02 0.  1.
         -2   -1    0    0    0  501 -0.00000000000E+00 -0.00000000000E+00 -0.45775221131E+02  0.45775221202E+02  0.25500000000E-02 0. -1.
    5000001    1    1    2    0    0 -0.16331044197E+01  0.17423655125E+02  0.57771539821E+03  0.60107098759E+03  0.16500000000E+03 0.  0.
   -5000001    1    1    2    0    0  0.16331044197E+01 -0.17423655125E+02  0.16775982221E+03  0.23595467517E+03  0.16500000000E+03 0.  0.
<mgrwt>
<rscale>  0 0.38062929E+03</rscale>
<asrwt>0</asrwt>
<pdfrwt beam="1">  1        2 0.11303578E+00 0.38062929E+03</pdfrwt>
<pdfrwt beam="2">  1       -2 0.65393171E-02 0.38062929E+03</pdfrwt>
<totfact> 0.51506038E+03</totfact>
</mgrwt>
</event>
<event>
 4    1  0.5323640E-005  0.2007538E+04  0.7818608E-02  0.8603104E-01
         -2   -1    0    0    0  501 -0.00000000000E+00  0.00000000000E+00  0.69662685458E+03  0.69662685459E+03  0.25500000000E-02 0. -1.
          2   -1    0    0  501    0  0.00000000000E+00 -0.00000000000E+00 -0.14463298589E+04  0.14463298589E+04  0.25500000000E-02 0.  1.
    5000001    1    1    2    0    0 -0.76766081962E+03 -0.59276620947E+03 -0.58741263302E+03  0.11458418366E+04  0.16500000000E+03 0.  0.
   -5000001    1    1    2    0    0  0.76766081962E+03  0.59276620947E+03 -0.16229037129E+03  0.99711487688E+03  0.16500000000E+03 0.  0.
<mgrwt>
<rscale>  0 0.20075380E+04</rscale>
<asrwt>0</asrwt>
<pdfrwt beam="1">  1        2 0.20661855E+00 0.20075380E+04</pdfrwt>
<pdfrwt beam="2">  1       -2 0.99518122E-01 0.20075380E+04</pdfrwt>
<totfact> 0.12167338E+01</totfact>
</mgrwt>
</event>
<event>
 4    1  0.5323640E-005  0.4005739E+03  0.7818608E-02  0.1043581E+00
          2   -1    0    0  501    0  0.00000000000E+00  0.00000000000E+00  0.84007436294E+03  0.84007436295E+03  0.25500000000E-02 0.  1.
         -2   -1    0    0    0  501 -0.00000000000E+00 -0.00000000000E+00 -0.47751568539E+02  0.47751568608E+02  0.25500000000E-02 0. -1.
    5000001    1    1    2    0    0 -0.28996239718E+02 -0.87656793075E+02  0.24972270713E+03  0.31322663639E+03  0.16500000000E+03 0.  0.
   -5000001    1    1    2    0    0  0.28996239718E+02  0.87656793075E+02  0.54260008728E+03  0.57459929516E+03  0.16500000000E+03 0.  0.
<mgrwt>
<rscale>  0 0.40057393E+03</rscale>
<asrwt>0</asrwt>
<pdfrwt beam="1">  1        2 0.12001061E+00 0.40057393E+03</pdfrwt>
<pdfrwt beam="2">  1       -2 0.68216533E-02 0.40057393E+03</pdfrwt>
<totfact> 0.44742026E+03</totfact>
</mgrwt>
</event>
<event>
 4    1  0.5323640E-005  0.4919583E+03  0.7818608E-02  0.1015899E+00
         -2   -1    0    0    0  501 -0.00000000000E+00  0.00000000000E+00  0.88357043411E+02  0.88357043448E+02  0.25500000000E-02 0. -1.
          2   -1    0    0  501    0  0.00000000000E+00 -0.00000000000E+00 -0.68478683963E+03  0.68478683963E+03  0.25500000000E-02 0.  1.
    5000001    1    1    2    0    0 -0.12369338758E+03 -0.12234763567E+03 -0.38446129350E+03  0.45310537879E+03  0.16500000000E+03 0.  0.
   -5000001    1    1    2    0    0  0.12369338758E+03  0.12234763567E+03 -0.21196850271E+03  0.32003850429E+03  0.16500000000E+03 0.  0.
<mgrwt>
<rscale>  0 0.49195829E+03</rscale>
<asrwt>0</asrwt>
<pdfrwt beam="1">  1        2 0.97826689E-01 0.49195829E+03</pdfrwt>
<pdfrwt beam="2">  1       -2 0.12622435E-01 0.49195829E+03</pdfrwt>
<totfact> 0.21569792E+03</totfact>
</mgrwt>
</event>
<event>
 4    1  0.5323640E-005  0.4835403E+03  0.7818608E-02  0.1018167E+00
          2   -1    0    0  501    0  0.00000000000E+00  0.00000000000E+00  0.13824545858E+03  0.13824545861E+03  0.25500000000E-02 0.  1.
         -2   -1    0    0    0  501 -0.00000000000E+00 -0.00000000000E+00 -0.42281907235E+03  0.42281907236E+03  0.25500000000E-02 0. -1.
    5000001    1    1    2    0    0 -0.72586900531E+02 -0.47374005148E+02 -0.32097200083E+03  0.37116193206E+03  0.16500000000E+03 0.  0.
   -5000001    1    1    2    0    0  0.72586900531E+02  0.47374005148E+02  0.36398387060E+02  0.18990259891E+03  0.16500000000E+03 0.  0.
<mgrwt>
<rscale>  0 0.48354035E+03</rscale>
<asrwt>0</asrwt>
<pdfrwt beam="1">  1        2 0.19749351E-01 0.48354035E+03</pdfrwt>
<pdfrwt beam="2">  1       -2 0.60402724E-01 0.48354035E+03</pdfrwt>
<totfact> 0.74023483E+02</totfact>
</mgrwt>
</event>
<event>
 4    1  0.5323640E-005  0.3970878E+03  0.7818608E-02  0.1044793E+00
          2   -1    0    0  501    0  0.00000000000E+00  0.00000000000E+00  0.28187440368E+03  0.28187440369E+03  0.25500000000E-02 0.  1.
         -2   -1    0    0    0  501 -0.00000000000E+00 -0.00000000000E+00 -0.13984839575E+03  0.13984839577E+03  0.25500000000E-02 0. -1.
    5000001    1    1    2    0    0 -0.37888958353E+01 -0.10892797031E+03  0.89863068275E+02  0.21720964409E+03  0.16500000000E+03 0.  0.
   -5000001    1    1    2    0    0  0.37888958353E+01  0.10892797031E+03  0.52162939658E+02  0.20451315537E+03  0.16500000000E+03 0.  0.
<mgrwt>
<rscale>  0 0.39708781E+03</rscale>
<asrwt>0</asrwt>
<pdfrwt beam="1">  1        2 0.40267771E-01 0.39708781E+03</pdfrwt>
<pdfrwt beam="2">  1       -2 0.19978343E-01 0.39708781E+03</pdfrwt>
<totfact> 0.26903465E+03</totfact>
</mgrwt>
</event>
<event>
 4    1  0.5323640E-005  0.7919784E+03  0.7818608E-02  0.9571701E-01
         -2   -1    0    0    0  501 -0.00000000000E+00  0.00000000000E+00  0.48286979695E+02  0.48286979763E+02  0.25500000000E-02 0. -1.
          2   -1    0    0  501    0  0.00000000000E+00 -0.00000000000E+00 -0.32474062363E+04  0.32474062363E+04  0.25500000000E-02 0.  1.
    5000001    1    1    2    0    0  0.12469332815E+03  0.20677806279E+03 -0.27105433293E+04  0.27262750656E+04  0.16500000000E+03 0.  0.
   -5000001    1    1    2    0    0 -0.12469332815E+03 -0.20677806279E+03 -0.48857592734E+03  0.56941815050E+03  0.16500000000E+03 0.  0.
<mgrwt>
<rscale>  0 0.79197838E+03</rscale>
<asrwt>0</asrwt>
<pdfrwt beam="1">  1        2 0.46391504E+00 0.79197838E+03</pdfrwt>
<pdfrwt beam="2">  1       -2 0.68981420E-02 0.79197838E+03</pdfrwt>
<totfact> 0.22301043E+02</totfact>
</mgrwt>
</event>
<event>
 4    1  0.5323640E-005  0.5753880E+03  0.7818608E-02  0.9957826E-01
         -2   -1    0    0    0  501 -0.00000000000E+00  0.00000000000E+00  0.37192432190E+03  0.37192432191E+03  0.25500000000E-02 0. -1.
          2   -1    0    0  501    0  0.00000000000E+00 -0.00000000000E+00 -0.22253946106E+03  0.22253946107E+03  0.25500000000E-02 0.  1.
    5000001    1    1    2    0    0 -0.20621237901E+03  0.63663624408E+02  0.17252189531E+03  0.32181579621E+03  0.16500000000E+03 0.  0.
   -5000001    1    1    2    0    0  0.20621237901E+03 -0.63663624408E+02 -0.23137034470E+02  0.27264798678E+03  0.16500000000E+03 0.  0.
<mgrwt>
<rscale>  0 0.57538800E+03</rscale>
<asrwt>0</asrwt>
<pdfrwt beam="1">  1        2 0.31791352E-01 0.57538800E+03</pdfrwt>
<pdfrwt beam="2">  1       -2 0.53132046E-01 0.57538800E+03</pdfrwt>
<totfact> 0.56083052E+02</totfact>
</mgrwt>
</event>
<event>
 4    1  0.5323640E-005  0.1038160E+04  0.7818608E-02  0.9267654E-01
         -2   -1    0    0    0  501 -0.00000000000E+00  0.00000000000E+00  0.64444359519E+02  0.64444359569E+02  0.25500000000E-02 0. -1.
          2   -1    0    0  501    0  0.00000000000E+00 -0.00000000000E+00 -0.41810337591E+04  0.41810337591E+04  0.25500000000E-02 0.  1.
    5000001    1    1    2    0    0 -0.28194844291E+03 -0.40096074005E+03 -0.22390918722E+04  0.22980473998E+04  0.16500000000E+03 0.  0.
   -5000001    1    1    2    0    0  0.28194844291E+03  0.40096074005E+03 -0.18774975274E+04  0.19474307189E+04  0.16500000000E+03 0.  0.
<mgrwt>
<rscale>  0 0.10381600E+04</rscale>
<asrwt>0</asrwt>
<pdfrwt beam="1">  1        2 0.59729037E+00 0.10381600E+04</pdfrwt>
<pdfrwt beam="2">  1       -2 0.92063397E-02 0.10381600E+04</pdfrwt>
<totfact> 0.34994110E+01</totfact>
</mgrwt>
</event>
<event>
 4    1  0.5323640E-005  0.6446840E+03  0.7818608E-02  0.9816806E-01
          2   -1    0    0  501    0  0.00000000000E+00  0.00000000000E+00  0.97991858006E+03  0.97991858007E+03  0.25500000000E-02 0.  1.
         -2   -1    0    0    0  501 -0.00000000000E+00 -0.00000000000E+00 -0.10603368390E+03  0.10603368393E+03  0.25500000000E-02 0. -1.
    5000001    1    1    2    0    0 -0.16145834075E+03 -0.21000347844E+03  0.57284417171E+03  0.65233864044E+03  0.16500000000E+03 0.  0.
   -5000001    1    1    2    0    0  0.16145834075E+03  0.21000347844E+03  0.30104072445E+03  0.43361362356E+03  0.16500000000E+03 0.  0.
<mgrwt>
<rscale>  0 0.64468404E+03</rscale>
<asrwt>0</asrwt>
<pdfrwt beam="1">  1        2 0.13998837E+00 0.64468404E+03</pdfrwt>
<pdfrwt beam="2">  1       -2 0.15147669E-01 0.64468404E+03</pdfrwt>
<totfact> 0.10004714E+03</totfact>
</mgrwt>
</event>
<event>
 4    1  0.5323640E-005  0.7519684E+03  0.7818608E-02  0.9632267E-01
         -2   -1    0    0    0  501 -0.00000000000E+00  0.00000000000E+00  0.93896200926E+02  0.93896200961E+02  0.25500000000E-02 0. -1.
          2   -1    0    0  501    0  0.00000000000E+00 -0.00000000000E+00 -0.15055362211E+04  0.15055362211E+04  0.25500000000E-02 0.  1.
    5000001    1    1    2    0    0  0.29709817580E+03 -0.48859598247E+02 -0.37986522464E+03  0.51203239673E+03  0.16500000000E+03 0.  0.
   -5000001    1    1    2    0    0 -0.29709817580E+03  0.48859598247E+02 -0.10317747956E+04  0.10874000254E+04  0.16500000000E+03 0.  0.
<mgrwt>
<rscale>  0 0.75196843E+03</rscale>
<asrwt>0</asrwt>
<pdfrwt beam="1">  1        2 0.21507659E+00 0.75196843E+03</pdfrwt>
<pdfrwt beam="2">  1       -2 0.13413744E-01 0.75196843E+03</pdfrwt>
<totfact> 0.61989385E+02</totfact>
</mgrwt>
</event>
<event>
 4    1  0.5323640E-005  0.5152184E+03  0.7818608E-02  0.1009881E+00
          2   -1    0    0  501    0  0.00000000000E+00  0.00000000000E+00  0.24150703309E+04  0.24150703309E+04  0.25500000000E-02 0.  1.
         -2   -1    0    0    0  501 -0.00000000000E+00 -0.00000000000E+00 -0.27478499902E+02  0.27478500020E+02  0.25500000000E-02 0. -1.
    5000001    1    1    2    0    0  0.33668407243E+02  0.18477008726E+03  0.89910391416E+03  0.93321294207E+03  0.16500000000E+03 0.  0.
   -5000001    1    1    2    0    0 -0.33668407243E+02 -0.18477008726E+03  0.14884879168E+04  0.15093358888E+04  0.16500000000E+03 0.  0.
<mgrwt>
<rscale>  0 0.51521844E+03</rscale>
<asrwt>0</asrwt>
<pdfrwt beam="1">  1        2 0.34500990E+00 0.51521844E+03</pdfrwt>
<pdfrwt beam="2">  1       -2 0.39255017E-02 0.51521844E+03</pdfrwt>
<totfact> 0.15321087E+03</totfact>
</mgrwt>
</event>
<event>
 4    1  0.5323640E-005  0.8733559E+03  0.7818608E-02  0.9459515E-01
         -2   -1    0    0    0  501 -0.00000000000E+00  0.00000000000E+00  0.12274820805E+03  0.12274820807E+03  0.25500000000E-02 0. -1.
          2   -1    0    0  501    0  0.00000000000E+00 -0.00000000000E+00 -0.15534862080E+04  0.15534862080E+04  0.25500000000E-02 0.  1.
    5000001    1    1    2    0    0  0.12181517526E+03  0.38528096126E+03 -0.68945541060E+03  0.81599884757E+03  0.16500000000E+03 0.  0.
   -5000001    1    1    2    0    0 -0.12181517526E+03 -0.38528096126E+03 -0.74128258936E+03  0.86023556850E+03  0.16500000000E+03 0.  0.
<mgrwt>
<rscale>  0 0.87335594E+03</rscale>
<asrwt>0</asrwt>
<pdfrwt beam="1">  1        2 0.22192659E+00 0.87335594E+03</pdfrwt>
<pdfrwt beam="2">  1       -2 0.17535459E-01 0.87335594E+03</pdfrwt>
<totfact> 0.36891586E+02</totfact>
</mgrwt>
</event>
<event>
 4    1  0.5323640E-005  0.4206937E+03  0.7818608E-02  0.1036841E+00
          2   -1    0    0  501    0  0.00000000000E+00  0.00000000000E+00  0.36877923309E+03  0.36877923310E+03  0.25500000000E-02 0. -1.
         -2   -1    0    0    0  501 -0.00000000000E+00 -0.00000000000E+00 -0.11997909683E+03  0.11997909685E+03  0.25500000000E-02 0.  1.
    5000001    1    1    2    0    0 -0.72209889588E+02  0.72762871737E+02  0.21815379483E+03  0.29210405998E+03  0.16500000000E+03 0.  0.
   -5000001    1    1    2    0    0  0.72209889588E+02 -0.72762871737E+02  0.30646341441E+02  0.19665426998E+03  0.16500000000E+03 0.  0.
<mgrwt>
<rscale>  0 0.42069371E+03</rscale>
<asrwt>0</asrwt>
<pdfrwt beam="1">  1        2 0.52682747E-01 0.42069371E+03</pdfrwt>
<pdfrwt beam="2">  1       -2 0.17139871E-01 0.42069371E+03</pdfrwt>
<totfact> 0.26098363E+03</totfact>
</mgrwt>
</event>
<event>
 4    1  0.5323640E-005  0.5244012E+03  0.7818608E-02  0.1007599E+00
          2   -1    0    0  501    0  0.00000000000E+00  0.00000000000E+00  0.22640350893E+03  0.22640350894E+03  0.25500000000E-02 0.  1.
         -2   -1    0    0    0  501 -0.00000000000E+00 -0.00000000000E+00 -0.30365768472E+03  0.30365768473E+03  0.25500000000E-02 0. -1.
    5000001    1    1    2    0    0 -0.84311780009E+02 -0.18039111531E+03  0.51384427003E+01  0.25865195596E+03  0.16500000000E+03 0.  0.
   -5000001    1    1    2    0    0  0.84311780009E+02  0.18039111531E+03 -0.82392618488E+02  0.27140923771E+03  0.16500000000E+03 0.  0.
<mgrwt>
<rscale>  0 0.52440124E+03</rscale>
<asrwt>0</asrwt>
<pdfrwt beam="1">  1        2 0.32343359E-01 0.52440124E+03</pdfrwt>
<pdfrwt beam="2">  1       -2 0.43379669E-01 0.52440124E+03</pdfrwt>
<totfact> 0.82687573E+02</totfact>
</mgrwt>
</event>
<event>
 4    1  0.5323640E-005  0.5616846E+03  0.7818608E-02  0.9988250E-01
          2   -1    0    0  501    0  0.00000000000E+00  0.00000000000E+00  0.63581272322E+03  0.63581272322E+03  0.25500000000E-02 0.  1.
         -2   -1    0    0    0  501 -0.00000000000E+00 -0.00000000000E+00 -0.12404973817E+03  0.12404973819E+03  0.25500000000E-02 0. -1.
    5000001    1    1    2    0    0 -0.93438895842E+02 -0.17050075477E+03  0.41506778910E+03  0.48714228330E+03  0.16500000000E+03 0.  0.
   -5000001    1    1    2    0    0  0.93438895842E+02  0.17050075477E+03  0.96695195952E+02  0.27272017812E+03  0.16500000000E+03 0.  0.
<mgrwt>
<rscale>  0 0.56168462E+03</rscale>
<asrwt>0</asrwt>
<pdfrwt beam="1">  1        2 0.90830387E-01 0.56168462E+03</pdfrwt>
<pdfrwt beam="2">  1       -2 0.17721392E-01 0.56168462E+03</pdfrwt>
<totfact> 0.13338477E+03</totfact>
</mgrwt>
</event>
<event>
 4    1  0.5323640E-005  0.5587225E+03  0.7818608E-02  0.9994949E-01
          2   -1    0    0  501    0  0.00000000000E+00  0.00000000000E+00  0.14206690123E+04  0.14206690123E+04  0.25500000000E-02 0.  1.
         -2   -1    0    0    0  501 -0.00000000000E+00 -0.00000000000E+00 -0.54933778119E+02  0.54933778179E+02  0.25500000000E-02 0. -1.
    5000001    1    1    2    0    0 -0.17609538646E+03 -0.11059699949E+03  0.45298521200E+03  0.52503512618E+03  0.16500000000E+03 0.  0.
   -5000001    1    1    2    0    0  0.17609538646E+03  0.11059699949E+03  0.91275002216E+03  0.95056766428E+03  0.16500000000E+03 0.  0.
<mgrwt>
<rscale>  0 0.55872253E+03</rscale>
<asrwt>0</asrwt>
<pdfrwt beam="1">  1        2 0.20295272E+00 0.55872253E+03</pdfrwt>
<pdfrwt beam="2">  1       -2 0.78476824E-02 0.55872253E+03</pdfrwt>
<totfact> 0.16569209E+03</totfact>
</mgrwt>
</event>
<event>
 4    1  0.5323640E-005  0.4373884E+03  0.7818608E-02  0.1031551E+00
          2   -1    0    0  501    0  0.00000000000E+00  0.00000000000E+00  0.10450799198E+03  0.10450799201E+03  0.25500000000E-02 0.  1.
         -2   -1    0    0    0  501 -0.00000000000E+00 -0.00000000000E+00 -0.45764119312E+03  0.45764119312E+03  0.25500000000E-02 0. -1.
    5000001    1    1    2    0    0 -0.10753462403E+03  0.93611708185E+02 -0.19789209562E+03  0.29447093028E+03  0.16500000000E+03 0.  0.
   -5000001    1    1    2    0    0  0.10753462403E+03 -0.93611708185E+02 -0.15524110552E+03  0.26767825485E+03  0.16500000000E+03 0.  0.
<mgrwt>
<rscale>  0 0.43738844E+03</rscale>
<asrwt>0</asrwt>
<pdfrwt beam="1">  1        2 0.14929713E-01 0.43738844E+03</pdfrwt>
<pdfrwt beam="2">  1       -2 0.65377313E-01 0.43738844E+03</pdfrwt>
<totfact> 0.87205440E+02</totfact>
</mgrwt>
</event>
<event>
 4    1  0.5323640E-005  0.4806080E+03  0.7818608E-02  0.1018968E+00
          2   -1    0    0  501    0  0.00000000000E+00  0.00000000000E+00  0.71074918421E+03  0.71074918421E+03  0.25500000000E-02 0.  1.
         -2   -1    0    0    0  501 -0.00000000000E+00 -0.00000000000E+00 -0.81246697492E+02  0.81246697532E+02  0.25500000000E-02 0. -1.
    5000001    1    1    2    0    0 -0.15754690758E+03  0.14025743289E+02  0.43699944211E+03  0.49316453843E+03  0.16500000000E+03 0.  0.
   -5000001    1    1    2    0    0  0.15754690758E+03 -0.14025743289E+02  0.19250304461E+03  0.29883134331E+03  0.16500000000E+03 0.  0.
<mgrwt>
<rscale>  0 0.48060805E+03</rscale>
<asrwt>0</asrwt>
<pdfrwt beam="1">  1        2 0.10153560E+00 0.48060805E+03</pdfrwt>
<pdfrwt beam="2">  1       -2 0.11606671E-01 0.48060805E+03</pdfrwt>
<totfact> 0.23655010E+03</totfact>
</mgrwt>
</event>
<event>
 4    1  0.5323640E-005  0.3739290E+03  0.7818608E-02  0.1053201E+00
         -2   -1    0    0    0  501 -0.00000000000E+00  0.00000000000E+00  0.29812776917E+02  0.29812777026E+02  0.25500000000E-02 0. -1.
          2   -1    0    0  501    0  0.00000000000E+00 -0.00000000000E+00 -0.11725083886E+04  0.11725083886E+04  0.25500000000E-02 0.  1.
    5000001    1    1    2    0    0 -0.77738955032E+02 -0.23197968228E+02 -0.68035036950E+03  0.70475748746E+03  0.16500000000E+03 0.  0.
   -5000001    1    1    2    0    0  0.77738955032E+02  0.23197968228E+02 -0.46234524221E+03  0.49756367819E+03  0.16500000000E+03 0.  0.
<mgrwt>
<rscale>  0 0.37392904E+03</rscale>
<asrwt>0</asrwt>
<pdfrwt beam="1">  1        2 0.16750117E+00 0.37392904E+03</pdfrwt>
<pdfrwt beam="2">  1       -2 0.42589689E-02 0.37392904E+03</pdfrwt>
<totfact> 0.58306707E+03</totfact>
</mgrwt>
</event>
<event>
 4    1  0.5323640E-005  0.3880035E+03  0.7818608E-02  0.1048015E+00
          2   -1    0    0  501    0  0.00000000000E+00  0.00000000000E+00  0.12945530413E+04  0.12945530413E+04  0.25500000000E-02 0.  1.
         -2   -1    0    0    0  501 -0.00000000000E+00 -0.00000000000E+00 -0.29073101388E+02  0.29073101500E+02  0.25500000000E-02 0. -1.
    5000001    1    1    2    0    0  0.97607554173E+01 -0.10145450418E+03  0.64923606224E+03  0.67758449900E+03  0.16500000000E+03 0.  0.
   -5000001    1    1    2    0    0 -0.97607554173E+01  0.10145450418E+03  0.61624387762E+03  0.64604164376E+03  0.16500000000E+03 0.  0.
<mgrwt>
<rscale>  0 0.38800346E+03</rscale>
<asrwt>0</asrwt>
<pdfrwt beam="1">  1        2 0.18493619E+00 0.38800346E+03</pdfrwt>
<pdfrwt beam="2">  1       -2 0.41532992E-02 0.38800346E+03</pdfrwt>
<totfact> 0.52003099E+03</totfact>
</mgrwt>
</event>
<event>
 4    1  0.5323640E-005  0.4401382E+03  0.7818608E-02  0.1030704E+00
         -2   -1    0    0    0  501 -0.00000000000E+00  0.00000000000E+00  0.31244711263E+02  0.31244711367E+02  0.25500000000E-02 0. -1.
          2   -1    0    0  501    0  0.00000000000E+00 -0.00000000000E+00 -0.15500356237E+04  0.15500356237E+04  0.25500000000E-02 0.  1.
    5000001    1    1    2    0    0 -0.12558478034E+03  0.69846575831E+02 -0.67473179239E+03  0.70932226305E+03  0.16500000000E+03 0.  0.
   -5000001    1    1    2    0    0  0.12558478034E+03 -0.69846575831E+02 -0.84405912000E+03  0.87195807197E+03  0.16500000000E+03 0.  0.
<mgrwt>
<rscale>  0 0.44013823E+03</rscale>
<asrwt>0</asrwt>
<pdfrwt beam="1">  1        2 0.22143361E+00 0.44013823E+03</pdfrwt>
<pdfrwt beam="2">  1       -2 0.44635312E-02 0.44013823E+03</pdfrwt>
<totfact> 0.34287333E+03</totfact>
</mgrwt>
</event>
<event>
 4    1  0.5323640E-005  0.5477935E+03  0.7818608E-02  0.1002006E+00
          2   -1    0    0  501    0  0.00000000000E+00  0.00000000000E+00  0.71782080988E+03  0.71782080988E+03  0.25500000000E-02 0.  1.
         -2   -1    0    0    0  501 -0.00000000000E+00 -0.00000000000E+00 -0.10450998575E+03  0.10450998578E+03  0.25500000000E-02 0. -1.
    5000001    1    1    2    0    0  0.16746631383E+03  0.13307987958E+03  0.23886599532E+03  0.36060668926E+03  0.16500000000E+03 0.  0.
   -5000001    1    1    2    0    0 -0.16746631383E+03 -0.13307987958E+03  0.37444482881E+03  0.46172410641E+03  0.16500000000E+03 0.  0.
<mgrwt>
<rscale>  0 0.54779355E+03</rscale>
<asrwt>0</asrwt>
<pdfrwt beam="1">  1        2 0.10254583E+00 0.54779355E+03</pdfrwt>
<pdfrwt beam="2">  1       -2 0.14929998E-01 0.54779355E+03</pdfrwt>
<totfact> 0.15405571E+03</totfact>
</mgrwt>
</event>
<event>
 4    1  0.5323640E-005  0.3853758E+03  0.7818608E-02  0.1048965E+00
          2   -1    0    0  501    0  0.00000000000E+00  0.00000000000E+00  0.30343336384E+04  0.30343336384E+04  0.25500000000E-02 0.  1.
         -2   -1    0    0    0  501 -0.00000000000E+00 -0.00000000000E+00 -0.12236169058E+02  0.12236169324E+02  0.25500000000E-02 0. -1.
    5000001    1    1    2    0    0  0.67441334897E+02 -0.62122852377E+02  0.12052765663E+04  0.12199689274E+04  0.16500000000E+03 0.  0.
   -5000001    1    1    2    0    0 -0.67441334897E+02  0.62122852377E+02  0.18168209030E+04  0.18266008803E+04  0.16500000000E+03 0.  0.
<mgrwt>
<rscale>  0 0.38537576E+03</rscale>
<asrwt>0</asrwt>
<pdfrwt beam="1">  1        2 0.43347712E+00 0.38537576E+03</pdfrwt>
<pdfrwt beam="2">  1       -2 0.17480206E-02 0.38537576E+03</pdfrwt>
<totfact> 0.24838553E+03</totfact>
</mgrwt>
</event>
<event>
 4    1  0.5323640E-005  0.3751985E+03  0.7818608E-02  0.1052723E+00
         -2   -1    0    0    0  501 -0.00000000000E+00  0.00000000000E+00  0.38384738021E+02  0.38384738106E+02  0.25500000000E-02 0. -1.
          2   -1    0    0  501    0  0.00000000000E+00 -0.00000000000E+00 -0.91686105243E+03  0.91686105243E+03  0.25500000000E-02 0.  1.
    5000001    1    1    2    0    0 -0.55211292466E+02  0.42402606327E+02 -0.29697754046E+03  0.34679522398E+03  0.16500000000E+03 0.  0.
   -5000001    1    1    2    0    0  0.55211292466E+02 -0.42402606327E+02 -0.58149877395E+03  0.60845056656E+03  0.16500000000E+03 0.  0.
<mgrwt>
<rscale>  0 0.37519846E+03</rscale>
<asrwt>0</asrwt>
<pdfrwt beam="1">  1        2 0.13098014E+00 0.37519846E+03</pdfrwt>
<pdfrwt beam="2">  1       -2 0.54835346E-02 0.37519846E+03</pdfrwt>
<totfact> 0.55955146E+03</totfact>
</mgrwt>
</event>
<event>
 4    1  0.5323640E-005  0.6072157E+03  0.7818608E-02  0.9890548E-01
         -2   -1    0    0    0  501 -0.00000000000E+00  0.00000000000E+00  0.26099403744E+03  0.26099403745E+03  0.25500000000E-02 0. -1.
          2   -1    0    0  501    0  0.00000000000E+00 -0.00000000000E+00 -0.35317947665E+03  0.35317947666E+03  0.25500000000E-02 0.  1.
    5000001    1    1    2    0    0  0.16433638649E+03  0.19419204598E+03 -0.30562996780E+02  0.30475579636E+03  0.16500000000E+03 0.  0.
   -5000001    1    1    2    0    0 -0.16433638649E+03 -0.19419204598E+03 -0.61622442431E+02  0.30941771775E+03  0.16500000000E+03 0.  0.
<mgrwt>
<rscale>  0 0.60721574E+03</rscale>
<asrwt>0</asrwt>
<pdfrwt beam="1">  1        2 0.50454211E-01 0.60721574E+03</pdfrwt>
<pdfrwt beam="2">  1       -2 0.37284863E-01 0.60721574E+03</pdfrwt>
<totfact> 0.67795953E+02</totfact>
</mgrwt>
</event>
<event>
 4    1  0.5323640E-005  0.4568256E+03  0.7818608E-02  0.1025706E+00
          2   -1    0    0  501    0  0.00000000000E+00  0.00000000000E+00  0.22303933003E+03  0.22303933004E+03  0.25500000000E-02 0.  1.
         -2   -1    0    0    0  501 -0.00000000000E+00 -0.00000000000E+00 -0.23391576952E+03  0.23391576954E+03  0.25500000000E-02 0. -1.
    5000001    1    1    2    0    0 -0.41218557298E+02 -0.14736304769E+03 -0.44597484109E+02  0.22940961810E+03  0.16500000000E+03 0.  0.
   -5000001    1    1    2    0    0  0.41218557298E+02  0.14736304769E+03  0.33721044611E+02  0.22754548147E+03  0.16500000000E+03 0.  0.
<mgrwt>
<rscale>  0 0.45682564E+03</rscale>
<asrwt>0</asrwt>
<pdfrwt beam="1">  1        2 0.31862761E-01 0.45682564E+03</pdfrwt>
<pdfrwt beam="2">  1       -2 0.33416539E-01 0.45682564E+03</pdfrwt>
<totfact> 0.13859191E+03</totfact>
</mgrwt>
</event>
<event>
 4    1  0.5323640E-005  0.4878382E+03  0.7818608E-02  0.1017003E+00
         -2   -1    0    0    0  501 -0.00000000000E+00  0.00000000000E+00  0.21006173774E+02  0.21006173929E+02  0.25500000000E-02 0. -1.
          2   -1    0    0  501    0  0.00000000000E+00 -0.00000000000E+00 -0.28323347061E+04  0.28323347061E+04  0.25500000000E-02 0.  1.
    5000001    1    1    2    0    0  0.22689933723E+02 -0.17624561976E+03 -0.12515620663E+04  0.12748372278E+04  0.16500000000E+03 0.  0.
   -5000001    1    1    2    0    0 -0.22689933723E+02  0.17624561976E+03 -0.15597664660E+04  0.15785036522E+04  0.16500000000E+03 0.  0.
<mgrwt>
<rscale>  0 0.48783815E+03</rscale>
<asrwt>0</asrwt>
<pdfrwt beam="1">  1        2 0.40461900E+00 0.48783815E+03</pdfrwt>
<pdfrwt beam="2">  1       -2 0.30008838E-02 0.48783815E+03</pdfrwt>
<totfact> 0.14060699E+03</totfact>
</mgrwt>
</event>
<event>
 4    1  0.5323640E-005  0.1033591E+04  0.7818608E-02  0.9272451E-01
          2   -1    0    0  501    0  0.00000000000E+00  0.00000000000E+00  0.30727038931E+03  0.30727038932E+03  0.25500000000E-02 0.  1.
         -2   -1    0    0    0  501 -0.00000000000E+00 -0.00000000000E+00 -0.86919466028E+03  0.86919466028E+03  0.25500000000E-02 0. -1.
    5000001    1    1    2    0    0  0.46123379106E+03  0.63410020693E+02 -0.10798354953E+03  0.50561139989E+03  0.16500000000E+03 0.  0.
   -5000001    1    1    2    0    0 -0.46123379106E+03 -0.63410020693E+02 -0.45394072144E+03  0.67085364970E+03  0.16500000000E+03 0.  0.
<mgrwt>
<rscale>  0 0.10335914E+04</rscale>
<asrwt>0</asrwt>
<pdfrwt beam="1">  1        2 0.43895770E-01 0.10335914E+04</pdfrwt>
<pdfrwt beam="2">  1       -2 0.12417067E+00 0.10335914E+04</pdfrwt>
<totfact> 0.56429102E+01</totfact>
</mgrwt>
</event>
<event>
 4    1  0.5323640E-005  0.4436223E+03  0.7818608E-02  0.1029641E+00
          2   -1    0    0  501    0  0.00000000000E+00  0.00000000000E+00  0.51892811011E+02  0.51892811074E+02  0.25500000000E-02 0.  1.
         -2   -1    0    0    0  501 -0.00000000000E+00 -0.00000000000E+00 -0.94811177799E+03  0.94811177799E+03  0.25500000000E-02 0. -1.
    5000001    1    1    2    0    0  0.12851983953E+03 -0.69327791637E+02 -0.39057295278E+03  0.44843720106E+03  0.16500000000E+03 0.  0.
   -5000001    1    1    2    0    0 -0.12851983953E+03  0.69327791637E+02 -0.50564601420E+03  0.55156738801E+03  0.16500000000E+03 0.  0.
<mgrwt>
<rscale>  0 0.44362230E+03</rscale>
<asrwt>0</asrwt>
<pdfrwt beam="1">  1        2 0.74132593E-02 0.44362230E+03</pdfrwt>
<pdfrwt beam="2">  1       -2 0.13544453E+00 0.44362230E+03</pdfrwt>
<totfact> 0.38773194E+02</totfact>
</mgrwt>
</event>
<event>
 4    1  0.5323640E-005  0.3825928E+03  0.7818608E-02  0.1049980E+00
         -2   -1    0    0    0  501 -0.00000000000E+00  0.00000000000E+00  0.79096714673E+01  0.79096718784E+01  0.25500000000E-02 0. -1.
          2   -1    0    0  501    0  0.00000000000E+00 -0.00000000000E+00 -0.46265274855E+04  0.46265274855E+04  0.25500000000E-02 0.  1.
    5000001    1    1    2    0    0  0.19411546377E+02  0.94625509671E+02 -0.22341305014E+04  0.22422967896E+04  0.16500000000E+03 0.  0.
   -5000001    1    1    2    0    0 -0.19411546377E+02 -0.94625509671E+02 -0.23844873126E+04  0.23921403677E+04  0.16500000000E+03 0.  0.
<mgrwt>
<rscale>  0 0.38259280E+03</rscale>
<asrwt>0</asrwt>
<pdfrwt beam="1">  1        2 0.66093076E+00 0.38259280E+03</pdfrwt>
<pdfrwt beam="2">  1       -2 0.11299561E-02 0.38259280E+03</pdfrwt>
<totfact> 0.44715893E+02</totfact>
</mgrwt>
</event>
<event>
 4    1  0.5323640E-005  0.5702909E+03  0.7818608E-02  0.9969035E-01
         -2   -1    0    0    0  501 -0.00000000000E+00  0.00000000000E+00  0.66278218332E+02  0.66278218381E+02  0.25500000000E-02 0. -1.
          2   -1    0    0  501    0  0.00000000000E+00 -0.00000000000E+00 -0.12267668939E+04  0.12267668939E+04  0.25500000000E-02 0.  1.
    5000001    1    1    2    0    0  0.92414597632E+01 -0.14208260085E+03 -0.16333638732E+03  0.27235389746E+03  0.16500000000E+03 0.  0.
   -5000001    1    1    2    0    0 -0.92414597632E+01  0.14208260085E+03 -0.99715228828E+03  0.10206912148E+04  0.16500000000E+03 0.  0.
<mgrwt>
<rscale>  0 0.57029089E+03</rscale>
<asrwt>0</asrwt>
<pdfrwt beam="1">  1        2 0.17525240E+00 0.57029089E+03</pdfrwt>
<pdfrwt beam="2">  1       -2 0.94683176E-02 0.57029089E+03</pdfrwt>
<totfact> 0.15609033E+03</totfact>
</mgrwt>
</event>
<event>
 4    1  0.5323640E-005  0.7791057E+03  0.7818608E-02  0.9590763E-01
         -2   -1    0    0    0  501 -0.00000000000E+00  0.00000000000E+00  0.18799977964E+03  0.18799977966E+03  0.25500000000E-02 0. -1.
          2   -1    0    0  501    0  0.00000000000E+00 -0.00000000000E+00 -0.80718926883E+03  0.80718926883E+03  0.25500000000E-02 0.  1.
    5000001    1    1    2    0    0  0.28096468028E+03 -0.19743165745E+03 -0.20577539305E+03  0.43299991145E+03  0.16500000000E+03 0.  0.
   -5000001    1    1    2    0    0 -0.28096468028E+03  0.19743165745E+03 -0.41341409614E+03  0.56218913705E+03  0.16500000000E+03 0.  0.
<mgrwt>
<rscale>  0 0.77910565E+03</rscale>
<asrwt>0</asrwt>
<pdfrwt beam="1">  1        2 0.11531275E+00 0.77910565E+03</pdfrwt>
<pdfrwt beam="2">  1       -2 0.26857112E-01 0.77910565E+03</pdfrwt>
<totfact> 0.47399350E+02</totfact>
</mgrwt>
</event>
<event>
 4    1  0.5323640E-005  0.4614854E+03  0.7818608E-02  0.1024351E+00
         -2   -1    0    0    0  501 -0.00000000000E+00  0.00000000000E+00  0.96311032032E+02  0.96311032065E+02  0.25500000000E-02 0. -1.
          2   -1    0    0  501    0  0.00000000000E+00 -0.00000000000E+00 -0.55281499272E+03  0.55281499273E+03  0.25500000000E-02 0.  1.
    5000001    1    1    2    0    0  0.10529293578E+03 -0.53649825300E+02 -0.38267272498E+03  0.43316084833E+03  0.16500000000E+03 0.  0.
   -5000001    1    1    2    0    0 -0.10529293578E+03  0.53649825300E+02 -0.73831235711E+02  0.21596517647E+03  0.16500000000E+03 0.  0.
<mgrwt>
<rscale>  0 0.46148535E+03</rscale>
<asrwt>0</asrwt>
<pdfrwt beam="1">  1        2 0.78973568E-01 0.46148535E+03</pdfrwt>
<pdfrwt beam="2">  1       -2 0.13758719E-01 0.46148535E+03</pdfrwt>
<totfact> 0.24044830E+03</totfact>
</mgrwt>
</event>
<event>
 4    1  0.5323640E-005  0.3888870E+03  0.7818608E-02  0.1047697E+00
          2   -1    0    0  501    0  0.00000000000E+00  0.00000000000E+00  0.35405376480E+03  0.35405376481E+03  0.25500000000E-02 0.  1.
         -2   -1    0    0    0  501 -0.00000000000E+00 -0.00000000000E+00 -0.10678680511E+03  0.10678680514E+03  0.25500000000E-02 0. -1.
    5000001    1    1    2    0    0 -0.54744958381E+02  0.64521875951E+02  0.19296690329E+03  0.26762157744E+03  0.16500000000E+03 0.  0.
   -5000001    1    1    2    0    0  0.54744958381E+02 -0.64521875951E+02  0.54300056394E+02  0.19321899252E+03  0.16500000000E+03 0.  0.
<mgrwt>
<rscale>  0 0.38888698E+03</rscale>
<asrwt>0</asrwt>
<pdfrwt beam="1">  1        2 0.50579108E-01 0.38888698E+03</pdfrwt>
<pdfrwt beam="2">  1       -2 0.15255258E-01 0.38888698E+03</pdfrwt>
<totfact> 0.33148396E+03</totfact>
</mgrwt>
</event>
<event>
 4    1  0.5323640E-005  0.7615504E+03  0.7818608E-02  0.9617402E-01
         -2   -1    0    0    0  501 -0.00000000000E+00  0.00000000000E+00  0.72213390348E+02  0.72213390393E+02  0.25500000000E-02 0. -1.
          2   -1    0    0  501    0  0.00000000000E+00 -0.00000000000E+00 -0.20077960998E+04  0.20077960998E+04  0.25500000000E-02 0.  1.
    5000001    1    1    2    0    0 -0.82097387063E+02 -0.33300850952E+03 -0.99894655971E+03  0.10689966686E+04  0.16500000000E+03 0.  0.
   -5000001    1    1    2    0    0  0.82097387063E+02  0.33300850952E+03 -0.93663614972E+03  0.10110128215E+04  0.16500000000E+03 0.  0.
<mgrwt>
<rscale>  0 0.76155043E+03</rscale>
<asrwt>0</asrwt>
<pdfrwt beam="1">  1        2 0.28682798E+00 0.76155043E+03</pdfrwt>
<pdfrwt beam="2">  1       -2 0.10316200E-01 0.76155043E+03</pdfrwt>
<totfact> 0.52862452E+02</totfact>
</mgrwt>
</event>
<event>
 4    1  0.5323640E-005  0.4495128E+03  0.7818608E-02  0.1027867E+00
         -2   -1    0    0    0  501 -0.00000000000E+00  0.00000000000E+00  0.33446054718E+03  0.33446054719E+03  0.25500000000E-02 0. -1.
          2   -1    0    0  501    0  0.00000000000E+00 -0.00000000000E+00 -0.15103553780E+03  0.15103553782E+03  0.25500000000E-02 0.  1.
    5000001    1    1    2    0    0 -0.11119675761E+03  0.64015411785E+02  0.24678732835E+01  0.20903057730E+03  0.16500000000E+03 0.  0.
   -5000001    1    1    2    0    0  0.11119675761E+03 -0.64015411785E+02  0.18095713610E+03  0.27646550771E+03  0.16500000000E+03 0.  0.
<mgrwt>
<rscale>  0 0.44951275E+03</rscale>
<asrwt>0</asrwt>
<pdfrwt beam="1">  1        2 0.21576506E-01 0.44951275E+03</pdfrwt>
<pdfrwt beam="2">  1       -2 0.47780078E-01 0.44951275E+03</pdfrwt>
<totfact> 0.10791629E+03</totfact>
</mgrwt>
</event>
<event>
 4    1  0.5323640E-005  0.9808624E+03  0.7818608E-02  0.9329787E-01
         -2   -1    0    0    0  501 -0.00000000000E+00  0.00000000000E+00  0.11215396307E+03  0.11215396310E+03  0.25500000000E-02 0. -1.
          2   -1    0    0  501    0  0.00000000000E+00 -0.00000000000E+00 -0.21445766086E+04  0.21445766086E+04  0.25500000000E-02 0.  1.
    5000001    1    1    2    0    0  0.45519586212E+02 -0.40387826710E+03 -0.51157253637E+03  0.67388511434E+03  0.16500000000E+03 0.  0.
   -5000001    1    1    2    0    0 -0.45519586212E+02  0.40387826710E+03 -0.15208501092E+04  0.15828454574E+04  0.16500000000E+03 0.  0.
<mgrwt>
<rscale>  0 0.98086241E+03</rscale>
<asrwt>0</asrwt>
<pdfrwt beam="1">  1        2 0.30636806E+00 0.98086241E+03</pdfrwt>
<pdfrwt beam="2">  1       -2 0.16021996E-01 0.98086241E+03</pdfrwt>
<totfact> 0.21282544E+02</totfact>
</mgrwt>
</event>
<event>
 4    1  0.5323640E-005  0.6124850E+03  0.7818608E-02  0.9879837E-01
         -2   -1    0    0    0  501 -0.00000000000E+00  0.00000000000E+00  0.84371015430E+02  0.84371015469E+02  0.25500000000E-02 0. -1.
          2   -1    0    0  501    0  0.00000000000E+00 -0.00000000000E+00 -0.11115719545E+04  0.11115719545E+04  0.25500000000E-02 0.  1.
    5000001    1    1    2    0    0 -0.22154830335E+03 -0.12621195022E+03 -0.59038409022E+03  0.66392129133E+03  0.16500000000E+03 0.  0.
   -5000001    1    1    2    0    0  0.22154830335E+03  0.12621195022E+03 -0.43681684880E+03  0.53202167859E+03  0.16500000000E+03 0.  0.
<mgrwt>
<rscale>  0 0.61248495E+03</rscale>
<asrwt>0</asrwt>
<pdfrwt beam="1">  1        2 0.15879598E+00 0.61248495E+03</pdfrwt>
<pdfrwt beam="2">  1       -2 0.12053003E-01 0.61248495E+03</pdfrwt>
<totfact> 0.12228967E+03</totfact>
</mgrwt>
</event>
<event>
 4    1  0.5323640E-005  0.7987979E+03  0.7818608E-02  0.9561759E-01
          2   -1    0    0  501    0  0.00000000000E+00  0.00000000000E+00  0.76179476821E+03  0.76179476822E+03  0.25500000000E-02 0.  1.
         -2   -1    0    0    0  501 -0.00000000000E+00 -0.00000000000E+00 -0.20939959362E+03  0.20939959363E+03  0.25500000000E-02 0. -1.
    5000001    1    1    2    0    0 -0.24850454164E+03 -0.26549909676E+03  0.28481510850E+03  0.49049864794E+03  0.16500000000E+03 0.  0.
   -5000001    1    1    2    0    0  0.24850454164E+03  0.26549909676E+03  0.26758006609E+03  0.48069571391E+03  0.16500000000E+03 0.  0.
<mgrwt>
<rscale>  0 0.79879788E+03</rscale>
<asrwt>0</asrwt>
<pdfrwt beam="1">  1        2 0.10882782E+00 0.79879788E+03</pdfrwt>
<pdfrwt beam="2">  1       -2 0.29914228E-01 0.79879788E+03</pdfrwt>
<totfact> 0.41833498E+02</totfact>
</mgrwt>
</event>
<event>
 4    1  0.5323640E-005  0.4277172E+03  0.7818608E-02  0.1034584E+00
         -2   -1    0    0    0  501 -0.00000000000E+00  0.00000000000E+00  0.93577854795E+02  0.93577854830E+02  0.25500000000E-02 0. -1.
          2   -1    0    0  501    0  0.00000000000E+00 -0.00000000000E+00 -0.48874270516E+03  0.48874270517E+03  0.25500000000E-02 0.  1.
    5000001    1    1    2    0    0 -0.70097074381E+02 -0.91721594147E+02 -0.29560807934E+03  0.35768084551E+03  0.16500000000E+03 0.  0.
   -5000001    1    1    2    0    0  0.70097074381E+02  0.91721594147E+02 -0.99556771022E+02  0.22463971449E+03  0.16500000000E+03 0.  0.
<mgrwt>
<rscale>  0 0.42771717E+03</rscale>
<asrwt>0</asrwt>
<pdfrwt beam="1">  1        2 0.69820385E-01 0.42771717E+03</pdfrwt>
<pdfrwt beam="2">  1       -2 0.13368265E-01 0.42771717E+03</pdfrwt>
<totfact> 0.28972680E+03</totfact>
</mgrwt>
</event>
<event>
 4    1  0.5323640E-005  0.4192364E+03  0.7818608E-02  0.1037315E+00
          2   -1    0    0  501    0  0.00000000000E+00  0.00000000000E+00  0.23615979180E+04  0.23615979180E+04  0.25500000000E-02 0.  1.
         -2   -1    0    0    0  501 -0.00000000000E+00 -0.00000000000E+00 -0.18605958465E+02  0.18605958640E+02  0.25500000000E-02 0. -1.
    5000001    1    1    2    0    0 -0.74304770502E+02  0.83363914651E+02  0.15413629052E+04  0.15541863938E+04  0.16500000000E+03 0.  0.
   -5000001    1    1    2    0    0  0.74304770502E+02 -0.83363914651E+02  0.80162905436E+03  0.82601748285E+03  0.16500000000E+03 0.  0.
<mgrwt>
<rscale>  0 0.41923642E+03</rscale>
<asrwt>0</asrwt>
<pdfrwt beam="1">  1        2 0.33737080E+00 0.41923642E+03</pdfrwt>
<pdfrwt beam="2">  1       -2 0.26579967E-02 0.41923642E+03</pdfrwt>
<totfact> 0.29585644E+03</totfact>
</mgrwt>
</event>
<event>
 4    1  0.5323640E-005  0.4618240E+03  0.7818608E-02  0.1024254E+00
         -2   -1    0    0    0  501 -0.00000000000E+00  0.00000000000E+00  0.99702815276E+02  0.99702815309E+02  0.25500000000E-02 0. -1.
          2   -1    0    0  501    0  0.00000000000E+00 -0.00000000000E+00 -0.53479274366E+03  0.53479274367E+03  0.25500000000E-02 0.  1.
    5000001    1    1    2    0    0 -0.71457366119E+02 -0.41528259977E+02 -0.40823676464E+03  0.44801005296E+03  0.16500000000E+03 0.  0.
   -5000001    1    1    2    0    0  0.71457366119E+02  0.41528259977E+02 -0.26853163739E+02  0.18648550601E+03  0.16500000000E+03 0.  0.
<mgrwt>
<rscale>  0 0.46182396E+03</rscale>
<asrwt>0</asrwt>
<pdfrwt beam="1">  1        2 0.76398962E-01 0.46182396E+03</pdfrwt>
<pdfrwt beam="2">  1       -2 0.14243260E-01 0.46182396E+03</pdfrwt>
<totfact> 0.23578182E+03</totfact>
</mgrwt>
</event>
<event>
 4    1  0.5323640E-005  0.7921004E+03  0.7818608E-02  0.9571522E-01
         -2   -1    0    0    0  501 -0.00000000000E+00  0.00000000000E+00  0.60057500663E+02  0.60057500717E+02  0.25500000000E-02 0. -1.
          2   -1    0    0  501    0  0.00000000000E+00 -0.00000000000E+00 -0.26117596071E+04  0.26117596071E+04  0.25500000000E-02 0.  1.
    5000001    1    1    2    0    0 -0.33557069241E+03 -0.54419443008E+01 -0.83614010172E+03  0.91596537820E+03  0.16500000000E+03 0.  0.
   -5000001    1    1    2    0    0  0.33557069241E+03  0.54419443008E+01 -0.17155620048E+04  0.17558517297E+04  0.16500000000E+03 0.  0.
<mgrwt>
<rscale>  0 0.79210038E+03</rscale>
<asrwt>0</asrwt>
<pdfrwt beam="1">  1        2 0.37310844E+00 0.79210038E+03</pdfrwt>
<pdfrwt beam="2">  1       -2 0.85796446E-02 0.79210038E+03</pdfrwt>
<totfact> 0.34900201E+02</totfact>
</mgrwt>
</event>
<event>
 4    1  0.5323640E-005  0.4130929E+03  0.7818608E-02  0.1039338E+00
          2   -1    0    0  501    0  0.00000000000E+00  0.00000000000E+00  0.14067571217E+03  0.14067571219E+03  0.25500000000E-02 0.  1.
         -2   -1    0    0    0  501 -0.00000000000E+00 -0.00000000000E+00 -0.30326091294E+03  0.30326091295E+03  0.25500000000E-02 0. -1.
    5000001    1    1    2    0    0  0.89627433940E+02  0.50706313331E+02 -0.65879997251E+01  0.19460886122E+03  0.16500000000E+03 0.  0.
   -5000001    1    1    2    0    0 -0.89627433940E+02 -0.50706313331E+02 -0.15599720104E+03  0.24932776392E+03  0.16500000000E+03 0.  0.
<mgrwt>
<rscale>  0 0.41309294E+03</rscale>
<asrwt>0</asrwt>
<pdfrwt beam="1">  1        2 0.20096530E-01 0.41309294E+03</pdfrwt>
<pdfrwt beam="2">  1       -2 0.43322987E-01 0.41309294E+03</pdfrwt>
<totfact> 0.14207968E+03</totfact>
</mgrwt>
</event>
<event>
 4    1  0.5323640E-005  0.5974790E+03  0.7818608E-02  0.9910650E-01
          2   -1    0    0  501    0  0.00000000000E+00  0.00000000000E+00  0.32121395942E+04  0.32121395942E+04  0.25500000000E-02 0.  1.
         -2   -1    0    0    0  501 -0.00000000000E+00 -0.00000000000E+00 -0.27783748738E+02  0.27783748855E+02  0.25500000000E-02 0. -1.
    5000001    1    1    2    0    0 -0.60354856765E+00 -0.22671436259E+03  0.21510145484E+04  0.21692137640E+04  0.16500000000E+03 0.  0.
   -5000001    1    1    2    0    0  0.60354856765E+00  0.22671436259E+03  0.10333412970E+04  0.10707095790E+04  0.16500000000E+03 0.  0.
<mgrwt>
<rscale>  0 0.59747897E+03</rscale>
<asrwt>0</asrwt>
<pdfrwt beam="1">  1        2 0.45887701E+00 0.59747897E+03</pdfrwt>
<pdfrwt beam="2">  1       -2 0.39691076E-02 0.59747897E+03</pdfrwt>
<totfact> 0.56440174E+02</totfact>
</mgrwt>
</event>
<event>
 4    1  0.5323640E-005  0.9580111E+03  0.7818608E-02  0.9355836E-01
          2   -1    0    0  501    0  0.00000000000E+00  0.00000000000E+00  0.14711566706E+04  0.14711566706E+04  0.25500000000E-02 0.  1.
         -2   -1    0    0    0  501 -0.00000000000E+00 -0.00000000000E+00 -0.15596321865E+03  0.15596321867E+03  0.25500000000E-02 0. -1.
    5000001    1    1    2    0    0  0.33866818192E+03 -0.46437268226E+01  0.11600110703E+04  0.12196591265E+04  0.16500000000E+03 0.  0.
   -5000001    1    1    2    0    0 -0.33866818192E+03  0.46437268226E+01  0.15518238170E+03  0.40746076282E+03  0.16500000000E+03 0.  0.
<mgrwt>
<rscale>  0 0.95801113E+03</rscale>
<asrwt>0</asrwt>
<pdfrwt beam="1">  1        2 0.21016524E+00 0.95801113E+03</pdfrwt>
<pdfrwt beam="2">  1       -2 0.22280459E-01 0.95801113E+03</pdfrwt>
<totfact> 0.26676543E+02</totfact>
</mgrwt>
</event>
<event>
 4    1  0.5323640E-005  0.6562516E+03  0.7818608E-02  0.9795119E-01
          2   -1    0    0  501    0  0.00000000000E+00  0.00000000000E+00  0.44315930724E+03  0.44315930724E+03  0.25500000000E-02 0.  1.
         -2   -1    0    0    0  501 -0.00000000000E+00 -0.00000000000E+00 -0.24295222251E+03  0.24295222252E+03  0.25500000000E-02 0. -1.
    5000001    1    1    2    0    0  0.87686405842E+01  0.27541008330E+03  0.17034637633E+03  0.36355259725E+03  0.16500000000E+03 0.  0.
   -5000001    1    1    2    0    0 -0.87686405842E+01 -0.27541008330E+03  0.29860708399E+02  0.32255893252E+03  0.16500000000E+03 0.  0.
<mgrwt>
<rscale>  0 0.65625159E+03</rscale>
<asrwt>0</asrwt>
<pdfrwt beam="1">  1        2 0.63308472E-01 0.65625159E+03</pdfrwt>
<pdfrwt beam="2">  1       -2 0.34707460E-01 0.65625159E+03</pdfrwt>
<totfact> 0.60306981E+02</totfact>
</mgrwt>
</event>
<event>
 4    1  0.5323640E-005  0.5215433E+03  0.7818608E-02  0.1008304E+00
          2   -1    0    0  501    0  0.00000000000E+00  0.00000000000E+00  0.52733556294E+03  0.52733556294E+03  0.25500000000E-02 0.  1.
         -2   -1    0    0    0  501 -0.00000000000E+00 -0.00000000000E+00 -0.12895367523E+03  0.12895367526E+03  0.25500000000E-02 0. -1.
    5000001    1    1    2    0    0 -0.78122436230E+02  0.86160439958E+02 -0.85342265544E+01  0.20205090814E+03  0.16500000000E+03 0.  0.
   -5000001    1    1    2    0    0  0.78122436230E+02 -0.86160439958E+02  0.40691611426E+03  0.45423833006E+03  0.16500000000E+03 0.  0.
<mgrwt>
<rscale>  0 0.52154332E+03</rscale>
<asrwt>0</asrwt>
<pdfrwt beam="1">  1        2 0.75333653E-01 0.52154332E+03</pdfrwt>
<pdfrwt beam="2">  1       -2 0.18421953E-01 0.52154332E+03</pdfrwt>
<totfact> 0.15519546E+03</totfact>
</mgrwt>
</event>
<event>
 4    1  0.5323640E-005  0.5411251E+03  0.7818608E-02  0.1003569E+00
          2   -1    0    0  501    0  0.00000000000E+00  0.00000000000E+00  0.29485898807E+04  0.29485898807E+04  0.25500000000E-02 0.  1.
         -2   -1    0    0    0  501 -0.00000000000E+00 -0.00000000000E+00 -0.24826814266E+02  0.24826814397E+02  0.25500000000E-02 0. -1.
    5000001    1    1    2    0    0 -0.21071117593E+03 -0.11530623301E+02  0.16708992713E+04  0.16922356602E+04  0.16500000000E+03 0.  0.
   -5000001    1    1    2    0    0  0.21071117593E+03  0.11530623301E+02  0.12528637951E+04  0.12811810348E+04  0.16500000000E+03 0.  0.
<mgrwt>
<rscale>  0 0.54112510E+03</rscale>
<asrwt>0</asrwt>
<pdfrwt beam="1">  1        2 0.42122724E+00 0.54112510E+03</pdfrwt>
<pdfrwt beam="2">  1       -2 0.35466868E-02 0.54112510E+03</pdfrwt>
<totfact> 0.94142537E+02</totfact>
</mgrwt>
</event>
<event>
 4    1  0.5323640E-005  0.4107266E+03  0.7818608E-02  0.1040127E+00
          2   -1    0    0  501    0  0.00000000000E+00  0.00000000000E+00  0.64372886729E+03  0.64372886730E+03  0.25500000000E-02 0.  1.
         -2   -1    0    0    0  501 -0.00000000000E+00 -0.00000000000E+00 -0.65515301977E+02  0.65515302026E+02  0.25500000000E-02 0. -1.
    5000001    1    1    2    0    0 -0.11330573585E+03  0.42489468619E+02  0.31929111121E+03  0.37922995453E+03  0.16500000000E+03 0.  0.
   -5000001    1    1    2    0    0  0.11330573585E+03 -0.42489468619E+02  0.25892245411E+03  0.33001421479E+03  0.16500000000E+03 0.  0.
<mgrwt>
<rscale>  0 0.41072663E+03</rscale>
<asrwt>0</asrwt>
<pdfrwt beam="1">  1        2 0.91961271E-01 0.41072663E+03</pdfrwt>
<pdfrwt beam="2">  1       -2 0.93593285E-02 0.41072663E+03</pdfrwt>
<totfact> 0.37648722E+03</totfact>
</mgrwt>
</event>
<event>
 4    1  0.5323640E-005  0.4089983E+03  0.7818608E-02  0.1040708E+00
          2   -1    0    0  501    0  0.00000000000E+00  0.00000000000E+00  0.14024818536E+04  0.14024818536E+04  0.25500000000E-02 0.  1.
         -2   -1    0    0    0  501 -0.00000000000E+00 -0.00000000000E+00 -0.29818494807E+02  0.29818494916E+02  0.25500000000E-02 0. -1.
    5000001    1    1    2    0    0 -0.11198942004E+03  0.41961063213E+02  0.62643497049E+03  0.65874739717E+03  0.16500000000E+03 0.  0.
   -5000001    1    1    2    0    0  0.11198942004E+03 -0.41961063213E+02  0.74622838826E+03  0.77355295130E+03  0.16500000000E+03 0.  0.
<mgrwt>
<rscale>  0 0.40899828E+03</rscale>
<asrwt>0</asrwt>
<pdfrwt beam="1">  1        2 0.20035453E+00 0.40899828E+03</pdfrwt>
<pdfrwt beam="2">  1       -2 0.42597854E-02 0.40899828E+03</pdfrwt>
<totfact> 0.43890405E+03</totfact>
</mgrwt>
</event>
<event>
 4    1  0.5323640E-005  0.4419224E+03  0.7818608E-02  0.1030159E+00
         -2   -1    0    0    0  501 -0.00000000000E+00  0.00000000000E+00  0.14848584519E+02  0.14848584738E+02  0.25500000000E-02 0. -1.
          2   -1    0    0  501    0  0.00000000000E+00 -0.00000000000E+00 -0.32881155103E+04  0.32881155103E+04  0.25500000000E-02 0.  1.
    5000001    1    1    2    0    0  0.14582580287E+03 -0.15541615247E+02 -0.17083826311E+04  0.17225861142E+04  0.16500000000E+03 0.  0.
   -5000001    1    1    2    0    0 -0.14582580287E+03  0.15541615247E+02 -0.15648842947E+04  0.15803779809E+04  0.16500000000E+03 0.  0.
<mgrwt>
<rscale>  0 0.44192244E+03</rscale>
<asrwt>0</asrwt>
<pdfrwt beam="1">  1        2 0.46973032E+00 0.44192244E+03</pdfrwt>
<pdfrwt beam="2">  1       -2 0.21212285E-02 0.44192244E+03</pdfrwt>
<totfact> 0.13421874E+03</totfact>
</mgrwt>
</event>
<event>
 4    1  0.5323640E-005  0.5793536E+03  0.7818608E-02  0.9949191E-01
         -2   -1    0    0    0  501 -0.00000000000E+00  0.00000000000E+00  0.26963656202E+03  0.26963656203E+03  0.25500000000E-02 0. -1.
          2   -1    0    0  501    0  0.00000000000E+00 -0.00000000000E+00 -0.31120648223E+03  0.31120648224E+03  0.25500000000E-02 0.  1.
    5000001    1    1    2    0    0 -0.22527319285E+02 -0.17547306584E+03  0.13896510479E+03  0.27898848955E+03  0.16500000000E+03 0.  0.
   -5000001    1    1    2    0    0  0.22527319285E+02  0.17547306584E+03 -0.18053502501E+03  0.30185455472E+03  0.16500000000E+03 0.  0.
<mgrwt>
<rscale>  0 0.57935359E+03</rscale>
<asrwt>0</asrwt>
<pdfrwt beam="1">  1        2 0.44458069E-01 0.57935359E+03</pdfrwt>
<pdfrwt beam="2">  1       -2 0.38519509E-01 0.57935359E+03</pdfrwt>
<totfact> 0.73252422E+02</totfact>
</mgrwt>
</event>
<event>
 4    1  0.5323640E-005  0.5199005E+03  0.7818608E-02  0.1008711E+00
          2   -1    0    0  501    0  0.00000000000E+00  0.00000000000E+00  0.19341981591E+04  0.19341981591E+04  0.25500000000E-02 0.  1.
         -2   -1    0    0    0  501 -0.00000000000E+00 -0.00000000000E+00 -0.34936505771E+02  0.34936505864E+02  0.25500000000E-02 0. -1.
    5000001    1    1    2    0    0 -0.18450862418E+03  0.60849288382E+02  0.11428708317E+04  0.11709503859E+04  0.16500000000E+03 0.  0.
   -5000001    1    1    2    0    0  0.18450862418E+03 -0.60849288382E+02  0.75639082157E+03  0.79818427900E+03  0.16500000000E+03 0.  0.
<mgrwt>
<rscale>  0 0.51990047E+03</rscale>
<asrwt>0</asrwt>
<pdfrwt beam="1">  1        2 0.27631411E+00 0.51990047E+03</pdfrwt>
<pdfrwt beam="2">  1       -2 0.49909279E-02 0.51990047E+03</pdfrwt>
<totfact> 0.18453754E+03</totfact>
</mgrwt>
</event>
<event>
 4    1  0.5323640E-005  0.4324108E+03  0.7818608E-02  0.1033101E+00
          2   -1    0    0  501    0  0.00000000000E+00  0.00000000000E+00  0.12645924673E+03  0.12645924676E+03  0.25500000000E-02 0.  1.
         -2   -1    0    0    0  501 -0.00000000000E+00 -0.00000000000E+00 -0.36964306212E+03  0.36964306213E+03  0.25500000000E-02 0. -1.
    5000001    1    1    2    0    0  0.10158056338E+03 -0.28213861852E+02 -0.16408455448E+02  0.19649139999E+03  0.16500000000E+03 0.  0.
   -5000001    1    1    2    0    0 -0.10158056338E+03  0.28213861852E+02 -0.22677535994E+03  0.29961090890E+03  0.16500000000E+03 0.  0.
<mgrwt>
<rscale>  0 0.43241084E+03</rscale>
<asrwt>0</asrwt>
<pdfrwt beam="1">  1        2 0.18065607E-01 0.43241084E+03</pdfrwt>
<pdfrwt beam="2">  1       -2 0.52806151E-01 0.43241084E+03</pdfrwt>
<totfact> 0.10842597E+03</totfact>
</mgrwt>
</event>
<event>
 4    1  0.5323640E-005  0.7482140E+03  0.7818608E-02  0.9638156E-01
          2   -1    0    0  501    0  0.00000000000E+00  0.00000000000E+00  0.15363787659E+03  0.15363787661E+03  0.25500000000E-02 0.  1.
         -2   -1    0    0    0  501 -0.00000000000E+00 -0.00000000000E+00 -0.91094760195E+03  0.91094760195E+03  0.25500000000E-02 0. -1.
    5000001    1    1    2    0    0 -0.17493071309E+03  0.28206619849E+03 -0.45077115879E+03  0.58359380763E+03  0.16500000000E+03 0.  0.
   -5000001    1    1    2    0    0  0.17493071309E+03 -0.28206619849E+03 -0.30653856657E+03  0.48099167093E+03  0.16500000000E+03 0.  0.
<mgrwt>
<rscale>  0 0.74821402E+03</rscale>
<asrwt>0</asrwt>
<pdfrwt beam="1">  1        2 0.21948269E-01 0.74821402E+03</pdfrwt>
<pdfrwt beam="2">  1       -2 0.13013537E+00 0.74821402E+03</pdfrwt>
<totfact> 0.11146669E+02</totfact>
</mgrwt>
</event>
<event>
 4    1  0.5323640E-005  0.5350468E+03  0.7818608E-02  0.1005015E+00
          2   -1    0    0  501    0  0.00000000000E+00  0.00000000000E+00  0.16264547495E+04  0.16264547495E+04  0.25500000000E-02 0.  1.
         -2   -1    0    0    0  501 -0.00000000000E+00 -0.00000000000E+00 -0.44002924453E+02  0.44002924527E+02  0.25500000000E-02 0. -1.
    5000001    1    1    2    0    0 -0.99509207953E+02 -0.16907841195E+03  0.10301041129E+04  0.10615220559E+04  0.16500000000E+03 0.  0.
   -5000001    1    1    2    0    0  0.99509207953E+02  0.16907841195E+03  0.55234771219E+03  0.60893561812E+03  0.16500000000E+03 0.  0.
<mgrwt>
<rscale>  0 0.53504678E+03</rscale>
<asrwt>0</asrwt>
<pdfrwt beam="1">  1        2 0.23235074E+00 0.53504678E+03</pdfrwt>
<pdfrwt beam="2">  1       -2 0.62861304E-02 0.53504678E+03</pdfrwt>
<totfact> 0.18408561E+03</totfact>
</mgrwt>
</event>
<event>
 4    1  0.5323640E-005  0.4886698E+03  0.7818608E-02  0.1016779E+00
          2   -1    0    0  501    0  0.00000000000E+00  0.00000000000E+00  0.73837789153E+03  0.73837789153E+03  0.25500000000E-02 0.  1.
         -2   -1    0    0    0  501 -0.00000000000E+00 -0.00000000000E+00 -0.80852290671E+02  0.80852290712E+02  0.25500000000E-02 0. -1.
    5000001    1    1    2    0    0  0.88042086694E+02 -0.63354046428E+02  0.57001661954E+03  0.60324878018E+03  0.16500000000E+03 0.  0.
   -5000001    1    1    2    0    0 -0.88042086694E+02  0.63354046428E+02  0.87508981312E+02  0.21598140207E+03  0.16500000000E+03 0.  0.
<mgrwt>
<rscale>  0 0.48866980E+03</rscale>
<asrwt>0</asrwt>
<pdfrwt beam="1">  1        2 0.10548255E+00 0.48866980E+03</pdfrwt>
<pdfrwt beam="2">  1       -2 0.11550327E-01 0.48866980E+03</pdfrwt>
<totfact> 0.22755703E+03</totfact>
</mgrwt>
</event>
<event>
 4    1  0.5323640E-005  0.4761424E+03  0.7818608E-02  0.1020201E+00
          2   -1    0    0  501    0  0.00000000000E+00  0.00000000000E+00  0.26163096022E+04  0.26163096022E+04  0.25500000000E-02 0.  1.
         -2   -1    0    0    0  501 -0.00000000000E+00 -0.00000000000E+00 -0.21663302019E+02  0.21663302169E+02  0.25500000000E-02 0. -1.
    5000001    1    1    2    0    0  0.14820078490E+03 -0.79151945906E+02  0.14911863927E+04  0.15096656454E+04  0.16500000000E+03 0.  0.
   -5000001    1    1    2    0    0 -0.14820078490E+03  0.79151945906E+02  0.11034599075E+04  0.11283072590E+04  0.16500000000E+03 0.  0.
<mgrwt>
<rscale>  0 0.47614244E+03</rscale>
<asrwt>0</asrwt>
<pdfrwt beam="1">  1        2 0.37375846E+00 0.47614244E+03</pdfrwt>
<pdfrwt beam="2">  1       -2 0.30947579E-02 0.47614244E+03</pdfrwt>
<totfact> 0.17407770E+03</totfact>
</mgrwt>
</event>
<event>
 4    1  0.5323640E-005  0.4405500E+03  0.7818608E-02  0.1030578E+00
         -2   -1    0    0    0  501 -0.00000000000E+00  0.00000000000E+00  0.75233593397E+02  0.75233593440E+02  0.25500000000E-02 0. -1.
          2   -1    0    0  501    0  0.00000000000E+00 -0.00000000000E+00 -0.64493889047E+03  0.64493889047E+03  0.25500000000E-02 0.  1.
    5000001    1    1    2    0    0 -0.89628319013E+02 -0.75656466300E+02 -0.14291542441E+03  0.24780426751E+03  0.16500000000E+03 0.  0.
   -5000001    1    1    2    0    0  0.89628319013E+02  0.75656466300E+02 -0.42678987266E+03  0.47236821640E+03  0.16500000000E+03 0.  0.
<mgrwt>
<rscale>  0 0.44054998E+03</rscale>
<asrwt>0</asrwt>
<pdfrwt beam="1">  1        2 0.92134124E-01 0.44054998E+03</pdfrwt>
<pdfrwt beam="2">  1       -2 0.10747657E-01 0.44054998E+03</pdfrwt>
<totfact> 0.30100697E+03</totfact>
</mgrwt>
</event>
<event>
 4    1  0.5323640E-005  0.5293521E+03  0.7818608E-02  0.1006389E+00
         -2   -1    0    0    0  501 -0.00000000000E+00  0.00000000000E+00  0.21288387601E+03  0.21288387603E+03  0.25500000000E-02 0. -1.
          2   -1    0    0  501    0  0.00000000000E+00 -0.00000000000E+00 -0.32906869619E+03  0.32906869620E+03  0.25500000000E-02 0.  1.
    5000001    1    1    2    0    0 -0.19646463366E+03 -0.64723531220E+02 -0.64642492872E+02  0.27238050528E+03  0.16500000000E+03 0.  0.
   -5000001    1    1    2    0    0  0.19646463366E+03  0.64723531220E+02 -0.51542327304E+02  0.26957206694E+03  0.16500000000E+03 0.  0.
<mgrwt>
<rscale>  0 0.52935213E+03</rscale>
<asrwt>0</asrwt>
<pdfrwt beam="1">  1        2 0.47009814E-01 0.52935213E+03</pdfrwt>
<pdfrwt beam="2">  1       -2 0.30411982E-01 0.52935213E+03</pdfrwt>
<totfact> 0.10759582E+03</totfact>
</mgrwt>
</event>
<event>
 4    1  0.5323640E-005  0.5272218E+03  0.7818608E-02  0.1006908E+00
         -2   -1    0    0    0  501 -0.00000000000E+00  0.00000000000E+00  0.34808823191E+02  0.34808823284E+02  0.25500000000E-02 0. -1.
          2   -1    0    0  501    0  0.00000000000E+00 -0.00000000000E+00 -0.19963533832E+04  0.19963533832E+04  0.25500000000E-02 0.  1.
    5000001    1    1    2    0    0 -0.38366061506E+02 -0.19877365168E+03 -0.84278804159E+03  0.88232624484E+03  0.16500000000E+03 0.  0.
   -5000001    1    1    2    0    0  0.38366061506E+02  0.19877365168E+03 -0.11187565184E+04  0.11488359617E+04  0.16500000000E+03 0.  0.
<mgrwt>
<rscale>  0 0.52722182E+03</rscale>
<asrwt>0</asrwt>
<pdfrwt beam="1">  1        2 0.28519327E+00 0.52722182E+03</pdfrwt>
<pdfrwt beam="2">  1       -2 0.49726903E-02 0.52722182E+03</pdfrwt>
<totfact> 0.17271657E+03</totfact>
</mgrwt>
</event>
<event>
 4    1  0.5323640E-005  0.4482255E+03  0.7818608E-02  0.1028253E+00
         -2   -1    0    0    0  501 -0.00000000000E+00  0.00000000000E+00  0.31063069007E+03  0.31063069008E+03  0.25500000000E-02 0. -1.
          2   -1    0    0  501    0  0.00000000000E+00 -0.00000000000E+00 -0.16169205557E+03  0.16169205559E+03  0.25500000000E-02 0.  1.
    5000001    1    1    2    0    0 -0.92466543023E+02  0.97346437086E+02  0.14879592564E+03  0.25959895585E+03  0.16500000000E+03 0.  0.
   -5000001    1    1    2    0    0  0.92466543023E+02 -0.97346437086E+02  0.14270886965E+00  0.21272378983E+03  0.16500000000E+03 0.  0.
<mgrwt>
<rscale>  0 0.44822546E+03</rscale>
<asrwt>0</asrwt>
<pdfrwt beam="1">  1        2 0.23098865E-01 0.44822546E+03</pdfrwt>
<pdfrwt beam="2">  1       -2 0.44375813E-01 0.44822546E+03</pdfrwt>
<totfact> 0.11554020E+03</totfact>
</mgrwt>
</event>
<event>
 4    1  0.5323640E-005  0.3585009E+03  0.7818608E-02  0.1059179E+00
          2   -1    0    0  501    0  0.00000000000E+00  0.00000000000E+00  0.14871305198E+04  0.14871305198E+04  0.25500000000E-02 0.  1.
         -2   -1    0    0    0  501 -0.00000000000E+00 -0.00000000000E+00 -0.21605854246E+02  0.21605854397E+02  0.25500000000E-02 0. -1.
    5000001    1    1    2    0    0  0.12961733744E+02 -0.32218793851E+02  0.47678324580E+03  0.50572059548E+03  0.16500000000E+03 0.  0.
   -5000001    1    1    2    0    0 -0.12961733744E+02  0.32218793851E+02  0.98874141976E+03  0.10030157787E+04  0.16500000000E+03 0.  0.
<mgrwt>
<rscale>  0 0.35850091E+03</rscale>
<asrwt>0</asrwt>
<pdfrwt beam="1">  1        2 0.21244721E+00 0.35850091E+03</pdfrwt>
<pdfrwt beam="2">  1       -2 0.30865508E-02 0.35850091E+03</pdfrwt>
<totfact> 0.64541857E+03</totfact>
</mgrwt>
</event>
<event>
 4    1  0.5323640E-005  0.4434183E+03  0.7818608E-02  0.1029703E+00
          2   -1    0    0  501    0  0.00000000000E+00  0.00000000000E+00  0.13337406481E+04  0.13337406481E+04  0.25500000000E-02 0.  1.
         -2   -1    0    0    0  501 -0.00000000000E+00 -0.00000000000E+00 -0.36854955682E+02  0.36854955770E+02  0.25500000000E-02 0. -1.
    5000001    1    1    2    0    0  0.85903083553E+02  0.16186257928E+02  0.10179227387E+04  0.10349072599E+04  0.16500000000E+03 0.  0.
   -5000001    1    1    2    0    0 -0.85903083553E+02 -0.16186257928E+02  0.27896295375E+03  0.33568834397E+03  0.16500000000E+03 0.  0.
<mgrwt>
<rscale>  0 0.44341832E+03</rscale>
<asrwt>0</asrwt>
<pdfrwt beam="1">  1        2 0.19053434E+00 0.44341832E+03</pdfrwt>
<pdfrwt beam="2">  1       -2 0.52649947E-02 0.44341832E+03</pdfrwt>
<totfact> 0.34477231E+03</totfact>
</mgrwt>
</event>
<event>
 4    1  0.5323640E-005  0.1009202E+04  0.7818608E-02  0.9298509E-01
          2   -1    0    0  501    0  0.00000000000E+00  0.00000000000E+00  0.58772907504E+03  0.58772907504E+03  0.25500000000E-02 0.  1.
         -2   -1    0    0    0  501 -0.00000000000E+00 -0.00000000000E+00 -0.43323074690E+03  0.43323074690E+03  0.25500000000E-02 0. -1.
    5000001    1    1    2    0    0 -0.43557750716E+03 -0.12485493597E+03 -0.73078081592E+02  0.48773140743E+03  0.16500000000E+03 0.  0.
   -5000001    1    1    2    0    0  0.43557750716E+03  0.12485493597E+03  0.22757640974E+03  0.53322841452E+03  0.16500000000E+03 0.  0.
<mgrwt>
<rscale>  0 0.10092023E+04</rscale>
<asrwt>0</asrwt>
<pdfrwt beam="1">  1        2 0.83961296E-01 0.10092023E+04</pdfrwt>
<pdfrwt beam="2">  1       -2 0.61890107E-01 0.10092023E+04</pdfrwt>
<totfact> 0.13464731E+02</totfact>
</mgrwt>
</event>
<event>
 4    1  0.5323640E-005  0.4120495E+03  0.7818608E-02  0.1039685E+00
         -2   -1    0    0    0  501 -0.00000000000E+00  0.00000000000E+00  0.56045601833E+03  0.56045601834E+03  0.25500000000E-02 0. -1.
          2   -1    0    0  501    0  0.00000000000E+00 -0.00000000000E+00 -0.75735108307E+02  0.75735108350E+02  0.25500000000E-02 0.  1.
    5000001    1    1    2    0    0 -0.51004091797E+01 -0.10992316119E+03  0.32849229292E+03  0.38372034354E+03  0.16500000000E+03 0.  0.
   -5000001    1    1    2    0    0  0.51004091797E+01  0.10992316119E+03  0.15622861710E+03  0.25247078315E+03  0.16500000000E+03 0.  0.
<mgrwt>
<rscale>  0 0.41204950E+03</rscale>
<asrwt>0</asrwt>
<pdfrwt beam="1">  1        2 0.10819301E-01 0.41204950E+03</pdfrwt>
<pdfrwt beam="2">  1       -2 0.80065144E-01 0.41204950E+03</pdfrwt>
<totfact> 0.83210837E+02</totfact>
</mgrwt>
</event>
<event>
 4    1  0.5323640E-005  0.4330503E+03  0.7818608E-02  0.1032901E+00
         -2   -1    0    0    0  501 -0.00000000000E+00  0.00000000000E+00  0.50259004288E+02  0.50259004353E+02  0.25500000000E-02 0. -1.
          2   -1    0    0  501    0  0.00000000000E+00 -0.00000000000E+00 -0.93283061010E+03  0.93283061011E+03  0.25500000000E-02 0.  1.
    5000001    1    1    2    0    0 -0.10738061288E+03  0.79659441841E+02 -0.53711509193E+03  0.57757583457E+03  0.16500000000E+03 0.  0.
   -5000001    1    1    2    0    0  0.10738061288E+03 -0.79659441841E+02 -0.34545651388E+03  0.40551377989E+03  0.16500000000E+03 0.  0.
<mgrwt>
<rscale>  0 0.43305029E+03</rscale>
<asrwt>0</asrwt>
<pdfrwt beam="1">  1        2 0.13326150E+00 0.43305029E+03</pdfrwt>
<pdfrwt beam="2">  1       -2 0.71798583E-02 0.43305029E+03</pdfrwt>
<totfact> 0.36032414E+03</totfact>
</mgrwt>
</event>
<event>
 4    1  0.5323640E-005  0.5756265E+03  0.7818608E-02  0.9957305E-01
          2   -1    0    0  501    0  0.00000000000E+00  0.00000000000E+00  0.20148477644E+04  0.20148477644E+04  0.25500000000E-02 0.  1.
         -2   -1    0    0    0  501 -0.00000000000E+00 -0.00000000000E+00 -0.41113010486E+02  0.41113010565E+02  0.25500000000E-02 0. -1.
    5000001    1    1    2    0    0 -0.23567177673E+03  0.38011726371E+01  0.10135529843E+04  0.10535987317E+04  0.16500000000E+03 0.  0.
   -5000001    1    1    2    0    0  0.23567177673E+03 -0.38011726371E+01  0.96018176952E+03  0.10023620433E+04  0.16500000000E+03 0.  0.
<mgrwt>
<rscale>  0 0.57562647E+03</rscale>
<asrwt>0</asrwt>
<pdfrwt beam="1">  1        2 0.28783546E+00 0.57562647E+03</pdfrwt>
<pdfrwt beam="2">  1       -2 0.58732858E-02 0.57562647E+03</pdfrwt>
<totfact> 0.13021776E+03</totfact>
</mgrwt>
</event>
<event>
 4    1  0.5323640E-005  0.4785674E+03  0.7818608E-02  0.1019530E+00
         -2   -1    0    0    0  501 -0.00000000000E+00  0.00000000000E+00  0.16748262332E+03  0.16748262334E+03  0.25500000000E-02 0. -1.
          2   -1    0    0  501    0  0.00000000000E+00 -0.00000000000E+00 -0.34186637482E+03  0.34186637483E+03  0.25500000000E-02 0.  1.
    5000001    1    1    2    0    0 -0.15397087748E+03 -0.77694929727E+02 -0.69125242311E+02  0.24848909904E+03  0.16500000000E+03 0.  0.
   -5000001    1    1    2    0    0  0.15397087748E+03  0.77694929727E+02 -0.10525850919E+03  0.26085989913E+03  0.16500000000E+03 0.  0.
<mgrwt>
<rscale>  0 0.47856735E+03</rscale>
<asrwt>0</asrwt>
<pdfrwt beam="1">  1        2 0.48838053E-01 0.47856735E+03</pdfrwt>
<pdfrwt beam="2">  1       -2 0.23926089E-01 0.47856735E+03</pdfrwt>
<totfact> 0.15924303E+03</totfact>
</mgrwt>
</event>
<event>
 4    1  0.5323640E-005  0.4314044E+03  0.7818608E-02  0.1033417E+00
          2   -1    0    0  501    0  0.00000000000E+00  0.00000000000E+00  0.91528218764E+03  0.91528218765E+03  0.25500000000E-02 0.  1.
         -2   -1    0    0    0  501 -0.00000000000E+00 -0.00000000000E+00 -0.50833973165E+02  0.50833973229E+02  0.25500000000E-02 0. -1.
    5000001    1    1    2    0    0 -0.11742502872E+03 -0.47852943067E+02  0.55937951528E+03  0.59683245861E+03  0.16500000000E+03 0.  0.
   -5000001    1    1    2    0    0  0.11742502872E+03  0.47852943067E+02  0.30506869920E+03  0.36928370227E+03  0.16500000000E+03 0.  0.
<mgrwt>
<rscale>  0 0.43140436E+03</rscale>
<asrwt>0</asrwt>
<pdfrwt beam="1">  1        2 0.13075460E+00 0.43140436E+03</pdfrwt>
<pdfrwt beam="2">  1       -2 0.72619963E-02 0.43140436E+03</pdfrwt>
<totfact> 0.36302666E+03</totfact>
</mgrwt>
</event>
<event>
 4    1  0.5323640E-005  0.5563598E+03  0.7818608E-02  0.1000033E+00
         -2   -1    0    0    0  501 -0.00000000000E+00  0.00000000000E+00  0.33143478007E+03  0.33143478008E+03  0.25500000000E-02 0. -1.
          2   -1    0    0  501    0  0.00000000000E+00 -0.00000000000E+00 -0.23348199857E+03  0.23348199858E+03  0.25500000000E-02 0.  1.
    5000001    1    1    2    0    0  0.19092888703E+03  0.24221537006E+02 -0.67321371439E+02  0.26229313717E+03  0.16500000000E+03 0.  0.
   -5000001    1    1    2    0    0 -0.19092888703E+03 -0.24221537006E+02  0.16527415294E+03  0.30262364148E+03  0.16500000000E+03 0.  0.
<mgrwt>
<rscale>  0 0.55635979E+03</rscale>
<asrwt>0</asrwt>
<pdfrwt beam="1">  1        2 0.33354572E-01 0.55635979E+03</pdfrwt>
<pdfrwt beam="2">  1       -2 0.47347825E-01 0.55635979E+03</pdfrwt>
<totfact> 0.67150721E+02</totfact>
</mgrwt>
</event>
<event>
 4    1  0.5323640E-005  0.3850042E+03  0.7818608E-02  0.1049100E+00
         -2   -1    0    0    0  501 -0.00000000000E+00  0.00000000000E+00  0.13320987723E+03  0.13320987726E+03  0.25500000000E-02 0. -1.
          2   -1    0    0  501    0  0.00000000000E+00 -0.00000000000E+00 -0.27818549167E+03  0.27818549168E+03  0.25500000000E-02 0.  1.
    5000001    1    1    2    0    0 -0.10300713845E+02  0.86803124288E+02 -0.12250643808E+03  0.22332423618E+03  0.16500000000E+03 0.  0.
   -5000001    1    1    2    0    0  0.10300713845E+02 -0.86803124288E+02 -0.22469176350E+02  0.18807113276E+03  0.16500000000E+03 0.  0.
<mgrwt>
<rscale>  0 0.38500418E+03</rscale>
<asrwt>0</asrwt>
<pdfrwt beam="1">  1        2 0.39740784E-01 0.38500418E+03</pdfrwt>
<pdfrwt beam="2">  1       -2 0.19029983E-01 0.38500418E+03</pdfrwt>
<totfact> 0.29656404E+03</totfact>
</mgrwt>
</event>
<event>
 4    1  0.5323640E-005  0.4648310E+03  0.7818608E-02  0.1023389E+00
          2   -1    0    0  501    0  0.00000000000E+00  0.00000000000E+00  0.17188326951E+04  0.17188326951E+04  0.25500000000E-02 0.  1.
         -2   -1    0    0    0  501 -0.00000000000E+00 -0.00000000000E+00 -0.31426545432E+02  0.31426545535E+02  0.25500000000E-02 0. -1.
    5000001    1    1    2    0    0  0.56723228385E+02  0.14800935966E+03  0.99747018333E+03  0.10233748393E+04  0.16500000000E+03 0.  0.
   -5000001    1    1    2    0    0 -0.56723228385E+02 -0.14800935966E+03  0.68993596632E+03  0.72688440127E+03  0.16500000000E+03 0.  0.
<mgrwt>
<rscale>  0 0.46483104E+03</rscale>
<asrwt>0</asrwt>
<pdfrwt beam="1">  1        2 0.24554751E+00 0.46483104E+03</pdfrwt>
<pdfrwt beam="2">  1       -2 0.44895069E-02 0.46483104E+03</pdfrwt>
<totfact> 0.27898713E+03</totfact>
</mgrwt>
</event>
<event>
 4    1  0.5323640E-005  0.4833319E+03  0.7818608E-02  0.1018223E+00
          2   -1    0    0  501    0  0.00000000000E+00  0.00000000000E+00  0.66071466008E+03  0.66071466009E+03  0.25500000000E-02 0.  1.
         -2   -1    0    0    0  501 -0.00000000000E+00 -0.00000000000E+00 -0.88392818322E+02  0.88392818359E+02  0.25500000000E-02 0. -1.
    5000001    1    1    2    0    0 -0.45291662178E+02 -0.16722646596E+03  0.33897997080E+03  0.41490775624E+03  0.16500000000E+03 0.  0.
   -5000001    1    1    2    0    0  0.45291662178E+02  0.16722646596E+03  0.23334187096E+03  0.33419972221E+03  0.16500000000E+03 0.  0.
<mgrwt>
<rscale>  0 0.48333190E+03</rscale>
<asrwt>0</asrwt>
<pdfrwt beam="1">  1        2 0.94387811E-01 0.48333190E+03</pdfrwt>
<pdfrwt beam="2">  1       -2 0.12627545E-01 0.48333190E+03</pdfrwt>
<totfact> 0.22500138E+03</totfact>
</mgrwt>
</event>
<event>
 4    1  0.5323640E-005  0.8866193E+03  0.7818608E-02  0.9442464E-01
          2   -1    0    0  501    0  0.00000000000E+00  0.00000000000E+00  0.22337911647E+04  0.22337911647E+04  0.25500000000E-02 0.  1.
         -2   -1    0    0    0  501 -0.00000000000E+00 -0.00000000000E+00 -0.87977530005E+02  0.87977530042E+02  0.25500000000E-02 0. -1.
    5000001    1    1    2    0    0 -0.37170392811E+03  0.16072377593E+03  0.12635940395E+04  0.13371203533E+04  0.16500000000E+03 0.  0.
   -5000001    1    1    2    0    0  0.37170392811E+03 -0.16072377593E+03  0.88221959516E+03  0.98464834149E+03  0.16500000000E+03 0.  0.
<mgrwt>
<rscale>  0 0.88661926E+03</rscale>
<asrwt>0</asrwt>
<pdfrwt beam="1">  1        2 0.31911302E+00 0.88661926E+03</pdfrwt>
<pdfrwt beam="2">  1       -2 0.12568219E-01 0.88661926E+03</pdfrwt>
<totfact> 0.29057944E+02</totfact>
</mgrwt>
</event>
<event>
 4    1  0.5323640E-005  0.4163656E+03  0.7818608E-02  0.1038256E+00
          2   -1    0    0  501    0  0.00000000000E+00  0.00000000000E+00  0.19850542615E+04  0.19850542615E+04  0.25500000000E-02 0.  1.
         -2   -1    0    0    0  501 -0.00000000000E+00 -0.00000000000E+00 -0.21833196528E+02  0.21833196677E+02  0.25500000000E-02 0. -1.
    5000001    1    1    2    0    0  0.12421187004E+03 -0.16872625325E+02  0.88499292482E+03  0.90892835313E+03  0.16500000000E+03 0.  0.
   -5000001    1    1    2    0    0 -0.12421187004E+03  0.16872625325E+02  0.10782281402E+04  0.10979591051E+04  0.16500000000E+03 0.  0.
<mgrwt>
<rscale>  0 0.41636561E+03</rscale>
<asrwt>0</asrwt>
<pdfrwt beam="1">  1        2 0.28357926E+00 0.41636561E+03</pdfrwt>
<pdfrwt beam="2">  1       -2 0.31190272E-02 0.41636561E+03</pdfrwt>
<totfact> 0.35802156E+03</totfact>
</mgrwt>
</event>
<event>
 4    1  0.5323640E-005  0.5060405E+03  0.7818608E-02  0.1012214E+00
          2   -1    0    0  501    0  0.00000000000E+00  0.00000000000E+00  0.17415788448E+04  0.17415788448E+04  0.25500000000E-02 0.  1.
         -2   -1    0    0    0  501 -0.00000000000E+00 -0.00000000000E+00 -0.36759317364E+02  0.36759317452E+02  0.25500000000E-02 0. -1.
    5000001    1    1    2    0    0  0.18935907004E+03  0.16321555583E+02  0.94344090535E+03  0.97643688607E+03  0.16500000000E+03 0.  0.
   -5000001    1    1    2    0    0 -0.18935907004E+03 -0.16321555583E+02  0.76137862210E+03  0.80190127620E+03  0.16500000000E+03 0.  0.
<mgrwt>
<rscale>  0 0.50604051E+03</rscale>
<asrwt>0</asrwt>
<pdfrwt beam="1">  1        2 0.24879702E+00 0.50604051E+03</pdfrwt>
<pdfrwt beam="2">  1       -2 0.52513301E-02 0.50604051E+03</pdfrwt>
<totfact> 0.21316437E+03</totfact>
</mgrwt>
</event>
<event>
 4    1  0.5323640E-005  0.5055093E+03  0.7818608E-02  0.1012351E+00
         -2   -1    0    0    0  501 -0.00000000000E+00  0.00000000000E+00  0.10792237492E+03  0.10792237495E+03  0.25500000000E-02 0. -1.
          2   -1    0    0  501    0  0.00000000000E+00 -0.00000000000E+00 -0.59195233864E+03  0.59195233865E+03  0.25500000000E-02 0.  1.
    5000001    1    1    2    0    0  0.67767382366E+02  0.13683998602E+03 -0.40193638032E+03  0.46053822177E+03  0.16500000000E+03 0.  0.
   -5000001    1    1    2    0    0 -0.67767382366E+02 -0.13683998602E+03 -0.82093583397E+02  0.23933649183E+03  0.16500000000E+03 0.  0.
<mgrwt>
<rscale>  0 0.50550926E+03</rscale>
<asrwt>0</asrwt>
<pdfrwt beam="1">  1        2 0.84564618E-01 0.50550926E+03</pdfrwt>
<pdfrwt beam="2">  1       -2 0.15417483E-01 0.50550926E+03</pdfrwt>
<totfact> 0.18379917E+03</totfact>
</mgrwt>
</event>
<event>
 4    1  0.5323640E-005  0.6169670E+03  0.7818608E-02  0.9870817E-01
         -2   -1    0    0    0  501 -0.00000000000E+00  0.00000000000E+00  0.11754690692E+03  0.11754690694E+03  0.25500000000E-02 0.  1.
          2   -1    0    0  501    0  0.00000000000E+00 -0.00000000000E+00 -0.80956688897E+03  0.80956688897E+03  0.25500000000E-02 0. -1.
    5000001    1    1    2    0    0  0.97878390266E+02 -0.23326485960E+03 -0.44038610439E+03  0.53400149339E+03  0.16500000000E+03 0.  0.
   -5000001    1    1    2    0    0 -0.97878390266E+02  0.23326485960E+03 -0.25163387766E+03  0.39311230252E+03  0.16500000000E+03 0.  0.
<mgrwt>
<rscale>  0 0.61696705E+03</rscale>
<asrwt>0</asrwt>
<pdfrwt beam="1">  1        2 0.11565241E+00 0.61696705E+03</pdfrwt>
<pdfrwt beam="2">  1       -2 0.16792416E-01 0.61696705E+03</pdfrwt>
<totfact> 0.10847345E+03</totfact>
</mgrwt>
</event>
<event>
 4    1  0.5323640E-005  0.7819013E+03  0.7818608E-02  0.9586590E-01
          2   -1    0    0  501    0  0.00000000000E+00  0.00000000000E+00  0.14570735527E+04  0.14570735527E+04  0.25500000000E-02 0.  1.
         -2   -1    0    0    0  501 -0.00000000000E+00 -0.00000000000E+00 -0.10489684411E+03  0.10489684415E+03  0.25500000000E-02 0. -1.
    5000001    1    1    2    0    0 -0.14863060884E+02 -0.35292851755E+03  0.73391588395E+03  0.83104571101E+03  0.16500000000E+03 0.  0.
   -5000001    1    1    2    0    0  0.14863060884E+02  0.35292851755E+03  0.61826082459E+03  0.73092468579E+03  0.16500000000E+03 0.  0.
<mgrwt>
<rscale>  0 0.78190132E+03</rscale>
<asrwt>0</asrwt>
<pdfrwt beam="1">  1        2 0.20815335E+00 0.78190132E+03</pdfrwt>
<pdfrwt beam="2">  1       -2 0.14985264E-01 0.78190132E+03</pdfrwt>
<totfact> 0.54492070E+02</totfact>
</mgrwt>
</event>
<event>
 4    1  0.5323640E-005  0.4942091E+03  0.7818608E-02  0.1015302E+00
         -2   -1    0    0    0  501 -0.00000000000E+00  0.00000000000E+00  0.11631228618E+03  0.11631228620E+03  0.25500000000E-02 0. -1.
          2   -1    0    0  501    0  0.00000000000E+00 -0.00000000000E+00 -0.52497169518E+03  0.52497169518E+03  0.25500000000E-02 0.  1.
    5000001    1    1    2    0    0  0.82982784096E+02 -0.78993885830E+02 -0.39106407839E+03  0.43963881751E+03  0.16500000000E+03 0.  0.
   -5000001    1    1    2    0    0 -0.82982784096E+02  0.78993885830E+02 -0.17595330611E+02  0.20164516388E+03  0.16500000000E+03 0.  0.
<mgrwt>
<rscale>  0 0.49420910E+03</rscale>
<asrwt>0</asrwt>
<pdfrwt beam="1">  1        2 0.74995955E-01 0.49420910E+03</pdfrwt>
<pdfrwt beam="2">  1       -2 0.16616041E-01 0.49420910E+03</pdfrwt>
<totfact> 0.18599810E+03</totfact>
</mgrwt>
</event>
<event>
 4    1  0.5323640E-005  0.6509792E+03  0.7818608E-02  0.9804944E-01
         -2   -1    0    0    0  501 -0.00000000000E+00  0.00000000000E+00  0.84946631397E+02  0.84946631435E+02  0.25500000000E-02 0. -1.
          2   -1    0    0  501    0  0.00000000000E+00 -0.00000000000E+00 -0.12471767814E+04  0.12471767814E+04  0.25500000000E-02 0.  1.
    5000001    1    1    2    0    0 -0.17468842680E+03 -0.18627469066E+03 -0.34331545502E+03  0.45859002223E+03  0.16500000000E+03 0.  0.
   -5000001    1    1    2    0    0  0.17468842680E+03  0.18627469066E+03 -0.81891469497E+03  0.87353339059E+03  0.16500000000E+03 0.  0.
<mgrwt>
<rscale>  0 0.65097916E+03</rscale>
<asrwt>0</asrwt>
<pdfrwt beam="1">  1        2 0.17816810E+00 0.65097916E+03</pdfrwt>
<pdfrwt beam="2">  1       -2 0.12135234E-01 0.65097916E+03</pdfrwt>
<totfact> 0.10122585E+03</totfact>
</mgrwt>
</event>
<event>
 4    1  0.5323640E-005  0.1033837E+04  0.7818608E-02  0.9272192E-01
         -2   -1    0    0    0  501 -0.00000000000E+00  0.00000000000E+00  0.18396766263E+03  0.18396766265E+03  0.25500000000E-02 0. -1.
          2   -1    0    0  501    0  0.00000000000E+00 -0.00000000000E+00 -0.14524553281E+04  0.14524553281E+04  0.25500000000E-02 0.  1.
    5000001    1    1    2    0    0 -0.98717640305E+02 -0.46179029041E+03 -0.84052905711E+03  0.97811530029E+03  0.16500000000E+03 0.  0.
   -5000001    1    1    2    0    0  0.98717640305E+02  0.46179029041E+03 -0.42795860831E+03  0.65830769041E+03  0.16500000000E+03 0.  0.
<mgrwt>
<rscale>  0 0.10338371E+04</rscale>
<asrwt>0</asrwt>
<pdfrwt beam="1">  1        2 0.20749361E+00 0.10338371E+04</pdfrwt>
<pdfrwt beam="2">  1       -2 0.26281095E-01 0.10338371E+04</pdfrwt>
<totfact> 0.20184590E+02</totfact>
</mgrwt>
</event>
<event>
 4    1  0.5323640E-005  0.8366062E+03  0.7818608E-02  0.9508492E-01
         -2   -1    0    0    0  501 -0.00000000000E+00  0.00000000000E+00  0.93353562074E+02  0.93353562109E+02  0.25500000000E-02 0.  1.
          2   -1    0    0  501    0  0.00000000000E+00 -0.00000000000E+00 -0.18743526897E+04  0.18743526897E+04  0.25500000000E-02 0. -1.
    5000001    1    1    2    0    0  0.35433116708E+03 -0.95872480560E+01 -0.12402301572E+04  0.13003992980E+04  0.16500000000E+03 0.  0.
   -5000001    1    1    2    0    0 -0.35433116708E+03  0.95872480560E+01 -0.54076897043E+03  0.66730695386E+03  0.16500000000E+03 0.  0.
<mgrwt>
<rscale>  0 0.83660624E+03</rscale>
<asrwt>0</asrwt>
<pdfrwt beam="1">  1        2 0.26776465E+00 0.83660624E+03</pdfrwt>
<pdfrwt beam="2">  1       -2 0.13336224E-01 0.83660624E+03</pdfrwt>
<totfact> 0.40231387E+02</totfact>
</mgrwt>
</event>
<event>
 4    1  0.5323640E-005  0.6291351E+03  0.7818608E-02  0.9846738E-01
         -2   -1    0    0    0  501 -0.00000000000E+00  0.00000000000E+00  0.48340496700E+02  0.48340496768E+02  0.25500000000E-02 0. -1.
          2   -1    0    0  501    0  0.00000000000E+00 -0.00000000000E+00 -0.20469948873E+04  0.20469948873E+04  0.25500000000E-02 0.  1.
    5000001    1    1    2    0    0  0.41640504791E+02  0.25465989163E+03 -0.12381535834E+04  0.12754743777E+04  0.16500000000E+03 0.  0.
   -5000001    1    1    2    0    0 -0.41640504791E+02 -0.25465989163E+03 -0.76050080726E+03  0.81986100645E+03  0.16500000000E+03 0.  0.
<mgrwt>
<rscale>  0 0.62913512E+03</rscale>
<asrwt>0</asrwt>
<pdfrwt beam="1">  1        2 0.29242779E+00 0.62913512E+03</pdfrwt>
<pdfrwt beam="2">  1       -2 0.69057865E-02 0.62913512E+03</pdfrwt>
<totfact> 0.96985782E+02</totfact>
</mgrwt>
</event>
<event>
 4    1  0.5323640E-005  0.4990680E+03  0.7818608E-02  0.1014022E+00
          2   -1    0    0  501    0  0.00000000000E+00  0.00000000000E+00  0.69664591542E+03  0.69664591543E+03  0.25500000000E-02 0.  1.
         -2   -1    0    0    0  501 -0.00000000000E+00 -0.00000000000E+00 -0.89381453773E+02  0.89381453810E+02  0.25500000000E-02 0. -1.
    5000001    1    1    2    0    0  0.12217750602E+03 -0.13215068733E+03  0.22253815384E+03  0.33036249341E+03  0.16500000000E+03 0.  0.
   -5000001    1    1    2    0    0 -0.12217750602E+03  0.13215068733E+03  0.38472630781E+03  0.45566487582E+03  0.16500000000E+03 0.  0.
<mgrwt>
<rscale>  0 0.49906803E+03</rscale>
<asrwt>0</asrwt>
<pdfrwt beam="1">  1        2 0.99520844E-01 0.49906803E+03</pdfrwt>
<pdfrwt beam="2">  1       -2 0.12768779E-01 0.49906803E+03</pdfrwt>
<totfact> 0.20729496E+03</totfact>
</mgrwt>
</event>
<event>
 4    1  0.5323640E-005  0.6158810E+03  0.7818608E-02  0.9872995E-01
          2   -1    0    0  501    0  0.00000000000E+00  0.00000000000E+00  0.10220795757E+03  0.10220795760E+03  0.25500000000E-02 0.  1.
         -2   -1    0    0    0  501 -0.00000000000E+00 -0.00000000000E+00 -0.92778838027E+03  0.92778838028E+03  0.25500000000E-02 0. -1.
    5000001    1    1    2    0    0  0.60301965106E+02  0.25264595973E+03 -0.39328349916E+03  0.49936281267E+03  0.16500000000E+03 0.  0.
   -5000001    1    1    2    0    0 -0.60301965106E+02 -0.25264595973E+03 -0.43229692355E+03  0.53063352520E+03  0.16500000000E+03 0.  0.
<mgrwt>
<rscale>  0 0.61588101E+03</rscale>
<asrwt>0</asrwt>
<pdfrwt beam="1">  1        2 0.14601137E-01 0.61588101E+03</pdfrwt>
<pdfrwt beam="2">  1       -2 0.13254119E+00 0.61588101E+03</pdfrwt>
<totfact> 0.17373985E+02</totfact>
</mgrwt>
</event>
<event>
 4    1  0.5323640E-005  0.5989240E+03  0.7818608E-02  0.9907641E-01
         -2   -1    0    0    0  501 -0.00000000000E+00  0.00000000000E+00  0.27396461254E+02  0.27396461373E+02  0.25500000000E-02 0.  1.
          2   -1    0    0  501    0  0.00000000000E+00 -0.00000000000E+00 -0.32733234348E+04  0.32733234348E+04  0.25500000000E-02 0. -1.
    5000001    1    1    2    0    0  0.68225641506E+02 -0.21450310131E+03 -0.10246577726E+04  0.10619862851E+04  0.16500000000E+03 0.  0.
   -5000001    1    1    2    0    0 -0.68225641506E+02  0.21450310131E+03 -0.22212692009E+04  0.22387336111E+04  0.16500000000E+03 0.  0.
<mgrwt>
<rscale>  0 0.59892396E+03</rscale>
<asrwt>0</asrwt>
<pdfrwt beam="1">  1        2 0.46761739E+00 0.59892396E+03</pdfrwt>
<pdfrwt beam="2">  1       -2 0.39137823E-02 0.59892396E+03</pdfrwt>
<totfact> 0.53244202E+02</totfact>
</mgrwt>
</event>
<event>
 4    1  0.5323640E-005  0.5165830E+03  0.7818608E-02  0.1009539E+00
         -2   -1    0    0    0  501 -0.00000000000E+00  0.00000000000E+00  0.63307026733E+02  0.63307026784E+02  0.25500000000E-02 0. -1.
          2   -1    0    0  501    0  0.00000000000E+00 -0.00000000000E+00 -0.10538244130E+04  0.10538244130E+04  0.25500000000E-02 0.  1.
    5000001    1    1    2    0    0  0.13572072879E+03 -0.14462785570E+03 -0.46858330161E+03  0.53491367847E+03  0.16500000000E+03 0.  0.
   -5000001    1    1    2    0    0 -0.13572072879E+03  0.14462785570E+03 -0.52193408467E+03  0.58221776133E+03  0.16500000000E+03 0.  0.
<mgrwt>
<rscale>  0 0.51658297E+03</rscale>
<asrwt>0</asrwt>
<pdfrwt beam="1">  1        2 0.15054633E+00 0.51658297E+03</pdfrwt>
<pdfrwt beam="2">  1       -2 0.90438616E-02 0.51658297E+03</pdfrwt>
<totfact> 0.21111718E+03</totfact>
</mgrwt>
</event>
<event>
 4    1  0.5323640E-005  0.4441872E+03  0.7818608E-02  0.1029470E+00
         -2   -1    0    0    0  501 -0.00000000000E+00  0.00000000000E+00  0.63136712910E+02  0.63136712961E+02  0.25500000000E-02 0. -1.
          2   -1    0    0  501    0  0.00000000000E+00 -0.00000000000E+00 -0.78125008943E+03  0.78125008944E+03  0.25500000000E-02 0.  1.
    5000001    1    1    2    0    0 -0.51150536827E+02  0.13021145660E+03 -0.26345540483E+03  0.34088876658E+03  0.16500000000E+03 0.  0.
   -5000001    1    1    2    0    0  0.51150536827E+02 -0.13021145660E+03 -0.45465797169E+03  0.50349803582E+03  0.16500000000E+03 0.  0.
<mgrwt>
<rscale>  0 0.44418718E+03</rscale>
<asrwt>0</asrwt>
<pdfrwt beam="1">  1        2 0.11160715E+00 0.44418718E+03</pdfrwt>
<pdfrwt beam="2">  1       -2 0.90195309E-02 0.44418718E+03</pdfrwt>
<totfact> 0.31601928E+03</totfact>
</mgrwt>
</event>
<event>
 4    1  0.5323640E-005  0.5341388E+03  0.7818608E-02  0.1005233E+00
          2   -1    0    0  501    0  0.00000000000E+00  0.00000000000E+00  0.14358887801E+03  0.14358887803E+03  0.25500000000E-02 0.  1.
         -2   -1    0    0    0  501 -0.00000000000E+00 -0.00000000000E+00 -0.49673817870E+03  0.49673817870E+03  0.25500000000E-02 0. -1.
    5000001    1    1    2    0    0  0.12568270086E+03 -0.15160532809E+03 -0.89129735348E+02  0.27193643839E+03  0.16500000000E+03 0.  0.
   -5000001    1    1    2    0    0 -0.12568270086E+03  0.15160532809E+03 -0.26401956534E+03  0.36839061834E+03  0.16500000000E+03 0.  0.
<mgrwt>
<rscale>  0 0.53413885E+03</rscale>
<asrwt>0</asrwt>
<pdfrwt beam="1">  1        2 0.20512697E-01 0.53413885E+03</pdfrwt>
<pdfrwt beam="2">  1       -2 0.70962596E-01 0.53413885E+03</pdfrwt>
<totfact> 0.50186502E+02</totfact>
</mgrwt>
</event>
<event>
 4    1  0.5323640E-005  0.1369257E+04  0.7818608E-02  0.8976377E-01
          2   -1    0    0  501    0  0.00000000000E+00  0.00000000000E+00  0.36642396410E+04  0.36642396410E+04  0.25500000000E-02 0.  1.
         -2   -1    0    0    0  501 -0.00000000000E+00 -0.00000000000E+00 -0.12791638516E+03  0.12791638519E+03  0.25500000000E-02 0. -1.
    5000001    1    1    2    0    0 -0.14021376949E+03 -0.23615838478E+03  0.34437898854E+04  0.34586622354E+04  0.16500000000E+03 0.  0.
   -5000001    1    1    2    0    0  0.14021376949E+03  0.23615838478E+03  0.92533370456E+02  0.33349379080E+03  0.16500000000E+03 0.  0.
<mgrwt>
<rscale>  0 0.13692572E+04</rscale>
<asrwt>0</asrwt>
<pdfrwt beam="1">  1        2 0.52346277E+00 0.13692572E+04</pdfrwt>
<pdfrwt beam="2">  1       -2 0.18273770E-01 0.13692572E+04</pdfrwt>
<totfact> 0.23598913E+01</totfact>
</mgrwt>
</event>
<event>
 4    1  0.5323640E-005  0.1104809E+04  0.7818608E-02  0.9200517E-01
         -2   -1    0    0    0  501 -0.00000000000E+00  0.00000000000E+00  0.69365291799E+03  0.69365291799E+03  0.25500000000E-02 0. -1.
          2   -1    0    0  501    0  0.00000000000E+00 -0.00000000000E+00 -0.43991856139E+03  0.43991856140E+03  0.25500000000E-02 0.  1.
    5000001    1    1    2    0    0  0.12226488138E+03  0.37360996559E+03 -0.23355073856E+03  0.48611115507E+03  0.16500000000E+03 0.  0.
   -5000001    1    1    2    0    0 -0.12226488138E+03 -0.37360996559E+03  0.48728509515E+03  0.64746032432E+03  0.16500000000E+03 0.  0.
<mgrwt>
<rscale>  0 0.11048091E+04</rscale>
<asrwt>0</asrwt>
<pdfrwt beam="1">  1        2 0.62845509E-01 0.11048091E+04</pdfrwt>
<pdfrwt beam="2">  1       -2 0.99093274E-01 0.11048091E+04</pdfrwt>
<totfact> 0.65149267E+01</totfact>
</mgrwt>
</event>
<event>
 4    1  0.5323640E-005  0.3721785E+03  0.7818608E-02  0.1053863E+00
         -2   -1    0    0    0  501 -0.00000000000E+00  0.00000000000E+00  0.21723016955E+02  0.21723017105E+02  0.25500000000E-02 0. -1.
          2   -1    0    0  501    0  0.00000000000E+00 -0.00000000000E+00 -0.15941251586E+04  0.15941251586E+04  0.25500000000E-02 0.  1.
    5000001    1    1    2    0    0 -0.73892389411E+02 -0.38609575090E+02 -0.87864987024E+03  0.89788717497E+03  0.16500000000E+03 0.  0.
   -5000001    1    1    2    0    0  0.73892389411E+02  0.38609575090E+02 -0.69375227142E+03  0.71796100075E+03  0.16500000000E+03 0.  0.
<mgrwt>
<rscale>  0 0.37217849E+03</rscale>
<asrwt>0</asrwt>
<pdfrwt beam="1">  1        2 0.22773209E+00 0.37217849E+03</pdfrwt>
<pdfrwt beam="2">  1       -2 0.31032892E-02 0.37217849E+03</pdfrwt>
<totfact> 0.56505079E+03</totfact>
</mgrwt>
</event>
<event>
 4    1  0.5323640E-005  0.8285925E+03  0.7818608E-02  0.9519528E-01
         -2   -1    0    0    0  501 -0.00000000000E+00  0.00000000000E+00  0.16681046970E+03  0.16681046972E+03  0.25500000000E-02 0. -1.
          2   -1    0    0  501    0  0.00000000000E+00 -0.00000000000E+00 -0.10289605921E+04  0.10289605921E+04  0.25500000000E-02 0.  1.
    5000001    1    1    2    0    0  0.12888669985E+03 -0.20721414517E+03 -0.10661970172E+02  0.29476797819E+03  0.16500000000E+03 0.  0.
   -5000001    1    1    2    0    0 -0.12888669985E+03  0.20721414517E+03 -0.85148815227E+03  0.90100308368E+03  0.16500000000E+03 0.  0.
<mgrwt>
<rscale>  0 0.82859254E+03</rscale>
<asrwt>0</asrwt>
<pdfrwt beam="1">  1        2 0.14699437E+00 0.82859254E+03</pdfrwt>
<pdfrwt beam="2">  1       -2 0.23830068E-01 0.82859254E+03</pdfrwt>
<totfact> 0.42210118E+02</totfact>
</mgrwt>
</event>
<event>
 4    1  0.5323640E-005  0.5492827E+03  0.7818608E-02  0.1001660E+00
          2   -1    0    0  501    0  0.00000000000E+00  0.00000000000E+00  0.53792830447E+03  0.53792830447E+03  0.25500000000E-02 0.  1.
         -2   -1    0    0    0  501 -0.00000000000E+00 -0.00000000000E+00 -0.14021919214E+03  0.14021919217E+03  0.25500000000E-02 0. -1.
    5000001    1    1    2    0    0  0.21325646903E+03  0.12970941372E+02  0.13643299781E+03  0.30246574979E+03  0.16500000000E+03 0.  0.
   -5000001    1    1    2    0    0 -0.21325646903E+03 -0.12970941372E+02  0.26127611452E+03  0.37568174685E+03  0.16500000000E+03 0.  0.
<mgrwt>
<rscale>  0 0.54928270E+03</rscale>
<asrwt>0</asrwt>
<pdfrwt beam="1">  1        2 0.76846901E-01 0.54928270E+03</pdfrwt>
<pdfrwt beam="2">  1       -2 0.20031313E-01 0.54928270E+03</pdfrwt>
<totfact> 0.13125076E+03</totfact>
</mgrwt>
</event>
<event>
 4    1  0.5323640E-005  0.6222601E+03  0.7818608E-02  0.9860270E-01
          2   -1    0    0  501    0  0.00000000000E+00  0.00000000000E+00  0.98557459689E+03  0.98557459690E+03  0.25500000000E-02 0.  1.
         -2   -1    0    0    0  501 -0.00000000000E+00 -0.00000000000E+00 -0.98218757948E+02  0.98218757981E+02  0.25500000000E-02 0. -1.
    5000001    1    1    2    0    0  0.16392227933E+03  0.16658929318E+03  0.65666786868E+03  0.71628220418E+03  0.16500000000E+03 0.  0.
   -5000001    1    1    2    0    0 -0.16392227933E+03 -0.16658929318E+03  0.23068797026E+03  0.36751115070E+03  0.16500000000E+03 0.  0.
<mgrwt>
<rscale>  0 0.62226012E+03</rscale>
<asrwt>0</asrwt>
<pdfrwt beam="1">  1        2 0.14079637E+00 0.62226012E+03</pdfrwt>
<pdfrwt beam="2">  1       -2 0.14031251E-01 0.62226012E+03</pdfrwt>
<totfact> 0.11293604E+03</totfact>
</mgrwt>
</event>
<event>
 4    1  0.5323640E-005  0.4837593E+03  0.7818608E-02  0.1018107E+00
          2   -1    0    0  501    0  0.00000000000E+00  0.00000000000E+00  0.17163011883E+04  0.17163011883E+04  0.25500000000E-02 0.  1.
         -2   -1    0    0    0  501 -0.00000000000E+00 -0.00000000000E+00 -0.34088279498E+02  0.34088279593E+02  0.25500000000E-02 0. -1.
    5000001    1    1    2    0    0 -0.48934446760E+02  0.14636941975E+03  0.11536696956E+04  0.11755838353E+04  0.16500000000E+03 0.  0.
   -5000001    1    1    2    0    0  0.48934446760E+02 -0.14636941975E+03  0.52854321319E+03  0.57480563265E+03  0.16500000000E+03 0.  0.
<mgrwt>
<rscale>  0 0.48375926E+03</rscale>
<asrwt>0</asrwt>
<pdfrwt beam="1">  1        2 0.24518590E+00 0.48375926E+03</pdfrwt>
<pdfrwt beam="2">  1       -2 0.48697539E-02 0.48375926E+03</pdfrwt>
<totfact> 0.24680638E+03</totfact>
</mgrwt>
</event>
<event>
 4    1  0.5323640E-005  0.6381509E+03  0.7818608E-02  0.9829271E-01
          2   -1    0    0  501    0  0.00000000000E+00  0.00000000000E+00  0.90986468795E+03  0.90986468795E+03  0.25500000000E-02 0.  1.
         -2   -1    0    0    0  501 -0.00000000000E+00 -0.00000000000E+00 -0.11189482555E+03  0.11189482558E+03  0.25500000000E-02 0. -1.
    5000001    1    1    2    0    0  0.15799938912E+02 -0.14912602690E+03  0.33535551363E+02  0.22547248873E+03  0.16500000000E+03 0.  0.
   -5000001    1    1    2    0    0 -0.15799938912E+02  0.14912602690E+03  0.76443431104E+03  0.79628702480E+03  0.16500000000E+03 0.  0.
<mgrwt>
<rscale>  0 0.63815092E+03</rscale>
<asrwt>0</asrwt>
<pdfrwt beam="1">  1        2 0.12998067E+00 0.63815092E+03</pdfrwt>
<pdfrwt beam="2">  1       -2 0.15984975E-01 0.63815092E+03</pdfrwt>
<totfact> 0.10112290E+03</totfact>
</mgrwt>
</event>
<event>
 4    1  0.5323640E-005  0.5792461E+03  0.7818608E-02  0.9949425E-01
          2   -1    0    0  501    0  0.00000000000E+00  0.00000000000E+00  0.41934202469E+04  0.41934202469E+04  0.25500000000E-02 0.  1.
         -2   -1    0    0    0  501 -0.00000000000E+00 -0.00000000000E+00 -0.20003123372E+02  0.20003123535E+02  0.25500000000E-02 0. -1.
    5000001    1    1    2    0    0  0.60842558724E+02 -0.69912805904E+02  0.36814673133E+04  0.36863282812E+04  0.16500000000E+03 0.  0.
   -5000001    1    1    2    0    0 -0.60842558724E+02  0.69912805904E+02  0.49194981020E+03  0.52709508927E+03  0.16500000000E+03 0.  0.
<mgrwt>
<rscale>  0 0.57924607E+03</rscale>
<asrwt>0</asrwt>
<pdfrwt beam="1">  1        2 0.59906052E+00 0.57924607E+03</pdfrwt>
<pdfrwt beam="2">  1       -2 0.28575867E-02 0.57924607E+03</pdfrwt>
<totfact> 0.22798090E+02</totfact>
</mgrwt>
</event>
<event>
 4    1  0.5323640E-005  0.4397935E+03  0.7818608E-02  0.1030810E+00
         -2   -1    0    0    0  501 -0.00000000000E+00  0.00000000000E+00  0.74332316998E+03  0.74332316999E+03  0.25500000000E-02 0. -1.
          2   -1    0    0  501    0  0.00000000000E+00 -0.00000000000E+00 -0.65051908617E+02  0.65051908667E+02  0.25500000000E-02 0.  1.
    5000001    1    1    2    0    0 -0.38003782255E+02 -0.10844038210E+03  0.17549515175E+03  0.26688415506E+03  0.16500000000E+03 0.  0.
   -5000001    1    1    2    0    0  0.38003782255E+02  0.10844038210E+03  0.50277610961E+03  0.54149092359E+03  0.16500000000E+03 0.  0.
<mgrwt>
<rscale>  0 0.43979355E+03</rscale>
<asrwt>0</asrwt>
<pdfrwt beam="1">  1        2 0.92931294E-02 0.43979355E+03</pdfrwt>
<pdfrwt beam="2">  1       -2 0.10618903E+00 0.43979355E+03</pdfrwt>
<totfact> 0.52656251E+02</totfact>
</mgrwt>
</event>
<event>
 4    1  0.5323640E-005  0.1525399E+04  0.7818608E-02  0.8867737E-01
          2   -1    0    0  501    0  0.00000000000E+00  0.00000000000E+00  0.90129837632E+03  0.90129837633E+03  0.25500000000E-02 0.  1.
         -2   -1    0    0    0  501 -0.00000000000E+00 -0.00000000000E+00 -0.64541371397E+03  0.64541371398E+03  0.25500000000E-02 0. -1.
    5000001    1    1    2    0    0  0.53994234076E+03  0.28736363712E+03  0.55857595528E+03  0.84459912923E+03  0.16500000000E+03 0.  0.
   -5000001    1    1    2    0    0 -0.53994234076E+03 -0.28736363712E+03 -0.30269129293E+03  0.70211296107E+03  0.16500000000E+03 0.  0.
<mgrwt>
<rscale>  0 0.15253987E+04</rscale>
<asrwt>0</asrwt>
<pdfrwt beam="1">  1        2 0.12875691E+00 0.15253987E+04</pdfrwt>
<pdfrwt beam="2">  1       -2 0.92201959E-01 0.15253987E+04</pdfrwt>
<totfact> 0.31345848E+01</totfact>
</mgrwt>
</event>
<event>
 4    1  0.5323640E-005  0.6394781E+03  0.7818608E-02  0.9826726E-01
         -2   -1    0    0    0  501 -0.00000000000E+00  0.00000000000E+00  0.68351259130E+02  0.68351259177E+02  0.25500000000E-02 0. -1.
          2   -1    0    0  501    0  0.00000000000E+00 -0.00000000000E+00 -0.14957011065E+04  0.14957011065E+04  0.25500000000E-02 0.  1.
    5000001    1    1    2    0    0  0.19987512751E+03  0.16682944092E+03 -0.92158347452E+03  0.97176294922E+03  0.16500000000E+03 0.  0.
   -5000001    1    1    2    0    0 -0.19987512751E+03 -0.16682944092E+03 -0.50576637287E+03  0.59228941648E+03  0.16500000000E+03 0.  0.
<mgrwt>
<rscale>  0 0.63947808E+03</rscale>
<asrwt>0</asrwt>
<pdfrwt beam="1">  1        2 0.21367157E+00 0.63947808E+03</pdfrwt>
<pdfrwt beam="2">  1       -2 0.97644665E-02 0.63947808E+03</pdfrwt>
<totfact> 0.10627929E+03</totfact>
</mgrwt>
</event>
<event>
 4    1  0.5323640E-005  0.8813922E+03  0.7818608E-02  0.9449146E-01
          2   -1    0    0  501    0  0.00000000000E+00  0.00000000000E+00  0.93800894276E+03  0.93800894277E+03  0.25500000000E-02 0.  1.
         -2   -1    0    0    0  501 -0.00000000000E+00 -0.00000000000E+00 -0.20704820290E+03  0.20704820291E+03  0.25500000000E-02 0. -1.
    5000001    1    1    2    0    0 -0.69246092425E+02  0.39581535146E+03  0.26892968067E+03  0.51089430111E+03  0.16500000000E+03 0.  0.
   -5000001    1    1    2    0    0  0.69246092425E+02 -0.39581535146E+03  0.46203105920E+03  0.63416284457E+03  0.16500000000E+03 0.  0.
<mgrwt>
<rscale>  0 0.88139223E+03</rscale>
<asrwt>0</asrwt>
<pdfrwt beam="1">  1        2 0.13400128E+00 0.88139223E+03</pdfrwt>
<pdfrwt beam="2">  1       -2 0.29578315E-01 0.88139223E+03</pdfrwt>
<totfact> 0.32354368E+02</totfact>
</mgrwt>
</event>
<event>
 4    1  0.5323640E-005  0.7022204E+03  0.7818608E-02  0.9713443E-01
          2   -1    0    0  501    0  0.00000000000E+00  0.00000000000E+00  0.83470666323E+03  0.83470666323E+03  0.25500000000E-02 0.  1.
         -2   -1    0    0    0  501 -0.00000000000E+00 -0.00000000000E+00 -0.14769063902E+03  0.14769063904E+03  0.25500000000E-02 0. -1.
    5000001    1    1    2    0    0 -0.24115618529E+03  0.18446160834E+03  0.43054896454E+03  0.55206865653E+03  0.16500000000E+03 0.  0.
   -5000001    1    1    2    0    0  0.24115618529E+03 -0.18446160834E+03  0.25646705967E+03  0.43032864575E+03  0.16500000000E+03 0.  0.
<mgrwt>
<rscale>  0 0.70222037E+03</rscale>
<asrwt>0</asrwt>
<pdfrwt beam="1">  1        2 0.11924381E+00 0.70222037E+03</pdfrwt>
<pdfrwt beam="2">  1       -2 0.21098663E-01 0.70222037E+03</pdfrwt>
<totfact> 0.70075426E+02</totfact>
</mgrwt>
</event>
<event>
 4    1  0.5323640E-005  0.6228614E+03  0.7818608E-02  0.9859079E-01
          2   -1    0    0  501    0  0.00000000000E+00  0.00000000000E+00  0.14465847757E+03  0.14465847759E+03  0.25500000000E-02 0.  1.
         -2   -1    0    0    0  501 -0.00000000000E+00 -0.00000000000E+00 -0.67046929198E+03  0.67046929198E+03  0.25500000000E-02 0. -1.
    5000001    1    1    2    0    0  0.18277287532E+03  0.81605369057E+02 -0.37376055284E+02  0.26208267726E+03  0.16500000000E+03 0.  0.
   -5000001    1    1    2    0    0 -0.18277287532E+03 -0.81605369057E+02 -0.48843475912E+03  0.55304509231E+03  0.16500000000E+03 0.  0.
<mgrwt>
<rscale>  0 0.62286136E+03</rscale>
<asrwt>0</asrwt>
<pdfrwt beam="1">  1        2 0.20665497E-01 0.62286136E+03</pdfrwt>
<pdfrwt beam="2">  1       -2 0.95781326E-01 0.62286136E+03</pdfrwt>
<totfact> 0.25278223E+02</totfact>
</mgrwt>
</event>
<event>
 4    1  0.5323640E-005  0.4322726E+03  0.7818608E-02  0.1033144E+00
         -2   -1    0    0    0  501 -0.00000000000E+00  0.00000000000E+00  0.64151823052E+02  0.64151823103E+02  0.25500000000E-02 0. -1.
          2   -1    0    0  501    0  0.00000000000E+00 -0.00000000000E+00 -0.72819285982E+03  0.72819285983E+03  0.25500000000E-02 0.  1.
    5000001    1    1    2    0    0  0.23762300486E+02 -0.65111004248E+02 -0.55414958470E+03  0.58233225226E+03  0.16500000000E+03 0.  0.
   -5000001    1    1    2    0    0 -0.23762300486E+02  0.65111004248E+02 -0.10989145207E+03  0.21001243067E+03  0.16500000000E+03 0.  0.
<mgrwt>
<rscale>  0 0.43227260E+03</rscale>
<asrwt>0</asrwt>
<pdfrwt beam="1">  1        2 0.10402755E+00 0.43227260E+03</pdfrwt>
<pdfrwt beam="2">  1       -2 0.91645466E-02 0.43227260E+03</pdfrwt>
<totfact> 0.33599848E+03</totfact>
</mgrwt>
</event>
<event>
 4    1  0.5323640E-005  0.4594628E+03  0.7818608E-02  0.1024937E+00
          2   -1    0    0  501    0  0.00000000000E+00  0.00000000000E+00  0.35580752897E+03  0.35580752898E+03  0.25500000000E-02 0.  1.
         -2   -1    0    0    0  501 -0.00000000000E+00 -0.00000000000E+00 -0.14832881500E+03  0.14832881502E+03  0.25500000000E-02 0. -1.
    5000001    1    1    2    0    0 -0.10322734686E+03  0.11052608847E+03  0.16053739004E+03  0.27544356041E+03  0.16500000000E+03 0.  0.
   -5000001    1    1    2    0    0  0.10322734686E+03 -0.11052608847E+03  0.46941323942E+02  0.22869278359E+03  0.16500000000E+03 0.  0.
<mgrwt>
<rscale>  0 0.45946277E+03</rscale>
<asrwt>0</asrwt>
<pdfrwt beam="1">  1        2 0.50829647E-01 0.45946277E+03</pdfrwt>
<pdfrwt beam="2">  1       -2 0.21189831E-01 0.45946277E+03</pdfrwt>
<totfact> 0.18867455E+03</totfact>
</mgrwt>
</event>
<event>
 4    1  0.5323640E-005  0.3989596E+03  0.7818608E-02  0.1044141E+00
          2   -1    0    0  501    0  0.00000000000E+00  0.00000000000E+00  0.72833313703E+03  0.72833313703E+03  0.25500000000E-02 0.  1.
         -2   -1    0    0    0  501 -0.00000000000E+00 -0.00000000000E+00 -0.54634588906E+02  0.54634588966E+02  0.25500000000E-02 0. -1.
    5000001    1    1    2    0    0  0.11041095363E+03 -0.55641464158E+00  0.37491886571E+03  0.42424054986E+03  0.16500000000E+03 0.  0.
   -5000001    1    1    2    0    0 -0.11041095363E+03  0.55641464158E+00  0.29877968241E+03  0.35872717614E+03  0.16500000000E+03 0.  0.
<mgrwt>
<rscale>  0 0.39895955E+03</rscale>
<asrwt>0</asrwt>
<pdfrwt beam="1">  1        2 0.10404758E+00 0.39895955E+03</pdfrwt>
<pdfrwt beam="2">  1       -2 0.78049419E-02 0.39895955E+03</pdfrwt>
<totfact> 0.43287562E+03</totfact>
</mgrwt>
</event>
<event>
 4    1  0.5323640E-005  0.4223829E+03  0.7818608E-02  0.1036294E+00
         -2   -1    0    0    0  501 -0.00000000000E+00  0.00000000000E+00  0.27696999248E+02  0.27696999365E+02  0.25500000000E-02 0. -1.
          2   -1    0    0  501    0  0.00000000000E+00 -0.00000000000E+00 -0.16103485066E+04  0.16103485066E+04  0.25500000000E-02 0.  1.
    5000001    1    1    2    0    0  0.99363581656E+02  0.85932737920E+02 -0.83367791421E+03  0.85994268498E+03  0.16500000000E+03 0.  0.
   -5000001    1    1    2    0    0 -0.99363581656E+02 -0.85932737920E+02 -0.74897359312E+03  0.77810282097E+03  0.16500000000E+03 0.  0.
<mgrwt>
<rscale>  0 0.42238287E+03</rscale>
<asrwt>0</asrwt>
<pdfrwt beam="1">  1        2 0.23004973E+00 0.42238287E+03</pdfrwt>
<pdfrwt beam="2">  1       -2 0.39567152E-02 0.42238287E+03</pdfrwt>
<totfact> 0.38407457E+03</totfact>
</mgrwt>
</event>
<event>
 4    1  0.5323640E-005  0.5232314E+03  0.7818608E-02  0.1007887E+00
         -2   -1    0    0    0  501 -0.00000000000E+00  0.00000000000E+00  0.55212594175E+02  0.55212594233E+02  0.25500000000E-02 0. -1.
          2   -1    0    0  501    0  0.00000000000E+00 -0.00000000000E+00 -0.12396227339E+04  0.12396227339E+04  0.25500000000E-02 0.  1.
    5000001    1    1    2    0    0  0.70363543377E+02 -0.18481668879E+03 -0.47854297852E+03  0.54344881910E+03  0.16500000000E+03 0.  0.
   -5000001    1    1    2    0    0 -0.70363543377E+02  0.18481668879E+03 -0.70586716120E+03  0.75138650903E+03  0.16500000000E+03 0.  0.
<mgrwt>
<rscale>  0 0.52323145E+03</rscale>
<asrwt>0</asrwt>
<pdfrwt beam="1">  1        2 0.17708895E+00 0.52323145E+03</pdfrwt>
<pdfrwt beam="2">  1       -2 0.78875142E-02 0.52323145E+03</pdfrwt>
<totfact> 0.20585044E+03</totfact>
</mgrwt>
</event>
<event>
 4    1  0.5323640E-005  0.4945236E+03  0.7818608E-02  0.1015218E+00
          2   -1    0    0  501    0  0.00000000000E+00  0.00000000000E+00  0.64785970799E+02  0.64785970850E+02  0.25500000000E-02 0.  1.
         -2   -1    0    0    0  501 -0.00000000000E+00 -0.00000000000E+00 -0.94369792414E+03  0.94369792414E+03  0.25500000000E-02 0. -1.
    5000001    1    1    2    0    0  0.18058396835E+03  0.33805707390E+02 -0.46525061047E+03  0.52672243736E+03  0.16500000000E+03 0.  0.
   -5000001    1    1    2    0    0 -0.18058396835E+03 -0.33805707390E+02 -0.41366134287E+03  0.48176145763E+03  0.16500000000E+03 0.  0.
<mgrwt>
<rscale>  0 0.49452355E+03</rscale>
<asrwt>0</asrwt>
<pdfrwt beam="1">  1        2 0.92551392E-02 0.49452355E+03</pdfrwt>
<pdfrwt beam="2">  1       -2 0.13481398E+00 0.49452355E+03</pdfrwt>
<totfact> 0.29469553E+02</totfact>
</mgrwt>
</event>
<event>
 4    1  0.5323640E-005  0.7380247E+03  0.7818608E-02  0.9654327E-01
          2   -1    0    0  501    0  0.00000000000E+00  0.00000000000E+00  0.25763027923E+04  0.25763027923E+04  0.25500000000E-02 0.  1.
         -2   -1    0    0    0  501 -0.00000000000E+00 -0.00000000000E+00 -0.52854855402E+02  0.52854855464E+02  0.25500000000E-02 0. -1.
    5000001    1    1    2    0    0  0.35771608774E+02  0.30356234826E+03  0.17054626460E+04  0.17404762406E+04  0.16500000000E+03 0.  0.
   -5000001    1    1    2    0    0 -0.35771608774E+02 -0.30356234826E+03  0.81798529092E+03  0.88868140716E+03  0.16500000000E+03 0.  0.
<mgrwt>
<rscale>  0 0.73802469E+03</rscale>
<asrwt>0</asrwt>
<pdfrwt beam="1">  1        2 0.36804336E+00 0.73802469E+03</pdfrwt>
<pdfrwt beam="2">  1       -2 0.75506915E-02 0.73802469E+03</pdfrwt>
<totfact> 0.44887262E+02</totfact>
</mgrwt>
</event>
<event>
 4    1  0.5323640E-005  0.6479741E+03  0.7818608E-02  0.9810588E-01
          2   -1    0    0  501    0  0.00000000000E+00  0.00000000000E+00  0.45548146216E+03  0.45548146217E+03  0.25500000000E-02 0.  1.
         -2   -1    0    0    0  501 -0.00000000000E+00 -0.00000000000E+00 -0.23045415730E+03  0.23045415731E+03  0.25500000000E-02 0. -1.
    5000001    1    1    2    0    0  0.82055999108E+02 -0.26614170970E+03  0.98390371013E+02  0.33833454116E+03  0.16500000000E+03 0.  0.
   -5000001    1    1    2    0    0 -0.82055999108E+02  0.26614170970E+03  0.12663693386E+03  0.34760107832E+03  0.16500000000E+03 0.  0.
<mgrwt>
<rscale>  0 0.64797406E+03</rscale>
<asrwt>0</asrwt>
<pdfrwt beam="1">  1        2 0.65068780E-01 0.64797406E+03</pdfrwt>
<pdfrwt beam="2">  1       -2 0.32922023E-01 0.64797406E+03</pdfrwt>
<totfact> 0.64612278E+02</totfact>
</mgrwt>
</event>
<event>
 4    1  0.5323640E-005  0.7644638E+03  0.7818608E-02  0.9612928E-01
         -2   -1    0    0    0  501 -0.00000000000E+00  0.00000000000E+00  0.39267518767E+03  0.39267518768E+03  0.25500000000E-02 0. -1.
          2   -1    0    0  501    0  0.00000000000E+00 -0.00000000000E+00 -0.37206633978E+03  0.37206633979E+03  0.25500000000E-02 0.  1.
    5000001    1    1    2    0    0  0.18915953538E+03  0.28632481724E+03 -0.23069186864E+02  0.38147138578E+03  0.16500000000E+03 0.  0.
   -5000001    1    1    2    0    0 -0.18915953538E+03 -0.28632481724E+03  0.43678034758E+02  0.38327014169E+03  0.16500000000E+03 0.  0.
<mgrwt>
<rscale>  0 0.76446379E+03</rscale>
<asrwt>0</asrwt>
<pdfrwt beam="1">  1        2 0.53152334E-01 0.76446379E+03</pdfrwt>
<pdfrwt beam="2">  1       -2 0.56096455E-01 0.76446379E+03</pdfrwt>
<totfact> 0.28198289E+02</totfact>
</mgrwt>
</event>
<event>
 4    1  0.5323640E-005  0.4785861E+03  0.7818608E-02  0.1019524E+00
          2   -1    0    0  501    0  0.00000000000E+00  0.00000000000E+00  0.46817998594E+03  0.46817998594E+03  0.25500000000E-02 0. -1.
         -2   -1    0    0    0  501 -0.00000000000E+00 -0.00000000000E+00 -0.12230589983E+03  0.12230589985E+03  0.25500000000E-02 0.  1.
    5000001    1    1    2    0    0 -0.12372130740E+03  0.11481597570E+03  0.12441657692E+03  0.26682232813E+03  0.16500000000E+03 0.  0.
   -5000001    1    1    2    0    0  0.12372130740E+03 -0.11481597570E+03  0.22145750919E+03  0.32366355766E+03  0.16500000000E+03 0.  0.
<mgrwt>
<rscale>  0 0.47858614E+03</rscale>
<asrwt>0</asrwt>
<pdfrwt beam="1">  1        2 0.66882855E-01 0.47858614E+03</pdfrwt>
<pdfrwt beam="2">  1       -2 0.17472271E-01 0.47858614E+03</pdfrwt>
<totfact> 0.19430031E+03</totfact>
</mgrwt>
</event>
<event>
 4    1  0.5323640E-005  0.3604436E+03  0.7818608E-02  0.1058408E+00
          2   -1    0    0  501    0  0.00000000000E+00  0.00000000000E+00  0.13426845015E+03  0.13426845017E+03  0.25500000000E-02 0.  1.
         -2   -1    0    0    0  501 -0.00000000000E+00 -0.00000000000E+00 -0.24190270331E+03  0.24190270332E+03  0.25500000000E-02 0. -1.
    5000001    1    1    2    0    0  0.51234915710E+02  0.49561186188E+02 -0.67566712138E+02  0.19201976032E+03  0.16500000000E+03 0.  0.
   -5000001    1    1    2    0    0 -0.51234915710E+02 -0.49561186188E+02 -0.40067541026E+02  0.18415139317E+03  0.16500000000E+03 0.  0.
<mgrwt>
<rscale>  0 0.36044362E+03</rscale>
<asrwt>0</asrwt>
<pdfrwt beam="1">  1        2 0.19181207E-01 0.36044362E+03</pdfrwt>
<pdfrwt beam="2">  1       -2 0.34557529E-01 0.36044362E+03</pdfrwt>
<totfact> 0.23063093E+03</totfact>
</mgrwt>
</event>
<event>
 4    1  0.5323640E-005  0.7085176E+03  0.7818608E-02  0.9702776E-01
         -2   -1    0    0    0  501 -0.00000000000E+00  0.00000000000E+00  0.41832495447E+02  0.41832495524E+02  0.25500000000E-02 0. -1.
          2   -1    0    0  501    0  0.00000000000E+00 -0.00000000000E+00 -0.30000435071E+04  0.30000435071E+04  0.25500000000E-02 0.  1.
    5000001    1    1    2    0    0 -0.92097926932E+02 -0.28064495303E+03 -0.19300178884E+04  0.19594483069E+04  0.16500000000E+03 0.  0.
   -5000001    1    1    2    0    0  0.92097926932E+02  0.28064495303E+03 -0.10281931233E+04  0.10824276958E+04  0.16500000000E+03 0.  0.
<mgrwt>
<rscale>  0 0.70851763E+03</rscale>
<asrwt>0</asrwt>
<pdfrwt beam="1">  1        2 0.42857751E+00 0.70851763E+03</pdfrwt>
<pdfrwt beam="2">  1       -2 0.59760727E-02 0.70851763E+03</pdfrwt>
<totfact> 0.38764512E+02</totfact>
</mgrwt>
</event>
<event>
 4    1  0.5323640E-005  0.6300027E+03  0.7818608E-02  0.9845044E-01
         -2   -1    0    0    0  501 -0.00000000000E+00  0.00000000000E+00  0.48303839749E+03  0.48303839749E+03  0.25500000000E-02 0. -1.
          2   -1    0    0  501    0  0.00000000000E+00 -0.00000000000E+00 -0.20542021228E+03  0.20542021229E+03  0.25500000000E-02 0.  1.
    5000001    1    1    2    0    0 -0.11982828314E+03  0.20083556883E+03  0.28257227074E+03  0.40220123240E+03  0.16500000000E+03 0.  0.
   -5000001    1    1    2    0    0  0.11982828314E+03 -0.20083556883E+03 -0.49540855338E+01  0.28625737739E+03  0.16500000000E+03 0.  0.
<mgrwt>
<rscale>  0 0.63000270E+03</rscale>
<asrwt>0</asrwt>
<pdfrwt beam="1">  1        2 0.29345745E-01 0.63000270E+03</pdfrwt>
<pdfrwt beam="2">  1       -2 0.69005485E-01 0.63000270E+03</pdfrwt>
<totfact> 0.35331978E+02</totfact>
</mgrwt>
</event>
<event>
 4    1  0.5323640E-005  0.4867502E+03  0.7818608E-02  0.1017296E+00
         -2   -1    0    0    0  501 -0.00000000000E+00  0.00000000000E+00  0.77823574881E+02  0.77823574923E+02  0.25500000000E-02 0. -1.
          2   -1    0    0  501    0  0.00000000000E+00 -0.00000000000E+00 -0.76109883856E+03  0.76109883857E+03  0.25500000000E-02 0.  1.
    5000001    1    1    2    0    0  0.12020821547E+03 -0.12124332147E+03 -0.43375273706E+03  0.49448599067E+03  0.16500000000E+03 0.  0.
   -5000001    1    1    2    0    0 -0.12020821547E+03  0.12124332147E+03 -0.24952252663E+03  0.34443642282E+03  0.16500000000E+03 0.  0.
<mgrwt>
<rscale>  0 0.48675017E+03</rscale>
<asrwt>0</asrwt>
<pdfrwt beam="1">  1        2 0.10872840E+00 0.48675017E+03</pdfrwt>
<pdfrwt beam="2">  1       -2 0.11117654E-01 0.48675017E+03</pdfrwt>
<totfact> 0.23323029E+03</totfact>
</mgrwt>
</event>
<event>
 4    1  0.5323640E-005  0.7851132E+03  0.7818608E-02  0.9581819E-01
          2   -1    0    0  501    0  0.00000000000E+00  0.00000000000E+00  0.10359445250E+04  0.10359445250E+04  0.25500000000E-02 0.  1.
         -2   -1    0    0    0  501 -0.00000000000E+00 -0.00000000000E+00 -0.14875378330E+03  0.14875378332E+03  0.25500000000E-02 0. -1.
    5000001    1    1    2    0    0 -0.27344544790E+03  0.18089636997E+03  0.23353231217E+03  0.43503821725E+03  0.16500000000E+03 0.  0.
   -5000001    1    1    2    0    0  0.27344544790E+03 -0.18089636997E+03  0.65365842951E+03  0.74966009105E+03  0.16500000000E+03 0.  0.
<mgrwt>
<rscale>  0 0.78511316E+03</rscale>
<asrwt>0</asrwt>
<pdfrwt beam="1">  1        2 0.14799207E+00 0.78511316E+03</pdfrwt>
<pdfrwt beam="2">  1       -2 0.21250541E-01 0.78511316E+03</pdfrwt>
<totfact> 0.51338707E+02</totfact>
</mgrwt>
</event>
<event>
 4    1  0.5323640E-005  0.5091270E+03  0.7818608E-02  0.1011424E+00
         -2   -1    0    0    0  501 -0.00000000000E+00  0.00000000000E+00  0.44240096684E+02  0.44240096757E+02  0.25500000000E-02 0. -1.
          2   -1    0    0  501    0  0.00000000000E+00 -0.00000000000E+00 -0.14647926822E+04  0.14647926822E+04  0.25500000000E-02 0.  1.
    5000001    1    1    2    0    0 -0.49870676677E+01  0.18088995993E+03 -0.50425385524E+03  0.56057381224E+03  0.16500000000E+03 0.  0.
   -5000001    1    1    2    0    0  0.49870676677E+01 -0.18088995993E+03 -0.91629873032E+03  0.94845896676E+03  0.16500000000E+03 0.  0.
<mgrwt>
<rscale>  0 0.50912698E+03</rscale>
<asrwt>0</asrwt>
<pdfrwt beam="1">  1        2 0.20925607E+00 0.50912698E+03</pdfrwt>
<pdfrwt beam="2">  1       -2 0.63200147E-02 0.50912698E+03</pdfrwt>
<totfact> 0.22128503E+03</totfact>
</mgrwt>
</event>
<event>
 4    1  0.5323640E-005  0.5364928E+03  0.7818608E-02  0.1004670E+00
         -2   -1    0    0    0  501 -0.00000000000E+00  0.00000000000E+00  0.26364847106E+02  0.26364847229E+02  0.25500000000E-02 0. -1.
          2   -1    0    0  501    0  0.00000000000E+00 -0.00000000000E+00 -0.27292453708E+04  0.27292453708E+04  0.25500000000E-02 0.  1.
    5000001    1    1    2    0    0  0.23823938199E+02 -0.15284758717E+03 -0.61064571846E+03  0.65118596300E+03  0.16500000000E+03 0.  0.
   -5000001    1    1    2    0    0 -0.23823938199E+02  0.15284758717E+03 -0.20922348053E+04  0.21044242551E+04  0.16500000000E+03 0.  0.
<mgrwt>
<rscale>  0 0.53649282E+03</rscale>
<asrwt>0</asrwt>
<pdfrwt beam="1">  1        2 0.38989202E+00 0.53649282E+03</pdfrwt>
<pdfrwt beam="2">  1       -2 0.37664085E-02 0.53649282E+03</pdfrwt>
<totfact> 0.11231696E+03</totfact>
</mgrwt>
</event>
<event>
 4    1  0.5323640E-005  0.3727718E+03  0.7818608E-02  0.1053638E+00
         -2   -1    0    0    0  501 -0.00000000000E+00  0.00000000000E+00  0.32940912073E+02  0.32940912172E+02  0.25500000000E-02 0. -1.
          2   -1    0    0  501    0  0.00000000000E+00 -0.00000000000E+00 -0.10546067605E+04  0.10546067605E+04  0.25500000000E-02 0.  1.
    5000001    1    1    2    0    0 -0.18154906459E+02  0.84750642214E+02 -0.50627884232E+03  0.53949563313E+03  0.16500000000E+03 0.  0.
   -5000001    1    1    2    0    0  0.18154906459E+02 -0.84750642214E+02 -0.51538700607E+03  0.54805203951E+03  0.16500000000E+03 0.  0.
<mgrwt>
<rscale>  0 0.37277183E+03</rscale>
<asrwt>0</asrwt>
<pdfrwt beam="1">  1        2 0.15065809E+00 0.37277183E+03</pdfrwt>
<pdfrwt beam="2">  1       -2 0.47058453E-02 0.37277183E+03</pdfrwt>
<totfact> 0.58423618E+03</totfact>
</mgrwt>
</event>
<event>
 4    1  0.5323640E-005  0.4917569E+03  0.7818608E-02  0.1015953E+00
          2   -1    0    0  501    0  0.00000000000E+00  0.00000000000E+00  0.34953776234E+03  0.34953776235E+03  0.25500000000E-02 0.  1.
         -2   -1    0    0    0  501 -0.00000000000E+00 -0.00000000000E+00 -0.17296045108E+03  0.17296045110E+03  0.25500000000E-02 0. -1.
    5000001    1    1    2    0    0  0.17223146413E+03 -0.73929699529E+01  0.15126330482E+03  0.28253127371E+03  0.16500000000E+03 0.  0.
   -5000001    1    1    2    0    0 -0.17223146413E+03  0.73929699529E+01  0.25314006446E+02  0.23996693973E+03  0.16500000000E+03 0.  0.
<mgrwt>
<rscale>  0 0.49175689E+03</rscale>
<asrwt>0</asrwt>
<pdfrwt beam="1">  1        2 0.49933965E-01 0.49175689E+03</pdfrwt>
<pdfrwt beam="2">  1       -2 0.24708636E-01 0.49175689E+03</pdfrwt>
<totfact> 0.14677942E+03</totfact>
</mgrwt>
</event>
<event>
 4    1  0.5323640E-005  0.9294970E+03  0.7818608E-02  0.9389442E-01
          2   -1    0    0  501    0  0.00000000000E+00  0.00000000000E+00  0.17687606600E+04  0.17687606600E+04  0.25500000000E-02 0.  1.
         -2   -1    0    0    0  501 -0.00000000000E+00 -0.00000000000E+00 -0.12211442238E+03  0.12211442240E+03  0.25500000000E-02 0. -1.
    5000001    1    1    2    0    0  0.12911074315E+03 -0.35545899068E+03  0.12584230924E+04  0.13243392155E+04  0.16500000000E+03 0.  0.
   -5000001    1    1    2    0    0 -0.12911074315E+03  0.35545899068E+03  0.38822314515E+03  0.56653586690E+03  0.16500000000E+03 0.  0.
<mgrwt>
<rscale>  0 0.92949704E+03</rscale>
<asrwt>0</asrwt>
<pdfrwt beam="1">  1        2 0.25268011E+00 0.92949704E+03</pdfrwt>
<pdfrwt beam="2">  1       -2 0.17444916E-01 0.92949704E+03</pdfrwt>
<totfact> 0.28703141E+02</totfact>
</mgrwt>
</event>
<event>
 4    1  0.5323640E-005  0.4502572E+03  0.7818608E-02  0.1027645E+00
         -2   -1    0    0    0  501 -0.00000000000E+00  0.00000000000E+00  0.65876707211E+02  0.65876707261E+02  0.25500000000E-02 0. -1.
          2   -1    0    0  501    0  0.00000000000E+00 -0.00000000000E+00 -0.76935989116E+03  0.76935989117E+03  0.25500000000E-02 0.  1.
    5000001    1    1    2    0    0  0.13373505620E+03 -0.46420718599E+02 -0.24329109923E+03  0.32627520184E+03  0.16500000000E+03 0.  0.
   -5000001    1    1    2    0    0 -0.13373505620E+03  0.46420718599E+02 -0.46019208473E+03  0.50896139659E+03  0.16500000000E+03 0.  0.
<mgrwt>
<rscale>  0 0.45025724E+03</rscale>
<asrwt>0</asrwt>
<pdfrwt beam="1">  1        2 0.10990855E+00 0.45025724E+03</pdfrwt>
<pdfrwt beam="2">  1       -2 0.94109586E-02 0.45025724E+03</pdfrwt>
<totfact> 0.30101035E+03</totfact>
</mgrwt>
</event>
<event>
 4    1  0.5323640E-005  0.3879856E+03  0.7818608E-02  0.1048021E+00
         -2   -1    0    0    0  501 -0.00000000000E+00  0.00000000000E+00  0.10912346057E+03  0.10912346060E+03  0.25500000000E-02 0. -1.
          2   -1    0    0  501    0  0.00000000000E+00 -0.00000000000E+00 -0.34486810263E+03  0.34486810264E+03  0.25500000000E-02 0.  1.
    5000001    1    1    2    0    0 -0.83702885460E+02  0.11241298604E+01 -0.49635236712E+02  0.19156224426E+03  0.16500000000E+03 0.  0.
   -5000001    1    1    2    0    0  0.83702885460E+02 -0.11241298604E+01 -0.18610940534E+03  0.26242931898E+03  0.16500000000E+03 0.  0.
<mgrwt>
<rscale>  0 0.38798557E+03</rscale>
<asrwt>0</asrwt>
<pdfrwt beam="1">  1        2 0.49266871E-01 0.38798557E+03</pdfrwt>
<pdfrwt beam="2">  1       -2 0.15589066E-01 0.38798557E+03</pdfrwt>
<totfact> 0.32898345E+03</totfact>
</mgrwt>
</event>
<event>
 4    1  0.5323640E-005  0.4268731E+03  0.7818608E-02  0.1034852E+00
         -2   -1    0    0    0  501 -0.00000000000E+00  0.00000000000E+00  0.79528548868E+02  0.79528548909E+02  0.25500000000E-02 0. -1.
          2   -1    0    0  501    0  0.00000000000E+00 -0.00000000000E+00 -0.57281514138E+03  0.57281514139E+03  0.25500000000E-02 0.  1.
    5000001    1    1    2    0    0  0.75708918462E+02 -0.10867620146E+03 -0.20375037235E+03  0.29373724880E+03  0.16500000000E+03 0.  0.
   -5000001    1    1    2    0    0 -0.75708918462E+02  0.10867620146E+03 -0.28953622017E+03  0.35860644150E+03  0.16500000000E+03 0.  0.
<mgrwt>
<rscale>  0 0.42687308E+03</rscale>
<asrwt>0</asrwt>
<pdfrwt beam="1">  1        2 0.81830733E-01 0.42687308E+03</pdfrwt>
<pdfrwt beam="2">  1       -2 0.11361222E-01 0.42687308E+03</pdfrwt>
<totfact> 0.31578618E+03</totfact>
</mgrwt>
</event>
<event>
 4    1  0.5323640E-005  0.5837153E+03  0.7818608E-02  0.9939780E-01
          2   -1    0    0  501    0  0.00000000000E+00  0.00000000000E+00  0.36381019722E+03  0.36381019723E+03  0.25500000000E-02 0.  1.
         -2   -1    0    0    0  501 -0.00000000000E+00 -0.00000000000E+00 -0.23413549425E+03  0.23413549426E+03  0.25500000000E-02 0. -1.
    5000001    1    1    2    0    0 -0.16660446158E+03  0.16546340551E+03  0.11924234468E+03  0.31077149474E+03  0.16500000000E+03 0.  0.
   -5000001    1    1    2    0    0  0.16660446158E+03 -0.16546340551E+03  0.10432358292E+02  0.28717419675E+03  0.16500000000E+03 0.  0.
<mgrwt>
<rscale>  0 0.58371527E+03</rscale>
<asrwt>0</asrwt>
<pdfrwt beam="1">  1        2 0.51972885E-01 0.58371527E+03</pdfrwt>
<pdfrwt beam="2">  1       -2 0.33447928E-01 0.58371527E+03</pdfrwt>
<totfact> 0.80650367E+02</totfact>
</mgrwt>
</event>
<event>
 4    1  0.5323640E-005  0.1056361E+04  0.7818608E-02  0.9248802E-01
         -2   -1    0    0    0  501 -0.00000000000E+00  0.00000000000E+00  0.25854397969E+03  0.25854397970E+03  0.25500000000E-02 0.  1.
          2   -1    0    0  501    0  0.00000000000E+00 -0.00000000000E+00 -0.10790214704E+04  0.10790214704E+04  0.25500000000E-02 0. -1.
    5000001    1    1    2    0    0 -0.15218944371E+03 -0.43728695986E+03 -0.65500563867E+03  0.81892545371E+03  0.16500000000E+03 0.  0.
   -5000001    1    1    2    0    0  0.15218944371E+03  0.43728695986E+03 -0.16547185204E+03  0.51863999639E+03  0.16500000000E+03 0.  0.
<mgrwt>
<rscale>  0 0.10563607E+04</rscale>
<asrwt>0</asrwt>
<pdfrwt beam="1">  1        2 0.15414592E+00 0.10563607E+04</pdfrwt>
<pdfrwt beam="2">  1       -2 0.36934855E-01 0.10563607E+04</pdfrwt>
<totfact> 0.17256508E+02</totfact>
</mgrwt>
</event>
<event>
 4    1  0.5323640E-005  0.6567015E+03  0.7818608E-02  0.9794285E-01
         -2   -1    0    0    0  501 -0.00000000000E+00  0.00000000000E+00  0.10777712567E+03  0.10777712570E+03  0.25500000000E-02 0.  1.
          2   -1    0    0  501    0  0.00000000000E+00 -0.00000000000E+00 -0.10003441914E+04  0.10003441914E+04  0.25500000000E-02 0. -1.
    5000001    1    1    2    0    0  0.24109850305E+03  0.99380239445E+02 -0.63557622375E+03  0.70653170938E+03  0.16500000000E+03 0.  0.
   -5000001    1    1    2    0    0 -0.24109850305E+03 -0.99380239445E+02 -0.25699084195E+03  0.40158960770E+03  0.16500000000E+03 0.  0.
<mgrwt>
<rscale>  0 0.65670152E+03</rscale>
<asrwt>0</asrwt>
<pdfrwt beam="1">  1        2 0.14290631E+00 0.65670152E+03</pdfrwt>
<pdfrwt beam="2">  1       -2 0.15396733E-01 0.65670152E+03</pdfrwt>
<totfact> 0.94525726E+02</totfact>
</mgrwt>
</event>
<event>
 4    1  0.5323640E-005  0.4509264E+03  0.7818608E-02  0.1027446E+00
         -2   -1    0    0    0  501 -0.00000000000E+00  0.00000000000E+00  0.34787273951E+02  0.34787274045E+02  0.25500000000E-02 0. -1.
          2   -1    0    0  501    0  0.00000000000E+00 -0.00000000000E+00 -0.14612713300E+04  0.14612713300E+04  0.25500000000E-02 0.  1.
    5000001    1    1    2    0    0 -0.53788330026E+02  0.14123308408E+03 -0.80522662481E+03  0.83573613407E+03  0.16500000000E+03 0.  0.
   -5000001    1    1    2    0    0  0.53788330026E+02 -0.14123308408E+03 -0.62125743122E+03  0.66032246996E+03  0.16500000000E+03 0.  0.
<mgrwt>
<rscale>  0 0.45092636E+03</rscale>
<asrwt>0</asrwt>
<pdfrwt beam="1">  1        2 0.20875301E+00 0.45092636E+03</pdfrwt>
<pdfrwt beam="2">  1       -2 0.49696115E-02 0.45092636E+03</pdfrwt>
<totfact> 0.32297325E+03</totfact>
</mgrwt>
</event>
<event>
 4    1  0.5323640E-005  0.5833653E+03  0.7818608E-02  0.9940532E-01
          2   -1    0    0  501    0  0.00000000000E+00  0.00000000000E+00  0.13320608427E+04  0.13320608427E+04  0.25500000000E-02 0.  1.
         -2   -1    0    0    0  501 -0.00000000000E+00 -0.00000000000E+00 -0.63870030567E+02  0.63870030618E+02  0.25500000000E-02 0. -1.
    5000001    1    1    2    0    0  0.16763166432E+03 -0.16844863012E+03  0.54525327330E+03  0.61725314735E+03  0.16500000000E+03 0.  0.
   -5000001    1    1    2    0    0 -0.16763166432E+03  0.16844863012E+03  0.72293753887E+03  0.77867772600E+03  0.16500000000E+03 0.  0.
<mgrwt>
<rscale>  0 0.58336529E+03</rscale>
<asrwt>0</asrwt>
<pdfrwt beam="1">  1        2 0.19029439E+00 0.58336529E+03</pdfrwt>
<pdfrwt beam="2">  1       -2 0.91242910E-02 0.58336529E+03</pdfrwt>
<totfact> 0.14507418E+03</totfact>
</mgrwt>
</event>
<event>
 4    1  0.5323640E-005  0.1183990E+04  0.7818608E-02  0.9126987E-01
          2   -1    0    0  501    0  0.00000000000E+00  0.00000000000E+00  0.17561473878E+03  0.17561473880E+03  0.25500000000E-02 0.  1.
         -2   -1    0    0    0  501 -0.00000000000E+00 -0.00000000000E+00 -0.19956057885E+04  0.19956057885E+04  0.25500000000E-02 0. -1.
    5000001    1    1    2    0    0 -0.54267028190E+03 -0.11982123679E+03 -0.11299361039E+04  0.12699719534E+04  0.16500000000E+03 0.  0.
   -5000001    1    1    2    0    0  0.54267028190E+03  0.11982123679E+03 -0.69005494588E+03  0.90124857391E+03  0.16500000000E+03 0.  0.
<mgrwt>
<rscale>  0 0.11839895E+04</rscale>
<asrwt>0</asrwt>
<pdfrwt beam="1">  1        2 0.25087821E-01 0.11839895E+04</pdfrwt>
<pdfrwt beam="2">  1       -2 0.28508653E+00 0.11839895E+04</pdfrwt>
<totfact> 0.85319274E+00</totfact>
</mgrwt>
</event>
<event>
 4    1  0.5323640E-005  0.9577815E+03  0.7818608E-02  0.9356101E-01
          2   -1    0    0  501    0  0.00000000000E+00  0.00000000000E+00  0.19105438362E+04  0.19105438362E+04  0.25500000000E-02 0.  1.
         -2   -1    0    0    0  501 -0.00000000000E+00 -0.00000000000E+00 -0.12003719927E+03  0.12003719930E+03  0.25500000000E-02 0. -1.
    5000001    1    1    2    0    0 -0.15511938808E+03 -0.41677680316E+03  0.75548173162E+03  0.89204404320E+03  0.16500000000E+03 0.  0.
   -5000001    1    1    2    0    0  0.15511938808E+03  0.41677680316E+03  0.10350249053E+04  0.11385369923E+04  0.16500000000E+03 0.  0.
<mgrwt>
<rscale>  0 0.95778146E+03</rscale>
<asrwt>0</asrwt>
<pdfrwt beam="1">  1        2 0.27293484E+00 0.95778146E+03</pdfrwt>
<pdfrwt beam="2">  1       -2 0.17148171E-01 0.95778146E+03</pdfrwt>
<totfact> 0.24972156E+02</totfact>
</mgrwt>
</event>
<event>
 4    1  0.5323640E-005  0.3778667E+03  0.7818608E-02  0.1051725E+00
          2   -1    0    0  501    0  0.00000000000E+00  0.00000000000E+00  0.10841731918E+04  0.10841731918E+04  0.25500000000E-02 0.  1.
         -2   -1    0    0    0  501 -0.00000000000E+00 -0.00000000000E+00 -0.32924462256E+02  0.32924462355E+02  0.25500000000E-02 0. -1.
    5000001    1    1    2    0    0 -0.65153950896E+02  0.64435964717E+02  0.55101928637E+03  0.58244680858E+03  0.16500000000E+03 0.  0.
   -5000001    1    1    2    0    0  0.65153950896E+02 -0.64435964717E+02  0.50022944318E+03  0.53465084559E+03  0.16500000000E+03 0.  0.
<mgrwt>
<rscale>  0 0.37786675E+03</rscale>
<asrwt>0</asrwt>
<pdfrwt beam="1">  1        2 0.15488184E+00 0.37786675E+03</pdfrwt>
<pdfrwt beam="2">  1       -2 0.47034960E-02 0.37786675E+03</pdfrwt>
<totfact> 0.56221892E+03</totfact>
</mgrwt>
</event>
<event>
 4    1  0.5323640E-005  0.6445122E+03  0.7818608E-02  0.9817131E-01
          2   -1    0    0  501    0  0.00000000000E+00  0.00000000000E+00  0.18673161316E+04  0.18673161316E+04  0.25500000000E-02 0.  1.
         -2   -1    0    0    0  501 -0.00000000000E+00 -0.00000000000E+00 -0.55614041381E+02  0.55614041439E+02  0.25500000000E-02 0. -1.
    5000001    1    1    2    0    0  0.20106121854E+03 -0.80955057916E+02  0.14195463721E+04  0.14454467259E+04  0.16500000000E+03 0.  0.
   -5000001    1    1    2    0    0 -0.20106121854E+03  0.80955057916E+02  0.39215571815E+03  0.47748344712E+03  0.16500000000E+03 0.  0.
<mgrwt>
<rscale>  0 0.64451221E+03</rscale>
<asrwt>0</asrwt>
<pdfrwt beam="1">  1        2 0.26675947E+00 0.64451221E+03</pdfrwt>
<pdfrwt beam="2">  1       -2 0.79448625E-02 0.64451221E+03</pdfrwt>
<totfact> 0.95531545E+02</totfact>
</mgrwt>
</event>
<event>
 4    1  0.5323640E-005  0.5621159E+03  0.7818608E-02  0.9987278E-01
         -2   -1    0    0    0  501 -0.00000000000E+00  0.00000000000E+00  0.41321784811E+02  0.41321784890E+02  0.25500000000E-02 0. -1.
          2   -1    0    0  501    0  0.00000000000E+00 -0.00000000000E+00 -0.19116692407E+04  0.19116692407E+04  0.25500000000E-02 0.  1.
    5000001    1    1    2    0    0 -0.98916421983E+02 -0.20384467550E+03 -0.10073429561E+04  0.10456107983E+04  0.16500000000E+03 0.  0.
   -5000001    1    1    2    0    0  0.98916421983E+02  0.20384467550E+03 -0.86300449980E+03  0.90738022733E+03  0.16500000000E+03 0.  0.
<mgrwt>
<rscale>  0 0.56211595E+03</rscale>
<asrwt>0</asrwt>
<pdfrwt beam="1">  1        2 0.27309555E+00 0.56211595E+03</pdfrwt>
<pdfrwt beam="2">  1       -2 0.59031133E-02 0.56211595E+03</pdfrwt>
<totfact> 0.14563378E+03</totfact>
</mgrwt>
</event>
<event>
 4    1  0.5323640E-005  0.5950084E+03  0.7818608E-02  0.9915816E-01
          2   -1    0    0  501    0  0.00000000000E+00  0.00000000000E+00  0.21262963077E+04  0.21262963077E+04  0.25500000000E-02 0.  1.
         -2   -1    0    0    0  501 -0.00000000000E+00 -0.00000000000E+00 -0.41625782347E+02  0.41625782425E+02  0.25500000000E-02 0. -1.
    5000001    1    1    2    0    0 -0.75272506512E+02  0.15056884107E+03  0.17036791406E+04  0.17199082942E+04  0.16500000000E+03 0.  0.
   -5000001    1    1    2    0    0  0.75272506512E+02 -0.15056884107E+03  0.38099138476E+03  0.44801379599E+03  0.16500000000E+03 0.  0.
<mgrwt>
<rscale>  0 0.59500839E+03</rscale>
<asrwt>0</asrwt>
<pdfrwt beam="1">  1        2 0.30375664E+00 0.59500839E+03</pdfrwt>
<pdfrwt beam="2">  1       -2 0.59465399E-02 0.59500839E+03</pdfrwt>
<totfact> 0.11216172E+03</totfact>
</mgrwt>
</event>
<event>
 4    1  0.5323640E-005  0.4990719E+03  0.7818608E-02  0.1014021E+00
          2   -1    0    0  501    0  0.00000000000E+00  0.00000000000E+00  0.11626089226E+04  0.11626089226E+04  0.25500000000E-02 0.  1.
         -2   -1    0    0    0  501 -0.00000000000E+00 -0.00000000000E+00 -0.53559007619E+02  0.53559007680E+02  0.25500000000E-02 0. -1.
    5000001    1    1    2    0    0  0.69240883368E+02  0.14351081541E+03  0.79395213864E+03  0.82642280494E+03  0.16500000000E+03 0.  0.
   -5000001    1    1    2    0    0 -0.69240883368E+02 -0.14351081541E+03  0.31509777629E+03  0.38974512530E+03  0.16500000000E+03 0.  0.
<mgrwt>
<rscale>  0 0.49907186E+03</rscale>
<asrwt>0</asrwt>
<pdfrwt beam="1">  1        2 0.16608698E+00 0.49907186E+03</pdfrwt>
<pdfrwt beam="2">  1       -2 0.76512870E-02 0.49907186E+03</pdfrwt>
<totfact> 0.23850541E+03</totfact>
</mgrwt>
</event>
<event>
 4    1  0.5323640E-005  0.3465385E+03  0.7818608E-02  0.1064045E+00
         -2   -1    0    0    0  501 -0.00000000000E+00  0.00000000000E+00  0.96387097577E+02  0.96387097610E+02  0.25500000000E-02 0. -1.
          2   -1    0    0  501    0  0.00000000000E+00 -0.00000000000E+00 -0.31147572013E+03  0.31147572014E+03  0.25500000000E-02 0.  1.
    5000001    1    1    2    0    0  0.45211016972E+02  0.14270359857E+02 -0.13513551729E+03  0.21848177786E+03  0.16500000000E+03 0.  0.
   -5000001    1    1    2    0    0 -0.45211016972E+02 -0.14270359857E+02 -0.79953105262E+02  0.18938103988E+03  0.16500000000E+03 0.  0.
<mgrwt>
<rscale>  0 0.34653854E+03</rscale>
<asrwt>0</asrwt>
<pdfrwt beam="1">  1        2 0.44496531E-01 0.34653854E+03</pdfrwt>
<pdfrwt beam="2">  1       -2 0.13769585E-01 0.34653854E+03</pdfrwt>
<totfact> 0.45041195E+03</totfact>
</mgrwt>
</event>
<event>
 4    1  0.5323640E-005  0.4619341E+03  0.7818608E-02  0.1024222E+00
          2   -1    0    0  501    0  0.00000000000E+00  0.00000000000E+00  0.90707520603E+03  0.90707520604E+03  0.25500000000E-02 0.  1.
         -2   -1    0    0    0  501 -0.00000000000E+00 -0.00000000000E+00 -0.58810749452E+02  0.58810749507E+02  0.25500000000E-02 0. -1.
    5000001    1    1    2    0    0 -0.13603325330E+03 -0.24991482366E+02  0.24930050491E+03  0.32940152086E+03  0.16500000000E+03 0.  0.
   -5000001    1    1    2    0    0  0.13603325330E+03  0.24991482366E+02  0.59896395168E+03  0.63648443469E+03  0.16500000000E+03 0.  0.
<mgrwt>
<rscale>  0 0.46193408E+03</rscale>
<asrwt>0</asrwt>
<pdfrwt beam="1">  1        2 0.12958216E+00 0.46193408E+03</pdfrwt>
<pdfrwt beam="2">  1       -2 0.84015365E-02 0.46193408E+03</pdfrwt>
<totfact> 0.29196108E+03</totfact>
</mgrwt>
</event>
<event>
 4    1  0.5323640E-005  0.5336987E+03  0.7818608E-02  0.1005339E+00
          2   -1    0    0  501    0  0.00000000000E+00  0.00000000000E+00  0.20666124653E+04  0.20666124653E+04  0.25500000000E-02 0.  1.
         -2   -1    0    0    0  501 -0.00000000000E+00 -0.00000000000E+00 -0.34456662660E+02  0.34456662754E+02  0.25500000000E-02 0. -1.
    5000001    1    1    2    0    0 -0.15192660263E+02  0.20646181990E+03  0.88395891931E+03  0.92274897509E+03  0.16500000000E+03 0.  0.
   -5000001    1    1    2    0    0  0.15192660263E+02 -0.20646181990E+03  0.11481968834E+04  0.11783201530E+04  0.16500000000E+03 0.  0.
<mgrwt>
<rscale>  0 0.53369867E+03</rscale>
<asrwt>0</asrwt>
<pdfrwt beam="1">  1        2 0.29523038E+00 0.53369867E+03</pdfrwt>
<pdfrwt beam="2">  1       -2 0.49223800E-02 0.53369867E+03</pdfrwt>
<totfact> 0.16177137E+03</totfact>
</mgrwt>
</event>
<event>
 4    1  0.5323640E-005  0.6335976E+03  0.7818608E-02  0.9838053E-01
          2   -1    0    0  501    0  0.00000000000E+00  0.00000000000E+00  0.66847482239E+03  0.66847482239E+03  0.25500000000E-02 0. -1.
         -2   -1    0    0    0  501 -0.00000000000E+00 -0.00000000000E+00 -0.15013503609E+03  0.15013503612E+03  0.25500000000E-02 0.  1.
    5000001    1    1    2    0    0 -0.61343065058E+02 -0.15968275751E+03 -0.11457449910E+02  0.23794501011E+03  0.16500000000E+03 0.  0.
   -5000001    1    1    2    0    0  0.61343065058E+02  0.15968275751E+03  0.52979723620E+03  0.58066484840E+03  0.16500000000E+03 0.  0.
<mgrwt>
<rscale>  0 0.63359764E+03</rscale>
<asrwt>0</asrwt>
<pdfrwt beam="1">  1        2 0.95496402E-01 0.63359764E+03</pdfrwt>
<pdfrwt beam="2">  1       -2 0.21447863E-01 0.63359764E+03</pdfrwt>
<totfact> 0.90097487E+02</totfact>
</mgrwt>
</event>
<event>
 4    1  0.5323640E-005  0.5407715E+03  0.7818608E-02  0.1003653E+00
         -2   -1    0    0    0  501 -0.00000000000E+00  0.00000000000E+00  0.67783493060E+03  0.67783493061E+03  0.25500000000E-02 0. -1.
          2   -1    0    0  501    0  0.00000000000E+00 -0.00000000000E+00 -0.10785584192E+03  0.10785584195E+03  0.25500000000E-02 0.  1.
    5000001    1    1    2    0    0 -0.81500560744E+02 -0.13356246373E+03  0.72436712928E+02  0.23864901110E+03  0.16500000000E+03 0.  0.
   -5000001    1    1    2    0    0  0.81500560744E+02  0.13356246373E+03  0.49754237575E+03  0.54704176146E+03  0.16500000000E+03 0.  0.
<mgrwt>
<rscale>  0 0.54077151E+03</rscale>
<asrwt>0</asrwt>
<pdfrwt beam="1">  1        2 0.15407978E-01 0.54077151E+03</pdfrwt>
<pdfrwt beam="2">  1       -2 0.96833559E-01 0.54077151E+03</pdfrwt>
<totfact> 0.34972129E+02</totfact>
</mgrwt>
</event>
<event>
 4    1  0.5323640E-005  0.9386044E+03  0.7818608E-02  0.9378570E-01
          2   -1    0    0  501    0  0.00000000000E+00  0.00000000000E+00  0.15451507271E+04  0.15451507271E+04  0.25500000000E-02 0.  1.
         -2   -1    0    0    0  501 -0.00000000000E+00 -0.00000000000E+00 -0.14253919060E+03  0.14253919062E+03  0.25500000000E-02 0. -1.
    5000001    1    1    2    0    0  0.21419524971E+03  0.28864728784E+03  0.11555585366E+04  0.12213670183E+04  0.16500000000E+03 0.  0.
   -5000001    1    1    2    0    0 -0.21419524971E+03 -0.28864728784E+03  0.24705299983E+03  0.46632289940E+03  0.16500000000E+03 0.  0.
<mgrwt>
<rscale>  0 0.93860436E+03</rscale>
<asrwt>0</asrwt>
<pdfrwt beam="1">  1        2 0.22073582E+00 0.93860436E+03</pdfrwt>
<pdfrwt beam="2">  1       -2 0.20362742E-01 0.93860436E+03</pdfrwt>
<totfact> 0.28619793E+02</totfact>
</mgrwt>
</event>
<event>
 4    1  0.5323640E-005  0.7327109E+03  0.7818608E-02  0.9662872E-01
         -2   -1    0    0    0  501 -0.00000000000E+00  0.00000000000E+00  0.12881621219E+03  0.12881621221E+03  0.25500000000E-02 0. -1.
          2   -1    0    0  501    0  0.00000000000E+00 -0.00000000000E+00 -0.10419209176E+04  0.10419209176E+04  0.25500000000E-02 0.  1.
    5000001    1    1    2    0    0 -0.53129886253E+02  0.32258367218E+03 -0.47318005596E+03  0.59833717562E+03  0.16500000000E+03 0.  0.
   -5000001    1    1    2    0    0  0.53129886253E+02 -0.32258367218E+03 -0.43992464948E+03  0.57239995422E+03  0.16500000000E+03 0.  0.
<mgrwt>
<rscale>  0 0.73271087E+03</rscale>
<asrwt>0</asrwt>
<pdfrwt beam="1">  1        2 0.14884584E+00 0.73271087E+03</pdfrwt>
<pdfrwt beam="2">  1       -2 0.18402317E-01 0.73271087E+03</pdfrwt>
<totfact> 0.65595967E+02</totfact>
</mgrwt>
</event>
<event>
 4    1  0.5323640E-005  0.5192769E+03  0.7818608E-02  0.1008866E+00
          2   -1    0    0  501    0  0.00000000000E+00  0.00000000000E+00  0.65574065996E+03  0.65574065997E+03  0.25500000000E-02 0.  1.
         -2   -1    0    0    0  501 -0.00000000000E+00 -0.00000000000E+00 -0.10280303956E+03  0.10280303959E+03  0.25500000000E-02 0. -1.
    5000001    1    1    2    0    0 -0.10882479339E+03  0.38098270438E+02  0.36916843391E+02  0.20465133079E+03  0.16500000000E+03 0.  0.
   -5000001    1    1    2    0    0  0.10882479339E+03 -0.38098270438E+02  0.51602077701E+03  0.55389236877E+03  0.16500000000E+03 0.  0.
<mgrwt>
<rscale>  0 0.51927693E+03</rscale>
<asrwt>0</asrwt>
<pdfrwt beam="1">  1        2 0.93677235E-01 0.51927693E+03</pdfrwt>
<pdfrwt beam="2">  1       -2 0.14686149E-01 0.51927693E+03</pdfrwt>
<totfact> 0.17673044E+03</totfact>
</mgrwt>
</event>
<event>
 4    1  0.5323640E-005  0.5103935E+03  0.7818608E-02  0.1011101E+00
         -2   -1    0    0    0  501 -0.00000000000E+00  0.00000000000E+00  0.55692089245E+02  0.55692089304E+02  0.25500000000E-02 0. -1.
          2   -1    0    0  501    0  0.00000000000E+00 -0.00000000000E+00 -0.11693830364E+04  0.11693830364E+04  0.25500000000E-02 0.  1.
    5000001    1    1    2    0    0 -0.16206562074E+03  0.23588923734E+02 -0.80948518631E+03  0.84220720111E+03  0.16500000000E+03 0.  0.
   -5000001    1    1    2    0    0  0.16206562074E+03 -0.23588923734E+02 -0.30420576081E+03  0.38286792456E+03  0.16500000000E+03 0.  0.
<mgrwt>
<rscale>  0 0.51039351E+03</rscale>
<asrwt>0</asrwt>
<pdfrwt beam="1">  1        2 0.16705470E+00 0.51039351E+03</pdfrwt>
<pdfrwt beam="2">  1       -2 0.79560135E-02 0.51039351E+03</pdfrwt>
<totfact> 0.22220549E+03</totfact>
</mgrwt>
</event>
<event>
 4    1  0.5323640E-005  0.9533668E+03  0.7818608E-02  0.9361224E-01
          2   -1    0    0  501    0  0.00000000000E+00  0.00000000000E+00  0.22039347431E+03  0.22039347432E+03  0.25500000000E-02 0.  1.
         -2   -1    0    0    0  501 -0.00000000000E+00 -0.00000000000E+00 -0.10310062955E+04  0.10310062955E+04  0.25500000000E-02 0. -1.
    5000001    1    1    2    0    0  0.33637543973E+03 -0.12072800214E+03 -0.52415694089E+02  0.39710967244E+03  0.16500000000E+03 0.  0.
   -5000001    1    1    2    0    0 -0.33637543973E+03  0.12072800214E+03 -0.75819712714E+03  0.85429009743E+03  0.16500000000E+03 0.  0.
<mgrwt>
<rscale>  0 0.95336679E+03</rscale>
<asrwt>0</asrwt>
<pdfrwt beam="1">  1        2 0.31484783E-01 0.95336679E+03</pdfrwt>
<pdfrwt beam="2">  1       -2 0.14728661E+00 0.95336679E+03</pdfrwt>
<totfact> 0.53029184E+01</totfact>
</mgrwt>
</event>
<event>
 4    1  0.5323640E-005  0.8294496E+03  0.7818608E-02  0.9518342E-01
          2   -1    0    0  501    0  0.00000000000E+00  0.00000000000E+00  0.69075823640E+03  0.69075823640E+03  0.25500000000E-02 0.  1.
         -2   -1    0    0    0  501 -0.00000000000E+00 -0.00000000000E+00 -0.24899690448E+03  0.24899690449E+03  0.25500000000E-02 0. -1.
    5000001    1    1    2    0    0  0.37563754229E+03 -0.32910857314E+02  0.27848469634E+03  0.49695614877E+03  0.16500000000E+03 0.  0.
   -5000001    1    1    2    0    0 -0.37563754229E+03  0.32910857314E+02  0.16327663558E+03  0.44279899213E+03  0.16500000000E+03 0.  0.
<mgrwt>
<rscale>  0 0.82944961E+03</rscale>
<asrwt>0</asrwt>
<pdfrwt beam="1">  1        2 0.98679748E-01 0.82944961E+03</pdfrwt>
<pdfrwt beam="2">  1       -2 0.35570986E-01 0.82944961E+03</pdfrwt>
<totfact> 0.34082636E+02</totfact>
</mgrwt>
</event>
<event>
 4    1  0.5323640E-005  0.5102797E+03  0.7818608E-02  0.1011130E+00
          2   -1    0    0  501    0  0.00000000000E+00  0.00000000000E+00  0.30622211486E+03  0.30622211487E+03  0.25500000000E-02 0.  1.
         -2   -1    0    0    0  501 -0.00000000000E+00 -0.00000000000E+00 -0.21257888287E+03  0.21257888289E+03  0.25500000000E-02 0. -1.
    5000001    1    1    2    0    0 -0.12540601249E+03  0.89768583529E+02  0.16748923989E+03  0.28118092403E+03  0.16500000000E+03 0.  0.
   -5000001    1    1    2    0    0  0.12540601249E+03 -0.89768583529E+02 -0.73846007897E+02  0.23762007373E+03  0.16500000000E+03 0.  0.
<mgrwt>
<rscale>  0 0.51027975E+03</rscale>
<asrwt>0</asrwt>
<pdfrwt beam="1">  1        2 0.43746017E-01 0.51027975E+03</pdfrwt>
<pdfrwt beam="2">  1       -2 0.30368412E-01 0.51027975E+03</pdfrwt>
<totfact> 0.11675748E+03</totfact>
</mgrwt>
</event>
<event>
 4    1  0.5323640E-005  0.5427589E+03  0.7818608E-02  0.1003184E+00
         -2   -1    0    0    0  501 -0.00000000000E+00  0.00000000000E+00  0.22942435047E+02  0.22942435189E+02  0.25500000000E-02 0. -1.
          2   -1    0    0  501    0  0.00000000000E+00 -0.00000000000E+00 -0.32100687352E+04  0.32100687352E+04  0.25500000000E-02 0.  1.
    5000001    1    1    2    0    0 -0.20413861958E+03  0.13150811393E+02 -0.19965179093E+04  0.20137413642E+04  0.16500000000E+03 0.  0.
   -5000001    1    1    2    0    0  0.20413861958E+03 -0.13150811393E+02 -0.11906083908E+04  0.12192698061E+04  0.16500000000E+03 0.  0.
<mgrwt>
<rscale>  0 0.54275886E+03</rscale>
<asrwt>0</asrwt>
<pdfrwt beam="1">  1        2 0.45858096E+00 0.54275886E+03</pdfrwt>
<pdfrwt beam="2">  1       -2 0.32774928E-02 0.54275886E+03</pdfrwt>
<totfact> 0.76270983E+02</totfact>
</mgrwt>
</event>
<event>
 4    1  0.5323640E-005  0.5000216E+03  0.7818608E-02  0.1013773E+00
         -2   -1    0    0    0  501 -0.00000000000E+00  0.00000000000E+00  0.17917822221E+03  0.17917822223E+03  0.25500000000E-02 0. -1.
          2   -1    0    0  501    0  0.00000000000E+00 -0.00000000000E+00 -0.34884486023E+03  0.34884486024E+03  0.25500000000E-02 0.  1.
    5000001    1    1    2    0    0 -0.16866747925E+03 -0.77565234680E+02 -0.54680524198E+02  0.25432271608E+03  0.16500000000E+03 0.  0.
   -5000001    1    1    2    0    0  0.16866747925E+03  0.77565234680E+02 -0.11498611382E+03  0.27370036638E+03  0.16500000000E+03 0.  0.
<mgrwt>
<rscale>  0 0.50002161E+03</rscale>
<asrwt>0</asrwt>
<pdfrwt beam="1">  1        2 0.49834980E-01 0.50002161E+03</pdfrwt>
<pdfrwt beam="2">  1       -2 0.25596889E-01 0.50002161E+03</pdfrwt>
<totfact> 0.13809649E+03</totfact>
</mgrwt>
</event>
<event>
 4    1  0.5323640E-005  0.5025261E+03  0.7818608E-02  0.1013122E+00
         -2   -1    0    0    0  501 -0.00000000000E+00  0.00000000000E+00  0.69289440355E+03  0.69289440355E+03  0.25500000000E-02 0. -1.
          2   -1    0    0  501    0  0.00000000000E+00 -0.00000000000E+00 -0.91115065801E+02  0.91115065837E+02  0.25500000000E-02 0.  1.
    5000001    1    1    2    0    0  0.21176502010E+02  0.18216898033E+03  0.37528934662E+03  0.44911142862E+03  0.16500000000E+03 0.  0.
   -5000001    1    1    2    0    0 -0.21176502010E+02 -0.18216898033E+03  0.22648999113E+03  0.33489804077E+03  0.16500000000E+03 0.  0.
<mgrwt>
<rscale>  0 0.50252610E+03</rscale>
<asrwt>0</asrwt>
<pdfrwt beam="1">  1        2 0.13016438E-01 0.50252610E+03</pdfrwt>
<pdfrwt beam="2">  1       -2 0.98984915E-01 0.50252610E+03</pdfrwt>
<totfact> 0.40807630E+02</totfact>
</mgrwt>
</event>
<event>
 4    1  0.5323640E-005  0.7990298E+03  0.7818608E-02  0.9561422E-01
         -2   -1    0    0    0  501 -0.00000000000E+00  0.00000000000E+00  0.36096514398E+03  0.36096514399E+03  0.25500000000E-02 0. -1.
          2   -1    0    0  501    0  0.00000000000E+00 -0.00000000000E+00 -0.44218166983E+03  0.44218166984E+03  0.25500000000E-02 0.  1.
    5000001    1    1    2    0    0 -0.16227684278E+03  0.31379731910E+03 -0.12814682324E+03  0.41042555901E+03  0.16500000000E+03 0.  0.
   -5000001    1    1    2    0    0  0.16227684278E+03 -0.31379731910E+03  0.46930297389E+02  0.39272125482E+03  0.16500000000E+03 0.  0.
<mgrwt>
<rscale>  0 0.79902984E+03</rscale>
<asrwt>0</asrwt>
<pdfrwt beam="1">  1        2 0.63168810E-01 0.79902984E+03</pdfrwt>
<pdfrwt beam="2">  1       -2 0.51566449E-01 0.79902984E+03</pdfrwt>
<totfact> 0.27616853E+02</totfact>
</mgrwt>
</event>
<event>
 4    1  0.5323640E-005  0.5950270E+03  0.7818608E-02  0.9915778E-01
          2   -1    0    0  501    0  0.00000000000E+00  0.00000000000E+00  0.15941981543E+04  0.15941981543E+04  0.25500000000E-02 0.  1.
         -2   -1    0    0    0  501 -0.00000000000E+00 -0.00000000000E+00 -0.55522758798E+02  0.55522758856E+02  0.25500000000E-02 0. -1.
    5000001    1    1    2    0    0 -0.21684540701E+03 -0.78202919906E+02  0.10196583268E+04  0.10583315787E+04  0.16500000000E+03 0.  0.
   -5000001    1    1    2    0    0  0.21684540701E+03  0.78202919906E+02  0.51901706874E+03  0.59138933442E+03  0.16500000000E+03 0.  0.
<mgrwt>
<rscale>  0 0.59502699E+03</rscale>
<asrwt>0</asrwt>
<pdfrwt beam="1">  1        2 0.22774258E+00 0.59502699E+03</pdfrwt>
<pdfrwt beam="2">  1       -2 0.79318231E-02 0.59502699E+03</pdfrwt>
<totfact> 0.13217171E+03</totfact>
</mgrwt>
</event>
<event>
 4    1  0.5323640E-005  0.4536419E+03  0.7818608E-02  0.1026642E+00
          2   -1    0    0  501    0  0.00000000000E+00  0.00000000000E+00  0.20051410206E+04  0.20051410206E+04  0.25500000000E-02 0.  1.
         -2   -1    0    0    0  501 -0.00000000000E+00 -0.00000000000E+00 -0.25657918148E+02  0.25657918275E+02  0.25500000000E-02 0. -1.
    5000001    1    1    2    0    0 -0.13176903315E+02  0.11968488098E+03  0.14312007716E+04  0.14457035485E+04  0.16500000000E+03 0.  0.
   -5000001    1    1    2    0    0  0.13176903315E+02 -0.11968488098E+03  0.54828233087E+03  0.58509539040E+03  0.16500000000E+03 0.  0.
<mgrwt>
<rscale>  0 0.45364190E+03</rscale>
<asrwt>0</asrwt>
<pdfrwt beam="1">  1        2 0.28644879E+00 0.45364190E+03</pdfrwt>
<pdfrwt beam="2">  1       -2 0.36654159E-02 0.45364190E+03</pdfrwt>
<totfact> 0.27373197E+03</totfact>
</mgrwt>
</event>
<event>
 4    1  0.5323640E-005  0.5108245E+03  0.7818608E-02  0.1010992E+00
          2   -1    0    0  501    0  0.00000000000E+00  0.00000000000E+00  0.13051726519E+03  0.13051726522E+03  0.25500000000E-02 0.  1.
         -2   -1    0    0    0  501 -0.00000000000E+00 -0.00000000000E+00 -0.49982204303E+03  0.49982204304E+03  0.25500000000E-02 0. -1.
    5000001    1    1    2    0    0 -0.10270369730E+03  0.13070535508E+03 -0.58942537997E+02  0.24151845079E+03  0.16500000000E+03 0.  0.
   -5000001    1    1    2    0    0  0.10270369730E+03 -0.13070535508E+03 -0.31036223984E+03  0.38882085747E+03  0.16500000000E+03 0.  0.
<mgrwt>
<rscale>  0 0.51082446E+03</rscale>
<asrwt>0</asrwt>
<pdfrwt beam="1">  1        2 0.18645324E-01 0.51082446E+03</pdfrwt>
<pdfrwt beam="2">  1       -2 0.71403148E-01 0.51082446E+03</pdfrwt>
<totfact> 0.55378425E+02</totfact>
</mgrwt>
</event>
<event>
 4    1  0.5323640E-005  0.6271359E+03  0.7818608E-02  0.9850654E-01
         -2   -1    0    0    0  501 -0.00000000000E+00  0.00000000000E+00  0.15520588891E+03  0.15520588893E+03  0.25500000000E-02 0. -1.
          2   -1    0    0  501    0  0.00000000000E+00 -0.00000000000E+00 -0.63351235104E+03  0.63351235104E+03  0.25500000000E-02 0.  1.
    5000001    1    1    2    0    0 -0.22387044296E+03  0.12157266468E+03 -0.14011001980E+03  0.33429583556E+03  0.16500000000E+03 0.  0.
   -5000001    1    1    2    0    0  0.22387044296E+03 -0.12157266468E+03 -0.33819644233E+03  0.45442240441E+03  0.16500000000E+03 0.  0.
<mgrwt>
<rscale>  0 0.62713586E+03</rscale>
<asrwt>0</asrwt>
<pdfrwt beam="1">  1        2 0.90501764E-01 0.62713586E+03</pdfrwt>
<pdfrwt beam="2">  1       -2 0.22172270E-01 0.62713586E+03</pdfrwt>
<totfact> 0.90648709E+02</totfact>
</mgrwt>
</event>
<event>
 4    1  0.5323640E-005  0.7889117E+03  0.7818608E-02  0.9576207E-01
          2   -1    0    0  501    0  0.00000000000E+00  0.00000000000E+00  0.64904225873E+03  0.64904225873E+03  0.25500000000E-02 0.  1.
         -2   -1    0    0    0  501 -0.00000000000E+00 -0.00000000000E+00 -0.23973082212E+03  0.23973082214E+03  0.25500000000E-02 0. -1.
    5000001    1    1    2    0    0  0.27979336996E+03 -0.22326698375E+03  0.22203424579E+03  0.45238996696E+03  0.16500000000E+03 0.  0.
   -5000001    1    1    2    0    0 -0.27979336996E+03  0.22326698375E+03  0.18727719081E+03  0.43638311391E+03  0.16500000000E+03 0.  0.
<mgrwt>
<rscale>  0 0.78891174E+03</rscale>
<asrwt>0</asrwt>
<pdfrwt beam="1">  1        2 0.92720322E-01 0.78891174E+03</pdfrwt>
<pdfrwt beam="2">  1       -2 0.34247260E-01 0.78891174E+03</pdfrwt>
<totfact> 0.39583086E+02</totfact>
</mgrwt>
</event>
<event>
 4    1  0.5323640E-005  0.7515947E+03  0.7818608E-02  0.9632852E-01
         -2   -1    0    0    0  501 -0.00000000000E+00  0.00000000000E+00  0.25669345963E+03  0.25669345965E+03  0.25500000000E-02 0. -1.
          2   -1    0    0  501    0  0.00000000000E+00 -0.00000000000E+00 -0.55016460720E+03  0.55016460720E+03  0.25500000000E-02 0.  1.
    5000001    1    1    2    0    0  0.52186518032E+02 -0.33218661484E+03 -0.17942581206E+03  0.41531915653E+03  0.16500000000E+03 0.  0.
   -5000001    1    1    2    0    0 -0.52186518032E+02  0.33218661484E+03 -0.11404533551E+03  0.39153891032E+03  0.16500000000E+03 0.  0.
<mgrwt>
<rscale>  0 0.75159472E+03</rscale>
<asrwt>0</asrwt>
<pdfrwt beam="1">  1        2 0.78594944E-01 0.75159472E+03</pdfrwt>
<pdfrwt beam="2">  1       -2 0.36670494E-01 0.75159472E+03</pdfrwt>
<totfact> 0.42312121E+02</totfact>
</mgrwt>
</event>
<event>
 4    1  0.5323640E-005  0.3919595E+03  0.7818608E-02  0.1046600E+00
          2   -1    0    0  501    0  0.00000000000E+00  0.00000000000E+00  0.71669598955E+02  0.71669599001E+02  0.25500000000E-02 0.  1.
         -2   -1    0    0    0  501 -0.00000000000E+00 -0.00000000000E+00 -0.53590463392E+03  0.53590463392E+03  0.25500000000E-02 0. -1.
    5000001    1    1    2    0    0  0.99435926936E+02 -0.25820376006E+02 -0.19324521973E+03  0.27408558943E+03  0.16500000000E+03 0.  0.
   -5000001    1    1    2    0    0 -0.99435926936E+02  0.25820376006E+02 -0.27098981523E+03  0.33348864350E+03  0.16500000000E+03 0.  0.
<mgrwt>
<rscale>  0 0.39195954E+03</rscale>
<asrwt>0</asrwt>
<pdfrwt beam="1">  1        2 0.10238514E-01 0.39195954E+03</pdfrwt>
<pdfrwt beam="2">  1       -2 0.76557802E-01 0.39195954E+03</pdfrwt>
<totfact> 0.98392825E+02</totfact>
</mgrwt>
</event>
<event>
 4    1  0.5323640E-005  0.3823531E+03  0.7818608E-02  0.1050067E+00
          2   -1    0    0  501    0  0.00000000000E+00  0.00000000000E+00  0.50340441630E+03  0.50340441631E+03  0.25500000000E-02 0.  1.
         -2   -1    0    0    0  501 -0.00000000000E+00 -0.00000000000E+00 -0.72602590406E+02  0.72602590451E+02  0.25500000000E-02 0. -1.
    5000001    1    1    2    0    0 -0.13224324486E+02 -0.92459051061E+02  0.17850275168E+03  0.26040697233E+03  0.16500000000E+03 0.  0.
   -5000001    1    1    2    0    0  0.13224324486E+02  0.92459051061E+02  0.25229907422E+03  0.31560003443E+03  0.16500000000E+03 0.  0.
<mgrwt>
<rscale>  0 0.38235305E+03</rscale>
<asrwt>0</asrwt>
<pdfrwt beam="1">  1        2 0.71914916E-01 0.38235305E+03</pdfrwt>
<pdfrwt beam="2">  1       -2 0.10371799E-01 0.38235305E+03</pdfrwt>
<totfact> 0.42290910E+03</totfact>
</mgrwt>
</event>
<event>
 4    1  0.5323640E-005  0.4203046E+03  0.7818608E-02  0.1036967E+00
          2   -1    0    0  501    0  0.00000000000E+00  0.00000000000E+00  0.34597054376E+03  0.34597054377E+03  0.25500000000E-02 0.  1.
         -2   -1    0    0    0  501 -0.00000000000E+00 -0.00000000000E+00 -0.12765244117E+03  0.12765244120E+03  0.25500000000E-02 0. -1.
    5000001    1    1    2    0    0 -0.11593074546E+03 -0.38198617608E+02  0.16005396772E+03  0.26027167482E+03  0.16500000000E+03 0.  0.
   -5000001    1    1    2    0    0  0.11593074546E+03  0.38198617608E+02  0.58264134866E+02  0.21335131015E+03  0.16500000000E+03 0.  0.
<mgrwt>
<rscale>  0 0.42030458E+03</rscale>
<asrwt>0</asrwt>
<pdfrwt beam="1">  1        2 0.49424364E-01 0.42030458E+03</pdfrwt>
<pdfrwt beam="2">  1       -2 0.18236063E-01 0.42030458E+03</pdfrwt>
<totfact> 0.25184960E+03</totfact>
</mgrwt>
</event>
<event>
 4    1  0.5323640E-005  0.5207850E+03  0.7818608E-02  0.1008492E+00
          2   -1    0    0  501    0  0.00000000000E+00  0.00000000000E+00  0.14569516327E+03  0.14569516329E+03  0.25500000000E-02 0.  1.
         -2   -1    0    0    0  501 -0.00000000000E+00 -0.00000000000E+00 -0.46538439767E+03  0.46538439768E+03  0.25500000000E-02 0. -1.
    5000001    1    1    2    0    0 -0.23023466406E+02 -0.19817866929E+03 -0.12719189520E+03  0.28845735069E+03  0.16500000000E+03 0.  0.
   -5000001    1    1    2    0    0  0.23023466406E+02  0.19817866929E+03 -0.19249733920E+03  0.32262221028E+03  0.16500000000E+03 0.  0.
<mgrwt>
<rscale>  0 0.52078501E+03</rscale>
<asrwt>0</asrwt>
<pdfrwt beam="1">  1        2 0.20813595E-01 0.52078501E+03</pdfrwt>
<pdfrwt beam="2">  1       -2 0.66483485E-01 0.52078501E+03</pdfrwt>
<totfact> 0.56811980E+02</totfact>
</mgrwt>
</event>
<event>
 4    1  0.5323640E-005  0.5428077E+03  0.7818608E-02  0.1003172E+00
          2   -1    0    0  501    0  0.00000000000E+00  0.00000000000E+00  0.10078594212E+04  0.10078594212E+04  0.25500000000E-02 0.  1.
         -2   -1    0    0    0  501 -0.00000000000E+00 -0.00000000000E+00 -0.73085647625E+02  0.73085647669E+02  0.25500000000E-02 0. -1.
    5000001    1    1    2    0    0  0.19356670875E+03  0.92906972295E+02  0.43092300383E+03  0.50893949687E+03  0.16500000000E+03 0.  0.
   -5000001    1    1    2    0    0 -0.19356670875E+03 -0.92906972295E+02  0.50385076973E+03  0.57200557199E+03  0.16500000000E+03 0.  0.
<mgrwt>
<rscale>  0 0.54280773E+03</rscale>
<asrwt>0</asrwt>
<pdfrwt beam="1">  1        2 0.14397990E+00 0.54280773E+03</pdfrwt>
<pdfrwt beam="2">  1       -2 0.10440808E-01 0.54280773E+03</pdfrwt>
<totfact> 0.17834710E+03</totfact>
</mgrwt>
</event>
<event>
 4    1  0.5323640E-005  0.5223345E+03  0.7818608E-02  0.1008108E+00
          2   -1    0    0  501    0  0.00000000000E+00  0.00000000000E+00  0.33400956784E+04  0.33400956784E+04  0.25500000000E-02 0.  1.
         -2   -1    0    0    0  501 -0.00000000000E+00 -0.00000000000E+00 -0.20421068866E+02  0.20421069026E+02  0.25500000000E-02 0. -1.
    5000001    1    1    2    0    0 -0.18791445185E+03  0.75085487742E+02  0.16971593778E+04  0.17171268519E+04  0.16500000000E+03 0.  0.
   -5000001    1    1    2    0    0  0.18791445185E+03 -0.75085487742E+02  0.16225152317E+04  0.16433898956E+04  0.16500000000E+03 0.  0.
<mgrwt>
<rscale>  0 0.52233447E+03</rscale>
<asrwt>0</asrwt>
<pdfrwt beam="1">  1        2 0.47715678E+00 0.52233447E+03</pdfrwt>
<pdfrwt beam="2">  1       -2 0.29172940E-02 0.52233447E+03</pdfrwt>
<totfact> 0.76970924E+02</totfact>
</mgrwt>
</event>
<event>
 4    1  0.5323640E-005  0.6196636E+03  0.7818608E-02  0.9865430E-01
          2   -1    0    0  501    0  0.00000000000E+00  0.00000000000E+00  0.80023744673E+03  0.80023744673E+03  0.25500000000E-02 0.  1.
         -2   -1    0    0    0  501 -0.00000000000E+00 -0.00000000000E+00 -0.11995908747E+03  0.11995908750E+03  0.25500000000E-02 0. -1.
    5000001    1    1    2    0    0 -0.16794005790E+03  0.14157660997E+03  0.55287691183E+03  0.61736996944E+03  0.16500000000E+03 0.  0.
   -5000001    1    1    2    0    0  0.16794005790E+03 -0.14157660997E+03  0.12740144743E+03  0.30282656479E+03  0.16500000000E+03 0.  0.
<mgrwt>
<rscale>  0 0.61966363E+03</rscale>
<asrwt>0</asrwt>
<pdfrwt beam="1">  1        2 0.11431964E+00 0.61966363E+03</pdfrwt>
<pdfrwt beam="2">  1       -2 0.17137012E-01 0.61966363E+03</pdfrwt>
<totfact> 0.10633833E+03</totfact>
</mgrwt>
</event>
<event>
 4    1  0.5323640E-005  0.6623725E+03  0.7818608E-02  0.9783836E-01
         -2   -1    0    0    0  501 -0.00000000000E+00  0.00000000000E+00  0.45176097679E+02  0.45176097751E+02  0.25500000000E-02 0. -1.
          2   -1    0    0  501    0  0.00000000000E+00 -0.00000000000E+00 -0.24279284957E+04  0.24279284957E+04  0.25500000000E-02 0.  1.
    5000001    1    1    2    0    0  0.26026409455E+03  0.41334401346E+01 -0.16441387470E+04  0.16727736559E+04  0.16500000000E+03 0.  0.
   -5000001    1    1    2    0    0 -0.26026409455E+03 -0.41334401346E+01 -0.73861365096E+03  0.80033093757E+03  0.16500000000E+03 0.  0.
<mgrwt>
<rscale>  0 0.66237251E+03</rscale>
<asrwt>0</asrwt>
<pdfrwt beam="1">  1        2 0.34684685E+00 0.66237251E+03</pdfrwt>
<pdfrwt beam="2">  1       -2 0.64537298E-02 0.66237251E+03</pdfrwt>
<totfact> 0.69069435E+02</totfact>
</mgrwt>
</event>
<event>
 4    1  0.5323640E-005  0.5293816E+03  0.7818608E-02  0.1006382E+00
         -2   -1    0    0    0  501 -0.00000000000E+00  0.00000000000E+00  0.24658504173E+03  0.24658504174E+03  0.25500000000E-02 0. -1.
          2   -1    0    0  501    0  0.00000000000E+00 -0.00000000000E+00 -0.28412597342E+03  0.28412597343E+03  0.25500000000E-02 0.  1.
    5000001    1    1    2    0    0  0.43586643098E+02  0.13561816170E+03 -0.16929456964E+03  0.27600313866E+03  0.16500000000E+03 0.  0.
   -5000001    1    1    2    0    0 -0.43586643098E+02 -0.13561816170E+03  0.13175363795E+03  0.25470787651E+03  0.16500000000E+03 0.  0.
<mgrwt>
<rscale>  0 0.52938158E+03</rscale>
<asrwt>0</asrwt>
<pdfrwt beam="1">  1        2 0.40589425E-01 0.52938158E+03</pdfrwt>
<pdfrwt beam="2">  1       -2 0.35226435E-01 0.52938158E+03</pdfrwt>
<totfact> 0.96077273E+02</totfact>
</mgrwt>
</event>
<event>
 4    1  0.5323640E-005  0.5716138E+03  0.7818608E-02  0.9966114E-01
         -2   -1    0    0    0  501 -0.00000000000E+00  0.00000000000E+00  0.95417871215E+02  0.95417871249E+02  0.25500000000E-02 0. -1.
          2   -1    0    0  501    0  0.00000000000E+00 -0.00000000000E+00 -0.85608258247E+03  0.85608258248E+03  0.25500000000E-02 0.  1.
    5000001    1    1    2    0    0 -0.17432436582E+02  0.23233495719E+03 -0.35817675308E+03  0.45803821742E+03  0.16500000000E+03 0.  0.
   -5000001    1    1    2    0    0  0.17432436582E+02 -0.23233495719E+03 -0.40248795818E+03  0.49346223630E+03  0.16500000000E+03 0.  0.
<mgrwt>
<rscale>  0 0.57161378E+03</rscale>
<asrwt>0</asrwt>
<pdfrwt beam="1">  1        2 0.12229751E+00 0.57161378E+03</pdfrwt>
<pdfrwt beam="2">  1       -2 0.13631125E-01 0.57161378E+03</pdfrwt>
<totfact> 0.14348261E+03</totfact>
</mgrwt>
</event>
<event>
 4    1  0.5323640E-005  0.9496520E+03  0.7818608E-02  0.9365557E-01
         -2   -1    0    0    0  501 -0.00000000000E+00  0.00000000000E+00  0.20563126607E+03  0.20563126609E+03  0.25500000000E-02 0. -1.
          2   -1    0    0  501    0  0.00000000000E+00 -0.00000000000E+00 -0.10964273475E+04  0.10964273475E+04  0.25500000000E-02 0.  1.
    5000001    1    1    2    0    0 -0.15541897529E+03 -0.37007771610E+03 -0.18122851815E+03  0.47029921287E+03  0.16500000000E+03 0.  0.
   -5000001    1    1    2    0    0  0.15541897529E+03  0.37007771610E+03 -0.70956756326E+03  0.83175940070E+03  0.16500000000E+03 0.  0.
<mgrwt>
<rscale>  0 0.94965203E+03</rscale>
<asrwt>0</asrwt>
<pdfrwt beam="1">  1        2 0.15663248E+00 0.94965203E+03</pdfrwt>
<pdfrwt beam="2">  1       -2 0.29375896E-01 0.94965203E+03</pdfrwt>
<totfact> 0.26119428E+02</totfact>
</mgrwt>
</event>
<event>
 4    1  0.5323640E-005  0.5244569E+03  0.7818608E-02  0.1007585E+00
         -2   -1    0    0    0  501 -0.00000000000E+00  0.00000000000E+00  0.94390012584E+02  0.94390012619E+02  0.25500000000E-02 0. -1.
          2   -1    0    0  501    0  0.00000000000E+00 -0.00000000000E+00 -0.72850687250E+03  0.72850687251E+03  0.25500000000E-02 0.  1.
    5000001    1    1    2    0    0  0.54813591179E+02  0.16313409172E+03 -0.48837573345E+03  0.54346399944E+03  0.16500000000E+03 0.  0.
   -5000001    1    1    2    0    0 -0.54813591179E+02 -0.16313409172E+03 -0.14574112647E+03  0.27943288569E+03  0.16500000000E+03 0.  0.
<mgrwt>
<rscale>  0 0.52445695E+03</rscale>
<asrwt>0</asrwt>
<pdfrwt beam="1">  1        2 0.10407241E+00 0.52445695E+03</pdfrwt>
<pdfrwt beam="2">  1       -2 0.13484288E-01 0.52445695E+03</pdfrwt>
<totfact> 0.17933544E+03</totfact>
</mgrwt>
</event>
<event>
 4    1  0.5323640E-005  0.4447209E+03  0.7818608E-02  0.1029308E+00
          2   -1    0    0  501    0  0.00000000000E+00  0.00000000000E+00  0.40962976871E+03  0.40962976872E+03  0.25500000000E-02 0.  1.
         -2   -1    0    0    0  501 -0.00000000000E+00 -0.00000000000E+00 -0.12070454444E+03  0.12070454447E+03  0.25500000000E-02 0. -1.
    5000001    1    1    2    0    0 -0.56996034901E+02 -0.13474366122E+03  0.11042333572E+03  0.24662261718E+03  0.16500000000E+03 0.  0.
   -5000001    1    1    2    0    0  0.56996034901E+02  0.13474366122E+03  0.17850188855E+03  0.28371169601E+03  0.16500000000E+03 0.  0.
<mgrwt>
<rscale>  0 0.44472092E+03</rscale>
<asrwt>0</asrwt>
<pdfrwt beam="1">  1        2 0.58518539E-01 0.44472092E+03</pdfrwt>
<pdfrwt beam="2">  1       -2 0.17243506E-01 0.44472092E+03</pdfrwt>
<totfact> 0.23032100E+03</totfact>
</mgrwt>
</event>
<event>
 4    1  0.5323640E-005  0.9065956E+03  0.7818608E-02  0.9417374E-01
          2   -1    0    0  501    0  0.00000000000E+00  0.00000000000E+00  0.23994623315E+04  0.23994623315E+04  0.25500000000E-02 0.  1.
         -2   -1    0    0    0  501 -0.00000000000E+00 -0.00000000000E+00 -0.85635390927E+02  0.85635390965E+02  0.25500000000E-02 0. -1.
    5000001    1    1    2    0    0  0.36440908328E+02  0.36474725042E+03  0.58267816894E+03  0.70788935933E+03  0.16500000000E+03 0.  0.
   -5000001    1    1    2    0    0 -0.36440908328E+02 -0.36474725042E+03  0.17311487716E+04  0.17772083631E+04  0.16500000000E+03 0.  0.
<mgrwt>
<rscale>  0 0.90659560E+03</rscale>
<asrwt>0</asrwt>
<pdfrwt beam="1">  1        2 0.34278028E+00 0.90659560E+03</pdfrwt>
<pdfrwt beam="2">  1       -2 0.12233629E-01 0.90659560E+03</pdfrwt>
<totfact> 0.24952879E+02</totfact>
</mgrwt>
</event>
<event>
 4    1  0.5323640E-005  0.4946306E+03  0.7818608E-02  0.1015190E+00
         -2   -1    0    0    0  501 -0.00000000000E+00  0.00000000000E+00  0.90138770976E+03  0.90138770976E+03  0.25500000000E-02 0. -1.
          2   -1    0    0  501    0  0.00000000000E+00 -0.00000000000E+00 -0.67856329399E+02  0.67856329447E+02  0.25500000000E-02 0.  1.
    5000001    1    1    2    0    0 -0.60084622557E+02 -0.15276098041E+03  0.58063899125E+03  0.62554993179E+03  0.16500000000E+03 0.  0.
   -5000001    1    1    2    0    0  0.60084622557E+02  0.15276098041E+03  0.25289238912E+03  0.34369410742E+03  0.16500000000E+03 0.  0.
<mgrwt>
<rscale>  0 0.49463062E+03</rscale>
<asrwt>0</asrwt>
<pdfrwt beam="1">  1        2 0.96937614E-02 0.49463062E+03</pdfrwt>
<pdfrwt beam="2">  1       -2 0.12876967E+00 0.49463062E+03</pdfrwt>
<totfact> 0.31182707E+02</totfact>
</mgrwt>
</event>
<event>
 4    1  0.5323640E-005  0.4306881E+03  0.7818608E-02  0.1033643E+00
          2   -1    0    0  501    0  0.00000000000E+00  0.00000000000E+00  0.85151598721E+03  0.85151598721E+03  0.25500000000E-02 0.  1.
         -2   -1    0    0    0  501 -0.00000000000E+00 -0.00000000000E+00 -0.54459404491E+02  0.54459404551E+02  0.25500000000E-02 0. -1.
    5000001    1    1    2    0    0 -0.30286284459E+02  0.57892489973E+02  0.65512089881E+03  0.67873204689E+03  0.16500000000E+03 0.  0.
   -5000001    1    1    2    0    0  0.30286284459E+02 -0.57892489973E+02  0.14193568391E+03  0.22724334487E+03  0.16500000000E+03 0.  0.
<mgrwt>
<rscale>  0 0.43068807E+03</rscale>
<asrwt>0</asrwt>
<pdfrwt beam="1">  1        2 0.12164516E+00 0.43068807E+03</pdfrwt>
<pdfrwt beam="2">  1       -2 0.77799140E-02 0.43068807E+03</pdfrwt>
<totfact> 0.35803259E+03</totfact>
</mgrwt>
</event>
<event>
 4    1  0.5323640E-005  0.1186541E+04  0.7818608E-02  0.9124719E-01
          2   -1    0    0  501    0  0.00000000000E+00  0.00000000000E+00  0.24032906722E+04  0.24032906722E+04  0.25500000000E-02 0.  1.
         -2   -1    0    0    0  501 -0.00000000000E+00 -0.00000000000E+00 -0.14645339404E+03  0.14645339406E+03  0.25500000000E-02 0. -1.
    5000001    1    1    2    0    0 -0.83808494349E+02 -0.32696613265E+03  0.21150702257E+04  0.21481801077E+04  0.16500000000E+03 0.  0.
   -5000001    1    1    2    0    0  0.83808494349E+02  0.32696613265E+03  0.14176705245E+03  0.40156395852E+03  0.16500000000E+03 0.  0.
<mgrwt>
<rscale>  0 0.11865413E+04</rscale>
<asrwt>0</asrwt>
<pdfrwt beam="1">  1        2 0.34332721E+00 0.11865413E+04</pdfrwt>
<pdfrwt beam="2">  1       -2 0.20921915E-01 0.11865413E+04</pdfrwt>
<totfact> 0.97002272E+01</totfact>
</mgrwt>
</event>
<event>
 4    1  0.5323640E-005  0.8213009E+03  0.7818608E-02  0.9529687E-01
         -2   -1    0    0    0  501 -0.00000000000E+00  0.00000000000E+00  0.11879725581E+03  0.11879725584E+03  0.25500000000E-02 0. -1.
          2   -1    0    0  501    0  0.00000000000E+00 -0.00000000000E+00 -0.14195090346E+04  0.14195090346E+04  0.25500000000E-02 0.  1.
    5000001    1    1    2    0    0  0.35572609710E+03 -0.77504257791E+02 -0.47404574888E+03  0.62007446179E+03  0.16500000000E+03 0.  0.
   -5000001    1    1    2    0    0 -0.35572609710E+03  0.77504257791E+02 -0.82666602988E+03  0.91823182862E+03  0.16500000000E+03 0.  0.
<mgrwt>
<rscale>  0 0.82130087E+03</rscale>
<asrwt>0</asrwt>
<pdfrwt beam="1">  1        2 0.20278699E+00 0.82130087E+03</pdfrwt>
<pdfrwt beam="2">  1       -2 0.16971037E-01 0.82130087E+03</pdfrwt>
<totfact> 0.46068145E+02</totfact>
</mgrwt>
</event>
<event>
 4    1  0.5323640E-005  0.8743511E+03  0.7818608E-02  0.9458224E-01
          2   -1    0    0  501    0  0.00000000000E+00  0.00000000000E+00  0.31069161779E+04  0.31069161779E+04  0.25500000000E-02 0.  1.
         -2   -1    0    0    0  501 -0.00000000000E+00 -0.00000000000E+00 -0.61515167763E+02  0.61515167816E+02  0.25500000000E-02 0. -1.
    5000001    1    1    2    0    0  0.26048942671E+03  0.26817999633E+03  0.20855173031E+04  0.21251782686E+04  0.16500000000E+03 0.  0.
   -5000001    1    1    2    0    0 -0.26048942671E+03 -0.26817999633E+03  0.95988370707E+03  0.10432530771E+04  0.16500000000E+03 0.  0.
<mgrwt>
<rscale>  0 0.87435112E+03</rscale>
<asrwt>0</asrwt>
<pdfrwt beam="1">  1        2 0.44384522E+00 0.87435112E+03</pdfrwt>
<pdfrwt beam="2">  1       -2 0.87878800E-02 0.87435112E+03</pdfrwt>
<totfact> 0.18016717E+02</totfact>
</mgrwt>
</event>
<event>
 4    1  0.5323640E-005  0.4175533E+03  0.7818608E-02  0.1037866E+00
          2   -1    0    0  501    0  0.00000000000E+00  0.00000000000E+00  0.23880170539E+04  0.23880170539E+04  0.25500000000E-02 0.  1.
         -2   -1    0    0    0  501 -0.00000000000E+00 -0.00000000000E+00 -0.18252666859E+02  0.18252667038E+02  0.25500000000E-02 0. -1.
    5000001    1    1    2    0    0  0.66271951899E+02 -0.10598920358E+03  0.13413285003E+04  0.13572077323E+04  0.16500000000E+03 0.  0.
   -5000001    1    1    2    0    0 -0.66271951899E+02  0.10598920358E+03  0.10284358867E+04  0.10490619886E+04  0.16500000000E+03 0.  0.
<mgrwt>
<rscale>  0 0.41755325E+03</rscale>
<asrwt>0</asrwt>
<pdfrwt beam="1">  1        2 0.34114538E+00 0.41755325E+03</pdfrwt>
<pdfrwt beam="2">  1       -2 0.26075232E-02 0.41755325E+03</pdfrwt>
<totfact> 0.29535330E+03</totfact>
</mgrwt>
</event>
<event>
 4    1  0.5323640E-005  0.4836343E+03  0.7818608E-02  0.1018141E+00
         -2   -1    0    0    0  501 -0.00000000000E+00  0.00000000000E+00  0.10918068022E+03  0.10918068025E+03  0.25500000000E-02 0. -1.
          2   -1    0    0  501    0  0.00000000000E+00 -0.00000000000E+00 -0.53558494220E+03  0.53558494221E+03  0.25500000000E-02 0.  1.
    5000001    1    1    2    0    0 -0.28386685729E+02 -0.16250516119E+03 -0.29790600134E+03  0.37840020742E+03  0.16500000000E+03 0.  0.
   -5000001    1    1    2    0    0  0.28386685729E+02  0.16250516119E+03 -0.12849826064E+03  0.26636541504E+03  0.16500000000E+03 0.  0.
<mgrwt>
<rscale>  0 0.48363428E+03</rscale>
<asrwt>0</asrwt>
<pdfrwt beam="1">  1        2 0.76512133E-01 0.48363428E+03</pdfrwt>
<pdfrwt beam="2">  1       -2 0.15597240E-01 0.48363428E+03</pdfrwt>
<totfact> 0.20227367E+03</totfact>
</mgrwt>
</event>
<event>
 4    1  0.5323640E-005  0.4195457E+03  0.7818608E-02  0.1037214E+00
         -2   -1    0    0    0  501 -0.00000000000E+00  0.00000000000E+00  0.23386067428E+02  0.23386067567E+02  0.25500000000E-02 0. -1.
          2   -1    0    0  501    0  0.00000000000E+00 -0.00000000000E+00 -0.18816609286E+04  0.18816609286E+04  0.25500000000E-02 0.  1.
    5000001    1    1    2    0    0 -0.30668781763E+02  0.12569484797E+03 -0.95781264965E+03  0.98049469188E+03  0.16500000000E+03 0.  0.
   -5000001    1    1    2    0    0  0.30668781763E+02 -0.12569484797E+03 -0.90046221153E+03  0.92455230430E+03  0.16500000000E+03 0.  0.
<mgrwt>
<rscale>  0 0.41954570E+03</rscale>
<asrwt>0</asrwt>
<pdfrwt beam="1">  1        2 0.26880861E+00 0.41954570E+03</pdfrwt>
<pdfrwt beam="2">  1       -2 0.33408680E-02 0.41954570E+03</pdfrwt>
<totfact> 0.36315429E+03</totfact>
</mgrwt>
</event>
<event>
 4    1  0.5323640E-005  0.7305425E+03  0.7818608E-02  0.9666381E-01
          2   -1    0    0  501    0  0.00000000000E+00  0.00000000000E+00  0.17103422705E+04  0.17103422705E+04  0.25500000000E-02 0.  1.
         -2   -1    0    0    0  501 -0.00000000000E+00 -0.00000000000E+00 -0.78009571810E+02  0.78009571852E+02  0.25500000000E-02 0. -1.
    5000001    1    1    2    0    0  0.63640064474E+02  0.27690992852E+03  0.12068386492E+04  0.12507652424E+04  0.16500000000E+03 0.  0.
   -5000001    1    1    2    0    0 -0.63640064474E+02 -0.27690992852E+03  0.42549404943E+03  0.53758659992E+03  0.16500000000E+03 0.  0.
<mgrwt>
<rscale>  0 0.73054245E+03</rscale>
<asrwt>0</asrwt>
<pdfrwt beam="1">  1        2 0.24433460E+00 0.73054245E+03</pdfrwt>
<pdfrwt beam="2">  1       -2 0.11144225E-01 0.73054245E+03</pdfrwt>
<totfact> 0.66086069E+02</totfact>
</mgrwt>
</event>
<event>
 4    1  0.5323640E-005  0.5610079E+03  0.7818608E-02  0.9989777E-01
         -2   -1    0    0    0  501 -0.00000000000E+00  0.00000000000E+00  0.21051148954E+02  0.21051149108E+02  0.25500000000E-02 0. -1.
          2   -1    0    0  501    0  0.00000000000E+00 -0.00000000000E+00 -0.37376803998E+04  0.37376803998E+04  0.25500000000E-02 0.  1.
    5000001    1    1    2    0    0 -0.13094898891E+03  0.18468376206E+03 -0.19534770736E+04  0.19734622892E+04  0.16500000000E+03 0.  0.
   -5000001    1    1    2    0    0  0.13094898891E+03 -0.18468376206E+03 -0.17631521772E+04  0.17852692597E+04  0.16500000000E+03 0.  0.
<mgrwt>
<rscale>  0 0.56100790E+03</rscale>
<asrwt>0</asrwt>
<pdfrwt beam="1">  1        2 0.53395392E+00 0.56100790E+03</pdfrwt>
<pdfrwt beam="2">  1       -2 0.30073094E-02 0.56100790E+03</pdfrwt>
<totfact> 0.42340084E+02</totfact>
</mgrwt>
</event>
<event>
 4    1  0.5323640E-005  0.4144950E+03  0.7818608E-02  0.1038873E+00
          2   -1    0    0  501    0  0.00000000000E+00  0.00000000000E+00  0.72573481372E+02  0.72573481417E+02  0.25500000000E-02 0.  1.
         -2   -1    0    0    0  501 -0.00000000000E+00 -0.00000000000E+00 -0.59183495534E+03  0.59183495535E+03  0.25500000000E-02 0. -1.
    5000001    1    1    2    0    0 -0.10051904260E+03  0.49899974756E+02 -0.16991738561E+03  0.26208968567E+03  0.16500000000E+03 0.  0.
   -5000001    1    1    2    0    0  0.10051904260E+03 -0.49899974756E+02 -0.34934408836E+03  0.40231875109E+03  0.16500000000E+03 0.  0.
<mgrwt>
<rscale>  0 0.41449498E+03</rscale>
<asrwt>0</asrwt>
<pdfrwt beam="1">  1        2 0.10367641E-01 0.41449498E+03</pdfrwt>
<pdfrwt beam="2">  1       -2 0.84547848E-01 0.41449498E+03</pdfrwt>
<totfact> 0.77698499E+02</totfact>
</mgrwt>
</event>
<event>
 4    1  0.5323640E-005  0.4034309E+03  0.7818608E-02  0.1042598E+00
          2   -1    0    0  501    0  0.00000000000E+00  0.00000000000E+00  0.94290484899E+03  0.94290484899E+03  0.25500000000E-02 0. -1.
         -2   -1    0    0    0  501 -0.00000000000E+00 -0.00000000000E+00 -0.43152943105E+02  0.43152943181E+02  0.25500000000E-02 0.  1.
    5000001    1    1    2    0    0  0.11159016450E+03 -0.30101546354E+02  0.42475298587E+03  0.47010484672E+03  0.16500000000E+03 0.  0.
   -5000001    1    1    2    0    0 -0.11159016450E+03  0.30101546354E+02  0.47499892001E+03  0.51595294545E+03  0.16500000000E+03 0.  0.
<mgrwt>
<rscale>  0 0.40343088E+03</rscale>
<asrwt>0</asrwt>
<pdfrwt beam="1">  1        2 0.13470070E+00 0.40343088E+03</pdfrwt>
<pdfrwt beam="2">  1       -2 0.61647060E-02 0.40343088E+03</pdfrwt>
<totfact> 0.45028022E+03</totfact>
</mgrwt>
</event>
<event>
 4    1  0.5323640E-005  0.4465055E+03  0.7818608E-02  0.1028769E+00
         -2   -1    0    0    0  501 -0.00000000000E+00  0.00000000000E+00  0.17592750035E+02  0.17592750220E+02  0.25500000000E-02 0. -1.
          2   -1    0    0  501    0  0.00000000000E+00 -0.00000000000E+00 -0.28330870625E+04  0.28330870625E+04  0.25500000000E-02 0.  1.
    5000001    1    1    2    0    0 -0.48361552121E+02  0.14585304520E+02 -0.50338245882E+03  0.53213764261E+03  0.16500000000E+03 0.  0.
   -5000001    1    1    2    0    0  0.48361552121E+02 -0.14585304520E+02 -0.23121118536E+04  0.23185421701E+04  0.16500000000E+03 0.  0.
<mgrwt>
<rscale>  0 0.44650551E+03</rscale>
<asrwt>0</asrwt>
<pdfrwt beam="1">  1        2 0.40472643E+00 0.44650551E+03</pdfrwt>
<pdfrwt beam="2">  1       -2 0.25132518E-02 0.44650551E+03</pdfrwt>
<totfact> 0.18412299E+03</totfact>
</mgrwt>
</event>
<event>
 4    1  0.5323640E-005  0.3704868E+03  0.7818608E-02  0.1054507E+00
          2   -1    0    0  501    0  0.00000000000E+00  0.00000000000E+00  0.82292323603E+03  0.82292323603E+03  0.25500000000E-02 0.  1.
         -2   -1    0    0    0  501 -0.00000000000E+00 -0.00000000000E+00 -0.41699053731E+02  0.41699053809E+02  0.25500000000E-02 0. -1.
    5000001    1    1    2    0    0 -0.42070709202E+02  0.67029843851E+02  0.32349199635E+03  0.37166519375E+03  0.16500000000E+03 0.  0.
   -5000001    1    1    2    0    0  0.42070709202E+02 -0.67029843851E+02  0.45773218594E+03  0.49295709609E+03  0.16500000000E+03 0.  0.
<mgrwt>
<rscale>  0 0.37048682E+03</rscale>
<asrwt>0</asrwt>
<pdfrwt beam="1">  1        2 0.11756045E+00 0.37048682E+03</pdfrwt>
<pdfrwt beam="2">  1       -2 0.59570082E-02 0.37048682E+03</pdfrwt>
<totfact> 0.56624585E+03</totfact>
</mgrwt>
</event>
<event>
 4    1  0.5323640E-005  0.4069677E+03  0.7818608E-02  0.1041393E+00
         -2   -1    0    0    0  501 -0.00000000000E+00  0.00000000000E+00  0.18489474176E+02  0.18489474352E+02  0.25500000000E-02 0. -1.
          2   -1    0    0  501    0  0.00000000000E+00 -0.00000000000E+00 -0.22394189781E+04  0.22394189781E+04  0.25500000000E-02 0.  1.
    5000001    1    1    2    0    0 -0.66194492408E+01 -0.11867320222E+03 -0.10698709882E+04  0.10890252878E+04  0.16500000000E+03 0.  0.
   -5000001    1    1    2    0    0  0.66194492408E+01  0.11867320222E+03 -0.11510585157E+04  0.11688831647E+04  0.16500000000E+03 0.  0.
<mgrwt>
<rscale>  0 0.40696771E+03</rscale>
<asrwt>0</asrwt>
<pdfrwt beam="1">  1        2 0.31991682E+00 0.40696771E+03</pdfrwt>
<pdfrwt beam="2">  1       -2 0.26413549E-02 0.40696771E+03</pdfrwt>
<totfact> 0.34388262E+03</totfact>
</mgrwt>
</event>
<event>
 4    1  0.5323640E-005  0.3980999E+03  0.7818608E-02  0.1044440E+00
          2   -1    0    0  501    0  0.00000000000E+00  0.00000000000E+00  0.92107533081E+02  0.92107533117E+02  0.25500000000E-02 0.  1.
         -2   -1    0    0    0  501 -0.00000000000E+00 -0.00000000000E+00 -0.43015892020E+03  0.43015892021E+03  0.25500000000E-02 0. -1.
    5000001    1    1    2    0    0  0.38821688936E+02 -0.10423191649E+03 -0.17551409210E+03  0.26533302183E+03  0.16500000000E+03 0.  0.
   -5000001    1    1    2    0    0 -0.38821688936E+02  0.10423191649E+03 -0.16253729502E+03  0.25693343150E+03  0.16500000000E+03 0.  0.
<mgrwt>
<rscale>  0 0.39809987E+03</rscale>
<asrwt>0</asrwt>
<pdfrwt beam="1">  1        2 0.13158219E-01 0.39809987E+03</pdfrwt>
<pdfrwt beam="2">  1       -2 0.61451273E-01 0.39809987E+03</pdfrwt>
<totfact> 0.11573334E+03</totfact>
</mgrwt>
</event>
<event>
 4    1  0.5323640E-005  0.4338634E+03  0.7818608E-02  0.1032646E+00
          2   -1    0    0  501    0  0.00000000000E+00  0.00000000000E+00  0.11435257313E+04  0.11435257313E+04  0.25500000000E-02 0.  1.
         -2   -1    0    0    0  501 -0.00000000000E+00 -0.00000000000E+00 -0.41152860330E+02  0.41152860409E+02  0.25500000000E-02 0. -1.
    5000001    1    1    2    0    0 -0.10475051586E+03  0.44437987088E+02  0.32458585954E+03  0.38148182851E+03  0.16500000000E+03 0.  0.
   -5000001    1    1    2    0    0  0.10475051586E+03 -0.44437987088E+02  0.77778701144E+03  0.80319676321E+03  0.16500000000E+03 0.  0.
<mgrwt>
<rscale>  0 0.43386336E+03</rscale>
<asrwt>0</asrwt>
<pdfrwt beam="1">  1        2 0.16336079E+00 0.43386336E+03</pdfrwt>
<pdfrwt beam="2">  1       -2 0.58789811E-02 0.43386336E+03</pdfrwt>
<totfact> 0.36940402E+03</totfact>
</mgrwt>
</event>
<event>
 4    1  0.5323640E-005  0.8479465E+03  0.7818608E-02  0.9493097E-01
          2   -1    0    0  501    0  0.00000000000E+00  0.00000000000E+00  0.96297467858E+03  0.96297467859E+03  0.25500000000E-02 0.  1.
         -2   -1    0    0    0  501 -0.00000000000E+00 -0.00000000000E+00 -0.18666461716E+03  0.18666461718E+03  0.25500000000E-02 0. -1.
    5000001    1    1    2    0    0  0.32826245859E+03  0.21123647384E+03  0.40482687355E+03  0.58607754363E+03  0.16500000000E+03 0.  0.
   -5000001    1    1    2    0    0 -0.32826245859E+03 -0.21123647384E+03  0.37148318787E+03  0.56356175214E+03  0.16500000000E+03 0.  0.
<mgrwt>
<rscale>  0 0.84794646E+03</rscale>
<asrwt>0</asrwt>
<pdfrwt beam="1">  1        2 0.13756781E+00 0.84794646E+03</pdfrwt>
<pdfrwt beam="2">  1       -2 0.26666374E-01 0.84794646E+03</pdfrwt>
<totfact> 0.37801851E+02</totfact>
</mgrwt>
</event>
<event>
 4    1  0.5323640E-005  0.6198320E+03  0.7818608E-02  0.9865094E-01
          2   -1    0    0  501    0  0.00000000000E+00  0.00000000000E+00  0.11657331953E+04  0.11657331953E+04  0.25500000000E-02 0.  1.
         -2   -1    0    0    0  501 -0.00000000000E+00 -0.00000000000E+00 -0.82392722081E+02  0.82392722120E+02  0.25500000000E-02 0. -1.
    5000001    1    1    2    0    0  0.19019599506E+03 -0.14355751394E+03  0.76261891949E+03  0.81584060497E+03  0.16500000000E+03 0.  0.
   -5000001    1    1    2    0    0 -0.19019599506E+03  0.14355751394E+03  0.32072155374E+03  0.43228531247E+03  0.16500000000E+03 0.  0.
<mgrwt>
<rscale>  0 0.61983201E+03</rscale>
<asrwt>0</asrwt>
<pdfrwt beam="1">  1        2 0.16653333E+00 0.61983201E+03</pdfrwt>
<pdfrwt beam="2">  1       -2 0.11770388E-01 0.61983201E+03</pdfrwt>
<totfact> 0.11835942E+03</totfact>
</mgrwt>
</event>
<event>
 4    1  0.5323640E-005  0.4207431E+03  0.7818608E-02  0.1036825E+00
         -2   -1    0    0    0  501 -0.00000000000E+00  0.00000000000E+00  0.17402926242E+02  0.17402926429E+02  0.25500000000E-02 0. -1.
          2   -1    0    0  501    0  0.00000000000E+00 -0.00000000000E+00 -0.25430313300E+04  0.25430313300E+04  0.25500000000E-02 0.  1.
    5000001    1    1    2    0    0  0.99762829035E+02  0.53870776455E+02 -0.86953307712E+03  0.89228216099E+03  0.16500000000E+03 0.  0.
   -5000001    1    1    2    0    0 -0.99762829035E+02 -0.53870776455E+02 -0.16560953266E+04  0.16681520954E+04  0.16500000000E+03 0.  0.
<mgrwt>
<rscale>  0 0.42074309E+03</rscale>
<asrwt>0</asrwt>
<pdfrwt beam="1">  1        2 0.36328995E+00 0.42074309E+03</pdfrwt>
<pdfrwt beam="2">  1       -2 0.24861339E-02 0.42074309E+03</pdfrwt>
<totfact> 0.26481878E+03</totfact>
</mgrwt>
</event>
<event>
 4    1  0.5323640E-005  0.6989241E+03  0.7818608E-02  0.9719074E-01
         -2   -1    0    0    0  501 -0.00000000000E+00  0.00000000000E+00  0.38456641301E+03  0.38456641302E+03  0.25500000000E-02 0. -1.
          2   -1    0    0  501    0  0.00000000000E+00 -0.00000000000E+00 -0.31756213138E+03  0.31756213139E+03  0.25500000000E-02 0.  1.
    5000001    1    1    2    0    0 -0.30746760802E+03 -0.17999104021E+02  0.27274359166E+02  0.35046995363E+03  0.16500000000E+03 0.  0.
   -5000001    1    1    2    0    0  0.30746760802E+03  0.17999104021E+02  0.39729922469E+02  0.35165859078E+03  0.16500000000E+03 0.  0.
<mgrwt>
<rscale>  0 0.69892412E+03</rscale>
<asrwt>0</asrwt>
<pdfrwt beam="1">  1        2 0.45366019E-01 0.69892412E+03</pdfrwt>
<pdfrwt beam="2">  1       -2 0.54938059E-01 0.69892412E+03</pdfrwt>
<totfact> 0.35179773E+02</totfact>
</mgrwt>
</event>
<event>
 4    1  0.5323640E-005  0.5577562E+03  0.7818608E-02  0.9997145E-01
         -2   -1    0    0    0  501 -0.00000000000E+00  0.00000000000E+00  0.32613687658E+03  0.32613687659E+03  0.25500000000E-02 0. -1.
          2   -1    0    0  501    0  0.00000000000E+00 -0.00000000000E+00 -0.23846732261E+03  0.23846732262E+03  0.25500000000E-02 0.  1.
    5000001    1    1    2    0    0  0.21974577799E+03  0.46068951687E+02  0.31967680807E+02  0.28045942286E+03  0.16500000000E+03 0.  0.
   -5000001    1    1    2    0    0 -0.21974577799E+03 -0.46068951687E+02  0.55701873169E+02  0.28414477635E+03  0.16500000000E+03 0.  0.
<mgrwt>
<rscale>  0 0.55775618E+03</rscale>
<asrwt>0</asrwt>
<pdfrwt beam="1">  1        2 0.34066760E-01 0.55775618E+03</pdfrwt>
<pdfrwt beam="2">  1       -2 0.46590983E-01 0.55775618E+03</pdfrwt>
<totfact> 0.67736129E+02</totfact>
</mgrwt>
</event>
<event>
 4    1  0.5323640E-005  0.5321770E+03  0.7818608E-02  0.1005706E+00
          2   -1    0    0  501    0  0.00000000000E+00  0.00000000000E+00  0.25721817526E+03  0.25721817528E+03  0.25500000000E-02 0.  1.
         -2   -1    0    0    0  501 -0.00000000000E+00 -0.00000000000E+00 -0.27526468180E+03  0.27526468181E+03  0.25500000000E-02 0. -1.
    5000001    1    1    2    0    0 -0.17575874951E+03  0.32947564131E+02  0.98748450080E+02  0.26258891143E+03  0.16500000000E+03 0.  0.
   -5000001    1    1    2    0    0  0.17575874951E+03 -0.32947564131E+02 -0.11679495662E+03  0.26989394566E+03  0.16500000000E+03 0.  0.
<mgrwt>
<rscale>  0 0.53217696E+03</rscale>
<asrwt>0</asrwt>
<pdfrwt beam="1">  1        2 0.36745454E-01 0.53217696E+03</pdfrwt>
<pdfrwt beam="2">  1       -2 0.39323526E-01 0.53217696E+03</pdfrwt>
<totfact> 0.86890879E+02</totfact>
</mgrwt>
</event>
<event>
 4    1  0.5323640E-005  0.5084203E+03  0.7818608E-02  0.1011604E+00
          2   -1    0    0  501    0  0.00000000000E+00  0.00000000000E+00  0.11179247575E+04  0.11179247575E+04  0.25500000000E-02 0.  1.
         -2   -1    0    0    0  501 -0.00000000000E+00 -0.00000000000E+00 -0.57806041249E+02  0.57806041305E+02  0.25500000000E-02 0. -1.
    5000001    1    1    2    0    0 -0.94582364909E+02 -0.16353799293E+03  0.43450716596E+03  0.50170905528E+03  0.16500000000E+03 0.  0.
   -5000001    1    1    2    0    0  0.94582364909E+02  0.16353799293E+03  0.62561155028E+03  0.67402174351E+03  0.16500000000E+03 0.  0.
<mgrwt>
<rscale>  0 0.50842032E+03</rscale>
<asrwt>0</asrwt>
<pdfrwt beam="1">  1        2 0.15970355E+00 0.50842032E+03</pdfrwt>
<pdfrwt beam="2">  1       -2 0.82580053E-02 0.50842032E+03</pdfrwt>
<totfact> 0.22402339E+03</totfact>
</mgrwt>
</event>
<event>
 4    1  0.5323640E-005  0.4370249E+03  0.7818608E-02  0.1031664E+00
         -2   -1    0    0    0  501 -0.00000000000E+00  0.00000000000E+00  0.21479489072E+02  0.21479489224E+02  0.25500000000E-02 0. -1.
          2   -1    0    0  501    0  0.00000000000E+00 -0.00000000000E+00 -0.22229436916E+04  0.22229436916E+04  0.25500000000E-02 0.  1.
    5000001    1    1    2    0    0  0.14197994746E+03 -0.18756252733E+02 -0.10825077162E+04  0.11043360259E+04  0.16500000000E+03 0.  0.
   -5000001    1    1    2    0    0 -0.14197994746E+03  0.18756252733E+02 -0.11189564863E+04  0.11400871549E+04  0.16500000000E+03 0.  0.
<mgrwt>
<rscale>  0 0.43702492E+03</rscale>
<asrwt>0</asrwt>
<pdfrwt beam="1">  1        2 0.31756324E+00 0.43702492E+03</pdfrwt>
<pdfrwt beam="2">  1       -2 0.30684999E-02 0.43702492E+03</pdfrwt>
<totfact> 0.27938351E+03</totfact>
</mgrwt>
</event>
<event>
 4    1  0.5323640E-005  0.4792217E+03  0.7818608E-02  0.1019349E+00
          2   -1    0    0  501    0  0.00000000000E+00  0.00000000000E+00  0.46345164248E+03  0.46345164249E+03  0.25500000000E-02 0.  1.
         -2   -1    0    0    0  501 -0.00000000000E+00 -0.00000000000E+00 -0.12388208181E+03  0.12388208184E+03  0.25500000000E-02 0. -1.
    5000001    1    1    2    0    0 -0.18969269755E+02  0.16988468119E+03  0.13165867103E+03  0.27162408537E+03  0.16500000000E+03 0.  0.
   -5000001    1    1    2    0    0  0.18969269755E+02 -0.16988468119E+03  0.20791088964E+03  0.31570963895E+03  0.16500000000E+03 0.  0.
<mgrwt>
<rscale>  0 0.47922168E+03</rscale>
<asrwt>0</asrwt>
<pdfrwt beam="1">  1        2 0.66207377E-01 0.47922168E+03</pdfrwt>
<pdfrwt beam="2">  1       -2 0.17697440E-01 0.47922168E+03</pdfrwt>
<totfact> 0.19227747E+03</totfact>
</mgrwt>
</event>
<event>
 4    1  0.5323640E-005  0.3694235E+03  0.7818608E-02  0.1054914E+00
         -2   -1    0    0    0  501 -0.00000000000E+00  0.00000000000E+00  0.10831658554E+03  0.10831658557E+03  0.25500000000E-02 0. -1.
          2   -1    0    0  501    0  0.00000000000E+00 -0.00000000000E+00 -0.31498799858E+03  0.31498799860E+03  0.25500000000E-02 0.  1.
    5000001    1    1    2    0    0  0.72916447950E+02  0.39310876348E+02 -0.10974337748E+03  0.21478073071E+03  0.16500000000E+03 0.  0.
   -5000001    1    1    2    0    0 -0.72916447950E+02 -0.39310876348E+02 -0.96928035566E+02  0.20852385345E+03  0.16500000000E+03 0.  0.
<mgrwt>
<rscale>  0 0.36942347E+03</rscale>
<asrwt>0</asrwt>
<pdfrwt beam="1">  1        2 0.44998285E-01 0.36942347E+03</pdfrwt>
<pdfrwt beam="2">  1       -2 0.15473798E-01 0.36942347E+03</pdfrwt>
<totfact> 0.36723059E+03</totfact>
</mgrwt>
</event>
<event>
 4    1  0.5323640E-005  0.6445271E+03  0.7818608E-02  0.9817103E-01
         -2   -1    0    0    0  501 -0.00000000000E+00  0.00000000000E+00  0.80387702135E+02  0.80387702176E+02  0.25500000000E-02 0. -1.
          2   -1    0    0  501    0  0.00000000000E+00 -0.00000000000E+00 -0.12919116633E+04  0.12919116634E+04  0.25500000000E-02 0.  1.
    5000001    1    1    2    0    0 -0.38273382093E+02  0.24788344137E+03 -0.35638910451E+03  0.46599275327E+03  0.16500000000E+03 0.  0.
   -5000001    1    1    2    0    0  0.38273382093E+02 -0.24788344137E+03 -0.85513485670E+03  0.90630661226E+03  0.16500000000E+03 0.  0.
<mgrwt>
<rscale>  0 0.64452714E+03</rscale>
<asrwt>0</asrwt>
<pdfrwt beam="1">  1        2 0.18455880E+00 0.64452714E+03</pdfrwt>
<pdfrwt beam="2">  1       -2 0.11483958E-01 0.64452714E+03</pdfrwt>
<totfact> 0.10476664E+03</totfact>
</mgrwt>
</event>
<event>
 4    1  0.5323640E-005  0.7016805E+03  0.7818608E-02  0.9714363E-01
         -2   -1    0    0    0  501 -0.00000000000E+00  0.00000000000E+00  0.10324202115E+03  0.10324202118E+03  0.25500000000E-02 0. -1.
          2   -1    0    0  501    0  0.00000000000E+00 -0.00000000000E+00 -0.11922362803E+04  0.11922362803E+04  0.25500000000E-02 0.  1.
    5000001    1    1    2    0    0  0.15338570195E+03 -0.25184244923E+03 -0.71879036245E+03  0.79425208715E+03  0.16500000000E+03 0.  0.
   -5000001    1    1    2    0    0 -0.15338570195E+03  0.25184244923E+03 -0.37020389668E+03  0.50122621431E+03  0.16500000000E+03 0.  0.
<mgrwt>
<rscale>  0 0.70168051E+03</rscale>
<asrwt>0</asrwt>
<pdfrwt beam="1">  1        2 0.17031946E+00 0.70168051E+03</pdfrwt>
<pdfrwt beam="2">  1       -2 0.14748861E-01 0.70168051E+03</pdfrwt>
<totfact> 0.78334562E+02</totfact>
</mgrwt>
</event>
<event>
 4    1  0.5323640E-005  0.3801967E+03  0.7818608E-02  0.1050861E+00
         -2   -1    0    0    0  501 -0.00000000000E+00  0.00000000000E+00  0.50725617747E+02  0.50725617811E+02  0.25500000000E-02 0. -1.
          2   -1    0    0  501    0  0.00000000000E+00 -0.00000000000E+00 -0.71240910627E+03  0.71240910628E+03  0.25500000000E-02 0.  1.
    5000001    1    1    2    0    0 -0.64321393548E+02  0.39631871377E+02 -0.44446587959E+03  0.48008628914E+03  0.16500000000E+03 0.  0.
   -5000001    1    1    2    0    0  0.64321393548E+02 -0.39631871377E+02 -0.21721760894E+03  0.28304843495E+03  0.16500000000E+03 0.  0.
<mgrwt>
<rscale>  0 0.38019675E+03</rscale>
<asrwt>0</asrwt>
<pdfrwt beam="1">  1        2 0.10177272E+00 0.38019675E+03</pdfrwt>
<pdfrwt beam="2">  1       -2 0.72465172E-02 0.38019675E+03</pdfrwt>
<totfact> 0.49919242E+03</totfact>
</mgrwt>
</event>
<event>
 4    1  0.5323640E-005  0.8268590E+03  0.7818608E-02  0.9521933E-01
          2   -1    0    0  501    0  0.00000000000E+00  0.00000000000E+00  0.76270696434E+03  0.76270696434E+03  0.25500000000E-02 0.  1.
         -2   -1    0    0    0  501 -0.00000000000E+00 -0.00000000000E+00 -0.22410171960E+03  0.22410171961E+03  0.25500000000E-02 0. -1.
    5000001    1    1    2    0    0  0.36487023160E+03 -0.25041636262E+02  0.15030752595E+03  0.42845620758E+03  0.16500000000E+03 0.  0.
   -5000001    1    1    2    0    0 -0.36487023160E+03  0.25041636262E+02  0.38829771879E+03  0.55835247638E+03  0.16500000000E+03 0.  0.
<mgrwt>
<rscale>  0 0.82685898E+03</rscale>
<asrwt>0</asrwt>
<pdfrwt beam="1">  1        2 0.10895814E+00 0.82685898E+03</pdfrwt>
<pdfrwt beam="2">  1       -2 0.32014531E-01 0.82685898E+03</pdfrwt>
<totfact> 0.36764244E+02</totfact>
</mgrwt>
</event>
<event>
 4    1  0.5323640E-005  0.1598206E+04  0.7818608E-02  0.8821651E-01
         -2   -1    0    0    0  501 -0.00000000000E+00  0.00000000000E+00  0.61487970511E+03  0.61487970511E+03  0.25500000000E-02 0. -1.
          2   -1    0    0  501    0  0.00000000000E+00 -0.00000000000E+00 -0.10385206992E+04  0.10385206992E+04  0.25500000000E-02 0.  1.
    5000001    1    1    2    0    0 -0.60977611235E+03  0.47227583469E+03 -0.34458380919E+03  0.86071735941E+03  0.16500000000E+03 0.  0.
   -5000001    1    1    2    0    0  0.60977611235E+03 -0.47227583469E+03 -0.79057184912E+02  0.79268304492E+03  0.16500000000E+03 0.  0.
<mgrwt>
<rscale>  0 0.15982056E+04</rscale>
<asrwt>0</asrwt>
<pdfrwt beam="1">  1        2 0.14836010E+00 0.15982056E+04</pdfrwt>
<pdfrwt beam="2">  1       -2 0.87839958E-01 0.15982056E+04</pdfrwt>
<totfact> 0.28579861E+01</totfact>
</mgrwt>
</event>
<event>
 4    1  0.5323640E-005  0.8149503E+03  0.7818608E-02  0.9538626E-01
         -2   -1    0    0    0  501 -0.00000000000E+00  0.00000000000E+00  0.31882766483E+03  0.31882766484E+03  0.25500000000E-02 0. -1.
          2   -1    0    0  501    0  0.00000000000E+00 -0.00000000000E+00 -0.52077042169E+03  0.52077042170E+03  0.25500000000E-02 0.  1.
    5000001    1    1    2    0    0  0.13737436412E+03 -0.30099595737E+03 -0.27744336982E+03  0.46224463840E+03  0.16500000000E+03 0.  0.
   -5000001    1    1    2    0    0 -0.13737436412E+03  0.30099595737E+03  0.75500612951E+02  0.37735344815E+03  0.16500000000E+03 0.  0.
<mgrwt>
<rscale>  0 0.81495035E+03</rscale>
<asrwt>0</asrwt>
<pdfrwt beam="1">  1        2 0.74395774E-01 0.81495035E+03</pdfrwt>
<pdfrwt beam="2">  1       -2 0.45546810E-01 0.81495035E+03</pdfrwt>
<totfact> 0.29438720E+02</totfact>
</mgrwt>
</event>
<event>
 4    1  0.5323640E-005  0.5688687E+03  0.7818608E-02  0.9972185E-01
          2   -1    0    0  501    0  0.00000000000E+00  0.00000000000E+00  0.13010406252E+04  0.13010406252E+04  0.25500000000E-02 0.  1.
         -2   -1    0    0    0  501 -0.00000000000E+00 -0.00000000000E+00 -0.62183220584E+02  0.62183220636E+02  0.25500000000E-02 0. -1.
    5000001    1    1    2    0    0  0.88218723142E+02 -0.18713099851E+03  0.36949976306E+03  0.45448391459E+03  0.16500000000E+03 0.  0.
   -5000001    1    1    2    0    0 -0.88218723142E+02  0.18713099851E+03  0.86935764157E+03  0.90873993126E+03  0.16500000000E+03 0.  0.
<mgrwt>
<rscale>  0 0.56886869E+03</rscale>
<asrwt>0</asrwt>
<pdfrwt beam="1">  1        2 0.18586294E+00 0.56886869E+03</pdfrwt>
<pdfrwt beam="2">  1       -2 0.88833176E-02 0.56886869E+03</pdfrwt>
<totfact> 0.15747183E+03</totfact>
</mgrwt>
</event>
<event>
 4    1  0.5323640E-005  0.6723778E+03  0.7818608E-02  0.9765672E-01
          2   -1    0    0  501    0  0.00000000000E+00  0.00000000000E+00  0.26095282824E+04  0.26095282824E+04  0.25500000000E-02 0.  1.
         -2   -1    0    0    0  501 -0.00000000000E+00 -0.00000000000E+00 -0.43311649452E+02  0.43311649527E+02  0.25500000000E-02 0. -1.
    5000001    1    1    2    0    0 -0.75698887163E+02 -0.27425394594E+03  0.15579465455E+04  0.15922838903E+04  0.16500000000E+03 0.  0.
   -5000001    1    1    2    0    0  0.75698887163E+02  0.27425394594E+03  0.10082700874E+04  0.10605560417E+04  0.16500000000E+03 0.  0.
<mgrwt>
<rscale>  0 0.67237779E+03</rscale>
<asrwt>0</asrwt>
<pdfrwt beam="1">  1        2 0.37278984E+00 0.67237779E+03</pdfrwt>
<pdfrwt beam="2">  1       -2 0.61873771E-02 0.67237779E+03</pdfrwt>
<totfact> 0.59441716E+02</totfact>
</mgrwt>
</event>
<event>
 4    1  0.5323640E-005  0.3820025E+03  0.7818608E-02  0.1050196E+00
         -2   -1    0    0    0  501 -0.00000000000E+00  0.00000000000E+00  0.47642698129E+02  0.47642698197E+02  0.25500000000E-02 0. -1.
          2   -1    0    0  501    0  0.00000000000E+00 -0.00000000000E+00 -0.76573062981E+03  0.76573062982E+03  0.25500000000E-02 0.  1.
    5000001    1    1    2    0    0  0.61217385349E+02 -0.39696711917E+02 -0.22551056186E+03  0.28879648668E+03  0.16500000000E+03 0.  0.
   -5000001    1    1    2    0    0 -0.61217385349E+02  0.39696711917E+02 -0.49257736982E+03  0.52457684134E+03  0.16500000000E+03 0.  0.
<mgrwt>
<rscale>  0 0.38200248E+03</rscale>
<asrwt>0</asrwt>
<pdfrwt beam="1">  1        2 0.10939008E+00 0.38200248E+03</pdfrwt>
<pdfrwt beam="2">  1       -2 0.68061002E-02 0.38200248E+03</pdfrwt>
<totfact> 0.50412571E+03</totfact>
</mgrwt>
</event>
<event>
 4    1  0.5323640E-005  0.6642414E+03  0.7818608E-02  0.9780417E-01
         -2   -1    0    0    0  501 -0.00000000000E+00  0.00000000000E+00  0.66033209060E+02  0.66033209109E+02  0.25500000000E-02 0. -1.
          2   -1    0    0  501    0  0.00000000000E+00 -0.00000000000E+00 -0.16704347324E+04  0.16704347324E+04  0.25500000000E-02 0.  1.
    5000001    1    1    2    0    0  0.14610691824E+03  0.22271395640E+03 -0.10901254326E+04  0.11342606388E+04  0.16500000000E+03 0.  0.
   -5000001    1    1    2    0    0 -0.14610691824E+03 -0.22271395640E+03 -0.51427609075E+03  0.60220730272E+03  0.16500000000E+03 0.  0.
<mgrwt>
<rscale>  0 0.66424142E+03</rscale>
<asrwt>0</asrwt>
<pdfrwt beam="1">  1        2 0.23863351E+00 0.66424142E+03</pdfrwt>
<pdfrwt beam="2">  1       -2 0.94333166E-02 0.66424142E+03</pdfrwt>
<totfact> 0.91185287E+02</totfact>
</mgrwt>
</event>
<event>
 4    1  0.5323640E-005  0.4695665E+03  0.7818608E-02  0.1022043E+00
          2   -1    0    0  501    0  0.00000000000E+00  0.00000000000E+00  0.92608410348E+03  0.92608410349E+03  0.25500000000E-02 0.  1.
         -2   -1    0    0    0  501 -0.00000000000E+00 -0.00000000000E+00 -0.59522864744E+02  0.59522864799E+02  0.25500000000E-02 0. -1.
    5000001    1    1    2    0    0  0.16328175100E+03  0.24624581370E+02  0.48600112369E+03  0.53915618558E+03  0.16500000000E+03 0.  0.
   -5000001    1    1    2    0    0 -0.16328175100E+03 -0.24624581370E+02  0.38056011505E+03  0.44645078271E+03  0.16500000000E+03 0.  0.
<mgrwt>
<rscale>  0 0.46956652E+03</rscale>
<asrwt>0</asrwt>
<pdfrwt beam="1">  1        2 0.13229772E+00 0.46956652E+03</pdfrwt>
<pdfrwt beam="2">  1       -2 0.85032667E-02 0.46956652E+03</pdfrwt>
<totfact> 0.27862385E+03</totfact>
</mgrwt>
</event>
<event>
 4    1  0.5323640E-005  0.5224130E+03  0.7818608E-02  0.1008089E+00
          2   -1    0    0  501    0  0.00000000000E+00  0.00000000000E+00  0.20320377037E+03  0.20320377038E+03  0.25500000000E-02 0.  1.
         -2   -1    0    0    0  501 -0.00000000000E+00 -0.00000000000E+00 -0.33576563601E+03  0.33576563602E+03  0.25500000000E-02 0. -1.
    5000001    1    1    2    0    0 -0.10604356562E+03 -0.10001581519E+03 -0.21128944308E+03  0.30515017591E+03  0.16500000000E+03 0.  0.
   -5000001    1    1    2    0    0  0.10604356562E+03  0.10001581519E+03  0.78727577441E+02  0.23381923049E+03  0.16500000000E+03 0.  0.
<mgrwt>
<rscale>  0 0.52241303E+03</rscale>
<asrwt>0</asrwt>
<pdfrwt beam="1">  1        2 0.29029110E-01 0.52241303E+03</pdfrwt>
<pdfrwt beam="2">  1       -2 0.47966519E-01 0.52241303E+03</pdfrwt>
<totfact> 0.76435158E+02</totfact>
</mgrwt>
</event>
<event>
 4    1  0.5323640E-005  0.3626826E+03  0.7818608E-02  0.1057527E+00
          2   -1    0    0  501    0  0.00000000000E+00  0.00000000000E+00  0.28318874516E+04  0.28318874516E+04  0.25500000000E-02 0.  1.
         -2   -1    0    0    0  501 -0.00000000000E+00 -0.00000000000E+00 -0.11612278991E+02  0.11612279271E+02  0.25500000000E-02 0. -1.
    5000001    1    1    2    0    0 -0.66943771238E+02 -0.31573809002E+02  0.15157020507E+04  0.15264521219E+04  0.16500000000E+03 0.  0.
   -5000001    1    1    2    0    0  0.66943771238E+02  0.31573809002E+02  0.13045731219E+04  0.13170476090E+04  0.16500000000E+03 0.  0.
<mgrwt>
<rscale>  0 0.36268260E+03</rscale>
<asrwt>0</asrwt>
<pdfrwt beam="1">  1        2 0.40455570E+00 0.36268260E+03</pdfrwt>
<pdfrwt beam="2">  1       -2 0.16588956E-02 0.36268260E+03</pdfrwt>
<totfact> 0.34426437E+03</totfact>
</mgrwt>
</event>
<event>
 4    1  0.5323640E-005  0.6990749E+03  0.7818608E-02  0.9718816E-01
         -2   -1    0    0    0  501 -0.00000000000E+00  0.00000000000E+00  0.87093681436E+03  0.87093681437E+03  0.25500000000E-02 0. -1.
          2   -1    0    0  501    0  0.00000000000E+00 -0.00000000000E+00 -0.14028161495E+03  0.14028161498E+03  0.25500000000E-02 0.  1.
    5000001    1    1    2    0    0  0.16088700763E+03  0.17296222297E+03  0.79112891589E+02  0.29880496886E+03  0.16500000000E+03 0.  0.
   -5000001    1    1    2    0    0 -0.16088700763E+03 -0.17296222297E+03  0.65154230782E+03  0.71241346048E+03  0.16500000000E+03 0.  0.
<mgrwt>
<rscale>  0 0.69907488E+03</rscale>
<asrwt>0</asrwt>
<pdfrwt beam="1">  1        2 0.20040231E-01 0.69907488E+03</pdfrwt>
<pdfrwt beam="2">  1       -2 0.12441954E+00 0.69907488E+03</pdfrwt>
<totfact> 0.13906513E+02</totfact>
</mgrwt>
</event>
<event>
 4    1  0.5323640E-005  0.6083971E+03  0.7818608E-02  0.9888136E-01
          2   -1    0    0  501    0  0.00000000000E+00  0.00000000000E+00  0.91435745397E+03  0.91435745398E+03  0.25500000000E-02 0.  1.
         -2   -1    0    0    0  501 -0.00000000000E+00 -0.00000000000E+00 -0.10120414811E+03  0.10120414815E+03  0.25500000000E-02 0. -1.
    5000001    1    1    2    0    0 -0.16825191365E+03  0.11485291577E+03  0.66415885556E+03  0.71402512850E+03  0.16500000000E+03 0.  0.
   -5000001    1    1    2    0    0  0.16825191365E+03 -0.11485291577E+03  0.14899445030E+03  0.30153647363E+03  0.16500000000E+03 0.  0.
<mgrwt>
<rscale>  0 0.60839713E+03</rscale>
<asrwt>0</asrwt>
<pdfrwt beam="1">  1        2 0.13062250E+00 0.60839713E+03</pdfrwt>
<pdfrwt beam="2">  1       -2 0.14457735E-01 0.60839713E+03</pdfrwt>
<totfact> 0.11907905E+03</totfact>
</mgrwt>
</event>
<event>
 4    1  0.5323640E-005  0.7729851E+03  0.7818608E-02  0.9599965E-01
         -2   -1    0    0    0  501 -0.00000000000E+00  0.00000000000E+00  0.49096781615E+03  0.49096781616E+03  0.25500000000E-02 0. -1.
          2   -1    0    0  501    0  0.00000000000E+00 -0.00000000000E+00 -0.30424905653E+03  0.30424905654E+03  0.25500000000E-02 0.  1.
    5000001    1    1    2    0    0  0.14147544384E+03 -0.21264802424E+03 -0.15207505935E+03  0.33997986279E+03  0.16500000000E+03 0.  0.
   -5000001    1    1    2    0    0 -0.14147544384E+03  0.21264802424E+03  0.33879381897E+03  0.45523700992E+03  0.16500000000E+03 0.  0.
<mgrwt>
<rscale>  0 0.77298511E+03</rscale>
<asrwt>0</asrwt>
<pdfrwt beam="1">  1        2 0.43464151E-01 0.77298511E+03</pdfrwt>
<pdfrwt beam="2">  1       -2 0.70138259E-01 0.77298511E+03</pdfrwt>
<totfact> 0.21904052E+02</totfact>
</mgrwt>
</event>
<event>
 4    1  0.5323640E-005  0.5634055E+03  0.7818608E-02  0.9984378E-01
          2   -1    0    0  501    0  0.00000000000E+00  0.00000000000E+00  0.33638076420E+04  0.33638076420E+04  0.25500000000E-02 0.  1.
         -2   -1    0    0    0  501 -0.00000000000E+00 -0.00000000000E+00 -0.23591252933E+02  0.23591253071E+02  0.25500000000E-02 0. -1.
    5000001    1    1    2    0    0  0.31089186285E+02 -0.21025819646E+03  0.11686471043E+04  0.11992231240E+04  0.16500000000E+03 0.  0.
   -5000001    1    1    2    0    0 -0.31089186285E+02  0.21025819646E+03  0.21715692848E+04  0.21881757711E+04  0.16500000000E+03 0.  0.
<mgrwt>
<rscale>  0 0.56340549E+03</rscale>
<asrwt>0</asrwt>
<pdfrwt beam="1">  1        2 0.48054364E+00 0.56340549E+03</pdfrwt>
<pdfrwt beam="2">  1       -2 0.33701812E-02 0.56340549E+03</pdfrwt>
<totfact> 0.59633146E+02</totfact>
</mgrwt>
</event>
<event>
 4    1  0.5323640E-005  0.7262817E+03  0.7818608E-02  0.9673313E-01
          2   -1    0    0  501    0  0.00000000000E+00  0.00000000000E+00  0.76756744030E+03  0.76756744030E+03  0.25500000000E-02 0.  1.
         -2   -1    0    0    0  501 -0.00000000000E+00 -0.00000000000E+00 -0.17180413788E+03  0.17180413790E+03  0.25500000000E-02 0. -1.
    5000001    1    1    2    0    0 -0.31441079901E+03 -0.55090773287E+02  0.36579576785E+03  0.51275792301E+03  0.16500000000E+03 0.  0.
   -5000001    1    1    2    0    0  0.31441079901E+03  0.55090773287E+02  0.22996753458E+03  0.42661365519E+03  0.16500000000E+03 0.  0.
<mgrwt>
<rscale>  0 0.72628166E+03</rscale>
<asrwt>0</asrwt>
<pdfrwt beam="1">  1        2 0.10965249E+00 0.72628166E+03</pdfrwt>
<pdfrwt beam="2">  1       -2 0.24543448E-01 0.72628166E+03</pdfrwt>
<totfact> 0.59608875E+02</totfact>
</mgrwt>
</event>
<event>
 4    1  0.5323640E-005  0.8961966E+03  0.7818608E-02  0.9430348E-01
         -2   -1    0    0    0  501 -0.00000000000E+00  0.00000000000E+00  0.12520986054E+03  0.12520986056E+03  0.25500000000E-02 0. -1.
          2   -1    0    0  501    0  0.00000000000E+00 -0.00000000000E+00 -0.16036442029E+04  0.16036442029E+04  0.25500000000E-02 0.  1.
    5000001    1    1    2    0    0 -0.27500433378E+03  0.19079082083E+03 -0.26066567336E+03  0.45519239248E+03  0.16500000000E+03 0.  0.
   -5000001    1    1    2    0    0  0.27500433378E+03 -0.19079082083E+03 -0.12177686690E+04  0.12736616710E+04  0.16500000000E+03 0.  0.
<mgrwt>
<rscale>  0 0.89619656E+03</rscale>
<asrwt>0</asrwt>
<pdfrwt beam="1">  1        2 0.22909202E+00 0.89619656E+03</pdfrwt>
<pdfrwt beam="2">  1       -2 0.17887124E-01 0.89619656E+03</pdfrwt>
<totfact> 0.33519526E+02</totfact>
</mgrwt>
</event>
<event>
 4    1  0.5323640E-005  0.5478031E+03  0.7818608E-02  0.1002004E+00
          2   -1    0    0  501    0  0.00000000000E+00  0.00000000000E+00  0.27906648111E+04  0.27906648111E+04  0.25500000000E-02 0.  1.
         -2   -1    0    0    0  501 -0.00000000000E+00 -0.00000000000E+00 -0.26883216839E+02  0.26883216960E+02  0.25500000000E-02 0. -1.
    5000001    1    1    2    0    0  0.12297936813E+03 -0.16184644489E+03  0.96789506674E+03  0.10026784414E+04  0.16500000000E+03 0.  0.
   -5000001    1    1    2    0    0 -0.12297936813E+03  0.16184644489E+03  0.17958865275E+04  0.18148695866E+04  0.16500000000E+03 0.  0.
<mgrwt>
<rscale>  0 0.54780306E+03</rscale>
<asrwt>0</asrwt>
<pdfrwt beam="1">  1        2 0.39866611E+00 0.54780306E+03</pdfrwt>
<pdfrwt beam="2">  1       -2 0.38404624E-02 0.54780306E+03</pdfrwt>
<totfact> 0.10112269E+03</totfact>
</mgrwt>
</event>
<event>
 4    1  0.5323640E-005  0.1323622E+04  0.7818608E-02  0.9011039E-01
         -2   -1    0    0    0  501 -0.00000000000E+00  0.00000000000E+00  0.30962558393E+03  0.30962558394E+03  0.25500000000E-02 0. -1.
          2   -1    0    0  501    0  0.00000000000E+00 -0.00000000000E+00 -0.14145923047E+04  0.14145923047E+04  0.25500000000E-02 0.  1.
    5000001    1    1    2    0    0 -0.39473732741E+03  0.50019868734E+03 -0.46267897374E+03  0.80455771528E+03  0.16500000000E+03 0.  0.
   -5000001    1    1    2    0    0  0.39473732741E+03 -0.50019868734E+03 -0.64228774701E+03  0.91966017334E+03  0.16500000000E+03 0.  0.
<mgrwt>
<rscale>  0 0.13236223E+04</rscale>
<asrwt>0</asrwt>
<pdfrwt beam="1">  1        2 0.20208461E+00 0.13236223E+04</pdfrwt>
<pdfrwt beam="2">  1       -2 0.44232227E-01 0.13236223E+04</pdfrwt>
<totfact> 0.77078092E+01</totfact>
</mgrwt>
</event>
<event>
 4    1  0.5323640E-005  0.7950922E+03  0.7818608E-02  0.9567148E-01
         -2   -1    0    0    0  501 -0.00000000000E+00  0.00000000000E+00  0.13989983291E+03  0.13989983293E+03  0.25500000000E-02 0. -1.
          2   -1    0    0  501    0  0.00000000000E+00 -0.00000000000E+00 -0.11296861241E+04  0.11296861241E+04  0.25500000000E-02 0.  1.
    5000001    1    1    2    0    0  0.18084338647E+03  0.23853055517E+03 -0.17071669801E+03  0.38206065901E+03  0.16500000000E+03 0.  0.
   -5000001    1    1    2    0    0 -0.18084338647E+03 -0.23853055517E+03 -0.81906959318E+03  0.88752529804E+03  0.16500000000E+03 0.  0.
<mgrwt>
<rscale>  0 0.79509220E+03</rscale>
<asrwt>0</asrwt>
<pdfrwt beam="1">  1        2 0.16138373E+00 0.79509220E+03</pdfrwt>
<pdfrwt beam="2">  1       -2 0.19985691E-01 0.79509220E+03</pdfrwt>
<totfact> 0.50307056E+02</totfact>
</mgrwt>
</event>
<event>
 4    1  0.5323640E-005  0.1142475E+04  0.7818608E-02  0.9164754E-01
          2   -1    0    0  501    0  0.00000000000E+00  0.00000000000E+00  0.24712553681E+03  0.24712553682E+03  0.25500000000E-02 0.  1.
         -2   -1    0    0    0  501 -0.00000000000E+00 -0.00000000000E+00 -0.13204304637E+04  0.13204304637E+04  0.25500000000E-02 0. -1.
    5000001    1    1    2    0    0  0.27105451308E+03  0.46613204728E+03 -0.66193576165E+03  0.86955942126E+03  0.16500000000E+03 0.  0.
   -5000001    1    1    2    0    0 -0.27105451308E+03 -0.46613204728E+03 -0.41136916526E+03  0.69799657928E+03  0.16500000000E+03 0.  0.
<mgrwt>
<rscale>  0 0.11424747E+04</rscale>
<asrwt>0</asrwt>
<pdfrwt beam="1">  1        2 0.35303649E-01 0.11424747E+04</pdfrwt>
<pdfrwt beam="2">  1       -2 0.18863292E+00 0.11424747E+04</pdfrwt>
<totfact> 0.23237508E+01</totfact>
</mgrwt>
</event>
<event>
 4    1  0.5323640E-005  0.3447699E+03  0.7818608E-02  0.1064782E+00
          2   -1    0    0  501    0  0.00000000000E+00  0.00000000000E+00  0.15709785617E+03  0.15709785619E+03  0.25500000000E-02 0.  1.
         -2   -1    0    0    0  501 -0.00000000000E+00 -0.00000000000E+00 -0.18915966605E+03  0.18915966607E+03  0.25500000000E-02 0. -1.
    5000001    1    1    2    0    0  0.46545960335E+02 -0.17633787247E+02 -0.12259554009E+02  0.17277955186E+03  0.16500000000E+03 0.  0.
   -5000001    1    1    2    0    0 -0.46545960335E+02  0.17633787247E+02 -0.19802255877E+02  0.17347797040E+03  0.16500000000E+03 0.  0.
<mgrwt>
<rscale>  0 0.34476994E+03</rscale>
<asrwt>0</asrwt>
<pdfrwt beam="1">  1        2 0.22442551E-01 0.34476994E+03</pdfrwt>
<pdfrwt beam="2">  1       -2 0.27022809E-01 0.34476994E+03</pdfrwt>
<totfact> 0.30192469E+03</totfact>
</mgrwt>
</event>
<event>
 4    1  0.5323640E-005  0.4354332E+03  0.7818608E-02  0.1032157E+00
         -2   -1    0    0    0  501 -0.00000000000E+00  0.00000000000E+00  0.15779232382E+03  0.15779232384E+03  0.25500000000E-02 0. -1.
          2   -1    0    0  501    0  0.00000000000E+00 -0.00000000000E+00 -0.30039807285E+03  0.30039807286E+03  0.25500000000E-02 0.  1.
    5000001    1    1    2    0    0 -0.13592487287E+03  0.35672934081E+02 -0.93056514348E+02  0.23586573332E+03  0.16500000000E+03 0.  0.
   -5000001    1    1    2    0    0  0.13592487287E+03 -0.35672934081E+02 -0.49549234678E+02  0.22232466338E+03  0.16500000000E+03 0.  0.
<mgrwt>
<rscale>  0 0.43543316E+03</rscale>
<asrwt>0</asrwt>
<pdfrwt beam="1">  1        2 0.42914010E-01 0.43543316E+03</pdfrwt>
<pdfrwt beam="2">  1       -2 0.22541761E-01 0.43543316E+03</pdfrwt>
<totfact> 0.20365509E+03</totfact>
</mgrwt>
</event>
<event>
 4    1  0.5323640E-005  0.7706797E+03  0.7818608E-02  0.9603454E-01
          2   -1    0    0  501    0  0.00000000000E+00  0.00000000000E+00  0.88067751469E+03  0.88067751469E+03  0.25500000000E-02 0.  1.
         -2   -1    0    0    0  501 -0.00000000000E+00 -0.00000000000E+00 -0.16860519326E+03  0.16860519328E+03  0.25500000000E-02 0. -1.
    5000001    1    1    2    0    0  0.19593464513E+03  0.28415849971E+03  0.29326859315E+03  0.48204554334E+03  0.16500000000E+03 0.  0.
   -5000001    1    1    2    0    0 -0.19593464513E+03 -0.28415849971E+03  0.41880372828E+03  0.56723716463E+03  0.16500000000E+03 0.  0.
<mgrwt>
<rscale>  0 0.77067971E+03</rscale>
<asrwt>0</asrwt>
<pdfrwt beam="1">  1        2 0.12581107E+00 0.77067971E+03</pdfrwt>
<pdfrwt beam="2">  1       -2 0.24086456E-01 0.77067971E+03</pdfrwt>
<totfact> 0.51484803E+02</totfact>
</mgrwt>
</event>
<event>
 4    1  0.5323640E-005  0.3715808E+03  0.7818608E-02  0.1054090E+00
         -2   -1    0    0    0  501 -0.00000000000E+00  0.00000000000E+00  0.67566667171E+02  0.67566667219E+02  0.25500000000E-02 0. -1.
          2   -1    0    0  501    0  0.00000000000E+00 -0.00000000000E+00 -0.51087423919E+03  0.51087423920E+03  0.25500000000E-02 0.  1.
    5000001    1    1    2    0    0  0.27618278455E+02  0.45984844685E+02 -0.32509777491E+03  0.36849822048E+03  0.16500000000E+03 0.  0.
   -5000001    1    1    2    0    0 -0.27618278455E+02 -0.45984844685E+02 -0.11820979711E+03  0.20994268594E+03  0.16500000000E+03 0.  0.
<mgrwt>
<rscale>  0 0.37158078E+03</rscale>
<asrwt>0</asrwt>
<pdfrwt beam="1">  1        2 0.72982032E-01 0.37158078E+03</pdfrwt>
<pdfrwt beam="2">  1       -2 0.96523813E-02 0.37158078E+03</pdfrwt>
<totfact> 0.46648391E+03</totfact>
</mgrwt>
</event>
<event>
 4    1  0.5323640E-005  0.4364643E+03  0.7818608E-02  0.1031837E+00
          2   -1    0    0  501    0  0.00000000000E+00  0.00000000000E+00  0.49296265240E+02  0.49296265306E+02  0.25500000000E-02 0.  1.
         -2   -1    0    0    0  501 -0.00000000000E+00 -0.00000000000E+00 -0.96610313799E+03  0.96610313799E+03  0.25500000000E-02 0. -1.
    5000001    1    1    2    0    0 -0.13681506785E+03  0.39324542207E+02 -0.48548342306E+03  0.53215029501E+03  0.16500000000E+03 0.  0.
   -5000001    1    1    2    0    0  0.13681506785E+03 -0.39324542207E+02 -0.43132344969E+03  0.48324910829E+03  0.16500000000E+03 0.  0.
<mgrwt>
<rscale>  0 0.43646432E+03</rscale>
<asrwt>0</asrwt>
<pdfrwt beam="1">  1        2 0.70423242E-02 0.43646432E+03</pdfrwt>
<pdfrwt beam="2">  1       -2 0.13801472E+00 0.43646432E+03</pdfrwt>
<totfact> 0.39521961E+02</totfact>
</mgrwt>
</event>
<event>
 4    1  0.5323640E-005  0.5279814E+03  0.7818608E-02  0.1006723E+00
         -2   -1    0    0    0  501 -0.00000000000E+00  0.00000000000E+00  0.38316620185E+02  0.38316620270E+02  0.25500000000E-02 0. -1.
          2   -1    0    0  501    0  0.00000000000E+00 -0.00000000000E+00 -0.18188217503E+04  0.18188217503E+04  0.25500000000E-02 0.  1.
    5000001    1    1    2    0    0  0.17350946191E+03 -0.67751805848E+02 -0.58019422063E+03  0.63130513558E+03  0.16500000000E+03 0.  0.
   -5000001    1    1    2    0    0 -0.17350946191E+03  0.67751805848E+02 -0.12003109095E+04  0.12258332350E+04  0.16500000000E+03 0.  0.
<mgrwt>
<rscale>  0 0.52798145E+03</rscale>
<asrwt>0</asrwt>
<pdfrwt beam="1">  1        2 0.25983162E+00 0.52798145E+03</pdfrwt>
<pdfrwt beam="2">  1       -2 0.54738040E-02 0.52798145E+03</pdfrwt>
<totfact> 0.18263277E+03</totfact>
</mgrwt>
</event>
<event>
 4    1  0.5323640E-005  0.5437621E+03  0.7818608E-02  0.1002948E+00
          2   -1    0    0  501    0  0.00000000000E+00  0.00000000000E+00  0.23155645001E+04  0.23155645001E+04  0.25500000000E-02 0.  1.
         -2   -1    0    0    0  501 -0.00000000000E+00 -0.00000000000E+00 -0.31922803946E+02  0.31922804048E+02  0.25500000000E-02 0. -1.
    5000001    1    1    2    0    0  0.13856663877E+03  0.12067835018E+03  0.65091390706E+03  0.69618811537E+03  0.16500000000E+03 0.  0.
   -5000001    1    1    2    0    0 -0.13856663877E+03 -0.12067835018E+03  0.16327277891E+04  0.16512991888E+04  0.16500000000E+03 0.  0.
<mgrwt>
<rscale>  0 0.54376212E+03</rscale>
<asrwt>0</asrwt>
<pdfrwt beam="1">  1        2 0.33079495E+00 0.54376212E+03</pdfrwt>
<pdfrwt beam="2">  1       -2 0.45604003E-02 0.54376212E+03</pdfrwt>
<totfact> 0.13642441E+03</totfact>
</mgrwt>
</event>
<event>
 4    1  0.5323640E-005  0.3776870E+03  0.7818608E-02  0.1051792E+00
         -2   -1    0    0    0  501 -0.00000000000E+00  0.00000000000E+00  0.16594076983E+02  0.16594077179E+02  0.25500000000E-02 0. -1.
          2   -1    0    0  501    0  0.00000000000E+00 -0.00000000000E+00 -0.21490715774E+04  0.21490715775E+04  0.25500000000E-02 0.  1.
    5000001    1    1    2    0    0 -0.21618693052E+02 -0.56686232363E+02 -0.67079222147E+03  0.69344639390E+03  0.16500000000E+03 0.  0.
   -5000001    1    1    2    0    0  0.21618693052E+02  0.56686232363E+02 -0.14616852790E+04  0.14722192607E+04  0.16500000000E+03 0.  0.
<mgrwt>
<rscale>  0 0.37768696E+03</rscale>
<asrwt>0</asrwt>
<pdfrwt beam="1">  1        2 0.30701005E+00 0.37768696E+03</pdfrwt>
<pdfrwt beam="2">  1       -2 0.23705838E-02 0.37768696E+03</pdfrwt>
<totfact> 0.44856577E+03</totfact>
</mgrwt>
</event>
<event>
 4    1  0.5323640E-005  0.3628650E+03  0.7818608E-02  0.1057455E+00
         -2   -1    0    0    0  501 -0.00000000000E+00  0.00000000000E+00  0.35424127116E+02  0.35424127208E+02  0.25500000000E-02 0. -1.
          2   -1    0    0  501    0  0.00000000000E+00 -0.00000000000E+00 -0.92924669329E+03  0.92924669329E+03  0.25500000000E-02 0.  1.
    5000001    1    1    2    0    0 -0.30076089981E+02  0.69196289419E+02 -0.44628570114E+03  0.48175577288E+03  0.16500000000E+03 0.  0.
   -5000001    1    1    2    0    0  0.30076089981E+02 -0.69196289419E+02 -0.44753686503E+03  0.48291504762E+03  0.16500000000E+03 0.  0.
<mgrwt>
<rscale>  0 0.36286501E+03</rscale>
<asrwt>0</asrwt>
<pdfrwt beam="1">  1        2 0.13274951E+00 0.36286501E+03</pdfrwt>
<pdfrwt beam="2">  1       -2 0.50605902E-02 0.36286501E+03</pdfrwt>
<totfact> 0.62141732E+03</totfact>
</mgrwt>
</event>
<event>
 4    1  0.5323640E-005  0.4242125E+03  0.7818608E-02  0.1035704E+00
          2   -1    0    0  501    0  0.00000000000E+00  0.00000000000E+00  0.21472519177E+03  0.21472519178E+03  0.25500000000E-02 0.  1.
         -2   -1    0    0    0  501 -0.00000000000E+00 -0.00000000000E+00 -0.20951927938E+03  0.20951927940E+03  0.25500000000E-02 0. -1.
    5000001    1    1    2    0    0  0.66971759157E+02  0.45269746104E+02  0.10858027539E+03  0.21342268539E+03  0.16500000000E+03 0.  0.
   -5000001    1    1    2    0    0 -0.66971759157E+02 -0.45269746104E+02 -0.10337436300E+03  0.21082178579E+03  0.16500000000E+03 0.  0.
<mgrwt>
<rscale>  0 0.42421253E+03</rscale>
<asrwt>0</asrwt>
<pdfrwt beam="1">  1        2 0.30675027E-01 0.42421253E+03</pdfrwt>
<pdfrwt beam="2">  1       -2 0.29931326E-01 0.42421253E+03</pdfrwt>
<totfact> 0.17715500E+03</totfact>
</mgrwt>
</event>
<event>
 4    1  0.5323640E-005  0.3897971E+03  0.7818608E-02  0.1047371E+00
          2   -1    0    0  501    0  0.00000000000E+00  0.00000000000E+00  0.23042860500E+03  0.23042860502E+03  0.25500000000E-02 0.  1.
         -2   -1    0    0    0  501 -0.00000000000E+00 -0.00000000000E+00 -0.16484690210E+03  0.16484690212E+03  0.25500000000E-02 0. -1.
    5000001    1    1    2    0    0 -0.84942517596E+02 -0.78991081205E+01 -0.27053958191E+02  0.18770866751E+03  0.16500000000E+03 0.  0.
   -5000001    1    1    2    0    0  0.84942517596E+02  0.78991081205E+01  0.92635661099E+02  0.20756683962E+03  0.16500000000E+03 0.  0.
<mgrwt>
<rscale>  0 0.38979708E+03</rscale>
<asrwt>0</asrwt>
<pdfrwt beam="1">  1        2 0.32918372E-01 0.38979708E+03</pdfrwt>
<pdfrwt beam="2">  1       -2 0.23549558E-01 0.38979708E+03</pdfrwt>
<totfact> 0.25182078E+03</totfact>
</mgrwt>
</event>
<event>
 4    1  0.5323640E-005  0.7007014E+03  0.7818608E-02  0.9716033E-01
         -2   -1    0    0    0  501 -0.00000000000E+00  0.00000000000E+00  0.16393127709E+04  0.16393127709E+04  0.25500000000E-02 0. -1.
          2   -1    0    0  501    0  0.00000000000E+00 -0.00000000000E+00 -0.74876261750E+02  0.74876261794E+02  0.25500000000E-02 0.  1.
    5000001    1    1    2    0    0  0.30532654365E+03  0.47240709397E+02  0.80188535745E+03  0.87504348999E+03  0.16500000000E+03 0.  0.
   -5000001    1    1    2    0    0 -0.30532654365E+03 -0.47240709397E+02  0.76255115167E+03  0.83914554267E+03  0.16500000000E+03 0.  0.
<mgrwt>
<rscale>  0 0.70070140E+03</rscale>
<asrwt>0</asrwt>
<pdfrwt beam="1">  1        2 0.10696609E-01 0.70070140E+03</pdfrwt>
<pdfrwt beam="2">  1       -2 0.23418754E+00 0.70070140E+03</pdfrwt>
<totfact> 0.50499981E+01</totfact>
</mgrwt>
</event>
<event>
 4    1  0.5323640E-005  0.4924618E+03  0.7818608E-02  0.1015765E+00
         -2   -1    0    0    0  501 -0.00000000000E+00  0.00000000000E+00  0.77986046618E+02  0.77986046659E+02  0.25500000000E-02 0. -1.
          2   -1    0    0  501    0  0.00000000000E+00 -0.00000000000E+00 -0.77744232587E+03  0.77744232587E+03  0.25500000000E-02 0.  1.
    5000001    1    1    2    0    0  0.56836877751E+02  0.45334394619E+02 -0.64100847593E+03  0.66588475296E+03  0.16500000000E+03 0.  0.
   -5000001    1    1    2    0    0 -0.56836877751E+02 -0.45334394619E+02 -0.58447803319E+02  0.18954361957E+03  0.16500000000E+03 0.  0.
<mgrwt>
<rscale>  0 0.49246179E+03</rscale>
<asrwt>0</asrwt>
<pdfrwt beam="1">  1        2 0.11106319E+00 0.49246179E+03</pdfrwt>
<pdfrwt beam="2">  1       -2 0.11140864E-01 0.49246179E+03</pdfrwt>
<totfact> 0.22635374E+03</totfact>
</mgrwt>
</event>
<event>
 4    1  0.5323640E-005  0.4815798E+03  0.7818608E-02  0.1018702E+00
         -2   -1    0    0    0  501 -0.00000000000E+00  0.00000000000E+00  0.12682500232E+03  0.12682500235E+03  0.25500000000E-02 0. -1.
          2   -1    0    0  501    0  0.00000000000E+00 -0.00000000000E+00 -0.45716357773E+03  0.45716357774E+03  0.25500000000E-02 0.  1.
    5000001    1    1    2    0    0 -0.16083800441E+03  0.59035231021E+02 -0.21055470882E+03  0.31766697589E+03  0.16500000000E+03 0.  0.
   -5000001    1    1    2    0    0  0.16083800441E+03 -0.59035231021E+02 -0.11978386660E+03  0.26632160420E+03  0.16500000000E+03 0.  0.
<mgrwt>
<rscale>  0 0.48157978E+03</rscale>
<asrwt>0</asrwt>
<pdfrwt beam="1">  1        2 0.65309082E-01 0.48157978E+03</pdfrwt>
<pdfrwt beam="2">  1       -2 0.18117858E-01 0.48157978E+03</pdfrwt>
<totfact> 0.18756385E+03</totfact>
</mgrwt>
</event>
<event>
 4    1  0.5323640E-005  0.5611461E+03  0.7818608E-02  0.9989465E-01
          2   -1    0    0  501    0  0.00000000000E+00  0.00000000000E+00  0.71928360781E+03  0.71928360782E+03  0.25500000000E-02 0.  1.
         -2   -1    0    0    0  501 -0.00000000000E+00 -0.00000000000E+00 -0.10944396109E+03  0.10944396112E+03  0.25500000000E-02 0. -1.
    5000001    1    1    2    0    0 -0.18678693953E+03 -0.94418656447E+02  0.17539424171E+03  0.31904918663E+03  0.16500000000E+03 0.  0.
   -5000001    1    1    2    0    0  0.18678693953E+03  0.94418656447E+02  0.43444540501E+03  0.50967838232E+03  0.16500000000E+03 0.  0.
<mgrwt>
<rscale>  0 0.56114614E+03</rscale>
<asrwt>0</asrwt>
<pdfrwt beam="1">  1        2 0.10275480E+00 0.56114614E+03</pdfrwt>
<pdfrwt beam="2">  1       -2 0.15634851E-01 0.56114614E+03</pdfrwt>
<totfact> 0.14217311E+03</totfact>
</mgrwt>
</event>
<event>
 4    1  0.5323640E-005  0.4468889E+03  0.7818608E-02  0.1028654E+00
          2   -1    0    0  501    0  0.00000000000E+00  0.00000000000E+00  0.71069689760E+02  0.71069689806E+02  0.25500000000E-02 0.  1.
         -2   -1    0    0    0  501 -0.00000000000E+00 -0.00000000000E+00 -0.70251365364E+03  0.70251365364E+03  0.25500000000E-02 0. -1.
    5000001    1    1    2    0    0 -0.11910326992E+03  0.88420570016E+02 -0.26996739320E+03  0.34944410068E+03  0.16500000000E+03 0.  0.
   -5000001    1    1    2    0    0  0.11910326992E+03 -0.88420570016E+02 -0.36147657068E+03  0.42413924277E+03  0.16500000000E+03 0.  0.
<mgrwt>
<rscale>  0 0.44688892E+03</rscale>
<asrwt>0</asrwt>
<pdfrwt beam="1">  1        2 0.10152813E-01 0.44688892E+03</pdfrwt>
<pdfrwt beam="2">  1       -2 0.10035909E+00 0.44688892E+03</pdfrwt>
<totfact> 0.53819597E+02</totfact>
</mgrwt>
</event>
<event>
 4    1  0.5323640E-005  0.5608618E+03  0.7818608E-02  0.9990106E-01
          2   -1    0    0  501    0  0.00000000000E+00  0.00000000000E+00  0.11470445808E+04  0.11470445808E+04  0.25500000000E-02 0.  1.
         -2   -1    0    0    0  501 -0.00000000000E+00 -0.00000000000E+00 -0.68560104069E+02  0.68560104116E+02  0.25500000000E-02 0. -1.
    5000001    1    1    2    0    0  0.10236114521E+03  0.14444370431E+03  0.23215546856E+03  0.33535496022E+03  0.16500000000E+03 0.  0.
   -5000001    1    1    2    0    0 -0.10236114521E+03 -0.14444370431E+03  0.84632900819E+03  0.88024972472E+03  0.16500000000E+03 0.  0.
<mgrwt>
<rscale>  0 0.56086182E+03</rscale>
<asrwt>0</asrwt>
<pdfrwt beam="1">  1        2 0.16386352E+00 0.56086182E+03</pdfrwt>
<pdfrwt beam="2">  1       -2 0.97943001E-02 0.56086182E+03</pdfrwt>
<totfact> 0.16387945E+03</totfact>
</mgrwt>
</event>
<event>
 4    1  0.5323640E-005  0.3836483E+03  0.7818608E-02  0.1049594E+00
          2   -1    0    0  501    0  0.00000000000E+00  0.00000000000E+00  0.61778033343E+03  0.61778033344E+03  0.25500000000E-02 0.  1.
         -2   -1    0    0    0  501 -0.00000000000E+00 -0.00000000000E+00 -0.59562435879E+02  0.59562435934E+02  0.25500000000E-02 0. -1.
    5000001    1    1    2    0    0  0.65022041066E+02  0.50336423872E+02  0.37269672650E+03  0.41579979718E+03  0.16500000000E+03 0.  0.
   -5000001    1    1    2    0    0 -0.65022041066E+02 -0.50336423872E+02  0.18552117105E+03  0.26154297219E+03  0.16500000000E+03 0.  0.
<mgrwt>
<rscale>  0 0.38364828E+03</rscale>
<asrwt>0</asrwt>
<pdfrwt beam="1">  1        2 0.88254337E-01 0.38364828E+03</pdfrwt>
<pdfrwt beam="2">  1       -2 0.85089191E-02 0.38364828E+03</pdfrwt>
<totfact> 0.45914903E+03</totfact>
</mgrwt>
</event>
<event>
 4    1  0.5323640E-005  0.7336074E+03  0.7818608E-02  0.9661425E-01
         -2   -1    0    0    0  501 -0.00000000000E+00  0.00000000000E+00  0.47361817243E+03  0.47361817244E+03  0.25500000000E-02 0. -1.
          2   -1    0    0  501    0  0.00000000000E+00 -0.00000000000E+00 -0.28407898965E+03  0.28407898966E+03  0.25500000000E-02 0.  1.
    5000001    1    1    2    0    0 -0.12873905276E+03 -0.25199794369E+03  0.26524490690E+03  0.42149325969E+03  0.16500000000E+03 0.  0.
   -5000001    1    1    2    0    0  0.12873905276E+03  0.25199794369E+03 -0.75705724122E+02  0.33620390241E+03  0.16500000000E+03 0.  0.
<mgrwt>
<rscale>  0 0.73360745E+03</rscale>
<asrwt>0</asrwt>
<pdfrwt beam="1">  1        2 0.40582713E-01 0.73360745E+03</pdfrwt>
<pdfrwt beam="2">  1       -2 0.67659739E-01 0.73360745E+03</pdfrwt>
<totfact> 0.25592499E+02</totfact>
</mgrwt>
</event>
<event>
 4    1  0.5323640E-005  0.6012016E+03  0.7818608E-02  0.9902916E-01
          2   -1    0    0  501    0  0.00000000000E+00  0.00000000000E+00  0.17014378702E+04  0.17014378702E+04  0.25500000000E-02 0.  1.
         -2   -1    0    0    0  501 -0.00000000000E+00 -0.00000000000E+00 -0.53108520465E+02  0.53108520526E+02  0.25500000000E-02 0. -1.
    5000001    1    1    2    0    0 -0.19466348354E+02  0.12954769366E+03  0.14499167438E+04  0.14651433745E+04  0.16500000000E+03 0.  0.
   -5000001    1    1    2    0    0  0.19466348354E+02 -0.12954769366E+03  0.19841260590E+03  0.28940301628E+03  0.16500000000E+03 0.  0.
<mgrwt>
<rscale>  0 0.60120162E+03</rscale>
<asrwt>0</asrwt>
<pdfrwt beam="1">  1        2 0.24306253E+00 0.60120162E+03</pdfrwt>
<pdfrwt beam="2">  1       -2 0.75869321E-02 0.60120162E+03</pdfrwt>
<totfact> 0.12500154E+03</totfact>
</mgrwt>
</event>
<event>
 4    1  0.5323640E-005  0.3861588E+03  0.7818608E-02  0.1048681E+00
          2   -1    0    0  501    0  0.00000000000E+00  0.00000000000E+00  0.12891607217E+03  0.12891607220E+03  0.25500000000E-02 0.  1.
         -2   -1    0    0    0  501 -0.00000000000E+00 -0.00000000000E+00 -0.28917775405E+03  0.28917775406E+03  0.25500000000E-02 0. -1.
    5000001    1    1    2    0    0  0.90977808084E+02  0.28850767654E+02 -0.46841903411E+02  0.19628676031E+03  0.16500000000E+03 0.  0.
   -5000001    1    1    2    0    0 -0.90977808084E+02 -0.28850767654E+02 -0.11341977846E+03  0.22180706595E+03  0.16500000000E+03 0.  0.
<mgrwt>
<rscale>  0 0.38615883E+03</rscale>
<asrwt>0</asrwt>
<pdfrwt beam="1">  1        2 0.18416582E-01 0.38615883E+03</pdfrwt>
<pdfrwt beam="2">  1       -2 0.41311108E-01 0.38615883E+03</pdfrwt>
<totfact> 0.17236841E+03</totfact>
</mgrwt>
</event>
<event>
 4    1  0.5323640E-005  0.5094532E+03  0.7818608E-02  0.1011341E+00
          2   -1    0    0  501    0  0.00000000000E+00  0.00000000000E+00  0.22487139028E+04  0.22487139028E+04  0.25500000000E-02 0.  1.
         -2   -1    0    0    0  501 -0.00000000000E+00 -0.00000000000E+00 -0.28854557198E+02  0.28854557311E+02  0.25500000000E-02 0. -1.
    5000001    1    1    2    0    0 -0.16078783579E+03 -0.10863499981E+03  0.10986616537E+04  0.11278017205E+04  0.16500000000E+03 0.  0.
   -5000001    1    1    2    0    0  0.16078783579E+03  0.10863499981E+03  0.11211976919E+04  0.11497667396E+04  0.16500000000E+03 0.  0.
<mgrwt>
<rscale>  0 0.50945321E+03</rscale>
<asrwt>0</asrwt>
<pdfrwt beam="1">  1        2 0.32124480E+00 0.50945321E+03</pdfrwt>
<pdfrwt beam="2">  1       -2 0.41220802E-02 0.50945321E+03</pdfrwt>
<totfact> 0.17252559E+03</totfact>
</mgrwt>
</event>
<event>
 4    1  0.5323640E-005  0.3460381E+03  0.7818608E-02  0.1064253E+00
          2   -1    0    0  501    0  0.00000000000E+00  0.00000000000E+00  0.14933108414E+04  0.14933108414E+04  0.25500000000E-02 0.  1.
         -2   -1    0    0    0  501 -0.00000000000E+00 -0.00000000000E+00 -0.20046455199E+02  0.20046455361E+02  0.25500000000E-02 0. -1.
    5000001    1    1    2    0    0  0.68012269016E+01 -0.49650427721E+02  0.67491208999E+03  0.69659367703E+03  0.16500000000E+03 0.  0.
   -5000001    1    1    2    0    0 -0.68012269016E+01  0.49650427721E+02  0.79835229624E+03  0.81676361976E+03  0.16500000000E+03 0.  0.
<mgrwt>
<rscale>  0 0.34603808E+03</rscale>
<asrwt>0</asrwt>
<pdfrwt beam="1">  1        2 0.21333011E+00 0.34603808E+03</pdfrwt>
<pdfrwt beam="2">  1       -2 0.28637794E-02 0.34603808E+03</pdfrwt>
<totfact> 0.71657452E+03</totfact>
</mgrwt>
</event>
<event>
 4    1  0.5323640E-005  0.4853466E+03  0.7818608E-02  0.1017676E+00
         -2   -1    0    0    0  501 -0.00000000000E+00  0.00000000000E+00  0.98723712591E+02  0.98723712624E+02  0.25500000000E-02 0. -1.
          2   -1    0    0  501    0  0.00000000000E+00 -0.00000000000E+00 -0.59651662362E+03  0.59651662363E+03  0.25500000000E-02 0.  1.
    5000001    1    1    2    0    0  0.99616190219E+02  0.10883532043E+03 -0.39140170422E+03  0.44965409638E+03  0.16500000000E+03 0.  0.
   -5000001    1    1    2    0    0 -0.99616190219E+02 -0.10883532043E+03 -0.10639120681E+03  0.24558623987E+03  0.16500000000E+03 0.  0.
<mgrwt>
<rscale>  0 0.48534662E+03</rscale>
<asrwt>0</asrwt>
<pdfrwt beam="1">  1        2 0.85216658E-01 0.48534662E+03</pdfrwt>
<pdfrwt beam="2">  1       -2 0.14103388E-01 0.48534662E+03</pdfrwt>
<totfact> 0.21140756E+03</totfact>
</mgrwt>
</event>
<event>
 4    1  0.5323640E-005  0.3852907E+03  0.7818608E-02  0.1048995E+00
         -2   -1    0    0    0  501 -0.00000000000E+00  0.00000000000E+00  0.19297800818E+02  0.19297800987E+02  0.25500000000E-02 0. -1.
          2   -1    0    0  501    0  0.00000000000E+00 -0.00000000000E+00 -0.19231330083E+04  0.19231330083E+04  0.25500000000E-02 0.  1.
    5000001    1    1    2    0    0 -0.37872783670E+02  0.12992599583E+01 -0.48845336013E+03  0.51696007665E+03  0.16500000000E+03 0.  0.
   -5000001    1    1    2    0    0  0.37872783670E+02 -0.12992599583E+01 -0.14153818474E+04  0.14254707327E+04  0.16500000000E+03 0.  0.
<mgrwt>
<rscale>  0 0.38529074E+03</rscale>
<asrwt>0</asrwt>
<pdfrwt beam="1">  1        2 0.27473317E+00 0.38529074E+03</pdfrwt>
<pdfrwt beam="2">  1       -2 0.27568299E-02 0.38529074E+03</pdfrwt>
<totfact> 0.46278365E+03</totfact>
</mgrwt>
</event>
<event>
 4    1  0.5323640E-005  0.8100652E+03  0.7818608E-02  0.9545561E-01
         -2   -1    0    0    0  501 -0.00000000000E+00  0.00000000000E+00  0.61579966273E+02  0.61579966326E+02  0.25500000000E-02 0. -1.
          2   -1    0    0  501    0  0.00000000000E+00 -0.00000000000E+00 -0.26640389249E+04  0.26640389249E+04  0.25500000000E-02 0.  1.
    5000001    1    1    2    0    0  0.16161193178E+03 -0.21786167922E+03 -0.21473959680E+04  0.21707410189E+04  0.16500000000E+03 0.  0.
   -5000001    1    1    2    0    0 -0.16161193178E+03  0.21786167922E+03 -0.45506299067E+03  0.55487787237E+03  0.16500000000E+03 0.  0.
<mgrwt>
<rscale>  0 0.81006525E+03</rscale>
<asrwt>0</asrwt>
<pdfrwt beam="1">  1        2 0.38057692E+00 0.81006525E+03</pdfrwt>
<pdfrwt beam="2">  1       -2 0.87971397E-02 0.81006525E+03</pdfrwt>
<totfact> 0.31421868E+02</totfact>
</mgrwt>
</event>
<event>
 4    1  0.5323640E-005  0.3618688E+03  0.7818608E-02  0.1057846E+00
         -2   -1    0    0    0  501 -0.00000000000E+00  0.00000000000E+00  0.51792484131E+03  0.51792484132E+03  0.25500000000E-02 0. -1.
          2   -1    0    0  501    0  0.00000000000E+00 -0.00000000000E+00 -0.63208508841E+02  0.63208508892E+02  0.25500000000E-02 0.  1.
    5000001    1    1    2    0    0  0.65325817378E+02  0.33740857591E+02  0.24391935275E+03  0.30352521894E+03  0.16500000000E+03 0.  0.
   -5000001    1    1    2    0    0 -0.65325817378E+02 -0.33740857591E+02  0.21079697972E+03  0.27760813126E+03  0.16500000000E+03 0.  0.
<mgrwt>
<rscale>  0 0.36186880E+03</rscale>
<asrwt>0</asrwt>
<pdfrwt beam="1">  1        2 0.90297876E-02 0.36186880E+03</pdfrwt>
<pdfrwt beam="2">  1       -2 0.73989258E-01 0.36186880E+03</pdfrwt>
<totfact> 0.12408197E+03</totfact>
</mgrwt>
</event>
<event>
 4    1  0.5323640E-005  0.3694389E+03  0.7818608E-02  0.1054908E+00
         -2   -1    0    0    0  501 -0.00000000000E+00  0.00000000000E+00  0.22584325048E+03  0.22584325049E+03  0.25500000000E-02 0. -1.
          2   -1    0    0  501    0  0.00000000000E+00 -0.00000000000E+00 -0.15108387095E+03  0.15108387097E+03  0.25500000000E-02 0.  1.
    5000001    1    1    2    0    0 -0.68384865951E+02  0.35719122001E+02  0.60335565317E+01  0.18224639742E+03  0.16500000000E+03 0.  0.
   -5000001    1    1    2    0    0  0.68384865951E+02 -0.35719122001E+02  0.68725822995E+02  0.19468072404E+03  0.16500000000E+03 0.  0.
<mgrwt>
<rscale>  0 0.36943889E+03</rscale>
<asrwt>0</asrwt>
<pdfrwt beam="1">  1        2 0.21583410E-01 0.36943889E+03</pdfrwt>
<pdfrwt beam="2">  1       -2 0.32263321E-01 0.36943889E+03</pdfrwt>
<totfact> 0.22885168E+03</totfact>
</mgrwt>
</event>
<event>
 4    1  0.5323640E-005  0.5647824E+03  0.7818608E-02  0.9981291E-01
         -2   -1    0    0    0  501 -0.00000000000E+00  0.00000000000E+00  0.38726232696E+02  0.38726232780E+02  0.25500000000E-02 0. -1.
          2   -1    0    0  501    0  0.00000000000E+00 -0.00000000000E+00 -0.20591934076E+04  0.20591934076E+04  0.25500000000E-02 0.  1.
    5000001    1    1    2    0    0 -0.16672053554E+03  0.14206716523E+03 -0.75992095051E+03  0.80788840035E+03  0.16500000000E+03 0.  0.
   -5000001    1    1    2    0    0  0.16672053554E+03 -0.14206716523E+03 -0.12605462244E+04  0.12900312401E+04  0.16500000000E+03 0.  0.
<mgrwt>
<rscale>  0 0.56478245E+03</rscale>
<asrwt>0</asrwt>
<pdfrwt beam="1">  1        2 0.29417042E+00 0.56478245E+03</pdfrwt>
<pdfrwt beam="2">  1       -2 0.55323203E-02 0.56478245E+03</pdfrwt>
<totfact> 0.13589606E+03</totfact>
</mgrwt>
</event>
<event>
 4    1  0.5323640E-005  0.3850505E+03  0.7818608E-02  0.1049083E+00
         -2   -1    0    0    0  501 -0.00000000000E+00  0.00000000000E+00  0.22731905589E+03  0.22731905590E+03  0.25500000000E-02 0.  1.
          2   -1    0    0  501    0  0.00000000000E+00 -0.00000000000E+00 -0.16305699893E+03  0.16305699895E+03  0.25500000000E-02 0. -1.
    5000001    1    1    2    0    0 -0.61128391080E+02  0.76970106068E+02  0.18533381144E+02  0.19294964017E+03  0.16500000000E+03 0.  0.
   -5000001    1    1    2    0    0  0.61128391080E+02 -0.76970106068E+02  0.45728675813E+02  0.19742641469E+03  0.16500000000E+03 0.  0.
<mgrwt>
<rscale>  0 0.38505045E+03</rscale>
<asrwt>0</asrwt>
<pdfrwt beam="1">  1        2 0.23293857E-01 0.38505045E+03</pdfrwt>
<pdfrwt beam="2">  1       -2 0.32474150E-01 0.38505045E+03</pdfrwt>
<totfact> 0.20740053E+03</totfact>
</mgrwt>
</event>
<event>
 4    1  0.5323640E-005  0.5180507E+03  0.7818608E-02  0.1009172E+00
          2   -1    0    0  501    0  0.00000000000E+00  0.00000000000E+00  0.15765557311E+04  0.15765557311E+04  0.25500000000E-02 0.  1.
         -2   -1    0    0    0  501 -0.00000000000E+00 -0.00000000000E+00 -0.42557414592E+02  0.42557414668E+02  0.25500000000E-02 0. -1.
    5000001    1    1    2    0    0 -0.14089643299E+03  0.81186387082E+02  0.40485633188E+03  0.46645115901E+03  0.16500000000E+03 0.  0.
   -5000001    1    1    2    0    0  0.14089643299E+03 -0.81186387082E+02  0.11291419847E+04  0.11526619868E+04  0.16500000000E+03 0.  0.
<mgrwt>
<rscale>  0 0.51805072E+03</rscale>
<asrwt>0</asrwt>
<pdfrwt beam="1">  1        2 0.22522222E+00 0.51805072E+03</pdfrwt>
<pdfrwt beam="2">  1       -2 0.60796313E-02 0.51805072E+03</pdfrwt>
<totfact> 0.20579858E+03</totfact>
</mgrwt>
</event>
<event>
 4    1  0.5323640E-005  0.4920259E+03  0.7818608E-02  0.1015881E+00
          2   -1    0    0  501    0  0.00000000000E+00  0.00000000000E+00  0.80400263441E+02  0.80400263481E+02  0.25500000000E-02 0.  1.
         -2   -1    0    0    0  501 -0.00000000000E+00 -0.00000000000E+00 -0.75276339375E+03  0.75276339375E+03  0.25500000000E-02 0. -1.
    5000001    1    1    2    0    0 -0.15683956553E+03 -0.84234436349E+02 -0.26837874056E+03  0.36186494437E+03  0.16500000000E+03 0.  0.
   -5000001    1    1    2    0    0  0.15683956553E+03  0.84234436349E+02 -0.40398438975E+03  0.47129871286E+03  0.16500000000E+03 0.  0.
<mgrwt>
<rscale>  0 0.49202591E+03</rscale>
<asrwt>0</asrwt>
<pdfrwt beam="1">  1        2 0.11485752E-01 0.49202591E+03</pdfrwt>
<pdfrwt beam="2">  1       -2 0.10753762E+00 0.49202591E+03</pdfrwt>
<totfact> 0.39139087E+02</totfact>
</mgrwt>
</event>
<event>
 4    1  0.5323640E-005  0.5630849E+03  0.7818608E-02  0.9985099E-01
         -2   -1    0    0    0  501 -0.00000000000E+00  0.00000000000E+00  0.14048599843E+03  0.14048599845E+03  0.25500000000E-02 0. -1.
          2   -1    0    0  501    0  0.00000000000E+00 -0.00000000000E+00 -0.56422812133E+03  0.56422812133E+03  0.25500000000E-02 0.  1.
    5000001    1    1    2    0    0 -0.10349912009E+03  0.74085670215E+02 -0.44880403000E+03  0.49482402098E+03  0.16500000000E+03 0.  0.
   -5000001    1    1    2    0    0  0.10349912009E+03 -0.74085670215E+02  0.25061907107E+02  0.20989009881E+03  0.16500000000E+03 0.  0.
<mgrwt>
<rscale>  0 0.56308490E+03</rscale>
<asrwt>0</asrwt>
<pdfrwt beam="1">  1        2 0.80604016E-01 0.56308490E+03</pdfrwt>
<pdfrwt beam="2">  1       -2 0.20069429E-01 0.56308490E+03</pdfrwt>
<totfact> 0.12379921E+03</totfact>
</mgrwt>
</event>
<event>
 4    1  0.5323640E-005  0.4481667E+03  0.7818608E-02  0.1028270E+00
         -2   -1    0    0    0  501 -0.00000000000E+00  0.00000000000E+00  0.15699215114E+02  0.15699215321E+02  0.25500000000E-02 0.  1.
          2   -1    0    0  501    0  0.00000000000E+00 -0.00000000000E+00 -0.31984617139E+04  0.31984617139E+04  0.25500000000E-02 0. -1.
    5000001    1    1    2    0    0 -0.13933876137E+03 -0.57989411077E+02 -0.16953789034E+04  0.17100621884E+04  0.16500000000E+03 0.  0.
   -5000001    1    1    2    0    0  0.13933876137E+03  0.57989411077E+02 -0.14873835954E+04  0.15040987408E+04  0.16500000000E+03 0.  0.
<mgrwt>
<rscale>  0 0.44816666E+03</rscale>
<asrwt>0</asrwt>
<pdfrwt beam="1">  1        2 0.45692269E+00 0.44816666E+03</pdfrwt>
<pdfrwt beam="2">  1       -2 0.22427471E-02 0.44816666E+03</pdfrwt>
<totfact> 0.13855431E+03</totfact>
</mgrwt>
</event>
<event>
 4    1  0.5323640E-005  0.3858030E+03  0.7818608E-02  0.1048810E+00
          2   -1    0    0  501    0  0.00000000000E+00  0.00000000000E+00  0.11142761747E+04  0.11142761747E+04  0.25500000000E-02 0.  1.
         -2   -1    0    0    0  501 -0.00000000000E+00 -0.00000000000E+00 -0.33394765966E+02  0.33394766064E+02  0.25500000000E-02 0. -1.
    5000001    1    1    2    0    0 -0.93109433299E+02  0.17768506288E+02  0.63455343115E+03  0.66247123966E+03  0.16500000000E+03 0.  0.
   -5000001    1    1    2    0    0  0.93109433299E+02 -0.17768506288E+02  0.44632797758E+03  0.48519970111E+03  0.16500000000E+03 0.  0.
<mgrwt>
<rscale>  0 0.38580302E+03</rscale>
<asrwt>0</asrwt>
<pdfrwt beam="1">  1        2 0.15918233E+00 0.38580302E+03</pdfrwt>
<pdfrwt beam="2">  1       -2 0.47706803E-02 0.38580302E+03</pdfrwt>
<totfact> 0.52893614E+03</totfact>
</mgrwt>
</event>
<event>
 4    1  0.5323640E-005  0.4656203E+03  0.7818608E-02  0.1023164E+00
          2   -1    0    0  501    0  0.00000000000E+00  0.00000000000E+00  0.19302400493E+03  0.19302400495E+03  0.25500000000E-02 0.  1.
         -2   -1    0    0    0  501 -0.00000000000E+00 -0.00000000000E+00 -0.28079707547E+03  0.28079707548E+03  0.25500000000E-02 0. -1.
    5000001    1    1    2    0    0 -0.78539424322E+02  0.87506055119E+02 -0.16057889501E+03  0.25852723721E+03  0.16500000000E+03 0.  0.
   -5000001    1    1    2    0    0  0.78539424322E+02 -0.87506055119E+02  0.72805824472E+02  0.21529384323E+03  0.16500000000E+03 0.  0.
<mgrwt>
<rscale>  0 0.46562034E+03</rscale>
<asrwt>0</asrwt>
<pdfrwt beam="1">  1        2 0.27574858E-01 0.46562034E+03</pdfrwt>
<pdfrwt beam="2">  1       -2 0.40113868E-01 0.46562034E+03</pdfrwt>
<totfact> 0.11510933E+03</totfact>
</mgrwt>
</event>
<event>
 4    1  0.5323640E-005  0.4875285E+03  0.7818608E-02  0.1017086E+00
         -2   -1    0    0    0  501 -0.00000000000E+00  0.00000000000E+00  0.40107924096E+02  0.40107924177E+02  0.25500000000E-02 0. -1.
          2   -1    0    0  501    0  0.00000000000E+00 -0.00000000000E+00 -0.14815277532E+04  0.14815277532E+04  0.25500000000E-02 0.  1.
    5000001    1    1    2    0    0  0.24733998725E+02 -0.13972536516E+03 -0.10634803344E+04  0.10855184798E+04  0.16500000000E+03 0.  0.
   -5000001    1    1    2    0    0 -0.24733998725E+02  0.13972536516E+03 -0.37793949477E+03  0.43611719763E+03  0.16500000000E+03 0.  0.
<mgrwt>
<rscale>  0 0.48752847E+03</rscale>
<asrwt>0</asrwt>
<pdfrwt beam="1">  1        2 0.21164679E+00 0.48752847E+03</pdfrwt>
<pdfrwt beam="2">  1       -2 0.57297044E-02 0.48752847E+03</pdfrwt>
<totfact> 0.25283510E+03</totfact>
</mgrwt>
</event>
<event>
 4    1  0.5323640E-005  0.4184798E+03  0.7818608E-02  0.1037562E+00
          2   -1    0    0  501    0  0.00000000000E+00  0.00000000000E+00  0.35927531332E+03  0.35927531333E+03  0.25500000000E-02 0.  1.
         -2   -1    0    0    0  501 -0.00000000000E+00 -0.00000000000E+00 -0.12186011652E+03  0.12186011655E+03  0.25500000000E-02 0. -1.
    5000001    1    1    2    0    0  0.67385612034E+02 -0.10659537978E+03  0.14808599699E+03  0.25506441972E+03  0.16500000000E+03 0.  0.
   -5000001    1    1    2    0    0 -0.67385612034E+02  0.10659537978E+03  0.89329199808E+02  0.22607101017E+03  0.16500000000E+03 0.  0.
<mgrwt>
<rscale>  0 0.41847978E+03</rscale>
<asrwt>0</asrwt>
<pdfrwt beam="1">  1        2 0.51325045E-01 0.41847978E+03</pdfrwt>
<pdfrwt beam="2">  1       -2 0.17408588E-01 0.41847978E+03</pdfrwt>
<totfact> 0.26153675E+03</totfact>
</mgrwt>
</event>
<event>
 4    1  0.5323640E-005  0.7382141E+03  0.7818608E-02  0.9654024E-01
          2   -1    0    0  501    0  0.00000000000E+00  0.00000000000E+00  0.12864574787E+04  0.12864574787E+04  0.25500000000E-02 0.  1.
         -2   -1    0    0    0  501 -0.00000000000E+00 -0.00000000000E+00 -0.10590325165E+03  0.10590325168E+03  0.25500000000E-02 0. -1.
    5000001    1    1    2    0    0  0.27949025395E+03  0.16802048280E+03  0.49282936842E+03  0.61355641230E+03  0.16500000000E+03 0.  0.
   -5000001    1    1    2    0    0 -0.27949025395E+03 -0.16802048280E+03  0.68772485865E+03  0.77880431810E+03  0.16500000000E+03 0.  0.
<mgrwt>
<rscale>  0 0.73821414E+03</rscale>
<asrwt>0</asrwt>
<pdfrwt beam="1">  1        2 0.18377963E+00 0.73821414E+03</pdfrwt>
<pdfrwt beam="2">  1       -2 0.15129037E-01 0.73821414E+03</pdfrwt>
<totfact> 0.66400124E+02</totfact>
</mgrwt>
</event>
<event>
 4    1  0.5323640E-005  0.5807570E+03  0.7818608E-02  0.9946153E-01
          2   -1    0    0  501    0  0.00000000000E+00  0.00000000000E+00  0.10946951803E+04  0.10946951803E+04  0.25500000000E-02 0.  1.
         -2   -1    0    0    0  501 -0.00000000000E+00 -0.00000000000E+00 -0.77025714356E+02  0.77025714398E+02  0.25500000000E-02 0. -1.
    5000001    1    1    2    0    0  0.40323641574E+02 -0.22001875790E+03  0.33930525102E+03  0.43861977072E+03  0.16500000000E+03 0.  0.
   -5000001    1    1    2    0    0 -0.40323641574E+02  0.22001875790E+03  0.67836421497E+03  0.73310112402E+03  0.16500000000E+03 0.  0.
<mgrwt>
<rscale>  0 0.58075702E+03</rscale>
<asrwt>0</asrwt>
<pdfrwt beam="1">  1        2 0.15638502E+00 0.58075702E+03</pdfrwt>
<pdfrwt beam="2">  1       -2 0.11003674E-01 0.58075702E+03</pdfrwt>
<totfact> 0.14533950E+03</totfact>
</mgrwt>
</event>
<event>
 4    1  0.5323640E-005  0.6167666E+03  0.7818608E-02  0.9871219E-01
         -2   -1    0    0    0  501 -0.00000000000E+00  0.00000000000E+00  0.12316566985E+03  0.12316566988E+03  0.25500000000E-02 0. -1.
          2   -1    0    0  501    0  0.00000000000E+00 -0.00000000000E+00 -0.77213272511E+03  0.77213272512E+03  0.25500000000E-02 0.  1.
    5000001    1    1    2    0    0  0.76703057520E+02  0.21202993811E+03 -0.13502223640E+03  0.31031606148E+03  0.16500000000E+03 0.  0.
   -5000001    1    1    2    0    0 -0.76703057520E+02 -0.21202993811E+03 -0.51394481887E+03  0.58498233352E+03  0.16500000000E+03 0.  0.
<mgrwt>
<rscale>  0 0.61676655E+03</rscale>
<asrwt>0</asrwt>
<pdfrwt beam="1">  1        2 0.11030467E+00 0.61676655E+03</pdfrwt>
<pdfrwt beam="2">  1       -2 0.17595096E-01 0.61676655E+03</pdfrwt>
<totfact> 0.10637403E+03</totfact>
</mgrwt>
</event>
<event>
 4    1  0.5323640E-005  0.5172497E+03  0.7818608E-02  0.1009372E+00
         -2   -1    0    0    0  501 -0.00000000000E+00  0.00000000000E+00  0.54870942224E+02  0.54870942283E+02  0.25500000000E-02 0. -1.
          2   -1    0    0  501    0  0.00000000000E+00 -0.00000000000E+00 -0.12189842220E+04  0.12189842220E+04  0.25500000000E-02 0.  1.
    5000001    1    1    2    0    0  0.18732461438E+03  0.38849870000E+02 -0.44577992994E+03  0.51239103182E+03  0.16500000000E+03 0.  0.
   -5000001    1    1    2    0    0 -0.18732461438E+03 -0.38849870000E+02 -0.71833334986E+03  0.76146413249E+03  0.16500000000E+03 0.  0.
<mgrwt>
<rscale>  0 0.51724970E+03</rscale>
<asrwt>0</asrwt>
<pdfrwt beam="1">  1        2 0.17414059E+00 0.51724970E+03</pdfrwt>
<pdfrwt beam="2">  1       -2 0.78387068E-02 0.51724970E+03</pdfrwt>
<totfact> 0.21343357E+03</totfact>
</mgrwt>
</event>
<event>
 4    1  0.5323640E-005  0.4966136E+03  0.7818608E-02  0.1014667E+00
         -2   -1    0    0    0  501 -0.00000000000E+00  0.00000000000E+00  0.26956473173E+03  0.26956473174E+03  0.25500000000E-02 0. -1.
          2   -1    0    0  501    0  0.00000000000E+00 -0.00000000000E+00 -0.22872523877E+03  0.22872523878E+03  0.25500000000E-02 0.  1.
    5000001    1    1    2    0    0  0.17582579037E+03 -0.19593103468E+02 -0.35739355831E+02  0.24454222502E+03  0.16500000000E+03 0.  0.
   -5000001    1    1    2    0    0 -0.17582579037E+03  0.19593103468E+02  0.76578848792E+02  0.25374774550E+03  0.16500000000E+03 0.  0.
<mgrwt>
<rscale>  0 0.49661356E+03</rscale>
<asrwt>0</asrwt>
<pdfrwt beam="1">  1        2 0.32675034E-01 0.49661356E+03</pdfrwt>
<pdfrwt beam="2">  1       -2 0.38509248E-01 0.49661356E+03</pdfrwt>
<totfact> 0.10304410E+03</totfact>
</mgrwt>
</event>
<event>
 4    1  0.5323640E-005  0.3886904E+03  0.7818608E-02  0.1047768E+00
         -2   -1    0    0    0  501 -0.00000000000E+00  0.00000000000E+00  0.87567901049E+02  0.87567901086E+02  0.25500000000E-02 0. -1.
          2   -1    0    0  501    0  0.00000000000E+00 -0.00000000000E+00 -0.43132297648E+03  0.43132297649E+03  0.25500000000E-02 0.  1.
    5000001    1    1    2    0    0 -0.55954848740E+02 -0.85010475692E+02 -0.15360637129E+03  0.24734114776E+03  0.16500000000E+03 0.  0.
   -5000001    1    1    2    0    0  0.55954848740E+02  0.85010475692E+02 -0.19014870414E+03  0.27154972981E+03  0.16500000000E+03 0.  0.
<mgrwt>
<rscale>  0 0.38869035E+03</rscale>
<asrwt>0</asrwt>
<pdfrwt beam="1">  1        2 0.61617567E-01 0.38869035E+03</pdfrwt>
<pdfrwt beam="2">  1       -2 0.12509700E-01 0.38869035E+03</pdfrwt>
<totfact> 0.37064482E+03</totfact>
</mgrwt>
</event>
<event>
 4    1  0.5323640E-005  0.4976123E+03  0.7818608E-02  0.1014404E+00
         -2   -1    0    0    0  501 -0.00000000000E+00  0.00000000000E+00  0.35113353053E+03  0.35113353054E+03  0.25500000000E-02 0. -1.
          2   -1    0    0  501    0  0.00000000000E+00 -0.00000000000E+00 -0.17629904644E+03  0.17629904645E+03  0.25500000000E-02 0.  1.
    5000001    1    1    2    0    0 -0.17328375879E+03  0.53821799590E+02  0.43008218802E+02  0.24899549003E+03  0.16500000000E+03 0.  0.
   -5000001    1    1    2    0    0  0.17328375879E+03 -0.53821799590E+02  0.13182626529E+03  0.27843708696E+03  0.16500000000E+03 0.  0.
<mgrwt>
<rscale>  0 0.49761233E+03</rscale>
<asrwt>0</asrwt>
<pdfrwt beam="1">  1        2 0.25185579E-01 0.49761233E+03</pdfrwt>
<pdfrwt beam="2">  1       -2 0.50161931E-01 0.49761233E+03</pdfrwt>
<totfact> 0.82016308E+02</totfact>
</mgrwt>
</event>
<event>
 4    1  0.5323640E-005  0.4772144E+03  0.7818608E-02  0.1019904E+00
          2   -1    0    0  501    0  0.00000000000E+00  0.00000000000E+00  0.21064171374E+03  0.21064171376E+03  0.25500000000E-02 0.  1.
         -2   -1    0    0    0  501 -0.00000000000E+00 -0.00000000000E+00 -0.27028545391E+03  0.27028545392E+03  0.25500000000E-02 0. -1.
    5000001    1    1    2    0    0 -0.11912750698E+03  0.90366870896E+02  0.56582314173E+02  0.22974788911E+03  0.16500000000E+03 0.  0.
   -5000001    1    1    2    0    0  0.11912750698E+03 -0.90366870896E+02 -0.11622605433E+03  0.25117927857E+03  0.16500000000E+03 0.  0.
<mgrwt>
<rscale>  0 0.47721438E+03</rscale>
<asrwt>0</asrwt>
<pdfrwt beam="1">  1        2 0.30091674E-01 0.47721438E+03</pdfrwt>
<pdfrwt beam="2">  1       -2 0.38612207E-01 0.47721438E+03</pdfrwt>
<totfact> 0.11235298E+03</totfact>
</mgrwt>
</event>
<event>
 4    1  0.5323640E-005  0.7096406E+03  0.7818608E-02  0.9700886E-01
          2   -1    0    0  501    0  0.00000000000E+00  0.00000000000E+00  0.53090671933E+03  0.53090671934E+03  0.25500000000E-02 0.  1.
         -2   -1    0    0    0  501 -0.00000000000E+00 -0.00000000000E+00 -0.23713668997E+03  0.23713668998E+03  0.25500000000E-02 0. -1.
    5000001    1    1    2    0    0  0.32807180069E+02 -0.28135778046E+03 -0.60552968745E-01  0.32781628293E+03  0.16500000000E+03 0.  0.
   -5000001    1    1    2    0    0 -0.32807180069E+02  0.28135778046E+03  0.29383058233E+03  0.44022712638E+03  0.16500000000E+03 0.  0.
<mgrwt>
<rscale>  0 0.70964065E+03</rscale>
<asrwt>0</asrwt>
<pdfrwt beam="1">  1        2 0.75843815E-01 0.70964065E+03</pdfrwt>
<pdfrwt beam="2">  1       -2 0.33876671E-01 0.70964065E+03</pdfrwt>
<totfact> 0.51340206E+02</totfact>
</mgrwt>
</event>
<event>
 4    1  0.5323640E-005  0.6408536E+03  0.7818608E-02  0.9824095E-01
          2   -1    0    0  501    0  0.00000000000E+00  0.00000000000E+00  0.42269348997E+03  0.42269348998E+03  0.25500000000E-02 0.  1.
         -2   -1    0    0    0  501 -0.00000000000E+00 -0.00000000000E+00 -0.24290255919E+03  0.24290255921E+03  0.25500000000E-02 0. -1.
    5000001    1    1    2    0    0  0.14756585597E+03 -0.20946750037E+03 -0.12900633561E+02  0.30503072289E+03  0.16500000000E+03 0.  0.
   -5000001    1    1    2    0    0 -0.14756585597E+03  0.20946750037E+03  0.19269156434E+03  0.36056532630E+03  0.16500000000E+03 0.  0.
<mgrwt>
<rscale>  0 0.64085359E+03</rscale>
<asrwt>0</asrwt>
<pdfrwt beam="1">  1        2 0.60384784E-01 0.64085359E+03</pdfrwt>
<pdfrwt beam="2">  1       -2 0.34700366E-01 0.64085359E+03</pdfrwt>
<totfact> 0.63632908E+02</totfact>
</mgrwt>
</event>
<event>
 4    1  0.5323640E-005  0.4896523E+03  0.7818608E-02  0.1016516E+00
         -2   -1    0    0    0  501 -0.00000000000E+00  0.00000000000E+00  0.96129402199E+02  0.96129402232E+02  0.25500000000E-02 0.  1.
          2   -1    0    0  501    0  0.00000000000E+00 -0.00000000000E+00 -0.62353282106E+03  0.62353282107E+03  0.25500000000E-02 0. -1.
    5000001    1    1    2    0    0  0.15600199093E+03 -0.78541248815E+02 -0.33278719187E+03  0.41046030747E+03  0.16500000000E+03 0.  0.
   -5000001    1    1    2    0    0 -0.15600199093E+03  0.78541248815E+02 -0.19461622699E+03  0.30920191583E+03  0.16500000000E+03 0.  0.
<mgrwt>
<rscale>  0 0.48965227E+03</rscale>
<asrwt>0</asrwt>
<pdfrwt beam="1">  1        2 0.89076115E-01 0.48965227E+03</pdfrwt>
<pdfrwt beam="2">  1       -2 0.13732772E-01 0.48965227E+03</pdfrwt>
<totfact> 0.20980735E+03</totfact>
</mgrwt>
</event>
<event>
 4    1  0.5323640E-005  0.9398526E+03  0.7818608E-02  0.9377091E-01
          2   -1    0    0  501    0  0.00000000000E+00  0.00000000000E+00  0.19391534862E+04  0.19391534862E+04  0.25500000000E-02 0.  1.
         -2   -1    0    0    0  501 -0.00000000000E+00 -0.00000000000E+00 -0.11387995848E+03  0.11387995851E+03  0.25500000000E-02 0. -1.
    5000001    1    1    2    0    0  0.28034273561E+03 -0.29676155820E+03  0.55405728924E+03  0.70771742355E+03  0.16500000000E+03 0.  0.
   -5000001    1    1    2    0    0 -0.28034273561E+03  0.29676155820E+03  0.12712162385E+04  0.13453160212E+04  0.16500000000E+03 0.  0.
<mgrwt>
<rscale>  0 0.93985258E+03</rscale>
<asrwt>0</asrwt>
<pdfrwt beam="1">  1        2 0.27702191E+00 0.93985258E+03</pdfrwt>
<pdfrwt beam="2">  1       -2 0.16268567E-01 0.93985258E+03</pdfrwt>
<totfact> 0.26462577E+02</totfact>
</mgrwt>
</event>
<event>
 4    1  0.5323640E-005  0.4239251E+03  0.7818608E-02  0.1035796E+00
         -2   -1    0    0    0  501 -0.00000000000E+00  0.00000000000E+00  0.31095373610E+02  0.31095373715E+02  0.25500000000E-02 0. -1.
          2   -1    0    0  501    0  0.00000000000E+00 -0.00000000000E+00 -0.14448489897E+04  0.14448489897E+04  0.25500000000E-02 0.  1.
    5000001    1    1    2    0    0  0.33712153575E+02 -0.64400100025E+02 -0.10948737745E+04  0.11096204145E+04  0.16500000000E+03 0.  0.
   -5000001    1    1    2    0    0 -0.33712153575E+02  0.64400100025E+02 -0.31887984162E+03  0.36632394895E+03  0.16500000000E+03 0.  0.
<mgrwt>
<rscale>  0 0.42392508E+03</rscale>
<asrwt>0</asrwt>
<pdfrwt beam="1">  1        2 0.20640696E+00 0.42392508E+03</pdfrwt>
<pdfrwt beam="2">  1       -2 0.44421971E-02 0.42392508E+03</pdfrwt>
<totfact> 0.39130179E+03</totfact>
</mgrwt>
</event>
<event>
 4    1  0.5323640E-005  0.8079020E+03  0.7818608E-02  0.9548649E-01
         -2   -1    0    0    0  501 -0.00000000000E+00  0.00000000000E+00  0.74144663164E+02  0.74144663208E+02  0.25500000000E-02 0. -1.
          2   -1    0    0  501    0  0.00000000000E+00 -0.00000000000E+00 -0.22007843922E+04  0.22007843922E+04  0.25500000000E-02 0.  1.
    5000001    1    1    2    0    0  0.18757204516E+03  0.26998359147E+03 -0.15334653031E+04  0.15769639335E+04  0.16500000000E+03 0.  0.
   -5000001    1    1    2    0    0 -0.18757204516E+03 -0.26998359147E+03 -0.59317442589E+03  0.69796512185E+03  0.16500000000E+03 0.  0.
<mgrwt>
<rscale>  0 0.80790202E+03</rscale>
<asrwt>0</asrwt>
<pdfrwt beam="1">  1        2 0.31439773E+00 0.80790202E+03</pdfrwt>
<pdfrwt beam="2">  1       -2 0.10592096E-01 0.80790202E+03</pdfrwt>
<totfact> 0.40290068E+02</totfact>
</mgrwt>
</event>
<event>
 4    1  0.5323640E-005  0.4948878E+03  0.7818608E-02  0.1015122E+00
         -2   -1    0    0    0  501 -0.00000000000E+00  0.00000000000E+00  0.11838351600E+03  0.11838351603E+03  0.25500000000E-02 0. -1.
          2   -1    0    0  501    0  0.00000000000E+00 -0.00000000000E+00 -0.51720437337E+03  0.51720437338E+03  0.25500000000E-02 0.  1.
    5000001    1    1    2    0    0  0.13761493600E+03  0.25061252062E+02 -0.35372801973E+03  0.41462567324E+03  0.16500000000E+03 0.  0.
   -5000001    1    1    2    0    0 -0.13761493600E+03 -0.25061252062E+02 -0.45092837637E+02  0.22096221616E+03  0.16500000000E+03 0.  0.
<mgrwt>
<rscale>  0 0.49488775E+03</rscale>
<asrwt>0</asrwt>
<pdfrwt beam="1">  1        2 0.73886338E-01 0.49488775E+03</pdfrwt>
<pdfrwt beam="2">  1       -2 0.16911931E-01 0.49488775E+03</pdfrwt>
<totfact> 0.18359930E+03</totfact>
</mgrwt>
</event>
<event>
 4    1  0.5323640E-005  0.5445055E+03  0.7818608E-02  0.1002774E+00
          2   -1    0    0  501    0  0.00000000000E+00  0.00000000000E+00  0.14854233122E+04  0.14854233122E+04  0.25500000000E-02 0.  1.
         -2   -1    0    0    0  501 -0.00000000000E+00 -0.00000000000E+00 -0.49899278207E+02  0.49899278272E+02  0.25500000000E-02 0. -1.
    5000001    1    1    2    0    0 -0.10475553793E+03  0.18840702801E+03  0.65959074976E+03  0.71327125843E+03  0.16500000000E+03 0.  0.
   -5000001    1    1    2    0    0  0.10475553793E+03 -0.18840702801E+03  0.77593328418E+03  0.82205133200E+03  0.16500000000E+03 0.  0.
<mgrwt>
<rscale>  0 0.54450547E+03</rscale>
<asrwt>0</asrwt>
<pdfrwt beam="1">  1        2 0.21220331E+00 0.54450547E+03</pdfrwt>
<pdfrwt beam="2">  1       -2 0.71284691E-02 0.54450547E+03</pdfrwt>
<totfact> 0.17851131E+03</totfact>
</mgrwt>
</event>
<event>
 4    1  0.5323640E-005  0.5495732E+03  0.7818608E-02  0.1001593E+00
         -2   -1    0    0    0  501 -0.00000000000E+00  0.00000000000E+00  0.12814857104E+03  0.12814857106E+03  0.25500000000E-02 0. -1.
          2   -1    0    0  501    0  0.00000000000E+00 -0.00000000000E+00 -0.58921976721E+03  0.58921976722E+03  0.25500000000E-02 0.  1.
    5000001    1    1    2    0    0 -0.43697816320E+02 -0.18932564097E+03 -0.96595783903E+02  0.27259758426E+03  0.16500000000E+03 0.  0.
   -5000001    1    1    2    0    0  0.43697816320E+02  0.18932564097E+03 -0.36447541227E+03  0.44477075402E+03  0.16500000000E+03 0.  0.
<mgrwt>
<rscale>  0 0.54957318E+03</rscale>
<asrwt>0</asrwt>
<pdfrwt beam="1">  1        2 0.84174251E-01 0.54957318E+03</pdfrwt>
<pdfrwt beam="2">  1       -2 0.18306939E-01 0.54957318E+03</pdfrwt>
<totfact> 0.13799945E+03</totfact>
</mgrwt>
</event>
<event>
 4    1  0.5323640E-005  0.6391815E+03  0.7818608E-02  0.9827294E-01
          2   -1    0    0  501    0  0.00000000000E+00  0.00000000000E+00  0.38653892911E+04  0.38653892911E+04  0.25500000000E-02 0.  1.
         -2   -1    0    0    0  501 -0.00000000000E+00 -0.00000000000E+00 -0.26423796518E+02  0.26423796641E+02  0.25500000000E-02 0. -1.
    5000001    1    1    2    0    0  0.26615192177E+03  0.52863665743E+02  0.21374774633E+04  0.21609410725E+04  0.16500000000E+03 0.  0.
   -5000001    1    1    2    0    0 -0.26615192177E+03 -0.52863665743E+02  0.17014880312E+04  0.17308720152E+04  0.16500000000E+03 0.  0.
<mgrwt>
<rscale>  0 0.63918154E+03</rscale>
<asrwt>0</asrwt>
<pdfrwt beam="1">  1        2 0.55219826E+00 0.63918154E+03</pdfrwt>
<pdfrwt beam="2">  1       -2 0.37748295E-02 0.63918154E+03</pdfrwt>
<totfact> 0.24573977E+02</totfact>
</mgrwt>
</event>
<event>
 4    1  0.5323640E-005  0.5096509E+03  0.7818608E-02  0.1011290E+00
         -2   -1    0    0    0  501 -0.00000000000E+00  0.00000000000E+00  0.77703777935E+02  0.77703777977E+02  0.25500000000E-02 0.  1.
          2   -1    0    0  501    0  0.00000000000E+00 -0.00000000000E+00 -0.83568670294E+03  0.83568670295E+03  0.25500000000E-02 0. -1.
    5000001    1    1    2    0    0 -0.19233733580E+03 -0.10210835064E+02 -0.33461526563E+03  0.41986937003E+03  0.16500000000E+03 0.  0.
   -5000001    1    1    2    0    0  0.19233733580E+03  0.10210835064E+02 -0.42336765938E+03  0.49352111090E+03  0.16500000000E+03 0.  0.
<mgrwt>
<rscale>  0 0.50965092E+03</rscale>
<asrwt>0</asrwt>
<pdfrwt beam="1">  1        2 0.11938381E+00 0.50965092E+03</pdfrwt>
<pdfrwt beam="2">  1       -2 0.11100540E-01 0.50965092E+03</pdfrwt>
<totfact> 0.20769869E+03</totfact>
</mgrwt>
</event>
<event>
 4    1  0.5323640E-005  0.8068903E+03  0.7818608E-02  0.9550097E-01
          2   -1    0    0  501    0  0.00000000000E+00  0.00000000000E+00  0.57009762818E+03  0.57009762818E+03  0.25500000000E-02 0.  1.
         -2   -1    0    0    0  501 -0.00000000000E+00 -0.00000000000E+00 -0.28550894189E+03  0.28550894190E+03  0.25500000000E-02 0. -1.
    5000001    1    1    2    0    0  0.12214274286E+03 -0.15143830138E+03  0.47371986169E+03  0.53804081269E+03  0.16500000000E+03 0.  0.
   -5000001    1    1    2    0    0 -0.12214274286E+03  0.15143830138E+03 -0.18913117540E+03  0.31756575739E+03  0.16500000000E+03 0.  0.
<mgrwt>
<rscale>  0 0.80689025E+03</rscale>
<asrwt>0</asrwt>
<pdfrwt beam="1">  1        2 0.81442518E-01 0.80689025E+03</pdfrwt>
<pdfrwt beam="2">  1       -2 0.40786992E-01 0.80689025E+03</pdfrwt>
<totfact> 0.32967756E+02</totfact>
</mgrwt>
</event>
<event>
 4    1  0.5323640E-005  0.4302679E+03  0.7818608E-02  0.1033775E+00
         -2   -1    0    0    0  501 -0.00000000000E+00  0.00000000000E+00  0.43376115167E+02  0.43376115242E+02  0.25500000000E-02 0. -1.
          2   -1    0    0  501    0  0.00000000000E+00 -0.00000000000E+00 -0.10670071148E+04  0.10670071148E+04  0.25500000000E-02 0.  1.
    5000001    1    1    2    0    0 -0.13414570607E+03  0.31232754052E+02 -0.48773510587E+03  0.53299257863E+03  0.16500000000E+03 0.  0.
   -5000001    1    1    2    0    0  0.13414570607E+03 -0.31232754052E+02 -0.53589589375E+03  0.57739065140E+03  0.16500000000E+03 0.  0.
<mgrwt>
<rscale>  0 0.43026793E+03</rscale>
<asrwt>0</asrwt>
<pdfrwt beam="1">  1        2 0.15242957E+00 0.43026793E+03</pdfrwt>
<pdfrwt beam="2">  1       -2 0.61965885E-02 0.43026793E+03</pdfrwt>
<totfact> 0.37656436E+03</totfact>
</mgrwt>
</event>
<event>
 4    1  0.5323640E-005  0.7216548E+03  0.7818608E-02  0.9680900E-01
          2   -1    0    0  501    0  0.00000000000E+00  0.00000000000E+00  0.41379213716E+04  0.41379213716E+04  0.25500000000E-02 0.  1.
         -2   -1    0    0    0  501 -0.00000000000E+00 -0.00000000000E+00 -0.31464207140E+02  0.31464207244E+02  0.25500000000E-02 0. -1.
    5000001    1    1    2    0    0  0.23114629001E+03  0.17622028812E+03  0.12676279527E+04  0.13109492071E+04  0.16500000000E+03 0.  0.
   -5000001    1    1    2    0    0 -0.23114629001E+03 -0.17622028812E+03  0.28388292118E+04  0.28584363717E+04  0.16500000000E+03 0.  0.
<mgrwt>
<rscale>  0 0.72165481E+03</rscale>
<asrwt>0</asrwt>
<pdfrwt beam="1">  1        2 0.59113136E+00 0.72165481E+03</pdfrwt>
<pdfrwt beam="2">  1       -2 0.44948888E-02 0.72165481E+03</pdfrwt>
<totfact> 0.12188490E+02</totfact>
</mgrwt>
</event>
<event>
 4    1  0.5323640E-005  0.9036714E+03  0.7818608E-02  0.9421004E-01
          2   -1    0    0  501    0  0.00000000000E+00  0.00000000000E+00  0.12415065723E+04  0.12415065723E+04  0.25500000000E-02 0.  1.
         -2   -1    0    0    0  501 -0.00000000000E+00 -0.00000000000E+00 -0.16444173331E+03  0.16444173333E+03  0.25500000000E-02 0. -1.
    5000001    1    1    2    0    0 -0.41122796810E+03 -0.74746847681E+02  0.61208428130E+03  0.75932055181E+03  0.16500000000E+03 0.  0.
   -5000001    1    1    2    0    0  0.41122796810E+03  0.74746847681E+02  0.46498055773E+03  0.64662775385E+03  0.16500000000E+03 0.  0.
<mgrwt>
<rscale>  0 0.90367138E+03</rscale>
<asrwt>0</asrwt>
<pdfrwt beam="1">  1        2 0.17735809E+00 0.90367138E+03</pdfrwt>
<pdfrwt beam="2">  1       -2 0.23491675E-01 0.90367138E+03</pdfrwt>
<totfact> 0.32465144E+02</totfact>
</mgrwt>
</event>
<event>
 4    1  0.5323640E-005  0.4275755E+03  0.7818608E-02  0.1034629E+00
         -2   -1    0    0    0  501 -0.00000000000E+00  0.00000000000E+00  0.20905821195E+02  0.20905821350E+02  0.25500000000E-02 0. -1.
          2   -1    0    0  501    0  0.00000000000E+00 -0.00000000000E+00 -0.21862423316E+04  0.21862423316E+04  0.25500000000E-02 0.  1.
    5000001    1    1    2    0    0 -0.53517829954E+02 -0.10698791219E+03 -0.14159925437E+04  0.14305839561E+04  0.16500000000E+03 0.  0.
   -5000001    1    1    2    0    0  0.53517829954E+02  0.10698791219E+03 -0.74934396666E+03  0.77656419686E+03  0.16500000000E+03 0.  0.
<mgrwt>
<rscale>  0 0.42757545E+03</rscale>
<asrwt>0</asrwt>
<pdfrwt beam="1">  1        2 0.31232019E+00 0.42757545E+03</pdfrwt>
<pdfrwt beam="2">  1       -2 0.29865473E-02 0.42757545E+03</pdfrwt>
<totfact> 0.30364942E+03</totfact>
</mgrwt>
</event>
<event>
 4    1  0.5323640E-005  0.8648169E+03  0.7818608E-02  0.9470663E-01
          2   -1    0    0  501    0  0.00000000000E+00  0.00000000000E+00  0.14746255410E+04  0.14746255410E+04  0.25500000000E-02 0.  1.
         -2   -1    0    0    0  501 -0.00000000000E+00 -0.00000000000E+00 -0.12679631537E+03  0.12679631539E+03  0.25500000000E-02 0. -1.
    5000001    1    1    2    0    0 -0.37869546216E+03 -0.56165320011E+02  0.46126758149E+03  0.62173754750E+03  0.16500000000E+03 0.  0.
   -5000001    1    1    2    0    0  0.37869546216E+03  0.56165320011E+02  0.88656164412E+03  0.97968430888E+03  0.16500000000E+03 0.  0.
<mgrwt>
<rscale>  0 0.86481694E+03</rscale>
<asrwt>0</asrwt>
<pdfrwt beam="1">  1        2 0.21066080E+00 0.86481694E+03</pdfrwt>
<pdfrwt beam="2">  1       -2 0.18113759E-01 0.86481694E+03</pdfrwt>
<totfact> 0.38398770E+02</totfact>
</mgrwt>
</event>
<event>
 4    1  0.5323640E-005  0.5701576E+03  0.7818608E-02  0.9969330E-01
          2   -1    0    0  501    0  0.00000000000E+00  0.00000000000E+00  0.29238490499E+03  0.29238490500E+03  0.25500000000E-02 0.  1.
         -2   -1    0    0    0  501 -0.00000000000E+00 -0.00000000000E+00 -0.27795521989E+03  0.27795521990E+03  0.25500000000E-02 0. -1.
    5000001    1    1    2    0    0 -0.15824472155E+03  0.21363919434E+02 -0.16179813398E+03  0.28089401046E+03  0.16500000000E+03 0.  0.
   -5000001    1    1    2    0    0  0.15824472155E+03 -0.21363919434E+02  0.17622781908E+03  0.28944611445E+03  0.16500000000E+03 0.  0.
<mgrwt>
<rscale>  0 0.57015756E+03</rscale>
<asrwt>0</asrwt>
<pdfrwt beam="1">  1        2 0.41769272E-01 0.57015756E+03</pdfrwt>
<pdfrwt beam="2">  1       -2 0.39707889E-01 0.57015756E+03</pdfrwt>
<totfact> 0.74001344E+02</totfact>
</mgrwt>
</event>
<event>
 4    1  0.5323640E-005  0.5768945E+03  0.7818608E-02  0.9954537E-01
          2   -1    0    0  501    0  0.00000000000E+00  0.00000000000E+00  0.19757405056E+04  0.19757405056E+04  0.25500000000E-02 0.  1.
         -2   -1    0    0    0  501 -0.00000000000E+00 -0.00000000000E+00 -0.42111712531E+02  0.42111712609E+02  0.25500000000E-02 0. -1.
    5000001    1    1    2    0    0  0.20094880626E+03  0.22146951104E+02  0.13967133104E+04  0.14208814102E+04  0.16500000000E+03 0.  0.
   -5000001    1    1    2    0    0 -0.20094880626E+03 -0.22146951104E+02  0.53691548266E+03  0.59697080808E+03  0.16500000000E+03 0.  0.
<mgrwt>
<rscale>  0 0.57689450E+03</rscale>
<asrwt>0</asrwt>
<pdfrwt beam="1">  1        2 0.28224858E+00 0.57689450E+03</pdfrwt>
<pdfrwt beam="2">  1       -2 0.60159602E-02 0.57689450E+03</pdfrwt>
<totfact> 0.13120582E+03</totfact>
</mgrwt>
</event>
<event>
 4    1  0.5323640E-005  0.5177509E+03  0.7818608E-02  0.1009247E+00
          2   -1    0    0  501    0  0.00000000000E+00  0.00000000000E+00  0.16700967217E+04  0.16700967217E+04  0.25500000000E-02 0.  1.
         -2   -1    0    0    0  501 -0.00000000000E+00 -0.00000000000E+00 -0.40127323390E+02  0.40127323471E+02  0.25500000000E-02 0. -1.
    5000001    1    1    2    0    0  0.15575371885E+03  0.12459700378E+03  0.82425541729E+03  0.86394769935E+03  0.16500000000E+03 0.  0.
   -5000001    1    1    2    0    0 -0.15575371885E+03 -0.12459700378E+03  0.80571398105E+03  0.84627634585E+03  0.16500000000E+03 0.  0.
<mgrwt>
<rscale>  0 0.51775095E+03</rscale>
<asrwt>0</asrwt>
<pdfrwt beam="1">  1        2 0.23858522E+00 0.51775095E+03</pdfrwt>
<pdfrwt beam="2">  1       -2 0.57324754E-02 0.51775095E+03</pdfrwt>
<totfact> 0.20210209E+03</totfact>
</mgrwt>
</event>
<event>
 4    1  0.5323640E-005  0.7215386E+03  0.7818608E-02  0.9681091E-01
          2   -1    0    0  501    0  0.00000000000E+00  0.00000000000E+00  0.33734237314E+03  0.33734237315E+03  0.25500000000E-02 0.  1.
         -2   -1    0    0    0  501 -0.00000000000E+00 -0.00000000000E+00 -0.38582309584E+03  0.38582309584E+03  0.25500000000E-02 0. -1.
    5000001    1    1    2    0    0 -0.30147872686E+03  0.62200148153E+01 -0.13403812446E+03  0.36894353246E+03  0.16500000000E+03 0.  0.
   -5000001    1    1    2    0    0  0.30147872686E+03 -0.62200148153E+01  0.85557401769E+02  0.35422193654E+03  0.16500000000E+03 0.  0.
<mgrwt>
<rscale>  0 0.72153857E+03</rscale>
<asrwt>0</asrwt>
<pdfrwt beam="1">  1        2 0.48191768E-01 0.72153857E+03</pdfrwt>
<pdfrwt beam="2">  1       -2 0.55117585E-01 0.72153857E+03</pdfrwt>
<totfact> 0.32658536E+02</totfact>
</mgrwt>
</event>
<event>
 4    1  0.5323640E-005  0.4206802E+03  0.7818608E-02  0.1036845E+00
         -2   -1    0    0    0  501 -0.00000000000E+00  0.00000000000E+00  0.43845229609E+02  0.43845229683E+02  0.25500000000E-02 0. -1.
          2   -1    0    0  501    0  0.00000000000E+00 -0.00000000000E+00 -0.10090712327E+04  0.10090712327E+04  0.25500000000E-02 0.  1.
    5000001    1    1    2    0    0 -0.51035219697E+02 -0.66541652249E+02 -0.73272145325E+03  0.75573680153E+03  0.16500000000E+03 0.  0.
   -5000001    1    1    2    0    0  0.51035219697E+02  0.66541652249E+02 -0.23250454987E+03  0.29717966088E+03  0.16500000000E+03 0.  0.
<mgrwt>
<rscale>  0 0.42068021E+03</rscale>
<asrwt>0</asrwt>
<pdfrwt beam="1">  1        2 0.14415302E+00 0.42068021E+03</pdfrwt>
<pdfrwt beam="2">  1       -2 0.62636049E-02 0.42068021E+03</pdfrwt>
<totfact> 0.40057486E+03</totfact>
</mgrwt>
</event>
<event>
 4    1  0.5323640E-005  0.3630766E+03  0.7818608E-02  0.1057372E+00
          2   -1    0    0  501    0  0.00000000000E+00  0.00000000000E+00  0.87677749929E+02  0.87677749966E+02  0.25500000000E-02 0.  1.
         -2   -1    0    0    0  501 -0.00000000000E+00 -0.00000000000E+00 -0.37587818979E+03  0.37587818980E+03  0.25500000000E-02 0. -1.
    5000001    1    1    2    0    0  0.47677833713E+02  0.54786982560E+02 -0.17137491433E+03  0.24873510115E+03  0.16500000000E+03 0.  0.
   -5000001    1    1    2    0    0 -0.47677833713E+02 -0.54786982560E+02 -0.11682552553E+03  0.21482083861E+03  0.16500000000E+03 0.  0.
<mgrwt>
<rscale>  0 0.36307660E+03</rscale>
<asrwt>0</asrwt>
<pdfrwt beam="1">  1        2 0.12525393E-01 0.36307660E+03</pdfrwt>
<pdfrwt beam="2">  1       -2 0.53696884E-01 0.36307660E+03</pdfrwt>
<totfact> 0.16221115E+03</totfact>
</mgrwt>
</event>
<event>
 4    1  0.5323640E-005  0.4473437E+03  0.7818608E-02  0.1028517E+00
          2   -1    0    0  501    0  0.00000000000E+00  0.00000000000E+00  0.71271811968E+03  0.71271811969E+03  0.25500000000E-02 0.  1.
         -2   -1    0    0    0  501 -0.00000000000E+00 -0.00000000000E+00 -0.70194780783E+02  0.70194780829E+02  0.25500000000E-02 0. -1.
    5000001    1    1    2    0    0  0.94253459777E+02 -0.53090953508E+02  0.13685890096E+03  0.24012022571E+03  0.16500000000E+03 0.  0.
   -5000001    1    1    2    0    0 -0.94253459777E+02  0.53090953508E+02  0.50566443794E+03  0.54279267480E+03  0.16500000000E+03 0.  0.
<mgrwt>
<rscale>  0 0.44734368E+03</rscale>
<asrwt>0</asrwt>
<pdfrwt beam="1">  1        2 0.10181687E+00 0.44734368E+03</pdfrwt>
<pdfrwt beam="2">  1       -2 0.10027826E-01 0.44734368E+03</pdfrwt>
<totfact> 0.29866017E+03</totfact>
</mgrwt>
</event>
<event>
 4    1  0.5323640E-005  0.6345727E+03  0.7818608E-02  0.9836166E-01
          2   -1    0    0  501    0  0.00000000000E+00  0.00000000000E+00  0.18251060778E+04  0.18251060778E+04  0.25500000000E-02 0.  1.
         -2   -1    0    0    0  501 -0.00000000000E+00 -0.00000000000E+00 -0.55158778666E+02  0.55158778725E+02  0.25500000000E-02 0. -1.
    5000001    1    1    2    0    0  0.23023617749E+03 -0.12449810124E+03  0.67677605266E+03  0.74415005214E+03  0.16500000000E+03 0.  0.
   -5000001    1    1    2    0    0 -0.23023617749E+03  0.12449810124E+03  0.10931712464E+04  0.11361148044E+04  0.16500000000E+03 0.  0.
<mgrwt>
<rscale>  0 0.63457268E+03</rscale>
<asrwt>0</asrwt>
<pdfrwt beam="1">  1        2 0.26072942E+00 0.63457268E+03</pdfrwt>
<pdfrwt beam="2">  1       -2 0.78798261E-02 0.63457268E+03</pdfrwt>
<totfact> 0.10171428E+03</totfact>
</mgrwt>
</event>
<event>
 4    1  0.5323640E-005  0.4252473E+03  0.7818608E-02  0.1035372E+00
         -2   -1    0    0    0  501 -0.00000000000E+00  0.00000000000E+00  0.99589036910E+02  0.99589036943E+02  0.25500000000E-02 0. -1.
          2   -1    0    0  501    0  0.00000000000E+00 -0.00000000000E+00 -0.45395379214E+03  0.45395379215E+03  0.25500000000E-02 0.  1.
    5000001    1    1    2    0    0 -0.91133482635E+02 -0.41562399545E+02 -0.61111677960E+02  0.20246575487E+03  0.16500000000E+03 0.  0.
   -5000001    1    1    2    0    0  0.91133482635E+02  0.41562399545E+02 -0.29325307727E+03  0.35107707422E+03  0.16500000000E+03 0.  0.
<mgrwt>
<rscale>  0 0.42524732E+03</rscale>
<asrwt>0</asrwt>
<pdfrwt beam="1">  1        2 0.64850540E-01 0.42524732E+03</pdfrwt>
<pdfrwt beam="2">  1       -2 0.14227006E-01 0.42524732E+03</pdfrwt>
<totfact> 0.28377181E+03</totfact>
</mgrwt>
</event>
<event>
 4    1  0.5323640E-005  0.3522972E+03  0.7818608E-02  0.1061676E+00
          2   -1    0    0  501    0  0.00000000000E+00  0.00000000000E+00  0.27998165411E+04  0.27998165411E+04  0.25500000000E-02 0.  1.
         -2   -1    0    0    0  501 -0.00000000000E+00 -0.00000000000E+00 -0.11082271785E+02  0.11082272078E+02  0.25500000000E-02 0. -1.
    5000001    1    1    2    0    0  0.48336903960E+02  0.38277759385E+02  0.14047245569E+04  0.14157251583E+04  0.16500000000E+03 0.  0.
   -5000001    1    1    2    0    0 -0.48336903960E+02 -0.38277759385E+02  0.13840097125E+04  0.13951736549E+04  0.16500000000E+03 0.  0.
<mgrwt>
<rscale>  0 0.35229719E+03</rscale>
<asrwt>0</asrwt>
<pdfrwt beam="1">  1        2 0.39997403E+00 0.35229719E+03</pdfrwt>
<pdfrwt beam="2">  1       -2 0.15831808E-02 0.35229719E+03</pdfrwt>
<totfact> 0.38354023E+03</totfact>
</mgrwt>
</event>
<event>
 4    1  0.5323640E-005  0.5025602E+03  0.7818608E-02  0.1013113E+00
         -2   -1    0    0    0  501 -0.00000000000E+00  0.00000000000E+00  0.70955550446E+02  0.70955550492E+02  0.25500000000E-02 0. -1.
          2   -1    0    0  501    0  0.00000000000E+00 -0.00000000000E+00 -0.88987665383E+03  0.88987665383E+03  0.25500000000E-02 0.  1.
    5000001    1    1    2    0    0  0.73520598465E+02 -0.57068524585E+02 -0.93829798395E+02  0.21140275770E+03  0.16500000000E+03 0.  0.
   -5000001    1    1    2    0    0 -0.73520598465E+02  0.57068524585E+02 -0.72509130499E+03  0.74942944662E+03  0.16500000000E+03 0.  0.
<mgrwt>
<rscale>  0 0.50256020E+03</rscale>
<asrwt>0</asrwt>
<pdfrwt beam="1">  1        2 0.12712523E+00 0.50256020E+03</pdfrwt>
<pdfrwt beam="2">  1       -2 0.10136508E-01 0.50256020E+03</pdfrwt>
<totfact> 0.22171708E+03</totfact>
</mgrwt>
</event>
<event>
 4    1  0.5323640E-005  0.5078413E+03  0.7818608E-02  0.1011752E+00
          2   -1    0    0  501    0  0.00000000000E+00  0.00000000000E+00  0.74214032672E+03  0.74214032672E+03  0.25500000000E-02 0. -1.
         -2   -1    0    0    0  501 -0.00000000000E+00 -0.00000000000E+00 -0.86878024604E+02  0.86878024642E+02  0.25500000000E-02 0.  1.
    5000001    1    1    2    0    0 -0.14582340321E+03 -0.16788784617E+02  0.12305912375E+03  0.25281391605E+03  0.16500000000E+03 0.  0.
   -5000001    1    1    2    0    0  0.14582340321E+03  0.16788784617E+02  0.53220317837E+03  0.57620443532E+03  0.16500000000E+03 0.  0.
<mgrwt>
<rscale>  0 0.50784126E+03</rscale>
<asrwt>0</asrwt>
<pdfrwt beam="1">  1        2 0.10602004E+00 0.50784126E+03</pdfrwt>
<pdfrwt beam="2">  1       -2 0.12411147E-01 0.50784126E+03</pdfrwt>
<totfact> 0.20101903E+03</totfact>
</mgrwt>
</event>
<event>
 4    1  0.5323640E-005  0.4450855E+03  0.7818608E-02  0.1029198E+00
          2   -1    0    0  501    0  0.00000000000E+00  0.00000000000E+00  0.25239671758E+03  0.25239671759E+03  0.25500000000E-02 0.  1.
         -2   -1    0    0    0  501 -0.00000000000E+00 -0.00000000000E+00 -0.19621995527E+03  0.19621995529E+03  0.25500000000E-02 0. -1.
    5000001    1    1    2    0    0 -0.95937741263E+02 -0.38731982050E+02  0.13662770934E+03  0.23789986883E+03  0.16500000000E+03 0.  0.
   -5000001    1    1    2    0    0  0.95937741263E+02  0.38731982050E+02 -0.80450947027E+02  0.21071680405E+03  0.16500000000E+03 0.  0.
<mgrwt>
<rscale>  0 0.44508549E+03</rscale>
<asrwt>0</asrwt>
<pdfrwt beam="1">  1        2 0.36056674E-01 0.44508549E+03</pdfrwt>
<pdfrwt beam="2">  1       -2 0.28031422E-01 0.44508549E+03</pdfrwt>
<totfact> 0.16706770E+03</totfact>
</mgrwt>
</event>
<event>
 4    1  0.5323640E-005  0.4858230E+03  0.7818608E-02  0.1017547E+00
         -2   -1    0    0    0  501 -0.00000000000E+00  0.00000000000E+00  0.19165033714E+03  0.19165033716E+03  0.25500000000E-02 0. -1.
          2   -1    0    0  501    0  0.00000000000E+00 -0.00000000000E+00 -0.30788361485E+03  0.30788361486E+03  0.25500000000E-02 0.  1.
    5000001    1    1    2    0    0  0.14794993658E+03  0.78618492923E+02  0.45201282781E+01  0.23519243764E+03  0.16500000000E+03 0.  0.
   -5000001    1    1    2    0    0 -0.14794993658E+03 -0.78618492923E+02 -0.12075340599E+03  0.26434151438E+03  0.16500000000E+03 0.  0.
<mgrwt>
<rscale>  0 0.48582301E+03</rscale>
<asrwt>0</asrwt>
<pdfrwt beam="1">  1        2 0.43983373E-01 0.48582301E+03</pdfrwt>
<pdfrwt beam="2">  1       -2 0.27378620E-01 0.48582301E+03</pdfrwt>
<totfact> 0.14026863E+03</totfact>
</mgrwt>
</event>
<event>
 4    1  0.5323640E-005  0.8058517E+03  0.7818608E-02  0.9551585E-01
         -2   -1    0    0    0  501 -0.00000000000E+00  0.00000000000E+00  0.67152703713E+02  0.67152703761E+02  0.25500000000E-02 0. -1.
          2   -1    0    0  501    0  0.00000000000E+00 -0.00000000000E+00 -0.24176127635E+04  0.24176127635E+04  0.25500000000E-02 0.  1.
    5000001    1    1    2    0    0 -0.16073141423E+03 -0.30385336920E+03 -0.77364385691E+03  0.86250291294E+03  0.16500000000E+03 0.  0.
   -5000001    1    1    2    0    0  0.16073141423E+03  0.30385336920E+03 -0.15768162029E+04  0.16222625543E+04  0.16500000000E+03 0.  0.
<mgrwt>
<rscale>  0 0.80585168E+03</rscale>
<asrwt>0</asrwt>
<pdfrwt beam="1">  1        2 0.34537320E+00 0.80585168E+03</pdfrwt>
<pdfrwt beam="2">  1       -2 0.95932449E-02 0.80585168E+03</pdfrwt>
<totfact> 0.36692038E+02</totfact>
</mgrwt>
</event>
<event>
 4    1  0.5323640E-005  0.4855526E+03  0.7818608E-02  0.1017620E+00
         -2   -1    0    0    0  501 -0.00000000000E+00  0.00000000000E+00  0.49758836013E+02  0.49758836078E+02  0.25500000000E-02 0. -1.
          2   -1    0    0  501    0  0.00000000000E+00 -0.00000000000E+00 -0.11845199668E+04  0.11845199668E+04  0.25500000000E-02 0.  1.
    5000001    1    1    2    0    0 -0.15858962187E+03  0.75917578499E+02 -0.49542834924E+03  0.55098856261E+03  0.16500000000E+03 0.  0.
   -5000001    1    1    2    0    0  0.15858962187E+03 -0.75917578499E+02 -0.63933278150E+03  0.68329024023E+03  0.16500000000E+03 0.  0.
<mgrwt>
<rscale>  0 0.48555261E+03</rscale>
<asrwt>0</asrwt>
<pdfrwt beam="1">  1        2 0.16921712E+00 0.48555261E+03</pdfrwt>
<pdfrwt beam="2">  1       -2 0.71084059E-02 0.48555261E+03</pdfrwt>
<totfact> 0.26041963E+03</totfact>
</mgrwt>
</event>
<event>
 4    1  0.5323640E-005  0.6062955E+03  0.7818608E-02  0.9892430E-01
          2   -1    0    0  501    0  0.00000000000E+00  0.00000000000E+00  0.19450334546E+04  0.19450334546E+04  0.25500000000E-02 0.  1.
         -2   -1    0    0    0  501 -0.00000000000E+00 -0.00000000000E+00 -0.47247795980E+02  0.47247796049E+02  0.25500000000E-02 0. -1.
    5000001    1    1    2    0    0  0.24167299322E+03 -0.74709146581E+01  0.68990560309E+03  0.74943738324E+03  0.16500000000E+03 0.  0.
   -5000001    1    1    2    0    0 -0.24167299322E+03  0.74709146581E+01  0.12078800556E+04  0.12428438674E+04  0.16500000000E+03 0.  0.
<mgrwt>
<rscale>  0 0.60629545E+03</rscale>
<asrwt>0</asrwt>
<pdfrwt beam="1">  1        2 0.27786192E+00 0.60629545E+03</pdfrwt>
<pdfrwt beam="2">  1       -2 0.67496852E-02 0.60629545E+03</pdfrwt>
<totfact> 0.11328919E+03</totfact>
</mgrwt>
</event>
<event>
 4    1  0.5323640E-005  0.4242610E+03  0.7818608E-02  0.1035688E+00
         -2   -1    0    0    0  501 -0.00000000000E+00  0.00000000000E+00  0.26005950170E+02  0.26005950295E+02  0.25500000000E-02 0. -1.
          2   -1    0    0  501    0  0.00000000000E+00 -0.00000000000E+00 -0.17303483264E+04  0.17303483264E+04  0.25500000000E-02 0.  1.
    5000001    1    1    2    0    0  0.10547771286E+03  0.67035227531E+02 -0.10443524221E+04  0.10646672020E+04  0.16500000000E+03 0.  0.
   -5000001    1    1    2    0    0 -0.10547771286E+03 -0.67035227531E+02 -0.65998995416E+03  0.69168707465E+03  0.16500000000E+03 0.  0.
<mgrwt>
<rscale>  0 0.42426102E+03</rscale>
<asrwt>0</asrwt>
<pdfrwt beam="1">  1        2 0.24719255E+00 0.42426102E+03</pdfrwt>
<pdfrwt beam="2">  1       -2 0.37151368E-02 0.42426102E+03</pdfrwt>
<totfact> 0.36778642E+03</totfact>
</mgrwt>
</event>
<event>
 4    1  0.5323640E-005  0.6635371E+03  0.7818608E-02  0.9781704E-01
          2   -1    0    0  501    0  0.00000000000E+00  0.00000000000E+00  0.16374819392E+04  0.16374819392E+04  0.25500000000E-02 0.  1.
         -2   -1    0    0    0  501 -0.00000000000E+00 -0.00000000000E+00 -0.67219286142E+02  0.67219286190E+02  0.25500000000E-02 0. -1.
    5000001    1    1    2    0    0 -0.24663429007E+03  0.47689106083E+02  0.42414918378E+03  0.51983675705E+03  0.16500000000E+03 0.  0.
   -5000001    1    1    2    0    0  0.24663429007E+03 -0.47689106083E+02  0.11461134692E+04  0.11848644683E+04  0.16500000000E+03 0.  0.
<mgrwt>
<rscale>  0 0.66353709E+03</rscale>
<asrwt>0</asrwt>
<pdfrwt beam="1">  1        2 0.23392602E+00 0.66353709E+03</pdfrwt>
<pdfrwt beam="2">  1       -2 0.96027538E-02 0.66353709E+03</pdfrwt>
<totfact> 0.92113489E+02</totfact>
</mgrwt>
</event>
<event>
 4    1  0.5323640E-005  0.6144942E+03  0.7818608E-02  0.9875783E-01
         -2   -1    0    0    0  501 -0.00000000000E+00  0.00000000000E+00  0.97717567801E+02  0.97717567835E+02  0.25500000000E-02 0. -1.
          2   -1    0    0  501    0  0.00000000000E+00 -0.00000000000E+00 -0.96605725623E+03  0.96605725623E+03  0.25500000000E-02 0.  1.
    5000001    1    1    2    0    0  0.10088842198E+03 -0.14023272248E+03 -0.99687636626E+02  0.25885578039E+03  0.16500000000E+03 0.  0.
   -5000001    1    1    2    0    0 -0.10088842198E+03  0.14023272248E+03 -0.76865205180E+03  0.80491904368E+03  0.16500000000E+03 0.  0.
<mgrwt>
<rscale>  0 0.61449415E+03</rscale>
<asrwt>0</asrwt>
<pdfrwt beam="1">  1        2 0.13800817E+00 0.61449415E+03</pdfrwt>
<pdfrwt beam="2">  1       -2 0.13959653E-01 0.61449415E+03</pdfrwt>
<totfact> 0.11713514E+03</totfact>
</mgrwt>
</event>
<event>
 4    1  0.5323640E-005  0.4848723E+03  0.7818608E-02  0.1017805E+00
         -2   -1    0    0    0  501 -0.00000000000E+00  0.00000000000E+00  0.52605638171E+02  0.52605638233E+02  0.25500000000E-02 0. -1.
          2   -1    0    0  501    0  0.00000000000E+00 -0.00000000000E+00 -0.11172811250E+04  0.11172811250E+04  0.25500000000E-02 0.  1.
    5000001    1    1    2    0    0 -0.77569847074E+02 -0.12051973980E+03 -0.27918970562E+03  0.35456167388E+03  0.16500000000E+03 0.  0.
   -5000001    1    1    2    0    0  0.77569847074E+02  0.12051973980E+03 -0.78548578119E+03  0.81532508934E+03  0.16500000000E+03 0.  0.
<mgrwt>
<rscale>  0 0.48487230E+03</rscale>
<asrwt>0</asrwt>
<pdfrwt beam="1">  1        2 0.15961158E+00 0.48487230E+03</pdfrwt>
<pdfrwt beam="2">  1       -2 0.75150918E-02 0.48487230E+03</pdfrwt>
<totfact> 0.26038668E+03</totfact>
</mgrwt>
</event>
<event>
 4    1  0.5323640E-005  0.5344599E+03  0.7818608E-02  0.1005156E+00
         -2   -1    0    0    0  501 -0.00000000000E+00  0.00000000000E+00  0.71521796819E+02  0.71521796865E+02  0.25500000000E-02 0. -1.
          2   -1    0    0  501    0  0.00000000000E+00 -0.00000000000E+00 -0.99846284078E+03  0.99846284078E+03  0.25500000000E-02 0.  1.
    5000001    1    1    2    0    0 -0.15518465883E+03 -0.12821839399E+03 -0.58466335876E+03  0.63998318569E+03  0.16500000000E+03 0.  0.
   -5000001    1    1    2    0    0  0.15518465883E+03  0.12821839399E+03 -0.34227768520E+03  0.43000145195E+03  0.16500000000E+03 0.  0.
<mgrwt>
<rscale>  0 0.53445994E+03</rscale>
<asrwt>0</asrwt>
<pdfrwt beam="1">  1        2 0.14263754E+00 0.53445994E+03</pdfrwt>
<pdfrwt beam="2">  1       -2 0.10217400E-01 0.53445994E+03</pdfrwt>
<totfact> 0.18716641E+03</totfact>
</mgrwt>
</event>
<event>
 4    1  0.5323640E-005  0.9519204E+03  0.7818608E-02  0.9362909E-01
         -2   -1    0    0    0  501 -0.00000000000E+00  0.00000000000E+00  0.14819041094E+04  0.14819041094E+04  0.25500000000E-02 0. -1.
          2   -1    0    0  501    0  0.00000000000E+00 -0.00000000000E+00 -0.15286960240E+03  0.15286960242E+03  0.25500000000E-02 0.  1.
    5000001    1    1    2    0    0  0.26388772983E+03 -0.86953196058E+02  0.12646432306E+04  0.13052758685E+04  0.16500000000E+03 0.  0.
   -5000001    1    1    2    0    0 -0.26388772983E+03  0.86953196058E+02  0.64391276396E+02  0.32949784329E+03  0.16500000000E+03 0.  0.
<mgrwt>
<rscale>  0 0.95192036E+03</rscale>
<asrwt>0</asrwt>
<pdfrwt beam="1">  1        2 0.21838515E-01 0.95192036E+03</pdfrwt>
<pdfrwt beam="2">  1       -2 0.21170059E+00 0.95192036E+03</pdfrwt>
<totfact> 0.28785115E+01</totfact>
</mgrwt>
</event>
<event>
 4    1  0.5323640E-005  0.3474877E+03  0.7818608E-02  0.1063651E+00
          2   -1    0    0  501    0  0.00000000000E+00  0.00000000000E+00  0.36520870665E+03  0.36520870666E+03  0.25500000000E-02 0.  1.
         -2   -1    0    0    0  501 -0.00000000000E+00 -0.00000000000E+00 -0.82656630274E+02  0.82656630314E+02  0.25500000000E-02 0. -1.
    5000001    1    1    2    0    0  0.16903329450E+02  0.37569127003E+02  0.95439483177E+02  0.19501501686E+03  0.16500000000E+03 0.  0.
   -5000001    1    1    2    0    0 -0.16903329450E+02 -0.37569127003E+02  0.18711259320E+03  0.25285032012E+03  0.16500000000E+03 0.  0.
<mgrwt>
<rscale>  0 0.34748767E+03</rscale>
<asrwt>0</asrwt>
<pdfrwt beam="1">  1        2 0.52172673E-01 0.34748767E+03</pdfrwt>
<pdfrwt beam="2">  1       -2 0.11808090E-01 0.34748767E+03</pdfrwt>
<totfact> 0.48719997E+03</totfact>
</mgrwt>
</event>
<event>
 4    1  0.5323640E-005  0.4295527E+03  0.7818608E-02  0.1034001E+00
         -2   -1    0    0    0  501 -0.00000000000E+00  0.00000000000E+00  0.23219172511E+02  0.23219172651E+02  0.25500000000E-02 0. -1.
          2   -1    0    0  501    0  0.00000000000E+00 -0.00000000000E+00 -0.19866719262E+04  0.19866719262E+04  0.25500000000E-02 0.  1.
    5000001    1    1    2    0    0  0.27840948128E+02 -0.11445265775E+03 -0.64989918376E+03  0.68078519249E+03  0.16500000000E+03 0.  0.
   -5000001    1    1    2    0    0 -0.27840948128E+02  0.11445265775E+03 -0.13135535699E+04  0.13291059063E+04  0.16500000000E+03 0.  0.
<mgrwt>
<rscale>  0 0.42955269E+03</rscale>
<asrwt>0</asrwt>
<pdfrwt beam="1">  1        2 0.28381017E+00 0.42955269E+03</pdfrwt>
<pdfrwt beam="2">  1       -2 0.33170259E-02 0.42955269E+03</pdfrwt>
<totfact> 0.32553099E+03</totfact>
</mgrwt>
</event>
<event>
 4    1  0.5323640E-005  0.4645629E+03  0.7818608E-02  0.1023466E+00
         -2   -1    0    0    0  501 -0.00000000000E+00  0.00000000000E+00  0.37194682153E+03  0.37194682154E+03  0.25500000000E-02 0. -1.
          2   -1    0    0  501    0  0.00000000000E+00 -0.00000000000E+00 -0.14506014899E+03  0.14506014901E+03  0.25500000000E-02 0.  1.
    5000001    1    1    2    0    0 -0.10153998139E+03  0.78493866285E+02  0.72789851929E+00  0.20903871580E+03  0.16500000000E+03 0.  0.
   -5000001    1    1    2    0    0  0.10153998139E+03 -0.78493866285E+02  0.22615877402E+03  0.30796825475E+03  0.16500000000E+03 0.  0.
<mgrwt>
<rscale>  0 0.46456285E+03</rscale>
<asrwt>0</asrwt>
<pdfrwt beam="1">  1        2 0.20722879E-01 0.46456285E+03</pdfrwt>
<pdfrwt beam="2">  1       -2 0.53135260E-01 0.46456285E+03</pdfrwt>
<totfact> 0.91253010E+02</totfact>
</mgrwt>
</event>
<event>
 4    1  0.5323640E-005  0.6157768E+03  0.7818608E-02  0.9873204E-01
          2   -1    0    0  501    0  0.00000000000E+00  0.00000000000E+00  0.15149826453E+04  0.15149826453E+04  0.25500000000E-02 0.  1.
         -2   -1    0    0    0  501 -0.00000000000E+00 -0.00000000000E+00 -0.62571844960E+02  0.62571845012E+02  0.25500000000E-02 0. -1.
    5000001    1    1    2    0    0  0.14203895017E+02 -0.24472315732E+03  0.94776230793E+03  0.99275856415E+03  0.16500000000E+03 0.  0.
   -5000001    1    1    2    0    0 -0.14203895017E+02  0.24472315732E+03  0.50464849237E+03  0.58479592613E+03  0.16500000000E+03 0.  0.
<mgrwt>
<rscale>  0 0.61577678E+03</rscale>
<asrwt>0</asrwt>
<pdfrwt beam="1">  1        2 0.21642604E+00 0.61577678E+03</pdfrwt>
<pdfrwt beam="2">  1       -2 0.89388371E-02 0.61577678E+03</pdfrwt>
<totfact> 0.11987149E+03</totfact>
</mgrwt>
</event>
<event>
 4    1  0.5323640E-005  0.4855765E+03  0.7818608E-02  0.1017614E+00
          2   -1    0    0  501    0  0.00000000000E+00  0.00000000000E+00  0.82459328060E+03  0.82459328060E+03  0.25500000000E-02 0.  1.
         -2   -1    0    0    0  501 -0.00000000000E+00 -0.00000000000E+00 -0.71485088617E+02  0.71485088662E+02  0.25500000000E-02 0. -1.
    5000001    1    1    2    0    0 -0.48749461787E+02  0.17102001071E+03  0.39470749712E+03  0.46329619292E+03  0.16500000000E+03 0.  0.
   -5000001    1    1    2    0    0  0.48749461787E+02 -0.17102001071E+03  0.35840069486E+03  0.43278217635E+03  0.16500000000E+03 0.  0.
<mgrwt>
<rscale>  0 0.48557646E+03</rscale>
<asrwt>0</asrwt>
<pdfrwt beam="1">  1        2 0.11779904E+00 0.48557646E+03</pdfrwt>
<pdfrwt beam="2">  1       -2 0.10212155E-01 0.48557646E+03</pdfrwt>
<totfact> 0.24189946E+03</totfact>
</mgrwt>
</event>
<event>
 4    1  0.5323640E-005  0.5387703E+03  0.7818608E-02  0.1004127E+00
         -2   -1    0    0    0  501 -0.00000000000E+00  0.00000000000E+00  0.42878190587E+02  0.42878190663E+02  0.25500000000E-02 0. -1.
          2   -1    0    0  501    0  0.00000000000E+00 -0.00000000000E+00 -0.16924302312E+04  0.16924302312E+04  0.25500000000E-02 0.  1.
    5000001    1    1    2    0    0  0.19742521245E+03 -0.34838779457E+02 -0.10559817245E+04  0.10874340705E+04  0.16500000000E+03 0.  0.
   -5000001    1    1    2    0    0 -0.19742521245E+03  0.34838779457E+02 -0.59357031605E+03  0.64787435137E+03  0.16500000000E+03 0.  0.
<mgrwt>
<rscale>  0 0.53877025E+03</rscale>
<asrwt>0</asrwt>
<pdfrwt beam="1">  1        2 0.24177571E+00 0.53877025E+03</pdfrwt>
<pdfrwt beam="2">  1       -2 0.61254569E-02 0.53877025E+03</pdfrwt>
<totfact> 0.17742611E+03</totfact>
</mgrwt>
</event>
<event>
 4    1  0.5323640E-005  0.1027320E+04  0.7818608E-02  0.9279078E-01
         -2   -1    0    0    0  501 -0.00000000000E+00  0.00000000000E+00  0.21421700179E+03  0.21421700181E+03  0.25500000000E-02 0. -1.
          2   -1    0    0  501    0  0.00000000000E+00 -0.00000000000E+00 -0.12316797956E+04  0.12316797956E+04  0.25500000000E-02 0.  1.
    5000001    1    1    2    0    0  0.82889122532E+02  0.39161159543E+03 -0.11972749696E+03  0.44921033140E+03  0.16500000000E+03 0.  0.
   -5000001    1    1    2    0    0 -0.82889122532E+02 -0.39161159543E+03 -0.89773529683E+03  0.99668646599E+03  0.16500000000E+03 0.  0.
<mgrwt>
<rscale>  0 0.10273203E+04</rscale>
<asrwt>0</asrwt>
<pdfrwt beam="1">  1        2 0.17595425E+00 0.10273203E+04</pdfrwt>
<pdfrwt beam="2">  1       -2 0.30602429E-01 0.10273203E+04</pdfrwt>
<totfact> 0.20143889E+02</totfact>
</mgrwt>
</event>
<event>
 4    1  0.5323640E-005  0.9278929E+03  0.7818608E-02  0.9391370E-01
          2   -1    0    0  501    0  0.00000000000E+00  0.00000000000E+00  0.25227491377E+04  0.25227491377E+04  0.25500000000E-02 0.  1.
         -2   -1    0    0    0  501 -0.00000000000E+00 -0.00000000000E+00 -0.85322129670E+02  0.85322129709E+02  0.25500000000E-02 0. -1.
    5000001    1    1    2    0    0 -0.36294274102E+03 -0.22943286011E+03  0.13886290448E+04  0.14628337208E+04  0.16500000000E+03 0.  0.
   -5000001    1    1    2    0    0  0.36294274102E+03  0.22943286011E+03  0.10487979632E+04  0.11452375466E+04  0.16500000000E+03 0.  0.
<mgrwt>
<rscale>  0 0.92789294E+03</rscale>
<asrwt>0</asrwt>
<pdfrwt beam="1">  1        2 0.36039272E+00 0.92789294E+03</pdfrwt>
<pdfrwt beam="2">  1       -2 0.12188876E-01 0.92789294E+03</pdfrwt>
<totfact> 0.21634730E+02</totfact>
</mgrwt>
</event>
<event>
 4    1  0.5323640E-005  0.5467688E+03  0.7818608E-02  0.1002245E+00
         -2   -1    0    0    0  501 -0.00000000000E+00  0.00000000000E+00  0.51869578456E+02  0.51869578519E+02  0.25500000000E-02 0. -1.
          2   -1    0    0  501    0  0.00000000000E+00 -0.00000000000E+00 -0.14409027923E+04  0.14409027923E+04  0.25500000000E-02 0.  1.
    5000001    1    1    2    0    0 -0.17064862521E+03 -0.41128216051E+02 -0.10473487254E+04  0.10746984861E+04  0.16500000000E+03 0.  0.
   -5000001    1    1    2    0    0  0.17064862521E+03  0.41128216051E+02 -0.34168448846E+03  0.41807388473E+03  0.16500000000E+03 0.  0.
<mgrwt>
<rscale>  0 0.54676876E+03</rscale>
<asrwt>0</asrwt>
<pdfrwt beam="1">  1        2 0.20584323E+00 0.54676876E+03</pdfrwt>
<pdfrwt beam="2">  1       -2 0.74099407E-02 0.54676876E+03</pdfrwt>
<totfact> 0.17714485E+03</totfact>
</mgrwt>
</event>
<event>
 4    1  0.5323640E-005  0.3567730E+03  0.7818608E-02  0.1059869E+00
          2   -1    0    0  501    0  0.00000000000E+00  0.00000000000E+00  0.25277467460E+02  0.25277467588E+02  0.25500000000E-02 0.  1.
         -2   -1    0    0    0  501 -0.00000000000E+00 -0.00000000000E+00 -0.12588978435E+04  0.12588978435E+04  0.25500000000E-02 0. -1.
    5000001    1    1    2    0    0  0.61041703330E+02  0.40298960495E+01 -0.72202283200E+03  0.74315832737E+03  0.16500000000E+03 0.  0.
   -5000001    1    1    2    0    0 -0.61041703330E+02 -0.40298960495E+01 -0.51159754403E+03  0.54101698371E+03  0.16500000000E+03 0.  0.
<mgrwt>
<rscale>  0 0.35677303E+03</rscale>
<asrwt>0</asrwt>
<pdfrwt beam="1">  1        2 0.36110676E-02 0.35677303E+03</pdfrwt>
<pdfrwt beam="2">  1       -2 0.17984251E+00 0.35677303E+03</pdfrwt>
<totfact> 0.47669618E+02</totfact>
</mgrwt>
</event>
<event>
 4    1  0.5323640E-005  0.8364904E+03  0.7818608E-02  0.9508651E-01
          2   -1    0    0  501    0  0.00000000000E+00  0.00000000000E+00  0.13346914304E+04  0.13346914304E+04  0.25500000000E-02 0.  1.
         -2   -1    0    0    0  501 -0.00000000000E+00 -0.00000000000E+00 -0.13106327587E+03  0.13106327590E+03  0.25500000000E-02 0. -1.
    5000001    1    1    2    0    0  0.27440097760E+02 -0.33607761489E+03  0.92493002430E+03  0.99820923260E+03  0.16500000000E+03 0.  0.
   -5000001    1    1    2    0    0 -0.27440097760E+02  0.33607761489E+03  0.27869813026E+03  0.46754547373E+03  0.16500000000E+03 0.  0.
<mgrwt>
<rscale>  0 0.83649036E+03</rscale>
<asrwt>0</asrwt>
<pdfrwt beam="1">  1        2 0.19067020E+00 0.83649036E+03</pdfrwt>
<pdfrwt beam="2">  1       -2 0.18723326E-01 0.83649036E+03</pdfrwt>
<totfact> 0.43169640E+02</totfact>
</mgrwt>
</event>
<event>
 4    1  0.5323640E-005  0.4711730E+03  0.7818608E-02  0.1021590E+00
          2   -1    0    0  501    0  0.00000000000E+00  0.00000000000E+00  0.98378181841E+03  0.98378181842E+03  0.25500000000E-02 0.  1.
         -2   -1    0    0    0  501 -0.00000000000E+00 -0.00000000000E+00 -0.56415973437E+02  0.56415973495E+02  0.25500000000E-02 0. -1.
    5000001    1    1    2    0    0  0.62803410263E+02  0.14139941040E+03  0.31827849464E+03  0.39046672297E+03  0.16500000000E+03 0.  0.
   -5000001    1    1    2    0    0 -0.62803410263E+02 -0.14139941040E+03  0.60908735034E+03  0.64973106894E+03  0.16500000000E+03 0.  0.
<mgrwt>
<rscale>  0 0.47117304E+03</rscale>
<asrwt>0</asrwt>
<pdfrwt beam="1">  1        2 0.14054025E+00 0.47117304E+03</pdfrwt>
<pdfrwt beam="2">  1       -2 0.80594253E-02 0.47117304E+03</pdfrwt>
<totfact> 0.27944740E+03</totfact>
</mgrwt>
</event>
<event>
 4    1  0.5323640E-005  0.3904215E+03  0.7818608E-02  0.1047148E+00
          2   -1    0    0  501    0  0.00000000000E+00  0.00000000000E+00  0.80372432548E+02  0.80372432588E+02  0.25500000000E-02 0.  1.
         -2   -1    0    0    0  501 -0.00000000000E+00 -0.00000000000E+00 -0.47413322737E+03  0.47413322737E+03  0.25500000000E-02 0. -1.
    5000001    1    1    2    0    0 -0.23178000148E+02  0.10166128012E+03 -0.20137288509E+03  0.28044299673E+03  0.16500000000E+03 0.  0.
   -5000001    1    1    2    0    0  0.23178000148E+02 -0.10166128012E+03 -0.19238790973E+03  0.27406266323E+03  0.16500000000E+03 0.  0.
<mgrwt>
<rscale>  0 0.39042152E+03</rscale>
<asrwt>0</asrwt>
<pdfrwt beam="1">  1        2 0.11481776E-01 0.39042152E+03</pdfrwt>
<pdfrwt beam="2">  1       -2 0.67733317E-01 0.39042152E+03</pdfrwt>
<totfact> 0.11128324E+03</totfact>
</mgrwt>
</event>
<event>
 4    1  0.5323640E-005  0.4070498E+03  0.7818608E-02  0.1041366E+00
         -2   -1    0    0    0  501 -0.00000000000E+00  0.00000000000E+00  0.31851660372E+02  0.31851660475E+02  0.25500000000E-02 0. -1.
          2   -1    0    0  501    0  0.00000000000E+00 -0.00000000000E+00 -0.13004777543E+04  0.13004777543E+04  0.25500000000E-02 0.  1.
    5000001    1    1    2    0    0 -0.10633818443E+03 -0.44338659123E+02 -0.73378891903E+03  0.76088429072E+03  0.16500000000E+03 0.  0.
   -5000001    1    1    2    0    0  0.10633818443E+03  0.44338659123E+02 -0.53483717485E+03  0.57144512402E+03  0.16500000000E+03 0.  0.
<mgrwt>
<rscale>  0 0.40704976E+03</rscale>
<asrwt>0</asrwt>
<pdfrwt beam="1">  1        2 0.18578250E+00 0.40704976E+03</pdfrwt>
<pdfrwt beam="2">  1       -2 0.45502380E-02 0.40704976E+03</pdfrwt>
<totfact> 0.44931518E+03</totfact>
</mgrwt>
</event>
<event>
 4    1  0.5323640E-005  0.3744724E+03  0.7818608E-02  0.1052996E+00
         -2   -1    0    0    0  501 -0.00000000000E+00  0.00000000000E+00  0.41510123897E+02  0.41510123975E+02  0.25500000000E-02 0. -1.
          2   -1    0    0  501    0  0.00000000000E+00 -0.00000000000E+00 -0.84455036764E+03  0.84455036765E+03  0.25500000000E-02 0.  1.
    5000001    1    1    2    0    0  0.62007969832E+02  0.48793540626E+02 -0.49636119344E+03  0.52898509646E+03  0.16500000000E+03 0.  0.
   -5000001    1    1    2    0    0 -0.62007969832E+02 -0.48793540626E+02 -0.30667905031E+03  0.35707539516E+03  0.16500000000E+03 0.  0.
<mgrwt>
<rscale>  0 0.37447238E+03</rscale>
<asrwt>0</asrwt>
<pdfrwt beam="1">  1        2 0.12065004E+00 0.37447238E+03</pdfrwt>
<pdfrwt beam="2">  1       -2 0.59300182E-02 0.37447238E+03</pdfrwt>
<totfact> 0.55182121E+03</totfact>
</mgrwt>
</event>
<event>
 4    1  0.5323640E-005  0.5940063E+03  0.7818608E-02  0.9917920E-01
         -2   -1    0    0    0  501 -0.00000000000E+00  0.00000000000E+00  0.97815528632E+02  0.97815528665E+02  0.25500000000E-02 0. -1.
          2   -1    0    0  501    0  0.00000000000E+00 -0.00000000000E+00 -0.90180840342E+03  0.90180840342E+03  0.25500000000E-02 0.  1.
    5000001    1    1    2    0    0 -0.20787562154E+02  0.23414819183E+03 -0.27462823086E+03  0.39737031050E+03  0.16500000000E+03 0.  0.
   -5000001    1    1    2    0    0  0.20787562154E+02 -0.23414819183E+03 -0.52936464393E+03  0.60225362159E+03  0.16500000000E+03 0.  0.
<mgrwt>
<rscale>  0 0.59400628E+03</rscale>
<asrwt>0</asrwt>
<pdfrwt beam="1">  1        2 0.12882977E+00 0.59400628E+03</pdfrwt>
<pdfrwt beam="2">  1       -2 0.13973647E-01 0.59400628E+03</pdfrwt>
<totfact> 0.12846250E+03</totfact>
</mgrwt>
</event>
<event>
 4    1  0.5323640E-005  0.3961617E+03  0.7818608E-02  0.1045117E+00
          2   -1    0    0  501    0  0.00000000000E+00  0.00000000000E+00  0.19602015422E+03  0.19602015423E+03  0.25500000000E-02 0.  1.
         -2   -1    0    0    0  501 -0.00000000000E+00 -0.00000000000E+00 -0.20016321621E+03  0.20016321623E+03  0.25500000000E-02 0. -1.
    5000001    1    1    2    0    0  0.55606724344E+02  0.80891519533E+02  0.46670017994E+02  0.19758197363E+03  0.16500000000E+03 0.  0.
   -5000001    1    1    2    0    0 -0.55606724344E+02 -0.80891519533E+02 -0.50813079986E+02  0.19860139683E+03  0.16500000000E+03 0.  0.
<mgrwt>
<rscale>  0 0.39616171E+03</rscale>
<asrwt>0</asrwt>
<pdfrwt beam="1">  1        2 0.28002879E-01 0.39616171E+03</pdfrwt>
<pdfrwt beam="2">  1       -2 0.28594745E-01 0.39616171E+03</pdfrwt>
<totfact> 0.21294618E+03</totfact>
</mgrwt>
</event>
<event>
 4    1  0.5323640E-005  0.8038629E+03  0.7818608E-02  0.9554443E-01
         -2   -1    0    0    0  501 -0.00000000000E+00  0.00000000000E+00  0.22589890081E+03  0.22589890082E+03  0.25500000000E-02 0. -1.
          2   -1    0    0  501    0  0.00000000000E+00 -0.00000000000E+00 -0.71513798735E+03  0.71513798735E+03  0.25500000000E-02 0.  1.
    5000001    1    1    2    0    0 -0.15309057482E+03 -0.23317548388E+03  0.33679517870E+02  0.32583253414E+03  0.16500000000E+03 0.  0.
   -5000001    1    1    2    0    0  0.15309057482E+03  0.23317548388E+03 -0.52291860441E+03  0.61520435403E+03  0.16500000000E+03 0.  0.
<mgrwt>
<rscale>  0 0.80386289E+03</rscale>
<asrwt>0</asrwt>
<pdfrwt beam="1">  1        2 0.10216257E+00 0.80386289E+03</pdfrwt>
<pdfrwt beam="2">  1       -2 0.32271272E-01 0.80386289E+03</pdfrwt>
<totfact> 0.39300678E+02</totfact>
</mgrwt>
</event>
<event>
 4    1  0.5323640E-005  0.4886114E+03  0.7818608E-02  0.1016795E+00
          2   -1    0    0  501    0  0.00000000000E+00  0.00000000000E+00  0.47800652715E+03  0.47800652715E+03  0.25500000000E-02 0.  1.
         -2   -1    0    0    0  501 -0.00000000000E+00 -0.00000000000E+00 -0.12486288174E+03  0.12486288177E+03  0.25500000000E-02 0. -1.
    5000001    1    1    2    0    0  0.10155149756E+02  0.13323645799E+03  0.27459583642E+02  0.21408902246E+03  0.16500000000E+03 0.  0.
   -5000001    1    1    2    0    0 -0.10155149756E+02 -0.13323645799E+03  0.32568406177E+03  0.38878038646E+03  0.16500000000E+03 0.  0.
<mgrwt>
<rscale>  0 0.48861139E+03</rscale>
<asrwt>0</asrwt>
<pdfrwt beam="1">  1        2 0.68286647E-01 0.48861139E+03</pdfrwt>
<pdfrwt beam="2">  1       -2 0.17837554E-01 0.48861139E+03</pdfrwt>
<totfact> 0.18326775E+03</totfact>
</mgrwt>
</event>
<event>
 4    1  0.5323640E-005  0.5700896E+03  0.7818608E-02  0.9969480E-01
         -2   -1    0    0    0  501 -0.00000000000E+00  0.00000000000E+00  0.24117269923E+03  0.24117269924E+03  0.25500000000E-02 0. -1.
          2   -1    0    0  501    0  0.00000000000E+00 -0.00000000000E+00 -0.33689769674E+03  0.33689769675E+03  0.25500000000E-02 0.  1.
    5000001    1    1    2    0    0 -0.16038793910E+03  0.12836817038E+03 -0.15811760361E+03  0.30729278343E+03  0.16500000000E+03 0.  0.
   -5000001    1    1    2    0    0  0.16038793910E+03 -0.12836817038E+03  0.62392606098E+02  0.27077761257E+03  0.16500000000E+03 0.  0.
<mgrwt>
<rscale>  0 0.57008956E+03</rscale>
<asrwt>0</asrwt>
<pdfrwt beam="1">  1        2 0.48128242E-01 0.57008956E+03</pdfrwt>
<pdfrwt beam="2">  1       -2 0.34453243E-01 0.57008956E+03</pdfrwt>
<totfact> 0.83039483E+02</totfact>
</mgrwt>
</event>
<event>
 4    1  0.5323640E-005  0.4515779E+03  0.7818608E-02  0.1027253E+00
          2   -1    0    0  501    0  0.00000000000E+00  0.00000000000E+00  0.16868240288E+04  0.16868240288E+04  0.25500000000E-02 0.  1.
         -2   -1    0    0    0  501 -0.00000000000E+00 -0.00000000000E+00 -0.30222866463E+02  0.30222866571E+02  0.25500000000E-02 0. -1.
    5000001    1    1    2    0    0 -0.13058482332E+03 -0.54416830128E+02  0.59570289109E+03  0.63411396605E+03  0.16500000000E+03 0.  0.
   -5000001    1    1    2    0    0  0.13058482332E+03  0.54416830128E+02  0.10608982713E+04  0.10829329293E+04  0.16500000000E+03 0.  0.
<mgrwt>
<rscale>  0 0.45157793E+03</rscale>
<asrwt>0</asrwt>
<pdfrwt beam="1">  1        2 0.24097490E+00 0.45157793E+03</pdfrwt>
<pdfrwt beam="2">  1       -2 0.43175516E-02 0.45157793E+03</pdfrwt>
<totfact> 0.30747058E+03</totfact>
</mgrwt>
</event>
<event>
 4    1  0.5323640E-005  0.4200812E+03  0.7818608E-02  0.1037040E+00
          2   -1    0    0  501    0  0.00000000000E+00  0.00000000000E+00  0.62714650489E+03  0.62714650489E+03  0.25500000000E-02 0.  1.
         -2   -1    0    0    0  501 -0.00000000000E+00 -0.00000000000E+00 -0.70345691011E+02  0.70345691057E+02  0.25500000000E-02 0. -1.
    5000001    1    1    2    0    0 -0.12116641628E+03  0.13347916504E+02  0.20354370804E+03  0.28898876863E+03  0.16500000000E+03 0.  0.
   -5000001    1    1    2    0    0  0.12116641628E+03 -0.13347916504E+02  0.35325710584E+03  0.40850342733E+03  0.16500000000E+03 0.  0.
<mgrwt>
<rscale>  0 0.42008120E+03</rscale>
<asrwt>0</asrwt>
<pdfrwt beam="1">  1        2 0.89592352E-01 0.42008120E+03</pdfrwt>
<pdfrwt beam="2">  1       -2 0.10049385E-01 0.42008120E+03</pdfrwt>
<totfact> 0.34650065E+03</totfact>
</mgrwt>
</event>
<event>
 4    1  0.5323640E-005  0.4385879E+03  0.7818608E-02  0.1031181E+00
         -2   -1    0    0    0  501 -0.00000000000E+00  0.00000000000E+00  0.19427829656E+03  0.19427829657E+03  0.25500000000E-02 0. -1.
          2   -1    0    0  501    0  0.00000000000E+00 -0.00000000000E+00 -0.24753070654E+03  0.24753070655E+03  0.25500000000E-02 0.  1.
    5000001    1    1    2    0    0 -0.17115593348E+02 -0.81686394011E+02  0.92134647789E+02  0.20658994125E+03  0.16500000000E+03 0.  0.
   -5000001    1    1    2    0    0  0.17115593348E+02  0.81686394011E+02 -0.14538705778E+03  0.23521906188E+03  0.16500000000E+03 0.  0.
<mgrwt>
<rscale>  0 0.43858793E+03</rscale>
<asrwt>0</asrwt>
<pdfrwt beam="1">  1        2 0.35361530E-01 0.43858793E+03</pdfrwt>
<pdfrwt beam="2">  1       -2 0.27754042E-01 0.43858793E+03</pdfrwt>
<totfact> 0.17377420E+03</totfact>
</mgrwt>
</event>
<event>
 4    1  0.5323640E-005  0.5838733E+03  0.7818608E-02  0.9939440E-01
         -2   -1    0    0    0  501 -0.00000000000E+00  0.00000000000E+00  0.66332683593E+02  0.66332683642E+02  0.25500000000E-02 0. -1.
          2   -1    0    0  501    0  0.00000000000E+00 -0.00000000000E+00 -0.12848418762E+04  0.12848418762E+04  0.25500000000E-02 0.  1.
    5000001    1    1    2    0    0  0.19760265939E+03 -0.12606484272E+03 -0.73732712774E+03  0.79108498207E+03  0.16500000000E+03 0.  0.
   -5000001    1    1    2    0    0 -0.19760265939E+03  0.12606484272E+03 -0.48118206484E+03  0.56008957774E+03  0.16500000000E+03 0.  0.
<mgrwt>
<rscale>  0 0.58387331E+03</rscale>
<asrwt>0</asrwt>
<pdfrwt beam="1">  1        2 0.18354882E+00 0.58387331E+03</pdfrwt>
<pdfrwt beam="2">  1       -2 0.94760984E-02 0.58387331E+03</pdfrwt>
<totfact> 0.14478323E+03</totfact>
</mgrwt>
</event>
<event>
 4    1  0.5323640E-005  0.6674259E+03  0.7818608E-02  0.9774619E-01
          2   -1    0    0  501    0  0.00000000000E+00  0.00000000000E+00  0.12514289030E+04  0.12514289030E+04  0.25500000000E-02 0.  1.
         -2   -1    0    0    0  501 -0.00000000000E+00 -0.00000000000E+00 -0.88989752504E+02  0.88989752540E+02  0.25500000000E-02 0. -1.
    5000001    1    1    2    0    0 -0.11498659994E+03  0.26043444833E+03  0.46955640721E+03  0.57337268822E+03  0.16500000000E+03 0.  0.
   -5000001    1    1    2    0    0  0.11498659994E+03 -0.26043444833E+03  0.69288274325E+03  0.76704596729E+03  0.16500000000E+03 0.  0.
<mgrwt>
<rscale>  0 0.66742595E+03</rscale>
<asrwt>0</asrwt>
<pdfrwt beam="1">  1        2 0.17877556E+00 0.66742595E+03</pdfrwt>
<pdfrwt beam="2">  1       -2 0.12712821E-01 0.66742595E+03</pdfrwt>
<totfact> 0.93170526E+02</totfact>
</mgrwt>
</event>
<event>
 4    1  0.5323640E-005  0.6605450E+03  0.7818608E-02  0.9787191E-01
         -2   -1    0    0    0  501 -0.00000000000E+00  0.00000000000E+00  0.14970016672E+03  0.14970016674E+03  0.25500000000E-02 0. -1.
          2   -1    0    0  501    0  0.00000000000E+00 -0.00000000000E+00 -0.72865589031E+03  0.72865589032E+03  0.25500000000E-02 0.  1.
    5000001    1    1    2    0    0 -0.81273958058E+02 -0.24006119284E+03 -0.46598899690E+03  0.55552279683E+03  0.16500000000E+03 0.  0.
   -5000001    1    1    2    0    0  0.81273958058E+02  0.24006119284E+03 -0.11296672669E+03  0.32283326022E+03  0.16500000000E+03 0.  0.
<mgrwt>
<rscale>  0 0.66054495E+03</rscale>
<asrwt>0</asrwt>
<pdfrwt beam="1">  1        2 0.10409370E+00 0.66054495E+03</pdfrwt>
<pdfrwt beam="2">  1       -2 0.21385738E-01 0.66054495E+03</pdfrwt>
<totfact> 0.81429921E+02</totfact>
</mgrwt>
</event>
<event>
 4    1  0.5323640E-005  0.6483801E+03  0.7818608E-02  0.9809824E-01
         -2   -1    0    0    0  501 -0.00000000000E+00  0.00000000000E+00  0.60658129857E+02  0.60658129910E+02  0.25500000000E-02 0. -1.
          2   -1    0    0  501    0  0.00000000000E+00 -0.00000000000E+00 -0.17326480242E+04  0.17326480242E+04  0.25500000000E-02 0.  1.
    5000001    1    1    2    0    0 -0.22929907862E+03  0.15485644013E+03 -0.73567497142E+03  0.80311969723E+03  0.16500000000E+03 0.  0.
   -5000001    1    1    2    0    0  0.22929907862E+03 -0.15485644013E+03 -0.93631492297E+03  0.99018645692E+03  0.16500000000E+03 0.  0.
<mgrwt>
<rscale>  0 0.64838010E+03</rscale>
<asrwt>0</asrwt>
<pdfrwt beam="1">  1        2 0.24752112E+00 0.64838010E+03</pdfrwt>
<pdfrwt beam="2">  1       -2 0.86654482E-02 0.64838010E+03</pdfrwt>
<totfact> 0.97258168E+02</totfact>
</mgrwt>
</event>
<event>
 4    1  0.5323640E-005  0.1027539E+04  0.7818608E-02  0.9278846E-01
         -2   -1    0    0    0  501 -0.00000000000E+00  0.00000000000E+00  0.53562168766E+03  0.53562168767E+03  0.25500000000E-02 0. -1.
          2   -1    0    0  501    0  0.00000000000E+00 -0.00000000000E+00 -0.49280846039E+03  0.49280846040E+03  0.25500000000E-02 0.  1.
    5000001    1    1    2    0    0 -0.32416503905E+03  0.34195107529E+03 -0.10002626494E+03  0.50915986106E+03  0.16500000000E+03 0.  0.
   -5000001    1    1    2    0    0  0.32416503905E+03 -0.34195107529E+03  0.14283949221E+03  0.51927028701E+03  0.16500000000E+03 0.  0.
<mgrwt>
<rscale>  0 0.10275386E+04</rscale>
<asrwt>0</asrwt>
<pdfrwt beam="1">  1        2 0.70401209E-01 0.10275386E+04</pdfrwt>
<pdfrwt beam="2">  1       -2 0.76517384E-01 0.10275386E+04</pdfrwt>
<totfact> 0.10405098E+02</totfact>
</mgrwt>
</event>
<event>
 4    1  0.5323640E-005  0.3933718E+03  0.7818608E-02  0.1046099E+00
          2   -1    0    0  501    0  0.00000000000E+00  0.00000000000E+00  0.10958345106E+03  0.10958345109E+03  0.25500000000E-02 0.  1.
         -2   -1    0    0    0  501 -0.00000000000E+00 -0.00000000000E+00 -0.35302174094E+03  0.35302174095E+03  0.25500000000E-02 0. -1.
    5000001    1    1    2    0    0  0.90492026813E+02  0.14090264836E+00 -0.54455301407E+02  0.19590611686E+03  0.16500000000E+03 0.  0.
   -5000001    1    1    2    0    0 -0.90492026813E+02 -0.14090264836E+00 -0.18898298848E+03  0.26669907518E+03  0.16500000000E+03 0.  0.
<mgrwt>
<rscale>  0 0.39337179E+03</rscale>
<asrwt>0</asrwt>
<pdfrwt beam="1">  1        2 0.15654779E-01 0.39337179E+03</pdfrwt>
<pdfrwt beam="2">  1       -2 0.50431677E-01 0.39337179E+03</pdfrwt>
<totfact> 0.14088068E+03</totfact>
</mgrwt>
</event>
<event>
 4    1  0.5323640E-005  0.4363927E+03  0.7818608E-02  0.1031859E+00
          2   -1    0    0  501    0  0.00000000000E+00  0.00000000000E+00  0.86248695188E+03  0.86248695188E+03  0.25500000000E-02 0.  1.
         -2   -1    0    0    0  501 -0.00000000000E+00 -0.00000000000E+00 -0.55200421328E+02  0.55200421387E+02  0.25500000000E-02 0. -1.
    5000001    1    1    2    0    0 -0.11405099074E+03 -0.71268775108E+02  0.50444573591E+03  0.54751928484E+03  0.16500000000E+03 0.  0.
   -5000001    1    1    2    0    0  0.11405099074E+03  0.71268775108E+02  0.30284079464E+03  0.37016808843E+03  0.16500000000E+03 0.  0.
<mgrwt>
<rscale>  0 0.43639268E+03</rscale>
<asrwt>0</asrwt>
<pdfrwt beam="1">  1        2 0.12321242E+00 0.43639268E+03</pdfrwt>
<pdfrwt beam="2">  1       -2 0.78857749E-02 0.43639268E+03</pdfrwt>
<totfact> 0.34475203E+03</totfact>
</mgrwt>
</event>
<event>
 4    1  0.5323640E-005  0.5809955E+03  0.7818608E-02  0.9945638E-01
          2   -1    0    0  501    0  0.00000000000E+00  0.00000000000E+00  0.66525819848E+03  0.66525819848E+03  0.25500000000E-02 0. -1.
         -2   -1    0    0    0  501 -0.00000000000E+00 -0.00000000000E+00 -0.12685140912E+03  0.12685140915E+03  0.25500000000E-02 0.  1.
    5000001    1    1    2    0    0  0.14180321576E+03 -0.82333250403E+02  0.50643312256E+03  0.55730281154E+03  0.16500000000E+03 0.  0.
   -5000001    1    1    2    0    0 -0.14180321576E+03  0.82333250403E+02  0.31973666795E+02  0.23480679609E+03  0.16500000000E+03 0.  0.
<mgrwt>
<rscale>  0 0.58099549E+03</rscale>
<asrwt>0</asrwt>
<pdfrwt beam="1">  1        2 0.95036886E-01 0.58099549E+03</pdfrwt>
<pdfrwt beam="2">  1       -2 0.18121630E-01 0.58099549E+03</pdfrwt>
<totfact> 0.12157766E+03</totfact>
</mgrwt>
</event>
<event>
 4    1  0.5323640E-005  0.5383232E+03  0.7818608E-02  0.1004233E+00
         -2   -1    0    0    0  501 -0.00000000000E+00  0.00000000000E+00  0.11573150538E+03  0.11573150541E+03  0.25500000000E-02 0. -1.
          2   -1    0    0  501    0  0.00000000000E+00 -0.00000000000E+00 -0.62600042700E+03  0.62600042701E+03  0.25500000000E-02 0.  1.
    5000001    1    1    2    0    0  0.15554194141E+03 -0.29665432799E+01 -0.55364921204E+02  0.23343600925E+03  0.16500000000E+03 0.  0.
   -5000001    1    1    2    0    0 -0.15554194141E+03  0.29665432799E+01 -0.45490400041E+03  0.50829592317E+03  0.16500000000E+03 0.  0.
<mgrwt>
<rscale>  0 0.53832322E+03</rscale>
<asrwt>0</asrwt>
<pdfrwt beam="1">  1        2 0.89428630E-01 0.53832322E+03</pdfrwt>
<pdfrwt beam="2">  1       -2 0.16533073E-01 0.53832322E+03</pdfrwt>
<totfact> 0.15295463E+03</totfact>
</mgrwt>
</event>
<event>
 4    1  0.5323640E-005  0.3451099E+03  0.7818608E-02  0.1064640E+00
          2   -1    0    0  501    0  0.00000000000E+00  0.00000000000E+00  0.14129000114E+04  0.14129000114E+04  0.25500000000E-02 0.  1.
         -2   -1    0    0    0  501 -0.00000000000E+00 -0.00000000000E+00 -0.21073822846E+02  0.21073823000E+02  0.25500000000E-02 0. -1.
    5000001    1    1    2    0    0 -0.53245229966E+01 -0.46247264086E+02  0.77723519057E+03  0.79591877817E+03  0.16500000000E+03 0.  0.
   -5000001    1    1    2    0    0  0.53245229966E+01  0.46247264086E+02  0.61459099796E+03  0.63805505621E+03  0.16500000000E+03 0.  0.
<mgrwt>
<rscale>  0 0.34510986E+03</rscale>
<asrwt>0</asrwt>
<pdfrwt beam="1">  1        2 0.20184297E+00 0.34510986E+03</pdfrwt>
<pdfrwt beam="2">  1       -2 0.30105445E-02 0.34510986E+03</pdfrwt>
<totfact> 0.73129155E+03</totfact>
</mgrwt>
</event>
<event>
 4    1  0.5323640E-005  0.5248536E+03  0.7818608E-02  0.1007488E+00
          2   -1    0    0  501    0  0.00000000000E+00  0.00000000000E+00  0.42168218667E+02  0.42168218744E+02  0.25500000000E-02 0.  1.
         -2   -1    0    0    0  501 -0.00000000000E+00 -0.00000000000E+00 -0.16331688622E+04  0.16331688622E+04  0.25500000000E-02 0. -1.
    5000001    1    1    2    0    0  0.16864514733E+03 -0.10905279416E+03 -0.91099299855E+03  0.94734731807E+03  0.16500000000E+03 0.  0.
   -5000001    1    1    2    0    0 -0.16864514733E+03  0.10905279416E+03 -0.68000764500E+03  0.72798976291E+03  0.16500000000E+03 0.  0.
<mgrwt>
<rscale>  0 0.52485359E+03</rscale>
<asrwt>0</asrwt>
<pdfrwt beam="1">  1        2 0.60240323E-02 0.52485359E+03</pdfrwt>
<pdfrwt beam="2">  1       -2 0.23330980E+00 0.52485359E+03</pdfrwt>
<totfact> 0.10899418E+02</totfact>
</mgrwt>
</event>
<event>
 4    1  0.5323640E-005  0.7707435E+03  0.7818608E-02  0.9603358E-01
          2   -1    0    0  501    0  0.00000000000E+00  0.00000000000E+00  0.39472612635E+03  0.39472612636E+03  0.25500000000E-02 0.  1.
         -2   -1    0    0    0  501 -0.00000000000E+00 -0.00000000000E+00 -0.37623906365E+03  0.37623906366E+03  0.25500000000E-02 0. -1.
    5000001    1    1    2    0    0  0.33470956480E+03  0.95475394987E+02 -0.26065787670E+01  0.38519843986E+03  0.16500000000E+03 0.  0.
   -5000001    1    1    2    0    0 -0.33470956480E+03 -0.95475394987E+02  0.21093641464E+02  0.38576675016E+03  0.16500000000E+03 0.  0.
<mgrwt>
<rscale>  0 0.77074351E+03</rscale>
<asrwt>0</asrwt>
<pdfrwt beam="1">  1        2 0.56389447E-01 0.77074351E+03</pdfrwt>
<pdfrwt beam="2">  1       -2 0.53748437E-01 0.77074351E+03</pdfrwt>
<totfact> 0.28837125E+02</totfact>
</mgrwt>
</event>
<event>
 4    1  0.5323640E-005  0.4576367E+03  0.7818608E-02  0.1025469E+00
         -2   -1    0    0    0  501 -0.00000000000E+00  0.00000000000E+00  0.53830271644E+03  0.53830271644E+03  0.25500000000E-02 0. -1.
          2   -1    0    0  501    0  0.00000000000E+00 -0.00000000000E+00 -0.97264672287E+02  0.97264672321E+02  0.25500000000E-02 0.  1.
    5000001    1    1    2    0    0 -0.66368212893E+02  0.13634016023E+03  0.15628092352E+03  0.27320707537E+03  0.16500000000E+03 0.  0.
   -5000001    1    1    2    0    0  0.66368212893E+02 -0.13634016023E+03  0.28475712062E+03  0.36236031339E+03  0.16500000000E+03 0.  0.
<mgrwt>
<rscale>  0 0.45763670E+03</rscale>
<asrwt>0</asrwt>
<pdfrwt beam="1">  1        2 0.13894953E-01 0.45763670E+03</pdfrwt>
<pdfrwt beam="2">  1       -2 0.76900388E-01 0.45763670E+03</pdfrwt>
<totfact> 0.66900538E+02</totfact>
</mgrwt>
</event>
<event>
 4    1  0.5323640E-005  0.5803395E+03  0.7818608E-02  0.9947056E-01
         -2   -1    0    0    0  501 -0.00000000000E+00  0.00000000000E+00  0.10663714008E+03  0.10663714011E+03  0.25500000000E-02 0. -1.
          2   -1    0    0  501    0  0.00000000000E+00 -0.00000000000E+00 -0.78957946058E+03  0.78957946058E+03  0.25500000000E-02 0.  1.
    5000001    1    1    2    0    0 -0.23363620203E+03 -0.20253771759E+02 -0.27279932094E+03  0.39577842244E+03  0.16500000000E+03 0.  0.
   -5000001    1    1    2    0    0  0.23363620203E+03  0.20253771759E+02 -0.41014299956E+03  0.50043817825E+03  0.16500000000E+03 0.  0.
<mgrwt>
<rscale>  0 0.58033954E+03</rscale>
<asrwt>0</asrwt>
<pdfrwt beam="1">  1        2 0.11279706E+00 0.58033954E+03</pdfrwt>
<pdfrwt beam="2">  1       -2 0.15233878E-01 0.58033954E+03</pdfrwt>
<totfact> 0.13217499E+03</totfact>
</mgrwt>
</event>
<event>
 4    1  0.5323640E-005  0.1074682E+04  0.7818608E-02  0.9230226E-01
          2   -1    0    0  501    0  0.00000000000E+00  0.00000000000E+00  0.49916529183E+04  0.49916529183E+04  0.25500000000E-02 0.  1.
         -2   -1    0    0    0  501 -0.00000000000E+00 -0.00000000000E+00 -0.57843664880E+02  0.57843664936E+02  0.25500000000E-02 0. -1.
    5000001    1    1    2    0    0  0.21921116234E+03 -0.45688329317E+03  0.27895247192E+04  0.28399769430E+04  0.16500000000E+03 0.  0.
   -5000001    1    1    2    0    0 -0.21921116234E+03  0.45688329317E+03  0.21442845342E+04  0.22095196403E+04  0.16500000000E+03 0.  0.
<mgrwt>
<rscale>  0 0.10746823E+04</rscale>
<asrwt>0</asrwt>
<pdfrwt beam="1">  1        2 0.71309326E+00 0.10746823E+04</pdfrwt>
<pdfrwt beam="2">  1       -2 0.82633808E-02 0.10746823E+04</pdfrwt>
<totfact> 0.90479542E+00</totfact>
</mgrwt>
</event>
<event>
 4    1  0.5323640E-005  0.8680275E+03  0.7818608E-02  0.9466455E-01
         -2   -1    0    0    0  501 -0.00000000000E+00  0.00000000000E+00  0.90290847865E+02  0.90290847901E+02  0.25500000000E-02 0. -1.
          2   -1    0    0  501    0  0.00000000000E+00 -0.00000000000E+00 -0.20862350912E+04  0.20862350912E+04  0.25500000000E-02 0.  1.
    5000001    1    1    2    0    0  0.38984622266E+03  0.64128127192E+02 -0.11761669209E+04  0.12516733279E+04  0.16500000000E+03 0.  0.
   -5000001    1    1    2    0    0 -0.38984622266E+03 -0.64128127192E+02 -0.81977732245E+03  0.92485261119E+03  0.16500000000E+03 0.  0.
<mgrwt>
<rscale>  0 0.86802750E+03</rscale>
<asrwt>0</asrwt>
<pdfrwt beam="1">  1        2 0.29803356E+00 0.86802750E+03</pdfrwt>
<pdfrwt beam="2">  1       -2 0.12898694E-01 0.86802750E+03</pdfrwt>
<totfact> 0.33128468E+02</totfact>
</mgrwt>
</event>
<event>
 4    1  0.5323640E-005  0.6712785E+03  0.7818608E-02  0.9767651E-01
          2   -1    0    0  501    0  0.00000000000E+00  0.00000000000E+00  0.11447878714E+04  0.11447878714E+04  0.25500000000E-02 0.  1.
         -2   -1    0    0    0  501 -0.00000000000E+00 -0.00000000000E+00 -0.98405735755E+02  0.98405735788E+02  0.25500000000E-02 0. -1.
    5000001    1    1    2    0    0 -0.58660212496E+02  0.28417995503E+03  0.45825482612E+03  0.56694069622E+03  0.16500000000E+03 0.  0.
   -5000001    1    1    2    0    0  0.58660212496E+02 -0.28417995503E+03  0.58812730949E+03  0.67625291093E+03  0.16500000000E+03 0.  0.
<mgrwt>
<rscale>  0 0.67127846E+03</rscale>
<asrwt>0</asrwt>
<pdfrwt beam="1">  1        2 0.16354114E+00 0.67127846E+03</pdfrwt>
<pdfrwt beam="2">  1       -2 0.14057961E-01 0.67127846E+03</pdfrwt>
<totfact> 0.90458286E+02</totfact>
</mgrwt>
</event>
<event>
 4    1  0.5323640E-005  0.1472256E+04  0.7818608E-02  0.8903115E-01
          2   -1    0    0  501    0  0.00000000000E+00  0.00000000000E+00  0.71689070686E+03  0.71689070687E+03  0.25500000000E-02 0.  1.
         -2   -1    0    0    0  501 -0.00000000000E+00 -0.00000000000E+00 -0.75588185485E+03  0.75588185486E+03  0.25500000000E-02 0. -1.
    5000001    1    1    2    0    0 -0.44079426820E+03  0.41662870395E+03  0.36375834339E+03  0.72623976497E+03  0.16500000000E+03 0.  0.
   -5000001    1    1    2    0    0  0.44079426820E+03 -0.41662870395E+03 -0.40274949138E+03  0.74653279676E+03  0.16500000000E+03 0.  0.
<mgrwt>
<rscale>  0 0.14722563E+04</rscale>
<asrwt>0</asrwt>
<pdfrwt beam="1">  1        2 0.10241296E+00 0.14722563E+04</pdfrwt>
<pdfrwt beam="2">  1       -2 0.10798312E+00 0.14722563E+04</pdfrwt>
<totfact> 0.29126016E+01</totfact>
</mgrwt>
</event>
<event>
 4    1  0.5323640E-005  0.4776240E+03  0.7818608E-02  0.1019790E+00
         -2   -1    0    0    0  501 -0.00000000000E+00  0.00000000000E+00  0.26335911911E+02  0.26335912034E+02  0.25500000000E-02 0. -1.
          2   -1    0    0  501    0  0.00000000000E+00 -0.00000000000E+00 -0.21655283519E+04  0.21655283519E+04  0.25500000000E-02 0.  1.
    5000001    1    1    2    0    0  0.11549467743E+02 -0.15412001225E+03 -0.14226825475E+04  0.14405335815E+04  0.16500000000E+03 0.  0.
   -5000001    1    1    2    0    0 -0.11549467743E+02  0.15412001225E+03 -0.71650989248E+03  0.75133068246E+03  0.16500000000E+03 0.  0.
<mgrwt>
<rscale>  0 0.47762397E+03</rscale>
<asrwt>0</asrwt>
<pdfrwt beam="1">  1        2 0.30936108E+00 0.47762397E+03</pdfrwt>
<pdfrwt beam="2">  1       -2 0.37622745E-02 0.47762397E+03</pdfrwt>
<totfact> 0.21867759E+03</totfact>
</mgrwt>
</event>
<event>
 4    1  0.5323640E-005  0.5331008E+03  0.7818608E-02  0.1005483E+00
         -2   -1    0    0    0  501 -0.00000000000E+00  0.00000000000E+00  0.69888929158E+02  0.69888929204E+02  0.25500000000E-02 0. -1.
          2   -1    0    0  501    0  0.00000000000E+00 -0.00000000000E+00 -0.10166005163E+04  0.10166005163E+04  0.25500000000E-02 0.  1.
    5000001    1    1    2    0    0 -0.54885894371E+01 -0.13465258637E+03 -0.14686785171E+03  0.25875975246E+03  0.16500000000E+03 0.  0.
   -5000001    1    1    2    0    0  0.54885894371E+01  0.13465258637E+03 -0.79984373542E+03  0.82772969303E+03  0.16500000000E+03 0.  0.
<mgrwt>
<rscale>  0 0.53310082E+03</rscale>
<asrwt>0</asrwt>
<pdfrwt beam="1">  1        2 0.14522864E+00 0.53310082E+03</pdfrwt>
<pdfrwt beam="2">  1       -2 0.99841334E-02 0.53310082E+03</pdfrwt>
<totfact> 0.18945167E+03</totfact>
</mgrwt>
</event>
<event>
 4    1  0.5323640E-005  0.5528781E+03  0.7818608E-02  0.1000830E+00
         -2   -1    0    0    0  501 -0.00000000000E+00  0.00000000000E+00  0.36316953681E+03  0.36316953682E+03  0.25500000000E-02 0. -1.
          2   -1    0    0  501    0  0.00000000000E+00 -0.00000000000E+00 -0.21042114206E+03  0.21042114207E+03  0.25500000000E-02 0.  1.
    5000001    1    1    2    0    0 -0.13746066463E+03 -0.16742464325E+03  0.12577208107E+03  0.29995009896E+03  0.16500000000E+03 0.  0.
   -5000001    1    1    2    0    0  0.13746066463E+03  0.16742464325E+03  0.26976313678E+02  0.27364057993E+03  0.16500000000E+03 0.  0.
<mgrwt>
<rscale>  0 0.55287810E+03</rscale>
<asrwt>0</asrwt>
<pdfrwt beam="1">  1        2 0.30060164E-01 0.55287810E+03</pdfrwt>
<pdfrwt beam="2">  1       -2 0.51881362E-01 0.55287810E+03</pdfrwt>
<totfact> 0.62706840E+02</totfact>
</mgrwt>
</event>
<event>
 4    1  0.5323640E-005  0.4364677E+03  0.7818608E-02  0.1031836E+00
         -2   -1    0    0    0  501 -0.00000000000E+00  0.00000000000E+00  0.15706776164E+02  0.15706776371E+02  0.25500000000E-02 0. -1.
          2   -1    0    0  501    0  0.00000000000E+00 -0.00000000000E+00 -0.30321946945E+04  0.30321946945E+04  0.25500000000E-02 0.  1.
    5000001    1    1    2    0    0  0.55237548561E+02  0.13158524641E+03 -0.15496390333E+04  0.15649191664E+04  0.16500000000E+03 0.  0.
   -5000001    1    1    2    0    0 -0.55237548561E+02 -0.13158524641E+03 -0.14668488850E+04  0.14829823045E+04  0.16500000000E+03 0.  0.
<mgrwt>
<rscale>  0 0.43646766E+03</rscale>
<asrwt>0</asrwt>
<pdfrwt beam="1">  1        2 0.43317030E+00 0.43646766E+03</pdfrwt>
<pdfrwt beam="2">  1       -2 0.22438271E-02 0.43646766E+03</pdfrwt>
<totfact> 0.17099999E+03</totfact>
</mgrwt>
</event>
<event>
 4    1  0.5323640E-005  0.1055538E+04  0.7818608E-02  0.9249645E-01
          2   -1    0    0  501    0  0.00000000000E+00  0.00000000000E+00  0.11207855218E+04  0.11207855218E+04  0.25500000000E-02 0.  1.
         -2   -1    0    0    0  501 -0.00000000000E+00 -0.00000000000E+00 -0.24852208515E+03  0.24852208517E+03  0.25500000000E-02 0. -1.
    5000001    1    1    2    0    0 -0.38923733761E+03  0.82188294713E+02  0.83185862252E+03  0.93673602933E+03  0.16500000000E+03 0.  0.
   -5000001    1    1    2    0    0  0.38923733761E+03 -0.82188294713E+02  0.40404814124E+02  0.43257157764E+03  0.16500000000E+03 0.  0.
<mgrwt>
<rscale>  0 0.10555377E+04</rscale>
<asrwt>0</asrwt>
<pdfrwt beam="1">  1        2 0.16011222E+00 0.10555377E+04</pdfrwt>
<pdfrwt beam="2">  1       -2 0.35503155E-01 0.10555377E+04</pdfrwt>
<totfact> 0.17589257E+02</totfact>
</mgrwt>
</event>
<event>
 4    1  0.5323640E-005  0.3914632E+03  0.7818608E-02  0.1046776E+00
         -2   -1    0    0    0  501 -0.00000000000E+00  0.00000000000E+00  0.74235674896E+03  0.74235674896E+03  0.25500000000E-02 0. -1.
          2   -1    0    0  501    0  0.00000000000E+00 -0.00000000000E+00 -0.51607085754E+02  0.51607085817E+02  0.25500000000E-02 0.  1.
    5000001    1    1    2    0    0 -0.10320171441E+03 -0.15800618491E+02  0.31774257879E+03  0.37294181822E+03  0.16500000000E+03 0.  0.
   -5000001    1    1    2    0    0  0.10320171441E+03  0.15800618491E+02  0.37300708441E+03  0.42102201656E+03  0.16500000000E+03 0.  0.
<mgrwt>
<rscale>  0 0.39146325E+03</rscale>
<asrwt>0</asrwt>
<pdfrwt beam="1">  1        2 0.73724412E-02 0.39146325E+03</pdfrwt>
<pdfrwt beam="2">  1       -2 0.10605096E+00 0.39146325E+03</pdfrwt>
<totfact> 0.71047195E+02</totfact>
</mgrwt>
</event>
<event>
 4    1  0.5323640E-005  0.6888348E+03  0.7818608E-02  0.9736519E-01
          2   -1    0    0  501    0  0.00000000000E+00  0.00000000000E+00  0.97019262904E+03  0.97019262904E+03  0.25500000000E-02 0.  1.
         -2   -1    0    0    0  501 -0.00000000000E+00 -0.00000000000E+00 -0.12226781149E+03  0.12226781152E+03  0.25500000000E-02 0. -1.
    5000001    1    1    2    0    0  0.11327896200E+03  0.21551187604E+03  0.70820169219E+03  0.76684557035E+03  0.16500000000E+03 0.  0.
   -5000001    1    1    2    0    0 -0.11327896200E+03 -0.21551187604E+03  0.13972312536E+03  0.32561487021E+03  0.16500000000E+03 0.  0.
<mgrwt>
<rscale>  0 0.68883475E+03</rscale>
<asrwt>0</asrwt>
<pdfrwt beam="1">  1        2 0.13859895E+00 0.68883475E+03</pdfrwt>
<pdfrwt beam="2">  1       -2 0.17466830E-01 0.68883475E+03</pdfrwt>
<totfact> 0.79504986E+02</totfact>
</mgrwt>
</event>
<event>
 4    1  0.5323640E-005  0.8076020E+03  0.7818608E-02  0.9549078E-01
         -2   -1    0    0    0  501 -0.00000000000E+00  0.00000000000E+00  0.11885807378E+03  0.11885807380E+03  0.25500000000E-02 0. -1.
          2   -1    0    0  501    0  0.00000000000E+00 -0.00000000000E+00 -0.13718484137E+04  0.13718484137E+04  0.25500000000E-02 0.  1.
    5000001    1    1    2    0    0 -0.24379268368E+03  0.27323696516E+03 -0.54956650805E+03  0.68069204382E+03  0.16500000000E+03 0.  0.
   -5000001    1    1    2    0    0  0.24379268368E+03 -0.27323696516E+03 -0.70342383190E+03  0.81001444371E+03  0.16500000000E+03 0.  0.
<mgrwt>
<rscale>  0 0.80760203E+03</rscale>
<asrwt>0</asrwt>
<pdfrwt beam="1">  1        2 0.19597834E+00 0.80760203E+03</pdfrwt>
<pdfrwt beam="2">  1       -2 0.16979726E-01 0.80760203E+03</pdfrwt>
<totfact> 0.48855301E+02</totfact>
</mgrwt>
</event>
<event>
 4    1  0.5323640E-005  0.8744375E+03  0.7818608E-02  0.9458112E-01
         -2   -1    0    0    0  501 -0.00000000000E+00  0.00000000000E+00  0.12131231433E+04  0.12131231433E+04  0.25500000000E-02 0. -1.
          2   -1    0    0  501    0  0.00000000000E+00 -0.00000000000E+00 -0.15757694151E+03  0.15757694153E+03  0.25500000000E-02 0.  1.
    5000001    1    1    2    0    0  0.29160481887E+03  0.10958312595E+03  0.12235296895E+03  0.37314485243E+03  0.16500000000E+03 0.  0.
   -5000001    1    1    2    0    0 -0.29160481887E+03 -0.10958312595E+03  0.93319323284E+03  0.99755523241E+03  0.16500000000E+03 0.  0.
<mgrwt>
<rscale>  0 0.87443750E+03</rscale>
<asrwt>0</asrwt>
<pdfrwt beam="1">  1        2 0.22510991E-01 0.87443750E+03</pdfrwt>
<pdfrwt beam="2">  1       -2 0.17330331E+00 0.87443750E+03</pdfrwt>
<totfact> 0.50302065E+01</totfact>
</mgrwt>
</event>
<event>
 4    1  0.5323640E-005  0.7008625E+03  0.7818608E-02  0.9715758E-01
         -2   -1    0    0    0  501 -0.00000000000E+00  0.00000000000E+00  0.82788123395E+03  0.82788123396E+03  0.25500000000E-02 0. -1.
          2   -1    0    0  501    0  0.00000000000E+00 -0.00000000000E+00 -0.14833295282E+03  0.14833295284E+03  0.25500000000E-02 0.  1.
    5000001    1    1    2    0    0  0.54249762598E+02  0.29346383389E+03  0.22736461000E+03  0.40985817598E+03  0.16500000000E+03 0.  0.
   -5000001    1    1    2    0    0 -0.54249762598E+02 -0.29346383389E+03  0.45218367114E+03  0.56635601081E+03  0.16500000000E+03 0.  0.
<mgrwt>
<rscale>  0 0.70086252E+03</rscale>
<asrwt>0</asrwt>
<pdfrwt beam="1">  1        2 0.21190422E-01 0.70086252E+03</pdfrwt>
<pdfrwt beam="2">  1       -2 0.11826874E+00 0.70086252E+03</pdfrwt>
<totfact> 0.14774238E+02</totfact>
</mgrwt>
</event>
<event>
 4    1  0.5323640E-005  0.4346073E+03  0.7818608E-02  0.1032414E+00
         -2   -1    0    0    0  501 -0.00000000000E+00  0.00000000000E+00  0.10021090216E+02  0.10021090541E+02  0.25500000000E-02 0. -1.
          2   -1    0    0  501    0  0.00000000000E+00 -0.00000000000E+00 -0.47121485496E+04  0.47121485496E+04  0.25500000000E-02 0.  1.
    5000001    1    1    2    0    0 -0.72802334064E+02 -0.10999077812E+03 -0.17972797401E+04  0.18096512413E+04  0.16500000000E+03 0.  0.
   -5000001    1    1    2    0    0  0.72802334064E+02  0.10999077812E+03 -0.29048477193E+04  0.29125183988E+04  0.16500000000E+03 0.  0.
<mgrwt>
<rscale>  0 0.43460725E+03</rscale>
<asrwt>0</asrwt>
<pdfrwt beam="1">  1        2 0.67316266E+00 0.43460725E+03</pdfrwt>
<pdfrwt beam="2">  1       -2 0.14315874E-02 0.43460725E+03</pdfrwt>
<totfact> 0.26563979E+02</totfact>
</mgrwt>
</event>
<event>
 4    1  0.5323640E-005  0.1027500E+04  0.7818608E-02  0.9278887E-01
          2   -1    0    0  501    0  0.00000000000E+00  0.00000000000E+00  0.30094941078E+03  0.30094941080E+03  0.25500000000E-02 0.  1.
         -2   -1    0    0    0  501 -0.00000000000E+00 -0.00000000000E+00 -0.87702159286E+03  0.87702159286E+03  0.25500000000E-02 0. -1.
    5000001    1    1    2    0    0 -0.26035707753E+03 -0.28075389755E+03 -0.63217084877E+03  0.75728035815E+03  0.16500000000E+03 0.  0.
   -5000001    1    1    2    0    0  0.26035707753E+03  0.28075389755E+03  0.56098666700E+02  0.42069064550E+03  0.16500000000E+03 0.  0.
<mgrwt>
<rscale>  0 0.10275001E+04</rscale>
<asrwt>0</asrwt>
<pdfrwt beam="1">  1        2 0.42992773E-01 0.10275001E+04</pdfrwt>
<pdfrwt beam="2">  1       -2 0.12528880E+00 0.10275001E+04</pdfrwt>
<totfact> 0.56483011E+01</totfact>
</mgrwt>
</event>
<event>
 4    1  0.5323640E-005  0.5403543E+03  0.7818608E-02  0.1003751E+00
         -2   -1    0    0    0  501 -0.00000000000E+00  0.00000000000E+00  0.26409469149E+02  0.26409469272E+02  0.25500000000E-02 0. -1.
          2   -1    0    0  501    0  0.00000000000E+00 -0.00000000000E+00 -0.27639972309E+04  0.27639972309E+04  0.25500000000E-02 0.  1.
    5000001    1    1    2    0    0  0.17727967312E+03  0.88716187762E+02 -0.17842354806E+04  0.18027811555E+04  0.16500000000E+03 0.  0.
   -5000001    1    1    2    0    0 -0.17727967312E+03 -0.88716187762E+02 -0.95335228119E+03  0.98762554469E+03  0.16500000000E+03 0.  0.
<mgrwt>
<rscale>  0 0.54035433E+03</rscale>
<asrwt>0</asrwt>
<pdfrwt beam="1">  1        2 0.39485656E+00 0.54035433E+03</pdfrwt>
<pdfrwt beam="2">  1       -2 0.37727831E-02 0.54035433E+03</pdfrwt>
<totfact> 0.10739057E+03</totfact>
</mgrwt>
</event>
<event>
 4    1  0.5323640E-005  0.3915580E+03  0.7818608E-02  0.1046743E+00
          2   -1    0    0  501    0  0.00000000000E+00  0.00000000000E+00  0.14995602414E+02  0.14995602631E+02  0.25500000000E-02 0.  1.
         -2   -1    0    0    0  501 -0.00000000000E+00 -0.00000000000E+00 -0.25560442457E+04  0.25560442457E+04  0.25500000000E-02 0. -1.
    5000001    1    1    2    0    0  0.69614675316E+02  0.60917408999E+02 -0.16019238202E+04  0.16130536443E+04  0.16500000000E+03 0.  0.
   -5000001    1    1    2    0    0 -0.69614675316E+02 -0.60917408999E+02 -0.93912482310E+03  0.95798620402E+03  0.16500000000E+03 0.  0.
<mgrwt>
<rscale>  0 0.39155803E+03</rscale>
<asrwt>0</asrwt>
<pdfrwt beam="1">  1        2 0.21422306E-02 0.39155803E+03</pdfrwt>
<pdfrwt beam="2">  1       -2 0.36514890E+00 0.39155803E+03</pdfrwt>
<totfact> 0.73223743E+01</totfact>
</mgrwt>
</event>
<event>
 4    1  0.5323640E-005  0.4846940E+03  0.7818608E-02  0.1017853E+00
         -2   -1    0    0    0  501 -0.00000000000E+00  0.00000000000E+00  0.43628749993E+02  0.43628750067E+02  0.25500000000E-02 0. -1.
          2   -1    0    0  501    0  0.00000000000E+00 -0.00000000000E+00 -0.13461782851E+04  0.13461782851E+04  0.25500000000E-02 0.  1.
    5000001    1    1    2    0    0  0.57700800975E+02  0.90645462073E+02 -0.10563903990E+04  0.10745844114E+04  0.16500000000E+03 0.  0.
   -5000001    1    1    2    0    0 -0.57700800975E+02 -0.90645462073E+02 -0.24615913619E+03  0.31522262380E+03  0.16500000000E+03 0.  0.
<mgrwt>
<rscale>  0 0.48469403E+03</rscale>
<asrwt>0</asrwt>
<pdfrwt beam="1">  1        2 0.19231116E+00 0.48469403E+03</pdfrwt>
<pdfrwt beam="2">  1       -2 0.62326794E-02 0.48469403E+03</pdfrwt>
<totfact> 0.26125258E+03</totfact>
</mgrwt>
</event>
<event>
 4    1  0.5323640E-005  0.4282169E+03  0.7818608E-02  0.1034425E+00
         -2   -1    0    0    0  501 -0.00000000000E+00  0.00000000000E+00  0.82194354610E+02  0.82194354650E+02  0.25500000000E-02 0. -1.
          2   -1    0    0  501    0  0.00000000000E+00 -0.00000000000E+00 -0.55773196599E+03  0.55773196599E+03  0.25500000000E-02 0.  1.
    5000001    1    1    2    0    0 -0.11687422306E+03  0.19594570196E+02 -0.33883571115E+03  0.39506729850E+03  0.16500000000E+03 0.  0.
   -5000001    1    1    2    0    0  0.11687422306E+03 -0.19594570196E+02 -0.13670190023E+03  0.24485902214E+03  0.16500000000E+03 0.  0.
<mgrwt>
<rscale>  0 0.42821686E+03</rscale>
<asrwt>0</asrwt>
<pdfrwt beam="1">  1        2 0.79675993E-01 0.42821686E+03</pdfrwt>
<pdfrwt beam="2">  1       -2 0.11742051E-01 0.42821686E+03</pdfrwt>
<totfact> 0.30861474E+03</totfact>
</mgrwt>
</event>
<event>
 4    1  0.5323640E-005  0.4646582E+03  0.7818608E-02  0.1023439E+00
         -2   -1    0    0    0  501 -0.00000000000E+00  0.00000000000E+00  0.21942977408E+03  0.21942977409E+03  0.25500000000E-02 0. -1.
          2   -1    0    0  501    0  0.00000000000E+00 -0.00000000000E+00 -0.24598674472E+03  0.24598674473E+03  0.25500000000E-02 0.  1.
    5000001    1    1    2    0    0  0.48161717142E+02  0.81387897273E+02 -0.14694391352E+03  0.24033529608E+03  0.16500000000E+03 0.  0.
   -5000001    1    1    2    0    0 -0.48161717142E+02 -0.81387897273E+02  0.12038694287E+03  0.22508122275E+03  0.16500000000E+03 0.  0.
<mgrwt>
<rscale>  0 0.46465822E+03</rscale>
<asrwt>0</asrwt>
<pdfrwt beam="1">  1        2 0.35140963E-01 0.46465822E+03</pdfrwt>
<pdfrwt beam="2">  1       -2 0.31347111E-01 0.46465822E+03</pdfrwt>
<totfact> 0.14007038E+03</totfact>
</mgrwt>
</event>
<event>
 4    1  0.5323640E-005  0.6363528E+03  0.7818608E-02  0.9832730E-01
         -2   -1    0    0    0  501 -0.00000000000E+00  0.00000000000E+00  0.11456572778E+03  0.11456572781E+03  0.25500000000E-02 0. -1.
          2   -1    0    0  501    0  0.00000000000E+00 -0.00000000000E+00 -0.88365182654E+03  0.88365182655E+03  0.25500000000E-02 0.  1.
    5000001    1    1    2    0    0  0.81349165110E+02 -0.14151100779E+03 -0.72594856095E+03  0.76214786304E+03  0.16500000000E+03 0.  0.
   -5000001    1    1    2    0    0 -0.81349165110E+02  0.14151100779E+03 -0.43137537813E+02  0.23606969132E+03  0.16500000000E+03 0.  0.
<mgrwt>
<rscale>  0 0.63635278E+03</rscale>
<asrwt>0</asrwt>
<pdfrwt beam="1">  1        2 0.12623597E+00 0.63635278E+03</pdfrwt>
<pdfrwt beam="2">  1       -2 0.16366533E-01 0.63635278E+03</pdfrwt>
<totfact> 0.10103065E+03</totfact>
</mgrwt>
</event>
<event>
 4    1  0.5323640E-005  0.3953579E+03  0.7818608E-02  0.1045399E+00
         -2   -1    0    0    0  501 -0.00000000000E+00  0.00000000000E+00  0.15812678411E+03  0.15812678413E+03  0.25500000000E-02 0. -1.
          2   -1    0    0  501    0  0.00000000000E+00 -0.00000000000E+00 -0.24712426496E+03  0.24712426497E+03  0.25500000000E-02 0.  1.
    5000001    1    1    2    0    0 -0.75127231944E+02 -0.66214927514E+02 -0.72835278880E+00  0.19301307754E+03  0.16500000000E+03 0.  0.
   -5000001    1    1    2    0    0  0.75127231944E+02  0.66214927514E+02 -0.88269128055E+02  0.21223797156E+03  0.16500000000E+03 0.  0.
<mgrwt>
<rscale>  0 0.39535789E+03</rscale>
<asrwt>0</asrwt>
<pdfrwt beam="1">  1        2 0.35303466E-01 0.39535789E+03</pdfrwt>
<pdfrwt beam="2">  1       -2 0.22589541E-01 0.39535789E+03</pdfrwt>
<totfact> 0.25093074E+03</totfact>
</mgrwt>
</event>
<event>
 4    1  0.5323640E-005  0.9686788E+03  0.7818608E-02  0.9343580E-01
          2   -1    0    0  501    0  0.00000000000E+00  0.00000000000E+00  0.41622549056E+03  0.41622549057E+03  0.25500000000E-02 0.  1.
         -2   -1    0    0    0  501 -0.00000000000E+00 -0.00000000000E+00 -0.56359993620E+03  0.56359993621E+03  0.25500000000E-02 0. -1.
    5000001    1    1    2    0    0  0.40117588310E+03 -0.21431465389E+03 -0.51369795108E+02  0.48655597407E+03  0.16500000000E+03 0.  0.
   -5000001    1    1    2    0    0 -0.40117588310E+03  0.21431465389E+03 -0.96004650534E+02  0.49326945271E+03  0.16500000000E+03 0.  0.
<mgrwt>
<rscale>  0 0.96867881E+03</rscale>
<asrwt>0</asrwt>
<pdfrwt beam="1">  1        2 0.59460785E-01 0.96867881E+03</pdfrwt>
<pdfrwt beam="2">  1       -2 0.80514276E-01 0.96867881E+03</pdfrwt>
<totfact> 0.11277675E+02</totfact>
</mgrwt>
</event>
<event>
 4    1  0.5323640E-005  0.4717137E+03  0.7818608E-02  0.1021438E+00
          2   -1    0    0  501    0  0.00000000000E+00  0.00000000000E+00  0.83654127511E+03  0.83654127511E+03  0.25500000000E-02 0.  1.
         -2   -1    0    0    0  501 -0.00000000000E+00 -0.00000000000E+00 -0.66498144829E+02  0.66498144878E+02  0.25500000000E-02 0. -1.
    5000001    1    1    2    0    0 -0.26824347153E+01  0.16582363577E+03  0.44241369808E+03  0.50045934289E+03  0.16500000000E+03 0.  0.
   -5000001    1    1    2    0    0  0.26824347153E+01 -0.16582363577E+03  0.32762943220E+03  0.40258007710E+03  0.16500000000E+03 0.  0.
<mgrwt>
<rscale>  0 0.47171365E+03</rscale>
<asrwt>0</asrwt>
<pdfrwt beam="1">  1        2 0.11950589E+00 0.47171365E+03</pdfrwt>
<pdfrwt beam="2">  1       -2 0.94997354E-02 0.47171365E+03</pdfrwt>
<totfact> 0.26676617E+03</totfact>
</mgrwt>
</event>
<event>
 4    1  0.5323640E-005  0.4805013E+03  0.7818608E-02  0.1018997E+00
          2   -1    0    0  501    0  0.00000000000E+00  0.00000000000E+00  0.55803246120E+03  0.55803246120E+03  0.25500000000E-02 0.  1.
         -2   -1    0    0    0  501 -0.00000000000E+00 -0.00000000000E+00 -0.10343551610E+03  0.10343551614E+03  0.25500000000E-02 0. -1.
    5000001    1    1    2    0    0 -0.12721925878E+03  0.22403140437E+02  0.38906594647E+03  0.44190943779E+03  0.16500000000E+03 0.  0.
   -5000001    1    1    2    0    0  0.12721925878E+03 -0.22403140437E+02  0.65530998621E+02  0.21955853954E+03  0.16500000000E+03 0.  0.
<mgrwt>
<rscale>  0 0.48050130E+03</rscale>
<asrwt>0</asrwt>
<pdfrwt beam="1">  1        2 0.79718924E-01 0.48050130E+03</pdfrwt>
<pdfrwt beam="2">  1       -2 0.14776502E-01 0.48050130E+03</pdfrwt>
<totfact> 0.21127855E+03</totfact>
</mgrwt>
</event>
<event>
 4    1  0.5323640E-005  0.7922102E+03  0.7818608E-02  0.9571361E-01
         -2   -1    0    0    0  501 -0.00000000000E+00  0.00000000000E+00  0.26618411076E+03  0.26618411078E+03  0.25500000000E-02 0. -1.
          2   -1    0    0  501    0  0.00000000000E+00 -0.00000000000E+00 -0.58943880088E+03  0.58943880089E+03  0.25500000000E-02 0.  1.
    5000001    1    1    2    0    0 -0.35734487832E+03 -0.14072451272E+01 -0.20964870004E+03  0.44595394362E+03  0.16500000000E+03 0.  0.
   -5000001    1    1    2    0    0  0.35734487832E+03  0.14072451272E+01 -0.11360599008E+03  0.40966896805E+03  0.16500000000E+03 0.  0.
<mgrwt>
<rscale>  0 0.79221018E+03</rscale>
<asrwt>0</asrwt>
<pdfrwt beam="1">  1        2 0.84205543E-01 0.79221018E+03</pdfrwt>
<pdfrwt beam="2">  1       -2 0.38026302E-01 0.79221018E+03</pdfrwt>
<totfact> 0.36343532E+02</totfact>
</mgrwt>
</event>
<event>
 4    1  0.5323640E-005  0.5109488E+03  0.7818608E-02  0.1010960E+00
          2   -1    0    0  501    0  0.00000000000E+00  0.00000000000E+00  0.32385636102E+03  0.32385636103E+03  0.25500000000E-02 0.  1.
         -2   -1    0    0    0  501 -0.00000000000E+00 -0.00000000000E+00 -0.20153122280E+03  0.20153122282E+03  0.25500000000E-02 0. -1.
    5000001    1    1    2    0    0 -0.10588070638E+03  0.15204992657E+03 -0.14875452575E+01  0.24810706750E+03  0.16500000000E+03 0.  0.
   -5000001    1    1    2    0    0  0.10588070638E+03 -0.15204992657E+03  0.12381268348E+03  0.27728051635E+03  0.16500000000E+03 0.  0.
<mgrwt>
<rscale>  0 0.51094880E+03</rscale>
<asrwt>0</asrwt>
<pdfrwt beam="1">  1        2 0.46265194E-01 0.51094880E+03</pdfrwt>
<pdfrwt beam="2">  1       -2 0.28790175E-01 0.51094880E+03</pdfrwt>
<totfact> 0.12110389E+03</totfact>
</mgrwt>
</event>
<event>
 4    1  0.5323640E-005  0.4243038E+03  0.7818608E-02  0.1035675E+00
          2   -1    0    0  501    0  0.00000000000E+00  0.00000000000E+00  0.13844237331E+04  0.13844237331E+04  0.25500000000E-02 0.  1.
         -2   -1    0    0    0  501 -0.00000000000E+00 -0.00000000000E+00 -0.32510590332E+02  0.32510590432E+02  0.25500000000E-02 0. -1.
    5000001    1    1    2    0    0 -0.38478280164E+00  0.12872051572E+03  0.79232581804E+03  0.81949638263E+03  0.16500000000E+03 0.  0.
   -5000001    1    1    2    0    0  0.38478280164E+00 -0.12872051572E+03  0.55958732474E+03  0.59743794091E+03  0.16500000000E+03 0.  0.
<mgrwt>
<rscale>  0 0.42430382E+03</rscale>
<asrwt>0</asrwt>
<pdfrwt beam="1">  1        2 0.19777485E+00 0.42430382E+03</pdfrwt>
<pdfrwt beam="2">  1       -2 0.46443694E-02 0.42430382E+03</pdfrwt>
<totfact> 0.39307813E+03</totfact>
</mgrwt>
</event>
<event>
 4    1  0.5323640E-005  0.4710785E+03  0.7818608E-02  0.1021616E+00
          2   -1    0    0  501    0  0.00000000000E+00  0.00000000000E+00  0.11989077706E+04  0.11989077706E+04  0.25500000000E-02 0.  1.
         -2   -1    0    0    0  501 -0.00000000000E+00 -0.00000000000E+00 -0.46274391404E+02  0.46274391474E+02  0.25500000000E-02 0. -1.
    5000001    1    1    2    0    0 -0.15973898371E+03 -0.44388352798E+02  0.64951437094E+03  0.69034830835E+03  0.16500000000E+03 0.  0.
   -5000001    1    1    2    0    0  0.15973898371E+03  0.44388352798E+02  0.50311900830E+03  0.55483385377E+03  0.16500000000E+03 0.  0.
<mgrwt>
<rscale>  0 0.47107845E+03</rscale>
<asrwt>0</asrwt>
<pdfrwt beam="1">  1        2 0.17127253E+00 0.47107845E+03</pdfrwt>
<pdfrwt beam="2">  1       -2 0.66106278E-02 0.47107845E+03</pdfrwt>
<totfact> 0.28653028E+03</totfact>
</mgrwt>
</event>
<event>
 4    1  0.5323640E-005  0.5290464E+03  0.7818608E-02  0.1006464E+00
          2   -1    0    0  501    0  0.00000000000E+00  0.00000000000E+00  0.74015040570E+03  0.74015040570E+03  0.25500000000E-02 0.  1.
         -2   -1    0    0    0  501 -0.00000000000E+00 -0.00000000000E+00 -0.94538253368E+02  0.94538253402E+02  0.25500000000E-02 0. -1.
    5000001    1    1    2    0    0  0.18596850051E+03 -0.29493582724E+01  0.18033372277E+03  0.30714529699E+03  0.16500000000E+03 0.  0.
   -5000001    1    1    2    0    0 -0.18596850051E+03  0.29493582724E+01  0.46527842956E+03  0.52754336211E+03  0.16500000000E+03 0.  0.
<mgrwt>
<rscale>  0 0.52904641E+03</rscale>
<asrwt>0</asrwt>
<pdfrwt beam="1">  1        2 0.10573578E+00 0.52904641E+03</pdfrwt>
<pdfrwt beam="2">  1       -2 0.13505464E-01 0.52904641E+03</pdfrwt>
<totfact> 0.17539623E+03</totfact>
</mgrwt>
</event>
<event>
 4    1  0.5323640E-005  0.6095603E+03  0.7818608E-02  0.9885768E-01
         -2   -1    0    0    0  501 -0.00000000000E+00  0.00000000000E+00  0.22078845934E+04  0.22078845934E+04  0.25500000000E-02 0. -1.
          2   -1    0    0  501    0  0.00000000000E+00 -0.00000000000E+00 -0.42072367680E+02  0.42072367757E+02  0.25500000000E-02 0.  1.
    5000001    1    1    2    0    0 -0.21446552477E+03 -0.11483868607E+03  0.13800935201E+04  0.14110515615E+04  0.16500000000E+03 0.  0.
   -5000001    1    1    2    0    0  0.21446552477E+03  0.11483868607E+03  0.78571870564E+03  0.83890539963E+03  0.16500000000E+03 0.  0.
<mgrwt>
<rscale>  0 0.60956028E+03</rscale>
<asrwt>0</asrwt>
<pdfrwt beam="1">  1        2 0.60103367E-02 0.60956028E+03</pdfrwt>
<pdfrwt beam="2">  1       -2 0.31541217E+00 0.60956028E+03</pdfrwt>
<totfact> 0.35019529E+01</totfact>
</mgrwt>
</event>
<event>
 4    1  0.5323640E-005  0.5347590E+03  0.7818608E-02  0.1005084E+00
         -2   -1    0    0    0  501 -0.00000000000E+00  0.00000000000E+00  0.10807371472E+03  0.10807371475E+03  0.25500000000E-02 0. -1.
          2   -1    0    0  501    0  0.00000000000E+00 -0.00000000000E+00 -0.66150954497E+03  0.66150954497E+03  0.25500000000E-02 0.  1.
    5000001    1    1    2    0    0 -0.27551865950E+02  0.20296611043E+03 -0.20751356859E+03  0.33502422069E+03  0.16500000000E+03 0.  0.
   -5000001    1    1    2    0    0  0.27551865950E+02 -0.20296611043E+03 -0.34592226166E+03  0.43455903904E+03  0.16500000000E+03 0.  0.
<mgrwt>
<rscale>  0 0.53475899E+03</rscale>
<asrwt>0</asrwt>
<pdfrwt beam="1">  1        2 0.94501362E-01 0.53475899E+03</pdfrwt>
<pdfrwt beam="2">  1       -2 0.15439102E-01 0.53475899E+03</pdfrwt>
<totfact> 0.16079938E+03</totfact>
</mgrwt>
</event>
<event>
 4    1  0.5323640E-005  0.3876465E+03  0.7818608E-02  0.1048143E+00
          2   -1    0    0  501    0  0.00000000000E+00  0.00000000000E+00  0.13888027471E+04  0.13888027471E+04  0.25500000000E-02 0.  1.
         -2   -1    0    0    0  501 -0.00000000000E+00 -0.00000000000E+00 -0.27050243432E+02  0.27050243553E+02  0.25500000000E-02 0. -1.
    5000001    1    1    2    0    0 -0.28250593143E+02 -0.23684635003E+02  0.33469580785E+03  0.37497378807E+03  0.16500000000E+03 0.  0.
   -5000001    1    1    2    0    0  0.28250593143E+02  0.23684635003E+02  0.10270566959E+04  0.10408792026E+04  0.16500000000E+03 0.  0.
<mgrwt>
<rscale>  0 0.38764650E+03</rscale>
<asrwt>0</asrwt>
<pdfrwt beam="1">  1        2 0.19840047E+00 0.38764650E+03</pdfrwt>
<pdfrwt beam="2">  1       -2 0.38643191E-02 0.38764650E+03</pdfrwt>
<totfact> 0.51730155E+03</totfact>
</mgrwt>
</event>
<event>
 4    1  0.5323640E-005  0.3758675E+03  0.7818608E-02  0.1052472E+00
         -2   -1    0    0    0  501 -0.00000000000E+00  0.00000000000E+00  0.16494534300E+02  0.16494534497E+02  0.25500000000E-02 0. -1.
          2   -1    0    0  501    0  0.00000000000E+00 -0.00000000000E+00 -0.21412599554E+04  0.21412599554E+04  0.25500000000E-02 0.  1.
    5000001    1    1    2    0    0  0.10713899240E+02  0.79597837242E+02 -0.12951113705E+04  0.13080478069E+04  0.16500000000E+03 0.  0.
   -5000001    1    1    2    0    0 -0.10713899240E+02 -0.79597837242E+02 -0.82965405063E+03  0.84970668296E+03  0.16500000000E+03 0.  0.
<mgrwt>
<rscale>  0 0.37586746E+03</rscale>
<asrwt>0</asrwt>
<pdfrwt beam="1">  1        2 0.30589410E+00 0.37586746E+03</pdfrwt>
<pdfrwt beam="2">  1       -2 0.23563634E-02 0.37586746E+03</pdfrwt>
<totfact> 0.45666781E+03</totfact>
</mgrwt>
</event>
<event>
 4    1  0.5323640E-005  0.6969820E+03  0.7818608E-02  0.9722407E-01
          2   -1    0    0  501    0  0.00000000000E+00  0.00000000000E+00  0.14132006563E+04  0.14132006563E+04  0.25500000000E-02 0.  1.
         -2   -1    0    0    0  501 -0.00000000000E+00 -0.00000000000E+00 -0.85936831463E+02  0.85936831501E+02  0.25500000000E-02 0. -1.
    5000001    1    1    2    0    0  0.25592206202E+03  0.16941620010E+03  0.65330850374E+03  0.74042889716E+03  0.16500000000E+03 0.  0.
   -5000001    1    1    2    0    0 -0.25592206202E+03 -0.16941620010E+03  0.67395532109E+03  0.75870859064E+03  0.16500000000E+03 0.  0.
<mgrwt>
<rscale>  0 0.69698203E+03</rscale>
<asrwt>0</asrwt>
<pdfrwt beam="1">  1        2 0.20188580E+00 0.69698203E+03</pdfrwt>
<pdfrwt beam="2">  1       -2 0.12276691E-01 0.69698203E+03</pdfrwt>
<totfact> 0.80571054E+02</totfact>
</mgrwt>
</event>
<event>
 4    1  0.5323640E-005  0.4802203E+03  0.7818608E-02  0.1019075E+00
          2   -1    0    0  501    0  0.00000000000E+00  0.00000000000E+00  0.76785996262E+03  0.76785996263E+03  0.25500000000E-02 0.  1.
         -2   -1    0    0    0  501 -0.00000000000E+00 -0.00000000000E+00 -0.75082537807E+02  0.75082537850E+02  0.25500000000E-02 0. -1.
    5000001    1    1    2    0    0  0.41229688834E+02  0.13976310312E+03  0.17807638691E+03  0.28314274105E+03  0.16500000000E+03 0.  0.
   -5000001    1    1    2    0    0 -0.41229688834E+02 -0.13976310312E+03  0.51470103790E+03  0.55979975943E+03  0.16500000000E+03 0.  0.
<mgrwt>
<rscale>  0 0.48022026E+03</rscale>
<asrwt>0</asrwt>
<pdfrwt beam="1">  1        2 0.10969428E+00 0.48022026E+03</pdfrwt>
<pdfrwt beam="2">  1       -2 0.10726077E-01 0.48022026E+03</pdfrwt>
<totfact> 0.24449041E+03</totfact>
</mgrwt>
</event>
<event>
 4    1  0.5323640E-005  0.4428470E+03  0.7818608E-02  0.1029877E+00
          2   -1    0    0  501    0  0.00000000000E+00  0.00000000000E+00  0.29963350392E+04  0.29963350392E+04  0.25500000000E-02 0.  1.
         -2   -1    0    0    0  501 -0.00000000000E+00 -0.00000000000E+00 -0.16362780505E+02  0.16362780703E+02  0.25500000000E-02 0. -1.
    5000001    1    1    2    0    0  0.83115052361E+02 -0.12006695482E+03  0.16389066292E+04  0.16536517543E+04  0.16500000000E+03 0.  0.
   -5000001    1    1    2    0    0 -0.83115052361E+02  0.12006695482E+03  0.13410656295E+04  0.13590460655E+04  0.16500000000E+03 0.  0.
<mgrwt>
<rscale>  0 0.44284703E+03</rscale>
<asrwt>0</asrwt>
<pdfrwt beam="1">  1        2 0.42804838E+00 0.44284703E+03</pdfrwt>
<pdfrwt beam="2">  1       -2 0.23375373E-02 0.44284703E+03</pdfrwt>
<totfact> 0.16807993E+03</totfact>
</mgrwt>
</event>
<event>
 4    1  0.5323640E-005  0.5118543E+03  0.7818608E-02  0.1010730E+00
         -2   -1    0    0    0  501 -0.00000000000E+00  0.00000000000E+00  0.14824051463E+03  0.14824051465E+03  0.25500000000E-02 0.  1.
          2   -1    0    0  501    0  0.00000000000E+00 -0.00000000000E+00 -0.44184074895E+03  0.44184074896E+03  0.25500000000E-02 0. -1.
    5000001    1    1    2    0    0  0.12693069495E+03  0.95768116153E+02 -0.27819633957E+03  0.36041800280E+03  0.16500000000E+03 0.  0.
   -5000001    1    1    2    0    0 -0.12693069495E+03 -0.95768116153E+02 -0.15403894748E+02  0.22966326081E+03  0.16500000000E+03 0.  0.
<mgrwt>
<rscale>  0 0.51185428E+03</rscale>
<asrwt>0</asrwt>
<pdfrwt beam="1">  1        2 0.63120106E-01 0.51185428E+03</pdfrwt>
<pdfrwt beam="2">  1       -2 0.21177217E-01 0.51185428E+03</pdfrwt>
<totfact> 0.14878236E+03</totfact>
</mgrwt>
</event>
<event>
 4    1  0.5323640E-005  0.3910605E+03  0.7818608E-02  0.1046920E+00
          2   -1    0    0  501    0  0.00000000000E+00  0.00000000000E+00  0.49324193374E+03  0.49324193375E+03  0.25500000000E-02 0.  1.
         -2   -1    0    0    0  501 -0.00000000000E+00 -0.00000000000E+00 -0.77511812087E+02  0.77511812129E+02  0.25500000000E-02 0. -1.
    5000001    1    1    2    0    0 -0.41679212411E+02  0.74873604092E+02  0.29620852653E+03  0.34972518429E+03  0.16500000000E+03 0.  0.
   -5000001    1    1    2    0    0  0.41679212411E+02 -0.74873604092E+02  0.11952159512E+03  0.22102856159E+03  0.16500000000E+03 0.  0.
<mgrwt>
<rscale>  0 0.39106049E+03</rscale>
<asrwt>0</asrwt>
<pdfrwt beam="1">  1        2 0.70463128E-01 0.39106049E+03</pdfrwt>
<pdfrwt beam="2">  1       -2 0.11073117E-01 0.39106049E+03</pdfrwt>
<totfact> 0.38952574E+03</totfact>
</mgrwt>
</event>
<event>
 4    1  0.5323640E-005  0.4266934E+03  0.7818608E-02  0.1034910E+00
          2   -1    0    0  501    0  0.00000000000E+00  0.00000000000E+00  0.64928845334E+02  0.64928845384E+02  0.25500000000E-02 0.  1.
         -2   -1    0    0    0  501 -0.00000000000E+00 -0.00000000000E+00 -0.70102608903E+03  0.70102608903E+03  0.25500000000E-02 0. -1.
    5000001    1    1    2    0    0  0.41412359007E+02  0.11888025294E+03 -0.22929910177E+03  0.30927427324E+03  0.16500000000E+03 0.  0.
   -5000001    1    1    2    0    0 -0.41412359007E+02 -0.11888025294E+03 -0.40679814193E+03  0.45668066117E+03  0.16500000000E+03 0.  0.
<mgrwt>
<rscale>  0 0.42669340E+03</rscale>
<asrwt>0</asrwt>
<pdfrwt beam="1">  1        2 0.92755497E-02 0.42669340E+03</pdfrwt>
<pdfrwt beam="2">  1       -2 0.10014658E+00 0.42669340E+03</pdfrwt>
<totfact> 0.60627160E+02</totfact>
</mgrwt>
</event>
<event>
 4    1  0.5323640E-005  0.1140258E+04  0.7818608E-02  0.9166818E-01
          2   -1    0    0  501    0  0.00000000000E+00  0.00000000000E+00  0.13030226921E+04  0.13030226922E+04  0.25500000000E-02 0.  1.
         -2   -1    0    0    0  501 -0.00000000000E+00 -0.00000000000E+00 -0.24945622013E+03  0.24945622015E+03  0.25500000000E-02 0. -1.
    5000001    1    1    2    0    0  0.34596495998E+03  0.56146690125E+02 -0.42743569825E+02  0.38973865231E+03  0.16500000000E+03 0.  0.
   -5000001    1    1    2    0    0 -0.34596495998E+03 -0.56146690125E+02  0.10963100418E+04  0.11627402600E+04  0.16500000000E+03 0.  0.
<mgrwt>
<rscale>  0 0.11402581E+04</rscale>
<asrwt>0</asrwt>
<pdfrwt beam="1">  1        2 0.18614610E+00 0.11402581E+04</pdfrwt>
<pdfrwt beam="2">  1       -2 0.35636602E-01 0.11402581E+04</pdfrwt>
<totfact> 0.13688750E+02</totfact>
</mgrwt>
</event>
<event>
 4    1  0.5323640E-005  0.3732315E+03  0.7818608E-02  0.1053464E+00
          2   -1    0    0  501    0  0.00000000000E+00  0.00000000000E+00  0.14623253542E+04  0.14623253542E+04  0.25500000000E-02 0.  1.
         -2   -1    0    0    0  501 -0.00000000000E+00 -0.00000000000E+00 -0.23815111948E+02  0.23815112084E+02  0.25500000000E-02 0. -1.
    5000001    1    1    2    0    0  0.57191521727E+02  0.27622575659E+02  0.48145797775E+03  0.51289439574E+03  0.16500000000E+03 0.  0.
   -5000001    1    1    2    0    0 -0.57191521727E+02 -0.27622575659E+02  0.95705226454E+03  0.97324607058E+03  0.16500000000E+03 0.  0.
<mgrwt>
<rscale>  0 0.37323152E+03</rscale>
<asrwt>0</asrwt>
<pdfrwt beam="1">  1        2 0.20890365E+00 0.37323152E+03</pdfrwt>
<pdfrwt beam="2">  1       -2 0.34021583E-02 0.37323152E+03</pdfrwt>
<totfact> 0.57427770E+03</totfact>
</mgrwt>
</event>
<event>
 4    1  0.5323640E-005  0.5202975E+03  0.7818608E-02  0.1008613E+00
         -2   -1    0    0    0  501 -0.00000000000E+00  0.00000000000E+00  0.58163907367E+02  0.58163907423E+02  0.25500000000E-02 0. -1.
          2   -1    0    0  501    0  0.00000000000E+00 -0.00000000000E+00 -0.11635632421E+04  0.11635632421E+04  0.25500000000E-02 0.  1.
    5000001    1    1    2    0    0  0.11581117911E+03  0.82439054709E+02 -0.21860452870E+03  0.30857959576E+03  0.16500000000E+03 0.  0.
   -5000001    1    1    2    0    0 -0.11581117911E+03 -0.82439054709E+02 -0.88679480599E+03  0.91314755373E+03  0.16500000000E+03 0.  0.
<mgrwt>
<rscale>  0 0.52029755E+03</rscale>
<asrwt>0</asrwt>
<pdfrwt beam="1">  1        2 0.16622331E+00 0.52029755E+03</pdfrwt>
<pdfrwt beam="2">  1       -2 0.83091303E-02 0.52029755E+03</pdfrwt>
<totfact> 0.20892832E+03</totfact>
</mgrwt>
</event>
<event>
 4    1  0.5323640E-005  0.5819915E+03  0.7818608E-02  0.9943489E-01
          2   -1    0    0  501    0  0.00000000000E+00  0.00000000000E+00  0.45756822026E+03  0.45756822027E+03  0.25500000000E-02 0. -1.
         -2   -1    0    0    0  501 -0.00000000000E+00 -0.00000000000E+00 -0.18506208040E+03  0.18506208042E+03  0.25500000000E-02 0.  1.
    5000001    1    1    2    0    0  0.14528624288E+03  0.16806955399E+03  0.23561843591E+03  0.36345084219E+03  0.16500000000E+03 0.  0.
   -5000001    1    1    2    0    0 -0.14528624288E+03 -0.16806955399E+03  0.36887703947E+02  0.27917945850E+03  0.16500000000E+03 0.  0.
<mgrwt>
<rscale>  0 0.58199150E+03</rscale>
<asrwt>0</asrwt>
<pdfrwt beam="1">  1        2 0.65366889E-01 0.58199150E+03</pdfrwt>
<pdfrwt beam="2">  1       -2 0.26437440E-01 0.58199150E+03</pdfrwt>
<totfact> 0.96410067E+02</totfact>
</mgrwt>
</event>
<event>
 4    1  0.5323640E-005  0.9225605E+03  0.7818608E-02  0.9397811E-01
          2   -1    0    0  501    0  0.00000000000E+00  0.00000000000E+00  0.13890777711E+04  0.13890777711E+04  0.25500000000E-02 0.  1.
         -2   -1    0    0    0  501 -0.00000000000E+00 -0.00000000000E+00 -0.15318037832E+03  0.15318037835E+03  0.25500000000E-02 0. -1.
    5000001    1    1    2    0    0  0.21954904743E+03 -0.25592452705E+03  0.10660659487E+04  0.11302303990E+04  0.16500000000E+03 0.  0.
   -5000001    1    1    2    0    0 -0.21954904743E+03  0.25592452705E+03  0.16983144408E+03  0.41202775049E+03  0.16500000000E+03 0.  0.
<mgrwt>
<rscale>  0 0.92256048E+03</rscale>
<asrwt>0</asrwt>
<pdfrwt beam="1">  1        2 0.19843969E+00 0.92256048E+03</pdfrwt>
<pdfrwt beam="2">  1       -2 0.21882911E-01 0.92256048E+03</pdfrwt>
<totfact> 0.30538062E+02</totfact>
</mgrwt>
</event>
<event>
 4    1  0.5323640E-005  0.8004446E+03  0.7818608E-02  0.9559374E-01
          2   -1    0    0  501    0  0.00000000000E+00  0.00000000000E+00  0.18158497155E+04  0.18158497155E+04  0.25500000000E-02 0.  1.
         -2   -1    0    0    0  501 -0.00000000000E+00 -0.00000000000E+00 -0.88210985273E+02  0.88210985310E+02  0.25500000000E-02 0. -1.
    5000001    1    1    2    0    0  0.22539496979E+03  0.28560107026E+03  0.80643127845E+03  0.89995959388E+03  0.16500000000E+03 0.  0.
   -5000001    1    1    2    0    0 -0.22539496979E+03 -0.28560107026E+03  0.92120745173E+03  0.10041011069E+04  0.16500000000E+03 0.  0.
<mgrwt>
<rscale>  0 0.80044461E+03</rscale>
<asrwt>0</asrwt>
<pdfrwt beam="1">  1        2 0.25940709E+00 0.80044461E+03</pdfrwt>
<pdfrwt beam="2">  1       -2 0.12601570E-01 0.80044461E+03</pdfrwt>
<totfact> 0.47463668E+02</totfact>
</mgrwt>
</event>
<event>
 4    1  0.5323640E-005  0.3770309E+03  0.7818608E-02  0.1052037E+00
          2   -1    0    0  501    0  0.00000000000E+00  0.00000000000E+00  0.23666986931E+04  0.23666986931E+04  0.25500000000E-02 0.  1.
         -2   -1    0    0    0  501 -0.00000000000E+00 -0.00000000000E+00 -0.15015881235E+02  0.15015881452E+02  0.25500000000E-02 0. -1.
    5000001    1    1    2    0    0 -0.80452851957E+01  0.82078557143E+02  0.93025190448E+03  0.94836449847E+03  0.16500000000E+03 0.  0.
   -5000001    1    1    2    0    0  0.80452851957E+01 -0.82078557143E+02  0.14214309073E+04  0.14333500760E+04  0.16500000000E+03 0.  0.
<mgrwt>
<rscale>  0 0.37703086E+03</rscale>
<asrwt>0</asrwt>
<pdfrwt beam="1">  1        2 0.33809944E+00 0.37703086E+03</pdfrwt>
<pdfrwt beam="2">  1       -2 0.21451283E-02 0.37703086E+03</pdfrwt>
<totfact> 0.40585046E+03</totfact>
</mgrwt>
</event>
<event>
 4    1  0.5323640E-005  0.3569051E+03  0.7818608E-02  0.1059816E+00
         -2   -1    0    0    0  501 -0.00000000000E+00  0.00000000000E+00  0.13990406834E+03  0.13990406836E+03  0.25500000000E-02 0. -1.
          2   -1    0    0  501    0  0.00000000000E+00 -0.00000000000E+00 -0.22762250130E+03  0.22762250132E+03  0.25500000000E-02 0.  1.
    5000001    1    1    2    0    0 -0.22749494184E+02 -0.64020332309E+02 -0.41755996497E+02  0.18326130437E+03  0.16500000000E+03 0.  0.
   -5000001    1    1    2    0    0  0.22749494184E+02  0.64020332309E+02 -0.45962436467E+02  0.18426526531E+03  0.16500000000E+03 0.  0.
<mgrwt>
<rscale>  0 0.35690511E+03</rscale>
<asrwt>0</asrwt>
<pdfrwt beam="1">  1        2 0.32517500E-01 0.35690511E+03</pdfrwt>
<pdfrwt beam="2">  1       -2 0.19986296E-01 0.35690511E+03</pdfrwt>
<totfact> 0.33908694E+03</totfact>
</mgrwt>
</event>
<event>
 4    1  0.5323640E-005  0.6405059E+03  0.7818608E-02  0.9824759E-01
         -2   -1    0    0    0  501 -0.00000000000E+00  0.00000000000E+00  0.32242077662E+02  0.32242077763E+02  0.25500000000E-02 0. -1.
          2   -1    0    0  501    0  0.00000000000E+00 -0.00000000000E+00 -0.31809969722E+04  0.31809969722E+04  0.25500000000E-02 0.  1.
    5000001    1    1    2    0    0 -0.50694620722E+02 -0.15294241832E+03 -0.26891241585E+04  0.26989951959E+04  0.16500000000E+03 0.  0.
   -5000001    1    1    2    0    0  0.50694620722E+02  0.15294241832E+03 -0.45963073608E+03  0.51424385406E+03  0.16500000000E+03 0.  0.
<mgrwt>
<rscale>  0 0.64050590E+03</rscale>
<asrwt>0</asrwt>
<pdfrwt beam="1">  1        2 0.45442794E+00 0.64050590E+03</pdfrwt>
<pdfrwt beam="2">  1       -2 0.46060131E-02 0.64050590E+03</pdfrwt>
<totfact> 0.46508437E+02</totfact>
</mgrwt>
</event>
<event>
 4    1  0.5323640E-005  0.5197134E+03  0.7818608E-02  0.1008758E+00
         -2   -1    0    0    0  501 -0.00000000000E+00  0.00000000000E+00  0.45969829264E+03  0.45969829265E+03  0.25500000000E-02 0. -1.
          2   -1    0    0  501    0  0.00000000000E+00 -0.00000000000E+00 -0.14689089440E+03  0.14689089442E+03  0.25500000000E-02 0.  1.
    5000001    1    1    2    0    0  0.75092792158E+02  0.17407739928E+03  0.79347862852E+02  0.26355825108E+03  0.16500000000E+03 0.  0.
   -5000001    1    1    2    0    0 -0.75092792158E+02 -0.17407739928E+03  0.23345953539E+03  0.34303093598E+03  0.16500000000E+03 0.  0.
<mgrwt>
<rscale>  0 0.51971336E+03</rscale>
<asrwt>0</asrwt>
<pdfrwt beam="1">  1        2 0.20984413E-01 0.51971336E+03</pdfrwt>
<pdfrwt beam="2">  1       -2 0.65671185E-01 0.51971336E+03</pdfrwt>
<totfact> 0.57776621E+02</totfact>
</mgrwt>
</event>
<event>
 4    1  0.5323640E-005  0.3983810E+03  0.7818608E-02  0.1044342E+00
         -2   -1    0    0    0  501 -0.00000000000E+00  0.00000000000E+00  0.10617468751E+03  0.10617468754E+03  0.25500000000E-02 0. -1.
          2   -1    0    0  501    0  0.00000000000E+00 -0.00000000000E+00 -0.37369412668E+03  0.37369412669E+03  0.25500000000E-02 0.  1.
    5000001    1    1    2    0    0  0.16804657034E+02  0.92683867186E+02 -0.61696354065E+02  0.19976019583E+03  0.16500000000E+03 0.  0.
   -5000001    1    1    2    0    0 -0.16804657034E+02 -0.92683867186E+02 -0.20582308511E+03  0.28010861840E+03  0.16500000000E+03 0.  0.
<mgrwt>
<rscale>  0 0.39838101E+03</rscale>
<asrwt>0</asrwt>
<pdfrwt beam="1">  1        2 0.53384875E-01 0.39838101E+03</pdfrwt>
<pdfrwt beam="2">  1       -2 0.15167813E-01 0.39838101E+03</pdfrwt>
<totfact> 0.31566506E+03</totfact>
</mgrwt>
</event>
<event>
 4    1  0.5323640E-005  0.5946386E+03  0.7818608E-02  0.9916592E-01
         -2   -1    0    0    0  501 -0.00000000000E+00  0.00000000000E+00  0.15917172278E+03  0.15917172280E+03  0.25500000000E-02 0. -1.
          2   -1    0    0  501    0  0.00000000000E+00 -0.00000000000E+00 -0.55536724553E+03  0.55536724553E+03  0.25500000000E-02 0.  1.
    5000001    1    1    2    0    0  0.20907681281E+03  0.11471287413E+02 -0.39914581946E+02  0.26956052742E+03  0.16500000000E+03 0.  0.
   -5000001    1    1    2    0    0 -0.20907681281E+03 -0.11471287413E+02 -0.35628094081E+03  0.44497844091E+03  0.16500000000E+03 0.  0.
<mgrwt>
<rscale>  0 0.59463858E+03</rscale>
<asrwt>0</asrwt>
<pdfrwt beam="1">  1        2 0.79338177E-01 0.59463858E+03</pdfrwt>
<pdfrwt beam="2">  1       -2 0.22738818E-01 0.59463858E+03</pdfrwt>
<totfact> 0.10124218E+03</totfact>
</mgrwt>
</event>
<event>
 4    1  0.5323640E-005  0.4592532E+03  0.7818608E-02  0.1024998E+00
          2   -1    0    0  501    0  0.00000000000E+00  0.00000000000E+00  0.55816200521E+03  0.55816200522E+03  0.25500000000E-02 0.  1.
         -2   -1    0    0    0  501 -0.00000000000E+00 -0.00000000000E+00 -0.94467870378E+02  0.94467870412E+02  0.25500000000E-02 0. -1.
    5000001    1    1    2    0    0  0.90560440876E+02  0.92258237182E+02  0.98610320188E+02  0.23165010474E+03  0.16500000000E+03 0.  0.
   -5000001    1    1    2    0    0 -0.90560440876E+02 -0.92258237182E+02  0.36508381465E+03  0.42097977089E+03  0.16500000000E+03 0.  0.
<mgrwt>
<rscale>  0 0.45925320E+03</rscale>
<asrwt>0</asrwt>
<pdfrwt beam="1">  1        2 0.79737428E-01 0.45925320E+03</pdfrwt>
<pdfrwt beam="2">  1       -2 0.13495410E-01 0.45925320E+03</pdfrwt>
<totfact> 0.24553209E+03</totfact>
</mgrwt>
</event>
<event>
 4    1  0.5323640E-005  0.4910640E+03  0.7818608E-02  0.1016138E+00
          2   -1    0    0  501    0  0.00000000000E+00  0.00000000000E+00  0.90002918470E+03  0.90002918471E+03  0.25500000000E-02 0.  1.
         -2   -1    0    0    0  501 -0.00000000000E+00 -0.00000000000E+00 -0.66982221927E+02  0.66982221976E+02  0.25500000000E-02 0. -1.
    5000001    1    1    2    0    0 -0.56377220676E+02  0.14827460383E+03  0.24152662433E+03  0.33275194878E+03  0.16500000000E+03 0.  0.
   -5000001    1    1    2    0    0  0.56377220676E+02 -0.14827460383E+03  0.59152033844E+03  0.63425945791E+03  0.16500000000E+03 0.  0.
<mgrwt>
<rscale>  0 0.49106397E+03</rscale>
<asrwt>0</asrwt>
<pdfrwt beam="1">  1        2 0.12857558E+00 0.49106397E+03</pdfrwt>
<pdfrwt beam="2">  1       -2 0.95688902E-02 0.49106397E+03</pdfrwt>
<totfact> 0.23966503E+03</totfact>
</mgrwt>
</event>
<event>
 4    1  0.5323640E-005  0.3947064E+03  0.7818608E-02  0.1045628E+00
         -2   -1    0    0    0  501 -0.00000000000E+00  0.00000000000E+00  0.34531478521E+03  0.34531478522E+03  0.25500000000E-02 0. -1.
          2   -1    0    0  501    0  0.00000000000E+00 -0.00000000000E+00 -0.11279067631E+03  0.11279067634E+03  0.25500000000E-02 0.  1.
    5000001    1    1    2    0    0 -0.81922820374E+02  0.54318977993E+02  0.63566838277E+02  0.20230581503E+03  0.16500000000E+03 0.  0.
   -5000001    1    1    2    0    0  0.81922820374E+02 -0.54318977993E+02  0.16895727062E+03  0.25579964652E+03  0.16500000000E+03 0.  0.
<mgrwt>
<rscale>  0 0.39470641E+03</rscale>
<asrwt>0</asrwt>
<pdfrwt beam="1">  1        2 0.16112954E-01 0.39470641E+03</pdfrwt>
<pdfrwt beam="2">  1       -2 0.49330684E-01 0.39470641E+03</pdfrwt>
<totfact> 0.14230403E+03</totfact>
</mgrwt>
</event>
<event>
 4    1  0.5323640E-005  0.5779230E+03  0.7818608E-02  0.9952298E-01
          2   -1    0    0  501    0  0.00000000000E+00  0.00000000000E+00  0.34868978402E+04  0.34868978402E+04  0.25500000000E-02 0.  1.
         -2   -1    0    0    0  501 -0.00000000000E+00 -0.00000000000E+00 -0.23946425126E+02  0.23946425262E+02  0.25500000000E-02 0. -1.
    5000001    1    1    2    0    0  0.14392095403E+03 -0.17727534707E+03  0.13408829830E+04  0.13701576419E+04  0.16500000000E+03 0.  0.
   -5000001    1    1    2    0    0 -0.14392095403E+03  0.17727534707E+03  0.21220684321E+04  0.21406866235E+04  0.16500000000E+03 0.  0.
<mgrwt>
<rscale>  0 0.57792296E+03</rscale>
<asrwt>0</asrwt>
<pdfrwt beam="1">  1        2 0.49812777E+00 0.57792296E+03</pdfrwt>
<pdfrwt beam="2">  1       -2 0.34209213E-02 0.57792296E+03</pdfrwt>
<totfact> 0.49309903E+02</totfact>
</mgrwt>
</event>
<event>
 4    1  0.5323640E-005  0.5345832E+03  0.7818608E-02  0.1005127E+00
         -2   -1    0    0    0  501 -0.00000000000E+00  0.00000000000E+00  0.54115124613E+03  0.54115124614E+03  0.25500000000E-02 0. -1.
          2   -1    0    0  501    0  0.00000000000E+00 -0.00000000000E+00 -0.13202372271E+03  0.13202372274E+03  0.25500000000E-02 0.  1.
    5000001    1    1    2    0    0  0.55903681315E+02  0.16979828176E+03  0.65115468051E+02  0.25183665788E+03  0.16500000000E+03 0.  0.
   -5000001    1    1    2    0    0 -0.55903681315E+02 -0.16979828176E+03  0.34401205537E+03  0.42133831100E+03  0.16500000000E+03 0.  0.
<mgrwt>
<rscale>  0 0.53458321E+03</rscale>
<asrwt>0</asrwt>
<pdfrwt beam="1">  1        2 0.18860532E-01 0.53458321E+03</pdfrwt>
<pdfrwt beam="2">  1       -2 0.77307322E-01 0.53458321E+03</pdfrwt>
<totfact> 0.45874170E+02</totfact>
</mgrwt>
</event>
<event>
 4    1  0.5323640E-005  0.4517998E+03  0.7818608E-02  0.1027187E+00
          2   -1    0    0  501    0  0.00000000000E+00  0.00000000000E+00  0.39396205867E+03  0.39396205867E+03  0.25500000000E-02 0.  1.
         -2   -1    0    0    0  501 -0.00000000000E+00 -0.00000000000E+00 -0.12953218274E+03  0.12953218277E+03  0.25500000000E-02 0. -1.
    5000001    1    1    2    0    0  0.13719014988E+02  0.13908425284E+03  0.56472609584E+02  0.22348779920E+03  0.16500000000E+03 0.  0.
   -5000001    1    1    2    0    0 -0.13719014988E+02 -0.13908425284E+03  0.20795726634E+03  0.30000644224E+03  0.16500000000E+03 0.  0.
<mgrwt>
<rscale>  0 0.45179980E+03</rscale>
<asrwt>0</asrwt>
<pdfrwt beam="1">  1        2 0.56280295E-01 0.45179980E+03</pdfrwt>
<pdfrwt beam="2">  1       -2 0.18504597E-01 0.45179980E+03</pdfrwt>
<totfact> 0.21319698E+03</totfact>
</mgrwt>
</event>
<event>
 4    1  0.5323640E-005  0.4413129E+03  0.7818608E-02  0.1030345E+00
          2   -1    0    0  501    0  0.00000000000E+00  0.00000000000E+00  0.50273106836E+03  0.50273106837E+03  0.25500000000E-02 0.  1.
         -2   -1    0    0    0  501 -0.00000000000E+00 -0.00000000000E+00 -0.96849535228E+02  0.96849535261E+02  0.25500000000E-02 0. -1.
    5000001    1    1    2    0    0 -0.45922016361E+02 -0.11831184967E+03  0.30238783033E+03  0.36711023588E+03  0.16500000000E+03 0.  0.
   -5000001    1    1    2    0    0  0.45922016361E+02  0.11831184967E+03  0.10349370281E+03  0.23247036775E+03  0.16500000000E+03 0.  0.
<mgrwt>
<rscale>  0 0.44131291E+03</rscale>
<asrwt>0</asrwt>
<pdfrwt beam="1">  1        2 0.71818722E-01 0.44131291E+03</pdfrwt>
<pdfrwt beam="2">  1       -2 0.13835648E-01 0.44131291E+03</pdfrwt>
<totfact> 0.26527074E+03</totfact>
</mgrwt>
</event>
<event>
 4    1  0.5323640E-005  0.5125504E+03  0.7818608E-02  0.1010554E+00
          2   -1    0    0  501    0  0.00000000000E+00  0.00000000000E+00  0.13298397567E+04  0.13298397567E+04  0.25500000000E-02 0.  1.
         -2   -1    0    0    0  501 -0.00000000000E+00 -0.00000000000E+00 -0.49387134476E+02  0.49387134542E+02  0.25500000000E-02 0. -1.
    5000001    1    1    2    0    0 -0.24948458341E+02 -0.18866669405E+03  0.76742490925E+03  0.80770262991E+03  0.16500000000E+03 0.  0.
   -5000001    1    1    2    0    0  0.24948458341E+02  0.18866669405E+03  0.51302771292E+03  0.57152426129E+03  0.16500000000E+03 0.  0.
<mgrwt>
<rscale>  0 0.51255039E+03</rscale>
<asrwt>0</asrwt>
<pdfrwt beam="1">  1        2 0.18997716E+00 0.51255039E+03</pdfrwt>
<pdfrwt beam="2">  1       -2 0.70553028E-02 0.51255039E+03</pdfrwt>
<totfact> 0.21937564E+03</totfact>
</mgrwt>
</event>
<event>
 4    1  0.5323640E-005  0.6534458E+03  0.7818608E-02  0.9800335E-01
          2   -1    0    0  501    0  0.00000000000E+00  0.00000000000E+00  0.19646114300E+02  0.19646114466E+02  0.25500000000E-02 0.  1.
         -2   -1    0    0    0  501 -0.00000000000E+00 -0.00000000000E+00 -0.54335357811E+04  0.54335357811E+04  0.25500000000E-02 0. -1.
    5000001    1    1    2    0    0  0.22289010984E+03  0.14459840328E+03 -0.19181439259E+04  0.19434736478E+04  0.16500000000E+03 0.  0.
   -5000001    1    1    2    0    0 -0.22289010984E+03 -0.14459840328E+03 -0.34957457410E+04  0.35097082478E+04  0.16500000000E+03 0.  0.
<mgrwt>
<rscale>  0 0.65344584E+03</rscale>
<asrwt>0</asrwt>
<pdfrwt beam="1">  1        2 0.28065912E-02 0.65344584E+03</pdfrwt>
<pdfrwt beam="2">  1       -2 0.77621844E+00 0.65344584E+03</pdfrwt>
<totfact> 0.45235649E-01</totfact>
</mgrwt>
</event>
<event>
 4    1  0.5323640E-005  0.7997727E+03  0.7818608E-02  0.9560346E-01
          2   -1    0    0  501    0  0.00000000000E+00  0.00000000000E+00  0.24196599687E+04  0.24196599687E+04  0.25500000000E-02 0.  1.
         -2   -1    0    0    0  501 -0.00000000000E+00 -0.00000000000E+00 -0.66087417702E+02  0.66087417751E+02  0.25500000000E-02 0. -1.
    5000001    1    1    2    0    0  0.30669890566E+02 -0.35262742005E+03  0.90946827028E+03  0.98976980869E+03  0.16500000000E+03 0.  0.
   -5000001    1    1    2    0    0 -0.30669890566E+02  0.35262742005E+03  0.14441042807E+04  0.14959775778E+04  0.16500000000E+03 0.  0.
<mgrwt>
<rscale>  0 0.79977267E+03</rscale>
<asrwt>0</asrwt>
<pdfrwt beam="1">  1        2 0.34566569E+00 0.79977267E+03</pdfrwt>
<pdfrwt beam="2">  1       -2 0.94410603E-02 0.79977267E+03</pdfrwt>
<totfact> 0.37583513E+02</totfact>
</mgrwt>
</event>
<event>
 4    1  0.5323640E-005  0.4214665E+03  0.7818608E-02  0.1036590E+00
          2   -1    0    0  501    0  0.00000000000E+00  0.00000000000E+00  0.23097312545E+04  0.23097312545E+04  0.25500000000E-02 0.  1.
         -2   -1    0    0    0  501 -0.00000000000E+00 -0.00000000000E+00 -0.19226693209E+02  0.19226693378E+02  0.25500000000E-02 0. -1.
    5000001    1    1    2    0    0 -0.33681718283E+02 -0.89687121080E+01  0.18435361776E+04  0.18512335169E+04  0.16500000000E+03 0.  0.
   -5000001    1    1    2    0    0  0.33681718283E+02  0.89687121080E+01  0.44696838370E+03  0.47772443100E+03  0.16500000000E+03 0.  0.
<mgrwt>
<rscale>  0 0.42146646E+03</rscale>
<asrwt>0</asrwt>
<pdfrwt beam="1">  1        2 0.32996123E+00 0.42146646E+03</pdfrwt>
<pdfrwt beam="2">  1       -2 0.27466736E-02 0.42146646E+03</pdfrwt>
<totfact> 0.29896051E+03</totfact>
</mgrwt>
</event>
<event>
 4    1  0.5323640E-005  0.5634057E+03  0.7818608E-02  0.9984378E-01
          2   -1    0    0  501    0  0.00000000000E+00  0.00000000000E+00  0.14326709013E+04  0.14326709013E+04  0.25500000000E-02 0.  1.
         -2   -1    0    0    0  501 -0.00000000000E+00 -0.00000000000E+00 -0.55390603347E+02  0.55390603406E+02  0.25500000000E-02 0. -1.
    5000001    1    1    2    0    0  0.17242546533E+03 -0.11948612002E+03  0.92669959718E+03  0.96436747010E+03  0.16500000000E+03 0.  0.
   -5000001    1    1    2    0    0 -0.17242546533E+03  0.11948612002E+03  0.45058070074E+03  0.52369403458E+03  0.16500000000E+03 0.  0.
<mgrwt>
<rscale>  0 0.56340574E+03</rscale>
<asrwt>0</asrwt>
<pdfrwt beam="1">  1        2 0.20466725E+00 0.56340574E+03</pdfrwt>
<pdfrwt beam="2">  1       -2 0.79129441E-02 0.56340574E+03</pdfrwt>
<totfact> 0.16113970E+03</totfact>
</mgrwt>
</event>
<event>
 4    1  0.5323640E-005  0.4435515E+03  0.7818608E-02  0.1029663E+00
         -2   -1    0    0    0  501 -0.00000000000E+00  0.00000000000E+00  0.33213605384E+02  0.33213605482E+02  0.25500000000E-02 0. -1.
          2   -1    0    0  501    0  0.00000000000E+00 -0.00000000000E+00 -0.14808532026E+04  0.14808532026E+04  0.25500000000E-02 0.  1.
    5000001    1    1    2    0    0 -0.14661800623E+03  0.96403387915E+01 -0.65818643909E+03  0.69427960108E+03  0.16500000000E+03 0.  0.
   -5000001    1    1    2    0    0  0.14661800623E+03 -0.96403387915E+01 -0.78945315814E+03  0.81978720701E+03  0.16500000000E+03 0.  0.
<mgrwt>
<rscale>  0 0.44355146E+03</rscale>
<asrwt>0</asrwt>
<pdfrwt beam="1">  1        2 0.21155042E+00 0.44355146E+03</pdfrwt>
<pdfrwt beam="2">  1       -2 0.47448017E-02 0.44355146E+03</pdfrwt>
<totfact> 0.33881981E+03</totfact>
</mgrwt>
</event>
<event>
 4    1  0.5323640E-005  0.5858930E+03  0.7818608E-02  0.9935114E-01
         -2   -1    0    0    0  501 -0.00000000000E+00  0.00000000000E+00  0.64537567273E+02  0.64537567324E+02  0.25500000000E-02 0. -1.
          2   -1    0    0  501    0  0.00000000000E+00 -0.00000000000E+00 -0.13297318292E+04  0.13297318292E+04  0.25500000000E-02 0.  1.
    5000001    1    1    2    0    0  0.65546401258E+02 -0.23266652371E+03 -0.60225058495E+03  0.66959749779E+03  0.16500000000E+03 0.  0.
   -5000001    1    1    2    0    0 -0.65546401258E+02  0.23266652371E+03 -0.66294367693E+03  0.72467189869E+03  0.16500000000E+03 0.  0.
<mgrwt>
<rscale>  0 0.58589302E+03</rscale>
<asrwt>0</asrwt>
<pdfrwt beam="1">  1        2 0.18996167E+00 0.58589302E+03</pdfrwt>
<pdfrwt beam="2">  1       -2 0.92196533E-02 0.58589302E+03</pdfrwt>
<totfact> 0.14307000E+03</totfact>
</mgrwt>
</event>
<event>
 4    1  0.5323640E-005  0.3980335E+03  0.7818608E-02  0.1044463E+00
         -2   -1    0    0    0  501 -0.00000000000E+00  0.00000000000E+00  0.55630999385E+02  0.55630999443E+02  0.25500000000E-02 0. -1.
          2   -1    0    0  501    0  0.00000000000E+00 -0.00000000000E+00 -0.71197107162E+03  0.71197107163E+03  0.25500000000E-02 0.  1.
    5000001    1    1    2    0    0  0.25607554116E+02  0.69400309448E+02 -0.16785595678E+03  0.24672408072E+03  0.16500000000E+03 0.  0.
   -5000001    1    1    2    0    0 -0.25607554116E+02 -0.69400309448E+02 -0.48848411546E+03  0.52087799036E+03  0.16500000000E+03 0.  0.
<mgrwt>
<rscale>  0 0.39803348E+03</rscale>
<asrwt>0</asrwt>
<pdfrwt beam="1">  1        2 0.10171015E+00 0.39803348E+03</pdfrwt>
<pdfrwt beam="2">  1       -2 0.79472860E-02 0.39803348E+03</pdfrwt>
<totfact> 0.43247931E+03</totfact>
</mgrwt>
</event>
<event>
 4    1  0.5323640E-005  0.3906812E+03  0.7818608E-02  0.1047055E+00
         -2   -1    0    0    0  501 -0.00000000000E+00  0.00000000000E+00  0.42675092699E+02  0.42675092775E+02  0.25500000000E-02 0. -1.
          2   -1    0    0  501    0  0.00000000000E+00 -0.00000000000E+00 -0.89415028327E+03  0.89415028327E+03  0.25500000000E-02 0.  1.
    5000001    1    1    2    0    0 -0.86918406033E+02 -0.42904311829E+02 -0.51975830317E+03  0.55386756810E+03  0.16500000000E+03 0.  0.
   -5000001    1    1    2    0    0  0.86918406033E+02  0.42904311829E+02 -0.33171688740E+03  0.38295780795E+03  0.16500000000E+03 0.  0.
<mgrwt>
<rscale>  0 0.39068118E+03</rscale>
<asrwt>0</asrwt>
<pdfrwt beam="1">  1        2 0.12773574E+00 0.39068118E+03</pdfrwt>
<pdfrwt beam="2">  1       -2 0.60964424E-02 0.39068118E+03</pdfrwt>
<totfact> 0.49135553E+03</totfact>
</mgrwt>
</event>
<event>
 4    1  0.5323640E-005  0.3615225E+03  0.7818608E-02  0.1057983E+00
          2   -1    0    0  501    0  0.00000000000E+00  0.00000000000E+00  0.51120219563E+03  0.51120219564E+03  0.25500000000E-02 0.  1.
         -2   -1    0    0    0  501 -0.00000000000E+00 -0.00000000000E+00 -0.63917223091E+02  0.63917223142E+02  0.25500000000E-02 0. -1.
    5000001    1    1    2    0    0 -0.68365823285E+02 -0.72393742140E+01  0.26642744430E+03  0.32083465743E+03  0.16500000000E+03 0.  0.
   -5000001    1    1    2    0    0  0.68365823285E+02  0.72393742140E+01  0.18085752824E+03  0.25428476134E+03  0.16500000000E+03 0.  0.
<mgrwt>
<rscale>  0 0.36152247E+03</rscale>
<asrwt>0</asrwt>
<pdfrwt beam="1">  1        2 0.73028887E-01 0.36152247E+03</pdfrwt>
<pdfrwt beam="2">  1       -2 0.91310317E-02 0.36152247E+03</pdfrwt>
<totfact> 0.50894916E+03</totfact>
</mgrwt>
</event>
<event>
 4    1  0.5323640E-005  0.6021854E+03  0.7818608E-02  0.9900882E-01
         -2   -1    0    0    0  501 -0.00000000000E+00  0.00000000000E+00  0.18956547038E+02  0.18956547210E+02  0.25500000000E-02 0. -1.
          2   -1    0    0  501    0  0.00000000000E+00 -0.00000000000E+00 -0.47823476726E+04  0.47823476726E+04  0.25500000000E-02 0.  1.
    5000001    1    1    2    0    0  0.17255463641E+03  0.17997185486E+03 -0.20979115968E+04  0.21191090201E+04  0.16500000000E+03 0.  0.
   -5000001    1    1    2    0    0 -0.17255463641E+03 -0.17997185486E+03 -0.26654795288E+04  0.26821951997E+04  0.16500000000E+03 0.  0.
<mgrwt>
<rscale>  0 0.60218535E+03</rscale>
<asrwt>0</asrwt>
<pdfrwt beam="1">  1        2 0.68319175E+00 0.60218535E+03</pdfrwt>
<pdfrwt beam="2">  1       -2 0.27080812E-02 0.60218535E+03</pdfrwt>
<totfact> 0.86217239E+01</totfact>
</mgrwt>
</event>
<event>
 4    1  0.5323640E-005  0.5149485E+03  0.7818608E-02  0.1009949E+00
         -2   -1    0    0    0  501 -0.00000000000E+00  0.00000000000E+00  0.41669219035E+02  0.41669219113E+02  0.25500000000E-02 0. -1.
          2   -1    0    0  501    0  0.00000000000E+00 -0.00000000000E+00 -0.15909341270E+04  0.15909341270E+04  0.25500000000E-02 0.  1.
    5000001    1    1    2    0    0  0.88816482246E+02 -0.15773248271E+03 -0.10262783814E+04  0.10551019950E+04  0.16500000000E+03 0.  0.
   -5000001    1    1    2    0    0 -0.88816482246E+02  0.15773248271E+03 -0.52298652648E+03  0.57750135108E+03  0.16500000000E+03 0.  0.
<mgrwt>
<rscale>  0 0.51494847E+03</rscale>
<asrwt>0</asrwt>
<pdfrwt beam="1">  1        2 0.22727627E+00 0.51494847E+03</pdfrwt>
<pdfrwt beam="2">  1       -2 0.59527466E-02 0.51494847E+03</pdfrwt>
<totfact> 0.20912701E+03</totfact>
</mgrwt>
</event>
<event>
 4    1  0.5323640E-005  0.5587992E+03  0.7818608E-02  0.9994775E-01
         -2   -1    0    0    0  501 -0.00000000000E+00  0.00000000000E+00  0.89458976210E+02  0.89458976246E+02  0.25500000000E-02 0. -1.
          2   -1    0    0  501    0  0.00000000000E+00 -0.00000000000E+00 -0.87262494923E+03  0.87262494924E+03  0.25500000000E-02 0.  1.
    5000001    1    1    2    0    0 -0.63179473408E+02 -0.12964016513E+03 -0.68999326353E+03  0.72395712718E+03  0.16500000000E+03 0.  0.
   -5000001    1    1    2    0    0  0.63179473408E+02  0.12964016513E+03 -0.93172709492E+02  0.23812679830E+03  0.16500000000E+03 0.  0.
<mgrwt>
<rscale>  0 0.55879919E+03</rscale>
<asrwt>0</asrwt>
<pdfrwt beam="1">  1        2 0.12466070E+00 0.55879919E+03</pdfrwt>
<pdfrwt beam="2">  1       -2 0.12779854E-01 0.55879919E+03</pdfrwt>
<totfact> 0.15574850E+03</totfact>
</mgrwt>
</event>
<event>
 4    1  0.5323640E-005  0.6560124E+03  0.7818608E-02  0.9795562E-01
          2   -1    0    0  501    0  0.00000000000E+00  0.00000000000E+00  0.55590048439E+03  0.55590048440E+03  0.25500000000E-02 0.  1.
         -2   -1    0    0    0  501 -0.00000000000E+00 -0.00000000000E+00 -0.19353837338E+03  0.19353837340E+03  0.25500000000E-02 0. -1.
    5000001    1    1    2    0    0 -0.14124312408E+03 -0.12144852035E+03  0.42530464647E+03  0.49275592894E+03  0.16500000000E+03 0.  0.
   -5000001    1    1    2    0    0  0.14124312408E+03  0.12144852035E+03 -0.62942535458E+02  0.25668292886E+03  0.16500000000E+03 0.  0.
<mgrwt>
<rscale>  0 0.65601243E+03</rscale>
<asrwt>0</asrwt>
<pdfrwt beam="1">  1        2 0.79414357E-01 0.65601243E+03</pdfrwt>
<pdfrwt beam="2">  1       -2 0.27648338E-01 0.65601243E+03</pdfrwt>
<totfact> 0.71084805E+02</totfact>
</mgrwt>
</event>
<event>
 4    1  0.5323640E-005  0.4668112E+03  0.7818608E-02  0.1022824E+00
         -2   -1    0    0    0  501 -0.00000000000E+00  0.00000000000E+00  0.65132365465E+02  0.65132365515E+02  0.25500000000E-02 0. -1.
          2   -1    0    0  501    0  0.00000000000E+00 -0.00000000000E+00 -0.83642258042E+03  0.83642258042E+03  0.25500000000E-02 0.  1.
    5000001    1    1    2    0    0  0.85122552264E+02 -0.13189194226E+03 -0.28694335948E+03  0.36633703728E+03  0.16500000000E+03 0.  0.
   -5000001    1    1    2    0    0 -0.85122552264E+02  0.13189194226E+03 -0.48434685547E+03  0.53521790865E+03  0.16500000000E+03 0.  0.
<mgrwt>
<rscale>  0 0.46681123E+03</rscale>
<asrwt>0</asrwt>
<pdfrwt beam="1">  1        2 0.11948893E+00 0.46681123E+03</pdfrwt>
<pdfrwt beam="2">  1       -2 0.93046242E-02 0.46681123E+03</pdfrwt>
<totfact> 0.27582900E+03</totfact>
</mgrwt>
</event>
<event>
 4    1  0.5323640E-005  0.6203645E+03  0.7818608E-02  0.9864034E-01
          2   -1    0    0  501    0  0.00000000000E+00  0.00000000000E+00  0.14353672192E+03  0.14353672195E+03  0.25500000000E-02 0.  1.
         -2   -1    0    0    0  501 -0.00000000000E+00 -0.00000000000E+00 -0.67030257802E+03  0.67030257802E+03  0.25500000000E-02 0. -1.
    5000001    1    1    2    0    0  0.71566275842E+02 -0.24384678207E+03 -0.17631321435E+03  0.35056288240E+03  0.16500000000E+03 0.  0.
   -5000001    1    1    2    0    0 -0.71566275842E+02  0.24384678207E+03 -0.35045264175E+03  0.46327641757E+03  0.16500000000E+03 0.  0.
<mgrwt>
<rscale>  0 0.62036452E+03</rscale>
<asrwt>0</asrwt>
<pdfrwt beam="1">  1        2 0.20505246E-01 0.62036452E+03</pdfrwt>
<pdfrwt beam="2">  1       -2 0.95757510E-01 0.62036452E+03</pdfrwt>
<totfact> 0.25525693E+02</totfact>
</mgrwt>
</event>
<event>
 4    1  0.5323640E-005  0.1144106E+04  0.7818608E-02  0.9163239E-01
         -2   -1    0    0    0  501 -0.00000000000E+00  0.00000000000E+00  0.32794020682E+03  0.32794020683E+03  0.25500000000E-02 0. -1.
          2   -1    0    0  501    0  0.00000000000E+00 -0.00000000000E+00 -0.99787818256E+03  0.99787818256E+03  0.25500000000E-02 0.  1.
    5000001    1    1    2    0    0 -0.47533680401E+03 -0.74135060029E+02 -0.31502120161E+02  0.50956694157E+03  0.16500000000E+03 0.  0.
   -5000001    1    1    2    0    0  0.47533680401E+03  0.74135060029E+02 -0.63843585558E+03  0.81625144782E+03  0.16500000000E+03 0.  0.
<mgrwt>
<rscale>  0 0.11441056E+04</rscale>
<asrwt>0</asrwt>
<pdfrwt beam="1">  1        2 0.14255403E+00 0.11441056E+04</pdfrwt>
<pdfrwt beam="2">  1       -2 0.46848601E-01 0.11441056E+04</pdfrwt>
<totfact> 0.12043611E+02</totfact>
</mgrwt>
</event>
<event>
 4    1  0.5323640E-005  0.4528521E+03  0.7818608E-02  0.1026875E+00
         -2   -1    0    0    0  501 -0.00000000000E+00  0.00000000000E+00  0.86179815027E+03  0.86179815027E+03  0.25500000000E-02 0. -1.
          2   -1    0    0  501    0  0.00000000000E+00 -0.00000000000E+00 -0.59490441903E+02  0.59490441957E+02  0.25500000000E-02 0.  1.
    5000001    1    1    2    0    0 -0.76597615713E+02 -0.88390954331E+02  0.19404694583E+03  0.28028444967E+03  0.16500000000E+03 0.  0.
   -5000001    1    1    2    0    0  0.76597615713E+02  0.88390954331E+02  0.60826076253E+03  0.64100414256E+03  0.16500000000E+03 0.  0.
<mgrwt>
<rscale>  0 0.45285209E+03</rscale>
<asrwt>0</asrwt>
<pdfrwt beam="1">  1        2 0.84986337E-02 0.45285209E+03</pdfrwt>
<pdfrwt beam="2">  1       -2 0.12311403E+00 0.45285209E+03</pdfrwt>
<totfact> 0.41257931E+02</totfact>
</mgrwt>
</event>
<event>
 4    1  0.5323640E-005  0.1759291E+04  0.7818608E-02  0.8728253E-01
          2   -1    0    0  501    0  0.00000000000E+00  0.00000000000E+00  0.19162121673E+04  0.19162121673E+04  0.25500000000E-02 0.  1.
         -2   -1    0    0    0  501 -0.00000000000E+00 -0.00000000000E+00 -0.40380501287E+03  0.40380501288E+03  0.25500000000E-02 0. -1.
    5000001    1    1    2    0    0  0.29503599103E+03 -0.51448098160E+03 -0.72405939645E+02  0.61984234812E+03  0.16500000000E+03 0.  0.
   -5000001    1    1    2    0    0 -0.29503599103E+03  0.51448098160E+03  0.15848130941E+04  0.17001748321E+04  0.16500000000E+03 0.  0.
<mgrwt>
<rscale>  0 0.17592909E+04</rscale>
<asrwt>0</asrwt>
<pdfrwt beam="1">  1        2 0.27374458E+00 0.17592909E+04</pdfrwt>
<pdfrwt beam="2">  1       -2 0.57686433E-01 0.17592909E+04</pdfrwt>
<totfact> 0.23680322E+01</totfact>
</mgrwt>
</event>
<event>
 4    1  0.5323640E-005  0.7303375E+03  0.7818608E-02  0.9666713E-01
          2   -1    0    0  501    0  0.00000000000E+00  0.00000000000E+00  0.77511293528E+02  0.77511293570E+02  0.25500000000E-02 0.  1.
         -2   -1    0    0    0  501 -0.00000000000E+00 -0.00000000000E+00 -0.17203715674E+04  0.17203715674E+04  0.25500000000E-02 0. -1.
    5000001    1    1    2    0    0  0.20775226159E+03 -0.24957066214E+03 -0.75739203881E+03  0.84042502227E+03  0.16500000000E+03 0.  0.
   -5000001    1    1    2    0    0 -0.20775226159E+03  0.24957066214E+03 -0.88546823508E+03  0.95745783873E+03  0.16500000000E+03 0.  0.
<mgrwt>
<rscale>  0 0.73033753E+03</rscale>
<asrwt>0</asrwt>
<pdfrwt beam="1">  1        2 0.11073043E-01 0.73033753E+03</pdfrwt>
<pdfrwt beam="2">  1       -2 0.24576734E+00 0.73033753E+03</pdfrwt>
<totfact> 0.41006454E+01</totfact>
</mgrwt>
</event>
<event>
 4    1  0.5323640E-005  0.5758923E+03  0.7818608E-02  0.9956724E-01
         -2   -1    0    0    0  501 -0.00000000000E+00  0.00000000000E+00  0.58189071474E+03  0.58189071474E+03  0.25500000000E-02 0. -1.
          2   -1    0    0  501    0  0.00000000000E+00 -0.00000000000E+00 -0.14248895228E+03  0.14248895230E+03  0.25500000000E-02 0.  1.
    5000001    1    1    2    0    0  0.20071325844E+03 -0.11900630802E+03  0.17541343995E+03  0.33532549616E+03  0.16500000000E+03 0.  0.
   -5000001    1    1    2    0    0 -0.20071325844E+03  0.11900630802E+03  0.26398832251E+03  0.38905417088E+03  0.16500000000E+03 0.  0.
<mgrwt>
<rscale>  0 0.57589235E+03</rscale>
<asrwt>0</asrwt>
<pdfrwt beam="1">  1        2 0.20355565E-01 0.57589235E+03</pdfrwt>
<pdfrwt beam="2">  1       -2 0.83127245E-01 0.57589235E+03</pdfrwt>
<totfact> 0.35642296E+02</totfact>
</mgrwt>
</event>
<event>
 4    1  0.5323640E-005  0.4176827E+03  0.7818608E-02  0.1037823E+00
          2   -1    0    0  501    0  0.00000000000E+00  0.00000000000E+00  0.23863713443E+03  0.23863713445E+03  0.25500000000E-02 0.  1.
         -2   -1    0    0    0  501 -0.00000000000E+00 -0.00000000000E+00 -0.18276578544E+03  0.18276578546E+03  0.25500000000E-02 0. -1.
    5000001    1    1    2    0    0 -0.48546495674E+02 -0.11753692680E+03  0.13038935895E+02  0.20872638849E+03  0.16500000000E+03 0.  0.
   -5000001    1    1    2    0    0  0.48546495674E+02  0.11753692680E+03  0.42832413093E+02  0.21267653142E+03  0.16500000000E+03 0.  0.
<mgrwt>
<rscale>  0 0.41768267E+03</rscale>
<asrwt>0</asrwt>
<pdfrwt beam="1">  1        2 0.34091019E-01 0.41768267E+03</pdfrwt>
<pdfrwt beam="2">  1       -2 0.26109398E-01 0.41768267E+03</pdfrwt>
<totfact> 0.20188334E+03</totfact>
</mgrwt>
</event>
<event>
 4    1  0.5323640E-005  0.5071979E+03  0.7818608E-02  0.1011917E+00
         -2   -1    0    0    0  501 -0.00000000000E+00  0.00000000000E+00  0.44118283303E+03  0.44118283304E+03  0.25500000000E-02 0. -1.
          2   -1    0    0  501    0  0.00000000000E+00 -0.00000000000E+00 -0.14577273162E+03  0.14577273164E+03  0.25500000000E-02 0.  1.
    5000001    1    1    2    0    0  0.17241350561E+03  0.84054659249E+02  0.12780085977E+03  0.28346016020E+03  0.16500000000E+03 0.  0.
   -5000001    1    1    2    0    0 -0.17241350561E+03 -0.84054659249E+02  0.16760924164E+03  0.30349540448E+03  0.16500000000E+03 0.  0.
<mgrwt>
<rscale>  0 0.50719790E+03</rscale>
<asrwt>0</asrwt>
<pdfrwt beam="1">  1        2 0.20824676E-01 0.50719790E+03</pdfrwt>
<pdfrwt beam="2">  1       -2 0.63026119E-01 0.50719790E+03</pdfrwt>
<totfact> 0.63626529E+02</totfact>
</mgrwt>
</event>
<event>
 4    1  0.5323640E-005  0.9205349E+03  0.7818608E-02  0.9400270E-01
          2   -1    0    0  501    0  0.00000000000E+00  0.00000000000E+00  0.43912287216E+03  0.43912287217E+03  0.25500000000E-02 0.  1.
         -2   -1    0    0    0  501 -0.00000000000E+00 -0.00000000000E+00 -0.48243019968E+03  0.48243019968E+03  0.25500000000E-02 0. -1.
    5000001    1    1    2    0    0 -0.29487844093E+03 -0.21456326052E+03 -0.24912832475E+03  0.47146644619E+03  0.16500000000E+03 0.  0.
   -5000001    1    1    2    0    0  0.29487844093E+03  0.21456326052E+03  0.20582099723E+03  0.45008662566E+03  0.16500000000E+03 0.  0.
<mgrwt>
<rscale>  0 0.92053492E+03</rscale>
<asrwt>0</asrwt>
<pdfrwt beam="1">  1        2 0.62731839E-01 0.92053492E+03</pdfrwt>
<pdfrwt beam="2">  1       -2 0.68918600E-01 0.92053492E+03</pdfrwt>
<totfact> 0.15017155E+02</totfact>
</mgrwt>
</event>
<event>
 4    1  0.5323640E-005  0.7275474E+03  0.7818608E-02  0.9671249E-01
         -2   -1    0    0    0  501 -0.00000000000E+00  0.00000000000E+00  0.69982238627E+02  0.69982238674E+02  0.25500000000E-02 0. -1.
          2   -1    0    0  501    0  0.00000000000E+00 -0.00000000000E+00 -0.18909270499E+04  0.18909270499E+04  0.25500000000E-02 0.  1.
    5000001    1    1    2    0    0 -0.31570989907E+03 -0.50330275657E+02 -0.10556258946E+04  0.11152474642E+04  0.16500000000E+03 0.  0.
   -5000001    1    1    2    0    0  0.31570989907E+03  0.50330275657E+02 -0.76531891665E+03  0.84566182437E+03  0.16500000000E+03 0.  0.
<mgrwt>
<rscale>  0 0.72754741E+03</rscale>
<asrwt>0</asrwt>
<pdfrwt beam="1">  1        2 0.27013240E+00 0.72754741E+03</pdfrwt>
<pdfrwt beam="2">  1       -2 0.99974638E-02 0.72754741E+03</pdfrwt>
<totfact> 0.63886536E+02</totfact>
</mgrwt>
</event>
<event>
 4    1  0.5323640E-005  0.5330666E+03  0.7818608E-02  0.1005491E+00
          2   -1    0    0  501    0  0.00000000000E+00  0.00000000000E+00  0.48123424381E+03  0.48123424382E+03  0.25500000000E-02 0.  1.
         -2   -1    0    0    0  501 -0.00000000000E+00 -0.00000000000E+00 -0.14762044197E+03  0.14762044199E+03  0.25500000000E-02 0. -1.
    5000001    1    1    2    0    0 -0.14149570050E+03  0.95263340691E+02  0.30992880106E+03  0.39035496547E+03  0.16500000000E+03 0.  0.
   -5000001    1    1    2    0    0  0.14149570050E+03 -0.95263340691E+02  0.23685000791E+02  0.23849972034E+03  0.16500000000E+03 0.  0.
<mgrwt>
<rscale>  0 0.53306664E+03</rscale>
<asrwt>0</asrwt>
<pdfrwt beam="1">  1        2 0.68747749E-01 0.53306664E+03</pdfrwt>
<pdfrwt beam="2">  1       -2 0.21088635E-01 0.53306664E+03</pdfrwt>
<totfact> 0.13619878E+03</totfact>
</mgrwt>
</event>
<event>
 4    1  0.5323640E-005  0.4148908E+03  0.7818608E-02  0.1038742E+00
          2   -1    0    0  501    0  0.00000000000E+00  0.00000000000E+00  0.10741324882E+04  0.10741324882E+04  0.25500000000E-02 0.  1.
         -2   -1    0    0    0  501 -0.00000000000E+00 -0.00000000000E+00 -0.40063584582E+02  0.40063584664E+02  0.25500000000E-02 0. -1.
    5000001    1    1    2    0    0 -0.11867861390E+03  0.39949532931E+02  0.48664901654E+03  0.52889776316E+03  0.16500000000E+03 0.  0.
   -5000001    1    1    2    0    0  0.11867861390E+03 -0.39949532931E+02  0.54741988711E+03  0.58529830974E+03  0.16500000000E+03 0.  0.
<mgrwt>
<rscale>  0 0.41489082E+03</rscale>
<asrwt>0</asrwt>
<pdfrwt beam="1">  1        2 0.15344753E+00 0.41489082E+03</pdfrwt>
<pdfrwt beam="2">  1       -2 0.57233682E-02 0.41489082E+03</pdfrwt>
<totfact> 0.42180559E+03</totfact>
</mgrwt>
</event>
<event>
 4    1  0.5323640E-005  0.5446064E+03  0.7818608E-02  0.1002750E+00
         -2   -1    0    0    0  501 -0.00000000000E+00  0.00000000000E+00  0.11045871886E+03  0.11045871889E+03  0.25500000000E-02 0. -1.
          2   -1    0    0  501    0  0.00000000000E+00 -0.00000000000E+00 -0.67128286307E+03  0.67128286307E+03  0.25500000000E-02 0.  1.
    5000001    1    1    2    0    0 -0.11257198856E+03  0.18238279793E+03 -0.23529067607E+03  0.35850054370E+03  0.16500000000E+03 0.  0.
   -5000001    1    1    2    0    0  0.11257198856E+03 -0.18238279793E+03 -0.32553346814E+03  0.42324103826E+03  0.16500000000E+03 0.  0.
<mgrwt>
<rscale>  0 0.54460645E+03</rscale>
<asrwt>0</asrwt>
<pdfrwt beam="1">  1        2 0.95897550E-01 0.54460645E+03</pdfrwt>
<pdfrwt beam="2">  1       -2 0.15779817E-01 0.54460645E+03</pdfrwt>
<totfact> 0.15227219E+03</totfact>
</mgrwt>
</event>
<event>
 4    1  0.5323640E-005  0.1004609E+04  0.7818608E-02  0.9303504E-01
          2   -1    0    0  501    0  0.00000000000E+00  0.00000000000E+00  0.15251024390E+04  0.15251024390E+04  0.25500000000E-02 0.  1.
         -2   -1    0    0    0  501 -0.00000000000E+00 -0.00000000000E+00 -0.16543806200E+03  0.16543806202E+03  0.25500000000E-02 0. -1.
    5000001    1    1    2    0    0 -0.42293228822E+03  0.12921304505E+03  0.39072001213E+03  0.61274371421E+03  0.16500000000E+03 0.  0.
   -5000001    1    1    2    0    0  0.42293228822E+03 -0.12921304505E+03  0.96894436489E+03  0.10777967868E+04  0.16500000000E+03 0.  0.
<mgrwt>
<rscale>  0 0.10046094E+04</rscale>
<asrwt>0</asrwt>
<pdfrwt beam="1">  1        2 0.21787178E+00 0.10046094E+04</pdfrwt>
<pdfrwt beam="2">  1       -2 0.23634009E-01 0.10046094E+04</pdfrwt>
<totfact> 0.22418080E+02</totfact>
</mgrwt>
</event>
<event>
 4    1  0.5323640E-005  0.4189731E+03  0.7818608E-02  0.1037401E+00
          2   -1    0    0  501    0  0.00000000000E+00  0.00000000000E+00  0.13681975217E+04  0.13681975217E+04  0.25500000000E-02 0.  1.
         -2   -1    0    0    0  501 -0.00000000000E+00 -0.00000000000E+00 -0.32074761544E+02  0.32074761646E+02  0.25500000000E-02 0. -1.
    5000001    1    1    2    0    0 -0.46700158035E+02  0.80027659002E+02  0.96837721867E+03  0.98669385759E+03  0.16500000000E+03 0.  0.
   -5000001    1    1    2    0    0  0.46700158035E+02 -0.80027659002E+02  0.36774554144E+03  0.41357842571E+03  0.16500000000E+03 0.  0.
<mgrwt>
<rscale>  0 0.41897307E+03</rscale>
<asrwt>0</asrwt>
<pdfrwt beam="1">  1        2 0.19545685E+00 0.41897307E+03</pdfrwt>
<pdfrwt beam="2">  1       -2 0.45821073E-02 0.41897307E+03</pdfrwt>
<totfact> 0.40924988E+03</totfact>
</mgrwt>
</event>
<event>
 4    1  0.5323640E-005  0.4786695E+03  0.7818608E-02  0.1019501E+00
          2   -1    0    0  501    0  0.00000000000E+00  0.00000000000E+00  0.10584397391E+04  0.10584397391E+04  0.25500000000E-02 0.  1.
         -2   -1    0    0    0  501 -0.00000000000E+00 -0.00000000000E+00 -0.54118463493E+02  0.54118463553E+02  0.25500000000E-02 0. -1.
    5000001    1    1    2    0    0  0.15923696602E+03 -0.96054475451E+01  0.65992814593E+03  0.69869795603E+03  0.16500000000E+03 0.  0.
   -5000001    1    1    2    0    0 -0.15923696602E+03  0.96054475451E+01  0.34439312967E+03  0.41386024662E+03  0.16500000000E+03 0.  0.
<mgrwt>
<rscale>  0 0.47866954E+03</rscale>
<asrwt>0</asrwt>
<pdfrwt beam="1">  1        2 0.15120569E+00 0.47866954E+03</pdfrwt>
<pdfrwt beam="2">  1       -2 0.77312087E-02 0.47866954E+03</pdfrwt>
<totfact> 0.26932806E+03</totfact>
</mgrwt>
</event>
<event>
 4    1  0.5323640E-005  0.6382621E+03  0.7818608E-02  0.9829057E-01
         -2   -1    0    0    0  501 -0.00000000000E+00  0.00000000000E+00  0.19306947268E+03  0.19306947269E+03  0.25500000000E-02 0. -1.
          2   -1    0    0  501    0  0.00000000000E+00 -0.00000000000E+00 -0.52750252556E+03  0.52750252557E+03  0.25500000000E-02 0.  1.
    5000001    1    1    2    0    0 -0.21352819422E+03 -0.20267120532E+01  0.25108707715E+02  0.27102369729E+03  0.16500000000E+03 0.  0.
   -5000001    1    1    2    0    0  0.21352819422E+03  0.20267120532E+01 -0.35954176060E+03  0.44954830097E+03  0.16500000000E+03 0.  0.
<mgrwt>
<rscale>  0 0.63826212E+03</rscale>
<asrwt>0</asrwt>
<pdfrwt beam="1">  1        2 0.75357503E-01 0.63826212E+03</pdfrwt>
<pdfrwt beam="2">  1       -2 0.27581353E-01 0.63826212E+03</pdfrwt>
<totfact> 0.75887678E+02</totfact>
</mgrwt>
</event>
<event>
 4    1  0.5323640E-005  0.3817372E+03  0.7818608E-02  0.1050294E+00
         -2   -1    0    0    0  501 -0.00000000000E+00  0.00000000000E+00  0.10410734041E+02  0.10410734354E+02  0.25500000000E-02 0. -1.
          2   -1    0    0  501    0  0.00000000000E+00 -0.00000000000E+00 -0.34993515218E+04  0.34993515218E+04  0.25500000000E-02 0.  1.
    5000001    1    1    2    0    0 -0.93650305057E+02 -0.22666272202E+01 -0.15537489262E+04  0.15652911048E+04  0.16500000000E+03 0.  0.
   -5000001    1    1    2    0    0  0.93650305057E+02  0.22666272202E+01 -0.19351918616E+04  0.19444711514E+04  0.16500000000E+03 0.  0.
<mgrwt>
<rscale>  0 0.38173718E+03</rscale>
<asrwt>0</asrwt>
<pdfrwt beam="1">  1        2 0.49990661E+00 0.38173718E+03</pdfrwt>
<pdfrwt beam="2">  1       -2 0.14872500E-02 0.38173718E+03</pdfrwt>
<totfact> 0.17305849E+03</totfact>
</mgrwt>
</event>
<event>
 4    1  0.5323640E-005  0.5819931E+03  0.7818608E-02  0.9943485E-01
          2   -1    0    0  501    0  0.00000000000E+00  0.00000000000E+00  0.18457578464E+04  0.18457578464E+04  0.25500000000E-02 0.  1.
         -2   -1    0    0    0  501 -0.00000000000E+00 -0.00000000000E+00 -0.45877624107E+02  0.45877624178E+02  0.25500000000E-02 0. -1.
    5000001    1    1    2    0    0  0.13382717101E+03 -0.71331607717E+02  0.29661342853E+03  0.37175588219E+03  0.16500000000E+03 0.  0.
   -5000001    1    1    2    0    0 -0.13382717101E+03  0.71331607717E+02  0.15032667938E+04  0.15198795884E+04  0.16500000000E+03 0.  0.
<mgrwt>
<rscale>  0 0.58199307E+03</rscale>
<asrwt>0</asrwt>
<pdfrwt beam="1">  1        2 0.26367974E+00 0.58199307E+03</pdfrwt>
<pdfrwt beam="2">  1       -2 0.65539452E-02 0.58199307E+03</pdfrwt>
<totfact> 0.13328173E+03</totfact>
</mgrwt>
</event>
<event>
 4    1  0.5323640E-005  0.7204056E+03  0.7818608E-02  0.9682958E-01
         -2   -1    0    0    0  501 -0.00000000000E+00  0.00000000000E+00  0.23784980930E+03  0.23784980931E+03  0.25500000000E-02 0. -1.
          2   -1    0    0  501    0  0.00000000000E+00 -0.00000000000E+00 -0.54549574957E+03  0.54549574957E+03  0.25500000000E-02 0.  1.
    5000001    1    1    2    0    0 -0.26472156304E+03  0.12343878213E+03 -0.11189458433E+02  0.33565583989E+03  0.16500000000E+03 0.  0.
   -5000001    1    1    2    0    0  0.26472156304E+03 -0.12343878213E+03 -0.29645648184E+03  0.44768971899E+03  0.16500000000E+03 0.  0.
<mgrwt>
<rscale>  0 0.72040561E+03</rscale>
<asrwt>0</asrwt>
<pdfrwt beam="1">  1        2 0.77927964E-01 0.72040561E+03</pdfrwt>
<pdfrwt beam="2">  1       -2 0.33978544E-01 0.72040561E+03</pdfrwt>
<totfact> 0.49458070E+02</totfact>
</mgrwt>
</event>
<event>
 4    1  0.5323640E-005  0.1387647E+04  0.7818608E-02  0.8962809E-01
          2   -1    0    0  501    0  0.00000000000E+00  0.00000000000E+00  0.26762867444E+04  0.26762867444E+04  0.25500000000E-02 0. -1.
         -2   -1    0    0    0  501 -0.00000000000E+00 -0.00000000000E+00 -0.17987267664E+03  0.17987267666E+03  0.25500000000E-02 0.  1.
    5000001    1    1    2    0    0 -0.35358869450E+03 -0.57355968648E+03  0.12213560914E+04  0.14046107577E+04  0.16500000000E+03 0.  0.
   -5000001    1    1    2    0    0  0.35358869450E+03  0.57355968648E+03  0.12750579764E+04  0.14515486634E+04  0.16500000000E+03 0.  0.
<mgrwt>
<rscale>  0 0.13876467E+04</rscale>
<asrwt>0</asrwt>
<pdfrwt beam="1">  1        2 0.38232666E+00 0.13876467E+04</pdfrwt>
<pdfrwt beam="2">  1       -2 0.25696098E-01 0.13876467E+04</pdfrwt>
<totfact> 0.47421731E+01</totfact>
</mgrwt>
</event>
<event>
 4    1  0.5323640E-005  0.1142316E+04  0.7818608E-02  0.9164902E-01
          2   -1    0    0  501    0  0.00000000000E+00  0.00000000000E+00  0.27258184355E+03  0.27258184356E+03  0.25500000000E-02 0.  1.
         -2   -1    0    0    0  501 -0.00000000000E+00 -0.00000000000E+00 -0.11967836771E+04  0.11967836771E+04  0.25500000000E-02 0. -1.
    5000001    1    1    2    0    0 -0.49233197002E+03  0.99469772631E+02 -0.74010773643E+03  0.90954354810E+03  0.16500000000E+03 0.  0.
   -5000001    1    1    2    0    0  0.49233197002E+03 -0.99469772631E+02 -0.18409409714E+03  0.55982197257E+03  0.16500000000E+03 0.  0.
<mgrwt>
<rscale>  0 0.11423161E+04</rscale>
<asrwt>0</asrwt>
<pdfrwt beam="1">  1        2 0.38940264E-01 0.11423161E+04</pdfrwt>
<pdfrwt beam="2">  1       -2 0.17096909E+00 0.11423161E+04</pdfrwt>
<totfact> 0.27573754E+01</totfact>
</mgrwt>
</event>
<event>
 4    1  0.5323640E-005  0.9001751E+03  0.7818608E-02  0.9425363E-01
          2   -1    0    0  501    0  0.00000000000E+00  0.00000000000E+00  0.93466772145E+03  0.93466772146E+03  0.25500000000E-02 0.  1.
         -2   -1    0    0    0  501 -0.00000000000E+00 -0.00000000000E+00 -0.21673883626E+03  0.21673883627E+03  0.25500000000E-02 0. -1.
    5000001    1    1    2    0    0  0.32594859304E+03 -0.26156781891E+03  0.39265060775E+03  0.59670738973E+03  0.16500000000E+03 0.  0.
   -5000001    1    1    2    0    0 -0.32594859304E+03  0.26156781891E+03  0.32527827745E+03  0.55469916800E+03  0.16500000000E+03 0.  0.
<mgrwt>
<rscale>  0 0.90017508E+03</rscale>
<asrwt>0</asrwt>
<pdfrwt beam="1">  1        2 0.13352396E+00 0.90017508E+03</pdfrwt>
<pdfrwt beam="2">  1       -2 0.30962691E-01 0.90017508E+03</pdfrwt>
<totfact> 0.29835122E+02</totfact>
</mgrwt>
</event>
<event>
 4    1  0.5323640E-005  0.8165400E+03  0.7818608E-02  0.9536380E-01
         -2   -1    0    0    0  501 -0.00000000000E+00  0.00000000000E+00  0.26401979893E+03  0.26401979894E+03  0.25500000000E-02 0. -1.
          2   -1    0    0  501    0  0.00000000000E+00 -0.00000000000E+00 -0.63133295341E+03  0.63133295341E+03  0.25500000000E-02 0.  1.
    5000001    1    1    2    0    0  0.31804214300E+02  0.20836506865E+03  0.15437041594E+03  0.30900280775E+03  0.16500000000E+03 0.  0.
   -5000001    1    1    2    0    0 -0.31804214300E+02 -0.20836506865E+03 -0.52168357042E+03  0.58634994460E+03  0.16500000000E+03 0.  0.
<mgrwt>
<rscale>  0 0.81654002E+03</rscale>
<asrwt>0</asrwt>
<pdfrwt beam="1">  1        2 0.90190421E-01 0.81654002E+03</pdfrwt>
<pdfrwt beam="2">  1       -2 0.37717114E-01 0.81654002E+03</pdfrwt>
<totfact> 0.33992436E+02</totfact>
</mgrwt>
</event>
<event>
 4    1  0.5323640E-005  0.5475060E+03  0.7818608E-02  0.1002073E+00
         -2   -1    0    0    0  501 -0.00000000000E+00  0.00000000000E+00  0.38649018968E+02  0.38649019052E+02  0.25500000000E-02 0. -1.
          2   -1    0    0  501    0  0.00000000000E+00 -0.00000000000E+00 -0.19390064755E+04  0.19390064755E+04  0.25500000000E-02 0.  1.
    5000001    1    1    2    0    0 -0.17316552416E+03 -0.52906585140E+02 -0.50881571381E+03  0.56471571266E+03  0.16500000000E+03 0.  0.
   -5000001    1    1    2    0    0  0.17316552416E+03  0.52906585140E+02 -0.13915417427E+04  0.14129397818E+04  0.16500000000E+03 0.  0.
<mgrwt>
<rscale>  0 0.54750597E+03</rscale>
<asrwt>0</asrwt>
<pdfrwt beam="1">  1        2 0.27700086E+00 0.54750597E+03</pdfrwt>
<pdfrwt beam="2">  1       -2 0.55212897E-02 0.54750597E+03</pdfrwt>
<totfact> 0.15672126E+03</totfact>
</mgrwt>
</event>
<event>
 4    1  0.5323640E-005  0.4219811E+03  0.7818608E-02  0.1036423E+00
          2   -1    0    0  501    0  0.00000000000E+00  0.00000000000E+00  0.16234806951E+03  0.16234806953E+03  0.25500000000E-02 0.  1.
         -2   -1    0    0    0  501 -0.00000000000E+00 -0.00000000000E+00 -0.27420724760E+03  0.27420724762E+03  0.25500000000E-02 0. -1.
    5000001    1    1    2    0    0  0.65370506225E+02 -0.11015385545E+03 -0.25155925102E+02  0.21039247972E+03  0.16500000000E+03 0.  0.
   -5000001    1    1    2    0    0 -0.65370506225E+02  0.11015385545E+03 -0.86703252991E+02  0.22616283743E+03  0.16500000000E+03 0.  0.
<mgrwt>
<rscale>  0 0.42198112E+03</rscale>
<asrwt>0</asrwt>
<pdfrwt beam="1">  1        2 0.23192581E-01 0.42198112E+03</pdfrwt>
<pdfrwt beam="2">  1       -2 0.39172464E-01 0.42198112E+03</pdfrwt>
<totfact> 0.14649794E+03</totfact>
</mgrwt>
</event>
<event>
 4    1  0.5323640E-005  0.6795169E+03  0.7818608E-02  0.9752917E-01
         -2   -1    0    0    0  501 -0.00000000000E+00  0.00000000000E+00  0.42418961946E+03  0.42418961946E+03  0.25500000000E-02 0. -1.
          2   -1    0    0  501    0  0.00000000000E+00 -0.00000000000E+00 -0.27213256201E+03  0.27213256203E+03  0.25500000000E-02 0.  1.
    5000001    1    1    2    0    0 -0.25427816495E+03 -0.15210741570E+03  0.96948030318E+02  0.35272931784E+03  0.16500000000E+03 0.  0.
   -5000001    1    1    2    0    0  0.25427816495E+03  0.15210741570E+03  0.55109027123E+02  0.34359286365E+03  0.16500000000E+03 0.  0.
<mgrwt>
<rscale>  0 0.67951691E+03</rscale>
<asrwt>0</asrwt>
<pdfrwt beam="1">  1        2 0.38876081E-01 0.67951691E+03</pdfrwt>
<pdfrwt beam="2">  1       -2 0.60598516E-01 0.67951691E+03</pdfrwt>
<totfact> 0.34024921E+02</totfact>
</mgrwt>
</event>
<event>
 4    1  0.5323640E-005  0.1022449E+04  0.7818608E-02  0.9284260E-01
          2   -1    0    0  501    0  0.00000000000E+00  0.00000000000E+00  0.30022104687E+03  0.30022104688E+03  0.25500000000E-02 0.  1.
         -2   -1    0    0    0  501 -0.00000000000E+00 -0.00000000000E+00 -0.87052714246E+03  0.87052714246E+03  0.25500000000E-02 0. -1.
    5000001    1    1    2    0    0  0.44612673552E+03 -0.14807003282E+03 -0.41656772230E+03  0.64939007232E+03  0.16500000000E+03 0.  0.
   -5000001    1    1    2    0    0 -0.44612673552E+03  0.14807003282E+03 -0.15373837329E+03  0.52135811703E+03  0.16500000000E+03 0.  0.
<mgrwt>
<rscale>  0 0.10224492E+04</rscale>
<asrwt>0</asrwt>
<pdfrwt beam="1">  1        2 0.42888721E-01 0.10224492E+04</pdfrwt>
<pdfrwt beam="2">  1       -2 0.12436102E+00 0.10224492E+04</pdfrwt>
<totfact> 0.57718986E+01</totfact>
</mgrwt>
</event>
<event>
 4    1  0.5323640E-005  0.6688642E+03  0.7818608E-02  0.9772012E-01
          2   -1    0    0  501    0  0.00000000000E+00  0.00000000000E+00  0.21221828607E+03  0.21221828608E+03  0.25500000000E-02 0.  1.
         -2   -1    0    0    0  501 -0.00000000000E+00 -0.00000000000E+00 -0.52702736402E+03  0.52702736403E+03  0.25500000000E-02 0. -1.
    5000001    1    1    2    0    0  0.23641040991E+03 -0.14636136545E+03 -0.25188877564E+03  0.40985910568E+03  0.16500000000E+03 0.  0.
   -5000001    1    1    2    0    0 -0.23641040991E+03  0.14636136545E+03 -0.62920302307E+02  0.32938654443E+03  0.16500000000E+03 0.  0.
<mgrwt>
<rscale>  0 0.66886424E+03</rscale>
<asrwt>0</asrwt>
<pdfrwt beam="1">  1        2 0.30316898E-01 0.66886424E+03</pdfrwt>
<pdfrwt beam="2">  1       -2 0.75289623E-01 0.66886424E+03</pdfrwt>
<totfact> 0.28113456E+02</totfact>
</mgrwt>
</event>
<event>
 4    1  0.5323640E-005  0.8210141E+03  0.7818608E-02  0.9530088E-01
         -2   -1    0    0    0  501 -0.00000000000E+00  0.00000000000E+00  0.65636241462E+03  0.65636241463E+03  0.25500000000E-02 0. -1.
          2   -1    0    0  501    0  0.00000000000E+00 -0.00000000000E+00 -0.25674235527E+03  0.25674235528E+03  0.25500000000E-02 0.  1.
    5000001    1    1    2    0    0  0.35174406600E+03 -0.11555062772E+03  0.12760309201E+03  0.42495103792E+03  0.16500000000E+03 0.  0.
   -5000001    1    1    2    0    0 -0.35174406600E+03  0.11555062772E+03  0.27201696734E+03  0.48815373199E+03  0.16500000000E+03 0.  0.
<mgrwt>
<rscale>  0 0.82101409E+03</rscale>
<asrwt>0</asrwt>
<pdfrwt beam="1">  1        2 0.36677480E-01 0.82101409E+03</pdfrwt>
<pdfrwt beam="2">  1       -2 0.93766058E-01 0.82101409E+03</pdfrwt>
<totfact> 0.13726823E+02</totfact>
</mgrwt>
</event>
<event>
 4    1  0.5323640E-005  0.7062923E+03  0.7818608E-02  0.9706532E-01
         -2   -1    0    0    0  501 -0.00000000000E+00  0.00000000000E+00  0.82276455290E+02  0.82276455329E+02  0.25500000000E-02 0.  1.
          2   -1    0    0  501    0  0.00000000000E+00 -0.00000000000E+00 -0.15157703230E+04  0.15157703230E+04  0.25500000000E-02 0. -1.
    5000001    1    1    2    0    0  0.58647643710E+01  0.30719295030E+03 -0.59107043828E+03  0.68628796229E+03  0.16500000000E+03 0.  0.
   -5000001    1    1    2    0    0 -0.58647643710E+01 -0.30719295030E+03 -0.84242342938E+03  0.91175881599E+03  0.16500000000E+03 0.  0.
<mgrwt>
<rscale>  0 0.70629232E+03</rscale>
<asrwt>0</asrwt>
<pdfrwt beam="1">  1        2 0.21653860E+00 0.70629232E+03</pdfrwt>
<pdfrwt beam="2">  1       -2 0.11753780E-01 0.70629232E+03</pdfrwt>
<totfact> 0.76404304E+02</totfact>
</mgrwt>
</event>
<event>
 4    1  0.5323640E-005  0.6555349E+03  0.7818608E-02  0.9796448E-01
         -2   -1    0    0    0  501 -0.00000000000E+00  0.00000000000E+00  0.19783144491E+03  0.19783144492E+03  0.25500000000E-02 0. -1.
          2   -1    0    0  501    0  0.00000000000E+00 -0.00000000000E+00 -0.54304558072E+03  0.54304558072E+03  0.25500000000E-02 0.  1.
    5000001    1    1    2    0    0  0.16246397854E+03  0.20594131493E+03 -0.51935463989E+02  0.31421117411E+03  0.16500000000E+03 0.  0.
   -5000001    1    1    2    0    0 -0.16246397854E+03 -0.20594131493E+03 -0.29327867182E+03  0.42666585153E+03  0.16500000000E+03 0.  0.
<mgrwt>
<rscale>  0 0.65553487E+03</rscale>
<asrwt>0</asrwt>
<pdfrwt beam="1">  1        2 0.77577940E-01 0.65553487E+03</pdfrwt>
<pdfrwt beam="2">  1       -2 0.28261635E-01 0.65553487E+03</pdfrwt>
<totfact> 0.70165877E+02</totfact>
</mgrwt>
</event>
<event>
 4    1  0.5323640E-005  0.6563610E+03  0.7818608E-02  0.9794916E-01
          2   -1    0    0  501    0  0.00000000000E+00  0.00000000000E+00  0.28705052860E+04  0.28705052860E+04  0.25500000000E-02 0. -1.
         -2   -1    0    0    0  501 -0.00000000000E+00 -0.00000000000E+00 -0.37520378551E+02  0.37520378638E+02  0.25500000000E-02 0.  1.
    5000001    1    1    2    0    0 -0.10562151286E+03  0.20769812602E+03  0.21334037210E+04  0.21524244127E+04  0.16500000000E+03 0.  0.
   -5000001    1    1    2    0    0  0.10562151286E+03 -0.20769812602E+03  0.69958118647E+03  0.75560125198E+03  0.16500000000E+03 0.  0.
<mgrwt>
<rscale>  0 0.65636101E+03</rscale>
<asrwt>0</asrwt>
<pdfrwt beam="1">  1        2 0.41007224E+00 0.65636101E+03</pdfrwt>
<pdfrwt beam="2">  1       -2 0.53600533E-02 0.65636101E+03</pdfrwt>
<totfact> 0.54277364E+02</totfact>
</mgrwt>
</event>
<event>
 4    1  0.5323640E-005  0.4860943E+03  0.7818608E-02  0.1017474E+00
          2   -1    0    0  501    0  0.00000000000E+00  0.00000000000E+00  0.65164722386E+03  0.65164722387E+03  0.25500000000E-02 0.  1.
         -2   -1    0    0    0  501 -0.00000000000E+00 -0.00000000000E+00 -0.90650131506E+02  0.90650131542E+02  0.25500000000E-02 0. -1.
    5000001    1    1    2    0    0 -0.12703212214E+03 -0.11129497376E+03  0.36852922489E+03  0.43767855880E+03  0.16500000000E+03 0.  0.
   -5000001    1    1    2    0    0  0.12703212214E+03  0.11129497376E+03  0.19246786747E+03  0.30461879661E+03  0.16500000000E+03 0.  0.
<mgrwt>
<rscale>  0 0.48609426E+03</rscale>
<asrwt>0</asrwt>
<pdfrwt beam="1">  1        2 0.93092460E-01 0.48609426E+03</pdfrwt>
<pdfrwt beam="2">  1       -2 0.12950019E-01 0.48609426E+03</pdfrwt>
<totfact> 0.21943787E+03</totfact>
</mgrwt>
</event>
<event>
 4    1  0.5323640E-005  0.6565212E+03  0.7818608E-02  0.9794619E-01
          2   -1    0    0  501    0  0.00000000000E+00  0.00000000000E+00  0.15044840213E+03  0.15044840215E+03  0.25500000000E-02 0.  1.
         -2   -1    0    0    0  501 -0.00000000000E+00 -0.00000000000E+00 -0.71622583007E+03  0.71622583008E+03  0.25500000000E-02 0. -1.
    5000001    1    1    2    0    0 -0.11419778603E+03 -0.85070233119E+02 -0.60692427406E+03  0.64487219923E+03  0.16500000000E+03 0.  0.
   -5000001    1    1    2    0    0  0.11419778603E+03  0.85070233119E+02  0.41146846114E+02  0.22180203300E+03  0.16500000000E+03 0.  0.
<mgrwt>
<rscale>  0 0.65652123E+03</rscale>
<asrwt>0</asrwt>
<pdfrwt beam="1">  1        2 0.21492629E-01 0.65652123E+03</pdfrwt>
<pdfrwt beam="2">  1       -2 0.10231797E+00 0.65652123E+03</pdfrwt>
<totfact> 0.20650418E+02</totfact>
</mgrwt>
</event>
<event>
 4    1  0.5323640E-005  0.3989426E+03  0.7818608E-02  0.1044146E+00
          2   -1    0    0  501    0  0.00000000000E+00  0.00000000000E+00  0.20950554042E+04  0.20950554042E+04  0.25500000000E-02 0.  1.
         -2   -1    0    0    0  501 -0.00000000000E+00 -0.00000000000E+00 -0.18991767823E+02  0.18991767995E+02  0.25500000000E-02 0. -1.
    5000001    1    1    2    0    0  0.68039773539E+02  0.52138117846E+02  0.65531855725E+03  0.68118661584E+03  0.16500000000E+03 0.  0.
   -5000001    1    1    2    0    0 -0.68039773539E+02 -0.52138117846E+02  0.14207450792E+04  0.14328605564E+04  0.16500000000E+03 0.  0.
<mgrwt>
<rscale>  0 0.39894263E+03</rscale>
<asrwt>0</asrwt>
<pdfrwt beam="1">  1        2 0.29929380E+00 0.39894263E+03</pdfrwt>
<pdfrwt beam="2">  1       -2 0.27131081E-02 0.39894263E+03</pdfrwt>
<totfact> 0.38966153E+03</totfact>
</mgrwt>
</event>
<event>
 4    1  0.5323640E-005  0.6331133E+03  0.7818608E-02  0.9838992E-01
          2   -1    0    0  501    0  0.00000000000E+00  0.00000000000E+00  0.16286819206E+04  0.16286819206E+04  0.25500000000E-02 0.  1.
         -2   -1    0    0    0  501 -0.00000000000E+00 -0.00000000000E+00 -0.61527123409E+02  0.61527123462E+02  0.25500000000E-02 0. -1.
    5000001    1    1    2    0    0 -0.21770151292E+03 -0.40954344405E+02  0.37075230850E+03  0.46233481517E+03  0.16500000000E+03 0.  0.
   -5000001    1    1    2    0    0  0.21770151292E+03  0.40954344405E+02  0.11964024887E+04  0.12278742289E+04  0.16500000000E+03 0.  0.
<mgrwt>
<rscale>  0 0.63311330E+03</rscale>
<asrwt>0</asrwt>
<pdfrwt beam="1">  1        2 0.23266882E+00 0.63311330E+03</pdfrwt>
<pdfrwt beam="2">  1       -2 0.87895901E-02 0.63311330E+03</pdfrwt>
<totfact> 0.10750200E+03</totfact>
</mgrwt>
</event>
<event>
 4    1  0.5323640E-005  0.4506537E+03  0.7818608E-02  0.1027527E+00
         -2   -1    0    0    0  501 -0.00000000000E+00  0.00000000000E+00  0.22419527419E+03  0.22419527421E+03  0.25500000000E-02 0. -1.
          2   -1    0    0  501    0  0.00000000000E+00 -0.00000000000E+00 -0.22646409983E+03  0.22646409984E+03  0.25500000000E-02 0.  1.
    5000001    1    1    2    0    0 -0.13251424148E+03  0.62452900020E+02  0.44547585143E+02  0.22509970293E+03  0.16500000000E+03 0.  0.
   -5000001    1    1    2    0    0  0.13251424148E+03 -0.62452900020E+02 -0.46816410778E+02  0.22555967112E+03  0.16500000000E+03 0.  0.
<mgrwt>
<rscale>  0 0.45065366E+03</rscale>
<asrwt>0</asrwt>
<pdfrwt beam="1">  1        2 0.32352014E-01 0.45065366E+03</pdfrwt>
<pdfrwt beam="2">  1       -2 0.32027896E-01 0.45065366E+03</pdfrwt>
<totfact> 0.14746699E+03</totfact>
</mgrwt>
</event>
<event>
 4    1  0.5323640E-005  0.3812920E+03  0.7818608E-02  0.1050457E+00
         -2   -1    0    0    0  501 -0.00000000000E+00  0.00000000000E+00  0.65143318992E+02  0.65143319041E+02  0.25500000000E-02 0. -1.
          2   -1    0    0  501    0  0.00000000000E+00 -0.00000000000E+00 -0.55793732219E+03  0.55793732220E+03  0.25500000000E-02 0.  1.
    5000001    1    1    2    0    0 -0.88674928412E+02 -0.31929508786E+02 -0.22117879491E+03  0.29159526021E+03  0.16500000000E+03 0.  0.
   -5000001    1    1    2    0    0  0.88674928412E+02  0.31929508786E+02 -0.27161520830E+03  0.33148538103E+03  0.16500000000E+03 0.  0.
<mgrwt>
<rscale>  0 0.38129196E+03</rscale>
<asrwt>0</asrwt>
<pdfrwt beam="1">  1        2 0.79705329E-01 0.38129196E+03</pdfrwt>
<pdfrwt beam="2">  1       -2 0.93061888E-02 0.38129196E+03</pdfrwt>
<totfact> 0.44781080E+03</totfact>
</mgrwt>
</event>
<event>
 4    1  0.5323640E-005  0.6416491E+03  0.7818608E-02  0.9822577E-01
          2   -1    0    0  501    0  0.00000000000E+00  0.00000000000E+00  0.45601056210E+03  0.45601056211E+03  0.25500000000E-02 0.  1.
         -2   -1    0    0    0  501 -0.00000000000E+00 -0.00000000000E+00 -0.22571491263E+03  0.22571491264E+03  0.25500000000E-02 0. -1.
    5000001    1    1    2    0    0 -0.27148141968E+03 -0.15474163697E+02  0.15974290517E+03  0.35592753016E+03  0.16500000000E+03 0.  0.
   -5000001    1    1    2    0    0  0.27148141968E+03  0.15474163697E+02  0.70552744310E+02  0.32579794459E+03  0.16500000000E+03 0.  0.
<mgrwt>
<rscale>  0 0.64164908E+03</rscale>
<asrwt>0</asrwt>
<pdfrwt beam="1">  1        2 0.65144366E-01 0.64164908E+03</pdfrwt>
<pdfrwt beam="2">  1       -2 0.32244988E-01 0.64164908E+03</pdfrwt>
<totfact> 0.67099438E+02</totfact>
</mgrwt>
</event>
<event>
 4    1  0.5323640E-005  0.5727656E+03  0.7818608E-02  0.9963577E-01
          2   -1    0    0  501    0  0.00000000000E+00  0.00000000000E+00  0.79978911042E+03  0.79978911042E+03  0.25500000000E-02 0.  1.
         -2   -1    0    0    0  501 -0.00000000000E+00 -0.00000000000E+00 -0.10254592466E+03  0.10254592469E+03  0.25500000000E-02 0. -1.
    5000001    1    1    2    0    0  0.20463776507E+03 -0.80615897692E+02  0.47479704124E+03  0.54866453159E+03  0.16500000000E+03 0.  0.
   -5000001    1    1    2    0    0 -0.20463776507E+03  0.80615897692E+02  0.22244614452E+03  0.35367050353E+03  0.16500000000E+03 0.  0.
<mgrwt>
<rscale>  0 0.57276562E+03</rscale>
<asrwt>0</asrwt>
<pdfrwt beam="1">  1        2 0.11425559E+00 0.57276562E+03</pdfrwt>
<pdfrwt beam="2">  1       -2 0.14649417E-01 0.57276562E+03</pdfrwt>
<totfact> 0.13888370E+03</totfact>
</mgrwt>
</event>
<event>
 4    1  0.5323640E-005  0.3669496E+03  0.7818608E-02  0.1055865E+00
         -2   -1    0    0    0  501 -0.00000000000E+00  0.00000000000E+00  0.23842373766E+02  0.23842373902E+02  0.25500000000E-02 0. -1.
          2   -1    0    0  501    0  0.00000000000E+00 -0.00000000000E+00 -0.14118984787E+04  0.14118984787E+04  0.25500000000E-02 0.  1.
    5000001    1    1    2    0    0 -0.75273866435E+02  0.20293338376E+02 -0.61978718696E+03  0.64609529612E+03  0.16500000000E+03 0.  0.
   -5000001    1    1    2    0    0  0.75273866435E+02 -0.20293338376E+02 -0.76826891801E+03  0.78964555651E+03  0.16500000000E+03 0.  0.
<mgrwt>
<rscale>  0 0.36694965E+03</rscale>
<asrwt>0</asrwt>
<pdfrwt beam="1">  1        2 0.20169973E+00 0.36694965E+03</pdfrwt>
<pdfrwt beam="2">  1       -2 0.34060543E-02 0.36694965E+03</pdfrwt>
<totfact> 0.60866617E+03</totfact>
</mgrwt>
</event>
<event>
 4    1  0.5323640E-005  0.5128780E+03  0.7818608E-02  0.1010471E+00
          2   -1    0    0  501    0  0.00000000000E+00  0.00000000000E+00  0.14652315914E+04  0.14652315914E+04  0.25500000000E-02 0.  1.
         -2   -1    0    0    0  501 -0.00000000000E+00 -0.00000000000E+00 -0.44880940520E+02  0.44880940592E+02  0.25500000000E-02 0. -1.
    5000001    1    1    2    0    0 -0.12011313442E+03 -0.11254459065E+03  0.39521483178E+03  0.45881718931E+03  0.16500000000E+03 0.  0.
   -5000001    1    1    2    0    0  0.12011313442E+03  0.11254459065E+03  0.10251358191E+04  0.10512953426E+04  0.16500000000E+03 0.  0.
<mgrwt>
<rscale>  0 0.51287804E+03</rscale>
<asrwt>0</asrwt>
<pdfrwt beam="1">  1        2 0.20931880E+00 0.51287804E+03</pdfrwt>
<pdfrwt beam="2">  1       -2 0.64115629E-02 0.51287804E+03</pdfrwt>
<totfact> 0.21622693E+03</totfact>
</mgrwt>
</event>
<event>
 4    1  0.5323640E-005  0.5820228E+03  0.7818608E-02  0.9943421E-01
          2   -1    0    0  501    0  0.00000000000E+00  0.00000000000E+00  0.48298266993E+03  0.48298266993E+03  0.25500000000E-02 0.  1.
         -2   -1    0    0    0  501 -0.00000000000E+00 -0.00000000000E+00 -0.17534299626E+03  0.17534299628E+03  0.25500000000E-02 0. -1.
    5000001    1    1    2    0    0  0.41191212827E+02 -0.22528284979E+03  0.73730723760E+02  0.29173669301E+03  0.16500000000E+03 0.  0.
   -5000001    1    1    2    0    0 -0.41191212827E+02  0.22528284979E+03  0.23390894991E+03  0.36658897320E+03  0.16500000000E+03 0.  0.
<mgrwt>
<rscale>  0 0.58202278E+03</rscale>
<asrwt>0</asrwt>
<pdfrwt beam="1">  1        2 0.68997524E-01 0.58202278E+03</pdfrwt>
<pdfrwt beam="2">  1       -2 0.25049000E-01 0.58202278E+03</pdfrwt>
<totfact> 0.99970820E+02</totfact>
</mgrwt>
</event>
<event>
 4    1  0.5323640E-005  0.4424663E+03  0.7818608E-02  0.1029993E+00
         -2   -1    0    0    0  501 -0.00000000000E+00  0.00000000000E+00  0.32805107191E+02  0.32805107290E+02  0.25500000000E-02 0. -1.
          2   -1    0    0  501    0  0.00000000000E+00 -0.00000000000E+00 -0.14919657883E+04  0.14919657883E+04  0.25500000000E-02 0.  1.
    5000001    1    1    2    0    0  0.13636357453E+03 -0.48262336425E+02 -0.82673393176E+03  0.85535856311E+03  0.16500000000E+03 0.  0.
   -5000001    1    1    2    0    0 -0.13636357453E+03  0.48262336425E+02 -0.63242674935E+03  0.66941233247E+03  0.16500000000E+03 0.  0.
<mgrwt>
<rscale>  0 0.44246626E+03</rscale>
<asrwt>0</asrwt>
<pdfrwt beam="1">  1        2 0.21313793E+00 0.44246626E+03</pdfrwt>
<pdfrwt beam="2">  1       -2 0.46864448E-02 0.44246626E+03</pdfrwt>
<totfact> 0.34079043E+03</totfact>
</mgrwt>
</event>
<event>
 4    1  0.5323640E-005  0.4545248E+03  0.7818608E-02  0.1026381E+00
          2   -1    0    0  501    0  0.00000000000E+00  0.00000000000E+00  0.11708222992E+04  0.11708222992E+04  0.25500000000E-02 0.  1.
         -2   -1    0    0    0  501 -0.00000000000E+00 -0.00000000000E+00 -0.44112763912E+02  0.44112763986E+02  0.25500000000E-02 0. -1.
    5000001    1    1    2    0    0  0.38273600755E+02 -0.14431981785E+03  0.68672160564E+03  0.72187578017E+03  0.16500000000E+03 0.  0.
   -5000001    1    1    2    0    0 -0.38273600755E+02  0.14431981785E+03  0.43998792968E+03  0.49305928305E+03  0.16500000000E+03 0.  0.
<mgrwt>
<rscale>  0 0.45452484E+03</rscale>
<asrwt>0</asrwt>
<pdfrwt beam="1">  1        2 0.16726033E+00 0.45452484E+03</pdfrwt>
<pdfrwt beam="2">  1       -2 0.63018234E-02 0.45452484E+03</pdfrwt>
<totfact> 0.32010697E+03</totfact>
</mgrwt>
</event>
<event>
 4    1  0.5323640E-005  0.1451249E+04  0.7818608E-02  0.8917535E-01
         -2   -1    0    0    0  501 -0.00000000000E+00  0.00000000000E+00  0.55896984908E+03  0.55896984909E+03  0.25500000000E-02 0. -1.
          2   -1    0    0  501    0  0.00000000000E+00 -0.00000000000E+00 -0.94196658042E+03  0.94196658042E+03  0.25500000000E-02 0.  1.
    5000001    1    1    2    0    0 -0.29265819449E+03 -0.45911297834E+03 -0.65733304558E+03  0.86933611365E+03  0.16500000000E+03 0.  0.
   -5000001    1    1    2    0    0  0.29265819449E+03  0.45911297834E+03  0.27433631424E+03  0.63160031586E+03  0.16500000000E+03 0.  0.
<mgrwt>
<rscale>  0 0.14512490E+04</rscale>
<asrwt>0</asrwt>
<pdfrwt beam="1">  1        2 0.13456665E+00 0.14512490E+04</pdfrwt>
<pdfrwt beam="2">  1       -2 0.79852836E-01 0.14512490E+04</pdfrwt>
<totfact> 0.41195422E+01</totfact>
</mgrwt>
</event>
<event>
 4    1  0.5323640E-005  0.4861335E+03  0.7818608E-02  0.1017463E+00
         -2   -1    0    0    0  501 -0.00000000000E+00  0.00000000000E+00  0.17228829952E+03  0.17228829954E+03  0.25500000000E-02 0. -1.
          2   -1    0    0  501    0  0.00000000000E+00 -0.00000000000E+00 -0.34292202125E+03  0.34292202126E+03  0.25500000000E-02 0.  1.
    5000001    1    1    2    0    0  0.11375944079E+03  0.77456783941E+02  0.35127855837E+02  0.21771479050E+03  0.16500000000E+03 0.  0.
   -5000001    1    1    2    0    0 -0.11375944079E+03 -0.77456783941E+02 -0.20576157756E+03  0.29749553030E+03  0.16500000000E+03 0.  0.
<mgrwt>
<rscale>  0 0.48613353E+03</rscale>
<asrwt>0</asrwt>
<pdfrwt beam="1">  1        2 0.48988860E-01 0.48613353E+03</pdfrwt>
<pdfrwt beam="2">  1       -2 0.24612614E-01 0.48613353E+03</pdfrwt>
<totfact> 0.15092757E+03</totfact>
</mgrwt>
</event>
<event>
 4    1  0.5323640E-005  0.5366981E+03  0.7818608E-02  0.1004621E+00
         -2   -1    0    0    0  501 -0.00000000000E+00  0.00000000000E+00  0.19625184690E+03  0.19625184692E+03  0.25500000000E-02 0. -1.
          2   -1    0    0  501    0  0.00000000000E+00 -0.00000000000E+00 -0.36693266106E+03  0.36693266107E+03  0.25500000000E-02 0.  1.
    5000001    1    1    2    0    0 -0.10339453561E+03 -0.13236743508E+03  0.49755675104E+02  0.24064952746E+03  0.16500000000E+03 0.  0.
   -5000001    1    1    2    0    0  0.10339453561E+03  0.13236743508E+03 -0.22043648926E+03  0.32253498052E+03  0.16500000000E+03 0.  0.
<mgrwt>
<rscale>  0 0.53669810E+03</rscale>
<asrwt>0</asrwt>
<pdfrwt beam="1">  1        2 0.52418952E-01 0.53669810E+03</pdfrwt>
<pdfrwt beam="2">  1       -2 0.28035978E-01 0.53669810E+03</pdfrwt>
<totfact> 0.11079555E+03</totfact>
</mgrwt>
</event>
<event>
 4    1  0.5323640E-005  0.5331542E+03  0.7818608E-02  0.1005470E+00
         -2   -1    0    0    0  501 -0.00000000000E+00  0.00000000000E+00  0.10620495595E+03  0.10620495598E+03  0.25500000000E-02 0. -1.
          2   -1    0    0  501    0  0.00000000000E+00 -0.00000000000E+00 -0.66911528267E+03  0.66911528268E+03  0.25500000000E-02 0.  1.
    5000001    1    1    2    0    0 -0.16488794806E+03 -0.12721371533E+03 -0.31288079914E+03  0.41047625906E+03  0.16500000000E+03 0.  0.
   -5000001    1    1    2    0    0  0.16488794806E+03  0.12721371533E+03 -0.25002952758E+03  0.36484397960E+03  0.16500000000E+03 0.  0.
<mgrwt>
<rscale>  0 0.53315423E+03</rscale>
<asrwt>0</asrwt>
<pdfrwt beam="1">  1        2 0.95587896E-01 0.53315423E+03</pdfrwt>
<pdfrwt beam="2">  1       -2 0.15172137E-01 0.53315423E+03</pdfrwt>
<totfact> 0.16333045E+03</totfact>
</mgrwt>
</event>
<event>
 4    1  0.5323640E-005  0.5159957E+03  0.7818608E-02  0.1009686E+00
          2   -1    0    0  501    0  0.00000000000E+00  0.00000000000E+00  0.84605562788E+03  0.84605562789E+03  0.25500000000E-02 0.  1.
         -2   -1    0    0    0  501 -0.00000000000E+00 -0.00000000000E+00 -0.78674369982E+02  0.78674370023E+02  0.25500000000E-02 0. -1.
    5000001    1    1    2    0    0  0.17687250180E+03  0.64299899667E+02  0.49588888363E+03  0.55547200101E+03  0.16500000000E+03 0.  0.
   -5000001    1    1    2    0    0 -0.17687250180E+03 -0.64299899667E+02  0.27149237427E+03  0.36925799690E+03  0.16500000000E+03 0.  0.
<mgrwt>
<rscale>  0 0.51599571E+03</rscale>
<asrwt>0</asrwt>
<pdfrwt beam="1">  1        2 0.12086509E+00 0.51599571E+03</pdfrwt>
<pdfrwt beam="2">  1       -2 0.11239196E-01 0.51599571E+03</pdfrwt>
<totfact> 0.20031398E+03</totfact>
</mgrwt>
</event>
<event>
 4    1  0.5323640E-005  0.6473967E+03  0.7818608E-02  0.9811676E-01
          2   -1    0    0  501    0  0.00000000000E+00  0.00000000000E+00  0.14444916686E+04  0.14444916686E+04  0.25500000000E-02 0.  1.
         -2   -1    0    0    0  501 -0.00000000000E+00 -0.00000000000E+00 -0.72538060090E+02  0.72538060135E+02  0.25500000000E-02 0. -1.
    5000001    1    1    2    0    0  0.17118361505E+03 -0.21088025083E+03  0.83007048468E+03  0.88882862228E+03  0.16500000000E+03 0.  0.
   -5000001    1    1    2    0    0 -0.17118361505E+03  0.21088025083E+03  0.54188312379E+03  0.62820110641E+03  0.16500000000E+03 0.  0.
<mgrwt>
<rscale>  0 0.64739671E+03</rscale>
<asrwt>0</asrwt>
<pdfrwt beam="1">  1        2 0.20635591E+00 0.64739671E+03</pdfrwt>
<pdfrwt beam="2">  1       -2 0.10362582E-01 0.64739671E+03</pdfrwt>
<totfact> 0.10263096E+03</totfact>
</mgrwt>
</event>
<event>
 4    1  0.5323640E-005  0.1046286E+04  0.7818608E-02  0.9259187E-01
          2   -1    0    0  501    0  0.00000000000E+00  0.00000000000E+00  0.56947855455E+03  0.56947855456E+03  0.25500000000E-02 0.  1.
         -2   -1    0    0    0  501 -0.00000000000E+00 -0.00000000000E+00 -0.48057742122E+03  0.48057742123E+03  0.25500000000E-02 0. -1.
    5000001    1    1    2    0    0  0.35780542799E+03 -0.31473622214E+03 -0.95226792593E+02  0.51320245114E+03  0.16500000000E+03 0.  0.
   -5000001    1    1    2    0    0 -0.35780542799E+03  0.31473622214E+03  0.18412792592E+03  0.53685352465E+03  0.16500000000E+03 0.  0.
<mgrwt>
<rscale>  0 0.10462859E+04</rscale>
<asrwt>0</asrwt>
<pdfrwt beam="1">  1        2 0.81354080E-01 0.10462859E+04</pdfrwt>
<pdfrwt beam="2">  1       -2 0.68653917E-01 0.10462859E+04</pdfrwt>
<totfact> 0.11158553E+02</totfact>
</mgrwt>
</event>
<event>
 4    1  0.5323640E-005  0.3359177E+03  0.7818608E-02  0.1068548E+00
          2   -1    0    0  501    0  0.00000000000E+00  0.00000000000E+00  0.36645672569E+03  0.36645672570E+03  0.25500000000E-02 0.  1.
         -2   -1    0    0    0  501 -0.00000000000E+00 -0.00000000000E+00 -0.76980901305E+02  0.76980901347E+02  0.25500000000E-02 0. -1.
    5000001    1    1    2    0    0  0.16843080820E+02 -0.25069702199E+02  0.13345995339E+03  0.21435656859E+03  0.16500000000E+03 0.  0.
   -5000001    1    1    2    0    0 -0.16843080820E+02  0.25069702199E+02  0.15601587100E+03  0.22908105846E+03  0.16500000000E+03 0.  0.
<mgrwt>
<rscale>  0 0.33591766E+03</rscale>
<asrwt>0</asrwt>
<pdfrwt beam="1">  1        2 0.52350961E-01 0.33591766E+03</pdfrwt>
<pdfrwt beam="2">  1       -2 0.10997272E-01 0.33591766E+03</pdfrwt>
<totfact> 0.54404178E+03</totfact>
</mgrwt>
</event>
<event>
 4    1  0.5323640E-005  0.4541279E+03  0.7818608E-02  0.1026498E+00
          2   -1    0    0  501    0  0.00000000000E+00  0.00000000000E+00  0.22930716200E+03  0.22930716202E+03  0.25500000000E-02 0.  1.
         -2   -1    0    0    0  501 -0.00000000000E+00 -0.00000000000E+00 -0.22484269702E+03  0.22484269703E+03  0.25500000000E-02 0. -1.
    5000001    1    1    2    0    0 -0.36239114260E+02  0.11612804251E+03  0.99879385658E+02  0.22803483800E+03  0.16500000000E+03 0.  0.
   -5000001    1    1    2    0    0  0.36239114260E+02 -0.11612804251E+03 -0.95414920674E+02  0.22611502106E+03  0.16500000000E+03 0.  0.
<mgrwt>
<rscale>  0 0.45412791E+03</rscale>
<asrwt>0</asrwt>
<pdfrwt beam="1">  1        2 0.32758166E-01 0.45412791E+03</pdfrwt>
<pdfrwt beam="2">  1       -2 0.32120385E-01 0.45412791E+03</pdfrwt>
<totfact> 0.14467319E+03</totfact>
</mgrwt>
</event>
<event>
 4    1  0.5323640E-005  0.4668644E+03  0.7818608E-02  0.1022809E+00
          2   -1    0    0  501    0  0.00000000000E+00  0.00000000000E+00  0.21461463634E+04  0.21461463634E+04  0.25500000000E-02 0.  1.
         -2   -1    0    0    0  501 -0.00000000000E+00 -0.00000000000E+00 -0.25389971509E+02  0.25389971637E+02  0.25500000000E-02 0. -1.
    5000001    1    1    2    0    0 -0.96248607084E+01 -0.10310785506E+03  0.16586062279E+04  0.16700070320E+04  0.16500000000E+03 0.  0.
   -5000001    1    1    2    0    0  0.96248607084E+01  0.10310785506E+03  0.46215016393E+03  0.50152930298E+03  0.16500000000E+03 0.  0.
<mgrwt>
<rscale>  0 0.46686441E+03</rscale>
<asrwt>0</asrwt>
<pdfrwt beam="1">  1        2 0.30659239E+00 0.46686441E+03</pdfrwt>
<pdfrwt beam="2">  1       -2 0.36271382E-02 0.46686441E+03</pdfrwt>
<totfact> 0.23652222E+03</totfact>
</mgrwt>
</event>
<event>
 4    1  0.5323640E-005  0.4173342E+03  0.7818608E-02  0.1037937E+00
          2   -1    0    0  501    0  0.00000000000E+00  0.00000000000E+00  0.34389983016E+03  0.34389983017E+03  0.25500000000E-02 0.  1.
         -2   -1    0    0    0  501 -0.00000000000E+00 -0.00000000000E+00 -0.12661233030E+03  0.12661233032E+03  0.25500000000E-02 0. -1.
    5000001    1    1    2    0    0 -0.63074102061E+02 -0.10522100597E+03  0.68510715889E+02  0.21672222000E+03  0.16500000000E+03 0.  0.
   -5000001    1    1    2    0    0  0.63074102061E+02  0.10522100597E+03  0.14877678398E+03  0.25378994050E+03  0.16500000000E+03 0.  0.
<mgrwt>
<rscale>  0 0.41733420E+03</rscale>
<asrwt>0</asrwt>
<pdfrwt beam="1">  1        2 0.49128547E-01 0.41733420E+03</pdfrwt>
<pdfrwt beam="2">  1       -2 0.18087476E-01 0.41733420E+03</pdfrwt>
<totfact> 0.25704574E+03</totfact>
</mgrwt>
</event>
<event>
 4    1  0.5323640E-005  0.5784323E+03  0.7818608E-02  0.9951191E-01
         -2   -1    0    0    0  501 -0.00000000000E+00  0.00000000000E+00  0.57162688710E+02  0.57162688767E+02  0.25500000000E-02 0. -1.
          2   -1    0    0  501    0  0.00000000000E+00 -0.00000000000E+00 -0.14632967302E+04  0.14632967302E+04  0.25500000000E-02 0.  1.
    5000001    1    1    2    0    0  0.52697396217E+02  0.17501521642E+03 -0.11018300745E+04  0.11290092359E+04  0.16500000000E+03 0.  0.
   -5000001    1    1    2    0    0 -0.52697396217E+02 -0.17501521642E+03 -0.30430396701E+03  0.39145018315E+03  0.16500000000E+03 0.  0.
<mgrwt>
<rscale>  0 0.57843228E+03</rscale>
<asrwt>0</asrwt>
<pdfrwt beam="1">  1        2 0.20904237E+00 0.57843228E+03</pdfrwt>
<pdfrwt beam="2">  1       -2 0.81660993E-02 0.57843228E+03</pdfrwt>
<totfact> 0.14761857E+03</totfact>
</mgrwt>
</event>
<event>
 4    1  0.5323640E-005  0.4648924E+03  0.7818608E-02  0.1023372E+00
          2   -1    0    0  501    0  0.00000000000E+00  0.00000000000E+00  0.62568107616E+03  0.62568107617E+03  0.25500000000E-02 0.  1.
         -2   -1    0    0    0  501 -0.00000000000E+00 -0.00000000000E+00 -0.86355880373E+02  0.86355880411E+02  0.25500000000E-02 0. -1.
    5000001    1    1    2    0    0  0.81074941059E+02 -0.99663820684E+02  0.11421885040E+03  0.23827918291E+03  0.16500000000E+03 0.  0.
   -5000001    1    1    2    0    0 -0.81074941059E+02  0.99663820684E+02  0.42510634539E+03  0.47375777367E+03  0.16500000000E+03 0.  0.
<mgrwt>
<rscale>  0 0.46489242E+03</rscale>
<asrwt>0</asrwt>
<pdfrwt beam="1">  1        2 0.89383009E-01 0.46489242E+03</pdfrwt>
<pdfrwt beam="2">  1       -2 0.12336555E-01 0.46489242E+03</pdfrwt>
<totfact> 0.24932486E+03</totfact>
</mgrwt>
</event>
<event>
 4    1  0.5323640E-005  0.6794881E+03  0.7818608E-02  0.9752968E-01
         -2   -1    0    0    0  501 -0.00000000000E+00  0.00000000000E+00  0.80297187356E+02  0.80297187396E+02  0.25500000000E-02 0. -1.
          2   -1    0    0  501    0  0.00000000000E+00 -0.00000000000E+00 -0.14374850625E+04  0.14374850625E+04  0.25500000000E-02 0.  1.
    5000001    1    1    2    0    0  0.28397341234E+03 -0.21539103837E+02 -0.49042851891E+03  0.59063522082E+03  0.16500000000E+03 0.  0.
   -5000001    1    1    2    0    0 -0.28397341234E+03  0.21539103837E+02 -0.86675935628E+03  0.92714702912E+03  0.16500000000E+03 0.  0.
<mgrwt>
<rscale>  0 0.67948806E+03</rscale>
<asrwt>0</asrwt>
<pdfrwt beam="1">  1        2 0.20535499E+00 0.67948806E+03</pdfrwt>
<pdfrwt beam="2">  1       -2 0.11471028E-01 0.67948806E+03</pdfrwt>
<totfact> 0.87542742E+02</totfact>
</mgrwt>
</event>
<event>
 4    1  0.5323640E-005  0.3648508E+03  0.7818608E-02  0.1056679E+00
          2   -1    0    0  501    0  0.00000000000E+00  0.00000000000E+00  0.68852995583E+03  0.68852995583E+03  0.25500000000E-02 0.  1.
         -2   -1    0    0    0  501 -0.00000000000E+00 -0.00000000000E+00 -0.48333453126E+02  0.48333453193E+02  0.25500000000E-02 0. -1.
    5000001    1    1    2    0    0  0.20797215151E+02 -0.51701272775E+02  0.42976402222E+03  0.46371075097E+03  0.16500000000E+03 0.  0.
   -5000001    1    1    2    0    0 -0.20797215151E+02  0.51701272775E+02  0.21043248048E+03  0.27315265806E+03  0.16500000000E+03 0.  0.
<mgrwt>
<rscale>  0 0.36485082E+03</rscale>
<asrwt>0</asrwt>
<pdfrwt beam="1">  1        2 0.98361416E-01 0.36485082E+03</pdfrwt>
<pdfrwt beam="2">  1       -2 0.69047794E-02 0.36485082E+03</pdfrwt>
<totfact> 0.56036428E+03</totfact>
</mgrwt>
</event>
<event>
 4    1  0.5323640E-005  0.6487794E+03  0.7818608E-02  0.9809072E-01
          2   -1    0    0  501    0  0.00000000000E+00  0.00000000000E+00  0.19738900898E+04  0.19738900898E+04  0.25500000000E-02 0.  1.
         -2   -1    0    0    0  501 -0.00000000000E+00 -0.00000000000E+00 -0.53310301155E+02  0.53310301216E+02  0.25500000000E-02 0. -1.
    5000001    1    1    2    0    0 -0.18473596992E+03 -0.17831138145E+03  0.13037349977E+04  0.13389818041E+04  0.16500000000E+03 0.  0.
   -5000001    1    1    2    0    0  0.18473596992E+03  0.17831138145E+03  0.61684479096E+03  0.68821858698E+03  0.16500000000E+03 0.  0.
<mgrwt>
<rscale>  0 0.64877939E+03</rscale>
<asrwt>0</asrwt>
<pdfrwt beam="1">  1        2 0.28198431E+00 0.64877939E+03</pdfrwt>
<pdfrwt beam="2">  1       -2 0.76157571E-02 0.64877939E+03</pdfrwt>
<totfact> 0.90282589E+02</totfact>
</mgrwt>
</event>
<event>
 4    1  0.5323640E-005  0.4611534E+03  0.7818608E-02  0.1024447E+00
          2   -1    0    0  501    0  0.00000000000E+00  0.00000000000E+00  0.93236651473E+03  0.93236651474E+03  0.25500000000E-02 0.  1.
         -2   -1    0    0    0  501 -0.00000000000E+00 -0.00000000000E+00 -0.57022222103E+02  0.57022222160E+02  0.25500000000E-02 0. -1.
    5000001    1    1    2    0    0  0.11495239810E+03 -0.91852989530E+02  0.57818925424E+03  0.61901440955E+03  0.16500000000E+03 0.  0.
   -5000001    1    1    2    0    0 -0.11495239810E+03  0.91852989530E+02  0.29715503839E+03  0.37037432734E+03  0.16500000000E+03 0.  0.
<mgrwt>
<rscale>  0 0.46115338E+03</rscale>
<asrwt>0</asrwt>
<pdfrwt beam="1">  1        2 0.13319522E+00 0.46115338E+03</pdfrwt>
<pdfrwt beam="2">  1       -2 0.81460316E-02 0.46115338E+03</pdfrwt>
<totfact> 0.29556222E+03</totfact>
</mgrwt>
</event>
<event>
 4    1  0.5323640E-005  0.3476138E+03  0.7818608E-02  0.1063599E+00
          2   -1    0    0  501    0  0.00000000000E+00  0.00000000000E+00  0.21716966724E+04  0.21716966724E+04  0.25500000000E-02 0.  1.
         -2   -1    0    0    0  501 -0.00000000000E+00 -0.00000000000E+00 -0.13910248103E+02  0.13910248337E+02  0.25500000000E-02 0. -1.
    5000001    1    1    2    0    0 -0.10449860680E+02  0.48727378389E+02  0.12195247795E+04  0.12316449345E+04  0.16500000000E+03 0.  0.
   -5000001    1    1    2    0    0  0.10449860680E+02 -0.48727378389E+02  0.93826164483E+03  0.95396198622E+03  0.16500000000E+03 0.  0.
<mgrwt>
<rscale>  0 0.34761381E+03</rscale>
<asrwt>0</asrwt>
<pdfrwt beam="1">  1        2 0.31024228E+00 0.34761381E+03</pdfrwt>
<pdfrwt beam="2">  1       -2 0.19871790E-02 0.34761381E+03</pdfrwt>
<totfact> 0.56847133E+03</totfact>
</mgrwt>
</event>
<event>
 4    1  0.5323640E-005  0.4943530E+03  0.7818608E-02  0.1015263E+00
          2   -1    0    0  501    0  0.00000000000E+00  0.00000000000E+00  0.73442998327E+03  0.73442998327E+03  0.25500000000E-02 0.  1.
         -2   -1    0    0    0  501 -0.00000000000E+00 -0.00000000000E+00 -0.83188617795E+02  0.83188617834E+02  0.25500000000E-02 0. -1.
    5000001    1    1    2    0    0  0.14901627265E+03 -0.36231506396E+00  0.50425313038E+03  0.55109182563E+03  0.16500000000E+03 0.  0.
   -5000001    1    1    2    0    0 -0.14901627265E+03  0.36231506396E+00  0.14698823509E+03  0.26652677547E+03  0.16500000000E+03 0.  0.
<mgrwt>
<rscale>  0 0.49435297E+03</rscale>
<asrwt>0</asrwt>
<pdfrwt beam="1">  1        2 0.10491857E+00 0.49435297E+03</pdfrwt>
<pdfrwt beam="2">  1       -2 0.11884088E-01 0.49435297E+03</pdfrwt>
<totfact> 0.21865218E+03</totfact>
</mgrwt>
</event>
<event>
 4    1  0.5323640E-005  0.1006906E+04  0.7818608E-02  0.9301003E-01
          2   -1    0    0  501    0  0.00000000000E+00  0.00000000000E+00  0.89510290109E+03  0.89510290109E+03  0.25500000000E-02 0.  1.
         -2   -1    0    0    0  501 -0.00000000000E+00 -0.00000000000E+00 -0.28316852184E+03  0.28316852186E+03  0.25500000000E-02 0. -1.
    5000001    1    1    2    0    0 -0.31597492674E+03 -0.30497258878E+03  0.92134279303E+02  0.47808174998E+03  0.16500000000E+03 0.  0.
   -5000001    1    1    2    0    0  0.31597492674E+03  0.30497258878E+03  0.51980009994E+03  0.70018967297E+03  0.16500000000E+03 0.  0.
<mgrwt>
<rscale>  0 0.10069061E+04</rscale>
<asrwt>0</asrwt>
<pdfrwt beam="1">  1        2 0.12787184E+00 0.10069061E+04</pdfrwt>
<pdfrwt beam="2">  1       -2 0.40452646E-01 0.10069061E+04</pdfrwt>
<totfact> 0.18886499E+02</totfact>
</mgrwt>
</event>
<event>
 4    1  0.5323640E-005  0.4588663E+03  0.7818608E-02  0.1025111E+00
          2   -1    0    0  501    0  0.00000000000E+00  0.00000000000E+00  0.20023890651E+04  0.20023890651E+04  0.25500000000E-02 0.  1.
         -2   -1    0    0    0  501 -0.00000000000E+00 -0.00000000000E+00 -0.26288385415E+02  0.26288385539E+02  0.25500000000E-02 0. -1.
    5000001    1    1    2    0    0  0.26112940778E+02  0.10325277466E+03  0.15124928104E+04  0.15251893400E+04  0.16500000000E+03 0.  0.
   -5000001    1    1    2    0    0 -0.26112940778E+02 -0.10325277466E+03  0.46360786925E+03  0.50348811066E+03  0.16500000000E+03 0.  0.
<mgrwt>
<rscale>  0 0.45886632E+03</rscale>
<asrwt>0</asrwt>
<pdfrwt beam="1">  1        2 0.28605570E+00 0.45886632E+03</pdfrwt>
<pdfrwt beam="2">  1       -2 0.37554820E-02 0.45886632E+03</pdfrwt>
<totfact> 0.26459207E+03</totfact>
</mgrwt>
</event>
<event>
 4    1  0.5323640E-005  0.5783154E+03  0.7818608E-02  0.9951445E-01
          2   -1    0    0  501    0  0.00000000000E+00  0.00000000000E+00  0.14627768884E+03  0.14627768887E+03  0.25500000000E-02 0.  1.
         -2   -1    0    0    0  501 -0.00000000000E+00 -0.00000000000E+00 -0.57159899643E+03  0.57159899643E+03  0.25500000000E-02 0. -1.
    5000001    1    1    2    0    0 -0.96237490917E+01  0.18097104641E+03 -0.40313022734E+03  0.47178609176E+03  0.16500000000E+03 0.  0.
   -5000001    1    1    2    0    0  0.96237490917E+01 -0.18097104641E+03 -0.22191080247E+02  0.24609059354E+03  0.16500000000E+03 0.  0.
<mgrwt>
<rscale>  0 0.57831542E+03</rscale>
<asrwt>0</asrwt>
<pdfrwt beam="1">  1        2 0.20896813E-01 0.57831542E+03</pdfrwt>
<pdfrwt beam="2">  1       -2 0.81656998E-01 0.57831542E+03</pdfrwt>
<totfact> 0.35983986E+02</totfact>
</mgrwt>
</event>
<event>
 4    1  0.5323640E-005  0.4290536E+03  0.7818608E-02  0.1034159E+00
         -2   -1    0    0    0  501 -0.00000000000E+00  0.00000000000E+00  0.56476957957E+02  0.56476958014E+02  0.25500000000E-02 0. -1.
          2   -1    0    0  501    0  0.00000000000E+00 -0.00000000000E+00 -0.81487662512E+03  0.81487662512E+03  0.25500000000E-02 0.  1.
    5000001    1    1    2    0    0 -0.11952211124E+03 -0.12177382675E+02 -0.24505562419E+03  0.31892175008E+03  0.16500000000E+03 0.  0.
   -5000001    1    1    2    0    0  0.11952211124E+03  0.12177382675E+02 -0.51334404297E+03  0.55243183306E+03  0.16500000000E+03 0.  0.
<mgrwt>
<rscale>  0 0.42905362E+03</rscale>
<asrwt>0</asrwt>
<pdfrwt beam="1">  1        2 0.11641094E+00 0.42905362E+03</pdfrwt>
<pdfrwt beam="2">  1       -2 0.80681373E-02 0.42905362E+03</pdfrwt>
<totfact> 0.35760547E+03</totfact>
</mgrwt>
</event>
<event>
 4    1  0.5323640E-005  0.7257606E+03  0.7818608E-02  0.9674165E-01
         -2   -1    0    0    0  501 -0.00000000000E+00  0.00000000000E+00  0.57508277369E+02  0.57508277426E+02  0.25500000000E-02 0. -1.
          2   -1    0    0  501    0  0.00000000000E+00 -0.00000000000E+00 -0.22897938919E+04  0.22897938919E+04  0.25500000000E-02 0.  1.
    5000001    1    1    2    0    0  0.12916739710E+03  0.91982550206E+02 -0.20529599409E+03  0.30743527970E+03  0.16500000000E+03 0.  0.
   -5000001    1    1    2    0    0 -0.12916739710E+03 -0.91982550206E+02 -0.20269896205E+04  0.20398668896E+04  0.16500000000E+03 0.  0.
<mgrwt>
<rscale>  0 0.72576057E+03</rscale>
<asrwt>0</asrwt>
<pdfrwt beam="1">  1        2 0.32711336E+00 0.72576057E+03</pdfrwt>
<pdfrwt beam="2">  1       -2 0.82154697E-02 0.72576057E+03</pdfrwt>
<totfact> 0.55104689E+02</totfact>
</mgrwt>
</event>
<event>
 4    1  0.5323640E-005  0.4587026E+03  0.7818608E-02  0.1025158E+00
         -2   -1    0    0    0  501 -0.00000000000E+00  0.00000000000E+00  0.19579567446E+03  0.19579567447E+03  0.25500000000E-02 0.  1.
          2   -1    0    0  501    0  0.00000000000E+00 -0.00000000000E+00 -0.26865772579E+03  0.26865772580E+03  0.25500000000E-02 0. -1.
    5000001    1    1    2    0    0  0.11165894908E+03  0.32997728551E+02  0.73653920835E+02  0.21495690511E+03  0.16500000000E+03 0.  0.
   -5000001    1    1    2    0    0 -0.11165894908E+03 -0.32997728551E+02 -0.14651597217E+03  0.24949649517E+03  0.16500000000E+03 0.  0.
<mgrwt>
<rscale>  0 0.45870261E+03</rscale>
<asrwt>0</asrwt>
<pdfrwt beam="1">  1        2 0.38379675E-01 0.45870261E+03</pdfrwt>
<pdfrwt beam="2">  1       -2 0.27970811E-01 0.45870261E+03</pdfrwt>
<totfact> 0.15662783E+03</totfact>
</mgrwt>
</event>
<event>
 4    1  0.5323640E-005  0.4430567E+03  0.7818608E-02  0.1029813E+00
         -2   -1    0    0    0  501 -0.00000000000E+00  0.00000000000E+00  0.59665258615E+02  0.59665258670E+02  0.25500000000E-02 0. -1.
          2   -1    0    0  501    0  0.00000000000E+00 -0.00000000000E+00 -0.82250233721E+03  0.82250233722E+03  0.25500000000E-02 0.  1.
    5000001    1    1    2    0    0  0.12904830387E+03 -0.40000140710E+02 -0.50082341598E+03  0.54433681667E+03  0.16500000000E+03 0.  0.
   -5000001    1    1    2    0    0 -0.12904830387E+03  0.40000140710E+02 -0.26201366261E+03  0.33783077921E+03  0.16500000000E+03 0.  0.
<mgrwt>
<rscale>  0 0.44305672E+03</rscale>
<asrwt>0</asrwt>
<pdfrwt beam="1">  1        2 0.11750033E+00 0.44305672E+03</pdfrwt>
<pdfrwt beam="2">  1       -2 0.85236089E-02 0.44305672E+03</pdfrwt>
<totfact> 0.32402112E+03</totfact>
</mgrwt>
</event>
<event>
 4    1  0.5323640E-005  0.4147064E+03  0.7818608E-02  0.1038803E+00
          2   -1    0    0  501    0  0.00000000000E+00  0.00000000000E+00  0.40022002889E+04  0.40022002889E+04  0.25500000000E-02 0.  1.
         -2   -1    0    0    0  501 -0.00000000000E+00 -0.00000000000E+00 -0.10742926466E+02  0.10742926769E+02  0.25500000000E-02 0. -1.
    5000001    1    1    2    0    0  0.40513161326E+02  0.10522359006E+03  0.14607065837E+04  0.14743140927E+04  0.16500000000E+03 0.  0.
   -5000001    1    1    2    0    0 -0.40513161326E+02 -0.10522359006E+03  0.25307507787E+04  0.25386291229E+04  0.16500000000E+03 0.  0.
<mgrwt>
<rscale>  0 0.41470637E+03</rscale>
<asrwt>0</asrwt>
<pdfrwt beam="1">  1        2 0.57174464E+00 0.41470637E+03</pdfrwt>
<pdfrwt beam="2">  1       -2 0.15346991E-02 0.41470637E+03</pdfrwt>
<totfact> 0.80142314E+02</totfact>
</mgrwt>
</event>
<event>
 4    1  0.5323640E-005  0.3972895E+03  0.7818608E-02  0.1044722E+00
          2   -1    0    0  501    0  0.00000000000E+00  0.00000000000E+00  0.18217296545E+04  0.18217296545E+04  0.25500000000E-02 0.  1.
         -2   -1    0    0    0  501 -0.00000000000E+00 -0.00000000000E+00 -0.21660587188E+02  0.21660587338E+02  0.25500000000E-02 0. -1.
    5000001    1    1    2    0    0  0.10825260772E+03 -0.15399849349E+02  0.82253934673E+03  0.84602113410E+03  0.16500000000E+03 0.  0.
   -5000001    1    1    2    0    0 -0.10825260772E+03  0.15399849349E+02  0.97752972058E+03  0.99736910773E+03  0.16500000000E+03 0.  0.
<mgrwt>
<rscale>  0 0.39728949E+03</rscale>
<asrwt>0</asrwt>
<pdfrwt beam="1">  1        2 0.26024712E+00 0.39728949E+03</pdfrwt>
<pdfrwt beam="2">  1       -2 0.30943693E-02 0.39728949E+03</pdfrwt>
<totfact> 0.43672592E+03</totfact>
</mgrwt>
</event>
<event>
 4    1  0.5323640E-005  0.5003729E+03  0.7818608E-02  0.1013682E+00
         -2   -1    0    0    0  501 -0.00000000000E+00  0.00000000000E+00  0.32150683152E+02  0.32150683253E+02  0.25500000000E-02 0. -1.
          2   -1    0    0  501    0  0.00000000000E+00 -0.00000000000E+00 -0.19468722034E+04  0.19468722034E+04  0.25500000000E-02 0.  1.
    5000001    1    1    2    0    0  0.89474859075E+02  0.15562237341E+03 -0.11791354267E+04  0.12040803245E+04  0.16500000000E+03 0.  0.
   -5000001    1    1    2    0    0 -0.89474859075E+02 -0.15562237341E+03 -0.73558609357E+03  0.77494256211E+03  0.16500000000E+03 0.  0.
<mgrwt>
<rscale>  0 0.50037295E+03</rscale>
<asrwt>0</asrwt>
<pdfrwt beam="1">  1        2 0.27812453E+00 0.50037295E+03</pdfrwt>
<pdfrwt beam="2">  1       -2 0.45929560E-02 0.50037295E+03</pdfrwt>
<totfact> 0.20690175E+03</totfact>
</mgrwt>
</event>
<event>
 4    1  0.5323640E-005  0.7880362E+03  0.7818608E-02  0.9577497E-01
         -2   -1    0    0    0  501 -0.00000000000E+00  0.00000000000E+00  0.27344469106E+03  0.27344469107E+03  0.25500000000E-02 0. -1.
          2   -1    0    0  501    0  0.00000000000E+00 -0.00000000000E+00 -0.56775749401E+03  0.56775749402E+03  0.25500000000E-02 0.  1.
    5000001    1    1    2    0    0  0.10089318109E+03  0.34173607789E+03 -0.18194813677E+03  0.43277373464E+03  0.16500000000E+03 0.  0.
   -5000001    1    1    2    0    0 -0.10089318109E+03 -0.34173607789E+03 -0.11236466619E+03  0.40842845044E+03  0.16500000000E+03 0.  0.
<mgrwt>
<rscale>  0 0.78803622E+03</rscale>
<asrwt>0</asrwt>
<pdfrwt beam="1">  1        2 0.81108213E-01 0.78803622E+03</pdfrwt>
<pdfrwt beam="2">  1       -2 0.39063527E-01 0.78803622E+03</pdfrwt>
<totfact> 0.36058966E+02</totfact>
</mgrwt>
</event>
<event>
 4    1  0.5323640E-005  0.7440930E+03  0.7818608E-02  0.9644663E-01
          2   -1    0    0  501    0  0.00000000000E+00  0.00000000000E+00  0.12110030489E+03  0.12110030492E+03  0.25500000000E-02 0.  1.
         -2   -1    0    0    0  501 -0.00000000000E+00 -0.00000000000E+00 -0.11430078677E+04  0.11430078677E+04  0.25500000000E-02 0. -1.
    5000001    1    1    2    0    0 -0.84653746653E+01  0.25997538337E+03 -0.15648745314E+03  0.34550280102E+03  0.16500000000E+03 0.  0.
   -5000001    1    1    2    0    0  0.84653746653E+01 -0.25997538337E+03 -0.86542010969E+03  0.91860537162E+03  0.16500000000E+03 0.  0.
<mgrwt>
<rscale>  0 0.74409301E+03</rscale>
<asrwt>0</asrwt>
<pdfrwt beam="1">  1        2 0.17300044E-01 0.74409301E+03</pdfrwt>
<pdfrwt beam="2">  1       -2 0.16328683E+00 0.74409301E+03</pdfrwt>
<totfact> 0.81450532E+01</totfact>
</mgrwt>
</event>
<event>
 4    1  0.5323640E-005  0.4152814E+03  0.7818608E-02  0.1038613E+00
         -2   -1    0    0    0  501 -0.00000000000E+00  0.00000000000E+00  0.39714730210E+02  0.39714730292E+02  0.25500000000E-02 0. -1.
          2   -1    0    0  501    0  0.00000000000E+00 -0.00000000000E+00 -0.10856088921E+04  0.10856088921E+04  0.25500000000E-02 0.  1.
    5000001    1    1    2    0    0  0.44652888508E+02 -0.11782094924E+03 -0.53308898626E+03  0.57208786371E+03  0.16500000000E+03 0.  0.
   -5000001    1    1    2    0    0 -0.44652888508E+02  0.11782094924E+03 -0.51280517559E+03  0.55323575865E+03  0.16500000000E+03 0.  0.
<mgrwt>
<rscale>  0 0.41528142E+03</rscale>
<asrwt>0</asrwt>
<pdfrwt beam="1">  1        2 0.15508697E+00 0.41528142E+03</pdfrwt>
<pdfrwt beam="2">  1       -2 0.56735336E-02 0.41528142E+03</pdfrwt>
<totfact> 0.42107081E+03</totfact>
</mgrwt>
</event>
<event>
 4    1  0.5323640E-005  0.6080772E+03  0.7818608E-02  0.9888789E-01
          2   -1    0    0  501    0  0.00000000000E+00  0.00000000000E+00  0.58928383249E+03  0.58928383249E+03  0.25500000000E-02 0.  1.
         -2   -1    0    0    0  501 -0.00000000000E+00 -0.00000000000E+00 -0.15686748098E+03  0.15686748100E+03  0.25500000000E-02 0. -1.
    5000001    1    1    2    0    0  0.24973454268E+03 -0.50534921097E+02  0.23722472856E+03  0.38525535934E+03  0.16500000000E+03 0.  0.
   -5000001    1    1    2    0    0 -0.24973454268E+03  0.50534921097E+02  0.19519162295E+03  0.36089595416E+03  0.16500000000E+03 0.  0.
<mgrwt>
<rscale>  0 0.60807720E+03</rscale>
<asrwt>0</asrwt>
<pdfrwt beam="1">  1        2 0.84183404E-01 0.60807720E+03</pdfrwt>
<pdfrwt beam="2">  1       -2 0.22409640E-01 0.60807720E+03</pdfrwt>
<totfact> 0.96937624E+02</totfact>
</mgrwt>
</event>
<event>
 4    1  0.5323640E-005  0.7849005E+03  0.7818608E-02  0.9582134E-01
         -2   -1    0    0    0  501 -0.00000000000E+00  0.00000000000E+00  0.89980447380E+02  0.89980447417E+02  0.25500000000E-02 0. -1.
          2   -1    0    0  501    0  0.00000000000E+00 -0.00000000000E+00 -0.17116739095E+04  0.17116739095E+04  0.25500000000E-02 0.  1.
    5000001    1    1    2    0    0  0.58972115773E+02  0.35109957205E+03 -0.79569640397E+03  0.88719016407E+03  0.16500000000E+03 0.  0.
   -5000001    1    1    2    0    0 -0.58972115773E+02 -0.35109957205E+03 -0.82599705816E+03  0.91446419286E+03  0.16500000000E+03 0.  0.
<mgrwt>
<rscale>  0 0.78490046E+03</rscale>
<asrwt>0</asrwt>
<pdfrwt beam="1">  1        2 0.24452483E+00 0.78490046E+03</pdfrwt>
<pdfrwt beam="2">  1       -2 0.12854351E-01 0.78490046E+03</pdfrwt>
<totfact> 0.51955770E+02</totfact>
</mgrwt>
</event>
<event>
 4    1  0.5323640E-005  0.7398237E+03  0.7818608E-02  0.9651452E-01
         -2   -1    0    0    0  501 -0.00000000000E+00  0.00000000000E+00  0.23668392098E+03  0.23668392100E+03  0.25500000000E-02 0. -1.
          2   -1    0    0  501    0  0.00000000000E+00 -0.00000000000E+00 -0.57813288982E+03  0.57813288982E+03  0.25500000000E-02 0.  1.
    5000001    1    1    2    0    0  0.65522767180E+02 -0.24013206787E+03 -0.41114826476E+03  0.50815798592E+03  0.16500000000E+03 0.  0.
   -5000001    1    1    2    0    0 -0.65522767180E+02  0.24013206787E+03  0.69699295923E+02  0.30665882490E+03  0.16500000000E+03 0.  0.
<mgrwt>
<rscale>  0 0.73982365E+03</rscale>
<asrwt>0</asrwt>
<pdfrwt beam="1">  1        2 0.82590412E-01 0.73982365E+03</pdfrwt>
<pdfrwt beam="2">  1       -2 0.33811989E-01 0.73982365E+03</pdfrwt>
<totfact> 0.46618427E+02</totfact>
</mgrwt>
</event>
<event>
 4    1  0.5323640E-005  0.4503637E+03  0.7818608E-02  0.1027614E+00
          2   -1    0    0  501    0  0.00000000000E+00  0.00000000000E+00  0.91683533103E+03  0.91683533103E+03  0.25500000000E-02 0.  1.
         -2   -1    0    0    0  501 -0.00000000000E+00 -0.00000000000E+00 -0.55306393936E+02  0.55306393995E+02  0.25500000000E-02 0. -1.
    5000001    1    1    2    0    0 -0.66191015652E+02 -0.32049702634E+02  0.14057179670E+03  0.22889705987E+03  0.16500000000E+03 0.  0.
   -5000001    1    1    2    0    0  0.66191015652E+02  0.32049702634E+02  0.72095714039E+03  0.74324466515E+03  0.16500000000E+03 0.  0.
<mgrwt>
<rscale>  0 0.45036366E+03</rscale>
<asrwt>0</asrwt>
<pdfrwt beam="1">  1        2 0.13097647E+00 0.45036366E+03</pdfrwt>
<pdfrwt beam="2">  1       -2 0.79009139E-02 0.45036366E+03</pdfrwt>
<totfact> 0.31722949E+03</totfact>
</mgrwt>
</event>
<event>
 4    1  0.5323640E-005  0.4683127E+03  0.7818608E-02  0.1022398E+00
         -2   -1    0    0    0  501 -0.00000000000E+00  0.00000000000E+00  0.40819349726E+02  0.40819349805E+02  0.25500000000E-02 0. -1.
          2   -1    0    0  501    0  0.00000000000E+00 -0.00000000000E+00 -0.13432159656E+04  0.13432159656E+04  0.25500000000E-02 0.  1.
    5000001    1    1    2    0    0  0.40365269940E+02 -0.12924287523E+03 -0.93576067565E+03  0.95979483115E+03  0.16500000000E+03 0.  0.
   -5000001    1    1    2    0    0 -0.40365269940E+02  0.12924287523E+03 -0.36663594020E+03  0.42424048423E+03  0.16500000000E+03 0.  0.
<mgrwt>
<rscale>  0 0.46831273E+03</rscale>
<asrwt>0</asrwt>
<pdfrwt beam="1">  1        2 0.19188797E+00 0.46831273E+03</pdfrwt>
<pdfrwt beam="2">  1       -2 0.58313365E-02 0.46831273E+03</pdfrwt>
<totfact> 0.29088947E+03</totfact>
</mgrwt>
</event>
<event>
 4    1  0.5323640E-005  0.5141459E+03  0.7818608E-02  0.1010151E+00
         -2   -1    0    0    0  501 -0.00000000000E+00  0.00000000000E+00  0.17119784933E+03  0.17119784935E+03  0.25500000000E-02 0. -1.
          2   -1    0    0  501    0  0.00000000000E+00 -0.00000000000E+00 -0.38602418948E+03  0.38602418949E+03  0.25500000000E-02 0.  1.
    5000001    1    1    2    0    0  0.16774828636E+03  0.98916592632E+02 -0.74228711693E+02  0.26581738377E+03  0.16500000000E+03 0.  0.
   -5000001    1    1    2    0    0 -0.16774828636E+03 -0.98916592632E+02 -0.14059762846E+03  0.29140465508E+03  0.16500000000E+03 0.  0.
<mgrwt>
<rscale>  0 0.51414594E+03</rscale>
<asrwt>0</asrwt>
<pdfrwt beam="1">  1        2 0.55146313E-01 0.51414594E+03</pdfrwt>
<pdfrwt beam="2">  1       -2 0.24456836E-01 0.51414594E+03</pdfrwt>
<totfact> 0.13401509E+03</totfact>
</mgrwt>
</event>
<event>
 4    1  0.5323640E-005  0.4939185E+03  0.7818608E-02  0.1015379E+00
          2   -1    0    0  501    0  0.00000000000E+00  0.00000000000E+00  0.97559272276E+03  0.97559272277E+03  0.25500000000E-02 0.  1.
         -2   -1    0    0    0  501 -0.00000000000E+00 -0.00000000000E+00 -0.62514689069E+02  0.62514689121E+02  0.25500000000E-02 0. -1.
    5000001    1    1    2    0    0 -0.16533761209E+03 -0.29362222926E+02  0.29974562802E+03  0.38114447081E+03  0.16500000000E+03 0.  0.
   -5000001    1    1    2    0    0  0.16533761209E+03  0.29362222926E+02  0.61333240567E+03  0.65696294108E+03  0.16500000000E+03 0.  0.
<mgrwt>
<rscale>  0 0.49391852E+03</rscale>
<asrwt>0</asrwt>
<pdfrwt beam="1">  1        2 0.13937038E+00 0.49391852E+03</pdfrwt>
<pdfrwt beam="2">  1       -2 0.89306705E-02 0.49391852E+03</pdfrwt>
<totfact> 0.24008153E+03</totfact>
</mgrwt>
</event>
<event>
 4    1  0.5323640E-005  0.5302371E+03  0.7818608E-02  0.1006175E+00
          2   -1    0    0  501    0  0.00000000000E+00  0.00000000000E+00  0.25158525437E+04  0.25158525437E+04  0.25500000000E-02 0.  1.
         -2   -1    0    0    0  501 -0.00000000000E+00 -0.00000000000E+00 -0.27937983483E+02  0.27937983600E+02  0.25500000000E-02 0. -1.
    5000001    1    1    2    0    0 -0.14211776442E+03 -0.81629515646E+02  0.18546119465E+04  0.18691365143E+04  0.16500000000E+03 0.  0.
   -5000001    1    1    2    0    0  0.14211776442E+03  0.81629515646E+02  0.63330261368E+03  0.67465401302E+03  0.16500000000E+03 0.  0.
<mgrwt>
<rscale>  0 0.53023711E+03</rscale>
<asrwt>0</asrwt>
<pdfrwt beam="1">  1        2 0.35940760E+00 0.53023711E+03</pdfrwt>
<pdfrwt beam="2">  1       -2 0.39911394E-02 0.53023711E+03</pdfrwt>
<totfact> 0.13258628E+03</totfact>
</mgrwt>
</event>
<event>
 4    1  0.5323640E-005  0.4627705E+03  0.7818608E-02  0.1023981E+00
          2   -1    0    0  501    0  0.00000000000E+00  0.00000000000E+00  0.19694071856E+04  0.19694071856E+04  0.25500000000E-02 0.  1.
         -2   -1    0    0    0  501 -0.00000000000E+00 -0.00000000000E+00 -0.27185401380E+02  0.27185401500E+02  0.25500000000E-02 0. -1.
    5000001    1    1    2    0    0  0.76922764928E+02 -0.41296262649E+02  0.15609688376E+04  0.15720913476E+04  0.16500000000E+03 0.  0.
   -5000001    1    1    2    0    0 -0.76922764928E+02  0.41296262649E+02  0.38125294657E+03  0.42450123951E+03  0.16500000000E+03 0.  0.
<mgrwt>
<rscale>  0 0.46277046E+03</rscale>
<asrwt>0</asrwt>
<pdfrwt beam="1">  1        2 0.28134391E+00 0.46277046E+03</pdfrwt>
<pdfrwt beam="2">  1       -2 0.38836285E-02 0.46277046E+03</pdfrwt>
<totfact> 0.26105019E+03</totfact>
</mgrwt>
</event>
<event>
 4    1  0.5323640E-005  0.4810811E+03  0.7818608E-02  0.1018838E+00
          2   -1    0    0  501    0  0.00000000000E+00  0.00000000000E+00  0.12441048274E+04  0.12441048274E+04  0.25500000000E-02 0.  1.
         -2   -1    0    0    0  501 -0.00000000000E+00 -0.00000000000E+00 -0.46507135268E+02  0.46507135338E+02  0.25500000000E-02 0. -1.
    5000001    1    1    2    0    0 -0.11700564585E+03  0.46982953764E+02  0.27312534112E+03  0.34310373222E+03  0.16500000000E+03 0.  0.
   -5000001    1    1    2    0    0  0.11700564585E+03 -0.46982953764E+02  0.92447235100E+03  0.94750823050E+03  0.16500000000E+03 0.  0.
<mgrwt>
<rscale>  0 0.48108108E+03</rscale>
<asrwt>0</asrwt>
<pdfrwt beam="1">  1        2 0.17772925E+00 0.48108108E+03</pdfrwt>
<pdfrwt beam="2">  1       -2 0.66438768E-02 0.48108108E+03</pdfrwt>
<totfact> 0.26841806E+03</totfact>
</mgrwt>
</event>
<event>
 4    1  0.5323640E-005  0.5776478E+03  0.7818608E-02  0.9952896E-01
          2   -1    0    0  501    0  0.00000000000E+00  0.00000000000E+00  0.11166262063E+04  0.11166262063E+04  0.25500000000E-02 0. -1.
         -2   -1    0    0    0  501 -0.00000000000E+00 -0.00000000000E+00 -0.74706516221E+02  0.74706516264E+02  0.25500000000E-02 0.  1.
    5000001    1    1    2    0    0  0.14450510129E+03 -0.18296311505E+03  0.60935486907E+03  0.67297517207E+03  0.16500000000E+03 0.  0.
   -5000001    1    1    2    0    0 -0.14450510129E+03  0.18296311505E+03  0.43256482097E+03  0.51835755045E+03  0.16500000000E+03 0.  0.
<mgrwt>
<rscale>  0 0.57764783E+03</rscale>
<asrwt>0</asrwt>
<pdfrwt beam="1">  1        2 0.15951804E+00 0.57764783E+03</pdfrwt>
<pdfrwt beam="2">  1       -2 0.10672359E-01 0.57764783E+03</pdfrwt>
<totfact> 0.14836940E+03</totfact>
</mgrwt>
</event>
<event>
 4    1  0.5323640E-005  0.4428536E+03  0.7818608E-02  0.1029875E+00
         -2   -1    0    0    0  501 -0.00000000000E+00  0.00000000000E+00  0.63987811341E+02  0.63987811392E+02  0.25500000000E-02 0. -1.
          2   -1    0    0  501    0  0.00000000000E+00 -0.00000000000E+00 -0.76623698950E+03  0.76623698950E+03  0.25500000000E-02 0.  1.
    5000001    1    1    2    0    0  0.12284490865E+03  0.67111042595E+02 -0.26299170548E+03  0.34056482609E+03  0.16500000000E+03 0.  0.
   -5000001    1    1    2    0    0 -0.12284490865E+03 -0.67111042595E+02 -0.43925747268E+03  0.48965997481E+03  0.16500000000E+03 0.  0.
<mgrwt>
<rscale>  0 0.44285360E+03</rscale>
<asrwt>0</asrwt>
<pdfrwt beam="1">  1        2 0.10946242E+00 0.44285360E+03</pdfrwt>
<pdfrwt beam="2">  1       -2 0.91411163E-02 0.44285360E+03</pdfrwt>
<totfact> 0.31690915E+03</totfact>
</mgrwt>
</event>
<event>
 4    1  0.5323640E-005  0.6576431E+03  0.7818608E-02  0.9792542E-01
         -2   -1    0    0    0  501 -0.00000000000E+00  0.00000000000E+00  0.99247381633E+02  0.99247381666E+02  0.25500000000E-02 0. -1.
          2   -1    0    0  501    0  0.00000000000E+00 -0.00000000000E+00 -0.10894353485E+04  0.10894353485E+04  0.25500000000E-02 0.  1.
    5000001    1    1    2    0    0 -0.25831737017E+03  0.11634969080E+03 -0.54058714379E+03  0.63223775141E+03  0.16500000000E+03 0.  0.
   -5000001    1    1    2    0    0  0.25831737017E+03 -0.11634969080E+03 -0.44960082311E+03  0.55644497879E+03  0.16500000000E+03 0.  0.
<mgrwt>
<rscale>  0 0.65764308E+03</rscale>
<asrwt>0</asrwt>
<pdfrwt beam="1">  1        2 0.15563361E+00 0.65764308E+03</pdfrwt>
<pdfrwt beam="2">  1       -2 0.14178198E-01 0.65764308E+03</pdfrwt>
<totfact> 0.96057958E+02</totfact>
</mgrwt>
</event>
<event>
 4    1  0.5323640E-005  0.4493294E+03  0.7818608E-02  0.1027922E+00
          2   -1    0    0  501    0  0.00000000000E+00  0.00000000000E+00  0.32809636943E+03  0.32809636944E+03  0.25500000000E-02 0.  1.
         -2   -1    0    0    0  501 -0.00000000000E+00 -0.00000000000E+00 -0.15383963713E+03  0.15383963715E+03  0.25500000000E-02 0. -1.
    5000001    1    1    2    0    0 -0.71368550332E+02  0.12199282132E+03  0.25761881433E+02  0.21877932481E+03  0.16500000000E+03 0.  0.
   -5000001    1    1    2    0    0  0.71368550332E+02 -0.12199282132E+03  0.14849485087E+03  0.26315668178E+03  0.16500000000E+03 0.  0.
<mgrwt>
<rscale>  0 0.44932940E+03</rscale>
<asrwt>0</asrwt>
<pdfrwt beam="1">  1        2 0.46870910E-01 0.44932940E+03</pdfrwt>
<pdfrwt beam="2">  1       -2 0.21977091E-01 0.44932940E+03</pdfrwt>
<totfact> 0.19341532E+03</totfact>
</mgrwt>
</event>
<event>
 4    1  0.5323640E-005  0.3555254E+03  0.7818608E-02  0.1060370E+00
          2   -1    0    0  501    0  0.00000000000E+00  0.00000000000E+00  0.13952719848E+04  0.13952719848E+04  0.25500000000E-02 0.  1.
         -2   -1    0    0    0  501 -0.00000000000E+00 -0.00000000000E+00 -0.22647613490E+02  0.22647613633E+02  0.25500000000E-02 0. -1.
    5000001    1    1    2    0    0  0.57176335996E+02 -0.62704568497E+01  0.81653460720E+03  0.83502228520E+03  0.16500000000E+03 0.  0.
   -5000001    1    1    2    0    0 -0.57176335996E+02  0.62704568497E+01  0.55608976409E+03  0.58289731321E+03  0.16500000000E+03 0.  0.
<mgrwt>
<rscale>  0 0.35552542E+03</rscale>
<asrwt>0</asrwt>
<pdfrwt beam="1">  1        2 0.19932464E+00 0.35552542E+03</pdfrwt>
<pdfrwt beam="2">  1       -2 0.32353722E-02 0.35552542E+03</pdfrwt>
<totfact> 0.67061681E+03</totfact>
</mgrwt>
</event>
<event>
 4    1  0.5323640E-005  0.5207599E+03  0.7818608E-02  0.1008498E+00
          2   -1    0    0  501    0  0.00000000000E+00  0.00000000000E+00  0.90771113610E+03  0.90771113611E+03  0.25500000000E-02 0.  1.
         -2   -1    0    0    0  501 -0.00000000000E+00 -0.00000000000E+00 -0.74690848676E+02  0.74690848720E+02  0.25500000000E-02 0. -1.
    5000001    1    1    2    0    0  0.17337357542E+03  0.52309455796E+02  0.25013563978E+03  0.35012499783E+03  0.16500000000E+03 0.  0.
   -5000001    1    1    2    0    0 -0.17337357542E+03 -0.52309455796E+02  0.58288464765E+03  0.63227698700E+03  0.16500000000E+03 0.  0.
<mgrwt>
<rscale>  0 0.52075989E+03</rscale>
<asrwt>0</asrwt>
<pdfrwt beam="1">  1        2 0.12967301E+00 0.52075989E+03</pdfrwt>
<pdfrwt beam="2">  1       -2 0.10670122E-01 0.52075989E+03</pdfrwt>
<totfact> 0.19871238E+03</totfact>
</mgrwt>
</event>
<event>
 4    1  0.5323640E-005  0.4159215E+03  0.7818608E-02  0.1038402E+00
         -2   -1    0    0    0  501 -0.00000000000E+00  0.00000000000E+00  0.27800662560E+03  0.27800662562E+03  0.25500000000E-02 0. -1.
          2   -1    0    0  501    0  0.00000000000E+00 -0.00000000000E+00 -0.15556346267E+03  0.15556346269E+03  0.25500000000E-02 0.  1.
    5000001    1    1    2    0    0  0.91714014740E+01 -0.10866315836E+03  0.12822069576E+03  0.23570605298E+03  0.16500000000E+03 0.  0.
   -5000001    1    1    2    0    0 -0.91714014740E+01  0.10866315836E+03 -0.57775328306E+01  0.19786403533E+03  0.16500000000E+03 0.  0.
<mgrwt>
<rscale>  0 0.41592150E+03</rscale>
<asrwt>0</asrwt>
<pdfrwt beam="1">  1        2 0.22223352E-01 0.41592150E+03</pdfrwt>
<pdfrwt beam="2">  1       -2 0.39715232E-01 0.41592150E+03</pdfrwt>
<totfact> 0.14979124E+03</totfact>
</mgrwt>
</event>
<event>
 4    1  0.5323640E-005  0.7621017E+03  0.7818608E-02  0.9616554E-01
          2   -1    0    0  501    0  0.00000000000E+00  0.00000000000E+00  0.42606293769E+03  0.42606293769E+03  0.25500000000E-02 0.  1.
         -2   -1    0    0    0  501 -0.00000000000E+00 -0.00000000000E+00 -0.34079416442E+03  0.34079416443E+03  0.25500000000E-02 0. -1.
    5000001    1    1    2    0    0 -0.21428215704E+03  0.26105218879E+03  0.10555193758E+03  0.39042451207E+03  0.16500000000E+03 0.  0.
   -5000001    1    1    2    0    0  0.21428215704E+03 -0.26105218879E+03 -0.20283164308E+02  0.37643259005E+03  0.16500000000E+03 0.  0.
<mgrwt>
<rscale>  0 0.76210173E+03</rscale>
<asrwt>0</asrwt>
<pdfrwt beam="1">  1        2 0.60866134E-01 0.76210173E+03</pdfrwt>
<pdfrwt beam="2">  1       -2 0.48684880E-01 0.76210173E+03</pdfrwt>
<totfact> 0.32411244E+02</totfact>
</mgrwt>
</event>
<event>
 4    1  0.5323640E-005  0.4377134E+03  0.7818608E-02  0.1031451E+00
          2   -1    0    0  501    0  0.00000000000E+00  0.00000000000E+00  0.26445949077E+03  0.26445949079E+03  0.25500000000E-02 0.  1.
         -2   -1    0    0    0  501 -0.00000000000E+00 -0.00000000000E+00 -0.18111757595E+03  0.18111757597E+03  0.25500000000E-02 0. -1.
    5000001    1    1    2    0    0 -0.13951754426E+03 -0.29361532780E+01  0.64150159704E+01  0.21619416870E+03  0.16500000000E+03 0.  0.
   -5000001    1    1    2    0    0  0.13951754426E+03  0.29361532780E+01  0.76926898852E+02  0.22938289805E+03  0.16500000000E+03 0.  0.
<mgrwt>
<rscale>  0 0.43771343E+03</rscale>
<asrwt>0</asrwt>
<pdfrwt beam="1">  1        2 0.37779928E-01 0.43771343E+03</pdfrwt>
<pdfrwt beam="2">  1       -2 0.25873939E-01 0.43771343E+03</pdfrwt>
<totfact> 0.18334638E+03</totfact>
</mgrwt>
</event>
<event>
 4    1  0.5323640E-005  0.6743075E+03  0.7818608E-02  0.9762207E-01
          2   -1    0    0  501    0  0.00000000000E+00  0.00000000000E+00  0.16371458948E+04  0.16371458948E+04  0.25500000000E-02 0.  1.
         -2   -1    0    0    0  501 -0.00000000000E+00 -0.00000000000E+00 -0.69433420749E+02  0.69433420796E+02  0.25500000000E-02 0. -1.
    5000001    1    1    2    0    0  0.16061771224E+03  0.24441892858E+03  0.86015985159E+03  0.92338433625E+03  0.16500000000E+03 0.  0.
   -5000001    1    1    2    0    0 -0.16061771224E+03 -0.24441892858E+03  0.70755262245E+03  0.78319497934E+03  0.16500000000E+03 0.  0.
<mgrwt>
<rscale>  0 0.67430747E+03</rscale>
<asrwt>0</asrwt>
<pdfrwt beam="1">  1        2 0.23387798E+00 0.67430747E+03</pdfrwt>
<pdfrwt beam="2">  1       -2 0.99190604E-02 0.67430747E+03</pdfrwt>
<totfact> 0.87388483E+02</totfact>
</mgrwt>
</event>
<event>
 4    1  0.5323640E-005  0.4646152E+03  0.7818608E-02  0.1023451E+00
         -2   -1    0    0    0  501 -0.00000000000E+00  0.00000000000E+00  0.85143102762E+03  0.85143102762E+03  0.25500000000E-02 0. -1.
          2   -1    0    0  501    0  0.00000000000E+00 -0.00000000000E+00 -0.63383677490E+02  0.63383677541E+02  0.25500000000E-02 0.  1.
    5000001    1    1    2    0    0 -0.13752735583E+03 -0.84200144347E+02  0.44752728844E+03  0.50349688362E+03  0.16500000000E+03 0.  0.
   -5000001    1    1    2    0    0  0.13752735583E+03  0.84200144347E+02  0.34052006168E+03  0.41131782154E+03  0.16500000000E+03 0.  0.
<mgrwt>
<rscale>  0 0.46461524E+03</rscale>
<asrwt>0</asrwt>
<pdfrwt beam="1">  1        2 0.90548114E-02 0.46461524E+03</pdfrwt>
<pdfrwt beam="2">  1       -2 0.12163300E+00 0.46461524E+03</pdfrwt>
<totfact> 0.39197005E+02</totfact>
</mgrwt>
</event>
<event>
 4    1  0.5323640E-005  0.5948729E+03  0.7818608E-02  0.9916101E-01
         -2   -1    0    0    0  501 -0.00000000000E+00  0.00000000000E+00  0.20695508923E+02  0.20695509080E+02  0.25500000000E-02 0. -1.
          2   -1    0    0  501    0  0.00000000000E+00 -0.00000000000E+00 -0.42747658917E+04  0.42747658917E+04  0.25500000000E-02 0.  1.
    5000001    1    1    2    0    0  0.21664015267E+03 -0.11892429638E+03 -0.20335789023E+04  0.20551749551E+04  0.16500000000E+03 0.  0.
   -5000001    1    1    2    0    0 -0.21664015267E+03  0.11892429638E+03 -0.22204914805E+04  0.22402864458E+04  0.16500000000E+03 0.  0.
<mgrwt>
<rscale>  0 0.59487295E+03</rscale>
<asrwt>0</asrwt>
<pdfrwt beam="1">  1        2 0.61068028E+00 0.59487295E+03</pdfrwt>
<pdfrwt beam="2">  1       -2 0.29565040E-02 0.59487295E+03</pdfrwt>
<totfact> 0.18900149E+02</totfact>
</mgrwt>
</event>
<event>
 4    1  0.5323640E-005  0.8170875E+03  0.7818608E-02  0.9535608E-01
         -2   -1    0    0    0  501 -0.00000000000E+00  0.00000000000E+00  0.36898545378E+03  0.36898545379E+03  0.25500000000E-02 0. -1.
          2   -1    0    0  501    0  0.00000000000E+00 -0.00000000000E+00 -0.45234305290E+03  0.45234305291E+03  0.25500000000E-02 0.  1.
    5000001    1    1    2    0    0 -0.25382670071E+03  0.79156913451E+02 -0.30570003360E+03  0.43746007987E+03  0.16500000000E+03 0.  0.
   -5000001    1    1    2    0    0  0.25382670071E+03 -0.79156913451E+02  0.22234243448E+03  0.38386842682E+03  0.16500000000E+03 0.  0.
<mgrwt>
<rscale>  0 0.81708753E+03</rscale>
<asrwt>0</asrwt>
<pdfrwt beam="1">  1        2 0.64620436E-01 0.81708753E+03</pdfrwt>
<pdfrwt beam="2">  1       -2 0.52712208E-01 0.81708753E+03</pdfrwt>
<totfact> 0.25713098E+02</totfact>
</mgrwt>
</event>
<event>
 4    1  0.5323640E-005  0.5471469E+03  0.7818608E-02  0.1002156E+00
         -2   -1    0    0    0  501 -0.00000000000E+00  0.00000000000E+00  0.32225746582E+02  0.32225746683E+02  0.25500000000E-02 0. -1.
          2   -1    0    0  501    0  0.00000000000E+00 -0.00000000000E+00 -0.23224419308E+04  0.23224419308E+04  0.25500000000E-02 0.  1.
    5000001    1    1    2    0    0 -0.64723078436E+02 -0.20639209917E+03 -0.10210758281E+04  0.10566965611E+04  0.16500000000E+03 0.  0.
   -5000001    1    1    2    0    0  0.64723078436E+02  0.20639209917E+03 -0.12691403561E+04  0.12979711164E+04  0.16500000000E+03 0.  0.
<mgrwt>
<rscale>  0 0.54714687E+03</rscale>
<asrwt>0</asrwt>
<pdfrwt beam="1">  1        2 0.33177731E+00 0.54714687E+03</pdfrwt>
<pdfrwt beam="2">  1       -2 0.46036796E-02 0.54714687E+03</pdfrwt>
<totfact> 0.13335303E+03</totfact>
</mgrwt>
</event>
<event>
 4    1  0.5323640E-005  0.4715254E+03  0.7818608E-02  0.1021491E+00
          2   -1    0    0  501    0  0.00000000000E+00  0.00000000000E+00  0.60011301201E+03  0.60011301201E+03  0.25500000000E-02 0.  1.
         -2   -1    0    0    0  501 -0.00000000000E+00 -0.00000000000E+00 -0.92622643938E+02  0.92622643973E+02  0.25500000000E-02 0. -1.
    5000001    1    1    2    0    0  0.14513720510E+03  0.84475772215E+02  0.27221718256E+03  0.35990020683E+03  0.16500000000E+03 0.  0.
   -5000001    1    1    2    0    0 -0.14513720510E+03 -0.84475772215E+02  0.23527318551E+03  0.33283544916E+03  0.16500000000E+03 0.  0.
<mgrwt>
<rscale>  0 0.47152541E+03</rscale>
<asrwt>0</asrwt>
<pdfrwt beam="1">  1        2 0.85730430E-01 0.47152541E+03</pdfrwt>
<pdfrwt beam="2">  1       -2 0.13231806E-01 0.47152541E+03</pdfrwt>
<totfact> 0.23331712E+03</totfact>
</mgrwt>
</event>
<event>
 4    1  0.5323640E-005  0.7842402E+03  0.7818608E-02  0.9583113E-01
          2   -1    0    0  501    0  0.00000000000E+00  0.00000000000E+00  0.38768508535E+03  0.38768508536E+03  0.25500000000E-02 0.  1.
         -2   -1    0    0    0  501 -0.00000000000E+00 -0.00000000000E+00 -0.39660588252E+03  0.39660588253E+03  0.25500000000E-02 0. -1.
    5000001    1    1    2    0    0 -0.12896921379E+03  0.27161937674E+03  0.18561252308E+03  0.38998352869E+03  0.16500000000E+03 0.  0.
   -5000001    1    1    2    0    0  0.12896921379E+03 -0.27161937674E+03 -0.19453332025E+03  0.39430743920E+03  0.16500000000E+03 0.  0.
<mgrwt>
<rscale>  0 0.78424023E+03</rscale>
<asrwt>0</asrwt>
<pdfrwt beam="1">  1        2 0.55383584E-01 0.78424023E+03</pdfrwt>
<pdfrwt beam="2">  1       -2 0.56657983E-01 0.78424023E+03</pdfrwt>
<totfact> 0.26362379E+02</totfact>
</mgrwt>
</event>
<event>
 4    1  0.5323640E-005  0.5175193E+03  0.7818608E-02  0.1009305E+00
          2   -1    0    0  501    0  0.00000000000E+00  0.00000000000E+00  0.91246139735E+03  0.91246139735E+03  0.25500000000E-02 0.  1.
         -2   -1    0    0    0  501 -0.00000000000E+00 -0.00000000000E+00 -0.73380161959E+02  0.73380162004E+02  0.25500000000E-02 0. -1.
    5000001    1    1    2    0    0  0.32606133941E+02 -0.14150209352E+02  0.79316167489E+03  0.81092159357E+03  0.16500000000E+03 0.  0.
   -5000001    1    1    2    0    0 -0.32606133941E+02  0.14150209352E+02  0.45919560497E+02  0.17491996579E+03  0.16500000000E+03 0.  0.
<mgrwt>
<rscale>  0 0.51751933E+03</rscale>
<asrwt>0</asrwt>
<pdfrwt beam="1">  1        2 0.13035162E+00 0.51751933E+03</pdfrwt>
<pdfrwt beam="2">  1       -2 0.10482881E-01 0.51751933E+03</pdfrwt>
<totfact> 0.20308551E+03</totfact>
</mgrwt>
</event>
<event>
 4    1  0.5323640E-005  0.7711927E+03  0.7818608E-02  0.9602677E-01
          2   -1    0    0  501    0  0.00000000000E+00  0.00000000000E+00  0.59669568090E+03  0.59669568091E+03  0.25500000000E-02 0.  1.
         -2   -1    0    0    0  501 -0.00000000000E+00 -0.00000000000E+00 -0.24917986519E+03  0.24917986520E+03  0.25500000000E-02 0. -1.
    5000001    1    1    2    0    0 -0.21360921571E+03  0.17263028814E+03 -0.61563468665E+02  0.32625936630E+03  0.16500000000E+03 0.  0.
   -5000001    1    1    2    0    0  0.21360921571E+03 -0.17263028814E+03  0.40907928438E+03  0.51961617982E+03  0.16500000000E+03 0.  0.
<mgrwt>
<rscale>  0 0.77119271E+03</rscale>
<asrwt>0</asrwt>
<pdfrwt beam="1">  1        2 0.85242240E-01 0.77119271E+03</pdfrwt>
<pdfrwt beam="2">  1       -2 0.35597124E-01 0.77119271E+03</pdfrwt>
<totfact> 0.40690847E+02</totfact>
</mgrwt>
</event>
<event>
 4    1  0.5323640E-005  0.4756194E+03  0.7818608E-02  0.1020346E+00
          2   -1    0    0  501    0  0.00000000000E+00  0.00000000000E+00  0.39464123459E+03  0.39464123460E+03  0.25500000000E-02 0.  1.
         -2   -1    0    0    0  501 -0.00000000000E+00 -0.00000000000E+00 -0.14330346970E+03  0.14330346972E+03  0.25500000000E-02 0. -1.
    5000001    1    1    2    0    0  0.75805844688E+02  0.14690713455E+03  0.75084368062E+02  0.24533832680E+03  0.16500000000E+03 0.  0.
   -5000001    1    1    2    0    0 -0.75805844688E+02 -0.14690713455E+03  0.17625339684E+03  0.29260637752E+03  0.16500000000E+03 0.  0.
<mgrwt>
<rscale>  0 0.47561942E+03</rscale>
<asrwt>0</asrwt>
<pdfrwt beam="1">  1        2 0.56377320E-01 0.47561942E+03</pdfrwt>
<pdfrwt beam="2">  1       -2 0.20471924E-01 0.47561942E+03</pdfrwt>
<totfact> 0.17882130E+03</totfact>
</mgrwt>
</event>
<event>
 4    1  0.5323640E-005  0.4103307E+03  0.7818608E-02  0.1040260E+00
          2   -1    0    0  501    0  0.00000000000E+00  0.00000000000E+00  0.10837535436E+03  0.10837535439E+03  0.25500000000E-02 0.  1.
         -2   -1    0    0    0  501 -0.00000000000E+00 -0.00000000000E+00 -0.38839849618E+03  0.38839849619E+03  0.25500000000E-02 0. -1.
    5000001    1    1    2    0    0  0.15131329637E+01 -0.10812965810E+03 -0.71809937216E+02  0.20994280082E+03  0.16500000000E+03 0.  0.
   -5000001    1    1    2    0    0 -0.15131329637E+01  0.10812965810E+03 -0.20821320461E+03  0.28683104976E+03  0.16500000000E+03 0.  0.
<mgrwt>
<rscale>  0 0.41033072E+03</rscale>
<asrwt>0</asrwt>
<pdfrwt beam="1">  1        2 0.15482194E-01 0.41033072E+03</pdfrwt>
<pdfrwt beam="2">  1       -2 0.55485499E-01 0.41033072E+03</pdfrwt>
<totfact> 0.11760898E+03</totfact>
</mgrwt>
</event>
<event>
 4    1  0.5323640E-005  0.5637031E+03  0.7818608E-02  0.9983710E-01
         -2   -1    0    0    0  501 -0.00000000000E+00  0.00000000000E+00  0.28524067325E+03  0.28524067326E+03  0.25500000000E-02 0. -1.
          2   -1    0    0  501    0  0.00000000000E+00 -0.00000000000E+00 -0.27850271410E+03  0.27850271411E+03  0.25500000000E-02 0.  1.
    5000001    1    1    2    0    0  0.53134846436E+02 -0.21643388134E+03 -0.47115957552E+02  0.28126828892E+03  0.16500000000E+03 0.  0.
   -5000001    1    1    2    0    0 -0.53134846436E+02  0.21643388134E+03  0.53853916702E+02  0.28247509844E+03  0.16500000000E+03 0.  0.
<mgrwt>
<rscale>  0 0.56370312E+03</rscale>
<asrwt>0</asrwt>
<pdfrwt beam="1">  1        2 0.39786102E-01 0.56370312E+03</pdfrwt>
<pdfrwt beam="2">  1       -2 0.40748668E-01 0.56370312E+03</pdfrwt>
<totfact> 0.74259519E+02</totfact>
</mgrwt>
</event>
<event>
 4    1  0.5323640E-005  0.5278135E+03  0.7818608E-02  0.1006764E+00
          2   -1    0    0  501    0  0.00000000000E+00  0.00000000000E+00  0.18696342574E+03  0.18696342576E+03  0.25500000000E-02 0.  1.
         -2   -1    0    0    0  501 -0.00000000000E+00 -0.00000000000E+00 -0.37251546008E+03  0.37251546009E+03  0.25500000000E-02 0. -1.
    5000001    1    1    2    0    0  0.15751182032E+03 -0.13127579447E+03 -0.72154883476E+02  0.27290041217E+03  0.16500000000E+03 0.  0.
   -5000001    1    1    2    0    0 -0.15751182032E+03  0.13127579447E+03 -0.11339715086E+03  0.28657847368E+03  0.16500000000E+03 0.  0.
<mgrwt>
<rscale>  0 0.52781348E+03</rscale>
<asrwt>0</asrwt>
<pdfrwt beam="1">  1        2 0.26709061E-01 0.52781348E+03</pdfrwt>
<pdfrwt beam="2">  1       -2 0.53216494E-01 0.52781348E+03</pdfrwt>
<totfact> 0.68027489E+02</totfact>
</mgrwt>
</event>
<event>
 4    1  0.5323640E-005  0.7968010E+03  0.7818608E-02  0.9564659E-01
         -2   -1    0    0    0  501 -0.00000000000E+00  0.00000000000E+00  0.20725505355E+03  0.20725505356E+03  0.25500000000E-02 0. -1.
          2   -1    0    0  501    0  0.00000000000E+00 -0.00000000000E+00 -0.76583389928E+03  0.76583389928E+03  0.25500000000E-02 0.  1.
    5000001    1    1    2    0    0 -0.33390908519E+03  0.16082827896E+02 -0.10768819767E+03  0.38804082574E+03  0.16500000000E+03 0.  0.
   -5000001    1    1    2    0    0  0.33390908519E+03 -0.16082827896E+02 -0.45089064805E+03  0.58504812710E+03  0.16500000000E+03 0.  0.
<mgrwt>
<rscale>  0 0.79680097E+03</rscale>
<asrwt>0</asrwt>
<pdfrwt beam="1">  1        2 0.10940484E+00 0.79680097E+03</pdfrwt>
<pdfrwt beam="2">  1       -2 0.29607865E-01 0.79680097E+03</pdfrwt>
<totfact> 0.42357421E+02</totfact>
</mgrwt>
</event>
<event>
 4    1  0.5323640E-005  0.6349865E+03  0.7818608E-02  0.9835366E-01
          2   -1    0    0  501    0  0.00000000000E+00  0.00000000000E+00  0.53308767933E+03  0.53308767933E+03  0.25500000000E-02 0.  1.
         -2   -1    0    0    0  501 -0.00000000000E+00 -0.00000000000E+00 -0.18909075596E+03  0.18909075598E+03  0.25500000000E-02 0. -1.
    5000001    1    1    2    0    0  0.73053314725E+02 -0.26042639442E+03  0.14873884892E+03  0.35000991255E+03  0.16500000000E+03 0.  0.
   -5000001    1    1    2    0    0 -0.73053314725E+02  0.26042639442E+03  0.19525807444E+03  0.37216852277E+03  0.16500000000E+03 0.  0.
<mgrwt>
<rscale>  0 0.63498646E+03</rscale>
<asrwt>0</asrwt>
<pdfrwt beam="1">  1        2 0.76155383E-01 0.63498646E+03</pdfrwt>
<pdfrwt beam="2">  1       -2 0.27012965E-01 0.63498646E+03</pdfrwt>
<totfact> 0.77876724E+02</totfact>
</mgrwt>
</event>
<event>
 4    1  0.5323640E-005  0.4151364E+03  0.7818608E-02  0.1038661E+00
         -2   -1    0    0    0  501 -0.00000000000E+00  0.00000000000E+00  0.74861014969E+03  0.74861014970E+03  0.25500000000E-02 0. -1.
          2   -1    0    0  501    0  0.00000000000E+00 -0.00000000000E+00 -0.57552728803E+02  0.57552728859E+02  0.25500000000E-02 0.  1.
    5000001    1    1    2    0    0  0.28144929829E+02  0.10258957763E+03  0.47641486816E+03  0.51527942431E+03  0.16500000000E+03 0.  0.
   -5000001    1    1    2    0    0 -0.28144929829E+02 -0.10258957763E+03  0.21464255273E+03  0.29088345425E+03  0.16500000000E+03 0.  0.
<mgrwt>
<rscale>  0 0.41513640E+03</rscale>
<asrwt>0</asrwt>
<pdfrwt beam="1">  1        2 0.82218188E-02 0.41513640E+03</pdfrwt>
<pdfrwt beam="2">  1       -2 0.10694430E+00 0.41513640E+03</pdfrwt>
<totfact> 0.60532120E+02</totfact>
</mgrwt>
</event>
<event>
 4    1  0.5323640E-005  0.4023523E+03  0.7818608E-02  0.1042968E+00
         -2   -1    0    0    0  501 -0.00000000000E+00  0.00000000000E+00  0.14394802767E+02  0.14394802993E+02  0.25500000000E-02 0. -1.
          2   -1    0    0  501    0  0.00000000000E+00 -0.00000000000E+00 -0.28115594266E+04  0.28115594266E+04  0.25500000000E-02 0.  1.
    5000001    1    1    2    0    0 -0.11037661285E+03  0.31621363087E+02 -0.14547430688E+04  0.14685657301E+04  0.16500000000E+03 0.  0.
   -5000001    1    1    2    0    0  0.11037661285E+03 -0.31621363087E+02 -0.13424215551E+04  0.13573884996E+04  0.16500000000E+03 0.  0.
<mgrwt>
<rscale>  0 0.40235230E+03</rscale>
<asrwt>0</asrwt>
<pdfrwt beam="1">  1        2 0.40165100E+00 0.40235230E+03</pdfrwt>
<pdfrwt beam="2">  1       -2 0.20564022E-02 0.40235230E+03</pdfrwt>
<totfact> 0.25589078E+03</totfact>
</mgrwt>
</event>
<event>
 4    1  0.5323640E-005  0.5503694E+03  0.7818608E-02  0.1001408E+00
         -2   -1    0    0    0  501 -0.00000000000E+00  0.00000000000E+00  0.31737962946E+03  0.31737962947E+03  0.25500000000E-02 0. -1.
          2   -1    0    0  501    0  0.00000000000E+00 -0.00000000000E+00 -0.23859947438E+03  0.23859947440E+03  0.25500000000E-02 0.  1.
    5000001    1    1    2    0    0 -0.15348190237E+02  0.16265868194E+03 -0.10979112676E+03  0.25685113445E+03  0.16500000000E+03 0.  0.
   -5000001    1    1    2    0    0  0.15348190237E+02 -0.16265868194E+03  0.18857128183E+03  0.29912796941E+03  0.16500000000E+03 0.  0.
<mgrwt>
<rscale>  0 0.55036938E+03</rscale>
<asrwt>0</asrwt>
<pdfrwt beam="1">  1        2 0.34085639E-01 0.55036938E+03</pdfrwt>
<pdfrwt beam="2">  1       -2 0.45339947E-01 0.55036938E+03</pdfrwt>
<totfact> 0.71466635E+02</totfact>
</mgrwt>
</event>
<event>
 4    1  0.5323640E-005  0.9630473E+03  0.7818608E-02  0.9350029E-01
         -2   -1    0    0    0  501 -0.00000000000E+00  0.00000000000E+00  0.10418004910E+03  0.10418004913E+03  0.25500000000E-02 0. -1.
          2   -1    0    0  501    0  0.00000000000E+00 -0.00000000000E+00 -0.22256183207E+04  0.22256183207E+04  0.25500000000E-02 0.  1.
    5000001    1    1    2    0    0 -0.18071325580E+03  0.33967879593E+03 -0.48516920806E+03  0.64082222627E+03  0.16500000000E+03 0.  0.
   -5000001    1    1    2    0    0  0.18071325580E+03 -0.33967879593E+03 -0.16362690636E+04  0.16889761436E+04  0.16500000000E+03 0.  0.
<mgrwt>
<rscale>  0 0.96304730E+03</rscale>
<asrwt>0</asrwt>
<pdfrwt beam="1">  1        2 0.31794545E+00 0.96304730E+03</pdfrwt>
<pdfrwt beam="2">  1       -2 0.14882866E-01 0.96304730E+03</pdfrwt>
<totfact> 0.21962830E+02</totfact>
</mgrwt>
</event>
<event>
 4    1  0.5323640E-005  0.4281727E+03  0.7818608E-02  0.1034439E+00
          2   -1    0    0  501    0  0.00000000000E+00  0.00000000000E+00  0.46736393513E+03  0.46736393514E+03  0.25500000000E-02 0.  1.
         -2   -1    0    0    0  501 -0.00000000000E+00 -0.00000000000E+00 -0.98066959353E+02  0.98066959386E+02  0.25500000000E-02 0. -1.
    5000001    1    1    2    0    0  0.12199019824E+03 -0.59871989521E+02  0.20036803617E+03  0.29298227508E+03  0.16500000000E+03 0.  0.
   -5000001    1    1    2    0    0 -0.12199019824E+03  0.59871989521E+02  0.16892893962E+03  0.27244861944E+03  0.16500000000E+03 0.  0.
<mgrwt>
<rscale>  0 0.42817268E+03</rscale>
<asrwt>0</asrwt>
<pdfrwt beam="1">  1        2 0.66766277E-01 0.42817268E+03</pdfrwt>
<pdfrwt beam="2">  1       -2 0.14009565E-01 0.42817268E+03</pdfrwt>
<totfact> 0.28186452E+03</totfact>
</mgrwt>
</event>
<event>
 4    1  0.5323640E-005  0.9240717E+03  0.7818608E-02  0.9395981E-01
         -2   -1    0    0    0  501 -0.00000000000E+00  0.00000000000E+00  0.21255987169E+03  0.21255987170E+03  0.25500000000E-02 0. -1.
          2   -1    0    0  501    0  0.00000000000E+00 -0.00000000000E+00 -0.10043152984E+04  0.10043152984E+04  0.25500000000E-02 0.  1.
    5000001    1    1    2    0    0 -0.85628384949E+01 -0.43092795733E+03 -0.42472584608E+03  0.62720751824E+03  0.16500000000E+03 0.  0.
   -5000001    1    1    2    0    0  0.85628384949E+01  0.43092795733E+03 -0.36702958065E+03  0.58966765189E+03  0.16500000000E+03 0.  0.
<mgrwt>
<rscale>  0 0.92407171E+03</rscale>
<asrwt>0</asrwt>
<pdfrwt beam="1">  1        2 0.14347361E+00 0.92407171E+03</pdfrwt>
<pdfrwt beam="2">  1       -2 0.30365696E-01 0.92407171E+03</pdfrwt>
<totfact> 0.27945359E+02</totfact>
</mgrwt>
</event>
<event>
 4    1  0.5323640E-005  0.6882216E+03  0.7818608E-02  0.9737590E-01
          2   -1    0    0  501    0  0.00000000000E+00  0.00000000000E+00  0.11379440881E+04  0.11379440881E+04  0.25500000000E-02 0.  1.
         -2   -1    0    0    0  501 -0.00000000000E+00 -0.00000000000E+00 -0.10405805095E+03  0.10405805098E+03  0.25500000000E-02 0. -1.
    5000001    1    1    2    0    0 -0.11223486842E+03  0.19914870760E+03  0.16087061921E+03  0.32459394565E+03  0.16500000000E+03 0.  0.
   -5000001    1    1    2    0    0  0.11223486842E+03 -0.19914870760E+03  0.87301541795E+03  0.91740819345E+03  0.16500000000E+03 0.  0.
<mgrwt>
<rscale>  0 0.68822160E+03</rscale>
<asrwt>0</asrwt>
<pdfrwt beam="1">  1        2 0.16256343E+00 0.68822160E+03</pdfrwt>
<pdfrwt beam="2">  1       -2 0.14865437E-01 0.68822160E+03</pdfrwt>
<totfact> 0.83053582E+02</totfact>
</mgrwt>
</event>
<event>
 4    1  0.5323640E-005  0.5540448E+03  0.7818608E-02  0.1000562E+00
          2   -1    0    0  501    0  0.00000000000E+00  0.00000000000E+00  0.72165777587E+03  0.72165777587E+03  0.25500000000E-02 0.  1.
         -2   -1    0    0    0  501 -0.00000000000E+00 -0.00000000000E+00 -0.10634045273E+03  0.10634045276E+03  0.25500000000E-02 0. -1.
    5000001    1    1    2    0    0  0.19842106765E+03  0.97143273259E+02  0.26787458424E+03  0.38443403662E+03  0.16500000000E+03 0.  0.
   -5000001    1    1    2    0    0 -0.19842106765E+03 -0.97143273259E+02  0.34744273890E+03  0.44356419202E+03  0.16500000000E+03 0.  0.
<mgrwt>
<rscale>  0 0.55404482E+03</rscale>
<asrwt>0</asrwt>
<pdfrwt beam="1">  1        2 0.10309397E+00 0.55404482E+03</pdfrwt>
<pdfrwt beam="2">  1       -2 0.15191493E-01 0.55404482E+03</pdfrwt>
<totfact> 0.14864036E+03</totfact>
</mgrwt>
</event>
<event>
 4    1  0.5323640E-005  0.4557407E+03  0.7818608E-02  0.1026024E+00
         -2   -1    0    0    0  501 -0.00000000000E+00  0.00000000000E+00  0.18879298316E+02  0.18879298488E+02  0.25500000000E-02 0. -1.
          2   -1    0    0  501    0  0.00000000000E+00 -0.00000000000E+00 -0.27503620443E+04  0.27503620443E+04  0.25500000000E-02 0.  1.
    5000001    1    1    2    0    0  0.10754365144E+03  0.59906429871E+02 -0.19594071730E+04  0.19701918401E+04  0.16500000000E+03 0.  0.
   -5000001    1    1    2    0    0 -0.10754365144E+03 -0.59906429871E+02 -0.77207557304E+03  0.79904950272E+03  0.16500000000E+03 0.  0.
<mgrwt>
<rscale>  0 0.45574074E+03</rscale>
<asrwt>0</asrwt>
<pdfrwt beam="1">  1        2 0.39290861E+00 0.45574074E+03</pdfrwt>
<pdfrwt beam="2">  1       -2 0.26970444E-02 0.45574074E+03</pdfrwt>
<totfact> 0.18284733E+03</totfact>
</mgrwt>
</event>
<event>
 4    1  0.5323640E-005  0.4463424E+03  0.7818608E-02  0.1028818E+00
         -2   -1    0    0    0  501 -0.00000000000E+00  0.00000000000E+00  0.48129706190E+02  0.48129706258E+02  0.25500000000E-02 0. -1.
          2   -1    0    0  501    0  0.00000000000E+00 -0.00000000000E+00 -0.10348159323E+04  0.10348159323E+04  0.25500000000E-02 0.  1.
    5000001    1    1    2    0    0 -0.14515912691E+03 -0.36625915003E+02 -0.52476837370E+03  0.57010479371E+03  0.16500000000E+03 0.  0.
   -5000001    1    1    2    0    0  0.14515912691E+03  0.36625915003E+02 -0.46191785243E+03  0.51284084487E+03  0.16500000000E+03 0.  0.
<mgrwt>
<rscale>  0 0.44634241E+03</rscale>
<asrwt>0</asrwt>
<pdfrwt beam="1">  1        2 0.14783083E+00 0.44634241E+03</pdfrwt>
<pdfrwt beam="2">  1       -2 0.68756729E-02 0.44634241E+03</pdfrwt>
<totfact> 0.33443185E+03</totfact>
</mgrwt>
</event>
<event>
 4    1  0.5323640E-005  0.3816278E+03  0.7818608E-02  0.1050334E+00
         -2   -1    0    0    0  501 -0.00000000000E+00  0.00000000000E+00  0.72038582653E+02  0.72038582698E+02  0.25500000000E-02 0. -1.
          2   -1    0    0  501    0  0.00000000000E+00 -0.00000000000E+00 -0.50542273903E+03  0.50542273904E+03  0.25500000000E-02 0.  1.
    5000001    1    1    2    0    0  0.27090877200E+02  0.60768957063E+02 -0.32106846890E+03  0.36706503987E+03  0.16500000000E+03 0.  0.
   -5000001    1    1    2    0    0 -0.27090877200E+02 -0.60768957063E+02 -0.11231568747E+03  0.21039628187E+03  0.16500000000E+03 0.  0.
<mgrwt>
<rscale>  0 0.38162777E+03</rscale>
<asrwt>0</asrwt>
<pdfrwt beam="1">  1        2 0.72203246E-01 0.38162777E+03</pdfrwt>
<pdfrwt beam="2">  1       -2 0.10291226E-01 0.38162777E+03</pdfrwt>
<totfact> 0.42630940E+03</totfact>
</mgrwt>
</event>
<event>
 4    1  0.5323640E-005  0.4776476E+03  0.7818608E-02  0.1019784E+00
         -2   -1    0    0    0  501 -0.00000000000E+00  0.00000000000E+00  0.13470713994E+02  0.13470714236E+02  0.25500000000E-02 0. -1.
          2   -1    0    0  501    0  0.00000000000E+00 -0.00000000000E+00 -0.42341332164E+04  0.42341332164E+04  0.25500000000E-02 0.  1.
    5000001    1    1    2    0    0  0.77978590450E+02  0.14097400960E+03 -0.15580153959E+04  0.15749893034E+04  0.16500000000E+03 0.  0.
   -5000001    1    1    2    0    0 -0.77978590450E+02 -0.14097400960E+03 -0.26626471066E+04  0.26726146273E+04  0.16500000000E+03 0.  0.
<mgrwt>
<rscale>  0 0.47764756E+03</rscale>
<asrwt>0</asrwt>
<pdfrwt beam="1">  1        2 0.60487532E+00 0.47764756E+03</pdfrwt>
<pdfrwt beam="2">  1       -2 0.19243904E-02 0.47764756E+03</pdfrwt>
<totfact> 0.39336351E+02</totfact>
</mgrwt>
</event>
<event>
 4    1  0.5323640E-005  0.4510291E+03  0.7818608E-02  0.1027416E+00
          2   -1    0    0  501    0  0.00000000000E+00  0.00000000000E+00  0.21762354402E+04  0.21762354402E+04  0.25500000000E-02 0.  1.
         -2   -1    0    0    0  501 -0.00000000000E+00 -0.00000000000E+00 -0.23369172085E+02  0.23369172224E+02  0.25500000000E-02 0. -1.
    5000001    1    1    2    0    0  0.81297208907E+02  0.12487114392E+03  0.12608390796E+04  0.12802898982E+04  0.16500000000E+03 0.  0.
   -5000001    1    1    2    0    0 -0.81297208907E+02 -0.12487114392E+03  0.89202718852E+03  0.91931471424E+03  0.16500000000E+03 0.  0.
<mgrwt>
<rscale>  0 0.45102914E+03</rscale>
<asrwt>0</asrwt>
<pdfrwt beam="1">  1        2 0.31089060E+00 0.45102914E+03</pdfrwt>
<pdfrwt beam="2">  1       -2 0.33384550E-02 0.45102914E+03</pdfrwt>
<totfact> 0.25932848E+03</totfact>
</mgrwt>
</event>
<event>
 4    1  0.5323640E-005  0.1005968E+04  0.7818608E-02  0.9302023E-01
          2   -1    0    0  501    0  0.00000000000E+00  0.00000000000E+00  0.30891636708E+04  0.30891636708E+04  0.25500000000E-02 0.  1.
         -2   -1    0    0    0  501 -0.00000000000E+00 -0.00000000000E+00 -0.81896931580E+02  0.81896931620E+02  0.25500000000E-02 0. -1.
    5000001    1    1    2    0    0 -0.43459378044E+03 -0.19756527034E+02  0.21059184538E+04  0.21567057306E+04  0.16500000000E+03 0.  0.
   -5000001    1    1    2    0    0  0.43459378044E+03  0.19756527034E+02  0.90134828544E+03  0.10143548718E+04  0.16500000000E+03 0.  0.
<mgrwt>
<rscale>  0 0.10059682E+04</rscale>
<asrwt>0</asrwt>
<pdfrwt beam="1">  1        2 0.44130905E+00 0.10059682E+04</pdfrwt>
<pdfrwt beam="2">  1       -2 0.11699563E-01 0.10059682E+04</pdfrwt>
<totfact> 0.11398269E+02</totfact>
</mgrwt>
</event>
<event>
 4    1  0.5323640E-005  0.5273247E+03  0.7818608E-02  0.1006883E+00
         -2   -1    0    0    0  501 -0.00000000000E+00  0.00000000000E+00  0.37178169994E+02  0.37178170081E+02  0.25500000000E-02 0. -1.
          2   -1    0    0  501    0  0.00000000000E+00 -0.00000000000E+00 -0.18698560667E+04  0.18698560667E+04  0.25500000000E-02 0.  1.
    5000001    1    1    2    0    0  0.11890716082E+03  0.16389994929E+03 -0.78641281650E+03  0.82865687967E+03  0.16500000000E+03 0.  0.
   -5000001    1    1    2    0    0 -0.11890716082E+03 -0.16389994929E+03 -0.10462650802E+04  0.10783773571E+04  0.16500000000E+03 0.  0.
<mgrwt>
<rscale>  0 0.52732467E+03</rscale>
<asrwt>0</asrwt>
<pdfrwt beam="1">  1        2 0.26712224E+00 0.52732467E+03</pdfrwt>
<pdfrwt beam="2">  1       -2 0.53111683E-02 0.52732467E+03</pdfrwt>
<totfact> 0.18043696E+03</totfact>
</mgrwt>
</event>
<event>
 4    1  0.5323640E-005  0.4441234E+03  0.7818608E-02  0.1029489E+00
         -2   -1    0    0    0  501 -0.00000000000E+00  0.00000000000E+00  0.28973433349E+02  0.28973433461E+02  0.25500000000E-02 0.  1.
          2   -1    0    0  501    0  0.00000000000E+00 -0.00000000000E+00 -0.17019524107E+04  0.17019524107E+04  0.25500000000E-02 0. -1.
    5000001    1    1    2    0    0  0.81270508199E+02 -0.11551995922E+03 -0.10166424084E+04  0.10395847936E+04  0.16500000000E+03 0.  0.
   -5000001    1    1    2    0    0 -0.81270508199E+02  0.11551995922E+03 -0.65633656891E+03  0.69134105054E+03  0.16500000000E+03 0.  0.
<mgrwt>
<rscale>  0 0.44412343E+03</rscale>
<asrwt>0</asrwt>
<pdfrwt beam="1">  1        2 0.24313600E+00 0.44412343E+03</pdfrwt>
<pdfrwt beam="2">  1       -2 0.41390630E-02 0.44412343E+03</pdfrwt>
<totfact> 0.32230959E+03</totfact>
</mgrwt>
</event>
<event>
 4    1  0.5323640E-005  0.3811048E+03  0.7818608E-02  0.1050526E+00
          2   -1    0    0  501    0  0.00000000000E+00  0.00000000000E+00  0.16446577450E+04  0.16446577450E+04  0.25500000000E-02 0.  1.
         -2   -1    0    0    0  501 -0.00000000000E+00 -0.00000000000E+00 -0.22077672344E+02  0.22077672491E+02  0.25500000000E-02 0. -1.
    5000001    1    1    2    0    0 -0.74657298064E+02  0.43635436734E+02  0.98663414958E+03  0.10040665857E+04  0.16500000000E+03 0.  0.
   -5000001    1    1    2    0    0  0.74657298064E+02 -0.43635436734E+02  0.63594592309E+03  0.66266883177E+03  0.16500000000E+03 0.  0.
<mgrwt>
<rscale>  0 0.38110479E+03</rscale>
<asrwt>0</asrwt>
<pdfrwt beam="1">  1        2 0.23495109E+00 0.38110479E+03</pdfrwt>
<pdfrwt beam="2">  1       -2 0.31539534E-02 0.38110479E+03</pdfrwt>
<totfact> 0.52013197E+03</totfact>
</mgrwt>
</event>
<event>
 4    1  0.5323640E-005  0.4010043E+03  0.7818608E-02  0.1043432E+00
          2   -1    0    0  501    0  0.00000000000E+00  0.00000000000E+00  0.82529015880E+03  0.82529015881E+03  0.25500000000E-02 0.  1.
         -2   -1    0    0    0  501 -0.00000000000E+00 -0.00000000000E+00 -0.48711490924E+02  0.48711490991E+02  0.25500000000E-02 0. -1.
    5000001    1    1    2    0    0 -0.89533582531E+02  0.70391627900E+02  0.38347931317E+03  0.43272696624E+03  0.16500000000E+03 0.  0.
   -5000001    1    1    2    0    0  0.89533582531E+02 -0.70391627900E+02  0.39309935471E+03  0.44127468356E+03  0.16500000000E+03 0.  0.
<mgrwt>
<rscale>  0 0.40100431E+03</rscale>
<asrwt>0</asrwt>
<pdfrwt beam="1">  1        2 0.11789860E+00 0.40100431E+03</pdfrwt>
<pdfrwt beam="2">  1       -2 0.69587843E-02 0.40100431E+03</pdfrwt>
<totfact> 0.44366719E+03</totfact>
</mgrwt>
</event>
<event>
 4    1  0.5323640E-005  0.5173751E+03  0.7818608E-02  0.1009341E+00
         -2   -1    0    0    0  501 -0.00000000000E+00  0.00000000000E+00  0.50250093363E+02  0.50250093427E+02  0.25500000000E-02 0. -1.
          2   -1    0    0  501    0  0.00000000000E+00 -0.00000000000E+00 -0.13317240515E+04  0.13317240515E+04  0.25500000000E-02 0.  1.
    5000001    1    1    2    0    0  0.24714431366E+02  0.18309549151E+03 -0.83990154258E+03  0.87566795269E+03  0.16500000000E+03 0.  0.
   -5000001    1    1    2    0    0 -0.24714431366E+02 -0.18309549151E+03 -0.44157241560E+03  0.50630619228E+03  0.16500000000E+03 0.  0.
<mgrwt>
<rscale>  0 0.51737514E+03</rscale>
<asrwt>0</asrwt>
<pdfrwt beam="1">  1        2 0.19024627E+00 0.51737514E+03</pdfrwt>
<pdfrwt beam="2">  1       -2 0.71785856E-02 0.51737514E+03</pdfrwt>
<totfact> 0.21295251E+03</totfact>
</mgrwt>
</event>
<event>
 4    1  0.5323640E-005  0.5350651E+03  0.7818608E-02  0.1005011E+00
         -2   -1    0    0    0  501 -0.00000000000E+00  0.00000000000E+00  0.30630643614E+02  0.30630643720E+02  0.25500000000E-02 0. -1.
          2   -1    0    0  501    0  0.00000000000E+00 -0.00000000000E+00 -0.23366686485E+04  0.23366686485E+04  0.25500000000E-02 0.  1.
    5000001    1    1    2    0    0 -0.77180379950E+02  0.18432224792E+03 -0.85897099614E+03  0.89721105340E+03  0.16500000000E+03 0.  0.
   -5000001    1    1    2    0    0  0.77180379950E+02 -0.18432224792E+03 -0.14470670087E+04  0.14700882388E+04  0.16500000000E+03 0.  0.
<mgrwt>
<rscale>  0 0.53506510E+03</rscale>
<asrwt>0</asrwt>
<pdfrwt beam="1">  1        2 0.33380969E+00 0.53506510E+03</pdfrwt>
<pdfrwt beam="2">  1       -2 0.43758077E-02 0.53506510E+03</pdfrwt>
<totfact> 0.14193844E+03</totfact>
</mgrwt>
</event>
<event>
 4    1  0.5323640E-005  0.4147780E+03  0.7818608E-02  0.1038779E+00
         -2   -1    0    0    0  501 -0.00000000000E+00  0.00000000000E+00  0.11037861536E+03  0.11037861539E+03  0.25500000000E-02 0. -1.
          2   -1    0    0  501    0  0.00000000000E+00 -0.00000000000E+00 -0.38966063272E+03  0.38966063273E+03  0.25500000000E-02 0.  1.
    5000001    1    1    2    0    0  0.12207775329E+03  0.28437418710E+02 -0.12930293135E+03  0.24424559911E+03  0.16500000000E+03 0.  0.
   -5000001    1    1    2    0    0 -0.12207775329E+03 -0.28437418710E+02 -0.14997908600E+03  0.25579364900E+03  0.16500000000E+03 0.  0.
<mgrwt>
<rscale>  0 0.41477802E+03</rscale>
<asrwt>0</asrwt>
<pdfrwt beam="1">  1        2 0.55665804E-01 0.41477802E+03</pdfrwt>
<pdfrwt beam="2">  1       -2 0.15768374E-01 0.41477802E+03</pdfrwt>
<totfact> 0.28273963E+03</totfact>
</mgrwt>
</event>
<event>
 4    1  0.5323640E-005  0.4864708E+03  0.7818608E-02  0.1017372E+00
          2   -1    0    0  501    0  0.00000000000E+00  0.00000000000E+00  0.19338120393E+04  0.19338120393E+04  0.25500000000E-02 0.  1.
         -2   -1    0    0    0  501 -0.00000000000E+00 -0.00000000000E+00 -0.30594210567E+02  0.30594210674E+02  0.25500000000E-02 0. -1.
    5000001    1    1    2    0    0 -0.13747629658E+03  0.19627590383E+02  0.14058427901E+04  0.14222882707E+04  0.16500000000E+03 0.  0.
   -5000001    1    1    2    0    0  0.13747629658E+03 -0.19627590383E+02  0.49737503863E+03  0.54211797930E+03  0.16500000000E+03 0.  0.
<mgrwt>
<rscale>  0 0.48647077E+03</rscale>
<asrwt>0</asrwt>
<pdfrwt beam="1">  1        2 0.27625896E+00 0.48647077E+03</pdfrwt>
<pdfrwt beam="2">  1       -2 0.43705999E-02 0.48647077E+03</pdfrwt>
<totfact> 0.22679165E+03</totfact>
</mgrwt>
</event>
<event>
 4    1  0.5323640E-005  0.6058711E+03  0.7818608E-02  0.9893300E-01
          2   -1    0    0  501    0  0.00000000000E+00  0.00000000000E+00  0.28184031857E+04  0.28184031857E+04  0.25500000000E-02 0.  1.
         -2   -1    0    0    0  501 -0.00000000000E+00 -0.00000000000E+00 -0.32560971230E+02  0.32560971330E+02  0.25500000000E-02 0. -1.
    5000001    1    1    2    0    0  0.17453652439E+03  0.89583986403E+02  0.63334574912E+03  0.68325699915E+03  0.16500000000E+03 0.  0.
   -5000001    1    1    2    0    0 -0.17453652439E+03 -0.89583986403E+02  0.21524964653E+04  0.21677071579E+04  0.16500000000E+03 0.  0.
<mgrwt>
<rscale>  0 0.60587109E+03</rscale>
<asrwt>0</asrwt>
<pdfrwt beam="1">  1        2 0.40262899E+00 0.60587109E+03</pdfrwt>
<pdfrwt beam="2">  1       -2 0.46515678E-02 0.60587109E+03</pdfrwt>
<totfact> 0.72437847E+02</totfact>
</mgrwt>
</event>
<event>
 4    1  0.5323640E-005  0.6849522E+03  0.7818608E-02  0.9743318E-01
         -2   -1    0    0    0  501 -0.00000000000E+00  0.00000000000E+00  0.38573478479E+02  0.38573478564E+02  0.25500000000E-02 0. -1.
          2   -1    0    0  501    0  0.00000000000E+00 -0.00000000000E+00 -0.30406870690E+04  0.30406870690E+04  0.25500000000E-02 0.  1.
    5000001    1    1    2    0    0  0.76868799974E+02 -0.22265458179E+03 -0.66505932470E+03  0.72457765669E+03  0.16500000000E+03 0.  0.
   -5000001    1    1    2    0    0 -0.76868799974E+02  0.22265458179E+03 -0.23370542659E+04  0.23546828909E+04  0.16500000000E+03 0.  0.
<mgrwt>
<rscale>  0 0.68495219E+03</rscale>
<asrwt>0</asrwt>
<pdfrwt beam="1">  1        2 0.43438371E+00 0.68495219E+03</pdfrwt>
<pdfrwt beam="2">  1       -2 0.55104989E-02 0.68495219E+03</pdfrwt>
<totfact> 0.41913867E+02</totfact>
</mgrwt>
</event>
<event>
 4    1  0.5323640E-005  0.5514524E+03  0.7818608E-02  0.1001158E+00
          2   -1    0    0  501    0  0.00000000000E+00  0.00000000000E+00  0.34377223115E+04  0.34377223115E+04  0.25500000000E-02 0.  1.
         -2   -1    0    0    0  501 -0.00000000000E+00 -0.00000000000E+00 -0.22114912230E+02  0.22114912377E+02  0.25500000000E-02 0. -1.
    5000001    1    1    2    0    0  0.12094875563E+02 -0.19652554466E+03  0.23361909910E+04  0.23502727336E+04  0.16500000000E+03 0.  0.
   -5000001    1    1    2    0    0 -0.12094875563E+02  0.19652554466E+03  0.10794164083E+04  0.11095644903E+04  0.16500000000E+03 0.  0.
<mgrwt>
<rscale>  0 0.55145236E+03</rscale>
<asrwt>0</asrwt>
<pdfrwt beam="1">  1        2 0.49110301E+00 0.55145236E+03</pdfrwt>
<pdfrwt beam="2">  1       -2 0.31592743E-02 0.55145236E+03</pdfrwt>
<totfact> 0.59683986E+02</totfact>
</mgrwt>
</event>
<event>
 4    1  0.5323640E-005  0.4083987E+03  0.7818608E-02  0.1040910E+00
          2   -1    0    0  501    0  0.00000000000E+00  0.00000000000E+00  0.88380080426E+03  0.88380080426E+03  0.25500000000E-02 0.  1.
         -2   -1    0    0    0  501 -0.00000000000E+00 -0.00000000000E+00 -0.47179603305E+02  0.47179603374E+02  0.25500000000E-02 0. -1.
    5000001    1    1    2    0    0  0.18255938911E+02  0.11824082804E+03  0.38963862572E+03  0.43972426744E+03  0.16500000000E+03 0.  0.
   -5000001    1    1    2    0    0 -0.18255938911E+02 -0.11824082804E+03  0.44698257523E+03  0.49125614020E+03  0.16500000000E+03 0.  0.
<mgrwt>
<rscale>  0 0.40839868E+03</rscale>
<asrwt>0</asrwt>
<pdfrwt beam="1">  1        2 0.12625723E+00 0.40839868E+03</pdfrwt>
<pdfrwt beam="2">  1       -2 0.67399446E-02 0.40839868E+03</pdfrwt>
<totfact> 0.42706005E+03</totfact>
</mgrwt>
</event>
<event>
 4    1  0.5323640E-005  0.3646196E+03  0.7818608E-02  0.1056770E+00
          2   -1    0    0  501    0  0.00000000000E+00  0.00000000000E+00  0.21589593348E+03  0.21589593350E+03  0.25500000000E-02 0.  1.
         -2   -1    0    0    0  501 -0.00000000000E+00 -0.00000000000E+00 -0.15394850207E+03  0.15394850209E+03  0.25500000000E-02 0. -1.
    5000001    1    1    2    0    0  0.68985601733E+02  0.21179707642E+02  0.59739617016E+02  0.18974038870E+03  0.16500000000E+03 0.  0.
   -5000001    1    1    2    0    0 -0.68985601733E+02 -0.21179707642E+02  0.22078143911E+01  0.18010404689E+03  0.16500000000E+03 0.  0.
<mgrwt>
<rscale>  0 0.36461956E+03</rscale>
<asrwt>0</asrwt>
<pdfrwt beam="1">  1        2 0.30842276E-01 0.36461956E+03</pdfrwt>
<pdfrwt beam="2">  1       -2 0.21992643E-01 0.36461956E+03</pdfrwt>
<totfact> 0.30469421E+03</totfact>
</mgrwt>
</event>
<event>
 4    1  0.5323640E-005  0.5574785E+03  0.7818608E-02  0.9997776E-01
          2   -1    0    0  501    0  0.00000000000E+00  0.00000000000E+00  0.13007331854E+03  0.13007331857E+03  0.25500000000E-02 0.  1.
         -2   -1    0    0    0  501 -0.00000000000E+00 -0.00000000000E+00 -0.59732139025E+03  0.59732139025E+03  0.25500000000E-02 0. -1.
    5000001    1    1    2    0    0 -0.16066587629E+03  0.29955939821E+02 -0.32500723183E+02  0.23450411327E+03  0.16500000000E+03 0.  0.
   -5000001    1    1    2    0    0  0.16066587629E+03 -0.29955939821E+02 -0.43474734852E+03  0.49289059555E+03  0.16500000000E+03 0.  0.
<mgrwt>
<rscale>  0 0.55747852E+03</rscale>
<asrwt>0</asrwt>
<pdfrwt beam="1">  1        2 0.18581903E-01 0.55747852E+03</pdfrwt>
<pdfrwt beam="2">  1       -2 0.85331625E-01 0.55747852E+03</pdfrwt>
<totfact> 0.37400091E+02</totfact>
</mgrwt>
</event>
<event>
 4    1  0.5323640E-005  0.7085046E+03  0.7818608E-02  0.9702798E-01
         -2   -1    0    0    0  501 -0.00000000000E+00  0.00000000000E+00  0.20149012920E+03  0.20149012921E+03  0.25500000000E-02 0. -1.
          2   -1    0    0  501    0  0.00000000000E+00 -0.00000000000E+00 -0.62283302821E+03  0.62283302821E+03  0.25500000000E-02 0.  1.
    5000001    1    1    2    0    0 -0.17120576284E+03 -0.99691026105E+02 -0.49332495641E+03  0.55663653000E+03  0.16500000000E+03 0.  0.
   -5000001    1    1    2    0    0  0.17120576284E+03  0.99691026105E+02  0.71982057404E+02  0.26768662742E+03  0.16500000000E+03 0.  0.
<mgrwt>
<rscale>  0 0.70850464E+03</rscale>
<asrwt>0</asrwt>
<pdfrwt beam="1">  1        2 0.88976146E-01 0.70850464E+03</pdfrwt>
<pdfrwt beam="2">  1       -2 0.28784304E-01 0.70850464E+03</pdfrwt>
<totfact> 0.57687182E+02</totfact>
</mgrwt>
</event>
<event>
 4    1  0.5323640E-005  0.7046452E+03  0.7818608E-02  0.9709321E-01
          2   -1    0    0  501    0  0.00000000000E+00  0.00000000000E+00  0.98102224394E+03  0.98102224394E+03  0.25500000000E-02 0.  1.
         -2   -1    0    0    0  501 -0.00000000000E+00 -0.00000000000E+00 -0.12653251879E+03  0.12653251881E+03  0.25500000000E-02 0. -1.
    5000001    1    1    2    0    0  0.27664772051E+03  0.14239396255E+03  0.44266233380E+03  0.56567211669E+03  0.16500000000E+03 0.  0.
   -5000001    1    1    2    0    0 -0.27664772051E+03 -0.14239396255E+03  0.41182739135E+03  0.54188264606E+03  0.16500000000E+03 0.  0.
<mgrwt>
<rscale>  0 0.70464520E+03</rscale>
<asrwt>0</asrwt>
<pdfrwt beam="1">  1        2 0.14014603E+00 0.70464520E+03</pdfrwt>
<pdfrwt beam="2">  1       -2 0.18076074E-01 0.70464520E+03</pdfrwt>
<totfact> 0.73763513E+02</totfact>
</mgrwt>
</event>
<event>
 4    1  0.5323640E-005  0.4615018E+03  0.7818608E-02  0.1024347E+00
          2   -1    0    0  501    0  0.00000000000E+00  0.00000000000E+00  0.12575026158E+03  0.12575026160E+03  0.25500000000E-02 0.  1.
         -2   -1    0    0    0  501 -0.00000000000E+00 -0.00000000000E+00 -0.42342639206E+03  0.42342639207E+03  0.25500000000E-02 0. -1.
    5000001    1    1    2    0    0 -0.20706026204E+01 -0.10646659246E+03 -0.29302460380E+03  0.35274330771E+03  0.16500000000E+03 0.  0.
   -5000001    1    1    2    0    0  0.20706026204E+01  0.10646659246E+03 -0.46515266924E+01  0.19643334596E+03  0.16500000000E+03 0.  0.
<mgrwt>
<rscale>  0 0.46150181E+03</rscale>
<asrwt>0</asrwt>
<pdfrwt beam="1">  1        2 0.17964323E-01 0.46150181E+03</pdfrwt>
<pdfrwt beam="2">  1       -2 0.60489484E-01 0.46150181E+03</pdfrwt>
<totfact> 0.82461836E+02</totfact>
</mgrwt>
</event>
<event>
 4    1  0.5323640E-005  0.5148670E+03  0.7818608E-02  0.1009970E+00
          2   -1    0    0  501    0  0.00000000000E+00  0.00000000000E+00  0.35972730470E+03  0.35972730470E+03  0.25500000000E-02 0.  1.
         -2   -1    0    0    0  501 -0.00000000000E+00 -0.00000000000E+00 -0.18422847414E+03  0.18422847416E+03  0.25500000000E-02 0. -1.
    5000001    1    1    2    0    0 -0.19310980207E+03  0.34512241480E+02  0.62647379072E+02  0.26387910977E+03  0.16500000000E+03 0.  0.
   -5000001    1    1    2    0    0  0.19310980207E+03 -0.34512241480E+02  0.11285145148E+03  0.28007666909E+03  0.16500000000E+03 0.  0.
<mgrwt>
<rscale>  0 0.51486702E+03</rscale>
<asrwt>0</asrwt>
<pdfrwt beam="1">  1        2 0.51389615E-01 0.51486702E+03</pdfrwt>
<pdfrwt beam="2">  1       -2 0.26318353E-01 0.51486702E+03</pdfrwt>
<totfact> 0.12700128E+03</totfact>
</mgrwt>
</event>
<event>
 4    1  0.5323640E-005  0.3981575E+03  0.7818608E-02  0.1044420E+00
         -2   -1    0    0    0  501 -0.00000000000E+00  0.00000000000E+00  0.36524737429E+02  0.36524737518E+02  0.25500000000E-02 0. -1.
          2   -1    0    0  501    0  0.00000000000E+00 -0.00000000000E+00 -0.10850825755E+04  0.10850825755E+04  0.25500000000E-02 0.  1.
    5000001    1    1    2    0    0  0.48759810210E+02 -0.98661691886E+02 -0.57272037480E+03  0.60609015521E+03  0.16500000000E+03 0.  0.
   -5000001    1    1    2    0    0 -0.48759810210E+02  0.98661691886E+02 -0.47583746325E+03  0.51551715779E+03  0.16500000000E+03 0.  0.
<mgrwt>
<rscale>  0 0.39815754E+03</rscale>
<asrwt>0</asrwt>
<pdfrwt beam="1">  1        2 0.15501178E+00 0.39815754E+03</pdfrwt>
<pdfrwt beam="2">  1       -2 0.52178203E-02 0.39815754E+03</pdfrwt>
<totfact> 0.47925703E+03</totfact>
</mgrwt>
</event>
<event>
 4    1  0.5323640E-005  0.3475003E+03  0.7818608E-02  0.1063646E+00
          2   -1    0    0  501    0  0.00000000000E+00  0.00000000000E+00  0.16641370263E+04  0.16641370263E+04  0.25500000000E-02 0.  1.
         -2   -1    0    0    0  501 -0.00000000000E+00 -0.00000000000E+00 -0.18141001329E+02  0.18141001509E+02  0.25500000000E-02 0. -1.
    5000001    1    1    2    0    0 -0.36168551568E+02 -0.32913099477E+02  0.70714773795E+03  0.72778730377E+03  0.16500000000E+03 0.  0.
   -5000001    1    1    2    0    0  0.36168551568E+02  0.32913099477E+02  0.93884828704E+03  0.95449072406E+03  0.16500000000E+03 0.  0.
<mgrwt>
<rscale>  0 0.34750029E+03</rscale>
<asrwt>0</asrwt>
<pdfrwt beam="1">  1        2 0.23773379E+00 0.34750029E+03</pdfrwt>
<pdfrwt beam="2">  1       -2 0.25915724E-02 0.34750029E+03</pdfrwt>
<totfact> 0.68216552E+03</totfact>
</mgrwt>
</event>
<event>
 4    1  0.5323640E-005  0.7503025E+03  0.7818608E-02  0.9634876E-01
         -2   -1    0    0    0  501 -0.00000000000E+00  0.00000000000E+00  0.70453811364E+02  0.70453811410E+02  0.25500000000E-02 0. -1.
          2   -1    0    0  501    0  0.00000000000E+00 -0.00000000000E+00 -0.19975989367E+04  0.19975989367E+04  0.25500000000E-02 0.  1.
    5000001    1    1    2    0    0  0.19211822991E+03 -0.21995690755E+03 -0.14266214382E+04  0.14655252244E+04  0.16500000000E+03 0.  0.
   -5000001    1    1    2    0    0 -0.19211822991E+03  0.21995690755E+03 -0.50052368717E+03  0.60252752373E+03  0.16500000000E+03 0.  0.
<mgrwt>
<rscale>  0 0.75030250E+03</rscale>
<asrwt>0</asrwt>
<pdfrwt beam="1">  1        2 0.28537124E+00 0.75030250E+03</pdfrwt>
<pdfrwt beam="2">  1       -2 0.10064831E-01 0.75030250E+03</pdfrwt>
<totfact> 0.55729377E+02</totfact>
</mgrwt>
</event>
<event>
 4    1  0.5323640E-005  0.5181441E+03  0.7818608E-02  0.1009149E+00
          2   -1    0    0  501    0  0.00000000000E+00  0.00000000000E+00  0.13419195366E+03  0.13419195369E+03  0.25500000000E-02 0.  1.
         -2   -1    0    0    0  501 -0.00000000000E+00 -0.00000000000E+00 -0.50016647966E+03  0.50016647967E+03  0.25500000000E-02 0. -1.
    5000001    1    1    2    0    0 -0.75106120154E+02 -0.16440992768E+03 -0.78945950305E+02  0.25715562734E+03  0.16500000000E+03 0.  0.
   -5000001    1    1    2    0    0  0.75106120154E+02  0.16440992768E+03 -0.28702857570E+03  0.37720280602E+03  0.16500000000E+03 0.  0.
<mgrwt>
<rscale>  0 0.51814406E+03</rscale>
<asrwt>0</asrwt>
<pdfrwt beam="1">  1        2 0.19170279E-01 0.51814406E+03</pdfrwt>
<pdfrwt beam="2">  1       -2 0.71452353E-01 0.51814406E+03</pdfrwt>
<totfact> 0.53518164E+02</totfact>
</mgrwt>
</event>
<event>
 4    1  0.5323640E-005  0.3505388E+03  0.7818608E-02  0.1062394E+00
          2   -1    0    0  501    0  0.00000000000E+00  0.00000000000E+00  0.19450763957E+03  0.19450763958E+03  0.25500000000E-02 0.  1.
         -2   -1    0    0    0  501 -0.00000000000E+00 -0.00000000000E+00 -0.15793395636E+03  0.15793395638E+03  0.25500000000E-02 0. -1.
    5000001    1    1    2    0    0  0.11821826924E+02 -0.55081899083E+02  0.36289057660E+02  0.17808892976E+03  0.16500000000E+03 0.  0.
   -5000001    1    1    2    0    0 -0.11821826924E+02  0.55081899083E+02  0.28462555264E+00  0.17435266620E+03  0.16500000000E+03 0.  0.
<mgrwt>
<rscale>  0 0.35053879E+03</rscale>
<asrwt>0</asrwt>
<pdfrwt beam="1">  1        2 0.27786806E-01 0.35053879E+03</pdfrwt>
<pdfrwt beam="2">  1       -2 0.22561993E-01 0.35053879E+03</pdfrwt>
<totfact> 0.32686820E+03</totfact>
</mgrwt>
</event>
<event>
 4    1  0.5323640E-005  0.5168002E+03  0.7818608E-02  0.1009485E+00
         -2   -1    0    0    0  501 -0.00000000000E+00  0.00000000000E+00  0.66647729355E+03  0.66647729355E+03  0.25500000000E-02 0. -1.
          2   -1    0    0  501    0  0.00000000000E+00 -0.00000000000E+00 -0.10018435659E+03  0.10018435662E+03  0.25500000000E-02 0.  1.
    5000001    1    1    2    0    0  0.12307685479E+03  0.12153358613E+03  0.13758957544E+03  0.27581554708E+03  0.16500000000E+03 0.  0.
   -5000001    1    1    2    0    0 -0.12307685479E+03 -0.12153358613E+03  0.42870336152E+03  0.49084610309E+03  0.16500000000E+03 0.  0.
<mgrwt>
<rscale>  0 0.51680015E+03</rscale>
<asrwt>0</asrwt>
<pdfrwt beam="1">  1        2 0.14312051E-01 0.51680015E+03</pdfrwt>
<pdfrwt beam="2">  1       -2 0.95211042E-01 0.51680015E+03</pdfrwt>
<totfact> 0.39785598E+02</totfact>
</mgrwt>
</event>
<event>
 4    1  0.5323640E-005  0.4349453E+03  0.7818608E-02  0.1032309E+00
          2   -1    0    0  501    0  0.00000000000E+00  0.00000000000E+00  0.89848898645E+02  0.89848898681E+02  0.25500000000E-02 0.  1.
         -2   -1    0    0    0  501 -0.00000000000E+00 -0.00000000000E+00 -0.52637656628E+03  0.52637656628E+03  0.25500000000E-02 0. -1.
    5000001    1    1    2    0    0 -0.12514059416E+03 -0.57219561557E+02 -0.17053029529E+03  0.27429879355E+03  0.16500000000E+03 0.  0.
   -5000001    1    1    2    0    0  0.12514059416E+03  0.57219561557E+02 -0.26599737234E+03  0.34192667141E+03  0.16500000000E+03 0.  0.
<mgrwt>
<rscale>  0 0.43494531E+03</rscale>
<asrwt>0</asrwt>
<pdfrwt beam="1">  1        2 0.12835557E-01 0.43494531E+03</pdfrwt>
<pdfrwt beam="2">  1       -2 0.75196651E-01 0.43494531E+03</pdfrwt>
<totfact> 0.77409263E+02</totfact>
</mgrwt>
</event>
<event>
 4    1  0.5323640E-005  0.4093068E+03  0.7818608E-02  0.1040604E+00
         -2   -1    0    0    0  501 -0.00000000000E+00  0.00000000000E+00  0.55217699565E+04  0.55217699565E+04  0.25500000000E-02 0. -1.
          2   -1    0    0  501    0  0.00000000000E+00 -0.00000000000E+00 -0.75850703025E+01  0.75850707312E+01  0.25500000000E-02 0.  1.
    5000001    1    1    2    0    0  0.10578517962E+03  0.33247739261E+02  0.21005323531E+04  0.21099187384E+04  0.16500000000E+03 0.  0.
   -5000001    1    1    2    0    0 -0.10578517962E+03 -0.33247739261E+02  0.34136525331E+04  0.34194362888E+04  0.16500000000E+03 0.  0.
<mgrwt>
<rscale>  0 0.40930680E+03</rscale>
<asrwt>0</asrwt>
<pdfrwt beam="1">  1        2 0.10835882E-02 0.40930680E+03</pdfrwt>
<pdfrwt beam="2">  1       -2 0.78881939E+00 0.40930680E+03</pdfrwt>
<totfact> 0.15858760E+00</totfact>
</mgrwt>
</event>
<event>
 4    1  0.5323640E-005  0.4373233E+03  0.7818608E-02  0.1031571E+00
          2   -1    0    0  501    0  0.00000000000E+00  0.00000000000E+00  0.31975512511E+03  0.31975512512E+03  0.25500000000E-02 0.  1.
         -2   -1    0    0    0  501 -0.00000000000E+00 -0.00000000000E+00 -0.14952981136E+03  0.14952981138E+03  0.25500000000E-02 0. -1.
    5000001    1    1    2    0    0 -0.60522535511E+02  0.12510955151E+03  0.12339255518E+03  0.24852786536E+03  0.16500000000E+03 0.  0.
   -5000001    1    1    2    0    0  0.60522535511E+02 -0.12510955151E+03  0.46832758569E+02  0.22075707114E+03  0.16500000000E+03 0.  0.
<mgrwt>
<rscale>  0 0.43732333E+03</rscale>
<asrwt>0</asrwt>
<pdfrwt beam="1">  1        2 0.45679303E-01 0.43732333E+03</pdfrwt>
<pdfrwt beam="2">  1       -2 0.21361402E-01 0.43732333E+03</pdfrwt>
<totfact> 0.20901413E+03</totfact>
</mgrwt>
</event>
<event>
 4    1  0.5323640E-005  0.3801427E+03  0.7818608E-02  0.1050881E+00
          2   -1    0    0  501    0  0.00000000000E+00  0.00000000000E+00  0.57559238202E+03  0.57559238203E+03  0.25500000000E-02 0.  1.
         -2   -1    0    0    0  501 -0.00000000000E+00 -0.00000000000E+00 -0.62765106350E+02  0.62765106402E+02  0.25500000000E-02 0. -1.
    5000001    1    1    2    0    0 -0.71202132701E+02  0.26846534153E+02  0.16274121112E+03  0.24392659120E+03  0.16500000000E+03 0.  0.
   -5000001    1    1    2    0    0  0.71202132701E+02 -0.26846534153E+02  0.35008606455E+03  0.39443089723E+03  0.16500000000E+03 0.  0.
<mgrwt>
<rscale>  0 0.38014269E+03</rscale>
<asrwt>0</asrwt>
<pdfrwt beam="1">  1        2 0.82227481E-01 0.38014269E+03</pdfrwt>
<pdfrwt beam="2">  1       -2 0.89664440E-02 0.38014269E+03</pdfrwt>
<totfact> 0.45845643E+03</totfact>
</mgrwt>
</event>
<event>
 4    1  0.5323640E-005  0.6599518E+03  0.7818608E-02  0.9788282E-01
         -2   -1    0    0    0  501 -0.00000000000E+00  0.00000000000E+00  0.73680759056E+03  0.73680759057E+03  0.25500000000E-02 0. -1.
          2   -1    0    0  501    0  0.00000000000E+00 -0.00000000000E+00 -0.14777820921E+03  0.14777820923E+03  0.25500000000E-02 0.  1.
    5000001    1    1    2    0    0  0.15928977246E+03  0.75146614209E+02 -0.71119427953E+01  0.24144528359E+03  0.16500000000E+03 0.  0.
   -5000001    1    1    2    0    0 -0.15928977246E+03 -0.75146614209E+02  0.59614132415E+03  0.64314051621E+03  0.16500000000E+03 0.  0.
<mgrwt>
<rscale>  0 0.65995184E+03</rscale>
<asrwt>0</asrwt>
<pdfrwt beam="1">  1        2 0.21111173E-01 0.65995184E+03</pdfrwt>
<pdfrwt beam="2">  1       -2 0.10525823E+00 0.65995184E+03</pdfrwt>
<totfact> 0.19705005E+02</totfact>
</mgrwt>
</event>
<event>
 4    1  0.5323640E-005  0.8567296E+03  0.7818608E-02  0.9481349E-01
          2   -1    0    0  501    0  0.00000000000E+00  0.00000000000E+00  0.65392293153E+03  0.65392293154E+03  0.25500000000E-02 0.  1.
         -2   -1    0    0    0  501 -0.00000000000E+00 -0.00000000000E+00 -0.28060862014E+03  0.28060862015E+03  0.25500000000E-02 0. -1.
    5000001    1    1    2    0    0 -0.32695434552E+03 -0.75359570104E+02  0.41466885154E+03  0.55834887418E+03  0.16500000000E+03 0.  0.
   -5000001    1    1    2    0    0  0.32695434552E+03  0.75359570104E+02 -0.41354540141E+02  0.37618267750E+03  0.16500000000E+03 0.  0.
<mgrwt>
<rscale>  0 0.85672962E+03</rscale>
<asrwt>0</asrwt>
<pdfrwt beam="1">  1        2 0.93417562E-01 0.85672962E+03</pdfrwt>
<pdfrwt beam="2">  1       -2 0.40086946E-01 0.85672962E+03</pdfrwt>
<totfact> 0.28902027E+02</totfact>
</mgrwt>
</event>
<event>
 4    1  0.5323640E-005  0.5834349E+03  0.7818608E-02  0.9940382E-01
          2   -1    0    0  501    0  0.00000000000E+00  0.00000000000E+00  0.12718301818E+04  0.12718301818E+04  0.25500000000E-02 0.  1.
         -2   -1    0    0    0  501 -0.00000000000E+00 -0.00000000000E+00 -0.66910712455E+02  0.66910712504E+02  0.25500000000E-02 0. -1.
    5000001    1    1    2    0    0 -0.14808892498E+03  0.18887323844E+03  0.64020783476E+03  0.70334522219E+03  0.16500000000E+03 0.  0.
   -5000001    1    1    2    0    0  0.14808892498E+03 -0.18887323844E+03  0.56471163459E+03  0.63539567211E+03  0.16500000000E+03 0.  0.
<mgrwt>
<rscale>  0 0.58343488E+03</rscale>
<asrwt>0</asrwt>
<pdfrwt beam="1">  1        2 0.18169004E+00 0.58343488E+03</pdfrwt>
<pdfrwt beam="2">  1       -2 0.95586726E-02 0.58343488E+03</pdfrwt>
<totfact> 0.14512913E+03</totfact>
</mgrwt>
</event>
<event>
 4    1  0.5323640E-005  0.5290534E+03  0.7818608E-02  0.1006462E+00
          2   -1    0    0  501    0  0.00000000000E+00  0.00000000000E+00  0.12865220109E+04  0.12865220109E+04  0.25500000000E-02 0.  1.
         -2   -1    0    0    0  501 -0.00000000000E+00 -0.00000000000E+00 -0.54390350469E+02  0.54390350528E+02  0.25500000000E-02 0. -1.
    5000001    1    1    2    0    0  0.18143039663E+03 -0.69304082699E+02  0.79581061103E+03  0.83561927534E+03  0.16500000000E+03 0.  0.
   -5000001    1    1    2    0    0 -0.18143039663E+03  0.69304082699E+02  0.43632104942E+03  0.50529308611E+03  0.16500000000E+03 0.  0.
<mgrwt>
<rscale>  0 0.52905343E+03</rscale>
<asrwt>0</asrwt>
<pdfrwt beam="1">  1        2 0.18378885E+00 0.52905343E+03</pdfrwt>
<pdfrwt beam="2">  1       -2 0.77700505E-02 0.52905343E+03</pdfrwt>
<totfact> 0.19870282E+03</totfact>
</mgrwt>
</event>
<event>
 4    1  0.5323640E-005  0.4720658E+03  0.7818608E-02  0.1021339E+00
          2   -1    0    0  501    0  0.00000000000E+00  0.00000000000E+00  0.88161484468E+03  0.88161484469E+03  0.25500000000E-02 0.  1.
         -2   -1    0    0    0  501 -0.00000000000E+00 -0.00000000000E+00 -0.63192585917E+02  0.63192585968E+02  0.25500000000E-02 0. -1.
    5000001    1    1    2    0    0 -0.14565859638E+03  0.85259942909E+02  0.41104249849E+03  0.47399010552E+03  0.16500000000E+03 0.  0.
   -5000001    1    1    2    0    0  0.14565859638E+03 -0.85259942909E+02  0.40737976028E+03  0.47081732514E+03  0.16500000000E+03 0.  0.
<mgrwt>
<rscale>  0 0.47206577E+03</rscale>
<asrwt>0</asrwt>
<pdfrwt beam="1">  1        2 0.12594496E+00 0.47206577E+03</pdfrwt>
<pdfrwt beam="2">  1       -2 0.90275135E-02 0.47206577E+03</pdfrwt>
<totfact> 0.27037375E+03</totfact>
</mgrwt>
</event>
<event>
 4    1  0.5323640E-005  0.4927290E+03  0.7818608E-02  0.1015694E+00
         -2   -1    0    0    0  501 -0.00000000000E+00  0.00000000000E+00  0.90915493179E+02  0.90915493214E+02  0.25500000000E-02 0. -1.
          2   -1    0    0  501    0  0.00000000000E+00 -0.00000000000E+00 -0.66760320104E+03  0.66760320104E+03  0.25500000000E-02 0.  1.
    5000001    1    1    2    0    0 -0.80643515779E+01 -0.12588495742E+03 -0.49233007400E+03  0.53434629038E+03  0.16500000000E+03 0.  0.
   -5000001    1    1    2    0    0  0.80643515779E+01  0.12588495742E+03 -0.84357633857E+02  0.22417240388E+03  0.16500000000E+03 0.  0.
<mgrwt>
<rscale>  0 0.49272903E+03</rscale>
<asrwt>0</asrwt>
<pdfrwt beam="1">  1        2 0.95371883E-01 0.49272903E+03</pdfrwt>
<pdfrwt beam="2">  1       -2 0.12987928E-01 0.49272903E+03</pdfrwt>
<totfact> 0.21217298E+03</totfact>
</mgrwt>
</event>
<event>
 4    1  0.5323640E-005  0.5140945E+03  0.7818608E-02  0.1010164E+00
          2   -1    0    0  501    0  0.00000000000E+00  0.00000000000E+00  0.19666439370E+04  0.19666439370E+04  0.25500000000E-02 0.  1.
         -2   -1    0    0    0  501 -0.00000000000E+00 -0.00000000000E+00 -0.33596977044E+02  0.33596977141E+02  0.25500000000E-02 0. -1.
    5000001    1    1    2    0    0  0.18737660185E+03 -0.10349978317E+01  0.72866742865E+03  0.77025468757E+03  0.16500000000E+03 0.  0.
   -5000001    1    1    2    0    0 -0.18737660185E+03  0.10349978317E+01  0.12043795313E+04  0.12299862266E+04  0.16500000000E+03 0.  0.
<mgrwt>
<rscale>  0 0.51409451E+03</rscale>
<asrwt>0</asrwt>
<pdfrwt beam="1">  1        2 0.28094914E+00 0.51409451E+03</pdfrwt>
<pdfrwt beam="2">  1       -2 0.47995680E-02 0.51409451E+03</pdfrwt>
<totfact> 0.18888684E+03</totfact>
</mgrwt>
</event>
<event>
 4    1  0.5323640E-005  0.4019270E+03  0.7818608E-02  0.1043114E+00
          2   -1    0    0  501    0  0.00000000000E+00  0.00000000000E+00  0.38040219070E+04  0.38040219070E+04  0.25500000000E-02 0.  1.
         -2   -1    0    0    0  501 -0.00000000000E+00 -0.00000000000E+00 -0.10616743964E+02  0.10616744270E+02  0.25500000000E-02 0. -1.
    5000001    1    1    2    0    0 -0.49254987452E+02  0.10028019439E+03  0.21440406757E+04  0.21532806576E+04  0.16500000000E+03 0.  0.
   -5000001    1    1    2    0    0  0.49254987452E+02 -0.10028019439E+03  0.16493644874E+04  0.16613579938E+04  0.16500000000E+03 0.  0.
<mgrwt>
<rscale>  0 0.40192699E+03</rscale>
<asrwt>0</asrwt>
<pdfrwt beam="1">  1        2 0.54343194E+00 0.40192699E+03</pdfrwt>
<pdfrwt beam="2">  1       -2 0.15166771E-02 0.40192699E+03</pdfrwt>
<totfact> 0.10961163E+03</totfact>
</mgrwt>
</event>
<event>
 4    1  0.5323640E-005  0.5050569E+03  0.7818608E-02  0.1012467E+00
          2   -1    0    0  501    0  0.00000000000E+00  0.00000000000E+00  0.82360193330E+03  0.82360193330E+03  0.25500000000E-02 0.  1.
         -2   -1    0    0    0  501 -0.00000000000E+00 -0.00000000000E+00 -0.77428939436E+02  0.77428939478E+02  0.25500000000E-02 0. -1.
    5000001    1    1    2    0    0  0.11695470533E+03  0.12240415069E+03  0.53149734056E+03  0.58170061219E+03  0.16500000000E+03 0.  0.
   -5000001    1    1    2    0    0 -0.11695470533E+03 -0.12240415069E+03  0.21467565330E+03  0.31933026059E+03  0.16500000000E+03 0.  0.
<mgrwt>
<rscale>  0 0.50505692E+03</rscale>
<asrwt>0</asrwt>
<pdfrwt beam="1">  1        2 0.11765743E+00 0.50505692E+03</pdfrwt>
<pdfrwt beam="2">  1       -2 0.11061276E-01 0.50505692E+03</pdfrwt>
<totfact> 0.21285369E+03</totfact>
</mgrwt>
</event>
<event>
 4    1  0.5323640E-005  0.4719595E+03  0.7818608E-02  0.1021369E+00
          2   -1    0    0  501    0  0.00000000000E+00  0.00000000000E+00  0.20370153824E+04  0.20370153824E+04  0.25500000000E-02 0.  1.
         -2   -1    0    0    0  501 -0.00000000000E+00 -0.00000000000E+00 -0.27337266015E+02  0.27337266134E+02  0.25500000000E-02 0. -1.
    5000001    1    1    2    0    0 -0.85016621159E+02  0.12132843218E+03  0.13578354863E+04  0.13758236159E+04  0.16500000000E+03 0.  0.
   -5000001    1    1    2    0    0  0.85016621159E+02 -0.12132843218E+03  0.65184263009E+03  0.68852903260E+03  0.16500000000E+03 0.  0.
<mgrwt>
<rscale>  0 0.47195945E+03</rscale>
<asrwt>0</asrwt>
<pdfrwt beam="1">  1        2 0.29100206E+00 0.47195945E+03</pdfrwt>
<pdfrwt beam="2">  1       -2 0.39053255E-02 0.47195945E+03</pdfrwt>
<totfact> 0.23946615E+03</totfact>
</mgrwt>
</event>
<event>
 4    1  0.5323640E-005  0.5355720E+03  0.7818608E-02  0.1004890E+00
         -2   -1    0    0    0  501 -0.00000000000E+00  0.00000000000E+00  0.69709044282E+03  0.69709044283E+03  0.25500000000E-02 0. -1.
          2   -1    0    0  501    0  0.00000000000E+00 -0.00000000000E+00 -0.10286947670E+03  0.10286947673E+03  0.25500000000E-02 0.  1.
    5000001    1    1    2    0    0  0.31592438236E+02 -0.20131989020E+03  0.21589423474E+03  0.33965144035E+03  0.16500000000E+03 0.  0.
   -5000001    1    1    2    0    0 -0.31592438236E+02  0.20131989020E+03  0.37832673139E+03  0.46030847920E+03  0.16500000000E+03 0.  0.
<mgrwt>
<rscale>  0 0.53557195E+03</rscale>
<asrwt>0</asrwt>
<pdfrwt beam="1">  1        2 0.14695639E-01 0.53557195E+03</pdfrwt>
<pdfrwt beam="2">  1       -2 0.99584351E-01 0.53557195E+03</pdfrwt>
<totfact> 0.34683727E+02</totfact>
</mgrwt>
</event>
<event>
 4    1  0.5323640E-005  0.7257468E+03  0.7818608E-02  0.9674187E-01
         -2   -1    0    0    0  501 -0.00000000000E+00  0.00000000000E+00  0.11944385968E+03  0.11944385970E+03  0.25500000000E-02 0. -1.
          2   -1    0    0  501    0  0.00000000000E+00 -0.00000000000E+00 -0.11024185142E+04  0.11024185142E+04  0.25500000000E-02 0.  1.
    5000001    1    1    2    0    0 -0.32646608989E+01 -0.21232754271E+03 -0.90167113661E+03  0.94091948752E+03  0.16500000000E+03 0.  0.
   -5000001    1    1    2    0    0  0.32646608989E+01  0.21232754271E+03 -0.81303517955E+02  0.28094288643E+03  0.16500000000E+03 0.  0.
<mgrwt>
<rscale>  0 0.72574685E+03</rscale>
<asrwt>0</asrwt>
<pdfrwt beam="1">  1        2 0.15748835E+00 0.72574685E+03</pdfrwt>
<pdfrwt beam="2">  1       -2 0.17063409E-01 0.72574685E+03</pdfrwt>
<totfact> 0.68801387E+02</totfact>
</mgrwt>
</event>
<event>
 4    1  0.5323640E-005  0.7907819E+03  0.7818608E-02  0.9573457E-01
         -2   -1    0    0    0  501 -0.00000000000E+00  0.00000000000E+00  0.41438647168E+03  0.41438647169E+03  0.25500000000E-02 0. -1.
          2   -1    0    0  501    0  0.00000000000E+00 -0.00000000000E+00 -0.37726619575E+03  0.37726619576E+03  0.25500000000E-02 0.  1.
    5000001    1    1    2    0    0  0.11962722147E+03  0.26013233795E+03  0.23589249005E+03  0.40601696051E+03  0.16500000000E+03 0.  0.
   -5000001    1    1    2    0    0 -0.11962722147E+03 -0.26013233795E+03 -0.19877221412E+03  0.38563570694E+03  0.16500000000E+03 0.  0.
<mgrwt>
<rscale>  0 0.79078191E+03</rscale>
<asrwt>0</asrwt>
<pdfrwt beam="1">  1        2 0.53895171E-01 0.79078191E+03</pdfrwt>
<pdfrwt beam="2">  1       -2 0.59198067E-01 0.79078191E+03</pdfrwt>
<totfact> 0.24785246E+02</totfact>
</mgrwt>
</event>
<event>
 4    1  0.5323640E-005  0.4206863E+03  0.7818608E-02  0.1036843E+00
          2   -1    0    0  501    0  0.00000000000E+00  0.00000000000E+00  0.18399329100E+03  0.18399329102E+03  0.25500000000E-02 0.  1.
         -2   -1    0    0    0  501 -0.00000000000E+00 -0.00000000000E+00 -0.24046658293E+03  0.24046658294E+03  0.25500000000E-02 0. -1.
    5000001    1    1    2    0    0  0.23691997767E+02 -0.12754308512E+03 -0.14303771801E+02  0.21037620399E+03  0.16500000000E+03 0.  0.
   -5000001    1    1    2    0    0 -0.23691997767E+02  0.12754308512E+03 -0.42169520124E+02  0.21408366997E+03  0.16500000000E+03 0.  0.
<mgrwt>
<rscale>  0 0.42068629E+03</rscale>
<asrwt>0</asrwt>
<pdfrwt beam="1">  1        2 0.26284756E-01 0.42068629E+03</pdfrwt>
<pdfrwt beam="2">  1       -2 0.34352369E-01 0.42068629E+03</pdfrwt>
<totfact> 0.16307758E+03</totfact>
</mgrwt>
</event>
<event>
 4    1  0.5323640E-005  0.3859218E+03  0.7818608E-02  0.1048766E+00
         -2   -1    0    0    0  501 -0.00000000000E+00  0.00000000000E+00  0.51608468463E+02  0.51608468526E+02  0.25500000000E-02 0. -1.
          2   -1    0    0  501    0  0.00000000000E+00 -0.00000000000E+00 -0.72146910187E+03  0.72146910188E+03  0.25500000000E-02 0.  1.
    5000001    1    1    2    0    0 -0.14946773496E+02 -0.77768629554E+02 -0.45739678902E+03  0.49265422802E+03  0.16500000000E+03 0.  0.
   -5000001    1    1    2    0    0  0.14946773496E+02  0.77768629554E+02 -0.21246384439E+03  0.28042334239E+03  0.16500000000E+03 0.  0.
<mgrwt>
<rscale>  0 0.38592183E+03</rscale>
<asrwt>0</asrwt>
<pdfrwt beam="1">  1        2 0.10306701E+00 0.38592183E+03</pdfrwt>
<pdfrwt beam="2">  1       -2 0.73726388E-02 0.38592183E+03</pdfrwt>
<totfact> 0.47863212E+03</totfact>
</mgrwt>
</event>
<event>
 4    1  0.5323640E-005  0.4610965E+03  0.7818608E-02  0.1024464E+00
         -2   -1    0    0    0  501 -0.00000000000E+00  0.00000000000E+00  0.38477724230E+02  0.38477724314E+02  0.25500000000E-02 0. -1.
          2   -1    0    0  501    0  0.00000000000E+00 -0.00000000000E+00 -0.13813834586E+04  0.13813834587E+04  0.25500000000E-02 0.  1.
    5000001    1    1    2    0    0 -0.31861141785E+02  0.15720229242E+03 -0.71497903680E+03  0.75109767418E+03  0.16500000000E+03 0.  0.
   -5000001    1    1    2    0    0  0.31861141785E+02 -0.15720229242E+03 -0.62792669762E+03  0.66876350878E+03  0.16500000000E+03 0.  0.
<mgrwt>
<rscale>  0 0.46109648E+03</rscale>
<asrwt>0</asrwt>
<pdfrwt beam="1">  1        2 0.19734046E+00 0.46109648E+03</pdfrwt>
<pdfrwt beam="2">  1       -2 0.54968186E-02 0.46109648E+03</pdfrwt>
<totfact> 0.30430740E+03</totfact>
</mgrwt>
</event>
<event>
 4    1  0.5323640E-005  0.6476079E+03  0.7818608E-02  0.9811278E-01
          2   -1    0    0  501    0  0.00000000000E+00  0.00000000000E+00  0.14931737343E+04  0.14931737343E+04  0.25500000000E-02 0.  1.
         -2   -1    0    0    0  501 -0.00000000000E+00 -0.00000000000E+00 -0.70218883107E+02  0.70218883153E+02  0.25500000000E-02 0. -1.
    5000001    1    1    2    0    0  0.41511023553E+02  0.26228892774E+03  0.50798487081E+03  0.59648325682E+03  0.16500000000E+03 0.  0.
   -5000001    1    1    2    0    0 -0.41511023553E+02 -0.26228892774E+03  0.91496998042E+03  0.96690936068E+03  0.16500000000E+03 0.  0.
<mgrwt>
<rscale>  0 0.64760788E+03</rscale>
<asrwt>0</asrwt>
<pdfrwt beam="1">  1        2 0.21331052E+00 0.64760788E+03</pdfrwt>
<pdfrwt beam="2">  1       -2 0.10031269E-01 0.64760788E+03</pdfrwt>
<totfact> 0.10200911E+03</totfact>
</mgrwt>
</event>
<event>
 4    1  0.5323640E-005  0.4993192E+03  0.7818608E-02  0.1013957E+00
          2   -1    0    0  501    0  0.00000000000E+00  0.00000000000E+00  0.77077177295E+03  0.77077177296E+03  0.25500000000E-02 0.  1.
         -2   -1    0    0    0  501 -0.00000000000E+00 -0.00000000000E+00 -0.80866901400E+02  0.80866901440E+02  0.25500000000E-02 0. -1.
    5000001    1    1    2    0    0  0.14467951774E+02 -0.18035701589E+03  0.26197277871E+03  0.35859825933E+03  0.16500000000E+03 0.  0.
   -5000001    1    1    2    0    0 -0.14467951774E+02  0.18035701589E+03  0.42793209284E+03  0.49304041507E+03  0.16500000000E+03 0.  0.
<mgrwt>
<rscale>  0 0.49931924E+03</rscale>
<asrwt>0</asrwt>
<pdfrwt beam="1">  1        2 0.11011026E+00 0.49931924E+03</pdfrwt>
<pdfrwt beam="2">  1       -2 0.11552414E-01 0.49931924E+03</pdfrwt>
<totfact> 0.21567608E+03</totfact>
</mgrwt>
</event>
<event>
 4    1  0.5323640E-005  0.4284591E+03  0.7818608E-02  0.1034348E+00
         -2   -1    0    0    0  501 -0.00000000000E+00  0.00000000000E+00  0.37094493053E+03  0.37094493054E+03  0.25500000000E-02 0. -1.
          2   -1    0    0  501    0  0.00000000000E+00 -0.00000000000E+00 -0.12372269113E+03  0.12372269116E+03  0.25500000000E-02 0.  1.
    5000001    1    1    2    0    0 -0.47545700982E+02 -0.12085625432E+03  0.17262724509E+03  0.27183081804E+03  0.16500000000E+03 0.  0.
   -5000001    1    1    2    0    0  0.47545700982E+02  0.12085625432E+03  0.74594994311E+02  0.22283680366E+03  0.16500000000E+03 0.  0.
<mgrwt>
<rscale>  0 0.42845912E+03</rscale>
<asrwt>0</asrwt>
<pdfrwt beam="1">  1        2 0.17674670E-01 0.42845912E+03</pdfrwt>
<pdfrwt beam="2">  1       -2 0.52992134E-01 0.42845912E+03</pdfrwt>
<totfact> 0.11045325E+03</totfact>
</mgrwt>
</event>
<event>
 4    1  0.5323640E-005  0.1030504E+04  0.7818608E-02  0.9275707E-01
          2   -1    0    0  501    0  0.00000000000E+00  0.00000000000E+00  0.17477601468E+04  0.17477601468E+04  0.25500000000E-02 0.  1.
         -2   -1    0    0    0  501 -0.00000000000E+00 -0.00000000000E+00 -0.15190003207E+03  0.15190003209E+03  0.25500000000E-02 0. -1.
    5000001    1    1    2    0    0  0.11286781449E+03 -0.47261587213E+03  0.88350394646E+03  0.10217187135E+04  0.16500000000E+03 0.  0.
   -5000001    1    1    2    0    0 -0.11286781449E+03  0.47261587213E+03  0.71235616827E+03  0.87794146537E+03  0.16500000000E+03 0.  0.
<mgrwt>
<rscale>  0 0.10305044E+04</rscale>
<asrwt>0</asrwt>
<pdfrwt beam="1">  1        2 0.24967999E+00 0.10305044E+04</pdfrwt>
<pdfrwt beam="2">  1       -2 0.21700007E-01 0.10305044E+04</pdfrwt>
<totfact> 0.19958858E+02</totfact>
</mgrwt>
</event>
<event>
 4    1  0.5323640E-005  0.3799798E+03  0.7818608E-02  0.1050941E+00
          2   -1    0    0  501    0  0.00000000000E+00  0.00000000000E+00  0.21167879994E+04  0.21167879994E+04  0.25500000000E-02 0.  1.
         -2   -1    0    0    0  501 -0.00000000000E+00 -0.00000000000E+00 -0.17052326346E+02  0.17052326537E+02  0.25500000000E-02 0. -1.
    5000001    1    1    2    0    0 -0.60893689090E+02  0.71069352768E+02  0.99036673963E+03  0.10083700577E+04  0.16500000000E+03 0.  0.
   -5000001    1    1    2    0    0  0.60893689090E+02 -0.71069352768E+02  0.11093689335E+04  0.11254702683E+04  0.16500000000E+03 0.  0.
<mgrwt>
<rscale>  0 0.37997979E+03</rscale>
<asrwt>0</asrwt>
<pdfrwt beam="1">  1        2 0.30239814E+00 0.37997979E+03</pdfrwt>
<pdfrwt beam="2">  1       -2 0.24360478E-02 0.37997979E+03</pdfrwt>
<totfact> 0.44679994E+03</totfact>
</mgrwt>
</event>
<event>
 4    1  0.5323640E-005  0.8291446E+03  0.7818608E-02  0.9518764E-01
          2   -1    0    0  501    0  0.00000000000E+00  0.00000000000E+00  0.42645156295E+04  0.42645156295E+04  0.25500000000E-02 0.  1.
         -2   -1    0    0    0  501 -0.00000000000E+00 -0.00000000000E+00 -0.40302392866E+02  0.40302392947E+02  0.25500000000E-02 0. -1.
    5000001    1    1    2    0    0  0.14080144833E+03  0.25258291079E+03  0.82957587694E+03  0.89389278455E+03  0.16500000000E+03 0.  0.
   -5000001    1    1    2    0    0 -0.14080144833E+03 -0.25258291079E+03  0.33946373597E+04  0.34109252379E+04  0.16500000000E+03 0.  0.
<mgrwt>
<rscale>  0 0.82914458E+03</rscale>
<asrwt>0</asrwt>
<pdfrwt beam="1">  1        2 0.60921652E+00 0.82914458E+03</pdfrwt>
<pdfrwt beam="2">  1       -2 0.57574847E-02 0.82914458E+03</pdfrwt>
<totfact> 0.66331356E+01</totfact>
</mgrwt>
</event>
<event>
 4    1  0.5323640E-005  0.4750342E+03  0.7818608E-02  0.1020509E+00
         -2   -1    0    0    0  501 -0.00000000000E+00  0.00000000000E+00  0.55771903364E+03  0.55771903365E+03  0.25500000000E-02 0. -1.
          2   -1    0    0  501    0  0.00000000000E+00 -0.00000000000E+00 -0.10115196553E+03  0.10115196557E+03  0.25500000000E-02 0.  1.
    5000001    1    1    2    0    0  0.93978347267E+01  0.16240098122E+03  0.30071317893E+03  0.37962588687E+03  0.16500000000E+03 0.  0.
   -5000001    1    1    2    0    0 -0.93978347267E+01 -0.16240098122E+03  0.15585388918E+03  0.27924511235E+03  0.16500000000E+03 0.  0.
<mgrwt>
<rscale>  0 0.47503422E+03</rscale>
<asrwt>0</asrwt>
<pdfrwt beam="1">  1        2 0.14450280E-01 0.47503422E+03</pdfrwt>
<pdfrwt beam="2">  1       -2 0.79674149E-01 0.47503422E+03</pdfrwt>
<totfact> 0.58975794E+02</totfact>
</mgrwt>
</event>
<event>
 4    1  0.5323640E-005  0.4357483E+03  0.7818608E-02  0.1032059E+00
         -2   -1    0    0    0  501 -0.00000000000E+00  0.00000000000E+00  0.15707705928E+03  0.15707705930E+03  0.25500000000E-02 0. -1.
          2   -1    0    0  501    0  0.00000000000E+00 -0.00000000000E+00 -0.30220290048E+03  0.30220290049E+03  0.25500000000E-02 0.  1.
    5000001    1    1    2    0    0 -0.11558656084E+03  0.26355722408E+01 -0.15996857673E+03  0.25725890622E+03  0.16500000000E+03 0.  0.
   -5000001    1    1    2    0    0  0.11558656084E+03 -0.26355722408E+01  0.14842735532E+02  0.20202105357E+03  0.16500000000E+03 0.  0.
<mgrwt>
<rscale>  0 0.43574829E+03</rscale>
<asrwt>0</asrwt>
<pdfrwt beam="1">  1        2 0.43171843E-01 0.43574829E+03</pdfrwt>
<pdfrwt beam="2">  1       -2 0.22439580E-01 0.43574829E+03</pdfrwt>
<totfact> 0.20394900E+03</totfact>
</mgrwt>
</event>
<event>
 4    1  0.5323640E-005  0.5051441E+03  0.7818608E-02  0.1012445E+00
         -2   -1    0    0    0  501 -0.00000000000E+00  0.00000000000E+00  0.12104594119E+03  0.12104594122E+03  0.25500000000E-02 0. -1.
          2   -1    0    0  501    0  0.00000000000E+00 -0.00000000000E+00 -0.52701178679E+03  0.52701178680E+03  0.25500000000E-02 0.  1.
    5000001    1    1    2    0    0 -0.79526437892E+02 -0.74734845450E+02 -0.15287158753E+01  0.19783095921E+03  0.16500000000E+03 0.  0.
   -5000001    1    1    2    0    0  0.79526437892E+02  0.74734845450E+02 -0.40443712973E+03  0.45022676881E+03  0.16500000000E+03 0.  0.
<mgrwt>
<rscale>  0 0.50514409E+03</rscale>
<asrwt>0</asrwt>
<pdfrwt beam="1">  1        2 0.75287397E-01 0.50514409E+03</pdfrwt>
<pdfrwt beam="2">  1       -2 0.17292278E-01 0.50514409E+03</pdfrwt>
<totfact> 0.17305188E+03</totfact>
</mgrwt>
</event>
<event>
 4    1  0.5323640E-005  0.5614232E+03  0.7818608E-02  0.9988839E-01
         -2   -1    0    0    0  501 -0.00000000000E+00  0.00000000000E+00  0.52375134011E+02  0.52375134073E+02  0.25500000000E-02 0. -1.
          2   -1    0    0  501    0  0.00000000000E+00 -0.00000000000E+00 -0.15045118010E+04  0.15045118010E+04  0.25500000000E-02 0.  1.
    5000001    1    1    2    0    0 -0.22670637958E+03 -0.67361927216E+01 -0.75803113949E+03  0.80825575610E+03  0.16500000000E+03 0.  0.
   -5000001    1    1    2    0    0  0.22670637958E+03  0.67361927216E+01 -0.69410552754E+03  0.74863117901E+03  0.16500000000E+03 0.  0.
<mgrwt>
<rscale>  0 0.56142322E+03</rscale>
<asrwt>0</asrwt>
<pdfrwt beam="1">  1        2 0.21493023E+00 0.56142322E+03</pdfrwt>
<pdfrwt beam="2">  1       -2 0.74821630E-02 0.56142322E+03</pdfrwt>
<totfact> 0.16153222E+03</totfact>
</mgrwt>
</event>
<event>
 4    1  0.5323640E-005  0.4749909E+03  0.7818608E-02  0.1020521E+00
          2   -1    0    0  501    0  0.00000000000E+00  0.00000000000E+00  0.14026547276E+04  0.14026547276E+04  0.25500000000E-02 0.  1.
         -2   -1    0    0    0  501 -0.00000000000E+00 -0.00000000000E+00 -0.40212390943E+02  0.40212391023E+02  0.25500000000E-02 0. -1.
    5000001    1    1    2    0    0 -0.17636484860E+02  0.78108435580E+02  0.22287340352E+03  0.28863389839E+03  0.16500000000E+03 0.  0.
   -5000001    1    1    2    0    0  0.17636484860E+02 -0.78108435580E+02  0.11395689331E+04  0.11542332202E+04  0.16500000000E+03 0.  0.
<mgrwt>
<rscale>  0 0.47499095E+03</rscale>
<asrwt>0</asrwt>
<pdfrwt beam="1">  1        2 0.20037920E+00 0.47499095E+03</pdfrwt>
<pdfrwt beam="2">  1       -2 0.57446286E-02 0.47499095E+03</pdfrwt>
<totfact> 0.27691746E+03</totfact>
</mgrwt>
</event>
<event>
 4    1  0.5323640E-005  0.6957430E+03  0.7818608E-02  0.9724540E-01
         -2   -1    0    0    0  501 -0.00000000000E+00  0.00000000000E+00  0.93878670658E+03  0.93878670658E+03  0.25500000000E-02 0. -1.
          2   -1    0    0  501    0  0.00000000000E+00 -0.00000000000E+00 -0.12890529589E+03  0.12890529591E+03  0.25500000000E-02 0.  1.
    5000001    1    1    2    0    0  0.10048292242E+03  0.17769889017E+03  0.75527457265E+03  0.79958638893E+03  0.16500000000E+03 0.  0.
   -5000001    1    1    2    0    0 -0.10048292242E+03 -0.17769889017E+03  0.54606838045E+02  0.26810561357E+03  0.16500000000E+03 0.  0.
<mgrwt>
<rscale>  0 0.69574299E+03</rscale>
<asrwt>0</asrwt>
<pdfrwt beam="1">  1        2 0.18415043E-01 0.69574299E+03</pdfrwt>
<pdfrwt beam="2">  1       -2 0.13411238E+00 0.69574299E+03</pdfrwt>
<totfact> 0.12721340E+02</totfact>
</mgrwt>
</event>
<event>
 4    1  0.5323640E-005  0.4489571E+03  0.7818608E-02  0.1028034E+00
          2   -1    0    0  501    0  0.00000000000E+00  0.00000000000E+00  0.74725076245E+03  0.74725076246E+03  0.25500000000E-02 0.  1.
         -2   -1    0    0    0  501 -0.00000000000E+00 -0.00000000000E+00 -0.67434670101E+02  0.67434670149E+02  0.25500000000E-02 0. -1.
    5000001    1    1    2    0    0  0.20479030869E+02 -0.14977304136E+03  0.37207615969E+03  0.43418547100E+03  0.16500000000E+03 0.  0.
   -5000001    1    1    2    0    0 -0.20479030869E+02  0.14977304136E+03  0.30773993267E+03  0.38049996160E+03  0.16500000000E+03 0.  0.
<mgrwt>
<rscale>  0 0.44895705E+03</rscale>
<asrwt>0</asrwt>
<pdfrwt beam="1">  1        2 0.10675010E+00 0.44895705E+03</pdfrwt>
<pdfrwt beam="2">  1       -2 0.96335249E-02 0.44895705E+03</pdfrwt>
<totfact> 0.30061167E+03</totfact>
</mgrwt>
</event>
<event>
 4    1  0.5323640E-005  0.4191826E+03  0.7818608E-02  0.1037333E+00
         -2   -1    0    0    0  501 -0.00000000000E+00  0.00000000000E+00  0.29272181083E+02  0.29272181194E+02  0.25500000000E-02 0. -1.
          2   -1    0    0  501    0  0.00000000000E+00 -0.00000000000E+00 -0.15006915661E+04  0.15006915661E+04  0.25500000000E-02 0.  1.
    5000001    1    1    2    0    0  0.37662789408E+01  0.99441919992E+02 -0.43471931166E+03  0.47550894865E+03  0.16500000000E+03 0.  0.
   -5000001    1    1    2    0    0 -0.37662789408E+01 -0.99441919992E+02 -0.10367000734E+04  0.10544547987E+04  0.16500000000E+03 0.  0.
<mgrwt>
<rscale>  0 0.41918261E+03</rscale>
<asrwt>0</asrwt>
<pdfrwt beam="1">  1        2 0.21438446E+00 0.41918261E+03</pdfrwt>
<pdfrwt beam="2">  1       -2 0.41817411E-02 0.41918261E+03</pdfrwt>
<totfact> 0.40155535E+03</totfact>
</mgrwt>
</event>
<event>
 4    1  0.5323640E-005  0.4480451E+03  0.7818608E-02  0.1028307E+00
          2   -1    0    0  501    0  0.00000000000E+00  0.00000000000E+00  0.14393151943E+04  0.14393151943E+04  0.25500000000E-02 0.  1.
         -2   -1    0    0    0  501 -0.00000000000E+00 -0.00000000000E+00 -0.34868049487E+02  0.34868049580E+02  0.25500000000E-02 0. -1.
    5000001    1    1    2    0    0  0.23815538185E+02 -0.14871499145E+03  0.64738526395E+03  0.68484743449E+03  0.16500000000E+03 0.  0.
   -5000001    1    1    2    0    0 -0.23815538185E+02  0.14871499145E+03  0.75706188090E+03  0.78933580944E+03  0.16500000000E+03 0.  0.
<mgrwt>
<rscale>  0 0.44804515E+03</rscale>
<asrwt>0</asrwt>
<pdfrwt beam="1">  1        2 0.20561643E+00 0.44804515E+03</pdfrwt>
<pdfrwt beam="2">  1       -2 0.49811507E-02 0.44804515E+03</pdfrwt>
<totfact> 0.33039985E+03</totfact>
</mgrwt>
</event>
<event>
 4    1  0.5323640E-005  0.4396038E+03  0.7818608E-02  0.1030868E+00
          2   -1    0    0  501    0  0.00000000000E+00  0.00000000000E+00  0.54885988609E+03  0.54885988610E+03  0.25500000000E-02 0.  1.
         -2   -1    0    0    0  501 -0.00000000000E+00 -0.00000000000E+00 -0.88024048224E+02  0.88024048261E+02  0.25500000000E-02 0. -1.
    5000001    1    1    2    0    0 -0.32246890618E+01  0.13076793730E+03  0.32178474317E+03  0.38455308214E+03  0.16500000000E+03 0.  0.
   -5000001    1    1    2    0    0  0.32246890618E+01 -0.13076793730E+03  0.13905109470E+03  0.25233085222E+03  0.16500000000E+03 0.  0.
<mgrwt>
<rscale>  0 0.43960377E+03</rscale>
<asrwt>0</asrwt>
<pdfrwt beam="1">  1        2 0.78408554E-01 0.43960377E+03</pdfrwt>
<pdfrwt beam="2">  1       -2 0.12574864E-01 0.43960377E+03</pdfrwt>
<totfact> 0.28109365E+03</totfact>
</mgrwt>
</event>
<event>
 4    1  0.5323640E-005  0.7646279E+03  0.7818608E-02  0.9612677E-01
         -2   -1    0    0    0  501 -0.00000000000E+00  0.00000000000E+00  0.79517875128E+03  0.79517875128E+03  0.25500000000E-02 0. -1.
          2   -1    0    0  501    0  0.00000000000E+00 -0.00000000000E+00 -0.18381271043E+03  0.18381271045E+03  0.25500000000E-02 0.  1.
    5000001    1    1    2    0    0  0.32711153821E+03 -0.51885427591E+02  0.42878923993E+03  0.56637378850E+03  0.16500000000E+03 0.  0.
   -5000001    1    1    2    0    0 -0.32711153821E+03  0.51885427591E+02  0.18257680092E+03  0.41261767323E+03  0.16500000000E+03 0.  0.
<mgrwt>
<rscale>  0 0.76462791E+03</rscale>
<asrwt>0</asrwt>
<pdfrwt beam="1">  1        2 0.26258959E-01 0.76462791E+03</pdfrwt>
<pdfrwt beam="2">  1       -2 0.11359696E+00 0.76462791E+03</pdfrwt>
<totfact> 0.12692920E+02</totfact>
</mgrwt>
</event>
<event>
 4    1  0.5323640E-005  0.9165253E+03  0.7818608E-02  0.9405157E-01
         -2   -1    0    0    0  501 -0.00000000000E+00  0.00000000000E+00  0.10460633906E+04  0.10460633906E+04  0.25500000000E-02 0. -1.
          2   -1    0    0  501    0  0.00000000000E+00 -0.00000000000E+00 -0.20075708946E+03  0.20075708947E+03  0.25500000000E-02 0.  1.
    5000001    1    1    2    0    0 -0.41174681779E+03 -0.10963245102E+03  0.47026491860E+03  0.65568956828E+03  0.16500000000E+03 0.  0.
   -5000001    1    1    2    0    0  0.41174681779E+03  0.10963245102E+03  0.37504138257E+03  0.59113091183E+03  0.16500000000E+03 0.  0.
<mgrwt>
<rscale>  0 0.91652527E+03</rscale>
<asrwt>0</asrwt>
<pdfrwt beam="1">  1        2 0.28679585E-01 0.91652527E+03</pdfrwt>
<pdfrwt beam="2">  1       -2 0.14943762E+00 0.91652527E+03</pdfrwt>
<totfact> 0.56839578E+01</totfact>
</mgrwt>
</event>
<event>
 4    1  0.5323640E-005  0.4382592E+03  0.7818608E-02  0.1031282E+00
          2   -1    0    0  501    0  0.00000000000E+00  0.00000000000E+00  0.77355241457E+03  0.77355241457E+03  0.25500000000E-02 0.  1.
         -2   -1    0    0    0  501 -0.00000000000E+00 -0.00000000000E+00 -0.62074362058E+02  0.62074362110E+02  0.25500000000E-02 0. -1.
    5000001    1    1    2    0    0  0.10880248523E+03 -0.75535680865E+02  0.46442322664E+03  0.51035042209E+03  0.16500000000E+03 0.  0.
   -5000001    1    1    2    0    0 -0.10880248523E+03  0.75535680865E+02  0.24705482587E+03  0.32527635460E+03  0.16500000000E+03 0.  0.
<mgrwt>
<rscale>  0 0.43825916E+03</rscale>
<asrwt>0</asrwt>
<pdfrwt beam="1">  1        2 0.11050747E+00 0.43825916E+03</pdfrwt>
<pdfrwt beam="2">  1       -2 0.88677672E-02 0.43825916E+03</pdfrwt>
<totfact> 0.32869332E+03</totfact>
</mgrwt>
</event>
<event>
 4    1  0.5323640E-005  0.4680894E+03  0.7818608E-02  0.1022461E+00
          2   -1    0    0  501    0  0.00000000000E+00  0.00000000000E+00  0.10466005625E+03  0.10466005629E+03  0.25500000000E-02 0.  1.
         -2   -1    0    0    0  501 -0.00000000000E+00 -0.00000000000E+00 -0.52337938123E+03  0.52337938123E+03  0.25500000000E-02 0. -1.
    5000001    1    1    2    0    0  0.71176407920E+02  0.14995032260E+03 -0.20820922966E+03  0.31325271524E+03  0.16500000000E+03 0.  0.
   -5000001    1    1    2    0    0 -0.71176407920E+02 -0.14995032260E+03 -0.21051009531E+03  0.31478672228E+03  0.16500000000E+03 0.  0.
<mgrwt>
<rscale>  0 0.46808937E+03</rscale>
<asrwt>0</asrwt>
<pdfrwt beam="1">  1        2 0.14951437E-01 0.46808937E+03</pdfrwt>
<pdfrwt beam="2">  1       -2 0.74768482E-01 0.46808937E+03</pdfrwt>
<totfact> 0.65137456E+02</totfact>
</mgrwt>
</event>
<event>
 4    1  0.5323640E-005  0.4815466E+03  0.7818608E-02  0.1018711E+00
          2   -1    0    0  501    0  0.00000000000E+00  0.00000000000E+00  0.21659919847E+04  0.21659919847E+04  0.25500000000E-02 0.  1.
         -2   -1    0    0    0  501 -0.00000000000E+00 -0.00000000000E+00 -0.26764546524E+02  0.26764546646E+02  0.25500000000E-02 0. -1.
    5000001    1    1    2    0    0 -0.70241747451E+02 -0.48072855457E+02  0.37153652119E+03  0.41534237575E+03  0.16500000000E+03 0.  0.
   -5000001    1    1    2    0    0  0.70241747451E+02  0.48072855457E+02  0.17676909170E+04  0.17774141556E+04  0.16500000000E+03 0.  0.
<mgrwt>
<rscale>  0 0.48154665E+03</rscale>
<asrwt>0</asrwt>
<pdfrwt beam="1">  1        2 0.30942742E+00 0.48154665E+03</pdfrwt>
<pdfrwt beam="2">  1       -2 0.38235067E-02 0.48154665E+03</pdfrwt>
<totfact> 0.21320710E+03</totfact>
</mgrwt>
</event>
<event>
 4    1  0.5323640E-005  0.3948982E+03  0.7818608E-02  0.1045561E+00
          2   -1    0    0  501    0  0.00000000000E+00  0.00000000000E+00  0.19149048066E+04  0.19149048066E+04  0.25500000000E-02 0.  1.
         -2   -1    0    0    0  501 -0.00000000000E+00 -0.00000000000E+00 -0.20359313631E+02  0.20359313791E+02  0.25500000000E-02 0. -1.
    5000001    1    1    2    0    0  0.77721381682E+02  0.46512288065E+02  0.65498832884E+03  0.68149740794E+03  0.16500000000E+03 0.  0.
   -5000001    1    1    2    0    0 -0.77721381682E+02 -0.46512288065E+02  0.12395571641E+04  0.12537667124E+04  0.16500000000E+03 0.  0.
<mgrwt>
<rscale>  0 0.39489820E+03</rscale>
<asrwt>0</asrwt>
<pdfrwt beam="1">  1        2 0.27355779E+00 0.39489820E+03</pdfrwt>
<pdfrwt beam="2">  1       -2 0.29084738E-02 0.39489820E+03</pdfrwt>
<totfact> 0.43103010E+03</totfact>
</mgrwt>
</event>
<event>
 4    1  0.5323640E-005  0.7899538E+03  0.7818608E-02  0.9574673E-01
         -2   -1    0    0    0  501 -0.00000000000E+00  0.00000000000E+00  0.10021044509E+03  0.10021044512E+03  0.25500000000E-02 0. -1.
          2   -1    0    0  501    0  0.00000000000E+00 -0.00000000000E+00 -0.15567914156E+04  0.15567914156E+04  0.25500000000E-02 0.  1.
    5000001    1    1    2    0    0  0.29449702154E+03 -0.11613878643E+03 -0.37377209846E+03  0.51686293637E+03  0.16500000000E+03 0.  0.
   -5000001    1    1    2    0    0 -0.29449702154E+03  0.11613878643E+03 -0.10828088720E+04  0.11401389243E+04  0.16500000000E+03 0.  0.
<mgrwt>
<rscale>  0 0.78995382E+03</rscale>
<asrwt>0</asrwt>
<pdfrwt beam="1">  1        2 0.22239876E+00 0.78995382E+03</pdfrwt>
<pdfrwt beam="2">  1       -2 0.14315779E-01 0.78995382E+03</pdfrwt>
<totfact> 0.52148897E+02</totfact>
</mgrwt>
</event>
<event>
 4    1  0.5323640E-005  0.8050510E+03  0.7818608E-02  0.9552735E-01
         -2   -1    0    0    0  501 -0.00000000000E+00  0.00000000000E+00  0.70742399749E+02  0.70742399795E+02  0.25500000000E-02 0. -1.
          2   -1    0    0  501    0  0.00000000000E+00 -0.00000000000E+00 -0.22903774534E+04  0.22903774534E+04  0.25500000000E-02 0.  1.
    5000001    1    1    2    0    0  0.35425115793E+02 -0.32063716994E+03 -0.16240234869E+04  0.16639532504E+04  0.16500000000E+03 0.  0.
   -5000001    1    1    2    0    0 -0.35425115793E+02  0.32063716994E+03 -0.59561156671E+03  0.69716660274E+03  0.16500000000E+03 0.  0.
<mgrwt>
<rscale>  0 0.80505105E+03</rscale>
<asrwt>0</asrwt>
<pdfrwt beam="1">  1        2 0.32719674E+00 0.80505105E+03</pdfrwt>
<pdfrwt beam="2">  1       -2 0.10106058E-01 0.80505105E+03</pdfrwt>
<totfact> 0.39172366E+02</totfact>
</mgrwt>
</event>
<event>
 4    1  0.5323640E-005  0.8142811E+03  0.7818608E-02  0.9539573E-01
          2   -1    0    0  501    0  0.00000000000E+00  0.00000000000E+00  0.21863305799E+04  0.21863305799E+04  0.25500000000E-02 0.  1.
         -2   -1    0    0    0  501 -0.00000000000E+00 -0.00000000000E+00 -0.75818089676E+02  0.75818089719E+02  0.25500000000E-02 0. -1.
    5000001    1    1    2    0    0 -0.26648756536E+03  0.16469221055E+03  0.49687152376E+03  0.61011921608E+03  0.16500000000E+03 0.  0.
   -5000001    1    1    2    0    0  0.26648756536E+03 -0.16469221055E+03  0.16136409665E+04  0.16520294535E+04  0.16500000000E+03 0.  0.
<mgrwt>
<rscale>  0 0.81428105E+03</rscale>
<asrwt>0</asrwt>
<pdfrwt beam="1">  1        2 0.31233292E+00 0.81428105E+03</pdfrwt>
<pdfrwt beam="2">  1       -2 0.10831157E-01 0.81428105E+03</pdfrwt>
<totfact> 0.39487882E+02</totfact>
</mgrwt>
</event>
<event>
 4    1  0.5323640E-005  0.4874612E+03  0.7818608E-02  0.1017105E+00
         -2   -1    0    0    0  501 -0.00000000000E+00  0.00000000000E+00  0.34372969215E+03  0.34372969216E+03  0.25500000000E-02 0. -1.
          2   -1    0    0  501    0  0.00000000000E+00 -0.00000000000E+00 -0.17282360863E+03  0.17282360865E+03  0.25500000000E-02 0.  1.
    5000001    1    1    2    0    0 -0.14546482561E+03 -0.33157625159E+02  0.19099726618E+03  0.29319686097E+03  0.16500000000E+03 0.  0.
   -5000001    1    1    2    0    0  0.14546482561E+03  0.33157625159E+02 -0.20091182673E+02  0.22335643984E+03  0.16500000000E+03 0.  0.
<mgrwt>
<rscale>  0 0.48746120E+03</rscale>
<asrwt>0</asrwt>
<pdfrwt beam="1">  1        2 0.24689087E-01 0.48746120E+03</pdfrwt>
<pdfrwt beam="2">  1       -2 0.49104242E-01 0.48746120E+03</pdfrwt>
<totfact> 0.87576983E+02</totfact>
</mgrwt>
</event>
<event>
 4    1  0.5323640E-005  0.5042220E+03  0.7818608E-02  0.1012683E+00
         -2   -1    0    0    0  501 -0.00000000000E+00  0.00000000000E+00  0.27939384054E+03  0.27939384055E+03  0.25500000000E-02 0. -1.
          2   -1    0    0  501    0  0.00000000000E+00 -0.00000000000E+00 -0.22749229691E+03  0.22749229692E+03  0.25500000000E-02 0.  1.
    5000001    1    1    2    0    0 -0.45576890519E+02  0.16983770355E+03 -0.48010023761E+02  0.24587000809E+03  0.16500000000E+03 0.  0.
   -5000001    1    1    2    0    0  0.45576890519E+02 -0.16983770355E+03  0.99911567390E+02  0.26101612938E+03  0.16500000000E+03 0.  0.
<mgrwt>
<rscale>  0 0.50422196E+03</rscale>
<asrwt>0</asrwt>
<pdfrwt beam="1">  1        2 0.32498899E-01 0.50422196E+03</pdfrwt>
<pdfrwt beam="2">  1       -2 0.39913406E-01 0.50422196E+03</pdfrwt>
<totfact> 0.96751994E+02</totfact>
</mgrwt>
</event>
<event>
 4    1  0.5323640E-005  0.5827064E+03  0.7818608E-02  0.9941949E-01
          2   -1    0    0  501    0  0.00000000000E+00  0.00000000000E+00  0.79569588873E+03  0.79569588874E+03  0.25500000000E-02 0.  1.
         -2   -1    0    0    0  501 -0.00000000000E+00 -0.00000000000E+00 -0.10668231351E+03  0.10668231354E+03  0.25500000000E-02 0. -1.
    5000001    1    1    2    0    0  0.77515201380E+02  0.14516795122E+03  0.73704163347E+02  0.24441694745E+03  0.16500000000E+03 0.  0.
   -5000001    1    1    2    0    0 -0.77515201380E+02 -0.14516795122E+03  0.61530941188E+03  0.65796125483E+03  0.16500000000E+03 0.  0.
<mgrwt>
<rscale>  0 0.58270637E+03</rscale>
<asrwt>0</asrwt>
<pdfrwt beam="1">  1        2 0.11367084E+00 0.58270637E+03</pdfrwt>
<pdfrwt beam="2">  1       -2 0.15240331E-01 0.58270637E+03</pdfrwt>
<totfact> 0.13078680E+03</totfact>
</mgrwt>
</event>
<event>
 4    1  0.5323640E-005  0.4844415E+03  0.7818608E-02  0.1017922E+00
          2   -1    0    0  501    0  0.00000000000E+00  0.00000000000E+00  0.14204085611E+04  0.14204085611E+04  0.25500000000E-02 0.  1.
         -2   -1    0    0    0  501 -0.00000000000E+00 -0.00000000000E+00 -0.41305644897E+02  0.41305644975E+02  0.25500000000E-02 0. -1.
    5000001    1    1    2    0    0  0.14989719870E+02  0.12466607417E+03  0.10673742920E+04  0.10873266303E+04  0.16500000000E+03 0.  0.
   -5000001    1    1    2    0    0 -0.14989719870E+02 -0.12466607417E+03  0.31172862427E+03  0.37438757584E+03  0.16500000000E+03 0.  0.
<mgrwt>
<rscale>  0 0.48444150E+03</rscale>
<asrwt>0</asrwt>
<pdfrwt beam="1">  1        2 0.20291549E+00 0.48444150E+03</pdfrwt>
<pdfrwt beam="2">  1       -2 0.59008071E-02 0.48444150E+03</pdfrwt>
<totfact> 0.25993262E+03</totfact>
</mgrwt>
</event>
<event>
 4    1  0.5323640E-005  0.4676847E+03  0.7818608E-02  0.1022576E+00
         -2   -1    0    0    0  501 -0.00000000000E+00  0.00000000000E+00  0.39017116661E+02  0.39017116744E+02  0.25500000000E-02 0. -1.
          2   -1    0    0  501    0  0.00000000000E+00 -0.00000000000E+00 -0.14014936547E+04  0.14014936547E+04  0.25500000000E-02 0.  1.
    5000001    1    1    2    0    0  0.54568775452E+02 -0.15645879816E+03 -0.68236875440E+03  0.72132463133E+03  0.16500000000E+03 0.  0.
   -5000001    1    1    2    0    0 -0.54568775452E+02  0.15645879816E+03 -0.68010778364E+03  0.71918614012E+03  0.16500000000E+03 0.  0.
<mgrwt>
<rscale>  0 0.46768469E+03</rscale>
<asrwt>0</asrwt>
<pdfrwt beam="1">  1        2 0.20021335E+00 0.46768469E+03</pdfrwt>
<pdfrwt beam="2">  1       -2 0.55738747E-02 0.46768469E+03</pdfrwt>
<totfact> 0.29062223E+03</totfact>
</mgrwt>
</event>
<event>
 4    1  0.5323640E-005  0.4648893E+03  0.7818608E-02  0.1023373E+00
         -2   -1    0    0    0  501 -0.00000000000E+00  0.00000000000E+00  0.32314436075E+02  0.32314436176E+02  0.25500000000E-02 0. -1.
          2   -1    0    0  501    0  0.00000000000E+00 -0.00000000000E+00 -0.16720240620E+04  0.16720240620E+04  0.25500000000E-02 0.  1.
    5000001    1    1    2    0    0 -0.60095808436E+02  0.13463272448E+03 -0.10808462387E+04  0.11032638254E+04  0.16500000000E+03 0.  0.
   -5000001    1    1    2    0    0  0.60095808436E+02 -0.13463272448E+03 -0.55886338720E+03  0.60107467277E+03  0.16500000000E+03 0.  0.
<mgrwt>
<rscale>  0 0.46488930E+03</rscale>
<asrwt>0</asrwt>
<pdfrwt beam="1">  1        2 0.23886053E+00 0.46488930E+03</pdfrwt>
<pdfrwt beam="2">  1       -2 0.46163491E-02 0.46488930E+03</pdfrwt>
<totfact> 0.28222731E+03</totfact>
</mgrwt>
</event>
<event>
 4    1  0.5323640E-005  0.4320813E+03  0.7818608E-02  0.1033204E+00
          2   -1    0    0  501    0  0.00000000000E+00  0.00000000000E+00  0.47805034397E+04  0.47805034397E+04  0.25500000000E-02 0.  1.
         -2   -1    0    0    0  501 -0.00000000000E+00 -0.00000000000E+00 -0.97633173292E+01  0.97633176622E+01  0.25500000000E-02 0. -1.
    5000001    1    1    2    0    0  0.64923658015E+02  0.53195226548E+02  0.36200967788E+04  0.36248269616E+04  0.16500000000E+03 0.  0.
   -5000001    1    1    2    0    0 -0.64923658015E+02 -0.53195226548E+02  0.11506433436E+04  0.11654397958E+04  0.16500000000E+03 0.  0.
<mgrwt>
<rscale>  0 0.43208135E+03</rscale>
<asrwt>0</asrwt>
<pdfrwt beam="1">  1        2 0.68293044E+00 0.43208135E+03</pdfrwt>
<pdfrwt beam="2">  1       -2 0.13947568E-02 0.43208135E+03</pdfrwt>
<totfact> 0.24205352E+02</totfact>
</mgrwt>
</event>
<event>
 4    1  0.5323640E-005  0.4358085E+03  0.7818608E-02  0.1032041E+00
         -2   -1    0    0    0  501 -0.00000000000E+00  0.00000000000E+00  0.29209086987E+02  0.29209087098E+02  0.25500000000E-02 0. -1.
          2   -1    0    0  501    0  0.00000000000E+00 -0.00000000000E+00 -0.16255987609E+04  0.16255987609E+04  0.25500000000E-02 0.  1.
    5000001    1    1    2    0    0  0.11522111537E+03  0.65766261533E+02 -0.60250055692E+03  0.63861806087E+03  0.16500000000E+03 0.  0.
   -5000001    1    1    2    0    0 -0.11522111537E+03 -0.65766261533E+02 -0.99388911696E+03  0.10161897871E+04  0.16500000000E+03 0.  0.
<mgrwt>
<rscale>  0 0.43580847E+03</rscale>
<asrwt>0</asrwt>
<pdfrwt beam="1">  1        2 0.23222834E+00 0.43580847E+03</pdfrwt>
<pdfrwt beam="2">  1       -2 0.41727278E-02 0.43580847E+03</pdfrwt>
<totfact> 0.34790646E+03</totfact>
</mgrwt>
</event>
<event>
 4    1  0.5323640E-005  0.5122038E+03  0.7818608E-02  0.1010642E+00
         -2   -1    0    0    0  501 -0.00000000000E+00  0.00000000000E+00  0.21049743222E+02  0.21049743376E+02  0.25500000000E-02 0. -1.
          2   -1    0    0  501    0  0.00000000000E+00 -0.00000000000E+00 -0.31158666980E+04  0.31158666980E+04  0.25500000000E-02 0.  1.
    5000001    1    1    2    0    0 -0.63570186180E+02  0.17331550810E+03 -0.11465669619E+04  0.11729962626E+04  0.16500000000E+03 0.  0.
   -5000001    1    1    2    0    0  0.63570186180E+02 -0.17331550810E+03 -0.19482499929E+04  0.19639201788E+04  0.16500000000E+03 0.  0.
<mgrwt>
<rscale>  0 0.51220384E+03</rscale>
<asrwt>0</asrwt>
<pdfrwt beam="1">  1        2 0.44512352E+00 0.51220384E+03</pdfrwt>
<pdfrwt beam="2">  1       -2 0.30071082E-02 0.51220384E+03</pdfrwt>
<totfact> 0.98362415E+02</totfact>
</mgrwt>
</event>
<event>
 4    1  0.5323640E-005  0.4241768E+03  0.7818608E-02  0.1035715E+00
          2   -1    0    0  501    0  0.00000000000E+00  0.00000000000E+00  0.98639841166E+03  0.98639841166E+03  0.25500000000E-02 0.  1.
         -2   -1    0    0    0  501 -0.00000000000E+00 -0.00000000000E+00 -0.45601743072E+02  0.45601743144E+02  0.25500000000E-02 0. -1.
    5000001    1    1    2    0    0 -0.11538180158E+03  0.15100121703E+02  0.31243434698E+03  0.37199622980E+03  0.16500000000E+03 0.  0.
   -5000001    1    1    2    0    0  0.11538180158E+03 -0.15100121703E+02  0.62836232161E+03  0.66000392501E+03  0.16500000000E+03 0.  0.
<mgrwt>
<rscale>  0 0.42417679E+03</rscale>
<asrwt>0</asrwt>
<pdfrwt beam="1">  1        2 0.14091405E+00 0.42417679E+03</pdfrwt>
<pdfrwt beam="2">  1       -2 0.65145351E-02 0.42417679E+03</pdfrwt>
<totfact> 0.38884755E+03</totfact>
</mgrwt>
</event>
<event>
 4    1  0.5323640E-005  0.7414989E+03  0.7818608E-02  0.9648782E-01
          2   -1    0    0  501    0  0.00000000000E+00  0.00000000000E+00  0.20355848622E+04  0.20355848622E+04  0.25500000000E-02 0.  1.
         -2   -1    0    0    0  501 -0.00000000000E+00 -0.00000000000E+00 -0.67526121421E+02  0.67526121469E+02  0.25500000000E-02 0. -1.
    5000001    1    1    2    0    0  0.32930543438E+03  0.35966434366E+02  0.92095781181E+03  0.99253410251E+03  0.16500000000E+03 0.  0.
   -5000001    1    1    2    0    0 -0.32930543438E+03 -0.35966434366E+02  0.10471009289E+04  0.11105768811E+04  0.16500000000E+03 0.  0.
<mgrwt>
<rscale>  0 0.74149889E+03</rscale>
<asrwt>0</asrwt>
<pdfrwt beam="1">  1        2 0.29079781E+00 0.74149889E+03</pdfrwt>
<pdfrwt beam="2">  1       -2 0.96465896E-02 0.74149889E+03</pdfrwt>
<totfact> 0.57158876E+02</totfact>
</mgrwt>
</event>
<event>
 4    1  0.5323640E-005  0.7312245E+03  0.7818608E-02  0.9665275E-01
          2   -1    0    0  501    0  0.00000000000E+00  0.00000000000E+00  0.12842424910E+04  0.12842424910E+04  0.25500000000E-02 0.  1.
         -2   -1    0    0    0  501 -0.00000000000E+00 -0.00000000000E+00 -0.10408650429E+03  0.10408650432E+03  0.25500000000E-02 0. -1.
    5000001    1    1    2    0    0  0.28364965626E+02  0.30646491234E+03  0.79563982884E+03  0.86890336114E+03  0.16500000000E+03 0.  0.
   -5000001    1    1    2    0    0 -0.28364965626E+02 -0.30646491234E+03  0.38451615783E+03  0.51942563414E+03  0.16500000000E+03 0.  0.
<mgrwt>
<rscale>  0 0.73122448E+03</rscale>
<asrwt>0</asrwt>
<pdfrwt beam="1">  1        2 0.18346321E+00 0.73122448E+03</pdfrwt>
<pdfrwt beam="2">  1       -2 0.14869501E-01 0.73122448E+03</pdfrwt>
<totfact> 0.68582723E+02</totfact>
</mgrwt>
</event>
<event>
 4    1  0.5323640E-005  0.4039909E+03  0.7818608E-02  0.1042406E+00
         -2   -1    0    0    0  501 -0.00000000000E+00  0.00000000000E+00  0.38045407260E+02  0.38045407346E+02  0.25500000000E-02 0. -1.
          2   -1    0    0  501    0  0.00000000000E+00 -0.00000000000E+00 -0.10724595566E+04  0.10724595566E+04  0.25500000000E-02 0.  1.
    5000001    1    1    2    0    0 -0.23000302690E+01  0.94615451813E+02 -0.33037136152E+03  0.38121858608E+03  0.16500000000E+03 0.  0.
   -5000001    1    1    2    0    0  0.23000302690E+01 -0.94615451813E+02 -0.70404278779E+03  0.72928637784E+03  0.16500000000E+03 0.  0.
<mgrwt>
<rscale>  0 0.40399089E+03</rscale>
<asrwt>0</asrwt>
<pdfrwt beam="1">  1        2 0.15320849E+00 0.40399089E+03</pdfrwt>
<pdfrwt beam="2">  1       -2 0.54350588E-02 0.40399089E+03</pdfrwt>
<totfact> 0.45776915E+03</totfact>
</mgrwt>
</event>
<event>
 4    1  0.5323640E-005  0.4646295E+03  0.7818608E-02  0.1023447E+00
         -2   -1    0    0    0  501 -0.00000000000E+00  0.00000000000E+00  0.12575897157E+03  0.12575897160E+03  0.25500000000E-02 0. -1.
          2   -1    0    0  501    0  0.00000000000E+00 -0.00000000000E+00 -0.42915537760E+03  0.42915537761E+03  0.25500000000E-02 0.  1.
    5000001    1    1    2    0    0  0.13088748086E+03 -0.96416795122E+02 -0.17297606884E+03  0.28909073216E+03  0.16500000000E+03 0.  0.
   -5000001    1    1    2    0    0 -0.13088748086E+03  0.96416795122E+02 -0.13042033719E+03  0.26582361705E+03  0.16500000000E+03 0.  0.
<mgrwt>
<rscale>  0 0.46462948E+03</rscale>
<asrwt>0</asrwt>
<pdfrwt beam="1">  1        2 0.61307910E-01 0.46462948E+03</pdfrwt>
<pdfrwt beam="2">  1       -2 0.17965568E-01 0.46462948E+03</pdfrwt>
<totfact> 0.20409499E+03</totfact>
</mgrwt>
</event>
<event>
 4    1  0.5323640E-005  0.3923417E+03  0.7818608E-02  0.1046464E+00
         -2   -1    0    0    0  501 -0.00000000000E+00  0.00000000000E+00  0.13311902716E+02  0.13311902960E+02  0.25500000000E-02 0. -1.
          2   -1    0    0  501    0  0.00000000000E+00 -0.00000000000E+00 -0.28908723148E+04  0.28908723148E+04  0.25500000000E-02 0.  1.
    5000001    1    1    2    0    0 -0.98362626998E+02  0.29451784316E+02 -0.12407947378E+04  0.12559216517E+04  0.16500000000E+03 0.  0.
   -5000001    1    1    2    0    0  0.98362626998E+02 -0.29451784316E+02 -0.16367656743E+04  0.16482625660E+04  0.16500000000E+03 0.  0.
<mgrwt>
<rscale>  0 0.39234175E+03</rscale>
<asrwt>0</asrwt>
<pdfrwt beam="1">  1        2 0.41298136E+00 0.39234175E+03</pdfrwt>
<pdfrwt beam="2">  1       -2 0.19017023E-02 0.39234175E+03</pdfrwt>
<totfact> 0.26131854E+03</totfact>
</mgrwt>
</event>
<event>
 4    1  0.5323640E-005  0.3598103E+03  0.7818608E-02  0.1058659E+00
         -2   -1    0    0    0  501 -0.00000000000E+00  0.00000000000E+00  0.65166290155E+02  0.65166290205E+02  0.25500000000E-02 0. -1.
          2   -1    0    0  501    0  0.00000000000E+00 -0.00000000000E+00 -0.49666562105E+03  0.49666562105E+03  0.25500000000E-02 0.  1.
    5000001    1    1    2    0    0 -0.76973298680E+01 -0.35852555771E+02 -0.11954248701E+03  0.20702671529E+03  0.16500000000E+03 0.  0.
   -5000001    1    1    2    0    0  0.76973298680E+01  0.35852555771E+02 -0.31195684388E+03  0.35480519597E+03  0.16500000000E+03 0.  0.
<mgrwt>
<rscale>  0 0.35981026E+03</rscale>
<asrwt>0</asrwt>
<pdfrwt beam="1">  1        2 0.70952230E-01 0.35981026E+03</pdfrwt>
<pdfrwt beam="2">  1       -2 0.93094703E-02 0.35981026E+03</pdfrwt>
<totfact> 0.50965441E+03</totfact>
</mgrwt>
</event>
<event>
 4    1  0.5323640E-005  0.6344293E+03  0.7818608E-02  0.9836443E-01
         -2   -1    0    0    0  501 -0.00000000000E+00  0.00000000000E+00  0.61069698387E+02  0.61069698441E+02  0.25500000000E-02 0. -1.
          2   -1    0    0  501    0  0.00000000000E+00 -0.00000000000E+00 -0.16477097436E+04  0.16477097437E+04  0.25500000000E-02 0.  1.
    5000001    1    1    2    0    0 -0.99626691074E+01 -0.26521274121E+03 -0.93993379621E+03  0.99052389882E+03  0.16500000000E+03 0.  0.
   -5000001    1    1    2    0    0  0.99626691074E+01  0.26521274121E+03 -0.64670624905E+03  0.71825554327E+03  0.16500000000E+03 0.  0.
<mgrwt>
<rscale>  0 0.63442931E+03</rscale>
<asrwt>0</asrwt>
<pdfrwt beam="1">  1        2 0.23538708E+00 0.63442931E+03</pdfrwt>
<pdfrwt beam="2">  1       -2 0.87242437E-02 0.63442931E+03</pdfrwt>
<totfact> 0.10637524E+03</totfact>
</mgrwt>
</event>
<event>
 4    1  0.5323640E-005  0.6553640E+03  0.7818608E-02  0.9796766E-01
         -2   -1    0    0    0  501 -0.00000000000E+00  0.00000000000E+00  0.31904181348E+02  0.31904181450E+02  0.25500000000E-02 0. -1.
          2   -1    0    0  501    0  0.00000000000E+00 -0.00000000000E+00 -0.33655613919E+04  0.33655613919E+04  0.25500000000E-02 0.  1.
    5000001    1    1    2    0    0 -0.16302883868E+03  0.22414175720E+03 -0.19660970653E+04  0.19923806362E+04  0.16500000000E+03 0.  0.
   -5000001    1    1    2    0    0  0.16302883868E+03 -0.22414175720E+03 -0.13675601453E+04  0.14050849371E+04  0.16500000000E+03 0.  0.
<mgrwt>
<rscale>  0 0.65536396E+03</rscale>
<asrwt>0</asrwt>
<pdfrwt beam="1">  1        2 0.48079426E+00 0.65536396E+03</pdfrwt>
<pdfrwt beam="2">  1       -2 0.45577423E-02 0.65536396E+03</pdfrwt>
<totfact> 0.37042605E+02</totfact>
</mgrwt>
</event>
<event>
 4    1  0.5323640E-005  0.4605612E+03  0.7818608E-02  0.1024619E+00
          2   -1    0    0  501    0  0.00000000000E+00  0.00000000000E+00  0.19688824355E+04  0.19688824355E+04  0.25500000000E-02 0.  1.
         -2   -1    0    0    0  501 -0.00000000000E+00 -0.00000000000E+00 -0.26933628518E+02  0.26933628638E+02  0.25500000000E-02 0. -1.
    5000001    1    1    2    0    0 -0.13457058055E+03  0.60775169683E+02  0.69685929030E+03  0.73119131073E+03  0.16500000000E+03 0.  0.
   -5000001    1    1    2    0    0  0.13457058055E+03 -0.60775169683E+02  0.12450895166E+04  0.12646247534E+04  0.16500000000E+03 0.  0.
<mgrwt>
<rscale>  0 0.46056117E+03</rscale>
<asrwt>0</asrwt>
<pdfrwt beam="1">  1        2 0.28126888E+00 0.46056117E+03</pdfrwt>
<pdfrwt beam="2">  1       -2 0.38476617E-02 0.46056117E+03</pdfrwt>
<totfact> 0.26495784E+03</totfact>
</mgrwt>
</event>
<event>
 4    1  0.5323640E-005  0.4380329E+03  0.7818608E-02  0.1031352E+00
          2   -1    0    0  501    0  0.00000000000E+00  0.00000000000E+00  0.96966565923E+02  0.96966565956E+02  0.25500000000E-02 0.  1.
         -2   -1    0    0    0  501 -0.00000000000E+00 -0.00000000000E+00 -0.49468805245E+03  0.49468805246E+03  0.25500000000E-02 0. -1.
    5000001    1    1    2    0    0 -0.13976561892E+03  0.23922188151E+02 -0.16478372803E+03  0.27292009149E+03  0.16500000000E+03 0.  0.
   -5000001    1    1    2    0    0  0.13976561892E+03 -0.23922188151E+02 -0.23293775850E+03  0.31873452692E+03  0.16500000000E+03 0.  0.
<mgrwt>
<rscale>  0 0.43803288E+03</rscale>
<asrwt>0</asrwt>
<pdfrwt beam="1">  1        2 0.13852367E-01 0.43803288E+03</pdfrwt>
<pdfrwt beam="2">  1       -2 0.70669721E-01 0.43803288E+03</pdfrwt>
<totfact> 0.80769775E+02</totfact>
</mgrwt>
</event>
<event>
 4    1  0.5323640E-005  0.4291711E+03  0.7818608E-02  0.1034122E+00
          2   -1    0    0  501    0  0.00000000000E+00  0.00000000000E+00  0.39324931144E+04  0.39324931144E+04  0.25500000000E-02 0.  1.
         -2   -1    0    0    0  501 -0.00000000000E+00 -0.00000000000E+00 -0.11709354393E+02  0.11709354671E+02  0.25500000000E-02 0. -1.
    5000001    1    1    2    0    0  0.12148335758E+03  0.57683500478E+02  0.22097795174E+04  0.22200081324E+04  0.16500000000E+03 0.  0.
   -5000001    1    1    2    0    0 -0.12148335758E+03 -0.57683500478E+02  0.17110042426E+04  0.17241943366E+04  0.16500000000E+03 0.  0.
<mgrwt>
<rscale>  0 0.42917109E+03</rscale>
<asrwt>0</asrwt>
<pdfrwt beam="1">  1        2 0.56178464E+00 0.42917109E+03</pdfrwt>
<pdfrwt beam="2">  1       -2 0.16727652E-02 0.42917109E+03</pdfrwt>
<totfact> 0.78182881E+02</totfact>
</mgrwt>
</event>
<event>
 4    1  0.5323640E-005  0.3881372E+03  0.7818608E-02  0.1047967E+00
          2   -1    0    0  501    0  0.00000000000E+00  0.00000000000E+00  0.31280687284E+03  0.31280687285E+03  0.25500000000E-02 0.  1.
         -2   -1    0    0    0  501 -0.00000000000E+00 -0.00000000000E+00 -0.12040218382E+03  0.12040218385E+03  0.25500000000E-02 0. -1.
    5000001    1    1    2    0    0  0.14673322818E+02  0.99031773344E+02  0.73464303837E+02  0.20650569598E+03  0.16500000000E+03 0.  0.
   -5000001    1    1    2    0    0 -0.14673322818E+02 -0.99031773344E+02  0.11894038518E+03  0.22670336072E+03  0.16500000000E+03 0.  0.
<mgrwt>
<rscale>  0 0.38813725E+03</rscale>
<asrwt>0</asrwt>
<pdfrwt beam="1">  1        2 0.44686695E-01 0.38813725E+03</pdfrwt>
<pdfrwt beam="2">  1       -2 0.17200312E-01 0.38813725E+03</pdfrwt>
<totfact> 0.31005736E+03</totfact>
</mgrwt>
</event>
<event>
 4    1  0.5323640E-005  0.4671516E+03  0.7818608E-02  0.1022727E+00
          2   -1    0    0  501    0  0.00000000000E+00  0.00000000000E+00  0.38249362050E+03  0.38249362051E+03  0.25500000000E-02 0.  1.
         -2   -1    0    0    0  501 -0.00000000000E+00 -0.00000000000E+00 -0.14263675677E+03  0.14263675679E+03  0.25500000000E-02 0. -1.
    5000001    1    1    2    0    0 -0.16439142867E+03 -0.17543570702E+02  0.11928186908E+03  0.26226986671E+03  0.16500000000E+03 0.  0.
   -5000001    1    1    2    0    0  0.16439142867E+03  0.17543570702E+02  0.12057499465E+03  0.26286051059E+03  0.16500000000E+03 0.  0.
<mgrwt>
<rscale>  0 0.46715158E+03</rscale>
<asrwt>0</asrwt>
<pdfrwt beam="1">  1        2 0.54641945E-01 0.46715158E+03</pdfrwt>
<pdfrwt beam="2">  1       -2 0.20376680E-01 0.46715158E+03</pdfrwt>
<totfact> 0.18657069E+03</totfact>
</mgrwt>
</event>
<event>
 4    1  0.5323640E-005  0.6861167E+03  0.7818608E-02  0.9741273E-01
         -2   -1    0    0    0  501 -0.00000000000E+00  0.00000000000E+00  0.47664074579E+03  0.47664074580E+03  0.25500000000E-02 0. -1.
          2   -1    0    0  501    0  0.00000000000E+00 -0.00000000000E+00 -0.24691352283E+03  0.24691352284E+03  0.25500000000E-02 0.  1.
    5000001    1    1    2    0    0 -0.10374098678E+03  0.18435629301E+02 -0.18222044375E+03  0.26745346303E+03  0.16500000000E+03 0.  0.
   -5000001    1    1    2    0    0  0.10374098678E+03 -0.18435629301E+02  0.41194766672E+03  0.45610080561E+03  0.16500000000E+03 0.  0.
<mgrwt>
<rscale>  0 0.68611674E+03</rscale>
<asrwt>0</asrwt>
<pdfrwt beam="1">  1        2 0.35273360E-01 0.68611674E+03</pdfrwt>
<pdfrwt beam="2">  1       -2 0.68091535E-01 0.68611674E+03</pdfrwt>
<totfact> 0.29547541E+02</totfact>
</mgrwt>
</event>
<event>
 4    1  0.5323640E-005  0.4169310E+03  0.7818608E-02  0.1038070E+00
         -2   -1    0    0    0  501 -0.00000000000E+00  0.00000000000E+00  0.62365401358E+02  0.62365401410E+02  0.25500000000E-02 0. -1.
          2   -1    0    0  501    0  0.00000000000E+00 -0.00000000000E+00 -0.69682634149E+03  0.69682634149E+03  0.25500000000E-02 0.  1.
    5000001    1    1    2    0    0 -0.73796896756E+02 -0.27449896438E+02 -0.13483633179E+03  0.22716803287E+03  0.16500000000E+03 0.  0.
   -5000001    1    1    2    0    0  0.73796896756E+02  0.27449896438E+02 -0.49962460834E+03  0.53202371004E+03  0.16500000000E+03 0.  0.
<mgrwt>
<rscale>  0 0.41693095E+03</rscale>
<asrwt>0</asrwt>
<pdfrwt beam="1">  1        2 0.99546616E-01 0.41693095E+03</pdfrwt>
<pdfrwt beam="2">  1       -2 0.89093435E-02 0.41693095E+03</pdfrwt>
<totfact> 0.37062191E+03</totfact>
</mgrwt>
</event>
<event>
 4    1  0.5323640E-005  0.3918310E+03  0.7818608E-02  0.1046646E+00
         -2   -1    0    0    0  501 -0.00000000000E+00  0.00000000000E+00  0.23714596834E+02  0.23714596971E+02  0.25500000000E-02 0. -1.
          2   -1    0    0  501    0  0.00000000000E+00 -0.00000000000E+00 -0.16185342073E+04  0.16185342073E+04  0.25500000000E-02 0.  1.
    5000001    1    1    2    0    0  0.10374509818E+03 -0.19754221655E+02 -0.80641032418E+03  0.82986498035E+03  0.16500000000E+03 0.  0.
   -5000001    1    1    2    0    0 -0.10374509818E+03  0.19754221655E+02 -0.78840928632E+03  0.81238382396E+03  0.16500000000E+03 0.  0.
<mgrwt>
<rscale>  0 0.39183102E+03</rscale>
<asrwt>0</asrwt>
<pdfrwt beam="1">  1        2 0.23121910E+00 0.39183102E+03</pdfrwt>
<pdfrwt beam="2">  1       -2 0.33878006E-02 0.39183102E+03</pdfrwt>
<totfact> 0.48136179E+03</totfact>
</mgrwt>
</event>
<event>
 4    1  0.5323640E-005  0.7610625E+03  0.7818608E-02  0.9618153E-01
          2   -1    0    0  501    0  0.00000000000E+00  0.00000000000E+00  0.14753602539E+04  0.14753602539E+04  0.25500000000E-02 0.  1.
         -2   -1    0    0    0  501 -0.00000000000E+00 -0.00000000000E+00 -0.98148241942E+02  0.98148241975E+02  0.25500000000E-02 0. -1.
    5000001    1    1    2    0    0 -0.12040967989E+03 -0.26984259505E+03  0.10482913209E+04  0.11015685228E+04  0.16500000000E+03 0.  0.
   -5000001    1    1    2    0    0  0.12040967989E+03  0.26984259505E+03  0.32892069106E+03  0.47193997300E+03  0.16500000000E+03 0.  0.
<mgrwt>
<rscale>  0 0.76106246E+03</rscale>
<asrwt>0</asrwt>
<pdfrwt beam="1">  1        2 0.21076574E+00 0.76106246E+03</pdfrwt>
<pdfrwt beam="2">  1       -2 0.14021178E-01 0.76106246E+03</pdfrwt>
<totfact> 0.59673251E+02</totfact>
</mgrwt>
</event>
<event>
 4    1  0.5323640E-005  0.4062379E+03  0.7818608E-02  0.1041641E+00
          2   -1    0    0  501    0  0.00000000000E+00  0.00000000000E+00  0.30997694462E+03  0.30997694463E+03  0.25500000000E-02 0.  1.
         -2   -1    0    0    0  501 -0.00000000000E+00 -0.00000000000E+00 -0.13309799451E+03  0.13309799454E+03  0.25500000000E-02 0. -1.
    5000001    1    1    2    0    0 -0.36439237919E+02  0.31842879843E+02  0.20636659759E+03  0.26861489098E+03  0.16500000000E+03 0.  0.
   -5000001    1    1    2    0    0  0.36439237919E+02 -0.31842879843E+02 -0.29487647490E+02  0.17446004818E+03  0.16500000000E+03 0.  0.
<mgrwt>
<rscale>  0 0.40623791E+03</rscale>
<asrwt>0</asrwt>
<pdfrwt beam="1">  1        2 0.44282420E-01 0.40623791E+03</pdfrwt>
<pdfrwt beam="2">  1       -2 0.19014000E-01 0.40623791E+03</pdfrwt>
<totfact> 0.26420414E+03</totfact>
</mgrwt>
</event>
<event>
 4    1  0.5323640E-005  0.4032645E+03  0.7818608E-02  0.1042655E+00
          2   -1    0    0  501    0  0.00000000000E+00  0.00000000000E+00  0.18314967506E+03  0.18314967508E+03  0.25500000000E-02 0.  1.
         -2   -1    0    0    0  501 -0.00000000000E+00 -0.00000000000E+00 -0.22197998966E+03  0.22197998968E+03  0.25500000000E-02 0. -1.
    5000001    1    1    2    0    0 -0.30983652564E+01 -0.68166018202E+02 -0.11351994330E+03  0.21158445934E+03  0.16500000000E+03 0.  0.
   -5000001    1    1    2    0    0  0.30983652564E+01  0.68166018202E+02  0.74689628701E+02  0.19354520542E+03  0.16500000000E+03 0.  0.
<mgrwt>
<rscale>  0 0.40326449E+03</rscale>
<asrwt>0</asrwt>
<pdfrwt beam="1">  1        2 0.26164239E-01 0.40326449E+03</pdfrwt>
<pdfrwt beam="2">  1       -2 0.31711427E-01 0.40326449E+03</pdfrwt>
<totfact> 0.19015890E+03</totfact>
</mgrwt>
</event>
<event>
 4    1  0.5323640E-005  0.5015643E+03  0.7818608E-02  0.1013371E+00
         -2   -1    0    0    0  501 -0.00000000000E+00  0.00000000000E+00  0.15730605467E+02  0.15730605674E+02  0.25500000000E-02 0. -1.
          2   -1    0    0  501    0  0.00000000000E+00 -0.00000000000E+00 -0.39980456033E+04  0.39980456033E+04  0.25500000000E-02 0.  1.
    5000001    1    1    2    0    0  0.14150586029E+03 -0.46222237717E+02 -0.10611330725E+04  0.10841534952E+04  0.16500000000E+03 0.  0.
   -5000001    1    1    2    0    0 -0.14150586029E+03  0.46222237717E+02 -0.29211819254E+04  0.29296227137E+04  0.16500000000E+03 0.  0.
<mgrwt>
<rscale>  0 0.50156427E+03</rscale>
<asrwt>0</asrwt>
<pdfrwt beam="1">  1        2 0.57114872E+00 0.50156427E+03</pdfrwt>
<pdfrwt beam="2">  1       -2 0.22472319E-02 0.50156427E+03</pdfrwt>
<totfact> 0.45073944E+02</totfact>
</mgrwt>
</event>
<event>
 4    1  0.5323640E-005  0.3848045E+03  0.7818608E-02  0.1049172E+00
         -2   -1    0    0    0  501 -0.00000000000E+00  0.00000000000E+00  0.75596488222E+02  0.75596488265E+02  0.25500000000E-02 0. -1.
          2   -1    0    0  501    0  0.00000000000E+00 -0.00000000000E+00 -0.48968711934E+03  0.48968711934E+03  0.25500000000E-02 0.  1.
    5000001    1    1    2    0    0 -0.73479482018E+02 -0.36707643472E+02 -0.12595699951E+03  0.22324168762E+03  0.16500000000E+03 0.  0.
   -5000001    1    1    2    0    0  0.73479482018E+02  0.36707643472E+02 -0.28813363160E+03  0.34204191998E+03  0.16500000000E+03 0.  0.
<mgrwt>
<rscale>  0 0.38480450E+03</rscale>
<asrwt>0</asrwt>
<pdfrwt beam="1">  1        2 0.69955301E-01 0.38480450E+03</pdfrwt>
<pdfrwt beam="2">  1       -2 0.10799499E-01 0.38480450E+03</pdfrwt>
<totfact> 0.40875622E+03</totfact>
</mgrwt>
</event>
<event>
 4    1  0.5323640E-005  0.7868035E+03  0.7818608E-02  0.9579317E-01
         -2   -1    0    0    0  501 -0.00000000000E+00  0.00000000000E+00  0.46586499361E+03  0.46586499361E+03  0.25500000000E-02 0. -1.
          2   -1    0    0  501    0  0.00000000000E+00 -0.00000000000E+00 -0.33220980285E+03  0.33220980286E+03  0.25500000000E-02 0.  1.
    5000001    1    1    2    0    0  0.15033233257E+02 -0.31504961334E+03  0.23673138640E+03  0.42749152772E+03  0.16500000000E+03 0.  0.
   -5000001    1    1    2    0    0 -0.15033233257E+02  0.31504961334E+03 -0.10307619565E+03  0.37058326875E+03  0.16500000000E+03 0.  0.
<mgrwt>
<rscale>  0 0.78680345E+03</rscale>
<asrwt>0</asrwt>
<pdfrwt beam="1">  1        2 0.47458544E-01 0.78680345E+03</pdfrwt>
<pdfrwt beam="2">  1       -2 0.66552141E-01 0.78680345E+03</pdfrwt>
<totfact> 0.22252275E+02</totfact>
</mgrwt>
</event>
<event>
 4    1  0.5323640E-005  0.5116892E+03  0.7818608E-02  0.1010772E+00
         -2   -1    0    0    0  501 -0.00000000000E+00  0.00000000000E+00  0.43528617047E+02  0.43528617121E+02  0.25500000000E-02 0. -1.
          2   -1    0    0  501    0  0.00000000000E+00 -0.00000000000E+00 -0.15037567744E+04  0.15037567744E+04  0.25500000000E-02 0.  1.
    5000001    1    1    2    0    0  0.17244065794E+03  0.90913707426E+02 -0.68421782228E+03  0.73032876914E+03  0.16500000000E+03 0.  0.
   -5000001    1    1    2    0    0 -0.17244065794E+03 -0.90913707426E+02 -0.77601033503E+03  0.81695662234E+03  0.16500000000E+03 0.  0.
<mgrwt>
<rscale>  0 0.51168917E+03</rscale>
<asrwt>0</asrwt>
<pdfrwt beam="1">  1        2 0.21482236E+00 0.51168917E+03</pdfrwt>
<pdfrwt beam="2">  1       -2 0.62183748E-02 0.51168917E+03</pdfrwt>
<totfact> 0.21662099E+03</totfact>
</mgrwt>
</event>
<event>
 4    1  0.5323640E-005  0.7395791E+03  0.7818608E-02  0.9651842E-01
          2   -1    0    0  501    0  0.00000000000E+00  0.00000000000E+00  0.32224103062E+04  0.32224103062E+04  0.25500000000E-02 0.  1.
         -2   -1    0    0    0  501 -0.00000000000E+00 -0.00000000000E+00 -0.42435410321E+02  0.42435410398E+02  0.25500000000E-02 0. -1.
    5000001    1    1    2    0    0  0.24879692862E+03  0.20651302218E+03  0.12787203018E+04  0.13292472119E+04  0.16500000000E+03 0.  0.
   -5000001    1    1    2    0    0 -0.24879692862E+03 -0.20651302218E+03  0.19012545941E+04  0.19355985047E+04  0.16500000000E+03 0.  0.
<mgrwt>
<rscale>  0 0.73957908E+03</rscale>
<asrwt>0</asrwt>
<pdfrwt beam="1">  1        2 0.46034454E+00 0.73957908E+03</pdfrwt>
<pdfrwt beam="2">  1       -2 0.60621987E-02 0.73957908E+03</pdfrwt>
<totfact> 0.28415345E+02</totfact>
</mgrwt>
</event>
<event>
 4    1  0.5323640E-005  0.8051974E+03  0.7818608E-02  0.9552524E-01
         -2   -1    0    0    0  501 -0.00000000000E+00  0.00000000000E+00  0.10664977113E+03  0.10664977116E+03  0.25500000000E-02 0. -1.
          2   -1    0    0  501    0  0.00000000000E+00 -0.00000000000E+00 -0.15197941464E+04  0.15197941464E+04  0.25500000000E-02 0.  1.
    5000001    1    1    2    0    0 -0.26709585112E+03 -0.19739751003E+03 -0.39004989219E+03  0.53820989311E+03  0.16500000000E+03 0.  0.
   -5000001    1    1    2    0    0  0.26709585112E+03  0.19739751003E+03 -0.10230944831E+04  0.10882340244E+04  0.16500000000E+03 0.  0.
<mgrwt>
<rscale>  0 0.80519736E+03</rscale>
<asrwt>0</asrwt>
<pdfrwt beam="1">  1        2 0.21711344E+00 0.80519736E+03</pdfrwt>
<pdfrwt beam="2">  1       -2 0.15235682E-01 0.80519736E+03</pdfrwt>
<totfact> 0.49041099E+02</totfact>
</mgrwt>
</event>
<event>
 4    1  0.5323640E-005  0.9036693E+03  0.7818608E-02  0.9421006E-01
         -2   -1    0    0    0  501 -0.00000000000E+00  0.00000000000E+00  0.95769522723E+02  0.95769522757E+02  0.25500000000E-02 0. -1.
          2   -1    0    0  501    0  0.00000000000E+00 -0.00000000000E+00 -0.21317278996E+04  0.21317278996E+04  0.25500000000E-02 0.  1.
    5000001    1    1    2    0    0  0.17869132501E+03 -0.28615479641E+03 -0.16372376070E+04  0.16797580597E+04  0.16500000000E+03 0.  0.
   -5000001    1    1    2    0    0 -0.17869132501E+03  0.28615479641E+03 -0.39872076986E+03  0.54773936270E+03  0.16500000000E+03 0.  0.
<mgrwt>
<rscale>  0 0.90366933E+03</rscale>
<asrwt>0</asrwt>
<pdfrwt beam="1">  1        2 0.30453253E+00 0.90366933E+03</pdfrwt>
<pdfrwt beam="2">  1       -2 0.13681362E-01 0.90366933E+03</pdfrwt>
<totfact> 0.28389133E+02</totfact>
</mgrwt>
</event>
<event>
 4    1  0.5323640E-005  0.4293130E+03  0.7818608E-02  0.1034077E+00
         -2   -1    0    0    0  501 -0.00000000000E+00  0.00000000000E+00  0.55761377693E+02  0.55761377752E+02  0.25500000000E-02 0. -1.
          2   -1    0    0  501    0  0.00000000000E+00 -0.00000000000E+00 -0.82633197552E+03  0.82633197552E+03  0.25500000000E-02 0.  1.
    5000001    1    1    2    0    0 -0.41001672309E+02  0.13052602458E+03 -0.36148052765E+03  0.42025153432E+03  0.16500000000E+03 0.  0.
   -5000001    1    1    2    0    0  0.41001672309E+02 -0.13052602458E+03 -0.40909007017E+03  0.46184181896E+03  0.16500000000E+03 0.  0.
<mgrwt>
<rscale>  0 0.42931298E+03</rscale>
<asrwt>0</asrwt>
<pdfrwt beam="1">  1        2 0.11804742E+00 0.42931298E+03</pdfrwt>
<pdfrwt beam="2">  1       -2 0.79659116E-02 0.42931298E+03</pdfrwt>
<totfact> 0.35846364E+03</totfact>
</mgrwt>
</event>
<event>
 4    1  0.5323640E-005  0.4119923E+03  0.7818608E-02  0.1039705E+00
          2   -1    0    0  501    0  0.00000000000E+00  0.00000000000E+00  0.32796798499E+02  0.32796798598E+02  0.25500000000E-02 0.  1.
         -2   -1    0    0    0  501 -0.00000000000E+00 -0.00000000000E+00 -0.12938584295E+04  0.12938584295E+04  0.25500000000E-02 0. -1.
    5000001    1    1    2    0    0  0.12039885337E+03 -0.19607644705E+02 -0.57211727359E+03  0.60780220332E+03  0.16500000000E+03 0.  0.
   -5000001    1    1    2    0    0 -0.12039885337E+03  0.19607644705E+02 -0.68894435737E+03  0.71885302474E+03  0.16500000000E+03 0.  0.
<mgrwt>
<rscale>  0 0.41199230E+03</rscale>
<asrwt>0</asrwt>
<pdfrwt beam="1">  1        2 0.46852578E-02 0.41199230E+03</pdfrwt>
<pdfrwt beam="2">  1       -2 0.18483689E+00 0.41199230E+03</pdfrwt>
<totfact> 0.31028760E+02</totfact>
</mgrwt>
</event>
<event>
 4    1  0.5323640E-005  0.5818513E+03  0.7818608E-02  0.9943791E-01
          2   -1    0    0  501    0  0.00000000000E+00  0.00000000000E+00  0.72389665451E+03  0.72389665451E+03  0.25500000000E-02 0.  1.
         -2   -1    0    0    0  501 -0.00000000000E+00 -0.00000000000E+00 -0.11691961725E+03  0.11691961728E+03  0.25500000000E-02 0. -1.
    5000001    1    1    2    0    0  0.93241087477E+02 -0.93893076030E+02  0.59215171569E+03  0.62879127261E+03  0.16500000000E+03 0.  0.
   -5000001    1    1    2    0    0 -0.93241087477E+02  0.93893076030E+02  0.14825321571E+02  0.21202499919E+03  0.16500000000E+03 0.  0.
<mgrwt>
<rscale>  0 0.58185125E+03</rscale>
<asrwt>0</asrwt>
<pdfrwt beam="1">  1        2 0.10341381E+00 0.58185125E+03</pdfrwt>
<pdfrwt beam="2">  1       -2 0.16702803E-01 0.58185125E+03</pdfrwt>
<totfact> 0.12608452E+03</totfact>
</mgrwt>
</event>
<event>
 4    1  0.5323640E-005  0.3457858E+03  0.7818608E-02  0.1064358E+00
         -2   -1    0    0    0  501 -0.00000000000E+00  0.00000000000E+00  0.28394114015E+02  0.28394114130E+02  0.25500000000E-02 0. -1.
          2   -1    0    0  501    0  0.00000000000E+00 -0.00000000000E+00 -0.10527520754E+04  0.10527520754E+04  0.25500000000E-02 0.  1.
    5000001    1    1    2    0    0  0.31499571011E+02  0.37253310193E+02 -0.56514111952E+03  0.59075334706E+03  0.16500000000E+03 0.  0.
   -5000001    1    1    2    0    0 -0.31499571011E+02 -0.37253310193E+02 -0.45921684189E+03  0.49039284250E+03  0.16500000000E+03 0.  0.
<mgrwt>
<rscale>  0 0.34578584E+03</rscale>
<asrwt>0</asrwt>
<pdfrwt beam="1">  1        2 0.15039313E+00 0.34578584E+03</pdfrwt>
<pdfrwt beam="2">  1       -2 0.40563027E-02 0.34578584E+03</pdfrwt>
<totfact> 0.73319567E+03</totfact>
</mgrwt>
</event>
<event>
 4    1  0.5323640E-005  0.4546420E+03  0.7818608E-02  0.1026347E+00
         -2   -1    0    0    0  501 -0.00000000000E+00  0.00000000000E+00  0.37704643004E+03  0.37704643005E+03  0.25500000000E-02 0. -1.
          2   -1    0    0  501    0  0.00000000000E+00 -0.00000000000E+00 -0.13705163191E+03  0.13705163193E+03  0.25500000000E-02 0.  1.
    5000001    1    1    2    0    0 -0.13146826986E+03  0.44220653325E+02  0.20162073333E+03  0.29515299807E+03  0.16500000000E+03 0.  0.
   -5000001    1    1    2    0    0  0.13146826986E+03 -0.44220653325E+02  0.38374064800E+02  0.21894506391E+03  0.16500000000E+03 0.  0.
<mgrwt>
<rscale>  0 0.45464196E+03</rscale>
<asrwt>0</asrwt>
<pdfrwt beam="1">  1        2 0.19578805E-01 0.45464196E+03</pdfrwt>
<pdfrwt beam="2">  1       -2 0.53863776E-01 0.45464196E+03</pdfrwt>
<totfact> 0.94794180E+02</totfact>
</mgrwt>
</event>
<event>
 4    1  0.5323640E-005  0.3913428E+03  0.7818608E-02  0.1046819E+00
         -2   -1    0    0    0  501 -0.00000000000E+00  0.00000000000E+00  0.14286431936E+02  0.14286432163E+02  0.25500000000E-02 0. -1.
          2   -1    0    0  501    0  0.00000000000E+00 -0.00000000000E+00 -0.26799765413E+04  0.26799765413E+04  0.25500000000E-02 0.  1.
    5000001    1    1    2    0    0  0.92749137492E+02 -0.19531355758E+02 -0.10189749696E+04  0.10365900178E+04  0.16500000000E+03 0.  0.
   -5000001    1    1    2    0    0 -0.92749137492E+02  0.19531355758E+02 -0.16467151398E+04  0.16576729556E+04  0.16500000000E+03 0.  0.
<mgrwt>
<rscale>  0 0.39134283E+03</rscale>
<asrwt>0</asrwt>
<pdfrwt beam="1">  1        2 0.38285347E+00 0.39134283E+03</pdfrwt>
<pdfrwt beam="2">  1       -2 0.20409206E-02 0.39134283E+03</pdfrwt>
<totfact> 0.30306407E+03</totfact>
</mgrwt>
</event>
<event>
 4    1  0.5323640E-005  0.4265523E+03  0.7818608E-02  0.1034955E+00
         -2   -1    0    0    0  501 -0.00000000000E+00  0.00000000000E+00  0.11544546777E+04  0.11544546777E+04  0.25500000000E-02 0. -1.
          2   -1    0    0  501    0  0.00000000000E+00 -0.00000000000E+00 -0.39401044908E+02  0.39401044991E+02  0.25500000000E-02 0.  1.
    5000001    1    1    2    0    0  0.76810246526E+02  0.18601318829E+02  0.86432843443E+03  0.88347861638E+03  0.16500000000E+03 0.  0.
   -5000001    1    1    2    0    0 -0.76810246526E+02 -0.18601318829E+02  0.25072519838E+03  0.31037710633E+03  0.16500000000E+03 0.  0.
<mgrwt>
<rscale>  0 0.42655232E+03</rscale>
<asrwt>0</asrwt>
<pdfrwt beam="1">  1        2 0.56287214E-02 0.42655232E+03</pdfrwt>
<pdfrwt beam="2">  1       -2 0.16492208E+00 0.42655232E+03</pdfrwt>
<totfact> 0.33277330E+02</totfact>
</mgrwt>
</event>
<event>
 4    1  0.5323640E-005  0.3849047E+03  0.7818608E-02  0.1049136E+00
          2   -1    0    0  501    0  0.00000000000E+00  0.00000000000E+00  0.45930627652E+03  0.45930627653E+03  0.25500000000E-02 0. -1.
         -2   -1    0    0    0  501 -0.00000000000E+00 -0.00000000000E+00 -0.80638800836E+02  0.80638800877E+02  0.25500000000E-02 0.  1.
    5000001    1    1    2    0    0  0.49790073241E+02 -0.85353071808E+02  0.19912416088E+03  0.27683863478E+03  0.16500000000E+03 0.  0.
   -5000001    1    1    2    0    0 -0.49790073241E+02  0.85353071808E+02  0.17954331481E+03  0.26310644263E+03  0.16500000000E+03 0.  0.
<mgrwt>
<rscale>  0 0.38490470E+03</rscale>
<asrwt>0</asrwt>
<pdfrwt beam="1">  1        2 0.65615182E-01 0.38490470E+03</pdfrwt>
<pdfrwt beam="2">  1       -2 0.11519829E-01 0.38490470E+03</pdfrwt>
<totfact> 0.39539897E+03</totfact>
</mgrwt>
</event>
<event>
 4    1  0.5323640E-005  0.7004944E+03  0.7818608E-02  0.9716387E-01
         -2   -1    0    0    0  501 -0.00000000000E+00  0.00000000000E+00  0.63186233468E+03  0.63186233469E+03  0.25500000000E-02 0. -1.
          2   -1    0    0  501    0  0.00000000000E+00 -0.00000000000E+00 -0.19414532163E+03  0.19414532165E+03  0.25500000000E-02 0.  1.
    5000001    1    1    2    0    0 -0.19309768020E+03 -0.18547236305E+03  0.40062567149E+03  0.50932567205E+03  0.16500000000E+03 0.  0.
   -5000001    1    1    2    0    0  0.19309768020E+03  0.18547236305E+03  0.37091341554E+02  0.31668198429E+03  0.16500000000E+03 0.  0.
<mgrwt>
<rscale>  0 0.70049444E+03</rscale>
<asrwt>0</asrwt>
<pdfrwt beam="1">  1        2 0.27735046E-01 0.70049444E+03</pdfrwt>
<pdfrwt beam="2">  1       -2 0.90266049E-01 0.70049444E+03</pdfrwt>
<totfact> 0.20622456E+02</totfact>
</mgrwt>
</event>
<event>
 4    1  0.5323640E-005  0.4240764E+03  0.7818608E-02  0.1035748E+00
         -2   -1    0    0    0  501 -0.00000000000E+00  0.00000000000E+00  0.12440273952E+03  0.12440273955E+03  0.25500000000E-02 0. -1.
          2   -1    0    0  501    0  0.00000000000E+00 -0.00000000000E+00 -0.36140835031E+03  0.36140835032E+03  0.25500000000E-02 0.  1.
    5000001    1    1    2    0    0  0.12868106727E+03 -0.26398254200E+02 -0.93417495445E+02  0.23066753858E+03  0.16500000000E+03 0.  0.
   -5000001    1    1    2    0    0 -0.12868106727E+03  0.26398254200E+02 -0.14358811534E+03  0.25514355129E+03  0.16500000000E+03 0.  0.
<mgrwt>
<rscale>  0 0.42407636E+03</rscale>
<asrwt>0</asrwt>
<pdfrwt beam="1">  1        2 0.51629764E-01 0.42407636E+03</pdfrwt>
<pdfrwt beam="2">  1       -2 0.17771820E-01 0.42407636E+03</pdfrwt>
<totfact> 0.25092923E+03</totfact>
</mgrwt>
</event>
<event>
 4    1  0.5323640E-005  0.7069795E+03  0.7818608E-02  0.9705370E-01
         -2   -1    0    0    0  501 -0.00000000000E+00  0.00000000000E+00  0.15850826735E+03  0.15850826737E+03  0.25500000000E-02 0. -1.
          2   -1    0    0  501    0  0.00000000000E+00 -0.00000000000E+00 -0.78831848864E+03  0.78831848864E+03  0.25500000000E-02 0.  1.
    5000001    1    1    2    0    0  0.12738515618E+03 -0.21025243467E+03 -0.57354783947E+03  0.64545734829E+03  0.16500000000E+03 0.  0.
   -5000001    1    1    2    0    0 -0.12738515618E+03  0.21025243467E+03 -0.56262381819E+02  0.30136940772E+03  0.16500000000E+03 0.  0.
<mgrwt>
<rscale>  0 0.70697948E+03</rscale>
<asrwt>0</asrwt>
<pdfrwt beam="1">  1        2 0.11261693E+00 0.70697948E+03</pdfrwt>
<pdfrwt beam="2">  1       -2 0.22644039E-01 0.70697948E+03</pdfrwt>
<totfact> 0.66574133E+02</totfact>
</mgrwt>
</event>
<event>
 4    1  0.5323640E-005  0.4506785E+03  0.7818608E-02  0.1027520E+00
         -2   -1    0    0    0  501 -0.00000000000E+00  0.00000000000E+00  0.23804995460E+02  0.23804995596E+02  0.25500000000E-02 0. -1.
          2   -1    0    0  501    0  0.00000000000E+00 -0.00000000000E+00 -0.21330725972E+04  0.21330725972E+04  0.25500000000E-02 0.  1.
    5000001    1    1    2    0    0  0.12405250331E+03 -0.54409219640E+02 -0.70940890375E+03  0.74083424562E+03  0.16500000000E+03 0.  0.
   -5000001    1    1    2    0    0 -0.12405250331E+03  0.54409219640E+02 -0.13998586980E+04  0.14160433472E+04  0.16500000000E+03 0.  0.
<mgrwt>
<rscale>  0 0.45067853E+03</rscale>
<asrwt>0</asrwt>
<pdfrwt beam="1">  1        2 0.30472454E+00 0.45067853E+03</pdfrwt>
<pdfrwt beam="2">  1       -2 0.34007150E-02 0.45067853E+03</pdfrwt>
<totfact> 0.26496429E+03</totfact>
</mgrwt>
</event>
<event>
 4    1  0.5323640E-005  0.4813470E+03  0.7818608E-02  0.1018766E+00
          2   -1    0    0  501    0  0.00000000000E+00  0.00000000000E+00  0.10305009512E+04  0.10305009512E+04  0.25500000000E-02 0.  1.
         -2   -1    0    0    0  501 -0.00000000000E+00 -0.00000000000E+00 -0.56209285649E+02  0.56209285706E+02  0.25500000000E-02 0. -1.
    5000001    1    1    2    0    0  0.54733505858E+02  0.10374251524E+03  0.19330098381E+03  0.27990808576E+03  0.16500000000E+03 0.  0.
   -5000001    1    1    2    0    0 -0.54733505858E+02 -0.10374251524E+03  0.78099068173E+03  0.80680215114E+03  0.16500000000E+03 0.  0.
<mgrwt>
<rscale>  0 0.48134695E+03</rscale>
<asrwt>0</asrwt>
<pdfrwt beam="1">  1        2 0.14721442E+00 0.48134695E+03</pdfrwt>
<pdfrwt beam="2">  1       -2 0.80298979E-02 0.48134695E+03</pdfrwt>
<totfact> 0.26346689E+03</totfact>
</mgrwt>
</event>
<event>
 4    1  0.5323640E-005  0.5624112E+03  0.7818608E-02  0.9986614E-01
          2   -1    0    0  501    0  0.00000000000E+00  0.00000000000E+00  0.68719278111E+02  0.68719278158E+02  0.25500000000E-02 0.  1.
         -2   -1    0    0    0  501 -0.00000000000E+00 -0.00000000000E+00 -0.11507192754E+04  0.11507192754E+04  0.25500000000E-02 0. -1.
    5000001    1    1    2    0    0 -0.15784436042E+03 -0.16015086221E+03 -0.61882890511E+03  0.67877636566E+03  0.16500000000E+03 0.  0.
   -5000001    1    1    2    0    0  0.15784436042E+03  0.16015086221E+03 -0.46317109214E+03  0.54066218785E+03  0.16500000000E+03 0.  0.
<mgrwt>
<rscale>  0 0.56241123E+03</rscale>
<asrwt>0</asrwt>
<pdfrwt beam="1">  1        2 0.98170404E-02 0.56241123E+03</pdfrwt>
<pdfrwt beam="2">  1       -2 0.16438846E+00 0.56241123E+03</pdfrwt>
<totfact> 0.16222686E+02</totfact>
</mgrwt>
</event>
<event>
 4    1  0.5323640E-005  0.3348913E+03  0.7818608E-02  0.1068993E+00
          2   -1    0    0  501    0  0.00000000000E+00  0.00000000000E+00  0.43462169420E+03  0.43462169420E+03  0.25500000000E-02 0.  1.
         -2   -1    0    0    0  501 -0.00000000000E+00 -0.00000000000E+00 -0.64511389265E+02  0.64511389316E+02  0.25500000000E-02 0. -1.
    5000001    1    1    2    0    0 -0.23123503967E+02  0.12027307595E+02  0.20228862854E+03  0.26234527211E+03  0.16500000000E+03 0.  0.
   -5000001    1    1    2    0    0  0.23123503967E+02 -0.12027307595E+02  0.16782167639E+03  0.23678781141E+03  0.16500000000E+03 0.  0.
<mgrwt>
<rscale>  0 0.33489132E+03</rscale>
<asrwt>0</asrwt>
<pdfrwt beam="1">  1        2 0.62088815E-01 0.33489132E+03</pdfrwt>
<pdfrwt beam="2">  1       -2 0.92159126E-02 0.33489132E+03</pdfrwt>
<totfact> 0.59910715E+03</totfact>
</mgrwt>
</event>
<event>
 4    1  0.5323640E-005  0.6359928E+03  0.7818608E-02  0.9833424E-01
          2   -1    0    0  501    0  0.00000000000E+00  0.00000000000E+00  0.69408021609E+03  0.69408021609E+03  0.25500000000E-02 0.  1.
         -2   -1    0    0    0  501 -0.00000000000E+00 -0.00000000000E+00 -0.14569167212E+03  0.14569167214E+03  0.25500000000E-02 0. -1.
    5000001    1    1    2    0    0  0.11439194531E+03 -0.23306172054E+03  0.16779319125E+03  0.35040382099E+03  0.16500000000E+03 0.  0.
   -5000001    1    1    2    0    0 -0.11439194531E+03  0.23306172054E+03  0.38059535272E+03  0.48936806725E+03  0.16500000000E+03 0.  0.
<mgrwt>
<rscale>  0 0.63599279E+03</rscale>
<asrwt>0</asrwt>
<pdfrwt beam="1">  1        2 0.99154316E-01 0.63599279E+03</pdfrwt>
<pdfrwt beam="2">  1       -2 0.20813096E-01 0.63599279E+03</pdfrwt>
<totfact> 0.90728474E+02</totfact>
</mgrwt>
</event>
<event>
 4    1  0.5323640E-005  0.4213718E+03  0.7818608E-02  0.1036621E+00
         -2   -1    0    0    0  501 -0.00000000000E+00  0.00000000000E+00  0.80649499344E+02  0.80649499384E+02  0.25500000000E-02 0. -1.
          2   -1    0    0  501    0  0.00000000000E+00 -0.00000000000E+00 -0.55038845147E+03  0.55038845148E+03  0.25500000000E-02 0.  1.
    5000001    1    1    2    0    0  0.11543852168E+03 -0.58088916711E+02 -0.20263918688E+03  0.29152703921E+03  0.16500000000E+03 0.  0.
   -5000001    1    1    2    0    0 -0.11543852168E+03  0.58088916711E+02 -0.26709976525E+03  0.33951091165E+03  0.16500000000E+03 0.  0.
<mgrwt>
<rscale>  0 0.42137182E+03</rscale>
<asrwt>0</asrwt>
<pdfrwt beam="1">  1        2 0.78626920E-01 0.42137182E+03</pdfrwt>
<pdfrwt beam="2">  1       -2 0.11521357E-01 0.42137182E+03</pdfrwt>
<totfact> 0.32309170E+03</totfact>
</mgrwt>
</event>
<event>
 4    1  0.5323640E-005  0.6192099E+03  0.7818608E-02  0.9866334E-01
          2   -1    0    0  501    0  0.00000000000E+00  0.00000000000E+00  0.12081354243E+04  0.12081354244E+04  0.25500000000E-02 0.  1.
         -2   -1    0    0    0  501 -0.00000000000E+00 -0.00000000000E+00 -0.79341457367E+02  0.79341457408E+02  0.25500000000E-02 0. -1.
    5000001    1    1    2    0    0 -0.11774293071E+03  0.20720050334E+03  0.33820270078E+03  0.44542284757E+03  0.16500000000E+03 0.  0.
   -5000001    1    1    2    0    0  0.11774293071E+03 -0.20720050334E+03  0.79059126620E+03  0.84205403420E+03  0.16500000000E+03 0.  0.
<mgrwt>
<rscale>  0 0.61920990E+03</rscale>
<asrwt>0</asrwt>
<pdfrwt beam="1">  1        2 0.17259078E+00 0.61920990E+03</pdfrwt>
<pdfrwt beam="2">  1       -2 0.11334494E-01 0.61920990E+03</pdfrwt>
<totfact> 0.11918355E+03</totfact>
</mgrwt>
</event>
<event>
 4    1  0.5323640E-005  0.4573858E+03  0.7818608E-02  0.1025542E+00
          2   -1    0    0  501    0  0.00000000000E+00  0.00000000000E+00  0.65437499801E+03  0.65437499802E+03  0.25500000000E-02 0.  1.
         -2   -1    0    0    0  501 -0.00000000000E+00 -0.00000000000E+00 -0.79924269317E+02  0.79924269357E+02  0.25500000000E-02 0. -1.
    5000001    1    1    2    0    0  0.32801227890E+02  0.14856725713E+03  0.21674562294E+03  0.31201252460E+03  0.16500000000E+03 0.  0.
   -5000001    1    1    2    0    0 -0.32801227890E+02 -0.14856725713E+03  0.35770510576E+03  0.42228674278E+03  0.16500000000E+03 0.  0.
<mgrwt>
<rscale>  0 0.45738580E+03</rscale>
<asrwt>0</asrwt>
<pdfrwt beam="1">  1        2 0.93482149E-01 0.45738580E+03</pdfrwt>
<pdfrwt beam="2">  1       -2 0.11417752E-01 0.45738580E+03</pdfrwt>
<totfact> 0.26829089E+03</totfact>
</mgrwt>
</event>
<event>
 4    1  0.5323640E-005  0.1097761E+04  0.7818608E-02  0.9207377E-01
         -2   -1    0    0    0  501 -0.00000000000E+00  0.00000000000E+00  0.19848891400E+03  0.19848891402E+03  0.25500000000E-02 0. -1.
          2   -1    0    0  501    0  0.00000000000E+00 -0.00000000000E+00 -0.15178171156E+04  0.15178171156E+04  0.25500000000E-02 0.  1.
    5000001    1    1    2    0    0 -0.50979064963E+03 -0.11413135732E+03 -0.60705191022E+03  0.81770990876E+03  0.16500000000E+03 0.  0.
   -5000001    1    1    2    0    0  0.50979064963E+03  0.11413135732E+03 -0.71227629139E+03  0.89859612088E+03  0.16500000000E+03 0.  0.
<mgrwt>
<rscale>  0 0.10977611E+04</rscale>
<asrwt>0</asrwt>
<pdfrwt beam="1">  1        2 0.21683101E+00 0.10977611E+04</pdfrwt>
<pdfrwt beam="2">  1       -2 0.28355560E-01 0.10977611E+04</pdfrwt>
<totfact> 0.16145612E+02</totfact>
</mgrwt>
</event>
<event>
 4    1  0.5323640E-005  0.4149371E+03  0.7818608E-02  0.1038727E+00
          2   -1    0    0  501    0  0.00000000000E+00  0.00000000000E+00  0.71087401079E+03  0.71087401079E+03  0.25500000000E-02 0.  1.
         -2   -1    0    0    0  501 -0.00000000000E+00 -0.00000000000E+00 -0.60549684964E+02  0.60549685017E+02  0.25500000000E-02 0. -1.
    5000001    1    1    2    0    0 -0.86723441012E+02 -0.91033063303E+02  0.31921770282E+03  0.38070055901E+03  0.16500000000E+03 0.  0.
   -5000001    1    1    2    0    0  0.86723441012E+02  0.91033063303E+02  0.33110662301E+03  0.39072313681E+03  0.16500000000E+03 0.  0.
<mgrwt>
<rscale>  0 0.41493709E+03</rscale>
<asrwt>0</asrwt>
<pdfrwt beam="1">  1        2 0.10155342E+00 0.41493709E+03</pdfrwt>
<pdfrwt beam="2">  1       -2 0.86499556E-02 0.41493709E+03</pdfrwt>
<totfact> 0.37916332E+03</totfact>
</mgrwt>
</event>
<event>
 4    1  0.5323640E-005  0.3592434E+03  0.7818608E-02  0.1058884E+00
         -2   -1    0    0    0  501 -0.00000000000E+00  0.00000000000E+00  0.21821000733E+02  0.21821000882E+02  0.25500000000E-02 0. -1.
          2   -1    0    0  501    0  0.00000000000E+00 -0.00000000000E+00 -0.14785738380E+04  0.14785738380E+04  0.25500000000E-02 0.  1.
    5000001    1    1    2    0    0  0.65168284998E+01 -0.69891850228E+02 -0.77250194915E+03  0.79303947016E+03  0.16500000000E+03 0.  0.
   -5000001    1    1    2    0    0 -0.65168284998E+01  0.69891850228E+02 -0.68425088808E+03  0.70735536870E+03  0.16500000000E+03 0.  0.
<mgrwt>
<rscale>  0 0.35924343E+03</rscale>
<asrwt>0</asrwt>
<pdfrwt beam="1">  1        2 0.21122477E+00 0.35924343E+03</pdfrwt>
<pdfrwt beam="2">  1       -2 0.31172868E-02 0.35924343E+03</pdfrwt>
<totfact> 0.64234987E+03</totfact>
</mgrwt>
</event>
<event>
 4    1  0.5323640E-005  0.9639251E+03  0.7818608E-02  0.9349021E-01
         -2   -1    0    0    0  501 -0.00000000000E+00  0.00000000000E+00  0.12159140527E+04  0.12159140527E+04  0.25500000000E-02 0. -1.
          2   -1    0    0  501    0  0.00000000000E+00 -0.00000000000E+00 -0.19103974731E+03  0.19103974733E+03  0.25500000000E-02 0.  1.
    5000001    1    1    2    0    0  0.30594405927E+03  0.32754211020E+03  0.60677478965E+03  0.77219573083E+03  0.16500000000E+03 0.  0.
   -5000001    1    1    2    0    0 -0.30594405927E+03 -0.32754211020E+03  0.41809951578E+03  0.63475806923E+03  0.16500000000E+03 0.  0.
<mgrwt>
<rscale>  0 0.96392513E+03</rscale>
<asrwt>0</asrwt>
<pdfrwt beam="1">  1        2 0.27291393E-01 0.96392513E+03</pdfrwt>
<pdfrwt beam="2">  1       -2 0.17370201E+00 0.96392513E+03</pdfrwt>
<totfact> 0.39819755E+01</totfact>
</mgrwt>
</event>
<event>
 4    1  0.5323640E-005  0.4458697E+03  0.7818608E-02  0.1028961E+00
         -2   -1    0    0    0  501 -0.00000000000E+00  0.00000000000E+00  0.36456974489E+02  0.36456974578E+02  0.25500000000E-02 0. -1.
          2   -1    0    0  501    0  0.00000000000E+00 -0.00000000000E+00 -0.13632496330E+04  0.13632496330E+04  0.25500000000E-02 0.  1.
    5000001    1    1    2    0    0  0.14945338454E+03  0.10013898439E+02 -0.64395187654E+03  0.68142175751E+03  0.16500000000E+03 0.  0.
   -5000001    1    1    2    0    0 -0.14945338454E+03 -0.10013898439E+02 -0.68284078192E+03  0.71828485002E+03  0.16500000000E+03 0.  0.
<mgrwt>
<rscale>  0 0.44586974E+03</rscale>
<asrwt>0</asrwt>
<pdfrwt beam="1">  1        2 0.19474992E+00 0.44586974E+03</pdfrwt>
<pdfrwt beam="2">  1       -2 0.52081401E-02 0.44586974E+03</pdfrwt>
<totfact> 0.33817380E+03</totfact>
</mgrwt>
</event>
<event>
 4    1  0.5323640E-005  0.7183195E+03  0.7818608E-02  0.9686406E-01
         -2   -1    0    0    0  501 -0.00000000000E+00  0.00000000000E+00  0.12760136492E+03  0.12760136495E+03  0.25500000000E-02 0. -1.
          2   -1    0    0  501    0  0.00000000000E+00 -0.00000000000E+00 -0.10109275182E+04  0.10109275182E+04  0.25500000000E-02 0.  1.
    5000001    1    1    2    0    0 -0.17114158778E+03 -0.26802801817E+03 -0.40149462739E+03  0.53809980247E+03  0.16500000000E+03 0.  0.
   -5000001    1    1    2    0    0  0.17114158778E+03  0.26802801817E+03 -0.48183152590E+03  0.60042908069E+03  0.16500000000E+03 0.  0.
<mgrwt>
<rscale>  0 0.71831951E+03</rscale>
<asrwt>0</asrwt>
<pdfrwt beam="1">  1        2 0.14441821E+00 0.71831951E+03</pdfrwt>
<pdfrwt beam="2">  1       -2 0.18228767E-01 0.71831951E+03</pdfrwt>
<totfact> 0.69658099E+02</totfact>
</mgrwt>
</event>
<event>
 4    1  0.5323640E-005  0.1080315E+04  0.7818608E-02  0.9224593E-01
          2   -1    0    0  501    0  0.00000000000E+00  0.00000000000E+00  0.76128256591E+03  0.76128256591E+03  0.25500000000E-02 0.  1.
         -2   -1    0    0    0  501 -0.00000000000E+00 -0.00000000000E+00 -0.38326134570E+03  0.38326134571E+03  0.25500000000E-02 0. -1.
    5000001    1    1    2    0    0 -0.23942945251E+03 -0.43891502903E+03  0.61117752748E+02  0.53003136242E+03  0.16500000000E+03 0.  0.
   -5000001    1    1    2    0    0  0.23942945251E+03  0.43891502903E+03  0.31690346746E+03  0.61451254920E+03  0.16500000000E+03 0.  0.
<mgrwt>
<rscale>  0 0.10803151E+04</rscale>
<asrwt>0</asrwt>
<pdfrwt beam="1">  1        2 0.10875465E+00 0.10803151E+04</pdfrwt>
<pdfrwt beam="2">  1       -2 0.54751621E-01 0.10803151E+04</pdfrwt>
<totfact> 0.12640240E+02</totfact>
</mgrwt>
</event>
<event>
 4    1  0.5323640E-005  0.5612779E+03  0.7818608E-02  0.9989167E-01
         -2   -1    0    0    0  501 -0.00000000000E+00  0.00000000000E+00  0.16105850872E+03  0.16105850874E+03  0.25500000000E-02 0. -1.
          2   -1    0    0  501    0  0.00000000000E+00 -0.00000000000E+00 -0.48900373370E+03  0.48900373370E+03  0.25500000000E-02 0.  1.
    5000001    1    1    2    0    0 -0.17548671571E+03 -0.88358169059E+02 -0.32273154648E+02  0.25859100901E+03  0.16500000000E+03 0.  0.
   -5000001    1    1    2    0    0  0.17548671571E+03  0.88358169059E+02 -0.29567207033E+03  0.39147123343E+03  0.16500000000E+03 0.  0.
<mgrwt>
<rscale>  0 0.56127787E+03</rscale>
<asrwt>0</asrwt>
<pdfrwt beam="1">  1        2 0.69857675E-01 0.56127787E+03</pdfrwt>
<pdfrwt beam="2">  1       -2 0.23008359E-01 0.56127787E+03</pdfrwt>
<totfact> 0.11472593E+03</totfact>
</mgrwt>
</event>
<event>
 4    1  0.5323640E-005  0.4138432E+03  0.7818608E-02  0.1039089E+00
         -2   -1    0    0    0  501 -0.00000000000E+00  0.00000000000E+00  0.13240818412E+02  0.13240818658E+02  0.25500000000E-02 0. -1.
          2   -1    0    0  501    0  0.00000000000E+00 -0.00000000000E+00 -0.32336778113E+04  0.32336778113E+04  0.25500000000E-02 0.  1.
    5000001    1    1    2    0    0 -0.37181624207E+02 -0.10639866627E+03 -0.20318797218E+04  0.20416815014E+04  0.16500000000E+03 0.  0.
   -5000001    1    1    2    0    0  0.37181624207E+02  0.10639866627E+03 -0.11885572711E+04  0.12052371285E+04  0.16500000000E+03 0.  0.
<mgrwt>
<rscale>  0 0.41384316E+03</rscale>
<asrwt>0</asrwt>
<pdfrwt beam="1">  1        2 0.46195347E+00 0.41384316E+03</pdfrwt>
<pdfrwt beam="2">  1       -2 0.18915476E-02 0.41384316E+03</pdfrwt>
<totfact> 0.17131137E+03</totfact>
</mgrwt>
</event>
<event>
 4    1  0.5323640E-005  0.4805405E+03  0.7818608E-02  0.1018987E+00
         -2   -1    0    0    0  501 -0.00000000000E+00  0.00000000000E+00  0.11365284135E+03  0.11365284138E+03  0.25500000000E-02 0. -1.
          2   -1    0    0  501    0  0.00000000000E+00 -0.00000000000E+00 -0.50794862873E+03  0.50794862873E+03  0.25500000000E-02 0.  1.
    5000001    1    1    2    0    0  0.15242991851E+03 -0.34681451905E+02 -0.29790445746E+03  0.37471288867E+03  0.16500000000E+03 0.  0.
   -5000001    1    1    2    0    0 -0.15242991851E+03  0.34681451905E+02 -0.96391329920E+02  0.24688858145E+03  0.16500000000E+03 0.  0.
<mgrwt>
<rscale>  0 0.48054055E+03</rscale>
<asrwt>0</asrwt>
<pdfrwt beam="1">  1        2 0.72564088E-01 0.48054055E+03</pdfrwt>
<pdfrwt beam="2">  1       -2 0.16236121E-01 0.48054055E+03</pdfrwt>
<totfact> 0.20076758E+03</totfact>
</mgrwt>
</event>
<event>
 4    1  0.5323640E-005  0.8200782E+03  0.7818608E-02  0.9531401E-01
         -2   -1    0    0    0  501 -0.00000000000E+00  0.00000000000E+00  0.12450164631E+03  0.12450164634E+03  0.25500000000E-02 0. -1.
          2   -1    0    0  501    0  0.00000000000E+00 -0.00000000000E+00 -0.13504403541E+04  0.13504403541E+04  0.25500000000E-02 0.  1.
    5000001    1    1    2    0    0 -0.20081206704E+03 -0.65136639742E+01 -0.42690504303E+02  0.26346801180E+03  0.16500000000E+03 0.  0.
   -5000001    1    1    2    0    0  0.20081206704E+03  0.65136639742E+01 -0.11832482035E+04  0.12114739887E+04  0.16500000000E+03 0.  0.
<mgrwt>
<rscale>  0 0.82007816E+03</rscale>
<asrwt>0</asrwt>
<pdfrwt beam="1">  1        2 0.19292004E+00 0.82007816E+03</pdfrwt>
<pdfrwt beam="2">  1       -2 0.17785950E-01 0.82007816E+03</pdfrwt>
<totfact> 0.46298971E+02</totfact>
</mgrwt>
</event>
<event>
 4    1  0.5323640E-005  0.6620604E+03  0.7818608E-02  0.9784408E-01
          2   -1    0    0  501    0  0.00000000000E+00  0.00000000000E+00  0.70964508882E+03  0.70964508883E+03  0.25500000000E-02 0.  1.
         -2   -1    0    0    0  501 -0.00000000000E+00 -0.00000000000E+00 -0.15441660977E+03  0.15441660979E+03  0.25500000000E-02 0. -1.
    5000001    1    1    2    0    0  0.10796161412E+02  0.28595354818E+03  0.30590835074E+03  0.45021206989E+03  0.16500000000E+03 0.  0.
   -5000001    1    1    2    0    0 -0.10796161412E+02 -0.28595354818E+03  0.24932012832E+03  0.41384962873E+03  0.16500000000E+03 0.  0.
<mgrwt>
<rscale>  0 0.66206039E+03</rscale>
<asrwt>0</asrwt>
<pdfrwt beam="1">  1        2 0.10137787E+00 0.66206039E+03</pdfrwt>
<pdfrwt beam="2">  1       -2 0.22059516E-01 0.66206039E+03</pdfrwt>
<totfact> 0.79655519E+02</totfact>
</mgrwt>
</event>
<event>
 4    1  0.5323640E-005  0.3599366E+03  0.7818608E-02  0.1058609E+00
         -2   -1    0    0    0  501 -0.00000000000E+00  0.00000000000E+00  0.20939421435E+03  0.20939421437E+03  0.25500000000E-02 0. -1.
          2   -1    0    0  501    0  0.00000000000E+00 -0.00000000000E+00 -0.15467755863E+03  0.15467755865E+03  0.25500000000E-02 0.  1.
    5000001    1    1    2    0    0  0.60605172407E+02 -0.38567804831E+02  0.29145941009E+02  0.18230454841E+03  0.16500000000E+03 0.  0.
   -5000001    1    1    2    0    0 -0.60605172407E+02  0.38567804831E+02  0.25570714711E+02  0.18176722461E+03  0.16500000000E+03 0.  0.
<mgrwt>
<rscale>  0 0.35993658E+03</rscale>
<asrwt>0</asrwt>
<pdfrwt beam="1">  1        2 0.22096794E-01 0.35993658E+03</pdfrwt>
<pdfrwt beam="2">  1       -2 0.29913459E-01 0.35993658E+03</pdfrwt>
<totfact> 0.25588608E+03</totfact>
</mgrwt>
</event>
<event>
 4    1  0.5323640E-005  0.5391809E+03  0.7818608E-02  0.1004030E+00
         -2   -1    0    0    0  501 -0.00000000000E+00  0.00000000000E+00  0.81807184827E+02  0.81807184867E+02  0.25500000000E-02 0. -1.
          2   -1    0    0  501    0  0.00000000000E+00 -0.00000000000E+00 -0.88841847715E+03  0.88841847716E+03  0.25500000000E-02 0.  1.
    5000001    1    1    2    0    0 -0.32240282000E+02  0.11137572130E+03 -0.81360953391E+02  0.21745940268E+03  0.16500000000E+03 0.  0.
   -5000001    1    1    2    0    0  0.32240282000E+02 -0.11137572130E+03 -0.72525033894E+03  0.75276625934E+03  0.16500000000E+03 0.  0.
<mgrwt>
<rscale>  0 0.53918091E+03</rscale>
<asrwt>0</asrwt>
<pdfrwt beam="1">  1        2 0.12691692E+00 0.53918091E+03</pdfrwt>
<pdfrwt beam="2">  1       -2 0.11686741E-01 0.53918091E+03</pdfrwt>
<totfact> 0.17624446E+03</totfact>
</mgrwt>
</event>
<event>
 4    1  0.5323640E-005  0.4834528E+03  0.7818608E-02  0.1018191E+00
          2   -1    0    0  501    0  0.00000000000E+00  0.00000000000E+00  0.11341437500E+04  0.11341437500E+04  0.25500000000E-02 0.  1.
         -2   -1    0    0    0  501 -0.00000000000E+00 -0.00000000000E+00 -0.51520494508E+02  0.51520494571E+02  0.25500000000E-02 0. -1.
    5000001    1    1    2    0    0 -0.78115770875E+02  0.15710504374E+03  0.49089644587E+03  0.54679830742E+03  0.16500000000E+03 0.  0.
   -5000001    1    1    2    0    0  0.78115770875E+02 -0.15710504374E+03  0.59172680958E+03  0.63886593711E+03  0.16500000000E+03 0.  0.
<mgrwt>
<rscale>  0 0.48345278E+03</rscale>
<asrwt>0</asrwt>
<pdfrwt beam="1">  1        2 0.16202052E+00 0.48345278E+03</pdfrwt>
<pdfrwt beam="2">  1       -2 0.73600713E-02 0.48345278E+03</pdfrwt>
<totfact> 0.26319477E+03</totfact>
</mgrwt>
</event>
<event>
 4    1  0.5323640E-005  0.8719121E+03  0.7818608E-02  0.9461390E-01
         -2   -1    0    0    0  501 -0.00000000000E+00  0.00000000000E+00  0.18626741689E+04  0.18626741689E+04  0.25500000000E-02 0. -1.
          2   -1    0    0  501    0  0.00000000000E+00 -0.00000000000E+00 -0.10203484704E+03  0.10203484707E+03  0.25500000000E-02 0.  1.
    5000001    1    1    2    0    0  0.26056157661E+03 -0.82576025256E+02  0.21141137809E+03  0.38292415167E+03  0.16500000000E+03 0.  0.
   -5000001    1    1    2    0    0 -0.26056157661E+03  0.82576025256E+02  0.15492279438E+04  0.15817848643E+04  0.16500000000E+03 0.  0.
<mgrwt>
<rscale>  0 0.87191209E+03</rscale>
<asrwt>0</asrwt>
<pdfrwt beam="1">  1        2 0.14576406E-01 0.87191209E+03</pdfrwt>
<pdfrwt beam="2">  1       -2 0.26609631E+00 0.87191209E+03</pdfrwt>
<totfact> 0.21722549E+01</totfact>
</mgrwt>
</event>
<event>
 4    1  0.5323640E-005  0.4128109E+03  0.7818608E-02  0.1039432E+00
          2   -1    0    0  501    0  0.00000000000E+00  0.00000000000E+00  0.34025894515E+02  0.34025894611E+02  0.25500000000E-02 0.  1.
         -2   -1    0    0    0  501 -0.00000000000E+00 -0.00000000000E+00 -0.12520819229E+04  0.12520819229E+04  0.25500000000E-02 0. -1.
    5000001    1    1    2    0    0  0.35795558042E+02  0.11537768671E+03 -0.69631037048E+03  0.72571789602E+03  0.16500000000E+03 0.  0.
   -5000001    1    1    2    0    0 -0.35795558042E+02 -0.11537768671E+03 -0.52174565787E+03  0.56038992145E+03  0.16500000000E+03 0.  0.
<mgrwt>
<rscale>  0 0.41281089E+03</rscale>
<asrwt>0</asrwt>
<pdfrwt beam="1">  1        2 0.48608429E-02 0.41281089E+03</pdfrwt>
<pdfrwt beam="2">  1       -2 0.17886882E+00 0.41281089E+03</pdfrwt>
<totfact> 0.32390307E+02</totfact>
</mgrwt>
</event>
<event>
 4    1  0.5323640E-005  0.4003061E+03  0.7818608E-02  0.1043674E+00
          2   -1    0    0  501    0  0.00000000000E+00  0.00000000000E+00  0.83738981075E+02  0.83738981114E+02  0.25500000000E-02 0.  1.
         -2   -1    0    0    0  501 -0.00000000000E+00 -0.00000000000E+00 -0.47840607837E+03  0.47840607837E+03  0.25500000000E-02 0. -1.
    5000001    1    1    2    0    0  0.46054777612E+02 -0.90240164842E+02 -0.26855058685E+03  0.33107211841E+03  0.16500000000E+03 0.  0.
   -5000001    1    1    2    0    0 -0.46054777612E+02  0.90240164842E+02 -0.12611651044E+03  0.23107294108E+03  0.16500000000E+03 0.  0.
<mgrwt>
<rscale>  0 0.40030607E+03</rscale>
<asrwt>0</asrwt>
<pdfrwt beam="1">  1        2 0.11962712E-01 0.40030607E+03</pdfrwt>
<pdfrwt beam="2">  1       -2 0.68343724E-01 0.40030607E+03</pdfrwt>
<totfact> 0.10380120E+03</totfact>
</mgrwt>
</event>
<event>
 4    1  0.5323640E-005  0.4290829E+03  0.7818608E-02  0.1034150E+00
         -2   -1    0    0    0  501 -0.00000000000E+00  0.00000000000E+00  0.22636041569E+02  0.22636041712E+02  0.25500000000E-02 0. -1.
          2   -1    0    0  501    0  0.00000000000E+00 -0.00000000000E+00 -0.20333957700E+04  0.20333957700E+04  0.25500000000E-02 0.  1.
    5000001    1    1    2    0    0 -0.77321194224E+02  0.10187407588E+03 -0.12423693152E+04  0.12597870494E+04  0.16500000000E+03 0.  0.
   -5000001    1    1    2    0    0  0.77321194224E+02 -0.10187407588E+03 -0.76839041326E+03  0.79624476237E+03  0.16500000000E+03 0.  0.
<mgrwt>
<rscale>  0 0.42908289E+03</rscale>
<asrwt>0</asrwt>
<pdfrwt beam="1">  1        2 0.29048499E+00 0.42908289E+03</pdfrwt>
<pdfrwt beam="2">  1       -2 0.32337215E-02 0.42908289E+03</pdfrwt>
<totfact> 0.32071993E+03</totfact>
</mgrwt>
</event>
<event>
 4    1  0.5323640E-005  0.5304727E+03  0.7818608E-02  0.1006118E+00
          2   -1    0    0  501    0  0.00000000000E+00  0.00000000000E+00  0.13914945723E+04  0.13914945723E+04  0.25500000000E-02 0.  1.
         -2   -1    0    0    0  501 -0.00000000000E+00 -0.00000000000E+00 -0.50557379558E+02  0.50557379623E+02  0.25500000000E-02 0. -1.
    5000001    1    1    2    0    0 -0.12455562186E+03 -0.15925839411E+03  0.54158011060E+03  0.60117497888E+03  0.16500000000E+03 0.  0.
   -5000001    1    1    2    0    0  0.12455562186E+03  0.15925839411E+03  0.79935708214E+03  0.84087697305E+03  0.16500000000E+03 0.  0.
<mgrwt>
<rscale>  0 0.53047269E+03</rscale>
<asrwt>0</asrwt>
<pdfrwt beam="1">  1        2 0.19878494E+00 0.53047269E+03</pdfrwt>
<pdfrwt beam="2">  1       -2 0.72224828E-02 0.53047269E+03</pdfrwt>
<totfact> 0.19594735E+03</totfact>
</mgrwt>
</event>
<event>
 4    1  0.5323640E-005  0.4875518E+03  0.7818608E-02  0.1017080E+00
          2   -1    0    0  501    0  0.00000000000E+00  0.00000000000E+00  0.17541958224E+04  0.17541958224E+04  0.25500000000E-02 0.  1.
         -2   -1    0    0    0  501 -0.00000000000E+00 -0.00000000000E+00 -0.33876889222E+02  0.33876889318E+02  0.25500000000E-02 0. -1.
    5000001    1    1    2    0    0  0.29751724777E+02 -0.17364978634E+03  0.73512764723E+03  0.77374225111E+03  0.16500000000E+03 0.  0.
   -5000001    1    1    2    0    0 -0.29751724777E+02  0.17364978634E+03  0.98519128595E+03  0.10143304606E+04  0.16500000000E+03 0.  0.
<mgrwt>
<rscale>  0 0.48755183E+03</rscale>
<asrwt>0</asrwt>
<pdfrwt beam="1">  1        2 0.25059952E+00 0.48755183E+03</pdfrwt>
<pdfrwt beam="2">  1       -2 0.48395534E-02 0.48755183E+03</pdfrwt>
<totfact> 0.23845418E+03</totfact>
</mgrwt>
</event>
<event>
 4    1  0.5323640E-005  0.3808410E+03  0.7818608E-02  0.1050623E+00
          2   -1    0    0  501    0  0.00000000000E+00  0.00000000000E+00  0.12748953336E+04  0.12748953336E+04  0.25500000000E-02 0.  1.
         -2   -1    0    0    0  501 -0.00000000000E+00 -0.00000000000E+00 -0.28441529555E+02  0.28441529669E+02  0.25500000000E-02 0. -1.
    5000001    1    1    2    0    0 -0.73599653775E+02  0.58810293836E+02  0.58001774940E+03  0.61034510674E+03  0.16500000000E+03 0.  0.
   -5000001    1    1    2    0    0  0.73599653775E+02 -0.58810293836E+02  0.66643605463E+03  0.69299175653E+03  0.16500000000E+03 0.  0.
<mgrwt>
<rscale>  0 0.38084103E+03</rscale>
<asrwt>0</asrwt>
<pdfrwt beam="1">  1        2 0.18212794E+00 0.38084103E+03</pdfrwt>
<pdfrwt beam="2">  1       -2 0.40630749E-02 0.38084103E+03</pdfrwt>
<totfact> 0.55079962E+03</totfact>
</mgrwt>
</event>
<event>
 4    1  0.5323640E-005  0.5507554E+03  0.7818608E-02  0.1001319E+00
         -2   -1    0    0    0  501 -0.00000000000E+00  0.00000000000E+00  0.35809968522E+02  0.35809968613E+02  0.25500000000E-02 0. -1.
          2   -1    0    0  501    0  0.00000000000E+00 -0.00000000000E+00 -0.21176469072E+04  0.21176469072E+04  0.25500000000E-02 0.  1.
    5000001    1    1    2    0    0  0.14230425338E+03  0.11622861863E+03 -0.56447051350E+03  0.61612624756E+03  0.16500000000E+03 0.  0.
   -5000001    1    1    2    0    0 -0.14230425338E+03 -0.11622861863E+03 -0.15173664252E+04  0.15373306283E+04  0.16500000000E+03 0.  0.
<mgrwt>
<rscale>  0 0.55075537E+03</rscale>
<asrwt>0</asrwt>
<pdfrwt beam="1">  1        2 0.30252091E+00 0.55075537E+03</pdfrwt>
<pdfrwt beam="2">  1       -2 0.51157111E-02 0.55075537E+03</pdfrwt>
<totfact> 0.14357056E+03</totfact>
</mgrwt>
</event>
<event>
 4    1  0.5323640E-005  0.3734555E+03  0.7818608E-02  0.1053379E+00
          2   -1    0    0  501    0  0.00000000000E+00  0.00000000000E+00  0.25620964581E+03  0.25620964583E+03  0.25500000000E-02 0.  1.
         -2   -1    0    0    0  501 -0.00000000000E+00 -0.00000000000E+00 -0.13608878556E+03  0.13608878558E+03  0.25500000000E-02 0. -1.
    5000001    1    1    2    0    0 -0.71508222885E+01 -0.84699986937E+02  0.38608556628E+02  0.18958070232E+03  0.16500000000E+03 0.  0.
   -5000001    1    1    2    0    0  0.71508222885E+01  0.84699986937E+02  0.81512303626E+02  0.20271772909E+03  0.16500000000E+03 0.  0.
<mgrwt>
<rscale>  0 0.37345554E+03</rscale>
<asrwt>0</asrwt>
<pdfrwt beam="1">  1        2 0.36601378E-01 0.37345554E+03</pdfrwt>
<pdfrwt beam="2">  1       -2 0.19441255E-01 0.37345554E+03</pdfrwt>
<totfact> 0.31260349E+03</totfact>
</mgrwt>
</event>
<event>
 4    1  0.5323640E-005  0.6197140E+03  0.7818608E-02  0.9865329E-01
         -2   -1    0    0    0  501 -0.00000000000E+00  0.00000000000E+00  0.12378146344E+03  0.12378146347E+03  0.25500000000E-02 0. -1.
          2   -1    0    0  501    0  0.00000000000E+00 -0.00000000000E+00 -0.77565218558E+03  0.77565218559E+03  0.25500000000E-02 0.  1.
    5000001    1    1    2    0    0 -0.16923893605E+03  0.20034281364E+03 -0.32201338408E+03  0.44687434473E+03  0.16500000000E+03 0.  0.
   -5000001    1    1    2    0    0  0.16923893605E+03 -0.20034281364E+03 -0.32985733806E+03  0.45255930432E+03  0.16500000000E+03 0.  0.
<mgrwt>
<rscale>  0 0.61971401E+03</rscale>
<asrwt>0</asrwt>
<pdfrwt beam="1">  1        2 0.11080745E+00 0.61971401E+03</pdfrwt>
<pdfrwt beam="2">  1       -2 0.17683067E-01 0.61971401E+03</pdfrwt>
<totfact> 0.10485754E+03</totfact>
</mgrwt>
</event>
<event>
 4    1  0.5323640E-005  0.5339463E+03  0.7818608E-02  0.1005280E+00
         -2   -1    0    0    0  501 -0.00000000000E+00  0.00000000000E+00  0.45385232061E+02  0.45385232133E+02  0.25500000000E-02 0. -1.
          2   -1    0    0  501    0  0.00000000000E+00 -0.00000000000E+00 -0.15704373565E+04  0.15704373565E+04  0.25500000000E-02 0.  1.
    5000001    1    1    2    0    0 -0.16773416036E+03 -0.34225125910E+01 -0.11441524310E+04  0.11680994168E+04  0.16500000000E+03 0.  0.
   -5000001    1    1    2    0    0  0.16773416036E+03  0.34225125910E+01 -0.38089969344E+03  0.44772317184E+03  0.16500000000E+03 0.  0.
<mgrwt>
<rscale>  0 0.53394630E+03</rscale>
<asrwt>0</asrwt>
<pdfrwt beam="1">  1        2 0.22434816E+00 0.53394630E+03</pdfrwt>
<pdfrwt beam="2">  1       -2 0.64836056E-02 0.53394630E+03</pdfrwt>
<totfact> 0.18734852E+03</totfact>
</mgrwt>
</event>
<event>
 4    1  0.5323640E-005  0.1038479E+04  0.7818608E-02  0.9267320E-01
          2   -1    0    0  501    0  0.00000000000E+00  0.00000000000E+00  0.92614744972E+03  0.92614744973E+03  0.25500000000E-02 0.  1.
         -2   -1    0    0    0  501 -0.00000000000E+00 -0.00000000000E+00 -0.29110876782E+03  0.29110876783E+03  0.25500000000E-02 0. -1.
    5000001    1    1    2    0    0  0.15457492386E+03  0.46386131727E+03  0.24994074014E+03  0.57337256852E+03  0.16500000000E+03 0.  0.
   -5000001    1    1    2    0    0 -0.15457492386E+03 -0.46386131727E+03  0.38509794176E+03  0.64388364904E+03  0.16500000000E+03 0.  0.
<mgrwt>
<rscale>  0 0.10384790E+04</rscale>
<asrwt>0</asrwt>
<pdfrwt beam="1">  1        2 0.13230678E+00 0.10384790E+04</pdfrwt>
<pdfrwt beam="2">  1       -2 0.41586967E-01 0.10384790E+04</pdfrwt>
<totfact> 0.17047490E+02</totfact>
</mgrwt>
</event>
<event>
 4    1  0.5323640E-005  0.5619778E+03  0.7818608E-02  0.9987590E-01
         -2   -1    0    0    0  501 -0.00000000000E+00  0.00000000000E+00  0.16488160248E+03  0.16488160250E+03  0.25500000000E-02 0. -1.
          2   -1    0    0  501    0  0.00000000000E+00 -0.00000000000E+00 -0.47885724476E+03  0.47885724477E+03  0.25500000000E-02 0.  1.
    5000001    1    1    2    0    0  0.19908230708E+03 -0.83617280868E+02 -0.23882519367E+03  0.36178458754E+03  0.16500000000E+03 0.  0.
   -5000001    1    1    2    0    0 -0.19908230708E+03  0.83617280868E+02 -0.75150448607E+02  0.28195425972E+03  0.16500000000E+03 0.  0.
<mgrwt>
<rscale>  0 0.56197776E+03</rscale>
<asrwt>0</asrwt>
<pdfrwt beam="1">  1        2 0.68408177E-01 0.56197776E+03</pdfrwt>
<pdfrwt beam="2">  1       -2 0.23554515E-01 0.56197776E+03</pdfrwt>
<totfact> 0.11268582E+03</totfact>
</mgrwt>
</event>
<event>
 4    1  0.5323640E-005  0.5339263E+03  0.7818608E-02  0.1005284E+00
          2   -1    0    0  501    0  0.00000000000E+00  0.00000000000E+00  0.43740403791E+03  0.43740403792E+03  0.25500000000E-02 0.  1.
         -2   -1    0    0    0  501 -0.00000000000E+00 -0.00000000000E+00 -0.16293707704E+03  0.16293707706E+03  0.25500000000E-02 0. -1.
    5000001    1    1    2    0    0  0.37401644553E+02  0.10826653339E+03 -0.60492271826E+02  0.20977330673E+03  0.16500000000E+03 0.  0.
   -5000001    1    1    2    0    0 -0.37401644553E+02 -0.10826653339E+03  0.33495923270E+03  0.39056780825E+03  0.16500000000E+03 0.  0.
<mgrwt>
<rscale>  0 0.53392634E+03</rscale>
<asrwt>0</asrwt>
<pdfrwt beam="1">  1        2 0.62486290E-01 0.53392634E+03</pdfrwt>
<pdfrwt beam="2">  1       -2 0.23276726E-01 0.53392634E+03</pdfrwt>
<totfact> 0.12739890E+03</totfact>
</mgrwt>
</event>
<event>
 4    1  0.5323640E-005  0.1266669E+04  0.7818608E-02  0.9056422E-01
         -2   -1    0    0    0  501 -0.00000000000E+00  0.00000000000E+00  0.90457014471E+02  0.90457014507E+02  0.25500000000E-02 0. -1.
          2   -1    0    0  501    0  0.00000000000E+00 -0.00000000000E+00 -0.44342915660E+04  0.44342915660E+04  0.25500000000E-02 0.  1.
    5000001    1    1    2    0    0  0.54133532914E+03 -0.69083177017E+02 -0.11866778601E+04  0.13165279213E+04  0.16500000000E+03 0.  0.
   -5000001    1    1    2    0    0 -0.54133532914E+03  0.69083177017E+02 -0.31571566915E+04  0.32082206592E+04  0.16500000000E+03 0.  0.
<mgrwt>
<rscale>  0 0.12666693E+04</rscale>
<asrwt>0</asrwt>
<pdfrwt beam="1">  1        2 0.63347009E+00 0.12666693E+04</pdfrwt>
<pdfrwt beam="2">  1       -2 0.12922433E-01 0.12666693E+04</pdfrwt>
<totfact> 0.12630873E+01</totfact>
</mgrwt>
</event>
<event>
 4    1  0.5323640E-005  0.5288872E+03  0.7818608E-02  0.1006502E+00
          2   -1    0    0  501    0  0.00000000000E+00  0.00000000000E+00  0.21810810826E+04  0.21810810826E+04  0.25500000000E-02 0.  1.
         -2   -1    0    0    0  501 -0.00000000000E+00 -0.00000000000E+00 -0.32062269251E+02  0.32062269353E+02  0.25500000000E-02 0. -1.
    5000001    1    1    2    0    0 -0.12476327468E+03 -0.13345181839E+03  0.67031458336E+03  0.71408816206E+03  0.16500000000E+03 0.  0.
   -5000001    1    1    2    0    0  0.12476327468E+03  0.13345181839E+03  0.14787042300E+04  0.14990551899E+04  0.16500000000E+03 0.  0.
<mgrwt>
<rscale>  0 0.52888717E+03</rscale>
<asrwt>0</asrwt>
<pdfrwt beam="1">  1        2 0.31158301E+00 0.52888717E+03</pdfrwt>
<pdfrwt beam="2">  1       -2 0.45803243E-02 0.52888717E+03</pdfrwt>
<totfact> 0.15848290E+03</totfact>
</mgrwt>
</event>
<event>
 4    1  0.5323640E-005  0.5825834E+03  0.7818608E-02  0.9942214E-01
          2   -1    0    0  501    0  0.00000000000E+00  0.00000000000E+00  0.36144223386E+03  0.36144223387E+03  0.25500000000E-02 0.  1.
         -2   -1    0    0    0  501 -0.00000000000E+00 -0.00000000000E+00 -0.23475631148E+03  0.23475631150E+03  0.25500000000E-02 0. -1.
    5000001    1    1    2    0    0 -0.19714736435E+03 -0.12545920779E+03  0.11957015003E+03  0.31004695913E+03  0.16500000000E+03 0.  0.
   -5000001    1    1    2    0    0  0.19714736435E+03  0.12545920779E+03  0.71157723569E+01  0.28615158624E+03  0.16500000000E+03 0.  0.
<mgrwt>
<rscale>  0 0.58258337E+03</rscale>
<asrwt>0</asrwt>
<pdfrwt beam="1">  1        2 0.51634605E-01 0.58258337E+03</pdfrwt>
<pdfrwt beam="2">  1       -2 0.33536616E-01 0.58258337E+03</pdfrwt>
<totfact> 0.80832349E+02</totfact>
</mgrwt>
</event>
<event>
 4    1  0.5323640E-005  0.6377695E+03  0.7818608E-02  0.9830003E-01
         -2   -1    0    0    0  501 -0.00000000000E+00  0.00000000000E+00  0.11575069741E+03  0.11575069744E+03  0.25500000000E-02 0. -1.
          2   -1    0    0  501    0  0.00000000000E+00 -0.00000000000E+00 -0.87850431868E+03  0.87850431868E+03  0.25500000000E-02 0.  1.
    5000001    1    1    2    0    0  0.21340574804E+03  0.13791489024E+03 -0.53649070367E+03  0.61612482938E+03  0.16500000000E+03 0.  0.
   -5000001    1    1    2    0    0 -0.21340574804E+03 -0.13791489024E+03 -0.22626291760E+03  0.37813018674E+03  0.16500000000E+03 0.  0.
<mgrwt>
<rscale>  0 0.63776951E+03</rscale>
<asrwt>0</asrwt>
<pdfrwt beam="1">  1        2 0.12550061E+00 0.63776951E+03</pdfrwt>
<pdfrwt beam="2">  1       -2 0.16535814E-01 0.63776951E+03</pdfrwt>
<totfact> 0.10004658E+03</totfact>
</mgrwt>
</event>
<event>
 4    1  0.5323640E-005  0.4182785E+03  0.7818608E-02  0.1037628E+00
         -2   -1    0    0    0  501 -0.00000000000E+00  0.00000000000E+00  0.26671499521E+02  0.26671499643E+02  0.25500000000E-02 0. -1.
          2   -1    0    0  501    0  0.00000000000E+00 -0.00000000000E+00 -0.16399241485E+04  0.16399241485E+04  0.25500000000E-02 0.  1.
    5000001    1    1    2    0    0 -0.84904468548E+02  0.46633729959E+02 -0.47016694315E+03  0.50760755312E+03  0.16500000000E+03 0.  0.
   -5000001    1    1    2    0    0  0.84904468548E+02 -0.46633729959E+02 -0.11430857058E+04  0.11589880950E+04  0.16500000000E+03 0.  0.
<mgrwt>
<rscale>  0 0.41827855E+03</rscale>
<asrwt>0</asrwt>
<pdfrwt beam="1">  1        2 0.23427482E+00 0.41827855E+03</pdfrwt>
<pdfrwt beam="2">  1       -2 0.38102152E-02 0.41827855E+03</pdfrwt>
<totfact> 0.39299891E+03</totfact>
</mgrwt>
</event>
<event>
 4    1  0.5323640E-005  0.1686637E+04  0.7818608E-02  0.8769023E-01
         -2   -1    0    0    0  501 -0.00000000000E+00  0.00000000000E+00  0.60549280835E+03  0.60549280836E+03  0.25500000000E-02 0. -1.
          2   -1    0    0  501    0  0.00000000000E+00 -0.00000000000E+00 -0.11745570955E+04  0.11745570955E+04  0.25500000000E-02 0.  1.
    5000001    1    1    2    0    0 -0.49719650158E+03  0.51846522452E+03 -0.71704701477E+03  0.10282956635E+04  0.16500000000E+03 0.  0.
   -5000001    1    1    2    0    0  0.49719650158E+03 -0.51846522452E+03  0.14798272761E+03  0.75175424035E+03  0.16500000000E+03 0.  0.
<mgrwt>
<rscale>  0 0.16866367E+04</rscale>
<asrwt>0</asrwt>
<pdfrwt beam="1">  1        2 0.16779387E+00 0.16866367E+04</pdfrwt>
<pdfrwt beam="2">  1       -2 0.86498973E-01 0.16866367E+04</pdfrwt>
<totfact> 0.24441577E+01</totfact>
</mgrwt>
</event>
<event>
 4    1  0.5323640E-005  0.3975655E+03  0.7818608E-02  0.1044626E+00
          2   -1    0    0  501    0  0.00000000000E+00  0.00000000000E+00  0.11678241984E+03  0.11678241987E+03  0.25500000000E-02 0.  1.
         -2   -1    0    0    0  501 -0.00000000000E+00 -0.00000000000E+00 -0.33836071497E+03  0.33836071498E+03  0.25500000000E-02 0. -1.
    5000001    1    1    2    0    0  0.10815423190E+03  0.99698247698E+01 -0.85373820148E+02  0.21519856981E+03  0.16500000000E+03 0.  0.
   -5000001    1    1    2    0    0 -0.10815423190E+03 -0.99698247698E+01 -0.13620447498E+03  0.23994456503E+03  0.16500000000E+03 0.  0.
<mgrwt>
<rscale>  0 0.39756551E+03</rscale>
<asrwt>0</asrwt>
<pdfrwt beam="1">  1        2 0.16683203E-01 0.39756551E+03</pdfrwt>
<pdfrwt beam="2">  1       -2 0.48337245E-01 0.39756551E+03</pdfrwt>
<totfact> 0.14223947E+03</totfact>
</mgrwt>
</event>
<event>
 4    1  0.5323640E-005  0.7235920E+03  0.7818608E-02  0.9677716E-01
         -2   -1    0    0    0  501 -0.00000000000E+00  0.00000000000E+00  0.24230138684E+03  0.24230138685E+03  0.25500000000E-02 0. -1.
          2   -1    0    0  501    0  0.00000000000E+00 -0.00000000000E+00 -0.54022118993E+03  0.54022118993E+03  0.25500000000E-02 0.  1.
    5000001    1    1    2    0    0  0.10159130573E+03  0.90863832460E+02  0.16650670498E+03  0.27115772578E+03  0.16500000000E+03 0.  0.
   -5000001    1    1    2    0    0 -0.10159130573E+03 -0.90863832460E+02 -0.46442650807E+03  0.51136485101E+03  0.16500000000E+03 0.  0.
<mgrwt>
<rscale>  0 0.72359199E+03</rscale>
<asrwt>0</asrwt>
<pdfrwt beam="1">  1        2 0.77174455E-01 0.72359199E+03</pdfrwt>
<pdfrwt beam="2">  1       -2 0.34614484E-01 0.72359199E+03</pdfrwt>
<totfact> 0.48287420E+02</totfact>
</mgrwt>
</event>
<event>
 4    1  0.5323640E-005  0.5503692E+03  0.7818608E-02  0.1001409E+00
         -2   -1    0    0    0  501 -0.00000000000E+00  0.00000000000E+00  0.82138027317E+02  0.82138027357E+02  0.25500000000E-02 0. -1.
          2   -1    0    0  501    0  0.00000000000E+00 -0.00000000000E+00 -0.92194286124E+03  0.92194286124E+03  0.25500000000E-02 0.  1.
    5000001    1    1    2    0    0 -0.12902102859E+03  0.17719881294E+03 -0.45884860491E+03  0.53461470925E+03  0.16500000000E+03 0.  0.
   -5000001    1    1    2    0    0  0.12902102859E+03 -0.17719881294E+03 -0.38095622902E+03  0.46946617935E+03  0.16500000000E+03 0.  0.
<mgrwt>
<rscale>  0 0.55036921E+03</rscale>
<asrwt>0</asrwt>
<pdfrwt beam="1">  1        2 0.13170612E+00 0.55036921E+03</pdfrwt>
<pdfrwt beam="2">  1       -2 0.11734004E-01 0.55036921E+03</pdfrwt>
<totfact> 0.16661055E+03</totfact>
</mgrwt>
</event>
<event>
 4    1  0.5323640E-005  0.3985529E+03  0.7818608E-02  0.1044282E+00
          2   -1    0    0  501    0  0.00000000000E+00  0.00000000000E+00  0.11996251875E+04  0.11996251875E+04  0.25500000000E-02 0.  1.
         -2   -1    0    0    0  501 -0.00000000000E+00 -0.00000000000E+00 -0.33102931281E+02  0.33102931379E+02  0.25500000000E-02 0. -1.
    5000001    1    1    2    0    0 -0.80984498205E+02  0.75934610545E+02  0.62257475186E+03  0.65356627490E+03  0.16500000000E+03 0.  0.
   -5000001    1    1    2    0    0  0.80984498205E+02 -0.75934610545E+02  0.54394750433E+03  0.57916184395E+03  0.16500000000E+03 0.  0.
<mgrwt>
<rscale>  0 0.39855293E+03</rscale>
<asrwt>0</asrwt>
<pdfrwt beam="1">  1        2 0.17137504E+00 0.39855293E+03</pdfrwt>
<pdfrwt beam="2">  1       -2 0.47289898E-02 0.39855293E+03</pdfrwt>
<totfact> 0.48044337E+03</totfact>
</mgrwt>
</event>
<event>
 4    1  0.5323640E-005  0.8981290E+03  0.7818608E-02  0.9427923E-01
          2   -1    0    0  501    0  0.00000000000E+00  0.00000000000E+00  0.64540881652E+03  0.64540881652E+03  0.25500000000E-02 0.  1.
         -2   -1    0    0    0  501 -0.00000000000E+00 -0.00000000000E+00 -0.31245146635E+03  0.31245146636E+03  0.25500000000E-02 0. -1.
    5000001    1    1    2    0    0 -0.29517936057E+03  0.13512223339E+03 -0.11376107690E+03  0.38151730692E+03  0.16500000000E+03 0.  0.
   -5000001    1    1    2    0    0  0.29517936057E+03 -0.13512223339E+03  0.44671842706E+03  0.57634297596E+03  0.16500000000E+03 0.  0.
<mgrwt>
<rscale>  0 0.89812901E+03</rscale>
<asrwt>0</asrwt>
<pdfrwt beam="1">  1        2 0.92201259E-01 0.89812901E+03</pdfrwt>
<pdfrwt beam="2">  1       -2 0.44635924E-01 0.89812901E+03</pdfrwt>
<totfact> 0.23714556E+02</totfact>
</mgrwt>
</event>
<event>
 4    1  0.5323640E-005  0.6221659E+03  0.7818608E-02  0.9860457E-01
          2   -1    0    0  501    0  0.00000000000E+00  0.00000000000E+00  0.40948407304E+03  0.40948407305E+03  0.25500000000E-02 0.  1.
         -2   -1    0    0    0  501 -0.00000000000E+00 -0.00000000000E+00 -0.23632810790E+03  0.23632810792E+03  0.25500000000E-02 0. -1.
    5000001    1    1    2    0    0  0.22164268222E+02 -0.25239298326E+03  0.10625105495E+02  0.30254151062E+03  0.16500000000E+03 0.  0.
   -5000001    1    1    2    0    0 -0.22164268222E+02  0.25239298326E+03  0.16253085965E+03  0.34327067035E+03  0.16500000000E+03 0.  0.
<mgrwt>
<rscale>  0 0.62216588E+03</rscale>
<asrwt>0</asrwt>
<pdfrwt beam="1">  1        2 0.58497725E-01 0.62216588E+03</pdfrwt>
<pdfrwt beam="2">  1       -2 0.33761158E-01 0.62216588E+03</pdfrwt>
<totfact> 0.69459914E+02</totfact>
</mgrwt>
</event>
<event>
 4    1  0.5323640E-005  0.4243199E+03  0.7818608E-02  0.1035669E+00
         -2   -1    0    0    0  501 -0.00000000000E+00  0.00000000000E+00  0.11011663509E+03  0.11011663512E+03  0.25500000000E-02 0. -1.
          2   -1    0    0  501    0  0.00000000000E+00 -0.00000000000E+00 -0.40876521577E+03  0.40876521578E+03  0.25500000000E-02 0.  1.
    5000001    1    1    2    0    0  0.62274516478E+02 -0.10516599288E+03 -0.21459370854E+03  0.29700751035E+03  0.16500000000E+03 0.  0.
   -5000001    1    1    2    0    0 -0.62274516478E+02  0.10516599288E+03 -0.84054872149E+02  0.22187434055E+03  0.16500000000E+03 0.  0.
<mgrwt>
<rscale>  0 0.42431993E+03</rscale>
<asrwt>0</asrwt>
<pdfrwt beam="1">  1        2 0.58395030E-01 0.42431993E+03</pdfrwt>
<pdfrwt beam="2">  1       -2 0.15730948E-01 0.42431993E+03</pdfrwt>
<totfact> 0.26940868E+03</totfact>
</mgrwt>
</event>
<event>
 4    1  0.5323640E-005  0.6645162E+03  0.7818608E-02  0.9779916E-01
         -2   -1    0    0    0  501 -0.00000000000E+00  0.00000000000E+00  0.11820436472E+03  0.11820436474E+03  0.25500000000E-02 0. -1.
          2   -1    0    0  501    0  0.00000000000E+00 -0.00000000000E+00 -0.93393699089E+03  0.93393699089E+03  0.25500000000E-02 0.  1.
    5000001    1    1    2    0    0  0.16214383170E+03 -0.69055979444E+02 -0.76930412153E+03  0.80629596418E+03  0.16500000000E+03 0.  0.
   -5000001    1    1    2    0    0 -0.16214383170E+03  0.69055979444E+02 -0.46428504644E+02  0.24584539145E+03  0.16500000000E+03 0.  0.
<mgrwt>
<rscale>  0 0.66451615E+03</rscale>
<asrwt>0</asrwt>
<pdfrwt beam="1">  1        2 0.13341957E+00 0.66451615E+03</pdfrwt>
<pdfrwt beam="2">  1       -2 0.16886338E-01 0.66451615E+03</pdfrwt>
<totfact> 0.88841029E+02</totfact>
</mgrwt>
</event>
<event>
 4    1  0.5323640E-005  0.5139593E+03  0.7818608E-02  0.1010198E+00
         -2   -1    0    0    0  501 -0.00000000000E+00  0.00000000000E+00  0.13730024144E+03  0.13730024146E+03  0.25500000000E-02 0. -1.
          2   -1    0    0  501    0  0.00000000000E+00 -0.00000000000E+00 -0.48097905359E+03  0.48097905360E+03  0.25500000000E-02 0.  1.
    5000001    1    1    2    0    0  0.89214905137E+02 -0.17138301921E+03 -0.21815155857E+03  0.33488287666E+03  0.16500000000E+03 0.  0.
   -5000001    1    1    2    0    0 -0.89214905137E+02  0.17138301921E+03 -0.12552725358E+03  0.28339641840E+03  0.16500000000E+03 0.  0.
<mgrwt>
<rscale>  0 0.51395930E+03</rscale>
<asrwt>0</asrwt>
<pdfrwt beam="1">  1        2 0.68711293E-01 0.51395930E+03</pdfrwt>
<pdfrwt beam="2">  1       -2 0.19614320E-01 0.51395930E+03</pdfrwt>
<totfact> 0.15459757E+03</totfact>
</mgrwt>
</event>
<event>
 4    1  0.5323640E-005  0.6880062E+03  0.7818608E-02  0.9737966E-01
         -2   -1    0    0    0  501 -0.00000000000E+00  0.00000000000E+00  0.24041316508E+03  0.24041316510E+03  0.25500000000E-02 0. -1.
          2   -1    0    0  501    0  0.00000000000E+00 -0.00000000000E+00 -0.49222811117E+03  0.49222811117E+03  0.25500000000E-02 0.  1.
    5000001    1    1    2    0    0 -0.22287082976E+03 -0.36196865571E+02  0.87417522375E+02  0.29299904958E+03  0.16500000000E+03 0.  0.
   -5000001    1    1    2    0    0  0.22287082976E+03  0.36196865571E+02 -0.33923246846E+03  0.43964222669E+03  0.16500000000E+03 0.  0.
<mgrwt>
<rscale>  0 0.68800616E+03</rscale>
<asrwt>0</asrwt>
<pdfrwt beam="1">  1        2 0.70318301E-01 0.68800616E+03</pdfrwt>
<pdfrwt beam="2">  1       -2 0.34344738E-01 0.68800616E+03</pdfrwt>
<totfact> 0.54588704E+02</totfact>
</mgrwt>
</event>
<event>
 4    1  0.5323640E-005  0.4857691E+03  0.7818608E-02  0.1017562E+00
          2   -1    0    0  501    0  0.00000000000E+00  0.00000000000E+00  0.60402438424E+03  0.60402438425E+03  0.25500000000E-02 0.  1.
         -2   -1    0    0    0  501 -0.00000000000E+00 -0.00000000000E+00 -0.97666409908E+02  0.97666409941E+02  0.25500000000E-02 0. -1.
    5000001    1    1    2    0    0  0.97945568536E+02 -0.10876592584E+03  0.10626222067E+03  0.24482651115E+03  0.16500000000E+03 0.  0.
   -5000001    1    1    2    0    0 -0.97945568536E+02  0.10876592584E+03  0.40009575367E+03  0.45686428304E+03  0.16500000000E+03 0.  0.
<mgrwt>
<rscale>  0 0.48576905E+03</rscale>
<asrwt>0</asrwt>
<pdfrwt beam="1">  1        2 0.86289198E-01 0.48576905E+03</pdfrwt>
<pdfrwt beam="2">  1       -2 0.13952344E-01 0.48576905E+03</pdfrwt>
<totfact> 0.21210915E+03</totfact>
</mgrwt>
</event>
<event>
 4    1  0.5323640E-005  0.4592276E+03  0.7818608E-02  0.1025005E+00
         -2   -1    0    0    0  501 -0.00000000000E+00  0.00000000000E+00  0.12411812057E+02  0.12411812319E+02  0.25500000000E-02 0.  1.
          2   -1    0    0  501    0  0.00000000000E+00 -0.00000000000E+00 -0.42477687973E+04  0.42477687973E+04  0.25500000000E-02 0. -1.
    5000001    1    1    2    0    0 -0.46115275580E+02 -0.13414703892E+03 -0.14375235250E+04  0.14538985286E+04  0.16500000000E+03 0.  0.
   -5000001    1    1    2    0    0  0.46115275580E+02  0.13414703892E+03 -0.27978334602E+04  0.28062820809E+04  0.16500000000E+03 0.  0.
<mgrwt>
<rscale>  0 0.45922765E+03</rscale>
<asrwt>0</asrwt>
<pdfrwt beam="1">  1        2 0.60682319E+00 0.45922765E+03</pdfrwt>
<pdfrwt beam="2">  1       -2 0.17731187E-02 0.45922765E+03</pdfrwt>
<totfact> 0.43606760E+02</totfact>
</mgrwt>
</event>
<event>
 4    1  0.5323640E-005  0.4572405E+03  0.7818608E-02  0.1025585E+00
         -2   -1    0    0    0  501 -0.00000000000E+00  0.00000000000E+00  0.16729311825E+03  0.16729311827E+03  0.25500000000E-02 0. -1.
          2   -1    0    0  501    0  0.00000000000E+00 -0.00000000000E+00 -0.31242894022E+03  0.31242894023E+03  0.25500000000E-02 0.  1.
    5000001    1    1    2    0    0 -0.58822662730E+02  0.14652723190E+03 -0.61470693569E+02  0.23650366066E+03  0.16500000000E+03 0.  0.
   -5000001    1    1    2    0    0  0.58822662730E+02 -0.14652723190E+03 -0.83665128395E+02  0.24321839784E+03  0.16500000000E+03 0.  0.
<mgrwt>
<rscale>  0 0.45724047E+03</rscale>
<asrwt>0</asrwt>
<pdfrwt beam="1">  1        2 0.44632706E-01 0.45724047E+03</pdfrwt>
<pdfrwt beam="2">  1       -2 0.23899017E-01 0.45724047E+03</pdfrwt>
<totfact> 0.17604522E+03</totfact>
</mgrwt>
</event>
<event>
 4    1  0.5323640E-005  0.1085809E+04  0.7818608E-02  0.9219135E-01
          2   -1    0    0  501    0  0.00000000000E+00  0.00000000000E+00  0.24478919390E+04  0.24478919390E+04  0.25500000000E-02 0.  1.
         -2   -1    0    0    0  501 -0.00000000000E+00 -0.00000000000E+00 -0.12040778008E+03  0.12040778011E+03  0.25500000000E-02 0. -1.
    5000001    1    1    2    0    0  0.39148449050E+03  0.17593724778E+03  0.48104034139E+03  0.66546136740E+03  0.16500000000E+03 0.  0.
   -5000001    1    1    2    0    0 -0.39148449050E+03 -0.17593724778E+03  0.18464438175E+04  0.19028383517E+04  0.16500000000E+03 0.  0.
<mgrwt>
<rscale>  0 0.10858089E+04</rscale>
<asrwt>0</asrwt>
<pdfrwt beam="1">  1        2 0.34969884E+00 0.10858089E+04</pdfrwt>
<pdfrwt beam="2">  1       -2 0.17201112E-01 0.10858089E+04</pdfrwt>
<totfact> 0.13047859E+02</totfact>
</mgrwt>
</event>
<event>
 4    1  0.5323640E-005  0.5400922E+03  0.7818608E-02  0.1003814E+00
          2   -1    0    0  501    0  0.00000000000E+00  0.00000000000E+00  0.64926178596E+03  0.64926178596E+03  0.25500000000E-02 0.  1.
         -2   -1    0    0    0  501 -0.00000000000E+00 -0.00000000000E+00 -0.11231971827E+03  0.11231971830E+03  0.25500000000E-02 0. -1.
    5000001    1    1    2    0    0  0.16205685364E+03  0.11299284125E+03  0.15330763451E+03  0.29959645656E+03  0.16500000000E+03 0.  0.
   -5000001    1    1    2    0    0 -0.16205685364E+03 -0.11299284125E+03  0.38363443318E+03  0.46198504771E+03  0.16500000000E+03 0.  0.
<mgrwt>
<rscale>  0 0.54009222E+03</rscale>
<asrwt>0</asrwt>
<pdfrwt beam="1">  1        2 0.92751682E-01 0.54009222E+03</pdfrwt>
<pdfrwt beam="2">  1       -2 0.16045674E-01 0.54009222E+03</pdfrwt>
<totfact> 0.15407884E+03</totfact>
</mgrwt>
</event>
<event>
 4    1  0.5323640E-005  0.3669522E+03  0.7818608E-02  0.1055864E+00
          2   -1    0    0  501    0  0.00000000000E+00  0.00000000000E+00  0.17934952584E+04  0.17934952584E+04  0.25500000000E-02 0.  1.
         -2   -1    0    0    0  501 -0.00000000000E+00 -0.00000000000E+00 -0.18769763408E+02  0.18769763581E+02  0.25500000000E-02 0. -1.
    5000001    1    1    2    0    0 -0.75808728309E+02 -0.20385876755E+02  0.96940078370E+03  0.98647119912E+03  0.16500000000E+03 0.  0.
   -5000001    1    1    2    0    0  0.75808728309E+02  0.20385876755E+02  0.80532471134E+03  0.82579382291E+03  0.16500000000E+03 0.  0.
<mgrwt>
<rscale>  0 0.36695221E+03</rscale>
<asrwt>0</asrwt>
<pdfrwt beam="1">  1        2 0.25621360E+00 0.36695221E+03</pdfrwt>
<pdfrwt beam="2">  1       -2 0.26813949E-02 0.36695221E+03</pdfrwt>
<totfact> 0.55921726E+03</totfact>
</mgrwt>
</event>
<event>
 4    1  0.5323640E-005  0.5505884E+03  0.7818608E-02  0.1001358E+00
         -2   -1    0    0    0  501 -0.00000000000E+00  0.00000000000E+00  0.29775983462E+03  0.29775983463E+03  0.25500000000E-02 0. -1.
          2   -1    0    0  501    0  0.00000000000E+00 -0.00000000000E+00 -0.25452357135E+03  0.25452357136E+03  0.25500000000E-02 0.  1.
    5000001    1    1    2    0    0  0.70942162323E+02  0.13611909950E+03  0.18022098438E+03  0.28855814467E+03  0.16500000000E+03 0.  0.
   -5000001    1    1    2    0    0 -0.70942162323E+02 -0.13611909950E+03 -0.13698472111E+03  0.26372526133E+03  0.16500000000E+03 0.  0.
<mgrwt>
<rscale>  0 0.55058840E+03</rscale>
<asrwt>0</asrwt>
<pdfrwt beam="1">  1        2 0.36360510E-01 0.55058840E+03</pdfrwt>
<pdfrwt beam="2">  1       -2 0.42537119E-01 0.55058840E+03</pdfrwt>
<totfact> 0.75443458E+02</totfact>
</mgrwt>
</event>
<event>
 4    1  0.5323640E-005  0.4478181E+03  0.7818608E-02  0.1028375E+00
         -2   -1    0    0    0  501 -0.00000000000E+00  0.00000000000E+00  0.22502102410E+02  0.22502102554E+02  0.25500000000E-02 0. -1.
          2   -1    0    0  501    0  0.00000000000E+00 -0.00000000000E+00 -0.22280253135E+04  0.22280253135E+04  0.25500000000E-02 0.  1.
    5000001    1    1    2    0    0  0.12453517384E+02  0.14969643143E+03 -0.11962612619E+04  0.12168936348E+04  0.16500000000E+03 0.  0.
   -5000001    1    1    2    0    0 -0.12453517384E+02 -0.14969643143E+03 -0.10092619491E+04  0.10336337812E+04  0.16500000000E+03 0.  0.
<mgrwt>
<rscale>  0 0.44781806E+03</rscale>
<asrwt>0</asrwt>
<pdfrwt beam="1">  1        2 0.31828919E+00 0.44781806E+03</pdfrwt>
<pdfrwt beam="2">  1       -2 0.32145875E-02 0.44781806E+03</pdfrwt>
<totfact> 0.25878655E+03</totfact>
</mgrwt>
</event>
<event>
 4    1  0.5323640E-005  0.6570517E+03  0.7818608E-02  0.9793636E-01
         -2   -1    0    0    0  501 -0.00000000000E+00  0.00000000000E+00  0.92903203185E+02  0.92903203220E+02  0.25500000000E-02 0. -1.
          2   -1    0    0  501    0  0.00000000000E+00 -0.00000000000E+00 -0.11617385727E+04  0.11617385727E+04  0.25500000000E-02 0.  1.
    5000001    1    1    2    0    0  0.19639852950E+03  0.13157765880E+03 -0.23359274099E+03  0.37104667001E+03  0.16500000000E+03 0.  0.
   -5000001    1    1    2    0    0 -0.19639852950E+03 -0.13157765880E+03 -0.83524262857E+03  0.88359510595E+03  0.16500000000E+03 0.  0.
<mgrwt>
<rscale>  0 0.65705170E+03</rscale>
<asrwt>0</asrwt>
<pdfrwt beam="1">  1        2 0.16596264E+00 0.65705170E+03</pdfrwt>
<pdfrwt beam="2">  1       -2 0.13271887E-01 0.65705170E+03</pdfrwt>
<totfact> 0.97433657E+02</totfact>
</mgrwt>
</event>
<event>
 4    1  0.5323640E-005  0.6269989E+03  0.7818608E-02  0.9850923E-01
         -2   -1    0    0    0  501 -0.00000000000E+00  0.00000000000E+00  0.12961591496E+03  0.12961591499E+03  0.25500000000E-02 0. -1.
          2   -1    0    0  501    0  0.00000000000E+00 -0.00000000000E+00 -0.75825501208E+03  0.75825501208E+03  0.25500000000E-02 0.  1.
    5000001    1    1    2    0    0  0.44885084166E+02 -0.26273880902E+03 -0.30971687501E+03  0.44067663339E+03  0.16500000000E+03 0.  0.
   -5000001    1    1    2    0    0 -0.44885084166E+02  0.26273880902E+03 -0.31892222210E+03  0.44719429368E+03  0.16500000000E+03 0.  0.
<mgrwt>
<rscale>  0 0.62699894E+03</rscale>
<asrwt>0</asrwt>
<pdfrwt beam="1">  1        2 0.10832214E+00 0.62699894E+03</pdfrwt>
<pdfrwt beam="2">  1       -2 0.18516560E-01 0.62699894E+03</pdfrwt>
<totfact> 0.99664797E+02</totfact>
</mgrwt>
</event>
<event>
 4    1  0.5323640E-005  0.5147829E+03  0.7818608E-02  0.1009991E+00
         -2   -1    0    0    0  501 -0.00000000000E+00  0.00000000000E+00  0.55629805612E+02  0.55629805670E+02  0.25500000000E-02 0. -1.
          2   -1    0    0  501    0  0.00000000000E+00 -0.00000000000E+00 -0.11909150064E+04  0.11909150064E+04  0.25500000000E-02 0.  1.
    5000001    1    1    2    0    0 -0.54783808544E+02 -0.18239706941E+03 -0.69475184987E+03  0.73903659551E+03  0.16500000000E+03 0.  0.
   -5000001    1    1    2    0    0  0.54783808544E+02  0.18239706941E+03 -0.44053335095E+03  0.50750821659E+03  0.16500000000E+03 0.  0.
<mgrwt>
<rscale>  0 0.51478295E+03</rscale>
<asrwt>0</asrwt>
<pdfrwt beam="1">  1        2 0.17013070E+00 0.51478295E+03</pdfrwt>
<pdfrwt beam="2">  1       -2 0.79471158E-02 0.51478295E+03</pdfrwt>
<totfact> 0.21648449E+03</totfact>
</mgrwt>
</event>
<event>
 4    1  0.5323640E-005  0.4963607E+03  0.7818608E-02  0.1014733E+00
         -2   -1    0    0    0  501 -0.00000000000E+00  0.00000000000E+00  0.51415822110E+02  0.51415822173E+02  0.25500000000E-02 0. -1.
          2   -1    0    0  501    0  0.00000000000E+00 -0.00000000000E+00 -0.11979478855E+04  0.11979478855E+04  0.25500000000E-02 0.  1.
    5000001    1    1    2    0    0  0.17832874446E+03  0.48397933317E+02 -0.61101960458E+03  0.65932803538E+03  0.16500000000E+03 0.  0.
   -5000001    1    1    2    0    0 -0.17832874446E+03 -0.48397933317E+02 -0.53551245885E+03  0.59003567234E+03  0.16500000000E+03 0.  0.
<mgrwt>
<rscale>  0 0.49636066E+03</rscale>
<asrwt>0</asrwt>
<pdfrwt beam="1">  1        2 0.17113540E+00 0.49636066E+03</pdfrwt>
<pdfrwt beam="2">  1       -2 0.73451182E-02 0.49636066E+03</pdfrwt>
<totfact> 0.24307185E+03</totfact>
</mgrwt>
</event>
<event>
 4    1  0.5323640E-005  0.4740064E+03  0.7818608E-02  0.1020795E+00
         -2   -1    0    0    0  501 -0.00000000000E+00  0.00000000000E+00  0.28598241716E+02  0.28598241829E+02  0.25500000000E-02 0. -1.
          2   -1    0    0  501    0  0.00000000000E+00 -0.00000000000E+00 -0.19641247521E+04  0.19641247521E+04  0.25500000000E-02 0.  1.
    5000001    1    1    2    0    0  0.95133926916E+02  0.91142873213E+02 -0.51521229845E+03  0.55679996395E+03  0.16500000000E+03 0.  0.
   -5000001    1    1    2    0    0 -0.95133926916E+02 -0.91142873213E+02 -0.14203142119E+04  0.14359230300E+04  0.16500000000E+03 0.  0.
<mgrwt>
<rscale>  0 0.47400639E+03</rscale>
<asrwt>0</asrwt>
<pdfrwt beam="1">  1        2 0.28058916E+00 0.47400639E+03</pdfrwt>
<pdfrwt beam="2">  1       -2 0.40854644E-02 0.47400639E+03</pdfrwt>
<totfact> 0.24299158E+03</totfact>
</mgrwt>
</event>
<event>
 4    1  0.5323640E-005  0.8160954E+03  0.7818608E-02  0.9537007E-01
         -2   -1    0    0    0  501 -0.00000000000E+00  0.00000000000E+00  0.78305987251E+02  0.78305987293E+02  0.25500000000E-02 0. -1.
          2   -1    0    0  501    0  0.00000000000E+00 -0.00000000000E+00 -0.21263117970E+04  0.21263117970E+04  0.25500000000E-02 0.  1.
    5000001    1    1    2    0    0  0.13370708012E+03  0.34156953149E+03 -0.12098052616E+04  0.12749121927E+04  0.16500000000E+03 0.  0.
   -5000001    1    1    2    0    0 -0.13370708012E+03 -0.34156953149E+03 -0.83820054818E+03  0.92970559162E+03  0.16500000000E+03 0.  0.
<mgrwt>
<rscale>  0 0.81609545E+03</rscale>
<asrwt>0</asrwt>
<pdfrwt beam="1">  1        2 0.30375879E+00 0.81609545E+03</pdfrwt>
<pdfrwt beam="2">  1       -2 0.11186571E-01 0.81609545E+03</pdfrwt>
<totfact> 0.40166380E+02</totfact>
</mgrwt>
</event>
<event>
 4    1  0.5323640E-005  0.4618854E+03  0.7818608E-02  0.1024236E+00
          2   -1    0    0  501    0  0.00000000000E+00  0.00000000000E+00  0.18775720982E+04  0.18775720982E+04  0.25500000000E-02 0.  1.
         -2   -1    0    0    0  501 -0.00000000000E+00 -0.00000000000E+00 -0.28406114166E+02  0.28406114281E+02  0.25500000000E-02 0. -1.
    5000001    1    1    2    0    0  0.14005667592E+03  0.72627624990E+02  0.10686500670E+04  0.10927619183E+04  0.16500000000E+03 0.  0.
   -5000001    1    1    2    0    0 -0.14005667592E+03 -0.72627624990E+02  0.78051591697E+03  0.81321629412E+03  0.16500000000E+03 0.  0.
<mgrwt>
<rscale>  0 0.46188539E+03</rscale>
<asrwt>0</asrwt>
<pdfrwt beam="1">  1        2 0.26822453E+00 0.46188539E+03</pdfrwt>
<pdfrwt beam="2">  1       -2 0.40580171E-02 0.46188539E+03</pdfrwt>
<totfact> 0.27124076E+03</totfact>
</mgrwt>
</event>
<event>
 4    1  0.5323640E-005  0.7065264E+03  0.7818608E-02  0.9706136E-01
         -2   -1    0    0    0  501 -0.00000000000E+00  0.00000000000E+00  0.95827192156E+02  0.95827192190E+02  0.25500000000E-02 0. -1.
          2   -1    0    0  501    0  0.00000000000E+00 -0.00000000000E+00 -0.13022909250E+04  0.13022909250E+04  0.25500000000E-02 0.  1.
    5000001    1    1    2    0    0 -0.49344724536E+02 -0.27122862694E+03 -0.31260170652E+03  0.44826855436E+03  0.16500000000E+03 0.  0.
   -5000001    1    1    2    0    0  0.49344724536E+02  0.27122862694E+03 -0.89386202637E+03  0.94984956287E+03  0.16500000000E+03 0.  0.
<mgrwt>
<rscale>  0 0.70652638E+03</rscale>
<asrwt>0</asrwt>
<pdfrwt beam="1">  1        2 0.18604155E+00 0.70652638E+03</pdfrwt>
<pdfrwt beam="2">  1       -2 0.13689600E-01 0.70652638E+03</pdfrwt>
<totfact> 0.77108491E+02</totfact>
</mgrwt>
</event>
<event>
 4    1  0.5323640E-005  0.4487472E+03  0.7818608E-02  0.1028096E+00
         -2   -1    0    0    0  501 -0.00000000000E+00  0.00000000000E+00  0.29250306430E+02  0.29250306541E+02  0.25500000000E-02 0. -1.
          2   -1    0    0  501    0  0.00000000000E+00 -0.00000000000E+00 -0.17211277926E+04  0.17211277926E+04  0.25500000000E-02 0.  1.
    5000001    1    1    2    0    0 -0.11564983927E+03 -0.45841084914E+02 -0.50495001959E+03  0.54559674915E+03  0.16500000000E+03 0.  0.
   -5000001    1    1    2    0    0  0.11564983927E+03  0.45841084914E+02 -0.11869274666E+04  0.12047813500E+04  0.16500000000E+03 0.  0.
<mgrwt>
<rscale>  0 0.44874721E+03</rscale>
<asrwt>0</asrwt>
<pdfrwt beam="1">  1        2 0.24587534E+00 0.44874721E+03</pdfrwt>
<pdfrwt beam="2">  1       -2 0.41786163E-02 0.44874721E+03</pdfrwt>
<totfact> 0.31066619E+03</totfact>
</mgrwt>
</event>
<event>
 4    1  0.5323640E-005  0.4709782E+03  0.7818608E-02  0.1021644E+00
          2   -1    0    0  501    0  0.00000000000E+00  0.00000000000E+00  0.17598249135E+04  0.17598249135E+04  0.25500000000E-02 0.  1.
         -2   -1    0    0    0  501 -0.00000000000E+00 -0.00000000000E+00 -0.31511725503E+02  0.31511725606E+02  0.25500000000E-02 0. -1.
    5000001    1    1    2    0    0 -0.88964722066E+02 -0.12325053934E+03  0.59187974362E+03  0.63297081143E+03  0.16500000000E+03 0.  0.
   -5000001    1    1    2    0    0  0.88964722066E+02  0.12325053934E+03  0.11364334444E+04  0.11583658277E+04  0.16500000000E+03 0.  0.
<mgrwt>
<rscale>  0 0.47097821E+03</rscale>
<asrwt>0</asrwt>
<pdfrwt beam="1">  1        2 0.25140354E+00 0.47097821E+03</pdfrwt>
<pdfrwt beam="2">  1       -2 0.45016754E-02 0.47097821E+03</pdfrwt>
<totfact> 0.26492527E+03</totfact>
</mgrwt>
</event>
<event>
 4    1  0.5323640E-005  0.4325247E+03  0.7818608E-02  0.1033065E+00
          2   -1    0    0  501    0  0.00000000000E+00  0.00000000000E+00  0.41735446656E+03  0.41735446657E+03  0.25500000000E-02 0.  1.
         -2   -1    0    0    0  501 -0.00000000000E+00 -0.00000000000E+00 -0.11206156787E+03  0.11206156790E+03  0.25500000000E-02 0. -1.
    5000001    1    1    2    0    0 -0.11686403748E+03 -0.71974119257E+02  0.12010244585E+03  0.24594120150E+03  0.16500000000E+03 0.  0.
   -5000001    1    1    2    0    0  0.11686403748E+03  0.71974119257E+02  0.18519045285E+03  0.28347483296E+03  0.16500000000E+03 0.  0.
<mgrwt>
<rscale>  0 0.43252466E+03</rscale>
<asrwt>0</asrwt>
<pdfrwt beam="1">  1        2 0.59622066E-01 0.43252466E+03</pdfrwt>
<pdfrwt beam="2">  1       -2 0.16008796E-01 0.43252466E+03</pdfrwt>
<totfact> 0.25573614E+03</totfact>
</mgrwt>
</event>
<event>
 4    1  0.5323640E-005  0.4446473E+03  0.7818608E-02  0.1029330E+00
         -2   -1    0    0    0  501 -0.00000000000E+00  0.00000000000E+00  0.10591391056E+04  0.10591391056E+04  0.25500000000E-02 0. -1.
          2   -1    0    0  501    0  0.00000000000E+00 -0.00000000000E+00 -0.46667908598E+02  0.46667908668E+02  0.25500000000E-02 0.  1.
    5000001    1    1    2    0    0  0.10145878829E+03  0.46652209030E+02  0.75157975387E+03  0.77753934997E+03  0.16500000000E+03 0.  0.
   -5000001    1    1    2    0    0 -0.10145878829E+03 -0.46652209030E+02  0.26089144316E+03  0.32826766433E+03  0.16500000000E+03 0.  0.
<mgrwt>
<rscale>  0 0.44464731E+03</rscale>
<asrwt>0</asrwt>
<pdfrwt beam="1">  1        2 0.66668454E-02 0.44464731E+03</pdfrwt>
<pdfrwt beam="2">  1       -2 0.15130556E+00 0.44464731E+03</pdfrwt>
<totfact> 0.33472642E+02</totfact>
</mgrwt>
</event>
<event>
 4    1  0.5323640E-005  0.4519646E+03  0.7818608E-02  0.1027138E+00
          2   -1    0    0  501    0  0.00000000000E+00  0.00000000000E+00  0.81292755039E+03  0.81292755039E+03  0.25500000000E-02 0.  1.
         -2   -1    0    0    0  501 -0.00000000000E+00 -0.00000000000E+00 -0.62819872323E+02  0.62819872375E+02  0.25500000000E-02 0. -1.
    5000001    1    1    2    0    0  0.57422449110E+02  0.11090574124E+03  0.55100216227E+03  0.58857947970E+03  0.16500000000E+03 0.  0.
   -5000001    1    1    2    0    0 -0.57422449110E+02 -0.11090574124E+03  0.19910551579E+03  0.28716794306E+03  0.16500000000E+03 0.  0.
<mgrwt>
<rscale>  0 0.45196462E+03</rscale>
<asrwt>0</asrwt>
<pdfrwt beam="1">  1        2 0.11613251E+00 0.45196462E+03</pdfrwt>
<pdfrwt beam="2">  1       -2 0.89742671E-02 0.45196462E+03</pdfrwt>
<totfact> 0.30302770E+03</totfact>
</mgrwt>
</event>
<event>
 4    1  0.5323640E-005  0.1320439E+04  0.7818608E-02  0.9013512E-01
          2   -1    0    0  501    0  0.00000000000E+00  0.00000000000E+00  0.11492642036E+04  0.11492642036E+04  0.25500000000E-02 0.  1.
         -2   -1    0    0    0  501 -0.00000000000E+00 -0.00000000000E+00 -0.37927726950E+03  0.37927726951E+03  0.25500000000E-02 0. -1.
    5000001    1    1    2    0    0 -0.49908729226E+03 -0.24294256406E+03  0.17912422611E+02  0.57935746272E+03  0.16500000000E+03 0.  0.
   -5000001    1    1    2    0    0  0.49908729226E+03  0.24294256406E+03  0.75207451146E+03  0.94918401036E+03  0.16500000000E+03 0.  0.
<mgrwt>
<rscale>  0 0.13204390E+04</rscale>
<asrwt>0</asrwt>
<pdfrwt beam="1">  1        2 0.16418060E+00 0.13204390E+04</pdfrwt>
<pdfrwt beam="2">  1       -2 0.54182468E-01 0.13204390E+04</pdfrwt>
<totfact> 0.71809880E+01</totfact>
</mgrwt>
</event>
<event>
 4    1  0.5323640E-005  0.4846646E+03  0.7818608E-02  0.1017861E+00
         -2   -1    0    0    0  501 -0.00000000000E+00  0.00000000000E+00  0.97918305828E+02  0.97918305861E+02  0.25500000000E-02 0. -1.
          2   -1    0    0  501    0  0.00000000000E+00 -0.00000000000E+00 -0.59973413068E+03  0.59973413069E+03  0.25500000000E-02 0.  1.
    5000001    1    1    2    0    0 -0.17177172192E+03  0.13566276348E+02 -0.18966118744E+03  0.30477193822E+03  0.16500000000E+03 0.  0.
   -5000001    1    1    2    0    0  0.17177172192E+03 -0.13566276348E+02 -0.31215463741E+03  0.39288049832E+03  0.16500000000E+03 0.  0.
<mgrwt>
<rscale>  0 0.48466463E+03</rscale>
<asrwt>0</asrwt>
<pdfrwt beam="1">  1        2 0.85676302E-01 0.48466463E+03</pdfrwt>
<pdfrwt beam="2">  1       -2 0.13988330E-01 0.48466463E+03</pdfrwt>
<totfact> 0.21296609E+03</totfact>
</mgrwt>
</event>
<event>
 4    1  0.5323640E-005  0.3703206E+03  0.7818608E-02  0.1054570E+00
          2   -1    0    0  501    0  0.00000000000E+00  0.00000000000E+00  0.88316692991E+02  0.88316693028E+02  0.25500000000E-02 0.  1.
         -2   -1    0    0    0  501 -0.00000000000E+00 -0.00000000000E+00 -0.38819773398E+03  0.38819773399E+03  0.25500000000E-02 0. -1.
    5000001    1    1    2    0    0  0.72050621158E+02 -0.34651452565E+02 -0.11670007504E+03  0.21733826789E+03  0.16500000000E+03 0.  0.
   -5000001    1    1    2    0    0 -0.72050621158E+02  0.34651452565E+02 -0.18318096595E+03  0.25917615913E+03  0.16500000000E+03 0.  0.
<mgrwt>
<rscale>  0 0.37032062E+03</rscale>
<asrwt>0</asrwt>
<pdfrwt beam="1">  1        2 0.12616671E-01 0.37032062E+03</pdfrwt>
<pdfrwt beam="2">  1       -2 0.55456818E-01 0.37032062E+03</pdfrwt>
<totfact> 0.15057058E+03</totfact>
</mgrwt>
</event>
<event>
 4    1  0.5323640E-005  0.5443766E+03  0.7818608E-02  0.1002804E+00
         -2   -1    0    0    0  501 -0.00000000000E+00  0.00000000000E+00  0.37209445834E+02  0.37209445922E+02  0.25500000000E-02 0. -1.
          2   -1    0    0  501    0  0.00000000000E+00 -0.00000000000E+00 -0.19910665222E+04  0.19910665222E+04  0.25500000000E-02 0.  1.
    5000001    1    1    2    0    0  0.21184783804E+03  0.26108094699E+02 -0.84257271024E+03  0.88471176726E+03  0.16500000000E+03 0.  0.
   -5000001    1    1    2    0    0 -0.21184783804E+03 -0.26108094699E+02 -0.11112843661E+04  0.11435642008E+04  0.16500000000E+03 0.  0.
<mgrwt>
<rscale>  0 0.54437664E+03</rscale>
<asrwt>0</asrwt>
<pdfrwt beam="1">  1        2 0.28443801E+00 0.54437664E+03</pdfrwt>
<pdfrwt beam="2">  1       -2 0.53156364E-02 0.54437664E+03</pdfrwt>
<totfact> 0.15658482E+03</totfact>
</mgrwt>
</event>
<event>
 4    1  0.5323640E-005  0.4431908E+03  0.7818608E-02  0.1029772E+00
          2   -1    0    0  501    0  0.00000000000E+00  0.00000000000E+00  0.47089894591E+03  0.47089894592E+03  0.25500000000E-02 0.  1.
         -2   -1    0    0    0  501 -0.00000000000E+00 -0.00000000000E+00 -0.10427825386E+03  0.10427825389E+03  0.25500000000E-02 0. -1.
    5000001    1    1    2    0    0 -0.14230642777E+03  0.19292814435E+02  0.13731242421E+03  0.25826930502E+03  0.16500000000E+03 0.  0.
   -5000001    1    1    2    0    0  0.14230642777E+03 -0.19292814435E+02  0.22930826784E+03  0.31690789478E+03  0.16500000000E+03 0.  0.
<mgrwt>
<rscale>  0 0.44319079E+03</rscale>
<asrwt>0</asrwt>
<pdfrwt beam="1">  1        2 0.67271279E-01 0.44319079E+03</pdfrwt>
<pdfrwt beam="2">  1       -2 0.14896893E-01 0.44319079E+03</pdfrwt>
<totfact> 0.25244887E+03</totfact>
</mgrwt>
</event>
<event>
 4    1  0.5323640E-005  0.4927507E+03  0.7818608E-02  0.1015689E+00
         -2   -1    0    0    0  501 -0.00000000000E+00  0.00000000000E+00  0.49038256288E+02  0.49038256354E+02  0.25500000000E-02 0. -1.
          2   -1    0    0  501    0  0.00000000000E+00 -0.00000000000E+00 -0.12378256401E+04  0.12378256401E+04  0.25500000000E-02 0.  1.
    5000001    1    1    2    0    0 -0.10756305485E+03 -0.14727658997E+03 -0.63274110767E+03  0.67885676991E+03  0.16500000000E+03 0.  0.
   -5000001    1    1    2    0    0  0.10756305485E+03  0.14727658997E+03 -0.55604627615E+03  0.60800712656E+03  0.16500000000E+03 0.  0.
<mgrwt>
<rscale>  0 0.49275069E+03</rscale>
<asrwt>0</asrwt>
<pdfrwt beam="1">  1        2 0.17683221E+00 0.49275069E+03</pdfrwt>
<pdfrwt beam="2">  1       -2 0.70054660E-02 0.49275069E+03</pdfrwt>
<totfact> 0.24893582E+03</totfact>
</mgrwt>
</event>
<event>
 4    1  0.5323640E-005  0.5633098E+03  0.7818608E-02  0.9984593E-01
         -2   -1    0    0    0  501 -0.00000000000E+00  0.00000000000E+00  0.40185370908E+02  0.40185370989E+02  0.25500000000E-02 0. -1.
          2   -1    0    0  501    0  0.00000000000E+00 -0.00000000000E+00 -0.19740887553E+04  0.19740887553E+04  0.25500000000E-02 0.  1.
    5000001    1    1    2    0    0  0.14282186971E+03  0.16587413742E+03 -0.11984729366E+04  0.12294204715E+04  0.16500000000E+03 0.  0.
   -5000001    1    1    2    0    0 -0.14282186971E+03 -0.16587413742E+03 -0.73543044781E+03  0.78485365483E+03  0.16500000000E+03 0.  0.
<mgrwt>
<rscale>  0 0.56330982E+03</rscale>
<asrwt>0</asrwt>
<pdfrwt beam="1">  1        2 0.28201262E+00 0.56330982E+03</pdfrwt>
<pdfrwt beam="2">  1       -2 0.57407685E-02 0.56330982E+03</pdfrwt>
<totfact> 0.14153014E+03</totfact>
</mgrwt>
</event>
<event>
 4    1  0.5323640E-005  0.8753941E+03  0.7818608E-02  0.9456874E-01
          2   -1    0    0  501    0  0.00000000000E+00  0.00000000000E+00  0.13869514437E+04  0.13869514437E+04  0.25500000000E-02 0. -1.
         -2   -1    0    0    0  501 -0.00000000000E+00 -0.00000000000E+00 -0.13812935783E+03  0.13812935786E+03  0.25500000000E-02 0.  1.
    5000001    1    1    2    0    0 -0.28592405565E+03 -0.26548918792E+03  0.43264120734E+03  0.60550845476E+03  0.16500000000E+03 0.  0.
   -5000001    1    1    2    0    0  0.28592405565E+03  0.26548918792E+03  0.81618087848E+03  0.91957234675E+03  0.16500000000E+03 0.  0.
<mgrwt>
<rscale>  0 0.87539411E+03</rscale>
<asrwt>0</asrwt>
<pdfrwt beam="1">  1        2 0.19813592E+00 0.87539411E+03</pdfrwt>
<pdfrwt beam="2">  1       -2 0.19732766E-01 0.87539411E+03</pdfrwt>
<totfact> 0.36832282E+02</totfact>
</mgrwt>
</event>
<event>
 4    1  0.5323640E-005  0.5764113E+03  0.7818608E-02  0.9955591E-01
          2   -1    0    0  501    0  0.00000000000E+00  0.00000000000E+00  0.20050831293E+04  0.20050831293E+04  0.25500000000E-02 0.  1.
         -2   -1    0    0    0  501 -0.00000000000E+00 -0.00000000000E+00 -0.41425964668E+02  0.41425964747E+02  0.25500000000E-02 0. -1.
    5000001    1    1    2    0    0  0.52424601861E+02 -0.21506085564E+03  0.68823572567E+03  0.74154765498E+03  0.16500000000E+03 0.  0.
   -5000001    1    1    2    0    0 -0.52424601861E+02  0.21506085564E+03  0.12754214390E+04  0.13049614391E+04  0.16500000000E+03 0.  0.
<mgrwt>
<rscale>  0 0.57641132E+03</rscale>
<asrwt>0</asrwt>
<pdfrwt beam="1">  1        2 0.28644055E+00 0.57641132E+03</pdfrwt>
<pdfrwt beam="2">  1       -2 0.59179929E-02 0.57641132E+03</pdfrwt>
<totfact> 0.13013703E+03</totfact>
</mgrwt>
</event>
<event>
 4    1  0.5323640E-005  0.4454872E+03  0.7818608E-02  0.1029076E+00
         -2   -1    0    0    0  501 -0.00000000000E+00  0.00000000000E+00  0.33650363198E+02  0.33650363295E+02  0.25500000000E-02 0. -1.
          2   -1    0    0  501    0  0.00000000000E+00 -0.00000000000E+00 -0.14744181459E+04  0.14744181459E+04  0.25500000000E-02 0.  1.
    5000001    1    1    2    0    0  0.96008165264E+02  0.36818782813E+02 -0.35239849786E+03  0.40247098263E+03  0.16500000000E+03 0.  0.
   -5000001    1    1    2    0    0 -0.96008165264E+02 -0.36818782813E+02 -0.10883692849E+04  0.11055975266E+04  0.16500000000E+03 0.  0.
<mgrwt>
<rscale>  0 0.44548718E+03</rscale>
<asrwt>0</asrwt>
<pdfrwt beam="1">  1        2 0.21063112E+00 0.44548718E+03</pdfrwt>
<pdfrwt beam="2">  1       -2 0.48071957E-02 0.44548718E+03</pdfrwt>
<totfact> 0.33463620E+03</totfact>
</mgrwt>
</event>
<event>
 4    1  0.5323640E-005  0.4905336E+03  0.7818608E-02  0.1016280E+00
          2   -1    0    0  501    0  0.00000000000E+00  0.00000000000E+00  0.10979268997E+04  0.10979268997E+04  0.25500000000E-02 0.  1.
         -2   -1    0    0    0  501 -0.00000000000E+00 -0.00000000000E+00 -0.54790362616E+02  0.54790362675E+02  0.25500000000E-02 0. -1.
    5000001    1    1    2    0    0 -0.48263550099E+02 -0.11049794840E+03  0.20288130223E+03  0.28796699405E+03  0.16500000000E+03 0.  0.
   -5000001    1    1    2    0    0  0.48263550099E+02  0.11049794840E+03  0.84025523488E+03  0.86475026835E+03  0.16500000000E+03 0.  0.
<mgrwt>
<rscale>  0 0.49053364E+03</rscale>
<asrwt>0</asrwt>
<pdfrwt beam="1">  1        2 0.15684669E+00 0.49053364E+03</pdfrwt>
<pdfrwt beam="2">  1       -2 0.78271951E-02 0.49053364E+03</pdfrwt>
<totfact> 0.25049473E+03</totfact>
</mgrwt>
</event>
<event>
 4    1  0.5323640E-005  0.5960210E+03  0.7818608E-02  0.9913696E-01
          2   -1    0    0  501    0  0.00000000000E+00  0.00000000000E+00  0.16293777830E+03  0.16293777832E+03  0.25500000000E-02 0.  1.
         -2   -1    0    0    0  501 -0.00000000000E+00 -0.00000000000E+00 -0.54505619190E+03  0.54505619191E+03  0.25500000000E-02 0. -1.
    5000001    1    1    2    0    0 -0.16646925559E+03  0.14044994505E+03 -0.49772632745E+02  0.27774181373E+03  0.16500000000E+03 0.  0.
   -5000001    1    1    2    0    0  0.16646925559E+03 -0.14044994505E+03 -0.33234578086E+03  0.43025215650E+03  0.16500000000E+03 0.  0.
<mgrwt>
<rscale>  0 0.59602096E+03</rscale>
<asrwt>0</asrwt>
<pdfrwt beam="1">  1        2 0.23276826E-01 0.59602096E+03</pdfrwt>
<pdfrwt beam="2">  1       -2 0.77865170E-01 0.59602096E+03</pdfrwt>
<totfact> 0.35310269E+02</totfact>
</mgrwt>
</event>
<event>
 4    1  0.5323640E-005  0.8234544E+03  0.7818608E-02  0.9526675E-01
         -2   -1    0    0    0  501 -0.00000000000E+00  0.00000000000E+00  0.10261479026E+03  0.10261479029E+03  0.25500000000E-02 0. -1.
          2   -1    0    0  501    0  0.00000000000E+00 -0.00000000000E+00 -0.16519967068E+04  0.16519967068E+04  0.25500000000E-02 0.  1.
    5000001    1    1    2    0    0  0.35812746368E+03  0.10829520937E+03 -0.67225399543E+03  0.78685040953E+03  0.16500000000E+03 0.  0.
   -5000001    1    1    2    0    0 -0.35812746368E+03 -0.10829520937E+03 -0.87712792112E+03  0.96776108758E+03  0.16500000000E+03 0.  0.
<mgrwt>
<rscale>  0 0.82345442E+03</rscale>
<asrwt>0</asrwt>
<pdfrwt beam="1">  1        2 0.23599951E+00 0.82345442E+03</pdfrwt>
<pdfrwt beam="2">  1       -2 0.14659257E-01 0.82345442E+03</pdfrwt>
<totfact> 0.44636377E+02</totfact>
</mgrwt>
</event>
<event>
 4    1  0.5323640E-005  0.6446819E+03  0.7818608E-02  0.9816810E-01
          2   -1    0    0  501    0  0.00000000000E+00  0.00000000000E+00  0.19274234116E+04  0.19274234116E+04  0.25500000000E-02 0.  1.
         -2   -1    0    0    0  501 -0.00000000000E+00 -0.00000000000E+00 -0.53908083933E+02  0.53908083994E+02  0.25500000000E-02 0. -1.
    5000001    1    1    2    0    0 -0.52810257294E+01 -0.27655329183E+03  0.89679343473E+03  0.95287621286E+03  0.16500000000E+03 0.  0.
   -5000001    1    1    2    0    0  0.52810257294E+01  0.27655329183E+03  0.97672189296E+03  0.10284552828E+04  0.16500000000E+03 0.  0.
<mgrwt>
<rscale>  0 0.64468195E+03</rscale>
<asrwt>0</asrwt>
<pdfrwt beam="1">  1        2 0.27534618E+00 0.64468195E+03</pdfrwt>
<pdfrwt beam="2">  1       -2 0.77011555E-02 0.64468195E+03</pdfrwt>
<totfact> 0.93626853E+02</totfact>
</mgrwt>
</event>
<event>
 4    1  0.5323640E-005  0.4371375E+03  0.7818608E-02  0.1031629E+00
          2   -1    0    0  501    0  0.00000000000E+00  0.00000000000E+00  0.18088582300E+04  0.18088582300E+04  0.25500000000E-02 0.  1.
         -2   -1    0    0    0  501 -0.00000000000E+00 -0.00000000000E+00 -0.26410191624E+02  0.26410191747E+02  0.25500000000E-02 0. -1.
    5000001    1    1    2    0    0  0.27847556789E+02 -0.13426802878E+03  0.10665485435E+04  0.10879127656E+04  0.16500000000E+03 0.  0.
   -5000001    1    1    2    0    0 -0.27847556789E+02  0.13426802878E+03  0.71589949488E+03  0.74735565612E+03  0.16500000000E+03 0.  0.
<mgrwt>
<rscale>  0 0.43713747E+03</rscale>
<asrwt>0</asrwt>
<pdfrwt beam="1">  1        2 0.25840836E+00 0.43713747E+03</pdfrwt>
<pdfrwt beam="2">  1       -2 0.37728840E-02 0.43713747E+03</pdfrwt>
<totfact> 0.32816781E+03</totfact>
</mgrwt>
</event>
<event>
 4    1  0.5323640E-005  0.5500273E+03  0.7818608E-02  0.1001488E+00
          2   -1    0    0  501    0  0.00000000000E+00  0.00000000000E+00  0.41337450231E+03  0.41337450232E+03  0.25500000000E-02 0.  1.
         -2   -1    0    0    0  501 -0.00000000000E+00 -0.00000000000E+00 -0.18296368110E+03  0.18296368112E+03  0.25500000000E-02 0. -1.
    5000001    1    1    2    0    0  0.14703853860E+03 -0.71260212119E+02  0.27495139668E+03  0.35989112270E+03  0.16500000000E+03 0.  0.
   -5000001    1    1    2    0    0 -0.14703853860E+03  0.71260212119E+02 -0.44540575463E+02  0.23644706073E+03  0.16500000000E+03 0.  0.
<mgrwt>
<rscale>  0 0.55002735E+03</rscale>
<asrwt>0</asrwt>
<pdfrwt beam="1">  1        2 0.59053501E-01 0.55002735E+03</pdfrwt>
<pdfrwt beam="2">  1       -2 0.26137669E-01 0.55002735E+03</pdfrwt>
<totfact> 0.11026158E+03</totfact>
</mgrwt>
</event>
<event>
 4    1  0.5323640E-005  0.7640917E+03  0.7818608E-02  0.9613498E-01
         -2   -1    0    0    0  501 -0.00000000000E+00  0.00000000000E+00  0.86442100424E+02  0.86442100462E+02  0.25500000000E-02 0. -1.
          2   -1    0    0  501    0  0.00000000000E+00 -0.00000000000E+00 -0.16885177979E+04  0.16885177979E+04  0.25500000000E-02 0.  1.
    5000001    1    1    2    0    0  0.33318680792E+03  0.65144276040E+02 -0.66406550375E+03  0.76384895034E+03  0.16500000000E+03 0.  0.
   -5000001    1    1    2    0    0 -0.33318680792E+03 -0.65144276040E+02 -0.93801019377E+03  0.10111109481E+04  0.16500000000E+03 0.  0.
<mgrwt>
<rscale>  0 0.76409168E+03</rscale>
<asrwt>0</asrwt>
<pdfrwt beam="1">  1        2 0.24121681E+00 0.76409168E+03</pdfrwt>
<pdfrwt beam="2">  1       -2 0.12348873E-01 0.76409168E+03</pdfrwt>
<totfact> 0.57143117E+02</totfact>
</mgrwt>
</event>
<event>
 4    1  0.5323640E-005  0.6333636E+03  0.7818608E-02  0.9838507E-01
          2   -1    0    0  501    0  0.00000000000E+00  0.00000000000E+00  0.97239923582E+03  0.97239923582E+03  0.25500000000E-02 0.  1.
         -2   -1    0    0    0  501 -0.00000000000E+00 -0.00000000000E+00 -0.10313393244E+03  0.10313393247E+03  0.25500000000E-02 0. -1.
    5000001    1    1    2    0    0  0.19518501301E+03  0.42500684132E+02  0.74385474264E+03  0.78768545474E+03  0.16500000000E+03 0.  0.
   -5000001    1    1    2    0    0 -0.19518501301E+03 -0.42500684132E+02  0.12541056074E+03  0.28784771356E+03  0.16500000000E+03 0.  0.
<mgrwt>
<rscale>  0 0.63336358E+03</rscale>
<asrwt>0</asrwt>
<pdfrwt beam="1">  1        2 0.13891418E+00 0.63336358E+03</pdfrwt>
<pdfrwt beam="2">  1       -2 0.14733419E-01 0.63336358E+03</pdfrwt>
<totfact> 0.10599138E+03</totfact>
</mgrwt>
</event>
<event>
 4    1  0.5323640E-005  0.4466007E+03  0.7818608E-02  0.1028741E+00
         -2   -1    0    0    0  501 -0.00000000000E+00  0.00000000000E+00  0.39551539684E+02  0.39551539766E+02  0.25500000000E-02 0. -1.
          2   -1    0    0  501    0  0.00000000000E+00 -0.00000000000E+00 -0.12607108917E+04  0.12607108917E+04  0.25500000000E-02 0.  1.
    5000001    1    1    2    0    0 -0.12946785837E+03 -0.71682089344E+02 -0.53149662141E+03  0.57585927695E+03  0.16500000000E+03 0.  0.
   -5000001    1    1    2    0    0  0.12946785837E+03  0.71682089344E+02 -0.68966273061E+03  0.72440315451E+03  0.16500000000E+03 0.  0.
<mgrwt>
<rscale>  0 0.44660075E+03</rscale>
<asrwt>0</asrwt>
<pdfrwt beam="1">  1        2 0.18010153E+00 0.44660075E+03</pdfrwt>
<pdfrwt beam="2">  1       -2 0.56502208E-02 0.44660075E+03</pdfrwt>
<totfact> 0.33837513E+03</totfact>
</mgrwt>
</event>
<event>
 4    1  0.5323640E-005  0.7483770E+03  0.7818608E-02  0.9637900E-01
         -2   -1    0    0    0  501 -0.00000000000E+00  0.00000000000E+00  0.59665196856E+02  0.59665196910E+02  0.25500000000E-02 0.  1.
          2   -1    0    0  501    0  0.00000000000E+00 -0.00000000000E+00 -0.23467121660E+04  0.23467121660E+04  0.25500000000E-02 0. -1.
    5000001    1    1    2    0    0  0.24324961260E+03  0.16347414411E+03 -0.16708775040E+04  0.17043916226E+04  0.16500000000E+03 0.  0.
   -5000001    1    1    2    0    0 -0.24324961260E+03 -0.16347414411E+03 -0.61616946514E+03  0.70198574031E+03  0.16500000000E+03 0.  0.
<mgrwt>
<rscale>  0 0.74837703E+03</rscale>
<asrwt>0</asrwt>
<pdfrwt beam="1">  1        2 0.33524454E+00 0.74837703E+03</pdfrwt>
<pdfrwt beam="2">  1       -2 0.85236010E-02 0.74837703E+03</pdfrwt>
<totfact> 0.48505003E+02</totfact>
</mgrwt>
</event>
<event>
 4    1  0.5323640E-005  0.6305702E+03  0.7818608E-02  0.9843937E-01
         -2   -1    0    0    0  501 -0.00000000000E+00  0.00000000000E+00  0.96361085733E+03  0.96361085734E+03  0.25500000000E-02 0. -1.
          2   -1    0    0  501    0  0.00000000000E+00 -0.00000000000E+00 -0.10315853200E+03  0.10315853203E+03  0.25500000000E-02 0.  1.
    5000001    1    1    2    0    0 -0.16958776839E+03 -0.55783587973E+02  0.76987646847E+03  0.80734540104E+03  0.16500000000E+03 0.  0.
   -5000001    1    1    2    0    0  0.16958776839E+03  0.55783587973E+02  0.90575856862E+02  0.25942398833E+03  0.16500000000E+03 0.  0.
<mgrwt>
<rscale>  0 0.63057016E+03</rscale>
<asrwt>0</asrwt>
<pdfrwt beam="1">  1        2 0.14736933E-01 0.63057016E+03</pdfrwt>
<pdfrwt beam="2">  1       -2 0.13765869E+00 0.63057016E+03</pdfrwt>
<totfact> 0.15592960E+02</totfact>
</mgrwt>
</event>
<event>
 4    1  0.5323640E-005  0.5311043E+03  0.7818608E-02  0.1005965E+00
          2   -1    0    0  501    0  0.00000000000E+00  0.00000000000E+00  0.12567162829E+04  0.12567162830E+04  0.25500000000E-02 0. -1.
         -2   -1    0    0    0  501 -0.00000000000E+00 -0.00000000000E+00 -0.56112855843E+02  0.56112855901E+02  0.25500000000E-02 0.  1.
    5000001    1    1    2    0    0 -0.19061154291E+03  0.82431811326E+02  0.63207057732E+03  0.68546770786E+03  0.16500000000E+03 0.  0.
   -5000001    1    1    2    0    0  0.19061154291E+03 -0.82431811326E+02  0.56853284979E+03  0.62736143099E+03  0.16500000000E+03 0.  0.
<mgrwt>
<rscale>  0 0.53110428E+03</rscale>
<asrwt>0</asrwt>
<pdfrwt beam="1">  1        2 0.17953087E+00 0.53110428E+03</pdfrwt>
<pdfrwt beam="2">  1       -2 0.80161236E-02 0.53110428E+03</pdfrwt>
<totfact> 0.19631293E+03</totfact>
</mgrwt>
</event>
<event>
 4    1  0.5323640E-005  0.5375979E+03  0.7818608E-02  0.1004406E+00
          2   -1    0    0  501    0  0.00000000000E+00  0.00000000000E+00  0.26455845078E+03  0.26455845079E+03  0.25500000000E-02 0.  1.
         -2   -1    0    0    0  501 -0.00000000000E+00 -0.00000000000E+00 -0.27310738794E+03  0.27310738795E+03  0.25500000000E-02 0. -1.
    5000001    1    1    2    0    0  0.10246687003E+03 -0.17314860152E+03 -0.71721632135E+02  0.26990533559E+03  0.16500000000E+03 0.  0.
   -5000001    1    1    2    0    0 -0.10246687003E+03  0.17314860152E+03  0.63172694970E+02  0.26776050316E+03  0.16500000000E+03 0.  0.
<mgrwt>
<rscale>  0 0.53759787E+03</rscale>
<asrwt>0</asrwt>
<pdfrwt beam="1">  1        2 0.37794065E-01 0.53759787E+03</pdfrwt>
<pdfrwt beam="2">  1       -2 0.39015341E-01 0.53759787E+03</pdfrwt>
<totfact> 0.85514841E+02</totfact>
</mgrwt>
</event>
<event>
 4    1  0.5323640E-005  0.5409354E+03  0.7818608E-02  0.1003614E+00
         -2   -1    0    0    0  501 -0.00000000000E+00  0.00000000000E+00  0.30932071374E+03  0.30932071375E+03  0.25500000000E-02 0. -1.
          2   -1    0    0  501    0  0.00000000000E+00 -0.00000000000E+00 -0.23649491142E+03  0.23649491143E+03  0.25500000000E-02 0.  1.
    5000001    1    1    2    0    0  0.37682126834E+02  0.16080464250E+03 -0.10138305750E+03  0.25452229781E+03  0.16500000000E+03 0.  0.
   -5000001    1    1    2    0    0 -0.37682126834E+02 -0.16080464250E+03  0.17420885983E+03  0.29129332738E+03  0.16500000000E+03 0.  0.
<mgrwt>
<rscale>  0 0.54093539E+03</rscale>
<asrwt>0</asrwt>
<pdfrwt beam="1">  1        2 0.33784987E-01 0.54093539E+03</pdfrwt>
<pdfrwt beam="2">  1       -2 0.44188674E-01 0.54093539E+03</pdfrwt>
<totfact> 0.75948439E+02</totfact>
</mgrwt>
</event>
<event>
 4    1  0.5323640E-005  0.6035107E+03  0.7818608E-02  0.9898149E-01
         -2   -1    0    0    0  501 -0.00000000000E+00  0.00000000000E+00  0.45194064135E+03  0.45194064136E+03  0.25500000000E-02 0.  1.
          2   -1    0    0  501    0  0.00000000000E+00 -0.00000000000E+00 -0.20147841621E+03  0.20147841623E+03  0.25500000000E-02 0. -1.
    5000001    1    1    2    0    0  0.16706351426E+03 -0.13082003611E+03  0.27371137848E+03  0.38362353728E+03  0.16500000000E+03 0.  0.
   -5000001    1    1    2    0    0 -0.16706351426E+03  0.13082003611E+03 -0.23249153345E+02  0.26979552031E+03  0.16500000000E+03 0.  0.
<mgrwt>
<rscale>  0 0.60351068E+03</rscale>
<asrwt>0</asrwt>
<pdfrwt beam="1">  1        2 0.28782631E-01 0.60351068E+03</pdfrwt>
<pdfrwt beam="2">  1       -2 0.64562949E-01 0.60351068E+03</pdfrwt>
<totfact> 0.41695836E+02</totfact>
</mgrwt>
</event>
<event>
 4    1  0.5323640E-005  0.5504301E+03  0.7818608E-02  0.1001394E+00
          2   -1    0    0  501    0  0.00000000000E+00  0.00000000000E+00  0.15431725310E+04  0.15431725310E+04  0.25500000000E-02 0.  1.
         -2   -1    0    0    0  501 -0.00000000000E+00 -0.00000000000E+00 -0.49082865411E+02  0.49082865477E+02  0.25500000000E-02 0. -1.
    5000001    1    1    2    0    0 -0.13368373014E+03  0.14409773757E+03  0.45946975615E+03  0.52628220043E+03  0.16500000000E+03 0.  0.
   -5000001    1    1    2    0    0  0.13368373014E+03 -0.14409773757E+03  0.10346199095E+04  0.10659731961E+04  0.16500000000E+03 0.  0.
<mgrwt>
<rscale>  0 0.55043012E+03</rscale>
<asrwt>0</asrwt>
<pdfrwt beam="1">  1        2 0.22045319E+00 0.55043012E+03</pdfrwt>
<pdfrwt beam="2">  1       -2 0.70118388E-02 0.55043012E+03</pdfrwt>
<totfact> 0.17098654E+03</totfact>
</mgrwt>
</event>
<event>
 4    1  0.5323640E-005  0.4921266E+03  0.7818608E-02  0.1015855E+00
         -2   -1    0    0    0  501 -0.00000000000E+00  0.00000000000E+00  0.72641436306E+02  0.72641436351E+02  0.25500000000E-02 0. -1.
          2   -1    0    0  501    0  0.00000000000E+00 -0.00000000000E+00 -0.83350717605E+03  0.83350717605E+03  0.25500000000E-02 0.  1.
    5000001    1    1    2    0    0 -0.21949676867E+02  0.17372202151E+03 -0.47541619885E+03  0.53282895116E+03  0.16500000000E+03 0.  0.
   -5000001    1    1    2    0    0  0.21949676867E+02 -0.17372202151E+03 -0.28544954089E+03  0.37331966124E+03  0.16500000000E+03 0.  0.
<mgrwt>
<rscale>  0 0.49212664E+03</rscale>
<asrwt>0</asrwt>
<pdfrwt beam="1">  1        2 0.11907245E+00 0.49212664E+03</pdfrwt>
<pdfrwt beam="2">  1       -2 0.10377349E-01 0.49212664E+03</pdfrwt>
<totfact> 0.23248041E+03</totfact>
</mgrwt>
</event>
<event>
 4    1  0.5323640E-005  0.3590572E+03  0.7818608E-02  0.1058958E+00
          2   -1    0    0  501    0  0.00000000000E+00  0.00000000000E+00  0.18823887803E+03  0.18823887805E+03  0.25500000000E-02 0.  1.
         -2   -1    0    0    0  501 -0.00000000000E+00 -0.00000000000E+00 -0.17122135363E+03  0.17122135364E+03  0.25500000000E-02 0. -1.
    5000001    1    1    2    0    0 -0.28033150039E+02 -0.54271257972E+02 -0.27228487050E+02  0.17803824716E+03  0.16500000000E+03 0.  0.
   -5000001    1    1    2    0    0  0.28033150039E+02  0.54271257972E+02  0.44246011453E+02  0.18142198453E+03  0.16500000000E+03 0.  0.
<mgrwt>
<rscale>  0 0.35905718E+03</rscale>
<asrwt>0</asrwt>
<pdfrwt beam="1">  1        2 0.26891268E-01 0.35905718E+03</pdfrwt>
<pdfrwt beam="2">  1       -2 0.24460193E-01 0.35905718E+03</pdfrwt>
<totfact> 0.29428018E+03</totfact>
</mgrwt>
</event>
<event>
 4    1  0.5323640E-005  0.4412282E+03  0.7818608E-02  0.1030371E+00
          2   -1    0    0  501    0  0.00000000000E+00  0.00000000000E+00  0.85570306113E+02  0.85570306151E+02  0.25500000000E-02 0.  1.
         -2   -1    0    0    0  501 -0.00000000000E+00 -0.00000000000E+00 -0.56877893197E+03  0.56877893198E+03  0.25500000000E-02 0. -1.
    5000001    1    1    2    0    0 -0.47271536269E+02  0.69611136887E+02 -0.41935174765E+03  0.45843341586E+03  0.16500000000E+03 0.  0.
   -5000001    1    1    2    0    0  0.47271536269E+02 -0.69611136887E+02 -0.63856878205E+02  0.19591582227E+03  0.16500000000E+03 0.  0.
<mgrwt>
<rscale>  0 0.44122823E+03</rscale>
<asrwt>0</asrwt>
<pdfrwt beam="1">  1        2 0.12224330E-01 0.44122823E+03</pdfrwt>
<pdfrwt beam="2">  1       -2 0.81254131E-01 0.44122823E+03</pdfrwt>
<totfact> 0.69233605E+02</totfact>
</mgrwt>
</event>
<event>
 4    1  0.5323640E-005  0.6524245E+03  0.7818608E-02  0.9802240E-01
          2   -1    0    0  501    0  0.00000000000E+00  0.00000000000E+00  0.33793329945E+04  0.33793329945E+04  0.25500000000E-02 0.  1.
         -2   -1    0    0    0  501 -0.00000000000E+00 -0.00000000000E+00 -0.31489770221E+02  0.31489770324E+02  0.25500000000E-02 0. -1.
    5000001    1    1    2    0    0 -0.11573046531E+03 -0.19950128707E+03  0.25168191645E+04  0.25327451532E+04  0.16500000000E+03 0.  0.
   -5000001    1    1    2    0    0  0.11573046531E+03  0.19950128707E+03  0.83102405974E+03  0.87807761161E+03  0.16500000000E+03 0.  0.
<mgrwt>
<rscale>  0 0.65242446E+03</rscale>
<asrwt>0</asrwt>
<pdfrwt beam="1">  1        2 0.48276211E+00 0.65242446E+03</pdfrwt>
<pdfrwt beam="2">  1       -2 0.44985362E-02 0.65242446E+03</pdfrwt>
<totfact> 0.37122116E+02</totfact>
</mgrwt>
</event>
<event>
 4    1  0.5323640E-005  0.4709099E+03  0.7818608E-02  0.1021664E+00
         -2   -1    0    0    0  501 -0.00000000000E+00  0.00000000000E+00  0.64960303385E+02  0.64960303435E+02  0.25500000000E-02 0. -1.
          2   -1    0    0  501    0  0.00000000000E+00 -0.00000000000E+00 -0.85342956000E+03  0.85342956000E+03  0.25500000000E-02 0.  1.
    5000001    1    1    2    0    0 -0.11179750268E+03  0.11584294536E+03 -0.30079012745E+03  0.37896961668E+03  0.16500000000E+03 0.  0.
   -5000001    1    1    2    0    0  0.11179750268E+03 -0.11584294536E+03 -0.48767912916E+03  0.53942024676E+03  0.16500000000E+03 0.  0.
<mgrwt>
<rscale>  0 0.47090994E+03</rscale>
<asrwt>0</asrwt>
<pdfrwt beam="1">  1        2 0.12191850E+00 0.47090994E+03</pdfrwt>
<pdfrwt beam="2">  1       -2 0.92800438E-02 0.47090994E+03</pdfrwt>
<totfact> 0.26990196E+03</totfact>
</mgrwt>
</event>
<event>
 4    1  0.5323640E-005  0.4393657E+03  0.7818608E-02  0.1030942E+00
         -2   -1    0    0    0  501 -0.00000000000E+00  0.00000000000E+00  0.14686952616E+03  0.14686952618E+03  0.25500000000E-02 0. -1.
          2   -1    0    0  501    0  0.00000000000E+00 -0.00000000000E+00 -0.32859473243E+03  0.32859473244E+03  0.25500000000E-02 0.  1.
    5000001    1    1    2    0    0 -0.91501012232E+02 -0.10724901795E+03 -0.53993379470E+02  0.22364049749E+03  0.16500000000E+03 0.  0.
   -5000001    1    1    2    0    0  0.91501012232E+02  0.10724901795E+03 -0.12773182680E+03  0.25182376113E+03  0.16500000000E+03 0.  0.
<mgrwt>
<rscale>  0 0.43936569E+03</rscale>
<asrwt>0</asrwt>
<pdfrwt beam="1">  1        2 0.46942104E-01 0.43936569E+03</pdfrwt>
<pdfrwt beam="2">  1       -2 0.20981361E-01 0.43936569E+03</pdfrwt>
<totfact> 0.20933339E+03</totfact>
</mgrwt>
</event>
<event>
 4    1  0.5323640E-005  0.5043415E+03  0.7818608E-02  0.1012652E+00
          2   -1    0    0  501    0  0.00000000000E+00  0.00000000000E+00  0.45476309241E+03  0.45476309242E+03  0.25500000000E-02 0.  1.
         -2   -1    0    0    0  501 -0.00000000000E+00 -0.00000000000E+00 -0.13983126040E+03  0.13983126042E+03  0.25500000000E-02 0. -1.
    5000001    1    1    2    0    0 -0.15707038111E+03 -0.56593029448E+02  0.26610375294E+03  0.35483810806E+03  0.16500000000E+03 0.  0.
   -5000001    1    1    2    0    0  0.15707038111E+03  0.56593029448E+02  0.48828079072E+02  0.23975624478E+03  0.16500000000E+03 0.  0.
<mgrwt>
<rscale>  0 0.50434154E+03</rscale>
<asrwt>0</asrwt>
<pdfrwt beam="1">  1        2 0.64966158E-01 0.50434154E+03</pdfrwt>
<pdfrwt beam="2">  1       -2 0.19975894E-01 0.50434154E+03</pdfrwt>
<totfact> 0.15949258E+03</totfact>
</mgrwt>
</event>
<event>
 4    1  0.5323640E-005  0.4635467E+03  0.7818608E-02  0.1023758E+00
          2   -1    0    0  501    0  0.00000000000E+00  0.00000000000E+00  0.30777590419E+04  0.30777590419E+04  0.25500000000E-02 0.  1.
         -2   -1    0    0    0  501 -0.00000000000E+00 -0.00000000000E+00 -0.17453892860E+02  0.17453893046E+02  0.25500000000E-02 0. -1.
    5000001    1    1    2    0    0 -0.92910981643E+02 -0.45721009205E+02  0.23686986013E+04  0.23766953791E+04  0.16500000000E+03 0.  0.
   -5000001    1    1    2    0    0  0.92910981643E+02  0.45721009205E+02  0.69160654766E+03  0.71851755578E+03  0.16500000000E+03 0.  0.
<mgrwt>
<rscale>  0 0.46354666E+03</rscale>
<asrwt>0</asrwt>
<pdfrwt beam="1">  1        2 0.43968024E+00 0.46354666E+03</pdfrwt>
<pdfrwt beam="2">  1       -2 0.24934111E-02 0.46354666E+03</pdfrwt>
<totfact> 0.13756072E+03</totfact>
</mgrwt>
</event>
<event>
 4    1  0.5323640E-005  0.8733392E+03  0.7818608E-02  0.9459536E-01
          2   -1    0    0  501    0  0.00000000000E+00  0.00000000000E+00  0.17057532007E+04  0.17057532007E+04  0.25500000000E-02 0.  1.
         -2   -1    0    0    0  501 -0.00000000000E+00 -0.00000000000E+00 -0.11178658805E+03  0.11178658808E+03  0.25500000000E-02 0. -1.
    5000001    1    1    2    0    0  0.38245150469E+03 -0.95626662303E+02  0.98361071000E+03  0.10724405069E+04  0.16500000000E+03 0.  0.
   -5000001    1    1    2    0    0 -0.38245150469E+03  0.95626662303E+02  0.61035590266E+03  0.74509928191E+03  0.16500000000E+03 0.  0.
<mgrwt>
<rscale>  0 0.87333918E+03</rscale>
<asrwt>0</asrwt>
<pdfrwt beam="1">  1        2 0.24367901E+00 0.87333918E+03</pdfrwt>
<pdfrwt beam="2">  1       -2 0.15969514E-01 0.87333918E+03</pdfrwt>
<totfact> 0.36108491E+02</totfact>
</mgrwt>
</event>
<event>
 4    1  0.5323640E-005  0.7917394E+03  0.7818608E-02  0.9572052E-01
         -2   -1    0    0    0  501 -0.00000000000E+00  0.00000000000E+00  0.13583642738E+03  0.13583642740E+03  0.25500000000E-02 0. -1.
          2   -1    0    0  501    0  0.00000000000E+00 -0.00000000000E+00 -0.11536877877E+04  0.11536877877E+04  0.25500000000E-02 0.  1.
    5000001    1    1    2    0    0  0.55218807932E+02 -0.32461199923E+03 -0.74531932963E+03  0.83135309582E+03  0.16500000000E+03 0.  0.
   -5000001    1    1    2    0    0 -0.55218807932E+02  0.32461199923E+03 -0.27253203068E+03  0.45817111928E+03  0.16500000000E+03 0.  0.
<mgrwt>
<rscale>  0 0.79173942E+03</rscale>
<asrwt>0</asrwt>
<pdfrwt beam="1">  1        2 0.16481254E+00 0.79173942E+03</pdfrwt>
<pdfrwt beam="2">  1       -2 0.19405205E-01 0.79173942E+03</pdfrwt>
<totfact> 0.51308636E+02</totfact>
</mgrwt>
</event>
<event>
 4    1  0.5323640E-005  0.5095987E+03  0.7818608E-02  0.1011303E+00
          2   -1    0    0  501    0  0.00000000000E+00  0.00000000000E+00  0.85598587049E+03  0.85598587050E+03  0.25500000000E-02 0. -1.
         -2   -1    0    0    0  501 -0.00000000000E+00 -0.00000000000E+00 -0.75845552046E+02  0.75845552089E+02  0.25500000000E-02 0.  1.
    5000001    1    1    2    0    0 -0.17411113674E+03  0.85688675615E+02  0.37843560118E+03  0.45617512131E+03  0.16500000000E+03 0.  0.
   -5000001    1    1    2    0    0  0.17411113674E+03 -0.85688675615E+02  0.40170471727E+03  0.47565630127E+03  0.16500000000E+03 0.  0.
<mgrwt>
<rscale>  0 0.50959875E+03</rscale>
<asrwt>0</asrwt>
<pdfrwt beam="1">  1        2 0.12228371E+00 0.50959875E+03</pdfrwt>
<pdfrwt beam="2">  1       -2 0.10835078E-01 0.50959875E+03</pdfrwt>
<totfact> 0.20942185E+03</totfact>
</mgrwt>
</event>
<event>
 4    1  0.5323640E-005  0.6386725E+03  0.7818608E-02  0.9828270E-01
         -2   -1    0    0    0  501 -0.00000000000E+00  0.00000000000E+00  0.54120480406E+02  0.54120480467E+02  0.25500000000E-02 0. -1.
          2   -1    0    0  501    0  0.00000000000E+00 -0.00000000000E+00 -0.18842336935E+04  0.18842336935E+04  0.25500000000E-02 0.  1.
    5000001    1    1    2    0    0 -0.34096706353E+02  0.24263289089E+03 -0.54686879068E+03  0.62154949871E+03  0.16500000000E+03 0.  0.
   -5000001    1    1    2    0    0  0.34096706353E+02 -0.24263289089E+03 -0.12832444224E+04  0.13168046753E+04  0.16500000000E+03 0.  0.
<mgrwt>
<rscale>  0 0.63867248E+03</rscale>
<asrwt>0</asrwt>
<pdfrwt beam="1">  1        2 0.26917620E+00 0.63867248E+03</pdfrwt>
<pdfrwt beam="2">  1       -2 0.77314984E-02 0.63867248E+03</pdfrwt>
<totfact> 0.97856905E+02</totfact>
</mgrwt>
</event>
<event>
 4    1  0.5323640E-005  0.4431849E+03  0.7818608E-02  0.1029774E+00
         -2   -1    0    0    0  501 -0.00000000000E+00  0.00000000000E+00  0.22088442431E+03  0.22088442432E+03  0.25500000000E-02 0. -1.
          2   -1    0    0  501    0  0.00000000000E+00 -0.00000000000E+00 -0.22230279207E+03  0.22230279208E+03  0.25500000000E-02 0.  1.
    5000001    1    1    2    0    0 -0.12872830599E+03 -0.66133011330E+02  0.29847024433E+02  0.22149581671E+03  0.16500000000E+03 0.  0.
   -5000001    1    1    2    0    0  0.12872830599E+03  0.66133011330E+02 -0.31265392191E+02  0.22169139970E+03  0.16500000000E+03 0.  0.
<mgrwt>
<rscale>  0 0.44318495E+03</rscale>
<asrwt>0</asrwt>
<pdfrwt beam="1">  1        2 0.31757542E-01 0.44318495E+03</pdfrwt>
<pdfrwt beam="2">  1       -2 0.31554918E-01 0.44318495E+03</pdfrwt>
<totfact> 0.15472059E+03</totfact>
</mgrwt>
</event>
<event>
 4    1  0.5323640E-005  0.1121379E+04  0.7818608E-02  0.9184602E-01
          2   -1    0    0  501    0  0.00000000000E+00  0.00000000000E+00  0.70729145048E+03  0.70729145048E+03  0.25500000000E-02 0.  1.
         -2   -1    0    0    0  501 -0.00000000000E+00 -0.00000000000E+00 -0.44447396295E+03  0.44447396296E+03  0.25500000000E-02 0. -1.
    5000001    1    1    2    0    0 -0.22801155314E+03  0.22328106867E+03 -0.31072532954E+03  0.47499361512E+03  0.16500000000E+03 0.  0.
   -5000001    1    1    2    0    0  0.22801155314E+03 -0.22328106867E+03  0.57354281706E+03  0.67677179832E+03  0.16500000000E+03 0.  0.
<mgrwt>
<rscale>  0 0.11213789E+04</rscale>
<asrwt>0</asrwt>
<pdfrwt beam="1">  1        2 0.10104164E+00 0.11213789E+04</pdfrwt>
<pdfrwt beam="2">  1       -2 0.63496280E-01 0.11213789E+04</pdfrwt>
<totfact> 0.10123248E+02</totfact>
</mgrwt>
</event>
<event>
 4    1  0.5323640E-005  0.1271915E+04  0.7818608E-02  0.9052138E-01
         -2   -1    0    0    0  501 -0.00000000000E+00  0.00000000000E+00  0.23059872541E+03  0.23059872542E+03  0.25500000000E-02 0. -1.
          2   -1    0    0  501    0  0.00000000000E+00 -0.00000000000E+00 -0.17538775731E+04  0.17538775731E+04  0.25500000000E-02 0.  1.
    5000001    1    1    2    0    0  0.22174348448E+03 -0.47883630313E+03 -0.12519643706E+04  0.13686103037E+04  0.16500000000E+03 0.  0.
   -5000001    1    1    2    0    0 -0.22174348448E+03  0.47883630313E+03 -0.27131447707E+03  0.61586599482E+03  0.16500000000E+03 0.  0.
<mgrwt>
<rscale>  0 0.12719150E+04</rscale>
<asrwt>0</asrwt>
<pdfrwt beam="1">  1        2 0.25055393E+00 0.12719150E+04</pdfrwt>
<pdfrwt beam="2">  1       -2 0.32942676E-01 0.12719150E+04</pdfrwt>
<totfact> 0.90791340E+01</totfact>
</mgrwt>
</event>
<event>
 4    1  0.5323640E-005  0.5932867E+03  0.7818608E-02  0.9919433E-01
          2   -1    0    0  501    0  0.00000000000E+00  0.00000000000E+00  0.35351963979E+03  0.35351963980E+03  0.25500000000E-02 0.  1.
         -2   -1    0    0    0  501 -0.00000000000E+00 -0.00000000000E+00 -0.24891766722E+03  0.24891766723E+03  0.25500000000E-02 0. -1.
    5000001    1    1    2    0    0 -0.49225355871E+02  0.23521170049E+03 -0.35436561842E+01  0.29152227567E+03  0.16500000000E+03 0.  0.
   -5000001    1    1    2    0    0  0.49225355871E+02 -0.23521170049E+03  0.10814562875E+03  0.31091503137E+03  0.16500000000E+03 0.  0.
<mgrwt>
<rscale>  0 0.59328672E+03</rscale>
<asrwt>0</asrwt>
<pdfrwt beam="1">  1        2 0.50502805E-01 0.59328672E+03</pdfrwt>
<pdfrwt beam="2">  1       -2 0.35559667E-01 0.59328672E+03</pdfrwt>
<totfact> 0.74146920E+02</totfact>
</mgrwt>
</event>
<event>
 4    1  0.5323640E-005  0.5079116E+03  0.7818608E-02  0.1011734E+00
          2   -1    0    0  501    0  0.00000000000E+00  0.00000000000E+00  0.28125560540E+03  0.28125560541E+03  0.25500000000E-02 0.  1.
         -2   -1    0    0    0  501 -0.00000000000E+00 -0.00000000000E+00 -0.22930585280E+03  0.22930585282E+03  0.25500000000E-02 0. -1.
    5000001    1    1    2    0    0 -0.17423424206E+03  0.83131755681E+02  0.25662530905E+02  0.25524894790E+03  0.16500000000E+03 0.  0.
   -5000001    1    1    2    0    0  0.17423424206E+03 -0.83131755681E+02  0.26287221693E+02  0.25531251033E+03  0.16500000000E+03 0.  0.
<mgrwt>
<rscale>  0 0.50791163E+03</rscale>
<asrwt>0</asrwt>
<pdfrwt beam="1">  1        2 0.40179372E-01 0.50791163E+03</pdfrwt>
<pdfrwt beam="2">  1       -2 0.32757979E-01 0.50791163E+03</pdfrwt>
<totfact> 0.11137943E+03</totfact>
</mgrwt>
</event>
<event>
 4    1  0.5323640E-005  0.4288760E+03  0.7818608E-02  0.1034216E+00
         -2   -1    0    0    0  501 -0.00000000000E+00  0.00000000000E+00  0.23296166556E+03  0.23296166558E+03  0.25500000000E-02 0. -1.
          2   -1    0    0  501    0  0.00000000000E+00 -0.00000000000E+00 -0.19738720355E+03  0.19738720357E+03  0.25500000000E-02 0.  1.
    5000001    1    1    2    0    0  0.89669663250E+02  0.56842674008E+02  0.10461134354E+03  0.22235168381E+03  0.16500000000E+03 0.  0.
   -5000001    1    1    2    0    0 -0.89669663250E+02 -0.56842674008E+02 -0.69036881528E+02  0.20799718533E+03  0.16500000000E+03 0.  0.
<mgrwt>
<rscale>  0 0.42887598E+03</rscale>
<asrwt>0</asrwt>
<pdfrwt beam="1">  1        2 0.28198172E-01 0.42887598E+03</pdfrwt>
<pdfrwt beam="2">  1       -2 0.33280238E-01 0.42887598E+03</pdfrwt>
<totfact> 0.15994552E+03</totfact>
</mgrwt>
</event>
<event>
 4    1  0.5323640E-005  0.8561917E+03  0.7818608E-02  0.9482064E-01
          2   -1    0    0  501    0  0.00000000000E+00  0.00000000000E+00  0.76541122447E+03  0.76541122448E+03  0.25500000000E-02 0.  1.
         -2   -1    0    0    0  501 -0.00000000000E+00 -0.00000000000E+00 -0.23943474747E+03  0.23943474748E+03  0.25500000000E-02 0. -1.
    5000001    1    1    2    0    0 -0.42369548290E+02 -0.37016574833E+03  0.41701110847E+03  0.58304470193E+03  0.16500000000E+03 0.  0.
   -5000001    1    1    2    0    0  0.42369548290E+02  0.37016574833E+03  0.10896536853E+03  0.42180127003E+03  0.16500000000E+03 0.  0.
<mgrwt>
<rscale>  0 0.85619167E+03</rscale>
<asrwt>0</asrwt>
<pdfrwt beam="1">  1        2 0.10934446E+00 0.85619167E+03</pdfrwt>
<pdfrwt beam="2">  1       -2 0.34204964E-01 0.85619167E+03</pdfrwt>
<totfact> 0.32264637E+02</totfact>
</mgrwt>
</event>
<event>
 4    1  0.5323640E-005  0.4371544E+03  0.7818608E-02  0.1031623E+00
          2   -1    0    0  501    0  0.00000000000E+00  0.00000000000E+00  0.46815049996E+04  0.46815049996E+04  0.25500000000E-02 0.  1.
         -2   -1    0    0    0  501 -0.00000000000E+00 -0.00000000000E+00 -0.10205262550E+02  0.10205262869E+02  0.25500000000E-02 0. -1.
    5000001    1    1    2    0    0 -0.68440970985E+02 -0.12367927512E+03  0.20793594648E+04  0.20906796774E+04  0.16500000000E+03 0.  0.
   -5000001    1    1    2    0    0  0.68440970985E+02  0.12367927512E+03  0.25919402722E+04  0.26010305851E+04  0.16500000000E+03 0.  0.
<mgrwt>
<rscale>  0 0.43715438E+03</rscale>
<asrwt>0</asrwt>
<pdfrwt beam="1">  1        2 0.66878696E+00 0.43715438E+03</pdfrwt>
<pdfrwt beam="2">  1       -2 0.14578935E-02 0.43715438E+03</pdfrwt>
<totfact> 0.27388709E+02</totfact>
</mgrwt>
</event>
<event>
 4    1  0.5323640E-005  0.5303451E+03  0.7818608E-02  0.1006148E+00
          2   -1    0    0  501    0  0.00000000000E+00  0.00000000000E+00  0.37549501339E+02  0.37549501425E+02  0.25500000000E-02 0.  1.
         -2   -1    0    0    0  501 -0.00000000000E+00 -0.00000000000E+00 -0.18726342802E+04  0.18726342802E+04  0.25500000000E-02 0. -1.
    5000001    1    1    2    0    0 -0.10696161991E+03 -0.46978520991E+02 -0.15355771194E+04  0.15488285442E+04  0.16500000000E+03 0.  0.
   -5000001    1    1    2    0    0  0.10696161991E+03  0.46978520991E+02 -0.29950765944E+03  0.36135523745E+03  0.16500000000E+03 0.  0.
<mgrwt>
<rscale>  0 0.53034511E+03</rscale>
<asrwt>0</asrwt>
<pdfrwt beam="1">  1        2 0.53642157E-02 0.53034511E+03</pdfrwt>
<pdfrwt beam="2">  1       -2 0.26751912E+00 0.53034511E+03</pdfrwt>
<totfact> 0.79282956E+01</totfact>
</mgrwt>
</event>
<event>
 4    1  0.5323640E-005  0.8945031E+03  0.7818608E-02  0.9432479E-01
          2   -1    0    0  501    0  0.00000000000E+00  0.00000000000E+00  0.79836710038E+03  0.79836710039E+03  0.25500000000E-02 0.  1.
         -2   -1    0    0    0  501 -0.00000000000E+00 -0.00000000000E+00 -0.25055386787E+03  0.25055386789E+03  0.25500000000E-02 0. -1.
    5000001    1    1    2    0    0 -0.38211160301E+03  0.94630650363E+02  0.11726185894E+03  0.44265063053E+03  0.16500000000E+03 0.  0.
   -5000001    1    1    2    0    0  0.38211160301E+03 -0.94630650363E+02  0.43055137357E+03  0.60627033774E+03  0.16500000000E+03 0.  0.
<mgrwt>
<rscale>  0 0.89450314E+03</rscale>
<asrwt>0</asrwt>
<pdfrwt beam="1">  1        2 0.11405244E+00 0.89450314E+03</pdfrwt>
<pdfrwt beam="2">  1       -2 0.35793410E-01 0.89450314E+03</pdfrwt>
<totfact> 0.27989162E+02</totfact>
</mgrwt>
</event>
<event>
 4    1  0.5323640E-005  0.7707232E+03  0.7818608E-02  0.9603388E-01
         -2   -1    0    0    0  501 -0.00000000000E+00  0.00000000000E+00  0.26262118461E+03  0.26262118462E+03  0.25500000000E-02 0. -1.
          2   -1    0    0  501    0  0.00000000000E+00 -0.00000000000E+00 -0.56546686425E+03  0.56546686426E+03  0.25500000000E-02 0.  1.
    5000001    1    1    2    0    0  0.32822744546E+03  0.10155192354E+03 -0.90335775783E+02  0.39170346120E+03  0.16500000000E+03 0.  0.
   -5000001    1    1    2    0    0 -0.32822744546E+03 -0.10155192354E+03 -0.21250990386E+03  0.43638458768E+03  0.16500000000E+03 0.  0.
<mgrwt>
<rscale>  0 0.77072324E+03</rscale>
<asrwt>0</asrwt>
<pdfrwt beam="1">  1        2 0.80780980E-01 0.77072324E+03</pdfrwt>
<pdfrwt beam="2">  1       -2 0.37517312E-01 0.77072324E+03</pdfrwt>
<totfact> 0.39195370E+02</totfact>
</mgrwt>
</event>
<event>
 4    1  0.5323640E-005  0.4623385E+03  0.7818608E-02  0.1024105E+00
          2   -1    0    0  501    0  0.00000000000E+00  0.00000000000E+00  0.72639922537E+03  0.72639922537E+03  0.25500000000E-02 0.  1.
         -2   -1    0    0    0  501 -0.00000000000E+00 -0.00000000000E+00 -0.73567292615E+02  0.73567292659E+02  0.25500000000E-02 0. -1.
    5000001    1    1    2    0    0 -0.15409858345E+03 -0.49641601238E+02  0.32968171398E+03  0.40264835095E+03  0.16500000000E+03 0.  0.
   -5000001    1    1    2    0    0  0.15409858345E+03  0.49641601238E+02  0.32315021878E+03  0.39731816708E+03  0.16500000000E+03 0.  0.
<mgrwt>
<rscale>  0 0.46233851E+03</rscale>
<asrwt>0</asrwt>
<pdfrwt beam="1">  1        2 0.10377132E+00 0.46233851E+03</pdfrwt>
<pdfrwt beam="2">  1       -2 0.10509613E-01 0.46233851E+03</pdfrwt>
<totfact> 0.27059842E+03</totfact>
</mgrwt>
</event>
<event>
 4    1  0.5323640E-005  0.6280532E+03  0.7818608E-02  0.9848855E-01
          2   -1    0    0  501    0  0.00000000000E+00  0.00000000000E+00  0.56542289544E+03  0.56542289545E+03  0.25500000000E-02 0.  1.
         -2   -1    0    0    0  501 -0.00000000000E+00 -0.00000000000E+00 -0.17440521294E+03  0.17440521295E+03  0.25500000000E-02 0. -1.
    5000001    1    1    2    0    0  0.21130224814E+03 -0.15657632462E+03  0.25104755697E+03  0.39926765629E+03  0.16500000000E+03 0.  0.
   -5000001    1    1    2    0    0 -0.21130224814E+03  0.15657632462E+03  0.13997012553E+03  0.34056045211E+03  0.16500000000E+03 0.  0.
<mgrwt>
<rscale>  0 0.62805318E+03</rscale>
<asrwt>0</asrwt>
<pdfrwt beam="1">  1        2 0.80774698E-01 0.62805318E+03</pdfrwt>
<pdfrwt beam="2">  1       -2 0.24915031E-01 0.62805318E+03</pdfrwt>
<totfact> 0.84196829E+02</totfact>
</mgrwt>
</event>
<event>
 4    1  0.5323640E-005  0.5349806E+03  0.7818608E-02  0.1005031E+00
         -2   -1    0    0    0  501 -0.00000000000E+00  0.00000000000E+00  0.51398887573E+02  0.51398887636E+02  0.25500000000E-02 0. -1.
          2   -1    0    0  501    0  0.00000000000E+00 -0.00000000000E+00 -0.13920739979E+04  0.13920739979E+04  0.25500000000E-02 0.  1.
    5000001    1    1    2    0    0 -0.68978923121E+02  0.19717499913E+03 -0.74121201447E+03  0.78756353554E+03  0.16500000000E+03 0.  0.
   -5000001    1    1    2    0    0  0.68978923121E+02 -0.19717499913E+03 -0.59946309584E+03  0.65590934998E+03  0.16500000000E+03 0.  0.
<mgrwt>
<rscale>  0 0.53498058E+03</rscale>
<asrwt>0</asrwt>
<pdfrwt beam="1">  1        2 0.19886769E+00 0.53498058E+03</pdfrwt>
<pdfrwt beam="2">  1       -2 0.73426991E-02 0.53498058E+03</pdfrwt>
<totfact> 0.19074886E+03</totfact>
</mgrwt>
</event>
<event>
 4    1  0.5323640E-005  0.4178779E+03  0.7818608E-02  0.1037759E+00
         -2   -1    0    0    0  501 -0.00000000000E+00  0.00000000000E+00  0.97056819845E+02  0.97056819878E+02  0.25500000000E-02 0.  1.
          2   -1    0    0  501    0  0.00000000000E+00 -0.00000000000E+00 -0.44979306744E+03  0.44979306744E+03  0.25500000000E-02 0. -1.
    5000001    1    1    2    0    0 -0.67708413204E+02 -0.10684292324E+03 -0.14921132592E+03  0.25590791165E+03  0.16500000000E+03 0.  0.
   -5000001    1    1    2    0    0  0.67708413204E+02  0.10684292324E+03 -0.20352492167E+03  0.29094197567E+03  0.16500000000E+03 0.  0.
<mgrwt>
<rscale>  0 0.41787790E+03</rscale>
<asrwt>0</asrwt>
<pdfrwt beam="1">  1        2 0.64256151E-01 0.41787790E+03</pdfrwt>
<pdfrwt beam="2">  1       -2 0.13865260E-01 0.41787790E+03</pdfrwt>
<totfact> 0.29912532E+03</totfact>
</mgrwt>
</event>
<event>
 4    1  0.5323640E-005  0.5524783E+03  0.7818608E-02  0.1000922E+00
         -2   -1    0    0    0  501 -0.00000000000E+00  0.00000000000E+00  0.42266197263E+02  0.42266197340E+02  0.25500000000E-02 0. -1.
          2   -1    0    0  501    0  0.00000000000E+00 -0.00000000000E+00 -0.18054158451E+04  0.18054158451E+04  0.25500000000E-02 0.  1.
    5000001    1    1    2    0    0  0.17871327586E+03 -0.11998085875E+03 -0.70622035153E+03  0.75650910527E+03  0.16500000000E+03 0.  0.
   -5000001    1    1    2    0    0 -0.17871327586E+03  0.11998085875E+03 -0.10569292963E+04  0.10911729372E+04  0.16500000000E+03 0.  0.
<mgrwt>
<rscale>  0 0.55247828E+03</rscale>
<asrwt>0</asrwt>
<pdfrwt beam="1">  1        2 0.25791650E+00 0.55247828E+03</pdfrwt>
<pdfrwt beam="2">  1       -2 0.60380293E-02 0.55247828E+03</pdfrwt>
<totfact> 0.15903453E+03</totfact>
</mgrwt>
</event>
<event>
 4    1  0.5323640E-005  0.3875327E+03  0.7818608E-02  0.1048184E+00
         -2   -1    0    0    0  501 -0.00000000000E+00  0.00000000000E+00  0.16668168716E+02  0.16668168911E+02  0.25500000000E-02 0. -1.
          2   -1    0    0  501    0  0.00000000000E+00 -0.00000000000E+00 -0.22525213168E+04  0.22525213168E+04  0.25500000000E-02 0.  1.
    5000001    1    1    2    0    0 -0.68147506971E+02  0.75125524424E+02 -0.10845562863E+04  0.11017146933E+04  0.16500000000E+03 0.  0.
   -5000001    1    1    2    0    0  0.68147506971E+02 -0.75125524424E+02 -0.11512968617E+04  0.11674747924E+04  0.16500000000E+03 0.  0.
<mgrwt>
<rscale>  0 0.38753274E+03</rscale>
<asrwt>0</asrwt>
<pdfrwt beam="1">  1        2 0.32178856E+00 0.38753274E+03</pdfrwt>
<pdfrwt beam="2">  1       -2 0.23811684E-02 0.38753274E+03</pdfrwt>
<totfact> 0.39586934E+03</totfact>
</mgrwt>
</event>
<event>
 4    1  0.5323640E-005  0.4822606E+03  0.7818608E-02  0.1018516E+00
         -2   -1    0    0    0  501 -0.00000000000E+00  0.00000000000E+00  0.71025163702E+03  0.71025163703E+03  0.25500000000E-02 0. -1.
          2   -1    0    0  501    0  0.00000000000E+00 -0.00000000000E+00 -0.81863686951E+02  0.81863686991E+02  0.25500000000E-02 0.  1.
    5000001    1    1    2    0    0 -0.79181048419E+01 -0.72212067710E+02  0.51180083031E+02  0.18740779068E+03  0.16500000000E+03 0.  0.
   -5000001    1    1    2    0    0  0.79181048419E+01  0.72212067710E+02  0.57720786704E+03  0.60470753334E+03  0.16500000000E+03 0.  0.
<mgrwt>
<rscale>  0 0.48226058E+03</rscale>
<asrwt>0</asrwt>
<pdfrwt beam="1">  1        2 0.11694813E-01 0.48226058E+03</pdfrwt>
<pdfrwt beam="2">  1       -2 0.10146452E+00 0.48226058E+03</pdfrwt>
<totfact> 0.43946969E+02</totfact>
</mgrwt>
</event>
<event>
 4    1  0.5323640E-005  0.6718406E+03  0.7818608E-02  0.9766638E-01
         -2   -1    0    0    0  501 -0.00000000000E+00  0.00000000000E+00  0.15522854311E+04  0.15522854311E+04  0.25500000000E-02 0. -1.
          2   -1    0    0  501    0  0.00000000000E+00 -0.00000000000E+00 -0.72694399157E+02  0.72694399202E+02  0.25500000000E-02 0.  1.
    5000001    1    1    2    0    0  0.17166683360E+03  0.13037659491E+02  0.13120514469E+04  0.13335454554E+04  0.16500000000E+03 0.  0.
   -5000001    1    1    2    0    0 -0.17166683360E+03 -0.13037659491E+02  0.16753958507E+03  0.29143437493E+03  0.16500000000E+03 0.  0.
<mgrwt>
<rscale>  0 0.67184063E+03</rscale>
<asrwt>0</asrwt>
<pdfrwt beam="1">  1        2 0.10384914E-01 0.67184063E+03</pdfrwt>
<pdfrwt beam="2">  1       -2 0.22175505E+00 0.67184063E+03</pdfrwt>
<totfact> 0.62674746E+01</totfact>
</mgrwt>
</event>
<event>
 4    1  0.5323640E-005  0.2529763E+04  0.7818608E-02  0.8392459E-01
         -2   -1    0    0    0  501 -0.00000000000E+00  0.00000000000E+00  0.11209625437E+04  0.11209625437E+04  0.25500000000E-02 0. -1.
          2   -1    0    0  501    0  0.00000000000E+00 -0.00000000000E+00 -0.14272777072E+04  0.14272777072E+04  0.25500000000E-02 0.  1.
    5000001    1    1    2    0    0 -0.48280876730E+03  0.11096007594E+04  0.17846077230E+03  0.12342574279E+04  0.16500000000E+03 0.  0.
   -5000001    1    1    2    0    0  0.48280876730E+03 -0.11096007594E+04 -0.48477593577E+03  0.13139828229E+04  0.16500000000E+03 0.  0.
<mgrwt>
<rscale>  0 0.25297627E+04</rscale>
<asrwt>0</asrwt>
<pdfrwt beam="1">  1        2 0.20389682E+00 0.25297627E+04</pdfrwt>
<pdfrwt beam="2">  1       -2 0.16013751E+00 0.25297627E+04</pdfrwt>
<totfact> 0.35978206E+00</totfact>
</mgrwt>
</event>
<event>
 4    1  0.5323640E-005  0.1163502E+04  0.7818608E-02  0.9145417E-01
          2   -1    0    0  501    0  0.00000000000E+00  0.00000000000E+00  0.27070696537E+04  0.27070696537E+04  0.25500000000E-02 0.  1.
         -2   -1    0    0    0  501 -0.00000000000E+00 -0.00000000000E+00 -0.12501856732E+03  0.12501856735E+03  0.25500000000E-02 0. -1.
    5000001    1    1    2    0    0  0.42542209731E+03  0.25044883963E+03  0.65862397037E+03  0.83947550083E+03  0.16500000000E+03 0.  0.
   -5000001    1    1    2    0    0 -0.42542209731E+03 -0.25044883963E+03  0.19234271160E+04  0.19926127203E+04  0.16500000000E+03 0.  0.
<mgrwt>
<rscale>  0 0.11635016E+04</rscale>
<asrwt>0</asrwt>
<pdfrwt beam="1">  1        2 0.38672421E+00 0.11635016E+04</pdfrwt>
<pdfrwt beam="2">  1       -2 0.17859796E-01 0.11635016E+04</pdfrwt>
<totfact> 0.88751264E+01</totfact>
</mgrwt>
</event>
<event>
 4    1  0.5323640E-005  0.3846977E+03  0.7818608E-02  0.1049211E+00
          2   -1    0    0  501    0  0.00000000000E+00  0.00000000000E+00  0.20183030759E+04  0.20183030760E+04  0.25500000000E-02 0. -1.
         -2   -1    0    0    0  501 -0.00000000000E+00 -0.00000000000E+00 -0.18331276691E+02  0.18331276868E+02  0.25500000000E-02 0.  1.
    5000001    1    1    2    0    0 -0.47950450723E+02 -0.74777468444E+02  0.77030682932E+03  0.79277268293E+03  0.16500000000E+03 0.  0.
   -5000001    1    1    2    0    0  0.47950450723E+02  0.74777468444E+02  0.12296649699E+04  0.12438616699E+04  0.16500000000E+03 0.  0.
<mgrwt>
<rscale>  0 0.38469766E+03</rscale>
<asrwt>0</asrwt>
<pdfrwt beam="1">  1        2 0.28832916E+00 0.38469766E+03</pdfrwt>
<pdfrwt beam="2">  1       -2 0.26187525E-02 0.38469766E+03</pdfrwt>
<totfact> 0.44852123E+03</totfact>
</mgrwt>
</event>
<event>
 4    1  0.5323640E-005  0.6386640E+03  0.7818608E-02  0.9828286E-01
         -2   -1    0    0    0  501 -0.00000000000E+00  0.00000000000E+00  0.93483652328E+02  0.93483652363E+02  0.25500000000E-02 0. -1.
          2   -1    0    0  501    0  0.00000000000E+00 -0.00000000000E+00 -0.10908103837E+04  0.10908103837E+04  0.25500000000E-02 0.  1.
    5000001    1    1    2    0    0  0.25712103802E+03  0.73784077755E+02 -0.39388763007E+03  0.50391247597E+03  0.16500000000E+03 0.  0.
   -5000001    1    1    2    0    0 -0.25712103802E+03 -0.73784077755E+02 -0.60343910129E+03  0.68038156007E+03  0.16500000000E+03 0.  0.
<mgrwt>
<rscale>  0 0.63866404E+03</rscale>
<asrwt>0</asrwt>
<pdfrwt beam="1">  1        2 0.15583005E+00 0.63866404E+03</pdfrwt>
<pdfrwt beam="2">  1       -2 0.13354808E-01 0.63866404E+03</pdfrwt>
<totfact> 0.10602118E+03</totfact>
</mgrwt>
</event>
<event>
 4    1  0.5323640E-005  0.5499320E+03  0.7818608E-02  0.1001510E+00
         -2   -1    0    0    0  501 -0.00000000000E+00  0.00000000000E+00  0.11414957516E+03  0.11414957519E+03  0.25500000000E-02 0. -1.
          2   -1    0    0  501    0  0.00000000000E+00 -0.00000000000E+00 -0.66234424915E+03  0.66234424916E+03  0.25500000000E-02 0.  1.
    5000001    1    1    2    0    0  0.12988183399E+02 -0.17391614426E+03 -0.46335445132E+03  0.52186000585E+03  0.16500000000E+03 0.  0.
   -5000001    1    1    2    0    0 -0.12988183399E+02  0.17391614426E+03 -0.84840222668E+02  0.25463381850E+03  0.16500000000E+03 0.  0.
<mgrwt>
<rscale>  0 0.54993205E+03</rscale>
<asrwt>0</asrwt>
<pdfrwt beam="1">  1        2 0.94620605E-01 0.54993205E+03</pdfrwt>
<pdfrwt beam="2">  1       -2 0.16307082E-01 0.54993205E+03</pdfrwt>
<totfact> 0.14637257E+03</totfact>
</mgrwt>
</event>
<event>
 4    1  0.5323640E-005  0.3987773E+03  0.7818608E-02  0.1044204E+00
          2   -1    0    0  501    0  0.00000000000E+00  0.00000000000E+00  0.16427852180E+03  0.16427852182E+03  0.25500000000E-02 0.  1.
         -2   -1    0    0    0  501 -0.00000000000E+00 -0.00000000000E+00 -0.24200261280E+03  0.24200261281E+03  0.25500000000E-02 0. -1.
    5000001    1    1    2    0    0  0.15033751480E+02  0.11064028441E+03 -0.30740514165E+02  0.20158686820E+03  0.16500000000E+03 0.  0.
   -5000001    1    1    2    0    0 -0.15033751480E+02 -0.11064028441E+03 -0.46983576829E+02  0.20469426643E+03  0.16500000000E+03 0.  0.
<mgrwt>
<rscale>  0 0.39877729E+03</rscale>
<asrwt>0</asrwt>
<pdfrwt beam="1">  1        2 0.23468360E-01 0.39877729E+03</pdfrwt>
<pdfrwt beam="2">  1       -2 0.34571802E-01 0.39877729E+03</pdfrwt>
<totfact> 0.18308743E+03</totfact>
</mgrwt>
</event>
<event>
 4    1  0.5323640E-005  0.4202423E+03  0.7818608E-02  0.1036987E+00
          2   -1    0    0  501    0  0.00000000000E+00  0.00000000000E+00  0.24329664283E+04  0.24329664283E+04  0.25500000000E-02 0.  1.
         -2   -1    0    0    0  501 -0.00000000000E+00 -0.00000000000E+00 -0.18146944337E+02  0.18146944516E+02  0.25500000000E-02 0. -1.
    5000001    1    1    2    0    0 -0.14346813917E+02  0.41595370132E+02  0.49330327076E+03  0.52202406346E+03  0.16500000000E+03 0.  0.
   -5000001    1    1    2    0    0  0.14346813917E+02 -0.41595370132E+02  0.19215162132E+04  0.19290893094E+04  0.16500000000E+03 0.  0.
<mgrwt>
<rscale>  0 0.42024234E+03</rscale>
<asrwt>0</asrwt>
<pdfrwt beam="1">  1        2 0.34756594E+00 0.42024234E+03</pdfrwt>
<pdfrwt beam="2">  1       -2 0.25924258E-02 0.42024234E+03</pdfrwt>
<totfact> 0.28278167E+03</totfact>
</mgrwt>
</event>
<event>
 4    1  0.5323640E-005  0.4984089E+03  0.7818608E-02  0.1014195E+00
         -2   -1    0    0    0  501 -0.00000000000E+00  0.00000000000E+00  0.52423705970E+02  0.52423706032E+02  0.25500000000E-02 0. -1.
          2   -1    0    0  501    0  0.00000000000E+00 -0.00000000000E+00 -0.11846330835E+04  0.11846330835E+04  0.25500000000E-02 0.  1.
    5000001    1    1    2    0    0  0.13431092510E+03  0.10660708512E+03 -0.38248006811E+03  0.45046697737E+03  0.16500000000E+03 0.  0.
   -5000001    1    1    2    0    0 -0.13431092510E+03 -0.10660708512E+03 -0.74972930946E+03  0.78658981221E+03  0.16500000000E+03 0.  0.
<mgrwt>
<rscale>  0 0.49840889E+03</rscale>
<asrwt>0</asrwt>
<pdfrwt beam="1">  1        2 0.16923328E+00 0.49840889E+03</pdfrwt>
<pdfrwt beam="2">  1       -2 0.74891016E-02 0.49840889E+03</pdfrwt>
<totfact> 0.23979766E+03</totfact>
</mgrwt>
</event>
<event>
 4    1  0.5323640E-005  0.4284172E+03  0.7818608E-02  0.1034361E+00
         -2   -1    0    0    0  501 -0.00000000000E+00  0.00000000000E+00  0.70678324679E+02  0.70678324725E+02  0.25500000000E-02 0. -1.
          2   -1    0    0  501    0  0.00000000000E+00 -0.00000000000E+00 -0.64921340257E+03  0.64921340257E+03  0.25500000000E-02 0.  1.
    5000001    1    1    2    0    0 -0.10068176113E+03 -0.36939034285E+02 -0.43144367278E+03  0.47420454664E+03  0.16500000000E+03 0.  0.
   -5000001    1    1    2    0    0  0.10068176113E+03  0.36939034285E+02 -0.14709140511E+03  0.24568718065E+03  0.16500000000E+03 0.  0.
<mgrwt>
<rscale>  0 0.42841716E+03</rscale>
<asrwt>0</asrwt>
<pdfrwt beam="1">  1        2 0.92744768E-01 0.42841716E+03</pdfrwt>
<pdfrwt beam="2">  1       -2 0.10096904E-01 0.42841716E+03</pdfrwt>
<totfact> 0.33023025E+03</totfact>
</mgrwt>
</event>
<event>
 4    1  0.5323640E-005  0.6379391E+03  0.7818608E-02  0.9829678E-01
          2   -1    0    0  501    0  0.00000000000E+00  0.00000000000E+00  0.11916224415E+04  0.11916224415E+04  0.25500000000E-02 0.  1.
         -2   -1    0    0    0  501 -0.00000000000E+00 -0.00000000000E+00 -0.85380703344E+02  0.85380703382E+02  0.25500000000E-02 0. -1.
    5000001    1    1    2    0    0 -0.24019311792E+03 -0.12962507475E+03  0.56233078882E+03  0.64647993778E+03  0.16500000000E+03 0.  0.
   -5000001    1    1    2    0    0  0.24019311792E+03  0.12962507475E+03  0.54391094938E+03  0.63052320714E+03  0.16500000000E+03 0.  0.
<mgrwt>
<rscale>  0 0.63793906E+03</rscale>
<asrwt>0</asrwt>
<pdfrwt beam="1">  1        2 0.17023176E+00 0.63793906E+03</pdfrwt>
<pdfrwt beam="2">  1       -2 0.12197245E-01 0.63793906E+03</pdfrwt>
<totfact> 0.10785502E+03</totfact>
</mgrwt>
</event>
<event>
 4    1  0.5323640E-005  0.4915082E+03  0.7818608E-02  0.1016019E+00
          2   -1    0    0  501    0  0.00000000000E+00  0.00000000000E+00  0.16267970720E+04  0.16267970720E+04  0.25500000000E-02 0.  1.
         -2   -1    0    0    0  501 -0.00000000000E+00 -0.00000000000E+00 -0.37125149704E+02  0.37125149792E+02  0.25500000000E-02 0. -1.
    5000001    1    1    2    0    0 -0.12555165354E+03  0.11756921461E+03  0.99751426002E+03  0.10255951623E+04  0.16500000000E+03 0.  0.
   -5000001    1    1    2    0    0  0.12555165354E+03 -0.11756921461E+03  0.59215766232E+03  0.63832705957E+03  0.16500000000E+03 0.  0.
<mgrwt>
<rscale>  0 0.49150823E+03</rscale>
<asrwt>0</asrwt>
<pdfrwt beam="1">  1        2 0.23239947E+00 0.49150823E+03</pdfrwt>
<pdfrwt beam="2">  1       -2 0.53035953E-02 0.49150823E+03</pdfrwt>
<totfact> 0.24005280E+03</totfact>
</mgrwt>
</event>
<event>
 4    1  0.5323640E-005  0.4395176E+03  0.7818608E-02  0.1030895E+00
         -2   -1    0    0    0  501 -0.00000000000E+00  0.00000000000E+00  0.68365107298E+02  0.68365107345E+02  0.25500000000E-02 0. -1.
          2   -1    0    0  501    0  0.00000000000E+00 -0.00000000000E+00 -0.70641181212E+03  0.70641181212E+03  0.25500000000E-02 0.  1.
    5000001    1    1    2    0    0 -0.57104392846E+02 -0.13281023962E+03 -0.29607674021E+03  0.36849139410E+03  0.16500000000E+03 0.  0.
   -5000001    1    1    2    0    0  0.57104392846E+02  0.13281023962E+03 -0.34196996461E+03  0.40628552537E+03  0.16500000000E+03 0.  0.
<mgrwt>
<rscale>  0 0.43951755E+03</rscale>
<asrwt>0</asrwt>
<pdfrwt beam="1">  1        2 0.10091597E+00 0.43951755E+03</pdfrwt>
<pdfrwt beam="2">  1       -2 0.97664443E-02 0.43951755E+03</pdfrwt>
<totfact> 0.31494535E+03</totfact>
</mgrwt>
</event>
<event>
 4    1  0.5323640E-005  0.4306969E+03  0.7818608E-02  0.1033640E+00
          2   -1    0    0  501    0  0.00000000000E+00  0.00000000000E+00  0.15784954158E+03  0.15784954160E+03  0.25500000000E-02 0.  1.
         -2   -1    0    0    0  501 -0.00000000000E+00 -0.00000000000E+00 -0.29379215022E+03  0.29379215023E+03  0.25500000000E-02 0. -1.
    5000001    1    1    2    0    0  0.11635582017E+03 -0.71844566604E+02 -0.90207146600E+02  0.23251375859E+03  0.16500000000E+03 0.  0.
   -5000001    1    1    2    0    0 -0.11635582017E+03  0.71844566604E+02 -0.45735462039E+02  0.21912793324E+03  0.16500000000E+03 0.  0.
<mgrwt>
<rscale>  0 0.43069691E+03</rscale>
<asrwt>0</asrwt>
<pdfrwt beam="1">  1        2 0.22549934E-01 0.43069691E+03</pdfrwt>
<pdfrwt beam="2">  1       -2 0.41970307E-01 0.43069691E+03</pdfrwt>
<totfact> 0.13241611E+03</totfact>
</mgrwt>
</event>
<event>
 4    1  0.5323640E-005  0.4351725E+03  0.7818608E-02  0.1032238E+00
         -2   -1    0    0    0  501 -0.00000000000E+00  0.00000000000E+00  0.10527906845E+03  0.10527906848E+03  0.25500000000E-02 0. -1.
          2   -1    0    0  501    0  0.00000000000E+00 -0.00000000000E+00 -0.44969780175E+03  0.44969780176E+03  0.25500000000E-02 0.  1.
    5000001    1    1    2    0    0  0.11451506986E+03  0.51886907059E+02 -0.88457630550E+02  0.22551209447E+03  0.16500000000E+03 0.  0.
   -5000001    1    1    2    0    0 -0.11451506986E+03 -0.51886907059E+02 -0.25596110276E+03  0.32946477577E+03  0.16500000000E+03 0.  0.
<mgrwt>
<rscale>  0 0.43517245E+03</rscale>
<asrwt>0</asrwt>
<pdfrwt beam="1">  1        2 0.64242542E-01 0.43517245E+03</pdfrwt>
<pdfrwt beam="2">  1       -2 0.15039867E-01 0.43517245E+03</pdfrwt>
<totfact> 0.26147707E+03</totfact>
</mgrwt>
</event>
<event>
 4    1  0.5323640E-005  0.6293039E+03  0.7818608E-02  0.9846408E-01
         -2   -1    0    0    0  501 -0.00000000000E+00  0.00000000000E+00  0.42425153011E+02  0.42425153088E+02  0.25500000000E-02 0. -1.
          2   -1    0    0  501    0  0.00000000000E+00 -0.00000000000E+00 -0.23336588931E+04  0.23336588931E+04  0.25500000000E-02 0.  1.
    5000001    1    1    2    0    0 -0.21211368418E+03  0.15057234660E+03 -0.90336331044E+03  0.95443937326E+03  0.16500000000E+03 0.  0.
   -5000001    1    1    2    0    0  0.21211368418E+03 -0.15057234660E+03 -0.13878704297E+04  0.14216446730E+04  0.16500000000E+03 0.  0.
<mgrwt>
<rscale>  0 0.62930386E+03</rscale>
<asrwt>0</asrwt>
<pdfrwt beam="1">  1        2 0.33337976E+00 0.62930386E+03</pdfrwt>
<pdfrwt beam="2">  1       -2 0.60607376E-02 0.62930386E+03</pdfrwt>
<totfact> 0.85362507E+02</totfact>
</mgrwt>
</event>
<event>
 4    1  0.5323640E-005  0.5932690E+03  0.7818608E-02  0.9919470E-01
         -2   -1    0    0    0  501 -0.00000000000E+00  0.00000000000E+00  0.10178360965E+03  0.10178360968E+03  0.25500000000E-02 0. -1.
          2   -1    0    0  501    0  0.00000000000E+00 -0.00000000000E+00 -0.86450087755E+03  0.86450087756E+03  0.25500000000E-02 0.  1.
    5000001    1    1    2    0    0  0.13490613327E+03 -0.20502067948E+03 -0.34372522203E+03  0.45343706517E+03  0.16500000000E+03 0.  0.
   -5000001    1    1    2    0    0 -0.13490613327E+03  0.20502067948E+03 -0.41899204588E+03  0.51284742207E+03  0.16500000000E+03 0.  0.
<mgrwt>
<rscale>  0 0.59326898E+03</rscale>
<asrwt>0</asrwt>
<pdfrwt beam="1">  1        2 0.12350012E+00 0.59326898E+03</pdfrwt>
<pdfrwt beam="2">  1       -2 0.14540516E-01 0.59326898E+03</pdfrwt>
<totfact> 0.12711996E+03</totfact>
</mgrwt>
</event>
<event>
 4    1  0.5323640E-005  0.5308060E+03  0.7818608E-02  0.1006037E+00
          2   -1    0    0  501    0  0.00000000000E+00  0.00000000000E+00  0.23421276366E+04  0.23421276366E+04  0.25500000000E-02 0.  1.
         -2   -1    0    0    0  501 -0.00000000000E+00 -0.00000000000E+00 -0.30074690260E+02  0.30074690368E+02  0.25500000000E-02 0. -1.
    5000001    1    1    2    0    0  0.11127121870E+03 -0.16203850246E+03  0.14583410017E+04  0.14807502280E+04  0.16500000000E+03 0.  0.
   -5000001    1    1    2    0    0 -0.11127121870E+03  0.16203850246E+03  0.85371194462E+03  0.89145209898E+03  0.16500000000E+03 0.  0.
<mgrwt>
<rscale>  0 0.53080604E+03</rscale>
<asrwt>0</asrwt>
<pdfrwt beam="1">  1        2 0.33458969E+00 0.53080604E+03</pdfrwt>
<pdfrwt beam="2">  1       -2 0.42963840E-02 0.53080604E+03</pdfrwt>
<totfact> 0.14510610E+03</totfact>
</mgrwt>
</event>
<event>
 4    1  0.5323640E-005  0.3595611E+03  0.7818608E-02  0.1058758E+00
         -2   -1    0    0    0  501 -0.00000000000E+00  0.00000000000E+00  0.11019207347E+02  0.11019207642E+02  0.25500000000E-02 0. -1.
          2   -1    0    0  501    0  0.00000000000E+00 -0.00000000000E+00 -0.29331558064E+04  0.29331558064E+04  0.25500000000E-02 0.  1.
    5000001    1    1    2    0    0 -0.30483823172E+02  0.57609637068E+02 -0.16995021897E+04  0.17087366170E+04  0.16500000000E+03 0.  0.
   -5000001    1    1    2    0    0  0.30483823172E+02 -0.57609637068E+02 -0.12226344094E+04  0.12354383970E+04  0.16500000000E+03 0.  0.
<mgrwt>
<rscale>  0 0.35956113E+03</rscale>
<asrwt>0</asrwt>
<pdfrwt beam="1">  1        2 0.41902176E+00 0.35956113E+03</pdfrwt>
<pdfrwt beam="2">  1       -2 0.15741744E-02 0.35956113E+03</pdfrwt>
<totfact> 0.32907259E+03</totfact>
</mgrwt>
</event>
<event>
 4    1  0.5323640E-005  0.5826847E+03  0.7818608E-02  0.9941996E-01
          2   -1    0    0  501    0  0.00000000000E+00  0.00000000000E+00  0.86570095079E+03  0.86570095079E+03  0.25500000000E-02 0.  1.
         -2   -1    0    0    0  501 -0.00000000000E+00 -0.00000000000E+00 -0.98048134221E+02  0.98048134254E+02  0.25500000000E-02 0. -1.
    5000001    1    1    2    0    0 -0.11275988094E+03 -0.21141040757E+03  0.40977924604E+03  0.50254669600E+03  0.16500000000E+03 0.  0.
   -5000001    1    1    2    0    0  0.11275988094E+03  0.21141040757E+03  0.35787357052E+03  0.46120238904E+03  0.16500000000E+03 0.  0.
<mgrwt>
<rscale>  0 0.58268469E+03</rscale>
<asrwt>0</asrwt>
<pdfrwt beam="1">  1        2 0.12367157E+00 0.58268469E+03</pdfrwt>
<pdfrwt beam="2">  1       -2 0.14006876E-01 0.58268469E+03</pdfrwt>
<totfact> 0.13510559E+03</totfact>
</mgrwt>
</event>
<event>
 4    1  0.5323640E-005  0.6685309E+03  0.7818608E-02  0.9772615E-01
         -2   -1    0    0    0  501 -0.00000000000E+00  0.00000000000E+00  0.13869225809E+03  0.13869225811E+03  0.25500000000E-02 0. -1.
          2   -1    0    0  501    0  0.00000000000E+00 -0.00000000000E+00 -0.80562086193E+03  0.80562086194E+03  0.25500000000E-02 0.  1.
    5000001    1    1    2    0    0 -0.20264179664E+03 -0.74278458758E+02 -0.58376684775E+02  0.27787375642E+03  0.16500000000E+03 0.  0.
   -5000001    1    1    2    0    0  0.20264179664E+03  0.74278458758E+02 -0.60855191907E+03  0.66643936363E+03  0.16500000000E+03 0.  0.
<mgrwt>
<rscale>  0 0.66853086E+03</rscale>
<asrwt>0</asrwt>
<pdfrwt beam="1">  1        2 0.11508869E+00 0.66853086E+03</pdfrwt>
<pdfrwt beam="2">  1       -2 0.19813180E-01 0.66853086E+03</pdfrwt>
<totfact> 0.81980944E+02</totfact>
</mgrwt>
</event>
<event>
 4    1  0.5323640E-005  0.7093773E+03  0.7818608E-02  0.9701329E-01
         -2   -1    0    0    0  501 -0.00000000000E+00  0.00000000000E+00  0.21555137633E+03  0.21555137635E+03  0.25500000000E-02 0. -1.
          2   -1    0    0  501    0  0.00000000000E+00 -0.00000000000E+00 -0.58363835653E+03  0.58363835653E+03  0.25500000000E-02 0.  1.
    5000001    1    1    2    0    0  0.16997552380E+03 -0.26398306602E+03 -0.18341299120E+03  0.39930447428E+03  0.16500000000E+03 0.  0.
   -5000001    1    1    2    0    0 -0.16997552380E+03  0.26398306602E+03 -0.18467398899E+03  0.39988525860E+03  0.16500000000E+03 0.  0.
<mgrwt>
<rscale>  0 0.70937734E+03</rscale>
<asrwt>0</asrwt>
<pdfrwt beam="1">  1        2 0.83376908E-01 0.70937734E+03</pdfrwt>
<pdfrwt beam="2">  1       -2 0.30793054E-01 0.70937734E+03</pdfrwt>
<totfact> 0.54989099E+02</totfact>
</mgrwt>
</event>
<event>
 4    1  0.5323640E-005  0.5974759E+03  0.7818608E-02  0.9910657E-01
          2   -1    0    0  501    0  0.00000000000E+00  0.00000000000E+00  0.87299641329E+03  0.87299641329E+03  0.25500000000E-02 0.  1.
         -2   -1    0    0    0  501 -0.00000000000E+00 -0.00000000000E+00 -0.10222762762E+03  0.10222762765E+03  0.25500000000E-02 0. -1.
    5000001    1    1    2    0    0 -0.88516698856E+02 -0.22684835471E+03  0.47057372487E+03  0.55494144966E+03  0.16500000000E+03 0.  0.
   -5000001    1    1    2    0    0  0.88516698856E+02  0.22684835471E+03  0.30019506079E+03  0.42028259128E+03  0.16500000000E+03 0.  0.
<mgrwt>
<rscale>  0 0.59747586E+03</rscale>
<asrwt>0</asrwt>
<pdfrwt beam="1">  1        2 0.12471378E+00 0.59747586E+03</pdfrwt>
<pdfrwt beam="2">  1       -2 0.14603946E-01 0.59747586E+03</pdfrwt>
<totfact> 0.12456993E+03</totfact>
</mgrwt>
</event>
<event>
 4    1  0.5323640E-005  0.4164302E+03  0.7818608E-02  0.1038234E+00
          2   -1    0    0  501    0  0.00000000000E+00  0.00000000000E+00  0.67025801186E+03  0.67025801187E+03  0.25500000000E-02 0.  1.
         -2   -1    0    0    0  501 -0.00000000000E+00 -0.00000000000E+00 -0.64681835305E+02  0.64681835355E+02  0.25500000000E-02 0. -1.
    5000001    1    1    2    0    0 -0.10932757603E+03 -0.36217519740E+02  0.20833456244E+03  0.28964205068E+03  0.16500000000E+03 0.  0.
   -5000001    1    1    2    0    0  0.10932757603E+03  0.36217519740E+02  0.39724161412E+03  0.44529779654E+03  0.16500000000E+03 0.  0.
<mgrwt>
<rscale>  0 0.41643015E+03</rscale>
<asrwt>0</asrwt>
<pdfrwt beam="1">  1        2 0.95751136E-01 0.41643015E+03</pdfrwt>
<pdfrwt beam="2">  1       -2 0.92402630E-02 0.41643015E+03</pdfrwt>
<totfact> 0.36636333E+03</totfact>
</mgrwt>
</event>
<event>
 4    1  0.5323640E-005  0.4569893E+03  0.7818608E-02  0.1025658E+00
          2   -1    0    0  501    0  0.00000000000E+00  0.00000000000E+00  0.91531698719E+03  0.91531698719E+03  0.25500000000E-02 0. -1.
         -2   -1    0    0    0  501 -0.00000000000E+00 -0.00000000000E+00 -0.57040134588E+02  0.57040134645E+02  0.25500000000E-02 0.  1.
    5000001    1    1    2    0    0 -0.40423149912E+02 -0.14072117197E+03  0.30239324414E+03  0.37430355781E+03  0.16500000000E+03 0.  0.
   -5000001    1    1    2    0    0  0.40423149912E+02  0.14072117197E+03  0.55588360846E+03  0.59805356403E+03  0.16500000000E+03 0.  0.
<mgrwt>
<rscale>  0 0.45698930E+03</rscale>
<asrwt>0</asrwt>
<pdfrwt beam="1">  1        2 0.13075956E+00 0.45698930E+03</pdfrwt>
<pdfrwt beam="2">  1       -2 0.81485910E-02 0.45698930E+03</pdfrwt>
<totfact> 0.30279215E+03</totfact>
</mgrwt>
</event>
<event>
 4    1  0.5323640E-005  0.1264943E+04  0.7818608E-02  0.9057837E-01
         -2   -1    0    0    0  501 -0.00000000000E+00  0.00000000000E+00  0.19198434302E+03  0.19198434303E+03  0.25500000000E-02 0. -1.
          2   -1    0    0  501    0  0.00000000000E+00 -0.00000000000E+00 -0.20836086814E+04  0.20836086814E+04  0.25500000000E-02 0.  1.
    5000001    1    1    2    0    0  0.52152514324E+03 -0.27676533366E+03 -0.66591368494E+03  0.90512626785E+03  0.16500000000E+03 0.  0.
   -5000001    1    1    2    0    0 -0.52152514324E+03  0.27676533366E+03 -0.12257106534E+04  0.13704667566E+04  0.16500000000E+03 0.  0.
<mgrwt>
<rscale>  0 0.12649431E+04</rscale>
<asrwt>0</asrwt>
<pdfrwt beam="1">  1        2 0.29765837E+00 0.12649431E+04</pdfrwt>
<pdfrwt beam="2">  1       -2 0.27426336E-01 0.12649431E+04</pdfrwt>
<totfact> 0.86524240E+01</totfact>
</mgrwt>
</event>
<event>
 4    1  0.5323640E-005  0.6972314E+03  0.7818608E-02  0.9721979E-01
         -2   -1    0    0    0  501 -0.00000000000E+00  0.00000000000E+00  0.14984331891E+03  0.14984331893E+03  0.25500000000E-02 0. -1.
          2   -1    0    0  501    0  0.00000000000E+00 -0.00000000000E+00 -0.81106653127E+03  0.81106653127E+03  0.25500000000E-02 0.  1.
    5000001    1    1    2    0    0 -0.13480275139E+03  0.19715984787E+03 -0.59665416396E+03  0.66352466327E+03  0.16500000000E+03 0.  0.
   -5000001    1    1    2    0    0  0.13480275139E+03 -0.19715984787E+03 -0.64569048392E+02  0.29738518693E+03  0.16500000000E+03 0.  0.
<mgrwt>
<rscale>  0 0.69723138E+03</rscale>
<asrwt>0</asrwt>
<pdfrwt beam="1">  1        2 0.11586664E+00 0.69723138E+03</pdfrwt>
<pdfrwt beam="2">  1       -2 0.21406189E-01 0.69723138E+03</pdfrwt>
<totfact> 0.70917165E+02</totfact>
</mgrwt>
</event>
<event>
 4    1  0.5323640E-005  0.6154301E+03  0.7818608E-02  0.9873901E-01
         -2   -1    0    0    0  501 -0.00000000000E+00  0.00000000000E+00  0.24800016141E+03  0.24800016143E+03  0.25500000000E-02 0. -1.
          2   -1    0    0  501    0  0.00000000000E+00 -0.00000000000E+00 -0.38180840405E+03  0.38180840406E+03  0.25500000000E-02 0.  1.
    5000001    1    1    2    0    0  0.34322624043E+02 -0.22492614578E+03  0.61297336366E+02  0.28766678123E+03  0.16500000000E+03 0.  0.
   -5000001    1    1    2    0    0 -0.34322624043E+02  0.22492614578E+03 -0.19510557901E+03  0.34214178426E+03  0.16500000000E+03 0.  0.
<mgrwt>
<rscale>  0 0.61543008E+03</rscale>
<asrwt>0</asrwt>
<pdfrwt beam="1">  1        2 0.54544057E-01 0.61543008E+03</pdfrwt>
<pdfrwt beam="2">  1       -2 0.35428595E-01 0.61543008E+03</pdfrwt>
<totfact> 0.68543557E+02</totfact>
</mgrwt>
</event>
<event>
 4    1  0.5323640E-005  0.6714115E+03  0.7818608E-02  0.9767411E-01
         -2   -1    0    0    0  501 -0.00000000000E+00  0.00000000000E+00  0.58571501819E+03  0.58571501820E+03  0.25500000000E-02 0. -1.
          2   -1    0    0  501    0  0.00000000000E+00 -0.00000000000E+00 -0.19241157771E+03  0.19241157773E+03  0.25500000000E-02 0.  1.
    5000001    1    1    2    0    0 -0.14694884311E+02  0.29172263365E+03  0.18220830904E+03  0.38176288779E+03  0.16500000000E+03 0.  0.
   -5000001    1    1    2    0    0  0.14694884311E+02 -0.29172263365E+03  0.21109513145E+03  0.39636370814E+03  0.16500000000E+03 0.  0.
<mgrwt>
<rscale>  0 0.67141150E+03</rscale>
<asrwt>0</asrwt>
<pdfrwt beam="1">  1        2 0.27487368E-01 0.67141150E+03</pdfrwt>
<pdfrwt beam="2">  1       -2 0.83673574E-01 0.67141150E+03</pdfrwt>
<totfact> 0.24794051E+02</totfact>
</mgrwt>
</event>
<event>
 4    1  0.5323640E-005  0.3698039E+03  0.7818608E-02  0.1054768E+00
         -2   -1    0    0    0  501 -0.00000000000E+00  0.00000000000E+00  0.12445025973E+02  0.12445026235E+02  0.25500000000E-02 0. -1.
          2   -1    0    0  501    0  0.00000000000E+00 -0.00000000000E+00 -0.27471796078E+04  0.27471796078E+04  0.25500000000E-02 0.  1.
    5000001    1    1    2    0    0  0.39217511085E+02  0.67529099730E+02 -0.15869102476E+04  0.15973751364E+04  0.16500000000E+03 0.  0.
   -5000001    1    1    2    0    0 -0.39217511085E+02 -0.67529099730E+02 -0.11478243342E+04  0.11622494976E+04  0.16500000000E+03 0.  0.
<mgrwt>
<rscale>  0 0.36980385E+03</rscale>
<asrwt>0</asrwt>
<pdfrwt beam="1">  1        2 0.39245384E+00 0.36980385E+03</pdfrwt>
<pdfrwt beam="2">  1       -2 0.17778626E-02 0.36980385E+03</pdfrwt>
<totfact> 0.34379756E+03</totfact>
</mgrwt>
</event>
<event>
 4    1  0.5323640E-005  0.7294793E+03  0.7818608E-02  0.9668106E-01
          2   -1    0    0  501    0  0.00000000000E+00  0.00000000000E+00  0.13699856353E+04  0.13699856353E+04  0.25500000000E-02 0.  1.
         -2   -1    0    0    0  501 -0.00000000000E+00 -0.00000000000E+00 -0.97106872495E+02  0.97106872529E+02  0.25500000000E-02 0. -1.
    5000001    1    1    2    0    0 -0.42669325172E+02  0.31255640972E+03  0.79604211302E+03  0.87202077170E+03  0.16500000000E+03 0.  0.
   -5000001    1    1    2    0    0  0.42669325172E+02 -0.31255640972E+03  0.47683664978E+03  0.59507173613E+03  0.16500000000E+03 0.  0.
<mgrwt>
<rscale>  0 0.72947932E+03</rscale>
<asrwt>0</asrwt>
<pdfrwt beam="1">  1        2 0.19571223E+00 0.72947932E+03</pdfrwt>
<pdfrwt beam="2">  1       -2 0.13872410E-01 0.72947932E+03</pdfrwt>
<totfact> 0.69234431E+02</totfact>
</mgrwt>
</event>
<event>
 4    1  0.5323640E-005  0.5212216E+03  0.7818608E-02  0.1008384E+00
         -2   -1    0    0    0  501 -0.00000000000E+00  0.00000000000E+00  0.25178175514E+03  0.25178175515E+03  0.25500000000E-02 0.  1.
          2   -1    0    0  501    0  0.00000000000E+00 -0.00000000000E+00 -0.26974945044E+03  0.26974945045E+03  0.25500000000E-02 0. -1.
    5000001    1    1    2    0    0 -0.13914846759E+03 -0.12506838627E+03 -0.84451408761E+02  0.26336559707E+03  0.16500000000E+03 0.  0.
   -5000001    1    1    2    0    0  0.13914846759E+03  0.12506838627E+03  0.66483713461E+02  0.25816560854E+03  0.16500000000E+03 0.  0.
<mgrwt>
<rscale>  0 0.52122160E+03</rscale>
<asrwt>0</asrwt>
<pdfrwt beam="1">  1        2 0.38535635E-01 0.52122160E+03</pdfrwt>
<pdfrwt beam="2">  1       -2 0.35968823E-01 0.52122160E+03</pdfrwt>
<totfact> 0.97792989E+02</totfact>
</mgrwt>
</event>
<event>
 4    1  0.5323640E-005  0.1198325E+04  0.7818608E-02  0.9114324E-01
          2   -1    0    0  501    0  0.00000000000E+00  0.00000000000E+00  0.17949692253E+04  0.17949692253E+04  0.25500000000E-02 0.  1.
         -2   -1    0    0    0  501 -0.00000000000E+00 -0.00000000000E+00 -0.20000092335E+03  0.20000092336E+03  0.25500000000E-02 0. -1.
    5000001    1    1    2    0    0 -0.15094062440E+03 -0.43459183897E+03  0.13744695170E+04  0.14587818862E+04  0.16500000000E+03 0.  0.
   -5000001    1    1    2    0    0  0.15094062440E+03  0.43459183897E+03  0.22049878503E+03  0.53618826245E+03  0.16500000000E+03 0.  0.
<mgrwt>
<rscale>  0 0.11983247E+04</rscale>
<asrwt>0</asrwt>
<pdfrwt beam="1">  1        2 0.25642417E+00 0.11983247E+04</pdfrwt>
<pdfrwt beam="2">  1       -2 0.28571561E-01 0.11983247E+04</pdfrwt>
<totfact> 0.11341045E+02</totfact>
</mgrwt>
</event>
<event>
 4    1  0.5323640E-005  0.5114556E+03  0.7818608E-02  0.1010831E+00
          2   -1    0    0  501    0  0.00000000000E+00  0.00000000000E+00  0.14243112309E+04  0.14243112309E+04  0.25500000000E-02 0.  1.
         -2   -1    0    0    0  501 -0.00000000000E+00 -0.00000000000E+00 -0.45914626166E+02  0.45914626237E+02  0.25500000000E-02 0. -1.
    5000001    1    1    2    0    0  0.52360635195E+02  0.82953953897E+02  0.11748997856E+04  0.11904778455E+04  0.16500000000E+03 0.  0.
   -5000001    1    1    2    0    0 -0.52360635195E+02 -0.82953953897E+02  0.20349681916E+03  0.27974801160E+03  0.16500000000E+03 0.  0.
<mgrwt>
<rscale>  0 0.51145564E+03</rscale>
<asrwt>0</asrwt>
<pdfrwt beam="1">  1        2 0.20347303E+00 0.51145564E+03</pdfrwt>
<pdfrwt beam="2">  1       -2 0.65592324E-02 0.51145564E+03</pdfrwt>
<totfact> 0.21919695E+03</totfact>
</mgrwt>
</event>
<event>
 4    1  0.5323640E-005  0.4419488E+03  0.7818608E-02  0.1030151E+00
         -2   -1    0    0    0  501 -0.00000000000E+00  0.00000000000E+00  0.18896956367E+02  0.18896956539E+02  0.25500000000E-02 0. -1.
          2   -1    0    0  501    0  0.00000000000E+00 -0.00000000000E+00 -0.25839977591E+04  0.25839977591E+04  0.25500000000E-02 0.  1.
    5000001    1    1    2    0    0  0.12123033348E+03  0.74559163431E+02 -0.14988537791E+04  0.15146100204E+04  0.16500000000E+03 0.  0.
   -5000001    1    1    2    0    0 -0.12123033348E+03 -0.74559163431E+02 -0.10662470236E+04  0.10882846953E+04  0.16500000000E+03 0.  0.
<mgrwt>
<rscale>  0 0.44194883E+03</rscale>
<asrwt>0</asrwt>
<pdfrwt beam="1">  1        2 0.36914231E+00 0.44194883E+03</pdfrwt>
<pdfrwt beam="2">  1       -2 0.26995668E-02 0.44194883E+03</pdfrwt>
<totfact> 0.22275065E+03</totfact>
</mgrwt>
</event>
<event>
 4    1  0.5323640E-005  0.5413677E+03  0.7818608E-02  0.1003512E+00
         -2   -1    0    0    0  501 -0.00000000000E+00  0.00000000000E+00  0.26085509023E+02  0.26085509148E+02  0.25500000000E-02 0. -1.
          2   -1    0    0  501    0  0.00000000000E+00 -0.00000000000E+00 -0.28088297229E+04  0.28088297229E+04  0.25500000000E-02 0.  1.
    5000001    1    1    2    0    0  0.64611015049E+02 -0.18723484908E+03 -0.18236130248E+04  0.18417439931E+04  0.16500000000E+03 0.  0.
   -5000001    1    1    2    0    0 -0.64611015049E+02  0.18723484908E+03 -0.95913118911E+03  0.99317123896E+03  0.16500000000E+03 0.  0.
<mgrwt>
<rscale>  0 0.54136772E+03</rscale>
<asrwt>0</asrwt>
<pdfrwt beam="1">  1        2 0.40126120E+00 0.54136772E+03</pdfrwt>
<pdfrwt beam="2">  1       -2 0.37265031E-02 0.54136772E+03</pdfrwt>
<totfact> 0.10363413E+03</totfact>
</mgrwt>
</event>
<event>
 4    1  0.5323640E-005  0.4111328E+03  0.7818608E-02  0.1039992E+00
         -2   -1    0    0    0  501 -0.00000000000E+00  0.00000000000E+00  0.24794811857E+03  0.24794811859E+03  0.25500000000E-02 0. -1.
          2   -1    0    0  501    0  0.00000000000E+00 -0.00000000000E+00 -0.17042897872E+03  0.17042897874E+03  0.25500000000E-02 0.  1.
    5000001    1    1    2    0    0 -0.17868758352E+02  0.99183093721E+02  0.10981808257E+03  0.22235464885E+03  0.16500000000E+03 0.  0.
   -5000001    1    1    2    0    0  0.17868758352E+02 -0.99183093721E+02 -0.32298942715E+02  0.19602244847E+03  0.16500000000E+03 0.  0.
<mgrwt>
<rscale>  0 0.41113280E+03</rscale>
<asrwt>0</asrwt>
<pdfrwt beam="1">  1        2 0.24346997E-01 0.41113280E+03</pdfrwt>
<pdfrwt beam="2">  1       -2 0.35421160E-01 0.41113280E+03</pdfrwt>
<totfact> 0.16783345E+03</totfact>
</mgrwt>
</event>
<event>
 4    1  0.5323640E-005  0.5900715E+03  0.7818608E-02  0.9926221E-01
         -2   -1    0    0    0  501 -0.00000000000E+00  0.00000000000E+00  0.19758123448E+03  0.19758123450E+03  0.25500000000E-02 0. -1.
          2   -1    0    0  501    0  0.00000000000E+00 -0.00000000000E+00 -0.44055851533E+03  0.44055851534E+03  0.25500000000E-02 0.  1.
    5000001    1    1    2    0    0  0.22439471584E+03 -0.40496019692E+02 -0.25804152970E+02  0.28263717097E+03  0.16500000000E+03 0.  0.
   -5000001    1    1    2    0    0 -0.22439471584E+03  0.40496019692E+02 -0.21717312788E+03  0.35550257886E+03  0.16500000000E+03 0.  0.
<mgrwt>
<rscale>  0 0.59007151E+03</rscale>
<asrwt>0</asrwt>
<pdfrwt beam="1">  1        2 0.62936930E-01 0.59007151E+03</pdfrwt>
<pdfrwt beam="2">  1       -2 0.28225891E-01 0.59007151E+03</pdfrwt>
<totfact> 0.89295646E+02</totfact>
</mgrwt>
</event>
<event>
 4    1  0.5323640E-005  0.5060892E+03  0.7818608E-02  0.1012202E+00
          2   -1    0    0  501    0  0.00000000000E+00  0.00000000000E+00  0.16857814589E+04  0.16857814589E+04  0.25500000000E-02 0.  1.
         -2   -1    0    0    0  501 -0.00000000000E+00 -0.00000000000E+00 -0.37983309958E+02  0.37983310044E+02  0.25500000000E-02 0. -1.
    5000001    1    1    2    0    0  0.10905787895E+03  0.15476112313E+03  0.92953788486E+03  0.96286567370E+03  0.16500000000E+03 0.  0.
   -5000001    1    1    2    0    0 -0.10905787895E+03 -0.15476112313E+03  0.71826026412E+03  0.76089909529E+03  0.16500000000E+03 0.  0.
<mgrwt>
<rscale>  0 0.50608916E+03</rscale>
<asrwt>0</asrwt>
<pdfrwt beam="1">  1        2 0.24082593E+00 0.50608916E+03</pdfrwt>
<pdfrwt beam="2">  1       -2 0.54261871E-02 0.50608916E+03</pdfrwt>
<totfact> 0.21618971E+03</totfact>
</mgrwt>
</event>
<event>
 4    1  0.5323640E-005  0.6203656E+03  0.7818608E-02  0.9864032E-01
          2   -1    0    0  501    0  0.00000000000E+00  0.00000000000E+00  0.62835975705E+03  0.62835975705E+03  0.25500000000E-02 0.  1.
         -2   -1    0    0    0  501 -0.00000000000E+00 -0.00000000000E+00 -0.15311826280E+03  0.15311826282E+03  0.25500000000E-02 0. -1.
    5000001    1    1    2    0    0 -0.94752380305E+01  0.25184233776E+03  0.33082203949E+03  0.44741766286E+03  0.16500000000E+03 0.  0.
   -5000001    1    1    2    0    0  0.94752380305E+01 -0.25184233776E+03  0.14441945475E+03  0.33406035702E+03  0.16500000000E+03 0.  0.
<mgrwt>
<rscale>  0 0.62036555E+03</rscale>
<asrwt>0</asrwt>
<pdfrwt beam="1">  1        2 0.89765681E-01 0.62036555E+03</pdfrwt>
<pdfrwt beam="2">  1       -2 0.21874037E-01 0.62036555E+03</pdfrwt>
<totfact> 0.93760939E+02</totfact>
</mgrwt>
</event>
<event>
 4    1  0.5323640E-005  0.4560174E+03  0.7818608E-02  0.1025943E+00
         -2   -1    0    0    0  501 -0.00000000000E+00  0.00000000000E+00  0.15087784552E+02  0.15087784767E+02  0.25500000000E-02 0. -1.
          2   -1    0    0  501    0  0.00000000000E+00 -0.00000000000E+00 -0.34456996066E+04  0.34456996066E+04  0.25500000000E-02 0.  1.
    5000001    1    1    2    0    0  0.14697052448E+02 -0.14831097475E+03 -0.13320103243E+04  0.13504401700E+04  0.16500000000E+03 0.  0.
   -5000001    1    1    2    0    0 -0.14697052448E+02  0.14831097475E+03 -0.20986014977E+04  0.21103472214E+04  0.16500000000E+03 0.  0.
<mgrwt>
<rscale>  0 0.45601743E+03</rscale>
<asrwt>0</asrwt>
<pdfrwt beam="1">  1        2 0.49224230E+00 0.45601743E+03</pdfrwt>
<pdfrwt beam="2">  1       -2 0.21554000E-02 0.45601743E+03</pdfrwt>
<totfact> 0.10626016E+03</totfact>
</mgrwt>
</event>
<event>
 4    1  0.5323640E-005  0.4920776E+03  0.7818608E-02  0.1015868E+00
         -2   -1    0    0    0  501 -0.00000000000E+00  0.00000000000E+00  0.39561491070E+02  0.39561491152E+02  0.25500000000E-02 0. -1.
          2   -1    0    0  501    0  0.00000000000E+00 -0.00000000000E+00 -0.15301520326E+04  0.15301520326E+04  0.25500000000E-02 0.  1.
    5000001    1    1    2    0    0  0.89619592181E+02  0.10908620487E+03 -0.11142665152E+04  0.11352296413E+04  0.16500000000E+03 0.  0.
   -5000001    1    1    2    0    0 -0.89619592181E+02 -0.10908620487E+03 -0.37632402633E+03  0.43448388254E+03  0.16500000000E+03 0.  0.
<mgrwt>
<rscale>  0 0.49207762E+03</rscale>
<asrwt>0</asrwt>
<pdfrwt beam="1">  1        2 0.21859311E+00 0.49207762E+03</pdfrwt>
<pdfrwt beam="2">  1       -2 0.56516425E-02 0.49207762E+03</pdfrwt>
<totfact> 0.24374124E+03</totfact>
</mgrwt>
</event>
<event>
 4    1  0.5323640E-005  0.1173298E+04  0.7818608E-02  0.9136555E-01
          2   -1    0    0  501    0  0.00000000000E+00  0.00000000000E+00  0.10025822860E+04  0.10025822860E+04  0.25500000000E-02 0.  1.
         -2   -1    0    0    0  501 -0.00000000000E+00 -0.00000000000E+00 -0.34327050807E+03  0.34327050808E+03  0.25500000000E-02 0. -1.
    5000001    1    1    2    0    0 -0.37969491616E+03  0.15207261913E+03 -0.11406482254E+03  0.45555471086E+03  0.16500000000E+03 0.  0.
   -5000001    1    1    2    0    0  0.37969491616E+03 -0.15207261913E+03  0.77337660051E+03  0.89029808326E+03  0.16500000000E+03 0.  0.
<mgrwt>
<rscale>  0 0.11732978E+04</rscale>
<asrwt>0</asrwt>
<pdfrwt beam="1">  1        2 0.14322604E+00 0.11732978E+04</pdfrwt>
<pdfrwt beam="2">  1       -2 0.49038644E-01 0.11732978E+04</pdfrwt>
<totfact> 0.10888203E+02</totfact>
</mgrwt>
</event>
<event>
 4    1  0.5323640E-005  0.4206349E+03  0.7818608E-02  0.1036860E+00
         -2   -1    0    0    0  501 -0.00000000000E+00  0.00000000000E+00  0.20384628525E+02  0.20384628685E+02  0.25500000000E-02 0.  1.
          2   -1    0    0  501    0  0.00000000000E+00 -0.00000000000E+00 -0.21699401535E+04  0.21699401535E+04  0.25500000000E-02 0. -1.
    5000001    1    1    2    0    0 -0.35156273045E+02  0.12330115330E+03 -0.11990198001E+04  0.12170918695E+04  0.16500000000E+03 0.  0.
   -5000001    1    1    2    0    0  0.35156273045E+02 -0.12330115330E+03 -0.95053572495E+03  0.97323291269E+03  0.16500000000E+03 0.  0.
<mgrwt>
<rscale>  0 0.42063487E+03</rscale>
<asrwt>0</asrwt>
<pdfrwt beam="1">  1        2 0.30999130E+00 0.42063487E+03</pdfrwt>
<pdfrwt beam="2">  1       -2 0.29120912E-02 0.42063487E+03</pdfrwt>
<totfact> 0.32143962E+03</totfact>
</mgrwt>
</event>
<event>
 4    1  0.5323640E-005  0.3512396E+03  0.7818608E-02  0.1062107E+00
         -2   -1    0    0    0  501 -0.00000000000E+00  0.00000000000E+00  0.56793226177E+02  0.56793226234E+02  0.25500000000E-02 0. -1.
          2   -1    0    0  501    0  0.00000000000E+00 -0.00000000000E+00 -0.54306326104E+03  0.54306326104E+03  0.25500000000E-02 0.  1.
    5000001    1    1    2    0    0  0.51409136652E+02 -0.26666310510E+02 -0.21542170541E+03  0.27746261479E+03  0.16500000000E+03 0.  0.
   -5000001    1    1    2    0    0 -0.51409136652E+02  0.26666310510E+02 -0.27084832945E+03  0.32239387248E+03  0.16500000000E+03 0.  0.
<mgrwt>
<rscale>  0 0.35123960E+03</rscale>
<asrwt>0</asrwt>
<pdfrwt beam="1">  1        2 0.77580463E-01 0.35123960E+03</pdfrwt>
<pdfrwt beam="2">  1       -2 0.81133183E-02 0.35123960E+03</pdfrwt>
<totfact> 0.57274042E+03</totfact>
</mgrwt>
</event>
<event>
 4    1  0.5323640E-005  0.4981909E+03  0.7818608E-02  0.1014252E+00
          2   -1    0    0  501    0  0.00000000000E+00  0.00000000000E+00  0.15488362696E+04  0.15488362696E+04  0.25500000000E-02 0.  1.
         -2   -1    0    0    0  501 -0.00000000000E+00 -0.00000000000E+00 -0.40061402978E+02  0.40061403060E+02  0.25500000000E-02 0. -1.
    5000001    1    1    2    0    0 -0.26087327717E+02 -0.17771913637E+03  0.91572219002E+03  0.94764801978E+03  0.16500000000E+03 0.  0.
   -5000001    1    1    2    0    0  0.26087327717E+02  0.17771913637E+03  0.59305267661E+03  0.64124965290E+03  0.16500000000E+03 0.  0.
<mgrwt>
<rscale>  0 0.49819094E+03</rscale>
<asrwt>0</asrwt>
<pdfrwt beam="1">  1        2 0.22126229E+00 0.49819094E+03</pdfrwt>
<pdfrwt beam="2">  1       -2 0.57230584E-02 0.49819094E+03</pdfrwt>
<totfact> 0.23376839E+03</totfact>
</mgrwt>
</event>
<event>
 4    1  0.5323640E-005  0.5048801E+03  0.7818608E-02  0.1012513E+00
          2   -1    0    0  501    0  0.00000000000E+00  0.00000000000E+00  0.15976918595E+03  0.15976918597E+03  0.25500000000E-02 0.  1.
         -2   -1    0    0    0  501 -0.00000000000E+00 -0.00000000000E+00 -0.39886280826E+03  0.39886280827E+03  0.25500000000E-02 0. -1.
    5000001    1    1    2    0    0  0.82697565236E+02  0.15277479510E+03 -0.20752265252E+03  0.31696952002E+03  0.16500000000E+03 0.  0.
   -5000001    1    1    2    0    0 -0.82697565236E+02 -0.15277479510E+03 -0.31570969792E+02  0.24166247422E+03  0.16500000000E+03 0.  0.
<mgrwt>
<rscale>  0 0.50488013E+03</rscale>
<asrwt>0</asrwt>
<pdfrwt beam="1">  1        2 0.22824170E-01 0.50488013E+03</pdfrwt>
<pdfrwt beam="2">  1       -2 0.56980401E-01 0.50488013E+03</pdfrwt>
<totfact> 0.70703314E+02</totfact>
</mgrwt>
</event>
<event>
 4    1  0.5323640E-005  0.5190043E+03  0.7818608E-02  0.1008934E+00
         -2   -1    0    0    0  501 -0.00000000000E+00  0.00000000000E+00  0.13641746941E+03  0.13641746944E+03  0.25500000000E-02 0. -1.
          2   -1    0    0  501    0  0.00000000000E+00 -0.00000000000E+00 -0.49364181516E+03  0.49364181517E+03  0.25500000000E-02 0.  1.
    5000001    1    1    2    0    0  0.50779375464E+02 -0.18292428352E+03 -0.10110253456E+03  0.27108404779E+03  0.16500000000E+03 0.  0.
   -5000001    1    1    2    0    0 -0.50779375464E+02  0.18292428352E+03 -0.25612181120E+03  0.35897523681E+03  0.16500000000E+03 0.  0.
<mgrwt>
<rscale>  0 0.51900431E+03</rscale>
<asrwt>0</asrwt>
<pdfrwt beam="1">  1        2 0.70520258E-01 0.51900431E+03</pdfrwt>
<pdfrwt beam="2">  1       -2 0.19488210E-01 0.51900431E+03</pdfrwt>
<totfact> 0.15181829E+03</totfact>
</mgrwt>
</event>
<event>
 4    1  0.5323640E-005  0.8511798E+03  0.7818608E-02  0.9488755E-01
          2   -1    0    0  501    0  0.00000000000E+00  0.00000000000E+00  0.59563236713E+03  0.59563236713E+03  0.25500000000E-02 0.  1.
         -2   -1    0    0    0  501 -0.00000000000E+00 -0.00000000000E+00 -0.30409152140E+03  0.30409152141E+03  0.25500000000E-02 0. -1.
    5000001    1    1    2    0    0 -0.27985897892E+03  0.10930983756E+02 -0.14459831806E+03  0.35577269158E+03  0.16500000000E+03 0.  0.
   -5000001    1    1    2    0    0  0.27985897892E+03 -0.10930983756E+02  0.43613916378E+03  0.54395119696E+03  0.16500000000E+03 0.  0.
<mgrwt>
<rscale>  0 0.85117978E+03</rscale>
<asrwt>0</asrwt>
<pdfrwt beam="1">  1        2 0.85090339E-01 0.85117978E+03</pdfrwt>
<pdfrwt beam="2">  1       -2 0.43441646E-01 0.85117978E+03</pdfrwt>
<totfact> 0.27605812E+02</totfact>
</mgrwt>
</event>
<event>
 4    1  0.5323640E-005  0.4146152E+03  0.7818608E-02  0.1038833E+00
          2   -1    0    0  501    0  0.00000000000E+00  0.00000000000E+00  0.66869005676E+03  0.66869005676E+03  0.25500000000E-02 0.  1.
         -2   -1    0    0    0  501 -0.00000000000E+00 -0.00000000000E+00 -0.64269605048E+02  0.64269605098E+02  0.25500000000E-02 0. -1.
    5000001    1    1    2    0    0  0.11635113886E+03 -0.34238736132E+02  0.35926322756E+03  0.41352744195E+03  0.16500000000E+03 0.  0.
   -5000001    1    1    2    0    0 -0.11635113886E+03  0.34238736132E+02  0.24515722415E+03  0.31943221991E+03  0.16500000000E+03 0.  0.
<mgrwt>
<rscale>  0 0.41461522E+03</rscale>
<asrwt>0</asrwt>
<pdfrwt beam="1">  1        2 0.95527151E-01 0.41461522E+03</pdfrwt>
<pdfrwt beam="2">  1       -2 0.91813722E-02 0.41461522E+03</pdfrwt>
<totfact> 0.37113457E+03</totfact>
</mgrwt>
</event>
<event>
 4    1  0.5323640E-005  0.4146746E+03  0.7818608E-02  0.1038814E+00
         -2   -1    0    0    0  501 -0.00000000000E+00  0.00000000000E+00  0.26954265910E+02  0.26954266030E+02  0.25500000000E-02 0. -1.
          2   -1    0    0  501    0  0.00000000000E+00 -0.00000000000E+00 -0.15948773167E+04  0.15948773167E+04  0.25500000000E-02 0.  1.
    5000001    1    1    2    0    0 -0.25572345769E+02  0.12269678848E+03 -0.81304614193E+03  0.83903365587E+03  0.16500000000E+03 0.  0.
   -5000001    1    1    2    0    0  0.25572345769E+02 -0.12269678848E+03 -0.75487690884E+03  0.78279792684E+03  0.16500000000E+03 0.  0.
<mgrwt>
<rscale>  0 0.41467456E+03</rscale>
<asrwt>0</asrwt>
<pdfrwt beam="1">  1        2 0.22783956E+00 0.41467456E+03</pdfrwt>
<pdfrwt beam="2">  1       -2 0.38506104E-02 0.41467456E+03</pdfrwt>
<totfact> 0.40758608E+03</totfact>
</mgrwt>
</event>
<event>
 4    1  0.5323640E-005  0.1822412E+04  0.7818608E-02  0.8694471E-01
          2   -1    0    0  501    0  0.00000000000E+00  0.00000000000E+00  0.27869193614E+04  0.27869193614E+04  0.25500000000E-02 0.  1.
         -2   -1    0    0    0  501 -0.00000000000E+00 -0.00000000000E+00 -0.29792615362E+03  0.29792615363E+03  0.25500000000E-02 0. -1.
    5000001    1    1    2    0    0 -0.27810392633E+03 -0.64725152937E+03  0.30691100877E+03  0.78593619551E+03  0.16500000000E+03 0.  0.
   -5000001    1    1    2    0    0  0.27810392633E+03  0.64725152937E+03  0.21820821991E+04  0.22989093196E+04  0.16500000000E+03 0.  0.
<mgrwt>
<rscale>  0 0.18224118E+04</rscale>
<asrwt>0</asrwt>
<pdfrwt beam="1">  1        2 0.39813134E+00 0.18224118E+04</pdfrwt>
<pdfrwt beam="2">  1       -2 0.42560879E-01 0.18224118E+04</pdfrwt>
<totfact> 0.15316684E+01</totfact>
</mgrwt>
</event>
<event>
 4    1  0.5323640E-005  0.1181966E+04  0.7818608E-02  0.9128790E-01
          2   -1    0    0  501    0  0.00000000000E+00  0.00000000000E+00  0.53115527014E+03  0.53115527015E+03  0.25500000000E-02 0.  1.
         -2   -1    0    0    0  501 -0.00000000000E+00 -0.00000000000E+00 -0.65754931230E+03  0.65754931230E+03  0.25500000000E-02 0. -1.
    5000001    1    1    2    0    0  0.85247285907E+02  0.48827048179E+03  0.21471270829E+03  0.56480236388E+03  0.16500000000E+03 0.  0.
   -5000001    1    1    2    0    0 -0.85247285907E+02 -0.48827048179E+03 -0.34110675044E+03  0.62390221857E+03  0.16500000000E+03 0.  0.
<mgrwt>
<rscale>  0 0.11819658E+04</rscale>
<asrwt>0</asrwt>
<pdfrwt beam="1">  1        2 0.75879324E-01 0.11819658E+04</pdfrwt>
<pdfrwt beam="2">  1       -2 0.93935616E-01 0.11819658E+04</pdfrwt>
<totfact> 0.59262753E+01</totfact>
</mgrwt>
</event>
<event>
 4    1  0.5323640E-005  0.4530798E+03  0.7818608E-02  0.1026808E+00
          2   -1    0    0  501    0  0.00000000000E+00  0.00000000000E+00  0.25377504186E+03  0.25377504187E+03  0.25500000000E-02 0.  1.
         -2   -1    0    0    0  501 -0.00000000000E+00 -0.00000000000E+00 -0.20222762367E+03  0.20222762369E+03  0.25500000000E-02 0. -1.
    5000001    1    1    2    0    0  0.25769247224E+02 -0.13909721823E+03  0.90086121004E+02  0.23527133149E+03  0.16500000000E+03 0.  0.
   -5000001    1    1    2    0    0 -0.25769247224E+02  0.13909721823E+03 -0.38538702818E+02  0.22073133406E+03  0.16500000000E+03 0.  0.
<mgrwt>
<rscale>  0 0.45307979E+03</rscale>
<asrwt>0</asrwt>
<pdfrwt beam="1">  1        2 0.36253578E-01 0.45307979E+03</pdfrwt>
<pdfrwt beam="2">  1       -2 0.28889660E-01 0.45307979E+03</pdfrwt>
<totfact> 0.15721856E+03</totfact>
</mgrwt>
</event>
<event>
 4    1  0.5323640E-005  0.1098790E+04  0.7818608E-02  0.9206372E-01
          2   -1    0    0  501    0  0.00000000000E+00  0.00000000000E+00  0.13660733944E+04  0.13660733944E+04  0.25500000000E-02 0.  1.
         -2   -1    0    0    0  501 -0.00000000000E+00 -0.00000000000E+00 -0.22095066829E+03  0.22095066831E+03  0.25500000000E-02 0. -1.
    5000001    1    1    2    0    0 -0.47986454228E+03  0.21042987782E+03  0.58366653000E+03  0.80152500314E+03  0.16500000000E+03 0.  0.
   -5000001    1    1    2    0    0  0.47986454228E+03 -0.21042987782E+03  0.56145619607E+03  0.78549905953E+03  0.16500000000E+03 0.  0.
<mgrwt>
<rscale>  0 0.10987899E+04</rscale>
<asrwt>0</asrwt>
<pdfrwt beam="1">  1        2 0.19515334E+00 0.10987899E+04</pdfrwt>
<pdfrwt beam="2">  1       -2 0.31564381E-01 0.10987899E+04</pdfrwt>
<totfact> 0.15950423E+02</totfact>
</mgrwt>
</event>
<event>
 4    1  0.5323640E-005  0.5463169E+03  0.7818608E-02  0.1002350E+00
         -2   -1    0    0    0  501 -0.00000000000E+00  0.00000000000E+00  0.93469571721E+02  0.93469571756E+02  0.25500000000E-02 0. -1.
          2   -1    0    0  501    0  0.00000000000E+00 -0.00000000000E+00 -0.79828708092E+03  0.79828708093E+03  0.25500000000E-02 0.  1.
    5000001    1    1    2    0    0 -0.20612954419E+03 -0.81697413952E+01 -0.23891452507E+03  0.35617591714E+03  0.16500000000E+03 0.  0.
   -5000001    1    1    2    0    0  0.20612954419E+03  0.81697413952E+01 -0.46590298413E+03  0.53558073554E+03  0.16500000000E+03 0.  0.
<mgrwt>
<rscale>  0 0.54631695E+03</rscale>
<asrwt>0</asrwt>
<pdfrwt beam="1">  1        2 0.11404101E+00 0.54631695E+03</pdfrwt>
<pdfrwt beam="2">  1       -2 0.13352796E-01 0.54631695E+03</pdfrwt>
<totfact> 0.16254038E+03</totfact>
</mgrwt>
</event>
<event>
 4    1  0.5323640E-005  0.7567547E+03  0.7818608E-02  0.9624813E-01
          2   -1    0    0  501    0  0.00000000000E+00  0.00000000000E+00  0.28843649636E+03  0.28843649637E+03  0.25500000000E-02 0.  1.
         -2   -1    0    0    0  501 -0.00000000000E+00 -0.00000000000E+00 -0.49636373282E+03  0.49636373283E+03  0.25500000000E-02 0. -1.
    5000001    1    1    2    0    0  0.14085382341E+03 -0.30794148429E+03 -0.66909080080E+02  0.38258277838E+03  0.16500000000E+03 0.  0.
   -5000001    1    1    2    0    0 -0.14085382341E+03  0.30794148429E+03 -0.14101815638E+03  0.40221745082E+03  0.16500000000E+03 0.  0.
<mgrwt>
<rscale>  0 0.75675469E+03</rscale>
<asrwt>0</asrwt>
<pdfrwt beam="1">  1        2 0.41205214E-01 0.75675469E+03</pdfrwt>
<pdfrwt beam="2">  1       -2 0.70909105E-01 0.75675469E+03</pdfrwt>
<totfact> 0.22705401E+02</totfact>
</mgrwt>
</event>
<event>
 4    1  0.5323640E-005  0.6316047E+03  0.7818608E-02  0.9841922E-01
         -2   -1    0    0    0  501 -0.00000000000E+00  0.00000000000E+00  0.15208403817E+03  0.15208403819E+03  0.25500000000E-02 0. -1.
          2   -1    0    0  501    0  0.00000000000E+00 -0.00000000000E+00 -0.65576334553E+03  0.65576334554E+03  0.25500000000E-02 0.  1.
    5000001    1    1    2    0    0  0.83435136564E+02  0.22946051265E+03 -0.39706887415E+03  0.49447167735E+03  0.16500000000E+03 0.  0.
   -5000001    1    1    2    0    0 -0.83435136564E+02 -0.22946051265E+03 -0.10661043321E+03  0.31337570638E+03  0.16500000000E+03 0.  0.
<mgrwt>
<rscale>  0 0.63160474E+03</rscale>
<asrwt>0</asrwt>
<pdfrwt beam="1">  1        2 0.93680476E-01 0.63160474E+03</pdfrwt>
<pdfrwt beam="2">  1       -2 0.21726292E-01 0.63160474E+03</pdfrwt>
<totfact> 0.90142538E+02</totfact>
</mgrwt>
</event>
<event>
 4    1  0.5323640E-005  0.6972558E+03  0.7818608E-02  0.9721937E-01
          2   -1    0    0  501    0  0.00000000000E+00  0.00000000000E+00  0.82807473569E+03  0.82807473570E+03  0.25500000000E-02 0.  1.
         -2   -1    0    0    0  501 -0.00000000000E+00 -0.00000000000E+00 -0.14677587725E+03  0.14677587727E+03  0.25500000000E-02 0. -1.
    5000001    1    1    2    0    0  0.16517526193E+03  0.25315098839E+03  0.26473619607E+03  0.43437143505E+03  0.16500000000E+03 0.  0.
   -5000001    1    1    2    0    0 -0.16517526193E+03 -0.25315098839E+03  0.41656266238E+03  0.54047917792E+03  0.16500000000E+03 0.  0.
<mgrwt>
<rscale>  0 0.69725575E+03</rscale>
<asrwt>0</asrwt>
<pdfrwt beam="1">  1        2 0.11829639E+00 0.69725575E+03</pdfrwt>
<pdfrwt beam="2">  1       -2 0.20967982E-01 0.69725575E+03</pdfrwt>
<totfact> 0.71595303E+02</totfact>
</mgrwt>
</event>
<event>
 4    1  0.5323640E-005  0.5896269E+03  0.7818608E-02  0.9927164E-01
          2   -1    0    0  501    0  0.00000000000E+00  0.00000000000E+00  0.88739870312E+02  0.88739870348E+02  0.25500000000E-02 0.  1.
         -2   -1    0    0    0  501 -0.00000000000E+00 -0.00000000000E+00 -0.97943538534E+03  0.97943538534E+03  0.25500000000E-02 0. -1.
    5000001    1    1    2    0    0  0.20616702772E+03  0.79784192426E+02 -0.63378684786E+03  0.69121713607E+03  0.16500000000E+03 0.  0.
   -5000001    1    1    2    0    0 -0.20616702772E+03 -0.79784192426E+02 -0.25690866717E+03  0.37695811962E+03  0.16500000000E+03 0.  0.
<mgrwt>
<rscale>  0 0.58962690E+03</rscale>
<asrwt>0</asrwt>
<pdfrwt beam="1">  1        2 0.12677125E-01 0.58962690E+03</pdfrwt>
<pdfrwt beam="2">  1       -2 0.13991933E+00 0.58962690E+03</pdfrwt>
<totfact> 0.18009191E+02</totfact>
</mgrwt>
</event>
<event>
 4    1  0.5323640E-005  0.4887110E+03  0.7818608E-02  0.1016768E+00
         -2   -1    0    0    0  501 -0.00000000000E+00  0.00000000000E+00  0.69047721475E+02  0.69047721522E+02  0.25500000000E-02 0. -1.
          2   -1    0    0  501    0  0.00000000000E+00 -0.00000000000E+00 -0.86475868117E+03  0.86475868118E+03  0.25500000000E-02 0.  1.
    5000001    1    1    2    0    0 -0.93939211633E+01  0.17984372864E+03 -0.38399703512E+03  0.45509420505E+03  0.16500000000E+03 0.  0.
   -5000001    1    1    2    0    0  0.93939211633E+01 -0.17984372864E+03 -0.41171392458E+03  0.47871219765E+03  0.16500000000E+03 0.  0.
<mgrwt>
<rscale>  0 0.48871103E+03</rscale>
<asrwt>0</asrwt>
<pdfrwt beam="1">  1        2 0.12353695E+00 0.48871103E+03</pdfrwt>
<pdfrwt beam="2">  1       -2 0.98639607E-02 0.48871103E+03</pdfrwt>
<totfact> 0.24056403E+03</totfact>
</mgrwt>
</event>
<event>
 4    1  0.5323640E-005  0.4506912E+03  0.7818608E-02  0.1027516E+00
          2   -1    0    0  501    0  0.00000000000E+00  0.00000000000E+00  0.87286640559E+02  0.87286640597E+02  0.25500000000E-02 0.  1.
         -2   -1    0    0    0  501 -0.00000000000E+00 -0.00000000000E+00 -0.58176864402E+03  0.58176864403E+03  0.25500000000E-02 0. -1.
    5000001    1    1    2    0    0  0.12778794327E+02  0.95966783006E+02 -0.42403298550E+03  0.46519016952E+03  0.16500000000E+03 0.  0.
   -5000001    1    1    2    0    0 -0.12778794327E+02 -0.95966783006E+02 -0.70449017962E+02  0.20386511510E+03  0.16500000000E+03 0.  0.
<mgrwt>
<rscale>  0 0.45069116E+03</rscale>
<asrwt>0</asrwt>
<pdfrwt beam="1">  1        2 0.12469520E-01 0.45069116E+03</pdfrwt>
<pdfrwt beam="2">  1       -2 0.83109805E-01 0.45069116E+03</pdfrwt>
<totfact> 0.64231957E+02</totfact>
</mgrwt>
</event>
<event>
 4    1  0.5323640E-005  0.4538658E+03  0.7818608E-02  0.1026575E+00
         -2   -1    0    0    0  501 -0.00000000000E+00  0.00000000000E+00  0.84570441088E+02  0.84570441127E+02  0.25500000000E-02 0. -1.
          2   -1    0    0  501    0  0.00000000000E+00 -0.00000000000E+00 -0.60894256666E+03  0.60894256667E+03  0.25500000000E-02 0.  1.
    5000001    1    1    2    0    0 -0.15123460012E+03  0.11159080537E+01 -0.31936709013E+03  0.38999165092E+03  0.16500000000E+03 0.  0.
   -5000001    1    1    2    0    0  0.15123460012E+03 -0.11159080537E+01 -0.20500503544E+03  0.30352135688E+03  0.16500000000E+03 0.  0.
<mgrwt>
<rscale>  0 0.45386580E+03</rscale>
<asrwt>0</asrwt>
<pdfrwt beam="1">  1        2 0.86991793E-01 0.45386580E+03</pdfrwt>
<pdfrwt beam="2">  1       -2 0.12081492E-01 0.45386580E+03</pdfrwt>
<totfact> 0.26628917E+03</totfact>
</mgrwt>
</event>
<event>
 4    1  0.5323640E-005  0.4146452E+03  0.7818608E-02  0.1038823E+00
          2   -1    0    0  501    0  0.00000000000E+00  0.00000000000E+00  0.18162488226E+04  0.18162488226E+04  0.25500000000E-02 0.  1.
         -2   -1    0    0    0  501 -0.00000000000E+00 -0.00000000000E+00 -0.23665619589E+02  0.23665619726E+02  0.25500000000E-02 0. -1.
    5000001    1    1    2    0    0  0.11011700487E+03 -0.30181875634E+02  0.66482860212E+03  0.69444853703E+03  0.16500000000E+03 0.  0.
   -5000001    1    1    2    0    0 -0.11011700487E+03  0.30181875634E+02  0.11277546008E+04  0.11454659053E+04  0.16500000000E+03 0.  0.
<mgrwt>
<rscale>  0 0.41464517E+03</rscale>
<asrwt>0</asrwt>
<pdfrwt beam="1">  1        2 0.25946410E+00 0.41464517E+03</pdfrwt>
<pdfrwt beam="2">  1       -2 0.33808030E-02 0.41464517E+03</pdfrwt>
<totfact> 0.38444485E+03</totfact>
</mgrwt>
</event>
<event>
 4    1  0.5323640E-005  0.5072337E+03  0.7818608E-02  0.1011908E+00
          2   -1    0    0  501    0  0.00000000000E+00  0.00000000000E+00  0.42737799045E+03  0.42737799046E+03  0.25500000000E-02 0.  1.
         -2   -1    0    0    0  501 -0.00000000000E+00 -0.00000000000E+00 -0.15050260467E+03  0.15050260469E+03  0.25500000000E-02 0. -1.
    5000001    1    1    2    0    0 -0.14278632895E+02 -0.18869079889E+03  0.97544028261E+02  0.26934723758E+03  0.16500000000E+03 0.  0.
   -5000001    1    1    2    0    0  0.14278632895E+02  0.18869079889E+03  0.17933135752E+03  0.30853335757E+03  0.16500000000E+03 0.  0.
<mgrwt>
<rscale>  0 0.50723368E+03</rscale>
<asrwt>0</asrwt>
<pdfrwt beam="1">  1        2 0.61054000E-01 0.50723368E+03</pdfrwt>
<pdfrwt beam="2">  1       -2 0.21500372E-01 0.50723368E+03</pdfrwt>
<totfact> 0.15035403E+03</totfact>
</mgrwt>
</event>
<event>
 4    1  0.5323640E-005  0.1022838E+04  0.7818608E-02  0.9283845E-01
          2   -1    0    0  501    0  0.00000000000E+00  0.00000000000E+00  0.74966147795E+03  0.74966147795E+03  0.25500000000E-02 0.  1.
         -2   -1    0    0    0  501 -0.00000000000E+00 -0.00000000000E+00 -0.34888991347E+03  0.34888991348E+03  0.25500000000E-02 0. -1.
    5000001    1    1    2    0    0  0.17282186197E+03  0.43922533571E+03  0.31575223411E+03  0.59136347947E+03  0.16500000000E+03 0.  0.
   -5000001    1    1    2    0    0 -0.17282186197E+03 -0.43922533571E+03  0.85019330362E+02  0.50718791196E+03  0.16500000000E+03 0.  0.
<mgrwt>
<rscale>  0 0.10228379E+04</rscale>
<asrwt>0</asrwt>
<pdfrwt beam="1">  1        2 0.10709450E+00 0.10228379E+04</pdfrwt>
<pdfrwt beam="2">  1       -2 0.49841417E-01 0.10228379E+04</pdfrwt>
<totfact> 0.15685354E+02</totfact>
</mgrwt>
</event>
<event>
 4    1  0.5323640E-005  0.4294024E+03  0.7818608E-02  0.1034049E+00
          2   -1    0    0  501    0  0.00000000000E+00  0.00000000000E+00  0.15553892169E+04  0.15553892169E+04  0.25500000000E-02 0.  1.
         -2   -1    0    0    0  501 -0.00000000000E+00 -0.00000000000E+00 -0.29636706048E+02  0.29636706158E+02  0.25500000000E-02 0. -1.
    5000001    1    1    2    0    0 -0.11584921030E+03 -0.70175953984E+02  0.67822621124E+03  0.71102847879E+03  0.16500000000E+03 0.  0.
   -5000001    1    1    2    0    0  0.11584921030E+03  0.70175953984E+02  0.84752629958E+03  0.87399744423E+03  0.16500000000E+03 0.  0.
<mgrwt>
<rscale>  0 0.42940244E+03</rscale>
<asrwt>0</asrwt>
<pdfrwt beam="1">  1        2 0.22219849E+00 0.42940244E+03</pdfrwt>
<pdfrwt beam="2">  1       -2 0.42338145E-02 0.42940244E+03</pdfrwt>
<totfact> 0.36942344E+03</totfact>
</mgrwt>
</event>
<event>
 4    1  0.5323640E-005  0.4875730E+03  0.7818608E-02  0.1017074E+00
         -2   -1    0    0    0  501 -0.00000000000E+00  0.00000000000E+00  0.32890622697E+03  0.32890622698E+03  0.25500000000E-02 0. -1.
          2   -1    0    0  501    0  0.00000000000E+00 -0.00000000000E+00 -0.18069544403E+03  0.18069544404E+03  0.25500000000E-02 0.  1.
    5000001    1    1    2    0    0  0.13063065996E+03 -0.10310411854E+03  0.38989276678E+01  0.23438223102E+03  0.16500000000E+03 0.  0.
   -5000001    1    1    2    0    0 -0.13063065996E+03  0.10310411854E+03  0.14431185527E+03  0.27521944000E+03  0.16500000000E+03 0.  0.
<mgrwt>
<rscale>  0 0.48757300E+03</rscale>
<asrwt>0</asrwt>
<pdfrwt beam="1">  1        2 0.25813635E-01 0.48757300E+03</pdfrwt>
<pdfrwt beam="2">  1       -2 0.46986603E-01 0.48757300E+03</pdfrwt>
<totfact> 0.90938533E+02</totfact>
</mgrwt>
</event>
<event>
 4    1  0.5323640E-005  0.6060003E+03  0.7818608E-02  0.9893035E-01
          2   -1    0    0  501    0  0.00000000000E+00  0.00000000000E+00  0.15113829738E+04  0.15113829738E+04  0.25500000000E-02 0.  1.
         -2   -1    0    0    0  501 -0.00000000000E+00 -0.00000000000E+00 -0.60745091421E+02  0.60745091474E+02  0.25500000000E-02 0. -1.
    5000001    1    1    2    0    0 -0.17594601683E+03 -0.12875148329E+03  0.38656902960E+03  0.47349187948E+03  0.16500000000E+03 0.  0.
   -5000001    1    1    2    0    0  0.17594601683E+03  0.12875148329E+03  0.10640688528E+04  0.10986361858E+04  0.16500000000E+03 0.  0.
<mgrwt>
<rscale>  0 0.60600032E+03</rscale>
<asrwt>0</asrwt>
<pdfrwt beam="1">  1        2 0.21591189E+00 0.60600032E+03</pdfrwt>
<pdfrwt beam="2">  1       -2 0.86778687E-02 0.60600032E+03</pdfrwt>
<totfact> 0.12630115E+03</totfact>
</mgrwt>
</event>
<event>
 4    1  0.5323640E-005  0.8523935E+03  0.7818608E-02  0.9487130E-01
         -2   -1    0    0    0  501 -0.00000000000E+00  0.00000000000E+00  0.19691312799E+03  0.19691312801E+03  0.25500000000E-02 0. -1.
          2   -1    0    0  501    0  0.00000000000E+00 -0.00000000000E+00 -0.92245597070E+03  0.92245597070E+03  0.25500000000E-02 0.  1.
    5000001    1    1    2    0    0 -0.31902974160E+03 -0.89136829179E+02 -0.85148981653E+02  0.37973767184E+03  0.16500000000E+03 0.  0.
   -5000001    1    1    2    0    0  0.31902974160E+03  0.89136829179E+02 -0.64039386105E+03  0.73963142687E+03  0.16500000000E+03 0.  0.
<mgrwt>
<rscale>  0 0.85239355E+03</rscale>
<asrwt>0</asrwt>
<pdfrwt beam="1">  1        2 0.13177942E+00 0.85239355E+03</pdfrwt>
<pdfrwt beam="2">  1       -2 0.28130447E-01 0.85239355E+03</pdfrwt>
<totfact> 0.36365876E+02</totfact>
</mgrwt>
</event>
<event>
 4    1  0.5323640E-005  0.4171435E+03  0.7818608E-02  0.1038000E+00
          2   -1    0    0  501    0  0.00000000000E+00  0.00000000000E+00  0.15437316595E+04  0.15437316595E+04  0.25500000000E-02 0.  1.
         -2   -1    0    0    0  501 -0.00000000000E+00 -0.00000000000E+00 -0.28179875985E+02  0.28179876100E+02  0.25500000000E-02 0. -1.
    5000001    1    1    2    0    0 -0.56879534198E+02  0.10851629999E+03  0.89185969756E+03  0.91523209564E+03  0.16500000000E+03 0.  0.
   -5000001    1    1    2    0    0  0.56879534198E+02 -0.10851629999E+03  0.62369208595E+03  0.65667943995E+03  0.16500000000E+03 0.  0.
<mgrwt>
<rscale>  0 0.41714346E+03</rscale>
<asrwt>0</asrwt>
<pdfrwt beam="1">  1        2 0.22053310E+00 0.41714346E+03</pdfrwt>
<pdfrwt beam="2">  1       -2 0.40256965E-02 0.41714346E+03</pdfrwt>
<totfact> 0.40444986E+03</totfact>
</mgrwt>
</event>
<event>
 4    1  0.5323640E-005  0.4755985E+03  0.7818608E-02  0.1020352E+00
          2   -1    0    0  501    0  0.00000000000E+00  0.00000000000E+00  0.97602774875E+03  0.97602774875E+03  0.25500000000E-02 0.  1.
         -2   -1    0    0    0  501 -0.00000000000E+00 -0.00000000000E+00 -0.57937379929E+02  0.57937379986E+02  0.25500000000E-02 0. -1.
    5000001    1    1    2    0    0 -0.13113261820E+03 -0.19703265663E+02  0.22349126134E+03  0.30782677942E+03  0.16500000000E+03 0.  0.
   -5000001    1    1    2    0    0  0.13113261820E+03  0.19703265663E+02  0.69459910748E+03  0.72613834932E+03  0.16500000000E+03 0.  0.
<mgrwt>
<rscale>  0 0.47559853E+03</rscale>
<asrwt>0</asrwt>
<pdfrwt beam="1">  1        2 0.13943253E+00 0.47559853E+03</pdfrwt>
<pdfrwt beam="2">  1       -2 0.82767687E-02 0.47559853E+03</pdfrwt>
<totfact> 0.27083304E+03</totfact>
</mgrwt>
</event>
<event>
 4    1  0.5323640E-005  0.8808646E+03  0.7818608E-02  0.9449823E-01
          2   -1    0    0  501    0  0.00000000000E+00  0.00000000000E+00  0.83280244282E+03  0.83280244282E+03  0.25500000000E-02 0.  1.
         -2   -1    0    0    0  501 -0.00000000000E+00 -0.00000000000E+00 -0.23292510303E+03  0.23292510305E+03  0.25500000000E-02 0. -1.
    5000001    1    1    2    0    0  0.53544812824E+02  0.20731791601E+03 -0.12075334097E+03  0.29606440961E+03  0.16500000000E+03 0.  0.
   -5000001    1    1    2    0    0 -0.53544812824E+02 -0.20731791601E+03  0.72063068076E+03  0.76966313627E+03  0.16500000000E+03 0.  0.
<mgrwt>
<rscale>  0 0.88086456E+03</rscale>
<asrwt>0</asrwt>
<pdfrwt beam="1">  1        2 0.11897178E+00 0.88086456E+03</pdfrwt>
<pdfrwt beam="2">  1       -2 0.33275014E-01 0.88086456E+03</pdfrwt>
<totfact> 0.30453761E+02</totfact>
</mgrwt>
</event>
<event>
 4    1  0.5323640E-005  0.4215260E+03  0.7818608E-02  0.1036571E+00
          2   -1    0    0  501    0  0.00000000000E+00  0.00000000000E+00  0.42709481909E+04  0.42709481909E+04  0.25500000000E-02 0.  1.
         -2   -1    0    0    0  501 -0.00000000000E+00 -0.00000000000E+00 -0.10400744362E+02  0.10400744674E+02  0.25500000000E-02 0. -1.
    5000001    1    1    2    0    0 -0.12805778627E+03 -0.27618598049E+02  0.20706529596E+04  0.20813433794E+04  0.16500000000E+03 0.  0.
   -5000001    1    1    2    0    0  0.12805778627E+03  0.27618598049E+02  0.21898944870E+04  0.22000055563E+04  0.16500000000E+03 0.  0.
<mgrwt>
<rscale>  0 0.42152599E+03</rscale>
<asrwt>0</asrwt>
<pdfrwt beam="1">  1        2 0.61013621E+00 0.42152599E+03</pdfrwt>
<pdfrwt beam="2">  1       -2 0.14858188E-02 0.42152599E+03</pdfrwt>
<totfact> 0.54940720E+02</totfact>
</mgrwt>
</event>
<event>
 4    1  0.5323640E-005  0.3934958E+03  0.7818608E-02  0.1046055E+00
          2   -1    0    0  501    0  0.00000000000E+00  0.00000000000E+00  0.29096382501E+04  0.29096382501E+04  0.25500000000E-02 0.  1.
         -2   -1    0    0    0  501 -0.00000000000E+00 -0.00000000000E+00 -0.13303971842E+02  0.13303972087E+02  0.25500000000E-02 0. -1.
    5000001    1    1    2    0    0 -0.20972505720E+02 -0.96415689824E+02  0.17588121345E+04  0.17692882624E+04  0.16500000000E+03 0.  0.
   -5000001    1    1    2    0    0  0.20972505720E+02  0.96415689824E+02  0.11375221438E+04  0.11536539597E+04  0.16500000000E+03 0.  0.
<mgrwt>
<rscale>  0 0.39349585E+03</rscale>
<asrwt>0</asrwt>
<pdfrwt beam="1">  1        2 0.41566339E+00 0.39349585E+03</pdfrwt>
<pdfrwt beam="2">  1       -2 0.19005639E-02 0.39349585E+03</pdfrwt>
<totfact> 0.25561485E+03</totfact>
</mgrwt>
</event>
<event>
 4    1  0.5323640E-005  0.5068045E+03  0.7818608E-02  0.1012018E+00
         -2   -1    0    0    0  501 -0.00000000000E+00  0.00000000000E+00  0.45419775943E+03  0.45419775944E+03  0.25500000000E-02 0. -1.
          2   -1    0    0  501    0  0.00000000000E+00 -0.00000000000E+00 -0.14137608476E+03  0.14137608478E+03  0.25500000000E-02 0.  1.
    5000001    1    1    2    0    0 -0.16331207472E+03 -0.37668280947E+02  0.26726208027E+03  0.35601088844E+03  0.16500000000E+03 0.  0.
   -5000001    1    1    2    0    0  0.16331207472E+03  0.37668280947E+02  0.45559594403E+02  0.23956295578E+03  0.16500000000E+03 0.  0.
<mgrwt>
<rscale>  0 0.50680450E+03</rscale>
<asrwt>0</asrwt>
<pdfrwt beam="1">  1        2 0.20196583E-01 0.50680450E+03</pdfrwt>
<pdfrwt beam="2">  1       -2 0.64885395E-01 0.50680450E+03</pdfrwt>
<totfact> 0.61983489E+02</totfact>
</mgrwt>
</event>
<event>
 4    1  0.5323640E-005  0.6777343E+03  0.7818608E-02  0.9756086E-01
         -2   -1    0    0    0  501 -0.00000000000E+00  0.00000000000E+00  0.19315140672E+03  0.19315140674E+03  0.25500000000E-02 0. -1.
          2   -1    0    0  501    0  0.00000000000E+00 -0.00000000000E+00 -0.59451256323E+03  0.59451256323E+03  0.25500000000E-02 0.  1.
    5000001    1    1    2    0    0 -0.12271968450E+03  0.14096297629E+03 -0.46741855761E+03  0.52975068631E+03  0.16500000000E+03 0.  0.
   -5000001    1    1    2    0    0  0.12271968450E+03 -0.14096297629E+03  0.66057401103E+02  0.25791328366E+03  0.16500000000E+03 0.  0.
<mgrwt>
<rscale>  0 0.67773428E+03</rscale>
<asrwt>0</asrwt>
<pdfrwt beam="1">  1        2 0.84930365E-01 0.67773428E+03</pdfrwt>
<pdfrwt beam="2">  1       -2 0.27593058E-01 0.67773428E+03</pdfrwt>
<totfact> 0.65922613E+02</totfact>
</mgrwt>
</event>
<event>
 4    1  0.5323640E-005  0.7436433E+03  0.7818608E-02  0.9645376E-01
         -2   -1    0    0    0  501 -0.00000000000E+00  0.00000000000E+00  0.65139225342E+02  0.65139225392E+02  0.25500000000E-02 0. -1.
          2   -1    0    0  501    0  0.00000000000E+00 -0.00000000000E+00 -0.21223977061E+04  0.21223977061E+04  0.25500000000E-02 0.  1.
    5000001    1    1    2    0    0  0.21531752802E+03  0.22362315496E+03 -0.13847678258E+04  0.14286972684E+04  0.16500000000E+03 0.  0.
   -5000001    1    1    2    0    0 -0.21531752802E+03 -0.22362315496E+03 -0.67249065498E+03  0.75883966314E+03  0.16500000000E+03 0.  0.
<mgrwt>
<rscale>  0 0.74364331E+03</rscale>
<asrwt>0</asrwt>
<pdfrwt beam="1">  1        2 0.30319963E+00 0.74364331E+03</pdfrwt>
<pdfrwt beam="2">  1       -2 0.93056049E-02 0.74364331E+03</pdfrwt>
<totfact> 0.54756821E+02</totfact>
</mgrwt>
</event>
<event>
 4    1  0.5323640E-005  0.7185744E+03  0.7818608E-02  0.9685984E-01
          2   -1    0    0  501    0  0.00000000000E+00  0.00000000000E+00  0.78059583707E+03  0.78059583707E+03  0.25500000000E-02 0.  1.
         -2   -1    0    0    0  501 -0.00000000000E+00 -0.00000000000E+00 -0.16537019380E+03  0.16537019382E+03  0.25500000000E-02 0. -1.
    5000001    1    1    2    0    0  0.13995905777E+03  0.12778821855E+03 -0.30445154195E+02  0.25312106603E+03  0.16500000000E+03 0.  0.
   -5000001    1    1    2    0    0 -0.13995905777E+03 -0.12778821855E+03  0.64567079746E+03  0.69284496487E+03  0.16500000000E+03 0.  0.
<mgrwt>
<rscale>  0 0.71857438E+03</rscale>
<asrwt>0</asrwt>
<pdfrwt beam="1">  1        2 0.11151369E+00 0.71857438E+03</pdfrwt>
<pdfrwt beam="2">  1       -2 0.23624313E-01 0.71857438E+03</pdfrwt>
<totfact> 0.62492506E+02</totfact>
</mgrwt>
</event>
<event>
 4    1  0.5323640E-005  0.3756717E+03  0.7818608E-02  0.1052545E+00
         -2   -1    0    0    0  501 -0.00000000000E+00  0.00000000000E+00  0.93368275676E+02  0.93368275711E+02  0.25500000000E-02 0. -1.
          2   -1    0    0  501    0  0.00000000000E+00 -0.00000000000E+00 -0.37788330878E+03  0.37788330879E+03  0.25500000000E-02 0.  1.
    5000001    1    1    2    0    0  0.59887931917E+02 -0.63621669116E+02 -0.11645685717E+03  0.22004881448E+03  0.16500000000E+03 0.  0.
   -5000001    1    1    2    0    0 -0.59887931917E+02  0.63621669116E+02 -0.16805817593E+03  0.25120277003E+03  0.16500000000E+03 0.  0.
<mgrwt>
<rscale>  0 0.37567173E+03</rscale>
<asrwt>0</asrwt>
<pdfrwt beam="1">  1        2 0.53983329E-01 0.37567173E+03</pdfrwt>
<pdfrwt beam="2">  1       -2 0.13338325E-01 0.37567173E+03</pdfrwt>
<totfact> 0.38541306E+03</totfact>
</mgrwt>
</event>
<event>
 4    1  0.5323640E-005  0.5601284E+03  0.7818608E-02  0.9991764E-01
         -2   -1    0    0    0  501 -0.00000000000E+00  0.00000000000E+00  0.45306015498E+02  0.45306015570E+02  0.25500000000E-02 0. -1.
          2   -1    0    0  501    0  0.00000000000E+00 -0.00000000000E+00 -0.17312481156E+04  0.17312481156E+04  0.25500000000E-02 0.  1.
    5000001    1    1    2    0    0  0.14810248930E+03  0.12830836469E+03 -0.12019970781E+04  0.12289911959E+04  0.16500000000E+03 0.  0.
   -5000001    1    1    2    0    0 -0.14810248930E+03 -0.12830836469E+03 -0.48394502200E+03  0.54756293529E+03  0.16500000000E+03 0.  0.
<mgrwt>
<rscale>  0 0.56012839E+03</rscale>
<asrwt>0</asrwt>
<pdfrwt beam="1">  1        2 0.24732112E+00 0.56012839E+03</pdfrwt>
<pdfrwt beam="2">  1       -2 0.64722890E-02 0.56012839E+03</pdfrwt>
<totfact> 0.15542432E+03</totfact>
</mgrwt>
</event>
<event>
 4    1  0.5323640E-005  0.4590275E+03  0.7818608E-02  0.1025064E+00
          2   -1    0    0  501    0  0.00000000000E+00  0.00000000000E+00  0.64780379603E+03  0.64780379603E+03  0.25500000000E-02 0.  1.
         -2   -1    0    0    0  501 -0.00000000000E+00 -0.00000000000E+00 -0.81315611202E+02  0.81315611242E+02  0.25500000000E-02 0. -1.
    5000001    1    1    2    0    0  0.11446022459E+03 -0.10445358128E+03  0.22297130328E+03  0.31773085425E+03  0.16500000000E+03 0.  0.
   -5000001    1    1    2    0    0 -0.11446022459E+03  0.10445358128E+03  0.34351688155E+03  0.41138855303E+03  0.16500000000E+03 0.  0.
<mgrwt>
<rscale>  0 0.45902750E+03</rscale>
<asrwt>0</asrwt>
<pdfrwt beam="1">  1        2 0.92543401E-01 0.45902750E+03</pdfrwt>
<pdfrwt beam="2">  1       -2 0.11616516E-01 0.45902750E+03</pdfrwt>
<totfact> 0.26400421E+03</totfact>
</mgrwt>
</event>
<event>
 4    1  0.5323640E-005  0.9838535E+03  0.7818608E-02  0.9326433E-01
         -2   -1    0    0    0  501 -0.00000000000E+00  0.00000000000E+00  0.48050804586E+03  0.48050804586E+03  0.25500000000E-02 0. -1.
          2   -1    0    0  501    0  0.00000000000E+00 -0.00000000000E+00 -0.50361682657E+03  0.50361682658E+03  0.25500000000E-02 0.  1.
    5000001    1    1    2    0    0 -0.32675423228E+03  0.14437857805E+03 -0.30685341940E+03  0.49899651613E+03  0.16500000000E+03 0.  0.
   -5000001    1    1    2    0    0  0.32675423228E+03 -0.14437857805E+03  0.28374463869E+03  0.48512835631E+03  0.16500000000E+03 0.  0.
<mgrwt>
<rscale>  0 0.98385352E+03</rscale>
<asrwt>0</asrwt>
<pdfrwt beam="1">  1        2 0.71945261E-01 0.98385352E+03</pdfrwt>
<pdfrwt beam="2">  1       -2 0.68644007E-01 0.98385352E+03</pdfrwt>
<totfact> 0.12918972E+02</totfact>
</mgrwt>
</event>
<event>
 4    1  0.5323640E-005  0.4684360E+03  0.7818608E-02  0.1022363E+00
          2   -1    0    0  501    0  0.00000000000E+00  0.00000000000E+00  0.58346586322E+03  0.58346586322E+03  0.25500000000E-02 0.  1.
         -2   -1    0    0    0  501 -0.00000000000E+00 -0.00000000000E+00 -0.94021049341E+02  0.94021049376E+02  0.25500000000E-02 0. -1.
    5000001    1    1    2    0    0  0.13716050782E+02  0.16526907999E+03  0.26128043890E+03  0.35070566947E+03  0.16500000000E+03 0.  0.
   -5000001    1    1    2    0    0 -0.13716050782E+02 -0.16526907999E+03  0.22816437498E+03  0.32678124312E+03  0.16500000000E+03 0.  0.
<mgrwt>
<rscale>  0 0.46843601E+03</rscale>
<asrwt>0</asrwt>
<pdfrwt beam="1">  1        2 0.83352265E-01 0.46843601E+03</pdfrwt>
<pdfrwt beam="2">  1       -2 0.13431579E-01 0.46843601E+03</pdfrwt>
<totfact> 0.23516204E+03</totfact>
</mgrwt>
</event>
<event>
 4    1  0.5323640E-005  0.3844589E+03  0.7818608E-02  0.1049298E+00
         -2   -1    0    0    0  501 -0.00000000000E+00  0.00000000000E+00  0.46105407515E+02  0.46105407585E+02  0.25500000000E-02 0. -1.
          2   -1    0    0  501    0  0.00000000000E+00 -0.00000000000E+00 -0.80147115398E+03  0.80147115398E+03  0.25500000000E-02 0.  1.
    5000001    1    1    2    0    0 -0.86313217877E+02  0.73367765477E+01 -0.27373074097E+03  0.33114546414E+03  0.16500000000E+03 0.  0.
   -5000001    1    1    2    0    0  0.86313217877E+02 -0.73367765477E+01 -0.48163500550E+03  0.51643109743E+03  0.16500000000E+03 0.  0.
<mgrwt>
<rscale>  0 0.38445886E+03</rscale>
<asrwt>0</asrwt>
<pdfrwt beam="1">  1        2 0.11449587E+00 0.38445886E+03</pdfrwt>
<pdfrwt beam="2">  1       -2 0.65864873E-02 0.38445886E+03</pdfrwt>
<totfact> 0.50129486E+03</totfact>
</mgrwt>
</event>
<event>
 4    1  0.5323640E-005  0.8470906E+03  0.7818608E-02  0.9494250E-01
          2   -1    0    0  501    0  0.00000000000E+00  0.00000000000E+00  0.84736876017E+02  0.84736876055E+02  0.25500000000E-02 0.  1.
         -2   -1    0    0    0  501 -0.00000000000E+00 -0.00000000000E+00 -0.21170314058E+04  0.21170314058E+04  0.25500000000E-02 0. -1.
    5000001    1    1    2    0    0  0.14917678782E+03  0.35995649681E+03 -0.10643017789E+04  0.11453321222E+04  0.16500000000E+03 0.  0.
   -5000001    1    1    2    0    0 -0.14917678782E+03 -0.35995649681E+03 -0.96799275088E+03  0.10564361596E+04  0.16500000000E+03 0.  0.
<mgrwt>
<rscale>  0 0.84709062E+03</rscale>
<asrwt>0</asrwt>
<pdfrwt beam="1">  1        2 0.12105269E-01 0.84709062E+03</pdfrwt>
<pdfrwt beam="2">  1       -2 0.30243303E+00 0.84709062E+03</pdfrwt>
<totfact> 0.16558651E+01</totfact>
</mgrwt>
</event>
<event>
 4    1  0.5323640E-005  0.6393323E+03  0.7818608E-02  0.9827005E-01
         -2   -1    0    0    0  501 -0.00000000000E+00  0.00000000000E+00  0.41290962786E+03  0.41290962787E+03  0.25500000000E-02 0. -1.
          2   -1    0    0  501    0  0.00000000000E+00 -0.00000000000E+00 -0.24747895971E+03  0.24747895972E+03  0.25500000000E-02 0.  1.
    5000001    1    1    2    0    0  0.68566296390E+02 -0.26308255766E+03  0.49281481747E+02  0.32181894535E+03  0.16500000000E+03 0.  0.
   -5000001    1    1    2    0    0 -0.68566296390E+02  0.26308255766E+03  0.11614918641E+03  0.33856964224E+03  0.16500000000E+03 0.  0.
<mgrwt>
<rscale>  0 0.63933229E+03</rscale>
<asrwt>0</asrwt>
<pdfrwt beam="1">  1        2 0.35354137E-01 0.63933229E+03</pdfrwt>
<pdfrwt beam="2">  1       -2 0.58987090E-01 0.63933229E+03</pdfrwt>
<totfact> 0.40060818E+02</totfact>
</mgrwt>
</event>
<event>
 4    1  0.5323640E-005  0.4013599E+03  0.7818608E-02  0.1043310E+00
          2   -1    0    0  501    0  0.00000000000E+00  0.00000000000E+00  0.17438772695E+04  0.17438772695E+04  0.25500000000E-02 0.  1.
         -2   -1    0    0    0  501 -0.00000000000E+00 -0.00000000000E+00 -0.23093624972E+02  0.23093625113E+02  0.25500000000E-02 0. -1.
    5000001    1    1    2    0    0 -0.73445657649E+02  0.62979042586E+02  0.11277057281E+04  0.11438119748E+04  0.16500000000E+03 0.  0.
   -5000001    1    1    2    0    0  0.73445657649E+02 -0.62979042586E+02  0.59307791646E+03  0.62315891988E+03  0.16500000000E+03 0.  0.
<mgrwt>
<rscale>  0 0.40135993E+03</rscale>
<asrwt>0</asrwt>
<pdfrwt beam="1">  1        2 0.24912529E+00 0.40135993E+03</pdfrwt>
<pdfrwt beam="2">  1       -2 0.32990897E-02 0.40135993E+03</pdfrwt>
<totfact> 0.43351759E+03</totfact>
</mgrwt>
</event>
<event>
 4    1  0.5323640E-005  0.3390565E+03  0.7818608E-02  0.1067198E+00
          2   -1    0    0  501    0  0.00000000000E+00  0.00000000000E+00  0.78670870306E+03  0.78670870306E+03  0.25500000000E-02 0.  1.
         -2   -1    0    0    0  501 -0.00000000000E+00 -0.00000000000E+00 -0.36531725089E+02  0.36531725178E+02  0.25500000000E-02 0. -1.
    5000001    1    1    2    0    0 -0.38477465012E+02 -0.48805232220E+01  0.36722402865E+03  0.40445373287E+03  0.16500000000E+03 0.  0.
   -5000001    1    1    2    0    0  0.38477465012E+02  0.48805232220E+01  0.38295294932E+03  0.41878669537E+03  0.16500000000E+03 0.  0.
<mgrwt>
<rscale>  0 0.33905649E+03</rscale>
<asrwt>0</asrwt>
<pdfrwt beam="1">  1        2 0.11238696E+00 0.33905649E+03</pdfrwt>
<pdfrwt beam="2">  1       -2 0.52188177E-02 0.33905649E+03</pdfrwt>
<totfact> 0.73293429E+03</totfact>
</mgrwt>
</event>
<event>
 4    1  0.5323640E-005  0.8104180E+03  0.7818608E-02  0.9545059E-01
         -2   -1    0    0    0  501 -0.00000000000E+00  0.00000000000E+00  0.10640656707E+03  0.10640656710E+03  0.25500000000E-02 0. -1.
          2   -1    0    0  501    0  0.00000000000E+00 -0.00000000000E+00 -0.15430847236E+04  0.15430847236E+04  0.25500000000E-02 0.  1.
    5000001    1    1    2    0    0 -0.34647998919E+03 -0.12891074239E+03 -0.68291063816E+03  0.79388809169E+03  0.16500000000E+03 0.  0.
   -5000001    1    1    2    0    0  0.34647998919E+03  0.12891074239E+03 -0.75376751833E+03  0.85560319898E+03  0.16500000000E+03 0.  0.
<mgrwt>
<rscale>  0 0.81041804E+03</rscale>
<asrwt>0</asrwt>
<pdfrwt beam="1">  1        2 0.22044066E+00 0.81041804E+03</pdfrwt>
<pdfrwt beam="2">  1       -2 0.15200939E-01 0.81041804E+03</pdfrwt>
<totfact> 0.47854046E+02</totfact>
</mgrwt>
</event>
<event>
 4    1  0.5323640E-005  0.1516388E+04  0.7818608E-02  0.8873628E-01
         -2   -1    0    0    0  501 -0.00000000000E+00  0.00000000000E+00  0.72640533905E+03  0.72640533906E+03  0.25500000000E-02 0. -1.
          2   -1    0    0  501    0  0.00000000000E+00 -0.00000000000E+00 -0.79137382276E+03  0.79137382276E+03  0.25500000000E-02 0.  1.
    5000001    1    1    2    0    0 -0.65924203618E+03 -0.32181069807E+03 -0.12989249403E+03  0.76305913772E+03  0.16500000000E+03 0.  0.
   -5000001    1    1    2    0    0  0.65924203618E+03  0.32181069807E+03  0.64924010325E+02  0.75472002410E+03  0.16500000000E+03 0.  0.
<mgrwt>
<rscale>  0 0.15163880E+04</rscale>
<asrwt>0</asrwt>
<pdfrwt beam="1">  1        2 0.11305340E+00 0.15163880E+04</pdfrwt>
<pdfrwt beam="2">  1       -2 0.10377219E+00 0.15163880E+04</pdfrwt>
<totfact> 0.28188958E+01</totfact>
</mgrwt>
</event>
<event>
 4    1  0.5323640E-005  0.8050637E+03  0.7818608E-02  0.9552716E-01
          2   -1    0    0  501    0  0.00000000000E+00  0.00000000000E+00  0.24986022227E+04  0.24986022227E+04  0.25500000000E-02 0.  1.
         -2   -1    0    0    0  501 -0.00000000000E+00 -0.00000000000E+00 -0.64849011222E+02  0.64849011272E+02  0.25500000000E-02 0. -1.
    5000001    1    1    2    0    0  0.15926185304E+03 -0.32108407136E+03  0.14705637152E+04  0.15225774066E+04  0.16500000000E+03 0.  0.
   -5000001    1    1    2    0    0 -0.15926185304E+03  0.32108407136E+03  0.96318949630E+03  0.10408738274E+04  0.16500000000E+03 0.  0.
<mgrwt>
<rscale>  0 0.80506368E+03</rscale>
<asrwt>0</asrwt>
<pdfrwt beam="1">  1        2 0.35694314E+00 0.80506368E+03</pdfrwt>
<pdfrwt beam="2">  1       -2 0.92641453E-02 0.80506368E+03</pdfrwt>
<totfact> 0.35269136E+02</totfact>
</mgrwt>
</event>
<event>
 4    1  0.5323640E-005  0.4796281E+03  0.7818608E-02  0.1019237E+00
          2   -1    0    0  501    0  0.00000000000E+00  0.00000000000E+00  0.15712697893E+03  0.15712697895E+03  0.25500000000E-02 0.  1.
         -2   -1    0    0    0  501 -0.00000000000E+00 -0.00000000000E+00 -0.36601465401E+03  0.36601465401E+03  0.25500000000E-02 0. -1.
    5000001    1    1    2    0    0  0.14163372139E+03 -0.66555842941E+02 -0.18748211256E+03  0.29472755859E+03  0.16500000000E+03 0.  0.
   -5000001    1    1    2    0    0 -0.14163372139E+03  0.66555842941E+02 -0.21405562517E+02  0.22841407437E+03  0.16500000000E+03 0.  0.
<mgrwt>
<rscale>  0 0.47962809E+03</rscale>
<asrwt>0</asrwt>
<pdfrwt beam="1">  1        2 0.22446711E-01 0.47962809E+03</pdfrwt>
<pdfrwt beam="2">  1       -2 0.52287808E-01 0.47962809E+03</pdfrwt>
<totfact> 0.85995500E+02</totfact>
</mgrwt>
</event>
<event>
 4    1  0.5323640E-005  0.4415259E+03  0.7818608E-02  0.1030280E+00
          2   -1    0    0  501    0  0.00000000000E+00  0.00000000000E+00  0.40805113807E+02  0.40805113887E+02  0.25500000000E-02 0.  1.
         -2   -1    0    0    0  501 -0.00000000000E+00 -0.00000000000E+00 -0.11943666980E+04  0.11943666980E+04  0.25500000000E-02 0. -1.
    5000001    1    1    2    0    0  0.54672111553E+02  0.12312568264E+03 -0.73899510874E+03  0.76908240407E+03  0.16500000000E+03 0.  0.
   -5000001    1    1    2    0    0 -0.54672111553E+02 -0.12312568264E+03 -0.41456647542E+03  0.46608940778E+03  0.16500000000E+03 0.  0.
<mgrwt>
<rscale>  0 0.44152585E+03</rscale>
<asrwt>0</asrwt>
<pdfrwt beam="1">  1        2 0.58293027E-02 0.44152585E+03</pdfrwt>
<pdfrwt beam="2">  1       -2 0.17062379E+00 0.44152585E+03</pdfrwt>
<totfact> 0.28954252E+02</totfact>
</mgrwt>
</event>
<event>
 4    1  0.5323640E-005  0.4216733E+03  0.7818608E-02  0.1036523E+00
          2   -1    0    0  501    0  0.00000000000E+00  0.00000000000E+00  0.16885610387E+03  0.16885610389E+03  0.25500000000E-02 0.  1.
         -2   -1    0    0    0  501 -0.00000000000E+00 -0.00000000000E+00 -0.26325425544E+03  0.26325425545E+03  0.25500000000E-02 0. -1.
    5000001    1    1    2    0    0  0.12891248645E+03  0.13690036622E+02 -0.68231253751E+02  0.22064983629E+03  0.16500000000E+03 0.  0.
   -5000001    1    1    2    0    0 -0.12891248645E+03 -0.13690036622E+02 -0.26166897816E+02  0.21146052305E+03  0.16500000000E+03 0.  0.
<mgrwt>
<rscale>  0 0.42167328E+03</rscale>
<asrwt>0</asrwt>
<pdfrwt beam="1">  1        2 0.24122300E-01 0.42167328E+03</pdfrwt>
<pdfrwt beam="2">  1       -2 0.37607751E-01 0.42167328E+03</pdfrwt>
<totfact> 0.15144508E+03</totfact>
</mgrwt>
</event>
<event>
 4    1  0.5323640E-005  0.3622572E+03  0.7818608E-02  0.1057694E+00
         -2   -1    0    0    0  501 -0.00000000000E+00  0.00000000000E+00  0.13509644667E+02  0.13509644907E+02  0.25500000000E-02 0. -1.
          2   -1    0    0  501    0  0.00000000000E+00 -0.00000000000E+00 -0.24284554309E+04  0.24284554309E+04  0.25500000000E-02 0.  1.
    5000001    1    1    2    0    0  0.26106469876E+02 -0.55746896254E+02 -0.92201002480E+03  0.93867819302E+03  0.16500000000E+03 0.  0.
   -5000001    1    1    2    0    0 -0.26106469876E+02  0.55746896254E+02 -0.14929357614E+04  0.15032868828E+04  0.16500000000E+03 0.  0.
<mgrwt>
<rscale>  0 0.36225720E+03</rscale>
<asrwt>0</asrwt>
<pdfrwt beam="1">  1        2 0.34692193E+00 0.36225720E+03</pdfrwt>
<pdfrwt beam="2">  1       -2 0.19299508E-02 0.36225720E+03</pdfrwt>
<totfact> 0.44241297E+03</totfact>
</mgrwt>
</event>
<event>
 4    1  0.5323640E-005  0.8330714E+03  0.7818608E-02  0.9513344E-01
          2   -1    0    0  501    0  0.00000000000E+00  0.00000000000E+00  0.20495001643E+04  0.20495001643E+04  0.25500000000E-02 0.  1.
         -2   -1    0    0    0  501 -0.00000000000E+00 -0.00000000000E+00 -0.84655755301E+02  0.84655755340E+02  0.25500000000E-02 0. -1.
    5000001    1    1    2    0    0 -0.83889045408E+02  0.36265909187E+03  0.12074811032E+04  0.12742819953E+04  0.16500000000E+03 0.  0.
   -5000001    1    1    2    0    0  0.83889045408E+02 -0.36265909187E+03  0.75736330577E+03  0.85987392436E+03  0.16500000000E+03 0.  0.
<mgrwt>
<rscale>  0 0.83307139E+03</rscale>
<asrwt>0</asrwt>
<pdfrwt beam="1">  1        2 0.29278571E+00 0.83307139E+03</pdfrwt>
<pdfrwt beam="2">  1       -2 0.12093681E-01 0.83307139E+03</pdfrwt>
<totfact> 0.38586310E+02</totfact>
</mgrwt>
</event>
<event>
 4    1  0.5323640E-005  0.4992954E+03  0.7818608E-02  0.1013963E+00
         -2   -1    0    0    0  501 -0.00000000000E+00  0.00000000000E+00  0.16025681733E+02  0.16025681936E+02  0.25500000000E-02 0. -1.
          2   -1    0    0  501    0  0.00000000000E+00 -0.00000000000E+00 -0.38890054111E+04  0.38890054111E+04  0.25500000000E-02 0.  1.
    5000001    1    1    2    0    0 -0.17903966138E+03 -0.53045288341E+02 -0.18178874566E+04  0.18348865926E+04  0.16500000000E+03 0.  0.
   -5000001    1    1    2    0    0  0.17903966138E+03  0.53045288341E+02 -0.20550922728E+04  0.20701445004E+04  0.16500000000E+03 0.  0.
<mgrwt>
<rscale>  0 0.49929536E+03</rscale>
<asrwt>0</asrwt>
<pdfrwt beam="1">  1        2 0.55557160E+00 0.49929536E+03</pdfrwt>
<pdfrwt beam="2">  1       -2 0.22893856E-02 0.49929536E+03</pdfrwt>
<totfact> 0.51672849E+02</totfact>
</mgrwt>
</event>
<event>
 4    1  0.5323640E-005  0.4385915E+03  0.7818608E-02  0.1031180E+00
          2   -1    0    0  501    0  0.00000000000E+00  0.00000000000E+00  0.34598627856E+03  0.34598627857E+03  0.25500000000E-02 0.  1.
         -2   -1    0    0    0  501 -0.00000000000E+00 -0.00000000000E+00 -0.13899578438E+03  0.13899578441E+03  0.25500000000E-02 0. -1.
    5000001    1    1    2    0    0 -0.47873115335E+02 -0.11761626707E+03  0.17962673979E+03  0.27498397607E+03  0.16500000000E+03 0.  0.
   -5000001    1    1    2    0    0  0.47873115335E+02  0.11761626707E+03  0.27363754391E+02  0.20999808691E+03  0.16500000000E+03 0.  0.
<mgrwt>
<rscale>  0 0.43859154E+03</rscale>
<asrwt>0</asrwt>
<pdfrwt beam="1">  1        2 0.49426612E-01 0.43859154E+03</pdfrwt>
<pdfrwt beam="2">  1       -2 0.19856540E-01 0.43859154E+03</pdfrwt>
<totfact> 0.21768909E+03</totfact>
</mgrwt>
</event>
<event>
 4    1  0.5323640E-005  0.6115799E+03  0.7818608E-02  0.9881669E-01
         -2   -1    0    0    0  501 -0.00000000000E+00  0.00000000000E+00  0.28512506347E+03  0.28512506348E+03  0.25500000000E-02 0. -1.
          2   -1    0    0  501    0  0.00000000000E+00 -0.00000000000E+00 -0.32795251962E+03  0.32795251963E+03  0.25500000000E-02 0.  1.
    5000001    1    1    2    0    0 -0.24683602083E+03  0.66983318776E+02  0.81151030601E+01  0.30447601067E+03  0.16500000000E+03 0.  0.
   -5000001    1    1    2    0    0  0.24683602083E+03 -0.66983318776E+02 -0.50942559211E+02  0.30860157244E+03  0.16500000000E+03 0.  0.
<mgrwt>
<rscale>  0 0.61157987E+03</rscale>
<asrwt>0</asrwt>
<pdfrwt beam="1">  1        2 0.46850360E-01 0.61157987E+03</pdfrwt>
<pdfrwt beam="2">  1       -2 0.40732152E-01 0.61157987E+03</pdfrwt>
<totfact> 0.62019328E+02</totfact>
</mgrwt>
</event>
<event>
 4    1  0.5323640E-005  0.1132107E+04  0.7818608E-02  0.9174451E-01
         -2   -1    0    0    0  501 -0.00000000000E+00  0.00000000000E+00  0.32957944642E+03  0.32957944643E+03  0.25500000000E-02 0. -1.
          2   -1    0    0  501    0  0.00000000000E+00 -0.00000000000E+00 -0.97219786237E+03  0.97219786238E+03  0.25500000000E-02 0.  1.
    5000001    1    1    2    0    0 -0.39479629870E+03 -0.13965950671E+03  0.73387493884E+02  0.45604782593E+03  0.16500000000E+03 0.  0.
   -5000001    1    1    2    0    0  0.39479629870E+03  0.13965950671E+03 -0.71600590984E+03  0.84572948287E+03  0.16500000000E+03 0.  0.
<mgrwt>
<rscale>  0 0.11321068E+04</rscale>
<asrwt>0</asrwt>
<pdfrwt beam="1">  1        2 0.13888541E+00 0.11321068E+04</pdfrwt>
<pdfrwt beam="2">  1       -2 0.47082778E-01 0.11321068E+04</pdfrwt>
<totfact> 0.12380268E+02</totfact>
</mgrwt>
</event>
<event>
 4    1  0.5323640E-005  0.5415651E+03  0.7818608E-02  0.1003465E+00
          2   -1    0    0  501    0  0.00000000000E+00  0.00000000000E+00  0.19224029244E+03  0.19224029245E+03  0.25500000000E-02 0.  1.
         -2   -1    0    0    0  501 -0.00000000000E+00 -0.00000000000E+00 -0.38141424488E+03  0.38141424489E+03  0.25500000000E-02 0. -1.
    5000001    1    1    2    0    0 -0.19645963781E+03 -0.21963864603E+02 -0.18333308422E+03  0.31609305656E+03  0.16500000000E+03 0.  0.
   -5000001    1    1    2    0    0  0.19645963781E+03  0.21963864603E+02 -0.58408682225E+01  0.25756148078E+03  0.16500000000E+03 0.  0.
<mgrwt>
<rscale>  0 0.54156509E+03</rscale>
<asrwt>0</asrwt>
<pdfrwt beam="1">  1        2 0.27462899E-01 0.54156509E+03</pdfrwt>
<pdfrwt beam="2">  1       -2 0.54487749E-01 0.54156509E+03</pdfrwt>
<totfact> 0.62794245E+02</totfact>
</mgrwt>
</event>
<event>
 4    1  0.5323640E-005  0.4490425E+03  0.7818608E-02  0.1028008E+00
          2   -1    0    0  501    0  0.00000000000E+00  0.00000000000E+00  0.13160716622E+04  0.13160716622E+04  0.25500000000E-02 0.  1.
         -2   -1    0    0    0  501 -0.00000000000E+00 -0.00000000000E+00 -0.38303229295E+02  0.38303229380E+02  0.25500000000E-02 0. -1.
    5000001    1    1    2    0    0  0.10616976385E+03  0.10861939595E+03  0.67117280010E+03  0.70764971528E+03  0.16500000000E+03 0.  0.
   -5000001    1    1    2    0    0 -0.10616976385E+03 -0.10861939595E+03  0.60659563278E+03  0.64672517628E+03  0.16500000000E+03 0.  0.
<mgrwt>
<rscale>  0 0.44904251E+03</rscale>
<asrwt>0</asrwt>
<pdfrwt beam="1">  1        2 0.18801024E+00 0.44904251E+03</pdfrwt>
<pdfrwt beam="2">  1       -2 0.54718899E-02 0.44904251E+03</pdfrwt>
<totfact> 0.33197173E+03</totfact>
</mgrwt>
</event>
<event>
 4    1  0.5323640E-005  0.6945234E+03  0.7818608E-02  0.9726644E-01
         -2   -1    0    0    0  501 -0.00000000000E+00  0.00000000000E+00  0.14370104906E+03  0.14370104909E+03  0.25500000000E-02 0. -1.
          2   -1    0    0  501    0  0.00000000000E+00 -0.00000000000E+00 -0.83917742363E+03  0.83917742364E+03  0.25500000000E-02 0.  1.
    5000001    1    1    2    0    0  0.12039925835E+03 -0.16089123590E+03 -0.21988412510E+02  0.26094149054E+03  0.16500000000E+03 0.  0.
   -5000001    1    1    2    0    0 -0.12039925835E+03  0.16089123590E+03 -0.67348796206E+03  0.72193698218E+03  0.16500000000E+03 0.  0.
<mgrwt>
<rscale>  0 0.69452337E+03</rscale>
<asrwt>0</asrwt>
<pdfrwt beam="1">  1        2 0.11988249E+00 0.69452337E+03</pdfrwt>
<pdfrwt beam="2">  1       -2 0.20528722E-01 0.69452337E+03</pdfrwt>
<totfact> 0.73031818E+02</totfact>
</mgrwt>
</event>
<event>
 4    1  0.5323640E-005  0.6600110E+03  0.7818608E-02  0.9788174E-01
         -2   -1    0    0    0  501 -0.00000000000E+00  0.00000000000E+00  0.76284921015E+02  0.76284921058E+02  0.25500000000E-02 0. -1.
          2   -1    0    0  501    0  0.00000000000E+00 -0.00000000000E+00 -0.14275903617E+04  0.14275903617E+04  0.25500000000E-02 0.  1.
    5000001    1    1    2    0    0 -0.20259806505E+03  0.90959985462E+02 -0.26577180098E+03  0.38363960316E+03  0.16500000000E+03 0.  0.
   -5000001    1    1    2    0    0  0.20259806505E+03 -0.90959985462E+02 -0.10855336397E+04  0.11202356796E+04  0.16500000000E+03 0.  0.
<mgrwt>
<rscale>  0 0.66001096E+03</rscale>
<asrwt>0</asrwt>
<pdfrwt beam="1">  1        2 0.20394146E+00 0.66001096E+03</pdfrwt>
<pdfrwt beam="2">  1       -2 0.10897847E-01 0.66001096E+03</pdfrwt>
<totfact> 0.96451114E+02</totfact>
</mgrwt>
</event>
<event>
 4    1  0.5323640E-005  0.5325234E+03  0.7818608E-02  0.1005622E+00
          2   -1    0    0  501    0  0.00000000000E+00  0.00000000000E+00  0.55182173801E+03  0.55182173802E+03  0.25500000000E-02 0. -1.
         -2   -1    0    0    0  501 -0.00000000000E+00 -0.00000000000E+00 -0.12847497967E+03  0.12847497970E+03  0.25500000000E-02 0.  1.
    5000001    1    1    2    0    0 -0.18637482506E+03 -0.74343294508E+02  0.28624882163E+03  0.38655644962E+03  0.16500000000E+03 0.  0.
   -5000001    1    1    2    0    0  0.18637482506E+03  0.74343294508E+02  0.13709793671E+03  0.29374026810E+03  0.16500000000E+03 0.  0.
<mgrwt>
<rscale>  0 0.53252338E+03</rscale>
<asrwt>0</asrwt>
<pdfrwt beam="1">  1        2 0.78831676E-01 0.53252338E+03</pdfrwt>
<pdfrwt beam="2">  1       -2 0.18353569E-01 0.53252338E+03</pdfrwt>
<totfact> 0.14826555E+03</totfact>
</mgrwt>
</event>
<event>
 4    1  0.5323640E-005  0.4508643E+03  0.7818608E-02  0.1027465E+00
          2   -1    0    0  501    0  0.00000000000E+00  0.00000000000E+00  0.32399227775E+04  0.32399227775E+04  0.25500000000E-02 0.  1.
         -2   -1    0    0    0  501 -0.00000000000E+00 -0.00000000000E+00 -0.15685452786E+02  0.15685452993E+02  0.25500000000E-02 0. -1.
    5000001    1    1    2    0    0  0.13566150748E+03  0.67300264188E+02  0.14264319098E+04  0.14439066326E+04  0.16500000000E+03 0.  0.
   -5000001    1    1    2    0    0 -0.13566150748E+03 -0.67300264188E+02  0.17978054149E+04  0.18117015980E+04  0.16500000000E+03 0.  0.
<mgrwt>
<rscale>  0 0.45086431E+03</rscale>
<asrwt>0</asrwt>
<pdfrwt beam="1">  1        2 0.46284525E+00 0.45086431E+03</pdfrwt>
<pdfrwt beam="2">  1       -2 0.22407832E-02 0.45086431E+03</pdfrwt>
<totfact> 0.13149828E+03</totfact>
</mgrwt>
</event>
<event>
 4    1  0.5323640E-005  0.5166532E+03  0.7818608E-02  0.1009521E+00
         -2   -1    0    0    0  501 -0.00000000000E+00  0.00000000000E+00  0.52694965751E+02  0.52694965813E+02  0.25500000000E-02 0. -1.
          2   -1    0    0  501    0  0.00000000000E+00 -0.00000000000E+00 -0.12663950724E+04  0.12663950724E+04  0.25500000000E-02 0.  1.
    5000001    1    1    2    0    0  0.19678796257E+03 -0.27729344325E+02 -0.61613530820E+03  0.66808841987E+03  0.16500000000E+03 0.  0.
   -5000001    1    1    2    0    0 -0.19678796257E+03  0.27729344325E+02 -0.59756479845E+03  0.65100161835E+03  0.16500000000E+03 0.  0.
<mgrwt>
<rscale>  0 0.51665325E+03</rscale>
<asrwt>0</asrwt>
<pdfrwt beam="1">  1        2 0.18091356E+00 0.51665325E+03</pdfrwt>
<pdfrwt beam="2">  1       -2 0.75278530E-02 0.51665325E+03</pdfrwt>
<totfact> 0.21430907E+03</totfact>
</mgrwt>
</event>
<event>
 4    1  0.5323640E-005  0.4083418E+03  0.7818608E-02  0.1040929E+00
          2   -1    0    0  501    0  0.00000000000E+00  0.00000000000E+00  0.81936621035E+03  0.81936621036E+03  0.25500000000E-02 0.  1.
         -2   -1    0    0    0  501 -0.00000000000E+00 -0.00000000000E+00 -0.50875607827E+02  0.50875607891E+02  0.25500000000E-02 0. -1.
    5000001    1    1    2    0    0 -0.37105455242E+02 -0.10325531845E+03  0.48913386831E+03  0.52774559849E+03  0.16500000000E+03 0.  0.
   -5000001    1    1    2    0    0  0.37105455242E+02  0.10325531845E+03  0.27935673421E+03  0.34249621975E+03  0.16500000000E+03 0.  0.
<mgrwt>
<rscale>  0 0.40834179E+03</rscale>
<asrwt>0</asrwt>
<pdfrwt beam="1">  1        2 0.11705232E+00 0.40834179E+03</pdfrwt>
<pdfrwt beam="2">  1       -2 0.72679439E-02 0.40834179E+03</pdfrwt>
<totfact> 0.41838943E+03</totfact>
</mgrwt>
</event>
<event>
 4    1  0.5323640E-005  0.5139457E+03  0.7818608E-02  0.1010202E+00
          2   -1    0    0  501    0  0.00000000000E+00  0.00000000000E+00  0.29294448932E+04  0.29294448932E+04  0.25500000000E-02 0.  1.
         -2   -1    0    0    0  501 -0.00000000000E+00 -0.00000000000E+00 -0.22541830817E+02  0.22541830961E+02  0.25500000000E-02 0. -1.
    5000001    1    1    2    0    0 -0.76242775445E+02  0.17955840050E+03  0.12955373628E+04  0.13204909081E+04  0.16500000000E+03 0.  0.
   -5000001    1    1    2    0    0  0.76242775445E+02 -0.17955840050E+03  0.16113656996E+04  0.16314958160E+04  0.16500000000E+03 0.  0.
<mgrwt>
<rscale>  0 0.51394572E+03</rscale>
<asrwt>0</asrwt>
<pdfrwt beam="1">  1        2 0.41849149E+00 0.51394572E+03</pdfrwt>
<pdfrwt beam="2">  1       -2 0.32202665E-02 0.51394572E+03</pdfrwt>
<totfact> 0.11192886E+03</totfact>
</mgrwt>
</event>
<event>
 4    1  0.5323640E-005  0.5028599E+03  0.7818608E-02  0.1013035E+00
         -2   -1    0    0    0  501 -0.00000000000E+00  0.00000000000E+00  0.10439328371E+03  0.10439328374E+03  0.25500000000E-02 0. -1.
          2   -1    0    0  501    0  0.00000000000E+00 -0.00000000000E+00 -0.60556595984E+03  0.60556595985E+03  0.25500000000E-02 0.  1.
    5000001    1    1    2    0    0  0.18762589669E+03  0.13157039393E+02 -0.28561126620E+03  0.37970433257E+03  0.16500000000E+03 0.  0.
   -5000001    1    1    2    0    0 -0.18762589669E+03 -0.13157039393E+02 -0.21556140994E+03  0.33025491102E+03  0.16500000000E+03 0.  0.
<mgrwt>
<rscale>  0 0.50285990E+03</rscale>
<asrwt>0</asrwt>
<pdfrwt beam="1">  1        2 0.86509422E-01 0.50285990E+03</pdfrwt>
<pdfrwt beam="2">  1       -2 0.14913326E-01 0.50285990E+03</pdfrwt>
<totfact> 0.18925058E+03</totfact>
</mgrwt>
</event>
<event>
 4    1  0.5323640E-005  0.5909856E+03  0.7818608E-02  0.9924286E-01
          2   -1    0    0  501    0  0.00000000000E+00  0.00000000000E+00  0.53252266460E+03  0.53252266461E+03  0.25500000000E-02 0.  1.
         -2   -1    0    0    0  501 -0.00000000000E+00 -0.00000000000E+00 -0.16396674490E+03  0.16396674492E+03  0.25500000000E-02 0. -1.
    5000001    1    1    2    0    0 -0.17698019615E+03  0.16304988129E+03  0.23935105327E+03  0.37738730811E+03  0.16500000000E+03 0.  0.
   -5000001    1    1    2    0    0  0.17698019615E+03 -0.16304988129E+03  0.12920486643E+03  0.31910210142E+03  0.16500000000E+03 0.  0.
<mgrwt>
<rscale>  0 0.59098564E+03</rscale>
<asrwt>0</asrwt>
<pdfrwt beam="1">  1        2 0.76074667E-01 0.59098564E+03</pdfrwt>
<pdfrwt beam="2">  1       -2 0.23423820E-01 0.59098564E+03</pdfrwt>
<totfact> 0.10081943E+03</totfact>
</mgrwt>
</event>
<event>
 4    1  0.5323640E-005  0.5585728E+03  0.7818608E-02  0.9995289E-01
         -2   -1    0    0    0  501 -0.00000000000E+00  0.00000000000E+00  0.42126389935E+02  0.42126390012E+02  0.25500000000E-02 0. -1.
          2   -1    0    0  501    0  0.00000000000E+00 -0.00000000000E+00 -0.18515918987E+04  0.18515918987E+04  0.25500000000E-02 0.  1.
    5000001    1    1    2    0    0  0.14183942163E+03  0.14249031040E+03 -0.55975656587E+03  0.61723117478E+03  0.16500000000E+03 0.  0.
   -5000001    1    1    2    0    0 -0.14183942163E+03 -0.14249031040E+03 -0.12497089429E+04  0.12764871140E+04  0.16500000000E+03 0.  0.
<mgrwt>
<rscale>  0 0.55857276E+03</rscale>
<asrwt>0</asrwt>
<pdfrwt beam="1">  1        2 0.26451308E+00 0.55857276E+03</pdfrwt>
<pdfrwt beam="2">  1       -2 0.60180569E-02 0.55857276E+03</pdfrwt>
<totfact> 0.15149679E+03</totfact>
</mgrwt>
</event>
<event>
 4    1  0.5323640E-005  0.5751835E+03  0.7818608E-02  0.9958274E-01
         -2   -1    0    0    0  501 -0.00000000000E+00  0.00000000000E+00  0.60118814918E+02  0.60118814972E+02  0.25500000000E-02 0. -1.
          2   -1    0    0  501    0  0.00000000000E+00 -0.00000000000E+00 -0.13757590329E+04  0.13757590329E+04  0.25500000000E-02 0.  1.
    5000001    1    1    2    0    0  0.23051137448E+03  0.43770655462E+02 -0.70974478222E+03  0.76551552560E+03  0.16500000000E+03 0.  0.
   -5000001    1    1    2    0    0 -0.23051137448E+03 -0.43770655462E+02 -0.60589543574E+03  0.67036232225E+03  0.16500000000E+03 0.  0.
<mgrwt>
<rscale>  0 0.57518346E+03</rscale>
<asrwt>0</asrwt>
<pdfrwt beam="1">  1        2 0.19653698E+00 0.57518346E+03</pdfrwt>
<pdfrwt beam="2">  1       -2 0.85884030E-02 0.57518346E+03</pdfrwt>
<totfact> 0.15151111E+03</totfact>
</mgrwt>
</event>
<event>
 4    1  0.5323640E-005  0.7207496E+03  0.7818608E-02  0.9682391E-01
          2   -1    0    0  501    0  0.00000000000E+00  0.00000000000E+00  0.14482385638E+04  0.14482385638E+04  0.25500000000E-02 0.  1.
         -2   -1    0    0    0  501 -0.00000000000E+00 -0.00000000000E+00 -0.89674453304E+02  0.89674453340E+02  0.25500000000E-02 0. -1.
    5000001    1    1    2    0    0  0.12449405660E+03  0.29520384101E+03  0.67723139864E+03  0.76714499619E+03  0.16500000000E+03 0.  0.
   -5000001    1    1    2    0    0 -0.12449405660E+03 -0.29520384101E+03  0.68133271188E+03  0.77076802097E+03  0.16500000000E+03 0.  0.
<mgrwt>
<rscale>  0 0.72074961E+03</rscale>
<asrwt>0</asrwt>
<pdfrwt beam="1">  1        2 0.20689120E+00 0.72074961E+03</pdfrwt>
<pdfrwt beam="2">  1       -2 0.12810638E-01 0.72074961E+03</pdfrwt>
<totfact> 0.71855947E+02</totfact>
</mgrwt>
</event>
<event>
 4    1  0.5323640E-005  0.5660143E+03  0.7818608E-02  0.9978537E-01
         -2   -1    0    0    0  501 -0.00000000000E+00  0.00000000000E+00  0.60036640042E+02  0.60036640096E+02  0.25500000000E-02 0. -1.
          2   -1    0    0  501    0  0.00000000000E+00 -0.00000000000E+00 -0.13340694605E+04  0.13340694605E+04  0.25500000000E-02 0.  1.
    5000001    1    1    2    0    0  0.13704608189E+03  0.16409069740E+03 -0.42859370738E+03  0.50658163364E+03  0.16500000000E+03 0.  0.
   -5000001    1    1    2    0    0 -0.13704608189E+03 -0.16409069740E+03 -0.84543911312E+03  0.88752446700E+03  0.16500000000E+03 0.  0.
<mgrwt>
<rscale>  0 0.56601430E+03</rscale>
<asrwt>0</asrwt>
<pdfrwt beam="1">  1        2 0.19058133E+00 0.56601430E+03</pdfrwt>
<pdfrwt beam="2">  1       -2 0.85766637E-02 0.56601430E+03</pdfrwt>
<totfact> 0.15989135E+03</totfact>
</mgrwt>
</event>
<event>
 4    1  0.5323640E-005  0.7932058E+03  0.7818608E-02  0.9569904E-01
          2   -1    0    0  501    0  0.00000000000E+00  0.00000000000E+00  0.10102333189E+04  0.10102333189E+04  0.25500000000E-02 0.  1.
         -2   -1    0    0    0  501 -0.00000000000E+00 -0.00000000000E+00 -0.15570054632E+03  0.15570054634E+03  0.25500000000E-02 0. -1.
    5000001    1    1    2    0    0 -0.48681527626E+02 -0.32498783269E+03  0.20883944699E+03  0.42287811145E+03  0.16500000000E+03 0.  0.
   -5000001    1    1    2    0    0  0.48681527626E+02  0.32498783269E+03  0.64569332558E+03  0.74305575378E+03  0.16500000000E+03 0.  0.
<mgrwt>
<rscale>  0 0.79320585E+03</rscale>
<asrwt>0</asrwt>
<pdfrwt beam="1">  1        2 0.14431905E+00 0.79320585E+03</pdfrwt>
<pdfrwt beam="2">  1       -2 0.22242935E-01 0.79320585E+03</pdfrwt>
<totfact> 0.49075044E+02</totfact>
</mgrwt>
</event>
<event>
 4    1  0.5323640E-005  0.6013255E+03  0.7818608E-02  0.9902660E-01
         -2   -1    0    0    0  501 -0.00000000000E+00  0.00000000000E+00  0.65901010180E+02  0.65901010230E+02  0.25500000000E-02 0. -1.
          2   -1    0    0  501    0  0.00000000000E+00 -0.00000000000E+00 -0.13717254908E+04  0.13717254908E+04  0.25500000000E-02 0.  1.
    5000001    1    1    2    0    0  0.14650655876E+03 -0.20171277893E+03 -0.72929995004E+03  0.78819771255E+03  0.16500000000E+03 0.  0.
   -5000001    1    1    2    0    0 -0.14650655876E+03  0.20171277893E+03 -0.57652453056E+03  0.64942878846E+03  0.16500000000E+03 0.  0.
<mgrwt>
<rscale>  0 0.60132552E+03</rscale>
<asrwt>0</asrwt>
<pdfrwt beam="1">  1        2 0.19596077E+00 0.60132552E+03</pdfrwt>
<pdfrwt beam="2">  1       -2 0.94144308E-02 0.60132552E+03</pdfrwt>
<totfact> 0.13127221E+03</totfact>
</mgrwt>
</event>
<event>
 4    1  0.5323640E-005  0.4066584E+03  0.7818608E-02  0.1041498E+00
         -2   -1    0    0    0  501 -0.00000000000E+00  0.00000000000E+00  0.46374858791E+02  0.46374858862E+02  0.25500000000E-02 0. -1.
          2   -1    0    0  501    0  0.00000000000E+00 -0.00000000000E+00 -0.89149080775E+03  0.89149080776E+03  0.25500000000E-02 0.  1.
    5000001    1    1    2    0    0  0.10392929298E+03 -0.51509677218E+02 -0.48195138500E+03  0.52245256463E+03  0.16500000000E+03 0.  0.
   -5000001    1    1    2    0    0 -0.10392929298E+03  0.51509677218E+02 -0.36316456396E+03  0.41541310199E+03  0.16500000000E+03 0.  0.
<mgrwt>
<rscale>  0 0.40665838E+03</rscale>
<asrwt>0</asrwt>
<pdfrwt beam="1">  1        2 0.12735582E+00 0.40665838E+03</pdfrwt>
<pdfrwt beam="2">  1       -2 0.66249804E-02 0.40665838E+03</pdfrwt>
<totfact> 0.43370593E+03</totfact>
</mgrwt>
</event>
<event>
 4    1  0.5323640E-005  0.3697741E+03  0.7818608E-02  0.1054779E+00
         -2   -1    0    0    0  501 -0.00000000000E+00  0.00000000000E+00  0.86577994545E+02  0.86577994583E+02  0.25500000000E-02 0. -1.
          2   -1    0    0  501    0  0.00000000000E+00 -0.00000000000E+00 -0.39482572194E+03  0.39482572195E+03  0.25500000000E-02 0.  1.
    5000001    1    1    2    0    0  0.14040698671E+02 -0.32018835383E+02 -0.25272290568E+03  0.30383583412E+03  0.16500000000E+03 0.  0.
   -5000001    1    1    2    0    0 -0.14040698671E+02  0.32018835383E+02 -0.55524821714E+02  0.17756788241E+03  0.16500000000E+03 0.  0.
<mgrwt>
<rscale>  0 0.36977409E+03</rscale>
<asrwt>0</asrwt>
<pdfrwt beam="1">  1        2 0.56403674E-01 0.36977409E+03</pdfrwt>
<pdfrwt beam="2">  1       -2 0.12368285E-01 0.36977409E+03</pdfrwt>
<totfact> 0.41560277E+03</totfact>
</mgrwt>
</event>
<event>
 4    1  0.5323640E-005  0.1145155E+04  0.7818608E-02  0.9162265E-01
          2   -1    0    0  501    0  0.00000000000E+00  0.00000000000E+00  0.14129672228E+04  0.14129672228E+04  0.25500000000E-02 0.  1.
         -2   -1    0    0    0  501 -0.00000000000E+00 -0.00000000000E+00 -0.23202605805E+03  0.23202605806E+03  0.25500000000E-02 0. -1.
    5000001    1    1    2    0    0 -0.54551941495E+03 -0.13665307490E+01  0.51143915078E+03  0.76575995223E+03  0.16500000000E+03 0.  0.
   -5000001    1    1    2    0    0  0.54551941495E+03  0.13665307490E+01  0.66950201402E+03  0.87923332868E+03  0.16500000000E+03 0.  0.
<mgrwt>
<rscale>  0 0.11451554E+04</rscale>
<asrwt>0</asrwt>
<pdfrwt beam="1">  1        2 0.20185245E+00 0.11451554E+04</pdfrwt>
<pdfrwt beam="2">  1       -2 0.33146581E-01 0.11451554E+04</pdfrwt>
<totfact> 0.13679862E+02</totfact>
</mgrwt>
</event>
<event>
 4    1  0.5323640E-005  0.9012157E+03  0.7818608E-02  0.9424063E-01
          2   -1    0    0  501    0  0.00000000000E+00  0.00000000000E+00  0.15395760166E+04  0.15395760167E+04  0.25500000000E-02 0.  1.
         -2   -1    0    0    0  501 -0.00000000000E+00 -0.00000000000E+00 -0.13188529423E+03  0.13188529425E+03  0.25500000000E-02 0. -1.
    5000001    1    1    2    0    0  0.30826494240E+03 -0.28229896673E+03  0.76542653213E+03  0.88759380204E+03  0.16500000000E+03 0.  0.
   -5000001    1    1    2    0    0 -0.30826494240E+03  0.28229896673E+03  0.64226419029E+03  0.78386750887E+03  0.16500000000E+03 0.  0.
<mgrwt>
<rscale>  0 0.90121570E+03</rscale>
<asrwt>0</asrwt>
<pdfrwt beam="1">  1        2 0.21993941E+00 0.90121570E+03</pdfrwt>
<pdfrwt beam="2">  1       -2 0.18840758E-01 0.90121570E+03</pdfrwt>
<totfact> 0.33078285E+02</totfact>
</mgrwt>
</event>
<event>
 4    1  0.5323640E-005  0.3432338E+03  0.7818608E-02  0.1065427E+00
         -2   -1    0    0    0  501 -0.00000000000E+00  0.00000000000E+00  0.36115791266E+02  0.36115791356E+02  0.25500000000E-02 0. -1.
          2   -1    0    0  501    0  0.00000000000E+00 -0.00000000000E+00 -0.81549819793E+03  0.81549819793E+03  0.25500000000E-02 0.  1.
    5000001    1    1    2    0    0  0.18294700880E+02  0.31965083761E+02 -0.46291241049E+03  0.49281777814E+03  0.16500000000E+03 0.  0.
   -5000001    1    1    2    0    0 -0.18294700880E+02 -0.31965083761E+02 -0.31646999617E+03  0.35879621115E+03  0.16500000000E+03 0.  0.
<mgrwt>
<rscale>  0 0.34323381E+03</rscale>
<asrwt>0</asrwt>
<pdfrwt beam="1">  1        2 0.11649973E+00 0.34323381E+03</pdfrwt>
<pdfrwt beam="2">  1       -2 0.51593993E-02 0.34323381E+03</pdfrwt>
<totfact> 0.71334567E+03</totfact>
</mgrwt>
</event>
<event>
 4    1  0.5323640E-005  0.6061511E+03  0.7818608E-02  0.9892726E-01
          2   -1    0    0  501    0  0.00000000000E+00  0.00000000000E+00  0.99990596104E+03  0.99990596104E+03  0.25500000000E-02 0.  1.
         -2   -1    0    0    0  501 -0.00000000000E+00 -0.00000000000E+00 -0.91863440452E+02  0.91863440488E+02  0.25500000000E-02 0. -1.
    5000001    1    1    2    0    0  0.13212331235E+03 -0.19182617453E+03  0.63749078808E+03  0.69847931665E+03  0.16500000000E+03 0.  0.
   -5000001    1    1    2    0    0 -0.13212331235E+03  0.19182617453E+03  0.27055173251E+03  0.39329008488E+03  0.16500000000E+03 0.  0.
<mgrwt>
<rscale>  0 0.60615114E+03</rscale>
<asrwt>0</asrwt>
<pdfrwt beam="1">  1        2 0.14284370E+00 0.60615114E+03</pdfrwt>
<pdfrwt beam="2">  1       -2 0.13123349E-01 0.60615114E+03</pdfrwt>
<totfact> 0.12378015E+03</totfact>
</mgrwt>
</event>
<event>
 4    1  0.5323640E-005  0.1288340E+04  0.7818608E-02  0.9038863E-01
         -2   -1    0    0    0  501 -0.00000000000E+00  0.00000000000E+00  0.48889267143E+03  0.48889267144E+03  0.25500000000E-02 0. -1.
          2   -1    0    0  501    0  0.00000000000E+00 -0.00000000000E+00 -0.84876483881E+03  0.84876483881E+03  0.25500000000E-02 0.  1.
    5000001    1    1    2    0    0 -0.54620797815E+03 -0.12540560112E+03 -0.46172953632E+03  0.74464010427E+03  0.16500000000E+03 0.  0.
   -5000001    1    1    2    0    0  0.54620797815E+03  0.12540560112E+03  0.10185736894E+03  0.59301740598E+03  0.16500000000E+03 0.  0.
<mgrwt>
<rscale>  0 0.12883399E+04</rscale>
<asrwt>0</asrwt>
<pdfrwt beam="1">  1        2 0.12125212E+00 0.12883399E+04</pdfrwt>
<pdfrwt beam="2">  1       -2 0.69841810E-01 0.12883399E+04</pdfrwt>
<totfact> 0.64549792E+01</totfact>
</mgrwt>
</event>
<event>
 4    1  0.5323640E-005  0.7059959E+03  0.7818608E-02  0.9707033E-01
         -2   -1    0    0    0  501 -0.00000000000E+00  0.00000000000E+00  0.74358337496E+02  0.74358337540E+02  0.25500000000E-02 0. -1.
          2   -1    0    0  501    0  0.00000000000E+00 -0.00000000000E+00 -0.16757710184E+04  0.16757710184E+04  0.25500000000E-02 0.  1.
    5000001    1    1    2    0    0 -0.19756951242E+03 -0.23105800332E+03 -0.97531029502E+03  0.10348317181E+04  0.16500000000E+03 0.  0.
   -5000001    1    1    2    0    0  0.19756951242E+03  0.23105800332E+03 -0.62610238584E+03  0.71529763784E+03  0.16500000000E+03 0.  0.
<mgrwt>
<rscale>  0 0.70599588E+03</rscale>
<asrwt>0</asrwt>
<pdfrwt beam="1">  1        2 0.23939584E+00 0.70599588E+03</pdfrwt>
<pdfrwt beam="2">  1       -2 0.10622621E-01 0.70599588E+03</pdfrwt>
<totfact> 0.74554219E+02</totfact>
</mgrwt>
</event>
<event>
 4    1  0.5323640E-005  0.6762355E+03  0.7818608E-02  0.9758758E-01
         -2   -1    0    0    0  501 -0.00000000000E+00  0.00000000000E+00  0.42573098131E+03  0.42573098132E+03  0.25500000000E-02 0. -1.
          2   -1    0    0  501    0  0.00000000000E+00 -0.00000000000E+00 -0.26853487971E+03  0.26853487972E+03  0.25500000000E-02 0.  1.
    5000001    1    1    2    0    0  0.26479057137E+03 -0.10454331985E+03  0.15848841998E+03  0.36522175685E+03  0.16500000000E+03 0.  0.
   -5000001    1    1    2    0    0 -0.26479057137E+03  0.10454331985E+03 -0.12923183677E+01  0.32904410419E+03  0.16500000000E+03 0.  0.
<mgrwt>
<rscale>  0 0.67623551E+03</rscale>
<asrwt>0</asrwt>
<pdfrwt beam="1">  1        2 0.38362126E-01 0.67623551E+03</pdfrwt>
<pdfrwt beam="2">  1       -2 0.60818712E-01 0.67623551E+03</pdfrwt>
<totfact> 0.34271304E+02</totfact>
</mgrwt>
</event>
<event>
 4    1  0.5323640E-005  0.9020295E+03  0.7818608E-02  0.9423048E-01
          2   -1    0    0  501    0  0.00000000000E+00  0.00000000000E+00  0.57890727196E+03  0.57890727197E+03  0.25500000000E-02 0.  1.
         -2   -1    0    0    0  501 -0.00000000000E+00 -0.00000000000E+00 -0.35137631392E+03  0.35137631393E+03  0.25500000000E-02 0. -1.
    5000001    1    1    2    0    0 -0.34482329597E+03  0.65460690374E+02 -0.12366531428E+03  0.40707040839E+03  0.16500000000E+03 0.  0.
   -5000001    1    1    2    0    0  0.34482329597E+03 -0.65460690374E+02  0.35119627232E+03  0.52321317751E+03  0.16500000000E+03 0.  0.
<mgrwt>
<rscale>  0 0.90202950E+03</rscale>
<asrwt>0</asrwt>
<pdfrwt beam="1">  1        2 0.82701038E-01 0.90202950E+03</pdfrwt>
<pdfrwt beam="2">  1       -2 0.50196617E-01 0.90202950E+03</pdfrwt>
<totfact> 0.21309765E+02</totfact>
</mgrwt>
</event>
<event>
 4    1  0.5323640E-005  0.4448962E+03  0.7818608E-02  0.1029255E+00
         -2   -1    0    0    0  501 -0.00000000000E+00  0.00000000000E+00  0.19118765067E+02  0.19118765237E+02  0.25500000000E-02 0. -1.
          2   -1    0    0  501    0  0.00000000000E+00 -0.00000000000E+00 -0.25881986648E+04  0.25881986648E+04  0.25500000000E-02 0.  1.
    5000001    1    1    2    0    0  0.73402192966E+01 -0.90750958507E+02 -0.59189478377E+03  0.62117151443E+03  0.16500000000E+03 0.  0.
   -5000001    1    1    2    0    0 -0.73402192966E+01  0.90750958507E+02 -0.19771851159E+04  0.19861459156E+04  0.16500000000E+03 0.  0.
<mgrwt>
<rscale>  0 0.44489622E+03</rscale>
<asrwt>0</asrwt>
<pdfrwt beam="1">  1        2 0.36974244E+00 0.44489622E+03</pdfrwt>
<pdfrwt beam="2">  1       -2 0.27312538E-02 0.44489622E+03</pdfrwt>
<totfact> 0.21775377E+03</totfact>
</mgrwt>
</event>
<event>
 4    1  0.5323640E-005  0.5485563E+03  0.7818608E-02  0.1001829E+00
          2   -1    0    0  501    0  0.00000000000E+00  0.00000000000E+00  0.50079683497E+03  0.50079683498E+03  0.25500000000E-02 0.  1.
         -2   -1    0    0    0  501 -0.00000000000E+00 -0.00000000000E+00 -0.15021759471E+03  0.15021759473E+03  0.25500000000E-02 0. -1.
    5000001    1    1    2    0    0  0.13386254216E+03 -0.17194689792E+03  0.14826389523E+03  0.31095353114E+03  0.16500000000E+03 0.  0.
   -5000001    1    1    2    0    0 -0.13386254216E+03  0.17194689792E+03  0.20231534503E+03  0.34006089857E+03  0.16500000000E+03 0.  0.
<mgrwt>
<rscale>  0 0.54855627E+03</rscale>
<asrwt>0</asrwt>
<pdfrwt beam="1">  1        2 0.71542406E-01 0.54855627E+03</pdfrwt>
<pdfrwt beam="2">  1       -2 0.21459656E-01 0.54855627E+03</pdfrwt>
<totfact> 0.12627407E+03</totfact>
</mgrwt>
</event>
<event>
 4    1  0.5323640E-005  0.4751769E+03  0.7818608E-02  0.1020469E+00
         -2   -1    0    0    0  501 -0.00000000000E+00  0.00000000000E+00  0.28924167854E+02  0.28924167967E+02  0.25500000000E-02 0. -1.
          2   -1    0    0  501    0  0.00000000000E+00 -0.00000000000E+00 -0.19515953425E+04  0.19515953425E+04  0.25500000000E-02 0.  1.
    5000001    1    1    2    0    0  0.12730509745E+03  0.83632934123E+02 -0.63788945250E+03  0.67626105102E+03  0.16500000000E+03 0.  0.
   -5000001    1    1    2    0    0 -0.12730509745E+03 -0.83632934123E+02 -0.12847817222E+04  0.13042584595E+04  0.16500000000E+03 0.  0.
<mgrwt>
<rscale>  0 0.47517690E+03</rscale>
<asrwt>0</asrwt>
<pdfrwt beam="1">  1        2 0.27879925E+00 0.47517690E+03</pdfrwt>
<pdfrwt beam="2">  1       -2 0.41320252E-02 0.47517690E+03</pdfrwt>
<totfact> 0.24226378E+03</totfact>
</mgrwt>
</event>
<event>
 4    1  0.5323640E-005  0.4693926E+03  0.7818608E-02  0.1022092E+00
         -2   -1    0    0    0  501 -0.00000000000E+00  0.00000000000E+00  0.99918643313E+02  0.99918643346E+02  0.25500000000E-02 0. -1.
          2   -1    0    0  501    0  0.00000000000E+00 -0.00000000000E+00 -0.55127199302E+03  0.55127199303E+03  0.25500000000E-02 0.  1.
    5000001    1    1    2    0    0 -0.11118582731E+03  0.12032890442E+03 -0.26989703168E+03  0.35624533842E+03  0.16500000000E+03 0.  0.
   -5000001    1    1    2    0    0  0.11118582731E+03 -0.12032890442E+03 -0.18145631802E+03  0.29494529795E+03  0.16500000000E+03 0.  0.
<mgrwt>
<rscale>  0 0.46939258E+03</rscale>
<asrwt>0</asrwt>
<pdfrwt beam="1">  1        2 0.78753140E-01 0.46939258E+03</pdfrwt>
<pdfrwt beam="2">  1       -2 0.14274092E-01 0.46939258E+03</pdfrwt>
<totfact> 0.22695190E+03</totfact>
</mgrwt>
</event>
<event>
 4    1  0.5323640E-005  0.5701252E+03  0.7818608E-02  0.9969402E-01
          2   -1    0    0  501    0  0.00000000000E+00  0.00000000000E+00  0.99660967870E+03  0.99660967870E+03  0.25500000000E-02 0.  1.
         -2   -1    0    0    0  501 -0.00000000000E+00 -0.00000000000E+00 -0.81537120330E+02  0.81537120370E+02  0.25500000000E-02 0. -1.
    5000001    1    1    2    0    0 -0.21140490770E+03 -0.95935793916E+02  0.47990946784E+03  0.55806254925E+03  0.16500000000E+03 0.  0.
   -5000001    1    1    2    0    0  0.21140490770E+03  0.95935793916E+02  0.43516309053E+03  0.52008424982E+03  0.16500000000E+03 0.  0.
<mgrwt>
<rscale>  0 0.57012519E+03</rscale>
<asrwt>0</asrwt>
<pdfrwt beam="1">  1        2 0.14237281E+00 0.57012519E+03</pdfrwt>
<pdfrwt beam="2">  1       -2 0.11648160E-01 0.57012519E+03</pdfrwt>
<totfact> 0.15149817E+03</totfact>
</mgrwt>
</event>
<event>
 4    1  0.5323640E-005  0.5174876E+03  0.7818608E-02  0.1009313E+00
          2   -1    0    0  501    0  0.00000000000E+00  0.00000000000E+00  0.36897035386E+03  0.36897035387E+03  0.25500000000E-02 0.  1.
         -2   -1    0    0    0  501 -0.00000000000E+00 -0.00000000000E+00 -0.18144640827E+03  0.18144640829E+03  0.25500000000E-02 0. -1.
    5000001    1    1    2    0    0  0.14360696904E+02 -0.13022364810E+03  0.25351564786E+03  0.32963557430E+03  0.16500000000E+03 0.  0.
   -5000001    1    1    2    0    0 -0.14360696904E+02  0.13022364810E+03 -0.65991702269E+02  0.22078118785E+03  0.16500000000E+03 0.  0.
<mgrwt>
<rscale>  0 0.51748757E+03</rscale>
<asrwt>0</asrwt>
<pdfrwt beam="1">  1        2 0.52710050E-01 0.51748757E+03</pdfrwt>
<pdfrwt beam="2">  1       -2 0.25920916E-01 0.51748757E+03</pdfrwt>
<totfact> 0.12693274E+03</totfact>
</mgrwt>
</event>
<event>
 4    1  0.5323640E-005  0.7742802E+03  0.7818608E-02  0.9598010E-01
         -2   -1    0    0    0  501 -0.00000000000E+00  0.00000000000E+00  0.22235049124E+03  0.22235049126E+03  0.25500000000E-02 0. -1.
          2   -1    0    0  501    0  0.00000000000E+00 -0.00000000000E+00 -0.67405951952E+03  0.67405951952E+03  0.25500000000E-02 0.  1.
    5000001    1    1    2    0    0  0.30240543630E+03 -0.12855507784E+03 -0.36611240954E+03  0.51888221435E+03  0.16500000000E+03 0.  0.
   -5000001    1    1    2    0    0 -0.30240543630E+03  0.12855507784E+03 -0.85596618728E+02  0.37752779643E+03  0.16500000000E+03 0.  0.
<mgrwt>
<rscale>  0 0.77428022E+03</rscale>
<asrwt>0</asrwt>
<pdfrwt beam="1">  1        2 0.96294216E-01 0.77428022E+03</pdfrwt>
<pdfrwt beam="2">  1       -2 0.31764356E-01 0.77428022E+03</pdfrwt>
<totfact> 0.43588878E+02</totfact>
</mgrwt>
</event>
<event>
 4    1  0.5323640E-005  0.4567440E+03  0.7818608E-02  0.1025730E+00
          2   -1    0    0  501    0  0.00000000000E+00  0.00000000000E+00  0.96041912111E+02  0.96041912145E+02  0.25500000000E-02 0.  1.
         -2   -1    0    0    0  501 -0.00000000000E+00 -0.00000000000E+00 -0.54303143101E+03  0.54303143101E+03  0.25500000000E-02 0. -1.
    5000001    1    1    2    0    0 -0.10509467246E+03  0.11174843724E+03 -0.27577619833E+03  0.35610407885E+03  0.16500000000E+03 0.  0.
   -5000001    1    1    2    0    0  0.10509467246E+03 -0.11174843724E+03 -0.17121332056E+03  0.28296926431E+03  0.16500000000E+03 0.  0.
<mgrwt>
<rscale>  0 0.45674403E+03</rscale>
<asrwt>0</asrwt>
<pdfrwt beam="1">  1        2 0.13720273E-01 0.45674403E+03</pdfrwt>
<pdfrwt beam="2">  1       -2 0.77575917E-01 0.45674403E+03</pdfrwt>
<totfact> 0.66636033E+02</totfact>
</mgrwt>
</event>
<event>
 4    1  0.5323640E-005  0.3763073E+03  0.7818608E-02  0.1052307E+00
         -2   -1    0    0    0  501 -0.00000000000E+00  0.00000000000E+00  0.65684243376E+03  0.65684243376E+03  0.25500000000E-02 0. -1.
          2   -1    0    0  501    0  0.00000000000E+00 -0.00000000000E+00 -0.53896925226E+02  0.53896925286E+02  0.25500000000E-02 0.  1.
    5000001    1    1    2    0    0  0.52120545389E+02  0.69548276955E+02  0.34862551220E+03  0.39537104325E+03  0.16500000000E+03 0.  0.
   -5000001    1    1    2    0    0 -0.52120545389E+02 -0.69548276955E+02  0.25431999633E+03  0.31536831580E+03  0.16500000000E+03 0.  0.
<mgrwt>
<rscale>  0 0.37630726E+03</rscale>
<asrwt>0</asrwt>
<pdfrwt beam="1">  1        2 0.76995604E-02 0.37630726E+03</pdfrwt>
<pdfrwt beam="2">  1       -2 0.93834638E-01 0.37630726E+03</pdfrwt>
<totfact> 0.89394256E+02</totfact>
</mgrwt>
</event>
<event>
 4    1  0.5323640E-005  0.5704649E+03  0.7818608E-02  0.9968650E-01
         -2   -1    0    0    0  501 -0.00000000000E+00  0.00000000000E+00  0.79490021823E+02  0.79490021864E+02  0.25500000000E-02 0. -1.
          2   -1    0    0  501    0  0.00000000000E+00 -0.00000000000E+00 -0.10234938633E+04  0.10234938633E+04  0.25500000000E-02 0.  1.
    5000001    1    1    2    0    0  0.19417967936E+03  0.37682240792E+02 -0.23514557824E+03  0.34877520283E+03  0.16500000000E+03 0.  0.
   -5000001    1    1    2    0    0 -0.19417967936E+03 -0.37682240792E+02 -0.70885826324E+03  0.75420868234E+03  0.16500000000E+03 0.  0.
<mgrwt>
<rscale>  0 0.57046490E+03</rscale>
<asrwt>0</asrwt>
<pdfrwt beam="1">  1        2 0.14621340E+00 0.57046490E+03</pdfrwt>
<pdfrwt beam="2">  1       -2 0.11355718E-01 0.57046490E+03</pdfrwt>
<totfact> 0.15213332E+03</totfact>
</mgrwt>
</event>
<event>
 4    1  0.5323640E-005  0.4672777E+03  0.7818608E-02  0.1022691E+00
          2   -1    0    0  501    0  0.00000000000E+00  0.00000000000E+00  0.66590758603E+03  0.66590758604E+03  0.25500000000E-02 0.  1.
         -2   -1    0    0    0  501 -0.00000000000E+00 -0.00000000000E+00 -0.81974016747E+02  0.81974016787E+02  0.25500000000E-02 0. -1.
    5000001    1    1    2    0    0  0.15148680529E+03 -0.22580857602E+02  0.39196934742E+03  0.45202114622E+03  0.16500000000E+03 0.  0.
   -5000001    1    1    2    0    0 -0.15148680529E+03  0.22580857602E+02  0.19196422186E+03  0.29586045661E+03  0.16500000000E+03 0.  0.
<mgrwt>
<rscale>  0 0.46727773E+03</rscale>
<asrwt>0</asrwt>
<pdfrwt beam="1">  1        2 0.95129653E-01 0.46727773E+03</pdfrwt>
<pdfrwt beam="2">  1       -2 0.11710574E-01 0.46727773E+03</pdfrwt>
<totfact> 0.25217204E+03</totfact>
</mgrwt>
</event>
<event>
 4    1  0.5323640E-005  0.4585898E+03  0.7818608E-02  0.1025191E+00
          2   -1    0    0  501    0  0.00000000000E+00  0.00000000000E+00  0.47262795538E+03  0.47262795539E+03  0.25500000000E-02 0.  1.
         -2   -1    0    0    0  501 -0.00000000000E+00 -0.00000000000E+00 -0.11124213569E+03  0.11124213572E+03  0.25500000000E-02 0. -1.
    5000001    1    1    2    0    0 -0.40753812308E+01  0.13288086916E+03  0.69136750493E+02  0.22288747024E+03  0.16500000000E+03 0.  0.
   -5000001    1    1    2    0    0  0.40753812308E+01 -0.13288086916E+03  0.29224906920E+03  0.36098262087E+03  0.16500000000E+03 0.  0.
<mgrwt>
<rscale>  0 0.45858977E+03</rscale>
<asrwt>0</asrwt>
<pdfrwt beam="1">  1        2 0.67518281E-01 0.45858977E+03</pdfrwt>
<pdfrwt beam="2">  1       -2 0.15891733E-01 0.45858977E+03</pdfrwt>
<totfact> 0.22566326E+03</totfact>
</mgrwt>
</event>
<event>
 4    1  0.5323640E-005  0.3935098E+03  0.7818608E-02  0.1046050E+00
         -2   -1    0    0    0  501 -0.00000000000E+00  0.00000000000E+00  0.13498069372E+02  0.13498069613E+02  0.25500000000E-02 0. -1.
          2   -1    0    0  501    0  0.00000000000E+00 -0.00000000000E+00 -0.28680025440E+04  0.28680025440E+04  0.25500000000E-02 0.  1.
    5000001    1    1    2    0    0 -0.39230183636E+02  0.99545393082E+02 -0.14731016912E+04  0.14861702073E+04  0.16500000000E+03 0.  0.
   -5000001    1    1    2    0    0  0.39230183636E+02 -0.99545393082E+02 -0.13814027835E+04  0.13953304063E+04  0.16500000000E+03 0.  0.
<mgrwt>
<rscale>  0 0.39350984E+03</rscale>
<asrwt>0</asrwt>
<pdfrwt beam="1">  1        2 0.40971426E+00 0.39350984E+03</pdfrwt>
<pdfrwt beam="2">  1       -2 0.19282975E-02 0.39350984E+03</pdfrwt>
<totfact> 0.26317254E+03</totfact>
</mgrwt>
</event>
<event>
 4    1  0.5323640E-005  0.7821332E+03  0.7818608E-02  0.9586245E-01
          2   -1    0    0  501    0  0.00000000000E+00  0.00000000000E+00  0.43700651469E+03  0.43700651470E+03  0.25500000000E-02 0.  1.
         -2   -1    0    0    0  501 -0.00000000000E+00 -0.00000000000E+00 -0.34995605702E+03  0.34995605703E+03  0.25500000000E-02 0. -1.
    5000001    1    1    2    0    0 -0.44692363943E+02  0.29649732286E+03  0.23390242411E+03  0.41454000273E+03  0.16500000000E+03 0.  0.
   -5000001    1    1    2    0    0  0.44692363943E+02 -0.29649732286E+03 -0.14685196644E+03  0.37242256900E+03  0.16500000000E+03 0.  0.
<mgrwt>
<rscale>  0 0.78213318E+03</rscale>
<asrwt>0</asrwt>
<pdfrwt beam="1">  1        2 0.62429502E-01 0.78213318E+03</pdfrwt>
<pdfrwt beam="2">  1       -2 0.49993722E-01 0.78213318E+03</pdfrwt>
<totfact> 0.29829402E+02</totfact>
</mgrwt>
</event>
<event>
 4    1  0.5323640E-005  0.4764324E+03  0.7818608E-02  0.1020120E+00
         -2   -1    0    0    0  501 -0.00000000000E+00  0.00000000000E+00  0.75185081509E+02  0.75185081552E+02  0.25500000000E-02 0. -1.
          2   -1    0    0  501    0  0.00000000000E+00 -0.00000000000E+00 -0.75476348917E+03  0.75476348918E+03  0.25500000000E-02 0.  1.
    5000001    1    1    2    0    0  0.14615597241E+03 -0.22203633019E+02 -0.49232562003E+03  0.53987413879E+03  0.16500000000E+03 0.  0.
   -5000001    1    1    2    0    0 -0.14615597241E+03  0.22203633019E+02 -0.18725278763E+03  0.29007443194E+03  0.16500000000E+03 0.  0.
<mgrwt>
<rscale>  0 0.47643239E+03</rscale>
<asrwt>0</asrwt>
<pdfrwt beam="1">  1        2 0.10782335E+00 0.47643239E+03</pdfrwt>
<pdfrwt beam="2">  1       -2 0.10740726E-01 0.47643239E+03</pdfrwt>
<totfact> 0.24922306E+03</totfact>
</mgrwt>
</event>
<event>
 4    1  0.5323640E-005  0.4701346E+03  0.7818608E-02  0.1021882E+00
          2   -1    0    0  501    0  0.00000000000E+00  0.00000000000E+00  0.34265201767E+03  0.34265201768E+03  0.25500000000E-02 0.  1.
         -2   -1    0    0    0  501 -0.00000000000E+00 -0.00000000000E+00 -0.16126165797E+03  0.16126165799E+03  0.25500000000E-02 0. -1.
    5000001    1    1    2    0    0  0.12077564742E+03  0.98263053570E+02  0.15667489624E+03  0.27570710513E+03  0.16500000000E+03 0.  0.
   -5000001    1    1    2    0    0 -0.12077564742E+03 -0.98263053570E+02  0.24715463456E+02  0.22820657055E+03  0.16500000000E+03 0.  0.
<mgrwt>
<rscale>  0 0.47013459E+03</rscale>
<asrwt>0</asrwt>
<pdfrwt beam="1">  1        2 0.48950289E-01 0.47013459E+03</pdfrwt>
<pdfrwt beam="2">  1       -2 0.23037380E-01 0.47013459E+03</pdfrwt>
<totfact> 0.16983195E+03</totfact>
</mgrwt>
</event>
<event>
 4    1  0.5323640E-005  0.4024763E+03  0.7818608E-02  0.1042926E+00
         -2   -1    0    0    0  501 -0.00000000000E+00  0.00000000000E+00  0.15559901386E+03  0.15559901388E+03  0.25500000000E-02 0. -1.
          2   -1    0    0  501    0  0.00000000000E+00 -0.00000000000E+00 -0.26026383182E+03  0.26026383183E+03  0.25500000000E-02 0.  1.
    5000001    1    1    2    0    0  0.67409295791E+01  0.11363421046E+03 -0.34034021420E+02  0.20332606457E+03  0.16500000000E+03 0.  0.
   -5000001    1    1    2    0    0 -0.67409295791E+01 -0.11363421046E+03 -0.70630796542E+02  0.21253678115E+03  0.16500000000E+03 0.  0.
<mgrwt>
<rscale>  0 0.40247631E+03</rscale>
<asrwt>0</asrwt>
<pdfrwt beam="1">  1        2 0.37180547E-01 0.40247631E+03</pdfrwt>
<pdfrwt beam="2">  1       -2 0.22228431E-01 0.40247631E+03</pdfrwt>
<totfact> 0.24392517E+03</totfact>
</mgrwt>
</event>
<event>
 4    1  0.5323640E-005  0.4580681E+03  0.7818608E-02  0.1025343E+00
         -2   -1    0    0    0  501 -0.00000000000E+00  0.00000000000E+00  0.27745016511E+02  0.27745016628E+02  0.25500000000E-02 0. -1.
          2   -1    0    0  501    0  0.00000000000E+00 -0.00000000000E+00 -0.18906673317E+04  0.18906673317E+04  0.25500000000E-02 0.  1.
    5000001    1    1    2    0    0  0.13139683832E+03 -0.59049269084E+02 -0.65115411548E+03  0.68700700681E+03  0.16500000000E+03 0.  0.
   -5000001    1    1    2    0    0 -0.13139683832E+03  0.59049269084E+02 -0.12117681997E+04  0.12314053415E+04  0.16500000000E+03 0.  0.
<mgrwt>
<rscale>  0 0.45806810E+03</rscale>
<asrwt>0</asrwt>
<pdfrwt beam="1">  1        2 0.27009525E+00 0.45806810E+03</pdfrwt>
<pdfrwt beam="2">  1       -2 0.39635750E-02 0.45806810E+03</pdfrwt>
<totfact> 0.27700483E+03</totfact>
</mgrwt>
</event>
<event>
 4    1  0.5323640E-005  0.4030012E+03  0.7818608E-02  0.1042745E+00
         -2   -1    0    0    0  501 -0.00000000000E+00  0.00000000000E+00  0.92261991508E+02  0.92261991544E+02  0.25500000000E-02 0. -1.
          2   -1    0    0  501    0  0.00000000000E+00 -0.00000000000E+00 -0.44007830988E+03  0.44007830989E+03  0.25500000000E-02 0.  1.
    5000001    1    1    2    0    0 -0.98344134392E+02  0.31733481791E+02 -0.10528387073E+03  0.22133295297E+03  0.16500000000E+03 0.  0.
   -5000001    1    1    2    0    0  0.98344134392E+02 -0.31733481791E+02 -0.24253244764E+03  0.31100734846E+03  0.16500000000E+03 0.  0.
<mgrwt>
<rscale>  0 0.40300125E+03</rscale>
<asrwt>0</asrwt>
<pdfrwt beam="1">  1        2 0.62868329E-01 0.40300125E+03</pdfrwt>
<pdfrwt beam="2">  1       -2 0.13180285E-01 0.40300125E+03</pdfrwt>
<totfact> 0.33298400E+03</totfact>
</mgrwt>
</event>
<event>
 4    1  0.5323640E-005  0.1032610E+04  0.7818608E-02  0.9273485E-01
         -2   -1    0    0    0  501 -0.00000000000E+00  0.00000000000E+00  0.58407208553E+03  0.58407208553E+03  0.25500000000E-02 0. -1.
          2   -1    0    0  501    0  0.00000000000E+00 -0.00000000000E+00 -0.45640033293E+03  0.45640033294E+03  0.25500000000E-02 0.  1.
    5000001    1    1    2    0    0  0.30422552988E+03 -0.19434433624E+03  0.39653606043E+03  0.56106037222E+03  0.16500000000E+03 0.  0.
   -5000001    1    1    2    0    0 -0.30422552988E+03  0.19434433624E+03 -0.26886430784E+03  0.47941204625E+03  0.16500000000E+03 0.  0.
<mgrwt>
<rscale>  0 0.10326097E+04</rscale>
<asrwt>0</asrwt>
<pdfrwt beam="1">  1        2 0.65200048E-01 0.10326097E+04</pdfrwt>
<pdfrwt beam="2">  1       -2 0.83438869E-01 0.10326097E+04</pdfrwt>
<totfact> 0.93440008E+01</totfact>
</mgrwt>
</event>
<event>
 4    1  0.5323640E-005  0.6276897E+03  0.7818608E-02  0.9849568E-01
         -2   -1    0    0    0  501 -0.00000000000E+00  0.00000000000E+00  0.22770697854E+03  0.22770697856E+03  0.25500000000E-02 0. -1.
          2   -1    0    0  501    0  0.00000000000E+00 -0.00000000000E+00 -0.43256724431E+03  0.43256724432E+03  0.25500000000E-02 0.  1.
    5000001    1    1    2    0    0  0.23675895395E+02 -0.22824410237E+03 -0.24595988401E+03  0.37466943141E+03  0.16500000000E+03 0.  0.
   -5000001    1    1    2    0    0 -0.23675895395E+02  0.22824410237E+03  0.41099618235E+02  0.28560479147E+03  0.16500000000E+03 0.  0.
<mgrwt>
<rscale>  0 0.62768967E+03</rscale>
<asrwt>0</asrwt>
<pdfrwt beam="1">  1        2 0.61795320E-01 0.62768967E+03</pdfrwt>
<pdfrwt beam="2">  1       -2 0.32529568E-01 0.62768967E+03</pdfrwt>
<totfact> 0.70052543E+02</totfact>
</mgrwt>
</event>
<event>
 4    1  0.5323640E-005  0.4873807E+03  0.7818608E-02  0.1017126E+00
          2   -1    0    0  501    0  0.00000000000E+00  0.00000000000E+00  0.17775447326E+03  0.17775447328E+03  0.25500000000E-02 0. -1.
         -2   -1    0    0    0  501 -0.00000000000E+00 -0.00000000000E+00 -0.33408433709E+03  0.33408433710E+03  0.25500000000E-02 0.  1.
    5000001    1    1    2    0    0  0.83469183571E+02  0.15608732089E+03 -0.10841364198E+03  0.26515820582E+03  0.16500000000E+03 0.  0.
   -5000001    1    1    2    0    0 -0.83469183571E+02 -0.15608732089E+03 -0.47916221852E+02  0.24668060456E+03  0.16500000000E+03 0.  0.
<mgrwt>
<rscale>  0 0.48738069E+03</rscale>
<asrwt>0</asrwt>
<pdfrwt beam="1">  1        2 0.25393496E-01 0.48738069E+03</pdfrwt>
<pdfrwt beam="2">  1       -2 0.47726334E-01 0.48738069E+03</pdfrwt>
<totfact> 0.89802282E+02</totfact>
</mgrwt>
</event>
<event>
 4    1  0.5323640E-005  0.8047032E+03  0.7818608E-02  0.9553234E-01
         -2   -1    0    0    0  501 -0.00000000000E+00  0.00000000000E+00  0.72015976994E+02  0.72015977039E+02  0.25500000000E-02 0. -1.
          2   -1    0    0  501    0  0.00000000000E+00 -0.00000000000E+00 -0.22479289567E+04  0.22479289567E+04  0.25500000000E-02 0.  1.
    5000001    1    1    2    0    0 -0.16629050566E+03  0.20943488794E+03 -0.36349400616E+03  0.48048766589E+03  0.16500000000E+03 0.  0.
   -5000001    1    1    2    0    0  0.16629050566E+03 -0.20943488794E+03 -0.18124189735E+04  0.18394572678E+04  0.16500000000E+03 0.  0.
<mgrwt>
<rscale>  0 0.80470318E+03</rscale>
<asrwt>0</asrwt>
<pdfrwt beam="1">  1        2 0.32113267E+00 0.80470318E+03</pdfrwt>
<pdfrwt beam="2">  1       -2 0.10287998E-01 0.80470318E+03</pdfrwt>
<totfact> 0.39993518E+02</totfact>
</mgrwt>
</event>
<event>
 4    1  0.5323640E-005  0.4987357E+03  0.7818608E-02  0.1014109E+00
         -2   -1    0    0    0  501 -0.00000000000E+00  0.00000000000E+00  0.39424439510E+02  0.39424439592E+02  0.25500000000E-02 0. -1.
          2   -1    0    0  501    0  0.00000000000E+00 -0.00000000000E+00 -0.15773036628E+04  0.15773036628E+04  0.25500000000E-02 0.  1.
    5000001    1    1    2    0    0 -0.87739168756E+02  0.43891207492E+02 -0.12849097490E+04  0.12991699900E+04  0.16500000000E+03 0.  0.
   -5000001    1    1    2    0    0  0.87739168756E+02 -0.43891207492E+02 -0.25296947430E+03  0.31755811241E+03  0.16500000000E+03 0.  0.
<mgrwt>
<rscale>  0 0.49873565E+03</rscale>
<asrwt>0</asrwt>
<pdfrwt beam="1">  1        2 0.22532906E+00 0.49873565E+03</pdfrwt>
<pdfrwt beam="2">  1       -2 0.56320638E-02 0.49873565E+03</pdfrwt>
<totfact> 0.23174007E+03</totfact>
</mgrwt>
</event>
<event>
 4    1  0.5323640E-005  0.4666209E+03  0.7818608E-02  0.1022878E+00
          2   -1    0    0  501    0  0.00000000000E+00  0.00000000000E+00  0.82091889438E+03  0.82091889439E+03  0.25500000000E-02 0.  1.
         -2   -1    0    0    0  501 -0.00000000000E+00 -0.00000000000E+00 -0.66308334295E+02  0.66308334344E+02  0.25500000000E-02 0. -1.
    5000001    1    1    2    0    0  0.11584448663E+02  0.16081987898E+03  0.31112356007E+03  0.38732428604E+03  0.16500000000E+03 0.  0.
   -5000001    1    1    2    0    0 -0.11584448663E+02 -0.16081987898E+03  0.44348700002E+03  0.49990294270E+03  0.16500000000E+03 0.  0.
<mgrwt>
<rscale>  0 0.46662089E+03</rscale>
<asrwt>0</asrwt>
<pdfrwt beam="1">  1        2 0.11727413E+00 0.46662089E+03</pdfrwt>
<pdfrwt beam="2">  1       -2 0.94726192E-02 0.46662089E+03</pdfrwt>
<totfact> 0.27453419E+03</totfact>
</mgrwt>
</event>
<event>
 4    1  0.5323640E-005  0.3767462E+03  0.7818608E-02  0.1052143E+00
          2   -1    0    0  501    0  0.00000000000E+00  0.00000000000E+00  0.21263087044E+03  0.21263087046E+03  0.25500000000E-02 0.  1.
         -2   -1    0    0    0  501 -0.00000000000E+00 -0.00000000000E+00 -0.16688273541E+03  0.16688273543E+03  0.25500000000E-02 0. -1.
    5000001    1    1    2    0    0 -0.81880492221E+02  0.14673583134E+02 -0.13996601150E+02  0.18531226050E+03  0.16500000000E+03 0.  0.
   -5000001    1    1    2    0    0  0.81880492221E+02 -0.14673583134E+02  0.59744736184E+02  0.19420134539E+03  0.16500000000E+03 0.  0.
<mgrwt>
<rscale>  0 0.37674618E+03</rscale>
<asrwt>0</asrwt>
<pdfrwt beam="1">  1        2 0.30375839E-01 0.37674618E+03</pdfrwt>
<pdfrwt beam="2">  1       -2 0.23840391E-01 0.37674618E+03</pdfrwt>
<totfact> 0.26915092E+03</totfact>
</mgrwt>
</event>
<event>
 4    1  0.5323640E-005  0.4705540E+03  0.7818608E-02  0.1021764E+00
          2   -1    0    0  501    0  0.00000000000E+00  0.00000000000E+00  0.77372835979E+02  0.77372836021E+02  0.25500000000E-02 0.  1.
         -2   -1    0    0    0  501 -0.00000000000E+00 -0.00000000000E+00 -0.71543539419E+03  0.71543539419E+03  0.25500000000E-02 0. -1.
    5000001    1    1    2    0    0 -0.69336040932E+02  0.11383744299E+03 -0.49055276111E+03  0.53444687428E+03  0.16500000000E+03 0.  0.
   -5000001    1    1    2    0    0  0.69336040932E+02 -0.11383744299E+03 -0.14750979709E+03  0.25836135593E+03  0.16500000000E+03 0.  0.
<mgrwt>
<rscale>  0 0.47055399E+03</rscale>
<asrwt>0</asrwt>
<pdfrwt beam="1">  1        2 0.11053263E-01 0.47055399E+03</pdfrwt>
<pdfrwt beam="2">  1       -2 0.10220505E+00 0.47055399E+03</pdfrwt>
<totfact> 0.46343856E+02</totfact>
</mgrwt>
</event>
<event>
 4    1  0.5323640E-005  0.4022758E+03  0.7818608E-02  0.1042994E+00
         -2   -1    0    0    0  501 -0.00000000000E+00  0.00000000000E+00  0.11071134637E+03  0.11071134640E+03  0.25500000000E-02 0. -1.
          2   -1    0    0  501    0  0.00000000000E+00 -0.00000000000E+00 -0.36542277099E+03  0.36542277100E+03  0.25500000000E-02 0.  1.
    5000001    1    1    2    0    0  0.81190666073E+02  0.93260027260E+01 -0.31545775117E+02  0.18681283284E+03  0.16500000000E+03 0.  0.
   -5000001    1    1    2    0    0 -0.81190666073E+02 -0.93260027260E+01 -0.22316564950E+03  0.28932128456E+03  0.16500000000E+03 0.  0.
<mgrwt>
<rscale>  0 0.40227576E+03</rscale>
<asrwt>0</asrwt>
<pdfrwt beam="1">  1        2 0.52203253E-01 0.40227576E+03</pdfrwt>
<pdfrwt beam="2">  1       -2 0.15815907E-01 0.40227576E+03</pdfrwt>
<totfact> 0.30166305E+03</totfact>
</mgrwt>
</event>
<event>
 4    1  0.5323640E-005  0.3909854E+03  0.7818608E-02  0.1046947E+00
          2   -1    0    0  501    0  0.00000000000E+00  0.00000000000E+00  0.11125134904E+04  0.11125134904E+04  0.25500000000E-02 0.  1.
         -2   -1    0    0    0  501 -0.00000000000E+00 -0.00000000000E+00 -0.34352306689E+02  0.34352306784E+02  0.25500000000E-02 0. -1.
    5000001    1    1    2    0    0  0.17528796567E+02  0.10197292360E+03  0.48941652992E+03  0.52674403235E+03  0.16500000000E+03 0.  0.
   -5000001    1    1    2    0    0 -0.17528796567E+02 -0.10197292360E+03  0.58874465379E+03  0.62012176483E+03  0.16500000000E+03 0.  0.
<mgrwt>
<rscale>  0 0.39098545E+03</rscale>
<asrwt>0</asrwt>
<pdfrwt beam="1">  1        2 0.15893050E+00 0.39098545E+03</pdfrwt>
<pdfrwt beam="2">  1       -2 0.49074723E-02 0.39098545E+03</pdfrwt>
<totfact> 0.50777494E+03</totfact>
</mgrwt>
</event>
<event>
 4    1  0.5323640E-005  0.3944239E+03  0.7818608E-02  0.1045728E+00
         -2   -1    0    0    0  501 -0.00000000000E+00  0.00000000000E+00  0.38291049222E+02  0.38291049307E+02  0.25500000000E-02 0. -1.
          2   -1    0    0  501    0  0.00000000000E+00 -0.00000000000E+00 -0.10157089619E+04  0.10157089619E+04  0.25500000000E-02 0.  1.
    5000001    1    1    2    0    0  0.25685510976E+02 -0.65290896232E+02 -0.70817412045E+03  0.73051915203E+03  0.16500000000E+03 0.  0.
   -5000001    1    1    2    0    0 -0.25685510976E+02  0.65290896232E+02 -0.26924379224E+03  0.32348085919E+03  0.16500000000E+03 0.  0.
<mgrwt>
<rscale>  0 0.39442394E+03</rscale>
<asrwt>0</asrwt>
<pdfrwt beam="1">  1        2 0.14510126E+00 0.39442394E+03</pdfrwt>
<pdfrwt beam="2">  1       -2 0.54701505E-02 0.39442394E+03</pdfrwt>
<totfact> 0.48923080E+03</totfact>
</mgrwt>
</event>
<event>
 4    1  0.5323640E-005  0.5048818E+03  0.7818608E-02  0.1012512E+00
          2   -1    0    0  501    0  0.00000000000E+00  0.00000000000E+00  0.26412891550E+03  0.26412891551E+03  0.25500000000E-02 0.  1.
         -2   -1    0    0    0  501 -0.00000000000E+00 -0.00000000000E+00 -0.24127006709E+03  0.24127006710E+03  0.25500000000E-02 0. -1.
    5000001    1    1    2    0    0  0.18134683667E+03  0.15603967878E+02 -0.46692455004E+02  0.25007067868E+03  0.16500000000E+03 0.  0.
   -5000001    1    1    2    0    0 -0.18134683667E+03 -0.15603967878E+02  0.69551303416E+02  0.25532830393E+03  0.16500000000E+03 0.  0.
<mgrwt>
<rscale>  0 0.50488177E+03</rscale>
<asrwt>0</asrwt>
<pdfrwt beam="1">  1        2 0.37732702E-01 0.50488177E+03</pdfrwt>
<pdfrwt beam="2">  1       -2 0.34467152E-01 0.50488177E+03</pdfrwt>
<totfact> 0.10850079E+03</totfact>
</mgrwt>
</event>
<event>
 4    1  0.5323640E-005  0.4715030E+03  0.7818608E-02  0.1021497E+00
          2   -1    0    0  501    0  0.00000000000E+00  0.00000000000E+00  0.14790404914E+03  0.14790404916E+03  0.25500000000E-02 0.  1.
         -2   -1    0    0    0  501 -0.00000000000E+00 -0.00000000000E+00 -0.37577581673E+03  0.37577581674E+03  0.25500000000E-02 0. -1.
    5000001    1    1    2    0    0 -0.14420628690E+03 -0.73499751536E+02 -0.62363678180E+02  0.23939902885E+03  0.16500000000E+03 0.  0.
   -5000001    1    1    2    0    0  0.14420628690E+03  0.73499751536E+02 -0.16550808941E+03  0.28428083705E+03  0.16500000000E+03 0.  0.
<mgrwt>
<rscale>  0 0.47150298E+03</rscale>
<asrwt>0</asrwt>
<pdfrwt beam="1">  1        2 0.21129150E-01 0.47150298E+03</pdfrwt>
<pdfrwt beam="2">  1       -2 0.53682259E-01 0.47150298E+03</pdfrwt>
<totfact> 0.87380404E+02</totfact>
</mgrwt>
</event>
<event>
 4    1  0.5323640E-005  0.4447637E+03  0.7818608E-02  0.1029295E+00
          2   -1    0    0  501    0  0.00000000000E+00  0.00000000000E+00  0.71050768038E+02  0.71050768084E+02  0.25500000000E-02 0.  1.
         -2   -1    0    0    0  501 -0.00000000000E+00 -0.00000000000E+00 -0.69603301970E+03  0.69603301971E+03  0.25500000000E-02 0. -1.
    5000001    1    1    2    0    0  0.16260234849E+02 -0.12470225665E+03 -0.17436827377E+03  0.27100616773E+03  0.16500000000E+03 0.  0.
   -5000001    1    1    2    0    0 -0.16260234849E+02  0.12470225665E+03 -0.45061397789E+03  0.49607762006E+03  0.16500000000E+03 0.  0.
<mgrwt>
<rscale>  0 0.44476367E+03</rscale>
<asrwt>0</asrwt>
<pdfrwt beam="1">  1        2 0.10150110E-01 0.44476367E+03</pdfrwt>
<pdfrwt beam="2">  1       -2 0.99433285E-01 0.44476367E+03</pdfrwt>
<totfact> 0.55020600E+02</totfact>
</mgrwt>
</event>
<event>
 4    1  0.5323640E-005  0.6818657E+03  0.7818608E-02  0.9748757E-01
          2   -1    0    0  501    0  0.00000000000E+00  0.00000000000E+00  0.15982191646E+04  0.15982191646E+04  0.25500000000E-02 0.  1.
         -2   -1    0    0    0  501 -0.00000000000E+00 -0.00000000000E+00 -0.72727962307E+02  0.72727962352E+02  0.25500000000E-02 0. -1.
    5000001    1    1    2    0    0 -0.21898893467E+03 -0.19788305023E+03  0.86946052495E+03  0.93289895462E+03  0.16500000000E+03 0.  0.
   -5000001    1    1    2    0    0  0.21898893467E+03  0.19788305023E+03  0.65603067734E+03  0.73804817233E+03  0.16500000000E+03 0.  0.
<mgrwt>
<rscale>  0 0.68186574E+03</rscale>
<asrwt>0</asrwt>
<pdfrwt beam="1">  1        2 0.22831702E+00 0.68186574E+03</pdfrwt>
<pdfrwt beam="2">  1       -2 0.10389709E-01 0.68186574E+03</pdfrwt>
<totfact> 0.84838690E+02</totfact>
</mgrwt>
</event>
<event>
 4    1  0.5323640E-005  0.7286700E+03  0.7818608E-02  0.9669421E-01
         -2   -1    0    0    0  501 -0.00000000000E+00  0.00000000000E+00  0.46035922995E+02  0.46035923065E+02  0.25500000000E-02 0. -1.
          2   -1    0    0  501    0  0.00000000000E+00 -0.00000000000E+00 -0.28833999397E+04  0.28833999397E+04  0.25500000000E-02 0.  1.
    5000001    1    1    2    0    0 -0.32263432390E+02  0.30957931701E+03 -0.10451080177E+04  0.11028853301E+04  0.16500000000E+03 0.  0.
   -5000001    1    1    2    0    0  0.32263432390E+02 -0.30957931701E+03 -0.17922559990E+04  0.18265505327E+04  0.16500000000E+03 0.  0.
<mgrwt>
<rscale>  0 0.72866996E+03</rscale>
<asrwt>0</asrwt>
<pdfrwt beam="1">  1        2 0.41191416E+00 0.72866996E+03</pdfrwt>
<pdfrwt beam="2">  1       -2 0.65765623E-02 0.72866996E+03</pdfrwt>
<totfact> 0.38491072E+02</totfact>
</mgrwt>
</event>
<event>
 4    1  0.5323640E-005  0.5279610E+03  0.7818608E-02  0.1006728E+00
          2   -1    0    0  501    0  0.00000000000E+00  0.00000000000E+00  0.91771804828E+03  0.91771804828E+03  0.25500000000E-02 0.  1.
         -2   -1    0    0    0  501 -0.00000000000E+00 -0.00000000000E+00 -0.75933664110E+02  0.75933664153E+02  0.25500000000E-02 0. -1.
    5000001    1    1    2    0    0  0.10741493572E+03  0.83866557593E+02  0.71178468039E+03  0.74325903906E+03  0.16500000000E+03 0.  0.
   -5000001    1    1    2    0    0 -0.10741493572E+03 -0.83866557593E+02  0.12999970377E+03  0.25039267338E+03  0.16500000000E+03 0.  0.
<mgrwt>
<rscale>  0 0.52796096E+03</rscale>
<asrwt>0</asrwt>
<pdfrwt beam="1">  1        2 0.13110256E+00 0.52796096E+03</pdfrwt>
<pdfrwt beam="2">  1       -2 0.10847667E-01 0.52796096E+03</pdfrwt>
<totfact> 0.19062515E+03</totfact>
</mgrwt>
</event>
<event>
 4    1  0.5323640E-005  0.3999430E+03  0.7818608E-02  0.1043799E+00
          2   -1    0    0  501    0  0.00000000000E+00  0.00000000000E+00  0.14344288848E+04  0.14344288848E+04  0.25500000000E-02 0. -1.
         -2   -1    0    0    0  501 -0.00000000000E+00 -0.00000000000E+00 -0.27877717018E+02  0.27877717134E+02  0.25500000000E-02 0.  1.
    5000001    1    1    2    0    0 -0.61320711336E+02 -0.22302255966E+02  0.10404872335E+04  0.10555076046E+04  0.16500000000E+03 0.  0.
   -5000001    1    1    2    0    0  0.61320711336E+02  0.22302255966E+02  0.36606393423E+03  0.40679899730E+03  0.16500000000E+03 0.  0.
<mgrwt>
<rscale>  0 0.39994301E+03</rscale>
<asrwt>0</asrwt>
<pdfrwt beam="1">  1        2 0.20491846E+00 0.39994301E+03</pdfrwt>
<pdfrwt beam="2">  1       -2 0.39825301E-02 0.39994301E+03</pdfrwt>
<totfact> 0.46793472E+03</totfact>
</mgrwt>
</event>
<event>
 4    1  0.5323640E-005  0.9278974E+03  0.7818608E-02  0.9391365E-01
          2   -1    0    0  501    0  0.00000000000E+00  0.00000000000E+00  0.17027628583E+04  0.17027628583E+04  0.25500000000E-02 0.  1.
         -2   -1    0    0    0  501 -0.00000000000E+00 -0.00000000000E+00 -0.12641125784E+03  0.12641125787E+03  0.25500000000E-02 0. -1.
    5000001    1    1    2    0    0 -0.20177607534E+03  0.20427922194E+03  0.14763687274E+03  0.36258134437E+03  0.16500000000E+03 0.  0.
   -5000001    1    1    2    0    0  0.20177607534E+03 -0.20427922194E+03  0.14287147277E+04  0.14665927718E+04  0.16500000000E+03 0.  0.
<mgrwt>
<rscale>  0 0.92789740E+03</rscale>
<asrwt>0</asrwt>
<pdfrwt beam="1">  1        2 0.24325181E+00 0.92789740E+03</pdfrwt>
<pdfrwt beam="2">  1       -2 0.18058753E-01 0.92789740E+03</pdfrwt>
<totfact> 0.29239497E+02</totfact>
</mgrwt>
</event>
<event>
 4    1  0.5323640E-005  0.7888898E+03  0.7818608E-02  0.9576239E-01
         -2   -1    0    0    0  501 -0.00000000000E+00  0.00000000000E+00  0.44095398229E+02  0.44095398303E+02  0.25500000000E-02 0. -1.
          2   -1    0    0  501    0  0.00000000000E+00 -0.00000000000E+00 -0.35284129297E+04  0.35284129297E+04  0.25500000000E-02 0.  1.
    5000001    1    1    2    0    0 -0.24959782234E+03  0.20277454232E+03 -0.24573962807E+04  0.24838353545E+04  0.16500000000E+03 0.  0.
   -5000001    1    1    2    0    0  0.24959782234E+03 -0.20277454232E+03 -0.10269212508E+04  0.10886729736E+04  0.16500000000E+03 0.  0.
<mgrwt>
<rscale>  0 0.78888979E+03</rscale>
<asrwt>0</asrwt>
<pdfrwt beam="1">  1        2 0.50405881E+00 0.78888979E+03</pdfrwt>
<pdfrwt beam="2">  1       -2 0.62993449E-02 0.78888979E+03</pdfrwt>
<totfact> 0.17633751E+02</totfact>
</mgrwt>
</event>
<event>
 4    1  0.5323640E-005  0.5579858E+03  0.7818608E-02  0.9996622E-01
          2   -1    0    0  501    0  0.00000000000E+00  0.00000000000E+00  0.52989726311E+03  0.52989726312E+03  0.25500000000E-02 0.  1.
         -2   -1    0    0    0  501 -0.00000000000E+00 -0.00000000000E+00 -0.14689083205E+03  0.14689083207E+03  0.25500000000E-02 0. -1.
    5000001    1    1    2    0    0 -0.16519800403E+03  0.11511503627E+03  0.31321945655E+03  0.40727543515E+03  0.16500000000E+03 0.  0.
   -5000001    1    1    2    0    0  0.16519800403E+03 -0.11511503627E+03  0.69786974511E+02  0.26951266004E+03  0.16500000000E+03 0.  0.
<mgrwt>
<rscale>  0 0.55798584E+03</rscale>
<asrwt>0</asrwt>
<pdfrwt beam="1">  1        2 0.75699609E-01 0.55798584E+03</pdfrwt>
<pdfrwt beam="2">  1       -2 0.20984405E-01 0.55798584E+03</pdfrwt>
<totfact> 0.12313057E+03</totfact>
</mgrwt>
</event>
<event>
 4    1  0.5323640E-005  0.7352775E+03  0.7818608E-02  0.9658735E-01
         -2   -1    0    0    0  501 -0.00000000000E+00  0.00000000000E+00  0.68879899332E+03  0.68879899333E+03  0.25500000000E-02 0. -1.
          2   -1    0    0  501    0  0.00000000000E+00 -0.00000000000E+00 -0.19622306406E+03  0.19622306408E+03  0.25500000000E-02 0.  1.
    5000001    1    1    2    0    0  0.21510848127E+03 -0.24515362258E+03  0.29384829203E+03  0.46898163728E+03  0.16500000000E+03 0.  0.
   -5000001    1    1    2    0    0 -0.21510848127E+03  0.24515362258E+03  0.19872763723E+03  0.41604042012E+03  0.16500000000E+03 0.  0.
<mgrwt>
<rscale>  0 0.73527750E+03</rscale>
<asrwt>0</asrwt>
<pdfrwt beam="1">  1        2 0.28031867E-01 0.73527750E+03</pdfrwt>
<pdfrwt beam="2">  1       -2 0.98399855E-01 0.73527750E+03</pdfrwt>
<totfact> 0.16646555E+02</totfact>
</mgrwt>
</event>
<event>
 4    1  0.5323640E-005  0.4605911E+03  0.7818608E-02  0.1024610E+00
         -2   -1    0    0    0  501 -0.00000000000E+00  0.00000000000E+00  0.57176680460E+02  0.57176680517E+02  0.25500000000E-02 0. -1.
          2   -1    0    0  501    0  0.00000000000E+00 -0.00000000000E+00 -0.92758178709E+03  0.92758178709E+03  0.25500000000E-02 0.  1.
    5000001    1    1    2    0    0  0.10670249899E+03  0.11267404912E+03 -0.52413498194E+03  0.57098453913E+03  0.16500000000E+03 0.  0.
   -5000001    1    1    2    0    0 -0.10670249899E+03 -0.11267404912E+03 -0.34627012469E+03  0.41377392848E+03  0.16500000000E+03 0.  0.
<mgrwt>
<rscale>  0 0.46059113E+03</rscale>
<asrwt>0</asrwt>
<pdfrwt beam="1">  1        2 0.13251167E+00 0.46059113E+03</pdfrwt>
<pdfrwt beam="2">  1       -2 0.81680978E-02 0.46059113E+03</pdfrwt>
<totfact> 0.29633598E+03</totfact>
</mgrwt>
</event>
<event>
 4    1  0.5323640E-005  0.4628988E+03  0.7818608E-02  0.1023944E+00
         -2   -1    0    0    0  501 -0.00000000000E+00  0.00000000000E+00  0.46437317797E+02  0.46437317867E+02  0.25500000000E-02 0. -1.
          2   -1    0    0  501    0  0.00000000000E+00 -0.00000000000E+00 -0.11535729866E+04  0.11535729866E+04  0.25500000000E-02 0.  1.
    5000001    1    1    2    0    0 -0.46232296994E+02 -0.13847521902E+03 -0.73744468873E+03  0.76965088222E+03  0.16500000000E+03 0.  0.
   -5000001    1    1    2    0    0  0.46232296994E+02  0.13847521902E+03 -0.36969098005E+03  0.43035942223E+03  0.16500000000E+03 0.  0.
<mgrwt>
<rscale>  0 0.46289885E+03</rscale>
<asrwt>0</asrwt>
<pdfrwt beam="1">  1        2 0.16479612E+00 0.46289885E+03</pdfrwt>
<pdfrwt beam="2">  1       -2 0.66339033E-02 0.46289885E+03</pdfrwt>
<totfact> 0.30209886E+03</totfact>
</mgrwt>
</event>
<event>
 4    1  0.5323640E-005  0.1236106E+04  0.7818608E-02  0.9081827E-01
          2   -1    0    0  501    0  0.00000000000E+00  0.00000000000E+00  0.52418057847E+03  0.52418057848E+03  0.25500000000E-02 0.  1.
         -2   -1    0    0    0  501 -0.00000000000E+00 -0.00000000000E+00 -0.72873659867E+03  0.72873659867E+03  0.25500000000E-02 0. -1.
    5000001    1    1    2    0    0  0.29614487610E+03 -0.65090577279E+02 -0.62191586069E+03  0.71129663901E+03  0.16500000000E+03 0.  0.
   -5000001    1    1    2    0    0 -0.29614487610E+03  0.65090577279E+02  0.41735984049E+03  0.54162053814E+03  0.16500000000E+03 0.  0.
<mgrwt>
<rscale>  0 0.12361061E+04</rscale>
<asrwt>0</asrwt>
<pdfrwt beam="1">  1        2 0.74882940E-01 0.12361061E+04</pdfrwt>
<pdfrwt beam="2">  1       -2 0.10410523E+00 0.12361061E+04</pdfrwt>
<totfact> 0.47024017E+01</totfact>
</mgrwt>
</event>
<event>
 4    1  0.5323640E-005  0.5353370E+03  0.7818608E-02  0.1004946E+00
         -2   -1    0    0    0  501 -0.00000000000E+00  0.00000000000E+00  0.36762636936E+03  0.36762636937E+03  0.25500000000E-02 0. -1.
          2   -1    0    0  501    0  0.00000000000E+00 -0.00000000000E+00 -0.19488921679E+03  0.19488921681E+03  0.25500000000E-02 0.  1.
    5000001    1    1    2    0    0 -0.13151847708E+03 -0.16321699660E+03  0.10949785165E+03  0.28836032547E+03  0.16500000000E+03 0.  0.
   -5000001    1    1    2    0    0  0.13151847708E+03  0.16321699660E+03  0.63239300919E+02  0.27415526070E+03  0.16500000000E+03 0.  0.
<mgrwt>
<rscale>  0 0.53533696E+03</rscale>
<asrwt>0</asrwt>
<pdfrwt beam="1">  1        2 0.27841317E-01 0.53533696E+03</pdfrwt>
<pdfrwt beam="2">  1       -2 0.52518052E-01 0.53533696E+03</pdfrwt>
<totfact> 0.66683429E+02</totfact>
</mgrwt>
</event>
<event>
 4    1  0.5323640E-005  0.4485146E+03  0.7818608E-02  0.1028166E+00
         -2   -1    0    0    0  501 -0.00000000000E+00  0.00000000000E+00  0.35060259404E+03  0.35060259405E+03  0.25500000000E-02 0. -1.
          2   -1    0    0  501    0  0.00000000000E+00 -0.00000000000E+00 -0.14344258697E+03  0.14344258700E+03  0.25500000000E-02 0.  1.
    5000001    1    1    2    0    0 -0.14026263459E+03  0.29984166148E+01  0.39504957322E+02  0.22015503360E+03  0.16500000000E+03 0.  0.
   -5000001    1    1    2    0    0  0.14026263459E+03 -0.29984166148E+01  0.16765504974E+03  0.27389014745E+03  0.16500000000E+03 0.  0.
<mgrwt>
<rscale>  0 0.44851463E+03</rscale>
<asrwt>0</asrwt>
<pdfrwt beam="1">  1        2 0.20491799E-01 0.44851463E+03</pdfrwt>
<pdfrwt beam="2">  1       -2 0.50086083E-01 0.44851463E+03</pdfrwt>
<totfact> 0.10420640E+03</totfact>
</mgrwt>
</event>
<event>
 4    1  0.5323640E-005  0.5845163E+03  0.7818608E-02  0.9938061E-01
         -2   -1    0    0    0  501 -0.00000000000E+00  0.00000000000E+00  0.33039819739E+02  0.33039819837E+02  0.25500000000E-02 0. -1.
          2   -1    0    0  501    0  0.00000000000E+00 -0.00000000000E+00 -0.25852088122E+04  0.25852088122E+04  0.25500000000E-02 0.  1.
    5000001    1    1    2    0    0  0.18217000618E+03 -0.15738473477E+03 -0.13446004799E+04  0.13759110860E+04  0.16500000000E+03 0.  0.
   -5000001    1    1    2    0    0 -0.18217000618E+03  0.15738473477E+03 -0.12075685125E+04  0.12423375460E+04  0.16500000000E+03 0.  0.
<mgrwt>
<rscale>  0 0.58451632E+03</rscale>
<asrwt>0</asrwt>
<pdfrwt beam="1">  1        2 0.36931542E+00 0.58451632E+03</pdfrwt>
<pdfrwt beam="2">  1       -2 0.47199759E-02 0.58451632E+03</pdfrwt>
<totfact> 0.93970693E+02</totfact>
</mgrwt>
</event>
<event>
 4    1  0.5323640E-005  0.4057794E+03  0.7818608E-02  0.1041797E+00
         -2   -1    0    0    0  501 -0.00000000000E+00  0.00000000000E+00  0.71674266312E+02  0.71674266357E+02  0.25500000000E-02 0. -1.
          2   -1    0    0  501    0  0.00000000000E+00 -0.00000000000E+00 -0.57432380071E+03  0.57432380071E+03  0.25500000000E-02 0.  1.
    5000001    1    1    2    0    0  0.68054941149E+02  0.96250293521E+02 -0.26184193212E+03  0.33118241414E+03  0.16500000000E+03 0.  0.
   -5000001    1    1    2    0    0 -0.68054941149E+02 -0.96250293521E+02 -0.24080760228E+03  0.31481565293E+03  0.16500000000E+03 0.  0.
<mgrwt>
<rscale>  0 0.40577943E+03</rscale>
<asrwt>0</asrwt>
<pdfrwt beam="1">  1        2 0.82046254E-01 0.40577943E+03</pdfrwt>
<pdfrwt beam="2">  1       -2 0.10239181E-01 0.40577943E+03</pdfrwt>
<totfact> 0.37219701E+03</totfact>
</mgrwt>
</event>
<event>
 4    1  0.5323640E-005  0.5758751E+03  0.7818608E-02  0.9956761E-01
          2   -1    0    0  501    0  0.00000000000E+00  0.00000000000E+00  0.21682943340E+04  0.21682943340E+04  0.25500000000E-02 0.  1.
         -2   -1    0    0    0  501 -0.00000000000E+00 -0.00000000000E+00 -0.38236527639E+02  0.38236527724E+02  0.25500000000E-02 0. -1.
    5000001    1    1    2    0    0 -0.19031006511E+03  0.11154193608E+03  0.74391497634E+03  0.79328054080E+03  0.16500000000E+03 0.  0.
   -5000001    1    1    2    0    0  0.19031006511E+03 -0.11154193608E+03  0.13861428300E+04  0.14132503209E+04  0.16500000000E+03 0.  0.
<mgrwt>
<rscale>  0 0.57587515E+03</rscale>
<asrwt>0</asrwt>
<pdfrwt beam="1">  1        2 0.30975635E+00 0.57587515E+03</pdfrwt>
<pdfrwt beam="2">  1       -2 0.54623608E-02 0.57587515E+03</pdfrwt>
<totfact> 0.12212306E+03</totfact>
</mgrwt>
</event>
<event>
 4    1  0.5323640E-005  0.4371130E+03  0.7818608E-02  0.1031636E+00
          2   -1    0    0  501    0  0.00000000000E+00  0.00000000000E+00  0.10868154218E+03  0.10868154221E+03  0.25500000000E-02 0.  1.
         -2   -1    0    0    0  501 -0.00000000000E+00 -0.00000000000E+00 -0.43951296063E+03  0.43951296064E+03  0.25500000000E-02 0. -1.
    5000001    1    1    2    0    0  0.63280577122E+02  0.76541970981E+02 -0.29501511607E+03  0.35230955632E+03  0.16500000000E+03 0.  0.
   -5000001    1    1    2    0    0 -0.63280577122E+02 -0.76541970981E+02 -0.35816302377E+02  0.19588494653E+03  0.16500000000E+03 0.  0.
<mgrwt>
<rscale>  0 0.43711301E+03</rscale>
<asrwt>0</asrwt>
<pdfrwt beam="1">  1        2 0.15525935E-01 0.43711301E+03</pdfrwt>
<pdfrwt beam="2">  1       -2 0.62787565E-01 0.43711301E+03</pdfrwt>
<totfact> 0.90645643E+02</totfact>
</mgrwt>
</event>
<event>
 4    1  0.5323640E-005  0.4545433E+03  0.7818608E-02  0.1026376E+00
         -2   -1    0    0    0  501 -0.00000000000E+00  0.00000000000E+00  0.19332279838E+03  0.19332279839E+03  0.25500000000E-02 0. -1.
          2   -1    0    0  501    0  0.00000000000E+00 -0.00000000000E+00 -0.26718211965E+03  0.26718211966E+03  0.25500000000E-02 0.  1.
    5000001    1    1    2    0    0 -0.14643658861E+03 -0.54208641982E+02 -0.43736690268E+02  0.23134422280E+03  0.16500000000E+03 0.  0.
   -5000001    1    1    2    0    0  0.14643658861E+03  0.54208641982E+02 -0.30122631007E+02  0.22916069525E+03  0.16500000000E+03 0.  0.
<mgrwt>
<rscale>  0 0.45454327E+03</rscale>
<asrwt>0</asrwt>
<pdfrwt beam="1">  1        2 0.38168874E-01 0.45454327E+03</pdfrwt>
<pdfrwt beam="2">  1       -2 0.27617543E-01 0.45454327E+03</pdfrwt>
<totfact> 0.16124466E+03</totfact>
</mgrwt>
</event>
<event>
 4    1  0.5323640E-005  0.1551927E+04  0.7818608E-02  0.8850638E-01
         -2   -1    0    0    0  501 -0.00000000000E+00  0.00000000000E+00  0.21383956829E+03  0.21383956831E+03  0.25500000000E-02 0. -1.
          2   -1    0    0  501    0  0.00000000000E+00 -0.00000000000E+00 -0.28157522573E+04  0.28157522573E+04  0.25500000000E-02 0.  1.
    5000001    1    1    2    0    0 -0.62460618758E+03 -0.40934565414E+03 -0.10449531169E+04  0.12949319560E+04  0.16500000000E+03 0.  0.
   -5000001    1    1    2    0    0  0.62460618758E+03  0.40934565414E+03 -0.15569595721E+04  0.17346598696E+04  0.16500000000E+03 0.  0.
<mgrwt>
<rscale>  0 0.15519269E+04</rscale>
<asrwt>0</asrwt>
<pdfrwt beam="1">  1        2 0.40225030E+00 0.15519269E+04</pdfrwt>
<pdfrwt beam="2">  1       -2 0.30548511E-01 0.15519269E+04</pdfrwt>
<totfact> 0.28594426E+01</totfact>
</mgrwt>
</event>
<event>
 4    1  0.5323640E-005  0.4808443E+03  0.7818608E-02  0.1018903E+00
         -2   -1    0    0    0  501 -0.00000000000E+00  0.00000000000E+00  0.90272631976E+02  0.90272632012E+02  0.25500000000E-02 0. -1.
          2   -1    0    0  501    0  0.00000000000E+00 -0.00000000000E+00 -0.64031376432E+03  0.64031376432E+03  0.25500000000E-02 0.  1.
    5000001    1    1    2    0    0  0.45942265100E+02  0.70498460033E+02 -0.42118092564E+02  0.18994646170E+03  0.16500000000E+03 0.  0.
   -5000001    1    1    2    0    0 -0.45942265100E+02 -0.70498460033E+02 -0.50792303978E+03  0.54063993464E+03  0.16500000000E+03 0.  0.
<mgrwt>
<rscale>  0 0.48084429E+03</rscale>
<asrwt>0</asrwt>
<pdfrwt beam="1">  1        2 0.91473392E-01 0.48084429E+03</pdfrwt>
<pdfrwt beam="2">  1       -2 0.12896091E-01 0.48084429E+03</pdfrwt>
<totfact> 0.22559386E+03</totfact>
</mgrwt>
</event>
<event>
 4    1  0.5323640E-005  0.8900486E+03  0.7818608E-02  0.9438107E-01
         -2   -1    0    0    0  501 -0.00000000000E+00  0.00000000000E+00  0.20456838313E+03  0.20456838314E+03  0.25500000000E-02 0. -1.
          2   -1    0    0  501    0  0.00000000000E+00 -0.00000000000E+00 -0.96811951684E+03  0.96811951684E+03  0.25500000000E-02 0.  1.
    5000001    1    1    2    0    0  0.32617356494E+03 -0.18786428077E+03 -0.60668593031E+03  0.73278578077E+03  0.16500000000E+03 0.  0.
   -5000001    1    1    2    0    0 -0.32617356494E+03  0.18786428077E+03 -0.15686520340E+03  0.43990211922E+03  0.16500000000E+03 0.  0.
<mgrwt>
<rscale>  0 0.89004864E+03</rscale>
<asrwt>0</asrwt>
<pdfrwt beam="1">  1        2 0.13830279E+00 0.89004864E+03</pdfrwt>
<pdfrwt beam="2">  1       -2 0.29224055E-01 0.89004864E+03</pdfrwt>
<totfact> 0.31652320E+02</totfact>
</mgrwt>
</event>
<event>
 4    1  0.5323640E-005  0.4164434E+03  0.7818608E-02  0.1038230E+00
         -2   -1    0    0    0  501 -0.00000000000E+00  0.00000000000E+00  0.36931728971E+03  0.36931728972E+03  0.25500000000E-02 0. -1.
          2   -1    0    0  501    0  0.00000000000E+00 -0.00000000000E+00 -0.11739573773E+03  0.11739573776E+03  0.25500000000E-02 0.  1.
    5000001    1    1    2    0    0 -0.87658176742E+02 -0.84695739286E+02  0.16767589010E+03  0.26494816158E+03  0.16500000000E+03 0.  0.
   -5000001    1    1    2    0    0  0.87658176742E+02  0.84695739286E+02  0.84245661877E+02  0.22176486590E+03  0.16500000000E+03 0.  0.
<mgrwt>
<rscale>  0 0.41644340E+03</rscale>
<asrwt>0</asrwt>
<pdfrwt beam="1">  1        2 0.16770819E-01 0.41644340E+03</pdfrwt>
<pdfrwt beam="2">  1       -2 0.52759614E-01 0.41644340E+03</pdfrwt>
<totfact> 0.11855184E+03</totfact>
</mgrwt>
</event>
<event>
 4    1  0.5323640E-005  0.5182765E+03  0.7818608E-02  0.1009116E+00
         -2   -1    0    0    0  501 -0.00000000000E+00  0.00000000000E+00  0.11084634105E+03  0.11084634108E+03  0.25500000000E-02 0. -1.
          2   -1    0    0  501    0  0.00000000000E+00 -0.00000000000E+00 -0.60581732790E+03  0.60581732790E+03  0.25500000000E-02 0.  1.
    5000001    1    1    2    0    0  0.12882317780E+03 -0.44458481478E+02 -0.45411496895E+02  0.21876739191E+03  0.16500000000E+03 0.  0.
   -5000001    1    1    2    0    0 -0.12882317780E+03  0.44458481478E+02 -0.44955948995E+03  0.49789627707E+03  0.16500000000E+03 0.  0.
<mgrwt>
<rscale>  0 0.51827651E+03</rscale>
<asrwt>0</asrwt>
<pdfrwt beam="1">  1        2 0.86545330E-01 0.51827651E+03</pdfrwt>
<pdfrwt beam="2">  1       -2 0.15835192E-01 0.51827651E+03</pdfrwt>
<totfact> 0.17101703E+03</totfact>
</mgrwt>
</event>
<event>
 4    1  0.5323640E-005  0.7126704E+03  0.7818608E-02  0.9695806E-01
         -2   -1    0    0    0  501 -0.00000000000E+00  0.00000000000E+00  0.15396944183E+03  0.15396944185E+03  0.25500000000E-02 0. -1.
          2   -1    0    0  501    0  0.00000000000E+00 -0.00000000000E+00 -0.82467518781E+03  0.82467518781E+03  0.25500000000E-02 0.  1.
    5000001    1    1    2    0    0 -0.17590293415E+03 -0.19352789715E+03 -0.57851107574E+03  0.65596871418E+03  0.16500000000E+03 0.  0.
   -5000001    1    1    2    0    0  0.17590293415E+03  0.19352789715E+03 -0.92194670236E+02  0.32267591549E+03  0.16500000000E+03 0.  0.
<mgrwt>
<rscale>  0 0.71267041E+03</rscale>
<asrwt>0</asrwt>
<pdfrwt beam="1">  1        2 0.11781074E+00 0.71267041E+03</pdfrwt>
<pdfrwt beam="2">  1       -2 0.21995635E-01 0.71267041E+03</pdfrwt>
<totfact> 0.66126001E+02</totfact>
</mgrwt>
</event>
<event>
 4    1  0.5323640E-005  0.4594441E+03  0.7818608E-02  0.1024943E+00
          2   -1    0    0  501    0  0.00000000000E+00  0.00000000000E+00  0.52777881137E+03  0.52777881137E+03  0.25500000000E-02 0.  1.
         -2   -1    0    0    0  501 -0.00000000000E+00 -0.00000000000E+00 -0.99989271823E+02  0.99989271856E+02  0.25500000000E-02 0. -1.
    5000001    1    1    2    0    0  0.68339838369E+01  0.13473297610E+03  0.33101652244E+03  0.39369609639E+03  0.16500000000E+03 0.  0.
   -5000001    1    1    2    0    0 -0.68339838369E+01 -0.13473297610E+03  0.96773017099E+02  0.23407198684E+03  0.16500000000E+03 0.  0.
<mgrwt>
<rscale>  0 0.45944409E+03</rscale>
<asrwt>0</asrwt>
<pdfrwt beam="1">  1        2 0.75396974E-01 0.45944409E+03</pdfrwt>
<pdfrwt beam="2">  1       -2 0.14284181E-01 0.45944409E+03</pdfrwt>
<totfact> 0.23820193E+03</totfact>
</mgrwt>
</event>
<event>
 4    1  0.5323640E-005  0.6768979E+03  0.7818608E-02  0.9757576E-01
         -2   -1    0    0    0  501 -0.00000000000E+00  0.00000000000E+00  0.11716555975E+03  0.11716555978E+03  0.25500000000E-02 0. -1.
          2   -1    0    0  501    0  0.00000000000E+00 -0.00000000000E+00 -0.97765678630E+03  0.97765678631E+03  0.25500000000E-02 0.  1.
    5000001    1    1    2    0    0  0.60977575733E+02 -0.28778854491E+03 -0.38501030969E+03  0.51185784149E+03  0.16500000000E+03 0.  0.
   -5000001    1    1    2    0    0 -0.60977575733E+02  0.28778854491E+03 -0.47548091686E+03  0.58296450460E+03  0.16500000000E+03 0.  0.
<mgrwt>
<rscale>  0 0.67689794E+03</rscale>
<asrwt>0</asrwt>
<pdfrwt beam="1">  1        2 0.13966525E+00 0.67689794E+03</pdfrwt>
<pdfrwt beam="2">  1       -2 0.16737938E-01 0.67689794E+03</pdfrwt>
<totfact> 0.84647323E+02</totfact>
</mgrwt>
</event>
<event>
 4    1  0.5323640E-005  0.7092318E+03  0.7818608E-02  0.9701574E-01
          2   -1    0    0  501    0  0.00000000000E+00  0.00000000000E+00  0.33788036810E+03  0.33788036811E+03  0.25500000000E-02 0.  1.
         -2   -1    0    0    0  501 -0.00000000000E+00 -0.00000000000E+00 -0.37218034619E+03  0.37218034620E+03  0.25500000000E-02 0. -1.
    5000001    1    1    2    0    0  0.25783531877E+03  0.15921856319E+03 -0.99085911890E+02  0.35898832906E+03  0.16500000000E+03 0.  0.
   -5000001    1    1    2    0    0 -0.25783531877E+03 -0.15921856319E+03  0.64785933799E+02  0.35107238525E+03  0.16500000000E+03 0.  0.
<mgrwt>
<rscale>  0 0.70923179E+03</rscale>
<asrwt>0</asrwt>
<pdfrwt beam="1">  1        2 0.48268624E-01 0.70923179E+03</pdfrwt>
<pdfrwt beam="2">  1       -2 0.53168621E-01 0.70923179E+03</pdfrwt>
<totfact> 0.35128519E+02</totfact>
</mgrwt>
</event>
<event>
 4    1  0.5323640E-005  0.3856307E+03  0.7818608E-02  0.1048872E+00
         -2   -1    0    0    0  501 -0.00000000000E+00  0.00000000000E+00  0.23278925515E+02  0.23278925655E+02  0.25500000000E-02 0. -1.
          2   -1    0    0  501    0  0.00000000000E+00 -0.00000000000E+00 -0.15970565794E+04  0.15970565794E+04  0.25500000000E-02 0.  1.
    5000001    1    1    2    0    0 -0.10012939548E+02 -0.95911567208E+02 -0.89429947944E+03  0.91449212495E+03  0.16500000000E+03 0.  0.
   -5000001    1    1    2    0    0  0.10012939548E+02  0.95911567208E+02 -0.67947817443E+03  0.70584338008E+03  0.16500000000E+03 0.  0.
<mgrwt>
<rscale>  0 0.38563071E+03</rscale>
<asrwt>0</asrwt>
<pdfrwt beam="1">  1        2 0.22815087E+00 0.38563071E+03</pdfrwt>
<pdfrwt beam="2">  1       -2 0.33255618E-02 0.38563071E+03</pdfrwt>
<totfact> 0.50751140E+03</totfact>
</mgrwt>
</event>
<event>
 4    1  0.5323640E-005  0.4587432E+03  0.7818608E-02  0.1025146E+00
         -2   -1    0    0    0  501 -0.00000000000E+00  0.00000000000E+00  0.42354360077E+02  0.42354360154E+02  0.25500000000E-02 0. -1.
          2   -1    0    0  501    0  0.00000000000E+00 -0.00000000000E+00 -0.12421702508E+04  0.12421702508E+04  0.25500000000E-02 0.  1.
    5000001    1    1    2    0    0 -0.92626545908E+02 -0.12937869390E+03 -0.62296459832E+03  0.66379847409E+03  0.16500000000E+03 0.  0.
   -5000001    1    1    2    0    0  0.92626545908E+02  0.12937869390E+03 -0.57685129236E+03  0.62072613683E+03  0.16500000000E+03 0.  0.
<mgrwt>
<rscale>  0 0.45874318E+03</rscale>
<asrwt>0</asrwt>
<pdfrwt beam="1">  1        2 0.17745287E+00 0.45874318E+03</pdfrwt>
<pdfrwt beam="2">  1       -2 0.60506236E-02 0.45874318E+03</pdfrwt>
<totfact> 0.31141653E+03</totfact>
</mgrwt>
</event>
<event>
 4    1  0.5323640E-005  0.4013137E+03  0.7818608E-02  0.1043326E+00
         -2   -1    0    0    0  501 -0.00000000000E+00  0.00000000000E+00  0.26600004468E+02  0.26600004590E+02  0.25500000000E-02 0. -1.
          2   -1    0    0  501    0  0.00000000000E+00 -0.00000000000E+00 -0.15136529923E+04  0.15136529923E+04  0.25500000000E-02 0.  1.
    5000001    1    1    2    0    0  0.56825295546E+02  0.83920984170E+02 -0.94539106081E+03  0.96501870637E+03  0.16500000000E+03 0.  0.
   -5000001    1    1    2    0    0 -0.56825295546E+02 -0.83920984170E+02 -0.54166192700E+03  0.57523429049E+03  0.16500000000E+03 0.  0.
<mgrwt>
<rscale>  0 0.40131372E+03</rscale>
<asrwt>0</asrwt>
<pdfrwt beam="1">  1        2 0.21623609E+00 0.40131372E+03</pdfrwt>
<pdfrwt beam="2">  1       -2 0.38000016E-02 0.40131372E+03</pdfrwt>
<totfact> 0.45740699E+03</totfact>
</mgrwt>
</event>
<event>
 4    1  0.5323640E-005  0.6562227E+03  0.7818608E-02  0.9795172E-01
          2   -1    0    0  501    0  0.00000000000E+00  0.00000000000E+00  0.13784388890E+04  0.13784388890E+04  0.25500000000E-02 0.  1.
         -2   -1    0    0    0  501 -0.00000000000E+00 -0.00000000000E+00 -0.78100706509E+02  0.78100706551E+02  0.25500000000E-02 0. -1.
    5000001    1    1    2    0    0  0.25958043438E+03 -0.72119456025E+02  0.84680988205E+03  0.90382254574E+03  0.16500000000E+03 0.  0.
   -5000001    1    1    2    0    0 -0.25958043438E+03  0.72119456025E+02  0.45352830042E+03  0.55271704980E+03  0.16500000000E+03 0.  0.
<mgrwt>
<rscale>  0 0.65622268E+03</rscale>
<asrwt>0</asrwt>
<pdfrwt beam="1">  1        2 0.19691984E+00 0.65622268E+03</pdfrwt>
<pdfrwt beam="2">  1       -2 0.11157244E-01 0.65622268E+03</pdfrwt>
<totfact> 0.98587050E+02</totfact>
</mgrwt>
</event>
<event>
 4    1  0.5323640E-005  0.3991575E+03  0.7818608E-02  0.1044072E+00
          2   -1    0    0  501    0  0.00000000000E+00  0.00000000000E+00  0.15299394562E+04  0.15299394562E+04  0.25500000000E-02 0.  1.
         -2   -1    0    0    0  501 -0.00000000000E+00 -0.00000000000E+00 -0.26034800958E+02  0.26034801083E+02  0.25500000000E-02 0. -1.
    5000001    1    1    2    0    0  0.10864255309E+03 -0.55856031496E+01  0.86028055064E+03  0.88269022262E+03  0.16500000000E+03 0.  0.
   -5000001    1    1    2    0    0 -0.10864255309E+03  0.55856031496E+01  0.64362410460E+03  0.67328403466E+03  0.16500000000E+03 0.  0.
<mgrwt>
<rscale>  0 0.39915746E+03</rscale>
<asrwt>0</asrwt>
<pdfrwt beam="1">  1        2 0.21856280E+00 0.39915746E+03</pdfrwt>
<pdfrwt beam="2">  1       -2 0.37192569E-02 0.39915746E+03</pdfrwt>
<totfact> 0.46356868E+03</totfact>
</mgrwt>
</event>
<event>
 4    1  0.5323640E-005  0.6720061E+03  0.7818608E-02  0.9766341E-01
         -2   -1    0    0    0  501 -0.00000000000E+00  0.00000000000E+00  0.98841967170E+02  0.98841967203E+02  0.25500000000E-02 0. -1.
          2   -1    0    0  501    0  0.00000000000E+00 -0.00000000000E+00 -0.11422075978E+04  0.11422075978E+04  0.25500000000E-02 0.  1.
    5000001    1    1    2    0    0 -0.10267020539E+03 -0.25505749849E+03 -0.70707581911E+03  0.77638696060E+03  0.16500000000E+03 0.  0.
   -5000001    1    1    2    0    0  0.10267020539E+03  0.25505749849E+03 -0.33628981155E+03  0.46466260444E+03  0.16500000000E+03 0.  0.
<mgrwt>
<rscale>  0 0.67200609E+03</rscale>
<asrwt>0</asrwt>
<pdfrwt beam="1">  1        2 0.16317251E+00 0.67200609E+03</pdfrwt>
<pdfrwt beam="2">  1       -2 0.14120282E-01 0.67200609E+03</pdfrwt>
<totfact> 0.90094672E+02</totfact>
</mgrwt>
</event>
<event>
 4    1  0.5323640E-005  0.6657797E+03  0.7818608E-02  0.9777612E-01
          2   -1    0    0  501    0  0.00000000000E+00  0.00000000000E+00  0.28049139194E+03  0.28049139195E+03  0.25500000000E-02 0.  1.
         -2   -1    0    0    0  501 -0.00000000000E+00 -0.00000000000E+00 -0.39507682883E+03  0.39507682884E+03  0.25500000000E-02 0. -1.
    5000001    1    1    2    0    0 -0.28544379658E+03  0.30157945861E+02 -0.22098678346E+02  0.33181472886E+03  0.16500000000E+03 0.  0.
   -5000001    1    1    2    0    0  0.28544379658E+03 -0.30157945861E+02 -0.92486758549E+02  0.34375349193E+03  0.16500000000E+03 0.  0.
<mgrwt>
<rscale>  0 0.66577969E+03</rscale>
<asrwt>0</asrwt>
<pdfrwt beam="1">  1        2 0.40070199E-01 0.66577969E+03</pdfrwt>
<pdfrwt beam="2">  1       -2 0.56439546E-01 0.66577969E+03</pdfrwt>
<totfact> 0.38199850E+02</totfact>
</mgrwt>
</event>
<event>
 4    1  0.5323640E-005  0.9189358E+03  0.7818608E-02  0.9402216E-01
         -2   -1    0    0    0  501 -0.00000000000E+00  0.00000000000E+00  0.22150298912E+03  0.22150298914E+03  0.25500000000E-02 0. -1.
          2   -1    0    0  501    0  0.00000000000E+00 -0.00000000000E+00 -0.95308300030E+03  0.95308300030E+03  0.25500000000E-02 0.  1.
    5000001    1    1    2    0    0  0.42277198673E+03  0.63896352795E+02 -0.40753925356E+03  0.61329612738E+03  0.16500000000E+03 0.  0.
   -5000001    1    1    2    0    0 -0.42277198673E+03 -0.63896352795E+02 -0.32404075761E+03  0.56128986207E+03  0.16500000000E+03 0.  0.
<mgrwt>
<rscale>  0 0.91893576E+03</rscale>
<asrwt>0</asrwt>
<pdfrwt beam="1">  1        2 0.13615471E+00 0.91893576E+03</pdfrwt>
<pdfrwt beam="2">  1       -2 0.31643285E-01 0.91893576E+03</pdfrwt>
<totfact> 0.27858466E+02</totfact>
</mgrwt>
</event>
<event>
 4    1  0.5323640E-005  0.5997770E+03  0.7818608E-02  0.9905869E-01
         -2   -1    0    0    0  501 -0.00000000000E+00  0.00000000000E+00  0.51237194627E+03  0.51237194627E+03  0.25500000000E-02 0. -1.
          2   -1    0    0  501    0  0.00000000000E+00 -0.00000000000E+00 -0.17552308205E+03  0.17552308207E+03  0.25500000000E-02 0.  1.
    5000001    1    1    2    0    0  0.83619531732E+02 -0.23290221337E+03  0.12441450870E+03  0.32239670758E+03  0.16500000000E+03 0.  0.
   -5000001    1    1    2    0    0 -0.83619531732E+02  0.23290221337E+03  0.21243435552E+03  0.36549832077E+03  0.16500000000E+03 0.  0.
<mgrwt>
<rscale>  0 0.59977697E+03</rscale>
<asrwt>0</asrwt>
<pdfrwt beam="1">  1        2 0.25074726E-01 0.59977697E+03</pdfrwt>
<pdfrwt beam="2">  1       -2 0.73195993E-01 0.59977697E+03</pdfrwt>
<totfact> 0.37165251E+02</totfact>
</mgrwt>
</event>
<event>
 4    1  0.5323640E-005  0.5560287E+03  0.7818608E-02  0.1000108E+00
          2   -1    0    0  501    0  0.00000000000E+00  0.00000000000E+00  0.10884206195E+03  0.10884206198E+03  0.25500000000E-02 0. -1.
         -2   -1    0    0    0  501 -0.00000000000E+00 -0.00000000000E+00 -0.71012958833E+03  0.71012958833E+03  0.25500000000E-02 0.  1.
    5000001    1    1    2    0    0  0.34545503842E+02 -0.17497130897E+03 -0.49966784903E+03  0.55560895435E+03  0.16500000000E+03 0.  0.
   -5000001    1    1    2    0    0 -0.34545503842E+02  0.17497130897E+03 -0.10161967734E+03  0.26336269596E+03  0.16500000000E+03 0.  0.
<mgrwt>
<rscale>  0 0.55602866E+03</rscale>
<asrwt>0</asrwt>
<pdfrwt beam="1">  1        2 0.15548866E-01 0.55602866E+03</pdfrwt>
<pdfrwt beam="2">  1       -2 0.10144708E+00 0.55602866E+03</pdfrwt>
<totfact> 0.30999006E+02</totfact>
</mgrwt>
</event>
<event>
 4    1  0.5323640E-005  0.8436451E+03  0.7818608E-02  0.9498906E-01
          2   -1    0    0  501    0  0.00000000000E+00  0.00000000000E+00  0.15235566340E+03  0.15235566342E+03  0.25500000000E-02 0.  1.
         -2   -1    0    0    0  501 -0.00000000000E+00 -0.00000000000E+00 -0.11678872907E+04  0.11678872907E+04  0.25500000000E-02 0. -1.
    5000001    1    1    2    0    0  0.12755802438E+03 -0.30971022297E+03 -0.20063409524E+03  0.42387558549E+03  0.16500000000E+03 0.  0.
   -5000001    1    1    2    0    0 -0.12755802438E+03  0.30971022297E+03 -0.81489753207E+03  0.89636736864E+03  0.16500000000E+03 0.  0.
<mgrwt>
<rscale>  0 0.84364505E+03</rscale>
<asrwt>0</asrwt>
<pdfrwt beam="1">  1        2 0.21765095E-01 0.84364505E+03</pdfrwt>
<pdfrwt beam="2">  1       -2 0.16684104E+00 0.84364505E+03</pdfrwt>
<totfact> 0.58232695E+01</totfact>
</mgrwt>
</event>
<event>
 4    1  0.5323640E-005  0.1103611E+04  0.7818608E-02  0.9201679E-01
         -2   -1    0    0    0  501 -0.00000000000E+00  0.00000000000E+00  0.17351745665E+03  0.17351745667E+03  0.25500000000E-02 0. -1.
          2   -1    0    0  501    0  0.00000000000E+00 -0.00000000000E+00 -0.17548064847E+04  0.17548064847E+04  0.25500000000E-02 0.  1.
    5000001    1    1    2    0    0  0.21118611995E+03 -0.45578745402E+03 -0.51480148242E+03  0.73796161608E+03  0.16500000000E+03 0.  0.
   -5000001    1    1    2    0    0 -0.21118611995E+03  0.45578745402E+03 -0.10664875457E+04  0.11903623253E+04  0.16500000000E+03 0.  0.
<mgrwt>
<rscale>  0 0.11036115E+04</rscale>
<asrwt>0</asrwt>
<pdfrwt beam="1">  1        2 0.25068663E+00 0.11036115E+04</pdfrwt>
<pdfrwt beam="2">  1       -2 0.24788209E-01 0.11036115E+04</pdfrwt>
<totfact> 0.15520900E+02</totfact>
</mgrwt>
</event>
<event>
 4    1  0.5323640E-005  0.3619679E+03  0.7818608E-02  0.1057807E+00
         -2   -1    0    0    0  501 -0.00000000000E+00  0.00000000000E+00  0.29921207205E+02  0.29921207314E+02  0.25500000000E-02 0. -1.
          2   -1    0    0  501    0  0.00000000000E+00 -0.00000000000E+00 -0.10947149515E+04  0.10947149515E+04  0.25500000000E-02 0.  1.
    5000001    1    1    2    0    0 -0.31982436804E+02 -0.58487468223E+02 -0.63481182693E+03  0.65928348668E+03  0.16500000000E+03 0.  0.
   -5000001    1    1    2    0    0  0.31982436804E+02  0.58487468223E+02 -0.42998191740E+03  0.46535267217E+03  0.16500000000E+03 0.  0.
<mgrwt>
<rscale>  0 0.36196792E+03</rscale>
<asrwt>0</asrwt>
<pdfrwt beam="1">  1        2 0.15638782E+00 0.36196792E+03</pdfrwt>
<pdfrwt beam="2">  1       -2 0.42744589E-02 0.36196792E+03</pdfrwt>
<totfact> 0.64105621E+03</totfact>
</mgrwt>
</event>
<event>
 4    1  0.5323640E-005  0.8763167E+03  0.7818608E-02  0.9455681E-01
         -2   -1    0    0    0  501 -0.00000000000E+00  0.00000000000E+00  0.55397595972E+02  0.55397596031E+02  0.25500000000E-02 0. -1.
          2   -1    0    0  501    0  0.00000000000E+00 -0.00000000000E+00 -0.34655429559E+04  0.34655429559E+04  0.25500000000E-02 0.  1.
    5000001    1    1    2    0    0 -0.36188401791E+02  0.35596715982E+03 -0.24751613700E+04  0.25063262012E+04  0.16500000000E+03 0.  0.
   -5000001    1    1    2    0    0  0.36188401791E+02 -0.35596715982E+03 -0.93498398998E+03  0.10146143508E+04  0.16500000000E+03 0.  0.
<mgrwt>
<rscale>  0 0.87631672E+03</rscale>
<asrwt>0</asrwt>
<pdfrwt beam="1">  1        2 0.49507743E+00 0.87631672E+03</pdfrwt>
<pdfrwt beam="2">  1       -2 0.79139444E-02 0.87631672E+03</pdfrwt>
<totfact> 0.13245222E+02</totfact>
</mgrwt>
</event>
<event>
 4    1  0.5323640E-005  0.6959765E+03  0.7818608E-02  0.9724138E-01
         -2   -1    0    0    0  501 -0.00000000000E+00  0.00000000000E+00  0.62512795745E+02  0.62512795797E+02  0.25500000000E-02 0. -1.
          2   -1    0    0  501    0  0.00000000000E+00 -0.00000000000E+00 -0.19371364563E+04  0.19371364563E+04  0.25500000000E-02 0.  1.
    5000001    1    1    2    0    0 -0.22551182058E+03 -0.14441773898E+03 -0.50961906804E+03  0.59887282378E+03  0.16500000000E+03 0.  0.
   -5000001    1    1    2    0    0  0.22551182058E+03  0.14441773898E+03 -0.13650045926E+04  0.14007764284E+04  0.16500000000E+03 0.  0.
<mgrwt>
<rscale>  0 0.69597648E+03</rscale>
<asrwt>0</asrwt>
<pdfrwt beam="1">  1        2 0.27673374E+00 0.69597648E+03</pdfrwt>
<pdfrwt beam="2">  1       -2 0.89304006E-02 0.69597648E+03</pdfrwt>
<totfact> 0.72815835E+02</totfact>
</mgrwt>
</event>
<event>
 4    1  0.5323640E-005  0.4741790E+03  0.7818608E-02  0.1020747E+00
          2   -1    0    0  501    0  0.00000000000E+00  0.00000000000E+00  0.11451933716E+04  0.11451933716E+04  0.25500000000E-02 0.  1.
         -2   -1    0    0    0  501 -0.00000000000E+00 -0.00000000000E+00 -0.49084664447E+02  0.49084664513E+02  0.25500000000E-02 0. -1.
    5000001    1    1    2    0    0  0.12617980880E+03  0.33130342552E+02  0.27252728415E+03  0.34426019862E+03  0.16500000000E+03 0.  0.
   -5000001    1    1    2    0    0 -0.12617980880E+03 -0.33130342552E+02  0.82358142295E+03  0.85001783745E+03  0.16500000000E+03 0.  0.
<mgrwt>
<rscale>  0 0.47417901E+03</rscale>
<asrwt>0</asrwt>
<pdfrwt beam="1">  1        2 0.16359904E+00 0.47417901E+03</pdfrwt>
<pdfrwt beam="2">  1       -2 0.70120956E-02 0.47417901E+03</pdfrwt>
<totfact> 0.27997783E+03</totfact>
</mgrwt>
</event>
<event>
 4    1  0.5323640E-005  0.5999349E+03  0.7818608E-02  0.9905541E-01
         -2   -1    0    0    0  501 -0.00000000000E+00  0.00000000000E+00  0.20703824221E+03  0.20703824222E+03  0.25500000000E-02 0. -1.
          2   -1    0    0  501    0  0.00000000000E+00 -0.00000000000E+00 -0.43460792194E+03  0.43460792195E+03  0.25500000000E-02 0.  1.
    5000001    1    1    2    0    0  0.18356660517E+03  0.16777977868E+03 -0.81544206165E+02  0.30938844553E+03  0.16500000000E+03 0.  0.
   -5000001    1    1    2    0    0 -0.18356660517E+03 -0.16777977868E+03 -0.14602547357E+03  0.33225771865E+03  0.16500000000E+03 0.  0.
<mgrwt>
<rscale>  0 0.59993486E+03</rscale>
<asrwt>0</asrwt>
<pdfrwt beam="1">  1        2 0.62086846E-01 0.59993486E+03</pdfrwt>
<pdfrwt beam="2">  1       -2 0.29576892E-01 0.59993486E+03</pdfrwt>
<totfact> 0.83197767E+02</totfact>
</mgrwt>
</event>
<event>
 4    1  0.5323640E-005  0.4167573E+03  0.7818608E-02  0.1038127E+00
          2   -1    0    0  501    0  0.00000000000E+00  0.00000000000E+00  0.72694104579E+03  0.72694104579E+03  0.25500000000E-02 0.  1.
         -2   -1    0    0    0  501 -0.00000000000E+00 -0.00000000000E+00 -0.59732037899E+02  0.59732037953E+02  0.25500000000E-02 0. -1.
    5000001    1    1    2    0    0  0.10655469103E+03 -0.58661181587E+02  0.26293560888E+03  0.33339941635E+03  0.16500000000E+03 0.  0.
   -5000001    1    1    2    0    0 -0.10655469103E+03  0.58661181587E+02  0.40427339901E+03  0.45327366739E+03  0.16500000000E+03 0.  0.
<mgrwt>
<rscale>  0 0.41675734E+03</rscale>
<asrwt>0</asrwt>
<pdfrwt beam="1">  1        2 0.10384871E+00 0.41675734E+03</pdfrwt>
<pdfrwt beam="2">  1       -2 0.85331488E-02 0.41675734E+03</pdfrwt>
<totfact> 0.37706417E+03</totfact>
</mgrwt>
</event>
<event>
 4    1  0.5323640E-005  0.6075182E+03  0.7818608E-02  0.9889930E-01
         -2   -1    0    0    0  501 -0.00000000000E+00  0.00000000000E+00  0.19022043404E+03  0.19022043405E+03  0.25500000000E-02 0. -1.
          2   -1    0    0  501    0  0.00000000000E+00 -0.00000000000E+00 -0.48506658768E+03  0.48506658769E+03  0.25500000000E-02 0.  1.
    5000001    1    1    2    0    0  0.16713033258E+03 -0.16626043478E+03 -0.39256623579E+02  0.29041550017E+03  0.16500000000E+03 0.  0.
   -5000001    1    1    2    0    0 -0.16713033258E+03  0.16626043478E+03 -0.25558953006E+03  0.38487152157E+03  0.16500000000E+03 0.  0.
<mgrwt>
<rscale>  0 0.60751815E+03</rscale>
<asrwt>0</asrwt>
<pdfrwt beam="1">  1        2 0.69295226E-01 0.60751815E+03</pdfrwt>
<pdfrwt beam="2">  1       -2 0.27174348E-01 0.60751815E+03</pdfrwt>
<totfact> 0.85848912E+02</totfact>
</mgrwt>
</event>
<event>
 4    1  0.5323640E-005  0.3845209E+03  0.7818608E-02  0.1049275E+00
          2   -1    0    0  501    0  0.00000000000E+00  0.00000000000E+00  0.10836681729E+04  0.10836681729E+04  0.25500000000E-02 0.  1.
         -2   -1    0    0    0  501 -0.00000000000E+00 -0.00000000000E+00 -0.34110138276E+02  0.34110138371E+02  0.25500000000E-02 0. -1.
    5000001    1    1    2    0    0 -0.84535223389E+02  0.50906839956E+02  0.52817021983E+03  0.56207338619E+03  0.16500000000E+03 0.  0.
   -5000001    1    1    2    0    0  0.84535223389E+02 -0.50906839956E+02  0.52138781479E+03  0.55570492508E+03  0.16500000000E+03 0.  0.
<mgrwt>
<rscale>  0 0.38452085E+03</rscale>
<asrwt>0</asrwt>
<pdfrwt beam="1">  1        2 0.15480977E+00 0.38452085E+03</pdfrwt>
<pdfrwt beam="2">  1       -2 0.48728759E-02 0.38452085E+03</pdfrwt>
<totfact> 0.53307792E+03</totfact>
</mgrwt>
</event>
<event>
 4    1  0.5323640E-005  0.1001637E+04  0.7818608E-02  0.9306752E-01
          2   -1    0    0  501    0  0.00000000000E+00  0.00000000000E+00  0.32825759183E+03  0.32825759184E+03  0.25500000000E-02 0.  1.
         -2   -1    0    0    0  501 -0.00000000000E+00 -0.00000000000E+00 -0.76409190949E+03  0.76409190950E+03  0.25500000000E-02 0. -1.
    5000001    1    1    2    0    0  0.80116041017E+02 -0.46574766271E+03 -0.23531516279E+03  0.55311634507E+03  0.16500000000E+03 0.  0.
   -5000001    1    1    2    0    0 -0.80116041017E+02  0.46574766271E+03 -0.20051915487E+03  0.53923315627E+03  0.16500000000E+03 0.  0.
<mgrwt>
<rscale>  0 0.10016366E+04</rscale>
<asrwt>0</asrwt>
<pdfrwt beam="1">  1        2 0.46893942E-01 0.10016366E+04</pdfrwt>
<pdfrwt beam="2">  1       -2 0.10915599E+00 0.10016366E+04</pdfrwt>
<totfact> 0.72118624E+01</totfact>
</mgrwt>
</event>
<event>
 4    1  0.5323640E-005  0.6713190E+03  0.7818608E-02  0.9767578E-01
          2   -1    0    0  501    0  0.00000000000E+00  0.00000000000E+00  0.13032138877E+04  0.13032138877E+04  0.25500000000E-02 0.  1.
         -2   -1    0    0    0  501 -0.00000000000E+00 -0.00000000000E+00 -0.86453415504E+02  0.86453415542E+02  0.25500000000E-02 0. -1.
    5000001    1    1    2    0    0  0.30735953150E+02  0.23952789165E+03  0.26745540002E+03  0.39632776927E+03  0.16500000000E+03 0.  0.
   -5000001    1    1    2    0    0 -0.30735953150E+02 -0.23952789165E+03  0.94930507215E+03  0.99333953395E+03  0.16500000000E+03 0.  0.
<mgrwt>
<rscale>  0 0.67131898E+03</rscale>
<asrwt>0</asrwt>
<pdfrwt beam="1">  1        2 0.18617341E+00 0.67131898E+03</pdfrwt>
<pdfrwt beam="2">  1       -2 0.12350488E-01 0.67131898E+03</pdfrwt>
<totfact> 0.91530301E+02</totfact>
</mgrwt>
</event>
<event>
 4    1  0.5323640E-005  0.6794801E+03  0.7818608E-02  0.9752982E-01
          2   -1    0    0  501    0  0.00000000000E+00  0.00000000000E+00  0.23626270677E+04  0.23626270677E+04  0.25500000000E-02 0.  1.
         -2   -1    0    0    0  501 -0.00000000000E+00 -0.00000000000E+00 -0.48853801609E+02  0.48853801676E+02  0.25500000000E-02 0. -1.
    5000001    1    1    2    0    0  0.28438191042E+03  0.32052954363E+02  0.87524084860E+03  0.93550628320E+03  0.16500000000E+03 0.  0.
   -5000001    1    1    2    0    0 -0.28438191042E+03 -0.32052954363E+02  0.14385324175E+04  0.14759745862E+04  0.16500000000E+03 0.  0.
<mgrwt>
<rscale>  0 0.67948014E+03</rscale>
<asrwt>0</asrwt>
<pdfrwt beam="1">  1        2 0.33751815E+00 0.67948014E+03</pdfrwt>
<pdfrwt beam="2">  1       -2 0.69791145E-02 0.67948014E+03</pdfrwt>
<totfact> 0.65825943E+02</totfact>
</mgrwt>
</event>
<event>
 4    1  0.5323640E-005  0.3922945E+03  0.7818608E-02  0.1046481E+00
          2   -1    0    0  501    0  0.00000000000E+00  0.00000000000E+00  0.70051286721E+03  0.70051286721E+03  0.25500000000E-02 0.  1.
         -2   -1    0    0    0  501 -0.00000000000E+00 -0.00000000000E+00 -0.54922262497E+02  0.54922262556E+02  0.25500000000E-02 0. -1.
    5000001    1    1    2    0    0 -0.84396126317E+02 -0.56633153705E+02  0.38116388990E+03  0.42759903087E+03  0.16500000000E+03 0.  0.
   -5000001    1    1    2    0    0  0.84396126317E+02  0.56633153705E+02  0.26442671481E+03  0.32783609890E+03  0.16500000000E+03 0.  0.
<mgrwt>
<rscale>  0 0.39229454E+03</rscale>
<asrwt>0</asrwt>
<pdfrwt beam="1">  1        2 0.10007327E+00 0.39229454E+03</pdfrwt>
<pdfrwt beam="2">  1       -2 0.78460375E-02 0.39229454E+03</pdfrwt>
<totfact> 0.44992561E+03</totfact>
</mgrwt>
</event>
<event>
 4    1  0.5323640E-005  0.6488766E+03  0.7818608E-02  0.9808889E-01
          2   -1    0    0  501    0  0.00000000000E+00  0.00000000000E+00  0.18047911658E+04  0.18047911658E+04  0.25500000000E-02 0.  1.
         -2   -1    0    0    0  501 -0.00000000000E+00 -0.00000000000E+00 -0.58322658672E+02  0.58322658728E+02  0.25500000000E-02 0. -1.
    5000001    1    1    2    0    0  0.59802754669E+02 -0.23926747319E+03  0.49655928636E+03  0.57846470771E+03  0.16500000000E+03 0.  0.
   -5000001    1    1    2    0    0 -0.59802754669E+02  0.23926747319E+03  0.12499092207E+04  0.12846491168E+04  0.16500000000E+03 0.  0.
<mgrwt>
<rscale>  0 0.64887663E+03</rscale>
<asrwt>0</asrwt>
<pdfrwt beam="1">  1        2 0.25782728E+00 0.64887663E+03</pdfrwt>
<pdfrwt beam="2">  1       -2 0.83318092E-02 0.64887663E+03</pdfrwt>
<totfact> 0.95201907E+02</totfact>
</mgrwt>
</event>
<event>
 4    1  0.5323640E-005  0.4750119E+03  0.7818608E-02  0.1020515E+00
         -2   -1    0    0    0  501 -0.00000000000E+00  0.00000000000E+00  0.49832663118E+03  0.49832663119E+03  0.25500000000E-02 0. -1.
          2   -1    0    0  501    0  0.00000000000E+00 -0.00000000000E+00 -0.11319697486E+03  0.11319697489E+03  0.25500000000E-02 0.  1.
    5000001    1    1    2    0    0 -0.69660466425E+02  0.15466872367E+03  0.16652675106E+03  0.28936335892E+03  0.16500000000E+03 0.  0.
   -5000001    1    1    2    0    0  0.69660466425E+02 -0.15466872367E+03  0.21860290526E+03  0.32216024716E+03  0.16500000000E+03 0.  0.
<mgrwt>
<rscale>  0 0.47501186E+03</rscale>
<asrwt>0</asrwt>
<pdfrwt beam="1">  1        2 0.16170996E-01 0.47501186E+03</pdfrwt>
<pdfrwt beam="2">  1       -2 0.71189519E-01 0.47501186E+03</pdfrwt>
<totfact> 0.65995744E+02</totfact>
</mgrwt>
</event>
<event>
 4    1  0.5323640E-005  0.5087334E+03  0.7818608E-02  0.1011524E+00
         -2   -1    0    0    0  501 -0.00000000000E+00  0.00000000000E+00  0.47385696822E+02  0.47385696891E+02  0.25500000000E-02 0. -1.
          2   -1    0    0  501    0  0.00000000000E+00 -0.00000000000E+00 -0.13654419072E+04  0.13654419072E+04  0.25500000000E-02 0.  1.
    5000001    1    1    2    0    0 -0.10829516887E+03  0.15707678850E+03 -0.75014457980E+03  0.79141825332E+03  0.16500000000E+03 0.  0.
   -5000001    1    1    2    0    0  0.10829516887E+03 -0.15707678850E+03 -0.56791163062E+03  0.62140935081E+03  0.16500000000E+03 0.  0.
<mgrwt>
<rscale>  0 0.50873339E+03</rscale>
<asrwt>0</asrwt>
<pdfrwt beam="1">  1        2 0.19506310E+00 0.50873339E+03</pdfrwt>
<pdfrwt beam="2">  1       -2 0.67693861E-02 0.50873339E+03</pdfrwt>
<totfact> 0.22411244E+03</totfact>
</mgrwt>
</event>
<event>
 4    1  0.5323640E-005  0.3716050E+03  0.7818608E-02  0.1054081E+00
          2   -1    0    0  501    0  0.00000000000E+00  0.00000000000E+00  0.13966082518E+04  0.13966082518E+04  0.25500000000E-02 0.  1.
         -2   -1    0    0    0  501 -0.00000000000E+00 -0.00000000000E+00 -0.24718864614E+02  0.24718864746E+02  0.25500000000E-02 0. -1.
    5000001    1    1    2    0    0 -0.50658832662E+02  0.24685590872E+02  0.93150596610E+03  0.94768352345E+03  0.16500000000E+03 0.  0.
   -5000001    1    1    2    0    0  0.50658832662E+02 -0.24685590872E+02  0.44038342109E+03  0.47364359311E+03  0.16500000000E+03 0.  0.
<mgrwt>
<rscale>  0 0.37160501E+03</rscale>
<asrwt>0</asrwt>
<pdfrwt beam="1">  1        2 0.19951548E+00 0.37160501E+03</pdfrwt>
<pdfrwt beam="2">  1       -2 0.35312661E-02 0.37160501E+03</pdfrwt>
<totfact> 0.58713679E+03</totfact>
</mgrwt>
</event>
<event>
 4    1  0.5323640E-005  0.6469501E+03  0.7818608E-02  0.9812519E-01
          2   -1    0    0  501    0  0.00000000000E+00  0.00000000000E+00  0.26005672501E+03  0.26005672503E+03  0.25500000000E-02 0.  1.
         -2   -1    0    0    0  501 -0.00000000000E+00 -0.00000000000E+00 -0.40235884329E+03  0.40235884330E+03  0.25500000000E-02 0. -1.
    5000001    1    1    2    0    0 -0.16262601543E+03  0.21631950496E+03 -0.13726849025E+03  0.34541133093E+03  0.16500000000E+03 0.  0.
   -5000001    1    1    2    0    0  0.16262601543E+03 -0.21631950496E+03 -0.50336280314E+01  0.31700423740E+03  0.16500000000E+03 0.  0.
<mgrwt>
<rscale>  0 0.64695015E+03</rscale>
<asrwt>0</asrwt>
<pdfrwt beam="1">  1        2 0.37150961E-01 0.64695015E+03</pdfrwt>
<pdfrwt beam="2">  1       -2 0.57479835E-01 0.64695015E+03</pdfrwt>
<totfact> 0.40012795E+02</totfact>
</mgrwt>
</event>
<event>
 4    1  0.5323640E-005  0.9166035E+03  0.7818608E-02  0.9405061E-01
          2   -1    0    0  501    0  0.00000000000E+00  0.00000000000E+00  0.27634827710E+04  0.27634827710E+04  0.25500000000E-02 0.  1.
         -2   -1    0    0    0  501 -0.00000000000E+00 -0.00000000000E+00 -0.76005716179E+02  0.76005716222E+02  0.25500000000E-02 0. -1.
    5000001    1    1    2    0    0 -0.25317491004E+03  0.14276846458E+03  0.37230535667E+03  0.50031654795E+03  0.16500000000E+03 0.  0.
   -5000001    1    1    2    0    0  0.25317491004E+03 -0.14276846458E+03  0.23151716982E+04  0.23391719393E+04  0.16500000000E+03 0.  0.
<mgrwt>
<rscale>  0 0.91660349E+03</rscale>
<asrwt>0</asrwt>
<pdfrwt beam="1">  1        2 0.39478322E+00 0.91660349E+03</pdfrwt>
<pdfrwt beam="2">  1       -2 0.10857960E-01 0.91660349E+03</pdfrwt>
<totfact> 0.19573935E+02</totfact>
</mgrwt>
</event>
<event>
 4    1  0.5323640E-005  0.6407384E+03  0.7818608E-02  0.9824315E-01
          2   -1    0    0  501    0  0.00000000000E+00  0.00000000000E+00  0.53425894676E+03  0.53425894676E+03  0.25500000000E-02 0.  1.
         -2   -1    0    0    0  501 -0.00000000000E+00 -0.00000000000E+00 -0.19210985730E+03  0.19210985731E+03  0.25500000000E-02 0. -1.
    5000001    1    1    2    0    0  0.16046725929E+03  0.31823732802E+02 -0.78967509313E+02  0.24540447999E+03  0.16500000000E+03 0.  0.
   -5000001    1    1    2    0    0 -0.16046725929E+03 -0.31823732802E+02  0.42111659877E+03  0.48096432408E+03  0.16500000000E+03 0.  0.
<mgrwt>
<rscale>  0 0.64073836E+03</rscale>
<asrwt>0</asrwt>
<pdfrwt beam="1">  1        2 0.76322708E-01 0.64073836E+03</pdfrwt>
<pdfrwt beam="2">  1       -2 0.27444265E-01 0.64073836E+03</pdfrwt>
<totfact> 0.75463272E+02</totfact>
</mgrwt>
</event>
<event>
 4    1  0.5323640E-005  0.7294094E+03  0.7818608E-02  0.9668219E-01
          2   -1    0    0  501    0  0.00000000000E+00  0.00000000000E+00  0.30123900428E+03  0.30123900429E+03  0.25500000000E-02 0.  1.
         -2   -1    0    0    0  501 -0.00000000000E+00 -0.00000000000E+00 -0.44154149016E+03  0.44154149017E+03  0.25500000000E-02 0. -1.
    5000001    1    1    2    0    0 -0.28825530329E+03 -0.11268680828E+03  0.31656853907E+02  0.35215989697E+03  0.16500000000E+03 0.  0.
   -5000001    1    1    2    0    0  0.28825530329E+03  0.11268680828E+03 -0.17195933979E+03  0.39062059749E+03  0.16500000000E+03 0.  0.
<mgrwt>
<rscale>  0 0.72940940E+03</rscale>
<asrwt>0</asrwt>
<pdfrwt beam="1">  1        2 0.43034143E-01 0.72940940E+03</pdfrwt>
<pdfrwt beam="2">  1       -2 0.63077356E-01 0.72940940E+03</pdfrwt>
<totfact> 0.27881060E+02</totfact>
</mgrwt>
</event>
<event>
 4    1  0.5323640E-005  0.5056857E+03  0.7818608E-02  0.1012305E+00
         -2   -1    0    0    0  501 -0.00000000000E+00  0.00000000000E+00  0.28872246204E+02  0.28872246316E+02  0.25500000000E-02 0. -1.
          2   -1    0    0  501    0  0.00000000000E+00 -0.00000000000E+00 -0.22142203055E+04  0.22142203055E+04  0.25500000000E-02 0.  1.
    5000001    1    1    2    0    0 -0.23311021524E+02 -0.15515888887E+03 -0.60500778806E+03  0.64643414833E+03  0.16500000000E+03 0.  0.
   -5000001    1    1    2    0    0  0.23311021524E+02  0.15515888887E+03 -0.15803402712E+04  0.15966584034E+04  0.16500000000E+03 0.  0.
<mgrwt>
<rscale>  0 0.50568573E+03</rscale>
<asrwt>0</asrwt>
<pdfrwt beam="1">  1        2 0.31631708E+00 0.50568573E+03</pdfrwt>
<pdfrwt beam="2">  1       -2 0.41246080E-02 0.50568573E+03</pdfrwt>
<totfact> 0.17940405E+03</totfact>
</mgrwt>
</event>
<event>
 4    1  0.5323640E-005  0.4544650E+03  0.7818608E-02  0.1026399E+00
          2   -1    0    0  501    0  0.00000000000E+00  0.00000000000E+00  0.77171669242E+03  0.77171669242E+03  0.25500000000E-02 0.  1.
         -2   -1    0    0    0  501 -0.00000000000E+00 -0.00000000000E+00 -0.66908749765E+02  0.66908749814E+02  0.25500000000E-02 0. -1.
    5000001    1    1    2    0    0  0.38624152810E+02  0.12182577946E+03  0.18657034371E+03  0.27994077744E+03  0.16500000000E+03 0.  0.
   -5000001    1    1    2    0    0 -0.38624152810E+02 -0.12182577946E+03  0.51823759894E+03  0.55868466480E+03  0.16500000000E+03 0.  0.
<mgrwt>
<rscale>  0 0.45446496E+03</rscale>
<asrwt>0</asrwt>
<pdfrwt beam="1">  1        2 0.11024524E+00 0.45446496E+03</pdfrwt>
<pdfrwt beam="2">  1       -2 0.95583928E-02 0.45446496E+03</pdfrwt>
<totfact> 0.29250437E+03</totfact>
</mgrwt>
</event>
<event>
 4    1  0.5323640E-005  0.1020582E+04  0.7818608E-02  0.9286255E-01
          2   -1    0    0  501    0  0.00000000000E+00  0.00000000000E+00  0.19603139233E+04  0.19603139233E+04  0.25500000000E-02 0.  1.
         -2   -1    0    0    0  501 -0.00000000000E+00 -0.00000000000E+00 -0.13283427867E+03  0.13283427870E+03  0.25500000000E-02 0. -1.
    5000001    1    1    2    0    0  0.34380316454E+03 -0.14022007727E+03  0.15469099448E+04  0.15993803998E+04  0.16500000000E+03 0.  0.
   -5000001    1    1    2    0    0 -0.34380316454E+03  0.14022007727E+03  0.28056969985E+03  0.49376780220E+03  0.16500000000E+03 0.  0.
<mgrwt>
<rscale>  0 0.10205820E+04</rscale>
<asrwt>0</asrwt>
<pdfrwt beam="1">  1        2 0.28004484E+00 0.10205820E+04</pdfrwt>
<pdfrwt beam="2">  1       -2 0.18976326E-01 0.10205820E+04</pdfrwt>
<totfact> 0.19678114E+02</totfact>
</mgrwt>
</event>
<event>
 4    1  0.5323640E-005  0.6367524E+03  0.7818608E-02  0.9831960E-01
          2   -1    0    0  501    0  0.00000000000E+00  0.00000000000E+00  0.11919629273E+03  0.11919629276E+03  0.25500000000E-02 0.  1.
         -2   -1    0    0    0  501 -0.00000000000E+00 -0.00000000000E+00 -0.85039060377E+03  0.85039060377E+03  0.25500000000E-02 0. -1.
    5000001    1    1    2    0    0 -0.19039370642E+03 -0.12440431683E+03 -0.59355706805E+03  0.65670479710E+03  0.16500000000E+03 0.  0.
   -5000001    1    1    2    0    0  0.19039370642E+03  0.12440431683E+03 -0.13763724298E+03  0.31288209943E+03  0.16500000000E+03 0.  0.
<mgrwt>
<rscale>  0 0.63675241E+03</rscale>
<asrwt>0</asrwt>
<pdfrwt beam="1">  1        2 0.17028042E-01 0.63675241E+03</pdfrwt>
<pdfrwt beam="2">  1       -2 0.12148437E+00 0.63675241E+03</pdfrwt>
<totfact> 0.17940475E+02</totfact>
</mgrwt>
</event>
<event>
 4    1  0.5323640E-005  0.4091849E+03  0.7818608E-02  0.1040645E+00
         -2   -1    0    0    0  501 -0.00000000000E+00  0.00000000000E+00  0.26763292337E+02  0.26763292458E+02  0.25500000000E-02 0. -1.
          2   -1    0    0  501    0  0.00000000000E+00 -0.00000000000E+00 -0.15640108746E+04  0.15640108746E+04  0.25500000000E-02 0.  1.
    5000001    1    1    2    0    0 -0.94769863432E+02 -0.75102194512E+02 -0.78175795591E+03  0.80807930815E+03  0.16500000000E+03 0.  0.
   -5000001    1    1    2    0    0  0.94769863432E+02  0.75102194512E+02 -0.75548962639E+03  0.78269485894E+03  0.16500000000E+03 0.  0.
<mgrwt>
<rscale>  0 0.40918495E+03</rscale>
<asrwt>0</asrwt>
<pdfrwt beam="1">  1        2 0.22343007E+00 0.40918495E+03</pdfrwt>
<pdfrwt beam="2">  1       -2 0.38233285E-02 0.40918495E+03</pdfrwt>
<totfact> 0.42715565E+03</totfact>
</mgrwt>
</event>
<event>
 4    1  0.5323640E-005  0.9400981E+03  0.7818608E-02  0.9376800E-01
         -2   -1    0    0    0  501 -0.00000000000E+00  0.00000000000E+00  0.31488200076E+03  0.31488200077E+03  0.25500000000E-02 0. -1.
          2   -1    0    0  501    0  0.00000000000E+00 -0.00000000000E+00 -0.70167910202E+03  0.70167910203E+03  0.25500000000E-02 0.  1.
    5000001    1    1    2    0    0  0.15400044078E+03  0.39487120925E+03 -0.65080418148E+02  0.45945605718E+03  0.16500000000E+03 0.  0.
   -5000001    1    1    2    0    0 -0.15400044078E+03 -0.39487120925E+03 -0.32171668312E+03  0.55710504562E+03  0.16500000000E+03 0.  0.
<mgrwt>
<rscale>  0 0.94009812E+03</rscale>
<asrwt>0</asrwt>
<pdfrwt beam="1">  1        2 0.10023987E+00 0.94009812E+03</pdfrwt>
<pdfrwt beam="2">  1       -2 0.44983143E-01 0.94009812E+03</pdfrwt>
<totfact> 0.21040111E+02</totfact>
</mgrwt>
</event>
<event>
 4    1  0.5323640E-005  0.7529630E+03  0.7818608E-02  0.9630713E-01
         -2   -1    0    0    0  501 -0.00000000000E+00  0.00000000000E+00  0.54885745889E+02  0.54885745948E+02  0.25500000000E-02 0. -1.
          2   -1    0    0  501    0  0.00000000000E+00 -0.00000000000E+00 -0.25824249362E+04  0.25824249362E+04  0.25500000000E-02 0.  1.
    5000001    1    1    2    0    0  0.17806222929E+03 -0.10347761639E+03 -0.22042590261E+04  0.22199992407E+04  0.16500000000E+03 0.  0.
   -5000001    1    1    2    0    0 -0.17806222929E+03  0.10347761639E+03 -0.32328016425E+03  0.41731144148E+03  0.16500000000E+03 0.  0.
<mgrwt>
<rscale>  0 0.75296300E+03</rscale>
<asrwt>0</asrwt>
<pdfrwt beam="1">  1        2 0.36891777E+00 0.75296300E+03</pdfrwt>
<pdfrwt beam="2">  1       -2 0.78408225E-02 0.75296300E+03</pdfrwt>
<totfact> 0.41905566E+02</totfact>
</mgrwt>
</event>
<event>
 4    1  0.5323640E-005  0.4220483E+03  0.7818608E-02  0.1036402E+00
          2   -1    0    0  501    0  0.00000000000E+00  0.00000000000E+00  0.48895080047E+03  0.48895080047E+03  0.25500000000E-02 0.  1.
         -2   -1    0    0    0  501 -0.00000000000E+00 -0.00000000000E+00 -0.91075010948E+02  0.91075010984E+02  0.25500000000E-02 0. -1.
    5000001    1    1    2    0    0  0.79251971248E+02 -0.89849623177E+02  0.12426370761E+03  0.23878923502E+03  0.16500000000E+03 0.  0.
   -5000001    1    1    2    0    0 -0.79251971248E+02  0.89849623177E+02  0.27361208191E+03  0.34123657644E+03  0.16500000000E+03 0.  0.
<mgrwt>
<rscale>  0 0.42204834E+03</rscale>
<asrwt>0</asrwt>
<pdfrwt beam="1">  1        2 0.69850115E-01 0.42204834E+03</pdfrwt>
<pdfrwt beam="2">  1       -2 0.13010716E-01 0.42204834E+03</pdfrwt>
<totfact> 0.30276833E+03</totfact>
</mgrwt>
</event>
<event>
 4    1  0.5323640E-005  0.7288557E+03  0.7818608E-02  0.9669119E-01
         -2   -1    0    0    0  501 -0.00000000000E+00  0.00000000000E+00  0.10557741151E+03  0.10557741154E+03  0.25500000000E-02 0. -1.
          2   -1    0    0  501    0  0.00000000000E+00 -0.00000000000E+00 -0.12579172508E+04  0.12579172508E+04  0.25500000000E-02 0.  1.
    5000001    1    1    2    0    0 -0.38487900692E+02 -0.93356707458E+02  0.15986210698E+01  0.19345373844E+03  0.16500000000E+03 0.  0.
   -5000001    1    1    2    0    0  0.38487900692E+02  0.93356707458E+02 -0.11539384604E+04  0.11700409239E+04  0.16500000000E+03 0.  0.
<mgrwt>
<rscale>  0 0.72885567E+03</rscale>
<asrwt>0</asrwt>
<pdfrwt beam="1">  1        2 0.17970246E+00 0.72885567E+03</pdfrwt>
<pdfrwt beam="2">  1       -2 0.15082488E-01 0.72885567E+03</pdfrwt>
<totfact> 0.69239464E+02</totfact>
</mgrwt>
</event>
<event>
 4    1  0.5323640E-005  0.4673466E+03  0.7818608E-02  0.1022672E+00
          2   -1    0    0  501    0  0.00000000000E+00  0.00000000000E+00  0.44040011848E+03  0.44040011848E+03  0.25500000000E-02 0.  1.
         -2   -1    0    0    0  501 -0.00000000000E+00 -0.00000000000E+00 -0.12398544471E+03  0.12398544474E+03  0.25500000000E-02 0. -1.
    5000001    1    1    2    0    0 -0.16559330198E+02 -0.16101148038E+03  0.19967869960E+03  0.30544310649E+03  0.16500000000E+03 0.  0.
   -5000001    1    1    2    0    0  0.16559330198E+02  0.16101148038E+03  0.11673597417E+03  0.25894245673E+03  0.16500000000E+03 0.  0.
<mgrwt>
<rscale>  0 0.46734657E+03</rscale>
<asrwt>0</asrwt>
<pdfrwt beam="1">  1        2 0.62914304E-01 0.46734657E+03</pdfrwt>
<pdfrwt beam="2">  1       -2 0.17712206E-01 0.46734657E+03</pdfrwt>
<totfact> 0.20319805E+03</totfact>
</mgrwt>
</event>
<event>
 4    1  0.5323640E-005  0.3794199E+03  0.7818608E-02  0.1051148E+00
          2   -1    0    0  501    0  0.00000000000E+00  0.00000000000E+00  0.14651355656E+04  0.14651355656E+04  0.25500000000E-02 0.  1.
         -2   -1    0    0    0  501 -0.00000000000E+00 -0.00000000000E+00 -0.24564191106E+02  0.24564191238E+02  0.25500000000E-02 0. -1.
    5000001    1    1    2    0    0  0.31560972889E+02 -0.84745618069E+02  0.81540772382E+03  0.83683491255E+03  0.16500000000E+03 0.  0.
   -5000001    1    1    2    0    0 -0.31560972889E+02  0.84745618069E+02  0.62516365070E+03  0.65286484431E+03  0.16500000000E+03 0.  0.
<mgrwt>
<rscale>  0 0.37941993E+03</rscale>
<asrwt>0</asrwt>
<pdfrwt beam="1">  1        2 0.20930521E+00 0.37941993E+03</pdfrwt>
<pdfrwt beam="2">  1       -2 0.35091680E-02 0.37941993E+03</pdfrwt>
<totfact> 0.54630211E+03</totfact>
</mgrwt>
</event>
<event>
 4    1  0.5323640E-005  0.5558944E+03  0.7818608E-02  0.1000139E+00
         -2   -1    0    0    0  501 -0.00000000000E+00  0.00000000000E+00  0.56625183436E+02  0.56625183494E+02  0.25500000000E-02 0. -1.
          2   -1    0    0  501    0  0.00000000000E+00 -0.00000000000E+00 -0.13643158053E+04  0.13643158053E+04  0.25500000000E-02 0.  1.
    5000001    1    1    2    0    0  0.19023524731E+03  0.11748089430E+03 -0.66968982953E+03  0.72505218959E+03  0.16500000000E+03 0.  0.
   -5000001    1    1    2    0    0 -0.19023524731E+03 -0.11748089430E+03 -0.63800079230E+03  0.69588879918E+03  0.16500000000E+03 0.  0.
<mgrwt>
<rscale>  0 0.55589435E+03</rscale>
<asrwt>0</asrwt>
<pdfrwt beam="1">  1        2 0.19490224E+00 0.55589435E+03</pdfrwt>
<pdfrwt beam="2">  1       -2 0.80893128E-02 0.55589435E+03</pdfrwt>
<totfact> 0.16915213E+03</totfact>
</mgrwt>
</event>
<event>
 4    1  0.5323640E-005  0.6375420E+03  0.7818608E-02  0.9830441E-01
          2   -1    0    0  501    0  0.00000000000E+00  0.00000000000E+00  0.18398326993E+04  0.18398326993E+04  0.25500000000E-02 0.  1.
         -2   -1    0    0    0  501 -0.00000000000E+00 -0.00000000000E+00 -0.55230542958E+02  0.55230543017E+02  0.25500000000E-02 0. -1.
    5000001    1    1    2    0    0  0.11724053629E+03 -0.12407700263E+03  0.15245991306E+04  0.15429737377E+04  0.16500000000E+03 0.  0.
   -5000001    1    1    2    0    0 -0.11724053629E+03  0.12407700263E+03  0.26000302574E+03  0.35208950471E+03  0.16500000000E+03 0.  0.
<mgrwt>
<rscale>  0 0.63754203E+03</rscale>
<asrwt>0</asrwt>
<pdfrwt beam="1">  1        2 0.26283320E+00 0.63754203E+03</pdfrwt>
<pdfrwt beam="2">  1       -2 0.78900788E-02 0.63754203E+03</pdfrwt>
<totfact> 0.99764276E+02</totfact>
</mgrwt>
</event>
<event>
 4    1  0.5323640E-005  0.5024101E+03  0.7818608E-02  0.1013152E+00
          2   -1    0    0  501    0  0.00000000000E+00  0.00000000000E+00  0.72469728707E+03  0.72469728707E+03  0.25500000000E-02 0.  1.
         -2   -1    0    0    0  501 -0.00000000000E+00 -0.00000000000E+00 -0.87076326661E+02  0.87076326699E+02  0.25500000000E-02 0. -1.
    5000001    1    1    2    0    0  0.50855087016E+02  0.17686384477E+03  0.39128439694E+03  0.46281263892E+03  0.16500000000E+03 0.  0.
   -5000001    1    1    2    0    0 -0.50855087016E+02 -0.17686384477E+03  0.24633656347E+03  0.34896097484E+03  0.16500000000E+03 0.  0.
<mgrwt>
<rscale>  0 0.50241010E+03</rscale>
<asrwt>0</asrwt>
<pdfrwt beam="1">  1        2 0.10352818E+00 0.50241010E+03</pdfrwt>
<pdfrwt beam="2">  1       -2 0.12439475E-01 0.50241010E+03</pdfrwt>
<totfact> 0.20622588E+03</totfact>
</mgrwt>
</event>
<event>
 4    1  0.5323640E-005  0.9022460E+03  0.7818608E-02  0.9422778E-01
         -2   -1    0    0    0  501 -0.00000000000E+00  0.00000000000E+00  0.13346850874E+03  0.13346850877E+03  0.25500000000E-02 0. -1.
          2   -1    0    0  501    0  0.00000000000E+00 -0.00000000000E+00 -0.15247938083E+04  0.15247938083E+04  0.25500000000E-02 0.  1.
    5000001    1    1    2    0    0 -0.21730436247E+03  0.46535586597E+02 -0.40936871110E+02  0.27979916759E+03  0.16500000000E+03 0.  0.
   -5000001    1    1    2    0    0  0.21730436247E+03 -0.46535586597E+02 -0.13503884284E+04  0.13784631495E+04  0.16500000000E+03 0.  0.
<mgrwt>
<rscale>  0 0.90224599E+03</rscale>
<asrwt>0</asrwt>
<pdfrwt beam="1">  1        2 0.21782768E+00 0.90224599E+03</pdfrwt>
<pdfrwt beam="2">  1       -2 0.19066931E-01 0.90224599E+03</pdfrwt>
<totfact> 0.32980754E+02</totfact>
</mgrwt>
</event>
<event>
 4    1  0.5323640E-005  0.6750873E+03  0.7818608E-02  0.9760811E-01
          2   -1    0    0  501    0  0.00000000000E+00  0.00000000000E+00  0.61786741898E+03  0.61786741898E+03  0.25500000000E-02 0.  1.
         -2   -1    0    0    0  501 -0.00000000000E+00 -0.00000000000E+00 -0.18440158020E+03  0.18440158021E+03  0.25500000000E-02 0. -1.
    5000001    1    1    2    0    0  0.23824580591E+03 -0.16997112713E+03  0.25541470354E+03  0.42203426268E+03  0.16500000000E+03 0.  0.
   -5000001    1    1    2    0    0 -0.23824580591E+03  0.16997112713E+03  0.17805113524E+03  0.38023473651E+03  0.16500000000E+03 0.  0.
<mgrwt>
<rscale>  0 0.67508734E+03</rscale>
<asrwt>0</asrwt>
<pdfrwt beam="1">  1        2 0.88266776E-01 0.67508734E+03</pdfrwt>
<pdfrwt beam="2">  1       -2 0.26343082E-01 0.67508734E+03</pdfrwt>
<totfact> 0.68532384E+02</totfact>
</mgrwt>
</event>
<event>
 4    1  0.5323640E-005  0.3517911E+03  0.7818608E-02  0.1061882E+00
          2   -1    0    0  501    0  0.00000000000E+00  0.00000000000E+00  0.79675488423E+03  0.79675488423E+03  0.25500000000E-02 0.  1.
         -2   -1    0    0    0  501 -0.00000000000E+00 -0.00000000000E+00 -0.38831566812E+02  0.38831566896E+02  0.25500000000E-02 0. -1.
    5000001    1    1    2    0    0 -0.34401080405E+02  0.50149247511E+02  0.36950261632E+03  0.40921334878E+03  0.16500000000E+03 0.  0.
   -5000001    1    1    2    0    0  0.34401080405E+02 -0.50149247511E+02  0.38842070110E+03  0.42637310234E+03  0.16500000000E+03 0.  0.
<mgrwt>
<rscale>  0 0.35179108E+03</rscale>
<asrwt>0</asrwt>
<pdfrwt beam="1">  1        2 0.11382212E+00 0.35179108E+03</pdfrwt>
<pdfrwt beam="2">  1       -2 0.55473669E-02 0.35179108E+03</pdfrwt>
<totfact> 0.65749189E+03</totfact>
</mgrwt>
</event>
<event>
 4    1  0.5323640E-005  0.5617484E+03  0.7818608E-02  0.9988106E-01
          2   -1    0    0  501    0  0.00000000000E+00  0.00000000000E+00  0.82174012083E+03  0.82174012083E+03  0.25500000000E-02 0.  1.
         -2   -1    0    0    0  501 -0.00000000000E+00 -0.00000000000E+00 -0.96003956345E+02  0.96003956379E+02  0.25500000000E-02 0. -1.
    5000001    1    1    2    0    0  0.55404405896E+02  0.83499104729E+02  0.29557299630E+02  0.19529562884E+03  0.16500000000E+03 0.  0.
   -5000001    1    1    2    0    0 -0.55404405896E+02 -0.83499104729E+02  0.69617886485E+03  0.72244844837E+03  0.16500000000E+03 0.  0.
<mgrwt>
<rscale>  0 0.56174835E+03</rscale>
<asrwt>0</asrwt>
<pdfrwt beam="1">  1        2 0.11739145E+00 0.56174835E+03</pdfrwt>
<pdfrwt beam="2">  1       -2 0.13714850E-01 0.56174835E+03</pdfrwt>
<totfact> 0.14979352E+03</totfact>
</mgrwt>
</event>
<event>
 4    1  0.5323640E-005  0.5902797E+03  0.7818608E-02  0.9925780E-01
          2   -1    0    0  501    0  0.00000000000E+00  0.00000000000E+00  0.40437235698E+03  0.40437235699E+03  0.25500000000E-02 0.  1.
         -2   -1    0    0    0  501 -0.00000000000E+00 -0.00000000000E+00 -0.21541416290E+03  0.21541416292E+03  0.25500000000E-02 0. -1.
    5000001    1    1    2    0    0 -0.22301846497E+03 -0.39877811283E+01 -0.11196818851E+02  0.27767518230E+03  0.16500000000E+03 0.  0.
   -5000001    1    1    2    0    0  0.22301846497E+03  0.39877811283E+01  0.20015501293E+03  0.34211133760E+03  0.16500000000E+03 0.  0.
<mgrwt>
<rscale>  0 0.59027971E+03</rscale>
<asrwt>0</asrwt>
<pdfrwt beam="1">  1        2 0.57767480E-01 0.59027971E+03</pdfrwt>
<pdfrwt beam="2">  1       -2 0.30773452E-01 0.59027971E+03</pdfrwt>
<totfact> 0.83797617E+02</totfact>
</mgrwt>
</event>
<event>
 4    1  0.5323640E-005  0.7115622E+03  0.7818608E-02  0.9697661E-01
         -2   -1    0    0    0  501 -0.00000000000E+00  0.00000000000E+00  0.21821018432E+03  0.21821018434E+03  0.25500000000E-02 0. -1.
          2   -1    0    0  501    0  0.00000000000E+00 -0.00000000000E+00 -0.58008371808E+03  0.58008371808E+03  0.25500000000E-02 0.  1.
    5000001    1    1    2    0    0 -0.27588963249E+02  0.22543249337E+03  0.64278073818E+02  0.28798894203E+03  0.16500000000E+03 0.  0.
   -5000001    1    1    2    0    0  0.27588963249E+02 -0.22543249337E+03 -0.42615160757E+03  0.51030496039E+03  0.16500000000E+03 0.  0.
<mgrwt>
<rscale>  0 0.71156215E+03</rscale>
<asrwt>0</asrwt>
<pdfrwt beam="1">  1        2 0.82869102E-01 0.71156215E+03</pdfrwt>
<pdfrwt beam="2">  1       -2 0.31172884E-01 0.71156215E+03</pdfrwt>
<totfact> 0.54131862E+02</totfact>
</mgrwt>
</event>
<event>
 4    1  0.5323640E-005  0.3914111E+03  0.7818608E-02  0.1046795E+00
          2   -1    0    0  501    0  0.00000000000E+00  0.00000000000E+00  0.10514812519E+03  0.10514812522E+03  0.25500000000E-02 0.  1.
         -2   -1    0    0    0  501 -0.00000000000E+00 -0.00000000000E+00 -0.36425433769E+03  0.36425433770E+03  0.25500000000E-02 0. -1.
    5000001    1    1    2    0    0  0.69992783332E+02 -0.37046851030E+02 -0.21267642170E+03  0.28058460264E+03  0.16500000000E+03 0.  0.
   -5000001    1    1    2    0    0 -0.69992783332E+02  0.37046851030E+02 -0.46429790801E+02  0.18881786029E+03  0.16500000000E+03 0.  0.
<mgrwt>
<rscale>  0 0.39141109E+03</rscale>
<asrwt>0</asrwt>
<pdfrwt beam="1">  1        2 0.15021161E-01 0.39141109E+03</pdfrwt>
<pdfrwt beam="2">  1       -2 0.52036333E-01 0.39141109E+03</pdfrwt>
<totfact> 0.13892905E+03</totfact>
</mgrwt>
</event>
<event>
 4    1  0.5323640E-005  0.1864843E+04  0.7818608E-02  0.8672557E-01
         -2   -1    0    0    0  501 -0.00000000000E+00  0.00000000000E+00  0.50089788078E+03  0.50089788079E+03  0.25500000000E-02 0. -1.
          2   -1    0    0  501    0  0.00000000000E+00 -0.00000000000E+00 -0.17357032164E+04  0.17357032164E+04  0.25500000000E-02 0.  1.
    5000001    1    1    2    0    0  0.55888785021E+02  0.88561461505E+03 -0.33677443097E+03  0.96336847573E+03  0.16500000000E+03 0.  0.
   -5000001    1    1    2    0    0 -0.55888785021E+02 -0.88561461505E+03 -0.89803090466E+03  0.12732326215E+04  0.16500000000E+03 0.  0.
<mgrwt>
<rscale>  0 0.18648432E+04</rscale>
<asrwt>0</asrwt>
<pdfrwt beam="1">  1        2 0.24795760E+00 0.18648432E+04</pdfrwt>
<pdfrwt beam="2">  1       -2 0.71556841E-01 0.18648432E+04</pdfrwt>
<totfact> 0.18342877E+01</totfact>
</mgrwt>
</event>
<event>
 4    1  0.5323640E-005  0.3600805E+03  0.7818608E-02  0.1058552E+00
         -2   -1    0    0    0  501 -0.00000000000E+00  0.00000000000E+00  0.23486816902E+02  0.23486817040E+02  0.25500000000E-02 0. -1.
          2   -1    0    0  501    0  0.00000000000E+00 -0.00000000000E+00 -0.13801145136E+04  0.13801145136E+04  0.25500000000E-02 0.  1.
    5000001    1    1    2    0    0 -0.61970972230E+02 -0.36686289091E+02 -0.68529966038E+03  0.70855268662E+03  0.16500000000E+03 0.  0.
   -5000001    1    1    2    0    0  0.61970972230E+02  0.36686289091E+02 -0.67132803636E+03  0.69504864406E+03  0.16500000000E+03 0.  0.
<mgrwt>
<rscale>  0 0.36008053E+03</rscale>
<asrwt>0</asrwt>
<pdfrwt beam="1">  1        2 0.19715916E+00 0.36008053E+03</pdfrwt>
<pdfrwt beam="2">  1       -2 0.33552604E-02 0.36008053E+03</pdfrwt>
<totfact> 0.64665871E+03</totfact>
</mgrwt>
</event>
<event>
 4    1  0.5323640E-005  0.1058115E+04  0.7818608E-02  0.9247006E-01
          2   -1    0    0  501    0  0.00000000000E+00  0.00000000000E+00  0.26478128302E+04  0.26478128302E+04  0.25500000000E-02 0.  1.
         -2   -1    0    0    0  501 -0.00000000000E+00 -0.00000000000E+00 -0.10571057766E+03  0.10571057769E+03  0.25500000000E-02 0. -1.
    5000001    1    1    2    0    0 -0.23529622693E+03 -0.17496239074E+03  0.23335404805E+04  0.23576709539E+04  0.16500000000E+03 0.  0.
   -5000001    1    1    2    0    0  0.23529622693E+03  0.17496239074E+03  0.20856177201E+03  0.39585245398E+03  0.16500000000E+03 0.  0.
<mgrwt>
<rscale>  0 0.10581150E+04</rscale>
<asrwt>0</asrwt>
<pdfrwt beam="1">  1        2 0.37825887E+00 0.10581150E+04</pdfrwt>
<pdfrwt beam="2">  1       -2 0.15101515E-01 0.10581150E+04</pdfrwt>
<totfact> 0.12838062E+02</totfact>
</mgrwt>
</event>
<event>
 4    1  0.5323640E-005  0.5094017E+03  0.7818608E-02  0.1011354E+00
          2   -1    0    0  501    0  0.00000000000E+00  0.00000000000E+00  0.48876137607E+03  0.48876137607E+03  0.25500000000E-02 0.  1.
         -2   -1    0    0    0  501 -0.00000000000E+00 -0.00000000000E+00 -0.13272841893E+03  0.13272841895E+03  0.25500000000E-02 0. -1.
    5000001    1    1    2    0    0  0.15753384315E+03 -0.10683729857E+03  0.22393281912E+03  0.33704899878E+03  0.16500000000E+03 0.  0.
   -5000001    1    1    2    0    0 -0.15753384315E+03  0.10683729857E+03  0.13210013802E+03  0.28444079624E+03  0.16500000000E+03 0.  0.
<mgrwt>
<rscale>  0 0.50940171E+03</rscale>
<asrwt>0</asrwt>
<pdfrwt beam="1">  1        2 0.69823053E-01 0.50940171E+03</pdfrwt>
<pdfrwt beam="2">  1       -2 0.18961203E-01 0.50940171E+03</pdfrwt>
<totfact> 0.16097162E+03</totfact>
</mgrwt>
</event>
<event>
 4    1  0.5323640E-005  0.7268883E+03  0.7818608E-02  0.9672323E-01
         -2   -1    0    0    0  501 -0.00000000000E+00  0.00000000000E+00  0.61414744565E+02  0.61414744618E+02  0.25500000000E-02 0. -1.
          2   -1    0    0  501    0  0.00000000000E+00 -0.00000000000E+00 -0.21508134197E+04  0.21508134197E+04  0.25500000000E-02 0.  1.
    5000001    1    1    2    0    0 -0.23681718807E+03 -0.16952227079E+03 -0.61379462217E+03  0.69913447853E+03  0.16500000000E+03 0.  0.
   -5000001    1    1    2    0    0  0.23681718807E+03  0.16952227079E+03 -0.14756040529E+04  0.15130936857E+04  0.16500000000E+03 0.  0.
<mgrwt>
<rscale>  0 0.72688832E+03</rscale>
<asrwt>0</asrwt>
<pdfrwt beam="1">  1        2 0.30725901E+00 0.72688832E+03</pdfrwt>
<pdfrwt beam="2">  1       -2 0.87735363E-02 0.72688832E+03</pdfrwt>
<totfact> 0.58320529E+02</totfact>
</mgrwt>
</event>
<event>
 4    1  0.5323640E-005  0.3750759E+03  0.7818608E-02  0.1052769E+00
          2   -1    0    0  501    0  0.00000000000E+00  0.00000000000E+00  0.40478740832E+03  0.40478740832E+03  0.25500000000E-02 0.  1.
         -2   -1    0    0    0  501 -0.00000000000E+00 -0.00000000000E+00 -0.86886319862E+02  0.86886319900E+02  0.25500000000E-02 0. -1.
    5000001    1    1    2    0    0 -0.28938009026E+02  0.49492056045E+02  0.69478722876E+02  0.18798714028E+03  0.16500000000E+03 0.  0.
   -5000001    1    1    2    0    0  0.28938009026E+02 -0.49492056045E+02  0.24842236558E+03  0.30368658794E+03  0.16500000000E+03 0.  0.
<mgrwt>
<rscale>  0 0.37507593E+03</rscale>
<asrwt>0</asrwt>
<pdfrwt beam="1">  1        2 0.57826773E-01 0.37507593E+03</pdfrwt>
<pdfrwt beam="2">  1       -2 0.12412331E-01 0.37507593E+03</pdfrwt>
<totfact> 0.40221005E+03</totfact>
</mgrwt>
</event>
<event>
 4    1  0.5323640E-005  0.6975385E+03  0.7818608E-02  0.9721451E-01
          2   -1    0    0  501    0  0.00000000000E+00  0.00000000000E+00  0.44254451478E+02  0.44254451551E+02  0.25500000000E-02 0.  1.
         -2   -1    0    0    0  501 -0.00000000000E+00 -0.00000000000E+00 -0.27486494772E+04  0.27486494772E+04  0.25500000000E-02 0. -1.
    5000001    1    1    2    0    0 -0.18665077750E+03 -0.18012443163E+03 -0.69268057385E+03  0.75783553691E+03  0.16500000000E+03 0.  0.
   -5000001    1    1    2    0    0  0.18665077750E+03  0.18012443163E+03 -0.20117144518E+04  0.20350683918E+04  0.16500000000E+03 0.  0.
<mgrwt>
<rscale>  0 0.69753846E+03</rscale>
<asrwt>0</asrwt>
<pdfrwt beam="1">  1        2 0.63220662E-02 0.69753846E+03</pdfrwt>
<pdfrwt beam="2">  1       -2 0.39266410E+00 0.69753846E+03</pdfrwt>
<totfact> 0.10726621E+01</totfact>
</mgrwt>
</event>
<event>
 4    1  0.5323640E-005  0.5001449E+03  0.7818608E-02  0.1013741E+00
         -2   -1    0    0    0  501 -0.00000000000E+00  0.00000000000E+00  0.69943592577E+02  0.69943592623E+02  0.25500000000E-02 0. -1.
          2   -1    0    0  501    0  0.00000000000E+00 -0.00000000000E+00 -0.89409522312E+03  0.89409522312E+03  0.25500000000E-02 0.  1.
    5000001    1    1    2    0    0 -0.17576461042E+03 -0.51285720020E+02 -0.49357611212E+03  0.55169357601E+03  0.16500000000E+03 0.  0.
   -5000001    1    1    2    0    0  0.17576461042E+03  0.51285720020E+02 -0.33057551842E+03  0.41234523974E+03  0.16500000000E+03 0.  0.
<mgrwt>
<rscale>  0 0.50014491E+03</rscale>
<asrwt>0</asrwt>
<pdfrwt beam="1">  1        2 0.12772788E+00 0.50014491E+03</pdfrwt>
<pdfrwt beam="2">  1       -2 0.99919423E-02 0.50014491E+03</pdfrwt>
<totfact> 0.22550470E+03</totfact>
</mgrwt>
</event>
<event>
 4    1  0.5323640E-005  0.4536186E+03  0.7818608E-02  0.1026648E+00
          2   -1    0    0  501    0  0.00000000000E+00  0.00000000000E+00  0.21301102502E+04  0.21301102502E+04  0.25500000000E-02 0.  1.
         -2   -1    0    0    0  501 -0.00000000000E+00 -0.00000000000E+00 -0.24150135412E+02  0.24150135547E+02  0.25500000000E-02 0. -1.
    5000001    1    1    2    0    0 -0.89909374787E+02 -0.95466271478E+02  0.14508803632E+04  0.14661092500E+04  0.16500000000E+03 0.  0.
   -5000001    1    1    2    0    0  0.89909374787E+02  0.95466271478E+02  0.65507975153E+03  0.68815113567E+03  0.16500000000E+03 0.  0.
<mgrwt>
<rscale>  0 0.45361857E+03</rscale>
<asrwt>0</asrwt>
<pdfrwt beam="1">  1        2 0.30430164E+00 0.45361857E+03</pdfrwt>
<pdfrwt beam="2">  1       -2 0.34500173E-02 0.45361857E+03</pdfrwt>
<totfact> 0.26009350E+03</totfact>
</mgrwt>
</event>
<event>
 4    1  0.5323640E-005  0.8002286E+03  0.7818608E-02  0.9559686E-01
         -2   -1    0    0    0  501 -0.00000000000E+00  0.00000000000E+00  0.14690594845E+03  0.14690594847E+03  0.25500000000E-02 0. -1.
          2   -1    0    0  501    0  0.00000000000E+00 -0.00000000000E+00 -0.10897548375E+04  0.10897548375E+04  0.25500000000E-02 0.  1.
    5000001    1    1    2    0    0  0.12857352669E+03  0.29963544492E+03 -0.21959831405E+03  0.42633434198E+03  0.16500000000E+03 0.  0.
   -5000001    1    1    2    0    0 -0.12857352669E+03 -0.29963544492E+03 -0.72325057501E+03  0.81032644401E+03  0.16500000000E+03 0.  0.
<mgrwt>
<rscale>  0 0.80022864E+03</rscale>
<asrwt>0</asrwt>
<pdfrwt beam="1">  1        2 0.15567926E+00 0.80022864E+03</pdfrwt>
<pdfrwt beam="2">  1       -2 0.20986565E-01 0.80022864E+03</pdfrwt>
<totfact> 0.48711496E+02</totfact>
</mgrwt>
</event>
<event>
 4    1  0.5323640E-005  0.4861728E+03  0.7818608E-02  0.1017452E+00
          2   -1    0    0  501    0  0.00000000000E+00  0.00000000000E+00  0.74071325318E+02  0.74071325362E+02  0.25500000000E-02 0.  1.
         -2   -1    0    0    0  501 -0.00000000000E+00 -0.00000000000E+00 -0.79775796138E+03  0.79775796138E+03  0.25500000000E-02 0. -1.
    5000001    1    1    2    0    0 -0.88180193428E+02 -0.14741969047E+03 -0.44891622801E+03  0.50819198284E+03  0.16500000000E+03 0.  0.
   -5000001    1    1    2    0    0  0.88180193428E+02  0.14741969047E+03 -0.27477040804E+03  0.36363730390E+03  0.16500000000E+03 0.  0.
<mgrwt>
<rscale>  0 0.48617277E+03</rscale>
<asrwt>0</asrwt>
<pdfrwt beam="1">  1        2 0.10581618E-01 0.48617277E+03</pdfrwt>
<pdfrwt beam="2">  1       -2 0.11396542E+00 0.48617277E+03</pdfrwt>
<totfact> 0.37716504E+02</totfact>
</mgrwt>
</event>
<event>
 4    1  0.5323640E-005  0.7115221E+03  0.7818608E-02  0.9697728E-01
          2   -1    0    0  501    0  0.00000000000E+00  0.00000000000E+00  0.10513777828E+04  0.10513777828E+04  0.25500000000E-02 0.  1.
         -2   -1    0    0    0  501 -0.00000000000E+00 -0.00000000000E+00 -0.12038101406E+03  0.12038101408E+03  0.25500000000E-02 0. -1.
    5000001    1    1    2    0    0 -0.98943082877E+02  0.80871930757E+02  0.93997787663E+03  0.96286728649E+03  0.16500000000E+03 0.  0.
   -5000001    1    1    2    0    0  0.98943082877E+02 -0.80871930757E+02 -0.89811078505E+01  0.20889151043E+03  0.16500000000E+03 0.  0.
<mgrwt>
<rscale>  0 0.71152210E+03</rscale>
<asrwt>0</asrwt>
<pdfrwt beam="1">  1        2 0.15019683E+00 0.71152210E+03</pdfrwt>
<pdfrwt beam="2">  1       -2 0.17197287E-01 0.71152210E+03</pdfrwt>
<totfact> 0.72807978E+02</totfact>
</mgrwt>
</event>
<event>
 4    1  0.5323640E-005  0.3556053E+03  0.7818608E-02  0.1060338E+00
          2   -1    0    0  501    0  0.00000000000E+00  0.00000000000E+00  0.76974136273E+03  0.76974136273E+03  0.25500000000E-02 0.  1.
         -2   -1    0    0    0  501 -0.00000000000E+00 -0.00000000000E+00 -0.41070652904E+02  0.41070652983E+02  0.25500000000E-02 0. -1.
    5000001    1    1    2    0    0 -0.30759287561E+02  0.49908381698E+02  0.29399171737E+03  0.34218870557E+03  0.16500000000E+03 0.  0.
   -5000001    1    1    2    0    0  0.30759287561E+02 -0.49908381698E+02  0.43467899246E+03  0.46862331015E+03  0.16500000000E+03 0.  0.
<mgrwt>
<rscale>  0 0.35560529E+03</rscale>
<asrwt>0</asrwt>
<pdfrwt beam="1">  1        2 0.10996305E+00 0.35560529E+03</pdfrwt>
<pdfrwt beam="2">  1       -2 0.58672360E-02 0.35560529E+03</pdfrwt>
<totfact> 0.62964904E+03</totfact>
</mgrwt>
</event>
<event>
 4    1  0.5323640E-005  0.5151763E+03  0.7818608E-02  0.1009892E+00
          2   -1    0    0  501    0  0.00000000000E+00  0.00000000000E+00  0.68835778082E+03  0.68835778083E+03  0.25500000000E-02 0. -1.
         -2   -1    0    0    0  501 -0.00000000000E+00 -0.00000000000E+00 -0.96391246005E+02  0.96391246038E+02  0.25500000000E-02 0.  1.
    5000001    1    1    2    0    0  0.60361620959E+02  0.88457741837E+01  0.58260328093E+03  0.60858307235E+03  0.16500000000E+03 0.  0.
   -5000001    1    1    2    0    0 -0.60361620959E+02 -0.88457741837E+01  0.93632538885E+01  0.17616595451E+03  0.16500000000E+03 0.  0.
<mgrwt>
<rscale>  0 0.51517634E+03</rscale>
<asrwt>0</asrwt>
<pdfrwt beam="1">  1        2 0.98336826E-01 0.51517634E+03</pdfrwt>
<pdfrwt beam="2">  1       -2 0.13770178E-01 0.51517634E+03</pdfrwt>
<totfact> 0.18561242E+03</totfact>
</mgrwt>
</event>
<event>
 4    1  0.5323640E-005  0.3543923E+03  0.7818608E-02  0.1060827E+00
         -2   -1    0    0    0  501 -0.00000000000E+00  0.00000000000E+00  0.27025565908E+02  0.27025566028E+02  0.25500000000E-02 0. -1.
          2   -1    0    0  501    0  0.00000000000E+00 -0.00000000000E+00 -0.11618064533E+04  0.11618064533E+04  0.25500000000E-02 0.  1.
    5000001    1    1    2    0    0  0.53596829242E+02  0.72252435644E+01 -0.44885259608E+03  0.48126757345E+03  0.16500000000E+03 0.  0.
   -5000001    1    1    2    0    0 -0.53596829242E+02 -0.72252435644E+01 -0.68592829132E+03  0.70756444589E+03  0.16500000000E+03 0.  0.
<mgrwt>
<rscale>  0 0.35439231E+03</rscale>
<asrwt>0</asrwt>
<pdfrwt beam="1">  1        2 0.16597232E+00 0.35439231E+03</pdfrwt>
<pdfrwt beam="2">  1       -2 0.38607959E-02 0.35439231E+03</pdfrwt>
<totfact> 0.68544304E+03</totfact>
</mgrwt>
</event>
<event>
 4    1  0.5323640E-005  0.3996541E+03  0.7818608E-02  0.1043900E+00
          2   -1    0    0  501    0  0.00000000000E+00  0.00000000000E+00  0.31428164042E+04  0.31428164042E+04  0.25500000000E-02 0.  1.
         -2   -1    0    0    0  501 -0.00000000000E+00 -0.00000000000E+00 -0.12705436244E+02  0.12705436500E+02  0.25500000000E-02 0. -1.
    5000001    1    1    2    0    0 -0.68995843464E+02 -0.85997860331E+02  0.17501900321E+04  0.17614046119E+04  0.16500000000E+03 0.  0.
   -5000001    1    1    2    0    0  0.68995843464E+02  0.85997860331E+02  0.13799209358E+04  0.13941172288E+04  0.16500000000E+03 0.  0.
<mgrwt>
<rscale>  0 0.39965412E+03</rscale>
<asrwt>0</asrwt>
<pdfrwt beam="1">  1        2 0.44897403E+00 0.39965412E+03</pdfrwt>
<pdfrwt beam="2">  1       -2 0.18150613E-02 0.39965412E+03</pdfrwt>
<totfact> 0.20479560E+03</totfact>
</mgrwt>
</event>
<event>
 4    1  0.5323640E-005  0.3798429E+03  0.7818608E-02  0.1050992E+00
          2   -1    0    0  501    0  0.00000000000E+00  0.00000000000E+00  0.20228773302E+04  0.20228773302E+04  0.25500000000E-02 0.  1.
         -2   -1    0    0    0  501 -0.00000000000E+00 -0.00000000000E+00 -0.17831117817E+02  0.17831118000E+02  0.25500000000E-02 0. -1.
    5000001    1    1    2    0    0 -0.20646998466E+02  0.70319323693E+02  0.13191847502E+04  0.13314820731E+04  0.16500000000E+03 0.  0.
   -5000001    1    1    2    0    0  0.20646998466E+02 -0.70319323693E+02  0.68586146218E+03  0.70922637509E+03  0.16500000000E+03 0.  0.
<mgrwt>
<rscale>  0 0.37984294E+03</rscale>
<asrwt>0</asrwt>
<pdfrwt beam="1">  1        2 0.28898243E+00 0.37984294E+03</pdfrwt>
<pdfrwt beam="2">  1       -2 0.25473030E-02 0.37984294E+03</pdfrwt>
<totfact> 0.46507371E+03</totfact>
</mgrwt>
</event>
<event>
 4    1  0.5323640E-005  0.1148696E+04  0.7818608E-02  0.9158987E-01
         -2   -1    0    0    0  501 -0.00000000000E+00  0.00000000000E+00  0.23771428846E+03  0.23771428847E+03  0.25500000000E-02 0. -1.
          2   -1    0    0  501    0  0.00000000000E+00 -0.00000000000E+00 -0.13876989782E+04  0.13876989782E+04  0.25500000000E-02 0.  1.
    5000001    1    1    2    0    0 -0.16592875541E+03 -0.47740157281E+03 -0.26755378918E+03  0.59519294661E+03  0.16500000000E+03 0.  0.
   -5000001    1    1    2    0    0  0.16592875541E+03  0.47740157281E+03 -0.88243090051E+03  0.10302203200E+04  0.16500000000E+03 0.  0.
<mgrwt>
<rscale>  0 0.11486964E+04</rscale>
<asrwt>0</asrwt>
<pdfrwt beam="1">  1        2 0.19824271E+00 0.11486964E+04</pdfrwt>
<pdfrwt beam="2">  1       -2 0.33959185E-01 0.11486964E+04</pdfrwt>
<totfact> 0.13480584E+02</totfact>
</mgrwt>
</event>
<event>
 4    1  0.5323640E-005  0.6457162E+03  0.7818608E-02  0.9814851E-01
         -2   -1    0    0    0  501 -0.00000000000E+00  0.00000000000E+00  0.16013481396E+03  0.16013481398E+03  0.25500000000E-02 0. -1.
          2   -1    0    0  501    0  0.00000000000E+00 -0.00000000000E+00 -0.65093503463E+03  0.65093503463E+03  0.25500000000E-02 0.  1.
    5000001    1    1    2    0    0 -0.23357567335E+03 -0.14212303257E+03 -0.30505797868E+03  0.44163550800E+03  0.16500000000E+03 0.  0.
   -5000001    1    1    2    0    0  0.23357567335E+03  0.14212303257E+03 -0.18574224199E+03  0.36943434061E+03  0.16500000000E+03 0.  0.
<mgrwt>
<rscale>  0 0.64571622E+03</rscale>
<asrwt>0</asrwt>
<pdfrwt beam="1">  1        2 0.92990718E-01 0.64571622E+03</pdfrwt>
<pdfrwt beam="2">  1       -2 0.22876402E-01 0.64571622E+03</pdfrwt>
<totfact> 0.82993406E+02</totfact>
</mgrwt>
</event>
<event>
 4    1  0.5323640E-005  0.5473323E+03  0.7818608E-02  0.1002113E+00
         -2   -1    0    0    0  501 -0.00000000000E+00  0.00000000000E+00  0.31010079546E+02  0.31010079651E+02  0.25500000000E-02 0. -1.
          2   -1    0    0  501    0  0.00000000000E+00 -0.00000000000E+00 -0.24151231343E+04  0.24151231343E+04  0.25500000000E-02 0.  1.
    5000001    1    1    2    0    0  0.80565840931E+02  0.77044862552E+02 -0.35306886302E+03  0.40535094376E+03  0.16500000000E+03 0.  0.
   -5000001    1    1    2    0    0 -0.80565840931E+02 -0.77044862552E+02 -0.20310441918E+04  0.20407822702E+04  0.16500000000E+03 0.  0.
<mgrwt>
<rscale>  0 0.54733230E+03</rscale>
<asrwt>0</asrwt>
<pdfrwt beam="1">  1        2 0.34501747E+00 0.54733230E+03</pdfrwt>
<pdfrwt beam="2">  1       -2 0.44300129E-02 0.54733230E+03</pdfrwt>
<totfact> 0.12699354E+03</totfact>
</mgrwt>
</event>
<event>
 4    1  0.5323640E-005  0.5525094E+03  0.7818608E-02  0.1000915E+00
          2   -1    0    0  501    0  0.00000000000E+00  0.00000000000E+00  0.58628623150E+03  0.58628623150E+03  0.25500000000E-02 0.  1.
         -2   -1    0    0    0  501 -0.00000000000E+00 -0.00000000000E+00 -0.13016964074E+03  0.13016964076E+03  0.25500000000E-02 0. -1.
    5000001    1    1    2    0    0  0.49861188734E+02  0.19134952980E+03  0.98444334268E+02  0.27571192873E+03  0.16500000000E+03 0.  0.
   -5000001    1    1    2    0    0 -0.49861188734E+02 -0.19134952980E+03  0.35767225649E+03  0.44074394353E+03  0.16500000000E+03 0.  0.
<mgrwt>
<rscale>  0 0.55250943E+03</rscale>
<asrwt>0</asrwt>
<pdfrwt beam="1">  1        2 0.83755176E-01 0.55250943E+03</pdfrwt>
<pdfrwt beam="2">  1       -2 0.18595663E-01 0.55250943E+03</pdfrwt>
<totfact> 0.13511792E+03</totfact>
</mgrwt>
</event>
<event>
 4    1  0.5323640E-005  0.5094829E+03  0.7818608E-02  0.1011333E+00
          2   -1    0    0  501    0  0.00000000000E+00  0.00000000000E+00  0.63920637022E+03  0.63920637022E+03  0.25500000000E-02 0.  1.
         -2   -1    0    0    0  501 -0.00000000000E+00 -0.00000000000E+00 -0.10152152886E+03  0.10152152889E+03  0.25500000000E-02 0. -1.
    5000001    1    1    2    0    0 -0.82795542492E+02 -0.17544909201E+03  0.26078389719E+03  0.36451437115E+03  0.16500000000E+03 0.  0.
   -5000001    1    1    2    0    0  0.82795542492E+02  0.17544909201E+03  0.27690094417E+03  0.37621352796E+03  0.16500000000E+03 0.  0.
<mgrwt>
<rscale>  0 0.50948291E+03</rscale>
<asrwt>0</asrwt>
<pdfrwt beam="1">  1        2 0.91315196E-01 0.50948291E+03</pdfrwt>
<pdfrwt beam="2">  1       -2 0.14503076E-01 0.50948291E+03</pdfrwt>
<totfact> 0.18605118E+03</totfact>
</mgrwt>
</event>
<event>
 4    1  0.5323640E-005  0.7588135E+03  0.7818608E-02  0.9621624E-01
          2   -1    0    0  501    0  0.00000000000E+00  0.00000000000E+00  0.18824054246E+04  0.18824054246E+04  0.25500000000E-02 0.  1.
         -2   -1    0    0    0  501 -0.00000000000E+00 -0.00000000000E+00 -0.76471020680E+02  0.76471020722E+02  0.25500000000E-02 0. -1.
    5000001    1    1    2    0    0  0.27238996557E+03 -0.12754653754E+03  0.48463643219E+03  0.59376921778E+03  0.16500000000E+03 0.  0.
   -5000001    1    1    2    0    0 -0.27238996557E+03  0.12754653754E+03  0.13212979718E+04  0.13651072276E+04  0.16500000000E+03 0.  0.
<mgrwt>
<rscale>  0 0.75881345E+03</rscale>
<asrwt>0</asrwt>
<pdfrwt beam="1">  1        2 0.26891500E+00 0.75881345E+03</pdfrwt>
<pdfrwt beam="2">  1       -2 0.10924434E-01 0.75881345E+03</pdfrwt>
<totfact> 0.55721308E+02</totfact>
</mgrwt>
</event>
<event>
 4    1  0.5323640E-005  0.5383921E+03  0.7818608E-02  0.1004217E+00
         -2   -1    0    0    0  501 -0.00000000000E+00  0.00000000000E+00  0.45178989859E+02  0.45178989931E+02  0.25500000000E-02 0. -1.
          2   -1    0    0  501    0  0.00000000000E+00 -0.00000000000E+00 -0.16039869553E+04  0.16039869553E+04  0.25500000000E-02 0.  1.
    5000001    1    1    2    0    0  0.46529407476E+02 -0.17247993554E+03 -0.11330225735E+04  0.11588267628E+04  0.16500000000E+03 0.  0.
   -5000001    1    1    2    0    0 -0.46529407476E+02  0.17247993554E+03 -0.42578539195E+03  0.49033918253E+03  0.16500000000E+03 0.  0.
<mgrwt>
<rscale>  0 0.53839209E+03</rscale>
<asrwt>0</asrwt>
<pdfrwt beam="1">  1        2 0.22914096E+00 0.53839209E+03</pdfrwt>
<pdfrwt beam="2">  1       -2 0.64541424E-02 0.53839209E+03</pdfrwt>
<totfact> 0.18134110E+03</totfact>
</mgrwt>
</event>
<event>
 4    1  0.5323640E-005  0.3766980E+03  0.7818608E-02  0.1052161E+00
         -2   -1    0    0    0  501 -0.00000000000E+00  0.00000000000E+00  0.15351790112E+02  0.15351790324E+02  0.25500000000E-02 0. -1.
          2   -1    0    0  501    0  0.00000000000E+00 -0.00000000000E+00 -0.23108284185E+04  0.23108284185E+04  0.25500000000E-02 0.  1.
    5000001    1    1    2    0    0 -0.92859631214E+01 -0.88398701750E+02 -0.10322452552E+04  0.10491214546E+04  0.16500000000E+03 0.  0.
   -5000001    1    1    2    0    0  0.92859631214E+01  0.88398701750E+02 -0.12632313732E+04  0.12770587543E+04  0.16500000000E+03 0.  0.
<mgrwt>
<rscale>  0 0.37669804E+03</rscale>
<asrwt>0</asrwt>
<pdfrwt beam="1">  1        2 0.33011812E+00 0.37669804E+03</pdfrwt>
<pdfrwt beam="2">  1       -2 0.21931144E-02 0.37669804E+03</pdfrwt>
<totfact> 0.41874083E+03</totfact>
</mgrwt>
</event>
<event>
 4    1  0.5323640E-005  0.4785594E+03  0.7818608E-02  0.1019532E+00
         -2   -1    0    0    0  501 -0.00000000000E+00  0.00000000000E+00  0.27443442467E+02  0.27443442585E+02  0.25500000000E-02 0. -1.
          2   -1    0    0  501    0  0.00000000000E+00 -0.00000000000E+00 -0.20862822289E+04  0.20862822289E+04  0.25500000000E-02 0.  1.
    5000001    1    1    2    0    0 -0.11280526257E+03  0.11503753444E+03 -0.13112375347E+04  0.13313630362E+04  0.16500000000E+03 0.  0.
   -5000001    1    1    2    0    0  0.11280526257E+03 -0.11503753444E+03 -0.74760125177E+03  0.78236263538E+03  0.16500000000E+03 0.  0.
<mgrwt>
<rscale>  0 0.47855936E+03</rscale>
<asrwt>0</asrwt>
<pdfrwt beam="1">  1        2 0.29804022E+00 0.47855936E+03</pdfrwt>
<pdfrwt beam="2">  1       -2 0.39204931E-02 0.47855936E+03</pdfrwt>
<totfact> 0.22491526E+03</totfact>
</mgrwt>
</event>
<event>
 4    1  0.5323640E-005  0.3696286E+03  0.7818608E-02  0.1054835E+00
         -2   -1    0    0    0  501 -0.00000000000E+00  0.00000000000E+00  0.10113841398E+03  0.10113841401E+03  0.25500000000E-02 0. -1.
          2   -1    0    0  501    0  0.00000000000E+00 -0.00000000000E+00 -0.33771862799E+03  0.33771862800E+03  0.25500000000E-02 0.  1.
    5000001    1    1    2    0    0  0.12012108214E+02  0.78861350521E+02 -0.89995592129E+02  0.20417543915E+03  0.16500000000E+03 0.  0.
   -5000001    1    1    2    0    0 -0.12012108214E+02 -0.78861350521E+02 -0.14658462188E+03  0.23468160286E+03  0.16500000000E+03 0.  0.
<mgrwt>
<rscale>  0 0.36962861E+03</rscale>
<asrwt>0</asrwt>
<pdfrwt beam="1">  1        2 0.48245518E-01 0.36962861E+03</pdfrwt>
<pdfrwt beam="2">  1       -2 0.14448345E-01 0.36962861E+03</pdfrwt>
<totfact> 0.38159549E+03</totfact>
</mgrwt>
</event>
<event>
 4    1  0.5323640E-005  0.5450456E+03  0.7818608E-02  0.1002647E+00
         -2   -1    0    0    0  501 -0.00000000000E+00  0.00000000000E+00  0.50732806323E+02  0.50732806387E+02  0.25500000000E-02 0. -1.
          2   -1    0    0  501    0  0.00000000000E+00 -0.00000000000E+00 -0.14639181505E+04  0.14639181505E+04  0.25500000000E-02 0.  1.
    5000001    1    1    2    0    0 -0.57676792377E+02 -0.19026804354E+03 -0.46568638832E+03  0.53255737066E+03  0.16500000000E+03 0.  0.
   -5000001    1    1    2    0    0  0.57676792377E+02  0.19026804354E+03 -0.94749895587E+03  0.98209358625E+03  0.16500000000E+03 0.  0.
<mgrwt>
<rscale>  0 0.54504560E+03</rscale>
<asrwt>0</asrwt>
<pdfrwt beam="1">  1        2 0.20913114E+00 0.54504560E+03</pdfrwt>
<pdfrwt beam="2">  1       -2 0.72475447E-02 0.54504560E+03</pdfrwt>
<totfact> 0.17844866E+03</totfact>
</mgrwt>
</event>
<event>
 4    1  0.5323640E-005  0.4364651E+03  0.7818608E-02  0.1031837E+00
          2   -1    0    0  501    0  0.00000000000E+00  0.00000000000E+00  0.37905815935E+03  0.37905815936E+03  0.25500000000E-02 0.  1.
         -2   -1    0    0    0  501 -0.00000000000E+00 -0.00000000000E+00 -0.12564150758E+03  0.12564150761E+03  0.25500000000E-02 0. -1.
    5000001    1    1    2    0    0  0.11790395869E+03  0.29906492141E+02  0.21327676610E+03  0.29581703924E+03  0.16500000000E+03 0.  0.
   -5000001    1    1    2    0    0 -0.11790395869E+03 -0.29906492141E+02  0.40139885673E+02  0.20888262773E+03  0.16500000000E+03 0.  0.
<mgrwt>
<rscale>  0 0.43646507E+03</rscale>
<asrwt>0</asrwt>
<pdfrwt beam="1">  1        2 0.54151165E-01 0.43646507E+03</pdfrwt>
<pdfrwt beam="2">  1       -2 0.17948787E-01 0.43646507E+03</pdfrwt>
<totfact> 0.23424761E+03</totfact>
</mgrwt>
</event>
<event>
 4    1  0.5323640E-005  0.5159846E+03  0.7818608E-02  0.1009689E+00
         -2   -1    0    0    0  501 -0.00000000000E+00  0.00000000000E+00  0.53309903339E+03  0.53309903340E+03  0.25500000000E-02 0. -1.
          2   -1    0    0  501    0  0.00000000000E+00 -0.00000000000E+00 -0.12485488473E+03  0.12485488475E+03  0.25500000000E-02 0.  1.
    5000001    1    1    2    0    0  0.11079830167E+03  0.41063635419E+02  0.10076928821E+01  0.20294950419E+03  0.16500000000E+03 0.  0.
   -5000001    1    1    2    0    0 -0.11079830167E+03 -0.41063635419E+02  0.40723645578E+03  0.45500441396E+03  0.16500000000E+03 0.  0.
<mgrwt>
<rscale>  0 0.51598457E+03</rscale>
<asrwt>0</asrwt>
<pdfrwt beam="1">  1        2 0.17836412E-01 0.51598457E+03</pdfrwt>
<pdfrwt beam="2">  1       -2 0.76157004E-01 0.51598457E+03</pdfrwt>
<totfact> 0.50660306E+02</totfact>
</mgrwt>
</event>
<event>
 4    1  0.5323640E-005  0.5913251E+03  0.7818608E-02  0.9923569E-01
         -2   -1    0    0    0  501 -0.00000000000E+00  0.00000000000E+00  0.10590042654E+03  0.10590042657E+03  0.25500000000E-02 0. -1.
          2   -1    0    0  501    0  0.00000000000E+00 -0.00000000000E+00 -0.82545793656E+03  0.82545793656E+03  0.25500000000E-02 0.  1.
    5000001    1    1    2    0    0  0.16096445059E+03 -0.17935996613E+03 -0.28739910919E+03  0.40975944134E+03  0.16500000000E+03 0.  0.
   -5000001    1    1    2    0    0 -0.16096445059E+03  0.17935996613E+03 -0.43215840083E+03  0.52159892179E+03  0.16500000000E+03 0.  0.
<mgrwt>
<rscale>  0 0.59132511E+03</rscale>
<asrwt>0</asrwt>
<pdfrwt beam="1">  1        2 0.11792256E+00 0.59132511E+03</pdfrwt>
<pdfrwt beam="2">  1       -2 0.15128633E-01 0.59132511E+03</pdfrwt>
<totfact> 0.12631112E+03</totfact>
</mgrwt>
</event>
<event>
 4    1  0.5323640E-005  0.5079253E+03  0.7818608E-02  0.1011731E+00
          2   -1    0    0  501    0  0.00000000000E+00  0.00000000000E+00  0.20592967797E+04  0.20592967797E+04  0.25500000000E-02 0.  1.
         -2   -1    0    0    0  501 -0.00000000000E+00 -0.00000000000E+00 -0.31319932978E+02  0.31319933082E+02  0.25500000000E-02 0. -1.
    5000001    1    1    2    0    0  0.10936803785E+03  0.15758790052E+03  0.11038569572E+04  0.11324842144E+04  0.16500000000E+03 0.  0.
   -5000001    1    1    2    0    0 -0.10936803785E+03 -0.15758790052E+03  0.92411988954E+03  0.95813249832E+03  0.16500000000E+03 0.  0.
<mgrwt>
<rscale>  0 0.50792534E+03</rscale>
<asrwt>0</asrwt>
<pdfrwt beam="1">  1        2 0.29418516E+00 0.50792534E+03</pdfrwt>
<pdfrwt beam="2">  1       -2 0.44742776E-02 0.50792534E+03</pdfrwt>
<totfact> 0.18923620E+03</totfact>
</mgrwt>
</event>
<event>
 4    1  0.5323640E-005  0.5284058E+03  0.7818608E-02  0.1006619E+00
         -2   -1    0    0    0  501 -0.00000000000E+00  0.00000000000E+00  0.47015327611E+02  0.47015327680E+02  0.25500000000E-02 0. -1.
          2   -1    0    0  501    0  0.00000000000E+00 -0.00000000000E+00 -0.14846897369E+04  0.14846897369E+04  0.25500000000E-02 0.  1.
    5000001    1    1    2    0    0 -0.14863758420E+03  0.50488013199E+02 -0.33062390804E+03  0.40147146783E+03  0.16500000000E+03 0.  0.
   -5000001    1    1    2    0    0  0.14863758420E+03 -0.50488013199E+02 -0.11070505013E+04  0.11302335968E+04  0.16500000000E+03 0.  0.
<mgrwt>
<rscale>  0 0.52840581E+03</rscale>
<asrwt>0</asrwt>
<pdfrwt beam="1">  1        2 0.21209850E+00 0.52840581E+03</pdfrwt>
<pdfrwt beam="2">  1       -2 0.67164763E-02 0.52840581E+03</pdfrwt>
<totfact> 0.19631762E+03</totfact>
</mgrwt>
</event>
<event>
 4    1  0.5323640E-005  0.5551864E+03  0.7818608E-02  0.1000301E+00
          2   -1    0    0  501    0  0.00000000000E+00  0.00000000000E+00  0.11039465750E+04  0.11039465750E+04  0.25500000000E-02 0.  1.
         -2   -1    0    0    0  501 -0.00000000000E+00 -0.00000000000E+00 -0.69802279689E+02  0.69802279735E+02  0.25500000000E-02 0. -1.
    5000001    1    1    2    0    0 -0.13432321925E+03 -0.17773453957E+03  0.48712169663E+03  0.56048625417E+03  0.16500000000E+03 0.  0.
   -5000001    1    1    2    0    0  0.13432321925E+03  0.17773453957E+03  0.54702259869E+03  0.61326260058E+03  0.16500000000E+03 0.  0.
<mgrwt>
<rscale>  0 0.55518641E+03</rscale>
<asrwt>0</asrwt>
<pdfrwt beam="1">  1        2 0.15770664E+00 0.55518641E+03</pdfrwt>
<pdfrwt beam="2">  1       -2 0.99717549E-02 0.55518641E+03</pdfrwt>
<totfact> 0.16854314E+03</totfact>
</mgrwt>
</event>
<event>
 4    1  0.5323640E-005  0.6274727E+03  0.7818608E-02  0.9849993E-01
         -2   -1    0    0    0  501 -0.00000000000E+00  0.00000000000E+00  0.23976950339E+03  0.23976950340E+03  0.25500000000E-02 0. -1.
          2   -1    0    0  501    0  0.00000000000E+00 -0.00000000000E+00 -0.41052134444E+03  0.41052134445E+03  0.25500000000E-02 0.  1.
    5000001    1    1    2    0    0 -0.11106695652E+03  0.23259352898E+03 -0.15695177562E+03  0.34393964358E+03  0.16500000000E+03 0.  0.
   -5000001    1    1    2    0    0  0.11106695652E+03 -0.23259352898E+03 -0.13800065437E+02  0.30635120427E+03  0.16500000000E+03 0.  0.
<mgrwt>
<rscale>  0 0.62747271E+03</rscale>
<asrwt>0</asrwt>
<pdfrwt beam="1">  1        2 0.58645906E-01 0.62747271E+03</pdfrwt>
<pdfrwt beam="2">  1       -2 0.34252786E-01 0.62747271E+03</pdfrwt>
<totfact> 0.67393909E+02</totfact>
</mgrwt>
</event>
<event>
 4    1  0.5323640E-005  0.4242421E+03  0.7818608E-02  0.1035694E+00
         -2   -1    0    0    0  501 -0.00000000000E+00  0.00000000000E+00  0.54787634560E+02  0.54787634620E+02  0.25500000000E-02 0. -1.
          2   -1    0    0  501    0  0.00000000000E+00 -0.00000000000E+00 -0.82126806640E+03  0.82126806640E+03  0.25500000000E-02 0.  1.
    5000001    1    1    2    0    0  0.96703547155E+02  0.67671207222E+02 -0.51119241705E+03  0.54997605000E+03  0.16500000000E+03 0.  0.
   -5000001    1    1    2    0    0 -0.96703547155E+02 -0.67671207222E+02 -0.25528801479E+03  0.32607965103E+03  0.16500000000E+03 0.  0.
<mgrwt>
<rscale>  0 0.42424208E+03</rscale>
<asrwt>0</asrwt>
<pdfrwt beam="1">  1        2 0.11732400E+00 0.42424208E+03</pdfrwt>
<pdfrwt beam="2">  1       -2 0.78268054E-02 0.42424208E+03</pdfrwt>
<totfact> 0.37142945E+03</totfact>
</mgrwt>
</event>
<event>
 4    1  0.5323640E-005  0.6381128E+03  0.7818608E-02  0.9829344E-01
         -2   -1    0    0    0  501 -0.00000000000E+00  0.00000000000E+00  0.65338546235E+02  0.65338546285E+02  0.25500000000E-02 0. -1.
          2   -1    0    0  501    0  0.00000000000E+00 -0.00000000000E+00 -0.15579926414E+04  0.15579926414E+04  0.25500000000E-02 0.  1.
    5000001    1    1    2    0    0  0.24867487649E+03 -0.10152498762E+03 -0.62103990952E+03  0.69646398796E+03  0.16500000000E+03 0.  0.
   -5000001    1    1    2    0    0 -0.24867487649E+03  0.10152498762E+03 -0.87161418560E+03  0.92686719968E+03  0.16500000000E+03 0.  0.
<mgrwt>
<rscale>  0 0.63811276E+03</rscale>
<asrwt>0</asrwt>
<pdfrwt beam="1">  1        2 0.22257035E+00 0.63811276E+03</pdfrwt>
<pdfrwt beam="2">  1       -2 0.93340790E-02 0.63811276E+03</pdfrwt>
<totfact> 0.10610202E+03</totfact>
</mgrwt>
</event>
<event>
 4    1  0.5323640E-005  0.9190388E+03  0.7818608E-02  0.9402090E-01
          2   -1    0    0  501    0  0.00000000000E+00  0.00000000000E+00  0.14299439967E+04  0.14299439967E+04  0.25500000000E-02 0.  1.
         -2   -1    0    0    0  501 -0.00000000000E+00 -0.00000000000E+00 -0.14766877005E+03  0.14766877007E+03  0.25500000000E-02 0. -1.
    5000001    1    1    2    0    0 -0.23175704242E+03  0.35371329127E+03  0.51844462686E+03  0.68908217961E+03  0.16500000000E+03 0.  0.
   -5000001    1    1    2    0    0  0.23175704242E+03 -0.35371329127E+03  0.76383059975E+03  0.88853058712E+03  0.16500000000E+03 0.  0.
<mgrwt>
<rscale>  0 0.91903878E+03</rscale>
<asrwt>0</asrwt>
<pdfrwt beam="1">  1        2 0.20427772E+00 0.91903878E+03</pdfrwt>
<pdfrwt beam="2">  1       -2 0.21095538E-01 0.91903878E+03</pdfrwt>
<totfact> 0.30983905E+02</totfact>
</mgrwt>
</event>
<event>
 4    1  0.5323640E-005  0.3750473E+03  0.7818608E-02  0.1052780E+00
         -2   -1    0    0    0  501 -0.00000000000E+00  0.00000000000E+00  0.22305748748E+02  0.22305748893E+02  0.25500000000E-02 0. -1.
          2   -1    0    0  501    0  0.00000000000E+00 -0.00000000000E+00 -0.15765047197E+04  0.15765047197E+04  0.25500000000E-02 0.  1.
    5000001    1    1    2    0    0  0.81730438772E+02 -0.33559427349E+02 -0.72774878296E+03  0.75143156101E+03  0.16500000000E+03 0.  0.
   -5000001    1    1    2    0    0 -0.81730438772E+02  0.33559427349E+02 -0.82645018803E+03  0.84737890763E+03  0.16500000000E+03 0.  0.
<mgrwt>
<rscale>  0 0.37504729E+03</rscale>
<asrwt>0</asrwt>
<pdfrwt beam="1">  1        2 0.22521489E+00 0.37504729E+03</pdfrwt>
<pdfrwt beam="2">  1       -2 0.31865366E-02 0.37504729E+03</pdfrwt>
<totfact> 0.55427002E+03</totfact>
</mgrwt>
</event>
<event>
 4    1  0.5323640E-005  0.4825466E+03  0.7818608E-02  0.1018438E+00
          2   -1    0    0  501    0  0.00000000000E+00  0.00000000000E+00  0.44573223028E+02  0.44573223101E+02  0.25500000000E-02 0.  1.
         -2   -1    0    0    0  501 -0.00000000000E+00 -0.00000000000E+00 -0.13060039577E+04  0.13060039578E+04  0.25500000000E-02 0. -1.
    5000001    1    1    2    0    0 -0.12712212895E+03 -0.88020808444E+02 -0.86622033223E+03  0.89524877121E+03  0.16500000000E+03 0.  0.
   -5000001    1    1    2    0    0  0.12712212895E+03  0.88020808444E+02 -0.39521040249E+03  0.45532840964E+03  0.16500000000E+03 0.  0.
<mgrwt>
<rscale>  0 0.48254660E+03</rscale>
<asrwt>0</asrwt>
<pdfrwt beam="1">  1        2 0.63676041E-02 0.48254660E+03</pdfrwt>
<pdfrwt beam="2">  1       -2 0.18657197E+00 0.48254660E+03</pdfrwt>
<totfact> 0.20040768E+02</totfact>
</mgrwt>
</event>
<event>
 4    1  0.5323640E-005  0.4371504E+03  0.7818608E-02  0.1031625E+00
         -2   -1    0    0    0  501 -0.00000000000E+00  0.00000000000E+00  0.19739755709E+02  0.19739755874E+02  0.25500000000E-02 0. -1.
          2   -1    0    0  501    0  0.00000000000E+00 -0.00000000000E+00 -0.24202487228E+04  0.24202487228E+04  0.25500000000E-02 0.  1.
    5000001    1    1    2    0    0  0.23359370414E+02  0.98177325326E+02 -0.63198333135E+03  0.66091783037E+03  0.16500000000E+03 0.  0.
   -5000001    1    1    2    0    0 -0.23359370414E+02 -0.98177325326E+02 -0.17685256358E+04  0.17790706483E+04  0.16500000000E+03 0.  0.
<mgrwt>
<rscale>  0 0.43715040E+03</rscale>
<asrwt>0</asrwt>
<pdfrwt beam="1">  1        2 0.34574963E+00 0.43715040E+03</pdfrwt>
<pdfrwt beam="2">  1       -2 0.28199667E-02 0.43715040E+03</pdfrwt>
<totfact> 0.25269609E+03</totfact>
</mgrwt>
</event>
<event>
 4    1  0.5323640E-005  0.4795890E+03  0.7818608E-02  0.1019248E+00
          2   -1    0    0  501    0  0.00000000000E+00  0.00000000000E+00  0.48622429132E+03  0.48622429133E+03  0.25500000000E-02 0.  1.
         -2   -1    0    0    0  501 -0.00000000000E+00 -0.00000000000E+00 -0.11826108837E+03  0.11826108840E+03  0.25500000000E-02 0. -1.
    5000001    1    1    2    0    0  0.68211046928E+02  0.15103986680E+03  0.25080338196E+03  0.34291853943E+03  0.16500000000E+03 0.  0.
   -5000001    1    1    2    0    0 -0.68211046928E+02 -0.15103986680E+03  0.11715982099E+03  0.26156684029E+03  0.16500000000E+03 0.  0.
<mgrwt>
<rscale>  0 0.47958905E+03</rscale>
<asrwt>0</asrwt>
<pdfrwt beam="1">  1        2 0.69460614E-01 0.47958905E+03</pdfrwt>
<pdfrwt beam="2">  1       -2 0.16894441E-01 0.47958905E+03</pdfrwt>
<totfact> 0.19718927E+03</totfact>
</mgrwt>
</event>
<event>
 4    1  0.5323640E-005  0.1021804E+04  0.7818608E-02  0.9284949E-01
         -2   -1    0    0    0  501 -0.00000000000E+00  0.00000000000E+00  0.93088995726E+03  0.93088995727E+03  0.25500000000E-02 0. -1.
          2   -1    0    0  501    0  0.00000000000E+00 -0.00000000000E+00 -0.28039926319E+03  0.28039926320E+03  0.25500000000E-02 0.  1.
    5000001    1    1    2    0    0 -0.27597752692E+03 -0.38649364678E+03  0.43295057489E+03  0.66348484132E+03  0.16500000000E+03 0.  0.
   -5000001    1    1    2    0    0  0.27597752692E+03  0.38649364678E+03  0.21754011918E+03  0.54780437915E+03  0.16500000000E+03 0.  0.
<mgrwt>
<rscale>  0 0.10218040E+04</rscale>
<asrwt>0</asrwt>
<pdfrwt beam="1">  1        2 0.40057037E-01 0.10218040E+04</pdfrwt>
<pdfrwt beam="2">  1       -2 0.13298428E+00 0.10218040E+04</pdfrwt>
<totfact> 0.52569480E+01</totfact>
</mgrwt>
</event>
<event>
 4    1  0.5323640E-005  0.5349124E+03  0.7818608E-02  0.1005048E+00
          2   -1    0    0  501    0  0.00000000000E+00  0.00000000000E+00  0.94439503569E+03  0.94439503570E+03  0.25500000000E-02 0.  1.
         -2   -1    0    0    0  501 -0.00000000000E+00 -0.00000000000E+00 -0.75744591678E+02  0.75744591721E+02  0.25500000000E-02 0. -1.
    5000001    1    1    2    0    0  0.12939875319E+03  0.12853212607E+03  0.63473819818E+03  0.68072176768E+03  0.16500000000E+03 0.  0.
   -5000001    1    1    2    0    0 -0.12939875319E+03 -0.12853212607E+03  0.23391224583E+03  0.33941785974E+03  0.16500000000E+03 0.  0.
<mgrwt>
<rscale>  0 0.53491239E+03</rscale>
<asrwt>0</asrwt>
<pdfrwt beam="1">  1        2 0.13491356E+00 0.53491239E+03</pdfrwt>
<pdfrwt beam="2">  1       -2 0.10820657E-01 0.53491239E+03</pdfrwt>
<totfact> 0.18412040E+03</totfact>
</mgrwt>
</event>
<event>
 4    1  0.5323640E-005  0.6885777E+03  0.7818608E-02  0.9736968E-01
          2   -1    0    0  501    0  0.00000000000E+00  0.00000000000E+00  0.11715784737E+03  0.11715784739E+03  0.25500000000E-02 0.  1.
         -2   -1    0    0    0  501 -0.00000000000E+00 -0.00000000000E+00 -0.10117530263E+04  0.10117530263E+04  0.25500000000E-02 0. -1.
    5000001    1    1    2    0    0  0.29291554742E+03  0.34730912619E+02 -0.33973890313E+03  0.47922153177E+03  0.16500000000E+03 0.  0.
   -5000001    1    1    2    0    0 -0.29291554742E+03 -0.34730912619E+02 -0.55485627576E+03  0.64968934189E+03  0.16500000000E+03 0.  0.
<mgrwt>
<rscale>  0 0.68857768E+03</rscale>
<asrwt>0</asrwt>
<pdfrwt beam="1">  1        2 0.16736836E-01 0.68857768E+03</pdfrwt>
<pdfrwt beam="2">  1       -2 0.14453614E+00 0.68857768E+03</pdfrwt>
<totfact> 0.11758730E+02</totfact>
</mgrwt>
</event>
<event>
 4    1  0.5323640E-005  0.5362782E+03  0.7818608E-02  0.1004721E+00
          2   -1    0    0  501    0  0.00000000000E+00  0.00000000000E+00  0.36467393023E+03  0.36467393024E+03  0.25500000000E-02 0.  1.
         -2   -1    0    0    0  501 -0.00000000000E+00 -0.00000000000E+00 -0.19715855120E+03  0.19715855121E+03  0.25500000000E-02 0. -1.
    5000001    1    1    2    0    0 -0.11684236427E+03 -0.17194156920E+03  0.43760701752E+02  0.26899078111E+03  0.16500000000E+03 0.  0.
   -5000001    1    1    2    0    0  0.11684236427E+03  0.17194156920E+03  0.12375467729E+03  0.29284170034E+03  0.16500000000E+03 0.  0.
<mgrwt>
<rscale>  0 0.53627823E+03</rscale>
<asrwt>0</asrwt>
<pdfrwt beam="1">  1        2 0.52096276E-01 0.53627823E+03</pdfrwt>
<pdfrwt beam="2">  1       -2 0.28165507E-01 0.53627823E+03</pdfrwt>
<totfact> 0.11061910E+03</totfact>
</mgrwt>
</event>
<event>
 4    1  0.5323640E-005  0.7799468E+03  0.7818608E-02  0.9589506E-01
         -2   -1    0    0    0  501 -0.00000000000E+00  0.00000000000E+00  0.15659849397E+03  0.15659849399E+03  0.25500000000E-02 0. -1.
          2   -1    0    0  501    0  0.00000000000E+00 -0.00000000000E+00 -0.97114128032E+03  0.97114128033E+03  0.25500000000E-02 0.  1.
    5000001    1    1    2    0    0  0.10764002562E+03 -0.20280768464E+03 -0.79562087641E+03  0.84436657385E+03  0.16500000000E+03 0.  0.
   -5000001    1    1    2    0    0 -0.10764002562E+03  0.20280768464E+03 -0.18921909948E+02  0.28337320046E+03  0.16500000000E+03 0.  0.
<mgrwt>
<rscale>  0 0.77994682E+03</rscale>
<asrwt>0</asrwt>
<pdfrwt beam="1">  1        2 0.13873447E+00 0.77994682E+03</pdfrwt>
<pdfrwt beam="2">  1       -2 0.22371214E-01 0.77994682E+03</pdfrwt>
<totfact> 0.51381703E+02</totfact>
</mgrwt>
</event>
<event>
 4    1  0.5323640E-005  0.4280984E+03  0.7818608E-02  0.1034462E+00
          2   -1    0    0  501    0  0.00000000000E+00  0.00000000000E+00  0.49238991772E+03  0.49238991772E+03  0.25500000000E-02 0.  1.
         -2   -1    0    0    0  501 -0.00000000000E+00 -0.00000000000E+00 -0.93050350218E+02  0.93050350253E+02  0.25500000000E-02 0. -1.
    5000001    1    1    2    0    0 -0.94501231362E+02  0.74647666256E+02  0.28712049913E+03  0.35237187434E+03  0.16500000000E+03 0.  0.
   -5000001    1    1    2    0    0  0.94501231362E+02 -0.74647666256E+02  0.11221906837E+03  0.23306839364E+03  0.16500000000E+03 0.  0.
<mgrwt>
<rscale>  0 0.42809837E+03</rscale>
<asrwt>0</asrwt>
<pdfrwt beam="1">  1        2 0.70341417E-01 0.42809837E+03</pdfrwt>
<pdfrwt beam="2">  1       -2 0.13292907E-01 0.42809837E+03</pdfrwt>
<totfact> 0.29001664E+03</totfact>
</mgrwt>
</event>
<event>
 4    1  0.5323640E-005  0.4668096E+03  0.7818608E-02  0.1022825E+00
         -2   -1    0    0    0  501 -0.00000000000E+00  0.00000000000E+00  0.55066947396E+02  0.55066947455E+02  0.25500000000E-02 0. -1.
          2   -1    0    0  501    0  0.00000000000E+00 -0.00000000000E+00 -0.98930112545E+03  0.98930112546E+03  0.25500000000E-02 0.  1.
    5000001    1    1    2    0    0 -0.10644107142E+03  0.11040574319E+03 -0.60382114839E+03  0.64447196142E+03  0.16500000000E+03 0.  0.
   -5000001    1    1    2    0    0  0.10644107142E+03 -0.11040574319E+03 -0.33041302967E+03  0.39989611150E+03  0.16500000000E+03 0.  0.
<mgrwt>
<rscale>  0 0.46680957E+03</rscale>
<asrwt>0</asrwt>
<pdfrwt beam="1">  1        2 0.14132872E+00 0.46680957E+03</pdfrwt>
<pdfrwt beam="2">  1       -2 0.78667074E-02 0.46680957E+03</pdfrwt>
<totfact> 0.28812548E+03</totfact>
</mgrwt>
</event>
<event>
 4    1  0.5323640E-005  0.4875679E+03  0.7818608E-02  0.1017076E+00
         -2   -1    0    0    0  501 -0.00000000000E+00  0.00000000000E+00  0.19949461466E+03  0.19949461467E+03  0.25500000000E-02 0. -1.
          2   -1    0    0  501    0  0.00000000000E+00 -0.00000000000E+00 -0.29790586894E+03  0.29790586895E+03  0.25500000000E-02 0.  1.
    5000001    1    1    2    0    0  0.42227873710E+02 -0.16562121483E+03  0.65969847842E+01  0.23765963125E+03  0.16500000000E+03 0.  0.
   -5000001    1    1    2    0    0 -0.42227873710E+02  0.16562121483E+03 -0.10500823907E+03  0.25974085237E+03  0.16500000000E+03 0.  0.
<mgrwt>
<rscale>  0 0.48756791E+03</rscale>
<asrwt>0</asrwt>
<pdfrwt beam="1">  1        2 0.42557981E-01 0.48756791E+03</pdfrwt>
<pdfrwt beam="2">  1       -2 0.28499231E-01 0.48756791E+03</pdfrwt>
<totfact> 0.13519966E+03</totfact>
</mgrwt>
</event>
<event>
 4    1  0.5323640E-005  0.6838222E+03  0.7818608E-02  0.9745305E-01
         -2   -1    0    0    0  501 -0.00000000000E+00  0.00000000000E+00  0.48226591248E+03  0.48226591248E+03  0.25500000000E-02 0. -1.
          2   -1    0    0  501    0  0.00000000000E+00 -0.00000000000E+00 -0.24240405994E+03  0.24240405996E+03  0.25500000000E-02 0.  1.
    5000001    1    1    2    0    0 -0.27023894446E+03  0.80014432460E+02  0.12657644272E+02  0.32682810843E+03  0.16500000000E+03 0.  0.
   -5000001    1    1    2    0    0  0.27023894446E+03 -0.80014432460E+02  0.22720420826E+03  0.39784186401E+03  0.16500000000E+03 0.  0.
<mgrwt>
<rscale>  0 0.68382224E+03</rscale>
<asrwt>0</asrwt>
<pdfrwt beam="1">  1        2 0.34629151E-01 0.68382224E+03</pdfrwt>
<pdfrwt beam="2">  1       -2 0.68895130E-01 0.68382224E+03</pdfrwt>
<totfact> 0.29406379E+02</totfact>
</mgrwt>
</event>
<event>
 4    1  0.5323640E-005  0.4060765E+03  0.7818608E-02  0.1041696E+00
          2   -1    0    0  501    0  0.00000000000E+00  0.00000000000E+00  0.14469878952E+04  0.14469878952E+04  0.25500000000E-02 0.  1.
         -2   -1    0    0    0  501 -0.00000000000E+00 -0.00000000000E+00 -0.28489888686E+02  0.28489888800E+02  0.25500000000E-02 0. -1.
    5000001    1    1    2    0    0 -0.11576191733E+02  0.10210383685E+03  0.92236911111E+03  0.94262875983E+03  0.16500000000E+03 0.  0.
   -5000001    1    1    2    0    0  0.11576191733E+02 -0.10210383685E+03  0.49612889540E+03  0.53284902417E+03  0.16500000000E+03 0.  0.
<mgrwt>
<rscale>  0 0.40607647E+03</rscale>
<asrwt>0</asrwt>
<pdfrwt beam="1">  1        2 0.20671261E+00 0.40607647E+03</pdfrwt>
<pdfrwt beam="2">  1       -2 0.40699831E-02 0.40607647E+03</pdfrwt>
<totfact> 0.44601845E+03</totfact>
</mgrwt>
</event>
<event>
 4    1  0.5323640E-005  0.4571342E+03  0.7818608E-02  0.1025616E+00
         -2   -1    0    0    0  501 -0.00000000000E+00  0.00000000000E+00  0.10508840298E+03  0.10508840301E+03  0.25500000000E-02 0. -1.
          2   -1    0    0  501    0  0.00000000000E+00 -0.00000000000E+00 -0.49713302176E+03  0.49713302177E+03  0.25500000000E-02 0.  1.
    5000001    1    1    2    0    0 -0.10932724962E+03 -0.11003364959E+03 -0.23679878782E+03  0.32765609633E+03  0.16500000000E+03 0.  0.
   -5000001    1    1    2    0    0  0.10932724962E+03  0.11003364959E+03 -0.15524583096E+03  0.27456532844E+03  0.16500000000E+03 0.  0.
<mgrwt>
<rscale>  0 0.45713418E+03</rscale>
<asrwt>0</asrwt>
<pdfrwt beam="1">  1        2 0.71019002E-01 0.45713418E+03</pdfrwt>
<pdfrwt beam="2">  1       -2 0.15012629E-01 0.45713418E+03</pdfrwt>
<totfact> 0.23457391E+03</totfact>
</mgrwt>
</event>
<event>
 4    1  0.5323640E-005  0.1703135E+04  0.7818608E-02  0.8759578E-01
         -2   -1    0    0    0  501 -0.00000000000E+00  0.00000000000E+00  0.72950669117E+03  0.72950669117E+03  0.25500000000E-02 0. -1.
          2   -1    0    0  501    0  0.00000000000E+00 -0.00000000000E+00 -0.99405143461E+03  0.99405143462E+03  0.25500000000E-02 0.  1.
    5000001    1    1    2    0    0  0.31075742954E+03  0.76950913672E+03 -0.35059635624E+02  0.84685811654E+03  0.16500000000E+03 0.  0.
   -5000001    1    1    2    0    0 -0.31075742954E+03 -0.76950913672E+03 -0.22948510782E+03  0.87670000925E+03  0.16500000000E+03 0.  0.
<mgrwt>
<rscale>  0 0.17031350E+04</rscale>
<asrwt>0</asrwt>
<pdfrwt beam="1">  1        2 0.14200735E+00 0.17031350E+04</pdfrwt>
<pdfrwt beam="2">  1       -2 0.10421524E+00 0.17031350E+04</pdfrwt>
<totfact> 0.20226125E+01</totfact>
</mgrwt>
</event>
<event>
 4    1  0.5323640E-005  0.4687929E+03  0.7818608E-02  0.1022261E+00
          2   -1    0    0  501    0  0.00000000000E+00  0.00000000000E+00  0.13448697859E+04  0.13448697859E+04  0.25500000000E-02 0.  1.
         -2   -1    0    0    0  501 -0.00000000000E+00 -0.00000000000E+00 -0.40852791320E+02  0.40852791399E+02  0.25500000000E-02 0. -1.
    5000001    1    1    2    0    0  0.13509685102E+03 -0.67310050644E+02  0.44435764031E+03  0.49745403262E+03  0.16500000000E+03 0.  0.
   -5000001    1    1    2    0    0 -0.13509685102E+03  0.67310050644E+02  0.85965935423E+03  0.88826854463E+03  0.16500000000E+03 0.  0.
<mgrwt>
<rscale>  0 0.46879285E+03</rscale>
<asrwt>0</asrwt>
<pdfrwt beam="1">  1        2 0.19212429E+00 0.46879285E+03</pdfrwt>
<pdfrwt beam="2">  1       -2 0.58361119E-02 0.46879285E+03</pdfrwt>
<totfact> 0.28992983E+03</totfact>
</mgrwt>
</event>
<event>
 4    1  0.5323640E-005  0.4496217E+03  0.7818608E-02  0.1027835E+00
          2   -1    0    0  501    0  0.00000000000E+00  0.00000000000E+00  0.71947379415E+03  0.71947379416E+03  0.25500000000E-02 0.  1.
         -2   -1    0    0    0  501 -0.00000000000E+00 -0.00000000000E+00 -0.70245664020E+02  0.70245664066E+02  0.25500000000E-02 0. -1.
    5000001    1    1    2    0    0  0.90230953461E+01  0.13739472267E+03  0.20868858110E+03  0.29955742346E+03  0.16500000000E+03 0.  0.
   -5000001    1    1    2    0    0 -0.90230953461E+01 -0.13739472267E+03  0.44053954903E+03  0.49016203477E+03  0.16500000000E+03 0.  0.
<mgrwt>
<rscale>  0 0.44962168E+03</rscale>
<asrwt>0</asrwt>
<pdfrwt beam="1">  1        2 0.10278197E+00 0.44962168E+03</pdfrwt>
<pdfrwt beam="2">  1       -2 0.10035095E-01 0.44962168E+03</pdfrwt>
<totfact> 0.29491501E+03</totfact>
</mgrwt>
</event>
<event>
 4    1  0.5323640E-005  0.6036610E+03  0.7818608E-02  0.9897840E-01
         -2   -1    0    0    0  501 -0.00000000000E+00  0.00000000000E+00  0.32069669337E+02  0.32069669438E+02  0.25500000000E-02 0. -1.
          2   -1    0    0  501    0  0.00000000000E+00 -0.00000000000E+00 -0.28407417993E+04  0.28407417993E+04  0.25500000000E-02 0.  1.
    5000001    1    1    2    0    0  0.37210269024E+02  0.19107644677E+03 -0.63724143807E+03  0.68643751575E+03  0.16500000000E+03 0.  0.
   -5000001    1    1    2    0    0 -0.37210269024E+02 -0.19107644677E+03 -0.21714306919E+04  0.21863739530E+04  0.16500000000E+03 0.  0.
<mgrwt>
<rscale>  0 0.60366100E+03</rscale>
<asrwt>0</asrwt>
<pdfrwt beam="1">  1        2 0.40582010E+00 0.60366100E+03</pdfrwt>
<pdfrwt beam="2">  1       -2 0.45813831E-02 0.60366100E+03</pdfrwt>
<totfact> 0.72174133E+02</totfact>
</mgrwt>
</event>
<event>
 4    1  0.5323640E-005  0.3903296E+03  0.7818608E-02  0.1047181E+00
         -2   -1    0    0    0  501 -0.00000000000E+00  0.00000000000E+00  0.46036375167E+02  0.46036375237E+02  0.25500000000E-02 0.  1.
          2   -1    0    0  501    0  0.00000000000E+00 -0.00000000000E+00 -0.82737388964E+03  0.82737388964E+03  0.25500000000E-02 0. -1.
    5000001    1    1    2    0    0 -0.30329453938E+02  0.78709658927E+02 -0.25365737926E+03  0.31413715514E+03  0.16500000000E+03 0.  0.
   -5000001    1    1    2    0    0  0.30329453938E+02 -0.78709658927E+02 -0.52768013521E+03  0.55927310974E+03  0.16500000000E+03 0.  0.
<mgrwt>
<rscale>  0 0.39032958E+03</rscale>
<asrwt>0</asrwt>
<pdfrwt beam="1">  1        2 0.11819626E+00 0.39032958E+03</pdfrwt>
<pdfrwt beam="2">  1       -2 0.65766255E-02 0.39032958E+03</pdfrwt>
<totfact> 0.48279051E+03</totfact>
</mgrwt>
</event>
<event>
 4    1  0.5323640E-005  0.4243372E+03  0.7818608E-02  0.1035664E+00
         -2   -1    0    0    0  501 -0.00000000000E+00  0.00000000000E+00  0.23006097543E+03  0.23006097544E+03  0.25500000000E-02 0. -1.
          2   -1    0    0  501    0  0.00000000000E+00 -0.00000000000E+00 -0.19566775976E+03  0.19566775978E+03  0.25500000000E-02 0.  1.
    5000001    1    1    2    0    0 -0.10514929371E+03 -0.80256855212E+02  0.34369364910E+02  0.21425169783E+03  0.16500000000E+03 0.  0.
   -5000001    1    1    2    0    0  0.10514929371E+03  0.80256855212E+02  0.23850755408E-01  0.21147703740E+03  0.16500000000E+03 0.  0.
<mgrwt>
<rscale>  0 0.42433720E+03</rscale>
<asrwt>0</asrwt>
<pdfrwt beam="1">  1        2 0.27952537E-01 0.42433720E+03</pdfrwt>
<pdfrwt beam="2">  1       -2 0.32865854E-01 0.42433720E+03</pdfrwt>
<totfact> 0.16531956E+03</totfact>
</mgrwt>
</event>
<event>
 4    1  0.5323640E-005  0.6497221E+03  0.7818608E-02  0.9807301E-01
          2   -1    0    0  501    0  0.00000000000E+00  0.00000000000E+00  0.18504755934E+04  0.18504755934E+04  0.25500000000E-02 0.  1.
         -2   -1    0    0    0  501 -0.00000000000E+00 -0.00000000000E+00 -0.57031120143E+02  0.57031120200E+02  0.25500000000E-02 0. -1.
    5000001    1    1    2    0    0 -0.27318617638E+02  0.19364987416E+03  0.30908297224E+03  0.40125286835E+03  0.16500000000E+03 0.  0.
   -5000001    1    1    2    0    0  0.27318617638E+02 -0.19364987416E+03  0.14843615010E+04  0.15062538453E+04  0.16500000000E+03 0.  0.
<mgrwt>
<rscale>  0 0.64972208E+03</rscale>
<asrwt>0</asrwt>
<pdfrwt beam="1">  1        2 0.26435364E+00 0.64972208E+03</pdfrwt>
<pdfrwt beam="2">  1       -2 0.81473034E-02 0.64972208E+03</pdfrwt>
<totfact> 0.93557754E+02</totfact>
</mgrwt>
</event>
<event>
 4    1  0.5323640E-005  0.5577190E+03  0.7818608E-02  0.9997229E-01
         -2   -1    0    0    0  501 -0.00000000000E+00  0.00000000000E+00  0.47347135331E+02  0.47347135400E+02  0.25500000000E-02 0. -1.
          2   -1    0    0  501    0  0.00000000000E+00 -0.00000000000E+00 -0.16423933018E+04  0.16423933018E+04  0.25500000000E-02 0.  1.
    5000001    1    1    2    0    0 -0.87588195070E+02  0.97576492715E+02 -0.13507691370E+04  0.13671119651E+04  0.16500000000E+03 0.  0.
   -5000001    1    1    2    0    0  0.87588195070E+02 -0.97576492715E+02 -0.24427702952E+03  0.32262847208E+03  0.16500000000E+03 0.  0.
<mgrwt>
<rscale>  0 0.55771899E+03</rscale>
<asrwt>0</asrwt>
<pdfrwt beam="1">  1        2 0.23462758E+00 0.55771899E+03</pdfrwt>
<pdfrwt beam="2">  1       -2 0.67638775E-02 0.55771899E+03</pdfrwt>
<totfact> 0.16091658E+03</totfact>
</mgrwt>
</event>
<event>
 4    1  0.5323640E-005  0.7500052E+03  0.7818608E-02  0.9635342E-01
         -2   -1    0    0    0  501 -0.00000000000E+00  0.00000000000E+00  0.74539640063E+03  0.74539640063E+03  0.25500000000E-02 0. -1.
          2   -1    0    0  501    0  0.00000000000E+00 -0.00000000000E+00 -0.18866062460E+03  0.18866062462E+03  0.25500000000E-02 0.  1.
    5000001    1    1    2    0    0  0.17511106708E+03 -0.10116060043E+03  0.61371292964E+03  0.66690772443E+03  0.16500000000E+03 0.  0.
   -5000001    1    1    2    0    0 -0.17511106708E+03  0.10116060043E+03 -0.56977153618E+02  0.26714930082E+03  0.16500000000E+03 0.  0.
<mgrwt>
<rscale>  0 0.75000520E+03</rscale>
<asrwt>0</asrwt>
<pdfrwt beam="1">  1        2 0.26951518E-01 0.75000520E+03</pdfrwt>
<pdfrwt beam="2">  1       -2 0.10648520E+00 0.75000520E+03</pdfrwt>
<totfact> 0.14414850E+02</totfact>
</mgrwt>
</event>
<event>
 4    1  0.5323640E-005  0.5529346E+03  0.7818608E-02  0.1000817E+00
         -2   -1    0    0    0  501 -0.00000000000E+00  0.00000000000E+00  0.31819438152E+02  0.31819438254E+02  0.25500000000E-02 0. -1.
          2   -1    0    0  501    0  0.00000000000E+00 -0.00000000000E+00 -0.24021219103E+04  0.24021219103E+04  0.25500000000E-02 0.  1.
    5000001    1    1    2    0    0 -0.78007997610E+02 -0.20710566111E+03 -0.11182245412E+04  0.11517938735E+04  0.16500000000E+03 0.  0.
   -5000001    1    1    2    0    0  0.78007997610E+02  0.20710566111E+03 -0.12520779310E+04  0.12821474751E+04  0.16500000000E+03 0.  0.
<mgrwt>
<rscale>  0 0.55293461E+03</rscale>
<asrwt>0</asrwt>
<pdfrwt beam="1">  1        2 0.34316016E+00 0.55293461E+03</pdfrwt>
<pdfrwt beam="2">  1       -2 0.45456355E-02 0.55293461E+03</pdfrwt>
<totfact> 0.12387474E+03</totfact>
</mgrwt>
</event>
<event>
 4    1  0.5323640E-005  0.8803998E+03  0.7818608E-02  0.9450420E-01
          2   -1    0    0  501    0  0.00000000000E+00  0.00000000000E+00  0.11827586331E+04  0.11827586331E+04  0.25500000000E-02 0.  1.
         -2   -1    0    0    0  501 -0.00000000000E+00 -0.00000000000E+00 -0.16383390831E+03  0.16383390833E+03  0.25500000000E-02 0. -1.
    5000001    1    1    2    0    0 -0.36662852557E+03 -0.14142917326E+03  0.34099044848E+03  0.54581880947E+03  0.16500000000E+03 0.  0.
   -5000001    1    1    2    0    0  0.36662852557E+03  0.14142917326E+03  0.67793427628E+03  0.80077373195E+03  0.16500000000E+03 0.  0.
<mgrwt>
<rscale>  0 0.88039984E+03</rscale>
<asrwt>0</asrwt>
<pdfrwt beam="1">  1        2 0.16896552E+00 0.88039984E+03</pdfrwt>
<pdfrwt beam="2">  1       -2 0.23404844E-01 0.88039984E+03</pdfrwt>
<totfact> 0.35319697E+02</totfact>
</mgrwt>
</event>
<event>
 4    1  0.5323640E-005  0.5381184E+03  0.7818608E-02  0.1004282E+00
          2   -1    0    0  501    0  0.00000000000E+00  0.00000000000E+00  0.35185818173E+04  0.35185818173E+04  0.25500000000E-02 0.  1.
         -2   -1    0    0    0  501 -0.00000000000E+00 -0.00000000000E+00 -0.20574441988E+02  0.20574442146E+02  0.25500000000E-02 0. -1.
    5000001    1    1    2    0    0 -0.79517476290E+02  0.19470459881E+03  0.19501053188E+04  0.19683416025E+04  0.16500000000E+03 0.  0.
   -5000001    1    1    2    0    0  0.79517476290E+02 -0.19470459881E+03  0.15479020565E+04  0.15708146569E+04  0.16500000000E+03 0.  0.
<mgrwt>
<rscale>  0 0.53811842E+03</rscale>
<asrwt>0</asrwt>
<pdfrwt beam="1">  1        2 0.50265506E+00 0.53811842E+03</pdfrwt>
<pdfrwt beam="2">  1       -2 0.29392030E-02 0.53811842E+03</pdfrwt>
<totfact> 0.59767753E+02</totfact>
</mgrwt>
</event>
<event>
 4    1  0.5323640E-005  0.7302701E+03  0.7818608E-02  0.9666822E-01
         -2   -1    0    0    0  501 -0.00000000000E+00  0.00000000000E+00  0.19613504521E+03  0.19613504523E+03  0.25500000000E-02 0. -1.
          2   -1    0    0  501    0  0.00000000000E+00 -0.00000000000E+00 -0.67975415828E+03  0.67975415829E+03  0.25500000000E-02 0.  1.
    5000001    1    1    2    0    0 -0.24713743273E+03 -0.52196310056E+02  0.48634870337E+01  0.30174495679E+03  0.16500000000E+03 0.  0.
   -5000001    1    1    2    0    0  0.24713743273E+03  0.52196310056E+02 -0.48848260011E+03  0.57414424673E+03  0.16500000000E+03 0.  0.
<mgrwt>
<rscale>  0 0.73027012E+03</rscale>
<asrwt>0</asrwt>
<pdfrwt beam="1">  1        2 0.97107736E-01 0.73027012E+03</pdfrwt>
<pdfrwt beam="2">  1       -2 0.28019293E-01 0.73027012E+03</pdfrwt>
<totfact> 0.54510124E+02</totfact>
</mgrwt>
</event>
<event>
 4    1  0.5323640E-005  0.8677350E+03  0.7818608E-02  0.9466838E-01
         -2   -1    0    0    0  501 -0.00000000000E+00  0.00000000000E+00  0.11429820611E+04  0.11429820611E+04  0.25500000000E-02 0. -1.
          2   -1    0    0  501    0  0.00000000000E+00 -0.00000000000E+00 -0.16469287745E+03  0.16469287747E+03  0.25500000000E-02 0.  1.
    5000001    1    1    2    0    0  0.31754670529E+03 -0.57464274844E+02  0.12973913823E+03  0.38496142262E+03  0.16500000000E+03 0.  0.
   -5000001    1    1    2    0    0 -0.31754670529E+03  0.57464274844E+02  0.84855004547E+03  0.92271351599E+03  0.16500000000E+03 0.  0.
<mgrwt>
<rscale>  0 0.86773499E+03</rscale>
<asrwt>0</asrwt>
<pdfrwt beam="1">  1        2 0.23527555E-01 0.86773499E+03</pdfrwt>
<pdfrwt beam="2">  1       -2 0.16328314E+00 0.86773499E+03</pdfrwt>
<totfact> 0.56358952E+01</totfact>
</mgrwt>
</event>
<event>
 4    1  0.5323640E-005  0.5290365E+03  0.7818608E-02  0.1006466E+00
         -2   -1    0    0    0  501 -0.00000000000E+00  0.00000000000E+00  0.38697325873E+02  0.38697325957E+02  0.25500000000E-02 0. -1.
          2   -1    0    0  501    0  0.00000000000E+00 -0.00000000000E+00 -0.18081327626E+04  0.18081327626E+04  0.25500000000E-02 0.  1.
    5000001    1    1    2    0    0  0.13083608655E+03  0.15356093902E+03 -0.10426166492E+04  0.10746969437E+04  0.16500000000E+03 0.  0.
   -5000001    1    1    2    0    0 -0.13083608655E+03 -0.15356093902E+03 -0.72681878753E+03  0.77213314489E+03  0.16500000000E+03 0.  0.
<mgrwt>
<rscale>  0 0.52903649E+03</rscale>
<asrwt>0</asrwt>
<pdfrwt beam="1">  1        2 0.25830463E+00 0.52903649E+03</pdfrwt>
<pdfrwt beam="2">  1       -2 0.55281906E-02 0.52903649E+03</pdfrwt>
<totfact> 0.18207824E+03</totfact>
</mgrwt>
</event>
<event>
 4    1  0.5323640E-005  0.5810195E+03  0.7818608E-02  0.9945586E-01
          2   -1    0    0  501    0  0.00000000000E+00  0.00000000000E+00  0.49633989208E+03  0.49633989209E+03  0.25500000000E-02 0.  1.
         -2   -1    0    0    0  501 -0.00000000000E+00 -0.00000000000E+00 -0.17003655932E+03  0.17003655934E+03  0.25500000000E-02 0. -1.
    5000001    1    1    2    0    0 -0.33524300859E+02  0.15542719156E+03 -0.41658884540E+02  0.23289901950E+03  0.16500000000E+03 0.  0.
   -5000001    1    1    2    0    0  0.33524300859E+02 -0.15542719156E+03  0.36796221731E+03  0.43347743193E+03  0.16500000000E+03 0.  0.
<mgrwt>
<rscale>  0 0.58101954E+03</rscale>
<asrwt>0</asrwt>
<pdfrwt beam="1">  1        2 0.70905698E-01 0.58101954E+03</pdfrwt>
<pdfrwt beam="2">  1       -2 0.24290937E-01 0.58101954E+03</pdfrwt>
<totfact> 0.10241143E+03</totfact>
</mgrwt>
</event>
<event>
 4    1  0.5323640E-005  0.5076821E+03  0.7818608E-02  0.1011793E+00
          2   -1    0    0  501    0  0.00000000000E+00  0.00000000000E+00  0.27271477071E+03  0.27271477072E+03  0.25500000000E-02 0.  1.
         -2   -1    0    0    0  501 -0.00000000000E+00 -0.00000000000E+00 -0.23627351636E+03  0.23627351637E+03  0.25500000000E-02 0. -1.
    5000001    1    1    2    0    0 -0.18772873283E+03  0.44055099697E+02  0.12977554011E+02  0.25411876327E+03  0.16500000000E+03 0.  0.
   -5000001    1    1    2    0    0  0.18772873283E+03 -0.44055099697E+02  0.23463700338E+02  0.25486952382E+03  0.16500000000E+03 0.  0.
<mgrwt>
<rscale>  0 0.50768210E+03</rscale>
<asrwt>0</asrwt>
<pdfrwt beam="1">  1        2 0.38959253E-01 0.50768210E+03</pdfrwt>
<pdfrwt beam="2">  1       -2 0.33753360E-01 0.50768210E+03</pdfrwt>
<totfact> 0.10894416E+03</totfact>
</mgrwt>
</event>
<event>
 4    1  0.5323640E-005  0.4379564E+03  0.7818608E-02  0.1031376E+00
          2   -1    0    0  501    0  0.00000000000E+00  0.00000000000E+00  0.13054036319E+04  0.13054036319E+04  0.25500000000E-02 0.  1.
         -2   -1    0    0    0  501 -0.00000000000E+00 -0.00000000000E+00 -0.36733043459E+02  0.36733043547E+02  0.25500000000E-02 0. -1.
    5000001    1    1    2    0    0 -0.10481017659E+03  0.36495320697E+02  0.35330862706E+03  0.40542455217E+03  0.16500000000E+03 0.  0.
   -5000001    1    1    2    0    0  0.10481017659E+03 -0.36495320697E+02  0.91536196135E+03  0.93671212325E+03  0.16500000000E+03 0.  0.
<mgrwt>
<rscale>  0 0.43795638E+03</rscale>
<asrwt>0</asrwt>
<pdfrwt beam="1">  1        2 0.18648626E+00 0.43795638E+03</pdfrwt>
<pdfrwt beam="2">  1       -2 0.52475769E-02 0.43795638E+03</pdfrwt>
<totfact> 0.35883821E+03</totfact>
</mgrwt>
</event>
<event>
 4    1  0.5323640E-005  0.4490467E+03  0.7818608E-02  0.1028007E+00
         -2   -1    0    0    0  501 -0.00000000000E+00  0.00000000000E+00  0.45697295050E+02  0.45697295121E+02  0.25500000000E-02 0. -1.
          2   -1    0    0  501    0  0.00000000000E+00 -0.00000000000E+00 -0.11031446367E+04  0.11031446367E+04  0.25500000000E-02 0.  1.
    5000001    1    1    2    0    0 -0.14040964764E+03  0.21504908047E+02 -0.38839826996E+03  0.44525896546E+03  0.16500000000E+03 0.  0.
   -5000001    1    1    2    0    0  0.14040964764E+03 -0.21504908047E+02 -0.66904907174E+03  0.70358296641E+03  0.16500000000E+03 0.  0.
<mgrwt>
<rscale>  0 0.44904666E+03</rscale>
<asrwt>0</asrwt>
<pdfrwt beam="1">  1        2 0.15759207E+00 0.44904666E+03</pdfrwt>
<pdfrwt beam="2">  1       -2 0.65281857E-02 0.44904666E+03</pdfrwt>
<totfact> 0.33092367E+03</totfact>
</mgrwt>
</event>
<event>
 4    1  0.5323640E-005  0.6087857E+03  0.7818608E-02  0.9887344E-01
         -2   -1    0    0    0  501 -0.00000000000E+00  0.00000000000E+00  0.82955145060E+02  0.82955145100E+02  0.25500000000E-02 0. -1.
          2   -1    0    0  501    0  0.00000000000E+00 -0.00000000000E+00 -0.11169290331E+04  0.11169290331E+04  0.25500000000E-02 0.  1.
    5000001    1    1    2    0    0 -0.23662886381E+03 -0.94233843851E+02 -0.47048039169E+03  0.55986608709E+03  0.16500000000E+03 0.  0.
   -5000001    1    1    2    0    0  0.23662886381E+03  0.94233843851E+02 -0.56349349632E+03  0.64001809108E+03  0.16500000000E+03 0.  0.
<mgrwt>
<rscale>  0 0.60878571E+03</rscale>
<asrwt>0</asrwt>
<pdfrwt beam="1">  1        2 0.15956128E+00 0.60878571E+03</pdfrwt>
<pdfrwt beam="2">  1       -2 0.11850736E-01 0.60878571E+03</pdfrwt>
<totfact> 0.12486188E+03</totfact>
</mgrwt>
</event>
<event>
 4    1  0.5323640E-005  0.5329418E+03  0.7818608E-02  0.1005521E+00
          2   -1    0    0  501    0  0.00000000000E+00  0.00000000000E+00  0.16558639951E+03  0.16558639953E+03  0.25500000000E-02 0.  1.
         -2   -1    0    0    0  501 -0.00000000000E+00 -0.00000000000E+00 -0.42881987002E+03  0.42881987003E+03  0.25500000000E-02 0. -1.
    5000001    1    1    2    0    0 -0.12584641010E+02  0.15932594135E+03  0.19009099570E+02  0.23049831809E+03  0.16500000000E+03 0.  0.
   -5000001    1    1    2    0    0  0.12584641010E+02 -0.15932594135E+03 -0.28224257008E+03  0.36390795147E+03  0.16500000000E+03 0.  0.
<mgrwt>
<rscale>  0 0.53294179E+03</rscale>
<asrwt>0</asrwt>
<pdfrwt beam="1">  1        2 0.23655200E-01 0.53294179E+03</pdfrwt>
<pdfrwt beam="2">  1       -2 0.61259981E-01 0.53294179E+03</pdfrwt>
<totfact> 0.58315655E+02</totfact>
</mgrwt>
</event>
<event>
 4    1  0.5323640E-005  0.9594785E+03  0.7818608E-02  0.9354140E-01
          2   -1    0    0  501    0  0.00000000000E+00  0.00000000000E+00  0.22890655959E+04  0.22890655959E+04  0.25500000000E-02 0.  1.
         -2   -1    0    0    0  501 -0.00000000000E+00 -0.00000000000E+00 -0.10054310000E+03  0.10054310003E+03  0.25500000000E-02 0. -1.
    5000001    1    1    2    0    0 -0.34326546071E+03  0.40220666228E+02  0.18138295493E+04  0.18538207875E+04  0.16500000000E+03 0.  0.
   -5000001    1    1    2    0    0  0.34326546071E+03 -0.40220666228E+02  0.37469294658E+03  0.53578790834E+03  0.16500000000E+03 0.  0.
<mgrwt>
<rscale>  0 0.95947851E+03</rscale>
<asrwt>0</asrwt>
<pdfrwt beam="1">  1        2 0.32700937E+00 0.95947851E+03</pdfrwt>
<pdfrwt beam="2">  1       -2 0.14363300E-01 0.95947851E+03</pdfrwt>
<totfact> 0.21647693E+02</totfact>
</mgrwt>
</event>
<event>
 4    1  0.5323640E-005  0.4683719E+03  0.7818608E-02  0.1022381E+00
          2   -1    0    0  501    0  0.00000000000E+00  0.00000000000E+00  0.48257366616E+03  0.48257366616E+03  0.25500000000E-02 0.  1.
         -2   -1    0    0    0  501 -0.00000000000E+00 -0.00000000000E+00 -0.11364700598E+03  0.11364700601E+03  0.25500000000E-02 0. -1.
    5000001    1    1    2    0    0  0.75790811370E+02 -0.10959075411E+03  0.58037581696E+02  0.21988119829E+03  0.16500000000E+03 0.  0.
   -5000001    1    1    2    0    0 -0.75790811370E+02  0.10959075411E+03  0.31088907848E+03  0.37633947387E+03  0.16500000000E+03 0.  0.
<mgrwt>
<rscale>  0 0.46837187E+03</rscale>
<asrwt>0</asrwt>
<pdfrwt beam="1">  1        2 0.68939098E-01 0.46837187E+03</pdfrwt>
<pdfrwt beam="2">  1       -2 0.16235286E-01 0.46837187E+03</pdfrwt>
<totfact> 0.21268722E+03</totfact>
</mgrwt>
</event>
<event>
 4    1  0.5323640E-005  0.4514341E+03  0.7818608E-02  0.1027295E+00
          2   -1    0    0  501    0  0.00000000000E+00  0.00000000000E+00  0.10014808491E+03  0.10014808494E+03  0.25500000000E-02 0.  1.
         -2   -1    0    0    0  501 -0.00000000000E+00 -0.00000000000E+00 -0.50872852136E+03  0.50872852137E+03  0.25500000000E-02 0. -1.
    5000001    1    1    2    0    0 -0.69103368994E+02  0.12079202385E+03 -0.11525976191E+03  0.24469532351E+03  0.16500000000E+03 0.  0.
   -5000001    1    1    2    0    0  0.69103368994E+02 -0.12079202385E+03 -0.29332067454E+03  0.36418128280E+03  0.16500000000E+03 0.  0.
<mgrwt>
<rscale>  0 0.45143410E+03</rscale>
<asrwt>0</asrwt>
<pdfrwt beam="1">  1        2 0.14306870E-01 0.45143410E+03</pdfrwt>
<pdfrwt beam="2">  1       -2 0.72675502E-01 0.45143410E+03</pdfrwt>
<totfact> 0.73095420E+02</totfact>
</mgrwt>
</event>
<event>
 4    1  0.5323640E-005  0.3637775E+03  0.7818608E-02  0.1057098E+00
         -2   -1    0    0    0  501 -0.00000000000E+00  0.00000000000E+00  0.26182255719E+04  0.26182255719E+04  0.25500000000E-02 0. -1.
          2   -1    0    0  501    0  0.00000000000E+00 -0.00000000000E+00 -0.12635855871E+02  0.12635856128E+02  0.25500000000E-02 0.  1.
    5000001    1    1    2    0    0 -0.62603775832E+02 -0.41635656111E+02  0.14065341605E+04  0.14181735103E+04  0.16500000000E+03 0.  0.
   -5000001    1    1    2    0    0  0.62603775832E+02  0.41635656111E+02  0.11990555555E+04  0.12126879177E+04  0.16500000000E+03 0.  0.
<mgrwt>
<rscale>  0 0.36377752E+03</rscale>
<asrwt>0</asrwt>
<pdfrwt beam="1">  1        2 0.18051176E-02 0.36377752E+03</pdfrwt>
<pdfrwt beam="2">  1       -2 0.37403319E+00 0.36377752E+03</pdfrwt>
<totfact> 0.82149833E+01</totfact>
</mgrwt>
</event>
<event>
 4    1  0.5323640E-005  0.6886627E+03  0.7818608E-02  0.9736819E-01
          2   -1    0    0  501    0  0.00000000000E+00  0.00000000000E+00  0.23956096234E+04  0.23956096234E+04  0.25500000000E-02 0.  1.
         -2   -1    0    0    0  501 -0.00000000000E+00 -0.00000000000E+00 -0.49492242741E+02  0.49492242807E+02  0.25500000000E-02 0. -1.
    5000001    1    1    2    0    0 -0.15860181432E+03 -0.18188591546E+03  0.52708035241E+03  0.60272358478E+03  0.16500000000E+03 0.  0.
   -5000001    1    1    2    0    0  0.15860181432E+03  0.18188591546E+03  0.18190370282E+04  0.18423782814E+04  0.16500000000E+03 0.  0.
<mgrwt>
<rscale>  0 0.68866274E+03</rscale>
<asrwt>0</asrwt>
<pdfrwt beam="1">  1        2 0.34222987E+00 0.68866274E+03</pdfrwt>
<pdfrwt beam="2">  1       -2 0.70703220E-02 0.68866274E+03</pdfrwt>
<totfact> 0.61990421E+02</totfact>
</mgrwt>
</event>
<event>
 4    1  0.5323640E-005  0.5002714E+03  0.7818608E-02  0.1013708E+00
         -2   -1    0    0    0  501 -0.00000000000E+00  0.00000000000E+00  0.84992314156E+02  0.84992314195E+02  0.25500000000E-02 0. -1.
          2   -1    0    0  501    0  0.00000000000E+00 -0.00000000000E+00 -0.73615918168E+03  0.73615918168E+03  0.25500000000E-02 0.  1.
    5000001    1    1    2    0    0  0.18647070295E+03 -0.13062021487E+02 -0.35844993665E+03  0.43663863382E+03  0.16500000000E+03 0.  0.
   -5000001    1    1    2    0    0 -0.18647070295E+03  0.13062021487E+02 -0.29271693087E+03  0.38451286205E+03  0.16500000000E+03 0.  0.
<mgrwt>
<rscale>  0 0.50027142E+03</rscale>
<asrwt>0</asrwt>
<pdfrwt beam="1">  1        2 0.10516559E+00 0.50027142E+03</pdfrwt>
<pdfrwt beam="2">  1       -2 0.12141760E-01 0.50027142E+03</pdfrwt>
<totfact> 0.21049069E+03</totfact>
</mgrwt>
</event>
<event>
 4    1  0.5323640E-005  0.3631639E+03  0.7818608E-02  0.1057338E+00
          2   -1    0    0  501    0  0.00000000000E+00  0.00000000000E+00  0.16813499451E+03  0.16813499453E+03  0.25500000000E-02 0.  1.
         -2   -1    0    0    0  501 -0.00000000000E+00 -0.00000000000E+00 -0.19610439294E+03  0.19610439296E+03  0.25500000000E-02 0. -1.
    5000001    1    1    2    0    0 -0.28671844890E+01  0.66191502402E+02 -0.50937738282E+02  0.18495726241E+03  0.16500000000E+03 0.  0.
   -5000001    1    1    2    0    0  0.28671844890E+01 -0.66191502402E+02  0.22968339846E+02  0.17928212508E+03  0.16500000000E+03 0.  0.
<mgrwt>
<rscale>  0 0.36316394E+03</rscale>
<asrwt>0</asrwt>
<pdfrwt beam="1">  1        2 0.24019285E-01 0.36316394E+03</pdfrwt>
<pdfrwt beam="2">  1       -2 0.28014913E-01 0.36316394E+03</pdfrwt>
<totfact> 0.26222950E+03</totfact>
</mgrwt>
</event>
<event>
 4    1  0.5323640E-005  0.6088113E+03  0.7818608E-02  0.9887292E-01
          2   -1    0    0  501    0  0.00000000000E+00  0.00000000000E+00  0.17703701766E+04  0.17703701766E+04  0.25500000000E-02 0.  1.
         -2   -1    0    0    0  501 -0.00000000000E+00 -0.00000000000E+00 -0.52340923272E+02  0.52340923334E+02  0.25500000000E-02 0. -1.
    5000001    1    1    2    0    0  0.16498114964E+03  0.19194813382E+03  0.74800066842E+03  0.80671733945E+03  0.16500000000E+03 0.  0.
   -5000001    1    1    2    0    0 -0.16498114964E+03 -0.19194813382E+03  0.97002858495E+03  0.10159937605E+04  0.16500000000E+03 0.  0.
<mgrwt>
<rscale>  0 0.60881133E+03</rscale>
<asrwt>0</asrwt>
<pdfrwt beam="1">  1        2 0.25291002E+00 0.60881133E+03</pdfrwt>
<pdfrwt beam="2">  1       -2 0.74772750E-02 0.60881133E+03</pdfrwt>
<totfact> 0.11798705E+03</totfact>
</mgrwt>
</event>
<event>
 4    1  0.5323640E-005  0.3535756E+03  0.7818608E-02  0.1061157E+00
          2   -1    0    0  501    0  0.00000000000E+00  0.00000000000E+00  0.12556458708E+03  0.12556458710E+03  0.25500000000E-02 0.  1.
         -2   -1    0    0    0  501 -0.00000000000E+00 -0.00000000000E+00 -0.24890713231E+03  0.24890713232E+03  0.25500000000E-02 0. -1.
    5000001    1    1    2    0    0 -0.13952798165E+02  0.61808890252E+02 -0.57722406795E+02  0.18593519230E+03  0.16500000000E+03 0.  0.
   -5000001    1    1    2    0    0  0.13952798165E+02 -0.61808890252E+02 -0.65620138433E+02  0.18853652712E+03  0.16500000000E+03 0.  0.
<mgrwt>
<rscale>  0 0.35357557E+03</rscale>
<asrwt>0</asrwt>
<pdfrwt beam="1">  1        2 0.17937798E-01 0.35357557E+03</pdfrwt>
<pdfrwt beam="2">  1       -2 0.35558162E-01 0.35357557E+03</pdfrwt>
<totfact> 0.23627423E+03</totfact>
</mgrwt>
</event>
<event>
 4    1  0.5323640E-005  0.4315704E+03  0.7818608E-02  0.1033365E+00
          2   -1    0    0  501    0  0.00000000000E+00  0.00000000000E+00  0.18524744534E+04  0.18524744534E+04  0.25500000000E-02 0.  1.
         -2   -1    0    0    0  501 -0.00000000000E+00 -0.00000000000E+00 -0.25135702762E+02  0.25135702892E+02  0.25500000000E-02 0. -1.
    5000001    1    1    2    0    0 -0.81142348227E+02  0.90616367668E+02  0.62043319846E+03  0.65342004907E+03  0.16500000000E+03 0.  0.
   -5000001    1    1    2    0    0  0.81142348227E+02 -0.90616367668E+02  0.12069055521E+04  0.12241901072E+04  0.16500000000E+03 0.  0.
<mgrwt>
<rscale>  0 0.43157038E+03</rscale>
<asrwt>0</asrwt>
<pdfrwt beam="1">  1        2 0.26463929E+00 0.43157038E+03</pdfrwt>
<pdfrwt beam="2">  1       -2 0.35908136E-02 0.43157038E+03</pdfrwt>
<totfact> 0.33654182E+03</totfact>
</mgrwt>
</event>
<event>
 4    1  0.5323640E-005  0.5425028E+03  0.7818608E-02  0.1003244E+00
         -2   -1    0    0    0  501 -0.00000000000E+00  0.00000000000E+00  0.36208862679E+02  0.36208862769E+02  0.25500000000E-02 0. -1.
          2   -1    0    0  501    0  0.00000000000E+00 -0.00000000000E+00 -0.20320252156E+04  0.20320252156E+04  0.25500000000E-02 0.  1.
    5000001    1    1    2    0    0  0.70075468009E+02 -0.17691521619E+03 -0.13818591022E+04  0.14046242001E+04  0.16500000000E+03 0.  0.
   -5000001    1    1    2    0    0 -0.70075468009E+02  0.17691521619E+03 -0.61395725070E+03  0.66360987833E+03  0.16500000000E+03 0.  0.
<mgrwt>
<rscale>  0 0.54250280E+03</rscale>
<asrwt>0</asrwt>
<pdfrwt beam="1">  1        2 0.29028925E+00 0.54250280E+03</pdfrwt>
<pdfrwt beam="2">  1       -2 0.51726959E-02 0.54250280E+03</pdfrwt>
<totfact> 0.15583400E+03</totfact>
</mgrwt>
</event>
<event>
 4    1  0.5323640E-005  0.1190600E+04  0.7818608E-02  0.9121124E-01
         -2   -1    0    0    0  501 -0.00000000000E+00  0.00000000000E+00  0.30724861514E+03  0.30724861515E+03  0.25500000000E-02 0. -1.
          2   -1    0    0  501    0  0.00000000000E+00 -0.00000000000E+00 -0.11534047291E+04  0.11534047291E+04  0.25500000000E-02 0.  1.
    5000001    1    1    2    0    0 -0.36478705190E+03  0.42992668846E+03 -0.30508325414E+03  0.66197231260E+03  0.16500000000E+03 0.  0.
   -5000001    1    1    2    0    0  0.36478705190E+03 -0.42992668846E+03 -0.54107285982E+03  0.79868103165E+03  0.16500000000E+03 0.  0.
<mgrwt>
<rscale>  0 0.11905999E+04</rscale>
<asrwt>0</asrwt>
<pdfrwt beam="1">  1        2 0.16477210E+00 0.11905999E+04</pdfrwt>
<pdfrwt beam="2">  1       -2 0.43892660E-01 0.11905999E+04</pdfrwt>
<totfact> 0.11042665E+02</totfact>
</mgrwt>
</event>
<event>
 4    1  0.5323640E-005  0.4229881E+03  0.7818608E-02  0.1036098E+00
         -2   -1    0    0    0  501 -0.00000000000E+00  0.00000000000E+00  0.32880203905E+02  0.32880204004E+02  0.25500000000E-02 0. -1.
          2   -1    0    0  501    0  0.00000000000E+00 -0.00000000000E+00 -0.13603849836E+04  0.13603849836E+04  0.25500000000E-02 0.  1.
    5000001    1    1    2    0    0 -0.70375020635E+02  0.33551915785E+02 -0.10158471786E+04  0.10321089404E+04  0.16500000000E+03 0.  0.
   -5000001    1    1    2    0    0  0.70375020635E+02 -0.33551915785E+02 -0.31165760116E+03  0.36115624727E+03  0.16500000000E+03 0.  0.
<mgrwt>
<rscale>  0 0.42298811E+03</rscale>
<asrwt>0</asrwt>
<pdfrwt beam="1">  1        2 0.19434068E+00 0.42298811E+03</pdfrwt>
<pdfrwt beam="2">  1       -2 0.46971729E-02 0.42298811E+03</pdfrwt>
<totfact> 0.39775713E+03</totfact>
</mgrwt>
</event>
<event>
 4    1  0.5323640E-005  0.3752770E+03  0.7818608E-02  0.1052693E+00
          2   -1    0    0  501    0  0.00000000000E+00  0.00000000000E+00  0.27223718422E+03  0.27223718423E+03  0.25500000000E-02 0.  1.
         -2   -1    0    0    0  501 -0.00000000000E+00 -0.00000000000E+00 -0.12932914548E+03  0.12932914551E+03  0.25500000000E-02 0. -1.
    5000001    1    1    2    0    0 -0.26839006339E+02 -0.62339280495E+02  0.13363400193E+03  0.22291156234E+03  0.16500000000E+03 0.  0.
   -5000001    1    1    2    0    0  0.26839006339E+02  0.62339280495E+02  0.92740368078E+01  0.17865476739E+03  0.16500000000E+03 0.  0.
<mgrwt>
<rscale>  0 0.37527698E+03</rscale>
<asrwt>0</asrwt>
<pdfrwt beam="1">  1        2 0.38891027E-01 0.37527698E+03</pdfrwt>
<pdfrwt beam="2">  1       -2 0.18475592E-01 0.37527698E+03</pdfrwt>
<totfact> 0.31922184E+03</totfact>
</mgrwt>
</event>
<event>
 4    1  0.5323640E-005  0.1055004E+04  0.7818608E-02  0.9250193E-01
          2   -1    0    0  501    0  0.00000000000E+00  0.00000000000E+00  0.14942375759E+04  0.14942375759E+04  0.25500000000E-02 0.  1.
         -2   -1    0    0    0  501 -0.00000000000E+00 -0.00000000000E+00 -0.18622085816E+03  0.18622085817E+03  0.25500000000E-02 0. -1.
    5000001    1    1    2    0    0 -0.93265617432E+02 -0.45351679671E+03  0.95897595188E+03  0.10776065314E+04  0.16500000000E+03 0.  0.
   -5000001    1    1    2    0    0  0.93265617432E+02  0.45351679671E+03  0.34904076586E+03  0.60285190265E+03  0.16500000000E+03 0.  0.
<mgrwt>
<rscale>  0 0.10550037E+04</rscale>
<asrwt>0</asrwt>
<pdfrwt beam="1">  1        2 0.21346251E+00 0.10550037E+04</pdfrwt>
<pdfrwt beam="2">  1       -2 0.26602980E-01 0.10550037E+04</pdfrwt>
<totfact> 0.18731257E+02</totfact>
</mgrwt>
</event>
<event>
 4    1  0.5323640E-005  0.5483826E+03  0.7818608E-02  0.1001869E+00
         -2   -1    0    0    0  501 -0.00000000000E+00  0.00000000000E+00  0.30902022597E+03  0.30902022598E+03  0.25500000000E-02 0. -1.
          2   -1    0    0  501    0  0.00000000000E+00 -0.00000000000E+00 -0.24328785120E+03  0.24328785121E+03  0.25500000000E-02 0.  1.
    5000001    1    1    2    0    0 -0.21451797328E+03 -0.29432696217E+02 -0.10378657191E+00  0.27223015123E+03  0.16500000000E+03 0.  0.
   -5000001    1    1    2    0    0  0.21451797328E+03  0.29432696217E+02  0.65836161343E+02  0.28007792596E+03  0.16500000000E+03 0.  0.
<mgrwt>
<rscale>  0 0.54838259E+03</rscale>
<asrwt>0</asrwt>
<pdfrwt beam="1">  1        2 0.34755407E-01 0.54838259E+03</pdfrwt>
<pdfrwt beam="2">  1       -2 0.44145747E-01 0.54838259E+03</pdfrwt>
<totfact> 0.73733401E+02</totfact>
</mgrwt>
</event>
<event>
 4    1  0.5323640E-005  0.8694614E+03  0.7818608E-02  0.9464582E-01
         -2   -1    0    0    0  501 -0.00000000000E+00  0.00000000000E+00  0.24918072268E+03  0.24918072269E+03  0.25500000000E-02 0. -1.
          2   -1    0    0  501    0  0.00000000000E+00 -0.00000000000E+00 -0.75844866793E+03  0.75844866794E+03  0.25500000000E-02 0.  1.
    5000001    1    1    2    0    0 -0.74690589355E+02  0.39430001239E+03 -0.22365385796E+03  0.48815697484E+03  0.16500000000E+03 0.  0.
   -5000001    1    1    2    0    0  0.74690589355E+02 -0.39430001239E+03 -0.28561408730E+03  0.51947241579E+03  0.16500000000E+03 0.  0.
<mgrwt>
<rscale>  0 0.86946141E+03</rscale>
<asrwt>0</asrwt>
<pdfrwt beam="1">  1        2 0.10834981E+00 0.86946141E+03</pdfrwt>
<pdfrwt beam="2">  1       -2 0.35597247E-01 0.86946141E+03</pdfrwt>
<totfact> 0.30236094E+02</totfact>
</mgrwt>
</event>
<event>
 4    1  0.5323640E-005  0.5062464E+03  0.7818608E-02  0.1012161E+00
          2   -1    0    0  501    0  0.00000000000E+00  0.00000000000E+00  0.28257487134E+03  0.28257487135E+03  0.25500000000E-02 0.  1.
         -2   -1    0    0    0  501 -0.00000000000E+00 -0.00000000000E+00 -0.22674116269E+03  0.22674116270E+03  0.25500000000E-02 0. -1.
    5000001    1    1    2    0    0  0.17979637507E+03 -0.66445442923E+02  0.38207340213E+02  0.25578611030E+03  0.16500000000E+03 0.  0.
   -5000001    1    1    2    0    0 -0.17979637507E+03  0.66445442923E+02  0.17626368440E+02  0.25352992375E+03  0.16500000000E+03 0.  0.
<mgrwt>
<rscale>  0 0.50624640E+03</rscale>
<asrwt>0</asrwt>
<pdfrwt beam="1">  1        2 0.40367839E-01 0.50624640E+03</pdfrwt>
<pdfrwt beam="2">  1       -2 0.32391594E-01 0.50624640E+03</pdfrwt>
<totfact> 0.11315783E+03</totfact>
</mgrwt>
</event>
<event>
 4    1  0.5323640E-005  0.5194174E+03  0.7818608E-02  0.1008831E+00
          2   -1    0    0  501    0  0.00000000000E+00  0.00000000000E+00  0.47346351608E+03  0.47346351609E+03  0.25500000000E-02 0.  1.
         -2   -1    0    0    0  501 -0.00000000000E+00 -0.00000000000E+00 -0.14245787205E+03  0.14245787207E+03  0.25500000000E-02 0. -1.
    5000001    1    1    2    0    0  0.12455693406E+03 -0.13469279970E+03  0.26159612797E+03  0.35960271729E+03  0.16500000000E+03 0.  0.
   -5000001    1    1    2    0    0 -0.12455693406E+03  0.13469279970E+03  0.69409516066E+02  0.25631867087E+03  0.16500000000E+03 0.  0.
<mgrwt>
<rscale>  0 0.51941739E+03</rscale>
<asrwt>0</asrwt>
<pdfrwt beam="1">  1        2 0.67637644E-01 0.51941739E+03</pdfrwt>
<pdfrwt beam="2">  1       -2 0.20351125E-01 0.51941739E+03</pdfrwt>
<totfact> 0.14760578E+03</totfact>
</mgrwt>
</event>
<event>
 4    1  0.5323640E-005  0.9643928E+03  0.7818608E-02  0.9348484E-01
         -2   -1    0    0    0  501 -0.00000000000E+00  0.00000000000E+00  0.14816776111E+03  0.14816776113E+03  0.25500000000E-02 0. -1.
          2   -1    0    0  501    0  0.00000000000E+00 -0.00000000000E+00 -0.15692574553E+04  0.15692574553E+04  0.25500000000E-02 0.  1.
    5000001    1    1    2    0    0  0.18316740863E+03 -0.19982392811E+03 -0.13570850366E+04  0.13936946216E+04  0.16500000000E+03 0.  0.
   -5000001    1    1    2    0    0 -0.18316740863E+03  0.19982392811E+03 -0.64004657629E+02  0.32373059483E+03  0.16500000000E+03 0.  0.
<mgrwt>
<rscale>  0 0.96439279E+03</rscale>
<asrwt>0</asrwt>
<pdfrwt beam="1">  1        2 0.22417963E+00 0.96439279E+03</pdfrwt>
<pdfrwt beam="2">  1       -2 0.21166824E-01 0.96439279E+03</pdfrwt>
<totfact> 0.25924625E+02</totfact>
</mgrwt>
</event>
<event>
 4    1  0.5323640E-005  0.5085062E+03  0.7818608E-02  0.1011582E+00
         -2   -1    0    0    0  501 -0.00000000000E+00  0.00000000000E+00  0.10026003389E+03  0.10026003392E+03  0.25500000000E-02 0. -1.
          2   -1    0    0  501    0  0.00000000000E+00 -0.00000000000E+00 -0.64476984637E+03  0.64476984638E+03  0.25500000000E-02 0.  1.
    5000001    1    1    2    0    0  0.35540535792E+02 -0.14463131638E+03 -0.91393600455E+02  0.24033130792E+03  0.16500000000E+03 0.  0.
   -5000001    1    1    2    0    0 -0.35540535792E+02  0.14463131638E+03 -0.45311621203E+03  0.50469857238E+03  0.16500000000E+03 0.  0.
<mgrwt>
<rscale>  0 0.50850623E+03</rscale>
<asrwt>0</asrwt>
<pdfrwt beam="1">  1        2 0.92109975E-01 0.50850623E+03</pdfrwt>
<pdfrwt beam="2">  1       -2 0.14322862E-01 0.50850623E+03</pdfrwt>
<totfact> 0.18803041E+03</totfact>
</mgrwt>
</event>
<event>
 4    1  0.5323640E-005  0.4638804E+03  0.7818608E-02  0.1023662E+00
          2   -1    0    0  501    0  0.00000000000E+00  0.00000000000E+00  0.95766544004E+03  0.95766544005E+03  0.25500000000E-02 0.  1.
         -2   -1    0    0    0  501 -0.00000000000E+00 -0.00000000000E+00 -0.56174363371E+02  0.56174363429E+02  0.25500000000E-02 0. -1.
    5000001    1    1    2    0    0 -0.12676638014E+03 -0.58125928873E+02  0.63520120991E+03  0.67093510552E+03  0.16500000000E+03 0.  0.
   -5000001    1    1    2    0    0  0.12676638014E+03  0.58125928873E+02  0.26628986676E+03  0.34290469796E+03  0.16500000000E+03 0.  0.
<mgrwt>
<rscale>  0 0.46388036E+03</rscale>
<asrwt>0</asrwt>
<pdfrwt beam="1">  1        2 0.13680934E+00 0.46388036E+03</pdfrwt>
<pdfrwt beam="2">  1       -2 0.80249097E-02 0.46388036E+03</pdfrwt>
<totfact> 0.29190549E+03</totfact>
</mgrwt>
</event>
<event>
 4    1  0.5323640E-005  0.5179079E+03  0.7818608E-02  0.1009208E+00
          2   -1    0    0  501    0  0.00000000000E+00  0.00000000000E+00  0.83808878072E+03  0.83808878072E+03  0.25500000000E-02 0.  1.
         -2   -1    0    0    0  501 -0.00000000000E+00 -0.00000000000E+00 -0.80011989076E+02  0.80011989117E+02  0.25500000000E-02 0. -1.
    5000001    1    1    2    0    0  0.15806057500E+03  0.12153337767E+03  0.36331782859E+03  0.44606989567E+03  0.16500000000E+03 0.  0.
   -5000001    1    1    2    0    0 -0.15806057500E+03 -0.12153337767E+03  0.39475896305E+03  0.47203087417E+03  0.16500000000E+03 0.  0.
<mgrwt>
<rscale>  0 0.51790791E+03</rscale>
<asrwt>0</asrwt>
<pdfrwt beam="1">  1        2 0.11972696E+00 0.51790791E+03</pdfrwt>
<pdfrwt beam="2">  1       -2 0.11430285E-01 0.51790791E+03</pdfrwt>
<totfact> 0.19727850E+03</totfact>
</mgrwt>
</event>
<event>
 4    1  0.5323640E-005  0.5062497E+03  0.7818608E-02  0.1012160E+00
          2   -1    0    0  501    0  0.00000000000E+00  0.00000000000E+00  0.61185139090E+03  0.61185139091E+03  0.25500000000E-02 0.  1.
         -2   -1    0    0    0  501 -0.00000000000E+00 -0.00000000000E+00 -0.10471855552E+03  0.10471855555E+03  0.25500000000E-02 0. -1.
    5000001    1    1    2    0    0  0.13917124736E+03 -0.61571998185E+02  0.87968443818E+02  0.24108752386E+03  0.16500000000E+03 0.  0.
   -5000001    1    1    2    0    0 -0.13917124736E+03  0.61571998185E+02  0.41916439156E+03  0.47548242260E+03  0.16500000000E+03 0.  0.
<mgrwt>
<rscale>  0 0.50624972E+03</rscale>
<asrwt>0</asrwt>
<pdfrwt beam="1">  1        2 0.87407343E-01 0.50624972E+03</pdfrwt>
<pdfrwt beam="2">  1       -2 0.14959793E-01 0.50624972E+03</pdfrwt>
<totfact> 0.18600212E+03</totfact>
</mgrwt>
</event>
<event>
 4    1  0.5323640E-005  0.5793597E+03  0.7818608E-02  0.9949178E-01
          2   -1    0    0  501    0  0.00000000000E+00  0.00000000000E+00  0.15558677527E+04  0.15558677527E+04  0.25500000000E-02 0.  1.
         -2   -1    0    0    0  501 -0.00000000000E+00 -0.00000000000E+00 -0.53934157285E+02  0.53934157345E+02  0.25500000000E-02 0. -1.
    5000001    1    1    2    0    0 -0.95027245820E+02  0.14322000293E+03  0.12087788597E+04  0.12320363138E+04  0.16500000000E+03 0.  0.
   -5000001    1    1    2    0    0  0.95027245820E+02 -0.14322000293E+03  0.29315473570E+03  0.37776559630E+03  0.16500000000E+03 0.  0.
<mgrwt>
<rscale>  0 0.57935970E+03</rscale>
<asrwt>0</asrwt>
<pdfrwt beam="1">  1        2 0.22226681E+00 0.57935970E+03</pdfrwt>
<pdfrwt beam="2">  1       -2 0.77048799E-02 0.57935970E+03</pdfrwt>
<totfact> 0.14494140E+03</totfact>
</mgrwt>
</event>
<event>
 4    1  0.5323640E-005  0.4590341E+03  0.7818608E-02  0.1025062E+00
          2   -1    0    0  501    0  0.00000000000E+00  0.00000000000E+00  0.17500860555E+04  0.17500860555E+04  0.25500000000E-02 0.  1.
         -2   -1    0    0    0  501 -0.00000000000E+00 -0.00000000000E+00 -0.30100278908E+02  0.30100279016E+02  0.25500000000E-02 0. -1.
    5000001    1    1    2    0    0  0.11556063175E+03 -0.97953540488E+02  0.10540506286E+04  0.10775884574E+04  0.16500000000E+03 0.  0.
   -5000001    1    1    2    0    0 -0.11556063175E+03  0.97953540488E+02  0.66593514795E+03  0.70259787715E+03  0.16500000000E+03 0.  0.
<mgrwt>
<rscale>  0 0.45903411E+03</rscale>
<asrwt>0</asrwt>
<pdfrwt beam="1">  1        2 0.25001229E+00 0.45903411E+03</pdfrwt>
<pdfrwt beam="2">  1       -2 0.43000399E-02 0.45903411E+03</pdfrwt>
<totfact> 0.28750338E+03</totfact>
</mgrwt>
</event>
<event>
 4    1  0.5323640E-005  0.7082427E+03  0.7818608E-02  0.9703239E-01
          2   -1    0    0  501    0  0.00000000000E+00  0.00000000000E+00  0.25749155692E+04  0.25749155692E+04  0.25500000000E-02 0.  1.
         -2   -1    0    0    0  501 -0.00000000000E+00 -0.00000000000E+00 -0.48701371297E+02  0.48701371364E+02  0.25500000000E-02 0. -1.
    5000001    1    1    2    0    0  0.25611818046E+03 -0.80013682817E+02  0.18624678389E+04  0.18889177226E+04  0.16500000000E+03 0.  0.
   -5000001    1    1    2    0    0 -0.25611818046E+03  0.80013682817E+02  0.66374635902E+03  0.73469921799E+03  0.16500000000E+03 0.  0.
<mgrwt>
<rscale>  0 0.70824267E+03</rscale>
<asrwt>0</asrwt>
<pdfrwt beam="1">  1        2 0.36784524E+00 0.70824267E+03</pdfrwt>
<pdfrwt beam="2">  1       -2 0.69573357E-02 0.70824267E+03</pdfrwt>
<totfact> 0.51332266E+02</totfact>
</mgrwt>
</event>
<event>
 4    1  0.5323640E-005  0.4108634E+03  0.7818608E-02  0.1040082E+00
          2   -1    0    0  501    0  0.00000000000E+00  0.00000000000E+00  0.13424955273E+04  0.13424955273E+04  0.25500000000E-02 0.  1.
         -2   -1    0    0    0  501 -0.00000000000E+00 -0.00000000000E+00 -0.31435616710E+02  0.31435616814E+02  0.25500000000E-02 0. -1.
    5000001    1    1    2    0    0  0.60348382697E+02 -0.93594399105E+02  0.82523099812E+03  0.84890107733E+03  0.16500000000E+03 0.  0.
   -5000001    1    1    2    0    0 -0.60348382697E+02  0.93594399105E+02  0.48582891250E+03  0.52503006681E+03  0.16500000000E+03 0.  0.
<mgrwt>
<rscale>  0 0.41086336E+03</rscale>
<asrwt>0</asrwt>
<pdfrwt beam="1">  1        2 0.19178505E+00 0.41086336E+03</pdfrwt>
<pdfrwt beam="2">  1       -2 0.44908029E-02 0.41086336E+03</pdfrwt>
<totfact> 0.43543281E+03</totfact>
</mgrwt>
</event>
<event>
 4    1  0.5323640E-005  0.4642661E+03  0.7818608E-02  0.1023551E+00
          2   -1    0    0  501    0  0.00000000000E+00  0.00000000000E+00  0.37132298761E+04  0.37132298761E+04  0.25500000000E-02 0.  1.
         -2   -1    0    0    0  501 -0.00000000000E+00 -0.00000000000E+00 -0.14511830683E+02  0.14511830907E+02  0.25500000000E-02 0. -1.
    5000001    1    1    2    0    0  0.10419038649E+03 -0.11540683830E+03  0.22497306639E+04  0.22611252586E+04  0.16500000000E+03 0.  0.
   -5000001    1    1    2    0    0 -0.10419038649E+03  0.11540683830E+03  0.14489873815E+04  0.14666164484E+04  0.16500000000E+03 0.  0.
<mgrwt>
<rscale>  0 0.46426615E+03</rscale>
<asrwt>0</asrwt>
<pdfrwt beam="1">  1        2 0.53046099E+00 0.46426615E+03</pdfrwt>
<pdfrwt beam="2">  1       -2 0.20731203E-02 0.46426615E+03</pdfrwt>
<totfact> 0.77780232E+02</totfact>
</mgrwt>
</event>
<event>
 4    1  0.5323640E-005  0.4832307E+03  0.7818608E-02  0.1018251E+00
         -2   -1    0    0    0  501 -0.00000000000E+00  0.00000000000E+00  0.22779809065E+04  0.22779809065E+04  0.25500000000E-02 0. -1.
          2   -1    0    0  501    0  0.00000000000E+00 -0.00000000000E+00 -0.25627070957E+02  0.25627071084E+02  0.25500000000E-02 0.  1.
    5000001    1    1    2    0    0 -0.13903351957E+03 -0.71386759141E+02  0.15171541931E+04  0.15340822124E+04  0.16500000000E+03 0.  0.
   -5000001    1    1    2    0    0  0.13903351957E+03  0.71386759141E+02  0.73519964244E+03  0.76952576512E+03  0.16500000000E+03 0.  0.
<mgrwt>
<rscale>  0 0.48323070E+03</rscale>
<asrwt>0</asrwt>
<pdfrwt beam="1">  1        2 0.36610130E-02 0.48323070E+03</pdfrwt>
<pdfrwt beam="2">  1       -2 0.32542559E+00 0.48323070E+03</pdfrwt>
<totfact> 0.60383568E+01</totfact>
</mgrwt>
</event>
<event>
 4    1  0.5323640E-005  0.7864562E+03  0.7818608E-02  0.9579831E-01
          2   -1    0    0  501    0  0.00000000000E+00  0.00000000000E+00  0.15309473007E+04  0.15309473007E+04  0.25500000000E-02 0.  1.
         -2   -1    0    0    0  501 -0.00000000000E+00 -0.00000000000E+00 -0.10100173404E+03  0.10100173407E+03  0.25500000000E-02 0. -1.
    5000001    1    1    2    0    0  0.25664408974E+03 -0.17677882810E+03  0.10760963327E+04  0.11323980131E+04  0.16500000000E+03 0.  0.
   -5000001    1    1    2    0    0 -0.25664408974E+03  0.17677882810E+03  0.35384923397E+03  0.49955102166E+03  0.16500000000E+03 0.  0.
<mgrwt>
<rscale>  0 0.78645618E+03</rscale>
<asrwt>0</asrwt>
<pdfrwt beam="1">  1        2 0.21870675E+00 0.78645618E+03</pdfrwt>
<pdfrwt beam="2">  1       -2 0.14428820E-01 0.78645618E+03</pdfrwt>
<totfact> 0.53097761E+02</totfact>
</mgrwt>
</event>
<event>
 4    1  0.5323640E-005  0.3815932E+03  0.7818608E-02  0.1050346E+00
          2   -1    0    0  501    0  0.00000000000E+00  0.00000000000E+00  0.16317780896E+03  0.16317780898E+03  0.25500000000E-02 0.  1.
         -2   -1    0    0    0  501 -0.00000000000E+00 -0.00000000000E+00 -0.22309002793E+03  0.22309002795E+03  0.25500000000E-02 0. -1.
    5000001    1    1    2    0    0 -0.90885844176E+02  0.27873749515E+02 -0.17929511434E+02  0.19126852842E+03  0.16500000000E+03 0.  0.
   -5000001    1    1    2    0    0  0.90885844176E+02 -0.27873749515E+02 -0.41982707541E+02  0.19499930850E+03  0.16500000000E+03 0.  0.
<mgrwt>
<rscale>  0 0.38159320E+03</rscale>
<asrwt>0</asrwt>
<pdfrwt beam="1">  1        2 0.23311116E-01 0.38159320E+03</pdfrwt>
<pdfrwt beam="2">  1       -2 0.31870004E-01 0.38159320E+03</pdfrwt>
<totfact> 0.21452471E+03</totfact>
</mgrwt>
</event>
<event>
 4    1  0.5323640E-005  0.1240706E+04  0.7818608E-02  0.9077954E-01
          2   -1    0    0  501    0  0.00000000000E+00  0.00000000000E+00  0.24841817819E+03  0.24841817820E+03  0.25500000000E-02 0.  1.
         -2   -1    0    0    0  501 -0.00000000000E+00 -0.00000000000E+00 -0.15491545236E+04  0.15491545236E+04  0.25500000000E-02 0. -1.
    5000001    1    1    2    0    0  0.51507286455E+03  0.21353515895E+03 -0.33722033147E+03  0.67219035389E+03  0.16500000000E+03 0.  0.
   -5000001    1    1    2    0    0 -0.51507286455E+03 -0.21353515895E+03 -0.96351601393E+03  0.11253823479E+04  0.16500000000E+03 0.  0.
<mgrwt>
<rscale>  0 0.12407065E+04</rscale>
<asrwt>0</asrwt>
<pdfrwt beam="1">  1        2 0.35488312E-01 0.12407065E+04</pdfrwt>
<pdfrwt beam="2">  1       -2 0.22130778E+00 0.12407065E+04</pdfrwt>
<totfact> 0.14079338E+01</totfact>
</mgrwt>
</event>
<event>
 4    1  0.5323640E-005  0.5051501E+03  0.7818608E-02  0.1012443E+00
         -2   -1    0    0    0  501 -0.00000000000E+00  0.00000000000E+00  0.15407909044E+03  0.15407909046E+03  0.25500000000E-02 0. -1.
          2   -1    0    0  501    0  0.00000000000E+00 -0.00000000000E+00 -0.41403510382E+03  0.41403510383E+03  0.25500000000E-02 0.  1.
    5000001    1    1    2    0    0  0.16686609954E+03 -0.93365082749E+02 -0.13312266267E+03  0.28549601953E+03  0.16500000000E+03 0.  0.
   -5000001    1    1    2    0    0 -0.16686609954E+03  0.93365082749E+02 -0.12683335071E+03  0.28261817476E+03  0.16500000000E+03 0.  0.
<mgrwt>
<rscale>  0 0.50515009E+03</rscale>
<asrwt>0</asrwt>
<pdfrwt beam="1">  1        2 0.59147872E-01 0.50515009E+03</pdfrwt>
<pdfrwt beam="2">  1       -2 0.22011299E-01 0.50515009E+03</pdfrwt>
<totfact> 0.14944953E+03</totfact>
</mgrwt>
</event>
<event>
 4    1  0.5323640E-005  0.8107511E+03  0.7818608E-02  0.9544584E-01
          2   -1    0    0  501    0  0.00000000000E+00  0.00000000000E+00  0.43616388554E+03  0.43616388555E+03  0.25500000000E-02 0.  1.
         -2   -1    0    0    0  501 -0.00000000000E+00 -0.00000000000E+00 -0.37676048486E+03  0.37676048486E+03  0.25500000000E-02 0. -1.
    5000001    1    1    2    0    0  0.19967713179E+03 -0.14041674709E+02  0.34204305807E+03  0.42928612738E+03  0.16500000000E+03 0.  0.
   -5000001    1    1    2    0    0 -0.19967713179E+03  0.14041674709E+02 -0.28263965738E+03  0.38363824303E+03  0.16500000000E+03 0.  0.
<mgrwt>
<rscale>  0 0.81075105E+03</rscale>
<asrwt>0</asrwt>
<pdfrwt beam="1">  1        2 0.62309127E-01 0.81075105E+03</pdfrwt>
<pdfrwt beam="2">  1       -2 0.53822926E-01 0.81075105E+03</pdfrwt>
<totfact> 0.25671892E+02</totfact>
</mgrwt>
</event>
<event>
 4    1  0.5323640E-005  0.6312312E+03  0.7818608E-02  0.9842649E-01
         -2   -1    0    0    0  501 -0.00000000000E+00  0.00000000000E+00  0.62515138595E+02  0.62515138647E+02  0.25500000000E-02 0. -1.
          2   -1    0    0  501    0  0.00000000000E+00 -0.00000000000E+00 -0.15934253795E+04  0.15934253795E+04  0.25500000000E-02 0.  1.
    5000001    1    1    2    0    0  0.23036155992E+03  0.11131376843E+03 -0.54705424057E+03  0.62605953826E+03  0.16500000000E+03 0.  0.
   -5000001    1    1    2    0    0 -0.23036155992E+03 -0.11131376843E+03 -0.98385600038E+03  0.10298809799E+04  0.16500000000E+03 0.  0.
<mgrwt>
<rscale>  0 0.63123120E+03</rscale>
<asrwt>0</asrwt>
<pdfrwt beam="1">  1        2 0.22763217E+00 0.63123120E+03</pdfrwt>
<pdfrwt beam="2">  1       -2 0.89307350E-02 0.63123120E+03</pdfrwt>
<totfact> 0.10925995E+03</totfact>
</mgrwt>
</event>
<event>
 4    1  0.5323640E-005  0.5856556E+03  0.7818608E-02  0.9935621E-01
          2   -1    0    0  501    0  0.00000000000E+00  0.00000000000E+00  0.12548348593E+04  0.12548348593E+04  0.25500000000E-02 0. -1.
         -2   -1    0    0    0  501 -0.00000000000E+00 -0.00000000000E+00 -0.68334192071E+02  0.68334192119E+02  0.25500000000E-02 0.  1.
    5000001    1    1    2    0    0 -0.13958157932E+03 -0.18024463618E+03  0.41037324205E+03  0.49759656746E+03  0.16500000000E+03 0.  0.
   -5000001    1    1    2    0    0  0.13958157932E+03  0.18024463618E+03  0.77612742515E+03  0.82557248393E+03  0.16500000000E+03 0.  0.
<mgrwt>
<rscale>  0 0.58565562E+03</rscale>
<asrwt>0</asrwt>
<pdfrwt beam="1">  1        2 0.17926211E+00 0.58565562E+03</pdfrwt>
<pdfrwt beam="2">  1       -2 0.97620284E-02 0.58565562E+03</pdfrwt>
<totfact> 0.14331408E+03</totfact>
</mgrwt>
</event>
<event>
 4    1  0.5323640E-005  0.4840524E+03  0.7818608E-02  0.1018027E+00
          2   -1    0    0  501    0  0.00000000000E+00  0.00000000000E+00  0.17256212079E+04  0.17256212079E+04  0.25500000000E-02 0.  1.
         -2   -1    0    0    0  501 -0.00000000000E+00 -0.00000000000E+00 -0.33945278651E+02  0.33945278747E+02  0.25500000000E-02 0. -1.
    5000001    1    1    2    0    0 -0.11229023824E+03 -0.79897101382E+02  0.12499537163E+04  0.12683067205E+04  0.16500000000E+03 0.  0.
   -5000001    1    1    2    0    0  0.11229023824E+03  0.79897101382E+02  0.44172221299E+03  0.49125976617E+03  0.16500000000E+03 0.  0.
<mgrwt>
<rscale>  0 0.48405245E+03</rscale>
<asrwt>0</asrwt>
<pdfrwt beam="1">  1        2 0.24651731E+00 0.48405245E+03</pdfrwt>
<pdfrwt beam="2">  1       -2 0.48493257E-02 0.48405245E+03</pdfrwt>
<totfact> 0.24573801E+03</totfact>
</mgrwt>
</event>
<event>
 4    1  0.5323640E-005  0.9346799E+03  0.7818608E-02  0.9383239E-01
         -2   -1    0    0    0  501 -0.00000000000E+00  0.00000000000E+00  0.21924180561E+03  0.21924180562E+03  0.25500000000E-02 0. -1.
          2   -1    0    0  501    0  0.00000000000E+00 -0.00000000000E+00 -0.99619063117E+03  0.99619063117E+03  0.25500000000E-02 0.  1.
    5000001    1    1    2    0    0  0.33075904524E+03 -0.27423975147E+03 -0.28305077036E+03  0.54032557397E+03  0.16500000000E+03 0.  0.
   -5000001    1    1    2    0    0 -0.33075904524E+03  0.27423975147E+03 -0.49389805520E+03  0.67510686282E+03  0.16500000000E+03 0.  0.
<mgrwt>
<rscale>  0 0.93467991E+03</rscale>
<asrwt>0</asrwt>
<pdfrwt beam="1">  1        2 0.14231294E+00 0.93467991E+03</pdfrwt>
<pdfrwt beam="2">  1       -2 0.31320259E-01 0.93467991E+03</pdfrwt>
<totfact> 0.26668636E+02</totfact>
</mgrwt>
</event>
<event>
 4    1  0.5323640E-005  0.4046484E+03  0.7818608E-02  0.1042182E+00
         -2   -1    0    0    0  501 -0.00000000000E+00  0.00000000000E+00  0.15238860052E+03  0.15238860054E+03  0.25500000000E-02 0. -1.
          2   -1    0    0  501    0  0.00000000000E+00 -0.00000000000E+00 -0.26862295100E+03  0.26862295101E+03  0.25500000000E-02 0.  1.
    5000001    1    1    2    0    0  0.79336229220E+02 -0.83514565983E+02 -0.36264122889E+02  0.20447250819E+03  0.16500000000E+03 0.  0.
   -5000001    1    1    2    0    0 -0.79336229220E+02  0.83514565983E+02 -0.79970227588E+02  0.21653904336E+03  0.16500000000E+03 0.  0.
<mgrwt>
<rscale>  0 0.40464837E+03</rscale>
<asrwt>0</asrwt>
<pdfrwt beam="1">  1        2 0.38374707E-01 0.40464837E+03</pdfrwt>
<pdfrwt beam="2">  1       -2 0.21769800E-01 0.40464837E+03</pdfrwt>
<totfact> 0.24438819E+03</totfact>
</mgrwt>
</event>
<event>
 4    1  0.5323640E-005  0.4414161E+03  0.7818608E-02  0.1030313E+00
          2   -1    0    0  501    0  0.00000000000E+00  0.00000000000E+00  0.45999740668E+03  0.45999740669E+03  0.25500000000E-02 0.  1.
         -2   -1    0    0    0  501 -0.00000000000E+00 -0.00000000000E+00 -0.10589632799E+03  0.10589632802E+03  0.25500000000E-02 0. -1.
    5000001    1    1    2    0    0  0.86161247143E+02  0.96531897941E+02  0.88742786148E+02  0.22768937156E+03  0.16500000000E+03 0.  0.
   -5000001    1    1    2    0    0 -0.86161247143E+02 -0.96531897941E+02  0.26535829255E+03  0.33820436315E+03  0.16500000000E+03 0.  0.
<mgrwt>
<rscale>  0 0.44141607E+03</rscale>
<asrwt>0</asrwt>
<pdfrwt beam="1">  1        2 0.65713916E-01 0.44141607E+03</pdfrwt>
<pdfrwt beam="2">  1       -2 0.15128047E-01 0.44141607E+03</pdfrwt>
<totfact> 0.25253508E+03</totfact>
</mgrwt>
</event>
<event>
 4    1  0.5323640E-005  0.3645291E+03  0.7818608E-02  0.1056805E+00
          2   -1    0    0  501    0  0.00000000000E+00  0.00000000000E+00  0.15828810218E+04  0.15828810218E+04  0.25500000000E-02 0.  1.
         -2   -1    0    0    0  501 -0.00000000000E+00 -0.00000000000E+00 -0.20987278780E+02  0.20987278935E+02  0.25500000000E-02 0. -1.
    5000001    1    1    2    0    0 -0.74970755519E+02 -0.19294457081E+02  0.77402478379E+03  0.79519321940E+03  0.16500000000E+03 0.  0.
   -5000001    1    1    2    0    0  0.74970755519E+02  0.19294457081E+02  0.78786895919E+03  0.80867508129E+03  0.16500000000E+03 0.  0.
<mgrwt>
<rscale>  0 0.36452910E+03</rscale>
<asrwt>0</asrwt>
<pdfrwt beam="1">  1        2 0.22612582E+00 0.36452910E+03</pdfrwt>
<pdfrwt beam="2">  1       -2 0.29981832E-02 0.36452910E+03</pdfrwt>
<totfact> 0.60280679E+03</totfact>
</mgrwt>
</event>
<event>
 4    1  0.5323640E-005  0.5713578E+03  0.7818608E-02  0.9966679E-01
          2   -1    0    0  501    0  0.00000000000E+00  0.00000000000E+00  0.12290374027E+04  0.12290374027E+04  0.25500000000E-02 0.  1.
         -2   -1    0    0    0  501 -0.00000000000E+00 -0.00000000000E+00 -0.66403537454E+02  0.66403537503E+02  0.25500000000E-02 0. -1.
    5000001    1    1    2    0    0 -0.19673816101E+03 -0.74904020076E+02  0.35378417512E+03  0.44351410213E+03  0.16500000000E+03 0.  0.
   -5000001    1    1    2    0    0  0.19673816101E+03  0.74904020076E+02  0.80884969015E+03  0.85192683810E+03  0.16500000000E+03 0.  0.
<mgrwt>
<rscale>  0 0.57135779E+03</rscale>
<asrwt>0</asrwt>
<pdfrwt beam="1">  1        2 0.17557677E+00 0.57135779E+03</pdfrwt>
<pdfrwt beam="2">  1       -2 0.94862197E-02 0.57135779E+03</pdfrwt>
<totfact> 0.15516154E+03</totfact>
</mgrwt>
</event>
<event>
 4    1  0.5323640E-005  0.7448423E+03  0.7818608E-02  0.9643477E-01
         -2   -1    0    0    0  501 -0.00000000000E+00  0.00000000000E+00  0.14358657542E+03  0.14358657544E+03  0.25500000000E-02 0. -1.
          2   -1    0    0  501    0  0.00000000000E+00 -0.00000000000E+00 -0.96595045359E+03  0.96595045359E+03  0.25500000000E-02 0.  1.
    5000001    1    1    2    0    0 -0.30079696976E+03  0.10970446244E+03 -0.55217518180E+03  0.65926953327E+03  0.16500000000E+03 0.  0.
   -5000001    1    1    2    0    0  0.30079696976E+03 -0.10970446244E+03 -0.27018869637E+03  0.45026749577E+03  0.16500000000E+03 0.  0.
<mgrwt>
<rscale>  0 0.74484231E+03</rscale>
<asrwt>0</asrwt>
<pdfrwt beam="1">  1        2 0.13799292E+00 0.74484231E+03</pdfrwt>
<pdfrwt beam="2">  1       -2 0.20512368E-01 0.74484231E+03</pdfrwt>
<totfact> 0.60410383E+02</totfact>
</mgrwt>
</event>
<event>
 4    1  0.5323640E-005  0.6297132E+03  0.7818608E-02  0.9845609E-01
          2   -1    0    0  501    0  0.00000000000E+00  0.00000000000E+00  0.20490476530E+04  0.20490476530E+04  0.25500000000E-02 0.  1.
         -2   -1    0    0    0  501 -0.00000000000E+00 -0.00000000000E+00 -0.48380852984E+02  0.48380853051E+02  0.25500000000E-02 0. -1.
    5000001    1    1    2    0    0  0.26767402818E+03 -0.13503120661E+02  0.97092558588E+03  0.10206631241E+04  0.16500000000E+03 0.  0.
   -5000001    1    1    2    0    0 -0.26767402818E+03  0.13503120661E+02  0.10297412141E+04  0.10767653819E+04  0.16500000000E+03 0.  0.
<mgrwt>
<rscale>  0 0.62971318E+03</rscale>
<asrwt>0</asrwt>
<pdfrwt beam="1">  1        2 0.29272110E+00 0.62971318E+03</pdfrwt>
<pdfrwt beam="2">  1       -2 0.69115502E-02 0.62971318E+03</pdfrwt>
<totfact> 0.96624685E+02</totfact>
</mgrwt>
</event>
<event>
 4    1  0.5323640E-005  0.5735238E+03  0.7818608E-02  0.9961911E-01
          2   -1    0    0  501    0  0.00000000000E+00  0.00000000000E+00  0.13771200958E+04  0.13771200958E+04  0.25500000000E-02 0.  1.
         -2   -1    0    0    0  501 -0.00000000000E+00 -0.00000000000E+00 -0.59713303884E+02  0.59713303938E+02  0.25500000000E-02 0. -1.
    5000001    1    1    2    0    0  0.18254323035E+03  0.11732752499E+03  0.88165310297E+03  0.92283529031E+03  0.16500000000E+03 0.  0.
   -5000001    1    1    2    0    0 -0.18254323035E+03 -0.11732752499E+03  0.43575368895E+03  0.51399810943E+03  0.16500000000E+03 0.  0.
<mgrwt>
<rscale>  0 0.57352381E+03</rscale>
<asrwt>0</asrwt>
<pdfrwt beam="1">  1        2 0.19673143E+00 0.57352381E+03</pdfrwt>
<pdfrwt beam="2">  1       -2 0.85304727E-02 0.57352381E+03</pdfrwt>
<totfact> 0.15291213E+03</totfact>
</mgrwt>
</event>
<event>
 4    1  0.5323640E-005  0.3930169E+03  0.7818608E-02  0.1046225E+00
         -2   -1    0    0    0  501 -0.00000000000E+00  0.00000000000E+00  0.37687566037E+02  0.37687566124E+02  0.25500000000E-02 0. -1.
          2   -1    0    0  501    0  0.00000000000E+00 -0.00000000000E+00 -0.10246237724E+04  0.10246237724E+04  0.25500000000E-02 0.  1.
    5000001    1    1    2    0    0  0.60754534779E+02 -0.31206057822E+02 -0.27179779820E+03  0.32521373686E+03  0.16500000000E+03 0.  0.
   -5000001    1    1    2    0    0 -0.60754534779E+02  0.31206057822E+02 -0.71513840816E+03  0.73709760165E+03  0.16500000000E+03 0.  0.
<mgrwt>
<rscale>  0 0.39301693E+03</rscale>
<asrwt>0</asrwt>
<pdfrwt beam="1">  1        2 0.14637481E+00 0.39301693E+03</pdfrwt>
<pdfrwt beam="2">  1       -2 0.53839386E-02 0.39301693E+03</pdfrwt>
<totfact> 0.49526319E+03</totfact>
</mgrwt>
</event>
<event>
 4    1  0.5323640E-005  0.7892581E+03  0.7818608E-02  0.9575697E-01
          2   -1    0    0  501    0  0.00000000000E+00  0.00000000000E+00  0.38238075937E+04  0.38238075937E+04  0.25500000000E-02 0.  1.
         -2   -1    0    0    0  501 -0.00000000000E+00 -0.00000000000E+00 -0.40726963412E+02  0.40726963492E+02  0.25500000000E-02 0. -1.
    5000001    1    1    2    0    0  0.33571535413E+03 -0.12221349421E+03  0.17474380021E+04  0.17912022523E+04  0.16500000000E+03 0.  0.
   -5000001    1    1    2    0    0 -0.33571535413E+03  0.12221349421E+03  0.20356426282E+04  0.20733323050E+04  0.16500000000E+03 0.  0.
<mgrwt>
<rscale>  0 0.78925806E+03</rscale>
<asrwt>0</asrwt>
<pdfrwt beam="1">  1        2 0.54625815E+00 0.78925806E+03</pdfrwt>
<pdfrwt beam="2">  1       -2 0.58181385E-02 0.78925806E+03</pdfrwt>
<totfact> 0.13095115E+02</totfact>
</mgrwt>
</event>
<event>
 4    1  0.5323640E-005  0.5662635E+03  0.7818608E-02  0.9977981E-01
         -2   -1    0    0    0  501 -0.00000000000E+00  0.00000000000E+00  0.91014792859E+02  0.91014792894E+02  0.25500000000E-02 0. -1.
          2   -1    0    0  501    0  0.00000000000E+00 -0.00000000000E+00 -0.88077528116E+03  0.88077528117E+03  0.25500000000E-02 0.  1.
    5000001    1    1    2    0    0 -0.18634773006E+03 -0.13404067744E+03 -0.42180786654E+03  0.50777874707E+03  0.16500000000E+03 0.  0.
   -5000001    1    1    2    0    0  0.18634773006E+03  0.13404067744E+03 -0.36795262177E+03  0.46401132699E+03  0.16500000000E+03 0.  0.
<mgrwt>
<rscale>  0 0.56626347E+03</rscale>
<asrwt>0</asrwt>
<pdfrwt beam="1">  1        2 0.12582504E+00 0.56626347E+03</pdfrwt>
<pdfrwt beam="2">  1       -2 0.13002114E-01 0.56626347E+03</pdfrwt>
<totfact> 0.14950750E+03</totfact>
</mgrwt>
</event>
<event>
 4    1  0.5323640E-005  0.6400673E+03  0.7818608E-02  0.9825598E-01
         -2   -1    0    0    0  501 -0.00000000000E+00  0.00000000000E+00  0.15019831000E+03  0.15019831002E+03  0.25500000000E-02 0. -1.
          2   -1    0    0  501    0  0.00000000000E+00 -0.00000000000E+00 -0.68190864939E+03  0.68190864940E+03  0.25500000000E-02 0.  1.
    5000001    1    1    2    0    0  0.23233711523E+03 -0.12715726982E+03 -0.35821243470E+03  0.47506910524E+03  0.16500000000E+03 0.  0.
   -5000001    1    1    2    0    0 -0.23233711523E+03  0.12715726982E+03 -0.17349790470E+03  0.35703785418E+03  0.16500000000E+03 0.  0.
<mgrwt>
<rscale>  0 0.64006727E+03</rscale>
<asrwt>0</asrwt>
<pdfrwt beam="1">  1        2 0.97415520E-01 0.64006727E+03</pdfrwt>
<pdfrwt beam="2">  1       -2 0.21456902E-01 0.64006727E+03</pdfrwt>
<totfact> 0.87871332E+02</totfact>
</mgrwt>
</event>
<event>
 4    1  0.5323640E-005  0.5847122E+03  0.7818608E-02  0.9937641E-01
         -2   -1    0    0    0  501 -0.00000000000E+00  0.00000000000E+00  0.74551923109E+02  0.74551923153E+02  0.25500000000E-02 0. -1.
          2   -1    0    0  501    0  0.00000000000E+00 -0.00000000000E+00 -0.11464774049E+04  0.11464774049E+04  0.25500000000E-02 0.  1.
    5000001    1    1    2    0    0  0.15719821741E+01  0.16079066979E+03 -0.16012879808E+03  0.28057502133E+03  0.16500000000E+03 0.  0.
   -5000001    1    1    2    0    0 -0.15719821741E+01 -0.16079066979E+03 -0.91179668371E+03  0.94045430673E+03  0.16500000000E+03 0.  0.
<mgrwt>
<rscale>  0 0.58471222E+03</rscale>
<asrwt>0</asrwt>
<pdfrwt beam="1">  1        2 0.16378248E+00 0.58471222E+03</pdfrwt>
<pdfrwt beam="2">  1       -2 0.10650275E-01 0.58471222E+03</pdfrwt>
<totfact> 0.14309208E+03</totfact>
</mgrwt>
</event>
<event>
 4    1  0.5323640E-005  0.5156477E+03  0.7818608E-02  0.1009773E+00
          2   -1    0    0  501    0  0.00000000000E+00  0.00000000000E+00  0.83265577552E+03  0.83265577552E+03  0.25500000000E-02 0.  1.
         -2   -1    0    0    0  501 -0.00000000000E+00 -0.00000000000E+00 -0.79832685007E+02  0.79832685047E+02  0.25500000000E-02 0. -1.
    5000001    1    1    2    0    0  0.18496498443E+03 -0.43535028240E+02  0.47558479746E+03  0.53806434906E+03  0.16500000000E+03 0.  0.
   -5000001    1    1    2    0    0 -0.18496498443E+03  0.43535028240E+02  0.27723829305E+03  0.37442411151E+03  0.16500000000E+03 0.  0.
<mgrwt>
<rscale>  0 0.51564773E+03</rscale>
<asrwt>0</asrwt>
<pdfrwt beam="1">  1        2 0.11895083E+00 0.51564773E+03</pdfrwt>
<pdfrwt beam="2">  1       -2 0.11404669E-01 0.51564773E+03</pdfrwt>
<totfact> 0.19967365E+03</totfact>
</mgrwt>
</event>
<event>
 4    1  0.5323640E-005  0.6104137E+03  0.7818608E-02  0.9884033E-01
          2   -1    0    0  501    0  0.00000000000E+00  0.00000000000E+00  0.11008228465E+03  0.11008228468E+03  0.25500000000E-02 0.  1.
         -2   -1    0    0    0  501 -0.00000000000E+00 -0.00000000000E+00 -0.84619641615E+03  0.84619641616E+03  0.25500000000E-02 0. -1.
    5000001    1    1    2    0    0 -0.22228281966E+03 -0.94357186988E+02 -0.23136391050E+03  0.37291713521E+03  0.16500000000E+03 0.  0.
   -5000001    1    1    2    0    0  0.22228281966E+03  0.94357186988E+02 -0.50475022100E+03  0.58336156563E+03  0.16500000000E+03 0.  0.
<mgrwt>
<rscale>  0 0.61041374E+03</rscale>
<asrwt>0</asrwt>
<pdfrwt beam="1">  1        2 0.15726041E-01 0.61041374E+03</pdfrwt>
<pdfrwt beam="2">  1       -2 0.12088520E+00 0.61041374E+03</pdfrwt>
<totfact> 0.19998679E+02</totfact>
</mgrwt>
</event>
<event>
 4    1  0.5323640E-005  0.7837477E+03  0.7818608E-02  0.9583844E-01
         -2   -1    0    0    0  501 -0.00000000000E+00  0.00000000000E+00  0.34259951286E+02  0.34259951381E+02  0.25500000000E-02 0. -1.
          2   -1    0    0  501    0  0.00000000000E+00 -0.00000000000E+00 -0.44823507440E+04  0.44823507440E+04  0.25500000000E-02 0.  1.
    5000001    1    1    2    0    0  0.11800726645E+03 -0.33205341626E+03 -0.19565272935E+04  0.19948456674E+04  0.16500000000E+03 0.  0.
   -5000001    1    1    2    0    0 -0.11800726645E+03  0.33205341626E+03 -0.24915634992E+04  0.25217650280E+04  0.16500000000E+03 0.  0.
<mgrwt>
<rscale>  0 0.78374771E+03</rscale>
<asrwt>0</asrwt>
<pdfrwt beam="1">  1        2 0.64033545E+00 0.78374771E+03</pdfrwt>
<pdfrwt beam="2">  1       -2 0.48942816E-02 0.78374771E+03</pdfrwt>
<totfact> 0.59137939E+01</totfact>
</mgrwt>
</event>
<event>
 4    1  0.5323640E-005  0.4008850E+03  0.7818608E-02  0.1043474E+00
          2   -1    0    0  501    0  0.00000000000E+00  0.00000000000E+00  0.17310681982E+03  0.17310681984E+03  0.25500000000E-02 0.  1.
         -2   -1    0    0    0  501 -0.00000000000E+00 -0.00000000000E+00 -0.23209486409E+03  0.23209486411E+03  0.25500000000E-02 0. -1.
    5000001    1    1    2    0    0 -0.22451253873E+02 -0.91130645391E+02 -0.94555995008E+02  0.21207236860E+03  0.16500000000E+03 0.  0.
   -5000001    1    1    2    0    0  0.22451253873E+02  0.91130645391E+02  0.35567950739E+02  0.19312931536E+03  0.16500000000E+03 0.  0.
<mgrwt>
<rscale>  0 0.40088504E+03</rscale>
<asrwt>0</asrwt>
<pdfrwt beam="1">  1        2 0.24729546E-01 0.40088504E+03</pdfrwt>
<pdfrwt beam="2">  1       -2 0.33156409E-01 0.40088504E+03</pdfrwt>
<totfact> 0.18656114E+03</totfact>
</mgrwt>
</event>
<event>
 4    1  0.5323640E-005  0.5468340E+03  0.7818608E-02  0.1002229E+00
         -2   -1    0    0    0  501 -0.00000000000E+00  0.00000000000E+00  0.32275791687E+03  0.32275791688E+03  0.25500000000E-02 0. -1.
          2   -1    0    0  501    0  0.00000000000E+00 -0.00000000000E+00 -0.23161900718E+03  0.23161900719E+03  0.25500000000E-02 0.  1.
    5000001    1    1    2    0    0 -0.13321761319E+03 -0.63922143561E+02  0.20808945989E+03  0.30390655837E+03  0.16500000000E+03 0.  0.
   -5000001    1    1    2    0    0  0.13321761319E+03  0.63922143561E+02 -0.11695055020E+03  0.25047036570E+03  0.16500000000E+03 0.  0.
<mgrwt>
<rscale>  0 0.54683405E+03</rscale>
<asrwt>0</asrwt>
<pdfrwt beam="1">  1        2 0.33088430E-01 0.54683405E+03</pdfrwt>
<pdfrwt beam="2">  1       -2 0.46108274E-01 0.54683405E+03</pdfrwt>
<totfact> 0.71442778E+02</totfact>
</mgrwt>
</event>
<event>
 4    1  0.5323640E-005  0.4004244E+03  0.7818608E-02  0.1043633E+00
         -2   -1    0    0    0  501 -0.00000000000E+00  0.00000000000E+00  0.42415210269E+02  0.42415210346E+02  0.25500000000E-02 0. -1.
          2   -1    0    0  501    0  0.00000000000E+00 -0.00000000000E+00 -0.94505994077E+03  0.94505994077E+03  0.25500000000E-02 0.  1.
    5000001    1    1    2    0    0  0.98143615067E+02  0.51467025825E+02 -0.39198823966E+03  0.43950063022E+03  0.16500000000E+03 0.  0.
   -5000001    1    1    2    0    0 -0.98143615067E+02 -0.51467025825E+02 -0.51065649084E+03  0.54797452090E+03  0.16500000000E+03 0.  0.
<mgrwt>
<rscale>  0 0.40042436E+03</rscale>
<asrwt>0</asrwt>
<pdfrwt beam="1">  1        2 0.13500855E+00 0.40042436E+03</pdfrwt>
<pdfrwt beam="2">  1       -2 0.60593163E-02 0.40042436E+03</pdfrwt>
<totfact> 0.46102743E+03</totfact>
</mgrwt>
</event>
<event>
 4    1  0.5323640E-005  0.3668400E+03  0.7818608E-02  0.1055908E+00
          2   -1    0    0  501    0  0.00000000000E+00  0.00000000000E+00  0.28752390195E+04  0.28752390195E+04  0.25500000000E-02 0.  1.
         -2   -1    0    0    0  501 -0.00000000000E+00 -0.00000000000E+00 -0.11700902874E+02  0.11700903152E+02  0.25500000000E-02 0. -1.
    5000001    1    1    2    0    0 -0.75794450041E+02 -0.17048828430E+02  0.12778692686E+04  0.12908176977E+04  0.16500000000E+03 0.  0.
   -5000001    1    1    2    0    0  0.75794450041E+02  0.17048828430E+02  0.15856688481E+04  0.15961222249E+04  0.16500000000E+03 0.  0.
<mgrwt>
<rscale>  0 0.36683998E+03</rscale>
<asrwt>0</asrwt>
<pdfrwt beam="1">  1        2 0.41074798E+00 0.36683998E+03</pdfrwt>
<pdfrwt beam="2">  1       -2 0.16715594E-02 0.36683998E+03</pdfrwt>
<totfact> 0.32297538E+03</totfact>
</mgrwt>
</event>
<event>
 4    1  0.5323640E-005  0.4743890E+03  0.7818608E-02  0.1020689E+00
          2   -1    0    0  501    0  0.00000000000E+00  0.00000000000E+00  0.51873649434E+03  0.51873649434E+03  0.25500000000E-02 0.  1.
         -2   -1    0    0    0  501 -0.00000000000E+00 -0.00000000000E+00 -0.10845822185E+03  0.10845822188E+03  0.25500000000E-02 0. -1.
    5000001    1    1    2    0    0 -0.12608384858E+03 -0.82862184699E+02  0.10042531996E+03  0.24509900738E+03  0.16500000000E+03 0.  0.
   -5000001    1    1    2    0    0  0.12608384858E+03  0.82862184699E+02  0.30985295253E+03  0.38209570884E+03  0.16500000000E+03 0.  0.
<mgrwt>
<rscale>  0 0.47438903E+03</rscale>
<asrwt>0</asrwt>
<pdfrwt beam="1">  1        2 0.74105213E-01 0.47438903E+03</pdfrwt>
<pdfrwt beam="2">  1       -2 0.15494032E-01 0.47438903E+03</pdfrwt>
<totfact> 0.21209873E+03</totfact>
</mgrwt>
</event>
<event>
 4    1  0.5323640E-005  0.5375643E+03  0.7818608E-02  0.1004414E+00
         -2   -1    0    0    0  501 -0.00000000000E+00  0.00000000000E+00  0.26430519258E+03  0.26430519259E+03  0.25500000000E-02 0.  1.
          2   -1    0    0  501    0  0.00000000000E+00 -0.00000000000E+00 -0.27333498937E+03  0.27333498939E+03  0.25500000000E-02 0. -1.
    5000001    1    1    2    0    0  0.82270174381E+02  0.17470725308E+03  0.83405700033E+02  0.26734344329E+03  0.16500000000E+03 0.  0.
   -5000001    1    1    2    0    0 -0.82270174381E+02 -0.17470725308E+03 -0.92435496824E+02  0.27029673869E+03  0.16500000000E+03 0.  0.
<mgrwt>
<rscale>  0 0.53756435E+03</rscale>
<asrwt>0</asrwt>
<pdfrwt beam="1">  1        2 0.39047855E-01 0.53756435E+03</pdfrwt>
<pdfrwt beam="2">  1       -2 0.37757885E-01 0.53756435E+03</pdfrwt>
<totfact> 0.87848451E+02</totfact>
</mgrwt>
</event>
<event>
 4    1  0.5323640E-005  0.4796180E+03  0.7818608E-02  0.1019240E+00
          2   -1    0    0  501    0  0.00000000000E+00  0.00000000000E+00  0.10259904513E+04  0.10259904513E+04  0.25500000000E-02 0.  1.
         -2   -1    0    0    0  501 -0.00000000000E+00 -0.00000000000E+00 -0.56051542324E+02  0.56051542382E+02  0.25500000000E-02 0. -1.
    5000001    1    1    2    0    0  0.37828930685E+02  0.15261504878E+03  0.31673156874E+03  0.39021310556E+03  0.16500000000E+03 0.  0.
   -5000001    1    1    2    0    0 -0.37828930685E+02 -0.15261504878E+03  0.65320734026E+03  0.69182888816E+03  0.16500000000E+03 0.  0.
<mgrwt>
<rscale>  0 0.47961796E+03</rscale>
<asrwt>0</asrwt>
<pdfrwt beam="1">  1        2 0.14657005E+00 0.47961796E+03</pdfrwt>
<pdfrwt beam="2">  1       -2 0.80073638E-02 0.47961796E+03</pdfrwt>
<totfact> 0.26628505E+03</totfact>
</mgrwt>
</event>
<event>
 4    1  0.5323640E-005  0.6157726E+03  0.7818608E-02  0.9873213E-01
         -2   -1    0    0    0  501 -0.00000000000E+00  0.00000000000E+00  0.10934204956E+03  0.10934204959E+03  0.25500000000E-02 0. -1.
          2   -1    0    0  501    0  0.00000000000E+00 -0.00000000000E+00 -0.86694884663E+03  0.86694884663E+03  0.25500000000E-02 0.  1.
    5000001    1    1    2    0    0 -0.19296221909E+03 -0.17409530628E+03 -0.38678922822E+03  0.49434249335E+03  0.16500000000E+03 0.  0.
   -5000001    1    1    2    0    0  0.19296221909E+03  0.17409530628E+03 -0.37081756885E+03  0.48194840287E+03  0.16500000000E+03 0.  0.
<mgrwt>
<rscale>  0 0.61577257E+03</rscale>
<asrwt>0</asrwt>
<pdfrwt beam="1">  1        2 0.12384983E+00 0.61577257E+03</pdfrwt>
<pdfrwt beam="2">  1       -2 0.15620293E-01 0.61577257E+03</pdfrwt>
<totfact> 0.11220408E+03</totfact>
</mgrwt>
</event>
<event>
 4    1  0.5323640E-005  0.7068353E+03  0.7818608E-02  0.9705614E-01
         -2   -1    0    0    0  501 -0.00000000000E+00  0.00000000000E+00  0.83063910085E+02  0.83063910125E+02  0.25500000000E-02 0. -1.
          2   -1    0    0  501    0  0.00000000000E+00 -0.00000000000E+00 -0.15037101777E+04  0.15037101777E+04  0.25500000000E-02 0.  1.
    5000001    1    1    2    0    0 -0.12283508199E+03  0.60998243059E+02 -0.79870839087E+02  0.22894015366E+03  0.16500000000E+03 0.  0.
   -5000001    1    1    2    0    0  0.12283508199E+03 -0.60998243059E+02 -0.13407754285E+04  0.13578339342E+04  0.16500000000E+03 0.  0.
<mgrwt>
<rscale>  0 0.70683533E+03</rscale>
<asrwt>0</asrwt>
<pdfrwt beam="1">  1        2 0.21481572E+00 0.70683533E+03</pdfrwt>
<pdfrwt beam="2">  1       -2 0.11866274E-01 0.70683533E+03</pdfrwt>
<totfact> 0.76312810E+02</totfact>
</mgrwt>
</event>
<event>
 4    1  0.5323640E-005  0.5995031E+03  0.7818608E-02  0.9906438E-01
          2   -1    0    0  501    0  0.00000000000E+00  0.00000000000E+00  0.15178842381E+04  0.15178842381E+04  0.25500000000E-02 0.  1.
         -2   -1    0    0    0  501 -0.00000000000E+00 -0.00000000000E+00 -0.59194885310E+02  0.59194885365E+02  0.25500000000E-02 0. -1.
    5000001    1    1    2    0    0  0.18328371544E+03  0.15005652600E+03  0.94169650724E+03  0.98495035057E+03  0.16500000000E+03 0.  0.
   -5000001    1    1    2    0    0 -0.18328371544E+03 -0.15005652600E+03  0.51699284552E+03  0.59212877287E+03  0.16500000000E+03 0.  0.
<mgrwt>
<rscale>  0 0.59950307E+03</rscale>
<asrwt>0</asrwt>
<pdfrwt beam="1">  1        2 0.21684063E+00 0.59950307E+03</pdfrwt>
<pdfrwt beam="2">  1       -2 0.84564112E-02 0.59950307E+03</pdfrwt>
<totfact> 0.13065059E+03</totfact>
</mgrwt>
</event>
<event>
 4    1  0.5323640E-005  0.6756531E+03  0.7818608E-02  0.9759799E-01
          2   -1    0    0  501    0  0.00000000000E+00  0.00000000000E+00  0.17035039394E+04  0.17035039394E+04  0.25500000000E-02 0.  1.
         -2   -1    0    0    0  501 -0.00000000000E+00 -0.00000000000E+00 -0.66995319925E+02  0.66995319973E+02  0.25500000000E-02 0. -1.
    5000001    1    1    2    0    0 -0.19231288980E+03  0.22337990701E+03  0.80684386009E+03  0.87470271807E+03  0.16500000000E+03 0.  0.
   -5000001    1    1    2    0    0  0.19231288980E+03 -0.22337990701E+03  0.82966475937E+03  0.89579654129E+03  0.16500000000E+03 0.  0.
<mgrwt>
<rscale>  0 0.67565314E+03</rscale>
<asrwt>0</asrwt>
<pdfrwt beam="1">  1        2 0.24335769E+00 0.67565314E+03</pdfrwt>
<pdfrwt beam="2">  1       -2 0.95707606E-02 0.67565314E+03</pdfrwt>
<totfact> 0.85627304E+02</totfact>
</mgrwt>
</event>
<event>
 4    1  0.5323640E-005  0.6441945E+03  0.7818608E-02  0.9817734E-01
         -2   -1    0    0    0  501 -0.00000000000E+00  0.00000000000E+00  0.15675644465E+03  0.15675644467E+03  0.25500000000E-02 0. -1.
          2   -1    0    0  501    0  0.00000000000E+00 -0.00000000000E+00 -0.66183323899E+03  0.66183323900E+03  0.25500000000E-02 0.  1.
    5000001    1    1    2    0    0 -0.17619016438E+03 -0.21325669547E+03 -0.25315219051E+03  0.40967355754E+03  0.16500000000E+03 0.  0.
   -5000001    1    1    2    0    0  0.17619016438E+03  0.21325669547E+03 -0.25192460383E+03  0.40891612612E+03  0.16500000000E+03 0.  0.
<mgrwt>
<rscale>  0 0.64419446E+03</rscale>
<asrwt>0</asrwt>
<pdfrwt beam="1">  1        2 0.94547604E-01 0.64419446E+03</pdfrwt>
<pdfrwt beam="2">  1       -2 0.22393778E-01 0.64419446E+03</pdfrwt>
<totfact> 0.84486025E+02</totfact>
</mgrwt>
</event>
<event>
 4    1  0.5323640E-005  0.3644360E+03  0.7818608E-02  0.1056841E+00
         -2   -1    0    0    0  501 -0.00000000000E+00  0.00000000000E+00  0.51054191848E+02  0.51054191911E+02  0.25500000000E-02 0. -1.
          2   -1    0    0  501    0  0.00000000000E+00 -0.00000000000E+00 -0.65035593715E+03  0.65035593716E+03  0.25500000000E-02 0.  1.
    5000001    1    1    2    0    0  0.50856128357E+02 -0.58224701987E+02 -0.29697354191E+03  0.34841748853E+03  0.16500000000E+03 0.  0.
   -5000001    1    1    2    0    0 -0.50856128357E+02  0.58224701987E+02 -0.30232820339E+03  0.35299264055E+03  0.16500000000E+03 0.  0.
<mgrwt>
<rscale>  0 0.36443599E+03</rscale>
<asrwt>0</asrwt>
<pdfrwt beam="1">  1        2 0.92907986E-01 0.36443599E+03</pdfrwt>
<pdfrwt beam="2">  1       -2 0.72934564E-02 0.36443599E+03</pdfrwt>
<totfact> 0.55041463E+03</totfact>
</mgrwt>
</event>
<event>
 4    1  0.5323640E-005  0.4543355E+03  0.7818608E-02  0.1026437E+00
          2   -1    0    0  501    0  0.00000000000E+00  0.00000000000E+00  0.17657653461E+04  0.17657653461E+04  0.25500000000E-02 0.  1.
         -2   -1    0    0    0  501 -0.00000000000E+00 -0.00000000000E+00 -0.29225399127E+02  0.29225399238E+02  0.25500000000E-02 0. -1.
    5000001    1    1    2    0    0  0.55358900777E+02  0.13543039738E+03  0.65280814582E+03  0.68904969028E+03  0.16500000000E+03 0.  0.
   -5000001    1    1    2    0    0 -0.55358900777E+02 -0.13543039738E+03  0.10837318012E+04  0.11059410551E+04  0.16500000000E+03 0.  0.
<mgrwt>
<rscale>  0 0.45433555E+03</rscale>
<asrwt>0</asrwt>
<pdfrwt beam="1">  1        2 0.25225210E+00 0.45433555E+03</pdfrwt>
<pdfrwt beam="2">  1       -2 0.41750585E-02 0.45433555E+03</pdfrwt>
<totfact> 0.29540953E+03</totfact>
</mgrwt>
</event>
<event>
 4    1  0.5323640E-005  0.4648690E+03  0.7818608E-02  0.1023378E+00
         -2   -1    0    0    0  501 -0.00000000000E+00  0.00000000000E+00  0.11392746080E+03  0.11392746082E+03  0.25500000000E-02 0. -1.
          2   -1    0    0  501    0  0.00000000000E+00 -0.00000000000E+00 -0.47421214571E+03  0.47421214571E+03  0.25500000000E-02 0.  1.
    5000001    1    1    2    0    0 -0.15858932918E+03 -0.40584924257E+02 -0.18236063594E+03  0.29542869351E+03  0.16500000000E+03 0.  0.
   -5000001    1    1    2    0    0  0.15858932918E+03  0.40584924257E+02 -0.17792404897E+03  0.29271091303E+03  0.16500000000E+03 0.  0.
<mgrwt>
<rscale>  0 0.46486895E+03</rscale>
<asrwt>0</asrwt>
<pdfrwt beam="1">  1        2 0.67744591E-01 0.46486895E+03</pdfrwt>
<pdfrwt beam="2">  1       -2 0.16275352E-01 0.46486895E+03</pdfrwt>
<totfact> 0.21598312E+03</totfact>
</mgrwt>
</event>
<event>
 4    1  0.5323640E-005  0.3964120E+03  0.7818608E-02  0.1045029E+00
          2   -1    0    0  501    0  0.00000000000E+00  0.00000000000E+00  0.59416624106E+03  0.59416624106E+03  0.25500000000E-02 0.  1.
         -2   -1    0    0    0  501 -0.00000000000E+00 -0.00000000000E+00 -0.66118910982E+02  0.66118911031E+02  0.25500000000E-02 0. -1.
    5000001    1    1    2    0    0 -0.87855205677E+02  0.19269855789E+02  0.36898311341E+03  0.41408139597E+03  0.16500000000E+03 0.  0.
   -5000001    1    1    2    0    0  0.87855205677E+02 -0.19269855789E+02  0.15906421667E+03  0.24620375613E+03  0.16500000000E+03 0.  0.
<mgrwt>
<rscale>  0 0.39641203E+03</rscale>
<asrwt>0</asrwt>
<pdfrwt beam="1">  1        2 0.84880895E-01 0.39641203E+03</pdfrwt>
<pdfrwt beam="2">  1       -2 0.94455583E-02 0.39641203E+03</pdfrwt>
<totfact> 0.40714568E+03</totfact>
</mgrwt>
</event>
<event>
 4    1  0.5323640E-005  0.5019373E+03  0.7818608E-02  0.1013274E+00
         -2   -1    0    0    0  501 -0.00000000000E+00  0.00000000000E+00  0.89388140946E+02  0.89388140982E+02  0.25500000000E-02 0. -1.
          2   -1    0    0  501    0  0.00000000000E+00 -0.00000000000E+00 -0.70462673869E+03  0.70462673870E+03  0.25500000000E-02 0.  1.
    5000001    1    1    2    0    0 -0.26851302901E+02  0.18629968958E+03 -0.33643019335E+03  0.41933142239E+03  0.16500000000E+03 0.  0.
   -5000001    1    1    2    0    0  0.26851302901E+02 -0.18629968958E+03 -0.27880840440E+03  0.37468345729E+03  0.16500000000E+03 0.  0.
<mgrwt>
<rscale>  0 0.50193734E+03</rscale>
<asrwt>0</asrwt>
<pdfrwt beam="1">  1        2 0.10066096E+00 0.50193734E+03</pdfrwt>
<pdfrwt beam="2">  1       -2 0.12769735E-01 0.50193734E+03</pdfrwt>
<totfact> 0.20442003E+03</totfact>
</mgrwt>
</event>
<event>
 4    1  0.5323640E-005  0.3942775E+03  0.7818608E-02  0.1045779E+00
          2   -1    0    0  501    0  0.00000000000E+00  0.00000000000E+00  0.11900482527E+04  0.11900482527E+04  0.25500000000E-02 0.  1.
         -2   -1    0    0    0  501 -0.00000000000E+00 -0.00000000000E+00 -0.32657238845E+02  0.32657238945E+02  0.25500000000E-02 0. -1.
    5000001    1    1    2    0    0 -0.74024589652E+01  0.96772157508E+02  0.72477953343E+03  0.74963325629E+03  0.16500000000E+03 0.  0.
   -5000001    1    1    2    0    0  0.74024589652E+01 -0.96772157508E+02  0.43261148047E+03  0.47307223539E+03  0.16500000000E+03 0.  0.
<mgrwt>
<rscale>  0 0.39427752E+03</rscale>
<asrwt>0</asrwt>
<pdfrwt beam="1">  1        2 0.17000690E+00 0.39427752E+03</pdfrwt>
<pdfrwt beam="2">  1       -2 0.46653196E-02 0.39427752E+03</pdfrwt>
<totfact> 0.49647215E+03</totfact>
</mgrwt>
</event>
<event>
 4    1  0.5323640E-005  0.7079605E+03  0.7818608E-02  0.9703715E-01
         -2   -1    0    0    0  501 -0.00000000000E+00  0.00000000000E+00  0.41878146893E+02  0.41878146971E+02  0.25500000000E-02 0.  1.
          2   -1    0    0  501    0  0.00000000000E+00 -0.00000000000E+00 -0.29920618637E+04  0.29920618637E+04  0.25500000000E-02 0. -1.
    5000001    1    1    2    0    0  0.28573624460E+03 -0.10526322322E+03 -0.17885893505E+04  0.18218129466E+04  0.16500000000E+03 0.  0.
   -5000001    1    1    2    0    0 -0.28573624460E+03  0.10526322322E+03 -0.11615943662E+04  0.12121270640E+04  0.16500000000E+03 0.  0.
<mgrwt>
<rscale>  0 0.70796047E+03</rscale>
<asrwt>0</asrwt>
<pdfrwt beam="1">  1        2 0.42743727E+00 0.70796047E+03</pdfrwt>
<pdfrwt beam="2">  1       -2 0.59825943E-02 0.70796047E+03</pdfrwt>
<totfact> 0.39090863E+02</totfact>
</mgrwt>
</event>
<event>
 4    1  0.5323640E-005  0.7294671E+03  0.7818608E-02  0.9668125E-01
         -2   -1    0    0    0  501 -0.00000000000E+00  0.00000000000E+00  0.62905055498E+03  0.62905055498E+03  0.25500000000E-02 0. -1.
          2   -1    0    0  501    0  0.00000000000E+00 -0.00000000000E+00 -0.21147835523E+03  0.21147835525E+03  0.25500000000E-02 0.  1.
    5000001    1    1    2    0    0  0.19191065125E+03 -0.18541724036E+03 -0.55335106100E+01  0.31379112611E+03  0.16500000000E+03 0.  0.
   -5000001    1    1    2    0    0 -0.19191065125E+03  0.18541724036E+03  0.42310571036E+03  0.52673778412E+03  0.16500000000E+03 0.  0.
<mgrwt>
<rscale>  0 0.72946714E+03</rscale>
<asrwt>0</asrwt>
<pdfrwt beam="1">  1        2 0.30211193E-01 0.72946714E+03</pdfrwt>
<pdfrwt beam="2">  1       -2 0.89864366E-01 0.72946714E+03</pdfrwt>
<totfact> 0.18895425E+02</totfact>
</mgrwt>
</event>
<event>
 4    1  0.5323640E-005  0.7116028E+03  0.7818608E-02  0.9697593E-01
         -2   -1    0    0    0  501 -0.00000000000E+00  0.00000000000E+00  0.19036737788E+03  0.19036737790E+03  0.25500000000E-02 0. -1.
          2   -1    0    0  501    0  0.00000000000E+00 -0.00000000000E+00 -0.66500164264E+03  0.66500164265E+03  0.25500000000E-02 0.  1.
    5000001    1    1    2    0    0  0.19106950057E+03 -0.24778036941E+03 -0.19127832437E+03  0.40213811420E+03  0.16500000000E+03 0.  0.
   -5000001    1    1    2    0    0 -0.19106950057E+03  0.24778036941E+03 -0.28335594039E+03  0.45323090635E+03  0.16500000000E+03 0.  0.
<mgrwt>
<rscale>  0 0.71160275E+03</rscale>
<asrwt>0</asrwt>
<pdfrwt beam="1">  1        2 0.95000233E-01 0.71160275E+03</pdfrwt>
<pdfrwt beam="2">  1       -2 0.27195340E-01 0.71160275E+03</pdfrwt>
<totfact> 0.59158720E+02</totfact>
</mgrwt>
</event>
<event>
 4    1  0.5323640E-005  0.8737711E+03  0.7818608E-02  0.9458976E-01
         -2   -1    0    0    0  501 -0.00000000000E+00  0.00000000000E+00  0.59255800503E+03  0.59255800504E+03  0.25500000000E-02 0. -1.
          2   -1    0    0  501    0  0.00000000000E+00 -0.00000000000E+00 -0.32211023552E+03  0.32211023553E+03  0.25500000000E-02 0.  1.
    5000001    1    1    2    0    0  0.20980937171E+03  0.33025424745E+03  0.24277597388E+03  0.48913496492E+03  0.16500000000E+03 0.  0.
   -5000001    1    1    2    0    0 -0.20980937171E+03 -0.33025424745E+03  0.27671795629E+02  0.42553327565E+03  0.16500000000E+03 0.  0.
<mgrwt>
<rscale>  0 0.87377113E+03</rscale>
<asrwt>0</asrwt>
<pdfrwt beam="1">  1        2 0.46015748E-01 0.87377113E+03</pdfrwt>
<pdfrwt beam="2">  1       -2 0.84651143E-01 0.87377113E+03</pdfrwt>
<totfact> 0.13464799E+02</totfact>
</mgrwt>
</event>
<event>
 4    1  0.5323640E-005  0.3970290E+03  0.7818608E-02  0.1044813E+00
         -2   -1    0    0    0  501 -0.00000000000E+00  0.00000000000E+00  0.33460329083E+02  0.33460329181E+02  0.25500000000E-02 0. -1.
          2   -1    0    0  501    0  0.00000000000E+00 -0.00000000000E+00 -0.11777528338E+04  0.11777528338E+04  0.25500000000E-02 0.  1.
    5000001    1    1    2    0    0  0.47448314654E+02  0.97703233590E+02 -0.63206211611E+03  0.66221203782E+03  0.16500000000E+03 0.  0.
   -5000001    1    1    2    0    0 -0.47448314654E+02 -0.97703233590E+02 -0.51223038865E+03  0.54900112520E+03  0.16500000000E+03 0.  0.
<mgrwt>
<rscale>  0 0.39702895E+03</rscale>
<asrwt>0</asrwt>
<pdfrwt beam="1">  1        2 0.16825038E+00 0.39702895E+03</pdfrwt>
<pdfrwt beam="2">  1       -2 0.47800477E-02 0.39702895E+03</pdfrwt>
<totfact> 0.48594627E+03</totfact>
</mgrwt>
</event>
<event>
 4    1  0.5323640E-005  0.5470241E+03  0.7818608E-02  0.1002185E+00
         -2   -1    0    0    0  501 -0.00000000000E+00  0.00000000000E+00  0.23657362975E+02  0.23657363112E+02  0.25500000000E-02 0. -1.
          2   -1    0    0  501    0  0.00000000000E+00 -0.00000000000E+00 -0.31621801566E+04  0.31621801566E+04  0.25500000000E-02 0.  1.
    5000001    1    1    2    0    0 -0.18640055558E+03  0.68558000501E+02 -0.10438630079E+04  0.10753233681E+04  0.16500000000E+03 0.  0.
   -5000001    1    1    2    0    0  0.18640055558E+03 -0.68558000501E+02 -0.20946597857E+04  0.21105141516E+04  0.16500000000E+03 0.  0.
<mgrwt>
<rscale>  0 0.54702411E+03</rscale>
<asrwt>0</asrwt>
<pdfrwt beam="1">  1        2 0.45173976E+00 0.54702411E+03</pdfrwt>
<pdfrwt beam="2">  1       -2 0.33796253E-02 0.54702411E+03</pdfrwt>
<totfact> 0.77380350E+02</totfact>
</mgrwt>
</event>
<event>
 4    1  0.5323640E-005  0.9628317E+03  0.7818608E-02  0.9350277E-01
          2   -1    0    0  501    0  0.00000000000E+00  0.00000000000E+00  0.15341490637E+04  0.15341490637E+04  0.25500000000E-02 0.  1.
         -2   -1    0    0    0  501 -0.00000000000E+00 -0.00000000000E+00 -0.15106823905E+03  0.15106823907E+03  0.25500000000E-02 0. -1.
    5000001    1    1    2    0    0  0.31306859883E+03 -0.12808532183E+03  0.12169672934E+04  0.12738336588E+04  0.16500000000E+03 0.  0.
   -5000001    1    1    2    0    0 -0.31306859883E+03  0.12808532183E+03  0.16611353131E+03  0.41138364397E+03  0.16500000000E+03 0.  0.
<mgrwt>
<rscale>  0 0.96283165E+03</rscale>
<asrwt>0</asrwt>
<pdfrwt beam="1">  1        2 0.21916416E+00 0.96283165E+03</pdfrwt>
<pdfrwt beam="2">  1       -2 0.21581176E-01 0.96283165E+03</pdfrwt>
<totfact> 0.26138734E+02</totfact>
</mgrwt>
</event>
<event>
 4    1  0.5323640E-005  0.5163928E+03  0.7818608E-02  0.1009587E+00
         -2   -1    0    0    0  501 -0.00000000000E+00  0.00000000000E+00  0.37178267127E+02  0.37178267215E+02  0.25500000000E-02 0. -1.
          2   -1    0    0  501    0  0.00000000000E+00 -0.00000000000E+00 -0.17931276022E+04  0.17931276022E+04  0.25500000000E-02 0.  1.
    5000001    1    1    2    0    0  0.90179101997E+02  0.87748355281E+02 -0.14225728228E+04  0.14376266833E+04  0.16500000000E+03 0.  0.
   -5000001    1    1    2    0    0 -0.90179101997E+02 -0.87748355281E+02 -0.33337651225E+03  0.39267918612E+03  0.16500000000E+03 0.  0.
<mgrwt>
<rscale>  0 0.51639278E+03</rscale>
<asrwt>0</asrwt>
<pdfrwt beam="1">  1        2 0.25616103E+00 0.51639278E+03</pdfrwt>
<pdfrwt beam="2">  1       -2 0.53111821E-02 0.51639278E+03</pdfrwt>
<totfact> 0.19724332E+03</totfact>
</mgrwt>
</event>
<event>
 4    1  0.5323640E-005  0.4107377E+03  0.7818608E-02  0.1040124E+00
          2   -1    0    0  501    0  0.00000000000E+00  0.00000000000E+00  0.42260396723E+03  0.42260396724E+03  0.25500000000E-02 0.  1.
         -2   -1    0    0    0  501 -0.00000000000E+00 -0.00000000000E+00 -0.99801161798E+02  0.99801161830E+02  0.25500000000E-02 0. -1.
    5000001    1    1    2    0    0 -0.10872647273E+03 -0.42647740724E+02  0.20745454990E+03  0.28965956904E+03  0.16500000000E+03 0.  0.
   -5000001    1    1    2    0    0  0.10872647273E+03  0.42647740724E+02  0.11534825553E+03  0.23274556003E+03  0.16500000000E+03 0.  0.
<mgrwt>
<rscale>  0 0.41073771E+03</rscale>
<asrwt>0</asrwt>
<pdfrwt beam="1">  1        2 0.60371996E-01 0.41073771E+03</pdfrwt>
<pdfrwt beam="2">  1       -2 0.14257309E-01 0.41073771E+03</pdfrwt>
<totfact> 0.30591219E+03</totfact>
</mgrwt>
</event>
<event>
 4    1  0.5323640E-005  0.5053627E+03  0.7818608E-02  0.1012389E+00
          2   -1    0    0  501    0  0.00000000000E+00  0.00000000000E+00  0.81903615813E+03  0.81903615813E+03  0.25500000000E-02 0.  1.
         -2   -1    0    0    0  501 -0.00000000000E+00 -0.00000000000E+00 -0.77954876376E+02  0.77954876418E+02  0.25500000000E-02 0. -1.
    5000001    1    1    2    0    0 -0.17053764999E+03  0.85918782726E+02  0.34824863149E+03  0.43007817501E+03  0.16500000000E+03 0.  0.
   -5000001    1    1    2    0    0  0.17053764999E+03 -0.85918782726E+02  0.39283265026E+03  0.46691285954E+03  0.16500000000E+03 0.  0.
<mgrwt>
<rscale>  0 0.50536269E+03</rscale>
<asrwt>0</asrwt>
<pdfrwt beam="1">  1        2 0.11700517E+00 0.50536269E+03</pdfrwt>
<pdfrwt beam="2">  1       -2 0.11136410E-01 0.50536269E+03</pdfrwt>
<totfact> 0.21202538E+03</totfact>
</mgrwt>
</event>
<event>
 4    1  0.5323640E-005  0.3844013E+03  0.7818608E-02  0.1049319E+00
         -2   -1    0    0    0  501 -0.00000000000E+00  0.00000000000E+00  0.46556673077E+02  0.46556673147E+02  0.25500000000E-02 0. -1.
          2   -1    0    0  501    0  0.00000000000E+00 -0.00000000000E+00 -0.79346517263E+03  0.79346517264E+03  0.25500000000E-02 0.  1.
    5000001    1    1    2    0    0 -0.57912226460E+02  0.77573452468E+02 -0.33288625063E+03  0.38393973793E+03  0.16500000000E+03 0.  0.
   -5000001    1    1    2    0    0  0.57912226460E+02 -0.77573452468E+02 -0.41402224893E+03  0.45608210786E+03  0.16500000000E+03 0.  0.
<mgrwt>
<rscale>  0 0.38440135E+03</rscale>
<asrwt>0</asrwt>
<pdfrwt beam="1">  1        2 0.11335216E+00 0.38440135E+03</pdfrwt>
<pdfrwt beam="2">  1       -2 0.66509538E-02 0.38440135E+03</pdfrwt>
<totfact> 0.50000320E+03</totfact>
</mgrwt>
</event>
<event>
 4    1  0.5323640E-005  0.4567459E+03  0.7818608E-02  0.1025729E+00
          2   -1    0    0  501    0  0.00000000000E+00  0.00000000000E+00  0.37905509127E+02  0.37905509212E+02  0.25500000000E-02 0. -1.
         -2   -1    0    0    0  501 -0.00000000000E+00 -0.00000000000E+00 -0.13759006543E+04  0.13759006543E+04  0.25500000000E-02 0.  1.
    5000001    1    1    2    0    0 -0.15299788501E+03 -0.34885405213E+02 -0.61503912076E+03  0.65583798638E+03  0.16500000000E+03 0.  0.
   -5000001    1    1    2    0    0  0.15299788501E+03  0.34885405213E+02 -0.72295602439E+03  0.75796817711E+03  0.16500000000E+03 0.  0.
<mgrwt>
<rscale>  0 0.45674595E+03</rscale>
<asrwt>0</asrwt>
<pdfrwt beam="1">  1        2 0.54150736E-02 0.45674595E+03</pdfrwt>
<pdfrwt beam="2">  1       -2 0.19655720E+00 0.45674595E+03</pdfrwt>
<totfact> 0.21388205E+02</totfact>
</mgrwt>
</event>
<event>
 4    1  0.5323640E-005  0.5589146E+03  0.7818608E-02  0.9994514E-01
          2   -1    0    0  501    0  0.00000000000E+00  0.00000000000E+00  0.47036817249E+04  0.47036817249E+04  0.25500000000E-02 0.  1.
         -2   -1    0    0    0  501 -0.00000000000E+00 -0.00000000000E+00 -0.16603243138E+02  0.16603243334E+02  0.25500000000E-02 0. -1.
    5000001    1    1    2    0    0 -0.20782180218E+03 -0.86962331016E+02  0.22514012363E+04  0.22686526564E+04  0.16500000000E+03 0.  0.
   -5000001    1    1    2    0    0  0.20782180218E+03  0.86962331016E+02  0.24356772455E+04  0.24516323118E+04  0.16500000000E+03 0.  0.
<mgrwt>
<rscale>  0 0.55891456E+03</rscale>
<asrwt>0</asrwt>
<pdfrwt beam="1">  1        2 0.67195527E+00 0.55891456E+03</pdfrwt>
<pdfrwt beam="2">  1       -2 0.23718893E-02 0.55891456E+03</pdfrwt>
<totfact> 0.12380238E+02</totfact>
</mgrwt>
</event>
<event>
 4    1  0.5323640E-005  0.5226844E+03  0.7818608E-02  0.1008022E+00
          2   -1    0    0  501    0  0.00000000000E+00  0.00000000000E+00  0.28410858876E+04  0.28410858876E+04  0.25500000000E-02 0.  1.
         -2   -1    0    0    0  501 -0.00000000000E+00 -0.00000000000E+00 -0.24040013035E+02  0.24040013171E+02  0.25500000000E-02 0. -1.
    5000001    1    1    2    0    0 -0.30914170585E+02 -0.11979022715E+03  0.52857702352E+03  0.56738351603E+03  0.16500000000E+03 0.  0.
   -5000001    1    1    2    0    0  0.30914170585E+02  0.11979022715E+03  0.22884688511E+04  0.22977423848E+04  0.16500000000E+03 0.  0.
<mgrwt>
<rscale>  0 0.52268439E+03</rscale>
<asrwt>0</asrwt>
<pdfrwt beam="1">  1        2 0.40586920E+00 0.52268439E+03</pdfrwt>
<pdfrwt beam="2">  1       -2 0.34342894E-02 0.52268439E+03</pdfrwt>
<totfact> 0.11303520E+03</totfact>
</mgrwt>
</event>
<event>
 4    1  0.5323640E-005  0.4721346E+03  0.7818608E-02  0.1021319E+00
          2   -1    0    0  501    0  0.00000000000E+00  0.00000000000E+00  0.37474542250E+03  0.37474542251E+03  0.25500000000E-02 0.  1.
         -2   -1    0    0    0  501 -0.00000000000E+00 -0.00000000000E+00 -0.14870833014E+03  0.14870833017E+03  0.25500000000E-02 0. -1.
    5000001    1    1    2    0    0  0.95046263497E+02 -0.12991758193E+03  0.16944666365E+03  0.28609358979E+03  0.16500000000E+03 0.  0.
   -5000001    1    1    2    0    0 -0.95046263497E+02  0.12991758193E+03  0.56590428706E+02  0.23736016288E+03  0.16500000000E+03 0.  0.
<mgrwt>
<rscale>  0 0.47213458E+03</rscale>
<asrwt>0</asrwt>
<pdfrwt beam="1">  1        2 0.53535060E-01 0.47213458E+03</pdfrwt>
<pdfrwt beam="2">  1       -2 0.21244047E-01 0.47213458E+03</pdfrwt>
<totfact> 0.17747416E+03</totfact>
</mgrwt>
</event>
<event>
 4    1  0.5323640E-005  0.4471706E+03  0.7818608E-02  0.1028569E+00
         -2   -1    0    0    0  501 -0.00000000000E+00  0.00000000000E+00  0.10717418895E+03  0.10717418898E+03  0.25500000000E-02 0. -1.
          2   -1    0    0  501    0  0.00000000000E+00 -0.00000000000E+00 -0.46644043466E+03  0.46644043466E+03  0.25500000000E-02 0.  1.
    5000001    1    1    2    0    0 -0.88464375636E+02  0.88260643023E+02 -0.71169400671E+02  0.21887432571E+03  0.16500000000E+03 0.  0.
   -5000001    1    1    2    0    0  0.88464375636E+02 -0.88260643023E+02 -0.28809684503E+03  0.35474029794E+03  0.16500000000E+03 0.  0.
<mgrwt>
<rscale>  0 0.44717055E+03</rscale>
<asrwt>0</asrwt>
<pdfrwt beam="1">  1        2 0.66634347E-01 0.44717055E+03</pdfrwt>
<pdfrwt beam="2">  1       -2 0.15310599E-01 0.44717055E+03</pdfrwt>
<totfact> 0.24373872E+03</totfact>
</mgrwt>
</event>
<event>
 4    1  0.5323640E-005  0.4534200E+03  0.7818608E-02  0.1026707E+00
          2   -1    0    0  501    0  0.00000000000E+00  0.00000000000E+00  0.11663735394E+04  0.11663735394E+04  0.25500000000E-02 0.  1.
         -2   -1    0    0    0  501 -0.00000000000E+00 -0.00000000000E+00 -0.44066004472E+02  0.44066004546E+02  0.25500000000E-02 0. -1.
    5000001    1    1    2    0    0  0.69601533833E+02 -0.99442426234E+02  0.30178885016E+03  0.36473919412E+03  0.16500000000E+03 0.  0.
   -5000001    1    1    2    0    0 -0.69601533833E+02  0.99442426234E+02  0.82051868478E+03  0.84570034984E+03  0.16500000000E+03 0.  0.
<mgrwt>
<rscale>  0 0.45341999E+03</rscale>
<asrwt>0</asrwt>
<pdfrwt beam="1">  1        2 0.16662478E+00 0.45341999E+03</pdfrwt>
<pdfrwt beam="2">  1       -2 0.62951440E-02 0.45341999E+03</pdfrwt>
<totfact> 0.32248151E+03</totfact>
</mgrwt>
</event>
<event>
 4    1  0.5323640E-005  0.7594376E+03  0.7818608E-02  0.9620660E-01
         -2   -1    0    0    0  501 -0.00000000000E+00  0.00000000000E+00  0.15215681270E+03  0.15215681272E+03  0.25500000000E-02 0. -1.
          2   -1    0    0  501    0  0.00000000000E+00 -0.00000000000E+00 -0.94761687110E+03  0.94761687110E+03  0.25500000000E-02 0.  1.
    5000001    1    1    2    0    0  0.33146342525E+03 -0.84064925834E+02 -0.39028247297E+03  0.54450006680E+03  0.16500000000E+03 0.  0.
   -5000001    1    1    2    0    0 -0.33146342525E+03  0.84064925834E+02 -0.40517758543E+03  0.55527361703E+03  0.16500000000E+03 0.  0.
<mgrwt>
<rscale>  0 0.75943759E+03</rscale>
<asrwt>0</asrwt>
<pdfrwt beam="1">  1        2 0.13537384E+00 0.75943759E+03</pdfrwt>
<pdfrwt beam="2">  1       -2 0.21736688E-01 0.75943759E+03</pdfrwt>
<totfact> 0.55983668E+02</totfact>
</mgrwt>
</event>
<event>
 4    1  0.5323640E-005  0.4902150E+03  0.7818608E-02  0.1016365E+00
          2   -1    0    0  501    0  0.00000000000E+00  0.00000000000E+00  0.15010802129E+03  0.15010802131E+03  0.25500000000E-02 0.  1.
         -2   -1    0    0    0  501 -0.00000000000E+00 -0.00000000000E+00 -0.40022964837E+03  0.40022964838E+03  0.25500000000E-02 0. -1.
    5000001    1    1    2    0    0 -0.15371034260E+03 -0.95540789854E+02 -0.11396031592E+03  0.27012379672E+03  0.16500000000E+03 0.  0.
   -5000001    1    1    2    0    0  0.15371034260E+03  0.95540789854E+02 -0.13616131117E+03  0.28021387297E+03  0.16500000000E+03 0.  0.
<mgrwt>
<rscale>  0 0.49021498E+03</rscale>
<asrwt>0</asrwt>
<pdfrwt beam="1">  1        2 0.21444003E-01 0.49021498E+03</pdfrwt>
<pdfrwt beam="2">  1       -2 0.57175664E-01 0.49021498E+03</pdfrwt>
<totfact> 0.75438380E+02</totfact>
</mgrwt>
</event>
<event>
 4    1  0.5323640E-005  0.1546115E+04  0.7818608E-02  0.8854353E-01
          2   -1    0    0  501    0  0.00000000000E+00  0.00000000000E+00  0.17743931825E+04  0.17743931825E+04  0.25500000000E-02 0.  1.
         -2   -1    0    0    0  501 -0.00000000000E+00 -0.00000000000E+00 -0.33680124664E+03  0.33680124665E+03  0.25500000000E-02 0. -1.
    5000001    1    1    2    0    0 -0.36733944671E+03  0.64535850160E+03  0.90685121369E+03  0.11836511262E+04  0.16500000000E+03 0.  0.
   -5000001    1    1    2    0    0  0.36733944671E+03 -0.64535850160E+03  0.53074072213E+03  0.92754330294E+03  0.16500000000E+03 0.  0.
<mgrwt>
<rscale>  0 0.15461149E+04</rscale>
<asrwt>0</asrwt>
<pdfrwt beam="1">  1        2 0.25348474E+00 0.15461149E+04</pdfrwt>
<pdfrwt beam="2">  1       -2 0.48114464E-01 0.15461149E+04</pdfrwt>
<totfact> 0.41406815E+01</totfact>
</mgrwt>
</event>
<event>
 4    1  0.5323640E-005  0.8939741E+03  0.7818608E-02  0.9433146E-01
         -2   -1    0    0    0  501 -0.00000000000E+00  0.00000000000E+00  0.74216789472E+03  0.74216789473E+03  0.25500000000E-02 0. -1.
          2   -1    0    0  501    0  0.00000000000E+00 -0.00000000000E+00 -0.26920784612E+03  0.26920784613E+03  0.25500000000E-02 0.  1.
    5000001    1    1    2    0    0  0.18598687271E+03  0.36875835675E+03  0.28705645078E+03  0.52933944537E+03  0.16500000000E+03 0.  0.
   -5000001    1    1    2    0    0 -0.18598687271E+03 -0.36875835675E+03  0.18590359782E+03  0.48203629549E+03  0.16500000000E+03 0.  0.
<mgrwt>
<rscale>  0 0.89397409E+03</rscale>
<asrwt>0</asrwt>
<pdfrwt beam="1">  1        2 0.38458263E-01 0.89397409E+03</pdfrwt>
<pdfrwt beam="2">  1       -2 0.10602399E+00 0.89397409E+03</pdfrwt>
<totfact> 0.97004408E+01</totfact>
</mgrwt>
</event>
<event>
 4    1  0.5323640E-005  0.4860751E+03  0.7818608E-02  0.1017479E+00
         -2   -1    0    0    0  501 -0.00000000000E+00  0.00000000000E+00  0.33130174917E+02  0.33130175015E+02  0.25500000000E-02 0. -1.
          2   -1    0    0  501    0  0.00000000000E+00 -0.00000000000E+00 -0.17828838664E+04  0.17828838664E+04  0.25500000000E-02 0.  1.
    5000001    1    1    2    0    0 -0.11069071792E+03  0.10327417325E+03 -0.12278177811E+04  0.12480703079E+04  0.16500000000E+03 0.  0.
   -5000001    1    1    2    0    0  0.11069071792E+03 -0.10327417325E+03 -0.52193591046E+03  0.56794373359E+03  0.16500000000E+03 0.  0.
<mgrwt>
<rscale>  0 0.48607512E+03</rscale>
<asrwt>0</asrwt>
<pdfrwt beam="1">  1        2 0.25469763E+00 0.48607512E+03</pdfrwt>
<pdfrwt beam="2">  1       -2 0.47328833E-02 0.48607512E+03</pdfrwt>
<totfact> 0.23874350E+03</totfact>
</mgrwt>
</event>
<event>
 4    1  0.5323640E-005  0.5103059E+03  0.7818608E-02  0.1011123E+00
         -2   -1    0    0    0  501 -0.00000000000E+00  0.00000000000E+00  0.75811511459E+02  0.75811511502E+02  0.25500000000E-02 0. -1.
          2   -1    0    0  501    0  0.00000000000E+00 -0.00000000000E+00 -0.85874844083E+03  0.85874844084E+03  0.25500000000E-02 0.  1.
    5000001    1    1    2    0    0  0.36136099779E+02 -0.18591720001E+03 -0.47351300466E+03  0.53601360855E+03  0.16500000000E+03 0.  0.
   -5000001    1    1    2    0    0 -0.36136099779E+02  0.18591720001E+03 -0.30942392471E+03  0.39854634379E+03  0.16500000000E+03 0.  0.
<mgrwt>
<rscale>  0 0.51030586E+03</rscale>
<asrwt>0</asrwt>
<pdfrwt beam="1">  1        2 0.12267834E+00 0.51030586E+03</pdfrwt>
<pdfrwt beam="2">  1       -2 0.10830216E-01 0.51030586E+03</pdfrwt>
<totfact> 0.20869598E+03</totfact>
</mgrwt>
</event>
<event>
 4    1  0.5323640E-005  0.3705498E+03  0.7818608E-02  0.1054483E+00
          2   -1    0    0  501    0  0.00000000000E+00  0.00000000000E+00  0.18163753544E+03  0.18163753545E+03  0.25500000000E-02 0.  1.
         -2   -1    0    0    0  501 -0.00000000000E+00 -0.00000000000E+00 -0.18898506385E+03  0.18898506387E+03  0.25500000000E-02 0. -1.
    5000001    1    1    2    0    0 -0.81778860118E+02  0.55798840035E+01 -0.23244525696E+02  0.18569928660E+03  0.16500000000E+03 0.  0.
   -5000001    1    1    2    0    0  0.81778860118E+02 -0.55798840035E+01  0.15896997278E+02  0.18492331273E+03  0.16500000000E+03 0.  0.
<mgrwt>
<rscale>  0 0.37054976E+03</rscale>
<asrwt>0</asrwt>
<pdfrwt beam="1">  1        2 0.25948219E-01 0.37054976E+03</pdfrwt>
<pdfrwt beam="2">  1       -2 0.26997866E-01 0.37054976E+03</pdfrwt>
<totfact> 0.25701851E+03</totfact>
</mgrwt>
</event>
<event>
 4    1  0.5323640E-005  0.4478036E+03  0.7818608E-02  0.1028379E+00
          2   -1    0    0  501    0  0.00000000000E+00  0.00000000000E+00  0.44476334031E+03  0.44476334032E+03  0.25500000000E-02 0.  1.
         -2   -1    0    0    0  501 -0.00000000000E+00 -0.00000000000E+00 -0.11271614101E+03  0.11271614104E+03  0.25500000000E-02 0. -1.
    5000001    1    1    2    0    0  0.14307032161E+03  0.49295810404E+02  0.16950348867E+03  0.28081244011E+03  0.16500000000E+03 0.  0.
   -5000001    1    1    2    0    0 -0.14307032161E+03 -0.49295810404E+02  0.16254371063E+03  0.27666704125E+03  0.16500000000E+03 0.  0.
<mgrwt>
<rscale>  0 0.44780356E+03</rscale>
<asrwt>0</asrwt>
<pdfrwt beam="1">  1        2 0.63537621E-01 0.44780356E+03</pdfrwt>
<pdfrwt beam="2">  1       -2 0.16102306E-01 0.44780356E+03</pdfrwt>
<totfact> 0.23612585E+03</totfact>
</mgrwt>
</event>
<event>
 4    1  0.5323640E-005  0.3745671E+03  0.7818608E-02  0.1052960E+00
          2   -1    0    0  501    0  0.00000000000E+00  0.00000000000E+00  0.50145585077E+02  0.50145585142E+02  0.25500000000E-02 0.  1.
         -2   -1    0    0    0  501 -0.00000000000E+00 -0.00000000000E+00 -0.69946595618E+03  0.69946595618E+03  0.25500000000E-02 0. -1.
    5000001    1    1    2    0    0  0.32802696784E+02  0.79359689908E+02 -0.36832982322E+03  0.41263281010E+03  0.16500000000E+03 0.  0.
   -5000001    1    1    2    0    0 -0.32802696784E+02 -0.79359689908E+02 -0.28099054788E+03  0.33697873122E+03  0.16500000000E+03 0.  0.
<mgrwt>
<rscale>  0 0.37456711E+03</rscale>
<asrwt>0</asrwt>
<pdfrwt beam="1">  1        2 0.71636555E-02 0.37456711E+03</pdfrwt>
<pdfrwt beam="2">  1       -2 0.99923702E-01 0.37456711E+03</pdfrwt>
<totfact> 0.84821620E+02</totfact>
</mgrwt>
</event>
<event>
 4    1  0.5323640E-005  0.1001168E+04  0.7818608E-02  0.9307265E-01
          2   -1    0    0  501    0  0.00000000000E+00  0.00000000000E+00  0.41273839516E+03  0.41273839517E+03  0.25500000000E-02 0.  1.
         -2   -1    0    0    0  501 -0.00000000000E+00 -0.00000000000E+00 -0.60712578502E+03  0.60712578503E+03  0.25500000000E-02 0. -1.
    5000001    1    1    2    0    0  0.46989312374E+03 -0.49618513557E+02 -0.10725630225E+03  0.51185003565E+03  0.16500000000E+03 0.  0.
   -5000001    1    1    2    0    0 -0.46989312374E+03  0.49618513557E+02 -0.87131087618E+02  0.50801414454E+03  0.16500000000E+03 0.  0.
<mgrwt>
<rscale>  0 0.10011676E+04</rscale>
<asrwt>0</asrwt>
<pdfrwt beam="1">  1        2 0.58962628E-01 0.10011676E+04</pdfrwt>
<pdfrwt beam="2">  1       -2 0.86732255E-01 0.10011676E+04</pdfrwt>
<totfact> 0.95990227E+01</totfact>
</mgrwt>
</event>
<event>
 4    1  0.5323640E-005  0.6114547E+03  0.7818608E-02  0.9881922E-01
          2   -1    0    0  501    0  0.00000000000E+00  0.00000000000E+00  0.79242283307E+02  0.79242283348E+02  0.25500000000E-02 0.  1.
         -2   -1    0    0    0  501 -0.00000000000E+00 -0.00000000000E+00 -0.11795370046E+04  0.11795370046E+04  0.25500000000E-02 0. -1.
    5000001    1    1    2    0    0  0.20819408402E+03  0.14746745993E+03 -0.62004427417E+03  0.69048629985E+03  0.16500000000E+03 0.  0.
   -5000001    1    1    2    0    0 -0.20819408402E+03 -0.14746745993E+03 -0.48025044714E+03  0.56829298811E+03  0.16500000000E+03 0.  0.
<mgrwt>
<rscale>  0 0.61145468E+03</rscale>
<asrwt>0</asrwt>
<pdfrwt beam="1">  1        2 0.11320327E-01 0.61145468E+03</pdfrwt>
<pdfrwt beam="2">  1       -2 0.16850528E+00 0.61145468E+03</pdfrwt>
<totfact> 0.12642658E+02</totfact>
</mgrwt>
</event>
<event>
 4    1  0.5323640E-005  0.4348474E+03  0.7818608E-02  0.1032340E+00
          2   -1    0    0  501    0  0.00000000000E+00  0.00000000000E+00  0.11739857991E+04  0.11739857991E+04  0.25500000000E-02 0.  1.
         -2   -1    0    0    0  501 -0.00000000000E+00 -0.00000000000E+00 -0.40267153944E+02  0.40267154025E+02  0.25500000000E-02 0. -1.
    5000001    1    1    2    0    0 -0.12226377489E+03 -0.50206343583E+02  0.70866529838E+03  0.73952729004E+03  0.16500000000E+03 0.  0.
   -5000001    1    1    2    0    0  0.12226377489E+03  0.50206343583E+02  0.42505334677E+03  0.47472566308E+03  0.16500000000E+03 0.  0.
<mgrwt>
<rscale>  0 0.43484741E+03</rscale>
<asrwt>0</asrwt>
<pdfrwt beam="1">  1        2 0.16771225E+00 0.43484741E+03</pdfrwt>
<pdfrwt beam="2">  1       -2 0.57524509E-02 0.43484741E+03</pdfrwt>
<totfact> 0.36733097E+03</totfact>
</mgrwt>
</event>
<event>
 4    1  0.5323640E-005  0.3888639E+03  0.7818608E-02  0.1047705E+00
          2   -1    0    0  501    0  0.00000000000E+00  0.00000000000E+00  0.88549245485E+03  0.88549245485E+03  0.25500000000E-02 0.  1.
         -2   -1    0    0    0  501 -0.00000000000E+00 -0.00000000000E+00 -0.42692392279E+02  0.42692392355E+02  0.25500000000E-02 0. -1.
    5000001    1    1    2    0    0 -0.45852432549E+02  0.44180103978E+02  0.61420100540E+03  0.63915741581E+03  0.16500000000E+03 0.  0.
   -5000001    1    1    2    0    0  0.45852432549E+02 -0.44180103978E+02  0.22859905718E+03  0.28902743140E+03  0.16500000000E+03 0.  0.
<mgrwt>
<rscale>  0 0.38886394E+03</rscale>
<asrwt>0</asrwt>
<pdfrwt beam="1">  1        2 0.12649892E+00 0.38886394E+03</pdfrwt>
<pdfrwt beam="2">  1       -2 0.60989133E-02 0.38886394E+03</pdfrwt>
<totfact> 0.49730428E+03</totfact>
</mgrwt>
</event>
<event>
 4    1  0.5323640E-005  0.4542179E+03  0.7818608E-02  0.1026472E+00
         -2   -1    0    0    0  501 -0.00000000000E+00  0.00000000000E+00  0.80206944552E+02  0.80206944592E+02  0.25500000000E-02 0. -1.
          2   -1    0    0  501    0  0.00000000000E+00 -0.00000000000E+00 -0.64306743300E+03  0.64306743300E+03  0.25500000000E-02 0.  1.
    5000001    1    1    2    0    0  0.69861489942E+02 -0.13740499445E+03 -0.24266332262E+03  0.33146832190E+03  0.16500000000E+03 0.  0.
   -5000001    1    1    2    0    0 -0.69861489942E+02  0.13740499445E+03 -0.32019716583E+03  0.39180605570E+03  0.16500000000E+03 0.  0.
<mgrwt>
<rscale>  0 0.45421789E+03</rscale>
<asrwt>0</asrwt>
<pdfrwt beam="1">  1        2 0.91866773E-01 0.45421789E+03</pdfrwt>
<pdfrwt beam="2">  1       -2 0.11458135E-01 0.45421789E+03</pdfrwt>
<totfact> 0.27231120E+03</totfact>
</mgrwt>
</event>
<event>
 4    1  0.5323640E-005  0.6443409E+03  0.7818608E-02  0.9817456E-01
          2   -1    0    0  501    0  0.00000000000E+00  0.00000000000E+00  0.17499903542E+04  0.17499903542E+04  0.25500000000E-02 0.  1.
         -2   -1    0    0    0  501 -0.00000000000E+00 -0.00000000000E+00 -0.59311065767E+02  0.59311065822E+02  0.25500000000E-02 0. -1.
    5000001    1    1    2    0    0 -0.58381073289E+02 -0.23749069179E+03  0.12088479128E+04  0.12443265064E+04  0.16500000000E+03 0.  0.
   -5000001    1    1    2    0    0  0.58381073289E+02  0.23749069179E+03  0.48183137560E+03  0.56497491353E+03  0.16500000000E+03 0.  0.
<mgrwt>
<rscale>  0 0.64434088E+03</rscale>
<asrwt>0</asrwt>
<pdfrwt beam="1">  1        2 0.24999863E+00 0.64434088E+03</pdfrwt>
<pdfrwt beam="2">  1       -2 0.84730091E-02 0.64434088E+03</pdfrwt>
<totfact> 0.98819168E+02</totfact>
</mgrwt>
</event>
<event>
 4    1  0.5323640E-005  0.4242444E+03  0.7818608E-02  0.1035694E+00
          2   -1    0    0  501    0  0.00000000000E+00  0.00000000000E+00  0.13917680972E+04  0.13917680972E+04  0.25500000000E-02 0.  1.
         -2   -1    0    0    0  501 -0.00000000000E+00 -0.00000000000E+00 -0.32329973862E+02  0.32329973962E+02  0.25500000000E-02 0. -1.
    5000001    1    1    2    0    0 -0.70023367223E+02  0.10970277399E+03  0.77659338193E+03  0.80452486067E+03  0.16500000000E+03 0.  0.
   -5000001    1    1    2    0    0  0.70023367223E+02 -0.10970277399E+03  0.58284474143E+03  0.61957321051E+03  0.16500000000E+03 0.  0.
<mgrwt>
<rscale>  0 0.42424439E+03</rscale>
<asrwt>0</asrwt>
<pdfrwt beam="1">  1        2 0.19882404E+00 0.42424439E+03</pdfrwt>
<pdfrwt beam="2">  1       -2 0.46185670E-02 0.42424439E+03</pdfrwt>
<totfact> 0.39294285E+03</totfact>
</mgrwt>
</event>
<event>
 4    1  0.5323640E-005  0.6991769E+03  0.7818608E-02  0.9718641E-01
          2   -1    0    0  501    0  0.00000000000E+00  0.00000000000E+00  0.13532721240E+04  0.13532721240E+04  0.25500000000E-02 0.  1.
         -2   -1    0    0    0  501 -0.00000000000E+00 -0.00000000000E+00 -0.90308574817E+02  0.90308574853E+02  0.25500000000E-02 0. -1.
    5000001    1    1    2    0    0  0.94009642594E+02 -0.11785230976E+03  0.11864949323E+04  0.12073616709E+04  0.16500000000E+03 0.  0.
   -5000001    1    1    2    0    0 -0.94009642594E+02  0.11785230976E+03  0.76468616828E+02  0.23621902797E+03  0.16500000000E+03 0.  0.
<mgrwt>
<rscale>  0 0.69917688E+03</rscale>
<asrwt>0</asrwt>
<pdfrwt beam="1">  1        2 0.19332459E+00 0.69917688E+03</pdfrwt>
<pdfrwt beam="2">  1       -2 0.12901225E-01 0.69917688E+03</pdfrwt>
<totfact> 0.79894218E+02</totfact>
</mgrwt>
</event>
<event>
 4    1  0.5323640E-005  0.6536000E+03  0.7818608E-02  0.9800047E-01
         -2   -1    0    0    0  501 -0.00000000000E+00  0.00000000000E+00  0.12326033460E+03  0.12326033462E+03  0.25500000000E-02 0. -1.
          2   -1    0    0  501    0  0.00000000000E+00 -0.00000000000E+00 -0.86644449130E+03  0.86644449130E+03  0.25500000000E-02 0.  1.
    5000001    1    1    2    0    0  0.33466537796E+02  0.25528427012E+03 -0.54611180229E+03  0.62590188394E+03  0.16500000000E+03 0.  0.
   -5000001    1    1    2    0    0 -0.33466537796E+02 -0.25528427012E+03 -0.19707235441E+03  0.36380294198E+03  0.16500000000E+03 0.  0.
<mgrwt>
<rscale>  0 0.65359999E+03</rscale>
<asrwt>0</asrwt>
<pdfrwt beam="1">  1        2 0.12377778E+00 0.65359999E+03</pdfrwt>
<pdfrwt beam="2">  1       -2 0.17608620E-01 0.65359999E+03</pdfrwt>
<totfact> 0.91475230E+02</totfact>
</mgrwt>
</event>
<event>
 4    1  0.5323640E-005  0.3632259E+03  0.7818608E-02  0.1057314E+00
          2   -1    0    0  501    0  0.00000000000E+00  0.00000000000E+00  0.25962206142E+03  0.25962206143E+03  0.25500000000E-02 0.  1.
         -2   -1    0    0    0  501 -0.00000000000E+00 -0.00000000000E+00 -0.12704340845E+03  0.12704340847E+03  0.25500000000E-02 0. -1.
    5000001    1    1    2    0    0 -0.72080330716E+02  0.23693267273E+02  0.67515437238E+02  0.19375313999E+03  0.16500000000E+03 0.  0.
   -5000001    1    1    2    0    0  0.72080330716E+02 -0.23693267273E+02  0.65063215733E+02  0.19291232991E+03  0.16500000000E+03 0.  0.
<mgrwt>
<rscale>  0 0.36322594E+03</rscale>
<asrwt>0</asrwt>
<pdfrwt beam="1">  1        2 0.37088865E-01 0.36322594E+03</pdfrwt>
<pdfrwt beam="2">  1       -2 0.18149059E-01 0.36322594E+03</pdfrwt>
<totfact> 0.34632920E+03</totfact>
</mgrwt>
</event>
<event>
 4    1  0.5323640E-005  0.5909097E+03  0.7818608E-02  0.9924447E-01
          2   -1    0    0  501    0  0.00000000000E+00  0.00000000000E+00  0.54770389271E+03  0.54770389272E+03  0.25500000000E-02 0.  1.
         -2   -1    0    0    0  501 -0.00000000000E+00 -0.00000000000E+00 -0.15938094664E+03  0.15938094666E+03  0.25500000000E-02 0. -1.
    5000001    1    1    2    0    0 -0.97140469063E+02  0.20539042340E+03  0.84184081626E+02  0.29314408804E+03  0.16500000000E+03 0.  0.
   -5000001    1    1    2    0    0  0.97140469063E+02 -0.20539042340E+03  0.30413886445E+03  0.41394075134E+03  0.16500000000E+03 0.  0.
<mgrwt>
<rscale>  0 0.59090969E+03</rscale>
<asrwt>0</asrwt>
<pdfrwt beam="1">  1        2 0.78243414E-01 0.59090969E+03</pdfrwt>
<pdfrwt beam="2">  1       -2 0.22768706E-01 0.59090969E+03</pdfrwt>
<totfact> 0.10264708E+03</totfact>
</mgrwt>
</event>
<event>
 4    1  0.5323640E-005  0.3695388E+03  0.7818608E-02  0.1054869E+00
         -2   -1    0    0    0  501 -0.00000000000E+00  0.00000000000E+00  0.16408625786E+02  0.16408625985E+02  0.25500000000E-02 0. -1.
          2   -1    0    0  501    0  0.00000000000E+00 -0.00000000000E+00 -0.20805967521E+04  0.20805967521E+04  0.25500000000E-02 0.  1.
    5000001    1    1    2    0    0  0.80196562050E+02  0.73778160629E+01 -0.91458443515E+03  0.93283203727E+03  0.16500000000E+03 0.  0.
   -5000001    1    1    2    0    0 -0.80196562050E+02 -0.73778160629E+01 -0.11496036911E+04  0.11641733408E+04  0.16500000000E+03 0.  0.
<mgrwt>
<rscale>  0 0.36953881E+03</rscale>
<asrwt>0</asrwt>
<pdfrwt beam="1">  1        2 0.29722794E+00 0.36953881E+03</pdfrwt>
<pdfrwt beam="2">  1       -2 0.23440907E-02 0.36953881E+03</pdfrwt>
<totfact> 0.49315081E+03</totfact>
</mgrwt>
</event>
<event>
 4    1  0.5323640E-005  0.4004004E+03  0.7818608E-02  0.1043641E+00
          2   -1    0    0  501    0  0.00000000000E+00  0.00000000000E+00  0.20918220152E+04  0.20918220152E+04  0.25500000000E-02 0. -1.
         -2   -1    0    0    0  501 -0.00000000000E+00 -0.00000000000E+00 -0.19160383832E+02  0.19160384002E+02  0.25500000000E-02 0.  1.
    5000001    1    1    2    0    0 -0.91534008282E+02 -0.33860640824E+02  0.13405723308E+04  0.13542098035E+04  0.16500000000E+03 0.  0.
   -5000001    1    1    2    0    0  0.91534008282E+02  0.33860640824E+02  0.73208930056E+03  0.75677259574E+03  0.16500000000E+03 0.  0.
<mgrwt>
<rscale>  0 0.40040036E+03</rscale>
<asrwt>0</asrwt>
<pdfrwt beam="1">  1        2 0.29883151E+00 0.40040036E+03</pdfrwt>
<pdfrwt beam="2">  1       -2 0.27371996E-02 0.40040036E+03</pdfrwt>
<totfact> 0.38593593E+03</totfact>
</mgrwt>
</event>
<event>
 4    1  0.5323640E-005  0.3720432E+03  0.7818608E-02  0.1053914E+00
         -2   -1    0    0    0  501 -0.00000000000E+00  0.00000000000E+00  0.19997049798E+03  0.19997049800E+03  0.25500000000E-02 0.  1.
          2   -1    0    0  501    0  0.00000000000E+00 -0.00000000000E+00 -0.17304570985E+03  0.17304570987E+03  0.25500000000E-02 0. -1.
    5000001    1    1    2    0    0 -0.44865785087E+02 -0.49118881967E+02  0.67950025031E+02  0.19044109099E+03  0.16500000000E+03 0.  0.
   -5000001    1    1    2    0    0  0.44865785087E+02  0.49118881967E+02 -0.41025236899E+02  0.18257511687E+03  0.16500000000E+03 0.  0.
<mgrwt>
<rscale>  0 0.37204321E+03</rscale>
<asrwt>0</asrwt>
<pdfrwt beam="1">  1        2 0.24720816E-01 0.37204321E+03</pdfrwt>
<pdfrwt beam="2">  1       -2 0.28567214E-01 0.37204321E+03</pdfrwt>
<totfact> 0.24512453E+03</totfact>
</mgrwt>
</event>
<event>
 4    1  0.5323640E-005  0.9942064E+03  0.7818608E-02  0.9314922E-01
          2   -1    0    0  501    0  0.00000000000E+00  0.00000000000E+00  0.49970808313E+03  0.49970808314E+03  0.25500000000E-02 0.  1.
         -2   -1    0    0    0  501 -0.00000000000E+00 -0.00000000000E+00 -0.49451192930E+03  0.49451192931E+03  0.25500000000E-02 0. -1.
    5000001    1    1    2    0    0  0.24162072140E+03  0.25375722201E+03  0.31423241434E+03  0.49873872013E+03  0.16500000000E+03 0.  0.
   -5000001    1    1    2    0    0 -0.24162072140E+03 -0.25375722201E+03 -0.30903626051E+03  0.49548129232E+03  0.16500000000E+03 0.  0.
<mgrwt>
<rscale>  0 0.99420643E+03</rscale>
<asrwt>0</asrwt>
<pdfrwt beam="1">  1        2 0.71386869E-01 0.99420643E+03</pdfrwt>
<pdfrwt beam="2">  1       -2 0.70644561E-01 0.99420643E+03</pdfrwt>
<totfact> 0.12236749E+02</totfact>
</mgrwt>
</event>
<event>
 4    1  0.5323640E-005  0.9210153E+03  0.7818608E-02  0.9399686E-01
         -2   -1    0    0    0  501 -0.00000000000E+00  0.00000000000E+00  0.61664072658E+02  0.61664072711E+02  0.25500000000E-02 0. -1.
          2   -1    0    0  501    0  0.00000000000E+00 -0.00000000000E+00 -0.34390735530E+04  0.34390735530E+04  0.25500000000E-02 0.  1.
    5000001    1    1    2    0    0 -0.42041249225E+03 -0.59115723620E+02 -0.14308848331E+04  0.15016316919E+04  0.16500000000E+03 0.  0.
   -5000001    1    1    2    0    0  0.42041249225E+03  0.59115723620E+02 -0.19465246473E+04  0.19991059339E+04  0.16500000000E+03 0.  0.
<mgrwt>
<rscale>  0 0.92101527E+03</rscale>
<asrwt>0</asrwt>
<pdfrwt beam="1">  1        2 0.49129610E+00 0.92101527E+03</pdfrwt>
<pdfrwt beam="2">  1       -2 0.88091554E-02 0.92101527E+03</pdfrwt>
<totfact> 0.11502558E+02</totfact>
</mgrwt>
</event>
<event>
 4    1  0.5323640E-005  0.4226535E+03  0.7818608E-02  0.1036206E+00
          2   -1    0    0  501    0  0.00000000000E+00  0.00000000000E+00  0.37097696472E+04  0.37097696472E+04  0.25500000000E-02 0.  1.
         -2   -1    0    0    0  501 -0.00000000000E+00 -0.00000000000E+00 -0.12038213538E+02  0.12038213808E+02  0.25500000000E-02 0. -1.
    5000001    1    1    2    0    0  0.10430560602E+02  0.89378338510E+02  0.99798922486E+03  0.10155317705E+04  0.16500000000E+03 0.  0.
   -5000001    1    1    2    0    0 -0.10430560602E+02 -0.89378338510E+02  0.26997422088E+04  0.27062760905E+04  0.16500000000E+03 0.  0.
<mgrwt>
<rscale>  0 0.42265352E+03</rscale>
<asrwt>0</asrwt>
<pdfrwt beam="1">  1        2 0.52996692E+00 0.42265352E+03</pdfrwt>
<pdfrwt beam="2">  1       -2 0.17197454E-02 0.42265352E+03</pdfrwt>
<totfact> 0.10382867E+03</totfact>
</mgrwt>
</event>
<event>
 4    1  0.5323640E-005  0.4310142E+03  0.7818608E-02  0.1033540E+00
          2   -1    0    0  501    0  0.00000000000E+00  0.00000000000E+00  0.13583479820E+04  0.13583479820E+04  0.25500000000E-02 0.  1.
         -2   -1    0    0    0  501 -0.00000000000E+00 -0.00000000000E+00 -0.34191023920E+02  0.34191024015E+02  0.25500000000E-02 0. -1.
    5000001    1    1    2    0    0 -0.45664869923E+02 -0.12181333585E+03  0.81684019860E+03  0.84343149051E+03  0.16500000000E+03 0.  0.
   -5000001    1    1    2    0    0  0.45664869923E+02  0.12181333585E+03  0.50731675948E+03  0.54910751550E+03  0.16500000000E+03 0.  0.
<mgrwt>
<rscale>  0 0.43101419E+03</rscale>
<asrwt>0</asrwt>
<pdfrwt beam="1">  1        2 0.19404972E+00 0.43101419E+03</pdfrwt>
<pdfrwt beam="2">  1       -2 0.48844317E-02 0.43101419E+03</pdfrwt>
<totfact> 0.37553163E+03</totfact>
</mgrwt>
</event>
<event>
 4    1  0.5323640E-005  0.5340697E+03  0.7818608E-02  0.1005250E+00
         -2   -1    0    0    0  501 -0.00000000000E+00  0.00000000000E+00  0.85746502721E+02  0.85746502759E+02  0.25500000000E-02 0. -1.
          2   -1    0    0  501    0  0.00000000000E+00 -0.00000000000E+00 -0.83160943506E+03  0.83160943507E+03  0.25500000000E-02 0.  1.
    5000001    1    1    2    0    0  0.14396495498E+03 -0.13495094971E+03 -0.49613689837E+03  0.55885104367E+03  0.16500000000E+03 0.  0.
   -5000001    1    1    2    0    0 -0.14396495498E+03  0.13495094971E+03 -0.24972603397E+03  0.35850489415E+03  0.16500000000E+03 0.  0.
<mgrwt>
<rscale>  0 0.53406966E+03</rscale>
<asrwt>0</asrwt>
<pdfrwt beam="1">  1        2 0.11880134E+00 0.53406966E+03</pdfrwt>
<pdfrwt beam="2">  1       -2 0.12249501E-01 0.53406966E+03</pdfrwt>
<totfact> 0.17788042E+03</totfact>
</mgrwt>
</event>
<event>
 4    1  0.5323640E-005  0.5424103E+03  0.7818608E-02  0.1003266E+00
          2   -1    0    0  501    0  0.00000000000E+00  0.00000000000E+00  0.18761941814E+03  0.18761941815E+03  0.25500000000E-02 0.  1.
         -2   -1    0    0    0  501 -0.00000000000E+00 -0.00000000000E+00 -0.39202882888E+03  0.39202882889E+03  0.25500000000E-02 0. -1.
    5000001    1    1    2    0    0 -0.17211175092E+03  0.78155728230E+02  0.78014012252E+01  0.25103114253E+03  0.16500000000E+03 0.  0.
   -5000001    1    1    2    0    0  0.17211175092E+03 -0.78155728230E+02 -0.21221081197E+03  0.32861710451E+03  0.16500000000E+03 0.  0.
<mgrwt>
<rscale>  0 0.54241025E+03</rscale>
<asrwt>0</asrwt>
<pdfrwt beam="1">  1        2 0.26802774E-01 0.54241025E+03</pdfrwt>
<pdfrwt beam="2">  1       -2 0.56004118E-01 0.54241025E+03</pdfrwt>
<totfact> 0.60990922E+02</totfact>
</mgrwt>
</event>
<event>
 4    1  0.5323640E-005  0.6307198E+03  0.7818608E-02  0.9843645E-01
         -2   -1    0    0    0  501 -0.00000000000E+00  0.00000000000E+00  0.71446626151E+02  0.71446626197E+02  0.25500000000E-02 0. -1.
          2   -1    0    0  501    0  0.00000000000E+00 -0.00000000000E+00 -0.13919741987E+04  0.13919741987E+04  0.25500000000E-02 0.  1.
    5000001    1    1    2    0    0 -0.10058389754E+03  0.24386668281E+03 -0.54107526350E+03  0.62415985148E+03  0.16500000000E+03 0.  0.
   -5000001    1    1    2    0    0  0.10058389754E+03 -0.24386668281E+03 -0.77945230908E+03  0.83926097345E+03  0.16500000000E+03 0.  0.
<mgrwt>
<rscale>  0 0.63071978E+03</rscale>
<asrwt>0</asrwt>
<pdfrwt beam="1">  1        2 0.19885344E+00 0.63071978E+03</pdfrwt>
<pdfrwt beam="2">  1       -2 0.10206662E-01 0.63071978E+03</pdfrwt>
<totfact> 0.11223077E+03</totfact>
</mgrwt>
</event>
<event>
 4    1  0.5323640E-005  0.4103528E+03  0.7818608E-02  0.1040253E+00
          2   -1    0    0  501    0  0.00000000000E+00  0.00000000000E+00  0.54336404271E+03  0.54336404272E+03  0.25500000000E-02 0.  1.
         -2   -1    0    0    0  501 -0.00000000000E+00 -0.00000000000E+00 -0.77475409053E+02  0.77475409095E+02  0.25500000000E-02 0. -1.
    5000001    1    1    2    0    0 -0.82103107170E+02  0.84359533025E+02  0.18474580258E+03  0.27425072942E+03  0.16500000000E+03 0.  0.
   -5000001    1    1    2    0    0  0.82103107170E+02 -0.84359533025E+02  0.28114283108E+03  0.34658872239E+03  0.16500000000E+03 0.  0.
<mgrwt>
<rscale>  0 0.41035278E+03</rscale>
<asrwt>0</asrwt>
<pdfrwt beam="1">  1        2 0.77623440E-01 0.41035278E+03</pdfrwt>
<pdfrwt beam="2">  1       -2 0.11067915E-01 0.41035278E+03</pdfrwt>
<totfact> 0.34980452E+03</totfact>
</mgrwt>
</event>
<event>
 4    1  0.5323640E-005  0.4130245E+03  0.7818608E-02  0.1039361E+00
         -2   -1    0    0    0  501 -0.00000000000E+00  0.00000000000E+00  0.23740654555E+04  0.23740654555E+04  0.25500000000E-02 0. -1.
          2   -1    0    0  501    0  0.00000000000E+00 -0.00000000000E+00 -0.17963826250E+02  0.17963826431E+02  0.25500000000E-02 0.  1.
    5000001    1    1    2    0    0  0.11531834426E+03 -0.24941159359E+02  0.95360382604E+03  0.97493878731E+03  0.16500000000E+03 0.  0.
   -5000001    1    1    2    0    0 -0.11531834426E+03  0.24941159359E+02  0.14024978032E+04  0.14170904946E+04  0.16500000000E+03 0.  0.
<mgrwt>
<rscale>  0 0.41302445E+03</rscale>
<asrwt>0</asrwt>
<pdfrwt beam="1">  1        2 0.25662615E-02 0.41302445E+03</pdfrwt>
<pdfrwt beam="2">  1       -2 0.33915213E+00 0.41302445E+03</pdfrwt>
<totfact> 0.82027630E+01</totfact>
</mgrwt>
</event>
<event>
 4    1  0.5323640E-005  0.6123105E+03  0.7818608E-02  0.9880190E-01
          2   -1    0    0  501    0  0.00000000000E+00  0.00000000000E+00  0.12569034233E+04  0.12569034233E+04  0.25500000000E-02 0.  1.
         -2   -1    0    0    0  501 -0.00000000000E+00 -0.00000000000E+00 -0.74572978296E+02  0.74572978340E+02  0.25500000000E-02 0. -1.
    5000001    1    1    2    0    0 -0.96113663035E+02  0.17194051359E+03  0.95310653322E+03  0.98713648504E+03  0.16500000000E+03 0.  0.
   -5000001    1    1    2    0    0  0.96113663035E+02 -0.17194051359E+03  0.22922391181E+03  0.34433991663E+03  0.16500000000E+03 0.  0.
<mgrwt>
<rscale>  0 0.61231048E+03</rscale>
<asrwt>0</asrwt>
<pdfrwt beam="1">  1        2 0.17955762E+00 0.61231048E+03</pdfrwt>
<pdfrwt beam="2">  1       -2 0.10653283E-01 0.61231048E+03</pdfrwt>
<totfact> 0.12394486E+03</totfact>
</mgrwt>
</event>
<event>
 4    1  0.5323640E-005  0.4935049E+03  0.7818608E-02  0.1015488E+00
          2   -1    0    0  501    0  0.00000000000E+00  0.00000000000E+00  0.40085829452E+04  0.40085829452E+04  0.25500000000E-02 0.  1.
         -2   -1    0    0    0  501 -0.00000000000E+00 -0.00000000000E+00 -0.15189099807E+02  0.15189100021E+02  0.25500000000E-02 0. -1.
    5000001    1    1    2    0    0 -0.14208500276E+03  0.11283061329E+03  0.17744689191E+04  0.17913357698E+04  0.16500000000E+03 0.  0.
   -5000001    1    1    2    0    0  0.14208500276E+03 -0.11283061329E+03  0.22189249263E+04  0.22324362754E+04  0.16500000000E+03 0.  0.
<mgrwt>
<rscale>  0 0.49350488E+03</rscale>
<asrwt>0</asrwt>
<pdfrwt beam="1">  1        2 0.57265407E+00 0.49350488E+03</pdfrwt>
<pdfrwt beam="2">  1       -2 0.21698738E-02 0.49350488E+03</pdfrwt>
<totfact> 0.46802253E+02</totfact>
</mgrwt>
</event>
<event>
 4    1  0.5323640E-005  0.3601344E+03  0.7818608E-02  0.1058531E+00
         -2   -1    0    0    0  501 -0.00000000000E+00  0.00000000000E+00  0.26985112925E+03  0.26985112926E+03  0.25500000000E-02 0.  1.
          2   -1    0    0  501    0  0.00000000000E+00 -0.00000000000E+00 -0.12015586211E+03  0.12015586214E+03  0.25500000000E-02 0. -1.
    5000001    1    1    2    0    0  0.39658874524E+02  0.40355179198E+02  0.26443007242E+02  0.17642448653E+03  0.16500000000E+03 0.  0.
   -5000001    1    1    2    0    0 -0.39658874524E+02 -0.40355179198E+02  0.12325225990E+03  0.21358250487E+03  0.16500000000E+03 0.  0.
<mgrwt>
<rscale>  0 0.36013439E+03</rscale>
<asrwt>0</asrwt>
<pdfrwt beam="1">  1        2 0.17165123E-01 0.36013439E+03</pdfrwt>
<pdfrwt beam="2">  1       -2 0.38550162E-01 0.36013439E+03</pdfrwt>
<totfact> 0.21356930E+03</totfact>
</mgrwt>
</event>
<event>
 4    1  0.5323640E-005  0.6261196E+03  0.7818608E-02  0.9852651E-01
         -2   -1    0    0    0  501 -0.00000000000E+00  0.00000000000E+00  0.78496813253E+02  0.78496813295E+02  0.25500000000E-02 0. -1.
          2   -1    0    0  501    0  0.00000000000E+00 -0.00000000000E+00 -0.12485402947E+04  0.12485402947E+04  0.25500000000E-02 0.  1.
    5000001    1    1    2    0    0  0.25762390792E+03 -0.36225286036E+02 -0.70301101459E+03  0.76754924006E+03  0.16500000000E+03 0.  0.
   -5000001    1    1    2    0    0 -0.25762390792E+03  0.36225286036E+02 -0.46703246689E+03  0.55948786797E+03  0.16500000000E+03 0.  0.
<mgrwt>
<rscale>  0 0.62611959E+03</rscale>
<asrwt>0</asrwt>
<pdfrwt beam="1">  1        2 0.17836289E+00 0.62611959E+03</pdfrwt>
<pdfrwt beam="2">  1       -2 0.11213831E-01 0.62611959E+03</pdfrwt>
<totfact> 0.11515235E+03</totfact>
</mgrwt>
</event>
<event>
 4    1  0.5323640E-005  0.8072265E+03  0.7818608E-02  0.9549616E-01
         -2   -1    0    0    0  501 -0.00000000000E+00  0.00000000000E+00  0.97681549571E+02  0.97681549604E+02  0.25500000000E-02 0. -1.
          2   -1    0    0  501    0  0.00000000000E+00 -0.00000000000E+00 -0.16677014368E+04  0.16677014368E+04  0.25500000000E-02 0.  1.
    5000001    1    1    2    0    0  0.24289973997E+03 -0.22543997045E+03 -0.43335442117E+03  0.56995132977E+03  0.16500000000E+03 0.  0.
   -5000001    1    1    2    0    0 -0.24289973997E+03  0.22543997045E+03 -0.11366654660E+04  0.11954316566E+04  0.16500000000E+03 0.  0.
<mgrwt>
<rscale>  0 0.80722651E+03</rscale>
<asrwt>0</asrwt>
<pdfrwt beam="1">  1        2 0.23824304E+00 0.80722651E+03</pdfrwt>
<pdfrwt beam="2">  1       -2 0.13954508E-01 0.80722651E+03</pdfrwt>
<totfact> 0.47646320E+02</totfact>
</mgrwt>
</event>
<event>
 4    1  0.5323640E-005  0.5460630E+03  0.7818608E-02  0.1002409E+00
         -2   -1    0    0    0  501 -0.00000000000E+00  0.00000000000E+00  0.45647630777E+02  0.45647630848E+02  0.25500000000E-02 0. -1.
          2   -1    0    0  501    0  0.00000000000E+00 -0.00000000000E+00 -0.16330794959E+04  0.16330794959E+04  0.25500000000E-02 0.  1.
    5000001    1    1    2    0    0 -0.42649784853E-01 -0.20762321868E+03 -0.59415539860E+03  0.65065585407E+03  0.16500000000E+03 0.  0.
   -5000001    1    1    2    0    0  0.42649784853E-01  0.20762321868E+03 -0.99327646653E+03  0.10280712727E+04  0.16500000000E+03 0.  0.
<mgrwt>
<rscale>  0 0.54606304E+03</rscale>
<asrwt>0</asrwt>
<pdfrwt beam="1">  1        2 0.23329703E+00 0.54606304E+03</pdfrwt>
<pdfrwt beam="2">  1       -2 0.65210911E-02 0.54606304E+03</pdfrwt>
<totfact> 0.17238138E+03</totfact>
</mgrwt>
</event>
<event>
 4    1  0.5323640E-005  0.5738662E+03  0.7818608E-02  0.9961159E-01
          2   -1    0    0  501    0  0.00000000000E+00  0.00000000000E+00  0.26596556240E+04  0.26596556240E+04  0.25500000000E-02 0.  1.
         -2   -1    0    0    0  501 -0.00000000000E+00 -0.00000000000E+00 -0.30955367726E+02  0.30955367831E+02  0.25500000000E-02 0. -1.
    5000001    1    1    2    0    0 -0.87172156157E+02  0.21634137519E+03  0.11900329786E+04  0.12238488736E+04  0.16500000000E+03 0.  0.
   -5000001    1    1    2    0    0  0.87172156157E+02 -0.21634137519E+03  0.14386672777E+04  0.14667621182E+04  0.16500000000E+03 0.  0.
<mgrwt>
<rscale>  0 0.57386625E+03</rscale>
<asrwt>0</asrwt>
<pdfrwt beam="1">  1        2 0.37995100E+00 0.57386625E+03</pdfrwt>
<pdfrwt beam="2">  1       -2 0.44221931E-02 0.57386625E+03</pdfrwt>
<totfact> 0.95160310E+02</totfact>
</mgrwt>
</event>
<event>
 4    1  0.5323640E-005  0.4801659E+03  0.7818608E-02  0.1019090E+00
         -2   -1    0    0    0  501 -0.00000000000E+00  0.00000000000E+00  0.45872904721E+02  0.45872904792E+02  0.25500000000E-02 0. -1.
          2   -1    0    0  501    0  0.00000000000E+00 -0.00000000000E+00 -0.12565111094E+04  0.12565111094E+04  0.25500000000E-02 0.  1.
    5000001    1    1    2    0    0 -0.88485157371E+02 -0.96196460314E+02 -0.29214475458E+03  0.36007907421E+03  0.16500000000E+03 0.  0.
   -5000001    1    1    2    0    0  0.88485157371E+02  0.96196460314E+02 -0.91849345006E+03  0.94230493995E+03  0.16500000000E+03 0.  0.
<mgrwt>
<rscale>  0 0.48016586E+03</rscale>
<asrwt>0</asrwt>
<pdfrwt beam="1">  1        2 0.17950157E+00 0.48016586E+03</pdfrwt>
<pdfrwt beam="2">  1       -2 0.65532729E-02 0.48016586E+03</pdfrwt>
<totfact> 0.27000406E+03</totfact>
</mgrwt>
</event>
<event>
 4    1  0.5323640E-005  0.1294345E+04  0.7818608E-02  0.9034062E-01
         -2   -1    0    0    0  501 -0.00000000000E+00  0.00000000000E+00  0.18861623594E+03  0.18861623596E+03  0.25500000000E-02 0. -1.
          2   -1    0    0  501    0  0.00000000000E+00 -0.00000000000E+00 -0.22205528364E+04  0.22205528364E+04  0.25500000000E-02 0.  1.
    5000001    1    1    2    0    0  0.16938309101E+03  0.54807376756E+03 -0.55052394718E+03  0.81202038313E+03  0.16500000000E+03 0.  0.
   -5000001    1    1    2    0    0 -0.16938309101E+03 -0.54807376756E+03 -0.14814126533E+04  0.15971486893E+04  0.16500000000E+03 0.  0.
<mgrwt>
<rscale>  0 0.12943451E+04</rscale>
<asrwt>0</asrwt>
<pdfrwt beam="1">  1        2 0.31722182E+00 0.12943451E+04</pdfrwt>
<pdfrwt beam="2">  1       -2 0.26945178E-01 0.12943451E+04</pdfrwt>
<totfact> 0.75842224E+01</totfact>
</mgrwt>
</event>
<event>
 4    1  0.5323640E-005  0.3764418E+03  0.7818608E-02  0.1052257E+00
          2   -1    0    0  501    0  0.00000000000E+00  0.00000000000E+00  0.12683305442E+04  0.12683305442E+04  0.25500000000E-02 0.  1.
         -2   -1    0    0    0  501 -0.00000000000E+00 -0.00000000000E+00 -0.27932078222E+02  0.27932078339E+02  0.25500000000E-02 0. -1.
    5000001    1    1    2    0    0 -0.35982797508E+02  0.44282832238E+02  0.37801896059E+03  0.41638811885E+03  0.16500000000E+03 0.  0.
   -5000001    1    1    2    0    0  0.35982797508E+02 -0.44282832238E+02  0.86237950539E+03  0.87987450370E+03  0.16500000000E+03 0.  0.
<mgrwt>
<rscale>  0 0.37644180E+03</rscale>
<asrwt>0</asrwt>
<pdfrwt beam="1">  1        2 0.18119013E+00 0.37644180E+03</pdfrwt>
<pdfrwt beam="2">  1       -2 0.39902957E-02 0.37644180E+03</pdfrwt>
<totfact> 0.57067297E+03</totfact>
</mgrwt>
</event>
<event>
 4    1  0.5323640E-005  0.1085900E+04  0.7818608E-02  0.9219044E-01
          2   -1    0    0  501    0  0.00000000000E+00  0.00000000000E+00  0.19983049624E+04  0.19983049624E+04  0.25500000000E-02 0. -1.
         -2   -1    0    0    0  501 -0.00000000000E+00 -0.00000000000E+00 -0.14752251020E+03  0.14752251022E+03  0.25500000000E-02 0.  1.
    5000001    1    1    2    0    0  0.26837046139E+03 -0.37890394676E+03  0.13759163150E+04  0.14614929392E+04  0.16500000000E+03 0.  0.
   -5000001    1    1    2    0    0 -0.26837046139E+03  0.37890394676E+03  0.47486613726E+03  0.68433453349E+03  0.16500000000E+03 0.  0.
<mgrwt>
<rscale>  0 0.10859005E+04</rscale>
<asrwt>0</asrwt>
<pdfrwt beam="1">  1        2 0.28547212E+00 0.10859005E+04</pdfrwt>
<pdfrwt beam="2">  1       -2 0.21074646E-01 0.10859005E+04</pdfrwt>
<totfact> 0.15581111E+02</totfact>
</mgrwt>
</event>
<event>
 4    1  0.5323640E-005  0.3770374E+03  0.7818608E-02  0.1052034E+00
         -2   -1    0    0    0  501 -0.00000000000E+00  0.00000000000E+00  0.35331719680E+02  0.35331719772E+02  0.25500000000E-02 0. -1.
          2   -1    0    0  501    0  0.00000000000E+00 -0.00000000000E+00 -0.10058753620E+04  0.10058753620E+04  0.25500000000E-02 0.  1.
    5000001    1    1    2    0    0 -0.84904278739E+02 -0.72942953344E+01 -0.57485685163E+03  0.60410871799E+03  0.16500000000E+03 0.  0.
   -5000001    1    1    2    0    0  0.84904278739E+02  0.72942953344E+01 -0.39568679070E+03  0.43709836379E+03  0.16500000000E+03 0.  0.
<mgrwt>
<rscale>  0 0.37703743E+03</rscale>
<asrwt>0</asrwt>
<pdfrwt beam="1">  1        2 0.14369646E+00 0.37703743E+03</pdfrwt>
<pdfrwt beam="2">  1       -2 0.50473892E-02 0.37703743E+03</pdfrwt>
<totfact> 0.56078266E+03</totfact>
</mgrwt>
</event>
<event>
 4    1  0.5323640E-005  0.4638633E+03  0.7818608E-02  0.1023667E+00
         -2   -1    0    0    0  501 -0.00000000000E+00  0.00000000000E+00  0.63221929891E+02  0.63221929942E+02  0.25500000000E-02 0. -1.
          2   -1    0    0  501    0  0.00000000000E+00 -0.00000000000E+00 -0.85084855154E+03  0.85084855154E+03  0.25500000000E-02 0.  1.
    5000001    1    1    2    0    0  0.90763797872E+02 -0.16956632757E+02 -0.12912892174E+03  0.22896478513E+03  0.16500000000E+03 0.  0.
   -5000001    1    1    2    0    0 -0.90763797872E+02  0.16956632757E+02 -0.65849769991E+03  0.68510569636E+03  0.16500000000E+03 0.  0.
<mgrwt>
<rscale>  0 0.46386329E+03</rscale>
<asrwt>0</asrwt>
<pdfrwt beam="1">  1        2 0.12154979E+00 0.46386329E+03</pdfrwt>
<pdfrwt beam="2">  1       -2 0.90317047E-02 0.46386329E+03</pdfrwt>
<totfact> 0.28296223E+03</totfact>
</mgrwt>
</event>
<event>
 4    1  0.5323640E-005  0.9447416E+03  0.7818608E-02  0.9371318E-01
          2   -1    0    0  501    0  0.00000000000E+00  0.00000000000E+00  0.57361237858E+03  0.57361237859E+03  0.25500000000E-02 0.  1.
         -2   -1    0    0    0  501 -0.00000000000E+00 -0.00000000000E+00 -0.38899821705E+03  0.38899821706E+03  0.25500000000E-02 0. -1.
    5000001    1    1    2    0    0 -0.19884685860E+03 -0.38586960437E+03  0.42209812481E+01  0.46441171543E+03  0.16500000000E+03 0.  0.
   -5000001    1    1    2    0    0  0.19884685860E+03  0.38586960437E+03  0.18039318029E+03  0.49819888021E+03  0.16500000000E+03 0.  0.
<mgrwt>
<rscale>  0 0.94474164E+03</rscale>
<asrwt>0</asrwt>
<pdfrwt beam="1">  1        2 0.81944625E-01 0.94474164E+03</pdfrwt>
<pdfrwt beam="2">  1       -2 0.55571174E-01 0.94474164E+03</pdfrwt>
<totfact> 0.17436291E+02</totfact>
</mgrwt>
</event>
<event>
 4    1  0.5323640E-005  0.1926908E+04  0.7818608E-02  0.8641577E-01
          2   -1    0    0  501    0  0.00000000000E+00  0.00000000000E+00  0.13463252058E+04  0.13463252058E+04  0.25500000000E-02 0.  1.
         -2   -1    0    0    0  501 -0.00000000000E+00 -0.00000000000E+00 -0.68946435599E+03  0.68946435599E+03  0.25500000000E-02 0. -1.
    5000001    1    1    2    0    0  0.13311143527E+03 -0.81561301267E+03 -0.16494206595E+03  0.85870491192E+03  0.16500000000E+03 0.  0.
   -5000001    1    1    2    0    0 -0.13311143527E+03  0.81561301267E+03  0.82180291578E+03  0.11770846499E+04  0.16500000000E+03 0.  0.
<mgrwt>
<rscale>  0 0.19269076E+04</rscale>
<asrwt>0</asrwt>
<pdfrwt beam="1">  1        2 0.19233217E+00 0.19269076E+04</pdfrwt>
<pdfrwt beam="2">  1       -2 0.98494911E-01 0.19269076E+04</pdfrwt>
<totfact> 0.14216687E+01</totfact>
</mgrwt>
</event>
<event>
 4    1  0.5323640E-005  0.5124667E+03  0.7818608E-02  0.1010575E+00
         -2   -1    0    0    0  501 -0.00000000000E+00  0.00000000000E+00  0.24949370736E+03  0.24949370738E+03  0.25500000000E-02 0. -1.
          2   -1    0    0  501    0  0.00000000000E+00 -0.00000000000E+00 -0.26315503600E+03  0.26315503602E+03  0.25500000000E-02 0.  1.
    5000001    1    1    2    0    0 -0.15724418036E+03 -0.10894567326E+03 -0.49690179712E+02  0.25746651421E+03  0.16500000000E+03 0.  0.
   -5000001    1    1    2    0    0  0.15724418036E+03  0.10894567326E+03  0.36028851070E+02  0.25518222918E+03  0.16500000000E+03 0.  0.
<mgrwt>
<rscale>  0 0.51246668E+03</rscale>
<asrwt>0</asrwt>
<pdfrwt beam="1">  1        2 0.37593577E-01 0.51246668E+03</pdfrwt>
<pdfrwt beam="2">  1       -2 0.35641958E-01 0.51246668E+03</pdfrwt>
<totfact> 0.10225843E+03</totfact>
</mgrwt>
</event>
<event>
 4    1  0.5323640E-005  0.4865466E+03  0.7818608E-02  0.1017351E+00
         -2   -1    0    0    0  501 -0.00000000000E+00  0.00000000000E+00  0.37564149121E+03  0.37564149122E+03  0.25500000000E-02 0. -1.
          2   -1    0    0  501    0  0.00000000000E+00 -0.00000000000E+00 -0.15754886888E+03  0.15754886890E+03  0.25500000000E-02 0.  1.
    5000001    1    1    2    0    0  0.16532530978E+03 -0.55538255065E+02  0.15205034926E+03  0.28418526447E+03  0.16500000000E+03 0.  0.
   -5000001    1    1    2    0    0 -0.16532530978E+03  0.55538255065E+02  0.66042273074E+02  0.24900509566E+03  0.16500000000E+03 0.  0.
<mgrwt>
<rscale>  0 0.48654657E+03</rscale>
<asrwt>0</asrwt>
<pdfrwt beam="1">  1        2 0.22506981E-01 0.48654657E+03</pdfrwt>
<pdfrwt beam="2">  1       -2 0.53663070E-01 0.48654657E+03</pdfrwt>
<totfact> 0.81306538E+02</totfact>
</mgrwt>
</event>
<event>
 4    1  0.5323640E-005  0.3564579E+03  0.7818608E-02  0.1059995E+00
          2   -1    0    0  501    0  0.00000000000E+00  0.00000000000E+00  0.29168375231E+03  0.29168375232E+03  0.25500000000E-02 0.  1.
         -2   -1    0    0    0  501 -0.00000000000E+00 -0.00000000000E+00 -0.10890412471E+03  0.10890412474E+03  0.25500000000E-02 0. -1.
    5000001    1    1    2    0    0 -0.63362532290E+02 -0.15103617964E+02  0.72001913685E+02  0.19144765694E+03  0.16500000000E+03 0.  0.
   -5000001    1    1    2    0    0  0.63362532290E+02  0.15103617964E+02  0.11077771391E+03  0.20914022012E+03  0.16500000000E+03 0.  0.
<mgrwt>
<rscale>  0 0.35645793E+03</rscale>
<asrwt>0</asrwt>
<pdfrwt beam="1">  1        2 0.41669107E-01 0.35645793E+03</pdfrwt>
<pdfrwt beam="2">  1       -2 0.15557732E-01 0.35645793E+03</pdfrwt>
<totfact> 0.39529955E+03</totfact>
</mgrwt>
</event>
<event>
 4    1  0.5323640E-005  0.5309680E+03  0.7818608E-02  0.1005998E+00
          2   -1    0    0  501    0  0.00000000000E+00  0.00000000000E+00  0.33305855075E+03  0.33305855076E+03  0.25500000000E-02 0.  1.
         -2   -1    0    0    0  501 -0.00000000000E+00 -0.00000000000E+00 -0.21161974640E+03  0.21161974642E+03  0.25500000000E-02 0. -1.
    5000001    1    1    2    0    0 -0.43052661157E+02  0.18886720506E+03  0.13838710014E+03  0.28965555797E+03  0.16500000000E+03 0.  0.
   -5000001    1    1    2    0    0  0.43052661157E+02 -0.18886720506E+03 -0.16948295794E+02  0.25502273920E+03  0.16500000000E+03 0.  0.
<mgrwt>
<rscale>  0 0.53096804E+03</rscale>
<asrwt>0</asrwt>
<pdfrwt beam="1">  1        2 0.47579793E-01 0.53096804E+03</pdfrwt>
<pdfrwt beam="2">  1       -2 0.30231392E-01 0.53096804E+03</pdfrwt>
<totfact> 0.10735239E+03</totfact>
</mgrwt>
</event>
<event>
 4    1  0.5323640E-005  0.6025193E+03  0.7818608E-02  0.9900193E-01
          2   -1    0    0  501    0  0.00000000000E+00  0.00000000000E+00  0.30034761218E+03  0.30034761219E+03  0.25500000000E-02 0.  1.
         -2   -1    0    0    0  501 -0.00000000000E+00 -0.00000000000E+00 -0.30217448195E+03  0.30217448196E+03  0.25500000000E-02 0. -1.
    5000001    1    1    2    0    0 -0.73370962844E+02 -0.21970904697E+03  0.98470222797E+02  0.30095971207E+03  0.16500000000E+03 0.  0.
   -5000001    1    1    2    0    0  0.73370962844E+02  0.21970904697E+03 -0.10029709256E+03  0.30156238208E+03  0.16500000000E+03 0.  0.
<mgrwt>
<rscale>  0 0.60251932E+03</rscale>
<asrwt>0</asrwt>
<pdfrwt beam="1">  1        2 0.42906802E-01 0.60251932E+03</pdfrwt>
<pdfrwt beam="2">  1       -2 0.43167783E-01 0.60251932E+03</pdfrwt>
<totfact> 0.61002055E+02</totfact>
</mgrwt>
</event>
<event>
 4    1  0.5323640E-005  0.7471957E+03  0.7818608E-02  0.9639760E-01
         -2   -1    0    0    0  501 -0.00000000000E+00  0.00000000000E+00  0.65585266957E+03  0.65585266958E+03  0.25500000000E-02 0. -1.
          2   -1    0    0  501    0  0.00000000000E+00 -0.00000000000E+00 -0.21281510522E+03  0.21281510524E+03  0.25500000000E-02 0.  1.
    5000001    1    1    2    0    0 -0.11600317680E+02 -0.33208071757E+03  0.27270074152E+03  0.46043768827E+03  0.16500000000E+03 0.  0.
   -5000001    1    1    2    0    0  0.11600317680E+02  0.33208071757E+03  0.17033682283E+03  0.40823008655E+03  0.16500000000E+03 0.  0.
<mgrwt>
<rscale>  0 0.74719570E+03</rscale>
<asrwt>0</asrwt>
<pdfrwt beam="1">  1        2 0.30402158E-01 0.74719570E+03</pdfrwt>
<pdfrwt beam="2">  1       -2 0.93693239E-01 0.74719570E+03</pdfrwt>
<totfact> 0.17023568E+02</totfact>
</mgrwt>
</event>
<event>
 4    1  0.5323640E-005  0.6204594E+03  0.7818608E-02  0.9863845E-01
         -2   -1    0    0    0  501 -0.00000000000E+00  0.00000000000E+00  0.17239499950E+03  0.17239499952E+03  0.25500000000E-02 0. -1.
          2   -1    0    0  501    0  0.00000000000E+00 -0.00000000000E+00 -0.55826723500E+03  0.55826723500E+03  0.25500000000E-02 0.  1.
    5000001    1    1    2    0    0 -0.12965285192E+03  0.16648744053E+03 -0.86495574570E+01  0.26800698631E+03  0.16500000000E+03 0.  0.
   -5000001    1    1    2    0    0  0.12965285192E+03 -0.16648744053E+03 -0.37722267804E+03  0.46265524821E+03  0.16500000000E+03 0.  0.
<mgrwt>
<rscale>  0 0.62045944E+03</rscale>
<asrwt>0</asrwt>
<pdfrwt beam="1">  1        2 0.79752461E-01 0.62045944E+03</pdfrwt>
<pdfrwt beam="2">  1       -2 0.24627857E-01 0.62045944E+03</pdfrwt>
<totfact> 0.87260160E+02</totfact>
</mgrwt>
</event>
<event>
 4    1  0.5323640E-005  0.6404482E+03  0.7818608E-02  0.9824869E-01
          2   -1    0    0  501    0  0.00000000000E+00  0.00000000000E+00  0.13613021869E+04  0.13613021869E+04  0.25500000000E-02 0.  1.
         -2   -1    0    0    0  501 -0.00000000000E+00 -0.00000000000E+00 -0.75327492689E+02  0.75327492732E+02  0.25500000000E-02 0. -1.
    5000001    1    1    2    0    0  0.25523590154E+03 -0.52141227583E+02  0.83665958765E+03  0.89167726149E+03  0.16500000000E+03 0.  0.
   -5000001    1    1    2    0    0 -0.25523590154E+03  0.52141227583E+02  0.44931510652E+03  0.54495241810E+03  0.16500000000E+03 0.  0.
<mgrwt>
<rscale>  0 0.64044822E+03</rscale>
<asrwt>0</asrwt>
<pdfrwt beam="1">  1        2 0.19447174E+00 0.64044822E+03</pdfrwt>
<pdfrwt beam="2">  1       -2 0.10761070E-01 0.64044822E+03</pdfrwt>
<totfact> 0.10689156E+03</totfact>
</mgrwt>
</event>
<event>
 4    1  0.5323640E-005  0.3641767E+03  0.7818608E-02  0.1056942E+00
         -2   -1    0    0    0  501 -0.00000000000E+00  0.00000000000E+00  0.81066002364E+01  0.81066006374E+01  0.25500000000E-02 0. -1.
          2   -1    0    0  501    0  0.00000000000E+00 -0.00000000000E+00 -0.40900219084E+04  0.40900219084E+04  0.25500000000E-02 0.  1.
    5000001    1    1    2    0    0  0.44151109692E+02 -0.60929111312E+02 -0.22256929073E+04  0.22330686498E+04  0.16500000000E+03 0.  0.
   -5000001    1    1    2    0    0 -0.44151109692E+02  0.60929111312E+02 -0.18562224009E+04  0.18650598592E+04  0.16500000000E+03 0.  0.
<mgrwt>
<rscale>  0 0.36417673E+03</rscale>
<asrwt>0</asrwt>
<pdfrwt beam="1">  1        2 0.58428752E+00 0.36417673E+03</pdfrwt>
<pdfrwt beam="2">  1       -2 0.11580884E-02 0.36417673E+03</pdfrwt>
<totfact> 0.10693860E+03</totfact>
</mgrwt>
</event>
<event>
 4    1  0.5323640E-005  0.5618806E+03  0.7818608E-02  0.9987808E-01
          2   -1    0    0  501    0  0.00000000000E+00  0.00000000000E+00  0.11997110952E+04  0.11997110952E+04  0.25500000000E-02 0.  1.
         -2   -1    0    0    0  501 -0.00000000000E+00 -0.00000000000E+00 -0.65788715704E+02  0.65788715754E+02  0.25500000000E-02 0. -1.
    5000001    1    1    2    0    0  0.18577848358E+03  0.32865230037E+02  0.85281769292E+03  0.88888513637E+03  0.16500000000E+03 0.  0.
   -5000001    1    1    2    0    0 -0.18577848358E+03 -0.32865230037E+02  0.28110468661E+03  0.37661467462E+03  0.16500000000E+03 0.  0.
<mgrwt>
<rscale>  0 0.56188060E+03</rscale>
<asrwt>0</asrwt>
<pdfrwt beam="1">  1        2 0.17138730E+00 0.56188060E+03</pdfrwt>
<pdfrwt beam="2">  1       -2 0.93983879E-02 0.56188060E+03</pdfrwt>
<totfact> 0.16357146E+03</totfact>
</mgrwt>
</event>
<event>
 4    1  0.5323640E-005  0.8415935E+03  0.7818608E-02  0.9501690E-01
         -2   -1    0    0    0  501 -0.00000000000E+00  0.00000000000E+00  0.20168599187E+03  0.20168599188E+03  0.25500000000E-02 0. -1.
          2   -1    0    0  501    0  0.00000000000E+00 -0.00000000000E+00 -0.87794853343E+03  0.87794853344E+03  0.25500000000E-02 0.  1.
    5000001    1    1    2    0    0 -0.93894899075E+02 -0.34429480701E+03 -0.14574825423E+03  0.41931219851E+03  0.16500000000E+03 0.  0.
   -5000001    1    1    2    0    0  0.93894899075E+02  0.34429480701E+03 -0.53051428734E+03  0.66032232681E+03  0.16500000000E+03 0.  0.
<mgrwt>
<rscale>  0 0.84159354E+03</rscale>
<asrwt>0</asrwt>
<pdfrwt beam="1">  1        2 0.12542122E+00 0.84159354E+03</pdfrwt>
<pdfrwt beam="2">  1       -2 0.28812285E-01 0.84159354E+03</pdfrwt>
<totfact> 0.37219614E+02</totfact>
</mgrwt>
</event>
<event>
 4    1  0.5323640E-005  0.5979279E+03  0.7818608E-02  0.9909714E-01
          2   -1    0    0  501    0  0.00000000000E+00  0.00000000000E+00  0.10537740016E+03  0.10537740019E+03  0.25500000000E-02 0.  1.
         -2   -1    0    0    0  501 -0.00000000000E+00 -0.00000000000E+00 -0.84818418166E+03  0.84818418166E+03  0.25500000000E-02 0. -1.
    5000001    1    1    2    0    0 -0.22606758671E+03 -0.48539196590E+02 -0.52008446884E+03  0.59260059238E+03  0.16500000000E+03 0.  0.
   -5000001    1    1    2    0    0  0.22606758671E+03  0.48539196590E+02 -0.22272231266E+03  0.36096098947E+03  0.16500000000E+03 0.  0.
<mgrwt>
<rscale>  0 0.59792790E+03</rscale>
<asrwt>0</asrwt>
<pdfrwt beam="1">  1        2 0.15053915E-01 0.59792790E+03</pdfrwt>
<pdfrwt beam="2">  1       -2 0.12116916E+00 0.59792790E+03</pdfrwt>
<totfact> 0.20968598E+02</totfact>
</mgrwt>
</event>
<event>
 4    1  0.5323640E-005  0.6208437E+03  0.7818608E-02  0.9863081E-01
         -2   -1    0    0    0  501 -0.00000000000E+00  0.00000000000E+00  0.88720067006E+02  0.88720067043E+02  0.25500000000E-02 0. -1.
          2   -1    0    0  501    0  0.00000000000E+00 -0.00000000000E+00 -0.10861323614E+04  0.10861323614E+04  0.25500000000E-02 0.  1.
    5000001    1    1    2    0    0 -0.23712797593E+03 -0.28952807191E+02 -0.70659583695E+03  0.76391793984E+03  0.16500000000E+03 0.  0.
   -5000001    1    1    2    0    0  0.23712797593E+03  0.28952807191E+02 -0.29081645749E+03  0.41093448865E+03  0.16500000000E+03 0.  0.
<mgrwt>
<rscale>  0 0.62084374E+03</rscale>
<asrwt>0</asrwt>
<pdfrwt beam="1">  1        2 0.15516176E+00 0.62084374E+03</pdfrwt>
<pdfrwt beam="2">  1       -2 0.12674296E-01 0.62084374E+03</pdfrwt>
<totfact> 0.11643026E+03</totfact>
</mgrwt>
</event>
<event>
 4    1  0.5323640E-005  0.6719326E+03  0.7818608E-02  0.9766473E-01
         -2   -1    0    0    0  501 -0.00000000000E+00  0.00000000000E+00  0.14127453096E+03  0.14127453098E+03  0.25500000000E-02 0. -1.
          2   -1    0    0  501    0  0.00000000000E+00 -0.00000000000E+00 -0.79896464070E+03  0.79896464071E+03  0.25500000000E-02 0.  1.
    5000001    1    1    2    0    0  0.26728432168E+03  0.14549835772E+02 -0.49438800621E+03  0.58591561425E+03  0.16500000000E+03 0.  0.
   -5000001    1    1    2    0    0 -0.26728432168E+03 -0.14549835772E+02 -0.16330210354E+03  0.35432355744E+03  0.16500000000E+03 0.  0.
<mgrwt>
<rscale>  0 0.67193260E+03</rscale>
<asrwt>0</asrwt>
<pdfrwt beam="1">  1        2 0.11413780E+00 0.67193260E+03</pdfrwt>
<pdfrwt beam="2">  1       -2 0.20182076E-01 0.67193260E+03</pdfrwt>
<totfact> 0.80226370E+02</totfact>
</mgrwt>
</event>
<event>
 4    1  0.5323640E-005  0.3896505E+03  0.7818608E-02  0.1047423E+00
         -2   -1    0    0    0  501 -0.00000000000E+00  0.00000000000E+00  0.74169603905E+03  0.74169603906E+03  0.25500000000E-02 0.  1.
          2   -1    0    0  501    0  0.00000000000E+00 -0.00000000000E+00 -0.51175786876E+02  0.51175786940E+02  0.25500000000E-02 0. -1.
    5000001    1    1    2    0    0 -0.53994506709E+02 -0.75494583285E+02  0.25163503886E+03  0.31489685874E+03  0.16500000000E+03 0.  0.
   -5000001    1    1    2    0    0  0.53994506709E+02  0.75494583285E+02  0.43888521331E+03  0.47797496726E+03  0.16500000000E+03 0.  0.
<mgrwt>
<rscale>  0 0.38965050E+03</rscale>
<asrwt>0</asrwt>
<pdfrwt beam="1">  1        2 0.73108267E-02 0.38965050E+03</pdfrwt>
<pdfrwt beam="2">  1       -2 0.10595658E+00 0.38965050E+03</pdfrwt>
<totfact> 0.71972972E+02</totfact>
</mgrwt>
</event>
<event>
 4    1  0.5323640E-005  0.3832420E+03  0.7818608E-02  0.1049742E+00
         -2   -1    0    0    0  501 -0.00000000000E+00  0.00000000000E+00  0.28766119923E+03  0.28766119925E+03  0.25500000000E-02 0. -1.
          2   -1    0    0  501    0  0.00000000000E+00 -0.00000000000E+00 -0.12764530820E+03  0.12764530822E+03  0.25500000000E-02 0.  1.
    5000001    1    1    2    0    0 -0.85561871404E+02  0.39819585779E+02  0.10626689205E+03  0.21777071795E+03  0.16500000000E+03 0.  0.
   -5000001    1    1    2    0    0  0.85561871404E+02 -0.39819585779E+02  0.53748998984E+02  0.19753578952E+03  0.16500000000E+03 0.  0.
<mgrwt>
<rscale>  0 0.38324197E+03</rscale>
<asrwt>0</asrwt>
<pdfrwt beam="1">  1        2 0.18235044E-01 0.38324197E+03</pdfrwt>
<pdfrwt beam="2">  1       -2 0.41094457E-01 0.38324197E+03</pdfrwt>
<totfact> 0.17614021E+03</totfact>
</mgrwt>
</event>
<event>
 4    1  0.5323640E-005  0.5197087E+03  0.7818608E-02  0.1008759E+00
         -2   -1    0    0    0  501 -0.00000000000E+00  0.00000000000E+00  0.43279354864E+02  0.43279354940E+02  0.25500000000E-02 0. -1.
          2   -1    0    0  501    0  0.00000000000E+00 -0.00000000000E+00 -0.15601964531E+04  0.15601964531E+04  0.25500000000E-02 0.  1.
    5000001    1    1    2    0    0  0.27447159568E+02  0.19874616941E+03 -0.73755335980E+03  0.78196121706E+03  0.16500000000E+03 0.  0.
   -5000001    1    1    2    0    0 -0.27447159568E+02 -0.19874616941E+03 -0.77936373845E+03  0.82151459100E+03  0.16500000000E+03 0.  0.
<mgrwt>
<rscale>  0 0.51970875E+03</rscale>
<asrwt>0</asrwt>
<pdfrwt beam="1">  1        2 0.22288517E+00 0.51970875E+03</pdfrwt>
<pdfrwt beam="2">  1       -2 0.61827660E-02 0.51970875E+03</pdfrwt>
<totfact> 0.20436361E+03</totfact>
</mgrwt>
</event>
<event>
 4    1  0.5323640E-005  0.4357060E+03  0.7818608E-02  0.1032072E+00
          2   -1    0    0  501    0  0.00000000000E+00  0.00000000000E+00  0.46034220488E+03  0.46034220489E+03  0.25500000000E-02 0.  1.
         -2   -1    0    0    0  501 -0.00000000000E+00 -0.00000000000E+00 -0.10309707774E+03  0.10309707778E+03  0.25500000000E-02 0. -1.
    5000001    1    1    2    0    0  0.11241401625E+03  0.83095827092E+02  0.14457749719E+03  0.26013358150E+03  0.16500000000E+03 0.  0.
   -5000001    1    1    2    0    0 -0.11241401625E+03 -0.83095827092E+02  0.21266762994E+03  0.30330570116E+03  0.16500000000E+03 0.  0.
<mgrwt>
<rscale>  0 0.43570603E+03</rscale>
<asrwt>0</asrwt>
<pdfrwt beam="1">  1        2 0.65763171E-01 0.43570603E+03</pdfrwt>
<pdfrwt beam="2">  1       -2 0.14728154E-01 0.43570603E+03</pdfrwt>
<totfact> 0.26383292E+03</totfact>
</mgrwt>
</event>
<event>
 4    1  0.5323640E-005  0.1231033E+04  0.7818608E-02  0.9086119E-01
         -2   -1    0    0    0  501 -0.00000000000E+00  0.00000000000E+00  0.67343544614E+03  0.67343544615E+03  0.25500000000E-02 0. -1.
          2   -1    0    0  501    0  0.00000000000E+00 -0.00000000000E+00 -0.56257907345E+03  0.56257907346E+03  0.25500000000E-02 0.  1.
    5000001    1    1    2    0    0  0.27931913588E+03  0.33128301895E+03 -0.35101605526E+03  0.58155385767E+03  0.16500000000E+03 0.  0.
   -5000001    1    1    2    0    0 -0.27931913588E+03 -0.33128301895E+03  0.46187242795E+03  0.65446066193E+03  0.16500000000E+03 0.  0.
<mgrwt>
<rscale>  0 0.12310332E+04</rscale>
<asrwt>0</asrwt>
<pdfrwt beam="1">  1        2 0.80368439E-01 0.12310332E+04</pdfrwt>
<pdfrwt beam="2">  1       -2 0.96205064E-01 0.12310332E+04</pdfrwt>
<totfact> 0.52246314E+01</totfact>
</mgrwt>
</event>
<event>
 4    1  0.5323640E-005  0.4979255E+03  0.7818608E-02  0.1014322E+00
         -2   -1    0    0    0  501 -0.00000000000E+00  0.00000000000E+00  0.39455961648E+03  0.39455961648E+03  0.25500000000E-02 0. -1.
          2   -1    0    0  501    0  0.00000000000E+00 -0.00000000000E+00 -0.15709274812E+03  0.15709274815E+03  0.25500000000E-02 0.  1.
    5000001    1    1    2    0    0  0.11372343896E+03  0.87809278048E+02  0.25035456418E+03  0.33248443225E+03  0.16500000000E+03 0.  0.
   -5000001    1    1    2    0    0 -0.11372343896E+03 -0.87809278048E+02 -0.12887695829E+02  0.21916793238E+03  0.16500000000E+03 0.  0.
<mgrwt>
<rscale>  0 0.49792551E+03</rscale>
<asrwt>0</asrwt>
<pdfrwt beam="1">  1        2 0.22441821E-01 0.49792551E+03</pdfrwt>
<pdfrwt beam="2">  1       -2 0.56365660E-01 0.49792551E+03</pdfrwt>
<totfact> 0.73730886E+02</totfact>
</mgrwt>
</event>
<event>
 4    1  0.5323640E-005  0.5541483E+03  0.7818608E-02  0.1000538E+00
          2   -1    0    0  501    0  0.00000000000E+00  0.00000000000E+00  0.25553257660E+04  0.25553257660E+04  0.25500000000E-02 0.  1.
         -2   -1    0    0    0  501 -0.00000000000E+00 -0.00000000000E+00 -0.30043164528E+02  0.30043164637E+02  0.25500000000E-02 0. -1.
    5000001    1    1    2    0    0 -0.20269864200E+02  0.22011594280E+03  0.11406965429E+04  0.11735738147E+04  0.16500000000E+03 0.  0.
   -5000001    1    1    2    0    0  0.20269864200E+02 -0.22011594280E+03  0.13845860585E+04  0.14117951159E+04  0.16500000000E+03 0.  0.
<mgrwt>
<rscale>  0 0.55414826E+03</rscale>
<asrwt>0</asrwt>
<pdfrwt beam="1">  1        2 0.36504649E+00 0.55414826E+03</pdfrwt>
<pdfrwt beam="2">  1       -2 0.42918812E-02 0.55414826E+03</pdfrwt>
<totfact> 0.11300126E+03</totfact>
</mgrwt>
</event>
<event>
 4    1  0.5323640E-005  0.3856411E+03  0.7818608E-02  0.1048868E+00
          2   -1    0    0  501    0  0.00000000000E+00  0.00000000000E+00  0.53776117789E+03  0.53776117789E+03  0.25500000000E-02 0.  1.
         -2   -1    0    0    0  501 -0.00000000000E+00 -0.00000000000E+00 -0.69138065833E+02  0.69138065880E+02  0.25500000000E-02 0. -1.
    5000001    1    1    2    0    0  0.73582939039E+02  0.62788160979E+02  0.27279477448E+03  0.33316481066E+03  0.16500000000E+03 0.  0.
   -5000001    1    1    2    0    0 -0.73582939039E+02 -0.62788160979E+02  0.19582833757E+03  0.27373443311E+03  0.16500000000E+03 0.  0.
<mgrwt>
<rscale>  0 0.38564112E+03</rscale>
<asrwt>0</asrwt>
<pdfrwt beam="1">  1        2 0.76823025E-01 0.38564112E+03</pdfrwt>
<pdfrwt beam="2">  1       -2 0.98768666E-02 0.38564112E+03</pdfrwt>
<totfact> 0.42469962E+03</totfact>
</mgrwt>
</event>
<event>
 4    1  0.5323640E-005  0.5014005E+03  0.7818608E-02  0.1013414E+00
          2   -1    0    0  501    0  0.00000000000E+00  0.00000000000E+00  0.15922900118E+04  0.15922900118E+04  0.25500000000E-02 0.  1.
         -2   -1    0    0    0  501 -0.00000000000E+00 -0.00000000000E+00 -0.39471831726E+02  0.39471831808E+02  0.25500000000E-02 0. -1.
    5000001    1    1    2    0    0  0.31746864806E+02 -0.17801046545E+03  0.95256893411E+03  0.98351825782E+03  0.16500000000E+03 0.  0.
   -5000001    1    1    2    0    0 -0.31746864806E+02  0.17801046545E+03  0.60024924595E+03  0.64824358577E+03  0.16500000000E+03 0.  0.
<mgrwt>
<rscale>  0 0.50140045E+03</rscale>
<asrwt>0</asrwt>
<pdfrwt beam="1">  1        2 0.22746993E+00 0.50140045E+03</pdfrwt>
<pdfrwt beam="2">  1       -2 0.56388349E-02 0.50140045E+03</pdfrwt>
<totfact> 0.22724693E+03</totfact>
</mgrwt>
</event>
<event>
 4    1  0.5323640E-005  0.6007307E+03  0.7818608E-02  0.9903891E-01
         -2   -1    0    0    0  501 -0.00000000000E+00  0.00000000000E+00  0.21475331058E+03  0.21475331059E+03  0.25500000000E-02 0. -1.
          2   -1    0    0  501    0  0.00000000000E+00 -0.00000000000E+00 -0.42010681112E+03  0.42010681113E+03  0.25500000000E-02 0.  1.
    5000001    1    1    2    0    0 -0.15906550424E+02 -0.17368612809E+03 -0.29341453314E+03  0.37912659850E+03  0.16500000000E+03 0.  0.
   -5000001    1    1    2    0    0  0.15906550424E+02  0.17368612809E+03  0.88061032588E+02  0.25573352322E+03  0.16500000000E+03 0.  0.
<mgrwt>
<rscale>  0 0.60073065E+03</rscale>
<asrwt>0</asrwt>
<pdfrwt beam="1">  1        2 0.60015259E-01 0.60073065E+03</pdfrwt>
<pdfrwt beam="2">  1       -2 0.30679044E-01 0.60073065E+03</pdfrwt>
<totfact> 0.80760023E+02</totfact>
</mgrwt>
</event>
<event>
 4    1  0.5323640E-005  0.5604872E+03  0.7818608E-02  0.9990953E-01
         -2   -1    0    0    0  501 -0.00000000000E+00  0.00000000000E+00  0.12615142822E+03  0.12615142825E+03  0.25500000000E-02 0. -1.
          2   -1    0    0  501    0  0.00000000000E+00 -0.00000000000E+00 -0.62255724322E+03  0.62255724323E+03  0.25500000000E-02 0.  1.
    5000001    1    1    2    0    0 -0.18473348537E+03  0.13099564402E+03 -0.24150167855E+03  0.36991131384E+03  0.16500000000E+03 0.  0.
   -5000001    1    1    2    0    0  0.18473348537E+03 -0.13099564402E+03 -0.25490413645E+03  0.37879735763E+03  0.16500000000E+03 0.  0.
<mgrwt>
<rscale>  0 0.56048724E+03</rscale>
<asrwt>0</asrwt>
<pdfrwt beam="1">  1        2 0.88936747E-01 0.56048724E+03</pdfrwt>
<pdfrwt beam="2">  1       -2 0.18021633E-01 0.56048724E+03</pdfrwt>
<totfact> 0.13288032E+03</totfact>
</mgrwt>
</event>
<event>
 4    1  0.5323640E-005  0.6858877E+03  0.7818608E-02  0.9741675E-01
         -2   -1    0    0    0  501 -0.00000000000E+00  0.00000000000E+00  0.57966204879E+02  0.57966204935E+02  0.25500000000E-02 0. -1.
          2   -1    0    0  501    0  0.00000000000E+00 -0.00000000000E+00 -0.20289492548E+04  0.20289492548E+04  0.25500000000E-02 0.  1.
    5000001    1    1    2    0    0 -0.18134636439E+03 -0.23713300282E+03 -0.10937911626E+04  0.11457411018E+04  0.16500000000E+03 0.  0.
   -5000001    1    1    2    0    0  0.18134636439E+03  0.23713300282E+03 -0.87719188729E+03  0.94117435793E+03  0.16500000000E+03 0.  0.
<mgrwt>
<rscale>  0 0.68588771E+03</rscale>
<asrwt>0</asrwt>
<pdfrwt beam="1">  1        2 0.28984985E+00 0.68588771E+03</pdfrwt>
<pdfrwt beam="2">  1       -2 0.82808877E-02 0.68588771E+03</pdfrwt>
<totfact> 0.73933778E+02</totfact>
</mgrwt>
</event>
<event>
 4    1  0.5323640E-005  0.5180304E+03  0.7818608E-02  0.1009177E+00
         -2   -1    0    0    0  501 -0.00000000000E+00  0.00000000000E+00  0.20421206655E+02  0.20421206814E+02  0.25500000000E-02 0. -1.
          2   -1    0    0  501    0  0.00000000000E+00 -0.00000000000E+00 -0.32852549808E+04  0.32852549808E+04  0.25500000000E-02 0.  1.
    5000001    1    1    2    0    0 -0.58499856791E+01  0.19949283783E+03 -0.15961747794E+04  0.16170437659E+04  0.16500000000E+03 0.  0.
   -5000001    1    1    2    0    0  0.58499856791E+01 -0.19949283783E+03 -0.16686589948E+04  0.16886324217E+04  0.16500000000E+03 0.  0.
<mgrwt>
<rscale>  0 0.51803039E+03</rscale>
<asrwt>0</asrwt>
<pdfrwt beam="1">  1        2 0.46932180E+00 0.51803039E+03</pdfrwt>
<pdfrwt beam="2">  1       -2 0.29173173E-02 0.51803039E+03</pdfrwt>
<totfact> 0.82756783E+02</totfact>
</mgrwt>
</event>
<event>
 4    1  0.5323640E-005  0.4189831E+03  0.7818608E-02  0.1037398E+00
          2   -1    0    0  501    0  0.00000000000E+00  0.00000000000E+00  0.13879446948E+04  0.13879446948E+04  0.25500000000E-02 0.  1.
         -2   -1    0    0    0  501 -0.00000000000E+00 -0.00000000000E+00 -0.31619921732E+02  0.31619921835E+02  0.25500000000E-02 0. -1.
    5000001    1    1    2    0    0 -0.10506932453E+03  0.22315574189E+02  0.92069481648E+03  0.94151021922E+03  0.16500000000E+03 0.  0.
   -5000001    1    1    2    0    0  0.10506932453E+03 -0.22315574189E+02  0.43562995656E+03  0.47805439739E+03  0.16500000000E+03 0.  0.
<mgrwt>
<rscale>  0 0.41898307E+03</rscale>
<asrwt>0</asrwt>
<pdfrwt beam="1">  1        2 0.19827780E+00 0.41898307E+03</pdfrwt>
<pdfrwt beam="2">  1       -2 0.45171319E-02 0.41898307E+03</pdfrwt>
<totfact> 0.40840829E+03</totfact>
</mgrwt>
</event>
<event>
 4    1  0.5323640E-005  0.6265506E+03  0.7818608E-02  0.9851803E-01
         -2   -1    0    0    0  501 -0.00000000000E+00  0.00000000000E+00  0.12457865339E+03  0.12457865342E+03  0.25500000000E-02 0. -1.
          2   -1    0    0  501    0  0.00000000000E+00 -0.00000000000E+00 -0.78778669807E+03  0.78778669808E+03  0.25500000000E-02 0.  1.
    5000001    1    1    2    0    0  0.23662477358E+03 -0.67083998173E+02 -0.48028238189E+03  0.56425855123E+03  0.16500000000E+03 0.  0.
   -5000001    1    1    2    0    0 -0.23662477358E+03  0.67083998173E+02 -0.18292566279E+03  0.34810680026E+03  0.16500000000E+03 0.  0.
<mgrwt>
<rscale>  0 0.62655058E+03</rscale>
<asrwt>0</asrwt>
<pdfrwt beam="1">  1        2 0.11254095E+00 0.62655058E+03</pdfrwt>
<pdfrwt beam="2">  1       -2 0.17796951E-01 0.62655058E+03</pdfrwt>
<totfact> 0.10167198E+03</totfact>
</mgrwt>
</event>
<event>
 4    1  0.5323640E-005  0.3847393E+03  0.7818608E-02  0.1049196E+00
          2   -1    0    0  501    0  0.00000000000E+00  0.00000000000E+00  0.73586160837E+03  0.73586160838E+03  0.25500000000E-02 0.  1.
         -2   -1    0    0    0  501 -0.00000000000E+00 -0.00000000000E+00 -0.50289462119E+02  0.50289462184E+02  0.25500000000E-02 0. -1.
    5000001    1    1    2    0    0  0.96580197420E+02  0.20000502852E+02  0.35770799152E+03  0.40608836704E+03  0.16500000000E+03 0.  0.
   -5000001    1    1    2    0    0 -0.96580197420E+02 -0.20000502852E+02  0.32786415473E+03  0.38006270351E+03  0.16500000000E+03 0.  0.
<mgrwt>
<rscale>  0 0.38473931E+03</rscale>
<asrwt>0</asrwt>
<pdfrwt beam="1">  1        2 0.10512309E+00 0.38473931E+03</pdfrwt>
<pdfrwt beam="2">  1       -2 0.71842088E-02 0.38473931E+03</pdfrwt>
<totfact> 0.48656971E+03</totfact>
</mgrwt>
</event>
<event>
 4    1  0.5323640E-005  0.4143714E+03  0.7818608E-02  0.1038914E+00
          2   -1    0    0  501    0  0.00000000000E+00  0.00000000000E+00  0.59830567536E+03  0.59830567537E+03  0.25500000000E-02 0.  1.
         -2   -1    0    0    0  501 -0.00000000000E+00 -0.00000000000E+00 -0.71745788120E+02  0.71745788165E+02  0.25500000000E-02 0. -1.
    5000001    1    1    2    0    0 -0.16743083410E+02 -0.12050276135E+03  0.21477801289E+03  0.29691049351E+03  0.16500000000E+03 0.  0.
   -5000001    1    1    2    0    0  0.16743083410E+02  0.12050276135E+03  0.31178187435E+03  0.37314097002E+03  0.16500000000E+03 0.  0.
<mgrwt>
<rscale>  0 0.41437139E+03</rscale>
<asrwt>0</asrwt>
<pdfrwt beam="1">  1        2 0.85472238E-01 0.41437139E+03</pdfrwt>
<pdfrwt beam="2">  1       -2 0.10249399E-01 0.41437139E+03</pdfrwt>
<totfact> 0.35457149E+03</totfact>
</mgrwt>
</event>
<event>
 4    1  0.5323640E-005  0.4717024E+03  0.7818608E-02  0.1021441E+00
         -2   -1    0    0    0  501 -0.00000000000E+00  0.00000000000E+00  0.34991633640E+03  0.34991633641E+03  0.25500000000E-02 0. -1.
          2   -1    0    0  501    0  0.00000000000E+00 -0.00000000000E+00 -0.15896881893E+03  0.15896881895E+03  0.25500000000E-02 0.  1.
    5000001    1    1    2    0    0  0.18602829921E+02  0.13793186446E+03 -0.70404558803E+01  0.21597646292E+03  0.16500000000E+03 0.  0.
   -5000001    1    1    2    0    0 -0.18602829921E+02 -0.13793186446E+03  0.19798797335E+03  0.29290869244E+03  0.16500000000E+03 0.  0.
<mgrwt>
<rscale>  0 0.47170239E+03</rscale>
<asrwt>0</asrwt>
<pdfrwt beam="1">  1        2 0.22709832E-01 0.47170239E+03</pdfrwt>
<pdfrwt beam="2">  1       -2 0.49988047E-01 0.47170239E+03</pdfrwt>
<totfact> 0.92946402E+02</totfact>
</mgrwt>
</event>
<event>
 4    1  0.5323640E-005  0.5203365E+03  0.7818608E-02  0.1008603E+00
         -2   -1    0    0    0  501 -0.00000000000E+00  0.00000000000E+00  0.92301499020E+02  0.92301499055E+02  0.25500000000E-02 0. -1.
          2   -1    0    0  501    0  0.00000000000E+00 -0.00000000000E+00 -0.73333059186E+03  0.73333059186E+03  0.25500000000E-02 0.  1.
    5000001    1    1    2    0    0  0.17309753357E+03  0.71929431842E+02 -0.20471700189E+03  0.32290966254E+03  0.16500000000E+03 0.  0.
   -5000001    1    1    2    0    0 -0.17309753357E+03 -0.71929431842E+02 -0.43631209095E+03  0.50272242838E+03  0.16500000000E+03 0.  0.
<mgrwt>
<rscale>  0 0.52033648E+03</rscale>
<asrwt>0</asrwt>
<pdfrwt beam="1">  1        2 0.10476151E+00 0.52033648E+03</pdfrwt>
<pdfrwt beam="2">  1       -2 0.13185929E-01 0.52033648E+03</pdfrwt>
<totfact> 0.18460605E+03</totfact>
</mgrwt>
</event>
<event>
 4    1  0.5323640E-005  0.5091593E+03  0.7818608E-02  0.1011415E+00
         -2   -1    0    0    0  501 -0.00000000000E+00  0.00000000000E+00  0.40091870919E+02  0.40091871000E+02  0.25500000000E-02 0.  1.
          2   -1    0    0  501    0  0.00000000000E+00 -0.00000000000E+00 -0.16165570294E+04  0.16165570294E+04  0.25500000000E-02 0. -1.
    5000001    1    1    2    0    0 -0.70122329000E+02 -0.17890534902E+03 -0.87191839778E+03  0.90795977737E+03  0.16500000000E+03 0.  0.
   -5000001    1    1    2    0    0  0.70122329000E+02  0.17890534902E+03 -0.70454676072E+03  0.74868912305E+03  0.16500000000E+03 0.  0.
<mgrwt>
<rscale>  0 0.50915929E+03</rscale>
<asrwt>0</asrwt>
<pdfrwt beam="1">  1        2 0.23093668E+00 0.50915929E+03</pdfrwt>
<pdfrwt beam="2">  1       -2 0.57274111E-02 0.50915929E+03</pdfrwt>
<totfact> 0.21552600E+03</totfact>
</mgrwt>
</event>
<event>
 4    1  0.5323640E-005  0.5969953E+03  0.7818608E-02  0.9911660E-01
          2   -1    0    0  501    0  0.00000000000E+00  0.00000000000E+00  0.28995129770E+04  0.28995129770E+04  0.25500000000E-02 0.  1.
         -2   -1    0    0    0  501 -0.00000000000E+00 -0.00000000000E+00 -0.30729590281E+02  0.30729590387E+02  0.25500000000E-02 0. -1.
    5000001    1    1    2    0    0  0.23623138118E+03  0.77890876282E+02  0.14250893074E+04  0.14560140068E+04  0.16500000000E+03 0.  0.
   -5000001    1    1    2    0    0 -0.23623138118E+03 -0.77890876282E+02  0.14436940793E+04  0.14742285605E+04  0.16500000000E+03 0.  0.
<mgrwt>
<rscale>  0 0.59699530E+03</rscale>
<asrwt>0</asrwt>
<pdfrwt beam="1">  1        2 0.41421628E+00 0.59699530E+03</pdfrwt>
<pdfrwt beam="2">  1       -2 0.43899400E-02 0.59699530E+03</pdfrwt>
<totfact> 0.71754999E+02</totfact>
</mgrwt>
</event>
<event>
 4    1  0.5323640E-005  0.6243528E+03  0.7818608E-02  0.9856131E-01
          2   -1    0    0  501    0  0.00000000000E+00  0.00000000000E+00  0.16615193467E+04  0.16615193467E+04  0.25500000000E-02 0.  1.
         -2   -1    0    0    0  501 -0.00000000000E+00 -0.00000000000E+00 -0.58653599281E+02  0.58653599336E+02  0.25500000000E-02 0. -1.
    5000001    1    1    2    0    0  0.10683359956E+03  0.23649459740E+03  0.94944201735E+03  0.99800213271E+03  0.16500000000E+03 0.  0.
   -5000001    1    1    2    0    0 -0.10683359956E+03 -0.23649459740E+03  0.65342373002E+03  0.72217081328E+03  0.16500000000E+03 0.  0.
<mgrwt>
<rscale>  0 0.62435275E+03</rscale>
<asrwt>0</asrwt>
<pdfrwt beam="1">  1        2 0.23735994E+00 0.62435275E+03</pdfrwt>
<pdfrwt beam="2">  1       -2 0.83790845E-02 0.62435275E+03</pdfrwt>
<totfact> 0.11170395E+03</totfact>
</mgrwt>
</event>
<event>
 4    1  0.5323640E-005  0.7794987E+03  0.7818608E-02  0.9590175E-01
         -2   -1    0    0    0  501 -0.00000000000E+00  0.00000000000E+00  0.14418266221E+03  0.14418266223E+03  0.25500000000E-02 0. -1.
          2   -1    0    0  501    0  0.00000000000E+00 -0.00000000000E+00 -0.10535562280E+04  0.10535562280E+04  0.25500000000E-02 0.  1.
    5000001    1    1    2    0    0  0.24683453246E+03  0.23585612724E+03 -0.31619132046E+03  0.49371788534E+03  0.16500000000E+03 0.  0.
   -5000001    1    1    2    0    0 -0.24683453246E+03 -0.23585612724E+03 -0.59318224537E+03  0.70402100494E+03  0.16500000000E+03 0.  0.
<mgrwt>
<rscale>  0 0.77949866E+03</rscale>
<asrwt>0</asrwt>
<pdfrwt beam="1">  1        2 0.15050803E+00 0.77949866E+03</pdfrwt>
<pdfrwt beam="2">  1       -2 0.20597524E-01 0.77949866E+03</pdfrwt>
<totfact> 0.52943118E+02</totfact>
</mgrwt>
</event>
<event>
 4    1  0.5323640E-005  0.5900968E+03  0.7818608E-02  0.9926168E-01
          2   -1    0    0  501    0  0.00000000000E+00  0.00000000000E+00  0.57991745150E+03  0.57991745151E+03  0.25500000000E-02 0.  1.
         -2   -1    0    0    0  501 -0.00000000000E+00 -0.00000000000E+00 -0.15011369809E+03  0.15011369811E+03  0.25500000000E-02 0. -1.
    5000001    1    1    2    0    0  0.10293355512E+03  0.99491243523E+02 -0.30459514479E+02  0.22055975682E+03  0.16500000000E+03 0.  0.
   -5000001    1    1    2    0    0 -0.10293355512E+03 -0.99491243523E+02  0.46026326789E+03  0.50947139280E+03  0.16500000000E+03 0.  0.
<mgrwt>
<rscale>  0 0.59009678E+03</rscale>
<asrwt>0</asrwt>
<pdfrwt beam="1">  1        2 0.82845353E-01 0.59009678E+03</pdfrwt>
<pdfrwt beam="2">  1       -2 0.21444813E-01 0.59009678E+03</pdfrwt>
<totfact> 0.10676427E+03</totfact>
</mgrwt>
</event>
<event>
 4    1  0.5323640E-005  0.4651345E+03  0.7818608E-02  0.1023303E+00
          2   -1    0    0  501    0  0.00000000000E+00  0.00000000000E+00  0.31470278227E+04  0.31470278227E+04  0.25500000000E-02 0.  1.
         -2   -1    0    0    0  501 -0.00000000000E+00 -0.00000000000E+00 -0.17186857796E+02  0.17186857985E+02  0.25500000000E-02 0. -1.
    5000001    1    1    2    0    0 -0.69414984168E+02  0.12866629533E+03  0.10609134760E+04  0.10835754977E+04  0.16500000000E+03 0.  0.
   -5000001    1    1    2    0    0  0.69414984168E+02 -0.12866629533E+03  0.20689274888E+04  0.20806391830E+04  0.16500000000E+03 0.  0.
<mgrwt>
<rscale>  0 0.46513448E+03</rscale>
<asrwt>0</asrwt>
<pdfrwt beam="1">  1        2 0.44957568E+00 0.46513448E+03</pdfrwt>
<pdfrwt beam="2">  1       -2 0.24552639E-02 0.46513448E+03</pdfrwt>
<totfact> 0.12895749E+03</totfact>
</mgrwt>
</event>
<event>
 4    1  0.5323640E-005  0.3730044E+03  0.7818608E-02  0.1053550E+00
         -2   -1    0    0    0  501 -0.00000000000E+00  0.00000000000E+00  0.14754809648E+03  0.14754809650E+03  0.25500000000E-02 0. -1.
          2   -1    0    0  501    0  0.00000000000E+00 -0.00000000000E+00 -0.23574053499E+03  0.23574053501E+03  0.25500000000E-02 0.  1.
    5000001    1    1    2    0    0  0.73683568581E+02 -0.37828617147E+02 -0.71240342814E+02  0.19789001743E+03  0.16500000000E+03 0.  0.
   -5000001    1    1    2    0    0 -0.73683568581E+02  0.37828617147E+02 -0.16952095700E+02  0.18539861408E+03  0.16500000000E+03 0.  0.
<mgrwt>
<rscale>  0 0.37300438E+03</rscale>
<asrwt>0</asrwt>
<pdfrwt beam="1">  1        2 0.33677219E-01 0.37300438E+03</pdfrwt>
<pdfrwt beam="2">  1       -2 0.21078300E-01 0.37300438E+03</pdfrwt>
<totfact> 0.29788572E+03</totfact>
</mgrwt>
</event>
<event>
 4    1  0.5323640E-005  0.5470173E+03  0.7818608E-02  0.1002187E+00
         -2   -1    0    0    0  501 -0.00000000000E+00  0.00000000000E+00  0.10617596575E+03  0.10617596578E+03  0.25500000000E-02 0. -1.
          2   -1    0    0  501    0  0.00000000000E+00 -0.00000000000E+00 -0.70455654361E+03  0.70455654362E+03  0.25500000000E-02 0.  1.
    5000001    1    1    2    0    0  0.21043983460E+03 -0.55641806068E+02 -0.27817601290E+03  0.38985616415E+03  0.16500000000E+03 0.  0.
   -5000001    1    1    2    0    0 -0.21043983460E+03  0.55641806068E+02 -0.32020456496E+03  0.42087634525E+03  0.16500000000E+03 0.  0.
<mgrwt>
<rscale>  0 0.54701726E+03</rscale>
<asrwt>0</asrwt>
<pdfrwt beam="1">  1        2 0.10065093E+00 0.54701726E+03</pdfrwt>
<pdfrwt beam="2">  1       -2 0.15167995E-01 0.54701726E+03</pdfrwt>
<totfact> 0.15348423E+03</totfact>
</mgrwt>
</event>
<event>
 4    1  0.5323640E-005  0.8794429E+03  0.7818608E-02  0.9451650E-01
         -2   -1    0    0    0  501 -0.00000000000E+00  0.00000000000E+00  0.59522130558E+02  0.59522130612E+02  0.25500000000E-02 0. -1.
          2   -1    0    0  501    0  0.00000000000E+00 -0.00000000000E+00 -0.32484545179E+04  0.32484545179E+04  0.25500000000E-02 0.  1.
    5000001    1    1    2    0    0 -0.29182846280E+03 -0.28360013143E+03 -0.15072973533E+04  0.15699564317E+04  0.16500000000E+03 0.  0.
   -5000001    1    1    2    0    0  0.29182846280E+03  0.28360013143E+03 -0.16816350340E+04  0.17380202168E+04  0.16500000000E+03 0.  0.
<mgrwt>
<rscale>  0 0.87944286E+03</rscale>
<asrwt>0</asrwt>
<pdfrwt beam="1">  1        2 0.46406482E+00 0.87944286E+03</pdfrwt>
<pdfrwt beam="2">  1       -2 0.85031636E-02 0.87944286E+03</pdfrwt>
<totfact> 0.15794251E+02</totfact>
</mgrwt>
</event>
<event>
 4    1  0.5323640E-005  0.4879375E+03  0.7818608E-02  0.1016976E+00
         -2   -1    0    0    0  501 -0.00000000000E+00  0.00000000000E+00  0.36194942359E+02  0.36194942449E+02  0.25500000000E-02 0. -1.
          2   -1    0    0  501    0  0.00000000000E+00 -0.00000000000E+00 -0.16444494753E+04  0.16444494753E+04  0.25500000000E-02 0.  1.
    5000001    1    1    2    0    0  0.14338447977E+02 -0.85064302544E+02 -0.26111234576E+03  0.32069640436E+03  0.16500000000E+03 0.  0.
   -5000001    1    1    2    0    0 -0.14338447977E+02  0.85064302544E+02 -0.13471421872E+04  0.13599480134E+04  0.16500000000E+03 0.  0.
<mgrwt>
<rscale>  0 0.48793751E+03</rscale>
<asrwt>0</asrwt>
<pdfrwt beam="1">  1        2 0.23492131E+00 0.48793751E+03</pdfrwt>
<pdfrwt beam="2">  1       -2 0.51707071E-02 0.48793751E+03</pdfrwt>
<totfact> 0.24458516E+03</totfact>
</mgrwt>
</event>
<event>
 4    1  0.5323640E-005  0.4614163E+03  0.7818608E-02  0.1024371E+00
          2   -1    0    0  501    0  0.00000000000E+00  0.00000000000E+00  0.19280180299E+04  0.19280180299E+04  0.25500000000E-02 0.  1.
         -2   -1    0    0    0  501 -0.00000000000E+00 -0.00000000000E+00 -0.27606719999E+02  0.27606720117E+02  0.25500000000E-02 0. -1.
    5000001    1    1    2    0    0 -0.34648219470E+02  0.15640693051E+03  0.10280830044E+04  0.10534910019E+04  0.16500000000E+03 0.  0.
   -5000001    1    1    2    0    0  0.34648219470E+02 -0.15640693051E+03  0.87232830549E+03  0.90213374817E+03  0.16500000000E+03 0.  0.
<mgrwt>
<rscale>  0 0.46141632E+03</rscale>
<asrwt>0</asrwt>
<pdfrwt beam="1">  1        2 0.27543119E+00 0.46141632E+03</pdfrwt>
<pdfrwt beam="2">  1       -2 0.39438165E-02 0.46141632E+03</pdfrwt>
<totfact> 0.26739626E+03</totfact>
</mgrwt>
</event>
<event>
 4    1  0.5323640E-005  0.9029591E+03  0.7818608E-02  0.9421890E-01
         -2   -1    0    0    0  501 -0.00000000000E+00  0.00000000000E+00  0.90329459791E+02  0.90329459827E+02  0.25500000000E-02 0. -1.
          2   -1    0    0  501    0  0.00000000000E+00 -0.00000000000E+00 -0.22565590894E+04  0.22565590894E+04  0.25500000000E-02 0.  1.
    5000001    1    1    2    0    0 -0.77049632821E+02 -0.35503684136E+03 -0.53408761804E+03  0.66668012449E+03  0.16500000000E+03 0.  0.
   -5000001    1    1    2    0    0  0.77049632821E+02  0.35503684136E+03 -0.16321420116E+04  0.16802084247E+04  0.16500000000E+03 0.  0.
<mgrwt>
<rscale>  0 0.90295905E+03</rscale>
<asrwt>0</asrwt>
<pdfrwt beam="1">  1        2 0.32236555E+00 0.90295905E+03</pdfrwt>
<pdfrwt beam="2">  1       -2 0.12904210E-01 0.90295905E+03</pdfrwt>
<totfact> 0.27040490E+02</totfact>
</mgrwt>
</event>
<event>
 4    1  0.5323640E-005  0.8713552E+03  0.7818608E-02  0.9462115E-01
          2   -1    0    0  501    0  0.00000000000E+00  0.00000000000E+00  0.11100812009E+04  0.11100812009E+04  0.25500000000E-02 0.  1.
         -2   -1    0    0    0  501 -0.00000000000E+00 -0.00000000000E+00 -0.17099197065E+03  0.17099197067E+03  0.25500000000E-02 0. -1.
    5000001    1    1    2    0    0  0.36969142900E+03  0.15229792021E+03  0.39281775655E+03  0.58429204944E+03  0.16500000000E+03 0.  0.
   -5000001    1    1    2    0    0 -0.36969142900E+03 -0.15229792021E+03  0.54627147366E+03  0.69678112210E+03  0.16500000000E+03 0.  0.
<mgrwt>
<rscale>  0 0.87135520E+03</rscale>
<asrwt>0</asrwt>
<pdfrwt beam="1">  1        2 0.15858303E+00 0.87135520E+03</pdfrwt>
<pdfrwt beam="2">  1       -2 0.24427424E-01 0.87135520E+03</pdfrwt>
<totfact> 0.36049326E+02</totfact>
</mgrwt>
</event>
<event>
 4    1  0.5323640E-005  0.5995198E+03  0.7818608E-02  0.9906403E-01
         -2   -1    0    0    0  501 -0.00000000000E+00  0.00000000000E+00  0.35894285796E+02  0.35894285886E+02  0.25500000000E-02 0. -1.
          2   -1    0    0  501    0  0.00000000000E+00 -0.00000000000E+00 -0.25033506289E+04  0.25033506289E+04  0.25500000000E-02 0.  1.
    5000001    1    1    2    0    0 -0.20420200208E+02  0.24767410644E+03 -0.11086897083E+04  0.11481190343E+04  0.16500000000E+03 0.  0.
   -5000001    1    1    2    0    0  0.20420200208E+02 -0.24767410644E+03 -0.13587666348E+04  0.13911258805E+04  0.16500000000E+03 0.  0.
<mgrwt>
<rscale>  0 0.59951975E+03</rscale>
<asrwt>0</asrwt>
<pdfrwt beam="1">  1        2 0.35762141E+00 0.59951975E+03</pdfrwt>
<pdfrwt beam="2">  1       -2 0.51277567E-02 0.59951975E+03</pdfrwt>
<totfact> 0.90964660E+02</totfact>
</mgrwt>
</event>
<event>
 4    1  0.5323640E-005  0.1015865E+04  0.7818608E-02  0.9291313E-01
          2   -1    0    0  501    0  0.00000000000E+00  0.00000000000E+00  0.33763705862E+03  0.33763705863E+03  0.25500000000E-02 0.  1.
         -2   -1    0    0    0  501 -0.00000000000E+00 -0.00000000000E+00 -0.76412075968E+03  0.76412075968E+03  0.25500000000E-02 0. -1.
    5000001    1    1    2    0    0  0.38001444958E+03  0.10927292898E+03  0.82621931839E+02  0.43635185174E+03  0.16500000000E+03 0.  0.
   -5000001    1    1    2    0    0 -0.38001444958E+03 -0.10927292898E+03 -0.50910563290E+03  0.66540596657E+03  0.16500000000E+03 0.  0.
<mgrwt>
<rscale>  0 0.10158651E+04</rscale>
<asrwt>0</asrwt>
<pdfrwt beam="1">  1        2 0.48233866E-01 0.10158651E+04</pdfrwt>
<pdfrwt beam="2">  1       -2 0.10916011E+00 0.10158651E+04</pdfrwt>
<totfact> 0.69832147E+01</totfact>
</mgrwt>
</event>
<event>
 4    1  0.5323640E-005  0.5034453E+03  0.7818608E-02  0.1012884E+00
          2   -1    0    0  501    0  0.00000000000E+00  0.00000000000E+00  0.27353197086E+04  0.27353197086E+04  0.25500000000E-02 0.  1.
         -2   -1    0    0    0  501 -0.00000000000E+00 -0.00000000000E+00 -0.23165224976E+02  0.23165225117E+02  0.25500000000E-02 0. -1.
    5000001    1    1    2    0    0 -0.12694841507E+03 -0.13974488362E+03  0.14779530128E+04  0.14990712594E+04  0.16500000000E+03 0.  0.
   -5000001    1    1    2    0    0  0.12694841507E+03  0.13974488362E+03  0.12342014708E+04  0.12594136744E+04  0.16500000000E+03 0.  0.
<mgrwt>
<rscale>  0 0.50344532E+03</rscale>
<asrwt>0</asrwt>
<pdfrwt beam="1">  1        2 0.39075999E+00 0.50344532E+03</pdfrwt>
<pdfrwt beam="2">  1       -2 0.33093176E-02 0.50344532E+03</pdfrwt>
<totfact> 0.13614772E+03</totfact>
</mgrwt>
</event>
<event>
 4    1  0.5323640E-005  0.4696430E+03  0.7818608E-02  0.1022021E+00
          2   -1    0    0  501    0  0.00000000000E+00  0.00000000000E+00  0.36266203333E+04  0.36266203333E+04  0.25500000000E-02 0.  1.
         -2   -1    0    0    0  501 -0.00000000000E+00 -0.00000000000E+00 -0.15204550074E+02  0.15204550288E+02  0.25500000000E-02 0. -1.
    5000001    1    1    2    0    0 -0.79283862444E+02 -0.14490721642E+03  0.20006670559E+04  0.20142437044E+04  0.16500000000E+03 0.  0.
   -5000001    1    1    2    0    0  0.79283862444E+02  0.14490721642E+03  0.16107487273E+04  0.16275811792E+04  0.16500000000E+03 0.  0.
<mgrwt>
<rscale>  0 0.46964297E+03</rscale>
<asrwt>0</asrwt>
<pdfrwt beam="1">  1        2 0.51808893E+00 0.46964297E+03</pdfrwt>
<pdfrwt beam="2">  1       -2 0.21720773E-02 0.46964297E+03</pdfrwt>
<totfact> 0.81883145E+02</totfact>
</mgrwt>
</event>
<event>
 4    1  0.5323640E-005  0.6859126E+03  0.7818608E-02  0.9741631E-01
         -2   -1    0    0    0  501 -0.00000000000E+00  0.00000000000E+00  0.46098018589E+02  0.46098018660E+02  0.25500000000E-02 0.  1.
          2   -1    0    0  501    0  0.00000000000E+00 -0.00000000000E+00 -0.25514984477E+04  0.25514984477E+04  0.25500000000E-02 0. -1.
    5000001    1    1    2    0    0 -0.94970383049E+02 -0.28470877884E+03 -0.11854266771E+04  0.12339124236E+04  0.16500000000E+03 0.  0.
   -5000001    1    1    2    0    0  0.94970383049E+02  0.28470877884E+03 -0.13199737520E+04  0.13636840427E+04  0.16500000000E+03 0.  0.
<mgrwt>
<rscale>  0 0.68591260E+03</rscale>
<asrwt>0</asrwt>
<pdfrwt beam="1">  1        2 0.36449969E+00 0.68591260E+03</pdfrwt>
<pdfrwt beam="2">  1       -2 0.65854329E-02 0.68591260E+03</pdfrwt>
<totfact> 0.57684791E+02</totfact>
</mgrwt>
</event>
<event>
 4    1  0.5323640E-005  0.4722018E+03  0.7818608E-02  0.1021301E+00
          2   -1    0    0  501    0  0.00000000000E+00  0.00000000000E+00  0.61213453956E+03  0.61213453957E+03  0.25500000000E-02 0.  1.
         -2   -1    0    0    0  501 -0.00000000000E+00 -0.00000000000E+00 -0.91064357335E+02  0.91064357371E+02  0.25500000000E-02 0. -1.
    5000001    1    1    2    0    0  0.13344806414E+03  0.60934172365E+02  0.13596461253E+03  0.25929275934E+03  0.16500000000E+03 0.  0.
   -5000001    1    1    2    0    0 -0.13344806414E+03 -0.60934172365E+02  0.38510556970E+03  0.44390613760E+03  0.16500000000E+03 0.  0.
<mgrwt>
<rscale>  0 0.47220181E+03</rscale>
<asrwt>0</asrwt>
<pdfrwt beam="1">  1        2 0.87447788E-01 0.47220181E+03</pdfrwt>
<pdfrwt beam="2">  1       -2 0.13009194E-01 0.47220181E+03</pdfrwt>
<totfact> 0.23445029E+03</totfact>
</mgrwt>
</event>
<event>
 4    1  0.5323640E-005  0.8623558E+03  0.7818608E-02  0.9473902E-01
          2   -1    0    0  501    0  0.00000000000E+00  0.00000000000E+00  0.24078993703E+03  0.24078993705E+03  0.25500000000E-02 0.  1.
         -2   -1    0    0    0  501 -0.00000000000E+00 -0.00000000000E+00 -0.77210193477E+03  0.77210193478E+03  0.25500000000E-02 0. -1.
    5000001    1    1    2    0    0 -0.30477048988E+03  0.24103454682E+03 -0.16254380166E+03  0.45235847701E+03  0.16500000000E+03 0.  0.
   -5000001    1    1    2    0    0  0.30477048988E+03 -0.24103454682E+03 -0.36876819608E+03  0.56053339481E+03  0.16500000000E+03 0.  0.
<mgrwt>
<rscale>  0 0.86235579E+03</rscale>
<asrwt>0</asrwt>
<pdfrwt beam="1">  1        2 0.34398563E-01 0.86235579E+03</pdfrwt>
<pdfrwt beam="2">  1       -2 0.11030028E+00 0.86235579E+03</pdfrwt>
<totfact> 0.10003496E+02</totfact>
</mgrwt>
</event>
<event>
 4    1  0.5323640E-005  0.5002625E+03  0.7818608E-02  0.1013710E+00
          2   -1    0    0  501    0  0.00000000000E+00  0.00000000000E+00  0.54188481330E+03  0.54188481331E+03  0.25500000000E-02 0.  1.
         -2   -1    0    0    0  501 -0.00000000000E+00 -0.00000000000E+00 -0.11545930274E+03  0.11545930277E+03  0.25500000000E-02 0. -1.
    5000001    1    1    2    0    0  0.23732538384E+02  0.14780075612E+03  0.63784239070E+02  0.23173632870E+03  0.16500000000E+03 0.  0.
   -5000001    1    1    2    0    0 -0.23732538384E+02 -0.14780075612E+03  0.36264127149E+03  0.42560778738E+03  0.16500000000E+03 0.  0.
<mgrwt>
<rscale>  0 0.50026250E+03</rscale>
<asrwt>0</asrwt>
<pdfrwt beam="1">  1        2 0.77412118E-01 0.50026250E+03</pdfrwt>
<pdfrwt beam="2">  1       -2 0.16494186E-01 0.50026250E+03</pdfrwt>
<totfact> 0.18163792E+03</totfact>
</mgrwt>
</event>
<event>
 4    1  0.5323640E-005  0.3837964E+03  0.7818608E-02  0.1049539E+00
          2   -1    0    0  501    0  0.00000000000E+00  0.00000000000E+00  0.82471114513E+03  0.82471114514E+03  0.25500000000E-02 0.  1.
         -2   -1    0    0    0  501 -0.00000000000E+00 -0.00000000000E+00 -0.44651901462E+02  0.44651901535E+02  0.25500000000E-02 0. -1.
    5000001    1    1    2    0    0 -0.11372550250E+02  0.90910208205E+02  0.46869063073E+03  0.50526221726E+03  0.16500000000E+03 0.  0.
   -5000001    1    1    2    0    0  0.11372550250E+02 -0.90910208205E+02  0.31136861294E+03  0.36410082941E+03  0.16500000000E+03 0.  0.
<mgrwt>
<rscale>  0 0.38379641E+03</rscale>
<asrwt>0</asrwt>
<pdfrwt beam="1">  1        2 0.11781586E+00 0.38379641E+03</pdfrwt>
<pdfrwt beam="2">  1       -2 0.63788439E-02 0.38379641E+03</pdfrwt>
<totfact> 0.50820755E+03</totfact>
</mgrwt>
</event>
<event>
 4    1  0.5323640E-005  0.2346550E+04  0.7818608E-02  0.8459790E-01
         -2   -1    0    0    0  501 -0.00000000000E+00  0.00000000000E+00  0.12690152197E+04  0.12690152197E+04  0.25500000000E-02 0. -1.
          2   -1    0    0  501    0  0.00000000000E+00 -0.00000000000E+00 -0.10847581979E+04  0.10847581979E+04  0.25500000000E-02 0.  1.
    5000001    1    1    2    0    0  0.61954723769E+03  0.69795480254E+03  0.78590044958E+03  0.12311962487E+04  0.16500000000E+03 0.  0.
   -5000001    1    1    2    0    0 -0.61954723769E+03 -0.69795480254E+03 -0.60164342771E+03  0.11225771689E+04  0.16500000000E+03 0.  0.
<mgrwt>
<rscale>  0 0.23465504E+04</rscale>
<asrwt>0</asrwt>
<pdfrwt beam="1">  1        2 0.15496546E+00 0.23465504E+04</pdfrwt>
<pdfrwt beam="2">  1       -2 0.18128789E+00 0.23465504E+04</pdfrwt>
<totfact> 0.40225683E+00</totfact>
</mgrwt>
</event>
<event>
 4    1  0.5323640E-005  0.8928766E+03  0.7818608E-02  0.9434530E-01
         -2   -1    0    0    0  501 -0.00000000000E+00  0.00000000000E+00  0.48930906218E+03  0.48930906218E+03  0.25500000000E-02 0. -1.
          2   -1    0    0  501    0  0.00000000000E+00 -0.00000000000E+00 -0.40732362813E+03  0.40732362814E+03  0.25500000000E-02 0.  1.
    5000001    1    1    2    0    0 -0.29703855520E+03 -0.28875638657E+03  0.62763132900E+02  0.45030696742E+03  0.16500000000E+03 0.  0.
   -5000001    1    1    2    0    0  0.29703855520E+03  0.28875638657E+03  0.19222301146E+02  0.44632572290E+03  0.16500000000E+03 0.  0.
<mgrwt>
<rscale>  0 0.89287657E+03</rscale>
<asrwt>0</asrwt>
<pdfrwt beam="1">  1        2 0.58189090E-01 0.89287657E+03</pdfrwt>
<pdfrwt beam="2">  1       -2 0.69901295E-01 0.89287657E+03</pdfrwt>
<totfact> 0.15866095E+02</totfact>
</mgrwt>
</event>
<event>
 4    1  0.5323640E-005  0.5362910E+03  0.7818608E-02  0.1004718E+00
         -2   -1    0    0    0  501 -0.00000000000E+00  0.00000000000E+00  0.65681072180E+02  0.65681072230E+02  0.25500000000E-02 0. -1.
          2   -1    0    0  501    0  0.00000000000E+00 -0.00000000000E+00 -0.10947144067E+04  0.10947144067E+04  0.25500000000E-02 0.  1.
    5000001    1    1    2    0    0 -0.41358727479E+02  0.14553015993E+03 -0.83389734836E+03  0.86342304776E+03  0.16500000000E+03 0.  0.
   -5000001    1    1    2    0    0  0.41358727479E+02 -0.14553015993E+03 -0.19513598617E+03  0.29697243119E+03  0.16500000000E+03 0.  0.
<mgrwt>
<rscale>  0 0.53629103E+03</rscale>
<asrwt>0</asrwt>
<pdfrwt beam="1">  1        2 0.15638776E+00 0.53629103E+03</pdfrwt>
<pdfrwt beam="2">  1       -2 0.93830110E-02 0.53629103E+03</pdfrwt>
<totfact> 0.18828791E+03</totfact>
</mgrwt>
</event>
<event>
 4    1  0.5323640E-005  0.9004492E+03  0.7818608E-02  0.9425020E-01
         -2   -1    0    0    0  501 -0.00000000000E+00  0.00000000000E+00  0.86772174167E+03  0.86772174168E+03  0.25500000000E-02 0. -1.
          2   -1    0    0  501    0  0.00000000000E+00 -0.00000000000E+00 -0.23360277268E+03  0.23360277269E+03  0.25500000000E-02 0.  1.
    5000001    1    1    2    0    0  0.32528379544E+03  0.23468919552E+03  0.46478770241E+03  0.63572098784E+03  0.16500000000E+03 0.  0.
   -5000001    1    1    2    0    0 -0.32528379544E+03 -0.23468919552E+03  0.16933126659E+03  0.46560352653E+03  0.16500000000E+03 0.  0.
<mgrwt>
<rscale>  0 0.90044923E+03</rscale>
<asrwt>0</asrwt>
<pdfrwt beam="1">  1        2 0.33371825E-01 0.90044923E+03</pdfrwt>
<pdfrwt beam="2">  1       -2 0.12396025E+00 0.90044923E+03</pdfrwt>
<totfact> 0.77512938E+01</totfact>
</mgrwt>
</event>
<event>
 4    1  0.5323640E-005  0.9086831E+03  0.7818608E-02  0.9414792E-01
         -2   -1    0    0    0  501 -0.00000000000E+00  0.00000000000E+00  0.73246486952E+03  0.73246486953E+03  0.25500000000E-02 0. -1.
          2   -1    0    0  501    0  0.00000000000E+00 -0.00000000000E+00 -0.28182409318E+03  0.28182409319E+03  0.25500000000E-02 0.  1.
    5000001    1    1    2    0    0  0.20160922348E+03  0.28018371752E+03 -0.48214782326E+02  0.38561491127E+03  0.16500000000E+03 0.  0.
   -5000001    1    1    2    0    0 -0.20160922348E+03 -0.28018371752E+03  0.49885555867E+03  0.62867405145E+03  0.16500000000E+03 0.  0.
<mgrwt>
<rscale>  0 0.90868311E+03</rscale>
<asrwt>0</asrwt>
<pdfrwt beam="1">  1        2 0.40260584E-01 0.90868311E+03</pdfrwt>
<pdfrwt beam="2">  1       -2 0.10463784E+00 0.90868311E+03</pdfrwt>
<totfact> 0.95071500E+01</totfact>
</mgrwt>
</event>
<event>
 4    1  0.5323640E-005  0.3729250E+03  0.7818608E-02  0.1053580E+00
          2   -1    0    0  501    0  0.00000000000E+00  0.00000000000E+00  0.32113534544E+03  0.32113534545E+03  0.25500000000E-02 0.  1.
         -2   -1    0    0    0  501 -0.00000000000E+00 -0.00000000000E+00 -0.10826671964E+03  0.10826671967E+03  0.25500000000E-02 0. -1.
    5000001    1    1    2    0    0 -0.25546400717E+00  0.86789616649E+02  0.11021266174E+03  0.21657408346E+03  0.16500000000E+03 0.  0.
   -5000001    1    1    2    0    0  0.25546400717E+00 -0.86789616649E+02  0.10265596406E+03  0.21282798166E+03  0.16500000000E+03 0.  0.
<mgrwt>
<rscale>  0 0.37292503E+03</rscale>
<asrwt>0</asrwt>
<pdfrwt beam="1">  1        2 0.45876477E-01 0.37292503E+03</pdfrwt>
<pdfrwt beam="2">  1       -2 0.15466674E-01 0.37292503E+03</pdfrwt>
<totfact> 0.35994723E+03</totfact>
</mgrwt>
</event>
<event>
 4    1  0.5323640E-005  0.4322078E+03  0.7818608E-02  0.1033165E+00
         -2   -1    0    0    0  501 -0.00000000000E+00  0.00000000000E+00  0.27079500791E+03  0.27079500792E+03  0.25500000000E-02 0. -1.
          2   -1    0    0  501    0  0.00000000000E+00 -0.00000000000E+00 -0.17245844229E+03  0.17245844231E+03  0.25500000000E-02 0.  1.
    5000001    1    1    2    0    0  0.12893691925E+03 -0.51958506249E+02  0.61790117954E+02  0.22442690167E+03  0.16500000000E+03 0.  0.
   -5000001    1    1    2    0    0 -0.12893691925E+03  0.51958506249E+02  0.36546447662E+02  0.21882654856E+03  0.16500000000E+03 0.  0.
<mgrwt>
<rscale>  0 0.43220775E+03</rscale>
<asrwt>0</asrwt>
<pdfrwt beam="1">  1        2 0.24636921E-01 0.43220775E+03</pdfrwt>
<pdfrwt beam="2">  1       -2 0.38685001E-01 0.43220775E+03</pdfrwt>
<totfact> 0.14011793E+03</totfact>
</mgrwt>
</event>
<event>
 4    1  0.5323640E-005  0.8695229E+03  0.7818608E-02  0.9464502E-01
         -2   -1    0    0    0  501 -0.00000000000E+00  0.00000000000E+00  0.19977116232E+03  0.19977116234E+03  0.25500000000E-02 0. -1.
          2   -1    0    0  501    0  0.00000000000E+00 -0.00000000000E+00 -0.94617020216E+03  0.94617020217E+03  0.25500000000E-02 0.  1.
    5000001    1    1    2    0    0 -0.12774601229E+03  0.27227822514E+03 -0.72519895971E+03  0.80224248622E+03  0.16500000000E+03 0.  0.
   -5000001    1    1    2    0    0  0.12774601229E+03 -0.27227822514E+03 -0.21200080132E+02  0.34369887829E+03  0.16500000000E+03 0.  0.
<mgrwt>
<rscale>  0 0.86952291E+03</rscale>
<asrwt>0</asrwt>
<pdfrwt beam="1">  1        2 0.13516717E+00 0.86952291E+03</pdfrwt>
<pdfrwt beam="2">  1       -2 0.28538738E-01 0.86952291E+03</pdfrwt>
<totfact> 0.34173891E+02</totfact>
</mgrwt>
</event>
<event>
 4    1  0.5323640E-005  0.1285438E+04  0.7818608E-02  0.9041194E-01
         -2   -1    0    0    0  501 -0.00000000000E+00  0.00000000000E+00  0.58762034226E+03  0.58762034226E+03  0.25500000000E-02 0. -1.
          2   -1    0    0  501    0  0.00000000000E+00 -0.00000000000E+00 -0.70298367165E+03  0.70298367166E+03  0.25500000000E-02 0.  1.
    5000001    1    1    2    0    0  0.24303793211E+03 -0.56743921853E+03 -0.12729866377E+03  0.65152486750E+03  0.16500000000E+03 0.  0.
   -5000001    1    1    2    0    0 -0.24303793211E+03  0.56743921853E+03  0.11935334371E+02  0.63907914642E+03  0.16500000000E+03 0.  0.
<mgrwt>
<rscale>  0 0.12854377E+04</rscale>
<asrwt>0</asrwt>
<pdfrwt beam="1">  1        2 0.10042624E+00 0.12854377E+04</pdfrwt>
<pdfrwt beam="2">  1       -2 0.83945764E-01 0.12854377E+04</pdfrwt>
<totfact> 0.54540845E+01</totfact>
</mgrwt>
</event>
<event>
 4    1  0.5323640E-005  0.7620572E+03  0.7818608E-02  0.9616622E-01
          2   -1    0    0  501    0  0.00000000000E+00  0.00000000000E+00  0.17833554327E+04  0.17833554327E+04  0.25500000000E-02 0.  1.
         -2   -1    0    0    0  501 -0.00000000000E+00 -0.00000000000E+00 -0.81409899034E+02  0.81409899074E+02  0.25500000000E-02 0. -1.
    5000001    1    1    2    0    0  0.39451735261E+02 -0.33615993061E+03  0.99361185787E+03  0.10625673920E+04  0.16500000000E+03 0.  0.
   -5000001    1    1    2    0    0 -0.39451735261E+02  0.33615993061E+03  0.70833367576E+03  0.80219793977E+03  0.16500000000E+03 0.  0.
<mgrwt>
<rscale>  0 0.76205718E+03</rscale>
<asrwt>0</asrwt>
<pdfrwt beam="1">  1        2 0.25476502E+00 0.76205718E+03</pdfrwt>
<pdfrwt beam="2">  1       -2 0.11629987E-01 0.76205718E+03</pdfrwt>
<totfact> 0.56440099E+02</totfact>
</mgrwt>
</event>
<event>
 4    1  0.5323640E-005  0.9284149E+03  0.7818608E-02  0.9390742E-01
          2   -1    0    0  501    0  0.00000000000E+00  0.00000000000E+00  0.60532424222E+03  0.60532424223E+03  0.25500000000E-02 0.  1.
         -2   -1    0    0    0  501 -0.00000000000E+00 -0.00000000000E+00 -0.35598865351E+03  0.35598865352E+03  0.25500000000E-02 0. -1.
    5000001    1    1    2    0    0  0.30922893487E+03  0.26897486497E+03 -0.22835483635E+02  0.44239854369E+03  0.16500000000E+03 0.  0.
   -5000001    1    1    2    0    0 -0.30922893487E+03 -0.26897486497E+03  0.27217107235E+03  0.51891435206E+03  0.16500000000E+03 0.  0.
<mgrwt>
<rscale>  0 0.92841491E+03</rscale>
<asrwt>0</asrwt>
<pdfrwt beam="1">  1        2 0.86474891E-01 0.92841491E+03</pdfrwt>
<pdfrwt beam="2">  1       -2 0.50855522E-01 0.92841491E+03</pdfrwt>
<totfact> 0.19657771E+02</totfact>
</mgrwt>
</event>
<event>
 4    1  0.5323640E-005  0.4292898E+03  0.7818608E-02  0.1034085E+00
         -2   -1    0    0    0  501 -0.00000000000E+00  0.00000000000E+00  0.56404593886E+02  0.56404593943E+02  0.25500000000E-02 0. -1.
          2   -1    0    0  501    0  0.00000000000E+00 -0.00000000000E+00 -0.81682056819E+03  0.81682056819E+03  0.25500000000E-02 0.  1.
    5000001    1    1    2    0    0 -0.65511864042E+02  0.92960969618E+02 -0.22378082798E+03  0.30039375022E+03  0.16500000000E+03 0.  0.
   -5000001    1    1    2    0    0  0.65511864042E+02 -0.92960969618E+02 -0.53663514633E+03  0.57283141191E+03  0.16500000000E+03 0.  0.
<mgrwt>
<rscale>  0 0.42928980E+03</rscale>
<asrwt>0</asrwt>
<pdfrwt beam="1">  1        2 0.11668865E+00 0.42928980E+03</pdfrwt>
<pdfrwt beam="2">  1       -2 0.80577996E-02 0.42928980E+03</pdfrwt>
<totfact> 0.35725053E+03</totfact>
</mgrwt>
</event>
<event>
 4    1  0.5323640E-005  0.3798173E+03  0.7818608E-02  0.1051001E+00
         -2   -1    0    0    0  501 -0.00000000000E+00  0.00000000000E+00  0.23321724039E+02  0.23321724178E+02  0.25500000000E-02 0. -1.
          2   -1    0    0  501    0  0.00000000000E+00 -0.00000000000E+00 -0.15464247624E+04  0.15464247624E+04  0.25500000000E-02 0.  1.
    5000001    1    1    2    0    0  0.83121101097E+02 -0.66984852133E+01 -0.58205306960E+03  0.61070841077E+03  0.16500000000E+03 0.  0.
   -5000001    1    1    2    0    0 -0.83121101097E+02  0.66984852133E+01 -0.94104996872E+03  0.95903807578E+03  0.16500000000E+03 0.  0.
<mgrwt>
<rscale>  0 0.37981728E+03</rscale>
<asrwt>0</asrwt>
<pdfrwt beam="1">  1        2 0.22091776E+00 0.37981728E+03</pdfrwt>
<pdfrwt beam="2">  1       -2 0.33316759E-02 0.37981728E+03</pdfrwt>
<totfact> 0.53687382E+03</totfact>
</mgrwt>
</event>
<event>
 4    1  0.5323640E-005  0.3805310E+03  0.7818608E-02  0.1050738E+00
         -2   -1    0    0    0  501 -0.00000000000E+00  0.00000000000E+00  0.13478101500E+04  0.13478101500E+04  0.25500000000E-02 0. -1.
          2   -1    0    0  501    0  0.00000000000E+00 -0.00000000000E+00 -0.26859093287E+02  0.26859093408E+02  0.25500000000E-02 0.  1.
    5000001    1    1    2    0    0 -0.77748708705E+01  0.89561203201E+02  0.55244412469E+03  0.58352477980E+03  0.16500000000E+03 0.  0.
   -5000001    1    1    2    0    0  0.77748708705E+01 -0.89561203201E+02  0.76850693205E+03  0.79114446364E+03  0.16500000000E+03 0.  0.
<mgrwt>
<rscale>  0 0.38053099E+03</rscale>
<asrwt>0</asrwt>
<pdfrwt beam="1">  1        2 0.38370135E-02 0.38053099E+03</pdfrwt>
<pdfrwt beam="2">  1       -2 0.19254430E+00 0.38053099E+03</pdfrwt>
<totfact> 0.36177457E+02</totfact>
</mgrwt>
</event>
<event>
 4    1  0.5323640E-005  0.9824537E+03  0.7818608E-02  0.9328001E-01
         -2   -1    0    0    0  501 -0.00000000000E+00  0.00000000000E+00  0.81578123161E+02  0.81578123201E+02  0.25500000000E-02 0. -1.
          2   -1    0    0  501    0  0.00000000000E+00 -0.00000000000E+00 -0.29579478745E+04  0.29579478745E+04  0.25500000000E-02 0.  1.
    5000001    1    1    2    0    0 -0.10153478805E+03 -0.26207343860E+03 -0.30107982249E+03  0.44369568390E+03  0.16500000000E+03 0.  0.
   -5000001    1    1    2    0    0  0.10153478805E+03  0.26207343860E+03 -0.25752899289E+04  0.25958303138E+04  0.16500000000E+03 0.  0.
<mgrwt>
<rscale>  0 0.98245374E+03</rscale>
<asrwt>0</asrwt>
<pdfrwt beam="1">  1        2 0.42256391E+00 0.98245374E+03</pdfrwt>
<pdfrwt beam="2">  1       -2 0.11654019E-01 0.98245374E+03</pdfrwt>
<totfact> 0.13591420E+02</totfact>
</mgrwt>
</event>
<event>
 4    1  0.5323640E-005  0.5243988E+03  0.7818608E-02  0.1007600E+00
         -2   -1    0    0    0  501 -0.00000000000E+00  0.00000000000E+00  0.42063519001E+03  0.42063519002E+03  0.25500000000E-02 0. -1.
          2   -1    0    0  501    0  0.00000000000E+00 -0.00000000000E+00 -0.16343976009E+03  0.16343976011E+03  0.25500000000E-02 0.  1.
    5000001    1    1    2    0    0  0.19883826478E+03 -0.10844505704E+02  0.17675270339E+03  0.31324236144E+03  0.16500000000E+03 0.  0.
   -5000001    1    1    2    0    0 -0.19883826478E+03  0.10844505704E+02  0.80442726531E+02  0.27083258869E+03  0.16500000000E+03 0.  0.
<mgrwt>
<rscale>  0 0.52439876E+03</rscale>
<asrwt>0</asrwt>
<pdfrwt beam="1">  1        2 0.23348537E-01 0.52439876E+03</pdfrwt>
<pdfrwt beam="2">  1       -2 0.60090742E-01 0.52439876E+03</pdfrwt>
<totfact> 0.61647405E+02</totfact>
</mgrwt>
</event>
<event>
 4    1  0.5323640E-005  0.6396429E+03  0.7818608E-02  0.9826410E-01
         -2   -1    0    0    0  501 -0.00000000000E+00  0.00000000000E+00  0.13239064240E+03  0.13239064242E+03  0.25500000000E-02 0. -1.
          2   -1    0    0  501    0  0.00000000000E+00 -0.00000000000E+00 -0.77260563517E+03  0.77260563517E+03  0.25500000000E-02 0.  1.
    5000001    1    1    2    0    0  0.76945503752E+02 -0.26285246710E+03 -0.32998372675E+03  0.45948480925E+03  0.16500000000E+03 0.  0.
   -5000001    1    1    2    0    0 -0.76945503752E+02  0.26285246710E+03 -0.31023126602E+03  0.44551146835E+03  0.16500000000E+03 0.  0.
<mgrwt>
<rscale>  0 0.63964289E+03</rscale>
<asrwt>0</asrwt>
<pdfrwt beam="1">  1        2 0.11037223E+00 0.63964289E+03</pdfrwt>
<pdfrwt beam="2">  1       -2 0.18912949E-01 0.63964289E+03</pdfrwt>
<totfact> 0.93813133E+02</totfact>
</mgrwt>
</event>
<event>
 4    1  0.5323640E-005  0.6540684E+03  0.7818608E-02  0.9799175E-01
         -2   -1    0    0    0  501 -0.00000000000E+00  0.00000000000E+00  0.27180036644E+03  0.27180036645E+03  0.25500000000E-02 0. -1.
          2   -1    0    0  501    0  0.00000000000E+00 -0.00000000000E+00 -0.39349237646E+03  0.39349237647E+03  0.25500000000E-02 0.  1.
    5000001    1    1    2    0    0  0.16642471892E+03  0.12407169770E+03 -0.25553440339E+03  0.36825779632E+03  0.16500000000E+03 0.  0.
   -5000001    1    1    2    0    0 -0.16642471892E+03 -0.12407169770E+03  0.13384239336E+03  0.29703494659E+03  0.16500000000E+03 0.  0.
<mgrwt>
<rscale>  0 0.65406841E+03</rscale>
<asrwt>0</asrwt>
<pdfrwt beam="1">  1        2 0.56213197E-01 0.65406841E+03</pdfrwt>
<pdfrwt beam="2">  1       -2 0.38828624E-01 0.65406841E+03</pdfrwt>
<totfact> 0.55567305E+02</totfact>
</mgrwt>
</event>
<event>
 4    1  0.5323640E-005  0.8718185E+03  0.7818608E-02  0.9461512E-01
          2   -1    0    0  501    0  0.00000000000E+00  0.00000000000E+00  0.16885663643E+04  0.16885663643E+04  0.25500000000E-02 0.  1.
         -2   -1    0    0    0  501 -0.00000000000E+00 -0.00000000000E+00 -0.11253148859E+03  0.11253148862E+03  0.25500000000E-02 0. -1.
    5000001    1    1    2    0    0 -0.18578848177E+03  0.33041279997E+03  0.50248885416E+03  0.65069964415E+03  0.16500000000E+03 0.  0.
   -5000001    1    1    2    0    0  0.18578848177E+03 -0.33041279997E+03  0.10735460215E+04  0.11503982087E+04  0.16500000000E+03 0.  0.
<mgrwt>
<rscale>  0 0.87181853E+03</rscale>
<asrwt>0</asrwt>
<pdfrwt beam="1">  1        2 0.24122375E+00 0.87181853E+03</pdfrwt>
<pdfrwt beam="2">  1       -2 0.16075928E-01 0.87181853E+03</pdfrwt>
<totfact> 0.36440015E+02</totfact>
</mgrwt>
</event>
<event>
 4    1  0.5323640E-005  0.4557167E+03  0.7818608E-02  0.1026031E+00
          2   -1    0    0  501    0  0.00000000000E+00  0.00000000000E+00  0.52456204374E+03  0.52456204375E+03  0.25500000000E-02 0.  1.
         -2   -1    0    0    0  501 -0.00000000000E+00 -0.00000000000E+00 -0.98976694984E+02  0.98976695017E+02  0.25500000000E-02 0. -1.
    5000001    1    1    2    0    0  0.13850659492E+03 -0.53650610159E+02  0.14259744915E+03  0.26385885869E+03  0.16500000000E+03 0.  0.
   -5000001    1    1    2    0    0 -0.13850659492E+03  0.53650610159E+02  0.28298789961E+03  0.35967988007E+03  0.16500000000E+03 0.  0.
<mgrwt>
<rscale>  0 0.45571666E+03</rscale>
<asrwt>0</asrwt>
<pdfrwt beam="1">  1        2 0.74937434E-01 0.45571666E+03</pdfrwt>
<pdfrwt beam="2">  1       -2 0.14139528E-01 0.45571666E+03</pdfrwt>
<totfact> 0.24394059E+03</totfact>
</mgrwt>
</event>
<event>
 4    1  0.5323640E-005  0.9536455E+03  0.7818608E-02  0.9360900E-01
          2   -1    0    0  501    0  0.00000000000E+00  0.00000000000E+00  0.28025894222E+04  0.28025894222E+04  0.25500000000E-02 0.  1.
         -2   -1    0    0    0  501 -0.00000000000E+00 -0.00000000000E+00 -0.81124949262E+02  0.81124949302E+02  0.25500000000E-02 0. -1.
    5000001    1    1    2    0    0  0.28510270956E+03  0.27677028255E+03  0.19822828335E+04  0.20284367321E+04  0.16500000000E+03 0.  0.
   -5000001    1    1    2    0    0 -0.28510270956E+03 -0.27677028255E+03  0.73918163941E+03  0.85527763933E+03  0.16500000000E+03 0.  0.
<mgrwt>
<rscale>  0 0.95364548E+03</rscale>
<asrwt>0</asrwt>
<pdfrwt beam="1">  1        2 0.40037001E+00 0.95364548E+03</pdfrwt>
<pdfrwt beam="2">  1       -2 0.11589276E-01 0.95364548E+03</pdfrwt>
<totfact> 0.16697900E+02</totfact>
</mgrwt>
</event>
<event>
 4    1  0.5323640E-005  0.3901937E+03  0.7818608E-02  0.1047229E+00
         -2   -1    0    0    0  501 -0.00000000000E+00  0.00000000000E+00  0.17768147143E+02  0.17768147326E+02  0.25500000000E-02 0. -1.
          2   -1    0    0  501    0  0.00000000000E+00 -0.00000000000E+00 -0.21421921831E+04  0.21421921831E+04  0.25500000000E-02 0.  1.
    5000001    1    1    2    0    0  0.10357579083E+03 -0.98380599285E+01 -0.10422114912E+04  0.10603086929E+04  0.16500000000E+03 0.  0.
   -5000001    1    1    2    0    0 -0.10357579083E+03  0.98380599285E+01 -0.10822125448E+04  0.10996516376E+04  0.16500000000E+03 0.  0.
<mgrwt>
<rscale>  0 0.39019373E+03</rscale>
<asrwt>0</asrwt>
<pdfrwt beam="1">  1        2 0.30602729E+00 0.39019373E+03</pdfrwt>
<pdfrwt beam="2">  1       -2 0.25383081E-02 0.39019373E+03</pdfrwt>
<totfact> 0.40809877E+03</totfact>
</mgrwt>
</event>
<event>
 4    1  0.5323640E-005  0.5431244E+03  0.7818608E-02  0.1003098E+00
         -2   -1    0    0    0  501 -0.00000000000E+00  0.00000000000E+00  0.48572829581E+02  0.48572829648E+02  0.25500000000E-02 0. -1.
          2   -1    0    0  501    0  0.00000000000E+00 -0.00000000000E+00 -0.15182569664E+04  0.15182569664E+04  0.25500000000E-02 0.  1.
    5000001    1    1    2    0    0 -0.45626418345E+02  0.75637029153E+02 -0.13024920927E+04  0.13158698195E+04  0.16500000000E+03 0.  0.
   -5000001    1    1    2    0    0  0.45626418345E+02 -0.75637029153E+02 -0.16719204411E+03  0.25095997658E+03  0.16500000000E+03 0.  0.
<mgrwt>
<rscale>  0 0.54312443E+03</rscale>
<asrwt>0</asrwt>
<pdfrwt beam="1">  1        2 0.21689382E+00 0.54312443E+03</pdfrwt>
<pdfrwt beam="2">  1       -2 0.69389766E-02 0.54312443E+03</pdfrwt>
<totfact> 0.17909792E+03</totfact>
</mgrwt>
</event>
<event>
 4    1  0.5323640E-005  0.4312938E+03  0.7818608E-02  0.1033452E+00
          2   -1    0    0  501    0  0.00000000000E+00  0.00000000000E+00  0.12703848556E+03  0.12703848559E+03  0.25500000000E-02 0.  1.
         -2   -1    0    0    0  501 -0.00000000000E+00 -0.00000000000E+00 -0.36605905377E+03  0.36605905378E+03  0.25500000000E-02 0. -1.
    5000001    1    1    2    0    0 -0.87662158350E+02  0.10662582797E+03 -0.13665467714E+03  0.25485921992E+03  0.16500000000E+03 0.  0.
   -5000001    1    1    2    0    0  0.87662158350E+02 -0.10662582797E+03 -0.10236589107E+03  0.23823831944E+03  0.16500000000E+03 0.  0.
<mgrwt>
<rscale>  0 0.43129381E+03</rscale>
<asrwt>0</asrwt>
<pdfrwt beam="1">  1        2 0.18148355E-01 0.43129381E+03</pdfrwt>
<pdfrwt beam="2">  1       -2 0.52294150E-01 0.43129381E+03</pdfrwt>
<totfact> 0.11000220E+03</totfact>
</mgrwt>
</event>
<event>
 4    1  0.5323640E-005  0.3965199E+03  0.7818608E-02  0.1044991E+00
          2   -1    0    0  501    0  0.00000000000E+00  0.00000000000E+00  0.21417239392E+04  0.21417239392E+04  0.25500000000E-02 0.  1.
         -2   -1    0    0    0  501 -0.00000000000E+00 -0.00000000000E+00 -0.18352979398E+02  0.18352979575E+02  0.25500000000E-02 0. -1.
    5000001    1    1    2    0    0 -0.10045777711E+03  0.28614559924E+02  0.12481376553E+04  0.12633222726E+04  0.16500000000E+03 0.  0.
   -5000001    1    1    2    0    0  0.10045777711E+03 -0.28614559924E+02  0.87523330448E+03  0.89675464610E+03  0.16500000000E+03 0.  0.
<mgrwt>
<rscale>  0 0.39651994E+03</rscale>
<asrwt>0</asrwt>
<pdfrwt beam="1">  1        2 0.30596042E+00 0.39651994E+03</pdfrwt>
<pdfrwt beam="2">  1       -2 0.26218554E-02 0.39651994E+03</pdfrwt>
<totfact> 0.38893371E+03</totfact>
</mgrwt>
</event>
<event>
 4    1  0.5323640E-005  0.5048645E+03  0.7818608E-02  0.1012517E+00
         -2   -1    0    0    0  501 -0.00000000000E+00  0.00000000000E+00  0.99370677019E+02  0.99370677052E+02  0.25500000000E-02 0. -1.
          2   -1    0    0  501    0  0.00000000000E+00 -0.00000000000E+00 -0.64125604413E+03  0.64125604413E+03  0.25500000000E-02 0.  1.
    5000001    1    1    2    0    0  0.19000280776E+02 -0.14615138777E+03 -0.92622645867E+02  0.23984410216E+03  0.16500000000E+03 0.  0.
   -5000001    1    1    2    0    0 -0.19000280776E+02  0.14615138777E+03 -0.44926272124E+03  0.50078261902E+03  0.16500000000E+03 0.  0.
<mgrwt>
<rscale>  0 0.50486453E+03</rscale>
<asrwt>0</asrwt>
<pdfrwt beam="1">  1        2 0.91608004E-01 0.50486453E+03</pdfrwt>
<pdfrwt beam="2">  1       -2 0.14195811E-01 0.50486453E+03</pdfrwt>
<totfact> 0.19208766E+03</totfact>
</mgrwt>
</event>
<event>
 4    1  0.5323640E-005  0.1734939E+04  0.7818608E-02  0.8741685E-01
          2   -1    0    0  501    0  0.00000000000E+00  0.00000000000E+00  0.78520284352E+03  0.78520284353E+03  0.25500000000E-02 0.  1.
         -2   -1    0    0    0  501 -0.00000000000E+00 -0.00000000000E+00 -0.95835489986E+03  0.95835489986E+03  0.25500000000E-02 0. -1.
    5000001    1    1    2    0    0 -0.42537258200E+03  0.41228175329E+03 -0.70146526848E+03  0.93284328828E+03  0.16500000000E+03 0.  0.
   -5000001    1    1    2    0    0  0.42537258200E+03 -0.41228175329E+03  0.52831321214E+03  0.81071445511E+03  0.16500000000E+03 0.  0.
<mgrwt>
<rscale>  0 0.17349386E+04</rscale>
<asrwt>0</asrwt>
<pdfrwt beam="1">  1        2 0.11217184E+00 0.17349386E+04</pdfrwt>
<pdfrwt beam="2">  1       -2 0.13690784E+00 0.17349386E+04</pdfrwt>
<totfact> 0.14098598E+01</totfact>
</mgrwt>
</event>
<event>
 4    1  0.5323640E-005  0.4819132E+03  0.7818608E-02  0.1018611E+00
          2   -1    0    0  501    0  0.00000000000E+00  0.00000000000E+00  0.22564066626E+04  0.22564066626E+04  0.25500000000E-02 0.  1.
         -2   -1    0    0    0  501 -0.00000000000E+00 -0.00000000000E+00 -0.25731210244E+02  0.25731210371E+02  0.25500000000E-02 0. -1.
    5000001    1    1    2    0    0 -0.96986567002E+02  0.23423153661E+02  0.43105006184E+03  0.47221202242E+03  0.16500000000E+03 0.  0.
   -5000001    1    1    2    0    0  0.96986567002E+02 -0.23423153661E+02  0.17996253905E+04  0.18099258505E+04  0.16500000000E+03 0.  0.
<mgrwt>
<rscale>  0 0.48191316E+03</rscale>
<asrwt>0</asrwt>
<pdfrwt beam="1">  1        2 0.32234392E+00 0.48191316E+03</pdfrwt>
<pdfrwt beam="2">  1       -2 0.36758860E-02 0.48191316E+03</pdfrwt>
<totfact> 0.20400068E+03</totfact>
</mgrwt>
</event>
<event>
 4    1  0.5323640E-005  0.5869925E+03  0.7818608E-02  0.9932766E-01
         -2   -1    0    0    0  501 -0.00000000000E+00  0.00000000000E+00  0.11066219894E+03  0.11066219897E+03  0.25500000000E-02 0. -1.
          2   -1    0    0  501    0  0.00000000000E+00 -0.00000000000E+00 -0.77840541290E+03  0.77840541290E+03  0.25500000000E-02 0.  1.
    5000001    1    1    2    0    0 -0.16350995441E+03 -0.88231837197E+02 -0.97306931332E+02  0.26685951580E+03  0.16500000000E+03 0.  0.
   -5000001    1    1    2    0    0  0.16350995441E+03  0.88231837197E+02 -0.57043628262E+03  0.62220809607E+03  0.16500000000E+03 0.  0.
<mgrwt>
<rscale>  0 0.58699252E+03</rscale>
<asrwt>0</asrwt>
<pdfrwt beam="1">  1        2 0.11120077E+00 0.58699252E+03</pdfrwt>
<pdfrwt beam="2">  1       -2 0.15808886E-01 0.58699252E+03</pdfrwt>
<totfact> 0.12641171E+03</totfact>
</mgrwt>
</event>
<event>
 4    1  0.5323640E-005  0.1573669E+04  0.7818608E-02  0.8836890E-01
         -2   -1    0    0    0  501 -0.00000000000E+00  0.00000000000E+00  0.42583427088E+03  0.42583427089E+03  0.25500000000E-02 0. -1.
          2   -1    0    0  501    0  0.00000000000E+00 -0.00000000000E+00 -0.14538714513E+04  0.14538714513E+04  0.25500000000E-02 0.  1.
    5000001    1    1    2    0    0  0.27312015218E+03 -0.63779287951E+03 -0.11694114833E+03  0.72268569022E+03  0.16500000000E+03 0.  0.
   -5000001    1    1    2    0    0 -0.27312015218E+03  0.63779287951E+03 -0.91109603207E+03  0.11570200320E+04  0.16500000000E+03 0.  0.
<mgrwt>
<rscale>  0 0.15736687E+04</rscale>
<asrwt>0</asrwt>
<pdfrwt beam="1">  1        2 0.20769592E+00 0.15736687E+04</pdfrwt>
<pdfrwt beam="2">  1       -2 0.60833468E-01 0.15736687E+04</pdfrwt>
<totfact> 0.37466337E+01</totfact>
</mgrwt>
</event>
<event>
 4    1  0.5323640E-005  0.4593256E+03  0.7818608E-02  0.1024977E+00
         -2   -1    0    0    0  501 -0.00000000000E+00  0.00000000000E+00  0.16327598859E+03  0.16327598861E+03  0.25500000000E-02 0. -1.
          2   -1    0    0  501    0  0.00000000000E+00 -0.00000000000E+00 -0.32304196222E+03  0.32304196223E+03  0.25500000000E-02 0.  1.
    5000001    1    1    2    0    0 -0.73197053323E+01  0.12751020682E+03  0.21711950391E+02  0.20978283943E+03  0.16500000000E+03 0.  0.
   -5000001    1    1    2    0    0  0.73197053323E+01 -0.12751020682E+03 -0.18147792403E+03  0.27653511140E+03  0.16500000000E+03 0.  0.
<mgrwt>
<rscale>  0 0.45932557E+03</rscale>
<asrwt>0</asrwt>
<pdfrwt beam="1">  1        2 0.46148852E-01 0.45932557E+03</pdfrwt>
<pdfrwt beam="2">  1       -2 0.23325141E-01 0.45932557E+03</pdfrwt>
<totfact> 0.17719559E+03</totfact>
</mgrwt>
</event>
<event>
 4    1  0.5323640E-005  0.1000562E+04  0.7818608E-02  0.9307929E-01
          2   -1    0    0  501    0  0.00000000000E+00  0.00000000000E+00  0.15709631492E+03  0.15709631494E+03  0.25500000000E-02 0.  1.
         -2   -1    0    0    0  501 -0.00000000000E+00 -0.00000000000E+00 -0.15931688518E+04  0.15931688518E+04  0.25500000000E-02 0. -1.
    5000001    1    1    2    0    0 -0.29509006341E+03 -0.31083590908E+03 -0.37099498583E+03  0.59038918300E+03  0.16500000000E+03 0.  0.
   -5000001    1    1    2    0    0  0.29509006341E+03  0.31083590908E+03 -0.10650775510E+04  0.11598759837E+04  0.16500000000E+03 0.  0.
<mgrwt>
<rscale>  0 0.10005618E+04</rscale>
<asrwt>0</asrwt>
<pdfrwt beam="1">  1        2 0.22442332E-01 0.10005618E+04</pdfrwt>
<pdfrwt beam="2">  1       -2 0.22759554E+00 0.10005618E+04</pdfrwt>
<totfact> 0.22072570E+01</totfact>
</mgrwt>
</event>
<event>
 4    1  0.5323640E-005  0.4972766E+03  0.7818608E-02  0.1014492E+00
         -2   -1    0    0    0  501 -0.00000000000E+00  0.00000000000E+00  0.17837912976E+02  0.17837913158E+02  0.25500000000E-02 0. -1.
          2   -1    0    0  501    0  0.00000000000E+00 -0.00000000000E+00 -0.34657077837E+04  0.34657077837E+04  0.25500000000E-02 0.  1.
    5000001    1    1    2    0    0  0.13549150296E+03 -0.12568993087E+02 -0.83561899864E+03  0.86255436805E+03  0.16500000000E+03 0.  0.
   -5000001    1    1    2    0    0 -0.13549150296E+03  0.12568993087E+02 -0.26122508720E+04  0.26209913288E+04  0.16500000000E+03 0.  0.
<mgrwt>
<rscale>  0 0.49727656E+03</rscale>
<asrwt>0</asrwt>
<pdfrwt beam="1">  1        2 0.49510068E+00 0.49727656E+03</pdfrwt>
<pdfrwt beam="2">  1       -2 0.25482755E-02 0.49727656E+03</pdfrwt>
<totfact> 0.80056130E+02</totfact>
</mgrwt>
</event>
<event>
 4    1  0.5323640E-005  0.5194300E+03  0.7818608E-02  0.1008828E+00
          2   -1    0    0  501    0  0.00000000000E+00  0.00000000000E+00  0.26610527381E+04  0.26610527381E+04  0.25500000000E-02 0.  1.
         -2   -1    0    0    0  501 -0.00000000000E+00 -0.00000000000E+00 -0.25347815224E+02  0.25347815352E+02  0.25500000000E-02 0. -1.
    5000001    1    1    2    0    0 -0.19366110982E+03 -0.41986089584E+02  0.11576580847E+04  0.11860289618E+04  0.16500000000E+03 0.  0.
   -5000001    1    1    2    0    0  0.19366110982E+03  0.41986089584E+02  0.14780468382E+04  0.15003715917E+04  0.16500000000E+03 0.  0.
<mgrwt>
<rscale>  0 0.51942997E+03</rscale>
<asrwt>0</asrwt>
<pdfrwt beam="1">  1        2 0.38015033E+00 0.51942997E+03</pdfrwt>
<pdfrwt beam="2">  1       -2 0.36211170E-02 0.51942997E+03</pdfrwt>
<totfact> 0.12960616E+03</totfact>
</mgrwt>
</event>
<event>
 4    1  0.5323640E-005  0.4872817E+03  0.7818608E-02  0.1017153E+00
          2   -1    0    0  501    0  0.00000000000E+00  0.00000000000E+00  0.33785240181E+03  0.33785240182E+03  0.25500000000E-02 0. -1.
         -2   -1    0    0    0  501 -0.00000000000E+00 -0.00000000000E+00 -0.17570059407E+03  0.17570059409E+03  0.25500000000E-02 0.  1.
    5000001    1    1    2    0    0 -0.57760908748E+02 -0.16970039493E+03  0.82287260646E+02  0.25715897784E+03  0.16500000000E+03 0.  0.
   -5000001    1    1    2    0    0  0.57760908748E+02  0.16970039493E+03  0.79864547094E+02  0.25639401807E+03  0.16500000000E+03 0.  0.
<mgrwt>
<rscale>  0 0.48728172E+03</rscale>
<asrwt>0</asrwt>
<pdfrwt beam="1">  1        2 0.48264628E-01 0.48728172E+03</pdfrwt>
<pdfrwt beam="2">  1       -2 0.25100085E-01 0.48728172E+03</pdfrwt>
<totfact> 0.14813601E+03</totfact>
</mgrwt>
</event>
<event>
 4    1  0.5323640E-005  0.4715660E+03  0.7818608E-02  0.1021479E+00
          2   -1    0    0  501    0  0.00000000000E+00  0.00000000000E+00  0.12094694737E+03  0.12094694740E+03  0.25500000000E-02 0.  1.
         -2   -1    0    0    0  501 -0.00000000000E+00 -0.00000000000E+00 -0.45965302459E+03  0.45965302460E+03  0.25500000000E-02 0. -1.
    5000001    1    1    2    0    0 -0.13089447455E+03  0.85983027289E+01 -0.39278412164E+02  0.21441802149E+03  0.16500000000E+03 0.  0.
   -5000001    1    1    2    0    0  0.13089447455E+03 -0.85983027289E+01 -0.29942766505E+03  0.36618195051E+03  0.16500000000E+03 0.  0.
<mgrwt>
<rscale>  0 0.47156603E+03</rscale>
<asrwt>0</asrwt>
<pdfrwt beam="1">  1        2 0.17278136E-01 0.47156603E+03</pdfrwt>
<pdfrwt beam="2">  1       -2 0.65664717E-01 0.47156603E+03</pdfrwt>
<totfact> 0.72585880E+02</totfact>
</mgrwt>
</event>
<event>
 4    1  0.5323640E-005  0.4551599E+03  0.7818608E-02  0.1026194E+00
         -2   -1    0    0    0  501 -0.00000000000E+00  0.00000000000E+00  0.24397887030E+02  0.24397887163E+02  0.25500000000E-02 0. -1.
          2   -1    0    0  501    0  0.00000000000E+00 -0.00000000000E+00 -0.21228328806E+04  0.21228328806E+04  0.25500000000E-02 0.  1.
    5000001    1    1    2    0    0 -0.10327826314E+03 -0.93684201903E+02 -0.71150993421E+03  0.74358221859E+03  0.16500000000E+03 0.  0.
   -5000001    1    1    2    0    0  0.10327826314E+03  0.93684201903E+02 -0.13869250594E+04  0.14036485492E+04  0.16500000000E+03 0.  0.
<mgrwt>
<rscale>  0 0.45515991E+03</rscale>
<asrwt>0</asrwt>
<pdfrwt beam="1">  1        2 0.30326172E+00 0.45515991E+03</pdfrwt>
<pdfrwt beam="2">  1       -2 0.34854138E-02 0.45515991E+03</pdfrwt>
<totfact> 0.25822531E+03</totfact>
</mgrwt>
</event>
<event>
 4    1  0.5323640E-005  0.8166645E+03  0.7818608E-02  0.9536204E-01
          2   -1    0    0  501    0  0.00000000000E+00  0.00000000000E+00  0.13699407706E+04  0.13699407706E+04  0.25500000000E-02 0.  1.
         -2   -1    0    0    0  501 -0.00000000000E+00 -0.00000000000E+00 -0.12170981297E+03  0.12170981300E+03  0.25500000000E-02 0. -1.
    5000001    1    1    2    0    0 -0.24502074221E+03  0.24349643837E+03  0.36461808089E+03  0.52867478143E+03  0.16500000000E+03 0.  0.
   -5000001    1    1    2    0    0  0.24502074221E+03 -0.24349643837E+03  0.88361287675E+03  0.96297580217E+03  0.16500000000E+03 0.  0.
<mgrwt>
<rscale>  0 0.81666452E+03</rscale>
<asrwt>0</asrwt>
<pdfrwt beam="1">  1        2 0.19570583E+00 0.81666452E+03</pdfrwt>
<pdfrwt beam="2">  1       -2 0.17387116E-01 0.81666452E+03</pdfrwt>
<totfact> 0.46995628E+02</totfact>
</mgrwt>
</event>
<event>
 4    1  0.5323640E-005  0.6433880E+03  0.7818608E-02  0.9819266E-01
          2   -1    0    0  501    0  0.00000000000E+00  0.00000000000E+00  0.51125467021E+03  0.51125467022E+03  0.25500000000E-02 0.  1.
         -2   -1    0    0    0  501 -0.00000000000E+00 -0.00000000000E+00 -0.20241775817E+03  0.20241775819E+03  0.25500000000E-02 0. -1.
    5000001    1    1    2    0    0 -0.76624406667E+02  0.25996052619E+03  0.21323177069E+03  0.38228727798E+03  0.16500000000E+03 0.  0.
   -5000001    1    1    2    0    0  0.76624406667E+02 -0.25996052619E+03  0.95605141354E+02  0.33138515043E+03  0.16500000000E+03 0.  0.
<mgrwt>
<rscale>  0 0.64338798E+03</rscale>
<asrwt>0</asrwt>
<pdfrwt beam="1">  1        2 0.73036381E-01 0.64338798E+03</pdfrwt>
<pdfrwt beam="2">  1       -2 0.28916823E-01 0.64338798E+03</pdfrwt>
<totfact> 0.72127001E+02</totfact>
</mgrwt>
</event>
<event>
 4    1  0.5323640E-005  0.7976291E+03  0.7818608E-02  0.9563455E-01
         -2   -1    0    0    0  501 -0.00000000000E+00  0.00000000000E+00  0.12410178909E+03  0.12410178912E+03  0.25500000000E-02 0. -1.
          2   -1    0    0  501    0  0.00000000000E+00 -0.00000000000E+00 -0.12816336968E+04  0.12816336968E+04  0.25500000000E-02 0.  1.
    5000001    1    1    2    0    0  0.29824296273E+03 -0.45922942412E+02 -0.22290991733E+03  0.40984340022E+03  0.16500000000E+03 0.  0.
   -5000001    1    1    2    0    0 -0.29824296273E+03  0.45922942412E+02 -0.93462199036E+03  0.99589208568E+03  0.16500000000E+03 0.  0.
<mgrwt>
<rscale>  0 0.79762907E+03</rscale>
<asrwt>0</asrwt>
<pdfrwt beam="1">  1        2 0.18309052E+00 0.79762907E+03</pdfrwt>
<pdfrwt beam="2">  1       -2 0.17728828E-01 0.79762907E+03</pdfrwt>
<totfact> 0.50826536E+02</totfact>
</mgrwt>
</event>
<event>
 4    1  0.5323640E-005  0.4438326E+03  0.7818608E-02  0.1029577E+00
         -2   -1    0    0    0  501 -0.00000000000E+00  0.00000000000E+00  0.24190582712E+03  0.24190582714E+03  0.25500000000E-02 0. -1.
          2   -1    0    0  501    0  0.00000000000E+00 -0.00000000000E+00 -0.20357856341E+03  0.20357856343E+03  0.25500000000E-02 0.  1.
    5000001    1    1    2    0    0 -0.72816601128E+02 -0.12421563179E+02 -0.11002158103E+03  0.21162774138E+03  0.16500000000E+03 0.  0.
   -5000001    1    1    2    0    0  0.72816601128E+02  0.12421563179E+02  0.14834884474E+03  0.23385664918E+03  0.16500000000E+03 0.  0.
<mgrwt>
<rscale>  0 0.44383258E+03</rscale>
<asrwt>0</asrwt>
<pdfrwt beam="1">  1        2 0.29082652E-01 0.44383258E+03</pdfrwt>
<pdfrwt beam="2">  1       -2 0.34557975E-01 0.44383258E+03</pdfrwt>
<totfact> 0.14403112E+03</totfact>
</mgrwt>
</event>
<event>
 4    1  0.5323640E-005  0.4437755E+03  0.7818608E-02  0.1029595E+00
         -2   -1    0    0    0  501 -0.00000000000E+00  0.00000000000E+00  0.32483297413E+02  0.32483297513E+02  0.25500000000E-02 0. -1.
          2   -1    0    0  501    0  0.00000000000E+00 -0.00000000000E+00 -0.15156766250E+04  0.15156766250E+04  0.25500000000E-02 0.  1.
    5000001    1    1    2    0    0 -0.73105509173E+02 -0.12373085653E+03 -0.87003413207E+03  0.89712771181E+03  0.16500000000E+03 0.  0.
   -5000001    1    1    2    0    0  0.73105509173E+02  0.12373085653E+03 -0.61315919550E+03  0.65103221069E+03  0.16500000000E+03 0.  0.
<mgrwt>
<rscale>  0 0.44377550E+03</rscale>
<asrwt>0</asrwt>
<pdfrwt beam="1">  1        2 0.21652519E+00 0.44377550E+03</pdfrwt>
<pdfrwt beam="2">  1       -2 0.46404720E-02 0.44377550E+03</pdfrwt>
<totfact> 0.33639298E+03</totfact>
</mgrwt>
</event>
<event>
 4    1  0.5323640E-005  0.6420033E+03  0.7818608E-02  0.9821901E-01
         -2   -1    0    0    0  501 -0.00000000000E+00  0.00000000000E+00  0.37953968132E+02  0.37953968217E+02  0.25500000000E-02 0. -1.
          2   -1    0    0  501    0  0.00000000000E+00 -0.00000000000E+00 -0.27149221269E+04  0.27149221269E+04  0.25500000000E-02 0.  1.
    5000001    1    1    2    0    0 -0.20824944344E+03  0.18013566738E+03 -0.13358455272E+04  0.13738722509E+04  0.16500000000E+03 0.  0.
   -5000001    1    1    2    0    0  0.20824944344E+03 -0.18013566738E+03 -0.13411226315E+04  0.13790038442E+04  0.16500000000E+03 0.  0.
<mgrwt>
<rscale>  0 0.64200333E+03</rscale>
<asrwt>0</asrwt>
<pdfrwt beam="1">  1        2 0.38784589E+00 0.64200333E+03</pdfrwt>
<pdfrwt beam="2">  1       -2 0.54219972E-02 0.64200333E+03</pdfrwt>
<totfact> 0.64550329E+02</totfact>
</mgrwt>
</event>
<event>
 4    1  0.5323640E-005  0.5437028E+03  0.7818608E-02  0.1002962E+00
          2   -1    0    0  501    0  0.00000000000E+00  0.00000000000E+00  0.14087536422E+04  0.14087536422E+04  0.25500000000E-02 0.  1.
         -2   -1    0    0    0  501 -0.00000000000E+00 -0.00000000000E+00 -0.52459975705E+02  0.52459975767E+02  0.25500000000E-02 0. -1.
    5000001    1    1    2    0    0 -0.49683149295E+02 -0.13028104316E+03  0.11216826781E+04  0.11422953190E+04  0.16500000000E+03 0.  0.
   -5000001    1    1    2    0    0  0.49683149295E+02  0.13028104316E+03  0.23461098846E+03  0.31891829900E+03  0.16500000000E+03 0.  0.
<mgrwt>
<rscale>  0 0.54370279E+03</rscale>
<asrwt>0</asrwt>
<pdfrwt beam="1">  1        2 0.20125049E+00 0.54370279E+03</pdfrwt>
<pdfrwt beam="2">  1       -2 0.74942835E-02 0.54370279E+03</pdfrwt>
<totfact> 0.18092908E+03</totfact>
</mgrwt>
</event>
<event>
 4    1  0.5323640E-005  0.4694659E+03  0.7818608E-02  0.1022071E+00
          2   -1    0    0  501    0  0.00000000000E+00  0.00000000000E+00  0.58117922107E+03  0.58117922107E+03  0.25500000000E-02 0.  1.
         -2   -1    0    0    0  501 -0.00000000000E+00 -0.00000000000E+00 -0.94806488683E+02  0.94806488717E+02  0.25500000000E-02 0. -1.
    5000001    1    1    2    0    0 -0.12621616062E+03 -0.93058970740E+02  0.16067008382E+03  0.27862226593E+03  0.16500000000E+03 0.  0.
   -5000001    1    1    2    0    0  0.12621616062E+03  0.93058970740E+02  0.32570264857E+03  0.39736344386E+03  0.16500000000E+03 0.  0.
<mgrwt>
<rscale>  0 0.46946591E+03</rscale>
<asrwt>0</asrwt>
<pdfrwt beam="1">  1        2 0.83025603E-01 0.46946591E+03</pdfrwt>
<pdfrwt beam="2">  1       -2 0.13543784E-01 0.46946591E+03</pdfrwt>
<totfact> 0.23300667E+03</totfact>
</mgrwt>
</event>
<event>
 4    1  0.5323640E-005  0.5148672E+03  0.7818608E-02  0.1009970E+00
          2   -1    0    0  501    0  0.00000000000E+00  0.00000000000E+00  0.20112273837E+03  0.20112273838E+03  0.25500000000E-02 0.  1.
         -2   -1    0    0    0  501 -0.00000000000E+00 -0.00000000000E+00 -0.32951052246E+03  0.32951052247E+03  0.25500000000E-02 0. -1.
    5000001    1    1    2    0    0 -0.12757429611E+03  0.15033290833E+03 -0.50682358301E+02  0.26204748768E+03  0.16500000000E+03 0.  0.
   -5000001    1    1    2    0    0  0.12757429611E+03 -0.15033290833E+03 -0.77705425790E+02  0.26858577317E+03  0.16500000000E+03 0.  0.
<mgrwt>
<rscale>  0 0.51486720E+03</rscale>
<asrwt>0</asrwt>
<pdfrwt beam="1">  1        2 0.28731820E-01 0.51486720E+03</pdfrwt>
<pdfrwt beam="2">  1       -2 0.47072932E-01 0.51486720E+03</pdfrwt>
<totfact> 0.80290786E+02</totfact>
</mgrwt>
</event>
<event>
 4    1  0.5323640E-005  0.4629233E+03  0.7818608E-02  0.1023937E+00
         -2   -1    0    0    0  501 -0.00000000000E+00  0.00000000000E+00  0.22553427020E+03  0.22553427022E+03  0.25500000000E-02 0. -1.
          2   -1    0    0  501    0  0.00000000000E+00 -0.00000000000E+00 -0.23754478619E+03  0.23754478621E+03  0.25500000000E-02 0.  1.
    5000001    1    1    2    0    0 -0.82173956037E+02  0.13977290963E+03  0.17732626903E+01  0.23133778286E+03  0.16500000000E+03 0.  0.
   -5000001    1    1    2    0    0  0.82173956037E+02 -0.13977290963E+03 -0.13783778683E+02  0.23174127356E+03  0.16500000000E+03 0.  0.
<mgrwt>
<rscale>  0 0.46292328E+03</rscale>
<asrwt>0</asrwt>
<pdfrwt beam="1">  1        2 0.33934970E-01 0.46292328E+03</pdfrwt>
<pdfrwt beam="2">  1       -2 0.32219181E-01 0.46292328E+03</pdfrwt>
<totfact> 0.13835491E+03</totfact>
</mgrwt>
</event>
<event>
 4    1  0.5323640E-005  0.6484865E+03  0.7818608E-02  0.9809623E-01
          2   -1    0    0  501    0  0.00000000000E+00  0.00000000000E+00  0.20676721695E+04  0.20676721695E+04  0.25500000000E-02 0.  1.
         -2   -1    0    0    0  501 -0.00000000000E+00 -0.00000000000E+00 -0.50846402220E+02  0.50846402284E+02  0.25500000000E-02 0. -1.
    5000001    1    1    2    0    0  0.86945128112E+02 -0.25968850798E+03  0.11846758031E+04  0.12270612597E+04  0.16500000000E+03 0.  0.
   -5000001    1    1    2    0    0 -0.86945128112E+02  0.25968850798E+03  0.83214996416E+03  0.89145731212E+03  0.16500000000E+03 0.  0.
<mgrwt>
<rscale>  0 0.64848652E+03</rscale>
<asrwt>0</asrwt>
<pdfrwt beam="1">  1        2 0.29538183E+00 0.64848652E+03</pdfrwt>
<pdfrwt beam="2">  1       -2 0.72637696E-02 0.64848652E+03</pdfrwt>
<totfact> 0.87306708E+02</totfact>
</mgrwt>
</event>
<event>
 4    1  0.5323640E-005  0.5661461E+03  0.7818608E-02  0.9978243E-01
          2   -1    0    0  501    0  0.00000000000E+00  0.00000000000E+00  0.16547500066E+04  0.16547500066E+04  0.25500000000E-02 0.  1.
         -2   -1    0    0    0  501 -0.00000000000E+00 -0.00000000000E+00 -0.48424445043E+02  0.48424445110E+02  0.25500000000E-02 0. -1.
    5000001    1    1    2    0    0  0.19508739157E+03  0.63171372075E+02  0.11166055798E+04  0.11472064911E+04  0.16500000000E+03 0.  0.
   -5000001    1    1    2    0    0 -0.19508739157E+03 -0.63171372075E+02  0.48971998185E+03  0.55596796061E+03  0.16500000000E+03 0.  0.
<mgrwt>
<rscale>  0 0.56614610E+03</rscale>
<asrwt>0</asrwt>
<pdfrwt beam="1">  1        2 0.23639283E+00 0.56614610E+03</pdfrwt>
<pdfrwt beam="2">  1       -2 0.69177787E-02 0.56614610E+03</pdfrwt>
<totfact> 0.15302737E+03</totfact>
</mgrwt>
</event>
<event>
 4    1  0.5323640E-005  0.3724897E+03  0.7818608E-02  0.1053745E+00
          2   -1    0    0  501    0  0.00000000000E+00  0.00000000000E+00  0.45372241848E+03  0.45372241849E+03  0.25500000000E-02 0.  1.
         -2   -1    0    0    0  501 -0.00000000000E+00 -0.00000000000E+00 -0.76450131349E+02  0.76450131392E+02  0.25500000000E-02 0. -1.
    5000001    1    1    2    0    0 -0.21402783387E+02  0.83057770594E+02  0.17401910247E+03  0.25468474712E+03  0.16500000000E+03 0.  0.
   -5000001    1    1    2    0    0  0.21402783387E+02 -0.83057770594E+02  0.20325318466E+03  0.27548780276E+03  0.16500000000E+03 0.  0.
<mgrwt>
<rscale>  0 0.37248967E+03</rscale>
<asrwt>0</asrwt>
<pdfrwt beam="1">  1        2 0.64817485E-01 0.37248967E+03</pdfrwt>
<pdfrwt beam="2">  1       -2 0.10921448E-01 0.37248967E+03</pdfrwt>
<totfact> 0.43661547E+03</totfact>
</mgrwt>
</event>
<event>
 4    1  0.5323640E-005  0.4541655E+03  0.7818608E-02  0.1026487E+00
          2   -1    0    0  501    0  0.00000000000E+00  0.00000000000E+00  0.25938471149E+04  0.25938471149E+04  0.25500000000E-02 0.  1.
         -2   -1    0    0    0  501 -0.00000000000E+00 -0.00000000000E+00 -0.19880347836E+02  0.19880348000E+02  0.25500000000E-02 0. -1.
    5000001    1    1    2    0    0 -0.44392470522E+02 -0.12653035039E+03  0.17459779362E+04  0.17588759407E+04  0.16500000000E+03 0.  0.
   -5000001    1    1    2    0    0  0.44392470522E+02  0.12653035039E+03  0.82798883090E+03  0.85485152226E+03  0.16500000000E+03 0.  0.
<mgrwt>
<rscale>  0 0.45416553E+03</rscale>
<asrwt>0</asrwt>
<pdfrwt beam="1">  1        2 0.37054957E+00 0.45416553E+03</pdfrwt>
<pdfrwt beam="2">  1       -2 0.28400498E-02 0.45416553E+03</pdfrwt>
<totfact> 0.20383013E+03</totfact>
</mgrwt>
</event>
<event>
 4    1  0.5323640E-005  0.4192316E+03  0.7818608E-02  0.1037317E+00
          2   -1    0    0  501    0  0.00000000000E+00  0.00000000000E+00  0.16192638873E+04  0.16192638873E+04  0.25500000000E-02 0.  1.
         -2   -1    0    0    0  501 -0.00000000000E+00 -0.00000000000E+00 -0.27135033267E+02  0.27135033387E+02  0.25500000000E-02 0. -1.
    5000001    1    1    2    0    0  0.12895291907E+03  0.23289203034E+01  0.83108035039E+03  0.85706115768E+03  0.16500000000E+03 0.  0.
   -5000001    1    1    2    0    0 -0.12895291907E+03 -0.23289203034E+01  0.76104850362E+03  0.78933776299E+03  0.16500000000E+03 0.  0.
<mgrwt>
<rscale>  0 0.41923158E+03</rscale>
<asrwt>0</asrwt>
<pdfrwt beam="1">  1        2 0.23132347E+00 0.41923158E+03</pdfrwt>
<pdfrwt beam="2">  1       -2 0.38764324E-02 0.41923158E+03</pdfrwt>
<totfact> 0.39215026E+03</totfact>
</mgrwt>
</event>
<event>
 4    1  0.5323640E-005  0.4030736E+03  0.7818608E-02  0.1042721E+00
          2   -1    0    0  501    0  0.00000000000E+00  0.00000000000E+00  0.14041759084E+03  0.14041759087E+03  0.25500000000E-02 0.  1.
         -2   -1    0    0    0  501 -0.00000000000E+00 -0.00000000000E+00 -0.28925914468E+03  0.28925914469E+03  0.25500000000E-02 0. -1.
    5000001    1    1    2    0    0  0.77841161402E+02  0.58607194693E+02 -0.14097562713E+03  0.23789320529E+03  0.16500000000E+03 0.  0.
   -5000001    1    1    2    0    0 -0.77841161402E+02 -0.58607194693E+02 -0.78659267045E+01  0.19178353027E+03  0.16500000000E+03 0.  0.
<mgrwt>
<rscale>  0 0.40307355E+03</rscale>
<asrwt>0</asrwt>
<pdfrwt beam="1">  1        2 0.20059656E-01 0.40307355E+03</pdfrwt>
<pdfrwt beam="2">  1       -2 0.41322735E-01 0.40307355E+03</pdfrwt>
<totfact> 0.15606404E+03</totfact>
</mgrwt>
</event>
<event>
 4    1  0.5323640E-005  0.3661841E+03  0.7818608E-02  0.1056162E+00
         -2   -1    0    0    0  501 -0.00000000000E+00  0.00000000000E+00  0.10006542994E+03  0.10006542998E+03  0.25500000000E-02 0. -1.
          2   -1    0    0  501    0  0.00000000000E+00 -0.00000000000E+00 -0.33500787939E+03  0.33500787940E+03  0.25500000000E-02 0.  1.
    5000001    1    1    2    0    0 -0.27849308649E+02  0.67693073022E+02 -0.81048367920E+02  0.19786807239E+03  0.16500000000E+03 0.  0.
   -5000001    1    1    2    0    0  0.27849308649E+02 -0.67693073022E+02 -0.15389408153E+03  0.23720523699E+03  0.16500000000E+03 0.  0.
<mgrwt>
<rscale>  0 0.36618415E+03</rscale>
<asrwt>0</asrwt>
<pdfrwt beam="1">  1        2 0.47858268E-01 0.36618415E+03</pdfrwt>
<pdfrwt beam="2">  1       -2 0.14295062E-01 0.36618415E+03</pdfrwt>
<totfact> 0.39173384E+03</totfact>
</mgrwt>
</event>
<event>
 4    1  0.5323640E-005  0.4598525E+03  0.7818608E-02  0.1024824E+00
          2   -1    0    0  501    0  0.00000000000E+00  0.00000000000E+00  0.12993776135E+04  0.12993776135E+04  0.25500000000E-02 0.  1.
         -2   -1    0    0    0  501 -0.00000000000E+00 -0.00000000000E+00 -0.40685700452E+02  0.40685700532E+02  0.25500000000E-02 0. -1.
    5000001    1    1    2    0    0  0.88887048569E+02  0.11557848222E+01  0.24122293393E+03  0.30547626274E+03  0.16500000000E+03 0.  0.
   -5000001    1    1    2    0    0 -0.88887048569E+02 -0.11557848222E+01  0.10174689791E+04  0.10345870513E+04  0.16500000000E+03 0.  0.
<mgrwt>
<rscale>  0 0.45985253E+03</rscale>
<asrwt>0</asrwt>
<pdfrwt beam="1">  1        2 0.18562532E+00 0.45985253E+03</pdfrwt>
<pdfrwt beam="2">  1       -2 0.58122446E-02 0.45985253E+03</pdfrwt>
<totfact> 0.30862794E+03</totfact>
</mgrwt>
</event>
<event>
 4    1  0.5323640E-005  0.1084289E+04  0.7818608E-02  0.9220641E-01
          2   -1    0    0  501    0  0.00000000000E+00  0.00000000000E+00  0.24153654569E+04  0.24153654569E+04  0.25500000000E-02 0.  1.
         -2   -1    0    0    0  501 -0.00000000000E+00 -0.00000000000E+00 -0.12168792756E+03  0.12168792759E+03  0.25500000000E-02 0. -1.
    5000001    1    1    2    0    0 -0.14562927236E+03 -0.45669665795E+03  0.15964035769E+04  0.16749654034E+04  0.16500000000E+03 0.  0.
   -5000001    1    1    2    0    0  0.14562927236E+03  0.45669665795E+03  0.69727395247E+03  0.86208798109E+03  0.16500000000E+03 0.  0.
<mgrwt>
<rscale>  0 0.10842893E+04</rscale>
<asrwt>0</asrwt>
<pdfrwt beam="1">  1        2 0.34505219E+00 0.10842893E+04</pdfrwt>
<pdfrwt beam="2">  1       -2 0.17383990E-01 0.10842893E+04</pdfrwt>
<totfact> 0.13321578E+02</totfact>
</mgrwt>
</event>
<event>
 4    1  0.5323640E-005  0.1148603E+04  0.7818608E-02  0.9159073E-01
         -2   -1    0    0    0  501 -0.00000000000E+00  0.00000000000E+00  0.17558673814E+03  0.17558673815E+03  0.25500000000E-02 0. -1.
          2   -1    0    0  501    0  0.00000000000E+00 -0.00000000000E+00 -0.18784012276E+04  0.18784012277E+04  0.25500000000E-02 0.  1.
    5000001    1    1    2    0    0 -0.47733889298E+03 -0.23960269327E+03 -0.10868556409E+04  0.12221874052E+04  0.16500000000E+03 0.  0.
   -5000001    1    1    2    0    0  0.47733889298E+03  0.23960269327E+03 -0.61595884861E+03  0.83180056056E+03  0.16500000000E+03 0.  0.
<mgrwt>
<rscale>  0 0.11486032E+04</rscale>
<asrwt>0</asrwt>
<pdfrwt beam="1">  1        2 0.26834302E+00 0.11486032E+04</pdfrwt>
<pdfrwt beam="2">  1       -2 0.25083821E-01 0.11486032E+04</pdfrwt>
<totfact> 0.13083176E+02</totfact>
</mgrwt>
</event>
<event>
 4    1  0.5323640E-005  0.4496670E+03  0.7818608E-02  0.1027821E+00
          2   -1    0    0  501    0  0.00000000000E+00  0.00000000000E+00  0.22644166898E+04  0.22644166898E+04  0.25500000000E-02 0.  1.
         -2   -1    0    0    0  501 -0.00000000000E+00 -0.00000000000E+00 -0.22323675818E+02  0.22323675963E+02  0.25500000000E-02 0. -1.
    5000001    1    1    2    0    0  0.11156169219E+03  0.90061584755E+02  0.85349389476E+03  0.88104138870E+03  0.16500000000E+03 0.  0.
   -5000001    1    1    2    0    0 -0.11156169219E+03 -0.90061584755E+02  0.13885991192E+04  0.14056989770E+04  0.16500000000E+03 0.  0.
<mgrwt>
<rscale>  0 0.44966701E+03</rscale>
<asrwt>0</asrwt>
<pdfrwt beam="1">  1        2 0.32348811E+00 0.44966701E+03</pdfrwt>
<pdfrwt beam="2">  1       -2 0.31890964E-02 0.44966701E+03</pdfrwt>
<totfact> 0.25116239E+03</totfact>
</mgrwt>
</event>
<event>
 4    1  0.5323640E-005  0.4870840E+03  0.7818608E-02  0.1017206E+00
         -2   -1    0    0    0  501 -0.00000000000E+00  0.00000000000E+00  0.11322333881E+03  0.11322333883E+03  0.25500000000E-02 0. -1.
          2   -1    0    0  501    0  0.00000000000E+00 -0.00000000000E+00 -0.52385574454E+03  0.52385574455E+03  0.25500000000E-02 0.  1.
    5000001    1    1    2    0    0 -0.15804418521E+03 -0.10688947609E+02 -0.31471139267E+03  0.38905074059E+03  0.16500000000E+03 0.  0.
   -5000001    1    1    2    0    0  0.15804418521E+03  0.10688947609E+02 -0.95921013066E+02  0.24802834279E+03  0.16500000000E+03 0.  0.
<mgrwt>
<rscale>  0 0.48708396E+03</rscale>
<asrwt>0</asrwt>
<pdfrwt beam="1">  1        2 0.74836534E-01 0.48708396E+03</pdfrwt>
<pdfrwt beam="2">  1       -2 0.16174763E-01 0.48708396E+03</pdfrwt>
<totfact> 0.19512186E+03</totfact>
</mgrwt>
</event>
<event>
 4    1  0.5323640E-005  0.6587397E+03  0.7818608E-02  0.9790516E-01
          2   -1    0    0  501    0  0.00000000000E+00  0.00000000000E+00  0.19213039396E+04  0.19213039396E+04  0.25500000000E-02 0.  1.
         -2   -1    0    0    0  501 -0.00000000000E+00 -0.00000000000E+00 -0.56464003563E+02  0.56464003621E+02  0.25500000000E-02 0. -1.
    5000001    1    1    2    0    0  0.10436194676E+03  0.24358899876E+03  0.12477739811E+04  0.12862316759E+04  0.16500000000E+03 0.  0.
   -5000001    1    1    2    0    0 -0.10436194676E+03 -0.24358899876E+03  0.61706595497E+03  0.69153626733E+03  0.16500000000E+03 0.  0.
<mgrwt>
<rscale>  0 0.65873974E+03</rscale>
<asrwt>0</asrwt>
<pdfrwt beam="1">  1        2 0.27447189E+00 0.65873974E+03</pdfrwt>
<pdfrwt beam="2">  1       -2 0.80662893E-02 0.65873974E+03</pdfrwt>
<totfact> 0.87509965E+02</totfact>
</mgrwt>
</event>
<event>
 4    1  0.5323640E-005  0.3866994E+03  0.7818608E-02  0.1048485E+00
         -2   -1    0    0    0  501 -0.00000000000E+00  0.00000000000E+00  0.38267543628E+02  0.38267543713E+02  0.25500000000E-02 0. -1.
          2   -1    0    0  501    0  0.00000000000E+00 -0.00000000000E+00 -0.97691444020E+03  0.97691444020E+03  0.25500000000E-02 0.  1.
    5000001    1    1    2    0    0  0.10065240399E+03  0.49503811537E+01 -0.47437546827E+03  0.51226213758E+03  0.16500000000E+03 0.  0.
   -5000001    1    1    2    0    0 -0.10065240399E+03 -0.49503811537E+01 -0.46427142829E+03  0.50291984633E+03  0.16500000000E+03 0.  0.
<mgrwt>
<rscale>  0 0.38669945E+03</rscale>
<asrwt>0</asrwt>
<pdfrwt beam="1">  1        2 0.13955919E+00 0.38669945E+03</pdfrwt>
<pdfrwt beam="2">  1       -2 0.54667925E-02 0.38669945E+03</pdfrwt>
<totfact> 0.51652422E+03</totfact>
</mgrwt>
</event>
<event>
 4    1  0.5323640E-005  0.4054841E+03  0.7818608E-02  0.1041897E+00
         -2   -1    0    0    0  501 -0.00000000000E+00  0.00000000000E+00  0.41314196194E+02  0.41314196273E+02  0.25500000000E-02 0. -1.
          2   -1    0    0  501    0  0.00000000000E+00 -0.00000000000E+00 -0.99492022457E+03  0.99492022457E+03  0.25500000000E-02 0.  1.
    5000001    1    1    2    0    0  0.11319591697E+03 -0.29559676738E+02 -0.51223580097E+03  0.55072461894E+03  0.16500000000E+03 0.  0.
   -5000001    1    1    2    0    0 -0.11319591697E+03  0.29559676738E+02 -0.44137022741E+03  0.48550980191E+03  0.16500000000E+03 0.  0.
<mgrwt>
<rscale>  0 0.40548405E+03</rscale>
<asrwt>0</asrwt>
<pdfrwt beam="1">  1        2 0.14213145E+00 0.40548405E+03</pdfrwt>
<pdfrwt beam="2">  1       -2 0.59020286E-02 0.40548405E+03</pdfrwt>
<totfact> 0.44781833E+03</totfact>
</mgrwt>
</event>
<event>
 4    1  0.5323640E-005  0.3896323E+03  0.7818608E-02  0.1047430E+00
         -2   -1    0    0    0  501 -0.00000000000E+00  0.00000000000E+00  0.22075061764E+02  0.22075061911E+02  0.25500000000E-02 0. -1.
          2   -1    0    0  501    0  0.00000000000E+00 -0.00000000000E+00 -0.17192856810E+04  0.17192856810E+04  0.25500000000E-02 0.  1.
    5000001    1    1    2    0    0 -0.45812771478E+02  0.19012146311E+02 -0.12549884981E+04  0.12667601991E+04  0.16500000000E+03 0.  0.
   -5000001    1    1    2    0    0  0.45812771478E+02 -0.19012146311E+02 -0.44222212117E+03  0.47460054381E+03  0.16500000000E+03 0.  0.
<mgrwt>
<rscale>  0 0.38963233E+03</rscale>
<asrwt>0</asrwt>
<pdfrwt beam="1">  1        2 0.24561216E+00 0.38963233E+03</pdfrwt>
<pdfrwt beam="2">  1       -2 0.31535813E-02 0.38963233E+03</pdfrwt>
<totfact> 0.47734545E+03</totfact>
</mgrwt>
</event>
<event>
 4    1  0.5323640E-005  0.1025241E+04  0.7818608E-02  0.9281287E-01
         -2   -1    0    0    0  501 -0.00000000000E+00  0.00000000000E+00  0.89663760910E+02  0.89663760947E+02  0.25500000000E-02 0. -1.
          2   -1    0    0  501    0  0.00000000000E+00 -0.00000000000E+00 -0.29307221032E+04  0.29307221032E+04  0.25500000000E-02 0.  1.
    5000001    1    1    2    0    0  0.31793408753E+03 -0.36577433944E+03 -0.13436150501E+04  0.14378453861E+04  0.16500000000E+03 0.  0.
   -5000001    1    1    2    0    0 -0.31793408753E+03  0.36577433944E+03 -0.14974432922E+04  0.15825404781E+04  0.16500000000E+03 0.  0.
<mgrwt>
<rscale>  0 0.10252406E+04</rscale>
<asrwt>0</asrwt>
<pdfrwt beam="1">  1        2 0.41867453E+00 0.10252406E+04</pdfrwt>
<pdfrwt beam="2">  1       -2 0.12809111E-01 0.10252406E+04</pdfrwt>
<totfact> 0.11973210E+02</totfact>
</mgrwt>
</event>
<event>
 4    1  0.5323640E-005  0.8197935E+03  0.7818608E-02  0.9531801E-01
         -2   -1    0    0    0  501 -0.00000000000E+00  0.00000000000E+00  0.15922470948E+04  0.15922470948E+04  0.25500000000E-02 0. -1.
          2   -1    0    0  501    0  0.00000000000E+00 -0.00000000000E+00 -0.10552090661E+03  0.10552090664E+03  0.25500000000E-02 0.  1.
    5000001    1    1    2    0    0 -0.20621649709E+03 -0.30799785400E+03  0.86416361175E+03  0.95466835582E+03  0.16500000000E+03 0.  0.
   -5000001    1    1    2    0    0  0.20621649709E+03  0.30799785400E+03  0.62256257649E+03  0.74309964566E+03  0.16500000000E+03 0.  0.
<mgrwt>
<rscale>  0 0.81979353E+03</rscale>
<asrwt>0</asrwt>
<pdfrwt beam="1">  1        2 0.15074417E-01 0.81979353E+03</pdfrwt>
<pdfrwt beam="2">  1       -2 0.22746384E+00 0.81979353E+03</pdfrwt>
<totfact> 0.35985692E+01</totfact>
</mgrwt>
</event>
<event>
 4    1  0.5323640E-005  0.7514506E+03  0.7818608E-02  0.9633077E-01
         -2   -1    0    0    0  501 -0.00000000000E+00  0.00000000000E+00  0.11926704975E+03  0.11926704978E+03  0.25500000000E-02 0. -1.
          2   -1    0    0  501    0  0.00000000000E+00 -0.00000000000E+00 -0.11836419961E+04  0.11836419961E+04  0.25500000000E-02 0.  1.
    5000001    1    1    2    0    0 -0.25299623905E+03 -0.15141624587E+03 -0.24722997197E+03  0.41866649678E+03  0.16500000000E+03 0.  0.
   -5000001    1    1    2    0    0  0.25299623905E+03  0.15141624587E+03 -0.81714497434E+03  0.88424254906E+03  0.16500000000E+03 0.  0.
<mgrwt>
<rscale>  0 0.75145057E+03</rscale>
<asrwt>0</asrwt>
<pdfrwt beam="1">  1        2 0.16909171E+00 0.75145057E+03</pdfrwt>
<pdfrwt beam="2">  1       -2 0.17038151E-01 0.75145057E+03</pdfrwt>
<totfact> 0.61867743E+02</totfact>
</mgrwt>
</event>
<event>
 4    1  0.5323640E-005  0.5452114E+03  0.7818608E-02  0.1002608E+00
         -2   -1    0    0    0  501 -0.00000000000E+00  0.00000000000E+00  0.17692046061E+03  0.17692046063E+03  0.25500000000E-02 0. -1.
          2   -1    0    0  501    0  0.00000000000E+00 -0.00000000000E+00 -0.42004113118E+03  0.42004113119E+03  0.25500000000E-02 0.  1.
    5000001    1    1    2    0    0  0.20897953483E+03  0.11094789285E+01 -0.18554694660E+03  0.32454020755E+03  0.16500000000E+03 0.  0.
   -5000001    1    1    2    0    0 -0.20897953483E+03 -0.11094789285E+01 -0.57573723966E+02  0.27242138428E+03  0.16500000000E+03 0.  0.
<mgrwt>
<rscale>  0 0.54521141E+03</rscale>
<asrwt>0</asrwt>
<pdfrwt beam="1">  1        2 0.60005875E-01 0.54521141E+03</pdfrwt>
<pdfrwt beam="2">  1       -2 0.25274352E-01 0.54521141E+03</pdfrwt>
<totfact> 0.11506887E+03</totfact>
</mgrwt>
</event>
<event>
 4    1  0.5323640E-005  0.4705181E+03  0.7818608E-02  0.1021774E+00
         -2   -1    0    0    0  501 -0.00000000000E+00  0.00000000000E+00  0.25192067035E+02  0.25192067164E+02  0.25500000000E-02 0. -1.
          2   -1    0    0  501    0  0.00000000000E+00 -0.00000000000E+00 -0.21969939850E+04  0.21969939850E+04  0.25500000000E-02 0.  1.
    5000001    1    1    2    0    0  0.11983386621E+03 -0.11727571241E+03 -0.10724830152E+04  0.10979793104E+04  0.16500000000E+03 0.  0.
   -5000001    1    1    2    0    0 -0.11983386621E+03  0.11727571241E+03 -0.10993189028E+04  0.11242067417E+04  0.16500000000E+03 0.  0.
<mgrwt>
<rscale>  0 0.47051810E+03</rscale>
<asrwt>0</asrwt>
<pdfrwt beam="1">  1        2 0.31385616E+00 0.47051810E+03</pdfrwt>
<pdfrwt beam="2">  1       -2 0.35988681E-02 0.47051810E+03</pdfrwt>
<totfact> 0.22573479E+03</totfact>
</mgrwt>
</event>
<event>
 4    1  0.5323640E-005  0.8150677E+03  0.7818608E-02  0.9538460E-01
          2   -1    0    0  501    0  0.00000000000E+00  0.00000000000E+00  0.12668864145E+04  0.12668864145E+04  0.25500000000E-02 0.  1.
         -2   -1    0    0    0  501 -0.00000000000E+00 -0.00000000000E+00 -0.13109609239E+03  0.13109609242E+03  0.25500000000E-02 0. -1.
    5000001    1    1    2    0    0  0.32939398067E+03  0.47067987564E+02  0.85563086325E+03  0.93276200828E+03  0.16500000000E+03 0.  0.
   -5000001    1    1    2    0    0 -0.32939398067E+03 -0.47067987564E+02  0.28015945885E+03  0.46522049862E+03  0.16500000000E+03 0.  0.
<mgrwt>
<rscale>  0 0.81506775E+03</rscale>
<asrwt>0</asrwt>
<pdfrwt beam="1">  1        2 0.18098377E+00 0.81506775E+03</pdfrwt>
<pdfrwt beam="2">  1       -2 0.18728014E-01 0.81506775E+03</pdfrwt>
<totfact> 0.47065997E+02</totfact>
</mgrwt>
</event>
<event>
 4    1  0.5323640E-005  0.3905565E+03  0.7818608E-02  0.1047100E+00
          2   -1    0    0  501    0  0.00000000000E+00  0.00000000000E+00  0.27721609371E+04  0.27721609371E+04  0.25500000000E-02 0.  1.
         -2   -1    0    0    0  501 -0.00000000000E+00 -0.00000000000E+00 -0.13755910569E+02  0.13755910805E+02  0.25500000000E-02 0. -1.
    5000001    1    1    2    0    0  0.37914539712E+02 -0.93354648326E+02  0.11830725765E+04  0.11987653331E+04  0.16500000000E+03 0.  0.
   -5000001    1    1    2    0    0 -0.37914539712E+02  0.93354648326E+02  0.15753324500E+04  0.15871515148E+04  0.16500000000E+03 0.  0.
<mgrwt>
<rscale>  0 0.39055652E+03</rscale>
<asrwt>0</asrwt>
<pdfrwt beam="1">  1        2 0.39602343E+00 0.39055652E+03</pdfrwt>
<pdfrwt beam="2">  1       -2 0.19651279E-02 0.39055652E+03</pdfrwt>
<totfact> 0.28726848E+03</totfact>
</mgrwt>
</event>
<event>
 4    1  0.5323640E-005  0.4108669E+03  0.7818608E-02  0.1040080E+00
         -2   -1    0    0    0  501 -0.00000000000E+00  0.00000000000E+00  0.55794280284E+02  0.55794280342E+02  0.25500000000E-02 0. -1.
          2   -1    0    0  501    0  0.00000000000E+00 -0.00000000000E+00 -0.75640203338E+03  0.75640203339E+03  0.25500000000E-02 0.  1.
    5000001    1    1    2    0    0 -0.11632643257E+03 -0.18191669678E+02 -0.28429188396E+03  0.34915562582E+03  0.16500000000E+03 0.  0.
   -5000001    1    1    2    0    0  0.11632643257E+03  0.18191669678E+02 -0.41631586914E+03  0.46304068791E+03  0.16500000000E+03 0.  0.
<mgrwt>
<rscale>  0 0.41086692E+03</rscale>
<asrwt>0</asrwt>
<pdfrwt beam="1">  1        2 0.10805743E+00 0.41086692E+03</pdfrwt>
<pdfrwt beam="2">  1       -2 0.79706119E-02 0.41086692E+03</pdfrwt>
<totfact> 0.39996602E+03</totfact>
</mgrwt>
</event>
<event>
 4    1  0.5323640E-005  0.4060225E+03  0.7818608E-02  0.1041714E+00
          2   -1    0    0  501    0  0.00000000000E+00  0.00000000000E+00  0.47603157681E+03  0.47603157682E+03  0.25500000000E-02 0.  1.
         -2   -1    0    0    0  501 -0.00000000000E+00 -0.00000000000E+00 -0.86577399433E+02  0.86577399470E+02  0.25500000000E-02 0. -1.
    5000001    1    1    2    0    0  0.50164667477E+01  0.98416679207E+02  0.28535354284E+03  0.34403873633E+03  0.16500000000E+03 0.  0.
   -5000001    1    1    2    0    0 -0.50164667477E+01 -0.98416679207E+02  0.10410063454E+03  0.21857023996E+03  0.16500000000E+03 0.  0.
<mgrwt>
<rscale>  0 0.40602254E+03</rscale>
<asrwt>0</asrwt>
<pdfrwt beam="1">  1        2 0.68004514E-01 0.40602254E+03</pdfrwt>
<pdfrwt beam="2">  1       -2 0.12368199E-01 0.40602254E+03</pdfrwt>
<totfact> 0.33879522E+03</totfact>
</mgrwt>
</event>
<event>
 4    1  0.5323640E-005  0.6318624E+03  0.7818608E-02  0.9841421E-01
         -2   -1    0    0    0  501 -0.00000000000E+00  0.00000000000E+00  0.72847884706E+02  0.72847884751E+02  0.25500000000E-02 0. -1.
          2   -1    0    0  501    0  0.00000000000E+00 -0.00000000000E+00 -0.13701498895E+04  0.13701498895E+04  0.25500000000E-02 0.  1.
    5000001    1    1    2    0    0 -0.14910327153E+03  0.19941617835E+03 -0.88365164881E+03  0.93277212341E+03  0.16500000000E+03 0.  0.
   -5000001    1    1    2    0    0  0.14910327153E+03 -0.19941617835E+03 -0.41365035595E+03  0.51022565081E+03  0.16500000000E+03 0.  0.
<mgrwt>
<rscale>  0 0.63186239E+03</rscale>
<asrwt>0</asrwt>
<pdfrwt beam="1">  1        2 0.19573568E+00 0.63186239E+03</pdfrwt>
<pdfrwt beam="2">  1       -2 0.10406841E-01 0.63186239E+03</pdfrwt>
<totfact> 0.11169468E+03</totfact>
</mgrwt>
</event>
<event>
 4    1  0.5323640E-005  0.4364334E+03  0.7818608E-02  0.1031847E+00
          2   -1    0    0  501    0  0.00000000000E+00  0.00000000000E+00  0.56830051081E+03  0.56830051082E+03  0.25500000000E-02 0.  1.
         -2   -1    0    0    0  501 -0.00000000000E+00 -0.00000000000E+00 -0.83791101915E+02  0.83791101954E+02  0.25500000000E-02 0. -1.
    5000001    1    1    2    0    0 -0.69418982527E+01 -0.12736674322E+03  0.33819474160E+03  0.39733003973E+03  0.16500000000E+03 0.  0.
   -5000001    1    1    2    0    0  0.69418982527E+01  0.12736674322E+03  0.14631466730E+03  0.25476157304E+03  0.16500000000E+03 0.  0.
<mgrwt>
<rscale>  0 0.43643339E+03</rscale>
<asrwt>0</asrwt>
<pdfrwt beam="1">  1        2 0.81185789E-01 0.43643339E+03</pdfrwt>
<pdfrwt beam="2">  1       -2 0.11970157E-01 0.43643339E+03</pdfrwt>
<totfact> 0.29276788E+03</totfact>
</mgrwt>
</event>
<event>
 4    1  0.5323640E-005  0.1068350E+04  0.7818608E-02  0.9236601E-01
          2   -1    0    0  501    0  0.00000000000E+00  0.00000000000E+00  0.25121457378E+03  0.25121457380E+03  0.25500000000E-02 0.  1.
         -2   -1    0    0    0  501 -0.00000000000E+00 -0.00000000000E+00 -0.11358532552E+04  0.11358532552E+04  0.25500000000E-02 0. -1.
    5000001    1    1    2    0    0 -0.43566006795E+03  0.20212389504E+03 -0.65748208707E+03  0.83075956725E+03  0.16500000000E+03 0.  0.
   -5000001    1    1    2    0    0  0.43566006795E+03 -0.20212389504E+03 -0.22715659437E+03  0.55630826177E+03  0.16500000000E+03 0.  0.
<mgrwt>
<rscale>  0 0.10683499E+04</rscale>
<asrwt>0</asrwt>
<pdfrwt beam="1">  1        2 0.35887797E-01 0.10683499E+04</pdfrwt>
<pdfrwt beam="2">  1       -2 0.16226475E+00 0.10683499E+04</pdfrwt>
<totfact> 0.35062913E+01</totfact>
</mgrwt>
</event>
<event>
 4    1  0.5323640E-005  0.5634663E+03  0.7818608E-02  0.9984242E-01
         -2   -1    0    0    0  501 -0.00000000000E+00  0.00000000000E+00  0.35822822205E+02  0.35822822296E+02  0.25500000000E-02 0. -1.
          2   -1    0    0  501    0  0.00000000000E+00 -0.00000000000E+00 -0.22157259203E+04  0.22157259203E+04  0.25500000000E-02 0.  1.
    5000001    1    1    2    0    0  0.11527858411E+03  0.19254842723E+03 -0.92115149951E+03  0.96234564156E+03  0.16500000000E+03 0.  0.
   -5000001    1    1    2    0    0 -0.11527858411E+03 -0.19254842723E+03 -0.12587515986E+04  0.12892031011E+04  0.16500000000E+03 0.  0.
<mgrwt>
<rscale>  0 0.56346626E+03</rscale>
<asrwt>0</asrwt>
<pdfrwt beam="1">  1        2 0.31653219E+00 0.56346626E+03</pdfrwt>
<pdfrwt beam="2">  1       -2 0.51175475E-02 0.56346626E+03</pdfrwt>
<totfact> 0.12801882E+03</totfact>
</mgrwt>
</event>
<event>
 4    1  0.5323640E-005  0.5492265E+03  0.7818608E-02  0.1001673E+00
         -2   -1    0    0    0  501 -0.00000000000E+00  0.00000000000E+00  0.68498223655E+03  0.68498223655E+03  0.25500000000E-02 0. -1.
          2   -1    0    0  501    0  0.00000000000E+00 -0.00000000000E+00 -0.11009401023E+03  0.11009401026E+03  0.25500000000E-02 0.  1.
    5000001    1    1    2    0    0  0.21432915544E+03  0.41174813824E+02  0.25333749380E+03  0.37287697425E+03  0.16500000000E+03 0.  0.
   -5000001    1    1    2    0    0 -0.21432915544E+03 -0.41174813824E+02  0.32155073252E+03  0.42219927256E+03  0.16500000000E+03 0.  0.
<mgrwt>
<rscale>  0 0.54922652E+03</rscale>
<asrwt>0</asrwt>
<pdfrwt beam="1">  1        2 0.15727716E-01 0.54922652E+03</pdfrwt>
<pdfrwt beam="2">  1       -2 0.97854602E-01 0.54922652E+03</pdfrwt>
<totfact> 0.33287080E+02</totfact>
</mgrwt>
</event>
<event>
 4    1  0.5323640E-005  0.6743669E+03  0.7818608E-02  0.9762101E-01
         -2   -1    0    0    0  501 -0.00000000000E+00  0.00000000000E+00  0.11186162886E+03  0.11186162889E+03  0.25500000000E-02 0. -1.
          2   -1    0    0  501    0  0.00000000000E+00 -0.00000000000E+00 -0.10163688626E+04  0.10163688626E+04  0.25500000000E-02 0.  1.
    5000001    1    1    2    0    0  0.16183022678E+03  0.24190279544E+03 -0.38203269047E+03  0.50781882727E+03  0.16500000000E+03 0.  0.
   -5000001    1    1    2    0    0 -0.16183022678E+03 -0.24190279544E+03 -0.52247454332E+03  0.62041166427E+03  0.16500000000E+03 0.  0.
<mgrwt>
<rscale>  0 0.67436689E+03</rscale>
<asrwt>0</asrwt>
<pdfrwt beam="1">  1        2 0.14519555E+00 0.67436689E+03</pdfrwt>
<pdfrwt beam="2">  1       -2 0.15980233E-01 0.67436689E+03</pdfrwt>
<totfact> 0.86733351E+02</totfact>
</mgrwt>
</event>
<event>
 4    1  0.5323640E-005  0.4625725E+03  0.7818608E-02  0.1024038E+00
          2   -1    0    0  501    0  0.00000000000E+00  0.00000000000E+00  0.31704603977E+04  0.31704603977E+04  0.25500000000E-02 0.  1.
         -2   -1    0    0    0  501 -0.00000000000E+00 -0.00000000000E+00 -0.16872418352E+02  0.16872418545E+02  0.25500000000E-02 0. -1.
    5000001    1    1    2    0    0 -0.78316699201E+02  0.13493997148E+03  0.18791923773E+04  0.18928632523E+04  0.16500000000E+03 0.  0.
   -5000001    1    1    2    0    0  0.78316699201E+02 -0.13493997148E+03  0.12743956021E+04  0.12944695639E+04  0.16500000000E+03 0.  0.
<mgrwt>
<rscale>  0 0.46257252E+03</rscale>
<asrwt>0</asrwt>
<pdfrwt beam="1">  1        2 0.45292346E+00 0.46257252E+03</pdfrwt>
<pdfrwt beam="2">  1       -2 0.24103426E-02 0.46257252E+03</pdfrwt>
<totfact> 0.12871578E+03</totfact>
</mgrwt>
</event>
<event>
 4    1  0.5323640E-005  0.4330990E+03  0.7818608E-02  0.1032885E+00
         -2   -1    0    0    0  501 -0.00000000000E+00  0.00000000000E+00  0.16831796810E+03  0.16831796812E+03  0.25500000000E-02 0. -1.
          2   -1    0    0  501    0  0.00000000000E+00 -0.00000000000E+00 -0.27860174608E+03  0.27860174609E+03  0.25500000000E-02 0.  1.
    5000001    1    1    2    0    0  0.79170270307E+02 -0.16875748198E+01  0.64301118239E+02  0.19398560105E+03  0.16500000000E+03 0.  0.
   -5000001    1    1    2    0    0 -0.79170270307E+02  0.16875748198E+01 -0.17458489622E+03  0.25293411315E+03  0.16500000000E+03 0.  0.
<mgrwt>
<rscale>  0 0.43309897E+03</rscale>
<asrwt>0</asrwt>
<pdfrwt beam="1">  1        2 0.39800249E-01 0.43309897E+03</pdfrwt>
<pdfrwt beam="2">  1       -2 0.24045424E-01 0.43309897E+03</pdfrwt>
<totfact> 0.19730848E+03</totfact>
</mgrwt>
</event>
<event>
 4    1  0.5323640E-005  0.4260752E+03  0.7818608E-02  0.1035107E+00
          2   -1    0    0  501    0  0.00000000000E+00  0.00000000000E+00  0.13962599662E+04  0.13962599662E+04  0.25500000000E-02 0.  1.
         -2   -1    0    0    0  501 -0.00000000000E+00 -0.00000000000E+00 -0.32504711641E+02  0.32504711741E+02  0.25500000000E-02 0. -1.
    5000001    1    1    2    0    0  0.43036666721E+02  0.92824737356E+02  0.97596627911E+03  0.99508982736E+03  0.16500000000E+03 0.  0.
   -5000001    1    1    2    0    0 -0.43036666721E+02 -0.92824737356E+02  0.38778897540E+03  0.43367485054E+03  0.16500000000E+03 0.  0.
<mgrwt>
<rscale>  0 0.42607524E+03</rscale>
<asrwt>0</asrwt>
<pdfrwt beam="1">  1        2 0.19946573E+00 0.42607524E+03</pdfrwt>
<pdfrwt beam="2">  1       -2 0.46435298E-02 0.42607524E+03</pdfrwt>
<totfact> 0.38760358E+03</totfact>
</mgrwt>
</event>
<event>
 4    1  0.5323640E-005  0.3854888E+03  0.7818608E-02  0.1048924E+00
         -2   -1    0    0    0  501 -0.00000000000E+00  0.00000000000E+00  0.24744329162E+02  0.24744329294E+02  0.25500000000E-02 0. -1.
          2   -1    0    0  501    0  0.00000000000E+00 -0.00000000000E+00 -0.15013702484E+04  0.15013702484E+04  0.25500000000E-02 0.  1.
    5000001    1    1    2    0    0 -0.23700402821E+02 -0.94849080084E+02 -0.66243579946E+03  0.68964066403E+03  0.16500000000E+03 0.  0.
   -5000001    1    1    2    0    0  0.23700402821E+02  0.94849080084E+02 -0.81419011975E+03  0.83647391363E+03  0.16500000000E+03 0.  0.
<mgrwt>
<rscale>  0 0.38548878E+03</rscale>
<asrwt>0</asrwt>
<pdfrwt beam="1">  1        2 0.21448141E+00 0.38548878E+03</pdfrwt>
<pdfrwt beam="2">  1       -2 0.35349051E-02 0.38548878E+03</pdfrwt>
<totfact> 0.51769852E+03</totfact>
</mgrwt>
</event>
<event>
 4    1  0.5323640E-005  0.5572833E+03  0.7818608E-02  0.9998220E-01
         -2   -1    0    0    0  501 -0.00000000000E+00  0.00000000000E+00  0.59696180510E+02  0.59696180565E+02  0.25500000000E-02 0. -1.
          2   -1    0    0  501    0  0.00000000000E+00 -0.00000000000E+00 -0.13006054916E+04  0.13006054916E+04  0.25500000000E-02 0.  1.
    5000001    1    1    2    0    0  0.10100025991E+03 -0.16341823090E+03 -0.33674078374E+03  0.42133825619E+03  0.16500000000E+03 0.  0.
   -5000001    1    1    2    0    0 -0.10100025991E+03  0.16341823090E+03 -0.90416852732E+03  0.93896341595E+03  0.16500000000E+03 0.  0.
<mgrwt>
<rscale>  0 0.55728334E+03</rscale>
<asrwt>0</asrwt>
<pdfrwt beam="1">  1        2 0.18580077E+00 0.55728334E+03</pdfrwt>
<pdfrwt beam="2">  1       -2 0.85280266E-02 0.55728334E+03</pdfrwt>
<totfact> 0.16824454E+03</totfact>
</mgrwt>
</event>
<event>
 4    1  0.5323640E-005  0.5186379E+03  0.7818608E-02  0.1009025E+00
         -2   -1    0    0    0  501 -0.00000000000E+00  0.00000000000E+00  0.19830210007E+02  0.19830210171E+02  0.25500000000E-02 0. -1.
          2   -1    0    0  501    0  0.00000000000E+00 -0.00000000000E+00 -0.33911045401E+04  0.33911045401E+04  0.25500000000E-02 0.  1.
    5000001    1    1    2    0    0  0.12142747817E+02 -0.18239735330E+03 -0.11511367653E+04  0.11771818438E+04  0.16500000000E+03 0.  0.
   -5000001    1    1    2    0    0 -0.12142747817E+02  0.18239735330E+03 -0.22201375647E+04  0.22337529065E+04  0.16500000000E+03 0.  0.
<mgrwt>
<rscale>  0 0.51863789E+03</rscale>
<asrwt>0</asrwt>
<pdfrwt beam="1">  1        2 0.48444314E+00 0.51863789E+03</pdfrwt>
<pdfrwt beam="2">  1       -2 0.28328893E-02 0.51863789E+03</pdfrwt>
<totfact> 0.75234595E+02</totfact>
</mgrwt>
</event>
<event>
 4    1  0.5323640E-005  0.6178570E+03  0.7818608E-02  0.9869036E-01
          2   -1    0    0  501    0  0.00000000000E+00  0.00000000000E+00  0.25074633309E+04  0.25074633309E+04  0.25500000000E-02 0.  1.
         -2   -1    0    0    0  501 -0.00000000000E+00 -0.00000000000E+00 -0.38061107404E+02  0.38061107489E+02  0.25500000000E-02 0. -1.
    5000001    1    1    2    0    0 -0.22035152167E+03  0.13142239232E+03  0.14359117916E+04  0.14679558275E+04  0.16500000000E+03 0.  0.
   -5000001    1    1    2    0    0  0.22035152167E+03 -0.13142239232E+03  0.10334904319E+04  0.10775686109E+04  0.16500000000E+03 0.  0.
<mgrwt>
<rscale>  0 0.61785704E+03</rscale>
<asrwt>0</asrwt>
<pdfrwt beam="1">  1        2 0.35820916E+00 0.61785704E+03</pdfrwt>
<pdfrwt beam="2">  1       -2 0.54372994E-02 0.61785704E+03</pdfrwt>
<totfact> 0.82521079E+02</totfact>
</mgrwt>
</event>
<event>
 4    1  0.5323640E-005  0.8404450E+03  0.7818608E-02  0.9503252E-01
          2   -1    0    0  501    0  0.00000000000E+00  0.00000000000E+00  0.17036325324E+03  0.17036325326E+03  0.25500000000E-02 0.  1.
         -2   -1    0    0    0  501 -0.00000000000E+00 -0.00000000000E+00 -0.10365319879E+04  0.10365319879E+04  0.25500000000E-02 0. -1.
    5000001    1    1    2    0    0  0.24684467122E+03 -0.20709208708E+03 -0.73954089301E+03  0.82338639573E+03  0.16500000000E+03 0.  0.
   -5000001    1    1    2    0    0 -0.24684467122E+03  0.20709208708E+03 -0.12662784165E+03  0.38350884542E+03  0.16500000000E+03 0.  0.
<mgrwt>
<rscale>  0 0.84044503E+03</rscale>
<asrwt>0</asrwt>
<pdfrwt beam="1">  1        2 0.24337608E-01 0.84044503E+03</pdfrwt>
<pdfrwt beam="2">  1       -2 0.14807599E+00 0.84044503E+03</pdfrwt>
<totfact> 0.70551479E+01</totfact>
</mgrwt>
</event>
<event>
 4    1  0.5323640E-005  0.6420247E+03  0.7818608E-02  0.9821860E-01
          2   -1    0    0  501    0  0.00000000000E+00  0.00000000000E+00  0.69057200131E+03  0.69057200131E+03  0.25500000000E-02 0.  1.
         -2   -1    0    0    0  501 -0.00000000000E+00 -0.00000000000E+00 -0.14922256859E+03  0.14922256861E+03  0.25500000000E-02 0. -1.
    5000001    1    1    2    0    0  0.60940952273E+02  0.13847051143E+03  0.57162660685E+03  0.61389727142E+03  0.16500000000E+03 0.  0.
   -5000001    1    1    2    0    0 -0.60940952273E+02 -0.13847051143E+03 -0.30277174121E+02  0.22589729850E+03  0.16500000000E+03 0.  0.
<mgrwt>
<rscale>  0 0.64202470E+03</rscale>
<asrwt>0</asrwt>
<pdfrwt beam="1">  1        2 0.98653145E-01 0.64202470E+03</pdfrwt>
<pdfrwt beam="2">  1       -2 0.21317509E-01 0.64202470E+03</pdfrwt>
<totfact> 0.87523219E+02</totfact>
</mgrwt>
</event>
<event>
 4    1  0.5323640E-005  0.5746255E+03  0.7818608E-02  0.9959495E-01
          2   -1    0    0  501    0  0.00000000000E+00  0.00000000000E+00  0.20028719682E+04  0.20028719682E+04  0.25500000000E-02 0.  1.
         -2   -1    0    0    0  501 -0.00000000000E+00 -0.00000000000E+00 -0.41215117301E+02  0.41215117380E+02  0.25500000000E-02 0. -1.
    5000001    1    1    2    0    0  0.14372253859E+02 -0.17555431728E+03  0.15353230295E+04  0.15541774947E+04  0.16500000000E+03 0.  0.
   -5000001    1    1    2    0    0 -0.14372253859E+02  0.17555431728E+03  0.42633382131E+03  0.48990959084E+03  0.16500000000E+03 0.  0.
<mgrwt>
<rscale>  0 0.57462545E+03</rscale>
<asrwt>0</asrwt>
<pdfrwt beam="1">  1        2 0.28612461E+00 0.57462545E+03</pdfrwt>
<pdfrwt beam="2">  1       -2 0.58878730E-02 0.57462545E+03</pdfrwt>
<totfact> 0.13152673E+03</totfact>
</mgrwt>
</event>
<event>
 4    1  0.5323640E-005  0.4956609E+03  0.7818608E-02  0.1014918E+00
          2   -1    0    0  501    0  0.00000000000E+00  0.00000000000E+00  0.74382841501E+03  0.74382841501E+03  0.25500000000E-02 0.  1.
         -2   -1    0    0    0  501 -0.00000000000E+00 -0.00000000000E+00 -0.82572716382E+02  0.82572716421E+02  0.25500000000E-02 0. -1.
    5000001    1    1    2    0    0 -0.17511119104E+03 -0.26153649747E+02  0.41958876017E+03  0.48438380473E+03  0.16500000000E+03 0.  0.
   -5000001    1    1    2    0    0  0.17511119104E+03  0.26153649747E+02  0.24166693845E+03  0.34201732670E+03  0.16500000000E+03 0.  0.
<mgrwt>
<rscale>  0 0.49566090E+03</rscale>
<asrwt>0</asrwt>
<pdfrwt beam="1">  1        2 0.10626121E+00 0.49566090E+03</pdfrwt>
<pdfrwt beam="2">  1       -2 0.11796102E-01 0.49566090E+03</pdfrwt>
<totfact> 0.21787967E+03</totfact>
</mgrwt>
</event>
<event>
 4    1  0.5323640E-005  0.6730520E+03  0.7818608E-02  0.9764460E-01
         -2   -1    0    0    0  501 -0.00000000000E+00  0.00000000000E+00  0.13368890436E+04  0.13368890436E+04  0.25500000000E-02 0. -1.
          2   -1    0    0  501    0  0.00000000000E+00 -0.00000000000E+00 -0.84711416124E+02  0.84711416163E+02  0.25500000000E-02 0.  1.
    5000001    1    1    2    0    0 -0.16652811607E+03 -0.16614886311E+03  0.25608080987E+03  0.38488886622E+03  0.16500000000E+03 0.  0.
   -5000001    1    1    2    0    0  0.16652811607E+03  0.16614886311E+03  0.99609681763E+03  0.10367115936E+04  0.16500000000E+03 0.  0.
<mgrwt>
<rscale>  0 0.67305205E+03</rscale>
<asrwt>0</asrwt>
<pdfrwt beam="1">  1        2 0.12101630E-01 0.67305205E+03</pdfrwt>
<pdfrwt beam="2">  1       -2 0.19098416E+00 0.67305205E+03</pdfrwt>
<totfact> 0.81389209E+01</totfact>
</mgrwt>
</event>
<event>
 4    1  0.5323640E-005  0.4285754E+03  0.7818608E-02  0.1034311E+00
          2   -1    0    0  501    0  0.00000000000E+00  0.00000000000E+00  0.19965614633E+04  0.19965614633E+04  0.25500000000E-02 0.  1.
         -2   -1    0    0    0  501 -0.00000000000E+00 -0.00000000000E+00 -0.22999154726E+02  0.22999154867E+02  0.25500000000E-02 0. -1.
    5000001    1    1    2    0    0 -0.92402865753E+02  0.51601439740E+02  0.13946909082E+04  0.14083993495E+04  0.16500000000E+03 0.  0.
   -5000001    1    1    2    0    0  0.92402865753E+02 -0.51601439740E+02  0.57887140038E+03  0.61116126871E+03  0.16500000000E+03 0.  0.
<mgrwt>
<rscale>  0 0.42857544E+03</rscale>
<asrwt>0</asrwt>
<pdfrwt beam="1">  1        2 0.28522324E+00 0.42857544E+03</pdfrwt>
<pdfrwt beam="2">  1       -2 0.32855915E-02 0.42857544E+03</pdfrwt>
<totfact> 0.32655169E+03</totfact>
</mgrwt>
</event>
<event>
 4    1  0.5323640E-005  0.8994256E+03  0.7818608E-02  0.9426300E-01
          2   -1    0    0  501    0  0.00000000000E+00  0.00000000000E+00  0.68405004611E+03  0.68405004611E+03  0.25500000000E-02 0.  1.
         -2   -1    0    0    0  501 -0.00000000000E+00 -0.00000000000E+00 -0.29565324906E+03  0.29565324907E+03  0.25500000000E-02 0. -1.
    5000001    1    1    2    0    0  0.19915539146E+03 -0.36149748066E+03  0.11973513339E+03  0.46033118582E+03  0.16500000000E+03 0.  0.
   -5000001    1    1    2    0    0 -0.19915539146E+03  0.36149748066E+03  0.26866166366E+03  0.51937210936E+03  0.16500000000E+03 0.  0.
<mgrwt>
<rscale>  0 0.89942564E+03</rscale>
<asrwt>0</asrwt>
<pdfrwt beam="1">  1        2 0.97721432E-01 0.89942564E+03</pdfrwt>
<pdfrwt beam="2">  1       -2 0.42236180E-01 0.89942564E+03</pdfrwt>
<totfact> 0.24647265E+02</totfact>
</mgrwt>
</event>
<event>
 4    1  0.5323640E-005  0.3694770E+03  0.7818608E-02  0.1054893E+00
          2   -1    0    0  501    0  0.00000000000E+00  0.00000000000E+00  0.19751618079E+04  0.19751618079E+04  0.25500000000E-02 0.  1.
         -2   -1    0    0    0  501 -0.00000000000E+00 -0.00000000000E+00 -0.17278744580E+02  0.17278744768E+02  0.25500000000E-02 0. -1.
    5000001    1    1    2    0    0 -0.54240729358E+02  0.59685447357E+02  0.10866460430E+04  0.11020567282E+04  0.16500000000E+03 0.  0.
   -5000001    1    1    2    0    0  0.54240729358E+02 -0.59685447357E+02  0.87123702033E+03  0.89038382451E+03  0.16500000000E+03 0.  0.
<mgrwt>
<rscale>  0 0.36947702E+03</rscale>
<asrwt>0</asrwt>
<pdfrwt beam="1">  1        2 0.28216605E+00 0.36947702E+03</pdfrwt>
<pdfrwt beam="2">  1       -2 0.24683914E-02 0.36947702E+03</pdfrwt>
<totfact> 0.51465261E+03</totfact>
</mgrwt>
</event>
<event>
 4    1  0.5323640E-005  0.4881982E+03  0.7818608E-02  0.1016906E+00
          2   -1    0    0  501    0  0.00000000000E+00  0.00000000000E+00  0.49814353754E+04  0.49814353754E+04  0.25500000000E-02 0.  1.
         -2   -1    0    0    0  501 -0.00000000000E+00 -0.00000000000E+00 -0.11961283134E+02  0.11961283406E+02  0.25500000000E-02 0. -1.
    5000001    1    1    2    0    0 -0.11531257378E+03 -0.93252567795E+02  0.14433494100E+04  0.14602998153E+04  0.16500000000E+03 0.  0.
   -5000001    1    1    2    0    0  0.11531257378E+03  0.93252567795E+02  0.35261246822E+04  0.35330968435E+04  0.16500000000E+03 0.  0.
<mgrwt>
<rscale>  0 0.48819815E+03</rscale>
<asrwt>0</asrwt>
<pdfrwt beam="1">  1        2 0.71163439E+00 0.48819815E+03</pdfrwt>
<pdfrwt beam="2">  1       -2 0.17087529E-02 0.48819815E+03</pdfrwt>
<totfact> 0.11722436E+02</totfact>
</mgrwt>
</event>
<event>
 4    1  0.5323640E-005  0.4347023E+03  0.7818608E-02  0.1032385E+00
          2   -1    0    0  501    0  0.00000000000E+00  0.00000000000E+00  0.51233318206E+03  0.51233318207E+03  0.25500000000E-02 0.  1.
         -2   -1    0    0    0  501 -0.00000000000E+00 -0.00000000000E+00 -0.92208602604E+02  0.92208602639E+02  0.25500000000E-02 0. -1.
    5000001    1    1    2    0    0 -0.83613578762E+02  0.10110298377E+03  0.13642745395E+03  0.25109857442E+03  0.16500000000E+03 0.  0.
   -5000001    1    1    2    0    0  0.83613578762E+02 -0.10110298377E+03  0.28369712550E+03  0.35344321029E+03  0.16500000000E+03 0.  0.
<mgrwt>
<rscale>  0 0.43470232E+03</rscale>
<asrwt>0</asrwt>
<pdfrwt beam="1">  1        2 0.73190454E-01 0.43470232E+03</pdfrwt>
<pdfrwt beam="2">  1       -2 0.13172658E-01 0.43470232E+03</pdfrwt>
<totfact> 0.28157842E+03</totfact>
</mgrwt>
</event>
<event>
 4    1  0.5323640E-005  0.8133634E+03  0.7818608E-02  0.9540873E-01
         -2   -1    0    0    0  501 -0.00000000000E+00  0.00000000000E+00  0.60985452235E+02  0.60985452288E+02  0.25500000000E-02 0. -1.
          2   -1    0    0  501    0  0.00000000000E+00 -0.00000000000E+00 -0.27119580241E+04  0.27119580241E+04  0.25500000000E-02 0.  1.
    5000001    1    1    2    0    0 -0.15801889525E+03 -0.18608393483E+03 -0.22810918480E+04  0.23000439607E+04  0.16500000000E+03 0.  0.
   -5000001    1    1    2    0    0  0.15801889525E+03  0.18608393483E+03 -0.36988072382E+03  0.47289951566E+03  0.16500000000E+03 0.  0.
<mgrwt>
<rscale>  0 0.81336335E+03</rscale>
<asrwt>0</asrwt>
<pdfrwt beam="1">  1        2 0.38742250E+00 0.81336335E+03</pdfrwt>
<pdfrwt beam="2">  1       -2 0.87122092E-02 0.81336335E+03</pdfrwt>
<totfact> 0.30104614E+02</totfact>
</mgrwt>
</event>
<event>
 4    1  0.5323640E-005  0.7304583E+03  0.7818608E-02  0.9666517E-01
         -2   -1    0    0    0  501 -0.00000000000E+00  0.00000000000E+00  0.92675696391E+02  0.92675696426E+02  0.25500000000E-02 0. -1.
          2   -1    0    0  501    0  0.00000000000E+00 -0.00000000000E+00 -0.14393454039E+04  0.14393454039E+04  0.25500000000E-02 0.  1.
    5000001    1    1    2    0    0 -0.69222626400E+02  0.27882548532E+03 -0.35091723814E+03  0.48260059189E+03  0.16500000000E+03 0.  0.
   -5000001    1    1    2    0    0  0.69222626400E+02 -0.27882548532E+03 -0.99575246940E+03  0.10494205085E+04  0.16500000000E+03 0.  0.
<mgrwt>
<rscale>  0 0.73045832E+03</rscale>
<asrwt>0</asrwt>
<pdfrwt beam="1">  1        2 0.20562076E+00 0.73045832E+03</pdfrwt>
<pdfrwt beam="2">  1       -2 0.13239386E-01 0.73045832E+03</pdfrwt>
<totfact> 0.68733932E+02</totfact>
</mgrwt>
</event>
<event>
 4    1  0.5323640E-005  0.4453006E+03  0.7818608E-02  0.1029133E+00
         -2   -1    0    0    0  501 -0.00000000000E+00  0.00000000000E+00  0.43653605648E+02  0.43653605723E+02  0.25500000000E-02 0. -1.
          2   -1    0    0  501    0  0.00000000000E+00 -0.00000000000E+00 -0.11356028223E+04  0.11356028223E+04  0.25500000000E-02 0.  1.
    5000001    1    1    2    0    0 -0.14750419908E+03  0.12834064352E+02 -0.60063053576E+03  0.64023764528E+03  0.16500000000E+03 0.  0.
   -5000001    1    1    2    0    0  0.14750419908E+03 -0.12834064352E+02 -0.49131868092E+03  0.53901878277E+03  0.16500000000E+03 0.  0.
<mgrwt>
<rscale>  0 0.44530061E+03</rscale>
<asrwt>0</asrwt>
<pdfrwt beam="1">  1        2 0.16222896E+00 0.44530061E+03</pdfrwt>
<pdfrwt beam="2">  1       -2 0.62362301E-02 0.44530061E+03</pdfrwt>
<totfact> 0.34056388E+03</totfact>
</mgrwt>
</event>
<event>
 4    1  0.5323640E-005  0.4016443E+03  0.7818608E-02  0.1043212E+00
          2   -1    0    0  501    0  0.00000000000E+00  0.00000000000E+00  0.40976175042E+03  0.40976175042E+03  0.25500000000E-02 0.  1.
         -2   -1    0    0    0  501 -0.00000000000E+00 -0.00000000000E+00 -0.98421926123E+02  0.98421926156E+02  0.25500000000E-02 0. -1.
    5000001    1    1    2    0    0 -0.94132797463E+02  0.64959081527E+02  0.16185220992E+03  0.25787943634E+03  0.16500000000E+03 0.  0.
   -5000001    1    1    2    0    0  0.94132797463E+02 -0.64959081527E+02  0.14948761437E+03  0.25030424024E+03  0.16500000000E+03 0.  0.
<mgrwt>
<rscale>  0 0.40164432E+03</rscale>
<asrwt>0</asrwt>
<pdfrwt beam="1">  1        2 0.58537394E-01 0.40164432E+03</pdfrwt>
<pdfrwt beam="2">  1       -2 0.14060275E-01 0.40164432E+03</pdfrwt>
<totfact> 0.32373550E+03</totfact>
</mgrwt>
</event>
<event>
 4    1  0.5323640E-005  0.4542534E+03  0.7818608E-02  0.1026461E+00
         -2   -1    0    0    0  501 -0.00000000000E+00  0.00000000000E+00  0.12168894385E+02  0.12168894652E+02  0.25500000000E-02 0. -1.
          2   -1    0    0  501    0  0.00000000000E+00 -0.00000000000E+00 -0.42392134322E+04  0.42392134322E+04  0.25500000000E-02 0.  1.
    5000001    1    1    2    0    0  0.97709439163E+02  0.68974660468E+02 -0.11749578432E+04  0.11924997156E+04  0.16500000000E+03 0.  0.
   -5000001    1    1    2    0    0 -0.97709439163E+02 -0.68974660468E+02 -0.30520866946E+04  0.30588826113E+04  0.16500000000E+03 0.  0.
<mgrwt>
<rscale>  0 0.45425341E+03</rscale>
<asrwt>0</asrwt>
<pdfrwt beam="1">  1        2 0.60560098E+00 0.45425341E+03</pdfrwt>
<pdfrwt beam="2">  1       -2 0.17384162E-02 0.45425341E+03</pdfrwt>
<totfact> 0.45579782E+02</totfact>
</mgrwt>
</event>
<event>
 4    1  0.5323640E-005  0.3766717E+03  0.7818608E-02  0.1052171E+00
         -2   -1    0    0    0  501 -0.00000000000E+00  0.00000000000E+00  0.39767243156E+03  0.39767243157E+03  0.25500000000E-02 0. -1.
          2   -1    0    0  501    0  0.00000000000E+00 -0.00000000000E+00 -0.89195012698E+02  0.89195012734E+02  0.25500000000E-02 0.  1.
    5000001    1    1    2    0    0  0.86252701236E+02  0.17784490194E+02  0.18283831232E+03  0.26155432517E+03  0.16500000000E+03 0.  0.
   -5000001    1    1    2    0    0 -0.86252701236E+02 -0.17784490194E+02  0.12563910655E+03  0.22531311914E+03  0.16500000000E+03 0.  0.
<mgrwt>
<rscale>  0 0.37667173E+03</rscale>
<asrwt>0</asrwt>
<pdfrwt beam="1">  1        2 0.12742145E-01 0.37667173E+03</pdfrwt>
<pdfrwt beam="2">  1       -2 0.56810347E-01 0.37667173E+03</pdfrwt>
<totfact> 0.14160069E+03</totfact>
</mgrwt>
</event>
<event>
 4    1  0.5323640E-005  0.3754684E+03  0.7818608E-02  0.1052621E+00
         -2   -1    0    0    0  501 -0.00000000000E+00  0.00000000000E+00  0.40795748271E+02  0.40795748351E+02  0.25500000000E-02 0. -1.
          2   -1    0    0  501    0  0.00000000000E+00 -0.00000000000E+00 -0.86391672470E+03  0.86391672470E+03  0.25500000000E-02 0.  1.
    5000001    1    1    2    0    0 -0.62008705434E+02 -0.10528685781E+00 -0.25588672589E+03  0.31072191285E+03  0.16500000000E+03 0.  0.
   -5000001    1    1    2    0    0  0.62008705434E+02  0.10528685781E+00 -0.56723425053E+03  0.59399056020E+03  0.16500000000E+03 0.  0.
<mgrwt>
<rscale>  0 0.37546840E+03</rscale>
<asrwt>0</asrwt>
<pdfrwt beam="1">  1        2 0.12341666E+00 0.37546840E+03</pdfrwt>
<pdfrwt beam="2">  1       -2 0.58279646E-02 0.37546840E+03</pdfrwt>
<totfact> 0.55056914E+03</totfact>
</mgrwt>
</event>
<event>
 4    1  0.5323640E-005  0.8325408E+03  0.7818608E-02  0.9514074E-01
         -2   -1    0    0    0  501 -0.00000000000E+00  0.00000000000E+00  0.43365894711E+03  0.43365894712E+03  0.25500000000E-02 0. -1.
          2   -1    0    0  501    0  0.00000000000E+00 -0.00000000000E+00 -0.39957912262E+03  0.39957912263E+03  0.25500000000E-02 0.  1.
    5000001    1    1    2    0    0 -0.21356487580E+03 -0.31365374708E+03 -0.28467193485E+02  0.41475777309E+03  0.16500000000E+03 0.  0.
   -5000001    1    1    2    0    0  0.21356487580E+03  0.31365374708E+03  0.62547017972E+02  0.41848029666E+03  0.16500000000E+03 0.  0.
<mgrwt>
<rscale>  0 0.83254084E+03</rscale>
<asrwt>0</asrwt>
<pdfrwt beam="1">  1        2 0.57082731E-01 0.83254084E+03</pdfrwt>
<pdfrwt beam="2">  1       -2 0.61951279E-01 0.83254084E+03</pdfrwt>
<totfact> 0.21079168E+02</totfact>
</mgrwt>
</event>
<event>
 4    1  0.5323640E-005  0.4678650E+03  0.7818608E-02  0.1022525E+00
         -2   -1    0    0    0  501 -0.00000000000E+00  0.00000000000E+00  0.33985112023E+03  0.33985112024E+03  0.25500000000E-02 0. -1.
          2   -1    0    0  501    0  0.00000000000E+00 -0.00000000000E+00 -0.16102468889E+03  0.16102468891E+03  0.25500000000E-02 0.  1.
    5000001    1    1    2    0    0  0.13764064679E+02 -0.13485046991E+03 -0.12853327912E+02  0.21392593754E+03  0.16500000000E+03 0.  0.
   -5000001    1    1    2    0    0 -0.13764064679E+02  0.13485046991E+03  0.19167975926E+03  0.28694987162E+03  0.16500000000E+03 0.  0.
<mgrwt>
<rscale>  0 0.46786503E+03</rscale>
<asrwt>0</asrwt>
<pdfrwt beam="1">  1        2 0.23003527E-01 0.46786503E+03</pdfrwt>
<pdfrwt beam="2">  1       -2 0.48550160E-01 0.46786503E+03</pdfrwt>
<totfact> 0.97121057E+02</totfact>
</mgrwt>
</event>
<event>
 4    1  0.5323640E-005  0.6943901E+03  0.7818608E-02  0.9726874E-01
          2   -1    0    0  501    0  0.00000000000E+00  0.00000000000E+00  0.22812840043E+04  0.22812840043E+04  0.25500000000E-02 0.  1.
         -2   -1    0    0    0  501 -0.00000000000E+00 -0.00000000000E+00 -0.52840594279E+02  0.52840594340E+02  0.25500000000E-02 0. -1.
    5000001    1    1    2    0    0  0.14289980448E+03  0.24961795162E+03  0.76830861871E+03  0.83681097596E+03  0.16500000000E+03 0.  0.
   -5000001    1    1    2    0    0 -0.14289980448E+03 -0.24961795162E+03  0.14601347913E+04  0.14973136226E+04  0.16500000000E+03 0.  0.
<mgrwt>
<rscale>  0 0.69439010E+03</rscale>
<asrwt>0</asrwt>
<pdfrwt beam="1">  1        2 0.32589773E+00 0.69439010E+03</pdfrwt>
<pdfrwt beam="2">  1       -2 0.75486560E-02 0.69439010E+03</pdfrwt>
<totfact> 0.63858682E+02</totfact>
</mgrwt>
</event>
<event>
 4    1  0.5323640E-005  0.7990215E+03  0.7818608E-02  0.9561435E-01
         -2   -1    0    0    0  501 -0.00000000000E+00  0.00000000000E+00  0.23900917414E+03  0.23900917416E+03  0.25500000000E-02 0. -1.
          2   -1    0    0  501    0  0.00000000000E+00 -0.00000000000E+00 -0.66779376105E+03  0.66779376105E+03  0.25500000000E-02 0.  1.
    5000001    1    1    2    0    0 -0.28133503406E+03  0.21275856499E+03 -0.31569832551E+03  0.50130433980E+03  0.16500000000E+03 0.  0.
   -5000001    1    1    2    0    0  0.28133503406E+03 -0.21275856499E+03 -0.11308626140E+03  0.40549859542E+03  0.16500000000E+03 0.  0.
<mgrwt>
<rscale>  0 0.79902149E+03</rscale>
<asrwt>0</asrwt>
<pdfrwt beam="1">  1        2 0.95399108E-01 0.79902149E+03</pdfrwt>
<pdfrwt beam="2">  1       -2 0.34144168E-01 0.79902149E+03</pdfrwt>
<totfact> 0.38444237E+02</totfact>
</mgrwt>
</event>
<event>
 4    1  0.5323640E-005  0.3662397E+03  0.7818608E-02  0.1056140E+00
         -2   -1    0    0    0  501 -0.00000000000E+00  0.00000000000E+00  0.15462548196E+03  0.15462548198E+03  0.25500000000E-02 0. -1.
          2   -1    0    0  501    0  0.00000000000E+00 -0.00000000000E+00 -0.21686513337E+03  0.21686513339E+03  0.25500000000E-02 0.  1.
    5000001    1    1    2    0    0  0.34471585848E+02 -0.71417981373E+02 -0.26691748516E+02  0.18500342627E+03  0.16500000000E+03 0.  0.
   -5000001    1    1    2    0    0 -0.34471585848E+02  0.71417981373E+02 -0.35547902897E+02  0.18648718909E+03  0.16500000000E+03 0.  0.
<mgrwt>
<rscale>  0 0.36623968E+03</rscale>
<asrwt>0</asrwt>
<pdfrwt beam="1">  1        2 0.30980733E-01 0.36623968E+03</pdfrwt>
<pdfrwt beam="2">  1       -2 0.22089355E-01 0.36623968E+03</pdfrwt>
<totfact> 0.30090483E+03</totfact>
</mgrwt>
</event>
<event>
 4    1  0.5323640E-005  0.8213716E+03  0.7818608E-02  0.9529588E-01
         -2   -1    0    0    0  501 -0.00000000000E+00  0.00000000000E+00  0.21786844730E+03  0.21786844731E+03  0.25500000000E-02 0. -1.
          2   -1    0    0  501    0  0.00000000000E+00 -0.00000000000E+00 -0.77414986964E+03  0.77414986965E+03  0.25500000000E-02 0.  1.
    5000001    1    1    2    0    0  0.19452256774E+03 -0.10295331270E+02 -0.66668013049E+03  0.71388543871E+03  0.16500000000E+03 0.  0.
   -5000001    1    1    2    0    0 -0.19452256774E+03  0.10295331270E+02  0.11039870814E+03  0.27813287825E+03  0.16500000000E+03 0.  0.
<mgrwt>
<rscale>  0 0.82137161E+03</rscale>
<asrwt>0</asrwt>
<pdfrwt beam="1">  1        2 0.11059284E+00 0.82137161E+03</pdfrwt>
<pdfrwt beam="2">  1       -2 0.31124064E-01 0.82137161E+03</pdfrwt>
<totfact> 0.38038630E+02</totfact>
</mgrwt>
</event>
<event>
 4    1  0.5323640E-005  0.5065020E+03  0.7818608E-02  0.1012096E+00
          2   -1    0    0  501    0  0.00000000000E+00  0.00000000000E+00  0.65463373389E+03  0.65463373389E+03  0.25500000000E-02 0.  1.
         -2   -1    0    0    0  501 -0.00000000000E+00 -0.00000000000E+00 -0.97972450502E+02  0.97972450535E+02  0.25500000000E-02 0. -1.
    5000001    1    1    2    0    0 -0.58913276752E+02 -0.15065180578E+03  0.43235034671E+03  0.49022297281E+03  0.16500000000E+03 0.  0.
   -5000001    1    1    2    0    0  0.58913276752E+02  0.15065180578E+03  0.12431093667E+03  0.26238321162E+03  0.16500000000E+03 0.  0.
<mgrwt>
<rscale>  0 0.50650201E+03</rscale>
<asrwt>0</asrwt>
<pdfrwt beam="1">  1        2 0.93519110E-01 0.50650201E+03</pdfrwt>
<pdfrwt beam="2">  1       -2 0.13996064E-01 0.50650201E+03</pdfrwt>
<totfact> 0.19190075E+03</totfact>
</mgrwt>
</event>
<event>
 4    1  0.5323640E-005  0.7113490E+03  0.7818608E-02  0.9698018E-01
          2   -1    0    0  501    0  0.00000000000E+00  0.00000000000E+00  0.61411717508E+03  0.61411717509E+03  0.25500000000E-02 0.  1.
         -2   -1    0    0    0  501 -0.00000000000E+00 -0.00000000000E+00 -0.20599384442E+03  0.20599384443E+03  0.25500000000E-02 0. -1.
    5000001    1    1    2    0    0  0.60531632402E+02 -0.30918018552E+03  0.20957778337E+03  0.41280057282E+03  0.16500000000E+03 0.  0.
   -5000001    1    1    2    0    0 -0.60531632402E+02  0.30918018552E+03  0.19854554730E+03  0.40731044670E+03  0.16500000000E+03 0.  0.
<mgrwt>
<rscale>  0 0.71134902E+03</rscale>
<asrwt>0</asrwt>
<pdfrwt beam="1">  1        2 0.87731025E-01 0.71134902E+03</pdfrwt>
<pdfrwt beam="2">  1       -2 0.29427692E-01 0.71134902E+03</pdfrwt>
<totfact> 0.56316226E+02</totfact>
</mgrwt>
</event>
<event>
 4    1  0.5323640E-005  0.4569576E+03  0.7818608E-02  0.1025667E+00
          2   -1    0    0  501    0  0.00000000000E+00  0.00000000000E+00  0.13011197975E+04  0.13011197975E+04  0.25500000000E-02 0.  1.
         -2   -1    0    0    0  501 -0.00000000000E+00 -0.00000000000E+00 -0.40121255575E+02  0.40121255657E+02  0.25500000000E-02 0. -1.
    5000001    1    1    2    0    0  0.14958322856E+03 -0.44997352800E+02  0.70104416249E+03  0.73694492453E+03  0.16500000000E+03 0.  0.
   -5000001    1    1    2    0    0 -0.14958322856E+03  0.44997352800E+02  0.55995437938E+03  0.60429612858E+03  0.16500000000E+03 0.  0.
<mgrwt>
<rscale>  0 0.45695759E+03</rscale>
<asrwt>0</asrwt>
<pdfrwt beam="1">  1        2 0.18587422E+00 0.45695759E+03</pdfrwt>
<pdfrwt beam="2">  1       -2 0.57316091E-02 0.45695759E+03</pdfrwt>
<totfact> 0.31471607E+03</totfact>
</mgrwt>
</event>
<event>
 4    1  0.5323640E-005  0.4222248E+03  0.7818608E-02  0.1036345E+00
          2   -1    0    0  501    0  0.00000000000E+00  0.00000000000E+00  0.26886843980E+04  0.26886843981E+04  0.25500000000E-02 0.  1.
         -2   -1    0    0    0  501 -0.00000000000E+00 -0.00000000000E+00 -0.16576304434E+02  0.16576304630E+02  0.25500000000E-02 0. -1.
    5000001    1    1    2    0    0 -0.70793947453E+02  0.18953841274E+01  0.20474526465E+04  0.20553108561E+04  0.16500000000E+03 0.  0.
   -5000001    1    1    2    0    0  0.70793947453E+02 -0.18953841274E+01  0.62465544707E+03  0.64994984655E+03  0.16500000000E+03 0.  0.
<mgrwt>
<rscale>  0 0.42222483E+03</rscale>
<asrwt>0</asrwt>
<pdfrwt beam="1">  1        2 0.38409746E+00 0.42222483E+03</pdfrwt>
<pdfrwt beam="2">  1       -2 0.23680454E-02 0.42222483E+03</pdfrwt>
<totfact> 0.23982265E+03</totfact>
</mgrwt>
</event>
<event>
 4    1  0.5323640E-005  0.7946989E+03  0.7818608E-02  0.9567722E-01
         -2   -1    0    0    0  501 -0.00000000000E+00  0.00000000000E+00  0.31502189148E+03  0.31502189149E+03  0.25500000000E-02 0. -1.
          2   -1    0    0  501    0  0.00000000000E+00 -0.00000000000E+00 -0.50119244220E+03  0.50119244220E+03  0.25500000000E-02 0.  1.
    5000001    1    1    2    0    0  0.31204128858E+02  0.35936098252E+03 -0.11711918841E+03  0.41358906865E+03  0.16500000000E+03 0.  0.
   -5000001    1    1    2    0    0 -0.31204128858E+02 -0.35936098252E+03 -0.69051362311E+02  0.40262526504E+03  0.16500000000E+03 0.  0.
<mgrwt>
<rscale>  0 0.79469891E+03</rscale>
<asrwt>0</asrwt>
<pdfrwt beam="1">  1        2 0.71598920E-01 0.79469891E+03</pdfrwt>
<pdfrwt beam="2">  1       -2 0.45003128E-01 0.79469891E+03</pdfrwt>
<totfact> 0.31534736E+02</totfact>
</mgrwt>
</event>
<event>
 4    1  0.5323640E-005  0.4660754E+03  0.7818608E-02  0.1023034E+00
         -2   -1    0    0    0  501 -0.00000000000E+00  0.00000000000E+00  0.31704896022E+02  0.31704896124E+02  0.25500000000E-02 0. -1.
          2   -1    0    0  501    0  0.00000000000E+00 -0.00000000000E+00 -0.17128767275E+04  0.17128767275E+04  0.25500000000E-02 0.  1.
    5000001    1    1    2    0    0  0.31950186312E+02 -0.12601729863E+03 -0.12182603587E+04  0.12362380336E+04  0.16500000000E+03 0.  0.
   -5000001    1    1    2    0    0 -0.31950186312E+02  0.12601729863E+03 -0.46291147271E+03  0.50834359003E+03  0.16500000000E+03 0.  0.
<mgrwt>
<rscale>  0 0.46607544E+03</rscale>
<asrwt>0</asrwt>
<pdfrwt beam="1">  1        2 0.24469662E+00 0.46607544E+03</pdfrwt>
<pdfrwt beam="2">  1       -2 0.45292719E-02 0.46607544E+03</pdfrwt>
<totfact> 0.27713518E+03</totfact>
</mgrwt>
</event>
<event>
 4    1  0.5323640E-005  0.6884478E+03  0.7818608E-02  0.9737195E-01
         -2   -1    0    0    0  501 -0.00000000000E+00  0.00000000000E+00  0.93122378755E+02  0.93122378790E+02  0.25500000000E-02 0. -1.
          2   -1    0    0  501    0  0.00000000000E+00 -0.00000000000E+00 -0.12724125828E+04  0.12724125828E+04  0.25500000000E-02 0.  1.
    5000001    1    1    2    0    0  0.24574757455E+03  0.64253683083E+02 -0.91402245490E+03  0.96290313856E+03  0.16500000000E+03 0.  0.
   -5000001    1    1    2    0    0 -0.24574757455E+03 -0.64253683083E+02 -0.26526774916E+03  0.40263182305E+03  0.16500000000E+03 0.  0.
<mgrwt>
<rscale>  0 0.68844778E+03</rscale>
<asrwt>0</asrwt>
<pdfrwt beam="1">  1        2 0.18177322E+00 0.68844778E+03</pdfrwt>
<pdfrwt beam="2">  1       -2 0.13303198E-01 0.68844778E+03</pdfrwt>
<totfact> 0.84056598E+02</totfact>
</mgrwt>
</event>
<event>
 4    1  0.5323640E-005  0.1061199E+04  0.7818608E-02  0.9243857E-01
         -2   -1    0    0    0  501 -0.00000000000E+00  0.00000000000E+00  0.16680810207E+03  0.16680810209E+03  0.25500000000E-02 0. -1.
          2   -1    0    0  501    0  0.00000000000E+00 -0.00000000000E+00 -0.16877834164E+04  0.16877834164E+04  0.25500000000E-02 0.  1.
    5000001    1    1    2    0    0  0.27076995134E+03  0.37674225052E+03 -0.41509215435E+03  0.64403228683E+03  0.16500000000E+03 0.  0.
   -5000001    1    1    2    0    0 -0.27076995134E+03 -0.37674225052E+03 -0.11058831600E+04  0.12105592317E+04  0.16500000000E+03 0.  0.
<mgrwt>
<rscale>  0 0.10611992E+04</rscale>
<asrwt>0</asrwt>
<pdfrwt beam="1">  1        2 0.24111191E+00 0.10611992E+04</pdfrwt>
<pdfrwt beam="2">  1       -2 0.23829730E-01 0.10611992E+04</pdfrwt>
<totfact> 0.18098479E+02</totfact>
</mgrwt>
</event>
<event>
 4    1  0.5323640E-005  0.4378030E+03  0.7818608E-02  0.1031423E+00
          2   -1    0    0  501    0  0.00000000000E+00  0.00000000000E+00  0.10449998262E+04  0.10449998262E+04  0.25500000000E-02 0.  1.
         -2   -1    0    0    0  501 -0.00000000000E+00 -0.00000000000E+00 -0.45854421518E+02  0.45854421589E+02  0.25500000000E-02 0. -1.
    5000001    1    1    2    0    0 -0.93428632901E+02  0.90679743097E+02  0.34717099357E+03  0.40583792828E+03  0.16500000000E+03 0.  0.
   -5000001    1    1    2    0    0  0.93428632901E+02 -0.90679743097E+02  0.65197441110E+03  0.68501631951E+03  0.16500000000E+03 0.  0.
<mgrwt>
<rscale>  0 0.43780298E+03</rscale>
<asrwt>0</asrwt>
<pdfrwt beam="1">  1        2 0.14928567E+00 0.43780298E+03</pdfrwt>
<pdfrwt beam="2">  1       -2 0.65506324E-02 0.43780298E+03</pdfrwt>
<totfact> 0.35575721E+03</totfact>
</mgrwt>
</event>
<event>
 4    1  0.5323640E-005  0.8627793E+03  0.7818608E-02  0.9473344E-01
          2   -1    0    0  501    0  0.00000000000E+00  0.00000000000E+00  0.50338691947E+03  0.50338691947E+03  0.25500000000E-02 0.  1.
         -2   -1    0    0    0  501 -0.00000000000E+00 -0.00000000000E+00 -0.36968984244E+03  0.36968984245E+03  0.25500000000E-02 0. -1.
    5000001    1    1    2    0    0 -0.33594044597E+03 -0.49804723110E+02 -0.14429347823E+03  0.40420551894E+03  0.16500000000E+03 0.  0.
   -5000001    1    1    2    0    0  0.33594044597E+03  0.49804723110E+02  0.27799055526E+03  0.46887124298E+03  0.16500000000E+03 0.  0.
<mgrwt>
<rscale>  0 0.86277930E+03</rscale>
<asrwt>0</asrwt>
<pdfrwt beam="1">  1        2 0.71912417E-01 0.86277930E+03</pdfrwt>
<pdfrwt beam="2">  1       -2 0.52812835E-01 0.86277930E+03</pdfrwt>
<totfact> 0.22633001E+02</totfact>
</mgrwt>
</event>
<event>
 4    1  0.5323640E-005  0.6516547E+03  0.7818608E-02  0.9803679E-01
         -2   -1    0    0    0  501 -0.00000000000E+00  0.00000000000E+00  0.77339006921E+02  0.77339006963E+02  0.25500000000E-02 0. -1.
          2   -1    0    0  501    0  0.00000000000E+00 -0.00000000000E+00 -0.13727026285E+04  0.13727026285E+04  0.25500000000E-02 0.  1.
    5000001    1    1    2    0    0 -0.11695521774E+03 -0.23214247004E+03 -0.88495000702E+03  0.93697927633E+03  0.16500000000E+03 0.  0.
   -5000001    1    1    2    0    0  0.11695521774E+03  0.23214247004E+03 -0.41041361460E+03  0.51306235917E+03  0.16500000000E+03 0.  0.
<mgrwt>
<rscale>  0 0.65165469E+03</rscale>
<asrwt>0</asrwt>
<pdfrwt beam="1">  1        2 0.19610036E+00 0.65165469E+03</pdfrwt>
<pdfrwt beam="2">  1       -2 0.11048430E-01 0.65165469E+03</pdfrwt>
<totfact> 0.10091088E+03</totfact>
</mgrwt>
</event>
<event>
 4    1  0.5323640E-005  0.4596273E+03  0.7818608E-02  0.1024889E+00
         -2   -1    0    0    0  501 -0.00000000000E+00  0.00000000000E+00  0.86915312752E+03  0.86915312752E+03  0.25500000000E-02 0. -1.
          2   -1    0    0  501    0  0.00000000000E+00 -0.00000000000E+00 -0.60765257692E+02  0.60765257746E+02  0.25500000000E-02 0.  1.
    5000001    1    1    2    0    0 -0.12906498806E+01 -0.15878341318E+03  0.36498997428E+03  0.43087877577E+03  0.16500000000E+03 0.  0.
   -5000001    1    1    2    0    0  0.12906498806E+01  0.15878341318E+03  0.44339789555E+03  0.49903960950E+03  0.16500000000E+03 0.  0.
<mgrwt>
<rscale>  0 0.45962730E+03</rscale>
<asrwt>0</asrwt>
<pdfrwt beam="1">  1        2 0.86807519E-02 0.45962730E+03</pdfrwt>
<pdfrwt beam="2">  1       -2 0.12416472E+00 0.45962730E+03</pdfrwt>
<totfact> 0.39314421E+02</totfact>
</mgrwt>
</event>
<event>
 4    1  0.5323640E-005  0.5262731E+03  0.7818608E-02  0.1007140E+00
          2   -1    0    0  501    0  0.00000000000E+00  0.00000000000E+00  0.15819878423E+04  0.15819878423E+04  0.25500000000E-02 0.  1.
         -2   -1    0    0    0  501 -0.00000000000E+00 -0.00000000000E+00 -0.43768260929E+02  0.43768261003E+02  0.25500000000E-02 0. -1.
    5000001    1    1    2    0    0 -0.12377323216E+03  0.23029519479E+02  0.12688108097E+04  0.12856733810E+04  0.16500000000E+03 0.  0.
   -5000001    1    1    2    0    0  0.12377323216E+03 -0.23029519479E+02  0.26940877167E+03  0.34008272232E+03  0.16500000000E+03 0.  0.
<mgrwt>
<rscale>  0 0.52627315E+03</rscale>
<asrwt>0</asrwt>
<pdfrwt beam="1">  1        2 0.22599828E+00 0.52627315E+03</pdfrwt>
<pdfrwt beam="2">  1       -2 0.62526083E-02 0.52627315E+03</pdfrwt>
<totfact> 0.19566319E+03</totfact>
</mgrwt>
</event>
<event>
 4    1  0.5323640E-005  0.8906413E+03  0.7818608E-02  0.9437356E-01
          2   -1    0    0  501    0  0.00000000000E+00  0.00000000000E+00  0.66872200145E+03  0.66872200146E+03  0.25500000000E-02 0.  1.
         -2   -1    0    0    0  501 -0.00000000000E+00 -0.00000000000E+00 -0.29655145621E+03  0.29655145622E+03  0.25500000000E-02 0. -1.
    5000001    1    1    2    0    0 -0.36015092143E+03  0.20287259366E+03  0.20214257490E+03  0.48882777750E+03  0.16500000000E+03 0.  0.
   -5000001    1    1    2    0    0  0.36015092143E+03 -0.20287259366E+03  0.17002797035E+03  0.47644568018E+03  0.16500000000E+03 0.  0.
<mgrwt>
<rscale>  0 0.89064130E+03</rscale>
<asrwt>0</asrwt>
<pdfrwt beam="1">  1        2 0.95531713E-01 0.89064130E+03</pdfrwt>
<pdfrwt beam="2">  1       -2 0.42364495E-01 0.89064130E+03</pdfrwt>
<totfact> 0.25199583E+02</totfact>
</mgrwt>
</event>
<event>
 4    1  0.5323640E-005  0.4344736E+03  0.7818608E-02  0.1032456E+00
          2   -1    0    0  501    0  0.00000000000E+00  0.00000000000E+00  0.52206154916E+04  0.52206154916E+04  0.25500000000E-02 0.  1.
         -2   -1    0    0    0  501 -0.00000000000E+00 -0.00000000000E+00 -0.90395131069E+01  0.90395134665E+01  0.25500000000E-02 0. -1.
    5000001    1    1    2    0    0  0.41059536640E+02  0.81191105688E+02  0.13044285492E+04  0.13179668893E+04  0.16500000000E+03 0.  0.
   -5000001    1    1    2    0    0 -0.41059536640E+02 -0.81191105688E+02  0.39071474293E+04  0.39116881158E+04  0.16500000000E+03 0.  0.
<mgrwt>
<rscale>  0 0.43447358E+03</rscale>
<asrwt>0</asrwt>
<pdfrwt beam="1">  1        2 0.74580367E+00 0.43447358E+03</pdfrwt>
<pdfrwt beam="2">  1       -2 0.12913565E-02 0.43447358E+03</pdfrwt>
<totfact> 0.10503497E+02</totfact>
</mgrwt>
</event>
<event>
 4    1  0.5323640E-005  0.5657436E+03  0.7818608E-02  0.9979142E-01
          2   -1    0    0  501    0  0.00000000000E+00  0.00000000000E+00  0.90448474552E+03  0.90448474552E+03  0.25500000000E-02 0.  1.
         -2   -1    0    0    0  501 -0.00000000000E+00 -0.00000000000E+00 -0.88466331781E+02  0.88466331818E+02  0.25500000000E-02 0. -1.
    5000001    1    1    2    0    0 -0.88358697345E+02  0.13553226996E+03  0.12167513835E+03  0.26116296615E+03  0.16500000000E+03 0.  0.
   -5000001    1    1    2    0    0  0.88358697345E+02 -0.13553226996E+03  0.69434327539E+03  0.73178811119E+03  0.16500000000E+03 0.  0.
<mgrwt>
<rscale>  0 0.56574357E+03</rscale>
<asrwt>0</asrwt>
<pdfrwt beam="1">  1        2 0.12921211E+00 0.56574357E+03</pdfrwt>
<pdfrwt beam="2">  1       -2 0.12638047E-01 0.56574357E+03</pdfrwt>
<totfact> 0.15125973E+03</totfact>
</mgrwt>
</event>
<event>
 4    1  0.5323640E-005  0.4401417E+03  0.7818608E-02  0.1030703E+00
         -2   -1    0    0    0  501 -0.00000000000E+00  0.00000000000E+00  0.18195898356E+03  0.18195898358E+03  0.25500000000E-02 0. -1.
          2   -1    0    0  501    0  0.00000000000E+00 -0.00000000000E+00 -0.26616541165E+03  0.26616541166E+03  0.25500000000E-02 0.  1.
    5000001    1    1    2    0    0 -0.12066268325E+03 -0.77023696227E+02 -0.69309660545E+02  0.22917452292E+03  0.16500000000E+03 0.  0.
   -5000001    1    1    2    0    0  0.12066268325E+03  0.77023696227E+02 -0.14896767545E+02  0.21894987233E+03  0.16500000000E+03 0.  0.
<mgrwt>
<rscale>  0 0.44014174E+03</rscale>
<asrwt>0</asrwt>
<pdfrwt beam="1">  1        2 0.38023630E-01 0.44014174E+03</pdfrwt>
<pdfrwt beam="2">  1       -2 0.25994141E-01 0.44014174E+03</pdfrwt>
<totfact> 0.18055884E+03</totfact>
</mgrwt>
</event>
<event>
 4    1  0.5323640E-005  0.3913906E+03  0.7818608E-02  0.1046802E+00
         -2   -1    0    0    0  501 -0.00000000000E+00  0.00000000000E+00  0.91861397882E+02  0.91861397917E+02  0.25500000000E-02 0.  1.
          2   -1    0    0  501    0  0.00000000000E+00 -0.00000000000E+00 -0.41689600626E+03  0.41689600626E+03  0.25500000000E-02 0. -1.
    5000001    1    1    2    0    0  0.71113968253E+02 -0.12141342296E+02 -0.26208304406E+03  0.31798919896E+03  0.16500000000E+03 0.  0.
   -5000001    1    1    2    0    0 -0.71113968253E+02  0.12141342296E+02 -0.62951564319E+02  0.19076820522E+03  0.16500000000E+03 0.  0.
<mgrwt>
<rscale>  0 0.39139060E+03</rscale>
<asrwt>0</asrwt>
<pdfrwt beam="1">  1        2 0.59556571E-01 0.39139060E+03</pdfrwt>
<pdfrwt beam="2">  1       -2 0.13123057E-01 0.39139060E+03</pdfrwt>
<totfact> 0.35578242E+03</totfact>
</mgrwt>
</event>
<event>
 4    1  0.5323640E-005  0.4034912E+03  0.7818608E-02  0.1042577E+00
         -2   -1    0    0    0  501 -0.00000000000E+00  0.00000000000E+00  0.21862350524E+02  0.21862350673E+02  0.25500000000E-02 0. -1.
          2   -1    0    0  501    0  0.00000000000E+00 -0.00000000000E+00 -0.18617072686E+04  0.18617072686E+04  0.25500000000E-02 0.  1.
    5000001    1    1    2    0    0 -0.10180039004E+03  0.55791397384E+02 -0.91737590074E+03  0.93929736649E+03  0.16500000000E+03 0.  0.
   -5000001    1    1    2    0    0  0.10180039004E+03 -0.55791397384E+02 -0.92246901734E+03  0.94427225279E+03  0.16500000000E+03 0.  0.
<mgrwt>
<rscale>  0 0.40349125E+03</rscale>
<asrwt>0</asrwt>
<pdfrwt beam="1">  1        2 0.26595808E+00 0.40349125E+03</pdfrwt>
<pdfrwt beam="2">  1       -2 0.31231941E-02 0.40349125E+03</pdfrwt>
<totfact> 0.41140638E+03</totfact>
</mgrwt>
</event>
<event>
 4    1  0.5323640E-005  0.5257982E+03  0.7818608E-02  0.1007256E+00
         -2   -1    0    0    0  501 -0.00000000000E+00  0.00000000000E+00  0.64475519096E+03  0.64475519096E+03  0.25500000000E-02 0. -1.
          2   -1    0    0  501    0  0.00000000000E+00 -0.00000000000E+00 -0.10719719132E+03  0.10719719135E+03  0.25500000000E-02 0.  1.
    5000001    1    1    2    0    0  0.13935602224E+03 -0.11828449516E+03  0.13708697200E+03  0.28183179491E+03  0.16500000000E+03 0.  0.
   -5000001    1    1    2    0    0 -0.13935602224E+03  0.11828449516E+03  0.40047102763E+03  0.47012058741E+03  0.16500000000E+03 0.  0.
<mgrwt>
<rscale>  0 0.52579823E+03</rscale>
<asrwt>0</asrwt>
<pdfrwt beam="1">  1        2 0.15313885E-01 0.52579823E+03</pdfrwt>
<pdfrwt beam="2">  1       -2 0.92107880E-01 0.52579823E+03</pdfrwt>
<totfact> 0.39574189E+02</totfact>
</mgrwt>
</event>
<event>
 4    1  0.5323640E-005  0.3993799E+03  0.7818608E-02  0.1043995E+00
          2   -1    0    0  501    0  0.00000000000E+00  0.00000000000E+00  0.67810136258E+02  0.67810136306E+02  0.25500000000E-02 0.  1.
         -2   -1    0    0    0  501 -0.00000000000E+00 -0.00000000000E+00 -0.58805479072E+03  0.58805479073E+03  0.25500000000E-02 0. -1.
    5000001    1    1    2    0    0 -0.62484920236E+02 -0.31022286692E+02 -0.40501244639E+03  0.44286208830E+03  0.16500000000E+03 0.  0.
   -5000001    1    1    2    0    0  0.62484920236E+02  0.31022286692E+02 -0.11523220808E+03  0.21300283873E+03  0.16500000000E+03 0.  0.
<mgrwt>
<rscale>  0 0.39937990E+03</rscale>
<asrwt>0</asrwt>
<pdfrwt beam="1">  1        2 0.96871627E-02 0.39937990E+03</pdfrwt>
<pdfrwt beam="2">  1       -2 0.84007824E-01 0.39937990E+03</pdfrwt>
<totfact> 0.85821939E+02</totfact>
</mgrwt>
</event>
<event>
 4    1  0.5323640E-005  0.6186107E+03  0.7818608E-02  0.9867530E-01
          2   -1    0    0  501    0  0.00000000000E+00  0.00000000000E+00  0.17688390229E+04  0.17688390229E+04  0.25500000000E-02 0.  1.
         -2   -1    0    0    0  501 -0.00000000000E+00 -0.00000000000E+00 -0.54086208564E+02  0.54086208624E+02  0.25500000000E-02 0. -1.
    5000001    1    1    2    0    0  0.21078424718E+03  0.13488699000E+03  0.63256205913E+03  0.69998875532E+03  0.16500000000E+03 0.  0.
   -5000001    1    1    2    0    0 -0.21078424718E+03 -0.13488699000E+03  0.10821907552E+04  0.11229364762E+04  0.16500000000E+03 0.  0.
<mgrwt>
<rscale>  0 0.61861069E+03</rscale>
<asrwt>0</asrwt>
<pdfrwt beam="1">  1        2 0.25269129E+00 0.61861069E+03</pdfrwt>
<pdfrwt beam="2">  1       -2 0.77266013E-02 0.61861069E+03</pdfrwt>
<totfact> 0.11214274E+03</totfact>
</mgrwt>
</event>
<event>
 4    1  0.5323640E-005  0.4893570E+03  0.7818608E-02  0.1016595E+00
         -2   -1    0    0    0  501 -0.00000000000E+00  0.00000000000E+00  0.10217417717E+03  0.10217417721E+03  0.25500000000E-02 0. -1.
          2   -1    0    0  501    0  0.00000000000E+00 -0.00000000000E+00 -0.58593640854E+03  0.58593640855E+03  0.25500000000E-02 0.  1.
    5000001    1    1    2    0    0 -0.16754341987E+03 -0.49568350767E+01 -0.14706010449E+03  0.27739329856E+03  0.16500000000E+03 0.  0.
   -5000001    1    1    2    0    0  0.16754341987E+03  0.49568350767E+01 -0.33670212687E+03  0.41071728719E+03  0.16500000000E+03 0.  0.
<mgrwt>
<rscale>  0 0.48935701E+03</rscale>
<asrwt>0</asrwt>
<pdfrwt beam="1">  1        2 0.83705199E-01 0.48935701E+03</pdfrwt>
<pdfrwt beam="2">  1       -2 0.14596311E-01 0.48935701E+03</pdfrwt>
<totfact> 0.20384788E+03</totfact>
</mgrwt>
</event>
<event>
 4    1  0.5323640E-005  0.4510017E+03  0.7818608E-02  0.1027424E+00
          2   -1    0    0  501    0  0.00000000000E+00  0.00000000000E+00  0.66268922820E+03  0.66268922820E+03  0.25500000000E-02 0.  1.
         -2   -1    0    0    0  501 -0.00000000000E+00 -0.00000000000E+00 -0.76733747326E+02  0.76733747369E+02  0.25500000000E-02 0. -1.
    5000001    1    1    2    0    0 -0.18773960566E+02 -0.15210750134E+03  0.31213088749E+03  0.38488939253E+03  0.16500000000E+03 0.  0.
   -5000001    1    1    2    0    0  0.18773960566E+02  0.15210750134E+03  0.27382459338E+03  0.35453358304E+03  0.16500000000E+03 0.  0.
<mgrwt>
<rscale>  0 0.45100168E+03</rscale>
<asrwt>0</asrwt>
<pdfrwt beam="1">  1        2 0.94669890E-01 0.45100168E+03</pdfrwt>
<pdfrwt beam="2">  1       -2 0.10961964E-01 0.45100168E+03</pdfrwt>
<totfact> 0.28234212E+03</totfact>
</mgrwt>
</event>
<event>
 4    1  0.5323640E-005  0.1026876E+04  0.7818608E-02  0.9279549E-01
         -2   -1    0    0    0  501 -0.00000000000E+00  0.00000000000E+00  0.37521596403E+03  0.37521596404E+03  0.25500000000E-02 0. -1.
          2   -1    0    0  501    0  0.00000000000E+00 -0.00000000000E+00 -0.70257858552E+03  0.70257858552E+03  0.25500000000E-02 0.  1.
    5000001    1    1    2    0    0  0.19841361670E+03  0.43881792218E+03 -0.93550694254E+02  0.51759623696E+03  0.16500000000E+03 0.  0.
   -5000001    1    1    2    0    0 -0.19841361670E+03 -0.43881792218E+03 -0.23381192724E+03  0.56019831260E+03  0.16500000000E+03 0.  0.
<mgrwt>
<rscale>  0 0.10268762E+04</rscale>
<asrwt>0</asrwt>
<pdfrwt beam="1">  1        2 0.10036837E+00 0.10268762E+04</pdfrwt>
<pdfrwt beam="2">  1       -2 0.53602281E-01 0.10268762E+04</pdfrwt>
<totfact> 0.14651330E+02</totfact>
</mgrwt>
</event>
<event>
 4    1  0.5323640E-005  0.3840923E+03  0.7818608E-02  0.1049432E+00
          2   -1    0    0  501    0  0.00000000000E+00  0.00000000000E+00  0.10976000033E+04  0.10976000033E+04  0.25500000000E-02 0.  1.
         -2   -1    0    0    0  501 -0.00000000000E+00 -0.00000000000E+00 -0.33602149107E+02  0.33602149203E+02  0.25500000000E-02 0. -1.
    5000001    1    1    2    0    0  0.97847343649E+02 -0.90481603930E+01  0.53454465550E+03  0.56799556388E+03  0.16500000000E+03 0.  0.
   -5000001    1    1    2    0    0 -0.97847343649E+02  0.90481603930E+01  0.52945319873E+03  0.56320658866E+03  0.16500000000E+03 0.  0.
<mgrwt>
<rscale>  0 0.38409228E+03</rscale>
<asrwt>0</asrwt>
<pdfrwt beam="1">  1        2 0.15680001E+00 0.38409228E+03</pdfrwt>
<pdfrwt beam="2">  1       -2 0.48003067E-02 0.38409228E+03</pdfrwt>
<totfact> 0.53551275E+03</totfact>
</mgrwt>
</event>
<event>
 4    1  0.5323640E-005  0.5014982E+03  0.7818608E-02  0.1013389E+00
         -2   -1    0    0    0  501 -0.00000000000E+00  0.00000000000E+00  0.36733108318E+02  0.36733108407E+02  0.25500000000E-02 0. -1.
          2   -1    0    0  501    0  0.00000000000E+00 -0.00000000000E+00 -0.17116741628E+04  0.17116741628E+04  0.25500000000E-02 0.  1.
    5000001    1    1    2    0    0  0.17357078569E+03  0.46864854479E+02 -0.10385641666E+04  0.10668475338E+04  0.16500000000E+03 0.  0.
   -5000001    1    1    2    0    0 -0.17357078569E+03 -0.46864854479E+02 -0.63637688797E+03  0.68155973750E+03  0.16500000000E+03 0.  0.
<mgrwt>
<rscale>  0 0.50149821E+03</rscale>
<asrwt>0</asrwt>
<pdfrwt beam="1">  1        2 0.24452483E+00 0.50149821E+03</pdfrwt>
<pdfrwt beam="2">  1       -2 0.52475880E-02 0.50149821E+03</pdfrwt>
<totfact> 0.22097086E+03</totfact>
</mgrwt>
</event>
<event>
 4    1  0.5323640E-005  0.4326343E+03  0.7818608E-02  0.1033031E+00
          2   -1    0    0  501    0  0.00000000000E+00  0.00000000000E+00  0.23974579540E+04  0.23974579540E+04  0.25500000000E-02 0.  1.
         -2   -1    0    0    0  501 -0.00000000000E+00 -0.00000000000E+00 -0.19517805232E+02  0.19517805399E+02  0.25500000000E-02 0. -1.
    5000001    1    1    2    0    0 -0.92741716768E+02  0.95378177628E+02  0.14305623921E+04  0.14461783363E+04  0.16500000000E+03 0.  0.
   -5000001    1    1    2    0    0  0.92741716768E+02 -0.95378177628E+02  0.94737775664E+03  0.97079742304E+03  0.16500000000E+03 0.  0.
<mgrwt>
<rscale>  0 0.43263434E+03</rscale>
<asrwt>0</asrwt>
<pdfrwt beam="1">  1        2 0.34249362E+00 0.43263434E+03</pdfrwt>
<pdfrwt beam="2">  1       -2 0.27882609E-02 0.43263434E+03</pdfrwt>
<totfact> 0.26397998E+03</totfact>
</mgrwt>
</event>
<event>
 4    1  0.5323640E-005  0.8355205E+03  0.7818608E-02  0.9509980E-01
         -2   -1    0    0    0  501 -0.00000000000E+00  0.00000000000E+00  0.19093482723E+03  0.19093482725E+03  0.25500000000E-02 0. -1.
          2   -1    0    0  501    0  0.00000000000E+00 -0.00000000000E+00 -0.91404822718E+03  0.91404822719E+03  0.25500000000E-02 0.  1.
    5000001    1    1    2    0    0 -0.21944787449E+03 -0.26302749715E+03 -0.13265263977E+03  0.40269412301E+03  0.16500000000E+03 0.  0.
   -5000001    1    1    2    0    0  0.21944787449E+03  0.26302749715E+03 -0.59046076019E+03  0.70228893142E+03  0.16500000000E+03 0.  0.
<mgrwt>
<rscale>  0 0.83552053E+03</rscale>
<asrwt>0</asrwt>
<pdfrwt beam="1">  1        2 0.13057832E+00 0.83552053E+03</pdfrwt>
<pdfrwt beam="2">  1       -2 0.27276404E-01 0.83552053E+03</pdfrwt>
<totfact> 0.38992689E+02</totfact>
</mgrwt>
</event>
<event>
 4    1  0.5323640E-005  0.6249602E+03  0.7818608E-02  0.9854933E-01
         -2   -1    0    0    0  501 -0.00000000000E+00  0.00000000000E+00  0.14029672791E+03  0.14029672793E+03  0.25500000000E-02 0. -1.
          2   -1    0    0  501    0  0.00000000000E+00 -0.00000000000E+00 -0.69598069187E+03  0.69598069187E+03  0.25500000000E-02 0.  1.
    5000001    1    1    2    0    0  0.21604869060E+03 -0.87552637112E+02 -0.44750657975E+03  0.53087629434E+03  0.16500000000E+03 0.  0.
   -5000001    1    1    2    0    0 -0.21604869060E+03  0.87552637112E+02 -0.10817738421E+03  0.30540112546E+03  0.16500000000E+03 0.  0.
<mgrwt>
<rscale>  0 0.62496020E+03</rscale>
<asrwt>0</asrwt>
<pdfrwt beam="1">  1        2 0.99425811E-01 0.62496020E+03</pdfrwt>
<pdfrwt beam="2">  1       -2 0.20042390E-01 0.62496020E+03</pdfrwt>
<totfact> 0.96611629E+02</totfact>
</mgrwt>
</event>
<event>
 4    1  0.5323640E-005  0.1110986E+04  0.7818608E-02  0.9194550E-01
         -2   -1    0    0    0  501 -0.00000000000E+00  0.00000000000E+00  0.21953267061E+03  0.21953267062E+03  0.25500000000E-02 0. -1.
          2   -1    0    0  501    0  0.00000000000E+00 -0.00000000000E+00 -0.14055878344E+04  0.14055878344E+04  0.25500000000E-02 0.  1.
    5000001    1    1    2    0    0  0.49666437181E+03 -0.18088849932E+03 -0.52841167725E+03  0.76540188664E+03  0.16500000000E+03 0.  0.
   -5000001    1    1    2    0    0 -0.49666437181E+03  0.18088849932E+03 -0.65764348653E+03  0.85971861838E+03  0.16500000000E+03 0.  0.
<mgrwt>
<rscale>  0 0.11109860E+04</rscale>
<asrwt>0</asrwt>
<pdfrwt beam="1">  1        2 0.20079826E+00 0.11109860E+04</pdfrwt>
<pdfrwt beam="2">  1       -2 0.31361811E-01 0.11109860E+04</pdfrwt>
<totfact> 0.15355600E+02</totfact>
</mgrwt>
</event>
<event>
 4    1  0.5323640E-005  0.5804316E+03  0.7818608E-02  0.9946857E-01
         -2   -1    0    0    0  501 -0.00000000000E+00  0.00000000000E+00  0.94258626253E+02  0.94258626287E+02  0.25500000000E-02 0. -1.
          2   -1    0    0  501    0  0.00000000000E+00 -0.00000000000E+00 -0.89355448456E+03  0.89355448456E+03  0.25500000000E-02 0.  1.
    5000001    1    1    2    0    0 -0.20036732923E+03  0.10547086529E+03 -0.27083336901E+03  0.38967535695E+03  0.16500000000E+03 0.  0.
   -5000001    1    1    2    0    0  0.20036732923E+03 -0.10547086529E+03 -0.52846248929E+03  0.59813775390E+03  0.16500000000E+03 0.  0.
<mgrwt>
<rscale>  0 0.58043163E+03</rscale>
<asrwt>0</asrwt>
<pdfrwt beam="1">  1        2 0.12765064E+00 0.58043163E+03</pdfrwt>
<pdfrwt beam="2">  1       -2 0.13465519E-01 0.58043163E+03</pdfrwt>
<totfact> 0.13836345E+03</totfact>
</mgrwt>
</event>
<event>
 4    1  0.5323640E-005  0.4372902E+03  0.7818608E-02  0.1031581E+00
          2   -1    0    0  501    0  0.00000000000E+00  0.00000000000E+00  0.76687508453E+03  0.76687508453E+03  0.25500000000E-02 0.  1.
         -2   -1    0    0    0  501 -0.00000000000E+00 -0.00000000000E+00 -0.62338282855E+02  0.62338282907E+02  0.25500000000E-02 0. -1.
    5000001    1    1    2    0    0  0.72794165131E+02 -0.11953059227E+03  0.29248004284E+03  0.36380781799E+03  0.16500000000E+03 0.  0.
   -5000001    1    1    2    0    0 -0.72794165131E+02  0.11953059227E+03  0.41205675883E+03  0.46540554946E+03  0.16500000000E+03 0.  0.
<mgrwt>
<rscale>  0 0.43729018E+03</rscale>
<asrwt>0</asrwt>
<pdfrwt beam="1">  1        2 0.10955358E+00 0.43729018E+03</pdfrwt>
<pdfrwt beam="2">  1       -2 0.89054697E-02 0.43729018E+03</pdfrwt>
<totfact> 0.33001709E+03</totfact>
</mgrwt>
</event>
<event>
 4    1  0.5323640E-005  0.7982651E+03  0.7818608E-02  0.9562532E-01
          2   -1    0    0  501    0  0.00000000000E+00  0.00000000000E+00  0.11710416941E+04  0.11710416941E+04  0.25500000000E-02 0.  1.
         -2   -1    0    0    0  501 -0.00000000000E+00 -0.00000000000E+00 -0.13603853236E+03  0.13603853238E+03  0.25500000000E-02 0. -1.
    5000001    1    1    2    0    0  0.14564168419E+03  0.25158605491E+03  0.87464558162E+03  0.93634231809E+03  0.16500000000E+03 0.  0.
   -5000001    1    1    2    0    0 -0.14564168419E+03 -0.25158605491E+03  0.16035758008E+03  0.37073790835E+03  0.16500000000E+03 0.  0.
<mgrwt>
<rscale>  0 0.79826510E+03</rscale>
<asrwt>0</asrwt>
<pdfrwt beam="1">  1        2 0.16729168E+00 0.79826510E+03</pdfrwt>
<pdfrwt beam="2">  1       -2 0.19434075E-01 0.79826510E+03</pdfrwt>
<totfact> 0.50002769E+02</totfact>
</mgrwt>
</event>
<event>
 4    1  0.5323640E-005  0.6225972E+03  0.7818608E-02  0.9859602E-01
          2   -1    0    0  501    0  0.00000000000E+00  0.00000000000E+00  0.64823588324E+03  0.64823588324E+03  0.25500000000E-02 0.  1.
         -2   -1    0    0    0  501 -0.00000000000E+00 -0.00000000000E+00 -0.14949315832E+03  0.14949315834E+03  0.25500000000E-02 0. -1.
    5000001    1    1    2    0    0  0.55230309574E+02  0.18369183907E+03  0.17005725691E+02  0.25358878828E+03  0.16500000000E+03 0.  0.
   -5000001    1    1    2    0    0 -0.55230309574E+02 -0.18369183907E+03  0.48173699923E+03  0.54414025330E+03  0.16500000000E+03 0.  0.
<mgrwt>
<rscale>  0 0.62259724E+03</rscale>
<asrwt>0</asrwt>
<pdfrwt beam="1">  1        2 0.92605124E-01 0.62259724E+03</pdfrwt>
<pdfrwt beam="2">  1       -2 0.21356166E-01 0.62259724E+03</pdfrwt>
<totfact> 0.94224190E+02</totfact>
</mgrwt>
</event>
<event>
 4    1  0.5323640E-005  0.4453800E+03  0.7818608E-02  0.1029109E+00
         -2   -1    0    0    0  501 -0.00000000000E+00  0.00000000000E+00  0.16630998504E+02  0.16630998700E+02  0.25500000000E-02 0. -1.
          2   -1    0    0  501    0  0.00000000000E+00 -0.00000000000E+00 -0.29818312667E+04  0.29818312667E+04  0.25500000000E-02 0.  1.
    5000001    1    1    2    0    0  0.10549106884E+03  0.77981363681E+02 -0.19660373241E+04  0.19773055450E+04  0.16500000000E+03 0.  0.
   -5000001    1    1    2    0    0 -0.10549106884E+03 -0.77981363681E+02 -0.99916294409E+03  0.10211567204E+04  0.16500000000E+03 0.  0.
<mgrwt>
<rscale>  0 0.44537998E+03</rscale>
<asrwt>0</asrwt>
<pdfrwt beam="1">  1        2 0.42597555E+00 0.44537998E+03</pdfrwt>
<pdfrwt beam="2">  1       -2 0.23758589E-02 0.44537998E+03</pdfrwt>
<totfact> 0.16697327E+03</totfact>
</mgrwt>
</event>
<event>
 4    1  0.5323640E-005  0.5429277E+03  0.7818608E-02  0.1003144E+00
         -2   -1    0    0    0  501 -0.00000000000E+00  0.00000000000E+00  0.33142685818E+02  0.33142685916E+02  0.25500000000E-02 0. -1.
          2   -1    0    0  501    0  0.00000000000E+00 -0.00000000000E+00 -0.22234957242E+04  0.22234957242E+04  0.25500000000E-02 0.  1.
    5000001    1    1    2    0    0  0.19956457634E+03  0.38518803182E+02 -0.13936848964E+04  0.14180593460E+04  0.16500000000E+03 0.  0.
   -5000001    1    1    2    0    0 -0.19956457634E+03 -0.38518803182E+02 -0.79666814198E+03  0.83857906412E+03  0.16500000000E+03 0.  0.
<mgrwt>
<rscale>  0 0.54292769E+03</rscale>
<asrwt>0</asrwt>
<pdfrwt beam="1">  1        2 0.31764215E+00 0.54292769E+03</pdfrwt>
<pdfrwt beam="2">  1       -2 0.47346708E-02 0.54292769E+03</pdfrwt>
<totfact> 0.14326949E+03</totfact>
</mgrwt>
</event>
<event>
 4    1  0.5323640E-005  0.4539089E+03  0.7818608E-02  0.1026563E+00
         -2   -1    0    0    0  501 -0.00000000000E+00  0.00000000000E+00  0.19199275484E+03  0.19199275486E+03  0.25500000000E-02 0. -1.
          2   -1    0    0  501    0  0.00000000000E+00 -0.00000000000E+00 -0.26828264016E+03  0.26828264017E+03  0.25500000000E-02 0.  1.
    5000001    1    1    2    0    0  0.76428271479E+02  0.13071873791E+03 -0.82308457864E+00  0.22395166128E+03  0.16500000000E+03 0.  0.
   -5000001    1    1    2    0    0 -0.76428271479E+02 -0.13071873791E+03 -0.75466800744E+02  0.23632373375E+03  0.16500000000E+03 0.  0.
<mgrwt>
<rscale>  0 0.45390890E+03</rscale>
<asrwt>0</asrwt>
<pdfrwt beam="1">  1        2 0.38326091E-01 0.45390890E+03</pdfrwt>
<pdfrwt beam="2">  1       -2 0.27427536E-01 0.45390890E+03</pdfrwt>
<totfact> 0.16253618E+03</totfact>
</mgrwt>
</event>
<event>
 4    1  0.5323640E-005  0.5072390E+03  0.7818608E-02  0.1011907E+00
         -2   -1    0    0    0  501 -0.00000000000E+00  0.00000000000E+00  0.35182916697E+02  0.35182916789E+02  0.25500000000E-02 0. -1.
          2   -1    0    0  501    0  0.00000000000E+00 -0.00000000000E+00 -0.18282407741E+04  0.18282407741E+04  0.25500000000E-02 0.  1.
    5000001    1    1    2    0    0  0.17163455717E+03 -0.78584434837E+02 -0.10370870497E+04  0.10669622689E+04  0.16500000000E+03 0.  0.
   -5000001    1    1    2    0    0 -0.17163455717E+03  0.78584434837E+02 -0.75597080777E+03  0.79646142205E+03  0.16500000000E+03 0.  0.
<mgrwt>
<rscale>  0 0.50723897E+03</rscale>
<asrwt>0</asrwt>
<pdfrwt beam="1">  1        2 0.26117719E+00 0.50723897E+03</pdfrwt>
<pdfrwt beam="2">  1       -2 0.50261321E-02 0.50723897E+03</pdfrwt>
<totfact> 0.20635238E+03</totfact>
</mgrwt>
</event>
<event>
 4    1  0.5323640E-005  0.4435731E+03  0.7818608E-02  0.1029656E+00
          2   -1    0    0  501    0  0.00000000000E+00  0.00000000000E+00  0.78655716948E+03  0.78655716948E+03  0.25500000000E-02 0.  1.
         -2   -1    0    0    0  501 -0.00000000000E+00 -0.00000000000E+00 -0.62537456309E+02  0.62537456361E+02  0.25500000000E-02 0. -1.
    5000001    1    1    2    0    0  0.50815821013E+02  0.13916861668E+03  0.35481354905E+03  0.41841104924E+03  0.16500000000E+03 0.  0.
   -5000001    1    1    2    0    0 -0.50815821013E+02 -0.13916861668E+03  0.36920616412E+03  0.43068357661E+03  0.16500000000E+03 0.  0.
<mgrwt>
<rscale>  0 0.44357315E+03</rscale>
<asrwt>0</asrwt>
<pdfrwt beam="1">  1        2 0.11236532E+00 0.44357315E+03</pdfrwt>
<pdfrwt beam="2">  1       -2 0.89339218E-02 0.44357315E+03</pdfrwt>
<totfact> 0.31814900E+03</totfact>
</mgrwt>
</event>
<event>
 4    1  0.5323640E-005  0.7337546E+03  0.7818608E-02  0.9661187E-01
         -2   -1    0    0    0  501 -0.00000000000E+00  0.00000000000E+00  0.93474712356E+02  0.93474712390E+02  0.25500000000E-02 0. -1.
          2   -1    0    0  501    0  0.00000000000E+00 -0.00000000000E+00 -0.14399505117E+04  0.14399505117E+04  0.25500000000E-02 0.  1.
    5000001    1    1    2    0    0 -0.28532064084E+03 -0.13870149633E+03 -0.84465506884E+03  0.91723124592E+03  0.16500000000E+03 0.  0.
   -5000001    1    1    2    0    0  0.28532064084E+03  0.13870149633E+03 -0.50182073052E+03  0.61619397819E+03  0.16500000000E+03 0.  0.
<mgrwt>
<rscale>  0 0.73375462E+03</rscale>
<asrwt>0</asrwt>
<pdfrwt beam="1">  1        2 0.20570720E+00 0.73375462E+03</pdfrwt>
<pdfrwt beam="2">  1       -2 0.13353531E-01 0.73375462E+03</pdfrwt>
<totfact> 0.67695635E+02</totfact>
</mgrwt>
</event>
<event>
 4    1  0.5323640E-005  0.5735968E+03  0.7818608E-02  0.9961751E-01
          2   -1    0    0  501    0  0.00000000000E+00  0.00000000000E+00  0.50272409916E+03  0.50272409916E+03  0.25500000000E-02 0.  1.
         -2   -1    0    0    0  501 -0.00000000000E+00 -0.00000000000E+00 -0.16361521881E+03  0.16361521883E+03  0.25500000000E-02 0. -1.
    5000001    1    1    2    0    0 -0.17570137495E+03 -0.10607250908E+03  0.37581785233E+02  0.26600703172E+03  0.16500000000E+03 0.  0.
   -5000001    1    1    2    0    0  0.17570137495E+03  0.10607250908E+03  0.30152709511E+03  0.40033228627E+03  0.16500000000E+03 0.  0.
<mgrwt>
<rscale>  0 0.57359677E+03</rscale>
<asrwt>0</asrwt>
<pdfrwt beam="1">  1        2 0.71817730E-01 0.57359677E+03</pdfrwt>
<pdfrwt beam="2">  1       -2 0.23373602E-01 0.57359677E+03</pdfrwt>
<totfact> 0.10810721E+03</totfact>
</mgrwt>
</event>
<event>
 4    1  0.5323640E-005  0.4740287E+03  0.7818608E-02  0.1020789E+00
          2   -1    0    0  501    0  0.00000000000E+00  0.00000000000E+00  0.14085033249E+04  0.14085033249E+04  0.25500000000E-02 0.  1.
         -2   -1    0    0    0  501 -0.00000000000E+00 -0.00000000000E+00 -0.39883330192E+02  0.39883330273E+02  0.25500000000E-02 0. -1.
    5000001    1    1    2    0    0 -0.66558044211E+02  0.98513964773E+02  0.31239572216E+03  0.37276140054E+03  0.16500000000E+03 0.  0.
   -5000001    1    1    2    0    0  0.66558044211E+02 -0.98513964773E+02  0.10562242726E+04  0.10756252547E+04  0.16500000000E+03 0.  0.
<mgrwt>
<rscale>  0 0.47402870E+03</rscale>
<asrwt>0</asrwt>
<pdfrwt beam="1">  1        2 0.20121475E+00 0.47402870E+03</pdfrwt>
<pdfrwt beam="2">  1       -2 0.56976188E-02 0.47402870E+03</pdfrwt>
<totfact> 0.27849810E+03</totfact>
</mgrwt>
</event>
<event>
 4    1  0.5323640E-005  0.5030453E+03  0.7818608E-02  0.1012987E+00
         -2   -1    0    0    0  501 -0.00000000000E+00  0.00000000000E+00  0.60048901138E+03  0.60048901138E+03  0.25500000000E-02 0. -1.
          2   -1    0    0  501    0  0.00000000000E+00 -0.00000000000E+00 -0.10535355265E+03  0.10535355268E+03  0.25500000000E-02 0.  1.
    5000001    1    1    2    0    0  0.26847797563E+02  0.18787011508E+03  0.25424795547E+03  0.35760733666E+03  0.16500000000E+03 0.  0.
   -5000001    1    1    2    0    0 -0.26847797563E+02 -0.18787011508E+03  0.24088750326E+03  0.34823522740E+03  0.16500000000E+03 0.  0.
<mgrwt>
<rscale>  0 0.50304533E+03</rscale>
<asrwt>0</asrwt>
<pdfrwt beam="1">  1        2 0.15050508E-01 0.50304533E+03</pdfrwt>
<pdfrwt beam="2">  1       -2 0.85784144E-01 0.50304533E+03</pdfrwt>
<totfact> 0.47553453E+02</totfact>
</mgrwt>
</event>
<event>
 4    1  0.5323640E-005  0.8148161E+03  0.7818608E-02  0.9538816E-01
          2   -1    0    0  501    0  0.00000000000E+00  0.00000000000E+00  0.74202963797E+03  0.74202963797E+03  0.25500000000E-02 0.  1.
         -2   -1    0    0    0  501 -0.00000000000E+00 -0.00000000000E+00 -0.22368557696E+03  0.22368557698E+03  0.25500000000E-02 0. -1.
    5000001    1    1    2    0    0  0.33707192519E+03 -0.94270463812E+02  0.10807989466E+03  0.40175946377E+03  0.16500000000E+03 0.  0.
   -5000001    1    1    2    0    0 -0.33707192519E+03  0.94270463812E+02  0.41026416635E+03  0.56395575118E+03  0.16500000000E+03 0.  0.
<mgrwt>
<rscale>  0 0.81481612E+03</rscale>
<asrwt>0</asrwt>
<pdfrwt beam="1">  1        2 0.10600423E+00 0.81481612E+03</pdfrwt>
<pdfrwt beam="2">  1       -2 0.31955082E-01 0.81481612E+03</pdfrwt>
<totfact> 0.38213327E+02</totfact>
</mgrwt>
</event>
<event>
 4    1  0.5323640E-005  0.7014575E+03  0.7818608E-02  0.9714743E-01
         -2   -1    0    0    0  501 -0.00000000000E+00  0.00000000000E+00  0.23235548744E+03  0.23235548746E+03  0.25500000000E-02 0. -1.
          2   -1    0    0  501    0  0.00000000000E+00 -0.00000000000E+00 -0.52940717352E+03  0.52940717352E+03  0.25500000000E-02 0.  1.
    5000001    1    1    2    0    0 -0.19376483193E+03 -0.22585259208E+03 -0.56177043427E+02  0.34486963284E+03  0.16500000000E+03 0.  0.
   -5000001    1    1    2    0    0  0.19376483193E+03  0.22585259208E+03 -0.24087464265E+03  0.41689302814E+03  0.16500000000E+03 0.  0.
<mgrwt>
<rscale>  0 0.70145752E+03</rscale>
<asrwt>0</asrwt>
<pdfrwt beam="1">  1        2 0.75629595E-01 0.70145752E+03</pdfrwt>
<pdfrwt beam="2">  1       -2 0.33193641E-01 0.70145752E+03</pdfrwt>
<totfact> 0.53537296E+02</totfact>
</mgrwt>
</event>
<event>
 4    1  0.5323640E-005  0.6203124E+03  0.7818608E-02  0.9864138E-01
         -2   -1    0    0    0  501 -0.00000000000E+00  0.00000000000E+00  0.11280554685E+03  0.11280554688E+03  0.25500000000E-02 0. -1.
          2   -1    0    0  501    0  0.00000000000E+00 -0.00000000000E+00 -0.85276717642E+03  0.85276717642E+03  0.25500000000E-02 0.  1.
    5000001    1    1    2    0    0  0.26070882562E+02 -0.24413928277E+03 -0.51507136142E+03  0.59397574670E+03  0.16500000000E+03 0.  0.
   -5000001    1    1    2    0    0 -0.26070882562E+02  0.24413928277E+03 -0.22489026815E+03  0.37159697660E+03  0.16500000000E+03 0.  0.
<mgrwt>
<rscale>  0 0.62031240E+03</rscale>
<asrwt>0</asrwt>
<pdfrwt beam="1">  1        2 0.12182388E+00 0.62031240E+03</pdfrwt>
<pdfrwt beam="2">  1       -2 0.16115079E-01 0.62031240E+03</pdfrwt>
<totfact> 0.10875084E+03</totfact>
</mgrwt>
</event>
<event>
 4    1  0.5323640E-005  0.3748122E+03  0.7818608E-02  0.1052868E+00
         -2   -1    0    0    0  501 -0.00000000000E+00  0.00000000000E+00  0.16239088813E+02  0.16239089013E+02  0.25500000000E-02 0. -1.
          2   -1    0    0  501    0  0.00000000000E+00 -0.00000000000E+00 -0.21627472746E+04  0.21627472746E+04  0.25500000000E-02 0.  1.
    5000001    1    1    2    0    0 -0.75519327761E+02  0.44963897850E+02 -0.99720454038E+03  0.10145771613E+04  0.16500000000E+03 0.  0.
   -5000001    1    1    2    0    0  0.75519327761E+02 -0.44963897850E+02 -0.11493036454E+04  0.11644092023E+04  0.16500000000E+03 0.  0.
<mgrwt>
<rscale>  0 0.37481219E+03</rscale>
<asrwt>0</asrwt>
<pdfrwt beam="1">  1        2 0.30896371E+00 0.37481219E+03</pdfrwt>
<pdfrwt beam="2">  1       -2 0.23198712E-02 0.37481219E+03</pdfrwt>
<totfact> 0.45613073E+03</totfact>
</mgrwt>
</event>
<event>
 4    1  0.5323640E-005  0.4057309E+03  0.7818608E-02  0.1041813E+00
          2   -1    0    0  501    0  0.00000000000E+00  0.00000000000E+00  0.22047753299E+04  0.22047753299E+04  0.25500000000E-02 0.  1.
         -2   -1    0    0    0  501 -0.00000000000E+00 -0.00000000000E+00 -0.18666028708E+02  0.18666028882E+02  0.25500000000E-02 0. -1.
    5000001    1    1    2    0    0 -0.82604668178E+02  0.65202422338E+02  0.13858428299E+04  0.13995928823E+04  0.16500000000E+03 0.  0.
   -5000001    1    1    2    0    0  0.82604668178E+02 -0.65202422338E+02  0.80026647138E+03  0.82384847654E+03  0.16500000000E+03 0.  0.
<mgrwt>
<rscale>  0 0.40573094E+03</rscale>
<asrwt>0</asrwt>
<pdfrwt beam="1">  1        2 0.31496798E+00 0.40573094E+03</pdfrwt>
<pdfrwt beam="2">  1       -2 0.26665749E-02 0.40573094E+03</pdfrwt>
<totfact> 0.35275002E+03</totfact>
</mgrwt>
</event>
<event>
 4    1  0.5323640E-005  0.5074946E+03  0.7818608E-02  0.1011841E+00
         -2   -1    0    0    0  501 -0.00000000000E+00  0.00000000000E+00  0.43979952018E+02  0.43979952091E+02  0.25500000000E-02 0. -1.
          2   -1    0    0  501    0  0.00000000000E+00 -0.00000000000E+00 -0.14640234220E+04  0.14640234220E+04  0.25500000000E-02 0.  1.
    5000001    1    1    2    0    0  0.14899565291E+03  0.24197975463E+01 -0.34661337230E+03  0.41179046840E+03  0.16500000000E+03 0.  0.
   -5000001    1    1    2    0    0 -0.14899565291E+03 -0.24197975463E+01 -0.10734300977E+04  0.10962129057E+04  0.16500000000E+03 0.  0.
<mgrwt>
<rscale>  0 0.50749455E+03</rscale>
<asrwt>0</asrwt>
<pdfrwt beam="1">  1        2 0.20914617E+00 0.50749455E+03</pdfrwt>
<pdfrwt beam="2">  1       -2 0.62828512E-02 0.50749455E+03</pdfrwt>
<totfact> 0.22355014E+03</totfact>
</mgrwt>
</event>
<event>
 4    1  0.5323640E-005  0.9162693E+03  0.7818608E-02  0.9405469E-01
          2   -1    0    0  501    0  0.00000000000E+00  0.00000000000E+00  0.20008881417E+04  0.20008881417E+04  0.25500000000E-02 0.  1.
         -2   -1    0    0    0  501 -0.00000000000E+00 -0.00000000000E+00 -0.10489709713E+03  0.10489709716E+03  0.25500000000E-02 0. -1.
    5000001    1    1    2    0    0 -0.42479234529E+03 -0.11869572651E+02  0.10526321465E+04  0.11471045546E+04  0.16500000000E+03 0.  0.
   -5000001    1    1    2    0    0  0.42479234529E+03  0.11869572651E+02  0.84335889803E+03  0.95868068420E+03  0.16500000000E+03 0.  0.
<mgrwt>
<rscale>  0 0.91626930E+03</rscale>
<asrwt>0</asrwt>
<pdfrwt beam="1">  1        2 0.28584115E+00 0.91626930E+03</pdfrwt>
<pdfrwt beam="2">  1       -2 0.14985300E-01 0.91626930E+03</pdfrwt>
<totfact> 0.28356594E+02</totfact>
</mgrwt>
</event>
<event>
 4    1  0.5323640E-005  0.4815446E+03  0.7818608E-02  0.1018712E+00
         -2   -1    0    0    0  501 -0.00000000000E+00  0.00000000000E+00  0.26629857852E+02  0.26629857975E+02  0.25500000000E-02 0. -1.
          2   -1    0    0  501    0  0.00000000000E+00 -0.00000000000E+00 -0.21769284186E+04  0.21769284186E+04  0.25500000000E-02 0.  1.
    5000001    1    1    2    0    0 -0.10542508051E+03 -0.12850043505E+03 -0.81956772917E+03  0.85237495981E+03  0.16500000000E+03 0.  0.
   -5000001    1    1    2    0    0  0.10542508051E+03  0.12850043505E+03 -0.13307308316E+04  0.13511833168E+04  0.16500000000E+03 0.  0.
<mgrwt>
<rscale>  0 0.48154458E+03</rscale>
<asrwt>0</asrwt>
<pdfrwt beam="1">  1        2 0.31098966E+00 0.48154458E+03</pdfrwt>
<pdfrwt beam="2">  1       -2 0.38042668E-02 0.48154458E+03</pdfrwt>
<totfact> 0.21216876E+03</totfact>
</mgrwt>
</event>
<event>
 4    1  0.5323640E-005  0.1968458E+04  0.7818608E-02  0.8621511E-01
         -2   -1    0    0    0  501 -0.00000000000E+00  0.00000000000E+00  0.53200656248E+03  0.53200656249E+03  0.25500000000E-02 0. -1.
          2   -1    0    0  501    0  0.00000000000E+00 -0.00000000000E+00 -0.18208540180E+04  0.18208540180E+04  0.25500000000E-02 0.  1.
    5000001    1    1    2    0    0  0.68858529137E+03  0.25378294655E+02  0.17212712199E+03  0.72914093799E+03  0.16500000000E+03 0.  0.
   -5000001    1    1    2    0    0 -0.68858529137E+03 -0.25378294655E+02 -0.14609745775E+04  0.16237196425E+04  0.16500000000E+03 0.  0.
<mgrwt>
<rscale>  0 0.19684576E+04</rscale>
<asrwt>0</asrwt>
<pdfrwt beam="1">  1        2 0.26012200E+00 0.19684576E+04</pdfrwt>
<pdfrwt beam="2">  1       -2 0.76000938E-01 0.19684576E+04</pdfrwt>
<totfact> 0.14389062E+01</totfact>
</mgrwt>
</event>
<event>
 4    1  0.5323640E-005  0.4790272E+03  0.7818608E-02  0.1019403E+00
         -2   -1    0    0    0  501 -0.00000000000E+00  0.00000000000E+00  0.95134606143E+02  0.95134606178E+02  0.25500000000E-02 0. -1.
          2   -1    0    0  501    0  0.00000000000E+00 -0.00000000000E+00 -0.60300631245E+03  0.60300631245E+03  0.25500000000E-02 0.  1.
    5000001    1    1    2    0    0  0.80053362590E+02 -0.15389821706E+03 -0.26409246731E+03  0.35645902060E+03  0.16500000000E+03 0.  0.
   -5000001    1    1    2    0    0 -0.80053362590E+02  0.15389821706E+03 -0.24377923899E+03  0.34168189803E+03  0.16500000000E+03 0.  0.
<mgrwt>
<rscale>  0 0.47902721E+03</rscale>
<asrwt>0</asrwt>
<pdfrwt beam="1">  1        2 0.86143757E-01 0.47902721E+03</pdfrwt>
<pdfrwt beam="2">  1       -2 0.13590658E-01 0.47902721E+03</pdfrwt>
<totfact> 0.22198203E+03</totfact>
</mgrwt>
</event>
<event>
 4    1  0.5323640E-005  0.5771669E+03  0.7818608E-02  0.9953944E-01
          2   -1    0    0  501    0  0.00000000000E+00  0.00000000000E+00  0.19179409450E+04  0.19179409450E+04  0.25500000000E-02 0.  1.
         -2   -1    0    0    0  501 -0.00000000000E+00 -0.00000000000E+00 -0.43421774981E+02  0.43421775055E+02  0.25500000000E-02 0. -1.
    5000001    1    1    2    0    0 -0.50617694428E+02  0.84911786525E+02  0.16683454464E+04  0.16793968236E+04  0.16500000000E+03 0.  0.
   -5000001    1    1    2    0    0  0.50617694428E+02 -0.84911786525E+02  0.20617372367E+03  0.28196589654E+03  0.16500000000E+03 0.  0.
<mgrwt>
<rscale>  0 0.57716687E+03</rscale>
<asrwt>0</asrwt>
<pdfrwt beam="1">  1        2 0.27399164E+00 0.57716687E+03</pdfrwt>
<pdfrwt beam="2">  1       -2 0.62031091E-02 0.57716687E+03</pdfrwt>
<totfact> 0.13369383E+03</totfact>
</mgrwt>
</event>
<event>
 4    1  0.5323640E-005  0.4149355E+03  0.7818608E-02  0.1038727E+00
          2   -1    0    0  501    0  0.00000000000E+00  0.00000000000E+00  0.22016920695E+03  0.22016920696E+03  0.25500000000E-02 0.  1.
         -2   -1    0    0    0  501 -0.00000000000E+00 -0.00000000000E+00 -0.19549899548E+03  0.19549899549E+03  0.25500000000E-02 0. -1.
    5000001    1    1    2    0    0 -0.53868086010E+02 -0.33845995535E+02 -0.96348587088E+02  0.20138364466E+03  0.16500000000E+03 0.  0.
   -5000001    1    1    2    0    0  0.53868086010E+02  0.33845995535E+02  0.12101879856E+03  0.21428455779E+03  0.16500000000E+03 0.  0.
<mgrwt>
<rscale>  0 0.41493546E+03</rscale>
<asrwt>0</asrwt>
<pdfrwt beam="1">  1        2 0.31452744E-01 0.41493546E+03</pdfrwt>
<pdfrwt beam="2">  1       -2 0.27928428E-01 0.41493546E+03</pdfrwt>
<totfact> 0.19543824E+03</totfact>
</mgrwt>
</event>
<event>
 4    1  0.5323640E-005  0.6605020E+03  0.7818608E-02  0.9787270E-01
          2   -1    0    0  501    0  0.00000000000E+00  0.00000000000E+00  0.63682254775E+03  0.63682254775E+03  0.25500000000E-02 0.  1.
         -2   -1    0    0    0  501 -0.00000000000E+00 -0.00000000000E+00 -0.17126548885E+03  0.17126548887E+03  0.25500000000E-02 0. -1.
    5000001    1    1    2    0    0  0.24436309274E+03 -0.11877158452E+03  0.12320867937E+03  0.34091844927E+03  0.16500000000E+03 0.  0.
   -5000001    1    1    2    0    0 -0.24436309274E+03  0.11877158452E+03  0.34234837953E+03  0.46716958735E+03  0.16500000000E+03 0.  0.
<mgrwt>
<rscale>  0 0.66050201E+03</rscale>
<asrwt>0</asrwt>
<pdfrwt beam="1">  1        2 0.90974651E-01 0.66050201E+03</pdfrwt>
<pdfrwt beam="2">  1       -2 0.24466498E-01 0.66050201E+03</pdfrwt>
<totfact> 0.75553717E+02</totfact>
</mgrwt>
</event>
<event>
 4    1  0.5323640E-005  0.5191470E+03  0.7818608E-02  0.1008899E+00
         -2   -1    0    0    0  501 -0.00000000000E+00  0.00000000000E+00  0.26494803683E+03  0.26494803684E+03  0.25500000000E-02 0. -1.
          2   -1    0    0  501    0  0.00000000000E+00 -0.00000000000E+00 -0.25430795334E+03  0.25430795335E+03  0.25500000000E-02 0.  1.
    5000001    1    1    2    0    0 -0.40058939647E+02 -0.19631577289E+03  0.23543453576E+01  0.25956722496E+03  0.16500000000E+03 0.  0.
   -5000001    1    1    2    0    0  0.40058939647E+02  0.19631577289E+03  0.82857381393E+01  0.25968876523E+03  0.16500000000E+03 0.  0.
<mgrwt>
<rscale>  0 0.51914697E+03</rscale>
<asrwt>0</asrwt>
<pdfrwt beam="1">  1        2 0.36329708E-01 0.51914697E+03</pdfrwt>
<pdfrwt beam="2">  1       -2 0.37849720E-01 0.51914697E+03</pdfrwt>
<totfact> 0.94703570E+02</totfact>
</mgrwt>
</event>
<event>
 4    1  0.5323640E-005  0.3875346E+03  0.7818608E-02  0.1048184E+00
         -2   -1    0    0    0  501 -0.00000000000E+00  0.00000000000E+00  0.10872339106E+03  0.10872339109E+03  0.25500000000E-02 0. -1.
          2   -1    0    0  501    0  0.00000000000E+00 -0.00000000000E+00 -0.34533294847E+03  0.34533294848E+03  0.25500000000E-02 0.  1.
    5000001    1    1    2    0    0 -0.61572582456E+02 -0.79156749526E+02 -0.99275042131E+02  0.21711174058E+03  0.16500000000E+03 0.  0.
   -5000001    1    1    2    0    0  0.61572582456E+02  0.79156749526E+02 -0.13733451528E+03  0.23694459899E+03  0.16500000000E+03 0.  0.
<mgrwt>
<rscale>  0 0.38753461E+03</rscale>
<asrwt>0</asrwt>
<pdfrwt beam="1">  1        2 0.49333278E-01 0.38753461E+03</pdfrwt>
<pdfrwt beam="2">  1       -2 0.15531913E-01 0.38753461E+03</pdfrwt>
<totfact> 0.33051822E+03</totfact>
</mgrwt>
</event>
<event>
 4    1  0.5323640E-005  0.5228034E+03  0.7818608E-02  0.1007993E+00
         -2   -1    0    0    0  501 -0.00000000000E+00  0.00000000000E+00  0.11646649865E+03  0.11646649868E+03  0.25500000000E-02 0. -1.
          2   -1    0    0  501    0  0.00000000000E+00 -0.00000000000E+00 -0.58669967269E+03  0.58669967269E+03  0.25500000000E-02 0.  1.
    5000001    1    1    2    0    0 -0.17611568860E+03  0.93802593038E+02 -0.28342770860E+03  0.38389051595E+03  0.16500000000E+03 0.  0.
   -5000001    1    1    2    0    0  0.17611568860E+03 -0.93802593038E+02 -0.18680546543E+03  0.31927565543E+03  0.16500000000E+03 0.  0.
<mgrwt>
<rscale>  0 0.52280343E+03</rscale>
<asrwt>0</asrwt>
<pdfrwt beam="1">  1        2 0.83814237E-01 0.52280343E+03</pdfrwt>
<pdfrwt beam="2">  1       -2 0.16638072E-01 0.52280343E+03</pdfrwt>
<totfact> 0.16329233E+03</totfact>
</mgrwt>
</event>
<event>
 4    1  0.5323640E-005  0.6637293E+03  0.7818608E-02  0.9781353E-01
          2   -1    0    0  501    0  0.00000000000E+00  0.00000000000E+00  0.24542046746E+03  0.24542046748E+03  0.25500000000E-02 0.  1.
         -2   -1    0    0    0  501 -0.00000000000E+00 -0.00000000000E+00 -0.44875695466E+03  0.44875695467E+03  0.25500000000E-02 0. -1.
    5000001    1    1    2    0    0 -0.11118277043E+03 -0.26560700454E+03 -0.10096486300E+03  0.34688267882E+03  0.16500000000E+03 0.  0.
   -5000001    1    1    2    0    0  0.11118277043E+03  0.26560700454E+03 -0.10237162420E+03  0.34729474333E+03  0.16500000000E+03 0.  0.
<mgrwt>
<rscale>  0 0.66372929E+03</rscale>
<asrwt>0</asrwt>
<pdfrwt beam="1">  1        2 0.35060067E-01 0.66372929E+03</pdfrwt>
<pdfrwt beam="2">  1       -2 0.64108136E-01 0.66372929E+03</pdfrwt>
<totfact> 0.33884583E+02</totfact>
</mgrwt>
</event>
<event>
 4    1  0.5323640E-005  0.3772116E+03  0.7818608E-02  0.1051969E+00
         -2   -1    0    0    0  501 -0.00000000000E+00  0.00000000000E+00  0.22175814516E+02  0.22175814662E+02  0.25500000000E-02 0. -1.
          2   -1    0    0  501    0  0.00000000000E+00 -0.00000000000E+00 -0.16040965286E+04  0.16040965286E+04  0.25500000000E-02 0.  1.
    5000001    1    1    2    0    0  0.60742500500E+02  0.54540784198E+02 -0.61410251410E+03  0.64110158816E+03  0.16500000000E+03 0.  0.
   -5000001    1    1    2    0    0 -0.60742500500E+02 -0.54540784198E+02 -0.96781820002E+03  0.98517075514E+03  0.16500000000E+03 0.  0.
<mgrwt>
<rscale>  0 0.37721160E+03</rscale>
<asrwt>0</asrwt>
<pdfrwt beam="1">  1        2 0.22915657E+00 0.37721160E+03</pdfrwt>
<pdfrwt beam="2">  1       -2 0.31679745E-02 0.37721160E+03</pdfrwt>
<totfact> 0.54151795E+03</totfact>
</mgrwt>
</event>
<event>
 4    1  0.5323640E-005  0.7239476E+03  0.7818608E-02  0.9677133E-01
         -2   -1    0    0    0  501 -0.00000000000E+00  0.00000000000E+00  0.67415586076E+02  0.67415586124E+02  0.25500000000E-02 0. -1.
          2   -1    0    0  501    0  0.00000000000E+00 -0.00000000000E+00 -0.19435421406E+04  0.19435421406E+04  0.25500000000E-02 0.  1.
    5000001    1    1    2    0    0  0.22485007998E+03  0.20721818716E+03 -0.65610834181E+03  0.74242850952E+03  0.16500000000E+03 0.  0.
   -5000001    1    1    2    0    0 -0.22485007998E+03 -0.20721818716E+03 -0.12200182127E+04  0.12685292172E+04  0.16500000000E+03 0.  0.
<mgrwt>
<rscale>  0 0.72394760E+03</rscale>
<asrwt>0</asrwt>
<pdfrwt beam="1">  1        2 0.27764884E+00 0.72394760E+03</pdfrwt>
<pdfrwt beam="2">  1       -2 0.96307992E-02 0.72394760E+03</pdfrwt>
<totfact> 0.63861938E+02</totfact>
</mgrwt>
</event>
<event>
 4    1  0.5323640E-005  0.5985562E+03  0.7818608E-02  0.9908406E-01
         -2   -1    0    0    0  501 -0.00000000000E+00  0.00000000000E+00  0.30069394619E+03  0.30069394620E+03  0.25500000000E-02 0. -1.
          2   -1    0    0  501    0  0.00000000000E+00 -0.00000000000E+00 -0.29786889752E+03  0.29786889753E+03  0.25500000000E-02 0.  1.
    5000001    1    1    2    0    0 -0.13747113391E+03  0.20728616968E+03  0.23241772148E+02  0.29938444979E+03  0.16500000000E+03 0.  0.
   -5000001    1    1    2    0    0  0.13747113391E+03 -0.20728616968E+03 -0.20416723480E+02  0.29917839394E+03  0.16500000000E+03 0.  0.
<mgrwt>
<rscale>  0 0.59855618E+03</rscale>
<asrwt>0</asrwt>
<pdfrwt beam="1">  1        2 0.42552700E-01 0.59855618E+03</pdfrwt>
<pdfrwt beam="2">  1       -2 0.42956278E-01 0.59855618E+03</pdfrwt>
<totfact> 0.62164502E+02</totfact>
</mgrwt>
</event>
<event>
 4    1  0.5323640E-005  0.6948286E+03  0.7818608E-02  0.9726117E-01
         -2   -1    0    0    0  501 -0.00000000000E+00  0.00000000000E+00  0.87470573707E+02  0.87470573744E+02  0.25500000000E-02 0. -1.
          2   -1    0    0  501    0  0.00000000000E+00 -0.00000000000E+00 -0.13798550088E+04  0.13798550088E+04  0.25500000000E-02 0.  1.
    5000001    1    1    2    0    0  0.28325061999E+03  0.10882798223E+03 -0.56725382098E+03  0.66413578495E+03  0.16500000000E+03 0.  0.
   -5000001    1    1    2    0    0 -0.28325061999E+03 -0.10882798223E+03 -0.72513061416E+03  0.80318979764E+03  0.16500000000E+03 0.  0.
<mgrwt>
<rscale>  0 0.69482864E+03</rscale>
<asrwt>0</asrwt>
<pdfrwt beam="1">  1        2 0.19712213E+00 0.69482864E+03</pdfrwt>
<pdfrwt beam="2">  1       -2 0.12495797E-01 0.69482864E+03</pdfrwt>
<totfact> 0.81529003E+02</totfact>
</mgrwt>
</event>
<event>
 4    1  0.5323640E-005  0.4080640E+03  0.7818608E-02  0.1041023E+00
          2   -1    0    0  501    0  0.00000000000E+00  0.00000000000E+00  0.66858566949E+03  0.66858566950E+03  0.25500000000E-02 0.  1.
         -2   -1    0    0    0  501 -0.00000000000E+00 -0.00000000000E+00 -0.62264364875E+02  0.62264364927E+02  0.25500000000E-02 0. -1.
    5000001    1    1    2    0    0 -0.81211348227E+02  0.60140968235E+02  0.41911911919E+03  0.46162544905E+03  0.16500000000E+03 0.  0.
   -5000001    1    1    2    0    0  0.81211348227E+02 -0.60140968235E+02  0.18720218543E+03  0.26922458538E+03  0.16500000000E+03 0.  0.
<mgrwt>
<rscale>  0 0.40806402E+03</rscale>
<asrwt>0</asrwt>
<pdfrwt beam="1">  1        2 0.95512241E-01 0.40806402E+03</pdfrwt>
<pdfrwt beam="2">  1       -2 0.88949090E-02 0.40806402E+03</pdfrwt>
<totfact> 0.39034533E+03</totfact>
</mgrwt>
</event>
<event>
 4    1  0.5323640E-005  0.5571468E+03  0.7818608E-02  0.9998531E-01
         -2   -1    0    0    0  501 -0.00000000000E+00  0.00000000000E+00  0.80014614203E+02  0.80014614244E+02  0.25500000000E-02 0. -1.
          2   -1    0    0  501    0  0.00000000000E+00 -0.00000000000E+00 -0.96986201309E+03  0.96986201310E+03  0.25500000000E-02 0.  1.
    5000001    1    1    2    0    0  0.14284964861E+03  0.16544331380E+03 -0.54102014162E+03  0.60638709239E+03  0.16500000000E+03 0.  0.
   -5000001    1    1    2    0    0 -0.14284964861E+03 -0.16544331380E+03 -0.34882725728E+03  0.44348953495E+03  0.16500000000E+03 0.  0.
<mgrwt>
<rscale>  0 0.55714678E+03</rscale>
<asrwt>0</asrwt>
<pdfrwt beam="1">  1        2 0.13855171E+00 0.55714678E+03</pdfrwt>
<pdfrwt beam="2">  1       -2 0.11430660E-01 0.55714678E+03</pdfrwt>
<totfact> 0.16229510E+03</totfact>
</mgrwt>
</event>
<event>
 4    1  0.5323640E-005  0.4833543E+03  0.7818608E-02  0.1018217E+00
          2   -1    0    0  501    0  0.00000000000E+00  0.00000000000E+00  0.85857733314E+03  0.85857733315E+03  0.25500000000E-02 0.  1.
         -2   -1    0    0    0  501 -0.00000000000E+00 -0.00000000000E+00 -0.68028634952E+02  0.68028635000E+02  0.25500000000E-02 0. -1.
    5000001    1    1    2    0    0  0.12719801368E+03 -0.79856741274E+02  0.21722328962E+03  0.31139587564E+03  0.16500000000E+03 0.  0.
   -5000001    1    1    2    0    0 -0.12719801368E+03  0.79856741274E+02  0.57332540857E+03  0.61521009251E+03  0.16500000000E+03 0.  0.
<mgrwt>
<rscale>  0 0.48335430E+03</rscale>
<asrwt>0</asrwt>
<pdfrwt beam="1">  1        2 0.12265390E+00 0.48335430E+03</pdfrwt>
<pdfrwt beam="2">  1       -2 0.97183765E-02 0.48335430E+03</pdfrwt>
<totfact> 0.24870019E+03</totfact>
</mgrwt>
</event>
<event>
 4    1  0.5323640E-005  0.4459607E+03  0.7818608E-02  0.1028933E+00
         -2   -1    0    0    0  501 -0.00000000000E+00  0.00000000000E+00  0.90663174414E+02  0.90663174450E+02  0.25500000000E-02 0. -1.
          2   -1    0    0  501    0  0.00000000000E+00 -0.00000000000E+00 -0.54840611557E+03  0.54840611558E+03  0.25500000000E-02 0.  1.
    5000001    1    1    2    0    0 -0.12729540088E+03 -0.58390289733E+02 -0.30579785151E+03  0.37463431638E+03  0.16500000000E+03 0.  0.
   -5000001    1    1    2    0    0  0.12729540088E+03  0.58390289733E+02 -0.15194508966E+03  0.26443497365E+03  0.16500000000E+03 0.  0.
<mgrwt>
<rscale>  0 0.44596071E+03</rscale>
<asrwt>0</asrwt>
<pdfrwt beam="1">  1        2 0.78343729E-01 0.44596071E+03</pdfrwt>
<pdfrwt beam="2">  1       -2 0.12951882E-01 0.44596071E+03</pdfrwt>
<totfact> 0.26806431E+03</totfact>
</mgrwt>
</event>
<event>
 4    1  0.5323640E-005  0.6172514E+03  0.7818608E-02  0.9870247E-01
          2   -1    0    0  501    0  0.00000000000E+00  0.00000000000E+00  0.82892293136E+03  0.82892293136E+03  0.25500000000E-02 0.  1.
         -2   -1    0    0    0  501 -0.00000000000E+00 -0.00000000000E+00 -0.11490794508E+03  0.11490794511E+03  0.25500000000E-02 0. -1.
    5000001    1    1    2    0    0 -0.19288024446E+03  0.14910808428E+03  0.49871695847E+03  0.57911968898E+03  0.16500000000E+03 0.  0.
   -5000001    1    1    2    0    0  0.19288024446E+03 -0.14910808428E+03  0.21529802781E+03  0.36471118749E+03  0.16500000000E+03 0.  0.
<mgrwt>
<rscale>  0 0.61725143E+03</rscale>
<asrwt>0</asrwt>
<pdfrwt beam="1">  1        2 0.11841756E+00 0.61725143E+03</pdfrwt>
<pdfrwt beam="2">  1       -2 0.16415421E-01 0.61725143E+03</pdfrwt>
<totfact> 0.10936553E+03</totfact>
</mgrwt>
</event>
<event>
 4    1  0.5323640E-005  0.6225990E+03  0.7818608E-02  0.9859599E-01
          2   -1    0    0  501    0  0.00000000000E+00  0.00000000000E+00  0.63355694267E+03  0.63355694267E+03  0.25500000000E-02 0.  1.
         -2   -1    0    0    0  501 -0.00000000000E+00 -0.00000000000E+00 -0.15295765384E+03  0.15295765386E+03  0.25500000000E-02 0. -1.
    5000001    1    1    2    0    0 -0.56138411403E+02  0.11927835748E+03 -0.48611225153E+02  0.21671847870E+03  0.16500000000E+03 0.  0.
   -5000001    1    1    2    0    0  0.56138411403E+02 -0.11927835748E+03  0.52921051398E+03  0.56979611784E+03  0.16500000000E+03 0.  0.
<mgrwt>
<rscale>  0 0.62259902E+03</rscale>
<asrwt>0</asrwt>
<pdfrwt beam="1">  1        2 0.90508135E-01 0.62259902E+03</pdfrwt>
<pdfrwt beam="2">  1       -2 0.21851093E-01 0.62259902E+03</pdfrwt>
<totfact> 0.93013450E+02</totfact>
</mgrwt>
</event>
<event>
 4    1  0.5323640E-005  0.6696847E+03  0.7818608E-02  0.9770528E-01
         -2   -1    0    0    0  501 -0.00000000000E+00  0.00000000000E+00  0.30354823416E+02  0.30354823523E+02  0.25500000000E-02 0. -1.
          2   -1    0    0  501    0  0.00000000000E+00 -0.00000000000E+00 -0.36936269648E+04  0.36936269648E+04  0.25500000000E-02 0.  1.
    5000001    1    1    2    0    0  0.21353548836E+02 -0.28960279605E+03 -0.19642399557E+04  0.19924330244E+04  0.16500000000E+03 0.  0.
   -5000001    1    1    2    0    0 -0.21353548836E+02  0.28960279605E+03 -0.16990321857E+04  0.17315487638E+04  0.16500000000E+03 0.  0.
<mgrwt>
<rscale>  0 0.66968469E+03</rscale>
<asrwt>0</asrwt>
<pdfrwt beam="1">  1        2 0.52766071E+00 0.66968469E+03</pdfrwt>
<pdfrwt beam="2">  1       -2 0.43364057E-02 0.66968469E+03</pdfrwt>
<totfact> 0.25393776E+02</totfact>
</mgrwt>
</event>
<event>
 4    1  0.5323640E-005  0.6641829E+03  0.7818608E-02  0.9780524E-01
          2   -1    0    0  501    0  0.00000000000E+00  0.00000000000E+00  0.23797354384E+04  0.23797354384E+04  0.25500000000E-02 0.  1.
         -2   -1    0    0    0  501 -0.00000000000E+00 -0.00000000000E+00 -0.46343267286E+02  0.46343267356E+02  0.25500000000E-02 0. -1.
    5000001    1    1    2    0    0 -0.24585238192E+03  0.11710058922E+03  0.82202544774E+03  0.88153660073E+03  0.16500000000E+03 0.  0.
   -5000001    1    1    2    0    0  0.24585238192E+03 -0.11710058922E+03  0.15113667234E+04  0.15445421051E+04  0.16500000000E+03 0.  0.
<mgrwt>
<rscale>  0 0.66418285E+03</rscale>
<asrwt>0</asrwt>
<pdfrwt beam="1">  1        2 0.33996222E+00 0.66418285E+03</pdfrwt>
<pdfrwt beam="2">  1       -2 0.66204666E-02 0.66418285E+03</pdfrwt>
<totfact> 0.70207251E+02</totfact>
</mgrwt>
</event>
<event>
 4    1  0.5323640E-005  0.6638620E+03  0.7818608E-02  0.9781110E-01
          2   -1    0    0  501    0  0.00000000000E+00  0.00000000000E+00  0.87018600140E+03  0.87018600141E+03  0.25500000000E-02 0.  1.
         -2   -1    0    0    0  501 -0.00000000000E+00 -0.00000000000E+00 -0.12661451829E+03  0.12661451832E+03  0.25500000000E-02 0. -1.
    5000001    1    1    2    0    0 -0.21027646683E+01 -0.26579709462E+03  0.53831660850E+03  0.62262531921E+03  0.16500000000E+03 0.  0.
   -5000001    1    1    2    0    0  0.21027646683E+01  0.26579709462E+03  0.20525487462E+03  0.37417520052E+03  0.16500000000E+03 0.  0.
<mgrwt>
<rscale>  0 0.66386198E+03</rscale>
<asrwt>0</asrwt>
<pdfrwt beam="1">  1        2 0.12431229E+00 0.66386198E+03</pdfrwt>
<pdfrwt beam="2">  1       -2 0.18087788E-01 0.66386198E+03</pdfrwt>
<totfact> 0.86829088E+02</totfact>
</mgrwt>
</event>
<event>
 4    1  0.5323640E-005  0.4735070E+03  0.7818608E-02  0.1020935E+00
          2   -1    0    0  501    0  0.00000000000E+00  0.00000000000E+00  0.19468596726E+03  0.19468596728E+03  0.25500000000E-02 0.  1.
         -2   -1    0    0    0  501 -0.00000000000E+00 -0.00000000000E+00 -0.28791095160E+03  0.28791095161E+03  0.25500000000E-02 0. -1.
    5000001    1    1    2    0    0 -0.18436643492E+02 -0.16584587511E+03 -0.14666592247E+02  0.23512735494E+03  0.16500000000E+03 0.  0.
   -5000001    1    1    2    0    0  0.18436643492E+02  0.16584587511E+03 -0.78558392090E+02  0.24746956395E+03  0.16500000000E+03 0.  0.
<mgrwt>
<rscale>  0 0.47350701E+03</rscale>
<asrwt>0</asrwt>
<pdfrwt beam="1">  1        2 0.27812281E-01 0.47350701E+03</pdfrwt>
<pdfrwt beam="2">  1       -2 0.41130136E-01 0.47350701E+03</pdfrwt>
<totfact> 0.10861930E+03</totfact>
</mgrwt>
</event>
<event>
 4    1  0.5323640E-005  0.9570602E+03  0.7818608E-02  0.9356936E-01
         -2   -1    0    0    0  501 -0.00000000000E+00  0.00000000000E+00  0.63811210703E+03  0.63811210703E+03  0.25500000000E-02 0. -1.
          2   -1    0    0  501    0  0.00000000000E+00 -0.00000000000E+00 -0.35885710102E+03  0.35885710103E+03  0.25500000000E-02 0.  1.
    5000001    1    1    2    0    0  0.25632626056E+02 -0.44817834829E+03  0.12331575609E+03  0.49391561941E+03  0.16500000000E+03 0.  0.
   -5000001    1    1    2    0    0 -0.25632626056E+02  0.44817834829E+03  0.15593924991E+03  0.50305358866E+03  0.16500000000E+03 0.  0.
<mgrwt>
<rscale>  0 0.95706021E+03</rscale>
<asrwt>0</asrwt>
<pdfrwt beam="1">  1        2 0.51265301E-01 0.95706021E+03</pdfrwt>
<pdfrwt beam="2">  1       -2 0.91158871E-01 0.95706021E+03</pdfrwt>
<totfact> 0.10032717E+02</totfact>
</mgrwt>
</event>
<event>
 4    1  0.5323640E-005  0.5866133E+03  0.7818608E-02  0.9933575E-01
          2   -1    0    0  501    0  0.00000000000E+00  0.00000000000E+00  0.85390617063E+03  0.85390617063E+03  0.25500000000E-02 0.  1.
         -2   -1    0    0    0  501 -0.00000000000E+00 -0.00000000000E+00 -0.10074736308E+03  0.10074736311E+03  0.25500000000E-02 0. -1.
    5000001    1    1    2    0    0 -0.20707735988E+03 -0.99547383407E+02  0.50277447062E+03  0.57688636907E+03  0.16500000000E+03 0.  0.
   -5000001    1    1    2    0    0  0.20707735988E+03  0.99547383407E+02  0.25038433693E+03  0.37776716466E+03  0.16500000000E+03 0.  0.
<mgrwt>
<rscale>  0 0.58661331E+03</rscale>
<asrwt>0</asrwt>
<pdfrwt beam="1">  1        2 0.12198660E+00 0.58661331E+03</pdfrwt>
<pdfrwt beam="2">  1       -2 0.14392480E-01 0.58661331E+03</pdfrwt>
<totfact> 0.13144175E+03</totfact>
</mgrwt>
</event>
<event>
 4    1  0.5323640E-005  0.5025961E+03  0.7818608E-02  0.1013104E+00
          2   -1    0    0  501    0  0.00000000000E+00  0.00000000000E+00  0.93164608396E+03  0.93164608396E+03  0.25500000000E-02 0. -1.
         -2   -1    0    0    0  501 -0.00000000000E+00 -0.00000000000E+00 -0.67784015628E+02  0.67784015676E+02  0.25500000000E-02 0.  1.
    5000001    1    1    2    0    0 -0.12447766964E+03  0.14220278565E+03  0.40315628575E+03  0.47484346181E+03  0.16500000000E+03 0.  0.
   -5000001    1    1    2    0    0  0.12447766964E+03 -0.14220278565E+03  0.46070578258E+03  0.52458663783E+03  0.16500000000E+03 0.  0.
<mgrwt>
<rscale>  0 0.50259611E+03</rscale>
<asrwt>0</asrwt>
<pdfrwt beam="1">  1        2 0.13309230E+00 0.50259611E+03</pdfrwt>
<pdfrwt beam="2">  1       -2 0.96834310E-02 0.50259611E+03</pdfrwt>
<totfact> 0.22450509E+03</totfact>
</mgrwt>
</event>
<event>
 4    1  0.5323640E-005  0.4516953E+03  0.7818608E-02  0.1027218E+00
         -2   -1    0    0    0  501 -0.00000000000E+00  0.00000000000E+00  0.28612698121E+02  0.28612698234E+02  0.25500000000E-02 0. -1.
          2   -1    0    0  501    0  0.00000000000E+00 -0.00000000000E+00 -0.17826756093E+04  0.17826756093E+04  0.25500000000E-02 0.  1.
    5000001    1    1    2    0    0  0.85621819722E+02  0.12628029593E+03 -0.78697641299E+03  0.81843428798E+03  0.16500000000E+03 0.  0.
   -5000001    1    1    2    0    0 -0.85621819722E+02 -0.12628029593E+03 -0.96708649819E+03  0.99285401954E+03  0.16500000000E+03 0.  0.
<mgrwt>
<rscale>  0 0.45169529E+03</rscale>
<asrwt>0</asrwt>
<pdfrwt beam="1">  1        2 0.25466787E+00 0.45169529E+03</pdfrwt>
<pdfrwt beam="2">  1       -2 0.40875294E-02 0.45169529E+03</pdfrwt>
<totfact> 0.29925479E+03</totfact>
</mgrwt>
</event>
<event>
 4    1  0.5323640E-005  0.4098601E+03  0.7818608E-02  0.1040418E+00
         -2   -1    0    0    0  501 -0.00000000000E+00  0.00000000000E+00  0.79430704934E+02  0.79430704975E+02  0.25500000000E-02 0. -1.
          2   -1    0    0  501    0  0.00000000000E+00 -0.00000000000E+00 -0.52871641207E+03  0.52871641208E+03  0.25500000000E-02 0.  1.
    5000001    1    1    2    0    0 -0.10553910490E+03 -0.30169782295E+02 -0.14722076457E+03  0.24687582293E+03  0.16500000000E+03 0.  0.
   -5000001    1    1    2    0    0  0.10553910490E+03  0.30169782295E+02 -0.30206494257E+03  0.36127129412E+03  0.16500000000E+03 0.  0.
<mgrwt>
<rscale>  0 0.40986006E+03</rscale>
<asrwt>0</asrwt>
<pdfrwt beam="1">  1        2 0.75530914E-01 0.40986006E+03</pdfrwt>
<pdfrwt beam="2">  1       -2 0.11347244E-01 0.40986006E+03</pdfrwt>
<totfact> 0.34653250E+03</totfact>
</mgrwt>
</event>
<event>
 4    1  0.5323640E-005  0.6502262E+03  0.7818608E-02  0.9806355E-01
          2   -1    0    0  501    0  0.00000000000E+00  0.00000000000E+00  0.69443559459E+03  0.69443559459E+03  0.25500000000E-02 0. -1.
         -2   -1    0    0    0  501 -0.00000000000E+00 -0.00000000000E+00 -0.15220779634E+03  0.15220779636E+03  0.25500000000E-02 0.  1.
    5000001    1    1    2    0    0 -0.18911400848E+03  0.18057174597E+03  0.14023591529E+03  0.33950165770E+03  0.16500000000E+03 0.  0.
   -5000001    1    1    2    0    0  0.18911400848E+03 -0.18057174597E+03  0.40199188295E+03  0.50714173325E+03  0.16500000000E+03 0.  0.
<mgrwt>
<rscale>  0 0.65022615E+03</rscale>
<asrwt>0</asrwt>
<pdfrwt beam="1">  1        2 0.99205086E-01 0.65022615E+03</pdfrwt>
<pdfrwt beam="2">  1       -2 0.21743971E-01 0.65022615E+03</pdfrwt>
<totfact> 0.83933676E+02</totfact>
</mgrwt>
</event>
<event>
 4    1  0.5323640E-005  0.6851845E+03  0.7818608E-02  0.9742910E-01
          2   -1    0    0  501    0  0.00000000000E+00  0.00000000000E+00  0.17826335261E+04  0.17826335261E+04  0.25500000000E-02 0.  1.
         -2   -1    0    0    0  501 -0.00000000000E+00 -0.00000000000E+00 -0.65840474844E+02  0.65840474894E+02  0.25500000000E-02 0. -1.
    5000001    1    1    2    0    0 -0.13382861717E+03  0.26868926719E+03  0.84124563000E+03  0.90830789443E+03  0.16500000000E+03 0.  0.
   -5000001    1    1    2    0    0  0.13382861717E+03 -0.26868926719E+03  0.87554742124E+03  0.94016610655E+03  0.16500000000E+03 0.  0.
<mgrwt>
<rscale>  0 0.68518447E+03</rscale>
<asrwt>0</asrwt>
<pdfrwt beam="1">  1        2 0.25466190E+00 0.68518447E+03</pdfrwt>
<pdfrwt beam="2">  1       -2 0.94057832E-02 0.68518447E+03</pdfrwt>
<totfact> 0.80228929E+02</totfact>
</mgrwt>
</event>
<event>
 4    1  0.5323640E-005  0.6096449E+03  0.7818608E-02  0.9885596E-01
         -2   -1    0    0    0  501 -0.00000000000E+00  0.00000000000E+00  0.49441716528E+02  0.49441716593E+02  0.25500000000E-02 0. -1.
          2   -1    0    0  501    0  0.00000000000E+00 -0.00000000000E+00 -0.18793182952E+04  0.18793182952E+04  0.25500000000E-02 0.  1.
    5000001    1    1    2    0    0 -0.14066705782E+03  0.13725402359E+03 -0.14354277815E+04  0.14581851062E+04  0.16500000000E+03 0.  0.
   -5000001    1    1    2    0    0  0.14066705782E+03 -0.13725402359E+03 -0.39444879714E+03  0.47057490553E+03  0.16500000000E+03 0.  0.
<mgrwt>
<rscale>  0 0.60964489E+03</rscale>
<asrwt>0</asrwt>
<pdfrwt beam="1">  1        2 0.26847400E+00 0.60964489E+03</pdfrwt>
<pdfrwt beam="2">  1       -2 0.70631035E-02 0.60964489E+03</pdfrwt>
<totfact> 0.11377261E+03</totfact>
</mgrwt>
</event>
<event>
 4    1  0.5323640E-005  0.3839051E+03  0.7818608E-02  0.1049500E+00
         -2   -1    0    0    0  501 -0.00000000000E+00  0.00000000000E+00  0.93720090454E+02  0.93720090488E+02  0.25500000000E-02 0. -1.
          2   -1    0    0  501    0  0.00000000000E+00 -0.00000000000E+00 -0.39314713647E+03  0.39314713648E+03  0.25500000000E-02 0.  1.
    5000001    1    1    2    0    0  0.38122313408E+02 -0.88685742134E+02 -0.17176387137E+03  0.25699474537E+03  0.16500000000E+03 0.  0.
   -5000001    1    1    2    0    0 -0.38122313408E+02  0.88685742134E+02 -0.12766317465E+03  0.22987248160E+03  0.16500000000E+03 0.  0.
<mgrwt>
<rscale>  0 0.38390512E+03</rscale>
<asrwt>0</asrwt>
<pdfrwt beam="1">  1        2 0.56163876E-01 0.38390512E+03</pdfrwt>
<pdfrwt beam="2">  1       -2 0.13388585E-01 0.38390512E+03</pdfrwt>
<totfact> 0.36697036E+03</totfact>
</mgrwt>
</event>
<event>
 4    1  0.5323640E-005  0.5748120E+03  0.7818608E-02  0.9959087E-01
          2   -1    0    0  501    0  0.00000000000E+00  0.00000000000E+00  0.23113325313E+03  0.23113325315E+03  0.25500000000E-02 0.  1.
         -2   -1    0    0    0  501 -0.00000000000E+00 -0.00000000000E+00 -0.35737913908E+03  0.35737913909E+03  0.25500000000E-02 0. -1.
    5000001    1    1    2    0    0 -0.84942323175E+02 -0.21705650533E+03 -0.29970959708E+02  0.28714453364E+03  0.16500000000E+03 0.  0.
   -5000001    1    1    2    0    0  0.84942323175E+02  0.21705650533E+03 -0.96274926233E+02  0.30136785860E+03  0.16500000000E+03 0.  0.
<mgrwt>
<rscale>  0 0.57481198E+03</rscale>
<asrwt>0</asrwt>
<pdfrwt beam="1">  1        2 0.33019036E-01 0.57481198E+03</pdfrwt>
<pdfrwt beam="2">  1       -2 0.51054162E-01 0.57481198E+03</pdfrwt>
<totfact> 0.58321523E+02</totfact>
</mgrwt>
</event>
<event>
 4    1  0.5323640E-005  0.6840748E+03  0.7818608E-02  0.9744861E-01
          2   -1    0    0  501    0  0.00000000000E+00  0.00000000000E+00  0.11968016617E+04  0.11968016617E+04  0.25500000000E-02 0.  1.
         -2   -1    0    0    0  501 -0.00000000000E+00 -0.00000000000E+00 -0.97751867074E+02  0.97751867107E+02  0.25500000000E-02 0. -1.
    5000001    1    1    2    0    0  0.25273976775E+03  0.14526085886E+03  0.41859918153E+03  0.53612347654E+03  0.16500000000E+03 0.  0.
   -5000001    1    1    2    0    0 -0.25273976775E+03 -0.14526085886E+03  0.68045061308E+03  0.75843005225E+03  0.16500000000E+03 0.  0.
<mgrwt>
<rscale>  0 0.68407484E+03</rscale>
<asrwt>0</asrwt>
<pdfrwt beam="1">  1        2 0.17097166E+00 0.68407484E+03</pdfrwt>
<pdfrwt beam="2">  1       -2 0.13964553E-01 0.68407484E+03</pdfrwt>
<totfact> 0.85414931E+02</totfact>
</mgrwt>
</event>
<event>
 4    1  0.5323640E-005  0.6841286E+03  0.7818608E-02  0.9744766E-01
          2   -1    0    0  501    0  0.00000000000E+00  0.00000000000E+00  0.49945855646E+03  0.49945855646E+03  0.25500000000E-02 0.  1.
         -2   -1    0    0    0  501 -0.00000000000E+00 -0.00000000000E+00 -0.23426968003E+03  0.23426968005E+03  0.25500000000E-02 0. -1.
    5000001    1    1    2    0    0  0.15548879320E+03  0.25364536071E+03  0.94369729272E+02  0.35304869299E+03  0.16500000000E+03 0.  0.
   -5000001    1    1    2    0    0 -0.15548879320E+03 -0.25364536071E+03  0.17081914715E+03  0.38067954352E+03  0.16500000000E+03 0.  0.
<mgrwt>
<rscale>  0 0.68412863E+03</rscale>
<asrwt>0</asrwt>
<pdfrwt beam="1">  1        2 0.71351223E-01 0.68412863E+03</pdfrwt>
<pdfrwt beam="2">  1       -2 0.33467097E-01 0.68412863E+03</pdfrwt>
<totfact> 0.56384102E+02</totfact>
</mgrwt>
</event>
<event>
 4    1  0.5323640E-005  0.7265824E+03  0.7818608E-02  0.9672823E-01
         -2   -1    0    0    0  501 -0.00000000000E+00  0.00000000000E+00  0.16403384346E+03  0.16403384348E+03  0.25500000000E-02 0. -1.
          2   -1    0    0  501    0  0.00000000000E+00 -0.00000000000E+00 -0.80459300998E+03  0.80459300998E+03  0.25500000000E-02 0.  1.
    5000001    1    1    2    0    0 -0.62006494090E+02  0.30213143669E+03 -0.45108427038E+03  0.57081540740E+03  0.16500000000E+03 0.  0.
   -5000001    1    1    2    0    0  0.62006494090E+02 -0.30213143669E+03 -0.18947489614E+03  0.39781144606E+03  0.16500000000E+03 0.  0.
<mgrwt>
<rscale>  0 0.72658237E+03</rscale>
<asrwt>0</asrwt>
<pdfrwt beam="1">  1        2 0.11494186E+00 0.72658237E+03</pdfrwt>
<pdfrwt beam="2">  1       -2 0.23433407E-01 0.72658237E+03</pdfrwt>
<totfact> 0.60977236E+02</totfact>
</mgrwt>
</event>
<event>
 4    1  0.5323640E-005  0.4428909E+03  0.7818608E-02  0.1029863E+00
         -2   -1    0    0    0  501 -0.00000000000E+00  0.00000000000E+00  0.20800776066E+02  0.20800776223E+02  0.25500000000E-02 0. -1.
          2   -1    0    0  501    0  0.00000000000E+00 -0.00000000000E+00 -0.23575124955E+04  0.23575124955E+04  0.25500000000E-02 0.  1.
    5000001    1    1    2    0    0  0.13230497010E+03 -0.36077930888E+02 -0.87389373910E+03  0.89984525861E+03  0.16500000000E+03 0.  0.
   -5000001    1    1    2    0    0 -0.13230497010E+03  0.36077930888E+02 -0.14628179804E+04  0.14784680132E+04  0.16500000000E+03 0.  0.
<mgrwt>
<rscale>  0 0.44289091E+03</rscale>
<asrwt>0</asrwt>
<pdfrwt beam="1">  1        2 0.33678733E+00 0.44289091E+03</pdfrwt>
<pdfrwt beam="2">  1       -2 0.29715410E-02 0.44289091E+03</pdfrwt>
<totfact> 0.25106780E+03</totfact>
</mgrwt>
</event>
<event>
 4    1  0.5323640E-005  0.4260428E+03  0.7818608E-02  0.1035117E+00
         -2   -1    0    0    0  501 -0.00000000000E+00  0.00000000000E+00  0.62139843858E+02  0.62139843910E+02  0.25500000000E-02 0. -1.
          2   -1    0    0  501    0  0.00000000000E+00 -0.00000000000E+00 -0.73025787752E+03  0.73025787752E+03  0.25500000000E-02 0.  1.
    5000001    1    1    2    0    0  0.92088300642E+02  0.66313036188E+02 -0.19897025436E+03  0.28229742472E+03  0.16500000000E+03 0.  0.
   -5000001    1    1    2    0    0 -0.92088300642E+02 -0.66313036188E+02 -0.46914777930E+03  0.51010029671E+03  0.16500000000E+03 0.  0.
<mgrwt>
<rscale>  0 0.42604277E+03</rscale>
<asrwt>0</asrwt>
<pdfrwt beam="1">  1        2 0.10432255E+00 0.42604277E+03</pdfrwt>
<pdfrwt beam="2">  1       -2 0.88771210E-02 0.42604277E+03</pdfrwt>
<totfact> 0.35223685E+03</totfact>
</mgrwt>
</event>
<event>
 4    1  0.5323640E-005  0.4225584E+03  0.7818608E-02  0.1036237E+00
         -2   -1    0    0    0  501 -0.00000000000E+00  0.00000000000E+00  0.77881499067E+03  0.77881499068E+03  0.25500000000E-02 0. -1.
          2   -1    0    0  501    0  0.00000000000E+00 -0.00000000000E+00 -0.57316427983E+02  0.57316428040E+02  0.25500000000E-02 0.  1.
    5000001    1    1    2    0    0  0.15305050058E+02 -0.11369507196E+03  0.23170475642E+03  0.30671307128E+03  0.16500000000E+03 0.  0.
   -5000001    1    1    2    0    0 -0.15305050058E+02  0.11369507196E+03  0.48979380627E+03  0.52941834744E+03  0.16500000000E+03 0.  0.
<mgrwt>
<rscale>  0 0.42255837E+03</rscale>
<asrwt>0</asrwt>
<pdfrwt beam="1">  1        2 0.81880613E-02 0.42255837E+03</pdfrwt>
<pdfrwt beam="2">  1       -2 0.11125928E+00 0.42255837E+03</pdfrwt>
<totfact> 0.55365130E+02</totfact>
</mgrwt>
</event>
<event>
 4    1  0.5323640E-005  0.5176612E+03  0.7818608E-02  0.1009269E+00
          2   -1    0    0  501    0  0.00000000000E+00  0.00000000000E+00  0.69273812790E+03  0.69273812791E+03  0.25500000000E-02 0.  1.
         -2   -1    0    0    0  501 -0.00000000000E+00 -0.00000000000E+00 -0.96707949641E+02  0.96707949674E+02  0.25500000000E-02 0. -1.
    5000001    1    1    2    0    0 -0.12972909940E+03  0.19340696752E+02  0.68933340024E+02  0.22176678550E+03  0.16500000000E+03 0.  0.
   -5000001    1    1    2    0    0  0.12972909940E+03 -0.19340696752E+02  0.52709683824E+03  0.56767929209E+03  0.16500000000E+03 0.  0.
<mgrwt>
<rscale>  0 0.51766122E+03</rscale>
<asrwt>0</asrwt>
<pdfrwt beam="1">  1        2 0.98962594E-01 0.51766122E+03</pdfrwt>
<pdfrwt beam="2">  1       -2 0.13815421E-01 0.51766122E+03</pdfrwt>
<totfact> 0.18318838E+03</totfact>
</mgrwt>
</event>
<event>
 4    1  0.5323640E-005  0.3823760E+03  0.7818608E-02  0.1050059E+00
         -2   -1    0    0    0  501 -0.00000000000E+00  0.00000000000E+00  0.59822913975E+02  0.59822914029E+02  0.25500000000E-02 0. -1.
          2   -1    0    0  501    0  0.00000000000E+00 -0.00000000000E+00 -0.61101759408E+03  0.61101759409E+03  0.25500000000E-02 0.  1.
    5000001    1    1    2    0    0 -0.32573969577E+02 -0.56232746935E+02 -0.15025079145E+03  0.23242952836E+03  0.16500000000E+03 0.  0.
   -5000001    1    1    2    0    0  0.32573969577E+02  0.56232746935E+02 -0.40094388866E+03  0.43841097976E+03  0.16500000000E+03 0.  0.
<mgrwt>
<rscale>  0 0.38237601E+03</rscale>
<asrwt>0</asrwt>
<pdfrwt beam="1">  1        2 0.87288224E-01 0.38237601E+03</pdfrwt>
<pdfrwt beam="2">  1       -2 0.85461309E-02 0.38237601E+03</pdfrwt>
<totfact> 0.46183314E+03</totfact>
</mgrwt>
</event>
<event>
 4    1  0.5323640E-005  0.5125195E+03  0.7818608E-02  0.1010562E+00
         -2   -1    0    0    0  501 -0.00000000000E+00  0.00000000000E+00  0.41832866482E+02  0.41832866560E+02  0.25500000000E-02 0. -1.
          2   -1    0    0  501    0  0.00000000000E+00 -0.00000000000E+00 -0.15697960963E+04  0.15697960963E+04  0.25500000000E-02 0.  1.
    5000001    1    1    2    0    0 -0.14083589559E+03 -0.10907334325E+03 -0.10216084994E+04  0.10500669835E+04  0.16500000000E+03 0.  0.
   -5000001    1    1    2    0    0  0.14083589559E+03  0.10907334325E+03 -0.50635473038E+03  0.56156197936E+03  0.16500000000E+03 0.  0.
<mgrwt>
<rscale>  0 0.51251954E+03</rscale>
<asrwt>0</asrwt>
<pdfrwt beam="1">  1        2 0.22425655E+00 0.51251954E+03</pdfrwt>
<pdfrwt beam="2">  1       -2 0.59761248E-02 0.51251954E+03</pdfrwt>
<totfact> 0.21311350E+03</totfact>
</mgrwt>
</event>
<event>
 4    1  0.5323640E-005  0.3451579E+03  0.7818608E-02  0.1064620E+00
          2   -1    0    0  501    0  0.00000000000E+00  0.00000000000E+00  0.11146203532E+04  0.11146203532E+04  0.25500000000E-02 0.  1.
         -2   -1    0    0    0  501 -0.00000000000E+00 -0.00000000000E+00 -0.26720750899E+02  0.26720751021E+02  0.25500000000E-02 0. -1.
    5000001    1    1    2    0    0  0.38128297474E+02  0.12694194050E+02  0.64552501814E+03  0.66748966934E+03  0.16500000000E+03 0.  0.
   -5000001    1    1    2    0    0 -0.38128297474E+02 -0.12694194050E+02  0.44237458418E+03  0.47385143490E+03  0.16500000000E+03 0.  0.
<mgrwt>
<rscale>  0 0.34515789E+03</rscale>
<asrwt>0</asrwt>
<pdfrwt beam="1">  1        2 0.15923146E+00 0.34515789E+03</pdfrwt>
<pdfrwt beam="2">  1       -2 0.38172507E-02 0.34515789E+03</pdfrwt>
<totfact> 0.74073854E+03</totfact>
</mgrwt>
</event>
<event>
 4    1  0.5323640E-005  0.4404904E+03  0.7818608E-02  0.1030596E+00
         -2   -1    0    0    0  501 -0.00000000000E+00  0.00000000000E+00  0.49202467186E+04  0.49202467186E+04  0.25500000000E-02 0. -1.
          2   -1    0    0  501    0  0.00000000000E+00 -0.00000000000E+00 -0.98588444942E+01  0.98588448240E+01  0.25500000000E-02 0.  1.
    5000001    1    1    2    0    0 -0.91012694780E+02 -0.64617213688E+02  0.14038162629E+04  0.14178800355E+04  0.16500000000E+03 0.  0.
   -5000001    1    1    2    0    0  0.91012694780E+02  0.64617213688E+02  0.35065716112E+04  0.35122255280E+04  0.16500000000E+03 0.  0.
<mgrwt>
<rscale>  0 0.44049040E+03</rscale>
<asrwt>0</asrwt>
<pdfrwt beam="1">  1        2 0.14084024E-02 0.44049040E+03</pdfrwt>
<pdfrwt beam="2">  1       -2 0.70289438E+00 0.44049040E+03</pdfrwt>
<totfact> 0.24042485E+00</totfact>
</mgrwt>
</event>
<event>
 4    1  0.5323640E-005  0.3927233E+03  0.7818608E-02  0.1046329E+00
         -2   -1    0    0    0  501 -0.00000000000E+00  0.00000000000E+00  0.41690447466E+02  0.41690447544E+02  0.25500000000E-02 0. -1.
          2   -1    0    0  501    0  0.00000000000E+00 -0.00000000000E+00 -0.92486151335E+03  0.92486151335E+03  0.25500000000E-02 0.  1.
    5000001    1    1    2    0    0  0.66322566919E+02 -0.59380834551E+01 -0.23716243198E+03  0.29648771115E+03  0.16500000000E+03 0.  0.
   -5000001    1    1    2    0    0 -0.66322566919E+02  0.59380834551E+01 -0.64600863390E+03  0.67006424975E+03  0.16500000000E+03 0.  0.
<mgrwt>
<rscale>  0 0.39272326E+03</rscale>
<asrwt>0</asrwt>
<pdfrwt beam="1">  1        2 0.13212306E+00 0.39272326E+03</pdfrwt>
<pdfrwt beam="2">  1       -2 0.59557788E-02 0.39272326E+03</pdfrwt>
<totfact> 0.48725737E+03</totfact>
</mgrwt>
</event>
<event>
 4    1  0.5323640E-005  0.1461781E+04  0.7818608E-02  0.8910274E-01
          2   -1    0    0  501    0  0.00000000000E+00  0.00000000000E+00  0.99179822795E+03  0.99179822795E+03  0.25500000000E-02 0.  1.
         -2   -1    0    0    0  501 -0.00000000000E+00 -0.00000000000E+00 -0.53861838724E+03  0.53861838724E+03  0.25500000000E-02 0. -1.
    5000001    1    1    2    0    0 -0.40339316421E+03  0.49220152617E+03 -0.10775954347E+03  0.66620230148E+03  0.16500000000E+03 0.  0.
   -5000001    1    1    2    0    0  0.40339316421E+03 -0.49220152617E+03  0.56093938418E+03  0.86421431371E+03  0.16500000000E+03 0.  0.
<mgrwt>
<rscale>  0 0.14617808E+04</rscale>
<asrwt>0</asrwt>
<pdfrwt beam="1">  1        2 0.14168546E+00 0.14617808E+04</pdfrwt>
<pdfrwt beam="2">  1       -2 0.76945484E-01 0.14617808E+04</pdfrwt>
<totfact> 0.41609478E+01</totfact>
</mgrwt>
</event>
<event>
 4    1  0.5323640E-005  0.5256264E+03  0.7818608E-02  0.1007298E+00
          2   -1    0    0  501    0  0.00000000000E+00  0.00000000000E+00  0.12840568523E+04  0.12840568523E+04  0.25500000000E-02 0.  1.
         -2   -1    0    0    0  501 -0.00000000000E+00 -0.00000000000E+00 -0.53791054068E+02  0.53791054128E+02  0.25500000000E-02 0. -1.
    5000001    1    1    2    0    0  0.15396764713E+03 -0.11414617097E+03  0.43318104541E+03  0.50160363118E+03  0.16500000000E+03 0.  0.
   -5000001    1    1    2    0    0 -0.15396764713E+03  0.11414617097E+03  0.79708475283E+03  0.83624427526E+03  0.16500000000E+03 0.  0.
<mgrwt>
<rscale>  0 0.52562638E+03</rscale>
<asrwt>0</asrwt>
<pdfrwt beam="1">  1        2 0.18343669E+00 0.52562638E+03</pdfrwt>
<pdfrwt beam="2">  1       -2 0.76844366E-02 0.52562638E+03</pdfrwt>
<totfact> 0.20286137E+03</totfact>
</mgrwt>
</event>
<event>
 4    1  0.5323640E-005  0.4312085E+03  0.7818608E-02  0.1033479E+00
          2   -1    0    0  501    0  0.00000000000E+00  0.00000000000E+00  0.35551081511E+02  0.35551081602E+02  0.25500000000E-02 0.  1.
         -2   -1    0    0    0  501 -0.00000000000E+00 -0.00000000000E+00 -0.13075605204E+04  0.13075605204E+04  0.25500000000E-02 0. -1.
    5000001    1    1    2    0    0  0.93804555221E+02  0.79347779076E+02 -0.83701729661E+03  0.86192709636E+03  0.16500000000E+03 0.  0.
   -5000001    1    1    2    0    0 -0.93804555221E+02 -0.79347779076E+02 -0.43499214230E+03  0.48118450566E+03  0.16500000000E+03 0.  0.
<mgrwt>
<rscale>  0 0.43120849E+03</rscale>
<asrwt>0</asrwt>
<pdfrwt beam="1">  1        2 0.50787268E-02 0.43120849E+03</pdfrwt>
<pdfrwt beam="2">  1       -2 0.18679433E+00 0.43120849E+03</pdfrwt>
<totfact> 0.27015991E+02</totfact>
</mgrwt>
</event>
<event>
 4    1  0.5323640E-005  0.3621346E+03  0.7818608E-02  0.1057742E+00
         -2   -1    0    0    0  501 -0.00000000000E+00  0.00000000000E+00  0.99810501072E+03  0.99810501072E+03  0.25500000000E-02 0. -1.
          2   -1    0    0  501    0  0.00000000000E+00 -0.00000000000E+00 -0.32847614526E+02  0.32847614625E+02  0.25500000000E-02 0.  1.
    5000001    1    1    2    0    0  0.63847999227E+02  0.29648234073E+02  0.55264010296E+03  0.58102639199E+03  0.16500000000E+03 0.  0.
   -5000001    1    1    2    0    0 -0.63847999227E+02 -0.29648234073E+02  0.41261729323E+03  0.44992623336E+03  0.16500000000E+03 0.  0.
<mgrwt>
<rscale>  0 0.36213461E+03</rscale>
<asrwt>0</asrwt>
<pdfrwt beam="1">  1        2 0.46925169E-02 0.36213461E+03</pdfrwt>
<pdfrwt beam="2">  1       -2 0.14258642E+00 0.36213461E+03</pdfrwt>
<totfact> 0.62169685E+02</totfact>
</mgrwt>
</event>
<event>
 4    1  0.5323640E-005  0.7036055E+03  0.7818608E-02  0.9711086E-01
          2   -1    0    0  501    0  0.00000000000E+00  0.00000000000E+00  0.10510209469E+04  0.10510209469E+04  0.25500000000E-02 0.  1.
         -2   -1    0    0    0  501 -0.00000000000E+00 -0.00000000000E+00 -0.11775710652E+03  0.11775710655E+03  0.25500000000E-02 0. -1.
    5000001    1    1    2    0    0  0.24042623084E+03 -0.49010014854E+01  0.13980170100E+03  0.32341661660E+03  0.16500000000E+03 0.  0.
   -5000001    1    1    2    0    0 -0.24042623084E+03  0.49010014854E+01  0.79346213938E+03  0.84536143686E+03  0.16500000000E+03 0.  0.
<mgrwt>
<rscale>  0 0.70360553E+03</rscale>
<asrwt>0</asrwt>
<pdfrwt beam="1">  1        2 0.15014585E+00 0.70360553E+03</pdfrwt>
<pdfrwt beam="2">  1       -2 0.16822444E-01 0.70360553E+03</pdfrwt>
<totfact> 0.75665292E+02</totfact>
</mgrwt>
</event>
<event>
 4    1  0.5323640E-005  0.3423376E+03  0.7818608E-02  0.1065805E+00
         -2   -1    0    0    0  501 -0.00000000000E+00  0.00000000000E+00  0.37420457226E+02  0.37420457313E+02  0.25500000000E-02 0. -1.
          2   -1    0    0  501    0  0.00000000000E+00 -0.00000000000E+00 -0.78296075819E+03  0.78296075819E+03  0.25500000000E-02 0.  1.
    5000001    1    1    2    0    0  0.44946386776E+02  0.18470716724E+01 -0.35579783965E+03  0.39476662987E+03  0.16500000000E+03 0.  0.
   -5000001    1    1    2    0    0 -0.44946386776E+02 -0.18470716724E+01 -0.38974246132E+03  0.42561458564E+03  0.16500000000E+03 0.  0.
<mgrwt>
<rscale>  0 0.34233755E+03</rscale>
<asrwt>0</asrwt>
<pdfrwt beam="1">  1        2 0.11185153E+00 0.34233755E+03</pdfrwt>
<pdfrwt beam="2">  1       -2 0.53457801E-02 0.34233755E+03</pdfrwt>
<totfact> 0.71079244E+03</totfact>
</mgrwt>
</event>
<event>
 4    1  0.5323640E-005  0.4836285E+03  0.7818608E-02  0.1018143E+00
          2   -1    0    0  501    0  0.00000000000E+00  0.00000000000E+00  0.16937973679E+03  0.16937973681E+03  0.25500000000E-02 0.  1.
         -2   -1    0    0    0  501 -0.00000000000E+00 -0.00000000000E+00 -0.34522511961E+03  0.34522511962E+03  0.25500000000E-02 0. -1.
    5000001    1    1    2    0    0 -0.82067428218E+02  0.12399449720E+03  0.13800926769E+02  0.22254249862E+03  0.16500000000E+03 0.  0.
   -5000001    1    1    2    0    0  0.82067428218E+02 -0.12399449720E+03 -0.18964630959E+03  0.29206235781E+03  0.16500000000E+03 0.  0.
<mgrwt>
<rscale>  0 0.48362853E+03</rscale>
<asrwt>0</asrwt>
<pdfrwt beam="1">  1        2 0.24197105E-01 0.48362853E+03</pdfrwt>
<pdfrwt beam="2">  1       -2 0.49317874E-01 0.48362853E+03</pdfrwt>
<totfact> 0.88828603E+02</totfact>
</mgrwt>
</event>
<event>
 4    1  0.5323640E-005  0.1408265E+04  0.7818608E-02  0.8947858E-01
         -2   -1    0    0    0  501 -0.00000000000E+00  0.00000000000E+00  0.70837419812E+03  0.70837419813E+03  0.25500000000E-02 0. -1.
          2   -1    0    0  501    0  0.00000000000E+00 -0.00000000000E+00 -0.69991573824E+03  0.69991573824E+03  0.25500000000E-02 0.  1.
    5000001    1    1    2    0    0  0.68320952951E+03  0.87845423945E+01 -0.37302476685E+02  0.70389552078E+03  0.16500000000E+03 0.  0.
   -5000001    1    1    2    0    0 -0.68320952951E+03 -0.87845423945E+01  0.45760936570E+02  0.70439441559E+03  0.16500000000E+03 0.  0.
<mgrwt>
<rscale>  0 0.14082645E+04</rscale>
<asrwt>0</asrwt>
<pdfrwt beam="1">  1        2 0.99987963E-01 0.14082645E+04</pdfrwt>
<pdfrwt beam="2">  1       -2 0.10119631E+00 0.14082645E+04</pdfrwt>
<totfact> 0.35225517E+01</totfact>
</mgrwt>
</event>
<event>
 4    1  0.5323640E-005  0.4959002E+03  0.7818608E-02  0.1014855E+00
         -2   -1    0    0    0  501 -0.00000000000E+00  0.00000000000E+00  0.32402559034E+02  0.32402559134E+02  0.25500000000E-02 0. -1.
          2   -1    0    0  501    0  0.00000000000E+00 -0.00000000000E+00 -0.18973581693E+04  0.18973581693E+04  0.25500000000E-02 0.  1.
    5000001    1    1    2    0    0  0.24333088812E+02  0.50114638600E+02 -0.16192978245E+04  0.16286356316E+04  0.16500000000E+03 0.  0.
   -5000001    1    1    2    0    0 -0.24333088812E+02 -0.50114638600E+02 -0.24565778576E+03  0.30112509679E+03  0.16500000000E+03 0.  0.
<mgrwt>
<rscale>  0 0.49590023E+03</rscale>
<asrwt>0</asrwt>
<pdfrwt beam="1">  1        2 0.27105110E+00 0.49590023E+03</pdfrwt>
<pdfrwt beam="2">  1       -2 0.46289382E-02 0.49590023E+03</pdfrwt>
<totfact> 0.21644406E+03</totfact>
</mgrwt>
</event>
<event>
 4    1  0.5323640E-005  0.3549161E+03  0.7818608E-02  0.1060615E+00
          2   -1    0    0  501    0  0.00000000000E+00  0.00000000000E+00  0.37709014559E+03  0.37709014560E+03  0.25500000000E-02 0.  1.
         -2   -1    0    0    0  501 -0.00000000000E+00 -0.00000000000E+00 -0.83511500498E+02  0.83511500537E+02  0.25500000000E-02 0. -1.
    5000001    1    1    2    0    0  0.11125689165E+02 -0.57138095311E+02  0.10833875653E+03  0.20579317059E+03  0.16500000000E+03 0.  0.
   -5000001    1    1    2    0    0 -0.11125689165E+02  0.57138095311E+02  0.18523988856E+03  0.25480847554E+03  0.16500000000E+03 0.  0.
<mgrwt>
<rscale>  0 0.35491612E+03</rscale>
<asrwt>0</asrwt>
<pdfrwt beam="1">  1        2 0.53870022E-01 0.35491612E+03</pdfrwt>
<pdfrwt beam="2">  1       -2 0.11930214E-01 0.35491612E+03</pdfrwt>
<totfact> 0.46296619E+03</totfact>
</mgrwt>
</event>
<event>
 4    1  0.5323640E-005  0.5535149E+03  0.7818608E-02  0.1000684E+00
          2   -1    0    0  501    0  0.00000000000E+00  0.00000000000E+00  0.20038955017E+04  0.20038955017E+04  0.25500000000E-02 0.  1.
         -2   -1    0    0    0  501 -0.00000000000E+00 -0.00000000000E+00 -0.38222896116E+02  0.38222896201E+02  0.25500000000E-02 0. -1.
    5000001    1    1    2    0    0 -0.21372103617E+03 -0.31685567518E+02  0.11741515894E+04  0.12052126830E+04  0.16500000000E+03 0.  0.
   -5000001    1    1    2    0    0  0.21372103617E+03  0.31685567518E+02  0.79152101617E+03  0.83690571484E+03  0.16500000000E+03 0.  0.
<mgrwt>
<rscale>  0 0.55351491E+03</rscale>
<asrwt>0</asrwt>
<pdfrwt beam="1">  1        2 0.28627084E+00 0.55351491E+03</pdfrwt>
<pdfrwt beam="2">  1       -2 0.54604127E-02 0.55351491E+03</pdfrwt>
<totfact> 0.14791050E+03</totfact>
</mgrwt>
</event>
<event>
 4    1  0.5323640E-005  0.6382370E+03  0.7818608E-02  0.9829106E-01
         -2   -1    0    0    0  501 -0.00000000000E+00  0.00000000000E+00  0.31903499756E+02  0.31903499858E+02  0.25500000000E-02 0. -1.
          2   -1    0    0  501    0  0.00000000000E+00 -0.00000000000E+00 -0.31920198502E+04  0.31920198502E+04  0.25500000000E-02 0.  1.
    5000001    1    1    2    0    0  0.16424711576E+03  0.20922931693E+03 -0.12663250524E+04  0.13044378714E+04  0.16500000000E+03 0.  0.
   -5000001    1    1    2    0    0 -0.16424711576E+03 -0.20922931693E+03 -0.18937912981E+04  0.19194854787E+04  0.16500000000E+03 0.  0.
<mgrwt>
<rscale>  0 0.63823696E+03</rscale>
<asrwt>0</asrwt>
<pdfrwt beam="1">  1        2 0.45600263E+00 0.63823696E+03</pdfrwt>
<pdfrwt beam="2">  1       -2 0.45576448E-02 0.63823696E+03</pdfrwt>
<totfact> 0.46616584E+02</totfact>
</mgrwt>
</event>
<event>
 4    1  0.5323640E-005  0.4909692E+03  0.7818608E-02  0.1016163E+00
          2   -1    0    0  501    0  0.00000000000E+00  0.00000000000E+00  0.12361324666E+03  0.12361324668E+03  0.25500000000E-02 0.  1.
         -2   -1    0    0    0  501 -0.00000000000E+00 -0.00000000000E+00 -0.48751004742E+03  0.48751004743E+03  0.25500000000E-02 0. -1.
    5000001    1    1    2    0    0 -0.53885584393E+02 -0.16748137372E+03 -0.12512504876E+03  0.27172586291E+03  0.16500000000E+03 0.  0.
   -5000001    1    1    2    0    0  0.53885584393E+02  0.16748137372E+03 -0.23877175200E+03  0.33939743120E+03  0.16500000000E+03 0.  0.
<mgrwt>
<rscale>  0 0.49096924E+03</rscale>
<asrwt>0</asrwt>
<pdfrwt beam="1">  1        2 0.17659035E-01 0.49096924E+03</pdfrwt>
<pdfrwt beam="2">  1       -2 0.69644292E-01 0.49096924E+03</pdfrwt>
<totfact> 0.62336504E+02</totfact>
</mgrwt>
</event>
<event>
 4    1  0.5323640E-005  0.4798536E+03  0.7818608E-02  0.1019175E+00
         -2   -1    0    0    0  501 -0.00000000000E+00  0.00000000000E+00  0.17711446847E+02  0.17711447030E+02  0.25500000000E-02 0. -1.
          2   -1    0    0  501    0  0.00000000000E+00 -0.00000000000E+00 -0.32501499325E+04  0.32501499325E+04  0.25500000000E-02 0.  1.
    5000001    1    1    2    0    0 -0.10559827999E+03  0.13259897693E+03 -0.18891660776E+04  0.19039188413E+04  0.16500000000E+03 0.  0.
   -5000001    1    1    2    0    0  0.10559827999E+03 -0.13259897693E+03 -0.13432724081E+04  0.13639425383E+04  0.16500000000E+03 0.  0.
<mgrwt>
<rscale>  0 0.47985355E+03</rscale>
<asrwt>0</asrwt>
<pdfrwt beam="1">  1        2 0.46430675E+00 0.47985355E+03</pdfrwt>
<pdfrwt beam="2">  1       -2 0.25302088E-02 0.47985355E+03</pdfrwt>
<totfact> 0.10781644E+03</totfact>
</mgrwt>
</event>
<event>
 4    1  0.5323640E-005  0.4716018E+03  0.7818608E-02  0.1021469E+00
         -2   -1    0    0    0  501 -0.00000000000E+00  0.00000000000E+00  0.11070270131E+03  0.11070270134E+03  0.25500000000E-02 0. -1.
          2   -1    0    0  501    0  0.00000000000E+00 -0.00000000000E+00 -0.50226482732E+03  0.50226482733E+03  0.25500000000E-02 0.  1.
    5000001    1    1    2    0    0  0.13950619862E+03 -0.49089955170E+02 -0.30061324962E+03  0.37345030325E+03  0.16500000000E+03 0.  0.
   -5000001    1    1    2    0    0 -0.13950619862E+03  0.49089955170E+02 -0.90948876396E+02  0.23951722541E+03  0.16500000000E+03 0.  0.
<mgrwt>
<rscale>  0 0.47160184E+03</rscale>
<asrwt>0</asrwt>
<pdfrwt beam="1">  1        2 0.71752117E-01 0.47160184E+03</pdfrwt>
<pdfrwt beam="2">  1       -2 0.15814672E-01 0.47160184E+03</pdfrwt>
<totfact> 0.21253277E+03</totfact>
</mgrwt>
</event>
<event>
 4    1  0.5323640E-005  0.3890939E+03  0.7818608E-02  0.1047623E+00
          2   -1    0    0  501    0  0.00000000000E+00  0.00000000000E+00  0.80787960204E+03  0.80787960205E+03  0.25500000000E-02 0.  1.
         -2   -1    0    0    0  501 -0.00000000000E+00 -0.00000000000E+00 -0.46849213684E+02  0.46849213754E+02  0.25500000000E-02 0. -1.
    5000001    1    1    2    0    0  0.65912947468E+02  0.20700215945E+01  0.55452396432E+03  0.58229771478E+03  0.16500000000E+03 0.  0.
   -5000001    1    1    2    0    0 -0.65912947468E+02 -0.20700215945E+01  0.20650642404E+03  0.27243110102E+03  0.16500000000E+03 0.  0.
<mgrwt>
<rscale>  0 0.38909394E+03</rscale>
<asrwt>0</asrwt>
<pdfrwt beam="1">  1        2 0.11541137E+00 0.38909394E+03</pdfrwt>
<pdfrwt beam="2">  1       -2 0.66927452E-02 0.38909394E+03</pdfrwt>
<totfact> 0.48417621E+03</totfact>
</mgrwt>
</event>
<event>
 4    1  0.5323640E-005  0.6032841E+03  0.7818608E-02  0.9898616E-01
         -2   -1    0    0    0  501 -0.00000000000E+00  0.00000000000E+00  0.80455965595E+02  0.80455965635E+02  0.25500000000E-02 0. -1.
          2   -1    0    0  501    0  0.00000000000E+00 -0.00000000000E+00 -0.11309035315E+04  0.11309035315E+04  0.25500000000E-02 0.  1.
    5000001    1    1    2    0    0  0.12016917755E+03 -0.51358763732E+02 -0.95907206636E+03  0.98189743982E+03  0.16500000000E+03 0.  0.
   -5000001    1    1    2    0    0 -0.12016917755E+03  0.51358763732E+02 -0.91375499589E+02  0.22946205737E+03  0.16500000000E+03 0.  0.
<mgrwt>
<rscale>  0 0.60328413E+03</rscale>
<asrwt>0</asrwt>
<pdfrwt beam="1">  1        2 0.16155764E+00 0.60328413E+03</pdfrwt>
<pdfrwt beam="2">  1       -2 0.11493710E-01 0.60328413E+03</pdfrwt>
<totfact> 0.12890079E+03</totfact>
</mgrwt>
</event>
<event>
 4    1  0.5323640E-005  0.1323525E+04  0.7818608E-02  0.9011115E-01
         -2   -1    0    0    0  501 -0.00000000000E+00  0.00000000000E+00  0.21195847047E+03  0.21195847048E+03  0.25500000000E-02 0. -1.
          2   -1    0    0  501    0  0.00000000000E+00 -0.00000000000E+00 -0.20661089690E+04  0.20661089690E+04  0.25500000000E-02 0.  1.
    5000001    1    1    2    0    0 -0.54045807229E+03  0.69358495776E+02 -0.34644004826E+03  0.66644672396E+03  0.16500000000E+03 0.  0.
   -5000001    1    1    2    0    0  0.54045807229E+03 -0.69358495776E+02 -0.15077104503E+04  0.16116207155E+04  0.16500000000E+03 0.  0.
<mgrwt>
<rscale>  0 0.13235245E+04</rscale>
<asrwt>0</asrwt>
<pdfrwt beam="1">  1        2 0.29515841E+00 0.13235245E+04</pdfrwt>
<pdfrwt beam="2">  1       -2 0.30279783E-01 0.13235245E+04</pdfrwt>
<totfact> 0.73221270E+01</totfact>
</mgrwt>
</event>
<event>
 4    1  0.5323640E-005  0.6183913E+03  0.7818608E-02  0.9867968E-01
          2   -1    0    0  501    0  0.00000000000E+00  0.00000000000E+00  0.19386884995E+04  0.19386884995E+04  0.25500000000E-02 0.  1.
         -2   -1    0    0    0  501 -0.00000000000E+00 -0.00000000000E+00 -0.49312695654E+02  0.49312695720E+02  0.25500000000E-02 0. -1.
    5000001    1    1    2    0    0  0.20207909142E+03 -0.12510095019E+03  0.12952442726E+04  0.13271657518E+04  0.16500000000E+03 0.  0.
   -5000001    1    1    2    0    0 -0.20207909142E+03  0.12510095019E+03  0.59413153126E+03  0.66083544348E+03  0.16500000000E+03 0.  0.
<mgrwt>
<rscale>  0 0.61839132E+03</rscale>
<asrwt>0</asrwt>
<pdfrwt beam="1">  1        2 0.27695549E+00 0.61839132E+03</pdfrwt>
<pdfrwt beam="2">  1       -2 0.70446710E-02 0.61839132E+03</pdfrwt>
<totfact> 0.10660027E+03</totfact>
</mgrwt>
</event>
<event>
 4    1  0.5323640E-005  0.5774082E+03  0.7818608E-02  0.9953418E-01
          2   -1    0    0  501    0  0.00000000000E+00  0.00000000000E+00  0.12411157314E+04  0.12411157314E+04  0.25500000000E-02 0.  1.
         -2   -1    0    0    0  501 -0.00000000000E+00 -0.00000000000E+00 -0.67157355438E+02  0.67157355487E+02  0.25500000000E-02 0. -1.
    5000001    1    1    2    0    0  0.21073975782E+03  0.72120840379E+02  0.76982526720E+03  0.81821061051E+03  0.16500000000E+03 0.  0.
   -5000001    1    1    2    0    0 -0.21073975782E+03 -0.72120840379E+02  0.40413310873E+03  0.49006247634E+03  0.16500000000E+03 0.  0.
<mgrwt>
<rscale>  0 0.57740818E+03</rscale>
<asrwt>0</asrwt>
<pdfrwt beam="1">  1        2 0.17730226E+00 0.57740818E+03</pdfrwt>
<pdfrwt beam="2">  1       -2 0.95939070E-02 0.57740818E+03</pdfrwt>
<totfact> 0.15001366E+03</totfact>
</mgrwt>
</event>
<event>
 4    1  0.5323640E-005  0.5434666E+03  0.7818608E-02  0.1003018E+00
          2   -1    0    0  501    0  0.00000000000E+00  0.00000000000E+00  0.37277619821E+03  0.37277619822E+03  0.25500000000E-02 0.  1.
         -2   -1    0    0    0  501 -0.00000000000E+00 -0.00000000000E+00 -0.19807857771E+03  0.19807857773E+03  0.25500000000E-02 0. -1.
    5000001    1    1    2    0    0  0.12411372021E+03  0.17421052767E+03  0.56537011784E+02  0.27599811086E+03  0.16500000000E+03 0.  0.
   -5000001    1    1    2    0    0 -0.12411372021E+03 -0.17421052767E+03  0.11816060871E+03  0.29485666509E+03  0.16500000000E+03 0.  0.
<mgrwt>
<rscale>  0 0.54346657E+03</rscale>
<asrwt>0</asrwt>
<pdfrwt beam="1">  1        2 0.53253741E-01 0.54346657E+03</pdfrwt>
<pdfrwt beam="2">  1       -2 0.28296940E-01 0.54346657E+03</pdfrwt>
<totfact> 0.10705185E+03</totfact>
</mgrwt>
</event>
<event>
 4    1  0.5323640E-005  0.6533536E+03  0.7818608E-02  0.9800507E-01
         -2   -1    0    0    0  501 -0.00000000000E+00  0.00000000000E+00  0.17129084423E+03  0.17129084425E+03  0.25500000000E-02 0. -1.
          2   -1    0    0  501    0  0.00000000000E+00 -0.00000000000E+00 -0.62302062074E+03  0.62302062074E+03  0.25500000000E-02 0.  1.
    5000001    1    1    2    0    0  0.24315812747E+02 -0.28078682425E+03 -0.21642983708E+03  0.39178996133E+03  0.16500000000E+03 0.  0.
   -5000001    1    1    2    0    0 -0.24315812747E+02  0.28078682425E+03 -0.23529993942E+03  0.40252150367E+03  0.16500000000E+03 0.  0.
<mgrwt>
<rscale>  0 0.65335359E+03</rscale>
<asrwt>0</asrwt>
<pdfrwt beam="1">  1        2 0.89002944E-01 0.65335359E+03</pdfrwt>
<pdfrwt beam="2">  1       -2 0.24470121E-01 0.65335359E+03</pdfrwt>
<totfact> 0.77546575E+02</totfact>
</mgrwt>
</event>
<event>
 4    1  0.5323640E-005  0.6558910E+03  0.7818608E-02  0.9795787E-01
         -2   -1    0    0    0  501 -0.00000000000E+00  0.00000000000E+00  0.10461250942E+03  0.10461250945E+03  0.25500000000E-02 0. -1.
          2   -1    0    0  501    0  0.00000000000E+00 -0.00000000000E+00 -0.10280631083E+04  0.10280631083E+04  0.25500000000E-02 0.  1.
    5000001    1    1    2    0    0  0.12356704052E+03 -0.25041852467E+03 -0.37809834788E+03  0.49815821951E+03  0.16500000000E+03 0.  0.
   -5000001    1    1    2    0    0 -0.12356704052E+03  0.25041852467E+03 -0.54535225102E+03  0.63451739825E+03  0.16500000000E+03 0.  0.
<mgrwt>
<rscale>  0 0.65589103E+03</rscale>
<asrwt>0</asrwt>
<pdfrwt beam="1">  1        2 0.14686615E+00 0.65589103E+03</pdfrwt>
<pdfrwt beam="2">  1       -2 0.14944645E-01 0.65589103E+03</pdfrwt>
<totfact> 0.95628943E+02</totfact>
</mgrwt>
</event>
<event>
 4    1  0.5323640E-005  0.6514203E+03  0.7818608E-02  0.9804118E-01
          2   -1    0    0  501    0  0.00000000000E+00  0.00000000000E+00  0.36858533713E+03  0.36858533714E+03  0.25500000000E-02 0. -1.
         -2   -1    0    0    0  501 -0.00000000000E+00 -0.00000000000E+00 -0.28782235618E+03  0.28782235619E+03  0.25500000000E-02 0.  1.
    5000001    1    1    2    0    0 -0.85824445244E+02 -0.14945836861E+03 -0.18303309169E+03  0.30071540034E+03  0.16500000000E+03 0.  0.
   -5000001    1    1    2    0    0  0.85824445244E+02  0.14945836861E+03  0.26379607265E+03  0.35569229299E+03  0.16500000000E+03 0.  0.
<mgrwt>
<rscale>  0 0.65142030E+03</rscale>
<asrwt>0</asrwt>
<pdfrwt beam="1">  1        2 0.52655048E-01 0.65142030E+03</pdfrwt>
<pdfrwt beam="2">  1       -2 0.41117479E-01 0.65142030E+03</pdfrwt>
<totfact> 0.53465855E+02</totfact>
</mgrwt>
</event>
<event>
 4    1  0.5323640E-005  0.3682704E+03  0.7818608E-02  0.1055356E+00
         -2   -1    0    0    0  501 -0.00000000000E+00  0.00000000000E+00  0.28608284101E+02  0.28608284214E+02  0.25500000000E-02 0. -1.
          2   -1    0    0  501    0  0.00000000000E+00 -0.00000000000E+00 -0.11851731604E+04  0.11851731604E+04  0.25500000000E-02 0.  1.
    5000001    1    1    2    0    0  0.49461027386E+02 -0.64186357001E+02 -0.61354837074E+03  0.64049425047E+03  0.16500000000E+03 0.  0.
   -5000001    1    1    2    0    0 -0.49461027386E+02  0.64186357001E+02 -0.54301650555E+03  0.57328719413E+03  0.16500000000E+03 0.  0.
<mgrwt>
<rscale>  0 0.36827039E+03</rscale>
<asrwt>0</asrwt>
<pdfrwt beam="1">  1        2 0.16931042E+00 0.36827039E+03</pdfrwt>
<pdfrwt beam="2">  1       -2 0.40868985E-02 0.36827039E+03</pdfrwt>
<totfact> 0.61070304E+03</totfact>
</mgrwt>
</event>
<event>
 4    1  0.5323640E-005  0.1009912E+04  0.7818608E-02  0.9297740E-01
         -2   -1    0    0    0  501 -0.00000000000E+00  0.00000000000E+00  0.19269471673E+03  0.19269471675E+03  0.25500000000E-02 0. -1.
          2   -1    0    0  501    0  0.00000000000E+00 -0.00000000000E+00 -0.13232354614E+04  0.13232354614E+04  0.25500000000E-02 0.  1.
    5000001    1    1    2    0    0 -0.83458756634E+02 -0.33898311233E+03 -0.10537020973E+04  0.11222245873E+04  0.16500000000E+03 0.  0.
   -5000001    1    1    2    0    0  0.83458756634E+02  0.33898311233E+03 -0.76838647313E+02  0.39370559080E+03  0.16500000000E+03 0.  0.
<mgrwt>
<rscale>  0 0.10099118E+04</rscale>
<asrwt>0</asrwt>
<pdfrwt beam="1">  1        2 0.18903363E+00 0.10099118E+04</pdfrwt>
<pdfrwt beam="2">  1       -2 0.27527817E-01 0.10099118E+04</pdfrwt>
<totfact> 0.21815830E+02</totfact>
</mgrwt>
</event>
<event>
 4    1  0.5323640E-005  0.8386173E+03  0.7818608E-02  0.9505743E-01
         -2   -1    0    0    0  501 -0.00000000000E+00  0.00000000000E+00  0.58014602829E+03  0.58014602829E+03  0.25500000000E-02 0. -1.
          2   -1    0    0  501    0  0.00000000000E+00 -0.00000000000E+00 -0.30306119122E+03  0.30306119124E+03  0.25500000000E-02 0.  1.
    5000001    1    1    2    0    0  0.27904304212E+03 -0.26563249596E+03  0.12484698030E+03  0.43730699829E+03  0.16500000000E+03 0.  0.
   -5000001    1    1    2    0    0 -0.27904304212E+03  0.26563249596E+03  0.15223785676E+03  0.44590022123E+03  0.16500000000E+03 0.  0.
<mgrwt>
<rscale>  0 0.83861731E+03</rscale>
<asrwt>0</asrwt>
<pdfrwt beam="1">  1        2 0.43294457E-01 0.83861731E+03</pdfrwt>
<pdfrwt beam="2">  1       -2 0.82878002E-01 0.83861731E+03</pdfrwt>
<totfact> 0.15140419E+02</totfact>
</mgrwt>
</event>
<event>
 4    1  0.5323640E-005  0.4296939E+03  0.7818608E-02  0.1033957E+00
          2   -1    0    0  501    0  0.00000000000E+00  0.00000000000E+00  0.14779458905E+03  0.14779458907E+03  0.25500000000E-02 0.  1.
         -2   -1    0    0    0  501 -0.00000000000E+00 -0.00000000000E+00 -0.31232006978E+03  0.31232006979E+03  0.25500000000E-02 0. -1.
    5000001    1    1    2    0    0  0.65551839700E+02 -0.93600525531E+02 -0.17997526334E+00  0.20070658798E+03  0.16500000000E+03 0.  0.
   -5000001    1    1    2    0    0 -0.65551839700E+02  0.93600525531E+02 -0.16434550547E+03  0.25940807088E+03  0.16500000000E+03 0.  0.
<mgrwt>
<rscale>  0 0.42969392E+03</rscale>
<asrwt>0</asrwt>
<pdfrwt beam="1">  1        2 0.21113513E-01 0.42969392E+03</pdfrwt>
<pdfrwt beam="2">  1       -2 0.44617153E-01 0.42969392E+03</pdfrwt>
<totfact> 0.12670766E+03</totfact>
</mgrwt>
</event>
<event>
 4    1  0.5323640E-005  0.3718650E+03  0.7818608E-02  0.1053982E+00
         -2   -1    0    0    0  501 -0.00000000000E+00  0.00000000000E+00  0.15125881647E+03  0.15125881649E+03  0.25500000000E-02 0. -1.
          2   -1    0    0  501    0  0.00000000000E+00 -0.00000000000E+00 -0.22855462357E+03  0.22855462358E+03  0.25500000000E-02 0.  1.
    5000001    1    1    2    0    0 -0.57973002305E+02 -0.42169503377E+02  0.93324126770E+01  0.18014224917E+03  0.16500000000E+03 0.  0.
   -5000001    1    1    2    0    0  0.57973002305E+02  0.42169503377E+02 -0.86628219777E+02  0.19967119089E+03  0.16500000000E+03 0.  0.
<mgrwt>
<rscale>  0 0.37186504E+03</rscale>
<asrwt>0</asrwt>
<pdfrwt beam="1">  1        2 0.32650660E-01 0.37186504E+03</pdfrwt>
<pdfrwt beam="2">  1       -2 0.21608402E-01 0.37186504E+03</pdfrwt>
<totfact> 0.29516970E+03</totfact>
</mgrwt>
</event>
<event>
 4    1  0.5323640E-005  0.5457390E+03  0.7818608E-02  0.1002485E+00
          2   -1    0    0  501    0  0.00000000000E+00  0.00000000000E+00  0.13847812048E+04  0.13847812048E+04  0.25500000000E-02 0.  1.
         -2   -1    0    0    0  501 -0.00000000000E+00 -0.00000000000E+00 -0.53768619487E+02  0.53768619548E+02  0.25500000000E-02 0. -1.
    5000001    1    1    2    0    0  0.58655779690E+02  0.19031796420E+03  0.43614167244E+03  0.50705619652E+03  0.16500000000E+03 0.  0.
   -5000001    1    1    2    0    0 -0.58655779690E+02 -0.19031796420E+03  0.89487091291E+03  0.93149362787E+03  0.16500000000E+03 0.  0.
<mgrwt>
<rscale>  0 0.54573904E+03</rscale>
<asrwt>0</asrwt>
<pdfrwt beam="1">  1        2 0.19782586E+00 0.54573904E+03</pdfrwt>
<pdfrwt beam="2">  1       -2 0.76812324E-02 0.54573904E+03</pdfrwt>
<totfact> 0.17915173E+03</totfact>
</mgrwt>
</event>
<event>
 4    1  0.5323640E-005  0.8784267E+03  0.7818608E-02  0.9452958E-01
          2   -1    0    0  501    0  0.00000000000E+00  0.00000000000E+00  0.82419873269E+03  0.82419873269E+03  0.25500000000E-02 0.  1.
         -2   -1    0    0    0  501 -0.00000000000E+00 -0.00000000000E+00 -0.23405566156E+03  0.23405566157E+03  0.25500000000E-02 0. -1.
    5000001    1    1    2    0    0  0.32652043766E+03  0.17926372565E+03  0.97364893113E+02  0.41887468527E+03  0.16500000000E+03 0.  0.
   -5000001    1    1    2    0    0 -0.32652043766E+03 -0.17926372565E+03  0.49277817802E+03  0.63937970900E+03  0.16500000000E+03 0.  0.
<mgrwt>
<rscale>  0 0.87842673E+03</rscale>
<asrwt>0</asrwt>
<pdfrwt beam="1">  1        2 0.11774268E+00 0.87842673E+03</pdfrwt>
<pdfrwt beam="2">  1       -2 0.33436523E-01 0.87842673E+03</pdfrwt>
<totfact> 0.30592459E+02</totfact>
</mgrwt>
</event>
<event>
 4    1  0.5323640E-005  0.4488896E+03  0.7818608E-02  0.1028054E+00
         -2   -1    0    0    0  501 -0.00000000000E+00  0.00000000000E+00  0.12363158101E+02  0.12363158364E+02  0.25500000000E-02 0. -1.
          2   -1    0    0  501    0  0.00000000000E+00 -0.00000000000E+00 -0.40746440956E+04  0.40746440956E+04  0.25500000000E-02 0.  1.
    5000001    1    1    2    0    0  0.61522196692E+02 -0.12014611513E+03 -0.26704437558E+04  0.26789391413E+04  0.16500000000E+03 0.  0.
   -5000001    1    1    2    0    0 -0.61522196692E+02  0.12014611513E+03 -0.13918371817E+04  0.14080681127E+04  0.16500000000E+03 0.  0.
<mgrwt>
<rscale>  0 0.44888961E+03</rscale>
<asrwt>0</asrwt>
<pdfrwt beam="1">  1        2 0.58209116E+00 0.44888961E+03</pdfrwt>
<pdfrwt beam="2">  1       -2 0.17661681E-02 0.44888961E+03</pdfrwt>
<totfact> 0.57894870E+02</totfact>
</mgrwt>
</event>
<event>
 4    1  0.5323640E-005  0.5435888E+03  0.7818608E-02  0.1002989E+00
         -2   -1    0    0    0  501 -0.00000000000E+00  0.00000000000E+00  0.47474517363E+02  0.47474517432E+02  0.25500000000E-02 0. -1.
          2   -1    0    0  501    0  0.00000000000E+00 -0.00000000000E+00 -0.15560386400E+04  0.15560386400E+04  0.25500000000E-02 0.  1.
    5000001    1    1    2    0    0  0.31174155725E+02  0.21020740508E+03 -0.86807964953E+03  0.90881585543E+03  0.16500000000E+03 0.  0.
   -5000001    1    1    2    0    0 -0.31174155725E+02 -0.21020740508E+03 -0.64048447315E+03  0.69469730205E+03  0.16500000000E+03 0.  0.
<mgrwt>
<rscale>  0 0.54358875E+03</rscale>
<asrwt>0</asrwt>
<pdfrwt beam="1">  1        2 0.22229120E+00 0.54358875E+03</pdfrwt>
<pdfrwt beam="2">  1       -2 0.67820749E-02 0.54358875E+03</pdfrwt>
<totfact> 0.17750766E+03</totfact>
</mgrwt>
</event>
<event>
 4    1  0.5323640E-005  0.5516177E+03  0.7818608E-02  0.1001120E+00
         -2   -1    0    0    0  501 -0.00000000000E+00  0.00000000000E+00  0.78423034456E+02  0.78423034498E+02  0.25500000000E-02 0. -1.
          2   -1    0    0  501    0  0.00000000000E+00 -0.00000000000E+00 -0.97000236520E+03  0.97000236520E+03  0.25500000000E-02 0.  1.
    5000001    1    1    2    0    0 -0.20999286088E+03 -0.17073134906E+02 -0.57267819382E+03  0.63211850727E+03  0.16500000000E+03 0.  0.
   -5000001    1    1    2    0    0  0.20999286088E+03  0.17073134906E+02 -0.31890113693E+03  0.41630689243E+03  0.16500000000E+03 0.  0.
<mgrwt>
<rscale>  0 0.55161773E+03</rscale>
<asrwt>0</asrwt>
<pdfrwt beam="1">  1        2 0.13857176E+00 0.55161773E+03</pdfrwt>
<pdfrwt beam="2">  1       -2 0.11203291E-01 0.55161773E+03</pdfrwt>
<totfact> 0.16769227E+03</totfact>
</mgrwt>
</event>
<event>
 4    1  0.5323640E-005  0.5284129E+03  0.7818608E-02  0.1006618E+00
         -2   -1    0    0    0  501 -0.00000000000E+00  0.00000000000E+00  0.13752260668E+03  0.13752260671E+03  0.25500000000E-02 0. -1.
          2   -1    0    0  501    0  0.00000000000E+00 -0.00000000000E+00 -0.50758969748E+03  0.50758969749E+03  0.25500000000E-02 0.  1.
    5000001    1    1    2    0    0 -0.11628956481E+03  0.17043205782E+03 -0.18122944730E+03  0.32037394055E+03  0.16500000000E+03 0.  0.
   -5000001    1    1    2    0    0  0.11628956481E+03 -0.17043205782E+03 -0.18883764350E+03  0.32473836364E+03  0.16500000000E+03 0.  0.
<mgrwt>
<rscale>  0 0.52841294E+03</rscale>
<asrwt>0</asrwt>
<pdfrwt beam="1">  1        2 0.72512813E-01 0.52841294E+03</pdfrwt>
<pdfrwt beam="2">  1       -2 0.19646087E-01 0.52841294E+03</pdfrwt>
<totfact> 0.14506009E+03</totfact>
</mgrwt>
</event>
<event>
 4    1  0.5323640E-005  0.3500633E+03  0.7818608E-02  0.1062589E+00
          2   -1    0    0  501    0  0.00000000000E+00  0.00000000000E+00  0.10482480696E+04  0.10482480696E+04  0.25500000000E-02 0.  1.
         -2   -1    0    0    0  501 -0.00000000000E+00 -0.00000000000E+00 -0.29225974758E+02  0.29225974869E+02  0.25500000000E-02 0. -1.
    5000001    1    1    2    0    0  0.36873962767E+02 -0.44334104543E+02  0.48098902451E+03  0.51176229214E+03  0.16500000000E+03 0.  0.
   -5000001    1    1    2    0    0 -0.36873962767E+02  0.44334104543E+02  0.53803307028E+03  0.56571175229E+03  0.16500000000E+03 0.  0.
<mgrwt>
<rscale>  0 0.35006326E+03</rscale>
<asrwt>0</asrwt>
<pdfrwt beam="1">  1        2 0.14974971E+00 0.35006326E+03</pdfrwt>
<pdfrwt beam="2">  1       -2 0.41751398E-02 0.35006326E+03</pdfrwt>
<totfact> 0.70621218E+03</totfact>
</mgrwt>
</event>
<event>
 4    1  0.5323640E-005  0.5901086E+03  0.7818608E-02  0.9926143E-01
         -2   -1    0    0    0  501 -0.00000000000E+00  0.00000000000E+00  0.68857137926E+03  0.68857137926E+03  0.25500000000E-02 0. -1.
          2   -1    0    0  501    0  0.00000000000E+00 -0.00000000000E+00 -0.12643138926E+03  0.12643138928E+03  0.25500000000E-02 0.  1.
    5000001    1    1    2    0    0 -0.12493294677E+03 -0.19018102752E+03  0.40502359900E+03  0.49299714012E+03  0.16500000000E+03 0.  0.
   -5000001    1    1    2    0    0  0.12493294677E+03  0.19018102752E+03  0.15711639100E+03  0.32200562843E+03  0.16500000000E+03 0.  0.
<mgrwt>
<rscale>  0 0.59010859E+03</rscale>
<asrwt>0</asrwt>
<pdfrwt beam="1">  1        2 0.18061627E-01 0.59010859E+03</pdfrwt>
<pdfrwt beam="2">  1       -2 0.98367341E-01 0.59010859E+03</pdfrwt>
<totfact> 0.27851547E+02</totfact>
</mgrwt>
</event>
<event>
 4    1  0.5323640E-005  0.4634500E+03  0.7818608E-02  0.1023785E+00
         -2   -1    0    0    0  501 -0.00000000000E+00  0.00000000000E+00  0.75470301881E+02  0.75470301924E+02  0.25500000000E-02 0. -1.
          2   -1    0    0  501    0  0.00000000000E+00 -0.00000000000E+00 -0.71149131964E+03  0.71149131965E+03  0.25500000000E-02 0.  1.
    5000001    1    1    2    0    0 -0.52867421759E+02 -0.15004530157E+03 -0.26010453509E+03  0.34668130319E+03  0.16500000000E+03 0.  0.
   -5000001    1    1    2    0    0  0.52867421759E+02  0.15004530157E+03 -0.37591648267E+03  0.44028031838E+03  0.16500000000E+03 0.  0.
<mgrwt>
<rscale>  0 0.46344995E+03</rscale>
<asrwt>0</asrwt>
<pdfrwt beam="1">  1        2 0.10164161E+00 0.46344995E+03</pdfrwt>
<pdfrwt beam="2">  1       -2 0.10781472E-01 0.46344995E+03</pdfrwt>
<totfact> 0.26630349E+03</totfact>
</mgrwt>
</event>
<event>
 4    1  0.5323640E-005  0.5938337E+03  0.7818608E-02  0.9918282E-01
         -2   -1    0    0    0  501 -0.00000000000E+00  0.00000000000E+00  0.77906202501E+02  0.77906202543E+02  0.25500000000E-02 0. -1.
          2   -1    0    0  501    0  0.00000000000E+00 -0.00000000000E+00 -0.11316122275E+04  0.11316122275E+04  0.25500000000E-02 0.  1.
    5000001    1    1    2    0    0 -0.51079122371E+02  0.22464486787E+03 -0.70743106127E+03  0.76207486499E+03  0.16500000000E+03 0.  0.
   -5000001    1    1    2    0    0  0.51079122371E+02 -0.22464486787E+03 -0.34627496373E+03  0.44744356505E+03  0.16500000000E+03 0.  0.
<mgrwt>
<rscale>  0 0.59383369E+03</rscale>
<asrwt>0</asrwt>
<pdfrwt beam="1">  1        2 0.16165888E+00 0.59383369E+03</pdfrwt>
<pdfrwt beam="2">  1       -2 0.11129458E-01 0.59383369E+03</pdfrwt>
<totfact> 0.13578463E+03</totfact>
</mgrwt>
</event>
<event>
 4    1  0.5323640E-005  0.1061319E+04  0.7818608E-02  0.9243735E-01
          2   -1    0    0  501    0  0.00000000000E+00  0.00000000000E+00  0.34312695123E+03  0.34312695124E+03  0.25500000000E-02 0.  1.
         -2   -1    0    0    0  501 -0.00000000000E+00 -0.00000000000E+00 -0.82068629786E+03  0.82068629786E+03  0.25500000000E-02 0. -1.
    5000001    1    1    2    0    0 -0.24780275451E+03 -0.41283442321E+03 -0.74161840889E+02  0.51435731236E+03  0.16500000000E+03 0.  0.
   -5000001    1    1    2    0    0  0.24780275451E+03  0.41283442321E+03 -0.40339750573E+03  0.64945593674E+03  0.16500000000E+03 0.  0.
<mgrwt>
<rscale>  0 0.10613192E+04</rscale>
<asrwt>0</asrwt>
<pdfrwt beam="1">  1        2 0.49018136E-01 0.10613192E+04</pdfrwt>
<pdfrwt beam="2">  1       -2 0.11724090E+00 0.10613192E+04</pdfrwt>
<totfact> 0.57482982E+01</totfact>
</mgrwt>
</event>
<event>
 4    1  0.5323640E-005  0.8339726E+03  0.7818608E-02  0.9512104E-01
          2   -1    0    0  501    0  0.00000000000E+00  0.00000000000E+00  0.18172377050E+04  0.18172377050E+04  0.25500000000E-02 0.  1.
         -2   -1    0    0    0  501 -0.00000000000E+00 -0.00000000000E+00 -0.95682353134E+02  0.95682353168E+02  0.25500000000E-02 0. -1.
    5000001    1    1    2    0    0 -0.28103788313E+03 -0.25962341666E+03  0.82336997253E+03  0.92279451770E+03  0.16500000000E+03 0.  0.
   -5000001    1    1    2    0    0  0.28103788313E+03  0.25962341666E+03  0.89818537934E+03  0.99012554047E+03  0.16500000000E+03 0.  0.
<mgrwt>
<rscale>  0 0.83397261E+03</rscale>
<asrwt>0</asrwt>
<pdfrwt beam="1">  1        2 0.25960536E+00 0.83397261E+03</pdfrwt>
<pdfrwt beam="2">  1       -2 0.13668909E-01 0.83397261E+03</pdfrwt>
<totfact> 0.41286223E+02</totfact>
</mgrwt>
</event>
<event>
 4    1  0.5323640E-005  0.1164527E+04  0.7818608E-02  0.9144486E-01
         -2   -1    0    0    0  501 -0.00000000000E+00  0.00000000000E+00  0.11580566897E+03  0.11580566899E+03  0.25500000000E-02 0. -1.
          2   -1    0    0  501    0  0.00000000000E+00 -0.00000000000E+00 -0.29275816378E+04  0.29275816378E+04  0.25500000000E-02 0.  1.
    5000001    1    1    2    0    0 -0.31198647071E+03  0.38610108605E+03 -0.20742060751E+04  0.21391506372E+04  0.16500000000E+03 0.  0.
   -5000001    1    1    2    0    0  0.31198647071E+03 -0.38610108605E+03 -0.73756989380E+03  0.90423666968E+03  0.16500000000E+03 0.  0.
<mgrwt>
<rscale>  0 0.11645266E+04</rscale>
<asrwt>0</asrwt>
<pdfrwt beam="1">  1        2 0.41822590E+00 0.11645266E+04</pdfrwt>
<pdfrwt beam="2">  1       -2 0.16543669E-01 0.11645266E+04</pdfrwt>
<totfact> 0.76964788E+01</totfact>
</mgrwt>
</event>
<event>
 4    1  0.5323640E-005  0.6921567E+03  0.7818608E-02  0.9730740E-01
         -2   -1    0    0    0  501 -0.00000000000E+00  0.00000000000E+00  0.75374202030E+02  0.75374202073E+02  0.25500000000E-02 0. -1.
          2   -1    0    0  501    0  0.00000000000E+00 -0.00000000000E+00 -0.15890080564E+04  0.15890080564E+04  0.25500000000E-02 0.  1.
    5000001    1    1    2    0    0 -0.19424191247E+03 -0.14555065668E+03 -0.11977919994E+04  0.12332256842E+04  0.16500000000E+03 0.  0.
   -5000001    1    1    2    0    0  0.19424191247E+03  0.14555065668E+03 -0.31584185491E+03  0.43115657427E+03  0.16500000000E+03 0.  0.
<mgrwt>
<rscale>  0 0.69215667E+03</rscale>
<asrwt>0</asrwt>
<pdfrwt beam="1">  1        2 0.22700113E+00 0.69215667E+03</pdfrwt>
<pdfrwt beam="2">  1       -2 0.10767744E-01 0.69215667E+03</pdfrwt>
<totfact> 0.80872433E+02</totfact>
</mgrwt>
</event>
<event>
 4    1  0.5323640E-005  0.5738467E+03  0.7818608E-02  0.9961202E-01
          2   -1    0    0  501    0  0.00000000000E+00  0.00000000000E+00  0.19902598673E+04  0.19902598673E+04  0.25500000000E-02 0.  1.
         -2   -1    0    0    0  501 -0.00000000000E+00 -0.00000000000E+00 -0.41363956277E+02  0.41363956356E+02  0.25500000000E-02 0. -1.
    5000001    1    1    2    0    0  0.15564060189E+03  0.16221151820E+03  0.73528497585E+03  0.78638767113E+03  0.16500000000E+03 0.  0.
   -5000001    1    1    2    0    0 -0.15564060189E+03 -0.16221151820E+03  0.12136109352E+04  0.12452361526E+04  0.16500000000E+03 0.  0.
<mgrwt>
<rscale>  0 0.57384675E+03</rscale>
<asrwt>0</asrwt>
<pdfrwt beam="1">  1        2 0.28432278E+00 0.57384675E+03</pdfrwt>
<pdfrwt beam="2">  1       -2 0.59091378E-02 0.57384675E+03</pdfrwt>
<totfact> 0.13271140E+03</totfact>
</mgrwt>
</event>
<event>
 4    1  0.5323640E-005  0.3552642E+03  0.7818608E-02  0.1060475E+00
          2   -1    0    0  501    0  0.00000000000E+00  0.00000000000E+00  0.49785608525E+02  0.49785608590E+02  0.25500000000E-02 0.  1.
         -2   -1    0    0    0  501 -0.00000000000E+00 -0.00000000000E+00 -0.63378083095E+03  0.63378083096E+03  0.25500000000E-02 0. -1.
    5000001    1    1    2    0    0  0.27163619944E+02 -0.50216042706E+02 -0.22909810155E+03  0.28804592226E+03  0.16500000000E+03 0.  0.
   -5000001    1    1    2    0    0 -0.27163619944E+02  0.50216042706E+02 -0.35489712088E+03  0.39552051729E+03  0.16500000000E+03 0.  0.
<mgrwt>
<rscale>  0 0.35526421E+03</rscale>
<asrwt>0</asrwt>
<pdfrwt beam="1">  1        2 0.71122302E-02 0.35526421E+03</pdfrwt>
<pdfrwt beam="2">  1       -2 0.90540114E-01 0.35526421E+03</pdfrwt>
<totfact> 0.10740958E+03</totfact>
</mgrwt>
</event>
<event>
 4    1  0.5323640E-005  0.4793566E+03  0.7818608E-02  0.1019312E+00
          2   -1    0    0  501    0  0.00000000000E+00  0.00000000000E+00  0.73007588636E+03  0.73007588637E+03  0.25500000000E-02 0.  1.
         -2   -1    0    0    0  501 -0.00000000000E+00 -0.00000000000E+00 -0.78684538273E+02  0.78684538315E+02  0.25500000000E-02 0. -1.
    5000001    1    1    2    0    0  0.59551321811E+02 -0.15904056031E+03  0.26301011704E+03  0.35389204769E+03  0.16500000000E+03 0.  0.
   -5000001    1    1    2    0    0 -0.59551321811E+02  0.15904056031E+03  0.38838123105E+03  0.45486837699E+03  0.16500000000E+03 0.  0.
<mgrwt>
<rscale>  0 0.47935659E+03</rscale>
<asrwt>0</asrwt>
<pdfrwt beam="1">  1        2 0.10429656E+00 0.47935659E+03</pdfrwt>
<pdfrwt beam="2">  1       -2 0.11240648E-01 0.47935659E+03</pdfrwt>
<totfact> 0.24118078E+03</totfact>
</mgrwt>
</event>
<event>
 4    1  0.5323640E-005  0.6222814E+03  0.7818608E-02  0.9860228E-01
         -2   -1    0    0    0  501 -0.00000000000E+00  0.00000000000E+00  0.23230303379E+03  0.23230303381E+03  0.25500000000E-02 0.  1.
          2   -1    0    0  501    0  0.00000000000E+00 -0.00000000000E+00 -0.41673383165E+03  0.41673383166E+03  0.25500000000E-02 0. -1.
    5000001    1    1    2    0    0 -0.25740364468E+03  0.12823299992E+02 -0.15086905317E+03  0.34118549870E+03  0.16500000000E+03 0.  0.
   -5000001    1    1    2    0    0  0.25740364468E+03 -0.12823299992E+02 -0.33561744689E+02  0.30785136677E+03  0.16500000000E+03 0.  0.
<mgrwt>
<rscale>  0 0.62228139E+03</rscale>
<asrwt>0</asrwt>
<pdfrwt beam="1">  1        2 0.59533404E-01 0.62228139E+03</pdfrwt>
<pdfrwt beam="2">  1       -2 0.33186148E-01 0.62228139E+03</pdfrwt>
<totfact> 0.70352288E+02</totfact>
</mgrwt>
</event>
<event>
 4    1  0.5323640E-005  0.6509927E+03  0.7818608E-02  0.9804918E-01
         -2   -1    0    0    0  501 -0.00000000000E+00  0.00000000000E+00  0.55821801463E+02  0.55821801521E+02  0.25500000000E-02 0.  1.
          2   -1    0    0  501    0  0.00000000000E+00 -0.00000000000E+00 -0.18979657869E+04  0.18979657869E+04  0.25500000000E-02 0. -1.
    5000001    1    1    2    0    0 -0.25685395813E+03 -0.53849956291E+02 -0.12189232364E+04  0.12577251805E+04  0.16500000000E+03 0.  0.
   -5000001    1    1    2    0    0  0.25685395813E+03  0.53849956291E+02 -0.62322074904E+03  0.69606240786E+03  0.16500000000E+03 0.  0.
<mgrwt>
<rscale>  0 0.65099269E+03</rscale>
<asrwt>0</asrwt>
<pdfrwt beam="1">  1        2 0.27113793E+00 0.65099269E+03</pdfrwt>
<pdfrwt beam="2">  1       -2 0.79745442E-02 0.65099269E+03</pdfrwt>
<totfact> 0.91610929E+02</totfact>
</mgrwt>
</event>
